/*--------------------------------*- C++ -*----------------------------------*\
  =========                 |
  \\      /  F ield         | OpenFOAM: The Open Source CFD Toolbox
   \\    /   O peration     | Website:  https://openfoam.org
    \\  /    A nd           | Version:  7
     \\/     M anipulation  |
\*---------------------------------------------------------------------------*/
FoamFile
{
    version     2.0;
    format      ascii;
    class       surfaceScalarField;
    location    "300";
    object      phi;
}
// * * * * * * * * * * * * * * * * * * * * * * * * * * * * * * * * * * * * * //

dimensions      [0 3 -1 0 0 0 0];

internalField   nonuniform List<scalar> 
8878
(
-0.0040677
-0.000240405
-0.000240559
-0.00392601
-0.00403437
-0.000273887
-0.000204858
-0.0036896
-0.000238026
-0.00378799
-0.000272107
-0.00389192
-0.00399945
-0.000307028
-0.000199261
-0.00356483
-0.000232905
-0.00365596
-0.000267633
-0.00375326
-0.000303306
-0.00385625
-0.00396294
-0.000339818
-0.000191523
-0.00344682
-0.000225453
-0.0035309
-0.000260598
-0.00362081
-0.000296881
-0.00371698
-0.000334144
-0.00381899
-0.00392484
-0.000372242
-0.000181803
-0.00333498
-0.000215925
-0.0034127
-0.000251294
-0.00349553
-0.000287928
-0.00358418
-0.000325756
-0.00367915
-0.000364606
-0.00378014
-0.00388516
-0.000404289
-0.000170184
-0.00322837
-0.00020447
-0.00330069
-0.000239986
-0.00337719
-0.000276778
-0.00345873
-0.000314883
-0.00354607
-0.000354245
-0.00363979
-0.000394679
-0.0037397
-0.00384389
-0.000435943
-0.000156731
-0.00312586
-0.000191155
-0.00319395
-0.000226809
-0.00326503
-0.000263701
-0.0033403
-0.000301897
-0.00342054
-0.000341453
-0.00350652
-0.000382334
-0.00359891
-0.000424348
-0.00369769
-0.00380105
-0.000467192
-0.000141555
-0.00302571
-0.000176027
-0.00309139
-0.000211808
-0.00315817
-0.000248815
-0.00322803
-0.000287067
-0.00330204
-0.000326645
-0.00338096
-0.00036763
-0.00346553
-0.00041001
-0.00355653
-0.000453596
-0.0036541
-0.00375663
-0.000498018
-0.000124857
-0.00292496
-0.000159182
-0.00299138
-0.000195018
-0.00305556
-0.000232142
-0.00312104
-0.000270486
-0.00318968
-0.00031008
-0.00326245
-0.000351017
-0.00334002
-0.000393404
-0.00342315
-0.000437261
-0.00351267
-0.000482409
-0.00360896
-0.00371063
-0.000528406
-0.000106972
-0.00281869
-0.000140808
-0.00289112
-0.00017652
-0.00295567
-0.000213701
-0.00301838
-0.000252152
-0.00308259
-0.000291818
-0.00315002
-0.000332736
-0.00322153
-0.000375011
-0.00329775
-0.000418771
-0.00337939
-0.000464075
-0.00346737
-0.00051077
-0.00356226
-0.00366306
-0.000558338
-8.84006e-05
-0.00269919
-0.000121218
-0.00278587
-0.000156488
-0.00285585
-0.000193565
-0.00291859
-0.000232073
-0.00297987
-0.000271837
-0.00304283
-0.00031281
-0.00310904
-0.000355036
-0.00317931
-0.000398625
-0.00325416
-0.000443727
-0.00333428
-0.000490443
-0.00342065
-0.000538665
-0.00351404
-0.00361393
-0.000587798
-6.98226e-05
-0.00255541
-0.000100895
-0.00266811
-0.000135219
-0.00275155
-0.000171893
-0.00281918
-0.000210313
-0.00288017
-0.000250132
-0.00294005
-0.000291193
-0.00300177
-0.00033346
-0.00306678
-0.000376978
-0.00313579
-0.00042186
-0.00320928
-0.000468271
-0.00328787
-0.000516359
-0.00337256
-0.000566083
-0.00346432
-0.00356324
-0.000616775
-5.20657e-05
-0.00237308
-8.05015e-05
-0.00252698
-0.000113175
-0.00263544
-0.000148969
-0.00271575
-0.000187022
-0.00278113
-0.000226762
-0.00284043
-0.000267874
-0.00289894
-0.000310218
-0.00295942
-0.000353766
-0.00302323
-0.000398563
-0.00309099
-0.000444719
-0.00316312
-0.000492406
-0.00324019
-0.000541823
-0.00332315
-0.000593015
-0.00341312
-0.00351099
-0.000645258
-6.08607e-05
-0.00234824
-9.10007e-05
-0.00249684
-0.000125234
-0.00260121
-0.000162466
-0.00267852
-0.000201869
-0.00274172
-0.000242909
-0.00279939
-0.000285296
-0.00285655
-0.000328909
-0.00291581
-0.000373726
-0.00297841
-0.000419791
-0.00304493
-0.000467206
-0.00311571
-0.000516142
-0.00319125
-0.00056684
-0.00327245
-0.000619464
-0.0033605
-0.00345722
-0.000673238
-4.28828e-05
-0.00211527
-6.95158e-05
-0.0023216
-0.000101315
-0.00246504
-0.000137068
-0.00256545
-0.000175704
-0.00263988
-0.000216431
-0.002701
-0.00025875
-0.00275708
-0.000302395
-0.0028129
-0.000347263
-0.00287094
-0.000393338
-0.00293234
-0.000440662
-0.0029976
-0.000489326
-0.00306704
-0.000539491
-0.00314109
-0.000591429
-0.00322051
-0.000645442
-0.00330649
-0.00340194
-0.000700722
-2.74369e-05
-0.00181112
-4.96473e-05
-0.00209306
-7.80251e-05
-0.00229323
-0.000111439
-0.00243162
-0.000148673
-0.00252822
-0.000188682
-0.00259988
-0.000230707
-0.00265897
-0.000274282
-0.0027135
-0.000319168
-0.00276802
-0.000365275
-0.00282484
-0.000412597
-0.00288501
-0.000461174
-0.00294902
-0.000511086
-0.00301713
-0.000562468
-0.0030897
-0.000615617
-0.00316736
-0.000670985
-0.00325112
-0.00334514
-0.000727785
-3.23166e-05
-0.001794
-5.63063e-05
-0.00206907
-8.63832e-05
-0.00226315
-0.000121369
-0.00239664
-0.000160046
-0.00248954
-0.000201395
-0.00255853
-0.000244692
-0.00261568
-0.000289502
-0.00266869
-0.00033561
-0.00272191
-0.000382941
-0.0027775
-0.000431499
-0.00283646
-0.000481325
-0.0028992
-0.000532485
-0.00296597
-0.000585089
-0.0030371
-0.00063944
-0.00311301
-0.000696155
-0.0031944
-0.00328677
-0.000754524
-1.82986e-05
-0.00140947
-3.71287e-05
-0.00177517
-6.28544e-05
-0.00204335
-9.45856e-05
-0.00223142
-0.000131101
-0.00236012
-0.000171184
-0.00244946
-0.000213841
-0.00251587
-0.000258384
-0.00257113
-0.000304406
-0.00262267
-0.000351717
-0.0026746
-0.000400256
-0.00272896
-0.000450037
-0.00278668
-0.000501106
-0.00284813
-0.000553524
-0.00291355
-0.000607376
-0.00298325
-0.000662956
-0.00305743
-0.000720971
-0.00313639
-0.00322679
-0.000780957
-8.10445e-06
-0.00092968
-2.13595e-05
-0.00139622
-4.18681e-05
-0.00175466
-6.92871e-05
-0.00201593
-0.000102628
-0.00219808
-0.00014063
-0.00232212
-0.000182082
-0.00240801
-0.000226017
-0.00247194
-0.000271779
-0.00252537
-0.000318992
-0.00257546
-0.000367484
-0.00262611
-0.000417212
-0.00267924
-0.0004682
-0.00273569
-0.000520503
-0.00279583
-0.000574187
-0.00285987
-0.000629345
-0.00292809
-0.000686263
-0.00300051
-0.000745453
-0.0030772
-0.00316484
-0.000807394
-9.65101e-06
-0.000921992
-2.43803e-05
-0.00138149
-4.65308e-05
-0.00173251
-7.55998e-05
-0.00198686
-0.000110506
-0.00216317
-0.000149954
-0.00228267
-0.000192739
-0.00236522
-0.000237921
-0.00242675
-0.000284875
-0.00247842
-0.000333254
-0.00252708
-0.000382906
-0.00257645
-0.000433802
-0.00262834
-0.000485976
-0.00268351
-0.000539495
-0.00274231
-0.000594442
-0.00280492
-0.000650963
-0.00287157
-0.000709402
-0.00294207
-0.000770443
-0.00301616
-0.00310283
-0.000832453
-2.41605e-06
-0.00034932
-1.1177e-05
-0.000913231
-2.73524e-05
-0.00136531
-5.11068e-05
-0.00170876
-8.17824e-05
-0.00195618
-0.00011821
-0.00212674
-0.000159063
-0.00224182
-0.000203145
-0.00232114
-0.000249543
-0.00238036
-0.000297664
-0.0024303
-0.000347185
-0.00247756
-0.000397974
-0.00252567
-0.000450013
-0.0025763
-0.000503347
-0.00263018
-0.000558051
-0.0026876
-0.000614233
-0.00274874
-0.000672097
-0.0028137
-0.000731816
-0.00288235
-0.000792606
-0.00295537
-0.00303476
-0.000860681
-2.86743e-06
-0.000346453
-1.2688e-05
-0.00090341
-3.02829e-05
-0.00134772
-5.56039e-05
-0.00168344
-8.78435e-05
-0.00192394
-0.000125749
-0.00208884
-0.000167967
-0.0021996
-0.000213311
-0.0022758
-0.000260895
-0.00233277
-0.000310155
-0.00238104
-0.000360793
-0.00242692
-0.000412694
-0.00247376
-0.000465852
-0.00252314
-0.000520316
-0.00257572
-0.000576169
-0.00263175
-0.000633527
-0.00269138
-0.000692566
-0.00275467
-0.000753365
-0.00282155
-0.000816034
-0.0028927
-0.00296776
-0.000883034
-3.31415e-06
-0.000343139
-1.41782e-05
-0.000892546
-3.31637e-05
-0.00132873
-6.00131e-05
-0.00165659
-9.37736e-05
-0.00189018
-0.000133114
-0.0020495
-0.000176658
-0.00215606
-0.000223229
-0.00222923
-0.000271967
-0.00228403
-0.000322339
-0.00233066
-0.000374069
-0.00237519
-0.000427057
-0.00242078
-0.000481307
-0.00246889
-0.000536873
-0.00252015
-0.00059384
-0.00257478
-0.000652321
-0.0026329
-0.000712461
-0.00269453
-0.000774348
-0.00275967
-0.000838285
-0.00282876
-0.00290082
-0.000905225
-3.7557e-06
-0.000339383
-1.56459e-05
-0.000880656
-3.59921e-05
-0.00130839
-6.4331e-05
-0.00162825
-9.95696e-05
-0.00185494
-0.000140303
-0.00200876
-0.000185133
-0.00211123
-0.000232896
-0.00218146
-0.000282759
-0.00223417
-0.000334215
-0.00227921
-0.000387011
-0.00232239
-0.000441061
-0.00236673
-0.000496376
-0.00241358
-0.000553015
-0.00246351
-0.000611062
-0.00251673
-0.000670626
-0.00257334
-0.000731826
-0.00263333
-0.000794765
-0.00269673
-0.000859715
-0.00276381
-0.0028335
-0.000927035
-4.19151e-06
-0.000335191
-1.70894e-05
-0.000867758
-3.87656e-05
-0.00128671
-6.85548e-05
-0.00159846
-0.000105229
-0.00181827
-0.000147313
-0.00196668
-0.000193391
-0.00206515
-0.000242311
-0.00213254
-0.000293269
-0.00218321
-0.000345782
-0.0022267
-0.000399617
-0.00226856
-0.000454703
-0.00231164
-0.000511057
-0.00235723
-0.00056874
-0.00240583
-0.000627836
-0.00245764
-0.000688446
-0.00251273
-0.000750676
-0.0025711
-0.000814628
-0.00263278
-0.000880502
-0.00269794
-0.00276557
-0.000948431
-4.62103e-06
-0.00033057
-1.85071e-05
-0.000853872
-4.14818e-05
-0.00126373
-7.26819e-05
-0.00156726
-0.000110748
-0.0017802
-0.000154141
-0.00192329
-0.000201429
-0.00201786
-0.000251473
-0.0020825
-0.000303495
-0.00213119
-0.000357037
-0.00217315
-0.000411886
-0.00221371
-0.000467982
-0.00225554
-0.000525347
-0.00229986
-0.000584046
-0.00234713
-0.000644162
-0.00239752
-0.000705787
-0.0024511
-0.000769019
-0.00250786
-0.000833951
-0.00256784
-0.000900727
-0.00263116
-0.00269691
-0.000969393
-5.04374e-06
-0.000325527
-1.98976e-05
-0.000839018
-4.41386e-05
-0.00123949
-7.67097e-05
-0.00153469
-0.000116126
-0.00174079
-0.000160787
-0.00187863
-0.000209246
-0.0019694
-0.000260381
-0.00203136
-0.000313436
-0.00207814
-0.00036798
-0.00211861
-0.000423817
-0.00215787
-0.000480896
-0.00219846
-0.000539247
-0.00224151
-0.000598934
-0.00228744
-0.00066004
-0.00233642
-0.000722653
-0.00238849
-0.000786861
-0.00244366
-0.00085275
-0.00250196
-0.000920426
-0.00256348
-0.00262743
-5.45909e-06
-0.000320067
-2.12593e-05
-0.000823218
-4.67337e-05
-0.00121402
-8.06359e-05
-0.00150078
-0.00012136
-0.00170006
-0.000167248
-0.00183274
-0.000216841
-0.00191981
-0.000269033
-0.00197917
-0.000323092
-0.00202408
-0.00037861
-0.00206309
-0.000435408
-0.00210107
-0.000493445
-0.00214043
-0.000552754
-0.0021822
-0.000613404
-0.00222679
-0.000675473
-0.00227435
-0.000739047
-0.00232491
-0.000804208
-0.0023785
-0.000871035
-0.00243513
-0.000939612
-0.00249491
-0.00255708
-5.86659e-06
-0.000314201
-2.25911e-05
-0.000806494
-4.92654e-05
-0.00118734
-8.44586e-05
-0.00146559
-0.000126449
-0.00165807
-0.000173522
-0.00178567
-0.000224213
-0.00186912
-0.000277428
-0.00192596
-0.000332462
-0.00196904
-0.000388927
-0.00200663
-0.000446658
-0.00204334
-0.000505627
-0.00208146
-0.000565869
-0.00212196
-0.000627454
-0.00216521
-0.00069046
-0.00221134
-0.00075497
-0.0022604
-0.000821064
-0.0023124
-0.000888812
-0.00236738
-0.000958291
-0.00242543
-0.00248586
-6.26573e-06
-0.000307935
-2.38916e-05
-0.000788868
-5.17319e-05
-0.0011595
-8.81757e-05
-0.00142915
-0.00013139
-0.00161486
-0.000179609
-0.00173745
-0.00023136
-0.00181737
-0.000285567
-0.00187175
-0.000341545
-0.00191306
-0.000398928
-0.00194924
-0.000457568
-0.0019847
-0.000517442
-0.00202159
-0.000578591
-0.00206081
-0.000641085
-0.00210271
-0.000705003
-0.00214742
-0.000770426
-0.00219498
-0.00083743
-0.0022454
-0.000906085
-0.00229873
-0.000976462
-0.00235505
-6.65607e-06
-0.000301279
-2.51597e-05
-0.000770364
-5.41314e-05
-0.00113053
-9.17855e-05
-0.00139149
-0.000136181
-0.00157046
-0.000185507
-0.00168812
-0.000238283
-0.00176459
-0.000293447
-0.00181658
-0.00035034
-0.00185617
-0.000408615
-0.00189097
-0.000468136
-0.00192518
-0.000528888
-0.00196083
-0.000590918
-0.00199878
-0.000654296
-0.00203934
-0.000719101
-0.00208262
-0.000785413
-0.00212867
-0.000853307
-0.0021775
-0.000922852
-0.00222918
-0.00228378
-7.03714e-06
-0.000294242
-2.63942e-05
-0.000751007
-5.64625e-05
-0.00110046
-9.52864e-05
-0.00135267
-0.000140823
-0.00152493
-0.000191215
-0.00163773
-0.000244979
-0.00171083
-0.00030107
-0.00176049
-0.000358848
-0.00179839
-0.000417986
-0.00183183
-0.000478361
-0.0018648
-0.000539967
-0.00189923
-0.000602851
-0.00193589
-0.000667088
-0.0019751
-0.000732755
-0.00201695
-0.000799932
-0.00206149
-0.000868695
-0.00210874
-0.000939114
-0.00215876
-0.00221163
-7.40852e-06
-0.000286833
-2.75942e-05
-0.000730821
-5.87237e-05
-0.00106933
-9.86768e-05
-0.00131272
-0.000145313
-0.00147829
-0.000196733
-0.00158631
-0.000251449
-0.00165611
-0.000308433
-0.00170351
-0.000367067
-0.00173976
-0.00042704
-0.00177186
-0.000488243
-0.0018036
-0.000550675
-0.00183679
-0.000614389
-0.00187218
-0.000679458
-0.00191003
-0.000745962
-0.00195045
-0.000813982
-0.00199347
-0.000883593
-0.00203913
-0.000954866
-0.00208749
-7.76981e-06
-0.000279064
-2.87586e-05
-0.000709833
-6.09136e-05
-0.00103718
-0.000101955
-0.00127167
-0.000149649
-0.0014306
-0.000202058
-0.0015339
-0.000257692
-0.00160048
-0.000315538
-0.00164566
-0.000374997
-0.0016803
-0.000435778
-0.00171108
-0.000497782
-0.0017416
-0.000561014
-0.00177356
-0.000625531
-0.00180766
-0.000691407
-0.00184416
-0.000758723
-0.00188313
-0.000827561
-0.00192464
-0.000897997
-0.00196869
-0.00201538
-8.12064e-06
-0.000270943
-2.98865e-05
-0.000688067
-6.3031e-05
-0.00100404
-0.000105121
-0.00122958
-0.000153832
-0.00138188
-0.000207192
-0.00148054
-0.000263707
-0.00154396
-0.000322382
-0.00158699
-0.000382638
-0.00162004
-0.000444199
-0.00164952
-0.000506976
-0.00167882
-0.000570982
-0.00170956
-0.000636275
-0.00174237
-0.000702932
-0.0017775
-0.000771035
-0.00181503
-0.000840667
-0.001855
-0.000911905
-0.00189745
-0.00194246
-8.46063e-06
-0.000262482
-3.09771e-05
-0.00066555
-6.50748e-05
-0.000969938
-0.000108172
-0.00118649
-0.00015786
-0.0013322
-0.000212131
-0.00142627
-0.000269494
-0.0014866
-0.000328967
-0.00152752
-0.00038999
-0.00155902
-0.000452302
-0.0015872
-0.000515825
-0.0016153
-0.000580577
-0.0016448
-0.00064662
-0.00167633
-0.000714033
-0.00171009
-0.000782897
-0.00174616
-0.000853298
-0.0017846
-0.000925315
-0.00182544
-0.00186874
-8.78945e-06
-0.000253693
-3.20295e-05
-0.00064231
-6.70438e-05
-0.000934923
-0.000111108
-0.00114242
-0.000161732
-0.00128157
-0.000216878
-0.00137112
-0.000275052
-0.00142842
-0.000335291
-0.00146728
-0.000397051
-0.00149726
-0.000460086
-0.00152417
-0.000524328
-0.00155106
-0.0005898
-0.00157933
-0.000656567
-0.00160956
-0.000724707
-0.00164195
-0.000794307
-0.00167656
-0.000865451
-0.00171346
-0.000938222
-0.00175267
-9.10677e-06
-0.000244586
-3.30431e-05
-0.000618374
-6.89371e-05
-0.000899029
-0.000113928
-0.00109743
-0.000165448
-0.00123005
-0.000221429
-0.00131514
-0.000280382
-0.00136947
-0.000341354
-0.00140631
-0.000403822
-0.00143479
-0.000467552
-0.00146044
-0.000532485
-0.00148612
-0.000598649
-0.00151317
-0.000666112
-0.0015421
-0.000734954
-0.0015731
-0.000805262
-0.00160626
-0.000877123
-0.0016416
-0.00167917
-9.41228e-06
-0.000235174
-3.4017e-05
-0.000593769
-7.07536e-05
-0.000862293
-0.00011663
-0.00105156
-0.000169005
-0.00117768
-0.000225786
-0.00125836
-0.000285482
-0.00130978
-0.000347156
-0.00134463
-0.000410302
-0.00137165
-0.000474698
-0.00139604
-0.000540294
-0.00142053
-0.000607123
-0.00144634
-0.000675254
-0.00147397
-0.000744771
-0.00150359
-0.000815761
-0.00153527
-0.000888312
-0.00156905
-0.00160497
-9.70569e-06
-0.000225468
-3.49506e-05
-0.000568524
-7.24926e-05
-0.000824751
-0.000119214
-0.00100484
-0.000172405
-0.00112449
-0.000229947
-0.00120082
-0.000290351
-0.00124937
-0.000352697
-0.00128229
-0.00041649
-0.00130785
-0.000481524
-0.00133101
-0.000547756
-0.0013543
-0.000615221
-0.00137887
-0.000683993
-0.0014052
-0.000754157
-0.00143342
-0.000825801
-0.00146362
-0.000899015
-0.00149583
-0.00153009
-9.98673e-06
-0.000215481
-3.58433e-05
-0.000542668
-7.41532e-05
-0.000786441
-0.000121679
-0.00095731
-0.000175646
-0.00107052
-0.000233912
-0.00114256
-0.000294991
-0.00118829
-0.000357975
-0.0012193
-0.000422387
-0.00124344
-0.00048803
-0.00126536
-0.000554868
-0.00128746
-0.000622942
-0.0013108
-0.000692327
-0.00133581
-0.000763109
-0.00136264
-0.000835379
-0.00139135
-0.000909229
-0.00142198
-1.02551e-05
-0.000205226
-3.66944e-05
-0.000516229
-7.57346e-05
-0.000747401
-0.000124024
-0.00090902
-0.000178728
-0.00101581
-0.00023768
-0.0010836
-0.0002994
-0.00112657
-0.000362992
-0.00115571
-0.000427991
-0.00117844
-0.000494214
-0.00119914
-0.00056163
-0.00122004
-0.000630284
-0.00124215
-0.000700253
-0.00126584
-0.000771626
-0.00129127
-0.000844494
-0.00131848
-0.00134753
-1.05107e-05
-0.000194716
-3.75035e-05
-0.000489236
-7.7236e-05
-0.000707668
-0.000126249
-0.000860007
-0.000181649
-0.000960414
-0.000241252
-0.001024
-0.000303578
-0.00106424
-0.000367746
-0.00109154
-0.000433303
-0.00111289
-0.000500076
-0.00113237
-0.000568041
-0.00115208
-0.000637246
-0.00117294
-0.000707772
-0.00119532
-0.000779706
-0.00121933
-0.000853142
-0.00124505
-0.00127249
-1.07531e-05
-0.000183963
-3.82699e-05
-0.000461719
-7.86569e-05
-0.000667281
-0.000128353
-0.000810311
-0.00018441
-0.000904357
-0.000244626
-0.000963784
-0.000307525
-0.00100135
-0.000372236
-0.00102683
-0.000438322
-0.0010468
-0.000505615
-0.00106507
-0.0005741
-0.00108359
-0.000643828
-0.00110321
-0.00071488
-0.00112426
-0.000787347
-0.00114687
-0.000861322
-0.00117107
-0.00119691
-1.09822e-05
-0.00017298
-3.89933e-05
-0.000433708
-7.99966e-05
-0.000626278
-0.000130335
-0.000759972
-0.00018701
-0.000847682
-0.000247803
-0.000902992
-0.000311241
-0.000937908
-0.000376464
-0.00096161
-0.000443046
-0.000980218
-0.000510832
-0.000997289
-0.000579807
-0.00101462
-0.000650028
-0.00103299
-0.000721577
-0.00105271
-0.000794547
-0.0010739
-0.000869032
-0.00109659
-0.00112081
-1.11977e-05
-0.000161783
-3.96731e-05
-0.000405232
-8.12545e-05
-0.000584696
-0.000132195
-0.000709032
-0.000189449
-0.000790428
-0.000250781
-0.000841659
-0.000314724
-0.000873965
-0.000380428
-0.000895907
-0.000447477
-0.000913169
-0.000515724
-0.000929042
-0.00058516
-0.000945181
-0.000655845
-0.000962307
-0.000727862
-0.000980698
-0.000801304
-0.00100045
-0.000876269
-0.00102162
-1.13996e-05
-0.000150383
-4.0309e-05
-0.000376323
-8.24301e-05
-0.000542575
-0.000133932
-0.00065753
-0.000191725
-0.000732635
-0.000253562
-0.000779823
-0.000317976
-0.000809551
-0.000384128
-0.000829755
-0.000451613
-0.000845683
-0.000520291
-0.000860364
-0.000590159
-0.000875313
-0.000661278
-0.000891189
-0.000733732
-0.000908244
-0.000807617
-0.00092657
-0.000946208
-1.15875e-05
-0.000138795
-4.09004e-05
-0.00034701
-8.35228e-05
-0.000499953
-0.000135546
-0.000605508
-0.000193839
-0.000674341
-0.000256143
-0.000717519
-0.000320994
-0.0007447
-0.000387563
-0.000763186
-0.000455454
-0.000777792
-0.000524534
-0.000791284
-0.000594803
-0.000805043
-0.000666325
-0.000819667
-0.000739187
-0.000835382
-0.000813484
-0.000852272
-0.000870376
-1.17614e-05
-0.000127034
-4.14472e-05
-0.000317324
-8.45322e-05
-0.000456868
-0.000137036
-0.000553004
-0.000195791
-0.000615586
-0.000258526
-0.000654784
-0.00032378
-0.000679445
-0.000390734
-0.000696232
-0.000459
-0.000709526
-0.000528451
-0.000721834
-0.000599091
-0.000734403
-0.000670987
-0.000747771
-0.000744225
-0.000762143
-0.000818904
-0.000777594
-0.000794157
-1.19211e-05
-0.000115113
-4.19489e-05
-0.000287297
-8.54579e-05
-0.000413359
-0.000138402
-0.000500061
-0.000197579
-0.000556408
-0.000260709
-0.000591655
-0.000326333
-0.00061382
-0.00039364
-0.000628926
-0.00046225
-0.000640916
-0.000532041
-0.000652042
-0.000603022
-0.000663422
-0.000675261
-0.000675533
-0.000748846
-0.000688558
-0.000823875
-0.000702564
-0.000717582
-1.20665e-05
-0.000103046
-4.24052e-05
-0.000256958
-8.62996e-05
-0.000369465
-0.000139643
-0.000446717
-0.000199205
-0.000496846
-0.000262692
-0.000528167
-0.000328653
-0.00054786
-0.00039628
-0.000561298
-0.000465203
-0.000571993
-0.000535305
-0.000581941
-0.000606596
-0.00059213
-0.000679147
-0.000602982
-0.000753047
-0.000614658
-0.000828396
-0.000627216
-0.000640684
-1.21973e-05
-9.08491e-05
-4.28159e-05
-0.000226339
-8.70567e-05
-0.000325224
-0.000140759
-0.000393014
-0.000200666
-0.000436939
-0.000264476
-0.000464357
-0.000330739
-0.000481597
-0.000398655
-0.000493382
-0.00046786
-0.000502788
-0.000538241
-0.000511561
-0.000609812
-0.000520558
-0.000682644
-0.00053015
-0.000756829
-0.000540473
-0.000832465
-0.00055158
-0.000563494
-1.23136e-05
-7.85354e-05
-4.31807e-05
-0.000195472
-8.77291e-05
-0.000280675
-0.000141751
-0.000338993
-0.000201964
-0.000376727
-0.00026606
-0.000400261
-0.000332592
-0.000415065
-0.000400765
-0.000425209
-0.00047022
-0.000433333
-0.000540849
-0.000440931
-0.00061267
-0.000448738
-0.000685752
-0.000457067
-0.00076019
-0.000466035
-0.000836083
-0.000475687
-0.000486044
-1.24153e-05
-6.61202e-05
-4.34994e-05
-0.000164388
-8.83164e-05
-0.000235858
-0.000142617
-0.000284692
-0.000203097
-0.000316246
-0.000267444
-0.000335914
-0.00033421
-0.000348299
-0.000402608
-0.000356811
-0.000472283
-0.000363658
-0.00054313
-0.000370084
-0.000615168
-0.0003767
-0.00068847
-0.000383765
-0.00076313
-0.000391376
-0.000839246
-0.00039957
-0.000408366
-1.25021e-05
-5.36181e-05
-4.37718e-05
-0.000133118
-8.88185e-05
-0.000190812
-0.000143357
-0.000230154
-0.000204066
-0.000255537
-0.000268627
-0.000271353
-0.000335595
-0.000281331
-0.000404185
-0.000288221
-0.000474048
-0.000293795
-0.000545082
-0.000299051
-0.000617307
-0.000304475
-0.000690797
-0.000310274
-0.000765647
-0.000316526
-0.000841956
-0.000323261
-0.000330493
-1.25741e-05
-4.1044e-05
-4.39977e-05
-0.000101695
-8.9235e-05
-0.000145574
-0.000143972
-0.000175417
-0.000204871
-0.000194637
-0.00026961
-0.000206615
-0.000336745
-0.000214196
-0.000405496
-0.00021947
-0.000475516
-0.000223775
-0.000546705
-0.000227862
-0.000619086
-0.000232094
-0.000692733
-0.000236627
-0.000767741
-0.000241519
-0.00084421
-0.000246792
-0.000252458
-1.26312e-05
-2.84127e-05
-4.4177e-05
-7.0149e-05
-8.95659e-05
-0.000100185
-0.00014446
-0.000120523
-0.000205511
-0.000133586
-0.000270392
-0.000141733
-0.000337661
-0.000146927
-0.00040654
-0.000150591
-0.000476685
-0.00015363
-0.000547999
-0.000156548
-0.000620504
-0.000159588
-0.000694277
-0.000162854
-0.000769412
-0.000166384
-0.000846009
-0.000170194
-1.26734e-05
-1.57394e-05
-4.43096e-05
-3.85128e-05
-8.9811e-05
-5.46841e-05
-0.000144822
-6.55121e-05
-0.000205986
-7.24221e-05
-0.000270974
-7.67462e-05
-0.000338343
-7.95578e-05
-0.000407318
-8.16158e-05
-0.000477557
-8.33914e-05
-0.000548964
-8.51416e-05
-0.000621563
-8.69895e-05
-0.000695429
-8.89871e-05
-0.000770659
-9.11546e-05
-9.35005e-05
-1.27005e-05
-3.03884e-06
-4.43954e-05
-6.81785e-06
-8.99701e-05
-9.10939e-06
-0.000145058
-1.04242e-05
-0.000206297
-1.11835e-05
-0.000271354
-1.16886e-05
-0.00033879
-1.21223e-05
-0.000407829
-1.25769e-05
-0.00047813
-1.30899e-05
-0.000549599
-1.36728e-05
-0.00062226
-1.43284e-05
-0.000696189
-1.50577e-05
-0.000771482
-1.58621e-05
-1.67431e-05
-1.27127e-05
9.67382e-06
-4.44344e-05
2.49039e-05
-9.00433e-05
3.64995e-05
-0.000145168
4.47003e-05
-0.000206442
5.0091e-05
-0.000271534
5.34032e-05
-0.000339002
5.53459e-05
-0.000408073
5.64936e-05
-0.000478405
5.72426e-05
-0.000549905
5.78268e-05
-0.000622597
5.83636e-05
-0.000696557
5.89026e-05
-0.000771881
5.94615e-05
6.00456e-05
-1.27098e-05
2.23837e-05
-4.44267e-05
5.66207e-05
-9.00306e-05
8.21035e-05
-0.000145151
9.98209e-05
-0.000206423
0.000111363
-0.000271513
0.000118493
-0.000338981
0.000122813
-0.00040805
0.000125563
-0.000478382
0.000127575
-0.000549882
0.000129326
-0.000622573
0.000131055
-0.000696533
0.000132862
-0.000771856
0.000134784
0.000136833
-1.2692e-05
3.50756e-05
-4.4372e-05
8.83007e-05
-8.99319e-05
0.000127663
-0.000145008
0.000154897
-0.000206239
0.000172594
-0.000271292
0.000183546
-0.000338724
0.000190246
-0.000407761
0.0001946
-0.000478061
0.000197875
-0.000549529
0.000200793
-0.000622188
0.000203715
-0.000696116
0.00020679
-0.000771406
0.000210075
0.000213588
-1.26591e-05
4.77347e-05
-4.42705e-05
0.000119912
-8.97472e-05
0.00017314
-0.000144739
0.000209889
-0.00020589
0.000233745
-0.000270869
0.000248525
-0.000338233
0.00025761
-0.000407205
0.000263572
-0.000477442
0.000268111
-0.000548846
0.000272198
-0.000621443
0.000276311
-0.000695307
0.000280654
-0.000770533
0.000285301
0.000290277
-1.26112e-05
6.0346e-05
-4.41221e-05
0.000151423
-8.94765e-05
0.000218494
-0.000144343
0.000264756
-0.000205376
0.000294777
-0.000270246
0.000313395
-0.000337508
0.000324872
-0.000406383
0.000332447
-0.000476524
0.000338253
-0.000547835
0.000343508
-0.000620337
0.000348813
-0.000694106
0.000354422
-0.000769235
0.00036043
-0.000845827
0.000366869
0.000373753
-1.25484e-05
7.28944e-05
-4.39271e-05
0.000182802
-8.91201e-05
0.000263687
-0.000143822
0.000319458
-0.000204697
0.000355653
-0.000269422
0.000378119
-0.000336548
0.000391999
-0.000405293
0.000401193
-0.000475309
0.000408269
-0.000546494
0.000414693
-0.000618871
0.00042119
-0.000692513
0.000428065
-0.000767515
0.000435432
-0.000843976
0.000443331
0.000451779
-1.24707e-05
8.5365e-05
-4.36855e-05
0.000214017
-8.86779e-05
0.00030868
-0.000143174
0.000373953
-0.000203854
0.000416333
-0.000268397
0.000442662
-0.000335354
0.000458956
-0.000403938
0.000469776
-0.000473796
0.000478127
-0.000544825
0.000485722
-0.000617045
0.00049341
-0.000690529
0.000501549
-0.000765371
0.000510274
-0.000841671
0.000519631
0.000529641
-1.23781e-05
9.77431e-05
-4.33974e-05
0.000245036
-8.81502e-05
0.000353433
-0.0001424
0.000428203
-0.000202846
0.000476779
-0.000267172
0.000506987
-0.000333926
0.00052571
-0.000402316
0.000538166
-0.000471985
0.000547796
-0.000542826
0.000556564
-0.000614859
0.000565442
-0.000688154
0.000574844
-0.000762805
0.000584925
-0.000838911
0.000595737
0.000607305
-1.22708e-05
0.000110014
-4.30629e-05
0.000275828
-8.75372e-05
0.000397907
-0.000141501
0.000482167
-0.000201674
0.000536953
-0.000265746
0.00057106
-0.000332263
0.000592227
-0.000400428
0.000606331
-0.000469877
0.000617245
-0.0005405
0.000627187
-0.000612314
0.000637256
-0.000685389
0.000647919
-0.000759817
0.000659353
-0.000835698
0.000671618
0.000684741
-1.21488e-05
0.000122163
-4.26824e-05
0.000306362
-8.68391e-05
0.000442064
-0.000140476
0.000535803
-0.000200337
0.000596814
-0.00026412
0.000634842
-0.000330367
0.000658474
-0.000398274
0.000674237
-0.000467471
0.000686442
-0.000537846
0.000697561
-0.00060941
0.00070882
-0.000682234
0.000720743
-0.000756408
0.000733527
-0.000832032
0.000747241
0.000761916
-1.20122e-05
0.000134175
-4.22559e-05
0.000336605
-8.60562e-05
0.000485864
-0.000139326
0.000589073
-0.000198837
0.000656326
-0.000262294
0.000698299
-0.000328237
0.000724417
-0.000395854
0.000741854
-0.000464769
0.000755358
-0.000534864
0.000767656
-0.000606148
0.000780104
-0.00067869
0.000793285
-0.000752579
0.000807417
-0.000827914
0.000822577
0.000838798
-1.18611e-05
0.000146036
-4.17838e-05
0.000366528
-8.51887e-05
0.000529269
-0.00013805
0.000641934
-0.000197173
0.000715448
-0.000260268
0.000761395
-0.000325874
0.000790022
-0.000393169
0.000809149
-0.000461771
0.00082396
-0.000531555
0.00083744
-0.000602528
0.000851078
-0.000674757
0.000865514
-0.000748331
0.000880991
-0.000823347
0.000897592
0.000915355
-1.16957e-05
0.000157732
-4.12663e-05
0.000396099
-8.42371e-05
0.00057224
-0.000136651
0.000694348
-0.000195345
0.000774143
-0.000258043
0.000824093
-0.000323277
0.000855256
-0.000390218
0.000876091
-0.000458476
0.000892218
-0.000527919
0.000906883
-0.000598552
0.00092171
-0.000670438
0.000937401
-0.000743665
0.000954218
-0.00081833
0.000972256
0.000991556
-1.15161e-05
0.000169248
-4.07036e-05
0.000425286
-8.32016e-05
0.000614738
-0.000135127
0.000746273
-0.000193354
0.000832371
-0.000255618
0.000886356
-0.000320447
0.000920085
-0.000387003
0.000942647
-0.000454885
0.0009601
-0.000523958
0.000975955
-0.000594219
0.000991972
-0.000665732
0.00100891
-0.000738582
0.00102707
-0.000812865
0.00104654
0.00106737
-1.13224e-05
0.00018057
-4.00962e-05
0.00045406
-8.20827e-05
0.000656724
-0.000133479
0.000797669
-0.000191201
0.000890093
-0.000252994
0.00094815
-0.000317384
0.000984475
-0.000383523
0.00100879
-0.000451
0.00102758
-0.00051967
0.00104463
-0.000589531
0.00106183
-0.00066064
0.00108002
-0.000733083
0.00109951
-0.000806954
0.00112041
0.00114277
-1.11148e-05
0.000191685
-3.94444e-05
0.00048239
-8.08809e-05
0.000698161
-0.000131707
0.000848496
-0.000188884
0.00094727
-0.000250171
0.00100944
-0.000314089
0.00104839
-0.000379778
0.00107447
-0.000446819
0.00109462
-0.000515058
0.00111287
-0.000584488
0.00113126
-0.000655164
0.0011507
-0.000727169
0.00117152
-0.000800598
0.00119384
-0.000875545
0.00121771
0.00124317
-1.08935e-05
0.000202578
-3.87485e-05
0.000510245
-7.95966e-05
0.000739009
-0.000129813
0.000898712
-0.000186406
0.00100386
-0.00024715
0.00107018
-0.000310561
0.0011118
-0.000375769
0.00113968
-0.000442343
0.00116119
-0.000510122
0.00118064
-0.000579091
0.00120023
-0.000649303
0.00122091
-0.000720842
0.00124306
-0.000793799
0.0012668
-0.000868267
0.00129218
0.00131925
-1.06586e-05
0.000213237
-3.8009e-05
0.000537595
-7.82302e-05
0.00077923
-0.000127796
0.000948278
-0.000183766
0.00105983
-0.00024393
0.00113034
-0.000306801
0.00117467
-0.000371497
0.00120438
-0.000437574
0.00122727
-0.000504862
0.00124793
-0.00057334
0.00126871
-0.000643061
0.00129063
-0.000714104
0.0013141
-0.000786558
0.00133925
-0.000860518
0.00136614
0.00139481
-1.04104e-05
0.000223647
-3.72262e-05
0.000564411
-7.67825e-05
0.000818786
-0.000125657
0.000997152
-0.000180964
0.00111514
-0.000240512
0.00118989
-0.000302809
0.00123697
-0.000366961
0.00126853
-0.000432511
0.00129282
-0.000499278
0.0013147
-0.000567238
0.00133667
-0.000636437
0.00135983
-0.000706954
0.00138462
-0.000778877
0.00141117
-0.0008523
0.00143956
0.00146982
-1.0149e-05
0.000233796
-3.64008e-05
0.000590663
-7.52539e-05
0.000857639
-0.000123397
0.00104529
-0.000178001
0.00116974
-0.000236896
0.00124879
-0.000298585
0.00129866
-0.000362162
0.00133211
-0.000427154
0.00135781
-0.000493372
0.00138092