/*--------------------------------*- C++ -*----------------------------------*\
  =========                 |
  \\      /  F ield         | OpenFOAM: The Open Source CFD Toolbox
   \\    /   O peration     | Website:  https://openfoam.org
    \\  /    A nd           | Version:  7
     \\/     M anipulation  |
\*---------------------------------------------------------------------------*/
FoamFile
{
    version     2.0;
    format      ascii;
    class       volVectorField;
    location    "300";
    object      U;
}
// * * * * * * * * * * * * * * * * * * * * * * * * * * * * * * * * * * * * * //

dimensions      [0 1 -1 0 0 0 0];

internalField   nonuniform List<vector> 
4575
(
(1.13833 0.334346 -2.14969e-20)
(1.13506 0.352202 7.47747e-20)
(1.12951 0.33741 -6.96112e-20)
(1.13516 0.390467 -8.69628e-20)
(1.13011 0.372261 4.0662e-20)
(1.12558 0.35528 7.92025e-21)
(1.12051 0.340233 6.91687e-20)
(1.12993 0.413443 -5.74302e-20)
(1.12441 0.393932 1.64619e-19)
(1.1199 0.375362 -6.40754e-21)
(1.11591 0.358095 -2.38907e-20)
(1.11135 0.342808 9.71448e-21)
(1.12441 0.438009 9.46973e-20)
(1.11841 0.416999 -5.56758e-20)
(1.11343 0.397096 -8.04909e-20)
(1.10948 0.378175 2.18491e-20)
(1.10605 0.360635 -5.3152e-20)
(1.10202 0.345125 -3.60608e-20)
(1.11841 0.4642 -5.37646e-20)
(1.11209 0.441652 -1.56191e-20)
(1.10667 0.420226 -3.36499e-21)
(1.10224 0.399948 -5.46971e-21)
(1.09886 0.38069 1.2159e-21)
(1.096 0.362893 -3.83923e-20)
(1.09254 0.347175 2.60256e-20)
(1.1116 0.491995 1.34845e-19)
(1.10522 0.467924 -3.54483e-20)
(1.09954 0.444934 -4.20318e-21)
(1.09471 0.423113 6.92454e-20)
(1.09085 0.402476 1.71304e-20)
(1.08805 0.382898 5.23366e-20)
(1.08577 0.364858 5.98537e-20)
(1.0829 0.348951 1.07853e-20)
(1.10355 0.521279 1.6566e-20)
(1.09749 0.495794 3.47663e-20)
(1.09179 0.471248 6.76173e-20)
(1.08676 0.447842 7.55909e-21)
(1.08255 0.425648 1.85666e-20)
(1.07927 0.404671 -5.35671e-20)
(1.07705 0.38479 3.22416e-20)
(1.07537 0.366522 -4.33764e-20)
(1.07312 0.350442 -9.31791e-21)
(1.09357 0.551713 -1.66608e-19)
(1.08845 0.525161 -1.88729e-19)
(1.08311 0.49915 -8.70826e-20)
(1.07813 0.474159 -8.99727e-20)
(1.07378 0.450364 -1.10971e-20)
(1.0702 0.42782 -8.0578e-21)
(1.06751 0.406524 -1.48046e-20)
(1.06588 0.386357 -1.68775e-20)
(1.06481 0.367875 -4.66374e-20)
(1.06319 0.351641 1.84437e-20)
(1.08055 0.582509 -2.80467e-20)
(1.07748 0.555705 1.221e-19)
(1.07307 0.528548 1.68661e-19)
(1.06849 0.502047 2.66799e-20)
(1.06426 0.476643 1.07915e-19)
(1.06062 0.452487 -5.81421e-21)
(1.05768 0.429619 5.40717e-20)
(1.05559 0.408026 -1.6978e-20)
(1.05455 0.387592 -1.80554e-20)
(1.05408 0.368911 2.97381e-20)
(1.05313 0.35254 -7.81465e-22)
(1.06262 0.612108 5.03863e-20)
(1.06351 0.586672 7.28214e-20)
(1.06107 0.559144 4.64757e-20)
(1.05743 0.531425 -1.15467e-19)
(1.05364 0.504472 -8.5778e-20)
(1.05019 0.478688 -5.24266e-20)
(1.04728 0.454199 -8.44754e-20)
(1.04501 0.431034 -1.69742e-20)
(1.04353 0.409167 -9.42792e-21)
(1.04307 0.388488 2.44385e-22)
(1.0432 0.369622 8.44832e-21)
(1.04293 0.35313 -4.11224e-21)
(1.03682 0.637768 -6.86419e-20)
(1.04477 0.61654 -2.43278e-19)
(1.04612 0.590213 -1.68383e-19)
(1.04438 0.562014 -4.80804e-20)
(1.04154 0.533779 7.24918e-20)
(1.03859 0.506412 5.65005e-20)
(1.03594 0.48028 1.70842e-21)
(1.03379 0.45549 4.10049e-20)
(1.0322 0.432055 -4.39556e-21)
(1.03134 0.40994 8.99402e-21)
(1.03147 0.389038 5.85707e-21)
(1.03218 0.37 -1.03982e-20)
(1.03261 0.353401 5.66035e-21)
(0.998842 0.655139 -8.28511e-20)
(1.01842 0.642603 1.39252e-19)
(1.02651 0.620275 1.47232e-19)
(1.0284 0.593119 5.10815e-20)
(1.02743 0.564303 4.82414e-20)
(1.02544 0.535597 -2.05973e-20)
(1.02334 0.507854 -9.39945e-21)
(1.02154 0.481409 -1.00782e-21)
(1.02016 0.456348 3.64073e-20)
(1.01928 0.432673 6.91304e-21)
(1.01905 0.410336 -8.0661e-22)
(1.01975 0.389235 -1.06123e-20)
(1.02104 0.370038 1.85563e-20)
(1.02218 0.353343 2.00434e-20)
(0.942887 0.657963 -4.53805e-20)
(0.980296 0.660522 2.00696e-20)
(0.999556 0.64666 -1.45573e-20)
(1.0079 0.623298 1.2132e-19)
(1.0104 0.595376 -1.04829e-19)
(1.01023 0.565996 -1.47284e-20)
(1.00913 0.536865 7.32755e-22)
(1.00793 0.508785 1.27917e-20)
(1.00698 0.482061 2.87017e-20)
(1.0064 0.456762 -1.9252e-20)
(1.00625 0.432876 -3.34504e-21)
(1.00667 0.410346 4.42483e-21)
(1.00794 0.389073 1.51351e-20)
(1.00978 0.369729 3.14036e-20)
(1.01165 0.352941 -3.65773e-20)
(0.924758 0.663991 -1.46813e-20)
(0.961212 0.665047 -5.56227e-20)
(0.980268 0.649924 -1.54827e-20)
(0.988952 0.625596 -1.1037e-19)
(0.99214 0.59697 1.38405e-19)
(0.99283 0.567082 3.05586e-21)
(0.992651 0.537572 3.23264e-20)
(0.992371 0.509195 -6.04664e-21)
(0.992302 0.482227 -5.63041e-21)
(0.992548 0.456721 -5.70301e-21)
(0.99315 0.432654 -1.61979e-20)
(0.994229 0.40996 -6.28642e-21)
(0.996068 0.388546 4.84229e-20)
(0.998426 0.369064 -2.38419e-20)
(1.00104 0.35218 7.05917e-21)
(0.844964 0.644715 -7.3388e-20)
(0.906016 0.669095 -5.4267e-20)
(0.941637 0.668698 -4.5594e-20)
(0.9606 0.652381 6.34743e-20)
(0.969713 0.627157 -1.76727e-21)
(0.973647 0.597892 -7.49176e-20)
(0.975241 0.56755 3.48738e-20)
(0.976015 0.537707 9.08602e-21)
(0.97668 0.509074 -1.79445e-20)
(0.977514 0.481897 -8.25474e-21)
(0.978606 0.456215 6.01861e-21)
(0.979983 0.431997 3.70666e-21)
(0.981749 0.409167 1.4083e-20)
(0.984158 0.387644 3.53016e-20)
(0.98701 0.368029 -1.03612e-19)
(0.990375 0.351029 2.44741e-20)
(0.733525 0.592836 1.16209e-21)
(0.827285 0.650392 7.75785e-20)
(0.886711 0.673258 9.79425e-20)
(0.921621 0.67146 5.68166e-20)
(0.940594 0.654019 -3.19483e-20)
(0.950216 0.627971 3.91546e-20)
(0.954954 0.59813 -9.17908e-21)
(0.957491 0.567389 -3.46833e-20)
(0.959248 0.537261 2.29956e-21)
(0.960878 0.508411 2.81616e-21)
(0.962635 0.48106 -5.84214e-21)
(0.964593 0.455236 -5.71331e-21)
(0.966769 0.430894 5.25179e-20)
(0.969251 0.407958 -4.47321e-20)
(0.972237 0.386356 2.53424e-20)
(0.975555 0.366606 1.20509e-19)
(0.979674 0.349444 7.76703e-20)
(0.717776 0.598854 -1.09279e-19)
(0.808985 0.655091 -3.20058e-20)
(0.866898 0.676462 7.58881e-20)
(0.901209 0.673321 -9.56669e-20)
(0.920291 0.654827 -6.72055e-20)
(0.930496 0.628026 -2.6507e-20)
(0.936091 0.597675 2.44259e-20)
(0.939608 0.566591 5.84162e-22)
(0.942373 0.536225 -6.44706e-21)
(0.944987 0.507198 -4.09258e-20)
(0.947682 0.47971 2.89663e-20)
(0.950522 0.453773 -5.8536e-21)
(0.953522 0.429335 -6.03005e-20)
(0.956753 0.40632 -2.33815e-20)
(0.96033 0.384673 -7.47522e-20)
(0.964089 0.364773 4.49558e-20)
(0.968998 0.347366 -9.26129e-20)
(0.570698 0.503675 1.06444e-19)
(0.701382 0.603915 1.52278e-19)
(0.790118 0.658793 5.57365e-20)
(0.846629 0.678695 -1.97032e-20)
(0.880451 0.67427 1.06582e-20)
(0.899733 0.654797 3.78418e-20)
(0.910591 0.627315 2.1175e-20)
(0.91709 0.596518 -1.07645e-20)
(0.921618 0.565148 6.40015e-21)
(0.925412 0.534591 8.65066e-21)
(0.929027 0.50543 4.41632e-20)
(0.932673 0.477839 -2.3227e-21)
(0.936409 0.45182 -1.7605e-20)
(0.940254 0.427311 -1.19276e-20)
(0.944265 0.40424 4.5048e-20)
(0.948449 0.38258 9.14904e-20)
(0.952667 0.36251 -1.51644e-19)
(0.958528 0.344749 1.07761e-19)
(0.38087 0.354586 2.00232e-19)
(0.557257 0.508628 -9.02561e-20)
(0.684395 0.607997 -1.00483e-19)
(0.770741 0.661484 -3.79065e-20)
(0.825956 0.679944 4.10924e-20)
(0.859394 0.674298 2.64383e-20)
(0.878961 0.65392 1.48093e-20)
(0.890534 0.625831 -1.2604e-20)
(0.89798 0.594654 3.39669e-20)
(0.903549 0.563053 7.32915e-21)
(0.90839 0.532354 -2.35405e-20)
(0.913018 0.5031 -2.63175e-20)
(0.917625 0.475442 -2.1812e-20)
(0.922266 0.449371 -2.67588e-21)
(0.926971 0.424813 8.56651e-20)
(0.931781 0.401704 -3.30395e-20)
(0.936589 0.380039 -6.7091e-20)
(0.941392 0.359754 -2.91703e-21)
(0.948526 0.341595 -1.55598e-19)
(0.371582 0.3586 -7.61922e-20)
(0.543257 0.512705 8.12704e-20)
(0.66687 0.611083 1.10535e-19)
(0.750909 0.663148 -4.00759e-20)
(0.804933 0.680199 2.73705e-21)
(0.838085 0.673397 -2.67463e-20)
(0.858016 0.65219 -9.99759e-21)
(0.870362 0.623568 3.70303e-21)
(0.878794 0.592076 -3.70474e-20)
(0.885426 0.560301 -5.08431e-20)
(0.891331 0.529509 -1.02413e-20)
(0.896982 0.500204 1.49625e-21)
(0.902556 0.472517 -3.05064e-20)
(0.908107 0.446425 2.77707e-20)
(0.913675 0.421842 7.53558e-20)
(0.919278 0.398706 2.43398e-20)
(0.924731 0.377007 -1.35099e-19)
(0.930369 0.356343 -4.57639e-21)
(0.938919 0.33765 4.73703e-20)
(0.14254 0.144224 2.41852e-20)
(0.361858 0.361963 2.39725e-20)
(0.528746 0.515888 -6.7753e-20)
(0.648862 0.613155 -3.12387e-20)
(0.730678 0.663776 -2.195e-20)
(0.783612 0.679453 -9.87005e-21)
(0.816571 0.671563 4.67334e-21)
(0.836941 0.649603 -2.84678e-20)
(0.850111 0.620521 3.85714e-20)
(0.859562 0.58878 9.1364e-20)
(0.867279 0.556888 6.00717e-20)
(0.874259 0.526052 -2.56865e-20)
(0.880941 0.496739 -1.55787e-20)
(0.887486 0.469063 -7.91477e-21)
(0.893948 0.442985 -8.41763e-20)
(0.900371 0.418408 -4.38075e-20)
(0.90674 0.39527 -4.86174e-20)
(0.912873 0.373534 1.615e-19)
(0.919634 0.352287 -3.79451e-20)
(0.928608 0.331155 1.41844e-19)
(0.138736 0.145785 2.61617e-20)
(0.351731 0.364656 -1.47651e-20)
(0.513773 0.51816 3.17908e-20)
(0.630426 0.614203 -6.37731e-21)
(0.710103 0.663357 8.41487e-21)
(0.762045 0.6777 -1.94988e-21)
(0.7949 0.668789 3.3909e-21)
(0.815776 0.646154 3.81698e-20)
(0.829817 0.616686 -1.15794e-19)
(0.840315 0.584763 2.36069e-20)
(0.849134 0.552811 -3.53828e-20)
(0.857201 0.52198 4.2776e-20)
(0.864918 0.492705 4.12104e-20)
(0.872436 0.465079 6.70707e-20)
(0.879808 0.439054 2.68561e-20)
(0.887074 0.414524 7.50768e-20)
(0.894194 0.391426 3.69165e-20)
(0.901047 0.36972 -8.91254e-21)
(0.908732 0.348505 8.10647e-20)
(0.917611 0.327605 1.40696e-20)
(0.13475 0.147061 -9.23588e-21)
(0.341238 0.366666 -2.28735e-20)
(0.498386 0.519506 -9.47806e-21)
(0.611618 0.614213 3.43332e-21)
(0.689241 0.661885 4.04166e-22)
(0.740285 0.674936 -3.1939e-22)
(0.773118 0.665075 4.82367e-20)
(0.794561 0.641844 2.04943e-20)
(0.809514 0.612064 7.58679e-20)
(0.821086 0.580023 5.29611e-20)
(0.831021 0.548068 -1.34069e-19)
(0.84018 0.517293 3.76268e-21)
(0.848937 0.4881 -1.31096e-19)
(0.85743 0.460566 -7.96232e-21)
(0.865709 0.434633 -5.73947e-20)
(0.873812 0.410192 8.95352e-20)
(0.881681 0.387178 -1.37401e-19)
(0.889242 0.365535 -3.46152e-20)
(0.897577 0.344369 -5.2496e-20)
(0.90641 0.323572 -1.90405e-19)
(0.130597 0.148046 1.10579e-20)
(0.330415 0.367977 -5.5062e-21)
(0.482637 0.519915 8.76108e-21)
(0.592494 0.613179 -7.83692e-21)
(0.668147 0.659355 2.29337e-20)
(0.718383 0.671158 -2.30294e-20)
(0.751271 0.66042 3.30143e-20)
(0.773339 0.63667 -1.12146e-19)
(0.78924 0.606652 -8.31709e-20)
(0.801906 0.574559 -1.54499e-19)
(0.812967 0.542658 9.7049e-20)
(0.823224 0.511989 -6.68172e-21)
(0.833022 0.482924 -2.36866e-20)
(0.842489 0.455524 -4.6229e-20)
(0.851675 0.429725 -6.65383e-20)
(0.86061 0.405414 3.65919e-20)
(0.869236 0.382527 1.11381e-19)
(0.877508 0.360995 -6.08982e-20)
(0.886434 0.339962 7.91523e-20)
(0.895439 0.319432 2.24026e-19)
(0.126294 0.148732 1.49954e-20)
(0.319302 0.368579 -1.77618e-21)
(0.466575 0.519377 1.36256e-20)
(0.573108 0.611094 2.64492e-20)
(0.646876 0.655764 2.15871e-20)
(0.696391 0.666367 6.13976e-20)
(0.729405 0.654824 -4.81769e-20)
(0.752148 0.630634 -3.1739e-20)
(0.769029 0.600452 -2.66355e-20)
(0.782806 0.568372 1.02997e-19)
(0.795001 0.536582 -2.55156e-19)
(0.806359 0.50607 -1.06648e-19)
(0.817198 0.477179 2.69433e-20)
(0.827637 0.449955 3.89502e-20)
(0.837727 0.42433 1.36988e-19)
(0.847494 0.40019 -1.90463e-19)
(0.856879 0.37747 5.60068e-20)
(0.865859 0.356092 3.29013e-20)
(0.875372 0.335251 -4.64719e-20)
(0.884691 0.315065 -1.68768e-19)
(0.121855 0.149113 1.1273e-20)
(0.307935 0.368463 -4.18587e-20)
(0.450251 0.517884 5.20943e-21)
(0.553518 0.607954 3.81789e-20)
(0.625483 0.651114 -4.51705e-20)
(0.674359 0.660565 -9.62477e-20)
(0.707565 0.64829 1.48707e-20)
(0.731029 0.623739 6.91138e-20)
(0.748917 0.593466 1.76843e-19)
(0.763817 0.561464 -1.83273e-19)
(0.777152 0.529842 1.54444e-19)
(0.789611 0.499537 1.87439e-19)
(0.801488 0.470865 1.53005e-19)
(0.812897 0.443861 1.12154e-19)
(0.823887 0.41845 -2.39959e-19)
(0.834484 0.39452 -2.85735e-21)
(0.844631 0.372006 -6.37072e-20)
(0.854319 0.350824 2.45114e-19)
(0.864429 0.330221 -9.62393e-21)
(0.874148 0.310405 -1.19707e-19)
(0.117298 0.149184 1.70859e-20)
(0.296353 0.367622 1.7041e-20)
(0.433716 0.515432 5.36536e-21)
(0.533777 0.603759 -2.21312e-20)
(0.604023 0.645405 -3.10382e-20)
(0.652338 0.653755 3.03876e-22)
(0.685797 0.640823 -4.21569e-20)
(0.710022 0.615989 -7.14487e-20)
(0.728938 0.585698 6.02601e-20)
(0.744973 0.553838 1.46116e-19)
(0.759449 0.522439 3.65161e-21)
(0.773005 0.492391 6.41377e-20)
(0.785917 0.463984 -9.98504e-20)
(0.798293 0.437242 -1.23842e-19)
(0.810179 0.412086 3.11274e-19)
(0.821603 0.388406 1.24623e-19)
(0.832513 0.366135 -1.28575e-19)
(0.84291 0.345186 -1.45685e-19)
(0.853629 0.324862 -1.63451e-19)
(0.8638 0.305429 -1.55005e-20)
(0.11264 0.148942 -8.24114e-20)
(0.284595 0.36605 -1.7717e-20)
(0.417021 0.512019 -4.01866e-20)
(0.513942 0.59851 -7.96346e-20)
(0.582549 0.638642 1.38406e-19)
(0.630377 0.645944 -1.20419e-19)
(0.664146 0.63243 1.74311e-19)
(0.689165 0.60739 -1.26444e-21)
(0.709129 0.577153 -5.53286e-20)
(0.726302 0.545498 4.76374e-20)
(0.741918 0.514379 3.51811e-20)
(0.756569 0.484638 -1.7721e-19)
(0.770511 0.456541 1.86292e-19)
(0.783846 0.430102 1.13808e-19)
(0.796623 0.405241 -4.3276e-20)
(0.808872 0.381848 -8.41582e-20)
(0.820543 0.359857 7.30533e-20)
(0.83165 0.339177 -1.26689e-19)
(0.842987 0.319164 -1.7526e-19)
(0.853647 0.300125 1.67368e-19)
(0.107897 0.148383 1.2292e-19)
(0.272701 0.363745 -7.39865e-20)
(0.400216 0.507645 -4.07591e-20)
(0.494066 0.592211 5.0577e-20)
(0.561115 0.630831 1.57413e-20)
(0.608526 0.637139 4.4108e-20)
(0.642653 0.623116 4.68636e-20)
(0.668498 0.597948 1.26727e-19)
(0.689522 0.567836 1.53036e-19)
(0.707838 0.53645 -1.45831e-19)
(0.72459 0.505666 1.7792e-19)
(0.740328 0.47628 -2.03829e-19)
(0.755292 0.448538 2.66018e-20)
(0.76958 0.422445 -7.94604e-20)
(0.783242 0.397918 5.78557e-20)
(0.79631 0.374849 5.43454e-20)
(0.808739 0.353172 -3.33585e-20)
(0.820556 0.332793 3.16888e-19)
(0.832519 0.313121 -4.30541e-20)
(0.843689 0.294484 -1.43578e-19)
(0.103086 0.147505 -9.79519e-20)
(0.260708 0.360706 1.30815e-19)
(0.383353 0.502312 -2.85924e-20)
(0.474205 0.584867 -1.5256e-19)
(0.539773 0.621981 1.09944e-19)
(0.586833 0.627349 -3.98624e-20)
(0.621364 0.612893 -1.38188e-19)
(0.648059 0.587673 -2.10169e-20)
(0.670152 0.557756 -3.20339e-19)
(0.689609 0.5267 3.05385e-19)
(0.707491 0.496305 -3.15384e-20)
(0.724308 0.467324 8.49075e-20)
(0.740285 0.439982 1.03549e-19)
(0.755517 0.414275 4.13373e-20)
(0.770056 0.39012 -2.78344e-19)
(0.783937 0.36741 6.30632e-20)
(0.797121 0.346081 5.75915e-20)
(0.809645 0.326036 -1.92184e-19)
(0.822235 0.306731 7.06845e-20)
(0.833931 0.288504 2.73452e-20)
(0.0982243 0.146307 -8.85635e-20)
(0.248656 0.356933 -9.23858e-20)
(0.36648 0.496026 1.84537e-19)
(0.45441 0.576488 1.3346e-19)
(0.518575 0.612103 -1.08704e-19)
(0.565344 0.616586 1.12246e-20)
(0.600319 0.60177 9.02231e-20)
(0.627886 0.576574 2.69538e-20)
(0.651053 0.546921 -4.13233e-21)
(0.671647 0.516256 5.06875e-20)
(0.69065 0.486304 -8.37643e-20)
(0.708535 0.457776 -1.20855e-20)
(0.725513 0.430877 -3.21892e-19)
(0.741679 0.405597 -2.45947e-19)
(0.757086 0.381852 -4.1284e-20)
(0.771771 0.359537 -3.44655e-20)
(0.785704 0.338586 -3.82254e-20)
(0.798932 0.318905 -7.74056e-20)
(0.812147 0.299992 -8.92131e-20)
(0.0933292 0.144789 2.11309e-20)
(0.236584 0.352429 2.09602e-19)
(0.349647 0.488793 -8.48391e-20)
(0.434735 0.567083 -1.30621e-19)
(0.497572 0.601208 -1.05527e-20)
(0.544107 0.604863 1.85665e-19)
(0.579562 0.589761 -1.91684e-19)
(0.608014 0.564663 3.83119e-20)
(0.632258 0.535342 -2.91104e-20)
(0.653982 0.505128 -2.97086e-19)
(0.674094 0.475671 -2.7973e-19)
(0.693034 0.447643 5.11217e-20)
(0.711001 0.42123 4.45954e-19)
(0.728088 0.396417 6.53753e-20)
(0.744352 0.373118 1.76133e-19)
(0.759832 0.351232 -2.73404e-19)
(0.774507 0.330692 -6.41874e-20)
(0.788432 0.311404 3.17601e-19)
(0.802266 0.292906 1.39594e-19)
(0.0884178 0.142951 7.81248e-20)
(0.22453 0.3472 7.89351e-20)
(0.332904 0.480622 -1.93503e-19)
(0.415232 0.556666 -8.52546e-21)
(0.476813 0.589312 -8.24645e-20)
(0.523167 0.592195 -1.12947e-19)
(0.559131 0.57688 3.63094e-20)
(0.588481 0.551953 -1.08321e-19)
(0.613798 0.52303 2.0685e-19)
(0.636642 0.493326 -1.28942e-19)
(0.657849 0.464416 9.30961e-20)
(0.677829 0.436934 2.12273e-19)
(0.69677 0.41105 -1.43599e-19)
(0.714765 0.386743 3.60091e-20)
(0.731873 0.363926 1.75856e-19)
(0.748138 0.342501 2.19497e-19)
(0.763544 0.322402 -1.14287e-19)
(0.778158 0.303534 -6.44013e-20)
(0.792605 0.285475 9.81575e-20)
(0.0835071 0.140795 -1.8465e-19)
(0.212531 0.341251 7.03779e-20)
(0.316298 0.471525 2.20207e-19)
(0.395951 0.545251 2.57644e-20)
(0.456347 0.576432 -3.21121e-20)
(0.502569 0.578598 -5.71919e-20)
(0.539068 0.563141 -3.01645e-20)
(0.569322 0.538457 1.33834e-19)
(0.595707 0.509999 -1.97181e-19)
(0.619657 0.480861 4.64985e-19)
(0.641943 0.452549 1.93802e-19)
(0.662945 0.425659 -6.38292e-20)
(0.682843 0.400345 -1.99586e-20)
(0.70173 0.376581 8.47275e-20)
(0.719668 0.354282 -2.33669e-19)
(0.736705 0.333351 1.923e-20)
(0.752832 0.313722 -1.49091e-19)
(0.768124 0.295302 -6.55159e-20)
(0.0786141 0.138324 -3.61049e-20)
(0.200627 0.334592 -2.26194e-19)
(0.299877 0.461516 1.57294e-19)
(0.376942 0.532855 -2.3604e-20)
(0.436221 0.562585 1.22658e-19)
(0.482357 0.56409 4.15647e-20)
(0.519412 0.548563 -6.99525e-21)
(0.550572 0.524192 9.14085e-20)
(0.578015 0.496261 -5.51232e-20)
(0.603054 0.467746 -1.689e-19)
(0.626401 0.440081 1.84059e-19)
(0.648406 0.413828 1.95477e-19)
(0.669243 0.389124 -4.32075e-22)
(0.689004 0.365941 -4.40121e-20)
(0.707756 0.344194 -2.4742e-20)
(0.725551 0.323789 1.8348e-19)
(0.742385 0.304659 1.62316e-19)
(0.758344 0.286712 4.52483e-20)
(0.0737556 0.135542 1.73099e-19)
(0.188853 0.327233 2.5691e-19)
(0.283687 0.450611 -1.48014e-19)
(0.358253 0.519499 -1.11419e-20)
(0.416484 0.547791 -2.15881e-19)
(0.462572 0.548693 1.34086e-19)
(0.500199 0.533164 -5.39993e-20)
(0.532265 0.509175 -1.04606e-19)
(0.560753 0.481833 -3.96568e-20)
(0.586863 0.453995 -6.08903e-21)
(0.611248 0.427026 -4.00901e-19)
(0.634235 0.401452 -5.06179e-19)
(0.65599 0.377399 -7.78157e-20)
(0.676607 0.354833 1.74168e-19)
(0.696156 0.333671 -6.807e-20)
(0.714692 0.313822 -3.44098e-19)
(0.73222 0.295219 3.21467e-19)
(0.748831 0.277772 4.59206e-20)
(0.0689482 0.132451 -2.84919e-19)
(0.177245 0.319186 9.89112e-20)
(0.267773 0.438828 -8.25263e-20)
(0.339932 0.505202 1.12766e-19)
(0.397178 0.532074 2.15763e-19)
(0.443255 0.532426 -1.36388e-19)
(0.481468 0.516964 2.51594e-19)
(0.514433 0.493423 -8.68582e-20)
(0.54395 0.466731 1.31385e-19)
(0.571109 0.439623 2.49109e-19)
(0.596509 0.413397 1.35412e-19)
(0.620455 0.388545 5.66049e-19)
(0.643107 0.36518 2.58614e-19)
(0.664559 0.343267 -2.08899e-20)
(0.684885 0.322724 -1.3531e-20)
(0.704144 0.30346 4.37981e-20)
(0.72235 0.285411 -3.5629e-19)
(0.739597 0.268489 -1.8937e-19)
(0.0642083 0.129059 1.58649e-19)
(0.16584 0.310465 -4.62285e-20)
(0.25218 0.426186 -2.14867e-19)
(0.322025 0.489988 -1.9733e-19)
(0.378349 0.515457 -3.59089e-20)
(0.424448 0.515314 2.65699e-20)
(0.463254 0.499984 -3.21616e-19)
(0.49711 0.476957 2.41972e-19)
(0.527635 0.450972 -1.11266e-19)
(0.555819 0.424647 -2.55438e-19)
(0.582208 0.399209 -6.16188e-20)
(0.607088 0.37512 -2.33976e-19)
(0.630612 0.352481 -4.85142e-19)
(0.652877 0.331256 4.1489e-20)
(0.67396 0.311362 3.80481e-19)
(0.693924 0.292713 -1.65258e-19)
(0.71279 0.275244 1.99551e-19)
(0.0595517 0.125371 -2.7948e-20)
(0.154673 0.301085 -3.93236e-19)
(0.236951 0.412707 3.96499e-19)
(0.304577 0.473882 -9.88678e-20)
(0.360039 0.497966 1.4093e-19)
(0.406189 0.49738 8.36686e-20)
(0.445591 0.482248 3.421e-19)
(0.480325 0.459797 -4.1202e-19)
(0.511837 0.434577 3.23464e-19)
(0.541019 0.409083 2.56589e-19)
(0.56837 0.384478 -7.38091e-20)
(0.594156 0.361192 -3.87289e-20)
(0.618527 0.339316 1.41471e-19)
(0.641581 0.31881 -2.42561e-19)
(0.663399 0.299597 -3.22399e-19)
(0.684047 0.281591 1.216e-19)
(0.703553 0.264728 -1.22976e-19)
(0.0549943 0.121393 -2.79319e-20)
(0.143776 0.291065 1.29179e-19)
(0.222127 0.398416 1.46914e-19)
(0.28763 0.45691 -2.5653e-19)
(0.342289 0.479627 1.31459e-19)
(0.388514 0.478652 -3.38448e-19)
(0.428513 0.463779 -2.67856e-20)
(0.464109 0.441965 1.97454e-20)
(0.496582 0.417565 -3.37598e-20)
(0.526733 0.392951 -3.22693e-19)
(0.555016 0.369221 -1.44858e-20)
(0.581679 0.346776 -5.19963e-20)
(0.60687 0.325697 3.12301e-19)
(0.630688 0.305945 -9.67033e-20)
(0.653216 0.287441 -2.7503e-20)
(0.674527 0.270105 1.60747e-19)
(0.694654 0.253874 4.65846e-19)
(0.0505511 0.117134 -5.27096e-20)
(0.133182 0.280422 -3.214e-20)
(0.20775 0.383337 -1.60895e-19)
(0.271228 0.439102 9.76372e-20)
(0.325138 0.46047 2.69075e-19)
(0.371461 0.459156 -1.466e-19)
(0.412053 0.444603 -2.35111e-19)
(0.44849 0.423485 2.30387e-19)
(0.481897 0.399957 -7.65397e-20)
(0.512985 0.376269 2.11896e-19)
(0.542168 0.353455 9.63353e-20)
(0.569678 0.331889 -5.60657e-20)
(0.59566 0.311642 -2.12339e-19)
(0.620214 0.292674 2.62044e-19)
(0.643429 0.274908 -6.53197e-20)
(0.665379 0.258269 -2.82588e-19)
(0.686105 0.242692 -9.58881e-20)
(0.046237 0.112603 1.02534e-19)
(0.122924 0.269178 3.83043e-20)
(0.193857 0.367497 -3.05066e-20)
(0.255409 0.420486 -8.62073e-20)
(0.308626 0.440525 -6.33732e-20)
(0.355064 0.438921 3.63204e-19)
(0.396242 0.424747 6.4999e-20)
(0.433498 0.404381 1.75444e-19)
(0.467807 0.381775 1.29474e-19)
(0.499799 0.359058 -3.51441e-19)
(0.529847 0.3372 -1.8298e-19)
(0.558173 0.316548 3.3754e-19)
(0.584915 0.297166 -1.07561e-20)
(0.610178 0.279011 -2.71196e-19)
(0.634053 0.262012 6.89425e-20)
(0.656617 0.246094 3.3036e-19)
(0.0420663 0.107808 1.17772e-19)
(0.113032 0.257354 -1.56571e-19)
(0.180487 0.350927 -7.01696e-20)
(0.240212 0.401096 -1.56424e-20)
(0.292787 0.419823 -2.05432e-19)
(0.339355 0.417978 -1.08286e-19)
(0.381109 0.404239 -4.53164e-20)
(0.419158 0.384679 -3.50187e-19)
(0.454336 0.363044 -2.64562e-19)
(0.487196 0.34134 3.4896e-19)
(0.518075 0.320476 1.92092e-19)
(0.547181 0.300772 -1.49307e-19)
(0.574652 0.282285 -1.71796e-19)
(0.600594 0.264973 1.84437e-19)
(0.625101 0.248767 -1.03921e-19)
(0.648254 0.233594 1.48619e-19)
(0.0380529 0.102759 1.42762e-19)
(0.103535 0.244974 -2.33664e-19)
(0.167675 0.333656 6.72317e-20)
(0.225675 0.380965 1.17508e-19)
(0.277658 0.398399 -9.93565e-22)
(0.324367 0.396359 -1.45608e-19)
(0.366683 0.383107 1.26415e-19)
(0.405496 0.364405 4.65666e-20)
(0.441508 0.343786 -1.38248e-19)
(0.475197 0.323136 9.16803e-20)
(0.50687 0.303302 -2.41663e-19)
(0.536721 0.28458 -5.33027e-20)
(0.564888 0.267018 2.17496e-19)
(0.591478 0.250576 7.69319e-20)
(0.616588 0.235188 1.19784e-19)
(0.640304 0.220784 -2.24853e-19)
(0.0342099 0.0974684 -1.43069e-19)
(0.0944609 0.232061 -5.93368e-20)
(0.155456 0.315717 1.16787e-19)
(0.211832 0.360127 -2.40832e-19)
(0.26327 0.376286 -1.16557e-19)
(0.31013 0.374094 2.51907e-19)
(0.35299 0.361382 3.97851e-19)
(0.392537 0.343586 1.12589e-19)
(0.429344 0.324029 1.51935e-19)
(0.463823 0.304471 -1.95755e-21)
(0.496251 0.285701 7.12827e-20)
(0.526811 0.267991 2.48375e-19)
(0.555639 0.251383 -3.6181e-20)
(0.582844 0.235838 -4.3779e-19)
(0.608528 0.221291 3.84881e-21)
(0.632777 0.207678 2.42033e-20)
(0.0305499 0.0919461 4.50249e-20)
(0.0858369 0.218644 -1.17811e-19)
(0.143861 0.297143 4.13681e-19)
(0.198716 0.338618 1.97212e-21)
(0.249657 0.353521 1.54393e-19)
(0.296672 0.35122 1.50538e-19)
(0.340057 0.339096 -1.48161e-19)
(0.380303 0.322252 1.76829e-20)
(0.417865 0.303796 -9.54062e-20)
(0.453094 0.285368 2.36753e-20)
(0.486235 0.267695 -2.80327e-21)
(0.517466 0.251026 -1.11054e-19)
(0.546919 0.2354 -4.93318e-20)
(0.574707 0.220775 2.91058e-19)
(0.600932 0.207094 -2.16741e-19)
(0.625687 0.194293 1.4385e-19)
(0.027085 0.0862047 -9.64662e-20)
(0.0776881 0.204747 -1.09797e-19)
(0.132923 0.27797 -6.02226e-20)
(0.18636 0.316477 1.41364e-19)
(0.236846 0.330141 -1.19694e-19)
(0.28402 0.32777 -2.09015e-19)
(0.327908 0.316279 -1.25582e-19)
(0.368816 0.300432 -2.41694e-19)
(0.407092 0.283117 1.96372e-19)
(0.443026 0.265852 -1.59289e-19)
(0.47684 0.249306 3.38786e-20)
(0.508701 0.233707 2.35838e-20)
(0.538742 0.219087 -1.01702e-19)
(0.567078 0.205407 1.1732e-19)
(0.593814 0.192612 1.75642e-19)
(0.0238265 0.0802567 2.09535e-19)
(0.0700384 0.190401 2.16835e-19)
(0.122669 0.258232 -1.63134e-19)
(0.174792 0.293742 -1.38241e-19)
(0.224867 0.306183 3.83679e-20)
(0.2722 0.30378 8.29352e-20)
(0.316565 0.292966 -2.87389e-19)
(0.358097 0.278156 4.64804e-20)
(0.397042 0.262019 -1.91655e-19)
(0.433637 0.245948 1.61727e-19)
(0.46808 0.230559 3.82136e-20)
(0.500532 0.216056 -1.72567e-19)
(0.531123 0.202466 -3.87332e-20)
(0.559971 0.189753 9.14371e-20)
(0.587183 0.177864 4.28434e-20)
(0.0207851 0.0741155 -9.65083e-20)
(0.06291 0.175634 2.54334e-20)
(0.113127 0.237969 3.0488e-19)
(0.16404 0.270453 1.69292e-19)
(0.213744 0.281687 1.1271e-19)
(0.261235 0.279287 2.11859e-19)
(0.306049 0.26919 2.91614e-20)
(0.348165 0.255456 2.0208e-20)
(0.387733 0.240529 -1.37302e-21)
(0.424943 0.225685 -2.06778e-19)
(0.459971 0.211478 1.07689e-19)
(0.492971 0.198095 -1.72131e-19)
(0.524073 0.185558 1.12771e-19)
(0.553397 0.173832 -1.79709e-19)
(0.581052 0.162868 -1.04794e-19)
(0.0179706 0.0677947 -2.0734e-20)
(0.0563238 0.160477 1.46389e-19)
(0.104322 0.217218 -1.73005e-19)
(0.154131 0.246651 -7.80904e-20)
(0.203503 0.256693 6.99503e-20)
(0.251147 0.254329 -1.56226e-19)
(0.29638 0.244986 1.17916e-19)
(0.339038 0.232362 1.65146e-20)
(0.379182 0.218679 9.79106e-20)
(0.416959 0.205087 -3.63145e-21)
(0.452527 0.192088 -9.48143e-20)
(0.486031 0.179848 9.26458e-20)
(0.517605 0.168383 -2.37174e-19)
(0.547367 0.157664 3.28625e-19)
(0.57543 0.147643 1.24789e-19)
(0.0153923 0.0613087 -5.99744e-20)
(0.0502989 0.144961 -6.39771e-20)
(0.0962771 0.19602 -9.49476e-20)
(0.145086 0.222379 1.09792e-19)
(0.194165 0.231243 -5.97605e-20)
(0.241956 0.228945 -2.94729e-20)
(0.287577 0.220389 -5.91808e-20)
(0.330731 0.208909 -7.48377e-20)
(0.371403 0.196497 -2.06364e-19)
(0.409699 0.184183 8.94451e-20)
(0.445758 0.172415 -1.23821e-19)
(0.479724 0.161338 2.25831e-19)
(0.511728 0.150965 1.51383e-19)
(0.54189 0.141269 -2.65109e-19)
(0.570325 0.132208 -2.64624e-19)
(0.0130585 0.0546722 6.05652e-20)
(0.0448529 0.129118 -1.63995e-19)
(0.0890136 0.174414 -1.13263e-20)
(0.136929 0.197679 -1.50112e-19)
(0.18575 0.205378 -1.67734e-19)
(0.23368 0.203173 2.44137e-19)
(0.279656 0.195436 3.35664e-20)
(0.323261 0.185128 1.20381e-19)
(0.36441 0.174014 1.25985e-19)
(0.403174 0.163002 -2.95447e-20)
(0.439679 0.152485 1.73799e-19)
(0.474061 0.142589 -1.0169e-19)
(0.506452 0.133327 -1.30916e-19)
(0.536976 0.12467 2.07194e-19)
(0.565747 0.116582 2.33807e-19)
(0.0109769 0.0479003 -6.171e-20)
(0.0400016 0.112983 1.43541e-19)
(0.0825505 0.152443 -1.54722e-19)
(0.129678 0.172595 9.93829e-20)
(0.178277 0.17914 9.287e-20)
(0.226336 0.177054 -1.31958e-19)
(0.272631 0.170164 6.14238e-20)
(0.316639 0.161055 6.88208e-20)
(0.358215 0.151261 -2.1492e-19)
(0.397396 0.141572 1.04546e-19)
(0.434297 0.132325 1.17236e-20)
(0.469051 0.123627 9.8731e-20)
(0.501787 0.115489 -1.27011e-19)
(0.532632 0.107886 1.5805e-20)
(0.561703 0.100785 -9.83844e-21)
(0.00915433 0.0410085 -6.59532e-20)
(0.0357593 0.0965877 8.82412e-20)
(0.0769049 0.130149 1.63758e-19)
(0.123351 0.147172 -2.0386e-20)
(0.171763 0.152575 1.13968e-19)
(0.219939 0.150629 -1.42923e-19)
(0.266516 0.14461 3.53379e-20)
(0.310879 0.136722 -1.24364e-19)
(0.352829 0.128271 3.91311e-22)
(0.392376 0.119922 -1.96443e-19)
(0.429624 0.111961 -1.41964e-19)
(0.464702 0.104477 7.54638e-20)
(0.497741 0.0974777 1.97171e-20)
(0.528867 0.0909407 -5.20349e-20)
(0.558199 0.0848376 6.91719e-20)
(0.00759669 0.0340125 5.8907e-20)
(0.0321382 0.0799675 1.99196e-20)
(0.0720918 0.107575 4.95467e-20)
(0.117962 0.121455 -7.39579e-20)
(0.16622 0.125724 -3.3672e-20)
(0.214502 0.123937 -6.35289e-20)
(0.261323 0.118811 6.06797e-21)
(0.305991 0.112166 4.42045e-20)
(0.348261 0.105074 1.35987e-19)
(0.388122 0.0980818 1.65417e-19)
(0.425667 0.0914211 6.37351e-20)
(0.461022 0.0851641 -1.52047e-20)
(0.494319 0.079315 -3.25689e-20)
(0.525686 0.0738552 -8.14842e-20)
(0.555241 0.0687605 9.79497e-21)
(0.00630912 0.0269287 1.21282e-20)
(0.0291492 0.063157 -8.40474e-20)
(0.0681239 0.0847635 -1.16057e-19)
(0.113526 0.0954903 -4.08078e-21)
(0.161662 0.0986331 -8.66902e-21)
(0.210035 0.0970222 4.24775e-20)
(0.257062 0.0928073 -1.3201e-19)
(0.301984 0.0874211 -5.13527e-20)
(0.34452 0.081704 -8.69888e-20)
(0.384641 0.0760817 3.46099e-21)
(0.422432 0.0707334 2.8582e-20)
(0.458017 0.0657139 6.34673e-20)
(0.491529 0.0610252 -1.24778e-20)
(0.523095 0.0566519 5.47114e-20)
(0.552835 0.0525741 -2.66244e-20)
(0.00529592 0.0197732 -5.22637e-20)
(0.026801 0.0461918 3.15955e-20)
(0.065012 0.0617599 -3.18083e-20)
(0.110052 0.0693237 3.97448e-20)
(0.158099 0.071347 3.07706e-20)
(0.206549 0.0699252 8.71198e-21)
(0.25374 0.066636 1.01808e-19)
(0.298866 0.0625229 -2.72792e-20)
(0.341613 0.0581932 2.4165e-20)
(0.381941 0.0539518 2.85361e-20)
(0.419926 0.0499258 1.9633e-20)
(0.455694 0.0461527 -5.29412e-20)
(0.489375 0.0426327 6.92233e-20)
(0.521098 0.0393535 5.17266e-20)
(0.550984 0.0362996 -2.02073e-20)
(0.00456048 0.0125626 1.60513e-20)
(0.0251008 0.0291075 3.95232e-20)
(0.0627645 0.0386084 -8.92404e-21)