/*--------------------------------*- C++ -*----------------------------------*\
  =========                 |
  \\      /  F ield         | OpenFOAM: The Open Source CFD Toolbox
   \\    /   O peration     | Website:  https://openfoam.org
    \\  /    A nd           | Version:  7
     \\/     M anipulation  |
\*---------------------------------------------------------------------------*/
FoamFile
{
    version     2.0;
    format      ascii;
    class       surfaceScalarField;
    location    "260";
    object      phi;
}
// * * * * * * * * * * * * * * * * * * * * * * * * * * * * * * * * * * * * * //

dimensions      [0 3 -1 0 0 0 0];

internalField   nonuniform List<scalar> 
72657
(
-3.21762e-07
5.32427e-05
-5.29209e-05
-1.54244e-06
0.000149052
-0.000147831
-3.91333e-06
0.000237772
-0.000235401
-7.62906e-06
0.0003185
-0.000314784
-1.28087e-05
0.000390716
-0.000385536
-1.94882e-05
0.000454398
-0.000447719
-2.76231e-05
0.000510033
-0.000501898
-3.71007e-05
0.000558568
-0.00054909
-4.77579e-05
0.000601305
-0.000590648
-5.94032e-05
0.000639746
-0.000628101
-7.18378e-05
0.000675421
-0.000662986
-8.48746e-05
0.000709727
-0.00069669
-9.83506e-05
0.0007438
-0.000730324
-0.000112134
0.000778424
-0.000764641
-0.000126121
0.000813982
-0.000799995
-0.000140232
0.000850442
-0.000836332
-0.000154399
0.000887367
-0.0008732
-0.000168562
0.000923936
-0.000909773
-0.000182663
0.00095895
-0.000944849
0.000990796
-0.000976776
-0.000196683
-1.25369e-07
5.3368e-05
-8.32792e-07
0.000149759
-2.42735e-06
0.000239367
-5.15227e-06
0.000321225
-9.16998e-06
0.000394733
-1.45525e-05
0.000459781
-2.12825e-05
0.000516763
-2.92638e-05
0.000566549
-3.8338e-05
0.000610379
-4.83061e-05
0.000649714
-5.89501e-05
0.000686065
-7.00522e-05
0.000720829
-8.14087e-05
0.000755157
-9.28381e-05
0.000789854
-0.000104181
0.000825325
-0.000115299
0.00086156
-0.000126063
0.000898132
-0.00013636
0.000934233
-0.000146094
0.000968683
0.000999923
-0.000155221
6.80071e-08
5.33e-05
-1.32808e-07
0.00014996
-9.53586e-07
0.000240187
-2.68275e-06
0.000322954
-5.5231e-06
0.000397574
-9.58091e-06
0.000463839
-1.4865e-05
0.000522047
-2.12953e-05
0.000572979
-2.8718e-05
0.000617802
-3.69266e-05
0.000657923
-4.56833e-05
0.000694821
-5.47387e-05
0.000729884
-6.38472e-05
0.000764266
-7.27764e-05
0.000798783
-8.13099e-05
0.000833859
-8.92467e-05
0.000869496
-9.63996e-05
0.000905284
-0.0001026
0.000940434
-0.000107717
0.0009738
0.00100389
-0.000111682
2.54751e-07
5.30453e-05
5.51852e-07
0.000149663
4.96752e-07
0.000240243
-2.38643e-07
0.000323689
-1.89415e-06
0.000399229
-4.60786e-06
0.000466553
-8.4136e-06
0.000525853
-1.3247e-05
0.000577813
-1.8959e-05
0.000623514
-2.5336e-05
0.0006643
-3.21202e-05
0.000701606
-3.9031e-05
0.000736795
-4.57804e-05
0.000771015
-5.20846e-05
0.000805087
-5.76692e-05
0.000839443
-6.2272e-05
0.000874099
-6.56449e-05
0.000908657
-6.75661e-05
0.000942355
-6.7871e-05
0.000974105
0.00100249
-6.64709e-05
4.34864e-07
5.26104e-05
1.21592e-06
0.000148882
1.91239e-06
0.000239546
2.16125e-06
0.000323441
1.69006e-06
0.0003997
3.31136e-07
0.000467911
-1.97317e-06
0.000528157
-5.17347e-06
0.000581013
-9.12599e-06
0.000627467
-1.36102e-05
0.000668784
-1.83499e-05
0.000706345
-2.30334e-05
0.000741479
-2.73311e-05
0.000775313
-3.09084e-05
0.000808664
-3.34333e-05
0.000841968
-3.45824e-05
0.000875248
-3.40476e-05
0.000908123
-3.15527e-05
0.00093986
-2.69026e-05
0.000969455
0.000995652
-2.00663e-05
6.06522e-07
5.20039e-05
1.85407e-06
0.000147634
3.28221e-06
0.000238118
4.49871e-06
0.000322224
5.20241e-06
0.000398997
5.19916e-06
0.000467915
4.40961e-06
0.000528947
2.86805e-06
0.000582555
7.12864e-07
0.000629622
-1.82996e-06
0.000671327
-4.46662e-06
0.000708982
-6.85627e-06
0.000743868
-8.62919e-06
0.000777086
-9.40121e-06
0.000809436
-8.78419e-06
0.000841351
-6.39465e-06
0.000872859
-1.86531e-06
0.000903593
5.13365e-06
0.000932861
1.48564e-05
0.000959732
0.000983263
2.72456e-05
7.68312e-07
5.12356e-05
2.46118e-06
0.000145942
4.59539e-06
0.000235984
6.7553e-06
0.000320064
8.61575e-06
0.000397136
9.95949e-06
0.000466571
1.06871e-05
0.000528219
1.08186e-05
0.000582423
1.04864e-05
0.000629954
9.92088e-06
0.000671892
9.43113e-06
0.000709472
9.38507e-06
0.000743914
1.01902e-05
0.00077628
1.22779e-05
0.000807349
1.60904e-05
0.000837539
2.20693e-05
0.00086688
3.06405e-05
0.000895022
4.21843e-05
0.000921317
5.69665e-05
0.00094495
0.000965177
7.50524e-05
9.18959e-07
5.03166e-05
3.03241e-06
0.000143828
5.8414e-06
0.000233175
8.91308e-06
0.000316993
1.19032e-05
0.000394146
1.45748e-05
0.000463899
1.68109e-05
0.000525983
1.8618e-05
0.000580616
2.01219e-05
0.00062845
2.15557e-05
0.000670459
2.32416e-05
0.000707786
2.55718e-05
0.000741584
2.89883e-05
0.000772864
3.39666e-05
0.00080237
4.09999e-05
0.000830505
5.05857e-05
0.000857294
6.32063e-05
0.000882401
7.92936e-05
0.00090523
9.91495e-05
0.000925094
0.000941505
0.000122821
1.05731e-06
4.92593e-05
3.56331e-06
0.000141322
7.01036e-06
0.000229728
1.09548e-05
0.000313048
1.50382e-05
0.000390063
1.90083e-05
0.000459929
2.27327e-05
0.000522259
2.62054e-05
0.000577143
2.95453e-05
0.00062511
3.29863e-05
0.000667018
3.68612e-05
0.000703911
4.15828e-05
0.000736863
4.76244e-05
0.000766822
5.5501e-05
0.000794494
6.57536e-05
0.000820253
7.8932e-05
0.000844116
9.55728e-05
0.000865761
0.000116159
0.000884644
0.000141024
0.000900229
0.000912334
0.000170195
1.18235e-06
4.8077e-05
4.04972e-06
0.000138455
8.0929e-06
0.000225685
1.28637e-05
0.000308277
1.79952e-05
0.000384931
2.32239e-05
0.0004547
2.84047e-05
0.000517078
3.35204e-05
0.000572028
3.86825e-05
0.000619948
4.4124e-05
0.000661576
5.01855e-05
0.00069785
5.72967e-05
0.000729751
6.59574e-05
0.000758162
7.67183e-05
0.000783733
9.01632e-05
0.000806808
0.00010689
0.000827389
0.000127488
0.000845163
0.000152488
0.000859643
0.000182258
0.000870459
0.000877796
0.000216796
1.29314e-06
4.67838e-05
4.48789e-06
0.00013526
9.08036e-06
0.000221092
1.46243e-05
0.000302733
2.07499e-05
0.000378806
2.71868e-05
0.000448264
3.37804e-05
0.000510484
4.05035e-05
0.000565305
4.74602e-05
0.000612991
5.48809e-05
0.000654155
6.31108e-05
0.00068962
7.25927e-05
0.00072027
8.38482e-05
0.000746906
9.74584e-05
0.000770123
0.000114045
0.000790221
0.00013425
0.000807183
0.00015871
0.000820703
0.000188006
0.000830347
0.000222537
0.000835929
0.00083806
0.000262274
1.38887e-06
4.5395e-05
4.87443e-06
0.000131774
9.96483e-06
0.000216002
1.62221e-05
0.000296476
2.32794e-05
0.000371748
3.08641e-05
0.000440679
3.88152e-05
0.000502533
4.70973e-05
0.000557022
5.5807e-05
0.000604282
6.51708e-05
0.000644792
7.55354e-05
0.000679255
8.73527e-05
0.000708452
0.000101161
0.000733098
0.000117566
0.000753717
0.000137223
0.000770565
0.000160812
0.000783594
0.000189014
0.000792501
0.000222458
0.000796903
0.000261577
0.000796809
0.000793322
0.000306315
1.46886e-06
4.39261e-05
5.20642e-06
0.000128037
1.07394e-05
0.000210469
1.76444e-05
0.000289571
2.55631e-05
0.00036383
3.42254e-05
0.000432017
4.34673e-05
0.000493291
5.32473e-05
0.000547242
6.36547e-05
0.000593874
7.49108e-05
0.000633536
8.73613e-05
0.000666805
0.000101463
0.000694351
0.000117765
0.000716795
0.000136894
0.000734588
0.00015953
0.000747929
0.000186388
0.000756736
0.00021819
0.000760699
0.000255611
0.000759482
0.000299125
0.000753295
0.0007438
0.000348648
1.53259e-06
4.23935e-05
5.48147e-06
0.000124088
1.13983e-05
0.000204552
1.888e-05
0.000282089
2.75826e-05
0.000355127
3.7243e-05
0.000422356
4.76982e-05
0.000482836
5.89025e-05
0.000536038
7.09389e-05
0.000581838
8.40225e-05
0.000620452
9.84951e-05
0.000652332
0.000114814
0.000678032
0.000133537
0.000698072
0.000155302
0.000712823
0.000180812
0.00072242
0.000210809
0.000726739
0.000246053
0.000725455
0.000287265
0.00071827
0.000334963
0.000705597
0.000689717
0.000389045
1.57967e-06
4.08138e-05
5.69776e-06
0.00011997
1.19367e-05
0.000198313
1.99196e-05
0.000274107
2.93221e-05
0.000345724
3.98929e-05
0.000411785
5.14736e-05
0.000471255
6.4017e-05
0.000523495
7.76008e-05
0.000568254
9.24333e-05
0.00060562
0.000108851
0.000635915
0.000127307
0.000659575
0.000148363
0.000677017
0.000172664
0.000688522
0.000200928
0.000694156
0.000233922
0.000693745
0.000272439
0.000686938
0.000317246
0.000673463
0.000368914
0.00065393
0.000631294
0.000427336
1.60991e-06
3.92039e-05
5.85407e-06
0.000115726
1.23511e-05
0.000191816
2.07559e-05
0.000265702
3.07688e-05
0.000335712
4.21547e-05
0.000400399
5.47638e-05
0.000458646
6.85503e-05
0.000509708
8.3588e-05
0.000553216
0.000100078
0.000589129
0.00011835
0.000617643
0.000138851
0.000639073
0.00016214
0.000653728
0.000188866
0.000661796
0.000219756
0.000663266
0.000255597
0.000657904
0.000297213
0.000645322
0.00034542
0.000625257
0.000400847
0.000598502
0.000568736
0.000463406
1.62325e-06
3.75807e-05
5.94973e-06
0.000111399
1.26395e-05
0.000185126
2.1384e-05
0.000256957
3.1913e-05
0.000325183
4.40124e-05
0.0003883
5.75448e-05
0.000445114
7.24687e-05
0.000494784
8.88558e-05
0.000536829
0.000106901
0.000571084
0.000126924
0.00059762
0.000149367
0.000616631
0.000174779
0.000628315
0.000203811
0.000632764
0.000237194
0.000629884
0.00027573
0.000619368
0.000320272
0.000600779
0.000371689
0.00057384
0.000430682
0.000539509
0.000502213
0.000497205
1.61977e-06
3.59609e-05
5.9847e-06
0.000107034
1.28008e-05
0.00017831
2.18008e-05
0.000247957
3.27485e-05
0.000314235
4.54548e-05
0.000375594
5.97985e-05
0.00043077
7.5746e-05
0.000478837
9.33689e-05
0.000519206
0.000112856
0.000551597
0.00013452
0.000575957
0.00015879
0.000592361
0.000186209
0.000600895
0.000217422
0.000601551
0.000253162
0.000594143
0.000294244
0.000578287
0.00034155
0.000553473
0.000396003
0.000519387
0.000458393
0.000477119
0.000431854
0.000528752
1.5997e-06
3.43612e-05
5.95946e-06
0.000102675
1.28355e-05
0.000171434
2.20058e-05
0.000238787
3.32724e-05
0.000302968
4.64755e-05
0.000362391
6.15139e-05
0.000415732
7.83648e-05
0.000461986
9.71023e-05
0.000500469
0.000117911
0.000530788
0.000141095
0.000552773
0.000167073
0.000566383
0.000196378
0.00057159
0.000229647
0.000568282
0.000267613
0.000556178
0.000311101
0.000534799
0.000361022
0.000503551
0.000418365
0.000462044
0.000484019
0.000411465
0.000357726
0.000558147
1.56338e-06
3.27978e-05
5.87507e-06
9.83629e-05
1.27453e-05
0.000164564
2.20011e-05
0.000229531
3.34864e-05
0.000291483
4.70744e-05
0.000348803
6.26876e-05
0.000400119
8.03174e-05
0.000444356
0.000100043
0.000480743
0.000122048
0.000508783
0.000146627
0.000528194
0.00017419
0.00053882
0.000205259
0.000540521
0.000240462
0.000533079
0.000280532
0.000516108
0.000326302
0.000489029
0.000378718
0.000451135
0.000438837
0.000401925
0.000507672
0.000342631
0.000279824
0.000585573
1.51132e-06
3.12865e-05
5.73328e-06
9.41409e-05
1.25336e-05
0.000157763
2.17914e-05
0.000220273
3.33959e-05
0.000279878
4.72573e-05
0.000334941
6.33246e-05
0.000384051
8.1607e-05
0.000426074
0.000102192
0.000460158
0.000125264
0.000485711
0.000151113
0.000502346
0.000180138
0.000509794
0.000212853
0.000507806
0.000249879
0.000496053
0.000291946
0.000474041
0.000339902
0.000441073
0.000394726
0.00039631
0.000457557
0.000339094
0.000529547
0.000270641
0.000198061
0.000611311
1.44418e-06
2.98423e-05
5.53652e-06
9.00486e-05
1.22052e-05
0.000151095
2.13845e-05
0.000211094
3.30117e-05
0.000268251
4.70368e-05
0.000320916
6.34392e-05
0.000367649
8.22489e-05
0.000407264
0.000103566
0.00043884
0.000127578
0.000461699
0.000154572
0.000475352
0.000184943
0.000479423
0.000219197
0.000473553
0.000257949
0.000457301
0.000301934
0.000430056
0.000352014
0.000390993
0.000409209
0.000339115
0.000474748
0.000273556
0.00054994
0.000195448
0.000112256
0.000635745
1.36283e-06
2.84795e-05
5.28797e-06
8.61235e-05
1.17668e-05
0.000144616
2.07912e-05
0.00020207
3.23491e-05
0.000256693
4.64329e-05
0.000306832
6.30557e-05
0.000351026
8.22719e-05
0.000388048
0.000104197
0.000416915
0.000129028
0.000436869
0.000157052
0.000447328
0.000188663
0.000447811
0.000224365
0.000437851
0.000264774
0.000416892
0.000310632
0.000384198
0.000362823
0.000338801
0.000422414
0.000279524
0.000490731
0.00020524
0.000569255
0.000116923
2.21368e-05
0.000659375
1.26833e-06
2.72112e-05
4.99164e-06
8.24002e-05
1.1227e-05
0.000138381
2.00258e-05
0.000193271
3.14286e-05
0.000245291
4.54733e-05
0.000292788
6.22092e-05
0.00033429
8.17188e-05
0.000368538
0.000104138
0.000394495
0.000129676
0.000411331
0.000158628
0.000418375
0.000191393
0.000415046
0.000228478
0.000400766
0.000270508
0.000374861
0.000318242
0.000336465
0.000372593
0.00028445
0.000434682
0.000217435
0.000505936
0.000133985
0.000588016
3.4844e-05
-7.26606e-05
0.000682813
1.16195e-06
2.60492e-05
4.65242e-06
7.89097e-05
1.05963e-05
0.000132437
1.91059e-05
0.000184761
3.02768e-05
0.00023412
4.41938e-05
0.000278871
6.09463e-05
0.000317538
8.06484e-05
0.000348836
0.000103461
0.000371683
0.000129611
0.000385181
0.00015941
0.000388576
0.000193268
0.000381189
0.000231706
0.000362329
0.000275367
0.0003312
0.000325039
0.000286794
0.000381675
0.000227813
0.000446455
0.000152656
0.000520909
5.95308e-05
0.000606866
-5.11125e-05
-0.000172576
0.000706782
1.04525e-06
2.5004e-05
4.27615e-06
7.56788e-05
9.88707e-06
0.000126826
1.80531e-05
0.000176595
2.89257e-05
0.000223247
4.26392e-05
0.000265157
5.93259e-05
0.000300851
7.91357e-05
0.000329026
0.00010226
0.000348559
0.000128951
0.00035849
0.000159542
0.000357985
0.000194467
0.000346264
0.000234271
0.000322525
0.000279631
0.000285839
0.000331374
0.000235051
0.000390508
0.000168679
0.000458276
8.48873e-05
0.000536303
-1.84958e-05
0.00062656
-0.00014137
-0.000278103
0.000732087
9.20037e-07
2.40839e-05
3.86967e-06
7.27291e-05
9.11428e-06
0.000121581
1.68926e-05
0.000168817
2.74135e-05
0.000212726
4.08631e-05
0.000251707
5.74193e-05
0.000284295
7.72726e-05
0.000309173
0.00010065
0.000325181
0.000127839
0.000331302
0.000159204
0.00032662
0.000195213
0.000310255
0.000236451
0.000281286
0.000283644
0.000238647
0.000337674
0.000181021
0.000399615
0.000106738
0.000470777
1.37246e-05
0.000552859
-0.000100578
0.000647935
-0.000236445
-0.00038975
0.000759582
7.88434e-07
2.32955e-05
3.44087e-06
7.00767e-05
8.29482e-06
0.000116727
1.56537e-05
0.000161458
2.57848e-05
0.000202595
3.89278e-05
0.000238564
5.53101e-05
0.000267913
7.5168e-05
0.000289315
9.87715e-05
0.000301578
0.000126449
0.000303624
0.000158612
0.000294457
0.000195774
0.000273093
0.000238578
0.000238483
0.000287811
0.000189414
0.000344431
0.000124401
0.000409587
4.15826e-05
0.000484656
-6.13444e-05
0.000571374
-0.000187297
0.000671862
-0.000336933
-0.000507994
0.000790106
6.52847e-07
2.26427e-05
2.99864e-06
6.77309e-05
7.44781e-06
0.000112278
1.4369e-05
0.000154537
2.40893e-05
0.000192875
3.69042e-05
0.000225749
5.30942e-05
0.000251723
7.29468e-05
0.000269462
9.6783e-05
0.000277741
0.000124984
0.000275423
0.000158017
0.000261424
0.000196461
0.000234649
0.000241028
0.000193915
0.00029259
0.000137852
0.00035219
6.48013e-05
0.000421062
-2.72891e-05
0.00050064
-0.000140923
0.00059265
-0.000279307
0.000699187
-0.00044347
-0.000633217
0.00082441
5.15968e-07
2.21267e-05
2.55282e-06
6.56941e-05
6.59432e-06
0.000108237
1.30748e-05
0.000148056
2.23825e-05
0.000183567
3.4871e-05
0.000213261
5.08782e-05
0.000235716
7.07491e-05
0.000249592
9.48641e-05
0.000253626
0.000123668
0.000246619
0.000157699
0.000227393
0.000197614
0.000194734
0.000244216
0.000147312
0.000298472
8.35956e-05
0.000361525
1.7487e-06
0.00043469
-0.000100455
0.000519443
-0.000225676
0.000617429
-0.000377293
0.000730648
-0.000556689
-0.000765639
0.00086307
3.80746e-07
2.1746e-05
2.11409e-06
6.39607e-05
5.75708e-06
0.000104594
1.18102e-05
0.000142003
2.07241e-05
0.000174653
3.29134e-05
0.000201072
4.87775e-05
0.000219852
6.87263e-05
0.000229643
9.32089e-05
0.000229144
0.000122746
0.000217083
0.000157959
0.00019218
0.0001996
0.000153092
0.000248577
9.83357e-05
0.000305964
2.62084e-05
0.000373007
-6.52938e-05
0.000451093
-0.000178541
0.000541707
-0.00031629
0.000646327
-0.000481913
0.000766795
-0.000677156
-0.000905243
0.000906398
2.50327e-07
2.14956e-05
1.69373e-06
6.25173e-05
4.9601e-06
0.000101327
1.06164e-05
0.000136347
1.91771e-05
0.000166093
3.11209e-05
0.000189128
4.69142e-05
0.000204058
6.70387e-05
0.000209518
9.20223e-05
0.00020416
0.000122473
0.000186632
0.00015911
0.000155543
0.000202794
0.000109408
0.000254548
4.65823e-05
0.000315559
-3.48033e-05
0.00038717
-0.000136904
0.000470816
-0.000262187
0.000567947
-0.000413421
0.00067977
-0.000593735
0.000807922
-0.000805308
-0.00105171
0.000954384
1.27991e-07
2.13676e-05
1.30339e-06
6.13419e-05
4.22806e-06
9.84025e-05
9.53561e-06
0.000131039
1.78061e-05
0.000157822
2.95858e-05
0.000177348
4.54134e-05
0.000188231
6.58502e-05
0.000189081
9.15128e-05
0.000178498
0.000123108
0.000155037
0.000161465
0.000117186
0.000207562
6.33098e-05
0.000262544
-8.39888e-06
0.000327708
-9.99677e-05
0.000404474
-0.000213671
0.000494289
-0.000352001
0.000598504
-0.000517636
0.000717944
-0.000713176
0.000854012
-0.000941377
-0.00120434
0.00100665
1.71675e-08
2.13505e-05
9.54748e-07
6.04043e-05
3.58563e-06
9.57716e-05
8.61011e-06
0.000126015
1.66757e-05
0.000149757
2.83999e-05
0.000165624
4.43996e-05
0.000172231
6.53232e-05
0.000168158
9.18852e-05
0.000151936
0.000124901
0.000122021
0.00016532
7.67676e-05
0.000214243
1.43863e-05
0.000272933
-6.70888e-05
0.000342787
-0.000169821
0.000425268
-0.000296152
0.000521779
-0.000448512
0.000633502
-0.000629359
0.000760767
-0.00084044
0.000904717
-0.00108533
-0.00136205
0.00106243
-7.94222e-08
2.14299e-05
6.5909e-07
5.96658e-05
3.0567e-06
9.3374e-05
7.88075e-06
0.000121191
1.58482e-05
0.000141789
2.76518e-05
0.00015382
4.39921e-05
0.00015589
6.5612e-05
0.000146538
9.33323e-05
0.000124215
0.000128085
8.72684e-05
0.000170942
3.39104e-05
0.000223129
-3.78006e-05
0.000286016
-0.000129975
0.00036107
-0.000244875
0.000449758
-0.00038484
0.000553369
-0.000552124
0.000672827
-0.000748817
0.000807885
-0.000975498
0.000959372
-0.00123681
-0.00152333
0.00112065
-1.5813e-07
2.1588e-05
4.27066e-07
5.90806e-05
2.66358e-06
9.11375e-05
7.38561e-06
0.000116469
1.53815e-05
0.000133793
2.74232e-05
0.000141779
4.43004e-05
0.000139013
6.68568e-05
0.000123982
9.60251e-05
9.50471e-05
0.000132859
5.04347e-05
0.000178553
-1.17837e-05
0.000234447
-9.36948e-05
0.000301998
-0.000197527
0.000382707
-0.000325584
0.000477984
-0.000480117
0.000588933
-0.000663072
0.000716117
-0.000876001
0.000858681
-0.00111806
0.00101702
-0.00139515
-0.0016863
0.00118
-2.1662e-07
2.18046e-05
2.6808e-07
5.85959e-05
2.42611e-06
8.89795e-05
7.15859e-06
0.000111736
1.53272e-05
0.000125625
2.77865e-05
0.000129319
4.54201e-05
0.00012138
6.91773e-05
0.000100224
0.000100107
6.41178e-05
0.000139382
1.11591e-05
0.000188316
-6.07175e-05
0.000248345
-0.000153724
0.000320981
-0.000270162
0.000407708
-0.000412311
0.000509814
-0.000582224
0.000628139
-0.000781397
0.000762783
-0.00101065
0.000912316
-0.0012676
0.00107642
-0.00155926
-0.00184894
0.00123906
-2.52631e-07
2.20573e-05
1.9001e-07
5.81533e-05
2.361e-06
8.68085e-05
7.22819e-06
0.000106869
1.57283e-05
0.000117125
2.88014e-05
0.000116246
4.74288e-05
0.000102752
7.26681e-05
7.49851e-05
0.000105684
3.11022e-05
0.000147766
-3.09229e-05
0.000200329
-0.000113281
0.000264882
-0.000218276
0.000342948
-0.000348229
0.000435937
-0.000505299
0.000544941
-0.000691227
0.000670464
-0.000906921
0.00081207
-0.00115225
0.000967847
-0.00142337
0.00113609
-0.0017275
-0.00200951
0.00129666
-2.64495e-07
2.23218e-05
1.98817e-07
5.769e-05
2.48114e-06
8.45262e-05
7.61645e-06
0.000101734
1.66178e-05
0.000108123
3.05132e-05
0.000102351
5.03834e-05
8.28819e-05
7.73949e-05
4.79736e-05
0.000112824
-4.32707e-06
0.000158067
-7.61654e-05
0.000214619
-0.000169833
0.000284025
-0.000287682
0.000367769
-0.000431973
0.000467116
-0.000604646
0.000582888
-0.000807
0.000715198
-0.00103923
0.00086308
-0.00130013
0.00102442
-0.00158471
0.00119481
-0.0018979
-0.00216642
0.00135172
-2.51156e-07
2.25729e-05
2.98469e-07
5.71403e-05
2.79521e-06
8.20294e-05
8.33827e-06
9.61908e-05
1.80177e-05
9.84437e-05
3.29508e-05
8.74177e-05
5.4318e-05
6.15147e-05
8.33919e-05
1.88998e-05
0.000121553
-4.24884e-05
0.000170286
-0.000124898
0.00023114
-0.000230687
0.00030565
-0.000362192
0.000395202
-0.000521525
0.000500841
-0.000710285
0.000623037
-0.000929195
0.000761448
-0.00117764
0.000914639
-0.00145332
0.00108077
-0.00175084
0.00125306
-0.00207018
-0.0023157
0.00140234
-2.12329e-07
2.27853e-05
4.90657e-07
5.64373e-05
3.30722e-06
7.92129e-05
9.40078e-06
9.00972e-05
1.99385e-05
8.7906e-05
3.61266e-05
7.12295e-05
5.92434e-05
3.8398e-05
9.06617e-05
-1.25185e-05
0.000131854
-8.36808e-05
0.000184371
-0.000177415
0.000249779
-0.000296096
0.000329554
-0.000441967
0.000424915
-0.000616885
0.000536607
-0.000821978
0.000664667
-0.00105725
0.000808218
-0.00132119
0.000965278
-0.00161038
0.00113379
-0.00191935
0.00130848
-0.00224487
-0.00253186
0.00152464
-1.48006e-07
2.29333e-05
7.75573e-07
5.55138e-05
4.01766e-06
7.59708e-05
1.08046e-05
8.33103e-05
2.23798e-05
7.63308e-05
4.00369e-05
5.35724e-05
6.51478e-05
1.32872e-05
9.91763e-05
-4.65471e-05
0.00014367
-0.000128174
0.000200217
-0.000233962
0.000270361
-0.000366239
0.00035546
-0.000527067
0.000456496
-0.000717921
0.000573839
-0.000939321
0.00070701
-0.00119043
0.000854524
-0.00146871
0.00101379
-0.00176965
0.00118212
-0.00208768
0.00135403
-0.00241678
-0.00272321
0.00154538
-5.93643e-08
2.29926e-05
1.15072e-06
5.43037e-05
4.92207e-06
7.21994e-05
1.25425e-05
7.56899e-05
2.53301e-05
6.35432e-05
4.46625e-05
3.42401e-05
7.19984e-05
-1.40488e-05
0.00010888
-8.34291e-05
0.000156909
-0.000176203
0.000217678
-0.000294731
0.000292661
-0.000441222
0.00038304
-0.000617445
0.000489488
-0.000824369
0.000611926
-0.00106176
0.000749302
-0.0013278
0.000899479
-0.00161889
0.00105923
-0.00192941
0.00122495
-0.0022534
0.00139101
-0.00258285
-0.00289611
0.00156391
5.36801e-08
2.29389e-05
1.61223e-06
5.27451e-05
6.01272e-06
6.77989e-05
1.46016e-05
6.7101e-05
2.87687e-05
4.93761e-05
4.99709e-05
1.30379e-05
7.97447e-05
-4.38226e-05
0.000119695
-0.000123379
0.000171451
-0.000227959
0.000236574
-0.000359854
0.000316417
-0.000521065
0.000411924
-0.000712953
0.000523396
-0.000935841
0.000650245
-0.00118861
0.000790809
-0.00146836
0.000942298
-0.00177037
0.0011009
-0.00208801
0.00126228
-0.00241478
0.00142096
-0.00274152
-0.00305383
0.00157868
1.87196e-07
2.27517e-05
2.15458e-06
5.07777e-05
7.27901e-06
6.26745e-05
1.6964e-05
5.7416e-05
3.26675e-05
3.36726e-05
5.59191e-05
-1.02137e-05
8.83213e-05
-7.62248e-05
0.000131523
-0.000166581
0.000187151
-0.000283587
0.000256695
-0.000429399
0.000341336
-0.000605705
0.000441719
-0.000813336
0.000557713
-0.00105184
0.000688181
-0.00131908
0.000830841
-0.00161102
0.0009823
-0.00192183
0.00113828
-0.00224399
0.001294
-0.0025705
0.00144426
-0.00289178
-0.00319821
0.00158863
3.40654e-07
2.24111e-05
2.77159e-06
4.83468e-05
8.70824e-06
5.67378e-05
1.96081e-05
4.65161e-05
3.69927e-05
1.6288e-05
6.24558e-05
-3.56768e-05
9.76522e-05
-0.000111421
0.000144252
-0.00021318
0.000203849
-0.000343184
0.000277817
-0.000503366
0.000367109
-0.000694998
0.000472019
-0.000918246
0.000591934
-0.00117175
0.000725142
-0.00145228
0.000868769
-0.00175465
0.0010189
-0.00207197
0.00117094
-0.00239602
0.00131995
-0.00271952
0.0014612
-0.00303302
-0.00333042
0.00159341
5.11729e-07
2.18994e-05
3.45647e-06
4.54021e-05
1.02865e-05
4.99078e-05
2.25102e-05
3.42924e-05
4.17068e-05
-2.90854e-06
6.95245e-05
-6.34945e-05
0.000107654
-0.000149551
0.000157762
-0.000263288
0.000221373
-0.000406795
0.0002997
-0.000581694
0.000393419
-0.000788716
0.000502416
-0.00102724
0.000625563
-0.0012949
0.000760575
-0.0015873
0.000904035
-0.00189811
0.00105163
-0.00221956
0.00119859
-0.00254299
0.00134011
-0.00286104
0.00147201
-0.00316493
-0.00345132
0.00159291
6.9835e-07
2.1201e-05
4.20232e-06
4.18981e-05
1.19995e-05
4.21106e-05
2.56455e-05
2.06464e-05
4.67705e-05
-2.40336e-05
7.70658e-05
-9.37898e-05
0.000118239
-0.000190724
0.000171926
-0.000316975
0.000239546
-0.000474415
0.000322104
-0.000664251
0.000419945
-0.000886557
0.000532509
-0.00113981
0.000658132
-0.00142052
0.000793976
-0.00172314
0.000936161
-0.0020403
0.0010801
-0.0023635
0.00122105
-0.00268394
0.00135451
-0.0029945
0.00147699
-0.0032874
-0.00356163
0.0015873
8.98604e-07
2.03024e-05
5.0025e-06
3.77942e-05
1.38331e-05
3.328e-05
2.89892e-05
5.49028e-06
5.21445e-05
-4.71888e-05
8.50196e-05
-0.000126665
0.000129319
-0.000235024
0.000186618
-0.000374273
0.000258189
-0.000545986
0.000344783
-0.000750845
0.000446371
-0.000988146
0.000561912
-0.00125535
0.000689202
-0.00154781
0.000824899
-0.00185884
0.000964757
-0.00218015
0.00110407
-0.00250281
0.00123827
-0.00281813
0.00136331
-0.00311955
0.00147645
-0.00340053
-0.00366205
0.00157687
1.11081e-06
1.91916e-05
5.85095e-06
3.30541e-05
1.57741e-05
2.33568e-05
3.25178e-05
-1.12534e-05
5.77899e-05
-7.2461e-05
9.33262e-05
-0.000162201
0.000140805
-0.000282502
0.000201707
-0.000435176
0.000277121
-0.0006214
0.000367496
-0.00084122
0.000472389
-0.00109304
0.000590256
-0.00137322
0.000718374
-0.00167593
0.00085296
-0.00199342
0.000989522
-0.00231672
0.00112338
-0.00263667
0.00125027
-0.00294502
0.00136675
-0.00323602
0.00147078
-0.00350456
-0.00375328
0.00156201
1.33357e-06
1.7858e-05
6.74235e-06
2.76453e-05
1.78105e-05
1.22886e-05
3.6209e-05
-2.96518e-05
6.36701e-05
-9.99221e-05
0.000101928
-0.000200459
0.000152608
-0.000333183
0.000217067
-0.000499634
0.000296163
-0.000700496
0.000390004
-0.000935062
0.0004977
-0.00120073
0.000617199
-0.00149272
0.000745294
-0.00180402
0.000877849
-0.00212598
0.00101025
-0.00244912
0.00113797
-0.0027644
0.0012572
-0.00306424
0.00136511
-0.00334394
0.0014604
-0.00359986
-0.00383603
0.00154316
1.56581e-06
1.62922e-05
7.67221e-06
2.15389e-05
1.99317e-05
2.91176e-08
4.00424e-05
-4.97625e-05
6.97499e-05
-0.00012963
0.000110768
-0.000241476
0.000164644
-0.000387059
0.000232571
-0.000567561
0.00031514
-0.000783065
0.000412077
-0.001032
0.000522023
-0.00131068
0.000642429
-0.00161312
0.000769658
-0.00193125
0.000899323
-0.00225564
0.00102681
-0.0025766
0.00114789
-0.00288548
0.00125926
-0.00317561
0.00135877
-0.00344344
0.00144578
-0.00368687
-0.00391102
0.00152076
1.80676e-06
1.44855e-05
8.63688e-06
1.47088e-05
2.21283e-05
-1.34623e-05
4.39994e-05
-7.16336e-05
7.59962e-05
-0.000161626
0.000119791
-0.000285271
0.000176826
-0.000444094
0.000248094
-0.000638829
0.000333877
-0.000868848
0.00043349
-0.00113161
0.000545093
-0.00142228
0.000665666
-0.00173369
0.000791217
-0.0020568
0.000917216
-0.00238164
0.00103918
-0.00269857
0.00115326
-0.00299956
0.00125673
-0.00327908
0.00134811
-0.00353482
0.00142735
-0.00376611
-0.00397895
0.00149528
2.05591e-06
1.24296e-05
9.63346e-06
7.1312e-06
2.43922e-05
-2.8221e-05
4.80628e-05
-9.53042e-05
8.23772e-05
-0.000195941
0.000128945
-0.00033184
0.000189071
-0.00050422
0.000263511
-0.000713269
0.000352204
-0.000957541
0.000454027
-0.00123344
0.000566664
-0.00153492
0.000686668
-0.0018537
0.000809777
-0.00217991
0.00093143
-0.00250329
0.00104738
-0.00281452
0.00115426
-0.00310644
0.00124994
-0.00337475
0.00133355
-0.00361844
0.00140558
-0.00383814
-0.00404051
0.00146714
2.31299e-06
1.01166e-05
1.06596e-05
-1.21539e-06
2.67162e-05
-4.42777e-05
5.22163e-05
-0.000120804
8.88618e-05
-0.000232586
0.000138176
-0.000381154
0.000201293
-0.000567337
0.000278699
-0.000790674
0.000369954
-0.0010488
0.000473486
-0.00133697
0.000586517
-0.00164795
0.000705235
-0.00197242
0.000825201
-0.00229988
0.000941936
-0.00262003
0.00105153
-0.00292412
0.00115114
-0.00320605
0.00123922
-0.00346283
0.00131551
-0.00369472
0.0013809
-0.00390354
-0.00409634
0.00143673
2.57786e-06
7.5387e-06
1.17133e-05
-1.03508e-05
2.90936e-05
-6.1658e-05
5.6444e-05
-0.000148155
9.54187e-05
-0.000271561
0.000147429
-0.000433164
0.000213407
-0.000633316
0.000293533
-0.0008708
0.000386966
-0.00114223
0.000491675
-0.00144168
0.000604459
-0.00176073
0.000721208
-0.00208917
0.000837409
-0.00241608
0.000948765
-0.00273138
0.00105178
-0.00302713
0.00114417
-0.00329843
0.00122496