/*--------------------------------*- C++ -*----------------------------------*\
  =========                 |
  \\      /  F ield         | OpenFOAM: The Open Source CFD Toolbox
   \\    /   O peration     | Website:  https://openfoam.org
    \\  /    A nd           | Version:  7
     \\/     M anipulation  |
\*---------------------------------------------------------------------------*/
FoamFile
{
    version     2.0;
    format      ascii;
    class       surfaceScalarField;
    location    "60";
    object      phi;
}
// * * * * * * * * * * * * * * * * * * * * * * * * * * * * * * * * * * * * * //

dimensions      [0 3 -1 0 0 0 0];

internalField   nonuniform List<scalar> 
13926
(
-4.032e-07
-3.33716e-06
3.74036e-06
-1.53963e-06
-9.34835e-06
1.04848e-05
-3.36273e-06
-1.49164e-05
1.67395e-05
-2.0039e-05
2.25017e-05
-4.09778e-07
-2.92738e-06
-1.56363e-06
-8.1945e-06
-3.4133e-06
-1.30667e-05
-1.75421e-05
-4.15686e-07
-2.51169e-06
-1.58512e-06
-7.02507e-06
-3.4584e-06
-1.11934e-05
-1.50151e-05
-4.20912e-07
-2.09078e-06
-1.60404e-06
-5.84193e-06
-3.49794e-06
-9.29952e-06
-1.24621e-05
-4.25445e-07
-1.66534e-06
-1.62037e-06
-4.64701e-06
-3.53183e-06
-7.38806e-06
-9.8872e-06
-4.29282e-07
-1.23605e-06
-1.63408e-06
-3.44221e-06
-3.56004e-06
-5.46209e-06
-7.29451e-06
-4.32424e-07
-8.03631e-07
-1.64517e-06
-2.22946e-06
-3.58258e-06
-3.52468e-06
-4.68819e-06
-4.34875e-07
-3.68756e-07
-1.65366e-06
-1.01068e-06
-3.59946e-06
-1.57888e-06
-2.0724e-06
-4.36642e-07
6.78855e-08
-1.65957e-06
2.12248e-07
-3.61073e-06
3.72287e-07
5.48785e-07
-4.37736e-07
5.05622e-07
-1.66293e-06
1.43744e-06
-3.61647e-06
2.32582e-06
3.17128e-06
-4.38172e-07
9.43794e-07
-1.6638e-06
2.66307e-06
-3.61674e-06
4.27877e-06
5.79109e-06
-4.37964e-07
1.38176e-06
-1.66221e-06
3.88731e-06
-3.61167e-06
6.22823e-06
8.40426e-06
-4.37131e-07
1.81889e-06
-1.65823e-06
5.10841e-06
-3.60134e-06
8.17134e-06
1.10069e-05
-4.35689e-07
2.25458e-06
-1.65191e-06
6.32463e-06
-3.58588e-06
1.01053e-05
-6.17414e-06
1.35951e-05
1.67911e-05
-4.33655e-07
2.68823e-06
-1.6433e-06
7.53427e-06
-3.56537e-06
1.20274e-05
-6.13549e-06
1.61653e-05
1.99447e-05
-4.31046e-07
3.11928e-06
-1.63246e-06
8.73569e-06
-3.53993e-06
1.39348e-05
-6.08818e-06
1.87135e-05
2.30681e-05
-4.27876e-07
3.54715e-06
-1.61943e-06
9.92725e-06
-3.50962e-06
1.5825e-05
-6.0323e-06
2.12362e-05
2.61567e-05
-4.24157e-07
3.97131e-06
-1.60425e-06
1.11073e-05
-3.47451e-06
1.76953e-05
-5.96796e-06
2.37296e-05
2.92058e-05
-4.19903e-07
4.39122e-06
-1.58696e-06
1.22744e-05
-3.43467e-06
1.9543e-05
-5.8952e-06
2.61902e-05
3.22106e-05
-4.15123e-07
4.80634e-06
-1.56756e-06
1.34268e-05
-3.3901e-06
2.13655e-05
-5.81406e-06
2.86141e-05
3.51665e-05
-4.09823e-07
5.21616e-06
-1.54609e-06
1.45631e-05
-3.34084e-06
2.31603e-05
-5.72451e-06
3.09978e-05
-8.62659e-06
3.80686e-05
4.43678e-05
-4.04008e-07
5.62017e-06
-1.52255e-06
1.56817e-05
-3.28686e-06
2.49246e-05
-5.62648e-06
3.33374e-05
-8.46987e-06
4.0912e-05
4.76429e-05
-3.97678e-07
6.01785e-06
-1.49691e-06
1.67809e-05
-3.22811e-06
2.66558e-05
-5.51985e-06
3.56291e-05
-8.29951e-06
4.36916e-05
5.08372e-05
-3.90831e-07
6.40868e-06
-1.46917e-06
1.78592e-05
-3.16453e-06
2.83511e-05
-5.40445e-06
3.78691e-05
-8.11517e-06
4.64023e-05
5.39441e-05
-3.83463e-07
6.79214e-06
-1.4393e-06
1.89151e-05
-3.09602e-06
3.00079e-05
-5.28006e-06
4.00531e-05
-7.91645e-06
4.90387e-05
-1.09292e-05
5.69569e-05
6.38017e-05
-3.75568e-07
7.16771e-06
-1.40725e-06
1.99468e-05
-3.02247e-06
3.16231e-05
-5.14645e-06
4.21771e-05
-7.70287e-06
5.15951e-05
-1.06143e-05
5.98683e-05
6.69898e-05
-3.67138e-07
7.53485e-06
-1.37299e-06
2.09526e-05
-2.94376e-06
3.31939e-05
-5.00333e-06
4.42367e-05
-7.47389e-06
5.40657e-05
-1.02764e-05
6.26708e-05
7.00441e-05
-3.58164e-07
7.89301e-06
-1.33646e-06
2.19309e-05
-2.85974e-06
3.47171e-05
-4.85038e-06
4.62273e-05
-7.22893e-06
5.64442e-05
-9.91452e-06
6.53564e-05
7.29546e-05
-3.48637e-07
8.24165e-06
-1.29761e-06
2.28799e-05
-2.77026e-06
3.61898e-05
-4.68727e-06
4.81443e-05
-6.96734e-06
5.87243e-05
-9.52758e-06
6.79166e-05
-1.22837e-05
7.57107e-05
8.20967e-05
-3.38551e-07
8.5802e-06
-1.2564e-06
2.37977e-05
-2.67517e-06
3.76085e-05
-4.51365e-06
4.99828e-05
-6.68846e-06
6.08991e-05
-9.11444e-06
7.03426e-05
-1.17048e-05
7.83011e-05
8.47629e-05
-3.27898e-07
8.9081e-06
-1.21277e-06
2.46826e-05
-2.57432e-06
3.89701e-05
-4.32919e-06
5.17377e-05
-6.39163e-06
6.29616e-05
-8.67393e-06
7.26249e-05
-1.10865e-05
8.07136e-05
8.72141e-05
-3.16673e-07
9.22477e-06
-1.16669e-06
2.55326e-05
-2.46756e-06
4.0271e-05
-4.13352e-06
5.34036e-05
-6.07616e-06
6.49042e-05
-8.20484e-06
7.47536e-05
-1.04268e-05
8.29356e-05
8.94343e-05
-3.04874e-07
9.52964e-06
-1.11811e-06
2.63458e-05
-2.35477e-06
4.15076e-05
-3.92633e-06
5.49752e-05
-5.74137e-06
6.67192e-05
-7.70598e-06
7.67182e-05
-9.72381e-06
8.49535e-05
-1.16958e-05
9.14063e-05
9.60546e-05
-2.92502e-07
9.82215e-06
-1.06701e-06
2.71203e-05
-2.2358e-06
4.26764e-05
-3.70728e-06
5.64467e-05
-5.38662e-06
6.83986e-05
-7.17618e-06
7.85077e-05
-8.97553e-06
8.67528e-05
-1.06812e-05
9.31119e-05
9.75592e-05
-2.79561e-07
1.01017e-05
-1.01336e-06
2.78541e-05
-2.11056e-06
4.37736e-05
-3.47608e-06
5.78122e-05
-5.01127e-06
6.99338e-05
-6.61428e-06
8.01108e-05
-8.18007e-06
8.83186e-05
-9.60005e-06
9.45319e-05
9.87205e-05
-2.66056e-07
1.03678e-05
-9.57154e-07
2.85452e-05
-1.97895e-06
4.47954e-05
-3.23245e-06
5.90657e-05
-4.6147e-06
7.1316e-05
-6.01915e-06
8.15152e-05
-7.33555e-06
8.9635e-05
-8.44956e-06
9.56459e-05
-9.24198e-06
9.95129e-05
0.000101192
-2.51997e-07
1.06198e-05
-8.9838e-07
2.91916e-05
-1.84087e-06
4.57379e-05
-2.97611e-06
6.02009e-05
-4.19634e-06
7.25363e-05
-5.38971e-06
8.27086e-05
-6.44015e-06
9.06854e-05
-7.22684e-06
9.64326e-05
-7.62341e-06
9.99095e-05
0.000101065
-2.37395e-07
1.08572e-05
-8.37035e-07
2.97913e-05
-1.69624e-06
4.65971e-05
-2.7068e-06
6.12115e-05
-3.75559e-06
7.3585e-05
-4.72489e-06
8.36779e-05
-5.49207e-06
9.14526e-05
-5.9291e-06
9.68696e-05
-5.90151e-06
9.98819e-05
0.000100431
-2.22259e-07
1.10794e-05
-7.73115e-07
3.03421e-05
-1.54499e-06
4.7369e-05
-2.42425e-06
6.20908e-05
-3.29188e-06
7.44527e-05
-4.02359e-06
8.44096e-05
-4.48954e-06
9.19186e-05
-4.55359e-06
9.69337e-05
-4.07228e-06
9.94006e-05
-2.89341e-06
9.92519e-05
9.64027e-05
-2.06603e-07
1.1286e-05
-7.0661e-07
3.08421e-05
-1.387e-06
4.80494e-05
-2.12819e-06
6.28319e-05
-2.8046e-06
7.51291e-05
-3.28474e-06
8.48897e-05
-3.43076e-06
9.20646e-05
-3.0976e-06
9.66005e-05
-2.13176e-06
9.84348e-05
-3.69831e-07
9.749e-05
9.36697e-05
-1.90432e-07
1.14764e-05
-6.37501e-07
3.12892e-05
-1.22217e-06
4.8634e-05
-1.81828e-06
6.34281e-05
-2.29308e-06
7.56039e-05
-2.50717e-06
8.51038e-05
-2.31391e-06
9.18713e-05
-1.55837e-06
9.5845e-05
-7.60291e-08
9.69524e-05
2.30893e-06
9.5105e-05
5.78536e-06
9.01932e-05
8.20828e-05
-1.73751e-07
1.16502e-05
-5.65753e-07
3.16812e-05
-1.05034e-06
4.91186e-05
-1.49416e-06
6.38719e-05
-1.75661e-06
7.58663e-05
-1.68965e-06
8.50369e-05
-1.13702e-06
9.13187e-05
6.69377e-08
9.4641e-05
2.09887e-06
9.49205e-05
5.1482e-06
9.20557e-05
9.419e-06
8.59224e-05
7.63699e-05
-1.56556e-07
1.18068e-05
-4.91307e-07
3.2016e-05
-8.71306e-07
4.94986e-05
-1.15536e-06
6.41559e-05
-1.19433e-06
7.59053e-05
-8.30775e-07
8.46733e-05
1.01987e-07
9.03859e-05
1.78132e-06
9.29617e-05
4.39704e-06
9.23048e-05
8.15336e-06
8.82994e-05
1.32709e-05
8.08049e-05
1.99888e-05
6.9652e-05
5.46414e-05
-1.38837e-07
1.19456e-05
-4.14072e-07
3.22912e-05
-6.84811e-07
4.97694e-05
-8.01332e-07
6.42725e-05
-6.05267e-07
7.57092e-05
7.10162e-08
8.3997e-05
1.40543e-06
8.90515e-05
3.58802e-06
9.07791e-05
6.8228e-06
8.907e-05
1.133e-05
8.37922e-05
1.73481e-05
7.47868e-05
2.5136e-05
6.18641e-05
4.48027e-05
-1.2057e-07
1.20662e-05
-3.33922e-07
3.25045e-05
-4.90509e-07
4.99259e-05
-4.31388e-07
6.42133e-05
1.18432e-08
7.5266e-05
1.01752e-06
8.29913e-05
2.77592e-06
8.72931e-05
5.49058e-06
8.80644e-05
9.38077e-06
8.51798e-05
1.46838e-05
7.84892e-05
2.16573e-05
6.78132e-05
3.05815e-05
5.29399e-05
3.3624e-05
-1.01719e-07
1.21679e-05
-2.5068e-07
3.26535e-05
-2.87968e-07
4.99632e-05
-4.47118e-08
6.39701e-05
6.58119e-07
7.45632e-05
2.0108e-06
8.16387e-05
4.21638e-06
8.50875e-05
7.49294e-06
8.47879e-05
1.2076e-05
8.05967e-05
1.82211e-05
7.23441e-05
2.62061e-05
5.98282e-05
3.63334e-05
4.28126e-05
4.89314e-05
2.1026e-05
-5.83483e-06
-8.2234e-08
1.22501e-05
-1.64122e-07
3.27354e-05
-7.66492e-08
4.98758e-05
3.59701e-07
6.35337e-05
1.33543e-06
7.35875e-05
3.05328e-06
7.99208e-05
5.73012e-06
8.24107e-05
9.59946e-06
8.09185e-05
1.4914e-05
7.52822e-05
2.19485e-05
6.53097e-05
3.1002e-05
5.07747e-05
4.24001e-05
3.14144e-05
5.64964e-05
6.92977e-06
-2.30104e-05
-6.20447e-08
1.23122e-05
-7.39624e-08
3.27473e-05
1.44097e-07
4.96577e-05
7.83042e-07
6.28948e-05
2.04556e-06
7.23249e-05
4.14767e-06
7.78187e-05
7.3209e-06
7.92375e-05
1.1815e-05
7.64244e-05
1.79009e-05
6.91963e-05
2.58732e-05
5.73374e-05
3.6053e-05
4.05949e-05
4.87901e-05
1.86774e-05
6.44632e-05
-8.74336e-06
8.34804e-05
-4.20276e-05
-8.15567e-05
-4.10652e-08
1.23532e-05
2.01617e-08
3.26861e-05
3.75045e-07
4.93028e-05
1.22668e-06
6.20431e-05
2.79067e-06
7.07609e-05
5.29707e-06
7.53123e-05
8.9929e-06
7.55416e-05
1.4145e-05
7.12723e-05
2.10432e-05
6.22982e-05
3.00028e-05
4.83777e-05
4.13678e-05
2.92299e-05
5.55119e-05
4.53333e-06
7.28395e-05
-2.60709e-05
9.37846e-05
-6.29726e-05
-0.00010658
-1.91966e-08
1.23724e-05
1.18566e-07
3.25483e-05
6.17086e-07
4.88043e-05
1.69219e-06
6.0968e-05
3.57319e-06
6.88799e-05
6.50495e-06
7.23805e-05
1.07507e-05
7.12959e-05
1.65953e-05
6.54277e-05
2.4348e-05
5.45455e-05
3.43457e-05
3.838e-05
4.69553e-05
1.66204e-05
6.25745e-05
-1.10859e-05
8.16326e-05
-4.51291e-05
0.000104588
-8.59283e-05
0.000131926
-0.000133917
-0.000189522
3.61659e-09
1.23688e-05
2.21689e-07
3.23302e-05
8.71068e-07
4.81549e-05
2.18114e-06
5.9658e-05
4.39562e-06
6.66655e-05
7.77492e-06
6.90012e-05
1.25993e-05
6.64715e-05
1.91721e-05
5.88549e-05
2.78229e-05
4.58947e-05
3.89104e-05
2.72924e-05
5.28244e-05
2.70635e-06
6.99865e-05
-2.8248e-05
9.08494e-05
-6.59919e-05
0.000115894
-0.000110973
0.000145624
-0.000163647
0.000180559
-0.000224457
-0.000293793
2.76606e-08
1.23411e-05
3.30288e-07
3.20276e-05
1.13849e-06
4.73467e-05
2.69591e-06
5.81005e-05
5.26136e-06
6.41e-05
9.11153e-06
6.51511e-05
1.45444e-05
6.10387e-05
2.18824e-05
5.15169e-05
3.14761e-05
3.6301e-05
4.37059e-05
1.50626e-05
5.89845e-05
-1.25722e-05
7.77562e-05
-4.70197e-05
0.000100495
-8.8731e-05
0.000127701
-0.000138179
0.000159893
-0.000195839
0.000197598
-0.000262161
-0.000337534
5.3018e-08
1.22881e-05
4.44809e-07
3.16358e-05
1.42042e-06
4.63711e-05
3.23841e-06
5.62825e-05
6.17339e-06
6.11651e-05
1.0519e-05
6.08055e-05
1.65915e-05
5.49661e-05
2.47332e-05
4.33752e-05
3.53155e-05
2.57187e-05
4.8741e-05
1.6371e-06
6.54443e-05
-2.92755e-05
8.58909e-05
-6.74663e-05
0.000110574
-0.000113414
0.000140009
-0.000167614
0.000174721
-0.000230551
0.000215236
-0.000302676
0.000262065
-0.000384363
-0.000475868
7.98645e-08
1.22083e-05
5.6589e-07
3.11498e-05
1.71819e-06
4.52188e-05
3.81092e-06
5.41898e-05
7.13509e-06
5.78409e-05
1.2002e-05
5.59386e-05
1.87467e-05
4.82214e-05
2.77317e-05
3.43901e-05
3.93495e-05
1.41009e-05
5.40244e-05
-1.30377e-05
7.22119e-05
-4.7463e-05
9.4397e-05
-8.96514e-05
0.000121088
-0.000140106
0.00015281
-0.000199335
0.000190088
-0.00026783
0.000233438
-0.000346026
0.000283341
-0.000434267
-0.000532758
1.0839e-07
1.20999e-05
6.9421e-07
3.0564e-05
2.03325e-06
4.38798e-05
4.41583e-06
5.18072e-05
8.15001e-06
5.41067e-05
1.35652e-05
5.05234e-05
2.10159e-05
4.07707e-05
3.0885e-05
2.45211e-05
4.3586e-05
1.39983e-06
5.95641e-05
-2.90158e-05
7.92946e-05
-6.71935e-05
0.000103279
-0.000113636
0.000132037
-0.000168864
0.000166095
-0.000233394
0.000205974
-0.000307708
0.000252161
-0.000392213
0.000305098
-0.000487203
0.000365147
-0.000592808
-0.000708961
1.38796e-07
1.19611e-05
8.30484e-07
2.98723e-05
2.36708e-06
4.23432e-05
5.0556e-06
4.91187e-05
9.22173e-06
4.99406e-05
1.52135e-05
4.45316e-05
2.34051e-05
3.25791e-05
3.42e-05
1.37262e-05
4.80324e-05
-1.24326e-05
6.53673e-05
-4.63507e-05
8.66976e-05
-8.85238e-05
0.000112538
-0.000139476
0.000143414
-0.00019974
0.00017985
-0.00026983
0.000222346
-0.000350204
0.000271356
-0.000441223
0.000327259
-0.000543106
0.000390332
-0.000655882
0.000460725
-0.000779354
-0.000913086
1.71291e-07
1.17898e-05
9.75447e-07
2.90681e-05
2.72118e-06
4.05974e-05
5.73274e-06
4.61072e-05
1.03539e-05
4.53194e-05
1.69517e-05
3.79338e-05
2.59203e-05
2.36105e-05
3.76834e-05
1.96303e-06
5.26954e-05
-2.74446e-05
7.14398e-05
-6.50951e-05
9.44243e-05
-0.000111508
0.000122173
-0.000167225
0.000155212
-0.00023278
0.000194054
-0.000308671
0.000239169
-0.000395318
0.000290961
-0.000493016
0.000349737
-0.000601881
0.000415668
-0.000721813
0.000488763
-0.00085245
-0.000993165
2.06087e-07
1.15837e-05
1.12984e-06
2.81444e-05
3.09709e-06
3.86302e-05
6.44972e-06
4.27545e-05
1.155e-05
4.02192e-05
1.87842e-05
3.06996e-05
2.85667e-05
1.38281e-05
4.1341e-05
-1.08113e-05
5.75806e-05
-4.36842e-05
7.77855e-05
-8.53e-05
0.000102476
-0.000136198
0.000132179
-0.000196928
0.000167416
-0.000268017
0.000208677
-0.000349932
0.000256394
-0.000443035
0.000310908
-0.00054753
0.000372434
-0.000663407
0.000441023
-0.000790402
0.000516535
-0.000927961
0.000598601
-0.00107523
-0.0012311
2.43399e-07
1.13403e-05
1.29441e-06
2.70934e-05
3.4963e-06
3.64283e-05
7.20896e-06
3.90419e-05
1.28134e-05
3.46148e-05
2.07155e-05
2.27974e-05
3.13492e-05
3.19436e-06
4.51778e-05
-2.46398e-05
6.26921e-05
-6.11986e-05
8.44064e-05
-0.000107014
0.000110849
-0.00016264
0.000142546
-0.000228625
0.000180005
-0.000305476
0.000223685
-0.000393612
0.000273967
-0.000493317
0.000331114
-0.000604677
0.000395238
-0.000727531
0.000466258
-0.000861422
0.000543869
-0.00100557
0.00062752
-0.00115888
0.000716398
-0.00131998
-0.00148726
2.83436e-07
1.10569e-05
1.46988e-06
2.59069e-05
3.92026e-06
3.39779e-05
8.01276e-06
3.49494e-05
1.41473e-05
2.84802e-05
2.27493e-05
1.41954e-05
3.42722e-05
-8.3285e-06
4.91975e-05
-3.95652e-05
6.80323e-05
-8.00333e-05
9.13017e-05
-0.000130284
0.000119537
-0.000190876
0.000153259
-0.000262347
0.000192952
-0.000345169
0.000239034
-0.000439694
0.000291821
-0.000546104
0.000351488
-0.000664344
0.000418028
-0.000794071
0.000491218
-0.000934612
0.000570587
-0.00108494
0.000655403
-0.0012437
0.000744668
-0.00140924
0.000837118
-0.00157971
-0.00175342
3.26403e-07
1.07305e-05
1.65693e-06
2.45764e-05
4.37034e-06
3.12645e-05
8.86323e-06
3.04565e-05
1.55545e-05
2.17889e-05
2.4889e-05
4.86099e-06
3.73388e-05
-2.07783e-05
5.34028e-05
-5.56291e-05
7.36014e-05
-0.000100232
9.84676e-05
-0.00015515
0.000128531
-0.00022094
0.000164299
-0.000298115
0.000206223
-0.000387092
0.000254669
-0.000488141
0.000309879
-0.000601314
0.000371925
-0.00072639
0.000440671
-0.000862817
0.000515742
-0.00100968
0.000596503
-0.0011657
0.000682049
-0.00132924
0.000771224
-0.00149842
0.000862638
-0.00167112
-0.00184549
3.72493e-07
1.0358e-05
1.85621e-06
2.30927e-05
4.84779e-06
2.82729e-05
9.76227e-06
2.5542e-05
1.70375e-05
1.45137e-05
2.71372e-05
-5.23865e-06
4.05514e-05
-3.41925e-05
5.77943e-05
-7.28721e-05
7.93975e-05
-0.000121835
0.000105897
-0.00018165
0.000137816
-0.000252859
0.000175638
-0.000335936
0.000219775
-0.00043123
0.000270531
-0.000538897
0.000328057
-0.00065884
0.000392312
-0.000790644
0.000463024
-0.000933529
0.000539662
-0.00108632
0.000621428
-0.00124747
0.000707263
-0.00141508
0.000795877
-0.00158703
0.000885797
-0.00176104
0.000975418
-0.00193511
-0.00210604
4.21887e-07
9.93608e-06
2.06831e-06
2.14463e-05
5.35373e-06
2.49875e-05
1.07115e-05
2.01842e-05
1.85982e-05
6.62696e-06
2.94957e-05
-1.61361e-05
4.39109e-05
-4.86077e-05
6.23713e-05
-9.13326e-05
8.54161e-05
-0.00014488
0.00011358
-0.000209814
0.000147372
-0.000286651
0.000187245
-0.00037581
0.000233562
-0.000477546
0.000286549
-0.000591884
0.00034626
-0.000718551
0.000412528
-0.000856913
0.000484939
-0.00100594
0.000562806
-0.00116419
0.000645178
-0.00132984
0.000730857
-0.00150076
0.000818455
-0.00167463
0.000906451
-0.00184904
0.000993263
-0.00202193
0.00107745
-0.00219023
-0.00235262
4.74747e-07
9.46133e-06
2.29375e-06
1.96273e-05
5.88911e-06
2.13921e-05
1.17123e-05
1.4361e-05
2.0238e-05
-1.89879e-06
3.19656e-05
-2.78637e-05
4.74171e-05
-6.40592e-05
6.71309e-05
-0.000111046
9.16497e-05
-0.000169399
0.000121502
-0.000239666
0.000157175
-0.000322324
0.000199082
-0.000417717
0.000247525
-0.000525988
0.000302645
-0.000647004
0.000364384
-0.00078029
0.000432445
-0.000924974
0.000506264
-0.00107976
0.000585004
-0.00124293
0.000667572
-0.00141241
0.000752659
-0.00158585
0.000838805
-0.00176078
0.000924485
-0.00193472
0.00100818
-0.00210562
0.0010886
-0.00227065
-0.00242886
0.00116484
5.31219e-07
8.93012e-06
2.53299e-06
1.76255e-05
6.45469e-06
1.74704e-05
1.27655e-05
8.0502e-06
2.19578e-05
-1.1091e-05
3.4547e-05
-4.04529e-05
5.10683e-05
-8.05805e-05
7.20681e-05
-0.000132046
9.80882e-05
-0.000195419
0.000129644
-0.000271222
0.000167195
-0.000359874
0.000211105
-0.000461628
0.000261602
-0.000576486
0.000318734
-0.000704136
0.000382321
-0.000843877
0.000451928
-0.000994581
0.000526845
-0.00115467
0.00060609
-0.00132217
0.000688446
-0.00149476
0.000772515
-0.00166992
0.000856804
-0.00184507
0.000939819
-0.00201774
0.00102014
-0.00218594
0.00109664
-0.00234715
-0.00250082
0.0011686
5.91424e-07
8.33869e-06
2.78636e-06
1.54306e-05
7.05105e-06
1.32057e-05
1.38718e-05
1.22941e-06
2.37576e-05
-2.09768e-05
3.72387e-05
-5.3934e-05
5.48612e-05
-9.8203e-05
7.71757e-05
-0.000154361
0.000104718
-0.000222961
0.000137985
-0.000304488
0.000177398
-0.000399287
0.000223263
-0.000507492
0.000275725
-0.000628948
0.000334725
-0.000763135
0.000399957
-0.000909109
0.000470844
-0.00106547
0.000546531
-0.00123036
0.000625906
-0.00140155
0.000707646
-0.0015765
0.000790296
-0.00175257
0.000872361
-0.00192713
0.000952411
-0.00209779
0.00102915
-0.00226269
0.00110165
-0.00241965
-0.00256852
0.00116935
6.55464e-07
7.68323e-06
3.05414e-06
1.30319e-05
7.67853e-06
8.58136e-06
1.50314e-05
-6.12341e-06
2.5637e-05
-3.15825e-05
4.00388e-05
-6.83358e-05
5.8791e-05
-0.000116955
8.24442e-05
-0.000178014
0.000111524
-0.000252041
0.000146499
-0.000339464
0.000187745
-0.000440533
0.0002355
-0.000555247
0.000289817
-0.000683266
0.000350522
-0.00082384
0.000417174
-0.000975762
0.000489057
-0.00113735
0.000565178
-0.00130648
0.000644306
-0.00148068
0.000725041
-0.00165724
0.000805899
-0.00183342
0.000885413
-0.00200665
0.000962251
-0.00217462
0.00103527
-0.00233571
0.00110373
-0.00248811
-0.00263203
0.00116724
7.23413e-07
6.95982e-06
3.3365e-06
1.04188e-05
8.33724e-06
3.58062e-06
1.62438e-05
-1.403e-05
2.75947e-05
-4.29334e-05
4.2944e-05
-8.36851e-05
6.28509e-05
-0.000136862
8.78619e-05
-0.000203025
0.000118485
-0.000282664
0.000155155
-0.000376134
0.000198193
-0.000483571
0.000247757
-0.000604812
0.000303801
-0.000739309
0.000366025
-0.000886064
0.000433856
-0.00104359
0.000506437
-0.00120993
0.000582647
-0.00138269
0.000661161
-0.00155919
0.000740522
-0.0017366
0.000819248
-0.00191215
0.000895935
-0.00208333
0.000969368
-0.00224806
0.00103858
-0.00240492
0.00110301
-0.00255254
-0.00269146
0.00116244
7.95321e-07
6.16449e-06
3.63348e-06
7.58064e-06
9.02704e-06
-1.81294e-06
1.75084e-05
-2.25114e-05
2.96286e-05
-5.50536e-05
4.59499e-05
-0.000100006
6.70329e-05
-0.000157945
9.34148e-05
-0.000229407
0.00012558
-0.000314829
0.00016392
-0.000414474
0.000208693
-0.000528344
0.00025997
-0.000656089
0.000317592
-0.000796931
0.000381134
-0.000949607
0.000449886
-0.00111234
0.000522857
-0.0012829
0.000598816
-0.00145865
0.000676359
-0.00163673
0.000754004
-0.00181424
0.000830297
-0.00198844
0.000903928
-0.00215696
0.000973821
-0.00231795
0.00103919
-0.00247028
0.00109965
-0.002613
-0.00274696
0.00115515
8.71212e-07
5.29328e-06
3.94505e-06
4.5068e-06
9.74755e-06
-7.61545e-06
1.8824e-05
-3.15879e-05
3.17359e-05
-6.79654e-05
4.90509e-05
-0.000117321
7.13269e-05
-0.000180221
9.90864e-05
-0.000257166
0.000132783
-0.000348525
0.000172758
-0.000454449
0.000219194
-0.000574781
0.000272069
-0.000708963
0.000331105
-0.000855968
0.000395748
-0.00101425
0.00046515
-0.00118175
0.0005382
-0.00135595
0.000613571
-0.00153402
0.000689807
-0.00171297
0.000765424
-0.00188986
0.000839031
-0.00206205
0.000909428
-0.00222736
0.000975695
-0.00238422
0.00103723
-0.00253181
0.00109383
-0.0026696
-0.00279872
0.00114558
9.51084e-07
4.3422e-06
4.27104e-06
1.18684e-06
1.04981e-05
-1.38425e-05
2.01889e-05
-4.12786e-05
3.39129e-05
-8.16894e-05
5.22402e-05
-0.000135649
7.57213e-05
-0.000203702
0.000104858
-0.000286303
0.000140066
-0.000383733
0.000181627
-0.00049601
0.000229643
-0.000622797
0.000283985
-0.000763305
0.000344256
-0.000916238
0.000409766
-0.00107976
0.000479542
-0.00125152
0.00055236
-0.00142877
0.000626819
-0.00160848
0.000701434
-0.00178758
0.00077475
-0.00196318
0.00084546
-0.00213276
0.000912495
-0.0022944
0.000975102
-0.00244682
0.00103286
-0.00258957
0.00108573
-0.00272247
-0.00284692
0.00113393
1.03491e-06
3.30729e-06
4.6112e-06
-2.38945e-06
1.12779e-05
-2.05092e-05
2.16009e-05
-5.16017e-05
3.61554e-05
-9.62439e-05
5.55099e-05
-0.000155003
8.02029e-05
-0.000228395
0.000110709
-0.000316809
0.000147398
-0.000420422
0.000190485
-0.000539097
0.000239981
-0.000672293
0.000295646
-0.00081897
0.000356956
-0.000977548
0.000423093
-0.0011459
0.000492961
-0.00132139
0.000565243
-0.00150105
0.000638482
-0.00168172
0.000711191
-0.00186029
0.000781971
-0.00203396
0.000849619
-0.00220041
0.000913214
-0.00235799
0.00097217
-0.00250578
0.00102624
-0.00264364
0.00107555
-0.00277178
-0.00289179
0.00112041
1.12262e-06
2.18467e-06
4.96513e-06
-6.23196e-06
1.20857e-05
-2.76298e-05
2.30574e-05
-6.25734e-05
3.8458e-05
-0.000111645
5.88508e-05
-0.000175396
8.47567e-05
-0.000254301
0.000116617
-0.000348669
0.000154748
-0.000458552
0.000199288
-0.000583638
0.000250151
-0.000723156
0.00030698
-0.000875799
0.000369124
-0.00103969
0.000435638
-0.00121241
0.000505317
-0.00139107
0.000576767
-0.0015725
0.0006485
-0.00175345
0.000719052
-0.00193085
0.000787101
-0.00210201
0.000851568
-0.00226487
0.000911687
-0.00241811
0.000967043
-0.00256114
0.00101755
-0.00269415
0.00106347
-0.0028177
-0.00293354
0.00110522
1.21415e-06
9.70527e-07
5.33236e-06
-1.03502e-05
1.292e-05
-3.52174e-05
2.45551e-05
-7.42085e-05
4.08149e-05
-0.000127904
6.22528e-05
-0.000196834
8.93666e-05
-0.000281415
0.000122557
-0.00038186
0.000162079
-0.000498074
0.000207988
-0.000629547
0.000260092
-0.00077526
0.000317914
-0.000933622
0.000380677
-0.00110245
0.000447315
-0.00127905
0.00051653
-0.00146029
0.000586867
-0.00164284
0.000656833
-0.00182342
0.00072501
-0.00199902
0.000790175
-0.00216717
0.000851384
-0.00232608
0.000908035
-0.00247476
0.000959874
-0.00261298
0.00100697
-0.00274124
0.00104969
-0.00286042
-0.00297239
0.00108854
1.30937e-06
-3.38843e-07
5.71228e-06
-1.47531e-05
1.37793e-05
-4.32844e-05
2.60906e-05
-8.65199e-05
4.32193e-05
-0.000145033
6.57045e-05
-0.000219319
9.40148e-05
-0.000309725
0.000128503
-0.000416349
0.000169356
-0.000538926
0.000216537
-0.000676728
0.000269745
-0.000828467
0.000328379
-0.000992256
0.000391539
-0.00116561
0.000458049
-0.00134556
0.000526531
-0.00152877
0.000595495
-0.0017118
0.00066346
-0.00189139
0.000729081
-0.00206464
0.000791247
-0.00222934
0.000849163
-0.002384
0.000902387
-0.00252798
0.000950821
-0.00266141
0.000994667
-0.00278509
0.00103439
-0.00290015
-0.00300855
0.00107055
1.40815e-06
-1.747e-06
6.10418e-06
-1.94491e-05
1.46615e-05
-5.18417e-05
2.76598e-05
-9.95181e-05
4.56639e-05
-0.000163037
6.91936e-05
-0.000242849
9.86823e-05
-0.000339214
0.000134428
-0.000452095
0.000176541
-0.000581039
0.000224887
-0.000725074
0.00027905
-0.00088263
0.000338307
-0.00105151
0.000401638
-0.00122895
0.000467772
-0.00141169
0.000535266
-0.00159626
0.000602615
-0.00177915
0.000668378
-0.00195715
0.000731296
-0.00212756
0.000790388
-0.00228843
0.000845013
-0.00243862
0.000894882
-0.00257785
0.000940043
-0.00270657
0.000980816
-0.00282586
0.00101774
-0.00293708
-0.00304223
0.00105142
1.51033e-06
-3.25733e-06
6.50723e-06
-2.4446e-05
1.55646e-05
-6.0899e-05
2.9258e-05
-0.000113212
4.81406e-05
-0.00018192
7.2707e-05
-0.000267415
0.000103349
-0.000369856
0.000140303
-0.000489049
0.000183595
-0.000624331
0.000232989
-0.000774467
0.000287949
-0.000937591
0.000347634
-0.0011112
0.000410911
-0.00129222
0.000476426
-0.00147721
0.000542691
-0.00166253
0.000608209
-0.00184467
0.000671598
-0.00202054
0.000731704
-0.00218767
0.000787684
-0.00234441
0.000839049
-0.00248999
0.000885662
-0.00262446
0.000927699
-0.00274861
0.000965579
-0.00286374
0.000999904
-0.0029714
-0.00307362
0.00103129
1.61572e-06
-4.87305e-06
6.92052e-06
-2.97508e-05
1.6486e-05
-7.04645e-05
3.08806e-05
-0.000127606
5.06406e-05
-0.00020168
7.62306e-05
-0.000293005
0.000107994
-0.00040162
0.000146099
-0.000527154
0.000190481
-0.000668712
0.000240795
-0.000824781
0.000296388
-0.000993184
0.0003563
-0.00117111
0.0004193
-0.00135522
0.000483963
-0.00154187
0.000548778
-0.00172734
0.000612276
-0.00190817
0.000673151
-0.00208141
0.000730368
-0.00224489
0.00078323
-0.00239727
0.000831396
-0.00253816
0.00087487
-0.00266794
0.000913942
-0.00278768
0.000949113
-0.00289891
0.000981022
-0.00300331
-0.0031029
0.0010103
1.72409e-06
-6.59714e-06
7.34301e-06
-3.53697e-05
1.74232e-05
-8.05447e-05
3.2522e-05
-0.000142705
5.31547e-05
-0.000222312
7.97497e-05
-0.0003196
0.000112596
-0.000434466
0.000151786
-0.000566343
0.000197158
-0.000714084
0.000248257
-0.00087588
0.000304313
-0.00104924
0.000364253
-0.00123105
0.000426757
-0.00141773
0.000490348
-0.00160546
0.000553512
-0.0017905
0.000614825
-0.00196948
0.000673078
-0.00213967
0.000727363
-0.00229917
0.000777129
-0.00244704
0.00082218
-0.00258321
0.000862648
-0.00270841
0.00089892
-0.00282395
0.000931561
-0.00293155
0.000961234
-0.00303299
-0.00313024
0.000988571
1.8352e-06
-8.43234e-06
7.77356e-06
-4.13081e-05
1.83732e-05
-9.11443e-05
3.41766e-05
-0.000158509
5.5673e-05
-0.000243809
8.32489e-05
-0.000347176
0.000117132
-0.000468349
0.000157332
-0.000606544
0.000203589
-0.000760341
0.000255332
-0.000927624
0.000311675
-0.00110558
0.000371443
-0.00129082
0.00043324
-0.00147952
0.000495555
-0.00166778
0.000556888
-0.00185184
0.000615882
-0.00202848
0.000671434
-0.00219522
0.000722773
-0.00235051
0.00076949
-0.00249375
0.000811529
-0.00262525
0.000849133
-0.00274601
0.000882772
-0.00285759
0.000913057
-0.00296184
0.000940661
-0.00306059
-0.00315578
0.000966205
1.94878e-06
-1.03811e-05
8.21093e-06
-4.75702e-05
1.93329e-05
-0.000102266
3.58384e-05
-0.000175014
5.81853e-05
-0.000266156
8.67122e-05
-0.000375703
0.00012158
-0.000503217
0.00016271
-0.000647674
0.000209736
-0.000807367
0.000261976
-0.000979863
0.00031843
-0.00116204
0.00037783
-0.00135022
0.000438719
-0.00154041
0.000499569
-0.00172863
0.000558916
-0.00191118
0.000615482
-0.00208504
0.000668284
-0.00224802
0.000716687
-0.00239891
0.000760426
-0.00253749
0.000799568
-0.00266439
0.000834457
-0.0027809
0.000865629
-0.00288876
0.000893723
-0.00298993
0.000919413
-0.00308628
-0.00317966
0.000943297
2.06452e-06
-1.24456e-05
8.65379e-06
-5.41595e-05
2.02992e-05
-0.000113912
3.7501e-05
-0.000192216
6.06808e-05
-0.000289335
9.01235e-05
-0.000405146
0.000125916
-0.000539009
0.000167887
-0.000689645
0.000215564
-0.000855044
0.000268149
-0.00103245
0.000324538
-0.00121843
0.00038338
-0.00140906
0.000443172
-0.00160021
0.000502388
-0.00178784
0.000559615
-0.00196841
0.000613672
-0.0021391
0.0006637
-0.00229805
0.000709203
-0.00244442
0.000750049
-0.00257834
0.000786421
-0.00270076
0.000818746
-0.00281322
0.00084761
-0.00291763
0.000873671
-0.00301599
0.000897587
-0.0031102
-0.00320201
0.00091993
2.18209e-06
-1.46277e-05
9.10071e-06
-6.10781e-05
2.12684e-05
-0.000126079
3.91578e-05
-0.000210105
6.31486e-05
-0.000313326
9.34662e-05
-0.000435463
0.000130118
-0.000575661
0.000172836
-0.000732363
0.000221038
-0.000903245
0.000273814
-0.00108522
0.000329964
-0.00127458
0.000388064
-0.00146716
0.000446584