/*--------------------------------*- C++ -*----------------------------------*\
  =========                 |
  \\      /  F ield         | OpenFOAM: The Open Source CFD Toolbox
   \\    /   O peration     | Website:  https://openfoam.org
    \\  /    A nd           | Version:  7
     \\/     M anipulation  |
\*---------------------------------------------------------------------------*/
FoamFile
{
    version     2.0;
    format      ascii;
    class       volVectorField;
    location    "60";
    object      U;
}
// * * * * * * * * * * * * * * * * * * * * * * * * * * * * * * * * * * * * * //

dimensions      [0 1 -1 0 0 0 0];

internalField   nonuniform List<vector> 
7156
(
(-0.000115336 -0.00255914 -2.20972e-21)
(-0.000917435 -0.00697188 -1.1025e-21)
(-0.00266568 -0.0108206 1.76912e-21)
(-0.00507229 -0.0141395 -1.41985e-21)
(-8.44237e-05 -0.00226695 4.82466e-21)
(-0.000842405 -0.00618183 2.14545e-21)
(-0.00256723 -0.00960956 -4.3871e-21)
(-0.00496519 -0.0125759 9.73969e-21)
(-6.26634e-05 -0.00196997 8.49125e-22)
(-0.000791267 -0.0053797 -1.52381e-22)
(-0.00250367 -0.00838114 -1.63149e-20)
(-0.00490086 -0.0109913 -1.17162e-20)
(-5.02355e-05 -0.0016689 1.06836e-20)
(-0.000764457 -0.00456733 -1.58088e-21)
(-0.00247557 -0.00713808 1.83235e-20)
(-0.00487996 -0.00938918 8.45135e-21)
(-4.72871e-05 -0.00136447 -1.77775e-20)
(-0.000762328 -0.0037466 -3.98073e-21)
(-0.00248343 -0.00588322 -6.54885e-21)
(-0.00490303 -0.00777302 1.99041e-20)
(-5.39306e-05 -0.00105741 7.89549e-23)
(-0.00078515 -0.00291942 2.0999e-20)
(-0.00252759 -0.00461937 -4.27023e-22)
(-0.00497046 -0.00614646 1.46878e-20)
(-7.02442e-05 -0.000748427 2.38497e-20)
(-0.000833106 -0.00208769 2.23213e-20)
(-0.00260831 -0.00334941 -1.5984e-20)
(-0.00508252 -0.00451313 1.1108e-20)
(-9.62713e-05 -0.000438265 -1.70706e-20)
(-0.000906292 -0.00125333 -1.60008e-20)
(-0.00272569 -0.00207619 2.3691e-20)
(-0.00523932 -0.00287663 -3.73735e-20)
(-0.000132021 -0.000127642 -1.74524e-20)
(-0.00100472 -0.000418239 -3.82689e-20)
(-0.00287975 -0.00080255 -5.43097e-21)
(-0.00544082 -0.00124057 -5.49389e-20)
(-0.00017747 0.000182727 3.88246e-20)
(-0.00112831 0.000415703 1.0878e-20)
(-0.00307034 0.000468689 -5.71808e-21)
(-0.00568684 0.000391477 8.93508e-20)
(-0.00023256 0.000492139 1.25242e-20)
(-0.00127691 0.00124664 -2.83743e-20)
(-0.00329723 0.00173474 -1.10205e-20)
(-0.00597704 0.00201599 -9.654e-21)
(-0.000297204 0.000799906 2.72168e-21)
(-0.00145028 0.00207274 6.96324e-20)
(-0.00356004 0.00299287 -2.84329e-20)
(-0.00631092 0.0036295 -1.99971e-20)
(-0.000371281 0.00110536 1.17214e-20)
(-0.00164808 0.00289223 -5.04793e-20)
(-0.00385828 0.00424038 -5.74444e-21)
(-0.00668783 0.00522858 1.45188e-20)
(-0.000454642 0.00140784 -1.01183e-20)
(-0.00186991 0.00370335 6.44715e-20)
(-0.00419132 0.00547465 -3.48853e-20)
(-0.00710696 0.00680989 -1.97261e-20)
(-0.0105041 0.00775206 -2.99248e-20)
(-0.000547109 0.00170671 -5.81286e-20)
(-0.00211528 0.00450441 -4.25189e-20)
(-0.00455841 0.00669311 7.95979e-20)
(-0.00756731 0.00837018 6.93673e-20)
(-0.0110304 0.00958507 1.65256e-20)
(-0.000648474 0.00200137 5.07391e-20)
(-0.00238363 0.00529377 3.42013e-21)
(-0.00495867 0.00789327 -6.11986e-20)
(-0.00806771 0.00990624 1.00526e-20)
(-0.0116006 0.0113886 4.24415e-20)
(-0.000758503 0.00229121 -1.20679e-20)
(-0.00267431 0.00606981 8.67189e-21)
(-0.00539109 0.00907268 2.83031e-20)
(-0.00860682 0.011415 -4.4705e-20)
(-0.012213 0.0131589 -4.641e-20)
(-0.000876935 0.00257567 -9.52907e-20)
(-0.00298658 0.00683098 2.27197e-20)
(-0.00585454 0.010229 -4.19556e-20)
(-0.00918313 0.0128934 1.27437e-19)
(-0.0128657 0.0148925 3.67883e-20)
(-0.00100348 0.00285418 5.9611e-20)
(-0.00331966 0.00757577 -1.73657e-20)
(-0.00634776 0.0113599 5.25793e-20)
(-0.00979494 0.0143385 9.51901e-20)
(-0.0135567 0.016586 3.91355e-20)
(-0.00113784 0.00312622 8.96e-20)
(-0.00367267 0.00830271 -4.12288e-20)
(-0.00686935 0.0124631 4.70179e-20)
(-0.0104404 0.0157474 -6.71857e-20)
(-0.0142835 0.0182359 4.8111e-21)
(-0.00127966 0.00339127 -6.4247e-20)
(-0.00404465 0.0090104 -2.84853e-21)
(-0.00741781 0.0135365 1.516e-20)
(-0.0111174 0.0171173 -1.6667e-19)
(-0.0150437 0.0198391 5.40691e-20)
(-0.0191012 0.0217855 6.48151e-20)
(-0.0014286 0.00364882 -1.46763e-20)
(-0.00443458 0.00969745 7.10958e-20)
(-0.00799146 0.014578 -1.10922e-19)
(-0.0118236 0.0184456 -1.05521e-20)
(-0.0158342 0.0213923 -3.89442e-20)
(-0.0199304 0.0235074 9.07289e-20)
(-0.00158425 0.0038984 -1.01493e-19)
(-0.00484134 0.0103625 -1.47705e-19)
(-0.00858852 0.0155855 1.37549e-19)
(-0.0125567 0.0197296 -3.66893e-20)
(-0.016652 0.0228924 5.93991e-20)
(-0.0207844 0.025169 -1.70599e-19)
(-0.00174621 0.00413954 4.52123e-20)
(-0.00526376 0.0110043 2.17485e-19)
(-0.00920707 0.0165571 -2.71875e-20)
(-0.013314 0.0209667 7.56847e-20)
(-0.0174936 0.0243364 -4.24355e-20)
(-0.0216591 0.0267667 6.49668e-20)
(-0.00191405 0.00437179 -1.1898e-19)
(-0.00570056 0.0116216 -2.9686e-21)
(-0.00984503 0.0174906 -1.93448e-19)
(-0.0140926 0.0221544 3.67716e-20)
(-0.0183553 0.0257213 -1.88091e-20)
(-0.0225499 0.0282974 4.93782e-20)
(-0.0265946 0.0299856 -1.67254e-19)
(-0.0020873 0.0045947 -1.05733e-20)
(-0.00615041 0.0122132 -9.43232e-20)
(-0.0105002 0.0183844 1.26535e-19)
(-0.0148893 0.0232902 6.51795e-20)
(-0.0192333 0.0270442 -1.42045e-19)
(-0.0234518 0.0297577 -2.3547e-20)
(-0.0274669 0.0315388 1.75562e-19)
(-0.00226548 0.00480785 1.54723e-19)
(-0.00661188 0.0127778 1.52221e-19)
(-0.0111702 0.0192365 1.15993e-20)
(-0.015701 0.0243717 -1.48051e-19)
(-0.0201231 0.0283022 4.94104e-20)
(-0.0243597 0.0311445 -7.08019e-20)
(-0.0283361 0.0330117 -1.14737e-19)
(-0.00244807 0.00501084 9.69758e-20)
(-0.00708349 0.0133143 -1.03554e-19)
(-0.0118526 0.0200451 -4.15051e-20)
(-0.0165241 0.0253966 -4.54285e-22)
(-0.0210202 0.0294925 -9.9932e-20)
(-0.0252677 0.0324546 9.49462e-20)
(-0.0291953 0.0344009 -2.43672e-20)
(-0.00263453 0.00520326 -9.85908e-20)
(-0.00756364 0.0138216 -1.68865e-20)
(-0.0125448 0.0208085 7.63294e-20)
(-0.017355 0.0263624 9.89208e-20)
(-0.0219199 0.0306124 2.50666e-19)
(-0.0261699 0.0336849 -1.11631e-19)
(-0.0300371 0.035703 3.66416e-20)
(-0.0334625 0.0367815 -1.31742e-19)
(-0.00282432 0.00538473 -4.45927e-20)
(-0.00805069 0.0142986 -2.15281e-20)
(-0.013244 0.0215249 -2.25283e-19)
(-0.0181897 0.0272671 1.92194e-20)
(-0.022817 0.0316591 5.47047e-20)
(-0.0270596 0.0348324 -4.65436e-20)
(-0.0308536 0.0369147 1.20351e-19)
(-0.0341429 0.0380255 1.10886e-19)
(-0.00301684 0.00555489 -1.33256e-21)
(-0.00854291 0.0147442 1.53625e-19)
(-0.0139473 0.0221927 1.63983e-19)
(-0.0190241 0.0281083 -2.28897e-19)
(-0.023706 0.0326299 -1.34424e-19)
(-0.0279302 0.035894 1.38226e-21)
(-0.0316364 0.0380329 -5.79834e-20)
(-0.0347716 0.0391704 -5.39775e-20)
(-0.0032115 0.00571339 -2.26788e-21)
(-0.00903849 0.0151575 -3.57393e-20)
(-0.0146516 0.0228102 -1.30236e-20)
(-0.0198539 0.028884 -2.45493e-20)
(-0.0245812 0.0335224 2.93485e-20)
(-0.0287744 0.0368667 -2.31524e-20)
(-0.0323765 0.0390541 -8.66407e-21)
(-0.0353377 0.0402129 9.11949e-20)
(-0.00340766 0.00585992 9.75451e-20)
(-0.00953557 0.0155375 -1.01257e-19)
(-0.0153539 0.0233761 -1.0958e-19)
(-0.0206746 0.029592 1.16152e-19)
(-0.0254367 0.0343338 7.00726e-20)
(-0.0295846 0.0377476 8.19879e-21)
(-0.0330645 0.0399753 -4.17267e-20)
(-0.0358298 0.0411494 1.08271e-19)
(-0.0378381 0.0413931 -2.74652e-19)
(-0.00360468 0.00599416 1.82117e-20)
(-0.0100322 0.0158833 1.15685e-19)
(-0.0160509 0.0238887 -8.7987e-21)
(-0.0214815 0.0302304 6.81608e-21)
(-0.0262662 0.0350618 -1.37878e-20)
(-0.0303526 0.0385339 -3.51115e-21)
(-0.0336904 0.0407933 2.40982e-20)
(-0.0362358 0.0419768 -1.70332e-19)
(-0.0379486 0.0422117 1.85427e-19)
(-0.0038019 0.00611585 -6.56529e-20)
(-0.0105264 0.016194 7.54983e-20)
(-0.0167391 0.0243467 1.03413e-20)
(-0.0222695 0.0307973 3.63767e-20)
(-0.0270631 0.035704 -3.09675e-20)
(-0.0310703 0.0392228 6.62438e-20)
(-0.034244 0.0415049 -1.1849e-19)
(-0.036543 0.0426918 -1.4029e-20)
(-0.0379294 0.0429145 -8.57658e-20)
(-0.00399864 0.00622473 -1.90778e-20)
(-0.011016 0.016469 4.46337e-20)
(-0.0174149 0.0247488 1.29348e-19)
(-0.0230337 0.0312908 -8.82689e-20)
(-0.0278205 0.0362581 9.35825e-20)
(-0.0317287 0.0398116 -3.21174e-20)
(-0.0347142 0.0421073 -4.74423e-20)
(-0.0367381 0.043291 8.92848e-20)
(-0.0377644 0.0434981 3.5559e-20)
(-0.0377582 0.0428524 5.62995e-20)
(-0.00419421 0.0063206 -2.03569e-20)
(-0.011499 0.0167074 -4.80586e-20)
(-0.0180748 0.0250939 -1.15767e-19)
(-0.0237687 0.0317093 1.54256e-19)
(-0.0285312 0.036722 -8.54482e-20)
(-0.0323187 0.0402978 -5.32863e-20)
(-0.0350895 0.0425975 -4.56975e-20)
(-0.036807 0.0437715 2.08821e-19)
(-0.0374368 0.0439593 9.78707e-20)
(-0.0369446 0.0432887 -1.81363e-19)
(-0.00438792 0.00640327 -4.20817e-20)
(-0.0119732 0.0169088 1.35042e-20)
(-0.018715 0.0253807 -8.16004e-20)
(-0.0244689 0.0320513 -2.01081e-19)
(-0.0291878 0.0370938 -2.8028e-20)
(-0.0328306 0.0406791 1.95584e-19)
(-0.035358 0.042973 -1.64829e-19)
(-0.0367353 0.0441305 8.93215e-20)
(-0.036929 0.0442953 -5.68865e-20)
(-0.0359054 0.0435992 1.63756e-20)
(-0.00457905 0.0064726 -5.66778e-20)
(-0.0124363 0.0170724 2.72845e-20)
(-0.0193315 0.0256085 1.53634e-19)
(-0.0251286 0.0323153 1.08754e-19)
(-0.0297826 0.0373716 -5.20381e-20)
(-0.0332545 0.0409534 -5.81857e-20)
(-0.0355072 0.0432313 2.54946e-19)
(-0.0365074 0.0443652 -2.17248e-19)
(-0.0362225 0.0445033 8.48516e-20)
(-0.0346185 0.0437813 -2.75799e-20)
(-0.0316586 0.0423223 2.98808e-19)
(-0.00476688 0.00652846 2.64288e-20)
(-0.012886 0.017198 -6.71473e-20)
(-0.0199202 0.0257762 -6.23405e-20)
(-0.0257417 0.0325002 7.6312e-20)
(-0.0303072 0.0375538 -8.43545e-20)
(-0.0335797 0.0411186 -1.52506e-20)
(-0.0355238 0.0433703 -2.81661e-19)
(-0.0361074 0.0444734 3.20379e-19)
(-0.035298 0.0445808 -1.44269e-19)
(-0.0330613 0.0438325 1.09796e-19)
(-0.0293586 0.0423555 3.74007e-20)
(-0.00495069 0.00657078 -1.41426e-19)
(-0.0133199 0.017285 3.07848e-19)
(-0.020477 0.0258833 6.86768e-20)
(-0.0263021 0.0326048 -7.10967e-20)
(-0.0307534 0.0376392 1.61586e-21)
(-0.0337954 0.0411734 1.16183e-19)
(-0.0353943 0.0433882 2.03091e-19)
(-0.0355184 0.0444533 -4.83731e-20)
(-0.0341355 0.0445261 -9.32523e-20)
(-0.0312097 0.043751 -2.4338e-19)
(-0.0267006 0.0422594 -2.7002e-19)
(-0.0205612 0.0401696 5.94284e-21)
(-0.00512973 0.00659951 8.7118e-20)
(-0.0137357 0.0173333 -1.82601e-19)
(-0.0209976 0.0259291 -5.84274e-20)
(-0.0268033 0.0326285 9.95198e-20)
(-0.0311121 0.0376267 6.63982e-20)
(-0.03389 0.0411164 -2.75334e-19)
(-0.0351041 0.0432838 5.76939e-20)
(-0.0347231 0.0443035 -2.80019e-19)
(-0.0327139 0.0443378 3.82188e-20)
(-0.0290392 0.0435358 2.90962e-19)
(-0.0236555 0.042033 1.87452e-19)
(-0.0165124 0.0399525 -5.88849e-20)
(-0.00530325 0.00661464 -4.15476e-20)
(-0.0141307 0.0173426 -1.44842e-19)
(-0.0214774 0.0259134 1.06408e-19)
(-0.0272384 0.0325705 -2.15329e-19)
(-0.0313741 0.0375155 2.16384e-20)
(-0.0338514 0.0409468 3.72613e-19)
(-0.0346382 0.0430561 1.01604e-19)
(-0.0337029 0.0440232 -5.24346e-20)
(-0.0310113 0.0440153 -2.65492e-19)
(-0.0265237 0.0431863 -2.96618e-19)
(-0.0201933 0.0416764 3.64039e-21)
(-0.0119654 0.0396132 7.51051e-21)
(-0.00177726 0.0371125 -8.16123e-20)
(-0.00547049 0.00661617 7.23022e-20)
(-0.0145024 0.0173128 7.85955e-20)
(-0.0219116 0.0258357 -1.21666e-19)
(-0.0276003 0.0324305 2.09114e-19)
(-0.0315297 0.0373051 -4.71907e-20)
(-0.033667 0.0406642 -3.01443e-19)
(-0.0339808 0.0427049 -2.95599e-19)
(-0.0324387 0.0436124 -7.30015e-20)
(-0.0290048 0.0435589 3.68553e-19)
(-0.0236364 0.0427033 -9.74739e-20)
(-0.016283 0.0411906 2.77045e-20)
(-0.00688482 0.0391534 -6.50885e-20)
(0.00462637 0.0367127 3.46118e-19)
(-0.00563068 0.00660415 1.39461e-19)
(-0.0148481 0.017244 1.13565e-19)
(-0.0222954 0.025696 1.7363e-19)
(-0.0278817 0.0322083 -1.23341e-19)
(-0.0315685 0.0369956 1.53229e-19)
(-0.0333236 0.0402687 4.30492e-21)
(-0.0331152 0.0422305 1.98963e-19)
(-0.0309102 0.0430717 2.46641e-19)
(-0.0266702 0.0429698 -2.25855e-20)
(-0.0203493 0.0420885 1.53472e-19)
(-0.0118922 0.0405781 -2.0428e-20)
(-0.00123389 0.0385763 1.24732e-19)
(0.0116998 0.0362094 -8.03319e-20)
(-0.00578299 0.00657863 5.10435e-20)
(-0.0151651 0.0171361 -1.51027e-19)
(-0.0226236 0.0254945 -1.85754e-19)
(-0.0280747 0.0319042 6.75306e-20)
(-0.0314799 0.0365872 5.44445e-20)
(-0.0328071 0.0397609 -1.27396e-19)
(-0.0320242 0.041634 1.94167e-19)
(-0.0290964 0.0424029 4.9227e-20)
(-0.0239826 0.0422503 -1.50904e-19)
(-0.0166331 0.0413451 1.7384e-20)
(-0.00698749 0.0398429 4.67286e-21)
(0.00502502 0.0378867 -2.16189e-19)
(0.0194849 0.0356087 -1.0393e-19)
(0.0364796 0.0331321 4.43904e-20)
(-0.00592659 0.00653968 -2.02237e-19)
(-0.0154502 0.0169892 -6.34112e-20)
(-0.0228907 0.0252312 3.62939e-20)
(-0.028171 0.0315185 -1.4816e-19)
(-0.0312525 0.0360806 -1.7458e-19)
(-0.0321029 0.0391419 2.59176e-19)
(-0.0306893 0.0409171 -1.44064e-19)
(-0.026975 0.0416083 -1.55233e-19)
(-0.0209158 0.0414038 8.9387e-20)
(-0.0124575 0.0404776 1.50281e-19)
(-0.00153432 0.0389908 -1.07826e-19)
(0.0119306 0.0370917 3.59443e-19)
(0.028024 0.0349187 -1.65521e-19)
(0.046839 0.0326013 -2.06828e-19)
(-0.0060606 0.00648737 -2.71177e-20)
(-0.0157005 0.0168036 5.92949e-20)
(-0.0230911 0.0249065 1.40865e-19)
(-0.028162 0.0310519 1.15064e-19)
(-0.0308743 0.0354771 1.5171e-19)
(-0.0311954 0.0384136 -3.06702e-19)
(-0.0290913 0.0400825 -1.68772e-19)
(-0.0245229 0.0406917 6.4937e-20)
(-0.0174424 0.0404351 9.46041e-20)
(-0.00779092 0.0394922 -7.56016e-20)
(0.00450298 0.0380293 -1.44905e-19)
(0.0195223 0.0362006 -1.83465e-19)
(0.0373599 0.0341502 2.43754e-19)
(0.0581141 0.0320144 2.00394e-19)
(0.081883 0.0299242 2.73073e-19)
(-0.00618407 0.00642179 1.26431e-19)
(-0.0159126 0.0165793 9.52414e-20)
(-0.0232186 0.024521 -8.05503e-20)
(-0.0280384 0.0305053 -1.38824e-19)
(-0.0303328 0.0347781 -1.89423e-21)
(-0.0300685 0.0375783 1.09525e-19)
(-0.0272101 0.0391335 2.224e-20)
(-0.0217158 0.0396577 2.58632e-20)
(-0.0135341 0.0393503 -2.29578e-19)
(-0.00260082 0.0383965 -2.04506e-19)
(0.011161 0.036968 1.43856e-19)
(0.0278405 0.0352247 8.9879e-20)
(0.0475357 0.0333167 -7.32464e-20)
(0.0703493 0.0313865 -1.98095e-19)
(0.0963811 0.0295723 -3.17985e-20)
(-0.00629602 0.00634301 -2.12327e-19)
(-0.0160831 0.0163168 -1.14433e-19)
(-0.0232669 0.0240754 1.20754e-19)
(-0.0277907 0.0298801 1.89556e-21)
(-0.0296148 0.0339858 3.42452e-20)
(-0.0287051 0.0366392 -5.68671e-20)
(-0.0250245 0.0380746 2.55503e-19)
(-0.0185285 0.0385121 -1.34671e-20)
(-0.00916126 0.0381571 9.77335e-21)
(0.00314647 0.0372001 -9.51263e-21)
(0.0184773 0.0358187 1.72454e-19)
(0.0369257 0.0341782 -2.00039e-19)
(0.0585943 0.0324345 -4.25693e-20)
(0.0835881 0.0307364 7.47067e-20)
(0.112006 0.0292281 2.99142e-19)
(0.143932 0.0280528 6.33579e-20)
(-0.0063954 0.00625113 4.75006e-20)
(-0.0162082 0.0160164 1.88381e-19)
(-0.0232292 0.0235703 -4.19039e-20)
(-0.0274086 0.0291777 -8.96228e-20)
(-0.0287062 0.0331027 -4.24178e-20)
(-0.0270872 0.0356 2.03432e-19)
(-0.0225126 0.0369109 -1.49994e-19)
(-0.0149347 0.037262 -2.69565e-19)
(-0.00429344 0.0368643 1.8626e-19)
(0.00948547 0.0359144 2.92856e-19)
(0.0264898 0.0345951 -8.45472e-20)
(0.0468187 0.0330774 8.41881e-20)
(0.0705777 0.031523 1.21027e-19)
(0.097872 0.0300859 -1.87443e-19)
(0.128797 0.0289158 -2.02202e-19)
(0.163426 0.0281609 1.53595e-19)
(0.201796 0.0279719 -1.02012e-19)
(-0.00648104 0.0061462 -1.6055e-19)
(-0.0162841 0.0156782 -2.83909e-20)
(-0.0230982 0.0230069 5.90284e-20)
(-0.0268812 0.0284 1.79827e-20)
(-0.0275925 0.0321317 2.29562e-19)
(-0.0251961 0.0344651 -1.23953e-19)
(-0.0196514 0.0356487 7.20171e-20)
(-0.0109072 0.0359155 2.0326e-19)
(0.00110076 0.0354826 -3.38632e-19)
(0.0164514 0.0345524 -3.93116e-20)
(0.0352371 0.0333131 1.24573e-19)
(0.0575602 0.0319414 -7.64754e-20)
(0.0835271 0.030604 1.28525e-20)
(0.11324 0.0294599 6.90629e-20)
(0.146786 0.0286629 1.04223e-19)
(0.184224 0.0283643 -9.99531e-20)
(0.225569 0.0287159 2.84489e-19)
(-0.00655168 0.00602824 2.05879e-20)
(-0.0163064 0.0153028 -3.22271e-21)
(-0.0228663 0.022386 2.21632e-20)
(-0.0261971 0.0275491 -3.51183e-20)
(-0.0262581 0.0310763 8.17111e-20)
(-0.0230123 0.0332397 -4.0735e-21)
(-0.0164169 0.0342951 -2.44882e-19)
(-0.00641782 0.0344821 5.68732e-20)
(0.00705345 0.034024 -1.25045e-19)
(0.02408 0.0331289 6.71015e-20)
(0.0447575 0.0319908 -1.18418e-19)
(0.0691899 0.0307914 -4.68108e-20)
(0.0974815 0.0297023 -1.66011e-19)
(0.129728 0.0288864 -2.37298e-19)
(0.166002 0.0285005 -5.45061e-20)
(0.206342 0.0286964 -2.45206e-19)
(0.250732 0.0296237 1.98979e-20)
(0.299087 0.0314328 -3.28992e-19)
(-0.00660595 0.00589729 1.34653e-19)
(-0.0162706 0.0148905 -1.71087e-19)
(-0.0225253 0.0217091 1.30332e-19)
(-0.0253444 0.0266273 -6.76614e-20)
(-0.024687 0.0299406 1.81612e-20)
(-0.0205153 0.0319298 -2.56012e-19)
(-0.0127846 0.0328582 3.46439e-19)
(-0.00143781 0.0329724 2.48857e-19)
(0.0135973 0.032502 1.2746e-19)
(0.032407 0.0316608 -2.06099e-19)
(0.055089 0.0306482 2.34547e-19)
(0.0817462 0.0296511 -1.62211e-19)
(0.112478 0.028845 2.58388e-19)
(0.147367 0.0283961 9.68189e-20)
(0.186467 0.0284622 5.20757e-21)
(0.229786 0.0291935 3.98713e-19)
(0.277267 0.0307335 -2.56526e-19)
(0.328773 0.0332204 5.02424e-19)
(-0.00664236 0.00575338 5.03182e-21)
(-0.0161717 0.0144417 4.69488e-20)
(-0.0220665 0.0209774 -1.47253e-19)
(-0.0243103 0.0256376 1.66792e-19)
(-0.0228623 0.028729 -9.21114e-20)
(-0.017684 0.0305418 1.83673e-19)
(-0.0087292 0.0313471 -1.94701e-19)
(0.0040622 0.0313983 -3.77288e-19)
(0.0207651 0.0309315 1.47926e-19)
(0.0414681 0.0301663 -2.69404e-20)
(0.0662686 0.0293073 -1.95398e-20)
(0.0952655 0.0285459 3.02094e-19)
(0.128548 0.0280614 -2.0226e-20)
(0.166183 0.0280216 3.88599e-20)
(0.208195 0.0285838 8.93703e-21)
(0.254553 0.0298938 -9.31241e-20)
(0.305147 0.0320856 5.93853e-20)
(0.359775 0.0352803 -1.64877e-20)
(0.418128 0.0395839 -4.31297e-21)
(-0.00665929 0.0055965 1.2961e-21)
(-0.0160047 0.0139569 9.28741e-20)
(-0.021481 0.0201925 -4.50679e-20)
(-0.0230816 0.0245829 -2.57151e-19)
(-0.0207665 0.0274465 2.08804e-20)
(-0.0144968 0.0290831 -3.34058e-20)
(-0.00422468 0.0297717 7.95369e-20)
(0.0101119 0.0297728 2.86488e-19)
(0.0285899 0.0293289 -3.94412e-20)
(0.0512983 0.0286652 1.84564e-19)
(0.0783317 0.0279916 -2.8968e-19)
(0.109782 0.0275033 -7.69489e-20)
(0.145722 0.0273824 9.96207e-20)
(0.186195 0.0277972 -3.48386e-20)
(0.23119 0.0289022 -1.22e-19)
(0.280626 0.0308363 1.58757e-19)
(0.334328 0.0337203 -9.55555e-20)
(0.392013 0.0376538 -2.0105e-19)
(0.453279 0.0427104 1.13836e-19)
(0.517605 0.0489339 -3.68955e-19)
(-0.00665498 0.00542665 -1.04274e-19)
(-0.015764 0.0134366 -9.4892e-20)
(-0.0207589 0.0193561 1.39252e-19)
(-0.0216445 0.0234666 6.44169e-20)
(-0.0183816 0.0260986 1.05863e-19)
(-0.0109312 0.0275618 3.67627e-19)
(0.000755262 0.0281431 -3.30068e-19)
(0.0167413 0.0281102 -2.3154e-19)
(0.0371042 0.0277118 -4.35618e-23)
(0.0619314 0.027179 2.55207e-20)
(0.0913118 0.0267262 1.92249e-19)
(0.125324 0.0265522 -2.04232e-19)
(0.164023 0.0268404 2.25657e-20)
(0.207416 0.0277582 -1.99211e-19)
(0.255448 0.029455 -2.07356e-20)
(0.307977 0.0320596 -2.47534e-20)
(0.364751 0.0356764 1.07214e-20)
(0.425393 0.0403795 2.23581e-19)
(0.489392 0.0462066 9.92527e-20)
(0.556106 0.0531525 2.40989e-20)
(-0.00662752 0.00524385 -4.24787e-20)
(-0.0154435 0.0128815 8.20101e-20)
(-0.0198903 0.0184701 -1.01647e-19)
(-0.0199846 0.0222926 5.60125e-20)
(-0.0156888 0.0246915 -2.21302e-19)
(-0.00696444 0.0259866 -2.54861e-19)
(0.0062372 0.026473 9.23265e-20)
(0.0239799 0.0264255 2.98087e-19)
(0.0463398 0.0260992 -3.26269e-19)
(0.0733999 0.0257303 7.94764e-20)
(0.105239 0.0255376 9.42163e-20)
(0.14192 0.0257225 1.54799e-19)
(0.183467 0.0264685 1.25518e-19)
(0.229848 0.02794 7.84223e-20)
(0.280953 0.030279 -1.78321e-19)
(0.336564 0.0336011 2.26904e-19)
(0.396342 0.0379901 3.62523e-20)
(0.459802 0.0434914 -1.44686e-19)
(0.526313 0.0501037 -4.80074e-19)
(0.595106 0.0577728 1.12682e-19)
(0.665266 0.0663456 -3.03604e-19)
(-0.00657483 0.00504808 5.58143e-20)
(-0.0150371 0.0122923 5.88098e-20)
(-0.0188645 0.0175367 3.48313e-20)
(-0.0180869 0.0210649 -9.83181e-20)
(-0.012669 0.0232318 8.39698e-20)
(-0.00257342 0.0243672 1.32482e-19)
(0.0122477 0.0247744 9.70647e-20)
(0.031857 0.0247352 -1.7746e-19)
(0.0563273 0.024511 4.79279e-19)
(0.0857339 0.024343 2.02344e-20)
(0.120142 0.0244534 -1.24879e-19)
(0.159588 0.0250451 -2.81919e-20)
(0.204064 0.0263003 5.80009e-20)
(0.253486 0.0283781 9.13477e-20)
(0.307675 0.0314101 -1.36213e-19)
(0.366331 0.0354952 -1.10789e-19)
(0.42901 0.0406932 -8.76254e-20)
(0.495111 0.0470169 -2.26258e-19)
(0.563876 0.0544239 2.10179e-19)
(0.634401 0.062811 -3.37727e-20)
(0.705641 0.07197 4.41382e-19)
(0.7766 0.0817784 1.88142e-19)
(-0.00649472 0.00483939 -1.23292e-19)
(-0.0145381 0.0116697 2.10298e-19)
(-0.0176705 0.0165583 -2.35786e-19)
(-0.0159361 0.0197881 2.4466e-19)
(-0.00930265 0.0217266 -1.44824e-19)
(0.00226517 0.0227138 -3.07256e-21)
(0.0188133 0.0230608 9.60591e-20)
(0.0404012 0.0230567 1.44745e-19)
(0.0670958 0.0229684 -2.24141e-19)
(0.0989607 0.0230419 -2.6093e-20)
(0.136041 0.0235018 2.64675e-19)
(0.178344 0.0245514 -2.58374e-20)
(0.225815 0.0263693 1.42034e-19)
(0.27831 0.0291068 -2.09648e-19)
(0.335573 0.0328819 -8.69747e-20)
(0.397204 0.0377732 1.73659e-19)
(0.462647 0.0438124 -6.24942e-20)
(0.531175 0.0509764 -2.9457e-20)
(0.601896 0.0591795 -1.08029e-19)
(0.673776 0.0682703 -6.27698e-20)
(0.745652 0.0779913 1.65443e-19)
(0.816411 0.0881713 -2.16917e-19)
(0.884431 0.0976876 -1.33029e-19)
(-0.00638479 0.00461782 -1.17178e-19)
(-0.0139395 0.0110147 6.21114e-20)
(-0.0162967 0.0155376 1.454e-19)
(-0.0135163 0.0184673 8.52283e-20)
(-0.00556996 0.0201838 -9.78138e-20)
(0.00757461 0.0210374 -2.58641e-19)
(0.0259598 0.0213468 -1.54592e-20)
(0.0496398 0.0214081 -1.97445e-19)
(0.0786723 0.0214935 5.57163e-20)
(0.113105 0.0218527 -9.92898e-20)
(0.152956 0.0227119 -2.68811e-21)
(0.198195 0.0242727 -8.89373e-20)
(0.248713 0.0267083 -1.48776e-19)
(0.304294 0.0301589 -4.90649e-20)
(0.36459 0.0347254 1.41547e-19)
(0.429095 0.040462 -3.55487e-21)
(0.497129 0.0473683 9.60186e-20)
(0.567832 0.0553822 9.82678e-20)
(0.64018 0.0643729 3.17203e-19)
(0.713013 0.0741419 -2.50431e-19)
(0.785067 0.0843878 -4.30454e-19)
(0.855143 0.0948968 4.19631e-19)
(0.921645 0.104593 -1.04705e-20)
(-0.00624254 0.00438349 1.98845e-20)
(-0.013234 0.0103284 -2.07427e-20)
(-0.0147314 0.0144775 -6.48466e-20)
(-0.0108115 0.0171079 -3.39381e-19)
(-0.001451 0.0186119 1.33338e-19)
(0.013378 0.0193497 1.52695e-19)
(0.0337125 0.019648 -4.18977e-20)
(0.0595988 0.0198087 -7.70166e-20)
(0.0910811 0.0201092 -3.41492e-19)
(0.128185 0.0208018 2.8496e-20)
(0.170898 0.0221129 -2.28829e-20)
(0.21914 0.0242404 -2.23489e-19)
(0.272738 0.0273491 -2.33559e-20)
(0.331394 0.0315651 6.55597e-20)
(0.394657 0.0369681 1.37867e-19)
(0.461902 0.0435835 1.84801e-20)
(0.532317 0.0513751 -2.07963e-19)
(0.604909 0.0602384 4.17389e-20)
(0.678522 0.0699968 2.8114e-22)
(0.751887 0.0804059 -1.90621e-19)
(0.823658 0.0911261 1.90369e-19)
(0.892585 0.101907 -1.5621e-19)
(0.957133 0.111734 1.87677e-19)
(1.01743 0.122695 -2.63144e-19)
(-0.00606529 0.00413655 -1.16934e-20)
(-0.012414 0.00961221 6.78223e-20)
(-0.0129623 0.0133815 9.6131e-20)
(-0.00780534 0.0157158 2.23496e-19)
(0.00307414 0.0170199 -1.45242e-19)
(0.019698 0.0176635 -1.52489e-20)
(0.0420956 0.0179804 -2.50022e-19)
(0.070302 0.0182784 3.23271e-19)
(0.104344 0.018839 2.65111e-19)
(0.144219 0.0199159 -1.19316e-19)
(0.189874 0.0217339 -2.15422e-19)
(0.241172 0.0244848 7.58609e-20)
(0.297864 0.0283221 -4.51279e-20)
(0.359558 0.0333535 -2.34846e-19)
(0.42569 0.0396334 1.83253e-19)
(0.495506 0.0471543 -1.9246e-19)
(0.568058 0.05584 -2.06708e-20)
(0.642219 0.0655412 -1.62934e-20)
(0.716713 0.0760348 -8.86219e-20)
(0.790176 0.087033 5.50849e-19)
(0.86121 0.0981637 -2.20102e-19)
(0.928545 0.109147 -1.1693e-19)
(0.990745 0.119038 -1.00055e-19)
(1.04783 0.12966 2.25078e-19)
(1.09409 0.132975 -1.36134e-19)
(-0.00585024 0.00387724 1.84718e-20)
(-0.0114717 0.00886767 -9.89342e-20)
(-0.010977 0.0122532 -4.63083e-20)
(-0.00448131 0.0142977 -1.89535e-19)
(0.00802525 0.0154177 1.5295e-19)
(0.0265566 0.0159921 2.63987e-20)
(0.051132 0.0163612 -5.16019e-21)
(0.0817714 0.0168382 -1.50418e-19)
(0.118478 0.0177072 -1.33774e-19)
(0.161216 0.0192222 -1.13883e-19)
(0.209882 0.021604 2.22169e-19)
(0.264272 0.0250357 5.76022e-20)
(0.32405 0.0296555 3.30198e-19)
(0.388719 0.0355489 9.07116e-20)
(0.45759 0.0427405 -9.60016e-21)
(0.529775 0.0511851 2.27021e-19)
(0.604188 0.0607632 -1.50792e-20)
(0.679571 0.0712788 6.66661e-20)
(0.754543 0.0824625 -2.64576e-19)
(0.827666 0.0939862 -2.58267e-19)
(0.897519 0.105452 3.33235e-19)
(0.962852 0.116557 1.35086e-19)
(1.02236 0.126435 2.52321e-19)
(1.07601 0.136663 -1.00676e-19)
(1.11914 0.140184 2.08014e-19)
(-0.00559447 0.0036059 5.51192e-20)
(-0.0103989 0.00809663 -4.36633e-20)
(-0.00876296 0.011097 -4.52069e-20)
(-0.00082296 0.0128608 1.00501e-19)
(0.0134217 0.0138158 -1.67372e-19)
(0.0339751 0.0143495 2.03044e-20)
(0.0608429 0.0148082 1.43678e-19)
(0.0940258 0.0155093 2.11629e-19)
(0.133498 0.0167385 -1.58525e-19)
(0.179181 0.0187478 3.89099e-19)
(0.230913 0.0217517 -2.26495e-19)
(0.288413 0.0259211 -1.30517e-19)
(0.351246 0.0313751 -1.54613e-19)
(0.418797 0.0381727 4.94629e-20)
(0.490247 0.0463033 -2.53981e-19)
(0.564566 0.0556805 -2.6475e-19)
(0.640532 0.066138 3.88341e-19)
(0.716768 0.0774318 1.81049e-20)
(0.791802 0.089248 3.9147e-19)
(0.864151 0.101222 -1.6957e-19)
(0.932403 0.112938 -2.3922e-19)
(0.995364 0.124077 1.8335e-19)
(1.05188 0.133858 -5.65131e-19)
(1.10194 0.143634 -2.52129e-20)
(1.1418 0.147261 7.12915e-20)
(-0.00529493 0.00332295 6.16846e-20)
(-0.0091874 0.00730128 7.0187e-20)
(-0.00630732 0.00991745 1.04547e-19)
(0.00318607 0.0114127 -7.65079e-20)
(0.0192825 0.0122253 6.5552e-20)
(0.0419735 0.0127507 -1.64288e-20)
(0.0712478 0.0133402 -1.16598e-20)
(0.107082 0.014314 -2.59646e-19)
(0.149413 0.0159578 9.97998e-20)
(0.198114 0.0185196 -2.49264e-19)
(0.252952 0.0222046 8.49389e-20)
(0.313559 0.0271675 5.43964e-20)
(0.37939 0.0335042 8.01666e-20)
(0.449702 0.041242 1.24021e-19)
(0.523537 0.050331 9.39585e-20)
(0.599725 0.0606391 1.06674e-19)
(0.676912 0.071951 -2.77924e-19)
(0.753614 0.0839746 -1.87466e-19)
(0.828291 0.0963541 6.61506e-20)
(0.899444 0.108694 -5.72847e-20)
(0.965704 0.120567 1.06858e-19)
(1.02597 0.13165 -2.69629e-20)
(1.07926 0.141245 1.982e-19)
(1.12562 0.150515 6.35426e-20)
(1.16214 0.154149 -5.19644e-19)
(-0.0049485 0.00302896 -4.59209e-20)
(-0.00782873 0.00648412 -1.31275e-19)
(-0.00359736 0.00871988 -7.48218e-20)
(0.00756189 0.009962 1.07801e-19)
(0.0256259 0.0106584 -6.85135e-20)
(0.0505706 0.0112115 1.04091e-19)
(0.0823637 0.0119764 3.71608e-21)
(0.120951 0.0132749 1.99145e-19)
(0.166228 0.0153904 -2.18534e-19)
(0.218006 0.0185644 5.38729e-20)
(0.275974 0.0229891 2.47621e-19)
(0.339662 0.0287994 1.07293e-19)
(0.408408 0.0360628 -1.5244e-19)
(0.48133 0.04477 -1.47073e-19)
(0.557328 0.0548273 -1.44313e-20)
(0.635092 0.0660535 1.82188e-19)
(0.713145 0.0781827 9.90596e-22)
(0.789914 0.0908757 -4.21689e-22)
(0.863819 0.103739 2.36551e-20)
(0.933376 0.116353 7.13657e-21)
(0.997288 0.128286 7.44166e-20)
(1.05457 0.139221 -1.85046e-19)
(1.10446 0.148544 2.78488e-19)
(1.14707 0.157259 -2.13748e-20)
(1.18024 0.160803 6.18884e-20)
(-0.00455197 0.00272463 -7.20795e-20)
(-0.0063144 0.00564806 1.03357e-19)
(-0.000620388 0.00751007 -3.21289e-20)
(0.0123202 0.00851784 1.2789e-19)
(0.0324691 0.00912788 -8.05456e-21)
(0.0597835 0.00974843 -2.22228e-19)
(0.0942051 0.010737 -2.99371e-20)
(0.135643 0.0124149 -1.09646e-19)
(0.183942 0.0150615 4.10311e-19)
(0.238844 0.0189081 -2.87477e-19)
(0.299946 0.0241304 -2.25919e-19)
(0.366668 0.0308387 -2.76028e-19)
(0.438217 0.0390673 4.70903e-21)
(0.51357 0.0487652 2.92237e-20)
(0.591479 0.0597907 2.99481e-21)
(0.6705 0.0719106 -1.07427e-19)
(0.749049 0.084808 8.73955e-20)
(0.825485 0.098099 1.7959e-19)
(0.898214 0.111357 -1.42392e-19)
(0.965799 0.124147 3.21191e-19)
(1.02705 0.136042 -1.14727e-19)
(1.08114 0.146739 8.95664e-20)
(1.12749 0.15571 -4.40007e-19)
(1.16637 0.163828 1.086e-19)
(1.19621 0.167196 5.59172e-20)
(-0.00410208 0.00241081 -1.6962e-20)
(-0.00463588 0.00479641 3.56162e-20)
(0.00263611 0.00629444 5.30421e-20)
(0.0174763 0.00709014 -1.37918e-19)
(0.0398285 0.00764734 9.84883e-20)
(0.0696274 0.00837872 4.09867e-20)
(0.106784 0.0096425 -3.96035e-20)
(0.151163 0.0117576 2.52413e-20)
(0.20255 0.0149961 -7.01609e-20)
(0.260605 0.019576 2.09723e-19)
(0.324826 0.0256521 2.03588e-19)
(0.39451 0.033305 4.51755e-20)
(0.468723 0.0425306 3.31668e-19)
(0.546298 0.0532317 -2.30904e-20)
(0.625841 0.0652144 4.1295e-20)
(0.705781 0.0781918 -5.61763e-20)
(0.784445 0.0917969 -1.93113e-19)
(0.86015 0.105605 -8.74193e-20)
(0.931319 0.119163 -5.76742e-20)
(0.996593 0.132027 -5.07051e-20)
(1.05492 0.143786 -1.20182e-19)
(1.10564 0.15416 2.09683e-19)
(1.1484 0.162706 2.90347e-19)
(1.18358 0.170192 -1.10705e-20)
(1.21018 0.173311 -4.55086e-21)
(-0.00359553 0.00208852 1.90715e-19)
(-0.0027847 0.00393293 -1.97212e-19)
(0.00618437 0.00508005 -7.74835e-20)
(0.0230445 0.00568959 1.82359e-19)
(0.0477189 0.00623121 -1.22845e-19)
(0.0801156 0.00712045 1.21901e-20)
(0.120108 0.00871419 1.18531e-19)
(0.16751 0.0113264 1.59202e-19)
(0.222038 0.0152189 2.98926e-21)
(0.283261 0.0205922 -3.35851e-19)
(0.350564 0.0275755 -1.55979e-20)
(0.423112 0.0362146 1.86804e-19)