/*--------------------------------*- C++ -*----------------------------------*\
  =========                 |
  \\      /  F ield         | OpenFOAM: The Open Source CFD Toolbox
   \\    /   O peration     | Website:  https://openfoam.org
    \\  /    A nd           | Version:  7
     \\/     M anipulation  |
\*---------------------------------------------------------------------------*/
FoamFile
{
    version     2.0;
    format      ascii;
    class       surfaceScalarField;
    location    "20";
    object      phi;
}
// * * * * * * * * * * * * * * * * * * * * * * * * * * * * * * * * * * * * * //

dimensions      [0 3 -1 0 0 0 0];

internalField   nonuniform List<scalar> 
8842
(
-8.23436e-07
8.23409e-07
2.77112e-11
-3.10662e-06
2.28323e-06
-4.09587e-11
3.62674e-06
-2.24955e-10
-8.21088e-07
1.6445e-06
-3.09798e-06
4.56011e-06
7.24332e-06
-8.16422e-07
2.46092e-06
-3.0808e-06
6.82449e-06
1.08402e-05
-8.09501e-07
3.27042e-06
-3.05529e-06
9.07028e-06
1.44076e-05
-8.00417e-07
4.07084e-06
-3.02178e-06
1.12916e-05
1.79365e-05
-7.89289e-07
4.86013e-06
-2.98065e-06
1.3483e-05
2.14177e-05
-7.76261e-07
5.63639e-06
-2.93241e-06
1.56392e-05
2.48431e-05
-7.61498e-07
6.39789e-06
-2.87759e-06
1.77552e-05
2.82048e-05
-7.45181e-07
7.14307e-06
-2.81683e-06
1.98269e-05
-6.10751e-06
3.14954e-05
4.21327e-05
-7.27503e-07
7.87057e-06
-2.75076e-06
2.18502e-05
-5.96395e-06
3.47086e-05
4.6424e-05
-7.08668e-07
8.57924e-06
-2.68008e-06
2.38216e-05
-5.8099e-06
3.78385e-05
5.06008e-05
-6.88881e-07
9.26812e-06
-2.60547e-06
2.57382e-05
-5.64674e-06
4.08797e-05
5.46555e-05
-6.68345e-07
9.93646e-06
-2.52762e-06
2.75974e-05
-5.47582e-06
4.38279e-05
5.85815e-05
-6.47256e-07
1.05837e-05
-2.44716e-06
2.93973e-05
-5.29842e-06
4.66792e-05
6.23726e-05
-6.25799e-07
1.12095e-05
-2.36472e-06
3.11363e-05
-5.11574e-06
4.94302e-05
6.60236e-05
-6.04142e-07
1.18137e-05
-2.28084e-06
3.2813e-05
-4.92883e-06
5.20782e-05
6.95298e-05
-5.82433e-07
1.23961e-05
-2.19601e-06
3.44265e-05
-4.73861e-06
5.46208e-05
-8.09552e-06
7.28867e-05
8.91663e-05
-5.60799e-07
1.29569e-05
-2.1106e-06
3.59763e-05
-4.54577e-06
5.7056e-05
-7.74948e-06
7.60904e-05
9.30108e-05
-5.39338e-07
1.34962e-05
-2.02492e-06
3.74619e-05
-4.35082e-06
5.93819e-05
-7.39746e-06
7.9137e-05
9.66472e-05
-5.18123e-07
1.40144e-05
-1.93917e-06
3.8883e-05
-4.15407e-06
6.15968e-05
-7.03971e-06
8.20227e-05
0.000100069
-4.97199e-07
1.45116e-05
-1.85344e-06
4.02392e-05
-3.95555e-06
6.36989e-05
-6.67607e-06
8.47432e-05
-9.87559e-06
0.000103268
0.00011921
-4.76584e-07
1.49881e-05
-1.76772e-06
4.15304e-05
-3.75509e-06
6.56862e-05
-6.30594e-06
8.7294e-05
-9.27538e-06
0.000106238
0.000122442
-4.56267e-07
1.54444e-05
-1.6819e-06
4.2756e-05
-3.55229e-06
6.75566e-05
-5.92832e-06
8.96701e-05
-8.65863e-06
0.000108968
0.000125364
-4.36216e-07
1.58806e-05
-1.59578e-06
4.39155e-05
-3.34653e-06
6.93074e-05
-5.5418e-06
9.18653e-05
-8.02262e-06
0.000111449
0.00012796
-4.16373e-07
1.6297e-05
-1.50904e-06
4.50082e-05
-3.13697e-06
7.09353e-05
-5.14459e-06
9.3873e-05
-7.36401e-06
0.000113668
-9.61574e-06
0.000130211
0.000143423
-3.9666e-07
1.66937e-05
-1.42131e-06
4.60329e-05
-2.92259e-06
7.24366e-05
-4.73456e-06
9.56849e-05
-6.6789e-06
0.000115613
-8.56546e-06
0.000132098
0.000145048
-3.76982e-07
1.70706e-05
-1.33213e-06
4.6988e-05
-2.70218e-06
7.38066e-05
-4.30923e-06
9.7292e-05
-5.96284e-06
0.000117266
-7.46043e-06
0.000133596
0.000146174
-3.57226e-07
1.74279e-05
-1.24096e-06
4.78718e-05
-2.47436e-06
7.504e-05
-3.86582e-06
9.86834e-05
-5.21093e-06
0.000118611
-6.29258e-06
0.000134677
-6.87941e-06
0.000146761
0.000154754
-3.37262e-07
1.77651e-05
-1.14721e-06
4.86817e-05
-2.23761e-06
7.61304e-05
-3.40128e-06
9.98471e-05
-4.41779e-06
0.000119628
-5.05323e-06
0.000135313
-5.05825e-06
0.000146766
0.00015386
-3.16943e-07
1.80821e-05
-1.05018e-06
4.94149e-05
-1.99021e-06
7.70704e-05
-2.91226e-06
0.000100769
-3.57763e-06
0.000120293
-3.73311e-06
0.000135468
-3.10843e-06
0.000146141
0.000152164
-2.96104e-07
1.83782e-05
-9.49126e-07
5.0068e-05
-1.73031e-06
7.78516e-05
-2.39512e-06
0.000101434
-2.68425e-06
0.000120582
-2.3224e-06
0.000135106
-1.0152e-06
0.000144834
1.55557e-06
0.000149593
0.000149191
-2.7456e-07
1.86527e-05
-8.43211e-07
5.06366e-05
-1.45584e-06
7.84643e-05
-1.84592e-06
0.000101824
-1.73097e-06
0.000120467
-8.1073e-07
0.000134186
1.23679e-06
0.000142786
4.76079e-06
0.000146069
0.000143808
-2.52095e-07
1.89048e-05
-7.3149e-07
5.1116e-05
-1.16453e-06
7.88973e-05
-1.26036e-06
0.00010192
-7.10659e-07
0.000119918
8.12871e-07
0.000132662
3.66354e-06
0.000139936
8.22593e-06
0.000141507
1.49232e-05
0.00013711
0.000126428
-2.28464e-07
1.91333e-05
-6.12902e-07
5.15004e-05
-8.53859e-07
7.91383e-05
-6.33752e-07
0.0001017
3.84393e-07
0.0001189
2.56005e-06
0.000130487
6.28174e-06
0.000136214
1.1974e-05
0.000135814
2.01057e-05
0.000128979
0.000115336
-2.03382e-07
1.93367e-05
-4.8625e-07
5.17833e-05
-5.21025e-07
7.9173e-05
3.9322e-08
0.000101139
1.56246e-06
0.000117376
4.44322e-06
0.000127606
9.10894e-06
0.000131548
1.60288e-05
0.000128895
2.57228e-05
0.000119285
0.000102288
-1.76523e-07
1.95132e-05
-3.50181e-07
5.1957e-05
-1.62935e-07
7.89858e-05
7.63737e-07
0.000100213
2.83257e-06
0.000115308
6.47569e-06
0.000123963
1.21636e-05
0.00012586
2.04147e-05
0.000120644
3.18057e-05
0.000107894
4.69805e-05
8.71131e-05
5.77142e-05
-1.47498e-07
1.96607e-05
-2.03164e-07
5.20126e-05
2.23842e-07
7.85588e-05
1.54646e-06
9.88902e-05
4.20456e-06
0.00011265
8.67169e-06
0.000119496
1.54652e-05
0.000119067
2.51573e-05
0.000110951
3.83861e-05
9.46649e-05
5.58655e-05
6.96338e-05
3.51877e-05
-1.15864e-07
1.97766e-05
-4.30189e-08
5.19398e-05
6.43169e-07
7.78726e-05
2.394e-06
9.71393e-05
5.68903e-06
0.000109354
1.10465e-05
0.000114138
1.90345e-05
0.000111079
3.0283e-05
9.97028e-05
4.54962e-05
7.94518e-05
6.54621e-05
4.96678e-05
9.10597e-05
9.59008e-06
-4.16324e-05
-8.12351e-08
1.98578e-05
1.30676e-07
5.17279e-05
1.09915e-06
7.69041e-05
3.31375e-06
9.49247e-05
7.29738e-06
0.000105371
1.36163e-05
0.000107819
2.2893e-05
0.000101802
3.58191e-05
8.67767e-05
5.31683e-05
6.21026e-05
7.5806e-05
2.70301e-05
0.000104695
-1.9299e-05
-7.78312e-05
-4.30261e-08
1.99008e-05
3.21443e-07
5.13634e-05
1.59646e-06
7.56291e-05
4.31365e-06
9.22075e-05
9.0418e-06
0.000100643
1.63984e-05
0.000100463
2.70634e-05
9.11372e-05
4.17936e-05
7.20465e-05
6.14347e-05
4.24615e-05
8.69307e-05
1.53414e-06
0.000119327
-5.16957e-05
0.000159767
-0.000118271
-0.00019926
1.73029e-10
1.99006e-05
5.31052e-07
5.08325e-05
2.1397e-06
7.40205e-05
5.40186e-06
8.89454e-05
1.09349e-05
9.51097e-05
1.94103e-05
9.19874e-05
3.15689e-05
7.89786e-05
4.82347e-05
5.53807e-05
7.03269e-05
2.03692e-05
9.88675e-05
-2.70064e-05
0.00013498
-8.78087e-05
0.000179883
-0.000163173
-0.000254239
4.70373e-08
1.98536e-05
7.62046e-07
5.01175e-05
2.73458e-06
7.20479e-05
6.58782e-06
8.50921e-05
1.29905e-05
8.87071e-05
2.2671e-05
8.23069e-05
3.64332e-05
6.52164e-05
5.51703e-05
3.66436e-05
7.9875e-05
-4.33546e-06
0.000111644
-5.8775e-05
0.00015167
-0.000127835
0.000201229
-0.000212732
0.000261645
-0.000314654
-0.00043464
1.00171e-07
1.97534e-05
1.01691e-06
4.92008e-05
3.38616e-06
6.96787e-05
7.88032e-06
8.0598e-05
1.52218e-05
8.13655e-05
2.61985e-05
7.13302e-05
4.16792e-05
4.97357e-05
6.26268e-05
1.56961e-05
9.01056e-05
-3.18143e-05
0.00012528
-9.39498e-05
0.000169403
-0.000171958
0.000223784
-0.000267113
0.000289748
-0.000380618
0.000368574
-0.000513466
-0.000666285
1.596e-07
1.95938e-05
1.29821e-06
4.80622e-05
4.09994e-06
6.6877e-05
9.28855e-06
7.54094e-05
1.76425e-05
7.30116e-05
3.00109e-05
5.89618e-05
4.73287e-05
3.24179e-05
7.06281e-05
-7.60326e-06
0.000101041
-6.22273e-05
0.000139792
-0.000132701
0.000188174
-0.00022034
0.000247507
-0.000326446
0.000319072
-0.000452184
0.000404038
-0.000598431
-0.000765612
2.26073e-07
1.93678e-05
1.60855e-06
4.66797e-05
4.88135e-06
6.36042e-05
1.08215e-05
6.94692e-05
2.02655e-05
6.35677e-05
3.4125e-05
4.51023e-05
5.34017e-05
1.31412e-05
7.91944e-05
-3.3396e-05
0.000112697
-9.57302e-05
0.000155182
-0.000175186
0.000207962
-0.00027312
0.000272334
-0.000390817
0.000349491
-0.000529342
0.000440426
-0.000689366
0.000545808
-0.000870994
-0.00107362
3.00333e-07
1.90674e-05
1.95051e-06
4.50295e-05
5.73572e-06
5.98189e-05
1.24879e-05
6.2717e-05
2.3103e-05
5.29526e-05
3.85562e-05
2.96491e-05
5.99148e-05
-8.21741e-06
8.8341e-05
-6.18222e-05
0.000125082
-0.000132471
0.000171441
-0.000221545
0.000228727
-0.000330407
0.000298177
-0.000460267
0.000380847
-0.000612012
0.000477489
-0.000786008
0.000588415
-0.00098192
0.000713373
-0.00119858
-0.00143389
3.83102e-07
1.86843e-05
2.32658e-06
4.3086e-05
6.66808e-06
5.54774e-05
1.42958e-05
5.50892e-05
2.6166e-05
4.10824e-05
4.33176e-05
1.24975e-05
6.68812e-05
-3.1781e-05
9.80762e-05
-9.30172e-05
0.000138192
-0.000172586
0.000188543
-0.000271897
0.000250407
-0.00039227
0.000324918
-0.000534777
0.000412942
-0.000700037
0.000514937
-0.000888002
0.000630793
-0.00109778
0.000759722
-0.00132751
-0.00157429
4.75067e-07
1.82093e-05
2.73911e-06
4.0822e-05
7.68307e-06
5.05335e-05
1.62523e-05
4.652e-05
2.94639e-05
2.78709e-05
4.84192e-05
-6.45791e-06
7.43087e-05
-5.76705e-05
0.000108401
-0.000127109
0.000152012
-0.000216197
0.000206447
-0.000326332
0.000272916
-0.000458739
0.000352407
-0.000614268
0.000445546
-0.000793176
0.000552436
-0.000994893
0.00067251
-0.00121785
0.000804427
-0.00145942
0.000945996
-0.00171586
-0.0019837
5.76869e-07
1.76324e-05
3.19021e-06
3.82086e-05
8.7848e-06
4.49389e-05
1.83635e-05
3.69413e-05
3.30039e-05
1.32305e-05
5.38678e-05
-2.73217e-05
8.21995e-05
-8.60022e-05
0.000119306
-0.000164216
0.000166514
-0.000263405
0.000225091
-0.000384909
0.00029614
-0.000529788
0.000380461
-0.000698589
0.000478386
-0.0008911
0.000589619
-0.00110613
0.000713105
-0.00134134
0.000846963
-0.00159328
0.000988494
-0.00185739
0.00113424
-0.00212945
-0.00240179
6.89084e-07
1.69433e-05
3.68176e-06
3.5216e-05
9.97669e-06
3.8644e-05
2.06342e-05
2.62838e-05
3.6791e-05
-2.92633e-06
5.96656e-05
-5.01963e-05
9.05491e-05
-0.000116886
0.000130774
-0.000204441
0.000181654
-0.000314285
0.00024439
-0.000447645
0.000319941
-0.000605339
0.000408866
-0.000787515
0.000511159
-0.000993393
0.000626087
-0.00122105
0.0007521
-0.00146735
0.000886812
-0.00172799
0.00102711
-0.00199769
0.00116926
-0.0022716
0.00130952
-0.00254205
-0.00280331
8.12219e-07
1.61311e-05
4.21531e-06
3.18129e-05
1.12615e-05
3.15978e-05
2.30675e-05
1.44777e-05
4.08272e-05
-2.0686e-05
6.58106e-05
-7.51797e-05
9.93459e-05
-0.000150421
0.000142774
-0.00024787
0.000197374
-0.000368884
0.000264242
-0.000514513
0.000344152
-0.000685249
0.00043738
-0.000880742
0.000543534
-0.00109955
0.000661426
-0.00133895
0.000789019
-0.00159494
0.000923487
-0.00186246
0.00106141
-0.00213561
0.00119895
-0.00240914
0.00133257
-0.00267567
-0.00293084
0.00146009
9.46697e-07
1.51844e-05
4.79208e-06
2.79675e-05
1.26409e-05
2.3749e-05
2.56651e-05
1.45355e-06
4.51117e-05
-4.01327e-05
7.22957e-05
-0.000102364
0.00010857
-0.000186695
0.000155266
-0.000294566
0.000213597
-0.000427214
0.000284522
-0.000585439
0.000368586
-0.000769312
0.000465734
-0.000977891
0.000575163
-0.00120898
0.000695218
-0.001459
0.00082341
-0.00172313
0.000956549
-0.0019956
0.00109103
-0.00227009
0.00122309
-0.00254119
0.0013495
-0.00280208
-0.00304977
0.00146843
1.09286e-06
1.40915e-05
5.41291e-06
2.36474e-05
1.4116e-05
1.50459e-05
2.84265e-05
-1.2857e-05
4.96404e-05
-6.13465e-05
7.91084e-05
-0.000131832
0.000118194
-0.000225781
0.000168197
-0.000344568
0.000230233
-0.000489251
0.000305087
-0.000660293
0.00039303
-0.000857255
0.000493644
-0.0010785
0.000605688
-0.00132102
0.000727055
-0.00158037
0.000854855
-0.00185093
0.000985635
-0.00212638
0.00111574
-0.0024002
0.00124159
-0.00266704
0.00136041
-0.0029209
-0.0031601
0.00147075
1.25094e-06
1.28406e-05
6.07825e-06
1.88201e-05
1.56867e-05
5.43742e-06
3.13496e-05
-2.85199e-05
5.44056e-05
-8.44024e-05
8.62307e-05
-0.000163657
0.000128182
-0.000267732
0.000181501
-0.000397887
0.000247176
-0.000554926
0.000325775
-0.000738892
0.000417258
-0.000948738
0.000520812
-0.00118206
0.000634755
-0.00143496
0.000756555
-0.00170217
0.000882993
-0.00197737
0.00101046
-0.00225385
0.00113538
-0.00252512
0.00125449
-0.00278615
0.00136551
-0.00303192
-0.00326201
0.00146741
1.4211e-06
1.14195e-05
6.78814e-06
1.34531e-05
1.73518e-05
-5.12628e-06
3.44301e-05
-4.55982e-05
5.93962e-05
-0.000109368
9.3639e-05
-0.0001979
0.000138489
-0.000312582
0.000195102
-0.000454501
0.000264306
-0.00062413
0.000346411
-0.000820997
0.000441031
-0.00104336
0.000546939
-0.00128797
0.000662023
-0.00155005
0.000783371
-0.00182352
0.000907526
-0.00210152
0.00103084
-0.00237716
0.00114992
-0.0026442
0.00126192
-0.00289815
0.0013651
-0.0031351
-0.00335578
0.00145887
1.60339e-06
9.8161e-06
7.54218e-06
7.51431e-06
1.91093e-05
-1.66934e-05
3.76616e-05
-6.41505e-05
6.45976e-05
-0.000136304
0.000101304
-0.000234606
0.000149063
-0.000360341
0.000208915
-0.000514353
0.000281489
-0.000696704
0.000366805
-0.000906313
0.000464102
-0.00114065
0.000571732
-0.0013956
0.000687175
-0.00166549
0.000807209
-0.00194355
0.000928231
-0.00222255
0.00104667
-0.0024956
0.00115942
-0.00275695
0.00126412
-0.00300285
0.00135957
-0.00323055
-0.00344183
0.00144561
1.79776e-06
8.01834e-06
8.33953e-06
9.72536e-07
2.09559e-05
-2.93098e-05
4.10356e-05
-8.42301e-05
6.99914e-05
-0.00016526
0.000109191
-0.000273805
0.000159842
-0.000410993
0.000222842
-0.000577353
0.000298584
-0.000772445
0.000386763
-0.000994492
0.000486226
-0.00124012
0.00059491
-0.00150428
0.00070993
-0.00178051
0.00082783
-0.00206145
0.000944966
-0.00233968
0.00105795
-0.00260858
0.00116404
-0.00286304
0.0012614
-0.0031002
0.00134935
-0.0033185
-0.00352062
0.00142814
2.00407e-06
6.01427e-06
9.17893e-06
-6.20232e-06
2.28873e-05
-4.30182e-05
4.45414e-05
-0.000105884
7.55556e-05
-0.000196275
0.000117258
-0.000315508
0.00017076
-0.000464495
0.000236779
-0.000643372
0.000315439
-0.000851105
0.000406086
-0.00108514
0.000507163
-0.0013412
0.000616215
-0.00161333
0.000730047
-0.00189434
0.000845057
-0.00217646
0.000957663
-0.00245229
0.00106474
-0.00271566
0.001164
-0.0029623
0.00125412
-0.00319032
0.0013349
-0.00339929
-0.00359268
0.00140696
2.22206e-06
3.7922e-06
1.00586e-05
-1.40389e-05
2.4898e-05
-5.78576e-05
4.81662e-05
-0.000129152
8.12645e-05
-0.000229373
0.000125462
-0.000359705
0.000181742
-0.000520775
0.000250612
-0.000712242
0.000331899
-0.000932391
0.000424575
-0.00117782
0.000526687
-0.00144331
0.000635417
-0.00172206
0.000747334
-0.00200626
0.00085878
-0.00228791
0.00096633
-0.00255984
0.00106721
-0.00281654
0.00115959
-0.00305468
0.00124266
-0.00327339
0.00131669
-0.00347331
-0.00365854
0.00138255
2.45137e-06
1.34083e-06
1.09764e-05
-2.25639e-05
2.69813e-05
-7.38624e-05
5.1895e-05
-0.000154066
8.70893e-05
-0.000264567
0.000133751
-0.000406367
0.000192708
-0.000579732
0.000264226
-0.00078376
0.000347806
-0.00101597
0.00044204
-0.00127205
0.000544588
-0.00154585
0.000652323
-0.0018298
0.00076165
-0.00211559
0.000868951
-0.00239521
0.000971042
-0.00266193
0.00106555
-0.00291105
0.00115113
-0.00314026
0.00122745
-0.00334971
0.00129515
-0.00354102
-0.00371876
0.00135537
2.69153e-06
-1.3507e-06
1.19296e-05
-3.18019e-05
2.91296e-05
-9.10625e-05
5.57109e-05
-0.000180648
9.29977e-05
-0.000301854
0.00014207
-0.000455439
0.000203572
-0.000641234
0.000277499
-0.000857687
0.000363006
-0.00110148
0.000458299
-0.00136734
0.000560682
-0.00164824
0.000666776
-0.00193589
0.000772908
-0.00222172
0.000875583
-0.00249789
0.000971931
-0.00275828
0.00106002
-0.00299914
0.00113897
-0.00321921
0.00120889
-0.00341963
0.00127074
-0.00360287
-0.00377384
0.00132582
2.94195e-06
-4.29265e-06
1.29149e-05
-4.17749e-05
3.13339e-05
-0.000109481
5.95947e-05
-0.000208908
9.89544e-05
-0.000341214
0.000150362
-0.000506846
0.000214248
-0.00070512
0.000290311
-0.00093375
0.000377346
-0.00118851
0.000473185
-0.00146318
0.000574811
-0.00174986
0.000678663
-0.00203974
0.00078107
-0.00232413
0.000878743
-0.00259556
0.000969177
-0.00284871
0.00105089
-0.00308085
0.00112346
-0.00329178
0.00118738
-0.00348355
0.00124385
-0.00365934
-0.00382427
0.00129428
3.20191e-06
-7.49456e-06
1.39289e-05
-5.25018e-05
3.35843e-05
-0.000129137
6.35254e-05
-0.000238849
0.000104921
-0.00038261
0.000158564
-0.000560489
0.000224644
-0.000771201
0.000302542
-0.00101165
0.000390685
-0.00127666
0.000486549
-0.00155905
0.000586849
-0.00185017
0.00068791
-0.0021408
0.000786148
-0.00242236
0.000878545
-0.00268796
0.000962998
-0.00293316
0.00103848
-0.00315633
0.00110497
-0.00335828
0.0011633
-0.00354188
0.00121484
-0.00371087
-0.0038705
0.00126107
3.47058e-06
-1.09651e-05
1.49672e-05
-6.39985e-05
3.58699e-05
-0.00015004
6.74803e-05
-0.00027046
0.000110859
-0.000425988
0.000166613
-0.000616243
0.00023467
-0.000839258
0.000314075
-0.00109105
0.00040289
-0.00136547
0.000498265
-0.00165442
0.000596702
-0.0019486
0.000694488
-0.00223859
0.000788199
-0.00251607
0.000875142
-0.0027749
0.000953637
-0.00301166
0.00102309
-0.00322577
0.00108385
-0.00341905
0.00113701
-0.00359503
0.00118405
-0.00375792
-0.00391292
0.00122647
3.747e-06
-1.47121e-05
1.60253e-05
-7.62768e-05
3.81784e-05
-0.000172193
7.14352e-05
-0.000303717
0.000116724
-0.000471277
0.000174445
-0.000673964
0.000244237
-0.00090905
0.000324801
-0.00117162
0.000413845
-0.00145451
0.00050823
-0.00174881
0.000604308
-0.00204468
0.000698404
-0.00233268
0.000787316
-0.00260499
0.000868718
-0.0028563
0.000941353
-0.0030843
0.00100503
-0.00328945
0.00106043
-0.00347445
0.00110882
-0.00364343
0.00115177
-0.00380086
-0.00395188
0.00119074
4.03007e-06
-1.87422e-05
1.70982e-05
-8.93449e-05
4.0497e-05
-0.000195591
7.53643e-05
-0.000338584
0.000122474
-0.000518387
0.000181994
-0.000733484
0.000253259
-0.000980314
0.000334618
-0.00125297
0.000423447
-0.00154334
0.000516366
-0.00184173
0.00060964
-0.00213795
0.000699701
-0.00242275
0.000783626
-0.00268891
0.000859477
-0.00293215
0.000926413
-0.00315123
0.000984611
-0.00334765
0.00103502
-0.00352486
0.00107904
-0.00368745
0.00111825
-0.00384008
-0.0039877
0.00115407
4.31858e-06
-2.30608e-05
1.81801e-05
-0.000103206
4.28119e-05
-0.000220223
7.9241e-05
-0.000375013
0.000128064
-0.00056721
0.000189197
-0.000794616
0.000261652
-0.00105277
0.000343434
-0.00133476
0.000431614
-0.00163152
0.000522619
-0.00193273
0.0006127
-0.00222803
0.000698454
-0.0025085
0.000777281
-0.00276774
0.000847638
-0.00300251
0.000909085
-0.00321268
0.000962116
-0.00340068
0.00100789
-0.00357063
0.0010479
-0.00372746
0.00108371
-0.00387589
-0.00402064
0.00111665
4.61118e-06
1.92654e-05
4.51085e-05
8.30377e-05
-0.000412942
0.000133451
-0.000617623
0.00019599
-0.000857155
0.000269339
-0.00112612
0.00035117
-0.00141659
0.00043828
-0.00171864
0.000526964
-0.00202141
0.000613518
-0.00231459
0.000694764
-0.00258975
0.000768449
-0.00284142
0.000833429
-0.00306749
0.000889628
-0.00326888
0.000937816
-0.00344887
0.00097931
-0.00361212
0.00101565
-0.00376379
0.00104834
-0.00390859
-0.00405093
0.00107863
8.67264e-05
0.00013859
0.000202314
-0.000920879
0.000276253
-0.00120006
0.000357758
-0.00149809
0.000443401
-0.00180428
0.000529398
-0.00210741
0.000612151
-0.00239734
0.000688752
-0.00266635
0.000757314
-0.00290999
0.000817076
-0.00312725
0.000868292
-0.00332009
0.00091196
-0.00349254
0.000949506
-0.00364967
0.000982472
-0.00379676
0.0010123
-0.00393842
-0.00407874
0.00104011
0.000208114
0.00028233
0.000363147
0.00044695
-0.00188808
0.00052994
-0.0021904
0.000608678
-0.00247608
0.000680557
-0.00273823
0.000744065
-0.00297349
0.000798803
-0.00318199
0.000845313
-0.0033666
0.000884774
-0.003532
0.000918679
-0.00368358
0.000948544
-0.00382663
0.000975717
-0.00396559
-0.00410423
0.00100121
0.000448921
0.000528629
0.000603192
0.000670329
0.000728894
-0.00303206
0.000778826
-0.00323192
0.000820911
-0.00340869
0.000856464
-0.00356755
0.000887009
-0.00371412
0.000914007
-0.00385362
0.000938708
-0.00399029
-0.00412753
0.000962007
0.000711992
0.000757348
0.000795285
0.000827212
-0.00359948
0.000854649
-0.00374156
0.000878987
-0.00387796
0.000901367
-0.00401267
-0.00414873
0.000922575
0.00079718
0.000821733
0.000843586
0.000863772
-0.00416793
0.00088297
0.000843241
0.00416793
0.000843239
0.000797178
0.00359948
0.000821731
0.00374156
0.000843585
0.00387796
0.00086377
0.00401267
0.00414874
0.000882968
0.000658224
0.00280537
0.000711991
0.00303206
0.000757347
0.00323192
0.000795284
0.00340869
0.000827211
0.00356755
0.000854647
0.00371412
0.000878985
0.00385363
0.000901365
0.00399029
0.00412753
0.000922572
0.000448921
0.00188809
0.000528629
0.00219041
0.000603192
0.00247608
0.000670328
0.00273823
0.000728893
0.0029735
0.000778824
0.00318199
0.000820909
0.00336661
0.000856463
0.003532
0.000887007
0.00368358
0.000914005
0.00382663
0.000938706
0.00396559
0.00410423
0.000962005
0.000208114
0.000920883
0.00028233
0.00120006
0.000363147
0.0014981
0.00044695
0.00180428
0.000529939
0.00210742
0.000608677
0.00239735
0.000680557
0.00266635
0.000744064
0.00290999
0.000798802
0.00312725
0.000845312
0.0033201
0.000884773
0.00349254
0.000918678
0.00364967
0.000948542
0.00379676
0.000975715
0.00393842
0.00407874
0.00100121
8.67266e-05
0.000412945
0.00013859
0.000617626
0.000202314
0.000857159
0.000276253
0.00112612
0.000357759
0.00141659
0.000443401
0.00171864
0.000529398
0.00202142
0.000612151
0.00231459
0.000688751
0.00258975
0.000757313
0.00284143
0.000817075
0.00306749
0.000868291
0.00326888
0.000911958
0.00344887
0.000949504
0.00361213
0.00098247
0.0037638
0.0010123
0.00390859
0.00405093
0.00104011
4.6112e-06
2.30611e-05
1.92654e-05
0.000103207
4.51086e-05
0.000220225
8.30378e-05
0.000375015
0.000133451
0.000567213
0.00019599
0.00079462
0.00026934
0.00105277
0.00035117
0.00133476
0.000438281
0.00163153
0.000526964
0.00193274
0.000613518
0.00222804
0.000694763
0.00250851
0.000768448
0.00276774
0.000833428
0.00300251
0.000889626
0.00321268
0.000937815
0.00340068
0.000979308
0.00357063
0.00101565
0.00372746
0.00104834
0.0038759
0.00402065
0.00107862
4.31859e-06
1.87425e-05
1.81802e-05
8.93458e-05
4.2812e-05
0.000195593
7.92412e-05
0.000338586
0.000128065
0.00051839
0.000189197
0.000733488
0.000261652
0.000980319
0.000343434
0.00125298
0.000431614
0.00154335
0.000522619
0.00184173
0.000612699
0.00213796
0.000698454
0.00242275
0.00077728
0.00268892
0.000847638
0.00293215
0.000909084
0.00315124
0.000962115
0.00334765
0.00100789
0.00352486
0.0010479
0.00368745
0.00108371
0.00384008
0.00398771
0.00111665
4.03009e-06
1.47124e-05
1.70982e-05
7.62777e-05
4.04971e-05
0.000172194
7.53645e-05
0.000303719
0.000122474
0.00047128
0.000181995
0.000673968
0.000253259
0.000909054
0.000334618
0.00117162
0.000423448
0.00145452
0.000516366
0.00174881
0.00060964
0.00204469
0.000699701
0.00233269
0.000783626
0.00260499
0.000859476
0.0028563
0.000926412
0.0030843
0.000984609
0.00328946
0.00103501
0.00347446
0.00107903
0.00364343
0.00111825
0.00380087
0.00395188
0.00115407
3.74701e-06
1.09654e-05
1.60254e-05
6.39993e-05
3.81785e-05
0.000150041
7.14354e-05
0.000270462
0.000116724
0.000425991
0.000174445
0.000616247
0.000244238
0.000839262
0.000324801
0.00109106
0.000413845
0.00136548
0.00050823
0.00165443
0.000604308
0.00194861
0.000698404
0.00223859
0.000787316
0.00251608
0.000868717
0.0027749
0.000941352
0.00301166
0.00100503
0.00322578
0.00106043
0.00341905
0.00110882
0.00359504
0.00115177
0.00375792
0.00391292
0.00119074
3.4706e-06
7.49482e-06
1.49673e-05
5.25027e-05
3.587e-05
0.000129138
6.74805e-05
0.000238851
0.000110859
0.000382613
0.000166614
0.000560492
0.000234671
0.000771205
0.000314075
0.00101165
0.000402891
0.00127666
0.000498266
0.00155905
0.000596702
0.00185017
0.000694488
0.00214081
0.000788199
0.00242237
0.000875142
0.00268796
0.000953636
0.00293317
0.00102308
0.00315633
0.00108385
0.00335829
0.00113701
0.00354188
0.00118405
0.00371088
0.0038705
0.00122647
3.20192e-06
4.2929e-06
1.39289e-05
4.17757e-05
3.35845e-05
0.000109483
6.35256e-05
0.00020891
0.000104922
0.000341216
0.000158564
0.00050685
0.000224644
0.000705125
0.000302542
0.000933755
0.000390685
0.00118852
0.00048655
0.00146319
0.00058685
0.00174987
0.000687911
0.00203975
0.000786148
0.00232413
0.000878545
0.00259556
0.000962997
0.00284872
0.00103847
0.00308085
0.00110497
0.00329179
0.0011633
0.00348355
0.00121484
0.00365934
0.00382427
0.00126106
2.94196e-06
1.35094e-06
1.2915e-05
3.18026e-05
3.1334e-05
9.10637e-05
5.95949e-05
0.000180649
9.89547e-05
0.000301857
0.000150362
0.000455442
0.000214248
0.000641238
0.000290312
0.000857692
0.000377347
0.00110148
0.000473185
0.00136735
0.000574812
0.00164824
0.000678663
0.0019359
0.00078107
0.00222172
0.000878743
0.00249789
0.000969176
0.00275828
0.00105089
0.00299914
0.00112346
0.00321922
0.00118738
0.00341963
0.00124384
0.00360287
0.00377384
0.00129427
2.69155e-06
-1.34061e-06
1.19296e-05
2.25646e-05
2.91297e-05
7.38637e-05
5.57111e-05
0.000154068
9.2998e-05
0.00026457
0.00014207
0.00040637
0.000203573
0.000579736
0.0002775
0.000783764
0.000363006
0.00101598
0.0004583
0.00127206
0.000560683
0.00154586
0.000666777
0.0018298
0.000772908
0.00211559
0.000875583
0.00239522
0.00097193
0.00266194
0.00106001
0.00291106
0.00113896
0.00314027
0.00120889
0.00334971
0.00127074
0.00354102
0.00371876
0.00132582
2.45139e-06
-3.792e-06
1.09764e-05
1.40395e-05
2.69814e-05
5.78587e-05
5.18952e-05
0.000129154
8.70896e-05
0.000229375
0.000133751
0.000359708
0.000192708
0.000520779
0.000264227
0.000712246
0.000347807
0.000932396
0.000442041
0.00117782
0.000544589
0.00144331
0.000652323
0.00172207
0.000761651
0.00200627
0.000868951
0.00228792
0.000971042
0.00255985
0.00106555
0.00281655
0.00115113
0.00305469
0.00122745
0.00327339
0.00129515
0.00347332
0.00365855
0.00135537
2.22208e-06
-6.01407e-06
1.00587e-05
6.20294e-06
2.48981e-05
4.30193e-05
4.81664e-05
0.000105886
8.12648e-05
0.000196277
0.000125462
0.000315511
0.000181743
0.000464498
0.000250613
0.000643376
0.000331899
0.00085111
0.000424576
0.00108514
0.000526688
0.0013412
0.000635418
0.00161334
0.000747335
0.00189435
0.000858781
0.00217647
0.00096633
0.0024523
0.00106721
0.00271567
0.00115959
0.00296231
0.00124266
0.00319032
0.00131668
0.0033993
0.00359268
0.00138255
2.00408e-06
-8.01816e-06
9.17898e-06
-9.71955e-07
2.28874e-05
2.93109e-05
4.45416e-05
8.42317e-05
7.55559e-05
0.000165262
0.000117259
0.000273808
0.000170761
0.000410996
0.000236779
0.000577357
0.00031544
0.00077245
0.000406086
0.000994498
0.000507164
0.00124012
0.000616215
0.00150429
0.000730048
0.00178052
0.000845058
0.00206146
0.000957664
0.00233969
0.00106474
0.00260859
0.001164
0.00286305
0.00125411
0.00310021
0.0013349
0.00331851
0.00352062
0.00140696
1.79778e-06
-9.81594e-06
8.33959e-06
-7.51376e-06
2.09561e-05
1.66944e-05
4.10358e-05
6.41519e-05
6.99917e-05
0.000136307
0.000109191
0.000234609
0.000159843
0.000360344
0.000222843
0.000514357
0.000298585
0.000696708
0.000386764
0.000906319
0.000486227
0.00114066
0.000594911
0.0013956
0.000709931
0.0016655
0.000827831
0.00194356
0.000944967
0.00222255
0.00105795
0.00249561
0.00116404
0.00275696
0.0012614
0.00300285
0.00134935
0.00323056
0.00344183
0.00142814
1.6034e-06
-1.14193e-05
7.54223e-06
-1.34526e-05
1.91095e-05
5.12719e-06
3.76618e-05
4.55996e-05
6.4598e-05
0.00010937
0.000101304
0.000197902
0.000149063
0.000312586
0.000208916
0.000454504
0.00028149
0.000624134
0.000366806
0.000821003
0.000464103
0.00104336
0.000571733
0.00128797
0.000687176
0.00155005
0.00080721
0.00182353
0.000928232
0.00210153
0.00104667
0.00237717
0.00115942
0.0026442
0.00126412
0.00289815
0.00135957
0.00313511
0.00335579
0.00144561
1.42111e-06
-1.28405e-05
6.78819e-06
-1.88197e-05
1.7352e-05
-5.43658e-06
3.44303e-05
2.85212e-05
5.93966e-05
8.44042e-05
9.36395e-05
0.000163659
0.00013849
0.000267735
0.000195103
0.000397891
0.000264307
0.000554931
0.000346412
0.000738898
0.000441032
0.000948744
0.000546941
0.00118206
0.000662024
0.00143497
0.000783373
0.00170218
0.000907526
0.00197738
0.00103084
0.00225386
0.00114992
0.00252512
0.00126192
0.00278616
0.0013651
0.00303193
0.00326202
0.00145887
1.25095e-06
-1.40914e-05
6.0783e-06
-2.3647e-05
1.56868e-05
-1.50451e-05
3.13499e-05
1.28582e-05
5.44059e-05
6.13481e-05
8.62312e-05
0.000131834
0.000128183
0.000225784
0.000181501
0.000344572
0.000247177
0.000489255
0.000325777
0.000660298
0.00041726
0.000857261
0.000520813
0.00107851
0.000634756
0.00132103
0.000756556
0.00158038
0.000882994
0.00185094
0.00101046
0.00212639
0.00113538
0.00240021
0.00125449
0.00266705
0.0013655
0.00292091
0.00316011
0.00146741
1.09287e-06
-1.51843e-05
5.41296e-06
-2.79671e-05
1.41161e-05
-2.37483e-05
2.84268e-05
-1.45247e-06
4.96407e-05
4.01342e-05
7.91089e-05
0.000102366
0.000118195
0.000186698
0.000168197
0.000294569
0.000230234
0.000427218
0.000305089
0.000585444
0.000393032
0.000769318
0.000493645
0.000977897
0.00060569
0.00120898
0.000727057
0.00145901
0.000854857
0.00172314
0.000985636
0.00199561
0.00111574
0.0022701
0.00124159
0.0025412
0.00136041
0.00280209
0.00304978
0.00147074
9.46711e-07
-1.6131e-05
4.79214e-06
-3.18125e-05
1.26411e-05
-3.15972e-05
2.56653e-05
-1.44767e-05
4.51121e-05
2.06874e-05
7.22962e-05
7.51816e-05
0.000108571
0.000150423
0.000155267
0.000247873
0.000213598
0.000368888
0.000284524
0.000514518
0.000368587
0.000685255
0.000465736
0.000880749
0.000575165
0.00109955
0.00069522
0.00133895
0.000823412
0.00159495
0.000956551
0.00186247
0.00109104
0.00213562
0.00122309
0.00240915
0.0013495
0.00267568
0.00293085
0.00146843
8.12234e-07
-1.69432e-05
4.21537e-06
-3.52157e-05
1.12616e-05
-3.86434e-05
2.30678e-05
-2.62829e-05
4.08276e-05
2.9276e-06
6.58111e-05
5.01981e-05
9.93466e-05
0.000116888
0.000142775
0.000204444
0.000197375
0.000314288
0.000264243
0.000447649
0.000344154
0.000605344
0.000437382
0.000787521
0.000543536
0.0009934
0.000661428
0.00122106
0.000789021
0.00146736
0.000923488
0.001728
0.00106141
0.0019977
0.00119895
0.00227161
0.00133257
0.00254206
0.00280332
0.00146009
6.891e-07
-1.76323e-05
3.68182e-06
-3.82084e-05
9.97684e-06
-4.49384e-05
2.06344e-05
-3.69405e-05
3.67914e-05
-1.32293e-05
5.96661e-05
2.73233e-05
9.05499e-05
8.60043e-05
0.000130775
0.000164219
0.000181655
0.000263408
0.000244391
0.000384913
0.000319942
0.000529793
0.000408868
0.000698595
0.000511161
0.000891107
0.000626089
0.00110613
0.000752102