/*--------------------------------*- C++ -*----------------------------------*\
  =========                 |
  \\      /  F ield         | OpenFOAM: The Open Source CFD Toolbox
   \\    /   O peration     | Website:  https://openfoam.org
    \\  /    A nd           | Version:  7
     \\/     M anipulation  |
\*---------------------------------------------------------------------------*/
FoamFile
{
    version     2.0;
    format      ascii;
    class       surfaceScalarField;
    location    "260";
    object      phi;
}
// * * * * * * * * * * * * * * * * * * * * * * * * * * * * * * * * * * * * * //

dimensions      [0 3 -1 0 0 0 0];

internalField   nonuniform List<scalar> 
8899
(
-1.0103e-05
-0.000308616
0.000313311
-1.64163e-05
-0.000377322
0.000383635
-2.43461e-05
-0.000437461
0.00044539
-3.382e-05
-0.000489669
0.000499143
-4.47094e-05
-0.000535022
0.000545911
-5.68473e-05
-0.000574911
0.000587049
-7.00511e-05
-0.000610883
0.000624087
-8.41429e-05
-0.000644471
0.000658563
-9.89677e-05
-0.000677043
0.000691867
-0.000114405
-0.000709676
0.000725113
-0.000130376
-0.00074309
0.00075906
-0.000146835
-0.00077761
0.000794069
-0.000163767
-0.000813169
0.000830101
-0.00018117
-0.000849319
0.000866722
-0.000199043
-0.000885256
0.000903129
-0.000217372
-0.000919819
0.000938148
-0.000951357
0.000970144
-0.000236159
-1.25233e-05
-0.000302968
-1.99377e-05
-0.000369907
-2.90773e-05
-0.000428321
-3.98415e-05
-0.000478905
-5.20842e-05
-0.000522779
-6.56331e-05
-0.000561362
-8.03109e-05
-0.000596205
-9.59562e-05
-0.000628826
-0.00011244
-0.000660559
-0.000129678
-0.000692438
-0.000147632
-0.000725135
-0.00016631
-0.000758932
-0.00018575
-0.000793729
-0.000206007
-0.000829062
-0.000227133
-0.00086413
-0.000249153
-0.000897799
-0.000928414
-0.000272097
-1.48992e-05
-0.000296391
-2.33789e-05
-0.000361428
-3.368e-05
-0.00041802
-4.56731e-05
-0.000466912
-5.91945e-05
-0.000509258
-7.40652e-05
-0.000546491
-9.01121e-05
-0.000580158
-0.000107188
-0.000611751
-0.000125186
-0.000642561
-0.000144053
-0.000673571
-0.00016379
-0.000705398
-0.00018445
-0.000738272
-0.000206124
-0.000772055
-0.000228919
-0.000806267
-0.000252939
-0.000840111
-0.000278249
-0.000872488
-0.00090176
-0.000304904
-1.72152e-05
-0.000288913
-2.67186e-05
-0.000351924
-3.81272e-05
-0.000406611
-5.12827e-05
-0.000453756
-6.60031e-05
-0.000494537
-8.2102e-05
-0.000530392
-9.94083e-05
-0.000562852
-0.000117785
-0.000593374
-0.000137146
-0.0006232
-0.000157462
-0.000653255
-0.000178769
-0.000684091
-0.000201159
-0.000715882
-0.00022477
-0.000748445
-0.00024976
-0.000781277
-0.000276281
-0.000813589
-0.000304441
-0.000844327
-0.000871886
-0.000334315
-1.94562e-05
-0.00028057
-2.99365e-05
-0.000341444
-4.23939e-05
-0.000394154
-5.66408e-05
-0.000439509
-7.24768e-05
-0.000478701
-8.97067e-05
-0.000513162
-0.000108159
-0.000544399
-0.000127705
-0.000573828
-0.000148272
-0.000602634
-0.000169851
-0.000631676
-0.000192504
-0.000661437
-0.000216359
-0.000692027
-0.000241594
-0.000723211
-0.000268412
-0.000754458
-0.000297015
-0.000784987
-0.00032755
-0.000813793
-0.000839321
-0.000360114
-2.1608e-05
-0.000271401
-3.30136e-05
-0.000330038
-4.64565e-05
-0.000380711
-6.17203e-05
-0.000424246
-7.85855e-05
-0.000461836
-9.68468e-05
-0.000494901
-0.000116331
-0.000524915
-0.000136911
-0.000553247
-0.000158524
-0.000581021
-0.000181176
-0.000609024
-0.000204948
-0.000637665
-0.000229993
-0.000666981
-0.000256525
-0.000696679
-0.000284789
-0.000726194
-0.000315032
-0.000754744
-0.00034744
-0.000781384
-0.000804626
-0.000382136
-2.36573e-05
-0.000261452
-3.59321e-05
-0.000317763
-5.02936e-05
-0.00036635
-6.64964e-05
-0.000408043
-8.43021e-05
-0.000444031
-0.000103494
-0.000475709
-0.000123893
-0.000504516
-0.000145373
-0.000531767
-0.000167873
-0.000558521
-0.000191406
-0.000585491
-0.000216066
-0.000613005
-0.000242023
-0.000641023
-0.000269518
-0.000669184
-0.000298834
-0.000696878
-0.000330259
-0.00072332
-0.000364021
-0.000747621
-0.000768382
-0.000400265
-2.55911e-05
-3.86752e-05
-0.000304679
-5.38847e-05
-0.00035114
-7.09463e-05
-0.000390981
-8.9602e-05
-0.000425375
-0.000109622
-0.000455689
-0.000130821
-0.000483318
-0.000153066
-0.000509522
-0.000176295
-0.000535292
-0.000200521
-0.000561266
-0.000225838
-0.000587687
-0.00025243
-0.000614432
-0.000280552
-0.000641062
-0.000310519
-0.00066691
-0.00034266
-0.00069118
-0.000377244
-0.000713037
-0.000731184
-0.000414442
-4.12269e-05
-0.00029085
-5.72109e-05
-0.000335156
-7.50486e-05
-0.000373144
-9.44625e-05
-0.000405961
-0.000115209
-0.000434942
-0.000137092
-0.000461435
-0.000159972
-0.000486643
-0.000183775
-0.000511489
-0.000208508
-0.000536533
-0.000234259
-0.000561936
-0.000261209
-0.000587482
-0.000289625
-0.000612646
-0.000319844
-0.000636691
-0.000352231
-0.000658793
-0.000387102
-0.000678166
-0.000693632
-0.000424654
-4.35721e-05
-0.000276342
-6.0254e-05
-0.000318474
-7.87832e-05
-0.000354614
-9.88625e-05
-0.000385882
-0.000120234
-0.000413571
-0.000142688
-0.000438981
-0.000166073
-0.000463258
-0.000190301
-0.000487261
-0.000215362
-0.000511472
-0.000241329
-0.000535969
-0.000268371
-0.000560439
-0.000296755
-0.000584262
-0.000326832
-0.000606615
-0.000359
-0.000626625
-0.000393622
-0.000643544
-0.000656321
-0.000430934
-4.56962e-05
-0.000261227
-6.29967e-05
-0.000301174
-8.21304e-05
-0.000335481
-0.000102781
-0.000365231
-0.000124676
-0.000391676
-0.000147589
-0.000416067
-0.000171354
-0.000439494
-0.000195862
-0.000462752
-0.000221081
-0.000486254
-0.000247057
-0.000509992
-0.000273937
-0.000533559
-0.000301974
-0.000556225
-0.000331525
-0.000577064
-0.000363018
-0.000595132
-0.000396865
-0.000609696
-0.000619837
-0.00043335
-4.75851e-05
-0.000245579
-6.54219e-05
-0.000283337
-8.50712e-05
-0.000315831
-0.000106198
-0.000344104
-0.000128514
-0.000369361
-0.000151777
-0.000392804
-0.000175799
-0.000415471
-0.00020045
-0.000438101
-0.000225664
-0.00046104
-0.000251455
-0.000484202
-0.000277932
-0.000507082
-0.000305323
-0.000528833
-0.00033398
-0.000548408
-0.000364353
-0.000564758
-0.000396912
-0.000577137
-0.000584751
-0.000431997
-4.92253e-05
-0.000229474
-6.75131e-05
-0.000265049
-8.75865e-05
-0.000295758
-0.000109093
-0.000322598
-0.000131726
-0.000346727
-0.000155229
-0.000369301
-0.000179391
-0.000391309
-0.000204052
-0.00041344
-0.000229109
-0.000435983
-0.000254531
-0.00045878
-0.000280381
-0.000481232
-0.000306847
-0.000502368
-0.000334259
-0.000520996
-0.000363087
-0.000535931
-0.000393856
-0.000546368
-0.000551621
-0.000426986
-5.06034e-05
-0.000212995
-6.92538e-05
-0.000246399
-8.96568e-05
-0.000275355
-0.000111443
-0.000300812
-0.00013429
-0.00032388
-0.000157923
-0.000345669
-0.000182107
-0.000367125
-0.00020665
-0.000388897
-0.000231405
-0.000411228
-0.000256289
-0.000433897
-0.000281305
-0.000456215
-0.000306585
-0.000477088
-0.000332425
-0.000495156
-0.0003593
-0.000509056
-0.000387796
-0.000517872
-0.000520987
-0.000418429
-5.17065e-05
-0.000196224
-7.06276e-05
-0.000227478
-9.12624e-05
-0.00025472
-0.000113226
-0.000278848
-0.00013618
-0.000300925
-0.000159831
-0.000322018
-0.00018392
-0.000343037
-0.000208219
-0.000364598
-0.000232534
-0.000386912
-0.000256722
-0.000409709
-0.000280714
-0.000432223
-0.00030457
-0.000453231
-0.000328533
-0.000471194
-0.000353067
-0.000484521
-0.000378822
-0.000492117
-0.000493381
-0.000406428
-5.25221e-05
-7.16182e-05
-0.000208382
-9.2383e-05
-0.000233955
-0.000114417
-0.000256815
-0.000137367
-0.000277975
-0.000160921
-0.000298464
-0.000184794
-0.000319163
-0.000208724
-0.000340669
-0.000232466
-0.00036317
-0.000255807
-0.000386367
-0.0002786
-0.000409431
-0.000300815
-0.000431017
-0.000322618
-0.00044939
-0.000344448
-0.000462691
-0.000367007
-0.000469559
-0.000469328
-0.00039106
-7.22099e-05
-0.00018921
-9.29982e-05
-0.000213167
-0.00011499
-0.000234823
-0.000137819
-0.000255146
-0.000161155
-0.000275128
-0.000184688
-0.00029563
-0.000208119
-0.000317237
-0.000231153
-0.000340136
-0.000253504
-0.000364016
-0.000274934
-0.000388001
-0.000295308
-0.000410643
-0.000314694
-0.000430004
-0.000333477
-0.000443908
-0.0003524
-0.000450636
-0.000449356
-0.000372372
-7.23874e-05
-0.000170067
-9.30879e-05
-0.000192467
-0.00011492
-0.000212991
-0.000137504
-0.000232562
-0.000160493
-0.00025214
-0.000183553
-0.000272571
-0.000206349
-0.000294441
-0.000228533
-0.000317952
-0.000249749
-0.0003428
-0.000269658
-0.000368092
-0.000288007
-0.000392295
-0.000304739
-0.000413272
-0.000320154
-0.000428493
-0.000335014
-0.000435776
-0.000433998
-0.000350371
-7.21369e-05
-0.000151061
-9.26326e-05
-0.000171971
-0.00011418
-0.000191443
-0.000136387
-0.000210355
-0.000158889
-0.000229638
-0.00018133
-0.000250129
-0.000203343
-0.000272429
-0.000224528
-0.000296766
-0.000244456
-0.000322872
-0.000262686
-0.000349862
-0.000278834
-0.000376147
-0.000292693
-0.000399413
-0.000304442
-0.000416744
-0.000314826
-0.000425391
-0.000423804
-0.00032502
-7.14461e-05
-9.16144e-05
-0.000151803
-0.000112745
-0.000170313
-0.000134432
-0.000188667
-0.000156297
-0.000207773
-0.00017796
-0.000228466
-0.000199023
-0.000251366
-0.000219042
-0.000276748
-0.000237515
-0.000304399
-0.0002539
-0.000333477
-0.000267672
-0.000362375
-0.000278454
-0.000388631
-0.000286258
-0.00040894
-0.000291773
-0.000419876
-0.000419334
-0.000296243
-9.00179e-05
-0.00013209
-0.000110591
-0.000149739
-0.000131606
-0.000167652
-0.000152668
-0.000186712
-0.000173377
-0.000207756
-0.000193306
-0.000231437
-0.000211967
-0.000258086
-0.000228796
-0.00028757
-0.00024315
-0.000319123
-0.000254363
-0.000351162
-0.000261869
-0.000381126
-0.000265473
-0.000405336
-0.00026575
-0.000419599
-0.000421154
-0.000263929
-8.78313e-05
-0.000112966
-0.000107699
-0.000129872
-0.000127878
-0.000147473
-0.000147957
-0.000166633
-0.000167517
-0.000188196
-0.000186103
-0.000212851
-0.000203189
-0.000241
-0.000218153
-0.000272606
-0.000230263
-0.000307012
-0.000238715
-0.000342711
-0.000242742
-0.000377099
-0.000241908
-0.00040617
-0.000236614
-0.000424892
-0.000429817
-0.000227952
-8.50473e-05
-9.45699e-05
-0.000104054
-0.000110865
-0.000123224
-0.000128303
-0.000142126
-0.000147731
-0.000160322
-0.000170001
-0.000177329
-0.000195844
-0.000192591
-0.000225739
-0.000205433
-0.000259764
-0.000215048
-0.000297397
-0.000220503
-0.000337256
-0.000220835
-0.000376768
-0.000215338
-0.000411667
-0.000204184
-0.000436046
-0.000445818
-0.000188183
-8.16641e-05
-9.96496e-05
-9.2879e-05
-0.000117627
-0.000110326
-0.000135144
-0.000130213
-0.000151741
-0.000153405
-0.00016691
-0.000180674
-0.000180064
-0.000212585
-0.000190488
-0.000249339
-0.00019731
-0.000290576
-0.000199489
-0.000335077
-0.00019588
-0.000380377
-0.000185499
-0.000422047
-0.000168244
-0.000453301
-0.000469531
-0.000144531
-9.44852e-05
-7.60807e-05
-0.000111079
-9.37322e-05
-0.000126993
-0.0001143
-0.000141739
-0.000138658
-0.000154786
-0.000167627
-0.000165516
-0.000201855
-0.000173183
-0.000241673
-0.000176863
-0.000286896
-0.000175431
-0.000336508
-0.000167592
-0.000388216
-0.000152094
-0.000437545
-0.000128545
-0.00047685
-0.000501094
-9.69821e-05
-8.85712e-05
-6.06376e-05
-0.000103586
-7.87179e-05
-0.000117668
-0.000100217
-0.0001303
-0.000126025
-0.000140921
-0.000157007
-0.000148883
-0.000193893
-0.000153413
-0.000237144
-0.000153552
-0.000286757
-0.000148115
-0.000341945
-0.000135688
-0.000400643
-0.000114777
-0.000458456
-8.47394e-05
-0.000506888
-0.00054001
-4.58236e-05
-8.19278e-05
-9.51653e-05
-6.54804e-05
-0.000107183
-8.81993e-05
-0.000117429
-0.00011578
-0.000125305
-0.000149131
-0.000130134
-0.000189063
-0.000131116
-0.000236162
-0.00012727
-0.000290603
-0.000117374
-0.000351841
-9.99309e-05
-0.000418085
-7.31719e-05
-0.000485215
-3.58487e-05
-0.000544211
-0.00058405
8.19151e-06
-8.585e-05
-5.42162e-05
-9.55709e-05
-7.84785e-05
-0.000103154
-0.000108197
-0.000107961
-0.000144324
-0.000109281
-0.000187743
-0.000106285
-0.000239157
-9.79788e-05
-0.00029891
-8.31248e-05
-0.000366695
-6.01903e-05
-0.00044102
-2.72531e-05
-0.000518153
1.8407e-05
-0.000589871
-0.000638971
7.3328e-05
-7.56855e-05
-4.51167e-05
-8.28807e-05
-7.12833e-05
-8.75292e-05
-0.000103548
-8.89458e-05
-0.000142907
-8.63776e-05
-0.000190312
-7.8969e-05
-0.000246566
-6.57142e-05
-0.000312164
-4.53844e-05
-0.000387025
-1.64356e-05
-0.000469969
2.30176e-05
-0.000557606
7.52325e-05
-0.000642086
-0.000704725
0.000140986
-6.47301e-05
-6.91799e-05
-6.68335e-05
-7.06316e-05
-0.000102097
-6.83464e-05
-0.000145192
-6.15239e-05
-0.000197134
-4.92762e-05
-0.000258813
-3.05908e-05
-0.00033085
-4.26555e-06
-0.00041335
3.12062e-05
-0.000505441
7.78046e-05
-0.000604204
0.000137553
-0.000701835
-0.000779821
0.00021265
-5.45497e-05
-6.53362e-05
-5.25577e-05
-0.000104089
-4.62776e-05
-0.000151473
-3.48561e-05
-0.000208556
-1.73686e-05
-0.000276301
7.20316e-06
-0.000355421
4.00224e-05
-0.000446169
8.25061e-05
-0.000547924
0.000136531
-0.000658229
0.000204238
-0.000769542
-0.000863661
0.000288078
-3.90825e-05
-3.34189e-05
-0.000109752
-2.28747e-05
-0.000162017
-6.54042e-06
-0.00022489
1.65505e-05
-0.000299392
4.74219e-05
-0.000386293
8.7186e-05
-0.000485934
0.000137134
-0.000597873
0.000198939
-0.000720033
0.000274769
-0.000845372
-0.000955698
0.000366806
-1.33357e-05
-0.000119293
1.70958e-06
-0.000177062
2.32387e-05
-0.000246419
5.22501e-05
-0.000328403
8.97757e-05
-0.000423818
0.000136871
-0.000533029
0.000194673
-0.000655675
0.000264562
-0.000789922
0.000348626
-0.000929436
-0.00105532
0.000448244
7.56989e-06
-0.000132895
2.73338e-05
-0.000196826
5.42897e-05
-0.000273375
8.94864e-05
-0.0003636
0.000133956
-0.000468288
0.000188689
-0.000587762
0.000254651
-0.000721637
0.000332851
-0.000868123
0.000425217
-0.0010218
-0.00116178
0.00053168
2.91779e-05
5.38377e-05
-0.000221486
8.64229e-05
-0.00030596
0.000128017
-0.000405194
0.000179649
-0.00051992
0.000242239
-0.000650352
0.000316567
-0.000795964
0.00040322
-0.000954775
0.0005039
-0.00112248
-0.00127418
0.000616298
8.10868e-05
-0.000251194
0.000119461
-0.000344334
0.000167611
-0.000453344
0.000226553
-0.000578863
0.000297126
-0.000720925
0.000379912
-0.000878751
0.000475059
-0.00104992
0.000583988
-0.00123141
-0.00139141
0.00070122
0.000108957
0.000153241
-0.000388618
0.000208052
-0.000508155
0.00027438
-0.00064519
0.000352967
-0.000799512
0.000444184
-0.000969968
0.000547756
-0.00115349
0.000664716
-0.00134837
-0.00151227
0.000785581
0.000187621
-0.000438896
0.000249142
-0.000569676
0.000322852
-0.0007189
0.000409392
-0.000886052
0.000508918
-0.00106949
0.000620793
-0.00126537
0.000745184
-0.00147276
-0.00163579
0.000868697
0.000222469
0.000290688
-0.000637895
0.00037169
-0.000799902
0.000466013
-0.000980375
0.000573684
-0.00117717
0.000693963
-0.00138565
0.000824898
-0.0016037
-0.00176094
0.000950054
0.000332499
-0.000712727
0.000420585
-0.000887988
0.000522347
-0.00108214
0.000637807
-0.00129262
0.000766825
-0.00151467
0.000905663
-0.00174253
-0.00188337
0.00102809
0.000374382
0.000469209
-0.000982816
0.000577818
-0.00119075
0.0007001
-0.00141491
0.00083626
-0.00165083
0.000987127
-0.0018934
-0.00209649
0.00120025
0.000517228
0.00063186
-0.00130538
0.000759578
-0.00154262
0.000900336
-0.00179158
0.0010539
-0.00204696
-0.00228372
0.00124112
0.000684032
-0.00142508
0.000815682
-0.00167428
0.000958368
-0.00193427
0.0011103
-0.0021989
-0.00245383
0.00128041
0.000733964
0.000868117
-0.00180843
0.00101085
-0.002077
0.00115942
-0.00234748
-0.00261092
0.00131651
0.000916627
0.00105792
-0.0022183
0.00120192
-0.00249147
-0.00275721
0.00134821
0.00109957
-0.00235692
0.00123807
-0.00262997
-0.00289387
0.00137474
0.0011357
0.00126802
-0.00276229
-0.00302149
0.00139564
0.00129184
-0.00314037
0.00141072
0.00142
0.0035642
0.00157646
0.00147681
0.00316776
0.00345405
0.00158696
0.00134016
0.00272265
0.00147191
0.00303601
0.00333331
0.00159265
0.00132008
0.00257378
0.00146117
0.00289492
0.00320125
0.00159323
0.00113862
0.00209141
0.0012942
0.00241819
0.00144431
0.00274482
0.00305701
0.00158855
0.000942794
0.00162222
0.00110131
0.00193289
0.00126257
0.00225693
0.00142108
0.0025863
0.0028994
0.0015787
0.000900021
0.00147209
0.00105969
0.00177322
0.0012253
0.00209132
0.0013912
0.0024204
0.00272657
0.00156402
0.000707616
0.00106036
0.000855103
0.0013246
0.0010143
0.00161402
0.00118254
0.00192309
0.00135426
0.00224868
0.00253527
0.00154557
0.000537211
0.000713015
0.000665286
0.000932288
0.000808821
0.00118106
0.000965822
0.00145702
0.00113424
0.00175468
0.00130876
0.00207415
0.00231919
0.00152484
0.000501434
0.000607332
0.000623655
0.000810067
0.000762062
0.00104266
0.000915203
0.00130387
0.00108124
0.00158864
0.00125327
0.00190212
0.0021701
0.00140236
0.000368288
0.000350474
0.000467685
0.000507936
0.00058349
0.000694261
0.000715807
0.00091034
0.000863652
0.00115603
0.00102489
0.0014274
0.00119512
0.00173189
0.00201352
0.0013517
0.000343423
0.00027235
0.000436464
0.000414894
0.000545509
0.000585216
0.000671052
0.000784798
0.000812639
0.00101444
0.000968335
0.00127171
0.00113644
0.00156379
0.00185325
0.00129671
0.000248704
9.54586e-05
0.000321395
0.00019966
0.000408176
0.000328113
0.00051033
0.000483063
0.000628685
0.000666444
0.000763329
0.000879799
0.000912803
0.00112223
0.00107681
0.00139978
0.00169088
0.00123918
0.000234735
3.95206e-05
0.000302336
0.000132059
0.000383097
0.000247351
0.000478425
0.000387735
0.000589413
0.000555455
0.000716615
0.000752597
0.000859146
0.0009797
0.00101742
0.0012415
0.00152815
0.00118015
0.000171111
-7.54077e-05
0.000223332
-1.27003e-05
0.00028626
6.91308e-05
0.000361362
0.000172249
0.000450101
0.000298996
0.00055376
0.000451797
0.000673251
0.000633106
0.0008083
0.00084465
0.000959762
0.00109004
0.00136707
0.00112084
0.000165404
-0.00011584
0.000214349
-6.16452e-05
0.00027307
1.04103e-05
0.000342963
0.000102356
0.000425493
0.000216466
0.000522054
0.000355235
0.000633822
0.000521338
0.000761103
0.000717369
0.000905061
0.000946083
0.00120951
0.00106263
0.000123099
-0.000185573
0.000161455
-0.000154196
0.00020756
-0.00010775
0.000262558
-4.45877e-05
0.000327751
3.71626e-05
0.000404558
0.000139659
0.000494422
0.000265372
0.00059869
0.00041707
0.000718168
0.000597892
0.000854272
0.000809978
0.00105695
0.00100682
0.00012238
-0.000216003
0.000159
-0.000190817
0.000202675
-0.000151425
0.000254429
-9.63418e-05
0.000315455
-2.38634e-05
0.000387096
6.8019e-05
0.000470786
0.000181681
0.000567972
0.000319884
0.000679848
0.000486016
0.000808059
0.000681767
0.000910507
0.000954507
0.000122565
-0.000245503
0.000157744
-0.000225996
0.000199358
-0.000193039
0.000248318
-0.000145301
0.000305702
-8.1248e-05
0.00037276
9.61375e-07
0.00045088
0.000103561
0.000541547
0.000229218
0.000646229
0.000381333
0.000766774
0.000561222
0.000770856
0.000906424
9.46472e-05
-0.000276836
0.000123398
-0.000274254
0.000157378
-0.000259975
0.000197246
-0.000232908
0.000243812
-0.000191867
0.000298047
-0.000135483
0.000361097
-6.2089e-05
0.000434283
3.03749e-05
0.00051908
0.000144421
0.000617131
0.000283282
0.000730437
0.000447916
0.000638335
0.000862958
9.64938e-05
-0.000300608
0.000124626
-0.000302386
0.00015759
-0.000292939
0.000195968
-0.000271286
0.00024048
-0.000236379
0.000292
-0.000187003
0.000351578
-0.000121667
0.000420453
-3.85e-05
0.000500063
6.4811e-05
0.000592135
0.00019121
0.000698765
0.000341287
0.000512974
0.000824126
9.84113e-05
-0.000324132
0.000126005
-0.00032998
0.000158081
-0.000325015
0.00019516
-0.000308365
0.000237888
-0.000279107
0.000287059
-0.000236174
0.000343637
-0.000178245
0.000408777
-0.00010364
0.000483861
-1.02736e-05
0.000570634
0.000104437
0.000671215
0.000240706
0.000394568
0.000789621
7.69363e-05
-0.000328155
0.000100222
-0.000347418
0.000127312
-0.000357069
0.000158575
-0.000356279
0.000194483
-0.000344273
0.000235627
-0.000320251
0.000282738
-0.000283285
0.000336706
-0.000232213
0.000398611
-0.000165545
0.000469771
-8.1434e-05
0.000551895
2.23136e-05
0.000647058
0.000145542
0.000282745
0.00075888
7.87474e-05
-0.000347871
0.000101767
-0.000370438
0.000128346
-0.000383648
0.000158821
-0.000386754
0.00019363
-0.000379081
0.000233323
-0.000359944
0.000278583
-0.000328546
0.000330245
-0.000283874
0.000389324
-0.000224624
0.000457072
-0.000149182
0.000535125
-5.57393e-05
0.000625461
5.52063e-05
0.000177043
0.000731163
8.02117e-05
-0.000367469
0.00010291
-0.000393136
0.000128936
-0.000409675
0.000158606
-0.000416424
0.000192334
-0.000412809
0.000230646
-0.000398256
0.000274192
-0.000372092
0.000323765
-0.000333447
0.000380328
-0.000281187
0.00044507
-0.000213923
0.000519535
-0.000130204
0.000605558
-3.08176e-05
7.696e-05
0.000705641
6.18408e-05
-0.000350134
8.12382e-05
-0.000386866
0.000103533
-0.000415431
0.000128938
-0.000435079
0.000157751
-0.000445237
0.000190375
-0.000445433
0.000227322
-0.000435203
0.000269223
-0.000413993
0.000316843
-0.000381067
0.000371105
-0.000335449
0.000433139
-0.000275957
0.000504388
-0.000201453
0.000586521
-0.000112951
-1.79887e-05
0.00068147
6.26556e-05
-0.000366651
8.17522e-05
-0.000405963
0.000103546
-0.000437225
0.000128235
-0.000459768
0.000156112
-0.000473114
0.000187574
-0.000476895
0.000223127
-0.000470757
0.000263397
-0.000454262
0.000309129
-0.000426799
0.000361217
-0.000387538
0.000420739
-0.000335479
0.000489035
-0.000269748
0.000567598
-0.000191515
-0.000108239
0.000657849
6.30115e-05
-0.000382942
8.16958e-05
-0.000424647
0.000102875
-0.000458404
0.00012674
-0.000483633
0.000153581
-0.000499954
0.000183796
-0.00050711
0.000217894
-0.000504856
0.000256499
-0.000492867
0.000300348
-0.000470649
0.000350315
-0.000437504
0.000407429
-0.000392593
0.000472932
-0.000335252
0.000548149
-0.000266731
-0.000194152
0.000634062
6.28735e-05
-0.000398893
8.10261e-05
-0.0004428
0.00010147
-0.000478848
0.000124391
-0.000506554
0.000150082
-0.000525645
0.000178947
-0.000535975
0.000211503
-0.000537411
0.000248374
-0.000529738
0.0002903
-0.000512574
0.000338134
-0.000485338
0.000392866
-0.000447325
0.00045565
-0.000398035
0.000527648
-0.00033873
-0.000275999
0.000609496
4.67234e-05
-0.000361374
6.22177e-05
-0.000414387
7.97149e-05
-0.000460297
9.92967e-05
-0.00049843
0.000121149
-0.000528406
0.000145568
-0.000550065
0.000172969
-0.000563376
0.000203876
-0.000568318
0.000238923
-0.000564785
0.000278845
-0.000552497
0.000324488
-0.00053098
0.000376804
-0.000499642
0.000436864
-0.000458096
0.000505692
-0.000407557
-0.000353959
0.000583652
4.61123e-05
-0.000374471
6.10299e-05
-0.000429305
7.7747e-05
-0.000477014
9.63399e-05
-0.000517023
0.000116996
-0.000549062
0.00014002
-0.00057309
0.000165836
-0.000589192
0.000194979
-0.000597461
0.00022809
-0.000597895
0.000265907
-0.000590314
0.000309262
-0.000574335
0.000359077
-0.000549457
0.00041635
-0.000515369
0.000481982
-0.000473189
-0.000428121
0.000556143
4.50829e-05
-0.00038707
5.93053e-05
-0.000443527
7.51192e-05
-0.000492828
9.25985e-05
-0.000534502
0.000111934
-0.000568398
0.000133441
-0.000594596
0.00015755
-0.000613301
0.000184809
-0.00062472
0.000215864
-0.000628951
0.000251454
-0.000625904
0.0002924
-0.000615281
0.000339593
-0.00059665
0.000393967
-0.000569743
0.000456319
-0.000535541
-0.000498489
0.000526687
4.36357e-05
-0.000399062
5.70473e-05
-0.000456939
7.18393e-05
-0.00050762
8.80852e-05
-0.000550748
0.000105982
-0.000586294
0.000125852
-0.000614466
0.000148137
-0.000635587
0.000173392
-0.000649975
0.000202268
-0.000657826
0.0002355
-0.000659137
0.000273898
-0.000653679
0.000318323
-0.000641074
0.00036965
-0.00062107
0.000428589
-0.00059448
-0.000564995
0.000495096
3.04969e-05
-0.000344643
4.17766e-05
-0.000410342
5.42671e-05
-0.000469429
6.79246e-05
-0.000521277
8.2825e-05
-0.000565649
9.91712e-05
-0.000602641
0.000117294
-0.000632588
0.000137643
-0.000655936
0.000160778
-0.00067311
0.000187351
-0.000684399
0.000218093
-0.000689878
0.000253794
-0.000689381
0.000295287
-0.000682567
0.000343393
-0.000669177
0.000398751
-0.000649838
-0.000627513
0.000461269
2.90504e-05
-0.000353955
3.95172e-05
-0.000420809
5.09825e-05
-0.000480895
6.34011e-05
-0.000533696
7.68528e-05
-0.0005791
9.15471e-05
-0.000617335
0.000107822
-0.000648863
0.000126132
-0.000674246
0.000147039
-0.000694017
0.000171191
-0.000708551
0.000199307
-0.000717995
0.000232161
-0.000722234
0.000270549
-0.000720955
0.000315246
-0.000713874
0.000366827
-0.000701418
-0.000685872
0.000425185
2.73138e-05
-0.000362569
3.68734e-05
-0.000430368
4.72175e-05
-0.000491239
5.83025e-05
-0.000544781
7.0213e-05
-0.000591011
8.31653e-05
-0.000630287
9.75022e-05
-0.000663199
0.000113682
-0.000690426
0.000132262
-0.000712597
0.000153882
-0.000730171
0.000179246
-0.000743359
0.000209102
-0.00075209
0.000244212
-0.000756065
0.000285303
-0.000754965
0.000332896
-0.000749012
-0.000739868
0.000386892
2.52999e-05
-0.000370402
3.38655e-05
-0.000438934
4.30018e-05
-0.000500375
5.26689e-05
-0.000554448
6.29577e-05
-0.0006013
7.40904e-05
-0.00064142
8.6413e-05
-0.000675522
0.000100382
-0.000704395
0.000116548
-0.000728763
0.000135537
-0.00074916
0.000158031
-0.000765853
0.000184747
-0.000778805
0.000216409
-0.000787728
0.000253698
-0.000792254
0.00029709
-0.000792403
-0.000789281
0.000346503
2.30246e-05
-0.000377378
3.05176e-05
-0.000446427
3.83694e-05
-0.000508227
4.6546e-05
-0.000562625
5.51454e-05
-0.000609899
6.43944e-05
-0.000650669
7.46399e-05
-0.000685768
8.63333e-05
-0.000716089
0.000100013
-0.000742442
0.000116283
-0.000765431
0.0001358
-0.00078537
0.000159246
-0.000802251
0.000187304
-0.000815786
0.000220604
-0.000825555
0.000259585
-0.000831384
-0.000833888
0.000304192
2.05061e-05
-0.000383426
2.68572e-05
-0.000452778
3.33586e-05
-0.000514728
3.99845e-05
-0.000569251
4.68398e-05
-0.000616754
5.41552e-05
-0.000657984
6.22754e-05
-0.000693888
7.16424e-05
-0.000725455
8.27767e-05
-0.000753576
9.62585e-05
-0.000778913
0.000112709
-0.00080182
0.000132771
-0.000822313
0.000157081
-0.000840096
0.000186223
-0.000854697
0.000220597
-0.000865758
-0.000873475
0.000260184
1.77651e-05
-0.000388485
2.29145e-05
-0.000457927
2.80109e-05
-0.000519825
3.30384e-05
-0.000574278
3.81088e-05
-0.000621825
4.34552e-05
-0.000663331
4.9417e-05
-0.000699849
5.64228e-05
-0.000732461
6.49707e-05
-0.000762124
7.56099e-05
-0.000789552
8.89229e-05
-0.000815133
0.000105507
-0.000838897
0.00012595
-0.000860539
0.000150787
-0.000879533
0.000180382
-0.000895353
-0.000907844
0.000214751
1.48239e-05
-0.000392502
1.87221e-05
-0.000461826
2.23707e-05
-0.000523473
2.57647e-05
-0.000577672
2.90233e-05
-0.000625083
3.23798e-05
-0.000666687
3.61656e-05
-0.000703635
4.0792e-05
-0.000737088
4.67299e-05
-0.000768062
5.44923e-05
-0.000797315
6.4618e-05
-0.000825259
7.76548e-05
-0.000851934
9.41384e-05
-0.000877023
0.000114551
-0.000899945
0.000139227
-0.000920028
-0.000936828
0.00016821
8.77638e-06
-0.000318784
1.17069e-05
-0.000395433
1.43146e-05
-0.000464433
1.6484e-05
-0.000525643
1.82226e-05
-0.000579411
1.96561e-05
-0.000626517
2.10165e-05
-0.000668048
2.26245e-05
-0.000705243
2.48701e-05
-0.000739333
2.81928e-05
-0.000771385
3.30651e-05
-0.000802187
3.99775e-05
-0.000832171
4.94246e-05
-0.000861381
6.18865e-05
-0.000889485
7.77925e-05
-0.000915851
9.74443e-05
-0.00093968
-0.000960293
0.000120909
6.63121e-06
-0.000320896
8.43925e-06
-0.000397241
9.72753e-06
-0.000465722
1.03982e-05
-0.000526313
1.04719e-05
-0.000579485
1.00805e-05
-0.000626125
9.45326e-06
-0.00066742
8.89733e-06
-0.000704687
8.77804e-06
-0.000739214
9.49991e-06
-0.000772107
1.14908e-05
-0.000804178
1.51896e-05
-0.00083587
2.10344e-05
-0.000867226
2.94475e-05
-0.000897898
4.08068e-05
-0.000927211
5.53712e-05
-0.000954245
-0.000978146
7.32243e-05
4.38846e-06
-0.000322072
5.04736e-06
-0.0003979
4.99761e-06
-0.000465672
4.16132e-06
-0.000525477
2.57293e-06
-0.000577896
3.70254e-07
-0.000623923
-2.22225e-06
-0.000664828
-4.91296e-06
-0.000701997
-7.36391e-06
-0.000736763
-9.20877e-06
-0.000770262
-1.00672e-05
-0.000803319
-9.55514e-06
-0.000836382
-7.29326e-06
-0.000869488
-2.91925e-06
-0.000902272
3.89266e-06
-0.000934023
1.34272e-05
-0.000963779
-0.000990197
2.54783e-05
2.06601e-06
-0.000322286
1.55802e-06
-0.000397392
1.62247e-07
-0.000464276
-2.1787e-06
-0.000523136
-5.41456e-06
-0.00057466
-9.40265e-06
-0.000619935
-1.39242e-05
-0.000660306
-1.87053e-05
-0.000697216
-2.34375e-05
-0.000732031
-2.7795e-05
-0.000765904
-3.14472e-05
-0.000799667
-3.40668e-05
-0.000833762
-3.53352e-05
-0.000868219
-3.49489e-05
-0.000902658
-3.26337e-05
-0.000936338
-2.82073e-05
-0.000968205
-0.000996739
-2.16649e-05
-3.17802e-07
-0.000321522
-2.00197e-06
-0.000395708
-4.74332e-06
-0.000461535
-8.57472e-06
-0.000519305
-1.34321e-05
-0.000569803
-1.91676e-05
-0.000614199
-2.55691e-05
-0.000653905
-3.23819e-05
-0.000690403
-3.93283e-05
-0.000725084
-4.61244e-05
-0.000759108
-5.24908e-05
-0.000793301
-5.81583e-05
-0.000828095
-6.28697e-05
-0.000863508
-6.63819e-05
-0.000899146
-6.84773e-05
-0.000934242
-6.90019e-05
-0.000967681
-0.000997912
-6.78291e-05
-2.74513e-06
-0.000319772
-5.60567e-06
-0.000392847
-9.68137e-06
-0.000457459
-1.49804e-05
-0.000514006
-2.14231e-05
-0.00056336
-2.88569e-05
-0.000606765
-3.70773e-05
-0.000645684
-4.58491e-05
-0.000681631
-5.49264e-05
-0.000716007
-6.40678e-05
-0.000749967
-7.30454e-05
-0.000784323
-8.16484e-05
-0.000819492
-8.96812e-05
-0.000855475
-9.69617e-05
-0.000891866
-0.000103327
-0.000927877
-0.00010865
-0.000962358
-0.000993726
-0.000112835
-5.19715e-06
-0.000317033
-9.22653e-06
-0.000388818
-1.46172e-05
-0.000452068
-2.13514e-05
-0.000507271
-2.93335e-05
-0.000555378
-3.84064e-05
-0.000597692
-4.83733e-05
-0.000635718
-5.90188e-05
-0.000670986
-7.01286e-05
-0.000704897
-8.15033e-05
-0.000738592
-9.29662e-05
-0.00077286
-0.000104364
-0.000808094
-0.000115562
-0.000844277
-0.000126441
-0.000880987
-0.000136889
-0.000917429
-0.000146817
-0.00095243
-0.000984379
-0.000156165
-7.65603e-06
-1.28388e-05
-1.95167e-05
-2.76451e-05
-3.7112e-05
-4.77557e-05
-5.93866e-05
-7.18089e-05
-8.48387e-05
-9.83175e-05
-0.000112118
-0.000126143
-0.000140318
-0.000154583
-0.000168883
-0.000183165
-0.0001974
-0.000264242
-0.00299087
0.00301895
-0.000256066
-0.00266588
0.0026577
-0.000226015
-0.00183114
0.00180109
-0.000166412
-0.00046506
0.000405456
-8.73824e-05
0.00142368
-0.00150271
1.23597e-05
0.00357985
-0.0036796
0.000122296
0.00568406
-0.00579399
0.000221082
0.0073418
-0.00744059
0.00028476
0.00845324
-0.00851692
0.00912697
-0.00914689