/*--------------------------------*- C++ -*----------------------------------*\
  =========                 |
  \\      /  F ield         | OpenFOAM: The Open Source CFD Toolbox
   \\    /   O peration     | Website:  https://openfoam.org
    \\  /    A nd           | Version:  7
     \\/     M anipulation  |
\*---------------------------------------------------------------------------*/
FoamFile
{
    version     2.0;
    format      ascii;
    class       volScalarField;
    location    "120";
    object      p;
}
// * * * * * * * * * * * * * * * * * * * * * * * * * * * * * * * * * * * * * //

dimensions      [0 2 -2 0 0 0 0];

internalField   nonuniform List<scalar> 
4575
(
-0.0780534
-0.0809532
-0.091824
-0.108642
-0.123901
-0.128521
-0.11919
-0.101555
-0.083975
-0.0712329
-0.0635567
-0.060743
-0.0639944
-0.0724569
-0.0807754
-0.0827392
-0.0765593
-0.0663169
-0.0567516
-0.0500112
-0.0462007
-0.0461531
-0.0482247
-0.0495306
-0.077387
-0.079689
-0.0898792
-0.106048
-0.120874
-0.125442
-0.116443
-0.0993973
-0.08251
-0.0704426
-0.0633763
-0.0611607
-0.0650555
-0.0741498
-0.0829539
-0.085109
-0.0787585
-0.0680522
-0.0578979
-0.0505853
-0.0462069
-0.0455934
-0.0471445
-0.0480856
-0.0766798
-0.078388
-0.0878971
-0.103415
-0.117814
-0.122338
-0.113678
-0.0972212
-0.0810222
-0.0696251
-0.0631681
-0.0615538
-0.066096
-0.0758276
-0.0851249
-0.0874793
-0.0809617
-0.0697874
-0.0590366
-0.0511484
-0.0462055
-0.0450342
-0.0460754
-0.0466589
-0.0759358
-0.0770549
-0.085883
-0.100752
-0.114727
-0.119214
-0.110897
-0.0950278
-0.0795119
-0.0687798
-0.0629308
-0.0619197
-0.0671125
-0.0774863
-0.0872847
-0.089847
-0.083167
-0.0715217
-0.0601676
-0.051701
-0.0461975
-0.0444769
-0.0450189
-0.0452517
-0.0751586
-0.0756943
-0.0838428
-0.0980627
-0.111616
-0.116074
-0.108103
-0.0928187
-0.0779792
-0.0679059
-0.0626628
-0.0622562
-0.0681019
-0.0791221
-0.0894292
-0.0922088
-0.0853723
-0.0732543
-0.0612911
-0.0522438
-0.0461839
-0.0439225
-0.043976
-0.043865
-0.074352
-0.0743109
-0.0817818
-0.0953538
-0.108489
-0.11292
-0.105299
-0.0905955
-0.0764248
-0.0670031
-0.0623628
-0.0625608
-0.0690608
-0.0807311
-0.0915544
-0.0945615
-0.0875755
-0.0749844
-0.0624071
-0.0527773
-0.0461654
-0.0433722
-0.0429481
-0.0425001
-0.0735197
-0.0729093
-0.0797057
-0.0926309
-0.10535
-0.109758
-0.102487
-0.0883598
-0.0748491
-0.0660709
-0.0620296
-0.0628315
-0.069986
-0.0823092
-0.0936565
-0.0969017
-0.0897746
-0.0767112
-0.0635158
-0.0533021
-0.046143
-0.042827
-0.0419361
-0.0411577
-0.0726655
-0.0714939
-0.0776198
-0.0898997
-0.102203
-0.106592
-0.0996705
-0.0861134
-0.0732529
-0.065109
-0.0616619
-0.0630658
-0.0708742
-0.0838528
-0.0957314
-0.0992262
-0.0919675
-0.078434
-0.0646175
-0.0538187
-0.0461176
-0.0422878
-0.0409411
-0.0398389
-0.071793
-0.0700691
-0.0755296
-0.0871658
-0.0990556
-0.103425
-0.0968523
-0.0838581
-0.0716368
-0.0641172
-0.0612586
-0.0632618
-0.0717224
-0.0853579
-0.0977753
-0.101532
-0.0941519
-0.0801519
-0.0657122
-0.0543278
-0.0460898
-0.0417557
-0.039964
-0.0385444
-0.0709058
-0.0686392
-0.0734402
-0.0844347
-0.0959113
-0.100262
-0.0940351
-0.0815957
-0.0700018
-0.0630956
-0.0608188
-0.0634173
-0.0725275
-0.0868207
-0.0997841
-0.103815
-0.0963258
-0.0818642
-0.0668001
-0.0548299
-0.0460606
-0.0412313
-0.0390055
-0.0372752
-0.0672084
-0.0713566
-0.0817119
-0.0927757
-0.0971069
-0.0912215
-0.0793283
-0.0683489
-0.0620441
-0.0603415
-0.0635304
-0.0732864
-0.0882377
-0.101754
-0.106072
-0.0984871
-0.0835701
-0.0678815
-0.0553257
-0.0460307
-0.0407156
-0.0380665
-0.0360319
-0.0657805
-0.0692839
-0.0790026
-0.0896537
-0.0939625
-0.0884144
-0.0770578
-0.0666792
-0.060963
-0.0598261
-0.0635992
-0.0739963
-0.0896051
-0.103681
-0.1083
-0.100633
-0.0852688
-0.0689567
-0.0558157
-0.0460007
-0.0402092
-0.0371476
-0.0348151
-0.0643594
-0.0672267
-0.076312
-0.0865503
-0.0908333
-0.0856165
-0.0747862
-0.064994
-0.0598527
-0.0592718
-0.0636219
-0.0746545
-0.0909196
-0.105563
-0.110496
-0.102763
-0.0869593
-0.0700258
-0.0563005
-0.0459714
-0.0397127
-0.0362494
-0.0336255
-0.0629488
-0.0651895
-0.0736451
-0.0834703
-0.0877232
-0.0828306
-0.0725159
-0.0632946
-0.0587136
-0.0586783
-0.0635971
-0.0752581
-0.0921777
-0.107394
-0.112657
-0.104873
-0.0886409
-0.071089
-0.0567808
-0.0459434
-0.0392268
-0.0353724
-0.0324635
-0.061552
-0.0631767
-0.0710065
-0.0804184
-0.0846361
-0.0800594
-0.0702488
-0.0615825
-0.0575463
-0.058045
-0.0635231
-0.0758049
-0.0933762
-0.109172
-0.114779
-0.106961
-0.0903126
-0.0721466
-0.057257
-0.0459174
-0.0387519
-0.034517
-0.0313297
-0.0601725
-0.0611923
-0.068401
-0.0773992
-0.0815757
-0.0773058
-0.0679874
-0.0598592
-0.0563517
-0.0573718
-0.0633986
-0.0762923
-0.0945122
-0.110893
-0.11686
-0.109026
-0.0919735
-0.0731988
-0.0577299
-0.0458939
-0.0382886
-0.0336836
-0.0302243
-0.0588133
-0.0592401
-0.065833
-0.0744171
-0.0785459
-0.0745724
-0.0657338
-0.0581265
-0.0551306
-0.0566586
-0.0632225
-0.0767183
-0.0955826
-0.112554
-0.118895
-0.111065
-0.0936227
-0.0742459
-0.0582
-0.0458736
-0.0378372
-0.0328724
-0.0291478
-0.0574772
-0.0573237
-0.0633065
-0.0714764
-0.0755504
-0.0718619
-0.0634904
-0.0563861
-0.053884
-0.0559054
-0.0629938
-0.0770808
-0.0965848
-0.114153
-0.120884
-0.113076
-0.0952591
-0.0752878
-0.0586679
-0.0458569
-0.0373981
-0.0320836
-0.0281005
-0.056167
-0.0554463
-0.0608254
-0.0685812
-0.072593
-0.069177
-0.0612596
-0.05464
-0.0526131
-0.0551126
-0.0627116
-0.077378
-0.0975162
-0.115685
-0.122821
-0.115057
-0.0968819
-0.076325
-0.0591342
-0.0458443
-0.0369716
-0.0313174
-0.0270824
-0.0548852
-0.0536108
-0.0583935
-0.0657354
-0.0696774
-0.0665204
-0.0590438
-0.0528899
-0.0513192
-0.0542804
-0.0623752
-0.0776082
-0.0983745
-0.11715
-0.124706
-0.117006
-0.0984899
-0.0773574
-0.0595993
-0.0458365
-0.036558
-0.0305739
-0.0260937
-0.053634
-0.0518201
-0.0560142
-0.0629425
-0.0668072
-0.0638947
-0.0568454
-0.0511381
-0.0500037
-0.0534095
-0.0619842
-0.0777699
-0.0991576
-0.118543
-0.126535
-0.118921
-0.100082
-0.0783851
-0.060064
-0.0458338
-0.0361576
-0.029853
-0.0251345
-0.0524156
-0.0500766
-0.0536904
-0.0602062
-0.063986
-0.0613027
-0.0546668
-0.0493865
-0.0486682
-0.0525004
-0.0615382
-0.077862
-0.0998635
-0.119862
-0.128305
-0.120799
-0.101657
-0.0794083
-0.0605287
-0.0458368
-0.0357704
-0.0291547
-0.0242048
-0.0512319
-0.0483823
-0.0514249
-0.0575294
-0.0612172
-0.0587469
-0.0525105
-0.0476374
-0.0473143
-0.0515541
-0.0610371
-0.0778834
-0.10049
-0.121106
-0.130015
-0.122639
-0.103214
-0.0804269
-0.0609939
-0.0458457
-0.0353967
-0.0284789
-0.0233046
-0.0500845
-0.0467392
-0.0492203
-0.0549152
-0.0585041
-0.05623
-0.0503789
-0.0458929
-0.0459438
-0.0505716
-0.060481
-0.0778333
-0.101037
-0.122273
-0.131661
-0.124438
-0.104752
-0.0814408
-0.0614602
-0.0458611
-0.0350365
-0.0278255
-0.0224337
-0.0489751
-0.0451488
-0.0470786
-0.0523662
-0.05585
-0.0537546
-0.0482745
-0.0441553
-0.0445586
-0.049554
-0.0598701
-0.0777109
-0.101502
-0.12336
-0.133243
-0.126196
-0.10627
-0.0824501
-0.0619282
-0.0458834
-0.0346901
-0.0271942
-0.021592
-0.047905
-0.0436126
-0.0450015
-0.0498848
-0.0532579
-0.0513237
-0.0461999
-0.0424268
-0.0431607
-0.0485025
-0.0592049
-0.0775159
-0.101884
-0.124367
-0.134758
-0.127909
-0.107766
-0.0834545
-0.0623982
-0.0459128
-0.0343573
-0.0265847
-0.0207792
-0.0468754
-0.0421318
-0.0429906
-0.0474729
-0.0507307
-0.0489406
-0.0441575
-0.0407098
-0.0417521
-0.0474188
-0.058486
-0.0772481
-0.102182
-0.125291
-0.136204
-0.129576
-0.109239
-0.0844539
-0.0628708
-0.0459498
-0.0340384
-0.0259968
-0.0199952
-0.0458874
-0.0407071
-0.0410469
-0.0451323
-0.048271
-0.0465903
-0.0421498
-0.0390066
-0.0403349
-0.0463043
-0.0577141
-0.0769074
-0.102397
-0.126132
-0.137579
-0.131196
-0.110687
-0.085448
-0.0633464
-0.0459948
-0.0337334
-0.0254301
-0.0192396
-0.0449418
-0.0393395
-0.0391712
-0.0428644
-0.0458815
-0.0442772
-0.040179
-0.0373194
-0.0389115
-0.0451607
-0.0568903
-0.076494
-0.102526
-0.126889
-0.138882
-0.132766
-0.112111
-0.0864364
-0.0638255
-0.046048
-0.0334422
-0.0248843
-0.018512
-0.0440392
-0.0380293
-0.037364
-0.04067
-0.0435651
-0.0430645
-0.0382478
-0.0356507
-0.0374841
-0.04399
-0.0560158
-0.0760084
-0.10257
-0.127561
-0.140112
-0.134285
-0.113507
-0.0874189
-0.0643084
-0.0461098
-0.0331649
-0.0243588
-0.0178121
-0.0431802
-0.0367769
-0.0356255
-0.0385497
-0.041315
-0.0407907
-0.0363551
-0.0340026
-0.036055
-0.042794
-0.0550918
-0.075451
-0.10253
-0.128147
-0.141266
-0.135751
-0.114876
-0.0883947
-0.0647955
-0.0461805
-0.0329014
-0.0238534
-0.0171393
-0.0423655
-0.0355826
-0.0339557
-0.0365037
-0.0391334
-0.0385968
-0.034506
-0.0323773
-0.0346266
-0.041575
-0.05412
-0.0748227
-0.102404
-0.128648
-0.142345
-0.137164
-0.116215
-0.0893635
-0.065287
-0.0462604
-0.032652
-0.0233674
-0.0164933
-0.0415965
-0.0344474
-0.0323551
-0.0345326
-0.0370244
-0.0365108
-0.0327021
-0.0307774
-0.0332016
-0.0403352
-0.0531018
-0.0741244
-0.102195
-0.129062
-0.143347
-0.13852
-0.117523
-0.0903248
-0.0657838
-0.0463501
-0.0324167
-0.0229008
-0.0158738
-0.0408733
-0.033371
-0.0308226
-0.0326353
-0.0349902
-0.0345179
-0.0309454
-0.0292057
-0.0317826
-0.0390769
-0.0520393
-0.0733572
-0.101901
-0.129389
-0.14427
-0.139818
-0.118799
-0.0912786
-0.0662865
-0.0464501
-0.0321956
-0.0224528
-0.01528
-0.0401897
-0.032348
-0.0293535
-0.0308064
-0.0330269
-0.0326046
-0.0292369
-0.0276644
-0.0303723
-0.0378026
-0.0509345
-0.0725224
-0.101524
-0.129631
-0.145116
-0.141059
-0.120043
-0.0922235
-0.066793
-0.0465584
-0.0319869
-0.0220214
-0.0147096
-0.0395359
-0.031373
-0.027945
-0.0290422
-0.0311285
-0.030757
-0.027574
-0.0261533
-0.0289713
-0.0365138
-0.049789
-0.0716219
-0.101065
-0.12979
-0.145888
-0.142247
-0.121253
-0.093153
-0.0672971
-0.0466707
-0.0317877
-0.0216041
-0.0141599
-0.0389402
-0.0304704
-0.0266213
-0.0273687
-0.0293198
-0.0289855
-0.0259642
-0.024677
-0.0275832
-0.035213
-0.0486049
-0.0706575
-0.100527
-0.129866
-0.14658
-0.143374
-0.122415
-0.0940628
-0.0678049
-0.0467957
-0.0316062
-0.0212089
-0.0136398
-0.0384989
-0.029706
-0.0254279
-0.0258381
-0.0276783
-0.0273722
-0.0244721
-0.0232773
-0.0262382
-0.0339218
-0.0473916
-0.0696259
-0.0998923
-0.129818
-0.147123
-0.144357
-0.12351
-0.0949854
-0.0683686
-0.0469798
-0.0314758
-0.020863
-0.0131799
-0.0381583
-0.0290076
-0.0242659
-0.0243344
-0.0261163
-0.02591
-0.023134
-0.0219942
-0.0249738
-0.0326721
-0.046166
-0.0685157
-0.0991145
-0.129579
-0.147479
-0.145159
-0.124616
-0.0959962
-0.0690291
-0.0472348
-0.0313911
-0.0205504
-0.0127576
-0.0372538
-0.0278683
-0.0227108
-0.0223442
-0.0239457
-0.0238904
-0.021402
-0.0204779
-0.023525
-0.0312527
-0.0448354
-0.0674029
-0.0984678
-0.129672
-0.148353
-0.146492
-0.125971
-0.0969708
-0.0694875
-0.0472609
-0.0311119
-0.0200485
-0.0121035
-0.0246731
-0.0189073
-0.0171994
-0.0174284
-0.0168175
-0.0147754
-0.0148909
-0.0182105
-0.026065
-0.0405404
-0.0652127
-0.0992966
-0.1335
-0.154015
-0.153789
-0.129901
-0.0987754
-0.0696446
-0.0465259
-0.0299394
-0.0184273
-0.00992318
-0.0208269
-0.0147179
-0.012608
-0.0128323
-0.0125845
-0.011434
-0.0110431
-0.0144947
-0.0226646
-0.0377951
-0.0634737
-0.0987537
-0.133914
-0.154883
-0.151845
-0.130919
-0.0990775
-0.0689874
-0.0452179
-0.0282447
-0.0164841
-0.00789844
-0.0171248
-0.0108123
-0.00823865
-0.00818206
-0.00800332
-0.00710607
-0.00730334
-0.011168
-0.0198199
-0.0355568
-0.0617401
-0.0973968
-0.133214
-0.155164
-0.153593
-0.13167
-0.0990661
-0.0681156
-0.0437646
-0.0264931
-0.0145653
-0.00592298
-0.0136061
-0.00718886
-0.00422987
-0.00386296
-0.00371093
-0.00304241
-0.00360446
-0.00768041
-0.0166154
-0.0327928
-0.0594095
-0.0956201
-0.13246
-0.155391
-0.154186
-0.131708
-0.0984834
-0.0668937
-0.0421198
-0.0246616
-0.0126478
-0.00399438
-0.0102687
-0.00385129
-0.000607162
-9.72139e-06
7.16399e-05
0.000547481
-0.000176669
-0.00426526
-0.0132558
-0.0296626
-0.0566615
-0.0935525
-0.131298
-0.154752
-0.153654
-0.130864
-0.0972795
-0.0653144
-0.040289
-0.0227572
-0.0107379
-0.00213804
-0.00712425
-0.000803826
0.00262938
0.00340125
0.00341373
0.00371462
0.00290285
-0.0011017
-0.0100146
-0.0264804
-0.053686
-0.0909886
-0.129213
-0.15299
-0.152014
-0.129091
-0.095418
-0.06336
-0.0382751
-0.0207883
-0.00884459
-0.000362779
-0.00417794
0.00196017
0.00549767
0.00640682
0.00634837
0.0064887
0.00563294
0.00176719
-0.00698851
-0.0233574
-0.0504594
-0.0877169
-0.126084
-0.150093
-0.149222
-0.126338
-0.0928655
-0.0610184
-0.0360845
-0.0187655
-0.00697708
0.00132874
-0.00143119
0.00445277
0.00801813
0.00903338
0.00890403
0.00889588
0.00802961
0.00434373
-0.00418592
-0.0202792
-0.0469143
-0.0837092
-0.12194
-0.146009
-0.145218
-0.122566
-0.0896024
-0.0582839
-0.0337265
-0.0167012
-0.00514553
0.0029324
0.00111752
0.00668922
0.0102133
0.0113082
0.0111168
0.0109701
0.0101143
0.00663595
-0.0016041
-0.0172367
-0.0430685
-0.0790171
-0.116754
-0.140664
-0.139961
-0.11776
-0.0856261
-0.0551581
-0.0312128
-0.0146094
-0.0033616
0.00444228
0.00347178
0.00868743
0.0121093
0.0132594
0.0130219
0.0127474
0.0119116
0.00865042
0.000744165
-0.0142688
-0.0389873
-0.0736559
-0.110471
-0.134008
-0.133436
-0.111931
-0.0809531
-0.0516525
-0.0285578
-0.0125051
-0.00163775
0.00585158
0.00563662
0.0104672
0.0137349
0.0149148
0.014651
0.0142634
0.0134464
0.0103924
0.00283473
-0.0114299
-0.0347164
-0.0676157
-0.103061
-0.126023
-0.125661
-0.10512
-0.0756222
-0.0477895
-0.0257785
-0.0104035
1.37306e-05
0.00715309
0.00761773
0.0120492
0.0151211
0.016303
0.0160317
0.0155499
0.0147422
0.0118664
0.00464778
-0.00875494
-0.0302794
-0.0609086
-0.0945374
-0.116737
-0.116694
-0.097403
-0.0696962
-0.0436037
-0.0228941
-0.00831975
0.00158162
0.00833991
0.00942086
0.0134538
0.0162997
0.0174549
0.0171896
0.0166354
0.0158178
0.0130797
0.00617823
-0.00625722
-0.0257016
-0.0535786
-0.0849597
-0.10623
-0.106641
-0.088891
-0.0632621
-0.0391428
-0.0199264
-0.00626763
0.00305677
0.00940665
0.0110517
0.0147004
0.0173023
0.0184044
0.0181515
0.0175467
0.0167011
0.0140484
0.00743879
-0.00393319
-0.0210101
-0.0456943
-0.0744398
-0.094649
-0.0956621
-0.079732
-0.0564298
-0.0344672
-0.0168996
-0.00425933
0.00443308
0.0103507
0.0125164
0.015806
0.0181585
0.0191878
0.0189481
0.0183144
0.017427
0.0148042
0.00846645
-0.0017539
-0.0162211
-0.0373478
-0.0631542
-0.0822136
-0.0839719
-0.0701074
-0.0493286
-0.0296482
-0.0138401
-0.00230472
0.00570815
0.0111735
0.0138219
0.016785
0.0188952
0.0198411
0.0196157
0.0189748
0.0180412
0.0154053
0.00933676
0.000350154
-0.0113313
-0.028661
-0.0513478
-0.0692164
-0.0718414
-0.0602273
-0.0421013
-0.0247657
-0.0107766
-0.000411164
0.00688373
0.0118814
0.0149772
0.0176487
0.0195349
0.0203972
0.0201924
0.0195705
0.0186091
0.0159453
0.0101773
0.00249738
-0.00631833
-0.01979
-0.0393308
-0.0560185
-0.0595847
-0.0503183
-0.0348965
-0.0199043
-0.0077396
0.00141651
0.00796576
0.0124857
0.0159927
0.0184057
0.0200957
0.0208837
0.0207137
0.0201441
0.0192049
0.0165538
0.011169
0.00485233
-0.00114755
-0.0109251
-0.0274718
-0.0430282
-0.0475347
-0.0406089
-0.0278592
-0.0151479
-0.00476052
0.0031756
0.00896401
0.0130023
0.0168804
0.0190639
0.0205898
0.0213209
0.0212081
0.0207293
0.0198896
0.0173776
0.0125234
0.00760888
0.00421179
-0.00229036
-0.0161741
-0.0306642
-0.0360205
-0.0313146
-0.0211215
-0.0105753
-0.00187111
0.00486502
0.00989136
0.0134507
0.0176525
0.0196315
0.0210252
0.021722
0.0216926
0.0213477
0.0206963
0.0185092
0.0144156
0.0109388
0.00975789
0.00585942
-0.00583596
-0.0193101
-0.0253341
-0.0226208
-0.0147948
-0.00625436
0.000897901
0.00648456
0.0107626
0.0138526
0.0183202
0.0201172
0.0214071
0.0220943
0.0221733
0.0220043
0.0216296
0.0200414
0.0169172
0.01489
0.0153925
0.0132459
0.00320827
-0.00925278
-0.0156847
-0.0146686
-0.00896317
-0.00223889
0.00351806
0.00803398
0.011593
0.014231
0.0188936
0.0205298
0.0217394
0.0224396
0.022647
0.0226845
0.0226472
0.0218293
0.0198899
0.019257
0.0208405
0.019589
0.0107554
-0.000634913
-0.00718959
-0.00754942
-0.00368231
0.00143409
0.00596466
0.00951183
0.0123965
0.0146079
0.0193808
0.0208774
0.0220254
0.0227562
0.0231037
0.023361
0.0236777
0.0236264
0.0229638
0.0235521
0.0256641
0.0246653
0.0167761
0.00654151
9.77522e-05
-0.00130836
0.0010196
0.00474441
0.00821836
0.0109148
0.0131829
0.0150012
0.0197889
0.0211661
0.0222674
0.0230398
0.0235298
0.0240026
0.0246533
0.0252622
0.0257256
0.0272215
0.0294431
0.0283953
0.0213881
0.0123648
0.00616674
0.00405097
0.00513879
0.00768757
0.0102666
0.0122376
0.0139574
0.0154217
0.0201238
0.0214005
0.0224667
0.0232848
0.0239095
0.0245787
0.0255177
0.0266343
0.0278961
0.029906
0.0319898
0.0308718
0.0247761
0.0169579
0.0111437
0.00856457
0.00869229
0.0102722
0.0121044
0.0134742
0.0147206
0.0158731
0.0203909
0.0215839
0.0226235
0.0234856
0.0242287
0.0250613
0.02619
0.0276508
0.029367
0.0315616
0.0334024
0.0323056
0.027134
0.0204576
0.0151497
0.0122905
0.0117126
0.0125169
0.013734
0.0146182
0.0154692
0.0163522
0.0205949
0.0217185
0.0227371
0.0236369
0.0244773
0.0254353
0.0266939
0.0283168
0.0302142
0.0323698
0.0339389
0.0329454
0.0286505
0.0230155
0.0182473
0.0153014
0.0142428
0.0144462
0.015164
0.0156642
0.016196
0.01685
0.02074
0.0218061
0.0228063
0.0237348
0.0246485
0.025692
0.0270143
0.028676
0.0305749
0.0325667
0.0338741
0.0330221
0.0295083
0.024796
0.0205766
0.017688
0.0163325
0.0160878
0.0164073
0.0166092
0.0168921
0.0173534
0.0208305
0.0218482
0.0228307
0.0237775
0.0247396
0.0258319
0.0271651
0.0287849
0.0305824
0.0323568
0.0334306
0.0327241
0.029876
0.0259643
0.0222794
0.0195452
0.0180338
0.0174698
0.017479
0.0174527
0.0175479
0.0178489
0.0208704
0.0218467
0.0228108
0.0237645
0.0247525
0.0258628
0.027168
0.0286987
0.0303448
0.0318909
0.0327664
0.0321924
0.0298965
0.0266676
0.0234841
0.0209613
0.0193974
0.0186199
0.0183946
0.0181971
0.0181547
0.0183247
0.0208638
0.021804
0.0227478
0.0236982
0.0246922
0.0257966
0.0270469
0.0284654
0.0299427
0.0312727
0.0319855
0.0315255
0.0296807
0.0270268
0.0242994
0.0220157
0.0204713
0.0195644
0.0191693
0.0188465
0.0187057
0.0187708
0.0208147
0.0217226
0.0226441
0.0235821
0.0245654
0.0256437
0.0268253
0.0281241
0.0294343
0.0305712
0.0311541
0.0307898
0.0293102
0.0271354
0.0248149
0.0227771
0.0212996
0.0203279
0.0198169
0.019406
0.0191964
0.0191788
0.0207273
0.0216056
0.0225029
0.0234211
0.0243803
0.0254041
0.0265243
0.0277063
0.0288611
0.0298317
0.0303129
0.0300282
0.0288432
0.0270649
0.0251014
0.0233033
0.0219217
0.0209334
0.0203504
0.0198811
0.0196243
0.0195418
0.020606
0.0214568
0.0223283
0.0232211
0.0241491
0.0251247
0.0261665
0.027237
0.0282528
0.0290835
0.0294863
0.029268
0.0283203
0.0268686
0.0252148
0.023642
0.0223725
0.0214019
0.0207816
0.0202775
0.019989
0.019856
0.0204551
0.0212799
0.0221244
0.0229882
0.02388
0.024805
0.0257687
0.0267359
0.0276302
0.0283453
0.0286886
0.0285258
0.0277695
0.0265866
0.0251987
0.0238326
0.0226819
0.0217528
0.0211216
0.0206012
0.0202923
0.0201202
0.020279
0.0210789
0.0218958
0.0227283
0.0235811
0.0244543
0.0253437
0.0262178
0.027008
0.0276286
0.0279274
0.0278114
0.0272101
0.026248
0.0250871
0.0239074
0.0228757
0.0220034
0.0213808
0.0208585
0.0205374
0.0203352
0.0203531
0.0200817
0.0208577
0.021647
0.0224472
0.0232599
0.0240815
0.0249024
0.0256941
0.026396
0.0269402
0.0272063
0.0271302
0.0266549
0.0258741
0.0249062
0.0238928
0.0229761
0.0221693
0.021569
0.0210556
0.0207285
0.0205036
0.0204747
0.0198675
0.0206204
0.0213822
0.02215
0.0229228
0.023695
0.0244536
0.0251732
0.0258011
0.0262839
0.0265263
0.0264845
0.0261124
0.0254807
0.0246764
0.0238097
0.0230015
0.0222642
0.0216954
0.0211987
0.0208703
0.020629
0.0205589
0.0196402
0.0203708
0.0211056
0.0218416
0.0225759
0.0233016
0.0240041
0.0246613
0.0252277
0.0256615
0.0258872
0.025875
0.0255878
0.0250793
0.0244134
0.0236753
0.0229673
0.0223003
0.0217683
0.021294
0.0209683
0.0207155
0.02061
0.0194037
0.0201124
0.0208211
0.0215262
0.022224
0.0229066
0.0235595
0.024163
0.0246785
0.0250733
0.0252877
0.0253012
0.0250843
0.0246778
0.024129
0.0235032
0.0228867
0.0222882
0.0217958
0.0213476
0.0210274
0.0207675
0.0206326
0.0191614
0.0198488
0.0205323
0.021208
0.0218715
0.0225151
0.0231239
0.0236815
0.0241551
0.024519
0.0247261
0.0247622
0.0246039
0.0242821
0.0238323
0.0233042
0.0227701
0.0222369
0.0217851
0.0213649
0.0210529
0.0207893
0.0206304
0.0189164
0.0195832
0.0202424
0.0208903
0.0215221
0.0221302
0.0227006
0.0232191
0.0236582
0.0239977
0.0242005
0.0242564
0.0241472
0.023896
0.0235304
0.0230874
0.0226267
0.0221545
0.0217426
0.0213514
0.0210494
0.0207852
0.0206073
0.0186716
0.0193184
0.0199546
0.0205763
0.0211788
0.0217549
0.0222918
0.0227772
0.0231881
0.0235085
0.023709
0.0237825
0.0237145
0.0235227
0.0232285
0.0228594
0.0224637
0.0220475
0.0216742
0.0213121
0.0210215
0.0207591
0.0205664
0.0184297
0.019057
0.0196712
0.0202685
0.0208442
0.0213917
0.0218996
0.0223569
0.0227446
0.02305
0.0232498
0.0233389
0.0233059
0.0231641
0.0229306
0.0226258
0.022287
0.0219219
0.0215851
0.0212513
0.0209733
0.0207146
0.0205108
0.0181929
0.0188012
0.0193947
0.0199694
0.0205207
0.0210426
0.0215251
0.0219588
0.0223275
0.0226212
0.0228214
0.0229241
0.0229207
0.0228212
0.0226394
0.0223913
0.0221015
0.0217823
0.0214798
0.0211734
0.0209084
0.0206549
0.0204431
0.0179632
0.0185532
0.019127
0.0196808
0.02021
0.020709
0.0211695
0.0215832
0.0219363
0.0222208
0.0224221
0.0225369
0.0225587
0.0224946
0.0223568
0.0221605
0.0219109
0.0216331
0.0213624
0.0210819
0.0208303
0.0205831
0.0203659
0.0177425
0.0183148
0.0188699
0.0194043
0.0199136
0.0203924
0.0208337
0.0212303
0.0215707
0.021848
0.0220508
0.0221763
0.0222193
0.0221848
0.0220831
0.0219362
0.021717
0.0214775
0.0212365
0.0209804
0.0207421
0.0205021
0.0202816
0.0175322
0.0180875
0.018625
0.0191415
0.0196326
0.0200936
0.0205183
0.0209001
0.02123
0.0215018
0.0217064
0.0218413
0.0219022
0.0218921
0.0218155
0.0216618
0.021519
0.0213188
0.0211055
0.020872
0.0206467
0.0204142
0.0201922
0.0173336
0.0178725
0.0183936
0.0188935
0.0193683
0.0198135
0.0202235
0.0205928
0.020914
0.0211816
0.0213881
0.0215312
0.0216078
0.0216192
0.0215697
0.0214604
0.021333
0.0211618
0.0209725
0.0207597
0.0205468
0.0203218
0.0200997
0.0171478
0.0176712
0.0181768
0.0186614
0.0191215
0.0195527
0.0199499
0.0203085
0.0206224
0.0208867
0.0210952
0.0212457
0.0213357
0.0213661
0.0213409
0.0212634
0.0211558
0.0210087
0.0208404
0.0206459
0.0204447
0.0202273
0.0200059
0.0169757
0.0174843
0.0179756
0.0184463
0.0188929
0.0193117
0.0196979
0.0200474
0.0203552
0.0206168
0.0208272
0.0209842
0.021086
0.0211327
0.0211283
0.0210752
0.0209874
0.0208612
0.0207113
0.0205332
0.0203428
0.0201327
0.0199128
0.016818
0.0173129
0.0177909
0.0182488
0.0186835
0.0190913
0.019468
0.0198101
0.0201123
0.0203717
0.0205839
0.0207467
0.0208584
0.0209192
0.0209321
0.0208988
0.020829
0.0207212
0.0205873
0.0204236
0.0202431
0.02004
0.0198222
0.0166755
0.0171576
0.0176234
0.0180699
0.0184939
0.018892
0.0192605
0.0195957
0.0198937
0.0201514
0.0203652
0.0205329
0.0206532
0.0207257
0.0207531
0.0207362
0.0206822
0.0205903
0.0204703
0.0203193
0.0201477
0.0199509
0.0197355
0.0165486
0.0170191
0.0174739
0.0179101
0.0183247
0.0187143
0.0190757
0.0194053
0.0196996
0.019956
0.0201712
0.020343
0.0204705
0.0205529
0.0205923
0.0205889
0.0205484
0.0204702
0.0203622
0.0202221
0.0200584
0.0198674
0.0196544
0.0164378
0.016898
0.0173431
0.0177703
0.0181767
0.0185591
0.0189143
0.0192393
0.0195307
0.0197858
0.0200021
0.0201774
0.0203109
0.0204013
0.0204506
0.0204583
0.0204292
0.0203624
0.0202646
0.0201338
0.0199771
0.0197911
0.0195805
0.0163437
0.0167949
0.0172317
0.0176512
0.0180506
0.0184269
0.0187771
0.0190981
0.019387
0.0196412
0.0198585
0.0200367
0.0201749
0.0202719
0.0203291
0.0203459
0.020326
0.0202687
0.0201793
0.0200562
0.0199053
0.0197237
0.0195153
0.0162669
0.0167106
0.0171405
0.0175536
0.0179474
0.0183187
0.0186647
0.0189826
0.0192697
0.0195231
0.0197411
0.0199215
0.0200635
0.0201656
0.020229
0.0202529
0.0202403
0.0201905
0.0201078
0.019991
0.0198448
0.0196668
0.0194603
0.0162079
0.0166458
0.0170703
0.0174786
0.0178679
0.0182354
0.0185784
0.0188939
0.0191794
0.0194324
0.0196509
0.019833
0.0199777
0.0200836
0.0201517
0.0201808
0.0201737
0.0201294
0.0200519
0.0199398
0.0197972
0.0196219
0.019417
0.0161675
0.0166014
0.0170222
0.0174271
0.0178134
0.0181783
0.0185192
0.0188331
0.0191176
0.0193703
0.0195892
0.0197723
0.0199188
0.0200273
0.0200984
0.0201311
0.0201276
0.0200871
0.0200131
0.0199041
0.019764
0.0195907
0.0193868
0.0161467
0.0165785
0.0169974
0.0174006
0.0177854
0.0181489
0.0184886
0.0188017
0.0190858
0.0193383
0.0195573
0.019741
0.0198885
0.0199983
0.0200709
0.0201054
0.0201037
0.0200651
0.0199927
0.0198856
0.0197467
0.0195744
0.019371
0.0202189
0.02045
0.0206694
0.0208747
0.0210637
0.0212349
0.0213863
0.0215172
0.021626
0.0217125
0.0217755
0.0218149
0.0218297
0.0218197
0.0217835
0.0217209
0.0216298
0.0215093
0.0213572
0.0211722
0.0209518
0.0206951
0.0203996
0.0202346
0.020468
0.0206891
0.0208958
0.0210857
0.0212573
0.0214089
0.0215396
0.021648
0.0217341
0.0217964
0.0218354
0.0218496
0.0218393
0.0218029
0.0217402
0.0216491
0.0215287
0.0213767
0.0211917
0.0209711
0.0207142
0.0204181
0.0202655
0.0205033
0.0207278
0.0209369
0.0211285
0.0213009
0.0214527
0.021583
0.0216907
0.0217757
0.021837
0.0218748
0.0218881
0.021877
0.0218402
0.0217773
0.0216862
0.021566
0.0214143
0.0212294
0.0210086
0.0207511
0.0204538
0.0203118
0.0205557
0.0207851
0.0209977
0.0211914
0.0213649
0.0215167
0.0216464
0.0217528
0.0218362
0.0218956
0.0219318
0.0219436
0.0219314
0.0218939
0.021831
0.0217399
0.0216201
0.0214689
0.0212842
0.0210633
0.0208048
0.0205059
0.0203738
0.0206256
0.020861
0.0210778
0.021274
0.0214486
0.0216002
0.0217287
0.0218331
0.0219141
0.0219711
0.0220049
0.0220147
0.0220011
0.0219626
0.021899
0.0218088
0.0216898
0.0215393
0.021355
0.0211341
0.0208744
0.0205734
0.0204526
0.0207137
0.020956
0.0211775
0.0213764
0.0215518
0.0217026
0.021829
0.0219306
0.0220084
0.022062
0.0220927
0.0220999
0.0220845
0.0220451
0.0219815
0.0218919
0.0217738
0.0216247
0.0214411
0.0212203
0.0209592
0.0206556
0.0205492
0.0208207
0.0210707
0.0212972
0.0214985
0.0216741
0.0218233
0.0219468
0.0220444
0.0221178
0.0221669
0.0221938
0.0221977
0.0221802
0.0221398
0.0220763
0.0219877
0.0218712
0.0217241
0.0215417
0.0213213
0.0210587
0.0207519
0.0206651
0.0209481
0.0212061
0.0214374
0.0216406
0.0218156
0.0219619
0.0220811
0.0221733
0.0222411
0.0222846
0.0223066
0.0223065
0.0222865
0.0222451
0.022182
0.022095
0.021981
0.0218367
0.0216562
0.0214367
0.0211724
0.0208618
0.0208021
0.0210972
0.0213634
0.021599
0.0218031
0.0219761
0.0221181
0.0222314
0.0223165
0.0223771
0.0224135
0.0224295
0.0224248
0.0224019
0.0223594
0.0222972
0.0222127
0.022102
0.0219617
0.021784
0.0215661
0.0213
0.0209851
0.0209622
0.0212697
0.0215437
0.0217829
0.0219866
0.0221559
0.0222916
0.0223968
0.0224728
0.0225243
0.0225521
0.0225609
0.0225506
0.0225246
0.0224812
0.0224205
0.0223394
0.0222334
0.0220984
0.0219247
0.0217094
0.0214415
0.0211214
0.0211475
0.0214674
0.0217486
0.02199
0.0221914
0.0223549
0.0224818
0.0225765
0.0226411
0.0226814
0.0226987
0.0226991
0.0226823
0.0226528
0.0226086
0.0225502
0.0224739
0.0223741
0.0222464
0.0220782
0.0218665
0.0215967
0.0212707
0.0213604
0.0216924
0.0219796
0.0222214
0.0224183
0.0225732
0.0226883
0.0227697
0.02282
0.0228467
0.0228515
0.0228419
0.0228179
0.0227846
0.02274
0.0226847
0.0226148
0.0225233
0.022405
0.0222443
0.0220377
0.0217661
0.021433
0.0216033
0.0219468
0.0222384
0.0224783
0.0226676
0.0228106
0.0229106
0.0229752
0.023008
0.0230184
0.0230085
0.0229875
0.022955
0.0229178
0.0228733
0.0228224
0.0227608
0.0226799
0.0225738
0.0224229
0.0222232
0.0219498
0.0216084
0.0218792
0.0222328
0.0225268
0.0227617
0.02294
0.023067
0.0231478
0.0231917
0.0232034