/*--------------------------------*- C++ -*----------------------------------*\
  =========                 |
  \\      /  F ield         | OpenFOAM: The Open Source CFD Toolbox
   \\    /   O peration     | Website:  https://openfoam.org
    \\  /    A nd           | Version:  7
     \\/     M anipulation  |
\*---------------------------------------------------------------------------*/
FoamFile
{
    version     2.0;
    format      ascii;
    class       volScalarField;
    location    "160";
    object      p;
}
// * * * * * * * * * * * * * * * * * * * * * * * * * * * * * * * * * * * * * //

dimensions      [0 2 -2 0 0 0 0];

internalField   nonuniform List<scalar> 
4575
(
-0.11686
-0.0958119
-0.0819538
-0.0746239
-0.0729127
-0.0780107
-0.0899647
-0.103955
-0.111817
-0.108169
-0.0953121
-0.0803305
-0.0683015
-0.0604954
-0.0569396
-0.0585642
-0.0645607
-0.0705455
-0.0715271
-0.0665269
-0.0585831
-0.0513443
-0.046036
-0.0433374
-0.118542
-0.0967794
-0.0822819
-0.0743948
-0.0721462
-0.076642
-0.0879708
-0.101452
-0.109088
-0.105569
-0.0931536
-0.0787833
-0.0673879
-0.0601647
-0.0571716
-0.0593872
-0.0659603
-0.072395
-0.0735474
-0.0683915
-0.0600325
-0.0522914
-0.0464734
-0.0432542
-0.120175
-0.0977031
-0.0825705
-0.0741301
-0.0713487
-0.0752443
-0.0859482
-0.0989233
-0.106339
-0.102955
-0.0909843
-0.0772216
-0.066454
-0.0598119
-0.0573841
-0.0601959
-0.0673529
-0.0742453
-0.0755741
-0.0702625
-0.0614818
-0.0532313
-0.046902
-0.0431662
-0.121761
-0.0985843
-0.0828215
-0.0738327
-0.0705234
-0.0738218
-0.0839017
-0.0963731
-0.103574
-0.100333
-0.088806
-0.0756458
-0.0654995
-0.0594361
-0.0575755
-0.060988
-0.0687355
-0.0760936
-0.0776051
-0.0721384
-0.0629303
-0.0541639
-0.0473224
-0.043074
-0.123299
-0.0994243
-0.083037
-0.0735051
-0.0696738
-0.0723788
-0.0818362
-0.0938065
-0.100798
-0.0977035
-0.0866204
-0.0740566
-0.0645241
-0.0590362
-0.0577439
-0.0617608
-0.070105
-0.0779366
-0.0796376
-0.0740178
-0.0643775
-0.0550893
-0.047735
-0.0429784
-0.124789
-0.100224
-0.0832194
-0.07315
-0.0688032
-0.0709196
-0.0797567
-0.0912284
-0.0980151
-0.0950707
-0.0844295
-0.0724548
-0.0635277
-0.0586112
-0.0578877
-0.0625118
-0.0714583
-0.0797713
-0.0816694
-0.0758991
-0.065823
-0.0560075
-0.0481402
-0.0428801
-0.126232
-0.100986
-0.0833707
-0.0727702
-0.0679148
-0.0694483
-0.077668
-0.0886439
-0.0952293
-0.0924372
-0.0822352
-0.0708411
-0.0625101
-0.0581604
-0.0580051
-0.0632386
-0.0727923
-0.0815946
-0.0836977
-0.0777808
-0.0672661
-0.0569187
-0.0485384
-0.0427798
-0.127628
-0.10171
-0.0834933
-0.0723685
-0.067012
-0.067969
-0.0755747
-0.0860577
-0.0924447
-0.0898061
-0.0800393
-0.0692164
-0.0614714
-0.0576829
-0.0580944
-0.0639387
-0.074104
-0.0834031
-0.0857201
-0.0796615
-0.0687063
-0.0578228
-0.0489301
-0.042678
-0.128977
-0.1024
-0.0835895
-0.0719474
-0.0660978
-0.0664857
-0.0734816
-0.0834745
-0.0896654
-0.0871803
-0.0778437
-0.0675816
-0.0604115
-0.057178
-0.058154
-0.0646094
-0.0753902
-0.0851937
-0.0877339
-0.0815394
-0.0701432
-0.0587201
-0.0493157
-0.0425755
-0.130281
-0.103055
-0.0836615
-0.0715097
-0.0651755
-0.0650023
-0.0713932
-0.0808991
-0.0868955
-0.0845626
-0.0756506
-0.0659378
-0.0593306
-0.0566449
-0.0581824
-0.0652483
-0.0766477
-0.0869632
-0.0897364
-0.083413
-0.0715763
-0.0596107
-0.0496956
-0.0424728
-0.103678
-0.0837118
-0.0710581
-0.064248
-0.0635225
-0.0693138
-0.0783359
-0.0841391
-0.081956
-0.0734619
-0.064286
-0.058229
-0.0560831
-0.058178
-0.065853
-0.0778734
-0.0887083
-0.091725
-0.0852806
-0.0730049
-0.0604946
-0.0500702
-0.0423703
-0.104271
-0.0837425
-0.0705952
-0.0633183
-0.0620499
-0.0672478
-0.0757895
-0.0813999
-0.0793633
-0.0712796
-0.0626274
-0.0571071
-0.0554922
-0.0581394
-0.0664212
-0.0790645
-0.0904259
-0.093697
-0.0871407
-0.0744287
-0.0613721
-0.0504399
-0.0422688
-0.104835
-0.0837559
-0.0701236
-0.0623892
-0.0605879
-0.0651991
-0.0732641
-0.078682
-0.0767873
-0.0691059
-0.0609633
-0.0559652
-0.0548716
-0.0580651
-0.0669505
-0.0802177
-0.0921127
-0.0956498
-0.0889915
-0.075847
-0.0622433
-0.0508052
-0.0421686
-0.105372
-0.0837543
-0.0696457
-0.0614634
-0.0591398
-0.0631718
-0.0707638
-0.075989
-0.0742308
-0.0669427
-0.0592949
-0.0548039
-0.0542211
-0.0579539
-0.0674386
-0.0813302
-0.0937656
-0.0975805
-0.0908314
-0.0772593
-0.0631083
-0.0511664
-0.0420702
-0.105884
-0.0837398
-0.069164
-0.0605435
-0.0577087
-0.0611695
-0.0682926
-0.0733248
-0.0716965
-0.0647924
-0.0576236
-0.0536239
-0.0535405
-0.0578046
-0.0678834
-0.0823991
-0.0953815
-0.0994866
-0.0926586
-0.0786651
-0.0639674
-0.0515239
-0.0419741
-0.106372
-0.0837146
-0.0686808
-0.0596321
-0.0562974
-0.0591956
-0.0658542
-0.0706928
-0.0691873
-0.0626569
-0.055951
-0.0524259
-0.0528297
-0.0576161
-0.068283
-0.0834217
-0.0969574
-0.101365
-0.0944714
-0.0800637
-0.0648207
-0.0518782
-0.0418806
-0.106837
-0.0836807
-0.0681986
-0.0587315
-0.0549086
-0.0572535
-0.0634523
-0.0680965
-0.0666931
-0.0605385
-0.0542783
-0.0512107
-0.0520886
-0.0573875
-0.0686352
-0.0843953
-0.0984903
-0.103214
-0.096268
-0.0814545
-0.0656683
-0.0522296
-0.0417902
-0.107283
-0.0836401
-0.0677193
-0.0578438
-0.0535448
-0.0553461
-0.06109
-0.0655398
-0.0642191
-0.058439
-0.0526073
-0.0499793
-0.0513175
-0.0571178
-0.0689384
-0.0853174
-0.0999775
-0.10503
-0.0980468
-0.082837
-0.0665105
-0.0525784
-0.0417033
-0.107709
-0.0835948
-0.0672453
-0.0569713
-0.0522083
-0.0534763
-0.0587705
-0.0630261
-0.0622513
-0.0563609
-0.0509395
-0.0487326
-0.0505164
-0.0568063
-0.0691909
-0.0861855
-0.101416
-0.106812
-0.099806
-0.0842104
-0.0673475
-0.0529251
-0.0416201
-0.108118
-0.0835466
-0.0667784
-0.0561159
-0.0509011
-0.0516465
-0.0564966
-0.0605545
-0.059838
-0.0543054
-0.0492765
-0.0474719
-0.0496858
-0.0564523
-0.069391
-0.0869973
-0.102803
-0.108555
-0.101544
-0.0855741
-0.0681793
-0.0532699
-0.041541
-0.108511
-0.0834973
-0.0663206
-0.0552794
-0.0496253
-0.049859
-0.0542709
-0.0581281
-0.0574694
-0.0522754
-0.0476199
-0.0461983
-0.0488261
-0.0560555
-0.0695373
-0.0877507
-0.104137
-0.110259
-0.103258
-0.0869273
-0.0690061
-0.0536134
-0.0414662
-0.10889
-0.0834484
-0.0658737
-0.0544635
-0.0483825
-0.0481158
-0.0520956
-0.0557509
-0.0551558
-0.050272
-0.0459713
-0.0449132
-0.0479379
-0.0556154
-0.0696286
-0.0884438
-0.105414
-0.11192
-0.104948
-0.0882694
-0.0698281
-0.0539557
-0.0413962
-0.109256
-0.0834015
-0.0654394
-0.0536699
-0.0471742
-0.0464186
-0.049973
-0.0534253
-0.0528898
-0.0482978
-0.0443324
-0.0436178
-0.0470218
-0.0551319
-0.0696638
-0.0890746
-0.106633
-0.113536
-0.106611
-0.0895994
-0.0706455
-0.0542972
-0.041331
-0.10961
-0.0833582
-0.0650192
-0.0528999
-0.0460017
-0.0447688
-0.0479049
-0.0511537
-0.0506743
-0.0463548
-0.042705
-0.0423137
-0.0460787
-0.0546048
-0.069642
-0.0896415
-0.107791
-0.115105
-0.108245
-0.0909166
-0.0714582
-0.0546383
-0.041271
-0.109954
-0.0833197
-0.0646146
-0.052155
-0.0448664
-0.0431678
-0.0458929
-0.0489382
-0.0485099
-0.0444452
-0.0410907
-0.0410025
-0.0451094
-0.0540342
-0.0695622
-0.090143
-0.108887
-0.116625
-0.109849
-0.0922201
-0.0722664
-0.0549794
-0.0412165
-0.110288
-0.0832874
-0.0642271
-0.0514363
-0.0437691
-0.0416165
-0.0439383
-0.0467806
-0.046397
-0.042571
-0.0394914
-0.0396856
-0.044115
-0.0534203
-0.069424
-0.0905779
-0.109919
-0.118094
-0.111422
-0.093509
-0.0730701
-0.0553206
-0.0411675
-0.110615
-0.0832625
-0.0638577
-0.0507449
-0.0427108
-0.0401156
-0.0420422
-0.0446822
-0.0443369
-0.0407345
-0.0379086
-0.0383648
-0.0430967
-0.0527636
-0.0692267
-0.0909448
-0.110884
-0.11951
-0.112961
-0.0947824
-0.0738695
-0.0556624
-0.0411244
-0.110934
-0.083246
-0.0635076
-0.0500819
-0.0416923
-0.0386657
-0.0402052
-0.0426445
-0.0423309
-0.0389379
-0.0363442
-0.0370419
-0.0420556
-0.0520644
-0.0689702
-0.091243
-0.111782
-0.120871
-0.114464
-0.0960394
-0.0746644
-0.0560049
-0.0410873
-0.111247
-0.083239
-0.063178
-0.0494481
-0.0407141
-0.0372671
-0.0384279
-0.0406682
-0.0403803
-0.0371833
-0.0347997
-0.0357186
-0.0409931
-0.0513234
-0.0686543
-0.0914715
-0.112611
-0.122175
-0.115931
-0.0972789
-0.0754548
-0.0563487
-0.0410563
-0.111555
-0.0832423
-0.0628694
-0.0488442
-0.0397768
-0.03592
-0.0367104
-0.0387542
-0.0384861
-0.0354729
-0.0332769
-0.0343968
-0.0399107
-0.0505414
-0.068279
-0.0916297
-0.11337
-0.12342
-0.117359
-0.0984998
-0.0762407
-0.0566938
-0.0410318
-0.111858
-0.0832564
-0.0625826
-0.0482708
-0.0388806
-0.0346243
-0.0350525
-0.0369028
-0.0366492
-0.0338091
-0.0317773
-0.0330783
-0.0388099
-0.0497194
-0.0678446
-0.0917173
-0.114057
-0.124606
-0.118748
-0.0997012
-0.0770219
-0.0570406
-0.0410137
-0.112157
-0.0832824
-0.0623184
-0.0477287
-0.038026
-0.0333801
-0.033454
-0.0351144
-0.0348704
-0.0321939
-0.0303027
-0.0317652
-0.0376923
-0.0488583
-0.0673513
-0.091734
-0.114673
-0.125731
-0.120094
-0.100882
-0.0777982
-0.0573894
-0.0410023
-0.112455
-0.083323
-0.062079
-0.0472195
-0.037214
-0.0321877
-0.0319147
-0.0333894
-0.0331506
-0.0306299
-0.0288548
-0.0304595
-0.0365596
-0.0479594
-0.0667997
-0.0916796
-0.115217
-0.126792
-0.121398
-0.10204
-0.0785696
-0.0577407
-0.0409979
-0.112754
-0.0833799
-0.0618653
-0.0467436
-0.0364445
-0.0310464
-0.0304333
-0.0317271
-0.0314904
-0.0291197
-0.0274354
-0.0291636
-0.035414
-0.0470239
-0.0661904
-0.0915542
-0.115686
-0.12779
-0.122656
-0.103176
-0.0793363
-0.058095
-0.0410008
-0.113043
-0.0834426
-0.0616688
-0.0462947
-0.0357125
-0.029952
-0.0290052
-0.0301234
-0.0298869
-0.0276641
-0.0260457
-0.0278792
-0.034257
-0.0460534
-0.0655243
-0.091358
-0.116083
-0.128723
-0.12387
-0.104289
-0.0800973
-0.0584509
-0.0410095
-0.113296
-0.0834902
-0.0614744
-0.0458627
-0.035012
-0.0289015
-0.0276274
-0.0285734
-0.0283343
-0.0262595
-0.0246839
-0.0266068
-0.0330898
-0.0450491
-0.0648027
-0.0910927
-0.116408
-0.129595
-0.125042
-0.105377
-0.0808479
-0.0588042
-0.0410211
-0.113544
-0.0835596
-0.0613155
-0.0454755
-0.034366
-0.0279153
-0.02632
-0.0270974
-0.0268481
-0.0249161
-0.0233557
-0.0253503
-0.0319149
-0.0440127
-0.064027
-0.0907591
-0.116661
-0.130398
-0.126157
-0.106427
-0.0815858
-0.0591598
-0.0410418
-0.113993
-0.0838308
-0.0613308
-0.0452352
-0.0338449
-0.0270393
-0.0251239
-0.0257502
-0.0254948
-0.0237063
-0.0221043
-0.0241414
-0.0307534
-0.0429527
-0.063193
-0.0903387
-0.116802
-0.131074
-0.127164
-0.107432
-0.0823381
-0.0595561
-0.0411034
-0.11471
-0.0843156
-0.0615002
-0.0451049
-0.0333964
-0.0262018
-0.0239513
-0.0244534
-0.0242353
-0.0226615
-0.0209516
-0.023007
-0.0296281
-0.0418791
-0.0622888
-0.089795
-0.116785
-0.131606
-0.128091
-0.108462
-0.0831631
-0.0600218
-0.0412141
-0.114543
-0.0839494
-0.060954
-0.0444009
-0.0325049
-0.0250073
-0.0224017
-0.0226974
-0.0224817
-0.0211435
-0.0195104
-0.0216525
-0.0283219
-0.0407
-0.0613858
-0.0893875
-0.117075
-0.132584
-0.129446
-0.109683
-0.0839533
-0.0603342
-0.0411653
-0.0809936
-0.0580145
-0.041542
-0.0297121
-0.0219223
-0.0184538
-0.0177164
-0.0168022
-0.0141052
-0.0142797
-0.0167159
-0.0236726
-0.0370341
-0.0596872
-0.090338
-0.120557
-0.137541
-0.134583
-0.112938
-0.0853807
-0.0604194
-0.0405549
-0.0761281
-0.0539905
-0.0379708
-0.0262517
-0.0182764
-0.0144522
-0.0135384
-0.0127725
-0.0110934
-0.0105948
-0.0132177
-0.0204796
-0.034527
-0.0582622
-0.0901748
-0.12152
-0.139239
-0.135673
-0.114407
-0.0857544
-0.0597998
-0.0393295
-0.0711198
-0.0498385
-0.0343275
-0.0228448
-0.0148324
-0.0107221
-0.00958808
-0.00886126
-0.00716056
-0.007191
-0.0102085
-0.0178685
-0.0324644
-0.0567928
-0.089264
-0.121343
-0.140013
-0.137108
-0.11544
-0.0858407
-0.0589847
-0.0379809
-0.0657867
-0.0455439
-0.0306696
-0.0195261
-0.0115689
-0.00724622
-0.00588324
-0.0051078
-0.0036772
-0.00385596
-0.00702721
-0.014933
-0.0299586
-0.0548291
-0.0879676
-0.121023
-0.140632
-0.138081
-0.11593
-0.0855034
-0.0578945
-0.0364718
-0.0602363
-0.04115
-0.0270081
-0.0162966
-0.00848462
-0.00402892
-0.00249221
-0.00172987
-0.000568602
-0.000731966
-0.00387643
-0.0118391
-0.0271388
-0.0525152
-0.0864023
-0.120348
-0.140522
-0.138151
-0.115694
-0.0846822
-0.0565186
-0.0348042
-0.0545224
-0.0366991
-0.023371
-0.0131718
-0.00558742
-0.0010752
0.000581755
0.00129495
0.00224979
0.00210574
-0.000935769
-0.00883838
-0.0242644
-0.0499893
-0.0844037
-0.118878
-0.139405
-0.137236
-0.114675
-0.083344
-0.0548474
-0.0329813
-0.0487234
-0.0322406
-0.0197853
-0.0101635
-0.00287998
0.00161951
0.00335683
0.00400697
0.00478713
0.00465327
0.00175159
-0.00601808
-0.0214205
-0.0472248
-0.0817885
-0.11648
-0.137262
-0.135299
-0.112821
-0.0814556
-0.052874
-0.0310097
-0.0429133
-0.0278212
-0.0162769
-0.00728141
-0.000360952
0.00406389
0.00584987
0.00643044
0.00705214
0.00692652
0.00419064
-0.00338102
-0.0185915
-0.0441626
-0.0785203
-0.113181
-0.134064
-0.132286
-0.110088
-0.0789921
-0.0505958
-0.028899
-0.0371649
-0.0234855
-0.0128701
-0.00453277
0.0019739
0.00626834
0.00807621
0.0085882
0.00906325
0.00894271
0.00638833
-0.00092455
-0.0157701
-0.0408106
-0.0746385
-0.108977
-0.129764
-0.128162
-0.106449
-0.0759395
-0.0480148
-0.0266618
-0.0315457
-0.0192739
-0.00958769
-0.00192316
0.00413114
0.00824556
0.0100513
0.0105023
0.0108413
0.0107183
0.00834644
0.0013371
-0.0129884
-0.037217
-0.0701588
-0.103831
-0.124331
-0.122916
-0.101902
-0.0722972
-0.0451386
-0.0243132
-0.026116
-0.0152212
-0.00644977
0.000543314
0.00611932
0.0100107
0.0117906
0.012192
0.0124068
0.012269
0.0100643
0.00337934
-0.0102931
-0.0334189
-0.0650747
-0.0977244
-0.117761
-0.116567
-0.0964672
-0.0680807
-0.0419815
-0.0218709
-0.0209267
-0.0113559
-0.00347342
0.00286361
0.00794838
0.0115813
0.0133106
0.013674
0.0137782
0.0136085
0.0115409
0.00517967
-0.00771979
-0.029439
-0.0593929
-0.0906664
-0.110083
-0.109161
-0.0901939
-0.0633237
-0.0385644
-0.0193542
-0.0160192
-0.00770008
-0.00067198
0.0050354
0.00962903
0.0129763
0.0146297
0.0149635
0.0149721
0.0147507
0.0127774
0.0067251
-0.00529119
-0.0253039
-0.0531441
-0.0826969
-0.101353
-0.100776
-0.0831602
-0.0580795
-0.0349162
-0.016784
-0.0114243
-0.00426957
0.00194536
0.00705696
0.0111721
0.0142161
0.015769
0.0160765
0.0160048
0.0157106
0.0137806
0.00801412
-0.00302144
-0.0210465
-0.0463785
-0.0738854
-0.0916662
-0.0915311
-0.0754756
-0.0524218
-0.0310737
-0.0141816
-0.00716349
-0.00107474
0.00437373
0.00892728
0.0125878
0.015321
0.0167527
0.0170321
0.0168949
0.0165087
0.0145679
0.00906086
-0.000910772
-0.0166973
-0.039164
-0.0643403
-0.081166
-0.081584
-0.0672797
-0.0464432
-0.0270814
-0.0115684
-0.00324925
0.0018787
0.00661224
0.0106465
0.0138849
0.0163107
0.0176068
0.017854
0.0176662
0.0171762
0.0151749
0.00990525
0.00106673
-0.0122771
-0.0315904
-0.0542189
-0.0700476
-0.0711338
-0.0587386
-0.0402531
-0.0229912
-0.00896576
0.00031376
0.00458889
0.00866339
0.0122166
0.0150707
0.0172027
0.0183576
0.0185705
0.0183487
0.0177582
0.0156633
0.0106244
0.00297269
-0.00779503
-0.0237747
-0.0437316
-0.0585595
-0.0604149
-0.0500389
-0.0339727
-0.0188605
-0.00639378
0.00352781
0.00705712
0.0105321
0.0136413
0.0161507
0.0180117
0.0190289
0.0192111
0.018977
0.0183123
0.016123
0.0113381
0.00490671
-0.00325056
-0.0158632
-0.0331418
-0.0469969
-0.0496883
-0.041377
-0.0277287
-0.0147507
-0.00387167
0.00640114
0.00928735
0.012225
0.0149266
0.0171291
0.0187494
0.0196404
0.0198024
0.0195838
0.0188992
0.0166652
0.0122021
0.00699902
0.00136274
-0.00803231
-0.0227572
-0.0356879
-0.0392256
-0.0329469
-0.0216451
-0.0107236
-0.00141734
0.00894699
0.011286
0.0137495
0.0160803
0.0180102
0.0194236
0.0202071
0.0203656
0.0201931
0.0195646
0.0173992
0.0133834
0.0093905
0.00604584
-0.000484991
-0.0129085
-0.0249693
-0.0292902
-0.0249267
-0.015835
-0.00683924
0.000952706
0.0111824
0.0130617
0.0151132
0.0171111
0.0187988
0.0200391
0.0207383
0.0209144
0.020821
0.0203327
0.0184413
0.0150068
0.0121934
0.0107739
0.00656043
-0.00391852
-0.0151515
-0.0201105
-0.0174648
-0.0103928
-0.00315176
0.00322332
0.0131271
0.0146251
0.0163241
0.0180276
0.0195011
0.0205991
0.0212385
0.0214536
0.0214711
0.0211992
0.0196884
0.0170963
0.0154258
0.0154624
0.0128852
0.00394268
-0.00646847
-0.0118486
-0.0106686
-0.00538887
0.000293285
0.0053804
0.0148026
0.0159887
0.0173904
0.0188379
0.0201234
0.0211056
0.0217089
0.0219807
0.0221311
0.0221341
0.021407
0.0195491
0.0189376
0.0199234
0.0182908
0.0105131
0.000961467
-0.00459452
-0.00460115
-0.0008675
0.00346141
0.00741092
0.0162311
0.0171658
0.0183205
0.0195491
0.0206721
0.0215605
0.0221476
0.0224885
0.0227793
0.0230528
0.0229182
0.02208
0.0223936
0.0238692
0.0226346
0.0157715
0.00714072
0.00161593
0.000716307
0.00315186
0.00633056
0.00930333
0.0174349
0.0181708
0.0191231
0.0201678
0.0211524
0.0219654
0.0225501
0.0229665
0.0233947
0.0239118
0.0242885
0.0243812
0.0253965
0.0270134
0.0258753
0.0198189
0.0121577
0.00681373
0.00529594
0.00667122
0.00889143
0.0110481
0.018436
0.0190181
0.0198074
0.0206999
0.0215687
0.0223211
0.0229117
0.023402
0.0239541
0.0246767
0.0254585
0.0262293
0.0276671
0.0292119
0.0280896
0.0228197
0.0161396
0.0111372
0.00917329
0.00970934
0.0111469
0.0126384
0.0192555
0.0197219
0.0203822
0.0211511
0.0219244
0.0226282
0.0232276
0.0237829
0.0244356
0.0253137
0.0263583
0.0275346
0.0291445
0.0305173
0.0294426
0.0249484
0.0192115
0.0146212
0.0123979
0.0122977
0.0131101
0.014071
0.0199138
0.0202962
0.0208566
0.0215265
0.0222222
0.0228867
0.0234936
0.0241004
0.0248266
0.0258032
0.0269814
0.0283397
0.0299418
0.0311107
0.0301322
0.0263694
0.0215025
0.0173612
0.015034
0.014476
0.0148013
0.0153469
0.0204298
0.0207543
0.0212392
0.0218313
0.0224644
0.0230963
0.0237073
0.0243506
0.0251226
0.0261282
0.0273542
0.0287444
0.030234
0.031201
0.0303449
0.027236
0.023147
0.019467
0.0171545
0.0162884
0.0162449
0.0164711
0.0208215
0.0211089
0.0215387
0.0220705
0.0226535
0.0232574
0.0238678
0.0245324
0.0253236
0.0263233
0.0275229
0.0288544
0.0301822
0.0309655
0.0302351
0.0276873
0.0242756
0.0210493
0.0188353
0.0177797
0.0174665
0.0174515
0.0211051
0.0213718
0.0217629
0.0222492
0.022792
0.0233711
0.0239756
0.0246468
0.0254346
0.0264024
0.0275336
0.0287577
0.0299094
0.0305341
0.0299195
0.02784
0.0250072
0.0222093
0.0201463
0.0189924
0.0184911
0.0182981
0.0212957
0.0215543
0.0219198
0.0223723
0.0228829
0.0234393
0.0240325
0.0246974
0.0254653
0.0263835
0.0274248
0.0285209
0.0295023
0.0299951
0.029481
0.0277857
0.025442
0.0230348
0.02115
0.0199657
0.019342
0.0190217
0.0214069
0.0216667
0.0220168
0.0224448
0.0229294
0.0234645
0.0240422
0.0246903
0.0254269
0.0262843
0.0272276
0.0281924
0.0290191
0.0294049
0.0289758
0.0275933
0.0256584
0.0235987
0.0219019
0.020735
0.0200407
0.0196334
0.0214512
0.0217186
0.022061
0.0224715
0.0229352
0.02345
0.0240085
0.0246333
0.0253304
0.0261214
0.0269671
0.0278069
0.0284986
0.0287991
0.0284414
0.0273123
0.0257158
0.0239604
0.0224502
0.0213323
0.0206065
0.0201438
0.0214395
0.0217189
0.022059
0.0224575
0.0229041
0.0233994
0.0239363
0.0245329
0.0251866
0.0259101
0.0266629
0.027389
0.0279658
0.0281998
0.0279015
0.0269776
0.0256597
0.0241674
0.022835
0.0217855
0.0210569
0.0205632
0.0213817
0.0216755
0.0220172
0.0224077
0.02284
0.0233167
0.0238308
0.0243963
0.0250051
0.0256631
0.0263304
0.0269561
0.027437
0.02762
0.0273713
0.026613
0.0255239
0.0242577
0.0230895
0.022119
0.0214076
0.0209014
0.0205738
0.0212866
0.0215958
0.0219416
0.0223268
0.0227471
0.0232061
0.0236972
0.0242304
0.0247945
0.0253909
0.0259813
0.0265202
0.0269225
0.0270665
0.0268594
0.0262351
0.0253333
0.0242604
0.0232414
0.0223536
0.0216728
0.0211676
0.0208232
0.0211621
0.0214865
0.0218375
0.0222193
0.0226295
0.0230717
0.02354
0.0240412
0.0245627
0.0251024
0.0256249
0.0260897
0.026428
0.0265429
0.0263708
0.0258553
0.0251073
0.0241982
0.0233122
0.0225069
0.0218651
0.0213705
0.0210172
0.0210148
0.0213536
0.0217102
0.0220898
0.0224909
0.0229175
0.0233638
0.0238342
0.0243161
0.0248045
0.0252677
0.0256703
0.0259569
0.0260504
0.0259078
0.0254815
0.0248597
0.0240881
0.0233188
0.0225938
0.0219958
0.0215185
0.0211621
0.0208508
0.0212024
0.0215644
0.0219423
0.0223354
0.0227474
0.0231728
0.0236145
0.0240599
0.0245026
0.0249148
0.0252655
0.0255108
0.025589
0.0254716
0.0251184
0.0245999
0.0239437
0.0232733
0.022627
0.0220749
0.021619
0.0212642
0.0206753
0.0210377
0.0214045
0.0217807
0.0221664
0.0225648
0.022971
0.0233862
0.0237986
0.0242011
0.0245698
0.0248776
0.02509
0.0251576
0.0250619
0.024769
0.0243353
0.0237761
0.0231864
0.0226181
0.0221115
0.0216792
0.0213294
0.0204927
0.0208638
0.0212343
0.0216087
0.0219875
0.0223733
0.0227617
0.0231529
0.0235359
0.0239034
0.0242352
0.0245079
0.0246944
0.0247549
0.0246781
0.0244351
0.0240716
0.0235954
0.0230864
0.0225774
0.0221133
0.0217054
0.0213633
0.0203069
0.0206845
0.0210574
0.0214297
0.0218018
0.0221759
0.022548
0.0229175
0.0232747
0.0236123
0.023913
0.024157
0.0243232
0.0243795
0.0243191
0.0241177
0.0238126
0.0234067
0.0229663
0.0225117
0.0220871
0.0217035
0.0213706
0.020121
0.0205029
0.020877
0.0212466
0.0216122
0.0219755
0.0223328
0.022683
0.0230176
0.0233295
0.0236043
0.0238252
0.0239756
0.0240297
0.0239837
0.0238174
0.0235608
0.0232142
0.0228318
0.0224266
0.0220385
0.0216784
0.0213558
0.0199379
0.020322
0.0206959
0.0210623
0.0214215
0.0217746
0.0221185
0.0224518
0.0227667
0.0230567
0.0233101
0.0235123
0.0236507
0.0237041
0.0236708
0.023534
0.0233179
0.0230215
0.0226882
0.0223269
0.0219723
0.0216347
0.0213231
0.0197598
0.0201442
0.0205165
0.0208791
0.021232
0.0215757
0.0219074
0.0222256
0.0225236
0.0227953
0.0230309
0.0232182
0.0233474
0.0234013
0.0233792
0.0232674
0.0230855
0.0228313
0.0225398
0.0222171
0.0218929
0.0215764
0.021276
0.0195886
0.0199714
0.0203412
0.0206994
0.0210458
0.0213808
0.0217016
0.0220064
0.0222898
0.022546
0.0227671
0.0229427
0.023065
0.02312
0.0231081
0.0230175
0.0228643
0.0226457
0.0223897
0.022101
0.0218039
0.0215069
0.0212176
0.0194258
0.0198056
0.0201716
0.0205249
0.020865
0.0211918
0.0215027
0.0217958
0.0220665
0.0223097
0.0225191
0.0226854
0.0228027
0.0228595
0.0228565
0.022784
0.0226549
0.0224663
0.0222408
0.0219815
0.0217086
0.0214295
0.0211508
0.0192726
0.019648
0.0200095
0.0203574
0.0206912
0.0210102
0.0213123
0.0215952
0.0218549
0.0220871
0.0222871
0.0224463
0.0225599
0.0226188
0.0226237
0.0225666
0.0224579
0.0222948
0.0220951
0.0218612
0.0216097
0.0213467
0.0210782
0.0191299
0.0195
0.0198563
0.0201985
0.0205259
0.0208378
0.0211319
0.0214058
0.021656
0.0218784
0.0220715
0.0222251
0.0223362
0.0223973
0.0224092
0.0223653
0.0222738
0.0221321
0.0219545
0.0217425
0.0215096
0.0212611
0.0210022
0.0189984
0.0193625
0.019713
0.0200494
0.0203706
0.0206757
0.0209626
0.0212289
0.0214712
0.0216834
0.0218727
0.022022
0.0221312
0.0221945
0.0222126
0.0221799
0.022103
0.0219794
0.0218205
0.0216271
0.0214107
0.021175
0.0209248
0.0188787
0.0192363
0.0195807
0.0199111
0.0202264
0.0205252
0.0208057
0.0210656
0.0213028
0.0215165
0.0216925
0.021837
0.0219449
0.0220103
0.0220338
0.0220106
0.021946
0.0218376
0.0216945
0.0215171
0.0213148
0.0210904
0.020848
0.0187711
0.0191221
0.0194603
0.0197849
0.0200944
0.0203874
0.020662
0.0209162
0.0211476
0.0213533
0.0215277
0.0216697
0.0217769
0.0218444
0.0218726
0.0218576
0.0218033
0.0217077
0.0215779
0.0214142
0.0212238
0.0210091
0.0207736
0.0186759
0.0190203
0.0193525
0.0196714
0.0199755
0.0202632
0.0205326
0.0207816
0.021008
0.0212086
0.0213804
0.0215206
0.0216276
0.021697
0.0217293
0.0217211
0.0216754
0.0215904
0.0214717
0.0213194
0.0211392
0.0209328
0.0207035
0.0185934
0.0189314
0.019258
0.0195716
0.0198708
0.0201536
0.0204184
0.020663
0.0208852
0.0210821
0.0212514
0.0213903
0.0214971
0.0215683
0.0216042
0.0216015
0.021563
0.0214867
0.0213773
0.0212343
0.0210627
0.0208633
0.0206393
0.0185237
0.018856
0.0191774
0.0194863
0.019781
0.0200597
0.0203205
0.0205613
0.0207801
0.0209742
0.0211415
0.0212792
0.0213861
0.0214589
0.0214976
0.0214996
0.0214668
0.0213976
0.0212956
0.0211601
0.0209955
0.020802
0.0205823
0.018467
0.0187943
0.0191113
0.0194161
0.0197071
0.0199823
0.0202399
0.0204777
0.0206938
0.0208856
0.0210514
0.0211883
0.0212952
0.0213692
0.0214103
0.0214159
0.0213877
0.021324
0.0212278
0.0210983
0.0209392
0.0207503
0.020534
0.0184237
0.018747
0.0190605
0.019362
0.01965
0.0199225
0.0201775
0.020413
0.0206271
0.0208173
0.0209819
0.0211183
0.0212253
0.0213003
0.0213431
0.0213515
0.0213266
0.021267
0.0211751
0.0210501
0.0208951
0.0207095
0.0204959
0.0183942
0.0187147
0.0190256
0.0193249
0.0196108
0.0198813
0.0201347
0.0203686
0.0205813
0.0207704
0.0209342
0.0210702
0.0211773
0.021253
0.021297
0.0213072
0.0212846
0.0212277
0.0211387
0.0210167
0.0208644
0.0206811
0.0204693
0.018379
0.018698
0.0190076
0.0193057
0.0195906
0.0198601
0.0201125
0.0203456
0.0205577
0.0207462
0.0209096
0.0210454
0.0211525
0.0212286
0.0212732
0.0212843
0.0212629
0.0212074
0.0211198
0.0209993
0.0208484
0.0206663
0.0204554
0.0158492
0.0162188
0.0165751
0.0169154
0.0172365
0.0175363
0.0178121
0.0180625
0.0182855
0.0184803
0.0186458
0.0187817
0.0188874
0.018963
0.0190081
0.019023
0.019007
0.0189602
0.0188809
0.0187692
0.0186222
0.0184402
0.018219
0.0158689
0.0162413
0.0166
0.0169421
0.0172646
0.0175653
0.0178416
0.018092
0.0183146
0.0185088
0.0186733
0.0188081
0.0189126
0.0189871
0.0190311
0.0190451
0.0190283
0.0189809
0.0189012
0.0187893
0.0186422
0.0184601
0.0182386
0.0159076
0.0162853
0.0166485
0.0169943
0.0173194
0.0176218
0.0178989
0.0181492
0.0183711
0.0185638
0.0187265
0.0188592
0.0189613
0.0190336
0.0190755
0.0190876
0.0190693
0.0190208
0.0189404
0.018828
0.0186807
0.0184984
0.0182766
0.0159648
0.0163505
0.0167202
0.0170711
0.0174
0.0177047
0.0179828
0.0182329
0.0184534
0.018644
0.0188038
0.0189332
0.0190319
0.0191007
0.0191394
0.0191488
0.0191284
0.0190782
0.0189969
0.018884
0.0187364
0.018554
0.0183317
0.0160409
0.0164367
0.0168148
0.0171722
0.0175058
0.0178134
0.0180925
0.0183421
0.0185606
0.018748
0.0189038
0.0190286
0.0191226
0.0191868
0.0192213
0.0192271
0.0192039
0.0191517
0.0190692
0.0189558
0.0188081
0.0186258
0.018403
0.0161363
0.0165444
0.0169326
0.0172978
0.0176368
0.0179475
0.0182275
0.0184759
0.0186916
0.0188747
0.0190251
0.0191441
0.0192319
0.0192902
0.0193195
0.0193208
0.0192942
0.0192397
0.019156
0.0190422
0.0188946
0.0187126
0.0184895
0.0162518
0.0166741
0.0170739
0.017448
0.017793
0.0181069
0.0183874
0.018634
0.0188455
0.019023
0.0191666
0.019278
0.0193582
0.0194092
0.0194321
0.019428
0.0193976
0.0193405
0.0192557
0.0191418
0.0189948
0.0188135
0.0185905
0.0163884
0.0168269
0.0172398
0.0176236
0.0179749
0.0182919
0.0185722
0.0188158
0.0190219
0.019192
0.0193269
0.019429
0.0194999
0.0195421
0.0195574
0.0195472
0.0195124
0.0194525
0.0193669
0.0192533
0.0191076
0.0189278
0.0187051
0.0165474
0.017004
0.0174311
0.0178254
0.0181832
0.0185027
0.0187819
0.0190211
0.01922
0.0193808
0.0195049
0.0195956
0.0196554
0.0196872
0.0196937
0.0196762
0.0196367
0.0195741
0.0194881
0.0193755
0.0192321
0.0190546
0.018833
0.0167304
0.0172067
0.0176492
0.0180545
0.0184187
0.0187401
0.0190169
0.0192499
0.0194393
0.0195885
0.0196993
0.0197764
0.0198228
0.0198425
0.0198388
0.0198134
0.0197688
0.0197035
0.0196178
0.0195072
0.0193673
0.0191932
0.0189736
0.016939
0.0174365
0.0178956
0.0183122
0.0186824
0.0190047
0.0192774
0.019502
0.0196794
0.0198141
0.0199089
0.0199697
0.0200005
0.0200061
0.0199908
0.0199565
0.0199067
0.019839
0.0197546
0.0196471
0.0195123
0.0193433
0.0191268
0.0171749
0.0176954
0.0181717
0.0185999
0.0189755
0.0192974
0.0195638
0.0197775
0.0199398
0.0200567
0.0201323
0.0201737
0.0201863
0.0201758
0.0201476
0.0201036
0.0200484
0.0199789
0.0198968
0.0197941
0.0196663
0.0195042
0.0192924
0.0174402
0.0179851
0.0184796
0.0189193
0.0192994
0.0196192
0.0198768
0.0200762
0.0202198
0.0203152
0.0203678
0.0203866
0.0203782
0.0203494
0.0203068
0.0202524
0.0201919
0.0201211
0.0200428
0.0199467
0.0198285
0.0196756
0.0194704
0.0177368
0.0183076
0.0188211
0.0192721
0.0196556
0.0199712
0.0202168
0.0203982
0.0205187
0.0205884
0.0206138
0.0206063
0.0205738
0.0205245
0.020466
0.0204005
0.0203349
0.0202636
0.020191
0.0201037
0.0199981
0.0198573
0.019661
0.0180668
0.0186652
0.0191983
0.0196602
0.0200457
0.0203548
0.0205845
0.0207434
0.0208359
0.0208746
0.0208682
0.0208302
0.0207704
0.0206982
0.0206225
0.0205454
0.020475
0.0204044
0.0203395
0.0202636
0.0201741
0.0200489
0.0198645
0.0184325
0.01906
0.0196135
0.0200856
0.0204713
0.0207718
0.0209803
0.0211114
0.0211701
0.0211722
0.0211286
0.0210558
0.0209652
0.0208676
0.0207734
0.0206842
0.0206098
0.020541
0.0204863
0.0204248
0.0203555
0.0202501
0.0200813
0.0188359
0.019494
0.0200675
0.0205509
0.0209344
0.021217
0.0214042
0.0215019
0.0215201
0.0214791
0.0213923
0.0212797
0.0211547
0.0210295
0.0209156
0.0208142
0.0207364
0.0206712
0.0206292
0.0205853
0.0205413
0.0204605
0.0203116
0.0192793
0.0199705
0.0205668
0.0210594
0.0214382
0.0217038
0.0218583
0.0219144
0.0218843
0.0217924
0.0216558
0.0214983
0.0213353
0.0211802
0.0210458
0.0209321
0.0208521
0.020792
0.0207657
0.0207429
0.02073
0.0206796
0.020556
0.0197656
0.0204921
0.0211117
0.0216126
0.0219839
0.0222265
0.022342
0.0223479
0.0222603
0.022109
0.0219154
0.0217074
0.0215026
0.0213158
0.0211602
0.0210346
0.0209537
0.0209009
0.020893
0.0208944
0.0209197
0.0209064
0.0208144
0.0202948
0.0210608
0.0217043
0.0222129
0.0225737
0.0227873
0.0228555
0.0228009
0.0226452
0.0224248
0.022166
0.0219019
0.021652
0.0214319
0.0212548
0.0211181
0.0210378
0.0209946
0.0210082
0.0210359
0.0211081
0.0211394
0.0210865
0.0208721
0.0216784
0.0223473
0.0228632
0.02321
0.0233876
0.023399
0.0232736
0.0230352
0.0227345
0.0224022
0.0220762
0.021778
0.0215235
0.0213254
0.0211787
0.021101
0.0210698
0.0211081
0.0211617
0.0212926
0.0213761
0.0213711
0.0214966
0.0223466
0.0230433
0.0235664
0.0238954
0.0240288
0.023971
0.0237585
0.0234248
0.023032
0.022617
0.0222234
0.0218744
0.0215853
0.0213674
0.0212123
0.0211392
0.0211231
0.02119
0.0212631
0.0214703
0.0216128
0.0216656
0.0221692
0.0230675
0.0237949
0.0243253
0.0246324
0.0247121
0.0245707
0.024254
0.0238079
0.0233093
0.0228022
0.0223357
0.0219342
0.0216115
0.0213759
0.0212145
0.0211484
0.0211507
0.0212538
0.0213263
0.0216387
0.0218431
0.0219651
0.0228896
0.0238418
0.0246041
0.0251426
0.0254235
0.0254385
0.0251963
0.0247548
0.0241756
0.0235569
0.022948
0.0224039
0.0219495
0.0215958
0.0213457
0.0211808
0.0211236
0.0211475
0.0213047
0.0215989
0.0217986
0.0220565
0.0222607
0.0236574
0.02467
0.0254724
0.0260208
0.0262709
0.0262084
0.025845
0.025254
0.0245172
0.023763
0.0230429
0.0224174
0.0219117
0.0215312
0.0212716