/*--------------------------------*- C++ -*----------------------------------*\
  =========                 |
  \\      /  F ield         | OpenFOAM: The Open Source CFD Toolbox
   \\    /   O peration     | Website:  https://openfoam.org
    \\  /    A nd           | Version:  7
     \\/     M anipulation  |
\*---------------------------------------------------------------------------*/
FoamFile
{
    version     2.0;
    format      ascii;
    class       surfaceScalarField;
    location    "160";
    object      phi;
}
// * * * * * * * * * * * * * * * * * * * * * * * * * * * * * * * * * * * * * //

dimensions      [0 3 -1 0 0 0 0];

internalField   nonuniform List<scalar> 
8924
(
0.00164159
-0.00838495
0.00832524
0.00167593
-0.00933444
0.0093001
0.00168173
-0.00965609
0.00965029
0.00165027
-0.00993162
0.00996308
0.0015827
-0.0104443
0.0105119
0.00150138
-0.0106991
0.0107804
0.00143779
-0.00972935
0.00979293
0.00141143
-0.00701189
0.00703825
0.00142557
-0.00297348
0.00295935
0.00147281
0.00136166
-0.0014089
0.00153729
0.0050269
-0.00509138
0.00159611
0.00756339
-0.00762221
0.00162514
0.00914333
-0.00917237
0.00160984
0.0102172
-0.0102019
0.00155549
0.0109848
-0.0109304
0.00148681
0.0110058
-0.0109372
0.00143375
0.0096094
-0.00955635
0.0014149
0.00652061
-0.00650176
0.00143397
0.00230846
-0.00232752
0.00147925
-0.00199754
0.00195226
0.00152392
-0.00556285
0.00551817
0.00153986
-0.00814632
0.00813038
0.00151963
-0.0100365
0.0100567
-0.0109727
0.0110127
0.00163653
-0.00844038
0.00166753
-0.00936543
0.00167103
-0.00965959
0.00163796
-0.00989854
0.00156902
-0.0103754
0.0014868
-0.0106168
0.00142383
-0.00966637
0.00140022
-0.00698829
0.00141865
-0.00299191
0.0014706
0.00130971
0.00153925
0.00495825
0.00160116
0.00750148
0.00163224
0.00911226
0.00161827
0.0102312
0.00156469
0.0110384
0.00149601
0.0110745
0.00144158
0.00966383
0.00141979
0.00654239
0.0014352
0.00229305
0.00147735
-0.00203969
0.0015201
-0.0056056
0.00153495
-0.00816117
0.00151406
-0.0100156
-0.0109327
0.00163104
-0.00849159
0.00165876
-0.00939315
0.00166008
-0.00966091
0.00162555
-0.00986401
0.00155539
-0.0103052
0.00147234
-0.0105338
0.00140992
-0.00960394
0.00138894
-0.00696731
0.00141154
-0.00301451
0.0014681
0.00125315
0.00154087
0.00488548
0.0016059
0.00743645
0.00163911
0.00907905
0.00162658
0.0102437
0.00157389
0.0110911
0.00150527
0.0111431
0.00144945
0.00971966
0.00142465
0.00656719
0.00143631
0.0022814
0.00147527
-0.00207865
0.0015161
-0.00564643
0.00152993
-0.00817499
0.00150844
-0.00999412
-0.0108927
0.00162514
-0.00853863
0.00164965
-0.00941766
0.00164889
-0.00966015
0.00161304
-0.00982816
0.00154183
-0.010234
0.00145803
-0.01045
0.00139608
-0.009542
0.00137759
-0.00694882
0.00140423
-0.00304115
0.00146532
0.00119207
0.00154216
0.00480864
0.00161032
0.00736828
0.00164574
0.00904363
0.00163477
0.0102547
0.0015831
0.0111427
0.0015146
0.0112116
0.00145736
0.0097769
0.00142949
0.00659505
0.00143731
0.00227358
0.00147302
-0.00211437
0.00151194
-0.00568535
0.00152479
-0.00818785
0.00150276
-0.00997209
-0.0108526
0.00161883
-0.00858154
0.0016402
-0.00943903
0.00163746
-0.00965742
0.00160046
-0.00979117
0.00152835
-0.0101619
0.00144387
-0.0103655
0.00138233
-0.00948046
0.00136617
-0.00693267
0.00139672
-0.0030717
0.00146222
0.00112656
0.00154309
0.00472777
0.0016144
0.00729697
0.00165212
0.00900591
0.00164284
0.0102639
0.0015923
0.0111933
0.00152398
0.01128
0.00146532
0.00983556
0.00143432
0.00662605
0.00143822
0.00226968
0.00147062
-0.00214676
0.00150761
-0.00572234
0.00151955
-0.00819979
0.00149703
-0.00994957
-0.0108125
0.00161213
-0.00862037
0.00163043
-0.00945733
0.00162582
-0.00965281
0.00158781
-0.00975316
0.00151495
-0.010089
0.00142987
-0.0102804
0.00136867
-0.00941926
0.0013547
-0.00691869
0.001389
-0.003106
0.00145882
0.00105674
0.00154365
0.00464294
0.00161813
0.00722249
0.00165824
0.0089658
0.00165078
0.0102714
0.00160148
0.0112426
0.00153341
0.011348
0.00147331
0.00989565
0.00143913
0.00666024
0.00143904
0.00226977
0.00146806
-0.00217577
0.00150313
-0.00575741
0.00151421
-0.00821087
0.00149124
-0.0099266
-0.0107724
0.00160505
-0.00865519
0.00162035
-0.00947262
0.00161396
-0.00964643
0.00157509
-0.00971429
0.00150165
-0.0100156
0.00141604
-0.0101948
0.00135512
-0.00935835
0.00134316
-0.00690672
0.00138106
-0.0031439
0.00145508
0.000982716
0.00154383
0.00455419
0.0016215
0.00714483
0.00166409
0.00892321
0.00165856
0.0102769
0.00161064
0.0112905
0.00154287
0.0114158
0.00148135
0.00995718
0.00144393
0.00669765
0.00143979
0.00227391
0.00146535
-0.00220134
0.00149849
-0.00579055
0.00150876
-0.00822115
0.00148541
-0.00990324
-0.0107323
0.00159762
-0.00868603
0.00160997
-0.00948497
0.00160191
-0.00963836
0.00156231
-0.0096747
0.00148843
-0.0099417
0.00140239
-0.0101088
0.00134169
-0.00929764
0.00133157
-0.00689661
0.0013729
-0.00318523
0.00145101
0.000904606
0.00154362
0.00446158
0.00162449
0.00706396
0.00166964
0.00887806
0.00166619
0.0102804
0.00161976
0.0113369
0.00155237
0.0114832
0.00148942
0.0100201
0.00144874
0.00673833
0.00144047
0.00228218
0.00146251
-0.00222338
0.00149369
-0.00582173
0.00150321
-0.00823067
0.00147951
-0.00987955
-0.0106922
0.00158983
-0.00871297
0.00159931
-0.00949445
0.00158965
-0.0096287
0.00154947
-0.00963452
0.00147531
-0.00986754
0.00138892
-0.0100224
0.00132837
-0.0092371
0.00131993
-0.00688816
0.00136452
-0.00322982
0.00144659
0.000822537
0.00154299
0.00436518
0.00162708
0.00697987
0.00167489
0.00883025
0.00167364
0.0102816
0.00162883
0.0113817
0.0015619
0.0115501
0.00149752
0.0100845
0.00145354
0.00678232
0.00144108
0.00229464
0.00145954
-0.00224184
0.00148875
-0.00585094
0.00149756
-0.00823947
0.00147357
-0.00985556
-0.0106521
0.0015817
0.00158836
-0.00950112
0.0015772
-0.00961754
0.00153657
-0.0095939
0.00146227
-0.00979324
0.00137563
-0.00993575
0.00131519
-0.00917666
0.00130824
-0.00688122
0.00135591
-0.00327749
0.0014418
0.00073664
0.00154194
0.00426504
0.00162927
0.00689253
0.00167982
0.0087797
0.0016809
0.0102806
0.00163783
0.0114248
0.00157143
0.0116165
0.00150565
0.0101503
0.00145834
0.00682962
0.00144165
0.00231133
0.00145645
-0.00225664
0.00148366
-0.00587815
0.0014918
-0.00824761
0.00146757
-0.00983134
-0.010612
0.00157715
-0.00950503
0.00156455
-0.00960494
0.00152361
-0.00955295
0.00144933
-0.00971896
0.00136252
-0.00984894
0.00130214
-0.00911627
0.00129652
-0.0068756
0.00134706
-0.00332803
0.00143665
0.000647054
0.00154045
0.00416124
0.00163104
0.00680195
0.00168441
0.00872633
0.00168796
0.010277
0.00164676
0.011466
0.00158096
0.0116823
0.00151379
0.0102175
0.00146315
0.00688026
0.00144217
0.00233232
0.00145324
-0.00226772
0.00147842
-0.00590333
0.00148594
-0.00825512
0.00146152
-0.00980692
-0.0105719
0.00156567
-0.00950626
0.00155172
-0.00959099
0.00151058
-0.00951182
0.00143647
-0.00964484
0.0013496
-0.00976207
0.00128923
-0.00905591
0.00128476
-0.00687112
0.00133798
-0.00338126
0.00143111
0.000553924
0.00153851
0.00405384
0.00163236
0.0067081
0.00168865
0.00867003
0.00169479
0.0102709
0.0016556
0.0115052
0.00159047
0.0117475
0.00152195
0.010286
0.00146797
0.00693424
0.00144265
0.00235764
0.00144993
-0.002275
0.00147305
-0.00592644
0.00147997
-0.00826205
0.00145542
-0.00978237
-0.0105318
0.00155394
-0.00950487
0.0015387
-0.00957575
0.00149749
-0.00947061
0.00142368
-0.00957103
0.00133685
-0.00967524
0.00127647
-0.00899553
0.00127297
-0.00686761
0.00132866
-0.00343695
0.00142518
0.000457404
0.0015361
0.00394292
0.00163323
0.00661097
0.00169252
0.00861074
0.00170139
0.010262
0.00166432
0.0115423
0.00159995
0.0118118
0.00153011
0.0103558
0.00147279
0.00699157
0.0014431
0.00238733
0.00144652
-0.00227842
0.00146753
-0.00594745
0.00147389
-0.00826841
0.00144925
-0.00975773
-0.0104916
0.00154196
-0.00950091
0.0015255
-0.00955928
0.00148433
-0.00942944
0.00141097
-0.00949767
0.00132427
-0.00958855
0.00126386
-0.00893512
0.00126115
-0.0068649
0.0013191
-0.00349491
0.00141885
0.000357654
0.00153322
0.00382855
0.00163363
0.00651056
0.00169601
0.00854837
0.00170772
0.0102503
0.00167291
0.0115771
0.00160939
0.0118753
0.00153827
0.0104269
0.00147761
0.00705223
0.00144352
0.00242142
0.00144301
-0.00227791
0.00146187
-0.00596632
0.00146771
-0.00827425
0.00144303
-0.00973306
-0.0104515
0.00152974
-0.00949445
0.00151211
-0.00954165
0.00147109
-0.00938842
0.00139832
-0.0094249
0.00131186
-0.00950209
0.0012514
-0.00887466
0.00124932
-0.00686281
0.00130931
-0.0035549
0.00141212
0.000254841
0.00152985
0.00371082
0.00163355
0.00640686
0.00169908
0.00848283
0.00171378
0.0102356
0.00168135
0.0116095
0.00161877
0.0119379
0.00154642
0.0104993
0.00148244
0.00711621
0.00144392
0.00245994
0.00143942
-0.00227341
0.00145608
-0.00598298
0.00146141
-0.00827958
0.00143675
-0.0097084
-0.0104113
0.00151727
-0.00948555
0.00149852
-0.0095229
0.00145776
-0.00934765
0.00138571
-0.00935286
0.0012996
-0.00941598
0.00123909
-0.00881415
0.00123747
-0.0068612
0.00129927
-0.0036167
0.00140497
0.000149141
0.00152597
0.00358982
0.00163296
0.00629987
0.00170173
0.00841406
0.00171954
0.0102178
0.00168962
0.0116394
0.00162807
0.0119995
0.00155454
0.0105728
0.00148726
0.00718349
0.0014443
0.0025029
0.00143574
-0.00226485
0.00145015
-0.00599739
0.001455
-0.00828442
0.0014304
-0.0096838
-0.0103711
0.00150457
-0.00947426
0.00148475
-0.00950309
0.00144433
-0.00930722
0.00137315
-0.00928167
0.00128748
-0.00933032
0.00122692
-0.00875358
0.00122562
-0.0068599
0.001289
-0.00368008
0.00139741
4.07376e-05
0.00152158
0.00346564
0.00163185
0.00618961
0.00170394
0.00834197
0.00172497
0.0101968
0.00169769
0.0116667
0.00163727
0.0120599
0.00156262
0.0106475
0.00149208
0.00725403
0.00144467
0.00255031
0.00143199
-0.00225217
0.00144409
-0.0060095
0.00144847
-0.0082888
0.00142399
-0.00965932
-0.0103309
0.00149163
-0.00946065
0.00147079
-0.00948224
0.0014308
-0.00926723
0.00136061
-0.00921148
0.0012755
-0.00924521
0.00121488
-0.00869297
0.00121376
-0.00685878
0.0012785
-0.00374482
0.00138942
-7.01792e-05
0.00151667
0.00333839
0.00163021
0.00607607
0.00170568
0.00826649
0.00173007
0.0101724
0.00170556
0.0116912
0.00164636
0.0121191
0.00157066
0.0107232
0.00149689
0.0073278
0.00144502
0.00260217
0.00142817
-0.00223532
0.00143791
-0.00601923
0.00144182
-0.00829271
0.00141752
-0.00963502
-0.0102907
0.00147847
-0.00944479
0.00145663
-0.00946041
0.00141715
-0.00922775
0.00134808
-0.00914242
0.00126363
-0.00916075
0.00120298
-0.00863232
0.00120191
-0.00685771
0.00126779
-0.00381069
0.00138099
-0.00018338
0.00151122
0.00320816
0.00162801
0.00595927
0.00170694
0.00818756
0.0017348
0.0101445
0.00171318
0.0117129
0.00165531
0.0121769
0.00157863
0.0107999
0.00150168
0.00740475
0.00144536
0.00265849
0.00142429
-0.00221425
0.00143159
-0.00602653
0.00143505
-0.00829618
0.00141097
-0.00961094
-0.0102504
0.00146507
-0.00942672
0.00144227
-0.00943761
0.00140338
-0.00918885
0.00133555
-0.00907459
0.00125186
-0.00907706
0.00119121
-0.00857167
0.00119006
-0.00685657
0.00125684
-0.00387747
0.00137214
-0.000298687
0.00150522
0.00307508
0.00162525
0.00583924
0.0017077
0.00810512
0.00173915
0.0101131
0.00172055
0.0117315
0.00166411
0.0122334
0.00158652
0.0108775
0.00150644
0.00748483
0.00144569
0.00271924
0.00142035
-0.00218891
0.00142515
-0.00603133
0.00142815
-0.00829918
0.00140434
-0.00958713
-0.0102102
0.00145144
-0.00940652
0.00142772
-0.00941389
0.00138946
-0.00915059
0.00132301
-0.00900814
0.00124017
-0.00899422
0.00117954
-0.00851104
0.00117822
-0.00685525
0.00124567
-0.00394491
0.00136287
-0.000415888
0.00149868
0.00293928
0.00162192
0.005716
0.00170793
0.0080191
0.00174308
0.0100779
0.00172763
0.0117469
0.00167274
0.0122883
0.00159433
0.0109559
0.00151118
0.00756798
0.00144601
0.00278441
0.00141635
-0.00215925
0.00141858
-0.00603356
0.00142112
-0.00830172
0.00139764
-0.00956365
-0.0101699
0.00143759
-0.00938424
0.00141296
-0.00938926
0.00137539
-0.00911303
0.00131042
-0.00894317
0.00122856
-0.00891235
0.00116797
-0.00845045
0.00116638
-0.00685366
0.00123429
-0.00401283
0.00135317
-0.000534762
0.00149157
0.00280087
0.00161798
0.00558959
0.00170762
0.00792947
0.00174659
0.0100389
0.0017344
0.0117591
0.00168116
0.0123415
0.00160203
0.011035
0.00151588
0.00765413
0.00144632
0.00285397
0.00141231
-0.00212523
0.00141189
-0.00603314
0.00141395
-0.00830379
0.00139086
-0.00954056
-0.0101297
0.0014235
-0.00935994
0.00139799
-0.00936375
0.00136116
-0.00907619
0.00129779
-0.00887981
0.00121699
-0.00883156
0.00115648
-0.00838994
0.00115455
-0.00685173
0.00122272
-0.00408099
0.00134305
-0.000655089
0.0014839
0.00266002
0.00161344
0.00546005
0.00170674
0.00783617
0.00174963
0.00999606
0.00174085
0.0117679
0.00168937
0.012393
0.00160961
0.0111148
0.00152053
0.0077432
0.00144662
0.00292788
0.00140822
-0.00208683
0.00140508
-0.00603
0.00140665
-0.00830536
0.00138398
-0.00951789
-0.0100895
0.00140919
-0.00933369
0.00138282
-0.00933738
0.00134674
-0.00904012
0.00128508
-0.00881815
0.00120546
-0.00875194
0.00114507
-0.00832954
0.00114272
-0.00684938
0.00121095
-0.00414922
0.00133251
-0.000776644
0.00147566
0.00251686
0.00160828
0.00532743
0.00170529
0.00773916
0.00175219
0.00994915
0.00174693
0.0117731
0.00169734
0.0124426
0.00161704
0.0111951
0.00152513
0.00783512
0.0014469
0.0030061
0.00140408
-0.00204401
0.00139815
-0.00602407
0.00139921
-0.00830641
0.00137702
-0.0094957
-0.0100494
0.00139464
-0.00930554
0.00136743
-0.00931017
0.00133214
-0.00900483
0.00127229
-0.00875829
0.00119395
-0.0086736
0.0011337
-0.00826929
0.00113088
-0.00684656
0.001199
-0.00421734
0.00132155
-0.000899198
0.00146685
0.00237157
0.00160249
0.00519179
0.00170323
0.00763841
0.00175425
0.00989814
0.00175263
0.0117748
0.00170505
0.0124901
0.00162433
0.0112758
0.00152965
0.0079298
0.00144717
0.00308859
0.00139991
-0.00199675
0.00139111
-0.00601528
0.00139162
-0.00830692
0.00136996
-0.00947404
-0.0100093
0.00137986
-0.00927556
0.00135182
-0.00928214
0.00131734
-0.00897035
0.00125938
-0.00870034
0.00118244
-0.00859666
0.00112237
-0.00820922
0.00111903
-0.00684322
0.00118688
-0.00428519
0.0013102
-0.00102253
0.00145747
0.0022243
0.00159605
0.00505321
0.00170056
0.00753391
0.00175577
0.00984292
0.00175792
0.0117726
0.00171247
0.0125356
0.00163144
0.0113568
0.0015341
0.00802714
0.00144742
0.00317527
0.0013957
-0.00194503
0.00138396
-0.00600353
0.00138388
-0.00830684
0.00136279
-0.00945295
-0.00996936
0.00136484
-0.0092438
0.001336
-0.0092533
0.00130231
-0.00893666
0.00124635
-0.00864437
0.00117091
-0.00852122
0.00111106
-0.00814937
0.00110715
-0.00683932
0.00117458
-0.00435262
0.00129846
-0.00114641
0.00144752
0.00207524
0.00158897
0.00491176
0.00169725
0.00742564
0.00175675
0.00978342
0.00176277
0.0117666
0.00171959
0.0125788
0.00163836
0.011438
0.00153846
0.00812704
0.00144764
0.00326609
0.00139146
-0.00188885
0.0013767
-0.00598877
0.00137599
-0.00830613
0.00135552
-0.00943247
-0.00992956
0.00134958
-0.00921032
0.00131996
-0.00922368
0.00128707
-0.00890377
0.00123316
-0.00859046
0.00115934
-0.0084474
0.00109974
-0.00808977
0.00109524
-0.00683482
0.00116213
-0.00441951
0.00128635
-0.00127063
0.00143701
0.00192458
0.00158123
0.00476754
0.00169329
0.00731358
0.00175715
0.00971956
0.00176717
0.0117566
0.00172637
0.0126196
0.00164508
0.0115193
0.00154273
0.00822939
0.00144784
0.00336098
0.00138719
-0.0018282
0.00136933
-0.00597091
0.00136795
-0.00830476
0.00134814
-0.00941265
-0.00988996
0.00133408
-0.00917518
0.00130369
-0.00919329
0.00127158
-0.00887167
0.0012198
-0.00853868
0.00114772
-0.00837532
0.00108841
-0.00803047
0.00108327
-0.00682967
0.00114951
-0.00448574
0.00127387
-0.00139499
0.00142594
0.00177251
0.00157283
0.00462065
0.00168866
0.00719776
0.00175695
0.00965126
0.00177108
0.0117424
0.0017328
0.0126579
0.00165157
0.0116006
0.00154688
0.00833408
0.00144801
0.00345984
0.00138289
-0.00176308
0.00136186
-0.00594987
0.00135976
-0.00830266
0.00134063
-0.00939353
-0.00985059
0.00131833
-0.00913843
0.00128719
-0.00916215
0.00125585
-0.00884033
0.00120626
-0.00848909
0.00113602
-0.00830508
0.00107705
-0.0079715
0.00107123
-0.00682385
0.00113673
-0.00455124
0.00126105
-0.00151932
0.00141433
0.00161924
0.00156377
0.00447121
0.00168334
0.00707818
0.00175613
0.00957848
0.00177449
0.0117241
0.00173886
0.0126935
0.00165782
0.0116816
0.00155091
0.00844099
0.00144815
0.00356261
0.00137857
-0.0016935
0.00135428
-0.00592559
0.0013514
-0.00829978
0.001333
-0.00937513
-0.0098115
0.00130234
-0.00910011
0.00127047
-0.00913028
0.00123987
-0.00880972
0.0011925
-0.00844172
0.00112423
-0.00823682
0.00106564
-0.00791291
0.00105911
-0.00681732
0.00112379
-0.00461592
0.00124791
-0.00164344
0.00140219
0.00146495
0.00155404
0.00431936
0.00167734
0.00695488
0.00175467
0.00950115
0.00177736
0.0117014
0.00174451
0.0127263
0.00166381
0.0117623
0.00155481
0.00854999
0.00144824
0.00366917
0.00137421
-0.00161947
0.00134661
-0.00589798
0.00134289
-0.00829606
0.00132525
-0.00935749
-0.00977275
0.00128609
-0.00906029
0.00125351
-0.00909771
0.00122362
-0.00877983
0.00117851
-0.00839661
0.00111233
-0.00817064
0.00105418
-0.00785477
0.00104688
-0.00681002
0.00111067
-0.00467971
0.00123445
-0.00176722
0.00138955
0.00130986
0.00154366
0.00416524
0.00167063
0.00682791
0.00175255
0.00941923
0.00177967
0.0116743
0.00174975
0.0127562
0.00166951
0.0118425
0.00155856
0.00866095
0.0014483
0.00377943
0.00136984
-0.00154101
0.00133884
-0.00586698
0.00133421
-0.00829143
0.00131735
-0.00934063
-0.00973439
0.00126957
-0.009019
0.00123632
-0.00906445
0.00120709
-0.0087506
0.00116427
-0.00835378
0.00110029
-0.00810666
0.00104264
-0.00779712
0.00103454
-0.00680192
0.00109737
-0.00474254
0.0012207
-0.00189055
0.00137642
0.00115413
0.00153264
0.00400902
0.00166322
0.00669734
0.00174975
0.0093327
0.0017814
0.0116426
0.00175454
0.0127831
0.00167492
0.0119222
0.00156216
0.00877371
0.00144831
0.00389327
0.00136544
-0.00145814
0.00133098
-0.00583252
0.00132537
-0.00828582
0.00130932
-0.00932458
-0.00969648
0.0012528
-0.0089763
0.00121889
-0.00903055
0.0011903
-0.008722
0.00114976
-0.00831324
0.0010881
-0.00804501
0.00103102
-0.00774004
0.00102206
-0.00679295
0.00108387
-0.00480435
0.00120667
-0.00201335
0.00136285
0.000997958
0.001521
0.00385087
0.00165509
0.00656325
0.00174626
0.00924153
0.00178253
0.0116063
0.00175886
0.0128068
0.00168002
0.012001
0.0015656
0.00888813
0.00144828
0.0040106
0.00136103
-0.00137089
0.00132303
-0.00579452
0.00131636
-0.00827916
0.00130114
-0.00930936
-0.00965909
0.00123578
-0.00893222
0.00120124
-0.00899602
0.00117323
-0.00869398
0.00113497
-0.00827499
0.00107574
-0.00798577
0.00101932
-0.00768362
0.00100944
-0.00678307
0.00107016
-0.00486507
0.00119237
-0.00213556
0.00134887
0.000841464
0.00150876
0.00369097
0.00164626
0.00642575
0.00174205
0.00914574
0.00178304
0.0115654
0.0017627
0.0128271
0.00168479
0.0120789
0.00156887
0.00900406
0.00144819
0.00413128
0.00135659
-0.00127929
0.00131499
-0.00575292
0.00130719
-0.00827136
0.00129281
-0.00929497
-0.00962227
0.0012185
-0.00888679
0.00118337
-0.00896088
0.00115588
-0.00866649
0.00111989
-0.008239
0.00106318
-0.00792907
0.00100751
-0.00762795
0.000996665
-0.00677223
0.00105621
-0.00492462
0.00117781
-0.00225715
0.00133452
0.000684754
0.00149598
0.00352951
0.00163675
0.00628498
0.00173714
0.00904535
0.0017829
0.0115196
0.00176603
0.012844
0.00168922
0.0121557
0.00157197
0.0091213
0.00144806
0.00425519
0.00135214
-0.00118337
0.00130687
-0.00570765
0.00129786
-0.00826235
0.00128432
-0.00928143
-0.00958611
0.00120088
-0.00884004
0.00116518
-0.00892519
0.00113819
-0.0086395
0.00110445
-0.00820525
0.00105038
-0.007875
0.00099556
-0.00757313
0.000983701
-0.00676037
0.00104198
-0.0049829
0.00116295
-0.00237813
0.00131983
0.000527868
0.00148271
0.00336663
0.00162659
0.0061411
0.00173152
0.00894042
0.00178212
0.011469
0.00176884
0.0128573
0.00169331
0.0122312
0.00157493
0.00923969
0.00144791
0.00438221
0.00134769
-0.00108315
0.00129868
-0.00565865
0.00128836
-0.00825202
0.00127566
-0.00926874
-0.00955066
0.00118274
-0.00879199
0.00114657
-0.00888901
0.00112008
-0.00861301
0.00108859
-0.00817377
0.00103728
-0.00782368
0.00098345
-0.00751931
0.000970533
-0.00674745
0.0010274
-0.00503976
0.00114773
-0.00249845
0.00130481
0.000370783
0.00146901
0.00320243
0.00161583
0.00599428
0.00172522
0.00883103
0.0017807
0.0114135
0.00177116
0.0128668
0.00169712
0.0123053
0.00157779
0.00935902
0.00144777
0.00451223
0.00134324
-0.000978616
0.00129039
-0.00560579
0.00127865
-0.00824029
0.00126681
-0.0092569
-0.009516
0.00116449
-0.00874277
0.0011279
-0.00885242
0.00110185
-0.00858696
0.00107255
-0.00814447
0.00102406
-0.00777519
0.00097136
-0.0074666
0.000957367
-0.00673346
0.00101267
-0.00509506
0.00113229
-0.00261808
0.0012896
0.000213475
0.00145504
0.00303698
0.00160463
0.00584469
0.00171834
0.00871732
0.00177871
0.0113532
0.00177304
0.0128725
0.00170068
0.0123776
0.00158057
0.00947913
0.00144758
0.00464522
0.00133871
-0.000869753
0.00128197
-0.00554905
0.00126877
-0.00822708
0.0012578
-0.00924593
-0.00948222
0.00114769
0.0011106
-0.00881533
0.00108471
-0.00856108
0.00105731
-0.00811706
0.00101159
-0.00772947
0.000960198
-0.00741521
0.000945269
-0.00671853
0.000998917
-0.00514871
0.00111776
-0.00273692
0.00127528
5.59496e-05
0.00144173
0.00287054
0.0015938
0.00569262
0.00171149
0.00859963
0.00177648
0.0112882
0.00177453
0.0128744
0.00170372
0.0124484
0.00158261
0.00960024
0.00144647
0.00478136
0.00133336
-0.000756645
0.00127308
-0.00548878
0.00125872
-0.00821272
0.00124879
-0.00923599
-0.00944948
0.00571186
-0.00859
0.00548297
-0.00833219
0.00525164
-0.00788574
0.00497625
-0.00745408
0.00465591
-0.00709487
0.00437171
-0.00643433
0.00422685
-0.00500386
0.0042644
-0.00277447
0.00445308
-0.000132728
0.00469811
0.00262551
0.0049146
0.00547613
0.00504581
0.00846842
0.00509031
0.0112437
0.00507628
0.0128885
0.00503794
0.0124868
0.00500759
0.0096306
0.00500608
0.00478287
0.00503442
-0.000784991
0.00509324
-0.00554759
0.00514303
-0.00826252
0.00510522
-0.00919818
-0.00929389
0.00590096
-0.00833831
0.00565207
-0.0080833
0.00541107
-0.00764474
0.00513626
-0.00717927
0.00481839
-0.006777
0.00453065
-0.00614659
0.00437694
-0.00485014
0.00440829
-0.00280582
0.00458842
-0.000312852
0.00483969
0.00237424
0.00506528
0.00525054
0.00521341
0.00832029
0.00527968
0.0111774
0.00528377
0.0128844
0.00525483
0.0125157
0.00522595
0.00965948
0.00522646
0.00478236
0.00525116
-0.000809685
0.00529611
-0.00559254
0.00533288
-0.00829929
0.00528766
-0.00915296
-0.00912937
0.00609733
-0.00806251
0.00582906
-0.00781503
0.00557819
-0.00739387
0.00530385
-0.00690493
0.00498811
-0.00646126
0.00469666
-0.00585514
0.00453388
-0.00468736
0.00455647
-0.00282841
0.00473426
-0.000490638
0.00498748
0.00212102
0.00522296
0.00501506
0.00538847
0.00815478
0.00547571
0.0110901
0.00549795
0.0128621
0.00548088
0.0125328
0.00546071
0.00967964
0.00546684
0.00477624
0.00548675
-0.000829602
0.0055141
-0.00561989
0.00553365
-0.00831884
0.00547898
-0.00909829
-0.0089555
0.00629584
-0.00776436
0.00600966
-0.00752885
0.00574943
-0.00713364
0.00547675
-0.00663226
0.00516494
-0.00614944
0.00487051
-0.00556071
0.00469826
-0.00451511
0.00471126
-0.00284141
0.00488516
-0.000664544
0.00514027
0.00186591
0.00538662
0.00476871
0.00557117
0.00797022
0.00568105
0.0109803
0.005723
0.0128202
0.00571969
0.0125361
0.00571035
0.00968899
0.00572389
0.00476269
0.0057386
-0.000844306
0.00574626
-0.00562756
0.00574533
-0.0083179
0.0056791
-0.00903206
-0.00877199
0.0064961
-0.00744651
0.00619391
-0.00722666
0.00592475
-0.00686447
0.00565462
-0.00636214
0.00534882
-0.00584364
0.00505281
-0.00526469
0.00487048
-0.00433278
0.00487202
-0.00284295
0.00503987
-0.000832394
0.00529693
0.00160884
0.00555546
0.00451018
0.00576118
0.0077645
0.00589608
0.0108454
0.00595944
0.0127568
0.00597103
0.0125245
0.00597405
0.00968597
0.00599681
0.00473994
0.00600653
-0.000854027
0.00599285
-0.00561387
0.00596808
-0.00829314
0.00588792
-0.0089519
-0.0085786
0.00669726
-0.00711219
0.0063815
-0.00691091
0.00610393
-0.0065869
0.00583699
-0.0060952
0.00553937
-0.00554602
0.00524354
-0.00496887
0.00505048
-0.00413972
0.00503824
-0.00283071
0.00519801
-0.000992164
0.00545682
0.00135004
0.00572886
0.00423814
0.00595807
0.0075353
0.00612044
0.010683
0.00620658
0.0126707
0.00623429
0.0124968
0.00625177
0.00966849
0.00628506
0.00470664
0.00629019
-0.00085916
0.00625368
-0.00557736
0.00620181
-0.00824127
0.0061052
-0.0088553
-0.00837511
0.00689851
-0.00676517
0.00657211
-0.0065845
0.00628682
-0.0063016
0.00602334
-0.00583172
0.00573597
-0.00525865
0.00544255
-0.00467545
0.0052384
-0.00393558
0.00520989
-0.0028022
0.00535926
-0.00114153
0.00561937
0.00108993
0.00590616
0.00395134
0.00616116
0.0072803
0.00635312
0.010491
0.00646335
0.0125604
0.00650913
0.012451
0.00654314
0.00963448
0.00658794
0.00466184
0.00658883
-0.000860058
0.0065283
-0.00551682
0.00644626
-0.00815923
0.00633058
-0.00873962
-0.00816135
0.00709917
-0.00640956
0.00676545
-0.00625079
0.00647335
-0.00600949
0.00621321
-0.00557158
0.00593788
-0.00498332
0.00564957
-0.00438714
0.0054346
-0.00372061
0.00538723
-0.00275483
0.00552338
-0.00127768
0.00578392
0.000829381
0.00608654
0.00364873
0.00636941
0.00699743
0.00659273
0.0102677
0.00672872
0.0124245
0.00679497
0.0123848
0.00684741
0.00958204
0.00690455
0.0046047
0.0069014
-0.000856915
0.0068159
-0.00543132
0.00670092
-0.00804425
0.00656355
-0.00860225
-0.0079372
0.00729867
-0.00604959
0.00696123
-0.00591334
0.00666352
-0.00571178
0.00640619
-0.00531424
0.00614421
-0.00472134
0.00586418
-0.0041071
0.00563957
-0.003496
0.00557095
-0.00268621
0.00569046
-0.00139719
0.00594986
0.000569975
0.00626897
0.00332963
0.00658144
0.00668496
0.00683771
0.0100114
0.00700136
0.0122608
0.00709075
0.0122954
0.00716369
0.0095091
0.00723372
0.00453467
0.0072265
-0.00084969
0.00711528
-0.0053201
0.00696501
-0.00789398
0.00680343
-0.00844067
-0.00770256
0.00749663
-0.00568938
0.00715914
-0.00557585
0.00685743
-0.00541008
0.00660203
-0.00505885
0.00635401
-0.00447332
0.00608567
-0.00383876
0.00585377
-0.00326411
0.00576216
-0.00259459
0.00586108
-0.00149611
0.00611687
0.000314191
0.00645246
0.00299404
0.00679566
0.00634176
0.0070861
0.00972101
0.00727944
0.0120675
0.00739509
0.0121797
0.00749081
0.00941338
0.00757402
0.00445146
0.0075623
-0.000837967
0.00742484
-0.00518264
0.00723747
-0.00770661
0.0070494
-0.0082526
-0.00745742
0.00769287
-0.00533263
0.00735882
-0.0052418
0.00705515
-0.0051064
0.0068007
-0.0048044
0.00656631
-0.00423893
0.006313
-0.00358546
0.00607749
-0.0030286
0.00596232
-0.00247942
0.00603655
-0.00157035
0.00628514
6.56005e-05
0.00663608
0.0026431
0.00701013
0.00596771
0.00733539
0.00939575
0.00756059
0.0118423
0.00770615
0.0120342
0.00782724
0.00929229
0.00792359
0.00435511
0.00790652
-0.000820903
0.00774249
-0.00501861
0.0075169
-0.00748102
0.00730048
-0.00803617
-0.00720186
0.00788741
-0.00498248
0.00755994
-0.00491434
0.00725674
-0.0048032
0.00700235
-0.00455
0.00678028
-0.00401686
0.00654482
-0.00335
0.0063106
-0.00279438
0.00617309
-0.00234191
0.00621886
-0.00161612
0.00645554
-0.000171078
0.00681902
0.00227963
0.00722257
0.00556416
0.00758253
0.00903578
0.00784188
0.0115829
0.00802157
0.0118545
0.00817087
0.00914299
0.00827999
0.00424599
0.00825633
-0.000797246
0.00806572
-0.00482799
0.0078016
-0.00721691
0.0075555
-0.00779007
-0.00693611
0.00808048
-0.00464141
0.00776212
-0.00459598
0.00746215
-0.00450323
0.00720735
-0.0042952
0.00699537
-0.00380488
0.00677955
-0.00313418
0.00655236
-0.00256719
0.00639588
-0.00218543
0.00641052
-0.00163076
0.00662949
-0.000390044
0.00700057
0.00190855
0.00743035
0.00513438
0.00782392
0.00864221
0.00811972
0.0112871
0.00833834
0.0116359
0.00851895
0.00896238
0.00864009
0.00412485
0.00860834
-0.000765498
0.00839153
-0.00461118
0.00808958
-0.00691496
0.00781318
-0.00751367
-0.00666059
0.00827248
-0.00431126
0.00796504
-0.00428854
0.00767117
-0.00420936
0.00741617
-0.0040402
0.00721143
-0.00360014
0.00701556