/*--------------------------------*- C++ -*----------------------------------*\
  =========                 |
  \\      /  F ield         | OpenFOAM: The Open Source CFD Toolbox
   \\    /   O peration     | Website:  https://openfoam.org
    \\  /    A nd           | Version:  7
     \\/     M anipulation  |
\*---------------------------------------------------------------------------*/
FoamFile
{
    version     2.0;
    format      ascii;
    class       surfaceScalarField;
    location    "80";
    object      phi;
}
// * * * * * * * * * * * * * * * * * * * * * * * * * * * * * * * * * * * * * //

dimensions      [0 3 -1 0 0 0 0];

internalField   nonuniform List<scalar> 
13926
(
-3.12752e-07
2.35338e-05
-2.32211e-05
-1.25593e-06
6.73842e-05
-6.6441e-05
-2.85395e-06
0.000109303
-0.000107705
0.000148974
-0.000146702
-2.53859e-07
2.37877e-05
-1.03913e-06
6.81695e-05
-2.39352e-06
0.000110657
0.000150928
-1.95333e-07
2.3983e-05
-8.2302e-07
6.87972e-05
-1.93335e-06
0.000111767
0.000152564
-1.37443e-07
2.41204e-05
-6.08619e-07
6.92683e-05
-1.47558e-06
0.000112634
0.000153881
-8.05001e-08
2.42009e-05
-3.96994e-07
6.95848e-05
-1.02244e-06
0.00011326
0.000154879
-2.48189e-08
2.42258e-05
-1.89175e-07
6.97492e-05
-5.76081e-07
0.000113647
0.000155561
2.94774e-08
2.41963e-05
1.37634e-08
6.97649e-05
-1.38692e-07
0.000113799
0.000155931
8.18626e-08
2.41144e-05
2.10901e-07
6.96359e-05
2.8759e-07
0.000113722
0.000155995
1.32222e-07
2.39822e-05
4.01155e-07
6.93669e-05
7.00652e-07
0.000113423
0.00015576
1.80268e-07
2.38019e-05
5.83598e-07
6.89636e-05
1.09844e-06
0.000112908
0.000155233
2.25744e-07
2.35762e-05
7.57282e-07
6.84321e-05
1.4789e-06
0.000112186
0.000154425
2.68412e-07
2.33078e-05
9.21306e-07
6.77792e-05
1.84011e-06
0.000111268
0.000153347
3.08062e-07
2.29997e-05
1.07485e-06
6.70124e-05
2.1802e-06
0.000110162
0.000152011
3.44523e-07
2.26552e-05
1.21721e-06
6.61397e-05
2.49758e-06
0.000108882
4.07762e-06
0.000150431
0.000190357
3.77647e-07
2.22775e-05
1.34775e-06
6.51696e-05
2.79076e-06
0.000107439
4.59961e-06
0.000148622
0.000188276
4.07296e-07
2.18702e-05
1.46591e-06
6.4111e-05
3.05837e-06
0.000105846
5.07975e-06
0.000146601
0.000185917
4.33319e-07
2.14369e-05
1.57109e-06
6.29732e-05
3.29917e-06
0.000104118
5.51571e-06
0.000144384
0.000183301
4.55576e-07
2.09814e-05
1.66275e-06
6.1766e-05
3.5119e-06
0.000102269
5.90543e-06
0.000141991
0.000180449
4.73947e-07
2.05074e-05
1.74041e-06
6.04996e-05
3.69548e-06
0.000100314
6.24694e-06
0.000139439
0.000177381
4.88347e-07
2.00191e-05
1.80372e-06
5.91842e-05
3.84906e-06
9.82689e-05
6.53866e-06
0.000136749
0.000174122
4.98722e-07
1.95203e-05
1.85244e-06
5.78305e-05
3.97204e-06
9.61493e-05
6.77944e-06
0.000133942
1.0207e-05
0.000170694
0.000205929
5.05047e-07
1.90153e-05
1.88644e-06
5.64491e-05
4.06408e-06
9.39716e-05
6.96849e-06
0.000131038
1.054e-05
0.000167123
0.00020174
5.07321e-07
1.8508e-05
1.90567e-06
5.50507e-05
4.125e-06
9.17523e-05
7.10537e-06
0.000128057
1.07959e-05
0.000163432
0.000197381
5.05558e-07
1.80024e-05
1.91015e-06
5.36461e-05
4.15482e-06
8.95076e-05
7.19006e-06
0.000125022
1.09745e-05
0.000159648
0.00019288
4.99795e-07
1.75026e-05
1.90003e-06
5.22459e-05
4.15377e-06
8.72539e-05
7.22282e-06
0.000121953
1.10763e-05
0.000155795
1.56904e-05
0.000188266
0.000218903
4.90098e-07
1.70125e-05
1.87553e-06
5.08605e-05
4.12232e-06
8.50071e-05
7.20443e-06
0.000118871
1.11021e-05
0.000151897
1.58017e-05
0.000183566
0.000213408
4.76561e-07
1.6536e-05
1.83702e-06
4.95e-05
4.06124e-06
8.27829e-05
7.13614e-06
0.000115796
1.10538e-05
0.000147979
1.58113e-05
0.000178809
0.000207808
4.5931e-07
1.60766e-05
1.78496e-06
4.81744e-05
3.97154e-06
8.05963e-05
7.01967e-06
0.000112748
1.09339e-05
0.000144065
1.57227e-05
0.00017402
0.000202132
4.38503e-07
1.56381e-05
1.71999e-06
4.68929e-05
3.85456e-06
7.84617e-05
6.85725e-06
0.000109745
1.07458e-05
0.000140176
1.55406e-05
0.000169225
2.1265e-05
0.000196407
0.000221289
4.14337e-07
1.52238e-05
1.64284e-06
4.56644e-05
3.71192e-06
7.63926e-05
6.65169e-06
0.000106805
1.04937e-05
0.000136334
1.52708e-05
0.000164448
2.10175e-05
0.000190661
0.000214534
3.87048e-07
1.48368e-05
1.55442e-06
4.4497e-05
3.5456e-06
7.44014e-05
6.40639e-06
0.000103945
1.01827e-05
0.000132558
1.49203e-05
0.000159711
2.06656e-05
0.000184915
0.000207732
3.56913e-07
1.44798e-05
1.45581e-06
4.33981e-05
3.35793e-06
7.24993e-05
6.12534e-06
0.000101177
9.81883e-06
0.000128865
1.44977e-05
0.000155032
2.02206e-05
0.000179192
0.000200905
3.24259e-07
1.41556e-05
1.34823e-06
4.23741e-05
3.15157e-06
7.0696e-05
5.81316e-06
9.85156e-05
9.40914e-06
0.000125269
1.40128e-05
0.000150428
1.96958e-05
0.000173509
2.65301e-05
0.00019407
0.000211711
2.89455e-07
1.38661e-05
1.2331e-06
4.14305e-05
2.92958e-06
6.89995e-05
5.4751e-06
9.59701e-05
8.96158e-06
0.000121782
1.34769e-05
0.000145913
1.9106e-05
0.00016788
2.59336e-05
0.000187243
0.000203598
2.52921e-07
1.36132e-05
1.11198e-06
4.05714e-05
2.69538e-06
6.74161e-05
5.11703e-06
9.35484e-05
8.48514e-06
0.000118414
1.29025e-05
0.000141495
1.84681e-05
0.000162315
2.52801e-05
0.000180431
0.000195439
2.15124e-07
1.33981e-05
9.86634e-07
3.97999e-05
2.45273e-06
6.595e-05
4.74547e-06
9.12557e-05
7.98969e-06
0.00011517
1.23037e-05
0.000137181
1.78011e-05
0.000156817
2.4594e-05
0.000173638
3.27965e-05
0.000187237
0.000197237
1.7658e-07
1.32215e-05
8.58964e-07
3.91175e-05
2.20575e-06
6.46032e-05
4.36748e-06
8.9094e-05
7.48603e-06
0.000112051
1.16957e-05
0.000132972
1.71253e-05
0.000151388
2.3902e-05
0.000166861
3.21548e-05
0.000178984
0.000187373
1.37845e-07
1.30837e-05
7.31033e-07
3.85244e-05
1.95887e-06
6.33754e-05
3.99066e-06
8.70622e-05
6.9857e-06
0.000109056
1.10947e-05
0.000128863
1.64627e-05
0.00014602
2.32325e-05
0.000160091
3.15495e-05
0.000170667
0.000177356
9.95166e-08
1.29841e-05
6.05029e-07
3.80188e-05
1.71677e-06
6.22636e-05
3.62306e-06
8.51559e-05
6.50098e-06
0.000106178
1.05183e-05
0.000124845
1.58367e-05
0.000140701
2.26159e-05
0.000153312
3.10188e-05
0.000162264
4.12162e-05
0.000167159
0.000167607
6.22211e-08
1.29219e-05
4.83248e-07
3.75978e-05
1.48435e-06
6.12625e-05
3.27308e-06
8.33672e-05
6.04463e-06
0.000103407
9.98435e-06
0.000120906
1.52715e-05
0.000135414
2.20838e-05
0.0001465
3.0603e-05
0.000153745
4.10203e-05
0.000156742
0.000155085
2.6611e-08
1.28953e-05
3.68056e-07
3.72564e-05
1.26667e-06
6.03639e-05
2.94937e-06
8.16845e-05
5.62983e-06
0.000100726
9.51153e-06
0.000117024
1.47921e-05
0.000130133
2.16686e-05
0.000139623
3.03431e-05
0.000145071
4.10288e-05
0.000146056
5.3957e-05
0.000142157
0.000132941
-6.6566e-09
1.2902e-05
2.61854e-07
3.69879e-05
1.06884e-06
5.95569e-05
2.66068e-06
8.00926e-05
5.26986e-06
9.81171e-05
9.11863e-06
0.000113175
1.4424e-05
0.000124828
2.14033e-05
0.000132644
3.02805e-05
0.000136193
4.12931e-05
0.000135043
5.46984e-05
0.000128751
0.000116859
-3.69098e-08
1.29389e-05
1.67036e-07
3.67839e-05
8.95945e-07
5.8828e-05
2.41572e-06
7.85729e-05
4.97797e-06
9.55548e-05
8.82435e-06
0.000109329
1.41921e-05
0.00011946
2.13203e-05
0.000125516
3.04563e-05
0.000127057
4.18635e-05
0.000123636
5.58275e-05
0.000114787
7.26639e-05
0.000100022
7.88223e-05
-6.35077e-08
1.30024e-05
8.59431e-08
3.66345e-05
7.52961e-07
5.8161e-05
2.22297e-06
7.71029e-05
4.76706e-06
9.30107e-05
8.6469e-06
0.000105449
1.4121e-05
0.000113986
2.14512e-05
0.000118186
3.09102e-05
0.000117598
4.27887e-05
0.000111758
5.74027e-05
0.000100173
7.51005e-05
8.23245e-05
5.76544e-05
-8.58225e-08
1.30882e-05
2.08393e-08
3.65278e-05
6.44643e-07
5.75372e-05
2.09056e-06
7.56569e-05
4.64946e-06
9.04518e-05
8.60369e-06
0.000101495
1.42339e-05
0.000108356
2.18262e-05
0.000110593
3.16797e-05
0.000107745
4.41142e-05
9.93231e-05
5.94777e-05
8.48097e-05
7.81528e-05
6.36495e-05
3.52456e-05
-1.03279e-07
1.31915e-05
-2.61007e-08
3.64506e-05
5.75419e-07
5.69357e-05
2.02607e-06
7.42063e-05
4.63669e-06
8.78412e-05
8.71091e-06
9.74206e-05
1.45525e-05
0.000102514
2.24729e-05
0.000102673
3.27991e-05
9.74186e-05
4.58815e-05
8.62407e-05
6.2101e-05
6.85902e-05
8.18751e-05
4.38754e-05
0.000105662
1.14585e-05
-2.93444e-05
-1.15383e-07
1.33069e-05
-5.34004e-08
3.63886e-05
5.49261e-07
5.6333e-05
2.03635e-06
7.27192e-05
4.73915e-06
8.51384e-05
8.98321e-06
9.31765e-05
1.50963e-05
9.64015e-05
2.34162e-05
9.4353e-05
3.4299e-05
8.65358e-05
4.81266e-05
7.24131e-05
6.53137e-05
5.14031e-05
8.63129e-05
2.28762e-05
0.000111618
-1.38462e-05
-5.94877e-05
-1.21656e-07
1.34285e-05
-5.90051e-08
3.6326e-05
5.69716e-07
5.57043e-05
2.12743e-06
7.11615e-05
4.96599e-06
8.22998e-05
9.43342e-06
8.87091e-05
1.58822e-05
8.99527e-05
2.46775e-05
8.55577e-05
3.62053e-05
7.5008e-05
5.08797e-05
5.77386e-05
6.91493e-05
3.31336e-05
9.15011e-05
5.24392e-07
0.000118461
-4.08066e-05
0.000150593
-9.16191e-05
-0.0001527
-1.21722e-07
1.35502e-05
-4.16612e-08
3.62459e-05
6.39715e-07
5.50229e-05
2.30433e-06
6.94969e-05
5.32484e-06
7.92793e-05
1.00722e-05
8.39618e-05
1.69243e-05
8.31006e-05
2.62743e-05
7.62077e-05
3.85387e-05
6.27436e-05
5.41641e-05
4.21133e-05
7.36323e-05
1.36654e-05
9.74631e-05
-2.33064e-05
0.000126213
-6.95564e-05
0.000160468
-0.000125874
-0.000193063
-1.15295e-07
1.36655e-05
3.24391e-11
3.61306e-05
7.61548e-07
5.42614e-05
2.57102e-06
6.76874e-05
5.82173e-06
7.60286e-05
1.09079e-05
7.88756e-05
1.82334e-05
7.57751e-05
2.82199e-05
6.62212e-05
4.13145e-05
4.9649e-05
5.79957e-05
2.5432e-05
7.87778e-05
-7.11666e-06
0.00010421
-4.87391e-05
0.000134876
-0.000100221
0.000171377
-0.000162375
0.00021432
-0.000236007
-0.000321881
-1.02382e-07
1.37679e-05
6.54002e-08
3.59628e-05
9.36517e-07
5.33903e-05
2.93009e-06
6.56938e-05
6.46071e-06
7.2498e-05
1.19463e-05
7.339e-05
1.98169e-05
6.79045e-05
3.05228e-05
5.55153e-05
4.45416e-05
3.56302e-05
6.2383e-05
7.59063e-06
8.45911e-05
-2.93248e-05
0.000111742
-7.58905e-05
0.000144438
-0.000132918
0.000183291
-0.000201228
0.000228901
-0.000281617
0.000281826
-0.000374805
-0.000481373
-8.26169e-08
1.38505e-05
1.56495e-07
3.57237e-05
1.16608e-06
5.23807e-05
3.38366e-06
6.34762e-05
7.2448e-06
6.86369e-05
1.31911e-05
6.74437e-05
2.16791e-05
5.94166e-05
3.31874e-05
4.40069e-05
4.82234e-05
2.05942e-05
6.73264e-05
-1.15123e-05
9.10676e-05
-5.3066e-05
0.000120046
-0.000104868
0.000154874
-0.000167746
0.000196166
-0.000242519
0.0002445
-0.000329951
0.00030039
-0.000430696
-0.000545223
-5.61154e-08
1.39067e-05
2.72727e-07
3.53949e-05
1.45025e-06
5.12032e-05
3.93204e-06
6.09944e-05
8.17454e-06
6.43944e-05
1.46431e-05
6.09751e-05
2.38204e-05
5.02393e-05
3.62132e-05
3.16141e-05
5.23573e-05
4.45014e-06
7.28192e-05
-3.19742e-05
9.81937e-05
-7.84405e-05
0.000129095
-0.00013577
0.000166144
-0.000204794
0.000209937
-0.000286313
0.000261024
-0.000381038
0.000319857
-0.000489529
0.000386746
-0.000612113
-0.000748803
-2.30114e-08
1.39297e-05
4.13861e-07
3.4958e-05
1.78863e-06
4.98284e-05
4.57463e-06
5.82084e-05
9.24906e-06
5.97199e-05
1.63009e-05
5.39233e-05
2.62384e-05
4.03017e-05
3.95956e-05
1.8257e-05
5.69349e-05
-1.28892e-05
7.88473e-05
-5.38867e-05
0.000105947
-0.00010554
0.000138857
-0.00016868
0.000178193
-0.00024413
0.00022453
-0.00033265
0.000278367
-0.000434875
0.00034008
-0.000551241
0.000409867
-0.000681901
-0.00082664
1.66739e-08
1.3913e-05
5.79391e-07
3.43953e-05
2.18025e-06
4.82275e-05
5.30988e-06
5.50788e-05
1.0466e-05
5.45638e-05
1.81606e-05
4.62286e-05
2.89274e-05
2.9535e-05
4.33257e-05
3.85864e-06
6.19429e-05
-3.15063e-05
8.53905e-05
-7.73343e-05
0.000114296
-0.000134445
0.000149285
-0.00020367
0.000190958
-0.000285803
0.000239854
-0.000381546
0.000296408
-0.000491429
0.0003609
-0.000615733
0.000433402
-0.000754402
0.000513724
-0.000906963
-0.00107246
6.24526e-08
1.38505e-05
7.68533e-07
3.36892e-05
2.62359e-06
4.63725e-05
6.1353e-06
5.15671e-05
1.18215e-05
4.88777e-05
2.02169e-05
3.78332e-05
3.1879e-05
1.78728e-05
4.73916e-05
-1.16539e-05
6.73634e-05
-5.14781e-05
9.24225e-05
-0.000102393
0.000123203
-0.000165226
0.000160326
-0.000240792
0.000204365
-0.000329842
0.000255809
-0.00043299
0.000315015
-0.000550635
0.00038215
-0.000682869
0.000457141
-0.000829394
0.000539625
-0.000989446
0.000628917
-0.00116176
-0.00134455
1.1419e-07
1.37363e-05
9.8034e-07
3.2823e-05
3.11675e-06
4.42361e-05
7.04771e-06
4.76361e-05
1.33107e-05
4.26147e-05
2.24623e-05
2.86816e-05
3.50828e-05
5.25227e-06
5.17778e-05
-2.83489e-05
7.31744e-05
-7.28747e-05
9.99122e-05
-0.000129131
0.000132626
-0.00019794
0.00017192
-0.000280086
0.000218332
-0.000376254
0.000272287
-0.000486946
0.000334048
-0.000612395
0.000403655
-0.000752476
0.000480876
-0.000906615
0.000565165
-0.00107374
0.000655637
-0.00125223
-0.00143999
1.71521e-07
1.35648e-05
1.21371e-06
3.17809e-05
3.65746e-06
4.17923e-05
8.04328e-06
4.32503e-05
1.49277e-05
3.57303e-05
2.48882e-05
1.87212e-05
3.85262e-05
-8.38578e-06
5.64665e-05
-4.62892e-05
7.93508e-05
-9.5759e-05
0.000107824
-0.000157605
0.000142515
-0.000232631
0.000184001
-0.000321572
0.000232771
-0.000425024
0.000289174
-0.000543348
0.000353361
-0.000676583
0.000425235
-0.00082435
0.000504396
-0.000985775
0.000590107
-0.00115945
0.000681294
-0.00134342
0.000776561
-0.00153526
-0.00173224
2.34087e-07
1.33307e-05
1.46744e-06
3.05475e-05
4.24326e-06
3.90165e-05
9.11782e-06
3.83758e-05
1.6666e-05
2.81821e-05
2.74849e-05
7.90228e-06
4.21952e-05
-2.30961e-05
6.1438e-05
-6.5532e-05
8.58649e-05
-0.000120186
0.000116121
-0.000187861
0.000152818
-0.000269328
0.000196499
-0.000365253
0.00024759
-0.000476115
0.000306349
-0.000602107
0.000372807
-0.000743041
0.000446714
-0.000898256
0.000527494
-0.00106656
0.000614227
-0.00124618
0.000705657
-0.00143485
0.000800233
-0.00162984
0.00089619
-0.0018282
-0.00202686
3.01527e-07
1.30292e-05
1.74028e-06
2.91088e-05
4.87153e-06
3.58853e-05
1.02668e-05
3.29805e-05
1.85185e-05
1.99305e-05
3.0242e-05
-3.82119e-06
4.60749e-05
-3.8929e-05
6.66709e-05
-8.6128e-05
9.26867e-05
-0.000146202
0.00012476
-0.000219934
0.000163479
-0.000308046
0.000209338
-0.000411112
0.000262691
-0.000529468
0.000323692
-0.000663108
0.000392236
-0.000811585
0.000467913
-0.000973933
0.000549972
-0.00114861
0.000637312
-0.00133352
0.000728517
-0.00152605
0.000821911
-0.00172323
0.000915663
-0.00192195
0.0010079
-0.0021191
-0.00231221
3.7349e-07
1.26557e-05
2.031e-06
2.74512e-05
5.53963e-06
3.23766e-05
1.14857e-05
2.70344e-05
2.0478e-05
1.09381e-05
3.31486e-05
-1.64917e-05
5.01493e-05
-5.59298e-05
7.21428e-05
-0.000108122
9.97852e-05
-0.000173844
0.0001337
-0.000253849
0.00017444
-0.000348786
0.000222443
-0.000459116
0.000277976
-0.000585001
0.000341077
-0.000726208
0.000411497
-0.000882005
0.000488659
-0.0010511
0.000571638
-0.00123159
0.000659166
-0.00142105
0.000749688
-0.00161657
0.00084144
-0.00181498
0.00093257
-0.00201308
0.00102126
-0.00220779
-0.00239677
4.49644e-07
1.22061e-05
2.33839e-06
2.55625e-05
6.24497e-06
2.847e-05
1.27698e-05
2.05096e-05
2.25371e-05
1.17084e-06
3.61935e-05
-3.01482e-05
5.44023e-05
-7.41386e-05
7.78305e-05
-0.00013155
0.000107128
-0.000203141
0.000142895
-0.000289616
0.000185641
-0.000391533
0.000235735
-0.00050921
0.000293345
-0.000642611
0.000358381
-0.000791244
0.000430443
-0.000954067
0.000508785
-0.00112944
0.000592313
-0.00131512
0.000679611
-0.00150835
0.00076901
-0.00170597
0.000858699
-0.00190467
0.000946846
-0.00210123
0.00103174
-0.00229268
0.00111186
-0.00247689
-0.00265142
5.29693e-07
1.16764e-05
2.66134e-06
2.34309e-05
6.98507e-06
2.41463e-05
1.41147e-05
1.33799e-05
2.46886e-05
-9.40301e-06
3.93657e-05
-4.48253e-05
5.88175e-05
-9.35903e-05
8.37106e-05
-0.000156443
0.000114681
-0.000234112
0.0001523
-0.000327234
0.000197022
-0.000436255
0.000249134
-0.000561322
0.000308696
-0.000702174
0.000375481
-0.000858029
0.00044893
-0.00102752
0.000528132
-0.00120864
0.000611833
-0.00139882
0.000698489
-0.001595
0.000786352
-0.00179383
0.000873598
-0.00199192
0.000958457
-0.00218609
0.00103935
-0.00237358
0.00111498
-0.00255252
0.00118449
-0.00272094
-0.00287902
6.13376e-07
1.1063e-05
2.99883e-06
2.10454e-05
7.75759e-06
1.93875e-05
1.55162e-05
5.62132e-06
2.69253e-05
-2.08121e-05
4.26542e-05
-6.05542e-05
6.33783e-05
-0.000114314
8.9759e-05
-0.000182824
0.000122413
-0.000266766
0.000161869
-0.00036669
0.000208519
-0.000482905
0.00026256
-0.000615363
0.000323929
-0.000763543
0.000392255
-0.000926355
0.000466819
-0.00110208
0.000546549
-0.00128837
0.000630048
-0.00148232
0.000715666
-0.00168062
0.000801611
-0.00187978
0.000886081
-0.00207639
0.000967407
-0.00226741
0.00104418
-0.00245035
0.00111531
-0.00262365
0.0011802
-0.00278583
-0.00293761
0.00123879
7.00477e-07
1.03625e-05
3.34996e-06
1.83959e-05
8.56042e-06
1.41771e-05
1.697e-05
-2.78831e-06
2.92404e-05
-3.30825e-05
4.60479e-05
-7.73617e-05
6.80683e-05
-0.000136335
9.59518e-05
-0.000210707
0.000130287
-0.000301101
0.000171555
-0.000407958
0.000220072
-0.000531423
0.000275932
-0.000671223
0.000338944
-0.000826555
0.000408586
-0.000995996
0.000483979
-0.00117747
0.0005639
-0.00136829
0.000646826
-0.00156525
0.000731031
-0.00176483
0.000814711
-0.00196346
0.000896124
-0.0021578
0.00097373
-0.00234502
0.00104631
-0.00252293
0.00111299
-0.00269033
0.00117343
-0.00284626
-0.00299189
0.0012277
7.90824e-07
9.57171e-06
3.71394e-06
1.54728e-05
9.39159e-06
8.49944e-06
1.84725e-05
-1.18692e-05
3.16272e-05
-4.62371e-05
4.95362e-05
-9.52707e-05
7.28711e-05
-0.00015967
0.000102265
-0.000240101
0.00013827
-0.000337106
0.00018131
-0.000450997
0.000231616
-0.000581729
0.000289169
-0.000728777
0.000353642
-0.000891027
0.000424359
-0.00106671
0.000500286
-0.0012534
0.000580059
-0.00144806
0.000662054
-0.00164724
0.000744498
-0.00184727
0.000825608
-0.00204457
0.000903734
-0.00223593
0.000977489
-0.00241877
0.00104585
-0.00259129
0.00110819
-0.00275267
0.00116436
-0.00290243
-0.00304212
0.00121459
8.84286e-07
8.68742e-06
4.09012e-06
1.2267e-05
1.02494e-05
2.34021e-06
2.002e-05
-2.16399e-05
3.40792e-05
-6.02963e-05
5.31085e-05
-0.0001143
7.77702e-05
-0.000184331
0.000108673
-0.000271003
0.000146327
-0.00037476
0.000191086
-0.000495756
0.000243088
-0.000633731
0.000302192
-0.00078788
0.000367927
-0.000956763
0.000439465
-0.00113825
0.000515623
-0.00132956
0.000594915
-0.00152736
0.000675639
-0.00172796
0.000756005
-0.00192764
0.000834283
-0.00212285
0.000908944
-0.00231059
0.000978773
-0.0024886
0.00104296
-0.00265548
0.00110108
-0.0028108
0.0011532
-0.00295454
-0.00308858
0.00119966
9.80767e-07
7.70666e-06
4.47791e-06
8.76982e-06
1.11321e-05
-4.31397e-06
2.16091e-05
-3.2117e-05
3.65903e-05
-7.52775e-05
5.67542e-05
-0.000134464
8.27488e-05
-0.000210326
0.000115152
-0.000303407
0.000154422
-0.000414029
0.000200835
-0.000542169
0.000254424
-0.00068732
0.00031492
-0.000848376
0.000381705
-0.00102355
0.000453801
-0.00121035
0.000529888
-0.00140565
0.000608374
-0.00160584
0.000687509
-0.0018071
0.000765515
-0.00200564
0.000840746
-0.00219808
0.000911813
-0.00238166
0.000977692
-0.00255448
0.00103777
-0.00271556
0.00109185
-0.00286487
0.00114014
-0.00300283
-0.00313155
0.0011831
1.0802e-06
6.62646e-06
4.87682e-06
4.9732e-06
1.20383e-05
-1.14755e-05
2.32365e-05
-4.33151e-05
3.91541e-05
-9.11951e-05
6.04626e-05
-0.000155772
8.77902e-05
-0.000237654
0.000121677
-0.000337293
0.000162519
-0.000454871
0.000210507
-0.000590157
0.000265561
-0.000742375
0.000327276
-0.000910092
0.000394888
-0.00109116
0.000467273
-0.00128273
0.000542987
-0.00148136
0.000620358
-0.00168321
0.000697612
-0.00188435
0.000773015
-0.00208105
0.000845027
-0.00227009
0.000912423
-0.00244905
0.00097437
-0.00261643
0.00103046
-0.00277165
0.00108068
-0.00291509
0.00112538
-0.00304754
-0.00317129
0.00116512
1.18254e-06
5.44391e-06
5.28641e-06
8.69338e-07
1.29666e-05
-1.91556e-05
2.48988e-05
-5.52474e-05
4.17643e-05
-0.000108061
6.4223e-05
-0.000178231
9.28769e-05
-0.000266308
0.00012822
-0.000372637
0.000170581
-0.000497232
0.000220052
-0.000639629
0.000276435
-0.000798757
0.000339185
-0.000972842
0.000407391
-0.00115937
0.000479793
-0.00135513
0.000554841
-0.00155641
0.000630806
-0.00175918
0.000705917
-0.00195946
0.000778511
-0.00215364
0.00084718
-0.00233876
0.000910871
-0.00251274
0.000968946
-0.0026745
0.00102119
-0.00282389
0.00106775
-0.00296165
0.00110911
-0.0030889
-0.00320806
0.00114588
1.28776e-06
4.15615e-06
5.70624e-06
-3.54914e-06
1.39154e-05
-2.73648e-05
2.65928e-05
-6.79248e-05
4.44144e-05
-0.000125882
6.8024e-05
-0.000201841
9.79912e-05
-0.000296275
0.000134757
-0.000409402
0.00017857
-0.000541045
0.000229422
-0.000690481
0.000286985
-0.000856321
0.000350573
-0.00103643
0.000419135
-0.00122793
0.000491284
-0.00142728
0.000565384
-0.00163051
0.000639673
-0.00183347
0.000712412
-0.0020322
0.000782034
-0.00222326
0.000847278
-0.002404
0.00090727
-0.00257274
0.000961565
-0.0027288
0.00101012
-0.00287245
0.00105324
-0.00300477
0.0010915
-0.00312716
-0.00324211
0.00112555
1.39581e-06
2.76034e-06
6.13588e-06
-8.2892e-06
1.48834e-05
-3.61123e-05
2.83149e-05
-8.13564e-05
4.70976e-05
-0.000144665
7.1854e-05
-0.000226597
0.000103114
-0.000327535
0.000141259
-0.000447547
0.000186449
-0.000586235
0.000238566
-0.000742597
0.000297149
-0.000914904
0.000361372
-0.00110065
0.000430047
-0.0012966
0.000501678
-0.00149891
0.000574563
-0.00170339
0.000646934
-0.00190584
0.000717106
-0.00210237
0.00078363
-0.00228979
0.000845406
-0.00246578
0.000901744
-0.00262907
0.000952379
-0.00277943
0.000997432
-0.0029175
0.00103732
-0.00304466
0.00107271
-0.00316255
-0.00327368
0.00110428
1.50666e-06
1.25368e-06
6.57484e-06
-1.33574e-05
1.58688e-05
-4.54063e-05
3.00615e-05
-9.5549e-05
4.98069e-05
-0.00016441
7.57007e-05
-0.000252491
0.000108227
-0.000360062
0.000147697
-0.000487017
0.000194179
-0.000632717
0.000247434
-0.000795852
0.000306869
-0.000974339
0.000371517
-0.0011653
0.000440064
-0.00136515
0.00051092
-0.00156977
0.000582341
-0.00177482
0.000652576
-0.00197607
0.000720021
-0.00216982
0.000783362
-0.00235313
0.000841664
-0.00252408
0.000894421
-0.00268183
0.000941539
-0.00282655
0.000983279
-0.00295924
0.00102017
-0.00308155
0.00105291
-0.00319529
-0.00330297
0.0010822
1.62025e-06
-3.6657e-07
7.02258e-06
-1.87597e-05
1.68701e-05
-5.52537e-05
3.18285e-05
-0.000110507
5.25346e-05
-0.000185116
7.95512e-05
-0.000279508
0.00011331
-0.000393821
0.000154045
-0.000527751
0.000201722
-0.000680394
0.00025598
-0.00085011
0.000316088
-0.00103445
0.000380947
-0.00123016
0.000449127
-0.00143333
0.000518965
-0.00163961
0.000588694
-0.00184454
0.000656606
-0.00204399
0.000721199
-0.00223441
0.000781304
-0.00241323
0.000836161
-0.00257894
0.000885437
-0.00273111
0.000929195
-0.00287031
0.00096782
-0.00299787
0.00100192
-0.00311564
0.00103223
-0.0032256
-0.00333018
0.00105944
1.73648e-06
-2.10305e-06
7.47846e-06
-2.45017e-05
1.78851e-05
-6.56604e-05
3.36115e-05
-0.000126234
5.52725e-05
-0.000206777
8.33921e-05
-0.000307627
0.000118342
-0.00042877
0.000160271
-0.000569681
0.000209038
-0.000729161
0.000264154
-0.000905225
0.000324753
-0.00109505
0.000389608
-0.00129502
0.00045719
-0.00150091
0.000525778
-0.00170819
0.000593611
-0.00191238
0.000659044
-0.00210942
0.000720692
-0.00229606
0.000777543
-0.00247008
0.000829011
-0.0026304
0.000874927
-0.00277702
0.000915495
-0.00291088
0.000951202
-0.00303357
0.000982714
-0.00314716
0.00101079
-0.00325367
-0.00335549
0.0010361
1.85523e-06
-3.95828e-06
7.94172e-06
-3.05882e-05
1.89117e-05
-7.66303e-05
3.54059e-05
-0.000142728
5.80119e-05
-0.000229383
8.72089e-05
-0.000336824
0.000123301
-0.000464863
0.000166347
-0.000612726
0.00021609
-0.000778904
0.000271912
-0.000961047
0.000332815
-0.00115595
0.000397453
-0.00135965
0.000464213
-0.00156767
0.000531339
-0.00177532
0.000597096
-0.00197813
0.000659921
-0.00217224
0.000718564
-0.0023547
0.000772174
-0.00252369
0.000820332
-0.00267856
0.000863024
-0.00281972
0.000900577
-0.00294843
0.000933561
-0.00306656
0.000962684
-0.00317628
0.000988703
-0.00327969
-0.00337907
0.00101227
1.97636e-06
-5.93464e-06
8.41148e-06
-3.70233e-05
1.99475e-05
-8.81663e-05
3.72065e-05
-0.000159987
6.07437e-05
-0.000252921
9.0987e-05
-0.000367067
0.000128167
-0.000502042
0.000172242
-0.000656802
0.00022284
-0.000829502
0.000279211
-0.00101742
0.000340229
-0.00121697
0.000404441
-0.00142387
0.000470166
-0.0016334
0.000535637
-0.00184079
0.000599163
-0.00204166
0.000659283
-0.00223236
0.000714891
-0.00241031
0.000765297
-0.0025741
0.000810245
-0.00272351
0.00084986
-0.00285933
0.000884576
-0.00298314
0.000915026
-0.00309701
0.000941944
-0.0032032
0.000966074
-0.00330382
-0.00340104
0.000988045
2.09967e-06
-8.03432e-06
8.88674e-06
-4.38104e-05
2.09897e-05
-0.000100269
3.90077e-05
-0.000178005
6.3458e-05
-0.000277371
9.47108e-05
-0.00039832
0.000132916
-0.000540247
0.000177928
-0.000701815
0.000229252
-0.000880826
0.000286009
-0.00107418
0.000346953
-0.00127791
0.000410537
-0.00148745
0.00047503
-0.00169789
0.000538672
-0.00190443
0.000599838
-0.00210283
0.000657184
-0.00228971
0.000709752
-0.00246288
0.000757016
-0.00262136
0.000798868
-0.00276536
0.000835561
-0.00289602
0.000867615
-0.0030152
0.000895713
-0.0031251
0.000920596
-0.00322808
0.000942988
-0.00332621
-0.00342153
0.000963482
2.22493e-06
-1.02592e-05
9.36636e-06
-5.09518e-05
2.20354e-05
-0.000112938
4.08036e-05
-0.000196773
6.61446e-05
-0.000302712
9.83646e-05
-0.00043054
0.000137526
-0.000579408
0.000183375
-0.000747664
0.000235292
-0.000932743
0.000292271
-0.00113115
0.000352955
-0.0013386
0.000415716
-0.00155021
0.000478793
-0.00176097
0.000540454
-0.0019661
0.000599158
-0.00216153
0.000653686
-0.00234424
0.000703235
-0.00251243
0.000747435
-0.00266556
0.000786318
-0.00280424
0.000820247
-0.00292995
0.000849813
-0.00304476
0.000875728
-0.00315102
0.000898732
-0.00325108
0.000919521
-0.003347
-0.00344066
0.000938646
2.35185e-06
-1.26111e-05
9.84906e-06
-5.8449e-05
2.30814e-05
-0.000126171
4.25878e-05
-0.00021628
6.87928e-05
-0.000328917
0.000101932
-0.000463679
0.000141974
-0.000619451
0.000188554
-0.000794244
0.000240926
-0.000985115
0.000297963
-0.00118819
0.000358203
-0.00139884
0.000419958
-0.00161196
0.000481454
-0.00182246
0.000541005
-0.00202565
0.000597167
-0.00221769
0.000648859
-0.00239593
0.00069543
-0.002559
0.00073666
-0.00270679
0.000772708
-0.00284029
0.000804031
-0.00296128
0.000831274
-0.00307201
0.000855167
-0.00317491
0.000876435
-0.00327235
0.000895739
-0.00336631
-0.00345851
0.00091359
2.48013e-06
-1.50912e-05
1.03335e-05
-6.63023e-05
2.41241e-05
-0.000139961
4.43537e-05
-0.000236509
7.13916e-05
-0.000355955
0.000105397
-0.000497685
0.00014624
-0.000660294
0.000193439
-0.000841443
0.000246125
-0.0010378
0.000303054
-0.00124512
0.000362676
-0.00145846
0.000423252
-0.00167254
0.000483019
-0.00188223
0.000540351
-0.00208298
0.000593916
-0.00227126
0.000642776
-0.00244479
0.000686428
-0.00260265
0.000724794
-0.00274516
0.000758147
-0.00287365
0.00078702
-0.00299015
0.000812097
-0.00309708
0.000834115
-0.00319693
0.000853776
-0.00329201
0.0008717
-0.00338423
-0.00347516
0.000888357
2.60943e-06
-1.77007e-05
1.0818e-05
-7.45109e-05
2.51601e-05
-0.000154303
4.60945e-05
-0.000257444
7.39298e-05
-0.00038379
0.000108743
-0.000532498
0.000150301
-0.000701852
0.000198004
-0.000889146
0.000250862
-0.00109066
0.000307521
-0.00130178
0.000366355
-0.00151729
0.000425596
-0.00173178
0.000483502
-0.00194013
0.000538529
-0.00213801
0.000589465
-0.00232219
0.000635514
-0.00249084
0.000676322
-0.00264346
0.000711938
-0.00278077
0.000742736
-0.00290444
0.00076931
-0.00301672
0.000792371
-0.00312015
0.000812648
-0.00321721
0.000830816
-0.00331018
0.000847453
-0.00340087
-0.0034907
0.000862985
2.73939e-06
-2.044e-05
1.13012e-05
-8.30727e-05
2.61853e-05
-0.000169188
4.78029e-05
-0.000279061
7.63959e-05
-0.000412383
0.000111954
-0.000568055
0.000154136
-0.000744035
0.000202225
-0.000937234
0.000255111
-0.00114354
0.000311343
-0.00135801
0.00036923
-0.00157518
0.00042699
-0.00178954
0.000482925
-0.00199607
0.000535582
-0.00219066
0.000583875
-0.00237048
0.000627154
-0.00253412
0.000665203
-0.00268151
0.000698189
-0.00281376
0.000726571
-0.00293282
0.000750992
-0.00304115
0.000772175
-0.00314133
0.000790835
-0.00323587
0.000807612
-0.00332696
0.000823041
-0.0034163
-0.00350516
0.000837506
2.86963e-06
-2.33097e-05
1.17813e-05
-9.19844e-05
2.7196e-05
-0.000184602
4.94718e-05
-0.000301337
7.87788e-05
-0.00044169
0.000115013
-0.00060429
0.000157726
-0.000786748
0.00020608
-0.000985588
0.000258852
-0.00119632
0.000314504
-0.00141366
0.000371295
-0.00163197
0.000427446
-0.00184569
0.000481317
-0.00204994
0.000531556
-0.0022409
0.000577212
-0.00241614
0.000617775
-0.00257468
0.00065316
-0.00271689
0.000683639
-0.00284424
0.000709743
-0.00295893
0.000732148
-0.00306355
0.000751581
-0.00316076
0.000768734
-0.00325302
0.00078421
-0.00334243
0.000798499
-0.00343058
-0.00351861
0.000811948
2.99974e-06
1.22566e-05
2.8188e-05
-0.000200534
5.10939e-05
-0.000324243
8.10671e-05
-0.000471663
0.000117907
-0.00064113
0.000161053
-0.000829893
0.000209549
-0.00103408
0.000262068
-0.00124884
0.000316993
-0.00146859
0.000372549
-0.00168753
0.000426979
-0.00190012
0.00047871
-0.00210167
0.000526504
-0.0022887
0.000569544
-0.00245918
0.000607456
-0.00261259
0.000640279
-0.00274972
0.000668375
-0.00287234
0.000692333
-0.00298289
0.000712853
-0.00308407
0.000730652
-0.00317856
0.000746397
-0.00326877
0.000760652
-0.00335669
0.00077386
-0.00344379
-0.00353108
0.000786332
2.91572e-05
5.26618e-05
8.32498e-05
-0.000502251
0.00012062
-0.0006785
0.000164098
-0.000873371
0.000212614
-0.0010826
0.000264744
-0.00130097
0.000318803
-0.00152265
0.000373
-0.00174172
0.000425609
-0.00195273
0.000475143
-0.00215121
0.000520481
-0.00233403
0.000560939
-0.00249964
0.000596277
-0.00264793
0.000626643
-0.00278008
0.00065248
-0.00289817
0.000674419
-0.00300483
0.000693173
-0.00310282
0.000709446
-0.00319483
0.000723871
-0.00328319
0.000736972
-0.00336979
0.000749149
-0.00345597
-0.00354261
0.000760678
8.53163e-05
0.000123139
0.000166847
0.000215263
-0.00113102
0.000266871
-0.00135257
0.000319934
-0.00157571
0.000372658
-0.00179445
0.000423364
-0.00200344
0.000470658
-0.0021985
0.000513543
-0.00237692
0.000551468
-0.00253756
0.000584315
-0.00268078
0.000612331
-0.0028081
0.000636028
-0.00292187
0.000656069
-0.00302487
0.000673169
-0.00311992
0.000688012
-0.00320968
0.000701195
-0.00329637
0.0007132
-0.00338179
0.00072439
-0.00346716
-0.00355323
0.000735004
0.000217481
0.00026844
0.000320388
0.000371537
-0.00184559
0.000420273