/*--------------------------------*- C++ -*----------------------------------*\
  =========                 |
  \\      /  F ield         | OpenFOAM: The Open Source CFD Toolbox
   \\    /   O peration     | Website:  https://openfoam.org
    \\  /    A nd           | Version:  7
     \\/     M anipulation  |
\*---------------------------------------------------------------------------*/
FoamFile
{
    version     2.0;
    format      ascii;
    class       volScalarField;
    location    "120";
    object      p;
}
// * * * * * * * * * * * * * * * * * * * * * * * * * * * * * * * * * * * * * //

dimensions      [0 2 -2 0 0 0 0];

internalField   nonuniform List<scalar> 
10230
(
-0.292526
-0.297756
-0.299744
-0.300406
-0.299937
-0.29839
-0.295902
-0.292592
-0.288586
-0.283964
-0.278706
-0.29316
-0.298295
-0.300219
-0.300824
-0.3003
-0.298703
-0.296169
-0.292814
-0.288772
-0.284116
-0.278766
-0.294426
-0.29937
-0.301168
-0.301656
-0.301024
-0.299326
-0.296698
-0.293256
-0.289141
-0.284415
-0.27888
-0.296315
-0.300974
-0.302584
-0.302898
-0.302103
-0.300254
-0.297485
-0.293909
-0.289683
-0.284854
-0.279037
-0.298816
-0.303099
-0.304459
-0.304543
-0.30353
-0.301479
-0.298521
-0.294766
-0.290387
-0.285423
-0.279206
-0.301916
-0.305735
-0.306785
-0.306581
-0.305296
-0.302992
-0.299797
-0.295815
-0.291245
-0.286143
-0.279318
-0.3056
-0.308868
-0.309549
-0.309
-0.307389
-0.304782
-0.3013
-0.297043
-0.292249
-0.287056
-0.279341
-0.309849
-0.312484
-0.312738
-0.311789
-0.309799
-0.306837
-0.303018
-0.298438
-0.293357
-0.287764
-0.279645
-0.314646
-0.316569
-0.316338
-0.314935
-0.312513
-0.309145
-0.30494
-0.299986
-0.294581
-0.288613
-0.279782
-0.319971
-0.321105
-0.320335
-0.318425
-0.315519
-0.311696
-0.307055
-0.301675
-0.295898
-0.289537
-0.279767
-0.325806
-0.326077
-0.324714
-0.322245
-0.318805
-0.314479
-0.309354
-0.303497
-0.297291
-0.290487
-0.279602
-0.332132
-0.331468
-0.32946
-0.326382
-0.322361
-0.317487
-0.311832
-0.305446
-0.298754
-0.291448
-0.279255
-0.338931
-0.33726
-0.33456
-0.330825
-0.326178
-0.320713
-0.314485
-0.307522
-0.300287
-0.292412
-0.278689
-0.346185
-0.343439
-0.339996
-0.335562
-0.330248
-0.324154
-0.317316
-0.309731
-0.301897
-0.293378
-0.277874
-0.353874
-0.349986
-0.345756
-0.340581
-0.334563
-0.327808
-0.32033
-0.312087
-0.3036
-0.294354
-0.276781
-0.361979
-0.356884
-0.351825
-0.345872
-0.33912
-0.331679
-0.323538
-0.314609
-0.305424
-0.29536
-0.275396
-0.370477
-0.364112
-0.358185
-0.351424
-0.343913
-0.335768
-0.326953
-0.317328
-0.307414
-0.296439
-0.273745
-0.379344
-0.371649
-0.364821
-0.357226
-0.348937
-0.34008
-0.330593
-0.320283
-0.309637
-0.297679
-0.271945
-0.388551
-0.379472
-0.371714
-0.363263
-0.354186
-0.34462
-0.334478
-0.323517
-0.312177
-0.299158
-0.270087
-0.398063
-0.387554
-0.378843
-0.369522
-0.359653
-0.349389
-0.338628
-0.327096
-0.315135
-0.300785
-0.267774
-0.407842
-0.395865
-0.386184
-0.375985
-0.365326
-0.354387
-0.343069
-0.331125
-0.318748
-0.302788
-0.265341
-0.417846
-0.404372
-0.393709
-0.38263
-0.371188
-0.3596
-0.347806
-0.335694
-0.323432
-0.307662
-0.273099
-0.428025
-0.413038
-0.40139
-0.38943
-0.377212
-0.364993
-0.352776
-0.340652
-0.328981
-0.317842
-0.316371
-0.43833
-0.421822
-0.409192
-0.396356
-0.383365
-0.370511
-0.357849
-0.345616
-0.334196
-0.324573
-0.330712
-0.448705
-0.430682
-0.417078
-0.403374
-0.389612
-0.37611
-0.362944
-0.350411
-0.33877
-0.328721
-0.335356
-0.459096
-0.439572
-0.425009
-0.41045
-0.39592
-0.381755
-0.368025
-0.355034
-0.342909
-0.332013
-0.337627
-0.469441
-0.44844
-0.432941
-0.417544
-0.402254
-0.38741
-0.373063
-0.359486
-0.346689
-0.334764
-0.338338
-0.479678
-0.457232
-0.440824
-0.424613
-0.40857
-0.393034
-0.378018
-0.363742
-0.350098
-0.336961
-0.337902
-0.48974
-0.465888
-0.448605
-0.431606
-0.414821
-0.398576
-0.38284
-0.367759
-0.353121
-0.338633
-0.33667
-0.499552
-0.47434
-0.456222
-0.438464
-0.420949
-0.403979
-0.38747
-0.371491
-0.355734
-0.339805
-0.334834
-0.509034
-0.482517
-0.463606
-0.445121
-0.426887
-0.409176
-0.391842
-0.374878
-0.357904
-0.340473
-0.332487
-0.518097
-0.490337
-0.470681
-0.451504
-0.432562
-0.414089
-0.39588
-0.377854
-0.359583
-0.340614
-0.32967
-0.526645
-0.497711
-0.477363
-0.457528
-0.437889
-0.418636
-0.399504
-0.380348
-0.360715
-0.340192
-0.326388
-0.534571
-0.504544
-0.483559
-0.463104
-0.442778
-0.422725
-0.402622
-0.382278
-0.361238
-0.33916
-0.322622
-0.541762
-0.510732
-0.48917
-0.468133
-0.447131
-0.426257
-0.405142
-0.383559
-0.36108
-0.337459
-0.318336
-0.548096
-0.516165
-0.49409
-0.472511
-0.450841
-0.429129
-0.406963
-0.384102
-0.360166
-0.335028
-0.313479
-0.553445
-0.520725
-0.498206
-0.476125
-0.453799
-0.43123
-0.407981
-0.383813
-0.358418
-0.3318
-0.307993
-0.557675
-0.524293
-0.501401
-0.47886
-0.455889
-0.432449
-0.408091
-0.382598
-0.355755
-0.327707
-0.301818
-0.560651
-0.526742
-0.503552
-0.480595
-0.456991
-0.432671
-0.407185
-0.380363
-0.352099
-0.322682
-0.294889
-0.562232
-0.527944
-0.504536
-0.481207
-0.456986
-0.431779
-0.405158
-0.377014
-0.347372
-0.316662
-0.287145
-0.56228
-0.527771
-0.504226
-0.480572
-0.455752
-0.42966
-0.401905
-0.372464
-0.3415
-0.309587
-0.278528
-0.560656
-0.526095
-0.502497
-0.478566
-0.45317
-0.426201
-0.397329
-0.366629
-0.334419
-0.301403
-0.268986
-0.557227
-0.522789
-0.499225
-0.47507
-0.449124
-0.421297
-0.391335
-0.359432
-0.326066
-0.292065
-0.258474
-0.551866
-0.517733
-0.494293
-0.469965
-0.443504
-0.414847
-0.38384
-0.350807
-0.316392
-0.281533
-0.246955
-0.544454
-0.510812
-0.487586
-0.463144
-0.436207
-0.406761
-0.374767
-0.340694
-0.305354
-0.26978
-0.234401
-0.534876
-0.501919
-0.478997
-0.454501
-0.427137
-0.396956
-0.36405
-0.329046
-0.29292
-0.256783
-0.220792
-0.523037
-0.490956
-0.468431
-0.443946
-0.416212
-0.385362
-0.351639
-0.315827
-0.279068
-0.242534
-0.206116
-0.50885
-0.477839
-0.455805
-0.431399
-0.403361
-0.371924
-0.337491
-0.301014
-0.263789
-0.227031
-0.190372
-0.492249
-0.462498
-0.441046
-0.416792
-0.388528
-0.356599
-0.321583
-0.284596
-0.247083
-0.210282
-0.173565
-0.47318
-0.444877
-0.4241
-0.400077
-0.371673
-0.339361
-0.303902
-0.266574
-0.228962
-0.192309
-0.155713
-0.45161
-0.424937
-0.404926
-0.381217
-0.35277
-0.320199
-0.284451
-0.246964
-0.209448
-0.173147
-0.136853
-0.427527
-0.402656
-0.383503
-0.360196
-0.331814
-0.299119
-0.26325
-0.225792
-0.188573
-0.152832
-0.116983
-0.400935
-0.378035
-0.359829
-0.337016
-0.308815
-0.276144
-0.240332
-0.203099
-0.166381
-0.13136
-0.0959175
-0.371865
-0.351091
-0.33392
-0.3117
-0.283805
-0.251316
-0.215746
-0.178943
-0.142928
-0.108749
-0.0734748
-0.340366
-0.321863
-0.305814
-0.284286
-0.256832
-0.224693
-0.189559
-0.153392
-0.118278
-0.0851966
-0.0513419
-0.306509
-0.290411
-0.275568
-0.254838
-0.227964
-0.196349
-0.161849
-0.126526
-0.0925031
-0.0605906
-0.0282614
-0.270389
-0.256815
-0.243259
-0.223436
-0.197288
-0.166377
-0.132709
-0.0984331
-0.0656976
-0.0351452
-0.00430907
-0.232118
-0.221176
-0.208985
-0.190178
-0.164908
-0.134886
-0.102242
-0.0692192
-0.0379531
-0.00893714
0.0203352
-0.191833
-0.183615
-0.172865
-0.155185
-0.130944
-0.101985
-0.0705818
-0.0389974
-0.00937209
0.0179568
0.0455544
-0.149687
-0.144268
-0.135033
-0.118591
-0.0955304
-0.0678244
-0.0378499
-0.00789274
0.0199315
0.04544
0.0712319
-0.105838
-0.103302
-0.0956452
-0.0805491
-0.0588229
-0.0325491
-0.00419043
0.0239585
0.0498333
0.0734002
0.0972345
-0.0604488
-0.0609251
-0.0548675
-0.0412265
-0.0209839
0.00368274
0.0302434
0.0564112
0.0802012
0.101719
0.123402
-0.0138402
-0.017233
-0.0128867
-0.000804718
0.0178113
0.0407026
0.0652914
0.0893132
0.110907
0.130296
0.149494
0.0338583
0.0275062
0.0300962
0.0405243
0.0573775
0.0783349
0.100787
0.122507
0.141829
0.159033
0.175129
0.0824135
0.0730773
0.073873
0.0825585
0.0975221
0.116399
0.136558
0.15583
0.172819
0.187615
0.199735
0.131576
0.119257
0.118225
0.125087
0.138047
0.154711
0.172441
0.189139
0.20366
0.215214
0.221786
0.181092
0.165809
0.162923
0.167892
0.17875
0.193092
0.208289
0.222342
0.234229
0.241174
0.240162
0.23071
0.212494
0.207735
0.210753
0.219425
0.231356
0.243954
0.255338
0.26466
0.268995
0.267003
0.280165
0.25906
0.25242
0.253442
0.259861
0.269313
0.279262
0.28795
0.294654
0.296727
0.294007
0.329194
0.305257
0.296738
0.295731
0.299848
0.306768
0.31403
0.319998
0.324033
0.323754
0.319797
0.377529
0.35083
0.340445
0.337391
0.339174
0.34353
0.348084
0.351322
0.352677
0.350025
0.34452
0.424906
0.395529
0.3833
0.378196
0.377631
0.379411
0.381255
0.381769
0.380455
0.375449
0.368216
0.471065
0.439104
0.425065
0.417923
0.415015
0.414228
0.41338
0.411196
0.407243
0.399912
0.390847
0.515749
0.48131
0.465505
0.456355
0.451129
0.447805
0.444306
0.43947
0.432928
0.423315
0.412366
0.558711
0.521909
0.504395
0.493279
0.485781
0.479973
0.473884
0.466463
0.457405
0.445574
0.432728
0.599709
0.560671
0.541515
0.528494
0.518788
0.510569
0.501974
0.492057
0.480577
0.466611
0.451888
0.638515
0.597374
0.576655
0.561804
0.549975
0.539441
0.528444
0.516141
0.502351
0.486351
0.469801
0.674909
0.631811
0.609616
0.593027
0.579178
0.566443
0.553169
0.53861
0.52264
0.504726
0.486421
0.708688
0.663783
0.640211
0.62199
0.606243
0.591442
0.576035
0.559365
0.541364
0.521666
0.501703
0.73966
0.693107
0.668266
0.648534
0.631026
0.614312
0.596934
0.578317
0.558447
0.53711
0.515603
0.76765
0.719615
0.693623
0.672512
0.653397
0.634939
0.615767
0.595383
0.573818
0.550998
0.528078
0.7925
0.743155
0.716136
0.693791
0.673238
0.65322
0.632446
0.610486
0.587413
0.563276
0.539089
0.814068
0.76359
0.735677
0.712254
0.690444
0.669064
0.646893
0.623559
0.599177
0.573896
0.5486
0.832233
0.780803
0.752134
0.727798
0.704923
0.68239
0.659038
0.634546
0.609058
0.582814
0.556578
0.84689
0.794694
0.765415
0.740338
0.716599
0.693132
0.668825
0.643395
0.617015
0.589993
0.562995
0.857957
0.805183
0.775442
0.749804
0.725411
0.701237
0.676205
0.650067
0.623013
0.595404
0.567828
0.86537
0.81221
0.782159
0.756145
0.731312
0.706662
0.681146
0.654532
0.627026
0.599024
0.57106
0.869087
0.815734
0.785527
0.759324
0.73427
0.709382
0.683622
0.65677
0.629037
0.600838
0.572679
0.869087
0.815734
0.785527
0.759324
0.73427
0.709382
0.683622
0.65677
0.629037
0.600838
0.572679
0.86537
0.81221
0.782159
0.756145
0.731312
0.706662
0.681146
0.654532
0.627026
0.599024
0.57106
0.857957
0.805183
0.775442
0.749804
0.725411
0.701237
0.676205
0.650067
0.623013
0.595404
0.567828
0.84689
0.794694
0.765415
0.740338
0.716599
0.693132
0.668825
0.643395
0.617015
0.589993
0.562995
0.832233
0.780803
0.752134
0.727798
0.704923
0.68239
0.659038
0.634546
0.609058
0.582814
0.556578
0.814068
0.76359
0.735677
0.712254
0.690444
0.669064
0.646893
0.623559
0.599177
0.573896
0.5486
0.7925
0.743155
0.716136
0.693791
0.673238
0.65322
0.632446
0.610486
0.587413
0.563276
0.539089
0.76765
0.719615
0.693623
0.672512
0.653397
0.634939
0.615767
0.595383
0.573818
0.550998
0.528078
0.73966
0.693107
0.668266
0.648534
0.631026
0.614312
0.596934
0.578317
0.558447
0.53711
0.515603
0.708688
0.663783
0.640211
0.62199
0.606243
0.591442
0.576035
0.559365
0.541364
0.521666
0.501703
0.674909
0.631811
0.609616
0.593027
0.579178
0.566443
0.553169
0.53861
0.52264
0.504726
0.486421
0.638515
0.597374
0.576655
0.561804
0.549975
0.539441
0.528444
0.516141
0.502351
0.486351
0.469801
0.599709
0.560671
0.541515
0.528494
0.518788
0.510569
0.501974
0.492057
0.480577
0.466611
0.451888
0.558711
0.521909
0.504395
0.493279
0.485781
0.479973
0.473884
0.466463
0.457405
0.445574
0.432728
0.515749
0.48131
0.465505
0.456355
0.451129
0.447805
0.444306
0.43947
0.432928
0.423315
0.412366
0.471065
0.439104
0.425065
0.417923
0.415015
0.414228
0.41338
0.411196
0.407243
0.399912
0.390847
0.424906
0.395529
0.3833
0.378196
0.377631
0.379411
0.381255
0.381769
0.380455
0.375449
0.368216
0.377529
0.35083
0.340445
0.337391
0.339174
0.34353
0.348084
0.351322
0.352677
0.350025
0.34452
0.329194
0.305257
0.296738
0.295731
0.299848
0.306768
0.31403
0.319998
0.324033
0.323754
0.319797
0.280165
0.25906
0.25242
0.253442
0.259861
0.269313
0.279262
0.28795
0.294654
0.296727
0.294007
0.23071
0.212494
0.207735
0.210753
0.219425
0.231356
0.243954
0.255338
0.26466
0.268995
0.267003
0.181092
0.165809
0.162923
0.167892
0.17875
0.193092
0.208289
0.222342
0.234229
0.241174
0.240162
0.131576
0.119257
0.118225
0.125087
0.138047
0.154711
0.172441
0.189139
0.20366
0.215214
0.221786
0.0824135
0.0730773
0.073873
0.0825585
0.0975221
0.116399
0.136558
0.15583
0.172819
0.187615
0.199735
0.0338583
0.0275062
0.0300962
0.0405243
0.0573775
0.0783349
0.100787
0.122507
0.141829
0.159033
0.175129
-0.0138402
-0.017233
-0.0128867
-0.000804718
0.0178113
0.0407026
0.0652914
0.0893132
0.110907
0.130296
0.149494
-0.0604488
-0.0609251
-0.0548675
-0.0412265
-0.0209839
0.00368274
0.0302434
0.0564112
0.0802012
0.101719
0.123402
-0.105838
-0.103302
-0.0956452
-0.0805491
-0.0588229
-0.0325491
-0.00419043
0.0239585
0.0498333
0.0734002
0.0972345
-0.149687
-0.144268
-0.135033
-0.118591
-0.0955304
-0.0678244
-0.0378499
-0.00789274
0.0199315
0.04544
0.0712319
-0.191833
-0.183615
-0.172865
-0.155185
-0.130944
-0.101985
-0.0705818
-0.0389974
-0.00937209
0.0179568
0.0455544
-0.232118
-0.221176
-0.208985
-0.190178
-0.164908
-0.134886
-0.102242
-0.0692192
-0.0379531
-0.00893714
0.0203352
-0.270389
-0.256815
-0.243259
-0.223436
-0.197288
-0.166377
-0.132709
-0.0984331
-0.0656976
-0.0351452
-0.00430907
-0.306509
-0.290411
-0.275568
-0.254838
-0.227964
-0.196349
-0.161849
-0.126526
-0.0925031
-0.0605906
-0.0282614
-0.340366
-0.321863
-0.305814
-0.284286
-0.256832
-0.224693
-0.189559
-0.153392
-0.118278
-0.0851966
-0.0513419
-0.371865
-0.351091
-0.33392
-0.3117
-0.283805
-0.251316
-0.215746
-0.178943
-0.142928
-0.108749
-0.0734748
-0.400935
-0.378035
-0.359829
-0.337016
-0.308815
-0.276144
-0.240332
-0.203099
-0.166381
-0.13136
-0.0959175
-0.427527
-0.402656
-0.383503
-0.360196
-0.331814
-0.299119
-0.26325
-0.225792
-0.188573
-0.152832
-0.116983
-0.45161
-0.424937
-0.404926
-0.381217
-0.35277
-0.320199
-0.284451
-0.246964
-0.209448
-0.173147
-0.136853
-0.47318
-0.444877
-0.4241
-0.400077
-0.371673
-0.339361
-0.303902
-0.266574
-0.228962
-0.192309
-0.155713
-0.492249
-0.462498
-0.441046
-0.416792
-0.388528
-0.356599
-0.321583
-0.284596
-0.247083
-0.210282
-0.173565
-0.50885
-0.477839
-0.455805
-0.431399
-0.403361
-0.371924
-0.337491
-0.301014
-0.263789
-0.227031
-0.190372
-0.523037
-0.490956
-0.468431
-0.443946
-0.416212
-0.385362
-0.351639
-0.315827
-0.279068
-0.242534
-0.206116
-0.534876
-0.501919
-0.478997
-0.454501
-0.427137
-0.396956
-0.36405
-0.329046
-0.29292
-0.256783
-0.220792
-0.544454
-0.510812
-0.487586
-0.463144
-0.436207
-0.406761
-0.374767
-0.340694
-0.305354
-0.26978
-0.234401
-0.551866
-0.517733
-0.494293
-0.469965
-0.443504
-0.414847
-0.38384
-0.350807
-0.316392
-0.281533
-0.246955
-0.557227
-0.522789
-0.499225
-0.47507
-0.449124
-0.421297
-0.391335
-0.359432
-0.326066
-0.292065
-0.258474
-0.560656
-0.526095
-0.502497
-0.478566
-0.45317
-0.426201
-0.397329
-0.366629
-0.334419
-0.301403
-0.268986
-0.56228
-0.527771
-0.504226
-0.480572
-0.455752
-0.42966
-0.401905
-0.372464
-0.3415
-0.309587
-0.278528
-0.562232
-0.527944
-0.504536
-0.481207
-0.456986
-0.431779
-0.405158
-0.377014
-0.347372
-0.316662
-0.287145
-0.560651
-0.526742
-0.503552
-0.480595
-0.456991
-0.432671
-0.407185
-0.380363
-0.352099
-0.322682
-0.294889
-0.557675
-0.524293
-0.501401
-0.47886
-0.455889
-0.432449
-0.408091
-0.382598
-0.355755
-0.327707
-0.301818
-0.553445
-0.520725
-0.498206
-0.476125
-0.453799
-0.43123
-0.407981
-0.383813
-0.358418
-0.3318
-0.307993
-0.548096
-0.516165
-0.49409
-0.472511
-0.450841
-0.429129
-0.406963
-0.384102
-0.360166
-0.335028
-0.313479
-0.541762
-0.510732
-0.48917
-0.468133
-0.447131
-0.426257
-0.405142
-0.383559
-0.36108
-0.337459
-0.318336
-0.534571
-0.504544
-0.483559
-0.463104
-0.442778
-0.422725
-0.402622
-0.382278
-0.361238
-0.33916
-0.322622
-0.526645
-0.497711
-0.477363
-0.457528
-0.437889
-0.418636
-0.399504
-0.380348
-0.360715
-0.340192
-0.326388
-0.518097
-0.490337
-0.470681
-0.451504
-0.432562
-0.414089
-0.39588
-0.377854
-0.359583
-0.340614
-0.32967
-0.509034
-0.482517
-0.463606
-0.445121
-0.426887
-0.409176
-0.391842
-0.374878
-0.357904
-0.340473
-0.332487
-0.499552
-0.47434
-0.456222
-0.438464
-0.420949
-0.403979
-0.38747
-0.371491
-0.355734
-0.339805
-0.334834
-0.48974
-0.465888
-0.448605
-0.431606
-0.414821
-0.398576
-0.38284
-0.367759
-0.353121
-0.338633
-0.33667
-0.479678
-0.457232
-0.440824
-0.424613
-0.40857
-0.393034
-0.378018
-0.363742
-0.350098
-0.336961
-0.337902
-0.469441
-0.44844
-0.432941
-0.417544
-0.402254
-0.38741
-0.373063
-0.359486
-0.346689
-0.334764
-0.338338
-0.459096
-0.439572
-0.425009
-0.41045
-0.39592
-0.381755
-0.368025
-0.355034
-0.342909
-0.332013
-0.337627
-0.448705
-0.430682
-0.417078
-0.403374
-0.389612
-0.37611
-0.362944
-0.350411
-0.33877
-0.328721
-0.335356
-0.43833
-0.421822
-0.409192
-0.396356
-0.383365
-0.370511
-0.357849
-0.345616
-0.334196
-0.324573
-0.330712
-0.428025
-0.413038
-0.40139
-0.38943
-0.377212
-0.364993
-0.352776
-0.340652
-0.328981
-0.317842
-0.316371
-0.417846
-0.404372
-0.393709
-0.38263
-0.371188
-0.3596
-0.347806
-0.335694
-0.323432
-0.307662
-0.273099
-0.407842
-0.395865
-0.386184
-0.375985
-0.365326
-0.354387
-0.343069
-0.331125
-0.318748
-0.302788
-0.265341
-0.398063
-0.387554
-0.378843
-0.369522
-0.359653
-0.349389
-0.338628
-0.327096
-0.315135
-0.300785
-0.267774
-0.388551
-0.379472
-0.371714
-0.363263
-0.354186
-0.34462
-0.334478
-0.323517
-0.312177
-0.299158
-0.270087
-0.379344
-0.371649
-0.364821
-0.357226
-0.348937
-0.34008
-0.330593
-0.320283
-0.309637
-0.297679
-0.271945
-0.370477
-0.364112
-0.358185
-0.351424
-0.343913
-0.335768
-0.326953
-0.317328
-0.307414
-0.296439
-0.273745
-0.361979
-0.356884
-0.351825
-0.345872
-0.33912
-0.331679
-0.323538
-0.314609
-0.305424
-0.29536
-0.275396
-0.353874
-0.349986
-0.345756
-0.340581
-0.334563
-0.327808
-0.32033
-0.312087
-0.3036
-0.294354
-0.276781
-0.346185
-0.343439
-0.339996
-0.335562
-0.330248
-0.324154
-0.317316
-0.309731
-0.301897
-0.293378
-0.277874
-0.338931
-0.33726
-0.33456
-0.330825
-0.326178
-0.320713
-0.314485
-0.307522
-0.300287
-0.292412
-0.278689
-0.332132
-0.331468
-0.32946
-0.326382
-0.322361
-0.317487
-0.311832
-0.305446
-0.298754
-0.291448
-0.279255
-0.325806
-0.326077
-0.324714
-0.322245
-0.318805
-0.314479
-0.309354
-0.303497
-0.297291
-0.290487
-0.279602
-0.319971
-0.321105
-0.320335
-0.318425
-0.315519
-0.311696
-0.307055
-0.301675
-0.295898
-0.289537
-0.279767
-0.314646
-0.316569
-0.316338
-0.314935
-0.312513
-0.309145
-0.30494
-0.299986
-0.294581
-0.288613
-0.279782
-0.309849
-0.312484
-0.312738
-0.311789
-0.309799
-0.306837
-0.303018
-0.298438
-0.293357
-0.287764
-0.279645
-0.3056
-0.308868
-0.309549
-0.309
-0.307389
-0.304782
-0.3013
-0.297043
-0.292249
-0.287056
-0.279341
-0.301916
-0.305735
-0.306785
-0.306581
-0.305296
-0.302992
-0.299797
-0.295815
-0.291245
-0.286143
-0.279318
-0.298816
-0.303099
-0.304459
-0.304543
-0.30353
-0.301479
-0.298521
-0.294766
-0.290387
-0.285423
-0.279206
-0.296315
-0.300974
-0.302584
-0.302898
-0.302103
-0.300254
-0.297485
-0.293909
-0.289683
-0.284854
-0.279037
-0.294426
-0.29937
-0.301168
-0.301656
-0.301024
-0.299326
-0.296698
-0.293256
-0.289141
-0.284415
-0.27888
-0.29316
-0.298295
-0.300219
-0.300824
-0.3003
-0.298703
-0.296169
-0.292814
-0.288772
-0.284116
-0.278766
-0.292526
-0.297756
-0.299744
-0.300406
-0.299937
-0.29839
-0.295902
-0.292592
-0.288586
-0.283964
-0.278706
-0.273698
-0.266321
-0.258524
-0.249686
-0.240025
-0.229637
-0.21862
-0.207106
-0.195222
-0.1831
-0.170864
-0.158633
-0.146513
-0.134599
-0.122974
-0.111711
-0.100867
-0.0904959
-0.0806246
-0.0713034
-0.0625062
-0.054332
-0.0466137
-0.0396656
-0.0328951
-0.0273333
-0.0211197
-0.0174255
-0.0107736
-0.0103395
-0.000753543
-0.0073256
0.0114528
-0.274087
-0.266565
-0.258741
-0.249881
-0.240199
-0.229795
-0.218764
-0.207239
-0.195345
-0.183213
-0.17097
-0.158731
-0.146603
-0.134682
-0.123051
-0.111781
-0.100931
-0.0905534
-0.0806761
-0.0713492
-0.0625468
-0.0543677
-0.0466449
-0.0396925
-0.0329185
-0.0273527
-0.0211372
-0.017438
-0.0107876
-0.0103446
-0.000768489
-0.00731995
0.0114261
-0.274861
-0.267041
-0.259174
-0.250267
-0.240544
-0.230108
-0.21905
-0.207502
-0.195588
-0.18344
-0.17118
-0.158926
-0.146784
-0.13485
-0.123204
-0.111921
-0.101058
-0.0906682
-0.080779
-0.0714409
-0.0626279
-0.0544389
-0.0467071
-0.0397461
-0.0329652
-0.0273912
-0.021172
-0.017463
-0.0108155
-0.0103548
-0.00079833
-0.00730871
0.011373
-0.276014
-0.267737
-0.259814
-0.250839
-0.241053
-0.23057
-0.219473
-0.207892
-0.19595
-0.183776
-0.171493
-0.159217
-0.147054
-0.135099
-0.123433
-0.112131
-0.101248
-0.0908398
-0.0809329
-0.071578
-0.0627492
-0.0545454
-0.0468003
-0.0398263
-0.0330351
-0.027449
-0.0212242
-0.0175004
-0.0108574
-0.0103701
-0.000842967
-0.00729198
0.0112937
-0.277551
-0.268639
-0.260652
-0.251586
-0.241718
-0.231174
-0.220026
-0.208402
-0.196423
-0.184217
-0.171905
-0.159601
-0.147411
-0.135428
-0.123737
-0.112408
-0.1015
-0.0910674
-0.0811372
-0.07176
-0.0629104
-0.054687
-0.0469241
-0.0399331
-0.033128
-0.0275258
-0.0212935
-0.0175501
-0.0109131
-0.0103905
-0.00090225
-0.00726993
0.0111885
-0.279488
-0.26972
-0.261672
-0.252495
-0.242525
-0.231908
-0.220699
-0.209024
-0.197003
-0.184759
-0.172412
-0.160074
-0.147851
-0.135836
-0.124112
-0.112752
-0.101813
-0.0913502
-0.0813911
-0.0719865
-0.063111
-0.0548633
-0.0470784
-0.040066
-0.0332438
-0.0276215
-0.02138
-0.0176122
-0.0109825
-0.0104161
-0.000975983
-0.00724276
0.0110581
-0.281712
-0.271009
-0.262855
-0.253551
-0.243462
-0.23276
-0.221481
-0.20975
-0.197681
-0.185395
-0.173008
-0.160632
-0.148371
-0.136319
-0.124558
-0.11316
-0.102185
-0.0916871
-0.0816938
-0.0722566
-0.0633504
-0.0550737
-0.0472625
-0.0402247
-0.0333822
-0.0277359
-0.0214834
-0.0176865
-0.0110654
-0.0104469
-0.00106392
-0.00721072
0.010903
-0.284131
-0.272524
-0.264186
-0.254737
-0.244513
-0.233715
-0.22236
-0.210569
-0.198449
-0.186117
-0.173688
-0.16127
-0.148968
-0.136874
-0.125071
-0.113632
-0.102616
-0.0920767
-0.0820442
-0.0725694
-0.0636278
-0.0553177
-0.0474762
-0.040409
-0.0335428
-0.0278688
-0.0216034
-0.0177728
-0.0111617
-0.010483
-0.00116578
-0.00717411
0.0107241
-0.286849
-0.274181
-0.265642
-0.256032
-0.245658
-0.234758
-0.223323
-0.211469
-0.199297
-0.186918
-0.174445
-0.161984
-0.149637
-0.137498
-0.125649
-0.114164
-0.103102
-0.0925174
-0.0824409
-0.072924
-0.0639425
-0.0555946
-0.0477189
-0.0406182
-0.0337253
-0.0280198
-0.0217399
-0.0178711
-0.0112711
-0.0105243
-0.00128123
-0.00713325
0.0105223
-0.289837
-0.275968
-0.267201
-0.257416
-0.24688
-0.235871
-0.224355
-0.212438
-0.200215
-0.18779
-0.175272
-0.162766
-0.150374
-0.138187
-0.126289
-0.114754
-0.103641
-0.0930076
-0.0828827
-0.0733192
-0.0642935
-0.0559037
-0.0479898
-0.040852
-0.0339293
-0.0281886
-0.0218925
-0.0179811
-0.0113934
-0.010571
-0.00140991
-0.00708851
0.0102985
-0.293056
-0.277871
-0.268839
-0.258866
-0.248158
-0.237038
-0.225441
-0.213465
-0.201192
-0.188723
-0.176162
-0.163612
-0.151173
-0.138937
-0.126987
-0.115399
-0.104233
-0.0935453
-0.083368
-0.0737537
-0.0646798
-0.056244
-0.0482883
-0.0411097
-0.0341543
-0.0283749
-0.0220609
-0.0181027
-0.0115283
-0.010623
-0.00155141
-0.00704025
0.0100539
-0.296451
-0.279872
-0.27053
-0.260358
-0.249473
-0.238242
-0.226567
-0.214535
-0.202218
-0.18971
-0.177108
-0.164516
-0.15203
-0.139743
-0.12774
-0.116096
-0.104873
-0.0941287
-0.0838952
-0.0742262
-0.0651001
-0.0566146
-0.0486136
-0.0413906
-0.0343997
-0.0285782
-0.0222448
-0.0182357
-0.0116756
-0.0106805
-0.00170529
-0.00698889
0.00978948
-0.299985
-0.281954
-0.272248
-0.261866
-0.250804
-0.239464
-0.227718
-0.215638
-0.203283
-0.19074
-0.178103
-0.16547
-0.152939
-0.140602
-0.128544
-0.116843
-0.10556
-0.0947555
-0.0844623
-0.0747351
-0.0655533
-0.0570145
-0.0489649
-0.0416941
-0.034665
-0.028798
-0.0224437
-0.0183798
-0.0118349
-0.0107434
-0.0018711
-0.00693483
0.00950661
-0.303593
-0.284098
-0.273965
-0.263366
-0.252132
-0.240689
-0.228881
-0.216761
-0.204377
-0.191807
-0.179138
-0.166469
-0.153894
-0.141508
-0.129396
-0.117635
-0.106291
-0.0954235
-0.0850676
-0.0752789
-0.0660381
-0.0574425
-0.0493412
-0.0420193
-0.0349495
-0.029034
-0.0226573
-0.0185348
-0.0120057
-0.0108118
-0.00204832
-0.00687849
0.00920652
-0.307187
-0.286281
-0.275656
-0.26483
-0.253438
-0.241903
-0.230043
-0.217895
-0.205491
-0.192901
-0.180208
-0.167506
-0.154892
-0.142458
-0.130291
-0.11847
-0.107063
-0.0961304
-0.0857092
-0.075856
-0.0665531
-0.0578976
-0.0497416
-0.0423656
-0.0352527
-0.0292854
-0.022885
-0.0187004
-0.0121879
-0.0108857
-0.00223645
-0.00682032
0.00889053
-0.31064
-0.288481
-0.277295
-0.266232
-0.254703
-0.24309
-0.231194
-0.21903
-0.206617
-0.194015
-0.181305
-0.168577
-0.155926
-0.143446
-0.131226
-0.119346
-0.107874
-0.0968743
-0.0863853
-0.0764649
-0.0670971
-0.0583786
-0.0501652
-0.0427321
-0.0355737
-0.0295519
-0.0231264
-0.0188763
-0.012381
-0.0109652
-0.00243497
-0.00676073
0.00855998
-0.313773
-0.290651
-0.278854
-0.267541
-0.255908
-0.244238
-0.23232
-0.220154
-0.207744
-0.195142
-0.182423
-0.169674
-0.156991
-0.144469
-0.132196
-0.120256
-0.108719
-0.0976517
-0.0870931
-0.0771031
-0.0676678
-0.0588837
-0.0506103
-0.0431175
-0.0359116
-0.0298324
-0.0233807
-0.019062
-0.0125843
-0.01105
-0.00264327
-0.00670002
0.0082162
-0.316283
-0.292696
-0.280299
-0.268725
-0.257032
-0.245332
-0.233411
-0.221257
-0.208862
-0.196269
-0.183549
-0.170786
-0.158077
-0.145515
-0.133193
-0.121194
-0.109593
-0.098456
-0.0878266
-0.0777654
-0.0682609
-0.0594092
-0.0510739
-0.0435191
-0.0362641
-0.0301254
-0.0236466
-0.0192564
-0.0127972
-0.0111399
-0.0028607
-0.00663849
0.00786057
-0.317725
-0.294538
-0.281644
-0.269783
-0.258073
-0.246375
-0.234468
-0.222341
-0.209972
-0.197398
-0.184684
-0.171914
-0.159183
-0.146586
-0.134216
-0.12216
-0.110494
-0.0992881
-0.0885867
-0.0784528
-0.0688773
-0.0599559
-0.0515567
-0.0439378
-0.0366321
-0.0304315
-0.0239246
-0.0194605
-0.0130197
-0.0112358
-0.00308666
-0.00657731
0.00749448
-0.317829
-0.296255
-0.282971
-0.270759
-0.259065
-0.247401
-0.235531
-0.223445
-0.211116
-0.198572
-0.185875
-0.173105
-0.160358
-0.147728
-0.135311
-0.123198
-0.111464
-0.100185
-0.0894072
-0.0791953
-0.0695431
-0.0605465
-0.052078
-0.0443898
-0.0370284
-0.0307617
-0.0242225
-0.0196813
-0.0132554
-0.0113423
-0.00332148
-0.00651953
0.00711931
-0.31576
-0.297148
-0.28401
-0.271506
-0.259897
-0.248334
-0.236541
-0.224529
-0.212267
-0.199776
-0.187115
-0.174363
-0.161611
-0.148958
-0.136499
-0.124328
-0.112526
-0.101169
-0.0903089
-0.0800119
-0.0702753
-0.0611952
-0.0526495
-0.0448843
-0.0374603
-0.0311208
-0.024544
-0.0199201
-0.0135061
-0.0114584
-0.00356626
-0.00646277
0.00673556
-0.304575
-0.294316
-0.283885
-0.271454
-0.260098
-0.248738
-0.237072
-0.225158
-0.21298
-0.200559
-0.187952
-0.175235
-0.162501
-0.149849
-0.137374
-0.125174
-0.113331
-0.101924
-0.0910078
-0.0806504
-0.0708534
-0.0617103
-0.0531086
-0.0452814
-0.0378148
-0.0314106
-0.0248182
-0.0201097
-0.0137365
-0.0115382
-0.00381547
-0.00637698
0.0063419
-0.269699
-0.286935
-0.283501
-0.271534
-0.260451
-0.249263
-0.237636
-0.225702
-0.213481
-0.201006
-0.188342
-0.175573
-0.162793
-0.150101
-0.137595
-0.125369
-0.113506
-0.102084
-0.0911566
-0.0807891
-0.0709881
-0.0618359
-0.0532382
-0.045396
-0.0379482
-0.031509
-0.0249694
-0.0201748
-0.0139321
-0.0115307
-0.00410968
-0.00620972
0.00584801