/*--------------------------------*- C++ -*----------------------------------*\
  =========                 |
  \\      /  F ield         | OpenFOAM: The Open Source CFD Toolbox
   \\    /   O peration     | Website:  https://openfoam.org
    \\  /    A nd           | Version:  7
     \\/     M anipulation  |
\*---------------------------------------------------------------------------*/
FoamFile
{
    version     2.0;
    format      ascii;
    class       volVectorField;
    location    "80";
    object      U;
}
// * * * * * * * * * * * * * * * * * * * * * * * * * * * * * * * * * * * * * //

dimensions      [0 1 -1 0 0 0 0];

internalField   nonuniform List<vector> 
4575
(
(0.817282 0.293842 -1.46249e-19)
(0.808098 0.287115 2.68519e-19)
(0.799123 0.280063 -1.50574e-19)
(0.776362 0.288869 -8.48399e-20)
(0.790366 0.272691 -6.15242e-20)
(0.767309 0.280732 9.98192e-20)
(0.781836 0.265004 4.89538e-20)
(0.758498 0.272273 -2.6249e-20)
(0.773542 0.25701 9.79875e-20)
(0.749941 0.263499 -2.86869e-20)
(0.765495 0.248715 -1.36133e-19)
(0.724309 0.269691 1.33112e-19)
(0.741649 0.254417 8.43984e-20)
(0.757704 0.240127 6.32054e-20)
(0.715771 0.259766 -8.71435e-20)
(0.733633 0.245035 -6.1846e-20)
(0.750179 0.231255 6.01232e-21)
(0.707538 0.249531 -7.52733e-20)
(0.725904 0.235362 -2.71708e-20)
(0.74293 0.222107 4.56975e-20)
(0.699622 0.238996 -2.95671e-20)
(0.718474 0.225408 2.31459e-19)
(0.735966 0.212693 -1.46259e-19)
(0.671932 0.241924 6.51226e-20)
(0.692034 0.228173 -5.29839e-20)
(0.711353 0.215182 -4.58013e-20)
(0.729297 0.203024 9.98691e-20)
(0.664176 0.230184 9.87075e-20)
(0.684786 0.217071 1.34964e-19)
(0.704551 0.204696 2.65882e-20)
(0.722932 0.19311 -1.18108e-19)
(0.656794 0.218159 -2.45114e-20)
(0.677889 0.205703 -1.43033e-20)
(0.698079 0.193961 1.93718e-20)
(0.71688 0.182961 1.08398e-19)
(0.649797 0.205862 4.5813e-20)
(0.671352 0.194082 -6.6983e-20)
(0.691946 0.182988 -6.10385e-20)
(0.711148 0.17259 -1.16573e-19)
(0.643196 0.193306 2.18417e-20)
(0.665187 0.182221 -6.50397e-21)
(0.686161 0.17179 1.99693e-21)
(0.705745 0.162007 6.41967e-20)
(0.613319 0.191597 7.85682e-20)
(0.637001 0.180507 -8.71086e-20)
(0.659401 0.170133 1.64026e-19)
(0.680734 0.160379 -1.4528e-19)
(0.700679 0.151226 5.19844e-20)
(0.607128 0.177795 -5.1114e-20)
(0.631221 0.167479 5.06613e-21)
(0.654004 0.157832 -1.44257e-19)
(0.675672 0.148768 1.01118e-19)
(0.695957 0.140258 9.19939e-20)
(0.60139 0.163763 7.07697e-20)
(0.625866 0.154238 9.21066e-21)
(0.649005 0.145332 2.28036e-20)
(0.670983 0.136972 9.0264e-21)
(0.691586 0.129117 -1.01409e-19)
(0.596115 0.149518 -9.98221e-20)
(0.620944 0.140799 1.28178e-20)
(0.644411 0.132649 8.16738e-20)
(0.666675 0.125003 -1.13849e-19)
(0.687572 0.117815 -5.91269e-22)
(0.591311 0.135078 9.19891e-20)
(0.616463 0.127179 -6.85151e-20)
(0.640229 0.119796 -8.34482e-21)
(0.662754 0.112875 6.51371e-20)
(0.683921 0.106366 -1.18246e-19)
(0.586987 0.12046 -8.20368e-20)
(0.61243 0.113394 1.79678e-20)
(0.636467 0.106791 -1.17515e-20)
(0.659227 0.100604 -4.07187e-20)
(0.680639 0.0947828 1.58792e-20)
(0.583148 0.105684 1.75607e-20)
(0.608851 0.0994606 4.0525e-20)
(0.633129 0.0936475 7.1341e-21)
(0.656099 0.0882044 -8.66124e-21)
(0.677729 0.0830804 1.04882e-21)
(0.579802 0.0907661 4.97864e-20)
(0.605733 0.0853966 4.11839e-20)
(0.630222 0.0803826 1.99242e-20)
(0.653376 0.0756905 4.5073e-20)
(0.675198 0.0712722 1.7874e-20)
(0.576954 0.0757262 -1.69408e-20)
(0.60308 0.0712192 -3.36183e-20)
(0.62775 0.0670122 -3.43572e-21)
(0.651061 0.0630779 -6.51042e-20)
(0.673049 0.0593725 1.26112e-21)
(0.574608 0.060583 -3.52895e-20)
(0.600897 0.0569459 -4.90423e-21)
(0.625717 0.0535529 -1.06315e-20)
(0.649159 0.0503819 4.96636e-20)
(0.671284 0.0473957 -8.3145e-21)
(0.57277 0.0453557 5.00248e-20)
(0.599188 0.0425946 6.24571e-20)
(0.624127 0.0400211 -9.03554e-21)
(0.647673 0.0376183 2.25036e-20)
(0.669907 0.0353564 -9.96505e-21)
(0.543342 0.0320829 1.71221e-20)
(0.571441 0.0300634 4.22494e-21)
(0.597955 0.0281833 -2.10034e-20)
(0.622983 0.0264336 -2.02545e-21)
(0.646605 0.0248026 -4.85856e-20)
(0.668921 0.0232687 1.98673e-20)
(0.542459 0.0158002 8.39586e-21)
(0.570625 0.0147258 -2.30708e-20)
(0.597201 0.01373 2.15079e-21)
(0.622286 0.0128073 -9.97841e-22)
(0.645958 0.0119507 1.23294e-20)
(0.668325 0.0111475 2.7376e-22)
(0.542126 -0.000510672 -4.26138e-21)
(0.570322 -0.000637748 5.59302e-21)
(0.596927 -0.000747098 1.0728e-20)
(0.622037 -0.000840829 7.86516e-22)
(0.645732 -0.00092112 1.15185e-21)
(0.668121 -0.000990482 4.96708e-21)
(0.542344 -0.0168286 -5.06062e-21)
(0.570535 -0.0160076 4.96741e-21)
(0.597134 -0.0152298 1.09974e-20)
(0.622239 -0.0144938 9.25557e-22)
(0.645929 -0.0137972 8.01626e-22)
(0.668314 -0.0131319 5.28537e-21)
(0.543113 -0.0331327 3.48979e-21)
(0.571262 -0.0313642 -1.82675e-20)
(0.597821 -0.0296998 5.36991e-21)
(0.62289 -0.0281349 -8.62862e-22)
(0.646548 -0.0266621 9.07357e-21)
(0.668899 -0.0252639 9.09004e-22)
(0.544432 -0.0494017 1.11664e-20)
(0.572503 -0.0466879 3.62774e-21)
(0.59899 -0.0441391 -2.7809e-20)
(0.62399 -0.041747 1.62465e-21)
(0.647589 -0.0394994 -3.89907e-20)
(0.669877 -0.0373701 8.55584e-21)
(0.574257 -0.0619593 5.1031e-20)
(0.600636 -0.0585293 4.60808e-20)
(0.625537 -0.0553131 -2.3403e-20)
(0.64905 -0.0522932 3.03788e-20)
(0.671246 -0.0494353 -6.69207e-22)
(0.576521 -0.0771588 -5.00359e-20)
(0.60276 -0.0728524 -8.77493e-21)
(0.62753 -0.0688164 -1.14029e-20)
(0.650929 -0.0650278 1.7969e-20)
(0.673006 -0.0614453 -1.26275e-21)
(0.579291 -0.0922672 -5.11037e-21)
(0.605357 -0.0870905 -2.38926e-20)
(0.629966 -0.0822402 1.24656e-20)
(0.653225 -0.0776875 -1.03726e-19)
(0.675153 -0.0733853 3.64893e-20)
(0.582565 -0.107265 6.63786e-20)
(0.608424 -0.101226 1.73708e-20)
(0.632841 -0.0955678 2.53898e-20)
(0.655933 -0.0902565 5.8335e-20)
(0.677685 -0.0852408 -3.0397e-20)
(0.586336 -0.122134 5.46802e-20)
(0.611956 -0.11524 -2.25513e-20)
(0.63615 -0.108783 1.5899e-20)
(0.65905 -0.10272 3.31658e-20)
(0.680599 -0.0969975 -1.20096e-20)
(0.5906 -0.136855 -1.043e-19)
(0.615949 -0.129117 -1.34051e-20)
(0.639891 -0.121869 -3.00476e-20)
(0.662571 -0.115061 -1.91565e-20)
(0.683891 -0.108641 4.85675e-20)
(0.59535 -0.15141 6.76892e-20)
(0.620396 -0.142838 -7.61455e-20)
(0.644056 -0.13481 -1.6241e-20)
(0.666491 -0.127267 5.89797e-20)
(0.687556 -0.120158 -4.70719e-20)
(0.60058 -0.16578 -1.34971e-19)
(0.625291 -0.156388 5.60422e-20)
(0.648641 -0.147591 7.53845e-20)
(0.670805 -0.139321 -1.34851e-19)
(0.69159 -0.131533 5.14595e-22)
(0.60628 -0.179947 1.16661e-19)
(0.630627 -0.169749 1.354e-20)
(0.653638 -0.160196 -3.92345e-21)
(0.675506 -0.15121 6.48704e-21)
(0.695986 -0.142754 -8.36323e-20)
(0.612444 -0.193895 3.26631e-20)
(0.636397 -0.182905 -9.60951e-20)
(0.65904 -0.17261 -1.16376e-19)
(0.680587 -0.16292 1.32649e-19)
(0.70074 -0.153807 8.1541e-20)
(0.619062 -0.207606 -1.24137e-19)
(0.642591 -0.195841 2.85316e-20)
(0.664839 -0.184818 6.04091e-20)
(0.686042 -0.174436 -7.40324e-20)
(0.705844 -0.164678 -1.47971e-20)
(0.649201 -0.208541 7.65283e-20)
(0.671028 -0.196805 -8.74064e-20)
(0.691862 -0.185745 4.97026e-20)
(0.711293 -0.175356 7.04265e-20)
(0.656217 -0.220989 -4.97586e-21)
(0.677596 -0.208559 -3.8244e-21)
(0.698039 -0.196833 -7.12982e-20)
(0.717078 -0.185827 -1.64667e-19)
(0.663628 -0.233172 -2.26651e-20)
(0.684535 -0.220065 -8.03937e-20)
(0.704564 -0.207689 3.0662e-20)
(0.723191 -0.19608 1.53168e-19)
(0.671425 -0.245076 5.51571e-20)
(0.691835 -0.23131 1.15437e-19)
(0.711428 -0.2183 1.47602e-20)
(0.729626 -0.206102 -1.51352e-19)
(0.679595 -0.256687 -1.39979e-19)
(0.699486 -0.242282 -2.69994e-20)
(0.718621 -0.228655 -2.25814e-20)
(0.736373 -0.215883 9.59224e-20)
(0.707476 -0.252969 -4.43555e-21)
(0.726134 -0.238741 1.04544e-19)
(0.743424 -0.22541 4.91205e-20)
(0.715794 -0.263359 -5.27361e-20)
(0.733956 -0.248549 -6.19978e-21)
(0.750769 -0.234675 5.94076e-20)
(0.724429 -0.273442 -3.19558e-21)
(0.742075 -0.258068 -1.06016e-19)
(0.7584 -0.243666 -4.49242e-20)
(0.733369 -0.283207 8.26053e-20)
(0.750482 -0.267288 7.88943e-20)
(0.766306 -0.252374 7.67449e-20)
(0.759165 -0.276202 -3.01921e-20)
(0.774479 -0.260789 -8.15153e-20)
(0.768112 -0.284799 -1.23746e-19)
(0.782907 -0.268904 5.55526e-20)
(0.777313 -0.293074 2.01259e-19)
(0.791582 -0.276711 4.25088e-20)
(0.800493 -0.284202 -2.736e-20)
(0.809632 -0.291371 -1.14911e-19)
(0.818987 -0.298212 1.99463e-19)
(0.999958 0.00182966 0)
(0.998784 0.00544517 0)
(0.996448 0.00921815 0)
(0.993288 0.0132941 0)
(0.989203 0.0178415 0)
(0.984481 0.0229921 0)
(0.978965 0.0288789 0)
(0.972973 0.0356274 0)
(0.966299 0.0433897 0)
(0.959357 0.0522893 0)
(0.951878 0.0625206 0)
(0.944452 0.0741913 0)
(0.936706 0.0875507 0)
(0.929533 0.10264 0)
(0.922337 0.119783 0)
(0.916549 0.138828 0)
(0.911052 0.160261 0)
(0.908307 0.183413 0)
(0.905948 0.209389 -1.11534e-28)
(0.908588 0.235841 1.18679e-28)
(0.910929 0.266891 0)
(0.999959 0.0019591 0)
(0.998835 0.00583352 0)
(0.99659 0.00985997 0)
(0.993565 0.0141876 0)
(0.989656 0.0189982 0)
(0.98517 0.0244058 0)
(0.979944 0.0305668 0)
(0.974331 0.03757 0)
(0.968109 0.0455985 0)
(0.961748 0.054714 0)
(0.95495 0.0651534 0)
(0.948387 0.0769212 0)
(0.941626 0.0903362 0)
(0.935689 0.10526 0)
(0.929849 0.122161 0)
(0.925748 0.140544 0)
(0.921988 0.161264 0)
(0.921398 0.182869 -4.81229e-29)
(0.921017 0.207537 5.12241e-29)
(0.926166 0.23079 -6.14099e-29)
(0.930099 0.259925 6.53569e-29)
(0.999959 0.00208849 0)
(0.998892 0.00622135 0)
(0.996751 0.0105041 0)
(0.993882 0.0150854 0)
(0.990175 0.0201622 0)
(0.985959 0.0258279 0)
(0.98106 0.0322638 0)
(0.975866 0.0395189 0)
(0.970139 0.0478085 0)
(0.964398 0.0571283 0)
(0.958313 0.0677601 0)
(0.95263 0.0795974 0)
(0.946852 0.093035 0)
(0.942105 0.107739 0)
(0.937539 0.12434 0)
(0.934944 0.14197 0)
(0.932704 0.16188 0)
(0.933834 0.181841 0)
(0.935031 0.205005 0)
(0.941767 0.225315 0)
(0.946867 0.2519 0)
(0.99996 0.00221581 0)
(0.998952 0.00660179 0)
(0.996924 0.0111348 0)
(0.994224 0.0159599 0)
(0.990739 0.0212895 0)
(0.986815 0.0271963 0)
(0.98227 0.0338837 0)
(0.977522 0.0413633 0)
(0.972321 0.049878 0)
(0.967223 0.0593619 0)
(0.961879 0.0701358 0)
(0.957079 0.0819901 0)
(0.952286 0.0953885 0)
(0.948674 0.109818 0)
(0.945332 0.126055 0)
(0.944075 0.14291 0)
(0.943215 0.161959 0)
(0.945698 0.180403 0)
(0.948232 0.202022 0)
(0.955912 0.22 0)
(0.962046 0.244098 0)
(0.999961 0.00233924 0)
(0.999014 0.00696915 0)
(0.997108 0.011742 0)
(0.994585 0.0167973 0)
(0.991335 0.0223621 0)
(0.987716 0.0284878 0)
(0.983546 0.0353971 0)
(0.979258 0.043065 0)
(0.974604 0.0517582 0)
(0.970158 0.061351 0)
(0.965566 0.072199 0)
(0.961633 0.0839942 0)
(0.957814 0.0972632 0)
(0.955271 0.111331 0)
(0.953096 0.127101 0)
(0.953015 0.14312 0)
(0.953407 0.16121 0)
(0.956954 0.1782 0)
(0.960626 0.198217 0)
(0.968873 0.214202 0)
(0.975847 0.235946 0)
(0.999962 0.00245796 0)
(0.99908 0.00732109 0)
(0.9973 0.0123223 0)
(0.994961 0.0175931 0)
(0.991958 0.0233745 0)
(0.988651 0.0296958 0)
(0.984869 0.036797 0)
(0.981048 0.0446163 0)
(0.976952 0.0534415 0)
(0.973152 0.0630881 0)
(0.969313 0.0739428 0)
(0.966213 0.0856055 0)
(0.963342 0.0986578 0)
(0.961784 0.112283 0)
(0.9607 0.127488 0)
(0.961642 0.142621 0)
(0.963142 0.159666 0)
(0.967525 0.175256 0)
(0.97213 0.193645 0)
(0.980704 0.20784 0)
(0.988264 0.227339 0)
(0.999964 0.00257136 0)
(0.999147 0.00765601 0)
(0.997499 0.012873 0)
(0.995349 0.0183436 0)
(0.992601 0.0243222 0)
(0.989612 0.030815 0)
(0.986227 0.0380774 0)
(0.982872 0.0460111 0)
(0.979337 0.0549222 0)
(0.976169 0.0645701 0)
(0.97307 0.0753683 0)
(0.970762 0.0868335 0)
(0.968792 0.0995918 0)
(0.968133 0.112714 0)
(0.968044 0.127274 0)
(0.969865 0.1415 0)
(0.972319 0.157449 0)
(0.977351 0.171708 0)
(0.982686 0.188496 0)
(0.991405 0.201079 0)
(0.99933 0.218481 0)
(0.999967 0.00267883 0)
(0.999215 0.0079722 0)
(0.997706 0.013391 0)
(0.995746 0.0190449 0)
(0.993262 0.0251998 0)
(0.990592 0.0318391 0)
(0.987609 0.039231 0)
(0.984716 0.0472421 0)
(0.981739 0.0561934 0)
(0.979182 0.0657931 0)
(0.976798 0.0764748 0)
(0.975233 0.087686 0)
(0.974106 0.100082 0)
(0.974257 0.112655 0)
(0.975056 0.126513 0)
(0.977624 0.13983 0)
(0.980875 0.154665 0)
(0.986396 0.167672 0)
(0.992278 0.182922 0)
(1.001 0.194065 0)
(1.00912 0.209554 -6.26552e-30)
(0.99997 0.00277976 0)
(0.999286 0.00826791 0)
(0.997918 0.0138735 0)
(0.996152 0.0196928 0)
(0.993936 0.0260022 0)
(0.991584 0.032762 0)
(0.989005 0.0402512 0)
(0.986566 0.0483032 0)
(0.984135 0.05725 0)
(0.982165 0.066755 0)
(0.980463 0.0772644 0)
(0.979589 0.088173 0)
(0.979236 0.100149 0)
(0.980109 0.112139 0)
(0.981685 0.125254 0)
(0.984876 0.137672 0)
(0.988777 0.1514 0)
(0.994649 0.163236 0)
(1.00092 0.177037 0)
(1.00954 0.186894 0)
(1.01773 0.200663 0)
(0.999974 0.00287352 0)
(0.999357 0.00854145 0)
(0.998134 0.0143174 0)
(0.996563 0.0202835 0)
(0.994617 0.0267244 0)
(0.992584 0.0335789 0)
(0.990404 0.0411327 0)
(0.988408 0.0491904 0)
(0.986508 0.0580892 0)
(0.985097 0.0674572 0)
(0.984036 0.0777433 0)
(0.9838 0.0883083 0)
(0.984148 0.0998161 0)
(0.985655 0.111202 0)
(0.987899 0.123549 0)
(0.991597 0.135088 0)
(0.996013 0.147736 0)
(1.00212 0.158479 0)
(1.00864 0.170933 0)
(1.01707 0.179642 0)
(1.02523 0.191872 0)
(0.999978 0.00295952 0)
(0.999429 0.00879126 0)
(0.998353 0.0147201 0)
(0.996977 0.0208137 0)
(0.995302 0.0273624 0)
(0.993583 0.0342853 0)
(0.991796 0.0418715 0)
(0.990231 0.049901 0)
(0.988838 0.0587108 0)
(0.987957 0.0679034 0)
(0.987492 0.0779212 0)
(0.987837 0.0881091 0)
(0.98881 0.099112 0)
(0.990868 0.10988 0)
(0.993675 0.121451 0)
(0.997776 0.132137 0)
(1.00259 0.143747 0)
(1.00882 0.153475 0)
(1.01549 0.164688 0)
(1.02368 0.172374 0)
(1.03171 0.183229 0)
(0.999982 0.0030372 0)
(0.999502 0.0090159 0)
(0.998573 0.015079 0)
(0.997392 0.0212803 0)
(0.995984 0.0279127 0)
(0.994576 0.0348782 0)
(0.993171 0.0424648 0)
(0.992021 0.0504342 0)
(0.991111 0.0591166 0)
(0.990725 0.0680998 0)
(0.990809 0.0778107 0)
(0.991678 0.0875948 0)
(0.993202 0.0980668 0)
(0.995729 0.108213 0)
(0.999001 0.119011 2.07738e-28)
(1.00341 0.128877 -2.21168e-28)
(1.00851 0.1395 0)
(1.01479 0.148291 0)
(1.02151 0.158367 -3.60562e-29)
(1.02941 0.165144 4.90824e-30)
(1.03726 0.174775 3.56208e-29)
(0.999986 0.00310603 0)
(0.999575 0.00921405 0)
(0.998791 0.015392 0)
(0.997805 0.0216808 0)
(0.996661 0.0283722 0)
(0.995555 0.0353549 0)
(0.994519 0.0429112 0)
(0.993766 0.0507905 0)
(0.99331 0.0593106 0)
(0.993384 0.0680544 0)
(0.993967 0.0774266 0)
(0.995303 0.0867866 0)
(0.997305 0.0967115 0)
(1.00023 0.106238 0)
(1.00387 0.116279 0)
(1.00851 0.125362 0)
(1.0138 0.135055 0)
(1.02007 0.142984 0)
(1.02676 0.152025 0)
(1.03434 0.157995 0)
(1.04196 0.166537 0)
(0.999989 0.00316554 0)
(0.999648 0.00938457 0)
(0.999008 0.0156573 0)
(0.998214 0.0220129 0)
(0.997325 0.0287389 0)
(0.996514 0.035714 0)
(0.99583 0.0432105 0)
(0.995454 0.0509718 0)
(0.995421 0.0592984 0)
(0.995918 0.0677771 0)
(0.99695 0.0767854 0)
(0.998697 0.0857067 0)
(1.00111 0.0950773 0)
(1.00435 0.103992 0)
(1.00829 0.113299 0)
(1.01309 0.121639 0)
(1.0185 0.130464 0)
(1.02468 0.137603 0)
(1.03128 0.145706 0)
(1.03853 0.15096 0)
(1.04589 0.158538 0)
(0.999992 0.00321533 0)
(0.999721 0.00952648 0)
(0.999221 0.0158732 0)
(0.998614 0.0222751 0)
(0.997974 0.0290114 0)
(0.997446 0.0359547 0)
(0.997097 0.0433639 0)
(0.997075 0.0509815 0)
(0.997433 0.0590874 0)
(0.998314 0.0672792 0)
(0.999744 0.0759048 0)
(1.00185 0.0843787 0)
(1.0046 0.093195 0)
(1.0081 0.101513 0)
(1.01227 0.110114 0)
(1.01715 0.117754 0)
(1.02261 0.125772 0)
(1.02868 0.132191 0)
(1.03514 0.139445 0)
(1.04205 0.144067 0)
(1.04913 0.150789 0)
(0.999995 0.00325508 0)
(0.999792 0.00963897 0)
(0.999428 0.0160387 0)
(0.999005 0.0224661 0)
(0.998603 0.0291891 0)
(0.998346 0.0360775 0)
(0.998311 0.0433737 0)
(0.998618 0.0508245 0)
(0.999333 0.0586865 0)
(1.00056 0.0665737 0)
(1.00234 0.0748035 0)
(1.00475 0.0828261 0)
(1.00778 0.0910946 0)
(1.01148 0.0988331 0)
(1.0158 0.106762 0)
(1.02073 0.113747 0)
(1.02618 0.121019 0)
(1.0321 0.126783 0)
(1.03839 0.133272 0)
(1.04495 0.137335 0)
(1.05173 0.143299 0)
(0.999998 0.00328455 0)
(0.999861 0.00972145 0)
(0.999629 0.0161531 0)
(0.999382 0.0225853 0)
(0.999207 0.0292722 0)
(0.999206 0.0360837 0)
(0.999465 0.0432436 0)
(1.00008 0.0505066 0)
(1.00111 0.0581057 0)
(1.00265 0.0656745 0)
(1.00473 0.0735007 0)
(1.00739 0.0810729 0)
(1.01065 0.0888051 0)
(1.0145 0.0959863 0)
(1.01892 0.103279 0)
(1.02384 0.109652 0)
(1.02924 0.116237 0)
(1.03498 0.121407 0)
(1.04108 0.127208 0)
(1.04729 0.130778 0)
(1.05377 0.13607 1.09395e-29)
(1 0.0033036 0)
(0.999928 0.00977351 0)
(0.999822 0.0162161 0)
(0.999743 0.0226327 0)
(0.999783 0.0292617 0)
(1.00002 0.0359754 0)
(1.00055 0.0429781 0)
(1.00144 0.0500351 0)
(1.00276 0.0573559 0)
(1.00457 0.0645962 0)
(1.0069 0.0720159 0)
(1.00977 0.0791425 0)
(1.01321 0.0863541 0)
(1.01715 0.0930024 0)
(1.02163 0.0996962 0)
(1.0265 0.105501 0)
(1.03182 0.111456 -6.44335e-29)
(1.03736 0.116089 6.85914e-29)
(1.04324 0.121271 0)
(1.04912 0.124406 0)
(1.05529 0.129102 0)
(1 0.00331218 0)
(0.999993 0.00979501 0)
(1.00001 0.0162277 0)
(1.00009 0.0226089 0)
(1.00033 0.0291593 0)
(1.00079 0.0357557 0)
(1.00157 0.0425829 0)
(1.00271 0.0494182 0)
(1.00428 0.0564489 0)
(1.00632 0.0633544 0)
(1.00887 0.0703684 0)
(1.0119 0.0770578 0)
(1.01546 0.0837675 0)
(1.01947 0.0899091 0)
(1.02395 0.0960417 0)
(1.02875 0.101321 0)
(1.03395 0.1067 0)
(1.03928 0.110847 0)
(1.04493 0.115474 0)
(1.05048 0.118225 0)
(1.05635 0.122393 0)
(1 0.00331031 0)
(1.00005 0.00978601 0)
(1.00018 0.0161886 0)
(1.00041 0.0225149 0)
(1.00084 0.0289674 0)
(1.00151 0.0354288 0)
(1.00251 0.0420642 0)
(1.00387 0.0486649 0)
(1.00566 0.0553972 0)
(1.00789 0.0619646 0)
(1.01061 0.0685776 0)
(1.01377 0.074841 0)
(1.01742 0.0810698 0)
(1.02145 0.0867322 0)
(1.0259 0.0923411 0)
(1.03061 0.0971354 0)
(1.03566 0.101989 0)
(1.04078 0.105699 0)
(1.04619 0.109828 -1.29086e-29)
(1.05142 0.11224 2.01131e-30)
(1.057 0.115939 1.24823e-29)
(1.00001 0.00329813 0)
(1.00011 0.00974685 0)
(1.00034 0.0160997 0)
(1.00071 0.0223525 0)
(1.00131 0.0286892 0)
(1.00217 0.0349992 0)
(1.00337 0.0414293 0)
(1.00492 0.0477849 0)
(1.00691 0.0542135 0)
(1.0093 0.0604427 0)
(1.01215 0.0666621 0)
(1.0154 0.0725132 0)
(1.0191 0.0782836 0)
(1.02311 0.0834948 0)
(1.02751 0.088617 0)
(1.03209 0.0929657 0)
(1.03699 0.097341 0)
(1.04188 0.100657 0)
(1.04706 0.104339 0)
(1.05198 0.106453 0)
(1.05727 0.109734 0)
(1.00001 0.00327585 0)
(1.00016 0.00967808 0)
(1.00049 0.0159624 0)
(1.00099 0.0221238 0)
(1.00174 0.0283285 0)
(1.00277 0.0344726 0)
(1.00414 0.0406859 0)
(1.00586 0.0467886 0)
(1.00801 0.0529109 0)
(1.01053 0.0588045 0)
(1.01348 0.0646402 0)
(1.01679 0.0700944 0)
(1.0205 0.0754301 0)
(1.02448 0.080218 0)
(1.0288 0.0848891 0)
(1.03324 0.0888291 9.69148e-29)
(1.03797 0.0927694 -1.03175e-28)
(1.04264 0.0957305 0)
(1.04757 0.0990132 0)
(1.0522 0.100863 0)
(1.0572 0.103774 0)
(1.00001 0.00324377 0)
(1.00021 0.00958052 0)
(1.00063 0.0157784 0)
(1.00125 0.0218317 0)
(1.00214 0.0278895 0)
(1.00331 0.033855 0)
(1.00484 0.0398425 0)
(1.0067 0.0456865 0)
(1.00897 0.0515027 0)
(1.01159 0.0570654 0)
(1.01461 0.0625291 0)
(1.01794 0.0676033 0)
(1.02165 0.0725285 0)
(1.02556 0.0769208 0)
(1.02978 0.0811752 0)
(1.03408 0.084741 0)
(1.03862 0.0882862 0)
(1.04307 0.0909288 0)
(1.04775 0.0938531 0)
(1.05211 0.0954709 0)
(1.05684 0.0980509 0)
(1.00001 0.00320225 0)
(1.00026 0.00945524 0)
(1.00075 0.0155497 0)
(1.00148 0.0214793 0)
(1.00249 0.0273769 0)
(1.00379 0.0331529 0)
(1.00544 0.0389076 0)
(1.00743 0.0444897 0)
(1.00979 0.0500019 0)
(1.01248 0.0552405 0)
(1.01555 0.0603456 0)
(1.01888 0.0650575 0)
(1.02255 0.0695965 0)
(1.02638 0.0736202 0)
(1.03048 0.0774903 0)
(1.03462 0.0807143 0)
(1.03898 0.0839014 0)
(1.0432 0.0862578 0)
(1.04765 0.088861 0)
(1.05174 0.090274 0)
(1.0562 0.0925596 -1.36082e-29)
(1.00001 0.00315174 0)
(1.0003 0.0093035 0)
(1.00086 0.0152786 0)
(1.00168 0.0210703 0)
(1.0028 0.0267961 0)
(1.00421 0.0323735 0)
(1.00597 0.0378903 -9.98252e-30)
(1.00805 0.0432091 1.06304e-29)
(1.01049 0.0484214 0)
(1.01322 0.0533443 0)
(1.0163 0.0581053 4.73209e-29)
(1.01961 0.0624733 -5.03877e-29)
(1.02322 0.06665 0)
(1.02696 0.0703313 0)
(1.03093 0.0738479 0)
(1.0349 0.0767601 0)
(1.03907 0.0796228 0)
(1.04308 0.0817224 0)
(1.04729 0.084038 0)
(1.05113 0.0852703 0)
(1.05534 0.0872934 0)
(1.00001 0.00309274 0)
(1.00033 0.00912678 0)
(1.00096 0.014968 0)
(1.00186 0.0206088 0)
(1.00307 0.0261527 0)
(1.00457 0.031524 0)
(1.00642 0.0367997 0)
(1.00856 0.0418558 0)
(1.01105 0.0467738 0)
(1.01381 0.0513908 0)
(1.01688 0.055823 0)
(1.02015 0.0598656 0)
(1.02368 0.0637036 0)
(1.02731 0.0670676 0)
(1.03114 0.0702595 0)
(1.03495 0.0728878 0)
(1.03892 0.0754569 0)
(1.04272 0.0773262 0)
(1.0467 0.0793841 0)
(1.05031 0.0804571 0)
(1.05426 0.082246 0)
(1.00001 0.00302581 0)
(1.00036 0.00892675 6.67094e-30)
(1.00104 0.0146206 -7.10437e-30)
(1.00201 0.0200989 0)
(1.00329 0.0254524 0)
(1.00487 0.0306119 0)
(1.00678 0.035645 0)
(1.00898 0.0404404 0)
(1.01149 0.0450713 0)
(1.01425 0.0493932 0)
(1.0173 0.0535123 0)
(1.02051 0.0572482 0)
(1.02395 0.0607703 0)
(1.02746 0.0638408 0)
(1.03115 0.0667352 0)
(1.03478 0.0691051 0)
(1.03856 0.0714087 0)
(1.04215 0.0730716 0)
(1.04591 0.0748988 -1.78347e-29)
(1.04929 0.0758314 2.58909e-30)
(1.05301 0.0774112 1.74476e-29)
(1.00001 0.00295156 0)
(1.00039 0.00870521 0)
(1.00111 0.0142396 0)
(1.00213 0.0195452 0)
(1.00348 0.0247013 0)
(1.00511 0.0296449 0)
(1.00707 0.0344355 0)
(1.0093 0.0389737 0)
(1.01182 0.0433257 0)
(1.01456 0.047364 0)
(1.01756 0.051186 0)
(1.0207 0.0546335 0)
(1.02404 0.0578618 0)
(1.02743 0.0606614 0)
(1.03096 0.0632835 0)
(1.03442 0.0654185 0)
(1.03801 0.0674823 0)
(1.0414 0.0689603 0)
(1.04494 0.0705809 0)
(1.04811 0.0713899 0)
(1.0516 0.0727832 0)
(1.00001 0.00287064 0)
(1.00041 0.00846412 0)
(1.00117 0.0138283 0)
(1.00224 0.0189525 0)
(1.00363 0.0239056 0)
(1.0053 0.0286307 0)
(1.00729 0.0331802 0)
(1.00952 0.0374659 0)
(1.01204 0.041548 0)
(1.01475 0.0453148 0)
(1.01769 0.0488559 0)
(1.02075 0.0520329 0)
(1.02397 0.0549884 0)
(1.02722 0.0575384 0)
(1.0306 0.0599115 0)
(1.03389 0.0618335 0)
(1.03729 0.0636808 0)
(1.04048 0.0649932 0)
(1.04382 0.0664289 0)
(1.04678 0.0671292 0)
(1.05006 0.0683561 0)
(1.00001 0.00278373 0)
(1.00043 0.00820551 0)
(1.00121 0.0133901 0)
(1.00231 0.0183255 0)
(1.00374 0.0230716 0)
(1.00544 0.0275768 0)
(1.00744 0.0318878 0)
(1.00967 0.0359268 0)
(1.01216 0.0397488 0)
(1.01482 0.0432566 0)
(1.01769 0.0465326 0)
(1.02065 0.0494567 0)
(1.02376 0.0521593 0)
(1.02687 0.0544797 0)
(1.03009 0.0566256 0)
(1.03322 0.0583544 0)
(1.03643 0.0600063 0)
(1.03943 0.0611705 0)
(1.04257 0.062441 0)
(1.04534 0.0630458 0)
(1.04841 0.0641241 -8.77654e-30)
(1.00001 0.00269153 0)
(1.00044 0.00793148 0)
(1.00124 0.0129284 0)
(1.00237 0.0176692 0)
(1.00381 0.0222053 0)
(1.00553 0.0264907 0)
(1.00752 0.0305669 0)
(1.00974 0.0343659 0)
(1.01219 0.037938 5.20233e-29)
(1.01479 0.0411993 -5.53977e-29)
(1.01757 0.0442259 0)
(1.02043 0.0469138 0)
(1.02342 0.0493827 0)
(1.02639 0.0514921 0)
(1.02945 0.0534308 0)
(1.03241 0.0549845 0)
(1.03544 0.0564604 0)
(1.03827 0.0574922 0)
(1.04122 0.0586148 0)
(1.0438 0.0591358 0)
(1.04668 0.0600819 0)
(1.00001 0.00259477 0)
(1.00045 0.00764419 0)
(1.00127 0.0124468 0)
(1.0024 0.0169883 0)
(1.00386 0.0213129 0)
(1.00557 0.0253797 0)
(1.00755 0.0292257 0)
(1.00973 0.0327919 0)
(1.01213 0.0361248 0)
(1.01467 0.0391523 0)
(1.01736 0.0419446 0)
(1.02011 0.0444125 0)
(1.02296 0.0466654 0)
(1.0258 0.0485813 0)
(1.0287 0.0503312 0)
(1.0315 0.0517264 0)
(1.03435 0.0530438 0)
(1.03701 0.0539574 0)
(1.03977 0.0549481 0)
(1.04219 0.0553956 0)
(1.04487 0.0562239 0)
(1.00001 0.00249417 0)
(1.00045 0.0073458 0)
(1.00128 0.0119487 0)
(1.00242 0.0162876 0)
(1.00387 0.0204004 0)
(1.00557 0.0242507 0)
(1.00752 0.0278719 0)
(1.00966 0.0312132 0)
(1.012 0.0343176 0)
(1.01446 0.0371237 0)
(1.01705 0.0396965 0)
(1.01969 0.0419597 0)
(1.02241 0.0440135 0)
(1.02511 0.045752 0)
(1.02785 0.0473302 0)
(1.03049 0.0485822 0)
(1.03318 0.0497569 0)
(1.03567 0.0505649 0)
(1.03825 0.051438 -1.5737e-29)
(1.04051 0.0518213 1.88765e-30)
(1.04301 0.0525449 1.58178e-29)
(1.00001 0.00239043 0)
(1.00045 0.0070384 0)
(1.00128 0.0114376 0)
(1.00241 0.0155718 0)
(1.00385 0.0194735 0)
(1.00553 0.0231104 0)
(1.00745 0.0265128 0)
(1.00954 0.0296374 0)
(1.0118 0.0325242 0)
(1.01418 0.0351212 0)
(1.01667 0.0374887 0)
(1.01919 0.0395618 0)
(1.02178 0.0414321 0)
(1.02434 0.0430083 0)
(1.02693 0.0444304 0)
(1.02941 0.0455529 0)
(1.03194 0.0465995 0)
(1.03427 0.0473134 0)
(1.03669 0.0480816 0)
(1.03879 0.0484089 0)
(1.04112 0.0490396 0)
(1.00001 0.00228427 0)
(1.00045 0.00672403 0)
(1.00127 0.0109167 0)
(1.0024 0.0148453 0)
(1.00381 0.0185376 0)
(1.00546 0.021965 0)
(1.00733 0.0251553 0)
(1.00936 0.0280717 0)
(1.01155 0.0307515 0)
(1.01383 0.0331514 0)
(1.01621 0.0353272 0)
(1.01862 0.0372241 0)
(1.02108 0.0389256 0)
(1.0235 0.0403533 0)
(1.02594 0.0416336 0)
(1.02828 0.0426392 0)
(1.03064 0.0435707 0)
(1.03283 0.0442009 0)
(1.03508 0.0448758 0)
(1.03704 0.0451545 0)
(1.03921 0.0457028 0)
(1.00001 0.00217634 0)
(1.00044 0.00640471 0)
(1.00125 0.0103892 0)
(1.00236 0.0141125 0)
(1.00375 0.0175978 0)
(1.00536 0.0208204 0)
(1.00718 0.0238054 0)
(1.00914 0.0265223 0)
(1.01125 0.029006 0)
(1.01343 0.0312205 0)
(1.01571 0.0332174 0)
(1.01799 0.0349509 0)
(1.02032 0.0364973 0)
(1.02261 0.0377894 0)
(1.02491 0.0389411 0)
(1.0271 0.0398413 0)
(1.02931 0.0406695 0)
(1.03135 0.0412252 0)
(1.03345 0.0418173 0)
(1.03528 0.0420537 0)
(1.03729 0.0425292 -8.68867e-30)
(1.00001 0.0020673 0)
(1.00044 0.00608237 0)
(1.00123 0.00985831 0)
(1.00231 0.0133774 0)
(1.00367 0.0166591 0)
(1.00523 0.0196819 0)
(1.00699 0.0224691 0)
(1.00888 0.0249953 0)
(1.0109 0.0272932 0)
(1.01299 0.0293334 0)
(1.01515 0.0311637 0)
(1.01732 0.0327462 0)
(1.01952 0.0341502 0)
(1.02167 0.0353184 0)
(1.02383 0.0363534 0)
(1.02589 0.0371587 0)
(1.02796 0.0378944 0)
(1.02986 0.038384 0)
(1.03182 0.0389025 0)
(1.03351 0.0391025 0)
(1.03538 0.0395138 0)
(1.00001 0.00195779 0)
(1.00043 0.00575884 0)
(1.0012 0.0093268 0)
(1.00226 0.0126437 0)
(1.00357 0.0157258 0)
(1.00508 0.0185545 0)
(1.00678 0.0211514 0)
(1.00859 0.0234956 0)
(1.01053 0.0256179 0)
(1.01252 0.0274947 0)
(1.01457 0.0291701 0)
(1.01662 0.0306129 0)
(1.01869 0.0318861 0)
(1.02071 0.0329415 0)
(1.02274 0.0338708 0)
(1.02466 0.0345905 0)
(1.02659 0.0352434 0)
(1.02837 0.0356743 0)
(1.03018 0.0361278 0)
(1.03176 0.0362964 -3.34953e-30)
(1.0335 0.0366511 3.56483e-30)
(1.00001 0.00184837 0)
(1.00041 0.00543582 0)
(1.00116 0.00879734 0)
(1.00219 0.0119149 0)
(1.00346 0.014802 0)
(1.00492 0.0174427 0)
(1.00654 0.0198568 0)
(1.00828 0.0220278 0)
(1.01012 0.0239845 0)
(1.01201 0.0257081 0)
(1.01395 0.0272394 0)
(1.01589 0.0285532 0)
(1.01784 0.0297067 0)
(1.01974 0.030659 0)
(1.02163 0.0314927 0)
(1.02343 0.0321354 0)
(1.02523 0.0327142 0)
(1.02688 0.0330932 0)
(1.02857 0.0334893 -6.43107e-30)
(1.03003 0.0336309 6.84506e-30)
(1.03164 0.033936 0)
(1.00001 0.0017396 0)
(1.0004 0.00511488 0)
(1.00112 0.00827238 0)
(1.00211 0.0111942 0)
(1.00334 0.0138914 0)
(1.00474 0.0163503 0)
(1.00629 0.0185894 0)
(1.00795 0.0205958 0)
(1.0097 0.0223964 0)
(1.01149 0.0239766 0)
(1.01332 0.0253742 0)
(1.01514 0.0265689 0)
(1.01697 0.0276126 0)
(1.01875 0.0284711 0)
(1.02052 0.0292183 0)
(1.0222 0.0297918 0)
(1.02387 0.0303044 0)
(1.02541 0.0306375 0)
(1.02697 0.0309828 0)
(1.02834 0.0311014 0)
(1.02982 0.0313631 -4.88137e-30)
(1.00001 0.00163194 0)
(1.00039 0.00479743 0)
(1.00108 0.00775409 0)
(1.00203 0.0104843 0)
(1.00321 0.012997 0)
(1.00455 0.0152808 0)
(1.00603 0.0173527 0)
(1.0076 0.0192028 0)
(1.00926 0.0208564 0)
(1.01095 0.0223026 0)
(1.01268 0.0235761 0)
(1.01439 0.0246609 0)
(1.01611 0.0256041 0)
(1.01777 0.0263772 0)
(1.01942 0.0270461 0)
(1.02098 0.0275574 0)
(1.02254 0.028011 0)
(1.02397 0.0283034 0)
(1.02542 0.0286041 0)
(1.02668 0.0287032 0)
(1.02805 0.028927 0)
(1.00001 0.00152584 0)
(1.00037 0.00448472 0)
(1.00104 0.00724441 0)
(1.00195 0.00978769 0)
(1.00307 0.0121218 0)
(1.00435 0.0142371 0)
(1.00575 0.0161494 0)
(1.00725 0.0178515 0)
(1.00881 0.019367 0)
(1.01041 0.0206879 0)
(1.01203 0.0218463 0)
(1.01364 0.0228298 0)
(1.01524 0.0236809 0)
(1.0168 0.0243762 0)
(1.01834 0.0249744 0)
(1.01979 0.0254298 0)
(1.02123 0.0258307 0)
(1.02256 0.0260874 0)
(1.0239 0.0263487 0)
(1.02507 0.0264314 0)
(1.02633 0.0266222 0)
(1.00001 0.00142167 0)
(1.00035 0.00417784 0)
(1.00099 0.00674502 0)
(1.00186 0.0091065 0)
(1.00293 0.0112681 0)
(1.00414 0.0132217 0)
(1.00548 0.014982 0)
(1.00689 0.016544 0)
(1.00837 0.0179296 0)
(1.00987 0.0191336 0)
(1.01139 0.0201853 0)
(1.01289 0.0210754 0)
(1.01439 0.0218423 0)
(1.01584 0.0224667 0)
(1.01727 0.023001 0)
(1.01863 0.0234062 0)
(1.01996 0.0237602 0)
(1.0212 0.0239852 0)
(1.02243 0.0242121 8.09375e-30)
(1.02352 0.0242809 -5.6642e-31)
(1.02468 0.0244431 -8.56567e-30)
(1.00001 0.00131975 0)
(1.00034 0.00387772 0)
(1.00094 0.00625732 0)
(1.00177 0.00844246 0)
(1.00279 0.0104377 0)
(1.00394 0.0122364 0)
(1.0052 0.013852 0)
(1.00653 0.0152816 0)
(1.00792 0.0165453 0)
(1.00933 0.0176402 0)
(1.01075 0.018593 0)
(1.01216 0.0193971 0)
(1.01356 0.0200868 0)
(1.01491 0.0206468 0)
(1.01624 0.0211232 0)
(1.0175 0.0214834 0)
(1.01874 0.0217955 0)
(1.01988 0.0219928 0)
(1.02102 0.0221895 0)
(1.02203 0.0222466 0)
(1.0231 0.0223841 0)
(1.00001 0.00122034 0)
(1.00032 0.00358511 0)
(1.0009 0.00578243 0)
(1.00168 0.00779695 0)
(1.00264 0.00963219 0)
(1.00373 0.0112826 0)
(1.00492 0.0127609 0)
(1.00618 0.0140653 0)
(1.00748 0.0152147 0)
(1.0088 0.0162078 0)
(1.01014 0.017069 0)
(1.01145 0.0177936 -5.83475e-30)
(1.01275 0.0184128 6.2127e-30)
(1.01401 0.018914 -5.92989e-30)
(1.01524 0.0193382 6.31352e-30)
(1.01641 0.0196579 0)
(1.01756 0.0199328 0)
(1.01862 0.0201055 0)
(1.01967 0.0202757 0)
(1.0206 0.0203232 0)
(1.02159 0.0204393 1.04066e-29)
(1.00001 0.00112365 0)
(1.0003 0.00330061 0)
(1.00085 0.00532124 0)
(1.00159 0.007171 0)
(1.0025 0.00885255 0)
(1.00353 0.0103614 0)
(1.00465 0.0117092 0)
(1.00583 0.0128955 0)
(1.00705 0.0139377 0)
(1.00829 0.0148358 0)
(1.00953 0.015612 0)
(1.01076 0.0162635 0)
(1.01197 0.0168179 0)
(1.01314 0.0172656 0)
(1.01429 0.0176426 0)
(1.01537 0.0179258 0)
(1.01643 0.0181676 0)