/*--------------------------------*- C++ -*----------------------------------*\
  =========                 |
  \\      /  F ield         | OpenFOAM: The Open Source CFD Toolbox
   \\    /   O peration     | Website:  https://openfoam.org
    \\  /    A nd           | Version:  7
     \\/     M anipulation  |
\*---------------------------------------------------------------------------*/
FoamFile
{
    version     2.0;
    format      ascii;
    class       volScalarField;
    location    "160";
    object      p;
}
// * * * * * * * * * * * * * * * * * * * * * * * * * * * * * * * * * * * * * //

dimensions      [0 2 -2 0 0 0 0];

internalField   nonuniform List<scalar> 
7156
(
-0.387346
-0.387508
-0.387668
-0.387863
-0.38813
-0.388503
-0.389008
-0.389668
-0.390503
-0.391528
-0.392761
-0.394219
-0.395924
-0.397901
-0.40018
-0.402799
-0.4058
-0.409234
-0.413167
-0.417601
-0.422572
-0.387943
-0.388052
-0.388167
-0.388324
-0.388562
-0.388912
-0.389403
-0.39006
-0.390901
-0.391947
-0.393214
-0.394722
-0.396496
-0.398562
-0.400953
-0.40371
-0.406877
-0.410509
-0.414678
-0.419387
-0.424661
-0.38853
-0.388585
-0.388654
-0.388773
-0.388979
-0.389305
-0.389779
-0.390429
-0.391274
-0.392334
-0.39363
-0.395184
-0.397019
-0.399165
-0.401659
-0.404542
-0.407862
-0.411676
-0.416062
-0.421024
-0.426572
-0.3891
-0.389102
-0.389124
-0.389203
-0.389375
-0.389674
-0.390129
-0.390768
-0.391612
-0.392683
-0.394003
-0.395593
-0.397482
-0.399701
-0.402286
-0.405283
-0.408741
-0.412721
-0.417303
-0.422496
-0.428286
-0.389649
-0.389596
-0.389571
-0.389609
-0.389745
-0.390014
-0.390447
-0.39107
-0.391909
-0.392985
-0.394322
-0.395944
-0.397878
-0.400158
-0.402824
-0.405922
-0.409503
-0.413631
-0.41839
-0.423789
-0.429788
-0.390172
-0.390064
-0.38999
-0.389984
-0.390083
-0.390319
-0.390726
-0.39133
-0.392159
-0.393235
-0.394582
-0.396226
-0.398197
-0.40053
-0.403264
-0.406449
-0.410138
-0.414395
-0.419309
-0.424893
-0.431064
-0.390662
-0.390499
-0.390376
-0.390326
-0.390384
-0.390585
-0.390961
-0.391543
-0.392355
-0.393424
-0.394774
-0.396434
-0.398432
-0.400806
-0.403597
-0.406855
-0.410636
-0.415004
-0.420051
-0.425797
-0.432112
-0.391118
-0.390899
-0.390726
-0.390629
-0.390644
-0.390807
-0.391149
-0.391702
-0.392492
-0.393548
-0.394894
-0.39656
-0.398576
-0.400981
-0.403816
-0.407133
-0.410989
-0.415449
-0.420609
-0.426484
-0.432935
-0.391535
-0.391261
-0.391036
-0.390891
-0.390861
-0.390981
-0.391285
-0.391804
-0.392567
-0.393602
-0.394936
-0.396599
-0.398623
-0.401047
-0.403914
-0.407276
-0.411191
-0.415724
-0.420974
-0.426957
-0.433507
-0.391912
-0.391582
-0.391305
-0.39111
-0.391031
-0.391105
-0.391366
-0.391845
-0.392574
-0.393581
-0.394895
-0.396546
-0.398568
-0.401
-0.403885
-0.407278
-0.411235
-0.415823
-0.421143
-0.427211
-0.433825
-0.392245
-0.39186
-0.391529
-0.391282
-0.391153
-0.391177
-0.391389
-0.391824
-0.392512
-0.393484
-0.394769
-0.396398
-0.398408
-0.400835
-0.403727
-0.407135
-0.411119
-0.415743
-0.421112
-0.427243
-0.433893
-0.392533
-0.392093
-0.391708
-0.391408
-0.391224
-0.391195
-0.391354
-0.391738
-0.392379
-0.393307
-0.394554
-0.396153
-0.398139
-0.400551
-0.403435
-0.406845
-0.410839
-0.415483
-0.42088
-0.427052
-0.433713
-0.392775
-0.392281
-0.391842
-0.391486
-0.391246
-0.391158
-0.39126
-0.391587
-0.392173
-0.39305
-0.394251
-0.395808
-0.39776
-0.400145
-0.403009
-0.406407
-0.410396
-0.415042
-0.420448
-0.426641
-0.433289
-0.392424
-0.39193
-0.391516
-0.391217
-0.391068
-0.391106
-0.39137
-0.391894
-0.392712
-0.393857
-0.395364
-0.397271
-0.399617
-0.402449
-0.40582
-0.40979
-0.414422
-0.419819
-0.426015
-0.432628
-0.392522
-0.391973
-0.3915
-0.391138
-0.390923
-0.390894
-0.391088
-0.391543
-0.392294
-0.393375
-0.394821
-0.396672
-0.398968
-0.401755
-0.405088
-0.409024
-0.413626
-0.418998
-0.425179
-0.431739
-0.392577
-0.391972
-0.391439
-0.391012
-0.390727
-0.390625
-0.390744
-0.391122
-0.391797
-0.392805
-0.394182
-0.395966
-0.3982
-0.400931
-0.404212
-0.4081
-0.41266
-0.417991
-0.424141
-0.430633
-0.392591
-0.391929
-0.391334
-0.390839
-0.390481
-0.390301
-0.390339
-0.390634
-0.391225
-0.392151
-0.393448
-0.395156
-0.397318
-0.399981
-0.403197
-0.407026
-0.411529
-0.416806
-0.42291
-0.429322
-0.392565
-0.391847
-0.391189
-0.390623
-0.390188
-0.389925
-0.389876
-0.390081
-0.390582
-0.391416
-0.392624
-0.394246
-0.396325
-0.398909
-0.40205
-0.405807
-0.410241
-0.415451
-0.421498
-0.427819
-0.392501
-0.391727
-0.391005
-0.390367
-0.389852
-0.389501
-0.389359
-0.389468
-0.38987
-0.390606
-0.391716
-0.393242
-0.395228
-0.397722
-0.400777
-0.404451
-0.408805
-0.413937
-0.419917
-0.426139
-0.392403
-0.391574
-0.390786
-0.390074
-0.389475
-0.389033
-0.388793
-0.3888
-0.389096
-0.389725
-0.390729
-0.39215
-0.394034
-0.396428
-0.399387
-0.402968
-0.407232
-0.412276
-0.418178
-0.424298
-0.39139
-0.390537
-0.389748
-0.389063
-0.388526
-0.388184
-0.388082
-0.388266
-0.388781
-0.389671
-0.390979
-0.392752
-0.395037
-0.39789
-0.401368
-0.405533
-0.410481
-0.416298
-0.422312
-0.391179
-0.39026
-0.389394
-0.388621
-0.387985
-0.387536
-0.38732
-0.387387
-0.387781
-0.38855
-0.389737
-0.39139
-0.393558
-0.396296
-0.399663
-0.403721
-0.408564
-0.41429
-0.420196
-0.390947
-0.389962
-0.389017
-0.388152
-0.387415
-0.386855
-0.386522
-0.386465
-0.386733
-0.387374
-0.388433
-0.389959
-0.392003
-0.394618
-0.397866
-0.401809
-0.406541
-0.412169
-0.417966
-0.390696
-0.389645
-0.388621
-0.387664
-0.386823
-0.386149
-0.385694
-0.38551
-0.385646
-0.386153
-0.387078
-0.388471
-0.390383
-0.39287
-0.395991
-0.399811
-0.404425
-0.409952
-0.415638
-0.389316
-0.388211
-0.387161
-0.386215
-0.385424
-0.384844
-0.384529
-0.38453
-0.384898
-0.385684
-0.386939
-0.388713
-0.391064
-0.394053
-0.397744
-0.402234
-0.407654
-0.413225
-0.388979
-0.387794
-0.38665
-0.385596
-0.384688
-0.383981
-0.383531
-0.383393
-0.383619
-0.384263
-0.385374
-0.387007
-0.389217
-0.392067
-0.395623
-0.399983
-0.40529
-0.410742
-0.388639
-0.387374
-0.386136
-0.384975
-0.383947
-0.383112
-0.382526
-0.382246
-0.382329
-0.382826
-0.383791
-0.385278
-0.387343
-0.39005
-0.393465
-0.397688
-0.402878
-0.408199
-0.388302
-0.386958
-0.385626
-0.384357
-0.38321
-0.382245
-0.381523
-0.381101
-0.381038
-0.381388
-0.382205
-0.383543
-0.38546
-0.38802
-0.391288
-0.395367
-0.400433
-0.405605
-0.386552
-0.385126
-0.38375
-0.382484
-0.38139
-0.380531
-0.379968
-0.379759
-0.379961
-0.380629
-0.381818
-0.383585
-0.385994
-0.389111
-0.393037
-0.397971
-0.402969
-0.38616
-0.384642
-0.383161
-0.381777
-0.380556
-0.379562
-0.378857
-0.378504
-0.378559
-0.379079
-0.380119
-0.381736
-0.383991
-0.386951
-0.390716
-0.395508
-0.400295
-0.385791
-0.384182
-0.382597
-0.381098
-0.379751
-0.378624
-0.377781
-0.377285
-0.377196
-0.37757
-0.378462
-0.379929
-0.382029
-0.384829
-0.388422
-0.393061
-0.39759
-0.385449
-0.383752
-0.382065
-0.380453
-0.378984
-0.377728
-0.37675
-0.376115
-0.375885
-0.376116
-0.376864
-0.378182
-0.380128
-0.382763
-0.386173
-0.390647
-0.394855
-0.383358
-0.381573
-0.379852
-0.378265
-0.376883
-0.375774
-0.375006
-0.37464
-0.374733
-0.37534
-0.376513
-0.378305
-0.380771
-0.383987
-0.388282
-0.392095
-0.383008
-0.381128
-0.379302
-0.377601
-0.376099
-0.374866
-0.373969
-0.373473
-0.373434
-0.373906
-0.374938
-0.376577
-0.378873
-0.381882
-0.385984
-0.389313
-0.382708
-0.380737
-0.378811
-0.377002
-0.375386
-0.374035
-0.373017
-0.372397
-0.372234
-0.372577
-0.373472
-0.374961
-0.377085
-0.379872
-0.383769
-0.386515
-0.380409
-0.378388
-0.376477
-0.374753
-0.373291
-0.37216
-0.371425
-0.371143
-0.371365
-0.372129
-0.373472
-0.375422
-0.377974
-0.381652
-0.383708
-0.38015
-0.378039
-0.376034
-0.37421
-0.372644
-0.371408
-0.370566
-0.370175
-0.370282
-0.370923
-0.372122
-0.373897
-0.3762
-0.379649
-0.380903
-0.379967
-0.377774
-0.37568
-0.373765
-0.372104
-0.370771
-0.369831
-0.369339
-0.36934
-0.369862
-0.370922
-0.37252
-0.37456
-0.37777
-0.378113
-0.377599
-0.375425
-0.373425
-0.371679
-0.370258
-0.369228
-0.368644
-0.368546
-0.368956
-0.369878
-0.3713
-0.373062
-0.376024
-0.375353
-0.377522
-0.375274
-0.373199
-0.371375
-0.369876
-0.368766
-0.368097
-0.367907
-0.36821
-0.368997
-0.37024
-0.371709
-0.374415
-0.372641
-0.375235
-0.373093
-0.371201
-0.369631
-0.368449
-0.367704
-0.367428
-0.367628
-0.368281
-0.369342
-0.370505
-0.372944
-0.37
-0.375314
-0.373113
-0.371161
-0.36953
-0.368283
-0.367468
-0.367112
-0.367212
-0.367731
-0.368606
-0.369453
-0.371606
-0.367451
-0.373263
-0.371259
-0.369574
-0.368269
-0.36739
-0.366958
-0.366961
-0.367346
-0.36803
-0.368554
-0.370396
-0.36502
-0.373547
-0.371498
-0.369766
-0.36841
-0.367472
-0.366967
-0.366873
-0.367125
-0.367613
-0.367816
-0.369308
-0.362743
-0.373967
-0.371879
-0.370106
-0.368704
-0.36771
-0.367134
-0.366946
-0.367066
-0.367356
-0.367254
-0.368348
-0.360681
-0.372403
-0.370593
-0.369148
-0.3681
-0.367456
-0.367174
-0.367166
-0.367257
-0.366885
-0.367529
-0.358935
-0.373066
-0.371223
-0.369737
-0.368638
-0.367926
-0.367553
-0.367425
-0.367323
-0.366734
-0.366833
-0.357509
-0.371993
-0.370467
-0.369316
-0.368535
-0.368076
-0.367842
-0.367574
-0.366867
-0.366205
-0.356081
-0.372895
-0.371329
-0.370124
-0.369274
-0.368731
-0.368414
-0.368048
-0.36744
-0.365881
-0.354933
-0.372313
-0.37105
-0.370127
-0.369503
-0.369121
-0.368741
-0.368535
-0.366769
-0.358943
-0.372081
-0.371078
-0.370365
-0.369919
-0.369551
-0.369798
-0.369027
-0.376406
-0.373203
-0.372107
-0.37129
-0.370756
-0.370363
-0.370896
-0.370536
-0.380429
-0.373193
-0.372247
-0.371585
-0.371089
-0.371625
-0.371144
-0.380509
-0.374316
-0.373212
-0.37237
-0.371686
-0.371998
-0.371164
-0.379286
-0.374161
-0.373088
-0.372134
-0.372058
-0.370731
-0.377245
-0.373721
-0.372425
-0.371847
-0.369946
-0.374737
-0.374256
-0.372561
-0.371408
-0.368894
-0.372007
-0.372548
-0.370778
-0.367644
-0.369199
-0.369991
-0.366249
-0.366392
-0.364746
-0.36363
-0.363164
-0.360934
-0.358312
-0.35177
-0.362158
-0.354683
-0.375046
-0.364278
-0.357664
-0.37683
-0.366318
-0.360693
-0.386749
-0.378479
-0.368242
-0.363733
-0.395786
-0.387921
-0.379956
-0.369999
-0.366721
-0.396625
-0.388925
-0.381215
-0.371522
-0.369552
-0.404121
-0.397333
-0.389743
-0.382205
-0.372725
-0.372047
-0.410461
-0.404612
-0.397906
-0.390359
-0.382876
-0.373503
-0.373916
-0.410764
-0.405011
-0.398348
-0.39077
-0.38318
-0.373745
-0.374746
-0.415709
-0.410999
-0.405325
-0.398667
-0.390983
-0.383078
-0.373324
-0.37393
-0.415767
-0.411167
-0.405558
-0.398885
-0.391032
-0.382579
-0.371974
-0.368669
-0.419333
-0.41576
-0.411265
-0.405721
-0.39903
-0.390994
-0.381897
-0.369848
-0.350274
-0.421783
-0.419132
-0.415683
-0.411294
-0.405823
-0.399137
-0.390981
-0.381386
-0.369502
-0.346906
-0.42138
-0.418855
-0.415527
-0.411248
-0.405865
-0.399226
-0.391068
-0.381303
-0.370268
-0.348624
-0.422637
-0.420897
-0.418494
-0.415286
-0.411122
-0.40584
-0.399285
-0.391213
-0.38148
-0.371028
-0.350102
-0.421951
-0.420326
-0.418041
-0.414952
-0.410905
-0.405737
-0.39929
-0.391343
-0.38173
-0.371596
-0.35117
-0.422168
-0.421179
-0.419663
-0.41749
-0.414517
-0.410588
-0.405541
-0.399217
-0.391412
-0.38197
-0.372068
-0.352254
-0.421207
-0.420315
-0.418901
-0.416835
-0.413975
-0.410164
-0.40524
-0.399048
-0.391395
-0.382162
-0.372458
-0.353384
-0.42056
-0.420161
-0.419359
-0.418039
-0.416074
-0.413321
-0.409626
-0.404827
-0.398772
-0.391278
-0.382275
-0.372744
-0.354474
-0.419352
-0.41903
-0.418309
-0.417077
-0.415206
-0.412555
-0.408971
-0.404297
-0.398381
-0.391051
-0.38229
-0.372916
-0.355481
-0.418069
-0.417816
-0.417168
-0.416016
-0.414232
-0.411677
-0.408201
-0.403649
-0.397875
-0.390712
-0.3822
-0.372985
-0.356397
-0.416617
-0.416717
-0.416523
-0.41594
-0.41486
-0.413156
-0.410692
-0.40732
-0.402889
-0.397257
-0.390268
-0.382011
-0.37297
-0.357227
-0.41515
-0.415299
-0.415157
-0.414632
-0.413615
-0.411985
-0.409607
-0.406336
-0.402025
-0.396537
-0.38973
-0.381735
-0.37289
-0.357977
-0.413237
-0.413634
-0.413823
-0.413726
-0.413251
-0.412292
-0.41073
-0.408433
-0.405259
-0.401069
-0.39573
-0.389113
-0.381388
-0.372769
-0.358659
-0.411648
-0.412076
-0.412298
-0.412239
-0.411807
-0.4109
-0.409401
-0.407182
-0.404105
-0.400037
-0.394853
-0.388439
-0.380993
-0.372631
-0.359282
-0.410032
-0.410485
-0.410735
-0.410706
-0.410313
-0.409453
-0.408013
-0.405869
-0.40289
-0.398947
-0.393926
-0.387727
-0.380568
-0.372501
-0.359854
-0.407785
-0.408399
-0.408871
-0.409142
-0.40914
-0.40878
-0.407963
-0.406581
-0.404512
-0.401631
-0.397819
-0.392969
-0.386998
-0.380133
-0.372414
-0.36037
-0.406132
-0.406759
-0.407245
-0.407533
-0.407553
-0.407223
-0.406447
-0.40512
-0.403127
-0.400348
-0.396672
-0.392003
-0.38627
-0.379709
-0.372435
-0.360774
-0.404487
-0.405122
-0.405618
-0.405919
-0.405958
-0.405655
-0.404919
-0.403648
-0.401733
-0.39906
-0.395527
-0.391047
-0.385563
-0.379339
-0.372555
-0.361056
-0.402125
-0.40286
-0.4035
-0.404002
-0.404313
-0.404368
-0.404091
-0.403395
-0.402181
-0.400346
-0.397784
-0.394401
-0.390119
-0.384895
-0.378979
-0.372298
-0.36195
-0.400524
-0.40126
-0.401901
-0.402407
-0.402726
-0.402796
-0.402545
-0.401889
-0.400735
-0.398984
-0.396539
-0.393313
-0.389237
-0.384281
-0.378689
-0.372253
-0.363
-0.398963
-0.399697
-0.400337
-0.400844
-0.40117
-0.401256
-0.401031
-0.400416
-0.399324
-0.397662
-0.39534
-0.392278
-0.388415
-0.383734
-0.37847
-0.37233
-0.363864
-0.39745
-0.398181
-0.398818
-0.399325
-0.399657
-0.399758
-0.399561
-0.39899
-0.397964
-0.396395
-0.394201
-0.39131
-0.387666
-0.383263
-0.378321
-0.372487
-0.364663
-0.395201
-0.395995
-0.39672
-0.397352
-0.397859
-0.398197
-0.398314
-0.398146
-0.397622
-0.396665
-0.395195
-0.393135
-0.390419
-0.387
-0.382875
-0.378248
-0.37273
-0.36548
-0.393818
-0.394605
-0.395322
-0.395949
-0.396455
-0.3968
-0.396934
-0.396798
-0.396324
-0.39544
-0.394073
-0.392151
-0.389616
-0.386424
-0.382577
-0.378259
-0.373062
-0.36634
-0.39251
-0.393288
-0.393996
-0.394616
-0.395122
-0.395475
-0.395628
-0.395525
-0.395104
-0.394298
-0.393038
-0.391259
-0.388909
-0.385945
-0.382375
-0.37836
-0.373487
-0.367254
-0.39045
-0.391281
-0.392049
-0.392747
-0.393361
-0.393867
-0.394229
-0.394403
-0.394336
-0.393972
-0.393246
-0.392097
-0.390465
-0.388302
-0.38557
-0.382274
-0.378557
-0.374009
-0.368236
-0.389319
-0.390139
-0.390894
-0.391581
-0.39219
-0.392696
-0.393068
-0.393265
-0.393238
-0.392932
-0.392292
-0.391257
-0.389775
-0.387801
-0.385301
-0.382278
-0.378856
-0.374634
-0.369301
-0.388281
-0.389086
-0.389828
-0.390504
-0.391107
-0.391615
-0.391999
-0.39222
-0.392234
-0.391992
-0.391439
-0.390522
-0.389193
-0.387411
-0.385142
-0.38239
-0.37926
-0.375365
-0.37046
-0.387337
-0.388128
-0.388854
-0.38952
-0.390117
-0.390628
-0.391025
-0.391273
-0.391331
-0.391153
-0.390691
-0.389896
-0.388722
-0.387132
-0.385096
-0.382614
-0.379775
-0.37621
-0.371724
-0.386492
-0.387265
-0.387977
-0.388631
-0.389224
-0.389737
-0.390149
-0.390426
-0.39053
-0.390421
-0.390052
-0.38938
-0.388363
-0.386967
-0.385163
-0.382951
-0.380404
-0.377173
-0.373103
-0.384912
-0.385746
-0.386501
-0.387197
-0.38784
-0.388428
-0.388946
-0.389373
-0.389681
-0.389834
-0.389794
-0.389521
-0.388975
-0.388117
-0.386917
-0.385346
-0.383403
-0.38115
-0.378258
-0.374604
-0.384287
-0.3851
-0.385837
-0.386516
-0.387148
-0.387731
-0.388255
-0.3887
-0.389039
-0.389243
-0.389276
-0.389101
-0.388681
-0.387984
-0.386981
-0.385645
-0.383972
-0.382014
-0.379468
-0.376233
-0.383765
-0.384556
-0.385272
-0.385934
-0.386554
-0.387134
-0.387664
-0.388127
-0.388501
-0.388757
-0.388864
-0.388788
-0.388499
-0.387964
-0.387158
-0.386057
-0.384656
-0.382999
-0.380804
-0.377993
-0.383344
-0.384111
-0.384805
-0.38545
-0.386059
-0.386635
-0.387172
-0.387655
-0.388064
-0.388374
-0.388557
-0.388583
-0.388424
-0.388053
-0.387446
-0.386582
-0.385455
-0.384102
-0.382267
-0.379886
-0.383024
-0.383765
-0.384436
-0.385063
-0.38566
-0.386234
-0.386778
-0.387282
-0.387727
-0.388093
-0.388353
-0.388482
-0.388455
-0.388249
-0.387842
-0.387216
-0.386366
-0.385322
-0.383854
-0.381911
-0.3828
-0.383514
-0.384161
-0.38477
-0.385356
-0.385926
-0.386479
-0.387005
-0.387488
-0.38791
-0.388248
-0.388482
-0.388588
-0.388548
-0.388342
-0.387956
-0.387385
-0.386656
-0.385562
-0.384064
-0.38267
-0.383355
-0.383978
-0.384567
-0.385142
-0.38571
-0.386272
-0.38682
-0.387342
-0.387821
-0.38824
-0.388578
-0.388819
-0.388945
-0.388942
-0.388797
-0.388507
-0.388098
-0.387384
-0.386338
-0.381878
-0.382629
-0.383284
-0.383882
-0.384452
-0.385015
-0.385581
-0.386152
-0.386723
-0.387284
-0.387822
-0.388321
-0.388766
-0.389141
-0.389435
-0.389635
-0.389732
-0.389726
-0.38964
-0.389314
-0.388726
-0.381959
-0.382674
-0.383297
-0.383868
-0.384419
-0.38497
-0.385534
-0.386115
-0.38671
-0.387311
-0.387908
-0.388488
-0.389039
-0.38955
-0.39001
-0.390414
-0.390755
-0.391034
-0.391275
-0.39134
-0.391216
-0.382121
-0.382798
-0.383389
-0.383933
-0.384463
-0.385002
-0.385565
-0.386156
-0.386774
-0.387415
-0.388071
-0.388733
-0.38939
-0.390036
-0.390665
-0.391272
-0.391856
-0.392421
-0.392993
-0.393451
-0.393795
-0.38236
-0.382997
-0.383553
-0.384069
-0.384578
-0.385106
-0.385666
-0.386267
-0.38691
-0.387591
-0.388307
-0.389049
-0.389813
-0.390594
-0.391389
-0.392199
-0.393026
-0.393878
-0.394781
-0.395635
-0.396446
-0.382667
-0.383263
-0.383783
-0.38427
-0.384759
-0.385274
-0.385832
-0.386443
-0.38711
-0.387832
-0.388606
-0.389429
-0.390299
-0.391214
-0.392175
-0.393187
-0.394255
-0.395392
-0.396626
-0.397876
-0.399154
-0.383037
-0.383589
-0.384073
-0.384531
-0.384998
-0.3855
-0.386056
-0.386677
-0.387367
-0.388129
-0.388962
-0.389865
-0.39084
-0.391887
-0.393012
-0.394223
-0.39553
-0.39695
-0.398515
-0.400157
-0.401898
-0.383462
-0.383969
-0.384415
-0.384843
-0.385288
-0.385777
-0.386331
-0.38696
-0.387673
-0.388474
-0.389365
-0.390348
-0.391425
-0.392603
-0.393889
-0.395297
-0.39684
-0.39854
-0.400431
-0.402461
-0.404659
-0.383934
-0.384395
-0.384803
-0.3852
-0.385623
-0.386098
-0.386648
-0.387286
-0.388022
-0.388861
-0.389808
-0.390867
-0.392046
-0.393351
-0.394796
-0.396396
-0.398171
-0.400145
-0.402358
-0.404769
-0.407415
-0.384446
-0.38486
-0.385229
-0.385595
-0.385993
-0.386455
-0.387
-0.387646
-0.388403
-0.389279
-0.390281
-0.391415
-0.392691
-0.394121
-0.39572
-0.397508
-0.399509
-0.401751
-0.404278
-0.407062
-0.410143
-0.384991
-0.385356
-0.385685
-0.386019
-0.386393
-0.386839
-0.38738
-0.388032
-0.388809
-0.38972
-0.390774
-0.391981
-0.393352
-0.394902
-0.396651
-0.398621
-0.40084
-0.403342
-0.406176
-0.40932
-0.41282
-0.385561
-0.385877
-0.386165
-0.386465
-0.386814
-0.387244
-0.387778
-0.388435
-0.38923
-0.390174
-0.391278
-0.392554
-0.394016
-0.395682
-0.397574
-0.399719
-0.402149
-0.404902
-0.408031
-0.411523
-0.415424
-0.386149
-0.386414
-0.38666
-0.386926
-0.387249
-0.387661
-0.388188
-0.388848
-0.389659
-0.390633
-0.391784
-0.393125
-0.394673
-0.396449
-0.398478
-0.400791
-0.403422
-0.406414
-0.409826
-0.41365
-0.417932
-0.386746
-0.38696
-0.387163
-0.387394
-0.38769
-0.388083
-0.3886
-0.389262
-0.390086
-0.391087
-0.392281
-0.393683
-0.395313
-0.397193
-0.399351
-0.401822
-0.404644
-0.407864
-0.411544
-0.415683
-0.420322
-0.436367
-0.456474
-0.485555
-0.511927
-0.538585
-0.55402
-0.557759
-0.541764
-0.506683
-0.453674
-0.393154
-0.334152
-0.439396
-0.460623
-0.491102
-0.518898
-0.546768
-0.563257
-0.567612
-0.55177
-0.516021
-0.461599
-0.399148
-0.338172
-0.442219
-0.464467
-0.496265
-0.525381
-0.554393
-0.571895
-0.576877
-0.561236
-0.524892
-0.469132
-0.404815
-0.341915
-0.444813
-0.467985
-0.501019
-0.531351
-0.561435
-0.579914
-0.585533
-0.570144
-0.533282
-0.476265
-0.410154
-0.345387
-0.44716
-0.471151
-0.505342
-0.536789
-0.567877
-0.587297
-0.593565
-0.57848
-0.541179
-0.482992
-0.415169
-0.348598
-0.449245
-0.47395
-0.509213
-0.541682
-0.573706
-0.594031
-0.600958
-0.586229
-0.548575
-0.489308
-0.419859
-0.351556
-0.451
-0.476417
-0.512624
-0.546016
-0.578913
-0.60011
-0.607706
-0.593384
-0.555459
-0.49521
-0.424229
-0.354269
-0.452469
-0.478486
-0.515568
-0.549785
-0.583492
-0.605533
-0.613802
-0.599937
-0.561827
-0.500694
-0.428281
-0.356747
-0.453644
-0.480157
-0.51804
-0.552988
-0.587445
-0.610306
-0.619246
-0.605885
-0.567674
-0.50576
-0.43202
-0.358999
-0.454507
-0.48144
-0.520039
-0.55563
-0.590775
-0.614456
-0.624041
-0.611226
-0.572999
-0.510408
-0.435449
-0.361035
-0.455054
-0.482339
-0.521571
-0.557716
-0.593491
-0.618021
-0.628193
-0.615964
-0.577801
-0.514639
-0.438574
-0.362865
-0.455288
-0.482858
-0.522644
-0.559258
-0.595603
-0.620975
-0.631706
-0.620102
-0.582083
-0.518455
-0.4414
-0.364499
-0.455214
-0.483004
-0.523268
-0.560271
-0.597121
-0.622524
-0.634584
-0.623649
-0.585848
-0.52186
-0.443934
-0.365946
-0.45484
-0.482788
-0.523458
-0.560774
-0.598082
-0.624109
-0.636853
-0.626615
-0.589101
-0.524858
-0.446182
-0.367216
-0.454177
-0.482225
-0.523233
-0.560789
-0.598504
-0.625114
-0.638529
-0.629011
-0.59185
-0.527454
-0.448152
-0.368319
-0.453241
-0.481328
-0.522613
-0.560338
-0.598409
-0.625545
-0.639637
-0.630852
-0.594103
-0.529656
-0.44985
-0.369265
-0.452047
-0.480116
-0.52162
-0.559446
-0.597824
-0.625449
-0.640198
-0.632153
-0.59587
-0.531469
-0.451284
-0.370062
-0.450616
-0.478607
-0.520277
-0.558142
-0.596778
-0.62485
-0.640233
-0.632932
-0.597162
-0.532903
-0.452461
-0.37072
-0.448969
-0.476821
-0.518611
-0.556452
-0.595299
-0.623776
-0.639768
-0.633205
-0.59799
-0.533966
-0.453391
-0.371247
-0.44713
-0.474779
-0.516647
-0.554405
-0.593416
-0.622255
-0.638826
-0.632992
-0.598368
-0.534667
-0.454082
-0.371653
-0.445125
-0.472502
-0.514412
-0.552032
-0.591161
-0.620317
-0.637433
-0.632311
-0.598309
-0.535017
-0.454541
-0.371945
-0.442979
-0.470013
-0.511933
-0.54936
-0.588562
-0.61799
-0.635613
-0.631183
-0.597827
-0.535025
-0.454778
-0.37213
-0.440723
-0.467333
-0.509236
-0.54642
-0.58565
-0.615303
-0.633391
-0.629626
-0.596936
-0.534702
-0.454801
-0.372218
-0.297643
-0.438384
-0.464486
-0.506347
-0.54324
-0.582452
-0.612283
-0.630791
-0.62766
-0.595651
-0.53406
-0.454619
-0.372213
-0.29748
-0.435993
-0.461492
-0.503292
-0.539846
-0.578996
-0.608958
-0.627836
-0.625305
-0.593987
-0.533111
-0.454241
-0.372125
-0.297323
-0.43358
-0.458374
-0.500093
-0.536266
-0.575308
-0.605353
-0.624549
-0.622579
-0.591959
-0.531866
-0.453675
-0.371957
-0.297176
-0.431174
-0.455155
-0.496772
-0.532525
-0.571412
-0.601492
-0.62095
-0.619499
-0.589582
-0.530337
-0.452932
-0.371718
-0.297044
-0.428804
-0.451855
-0.493349
-0.528644
-0.567332
-0.597396
-0.617059
-0.616085
-0.586871
-0.528537
-0.452018
-0.371412
-0.296931
-0.426497
-0.448497
-0.489844
-0.524647
-0.563089
-0.593087
-0.612894
-0.612352
-0.583842
-0.526479
-0.450944
-0.371044
-0.296838
-0.424279
-0.445101
-0.486272
-0.520551
-0.558701
-0.588581
-0.608473
-0.608316
-0.580509
-0.524175
-0.449719
-0.37062
-0.296769
-0.422169
-0.44169
-0.482646
-0.516374
-0.554182
-0.583897
-0.603811
-0.603993
-0.576889
-0.521639
-0.44835
-0.370144
-0.296725
-0.420187
-0.438284
-0.478981
-0.512129
-0.549543
-0.57905
-0.598923
-0.599398
-0.572995
-0.518884
-0.446848
-0.36962
-0.296707
-0.418342
-0.434903
-0.475284
-0.507824
-0.544836
-0.574062
-0.593822
-0.594546
-0.568844
-0.515923
-0.44522
-0.369053
-0.296716
-0.416641
-0.431568
-0.471564
-0.503465
-0.540248
-0.568956
-0.588522
-0.58945
-0.564452
-0.51277
-0.443475
-0.368446
-0.296753
-0.415081
-0.428298
-0.467827
-0.499063
-0.535821
-0.563728
-0.583033
-0.584124
-0.559834
-0.509439
-0.441623
-0.367802
-0.296818
-0.413653
-0.42511
-0.464078
-0.494617
-0.529442
-0.558354
-0.577361
-0.578582
-0.555005
-0.505944
-0.43967
-0.367125
-0.29691
-0.412339
-0.42202
-0.46032
-0.490188
-0.524535
-0.552828
-0.571514
-0.572836
-0.549984
-0.502299
-0.437627
-0.366417
-0.297028
-0.41111
-0.419042
-0.456558
-0.485768
-0.519432
-0.547143
-0.565502
-0.5669
-0.544785
-0.498519
-0.435501
-0.365681
-0.297173
-0.40993
-0.416186
-0.452792
-0.481318
-0.514146
-0.541338
-0.559333
-0.56079
-0.539428
-0.494617
-0.433299
-0.364921
-0.297342
-0.235487
-0.408753
-0.413458
-0.449023
-0.47683
-0.508795
-0.535421
-0.553015
-0.55452
-0.533928
-0.490608
-0.431031
-0.364137
-0.297534
-0.236142
-0.407522
-0.41086
-0.445246
-0.472321
-0.503395
-0.529394
-0.546559
-0.548105
-0.528305
-0.486506
-0.428703
-0.36333
-0.297746
-0.23686
-0.406171
-0.408389
-0.441457
-0.467919
-0.497951
-0.523263
-0.539974
-0.541564
-0.522577
-0.482324
-0.426321
-0.362503
-0.297976
-0.237635
-0.40463
-0.406032
-0.43766
-0.463708
-0.492458
-0.517032
-0.533273
-0.534913
-0.516762
-0.478079
-0.423898
-0.361664
-0.298232
-0.238475
-0.402816
-0.403769
-0.433852
-0.458639
-0.486892
-0.510702
-0.526463
-0.528169
-0.510882
-0.473791
-0.421453
-0.36083
-0.298527
-0.239389
-0.400646
-0.40157
-0.430067
-0.454158
-0.481227
-0.504279
-0.519563
-0.521353
-0.50495
-0.469458
-0.418964
-0.359963
-0.298814
-0.24033
-0.398042
-0.399408
-0.426292
-0.449542
-0.475485
-0.497808
-0.51262
-0.5145
-0.498971
-0.465041
-0.416347
-0.358947
-0.298962
-0.241163
-0.394938
-0.397238
-0.422541
-0.444852
-0.469714
-0.4913
-0.505655
-0.507648
-0.492997
-0.460609
-0.413695
-0.357894
-0.299094
-0.242015
-0.391241
-0.394909
-0.418905
-0.439998
-0.463673
-0.484502
-0.498481
-0.500739
-0.487174
-0.456555
-0.411634
-0.357597
-0.300075
-0.243737
-0.386678
-0.3922
-0.415158
-0.434747
-0.457155
-0.477222
-0.490907
-0.493607
-0.481387
-0.452832
-0.410178
-0.35811
-0.301977
-0.246398
-0.381021
-0.389756
-0.410586
-0.430758
-0.451992
-0.471171
-0.484139
-0.486507
-0.474575
-0.446947
-0.405601
-0.354903
-0.299962
-0.245273
-0.194037
-0.367682
-0.38669
-0.409268
-0.428006
-0.44725
-0.464529
-0.475311
-0.475332
-0.461398
-0.432649
-0.391244
-0.341408
-0.287912
-0.234863
-0.18513
-0.361463
-0.379958
-0.399377
-0.414394
-0.429262
-0.442113
-0.448718
-0.4455
-0.430123
-0.402153
-0.363477
-0.317617
-0.268534
-0.219675
-0.173515
-0.355947
-0.37067
-0.38601
-0.398079
-0.409368
-0.418403
-0.421626
-0.416131
-0.400195
-0.37359
-0.337853
-0.29584
-0.250831
-0.205752
-0.162782
-0.348446
-0.359193
-0.370282
-0.379892
-0.388404
-0.394355
-0.394927
-0.38782
-0.371743
-0.346596
-0.313646
-0.275219
-0.234021
-0.19252
-0.15261
-0.338157
-0.345259
-0.353162
-0.360604
-0.366928
-0.370444
-0.368974
-0.360781
-0.344907
-0.321322
-0.291053
-0.255974
-0.218301
-0.180113
-0.143065
-0.325757
-0.330908
-0.335591
-0.341028
-0.345588
-0.347234
-0.344248
-0.335384
-0.319945
-0.297931
-0.270157
-0.238125
-0.203657
-0.168508
-0.134124
-0.311898
-0.315787
-0.318066
-0.321739
-0.324853
-0.32509
-0.321021
-0.311789
-0.296914
-0.276405
-0.250906
-0.221623
-0.190055
-0.157685
-0.125776
-0.297181
-0.300288
-0.300877
-0.303068
-0.304984
-0.304171
-0.29936
-0.289982
-0.275737
-0.256642
-0.233204
-0.206393
-0.177444
-0.147612
-0.117996
-0.282096
-0.284719
-0.284171
-0.285172
-0.286103
-0.284511
-0.279223
-0.269866
-0.256283
-0.238506
-0.216933
-0.192345
-0.165762
-0.138245
-0.110754
-0.266987
-0.269301
-0.268025
-0.268108
-0.268243
-0.26608
-0.260518
-0.251308
-0.238402
-0.22185
-0.201966
-0.179381
-0.154938
-0.129539
-0.104017
-0.252088
-0.254193
-0.252474
-0.251877
-0.251385
-0.248817
-0.243134
-0.234166
-0.221941
-0.206528
-0.18818
-0.167406
-0.144906
-0.121446
-0.0977513
-0.237549
-0.239502
-0.237537
-0.236456
-0.23549
-0.232648
-0.226961
-0.218303
-0.206757
-0.192408
-0.17546
-0.15633
-0.1356
-0.113921
-0.0919229
-0.223467
-0.225301
-0.223223
-0.221814
-0.220504
-0.217497
-0.211891
-0.203595
-0.19272
-0.179365
-0.163703
-0.146072
-0.126958
-0.106917
-0.0864982
-0.209898
-0.211637
-0.209534
-0.207919
-0.206375
-0.203289
-0.197832
-0.18993
-0.179715
-0.167294
-0.152814