/*--------------------------------*- C++ -*----------------------------------*\
  =========                 |
  \\      /  F ield         | OpenFOAM: The Open Source CFD Toolbox
   \\    /   O peration     | Website:  https://openfoam.org
    \\  /    A nd           | Version:  7
     \\/     M anipulation  |
\*---------------------------------------------------------------------------*/
FoamFile
{
    version     2.0;
    format      ascii;
    class       surfaceScalarField;
    location    "160";
    object      phi;
}
// * * * * * * * * * * * * * * * * * * * * * * * * * * * * * * * * * * * * * //

dimensions      [0 3 -1 0 0 0 0];

internalField   nonuniform List<scalar> 
13997
(
-7.53332e-06
0.000226851
-0.000223998
-1.11379e-05
0.000271338
-0.000267733
-1.55033e-05
0.000313064
-0.000308699
-2.06177e-05
0.000351969
-0.000346855
-2.6448e-05
0.00038815
-0.00038232
-3.29419e-05
0.000421856
-0.000415362
-4.00312e-05
0.000453461
-0.000446372
-4.76368e-05
0.000483437
-0.000475831
-5.56738e-05
0.000512308
-0.000504271
-6.40573e-05
0.000540615
-0.000532231
-7.27067e-05
0.000568872
-0.000560223
-8.15495e-05
0.000597542
-0.000588699
-9.05225e-05
0.000627007
-0.000618034
-9.95724e-05
0.000657554
-0.000648505
-0.000108653
0.000689372
-0.000680291
-0.000117724
0.000722542
-0.000713471
-0.000126745
0.00075704
-0.00074802
-0.000135673
0.000792738
-0.00078381
-0.000144465
0.000829403
-0.000820611
-0.000153074
0.000866689
-0.000858079
0.000904163
-0.000895768
-0.000161469
-5.9198e-06
0.000229173
-8.91721e-06
0.000274335
-1.26118e-05
0.000316759
-1.70018e-05
0.000356359
-2.20618e-05
0.00039321
-2.77445e-05
0.000427539
-3.39838e-05
0.000459701
-4.06997e-05
0.000490153
-4.78032e-05
0.000519412
-5.52019e-05
0.000548013
-6.2805e-05
0.000576475
-7.05264e-05
0.000605264
-7.82872e-05
0.000634768
-8.60157e-05
0.000665283
-9.36461e-05
0.000697003
-0.000101116
0.000730012
-0.000108364
0.000764288
-0.000115327
0.000799701
-0.000121942
0.000836018
-0.000128151
0.000872898
0.000909924
-0.000133912
-4.3105e-06
0.00023096
-6.69538e-06
0.00027672
-9.71002e-06
0.000319773
-1.33622e-05
0.000360011
-1.7634e-05
0.000397482
-2.24831e-05
0.000432388
-2.78458e-05
0.000465063
-3.3641e-05
0.000495948
-3.97755e-05
0.000525546
-4.61497e-05
0.000554387
-5.2662e-05
0.000582988
-5.92128e-05
0.000611814
-6.57069e-05
0.000641262
-7.20541e-05
0.00067163
-7.81682e-05
0.000703117
-8.39655e-05
0.000735809
-8.93627e-05
0.000769686
-9.42763e-05
0.000804614
-9.86255e-05
0.000840368
-0.000102338
0.00087661
0.00091295
-0.000105364
-2.71412e-06
0.000232215
-4.48414e-06
0.00027849
-6.81275e-06
0.000322102
-9.71689e-06
0.000362915
-1.3186e-05
0.000400951
-1.71827e-05
0.000436384
-2.16455e-05
0.000469526
-2.64924e-05
0.000500795
-3.16264e-05
0.00053068
-3.69403e-05
0.000559701
-4.23221e-05
0.000588369
-4.76585e-05
0.000617151
-5.28379e-05
0.000646441
-5.77514e-05
0.000676544
-6.22925e-05
0.000707658
-6.6356e-05
0.000739873
-6.9837e-05
0.000773167
-7.26314e-05
0.000807409
-7.46404e-05
0.000842377
-7.57796e-05
0.000877749
0.00091316
-7.59899e-05
-1.13928e-06
0.000232941
-2.29529e-06
0.000279646
-3.93515e-06
0.000323742
-6.08455e-06
0.000365065
-8.73995e-06
0.000403607
-1.18689e-05
0.000439513
-1.54121e-05
0.000473069
-1.9287e-05
0.00050467
-2.33928e-05
0.000534786
-2.76153e-05
0.000563924
-3.18318e-05
0.000592586
-3.59157e-05
0.000621235
-3.97391e-05
0.000650264
-4.31745e-05
0.000679979
-4.60951e-05
0.000710578
-4.83744e-05
0.000742152
-4.98864e-05
0.000774678
-5.05064e-05
0.000808029
-5.01179e-05
0.000841988
-4.86264e-05
0.000876258
0.000910497
-4.59635e-05
4.05481e-07
0.000233143
-1.40452e-07
0.000280192
-1.09231e-06
0.000324694
-2.48382e-06
0.000366456
-4.3182e-06
0.000405441
-6.5678e-06
0.000441763
-9.17572e-06
0.000475677
-1.20591e-05
0.000507553
-1.51134e-05
0.00053784
-1.82176e-05
0.000567028
-2.12393e-05
0.000595608
-2.40385e-05
0.000624034
-2.64714e-05
0.000652697
-2.83923e-05
0.0006819
-2.96545e-05
0.000711841
-3.01104e-05
0.000742608
-2.96131e-05
0.000774181
-2.8018e-05
0.000806434
-2.51911e-05
0.000839161
-2.10298e-05
0.000872097
0.000904947
-1.54795e-05
1.91177e-06
0.000232832
1.9687e-06
0.000280135
1.70073e-06
0.000324962
1.06655e-06
0.00036709
5.66189e-08
0.000406451
-1.30608e-06
0.000443126
-2.96711e-06
0.000477338
-4.84342e-06
0.000509429
-6.82743e-06
0.000539824
-8.79181e-06
0.000568993
-1.05945e-05
0.00059741
-1.20829e-05
0.000625522
-1.30979e-05
0.000653712
-1.34761e-05
0.000682278
-1.30512e-05
0.000711416
-1.16555e-05
0.000741213
-9.12126e-06
0.000771647
-5.28506e-06
0.000802598
3.40981e-09
0.000833873
6.87075e-06
0.000865229
0.000896496
1.53214e-05
3.3714e-06
0.000232018
4.02087e-06
0.000279486
4.42903e-06
0.000324553
4.5478e-06
0.000366972
4.36175e-06
0.000406637
3.88937e-06
0.000443598
3.18253e-06
0.000478045
2.32415e-06
0.000510288
1.42451e-06
0.000540724
6.16668e-07
0.0005698
5.16318e-08
0.000597975
-1.06222e-07
0.00062568
3.16918e-07
0.000653289
1.50158e-06
0.000681093
3.63263e-06
0.000709285
6.89754e-06
0.000737948
1.14837e-05
0.000767061
1.75735e-05
0.000796508
2.53329e-05
0.000826113
3.4885e-05
0.000855677
0.000885094
4.62874e-05
4.77645e-06
0.000230718
6.00491e-06
0.000278257
7.07791e-06
0.00032348
7.94139e-06
0.000366108
8.57453e-06
0.000406004
8.99154e-06
0.000443181
9.24168e-06
0.000477795
9.40746e-06
0.000510122
9.60132e-06
0.00054053
9.96141e-06
0.00056944
1.06468e-05
0.00059729
1.1833e-05
0.000624494
1.37076e-05
0.000651415
1.64671e-05
0.000678334
2.03143e-05
0.000705438
2.54553e-05
0.000732807
3.20964e-05
0.000760419
4.0438e-05
0.000788166
5.06608e-05
0.00081589
6.28981e-05
0.00084344
0.000870794
7.71978e-05
6.11933e-06
0.000228948
7.91009e-06
0.000276467
9.63305e-06
0.000321757
1.12291e-05
0.000364512
1.26725e-05
0.000404561
1.39735e-05
0.00044188
1.51787e-05
0.00047659
1.637e-05
0.000508931
1.76614e-05
0.000539239
1.91955e-05
0.000567906
2.11384e-05
0.000595347
2.36758e-05
0.000621957
2.7008e-05
0.000648083
3.13465e-05
0.000673995
3.69106e-05
0.000699873
4.39244e-05
0.000725793
5.26119e-05
0.000751732
6.31904e-05
0.000777588
7.58551e-05
0.000803226
9.07459e-05
0.000828549
0.00085364
0.0001079
7.39295e-06
0.000226727
9.72616e-06
0.000274134
1.20806e-05
0.000319403
1.4393e-05
0.0003622
1.66334e-05
0.00040232
1.88085e-05
0.000439705
2.09623e-05
0.000474436
2.31754e-05
0.000506718
2.55632e-05
0.000536851
2.82717e-05
0.000565198
3.14733e-05
0.000592145
3.53627e-05
0.000618067
4.01517e-05
0.000643294
4.60655e-05
0.000668082
5.33389e-05
0.0006926
6.22123e-05
0.000716919
7.29267e-05
0.000741017
8.57151e-05
0.000764799
0.000100786
0.000788155
0.000118284
0.000811051
0.000833691
0.000138233
8.59043e-06
0.000224079
1.14435e-05
0.00027128
1.44074e-05
0.000316439
1.74159e-05
0.000359191
2.04359e-05
0.0003993
2.34705e-05
0.00043667
2.65612e-05
0.000471345
2.97875e-05
0.000503491
3.32652e-05
0.000533373
3.71429e-05
0.00056132
4.15986e-05
0.00058769
4.68344e-05
0.000612832
5.30725e-05
0.000637055
6.05505e-05
0.000660604
6.95172e-05
0.000683633
8.02281e-05
0.000706209
9.29396e-05
0.000728306
0.000107899
0.00074984
0.000125327
0.000770727
0.000145373
0.000791005
0.000811021
0.000168042
9.70545e-06
1.30528e-05
0.000267933
1.66007e-05
0.000312891
2.02814e-05
0.000355511
2.4059e-05
0.000395523
2.79339e-05
0.000432795
3.19451e-05
0.000467334
3.61707e-05
0.000499266
4.07263e-05
0.000528818
4.57626e-05
0.000556284
5.14616e-05
0.000581991
5.80321e-05
0.000606261
6.5705e-05
0.000629383
7.47289e-05
0.00065158
8.5365e-05
0.000672997
9.78827e-05
0.000693691
0.000112552
0.000713636
0.000129635
0.000732758
0.00014936
0.000751002
0.000171882
0.000768484
0.000785717
0.000197186
1.45453e-05
0.00026412
1.86486e-05
0.000308788
2.29736e-05
0.000351186
2.74828e-05
0.000391014
3.21742e-05
0.000428104
3.70846e-05
0.000462423
4.22903e-05
0.00049406
4.79064e-05
0.000523201
5.40849e-05
0.000550105
6.10107e-05
0.000575065
6.88979e-05
0.000598374
7.79849e-05
0.000620296
8.85294e-05
0.000641035
0.000100804
0.000660723
0.00011509
0.000679405
0.00013167
0.000697056
0.000150817
0.00071361
0.000172771
0.000729048
0.000197687
0.000743568
0.000757876
0.000225529
1.59128e-05
0.000259872
2.05399e-05
0.000304161
2.54779e-05
0.000346248
3.06884e-05
0.000385803
3.6168e-05
0.000422624
4.19513e-05
0.00045664
4.81128e-05
0.000487899
5.47667e-05
0.000516547
6.20653e-05
0.000542807
7.01956e-05
0.000566934
7.93755e-05
0.000589194
8.98495e-05
0.000609822
0.000101883
0.000629002
0.000115758
0.000646848
0.000131767
0.000663396
0.000150203
0.00067862
0.000171349
0.000692464
0.000195455
0.000704942
0.000222675
0.000716348
0.000727602
0.000252949
1.71482e-05
0.000255222
2.22644e-05
0.000299044
2.77806e-05
0.000340731
3.36584e-05
0.000379925
3.98934e-05
0.000416389
4.65185e-05
0.000450015
5.36064e-05
0.000480811
6.12699e-05
0.000508884
6.96609e-05
0.000534416
7.89675e-05
0.000557628
8.94104e-05
0.000578751
0.000101238
0.000597994
0.000114723
0.000615517
0.000130155
0.000631416
0.000147834
0.000645717
0.000168065
0.000658389
0.000191139
0.000669389
0.000217314
0.000678767
0.000246743
0.000686919
0.000695006
0.000279339
1.82453e-05
0.000250206
2.38132e-05
0.000293477
2.98695e-05
0.000334675
3.63768e-05
0.000373418
4.33302e-05
0.000409436
5.07613e-05
0.000442584
5.87411e-05
0.000472831
6.73808e-05
0.000500244
7.68312e-05
0.000524965
8.72804e-05
0.000547179
9.89507e-05
0.000567081
0.000112094
0.000584851
0.000126986
0.000600624
0.000143925
0.000614478
0.000163217
0.000626425
0.000185176
0.00063643
0.000210103
0.000644462
0.000238259
0.000650611
0.000269798
0.00065538
0.000660201
0.000304603
1.91992e-05
0.000244862
2.51788e-05
0.000287497
3.1734e-05
0.00032812
3.88294e-05
0.000366322
4.64601e-05
0.000401805
5.4657e-05
0.000434387
6.34894e-05
0.000463999
7.30666e-05
0.000490667
8.3538e-05
0.000514494
9.50907e-05
0.000535626
0.000107947
0.000554224
0.000122362
0.000570436
0.000138613
0.000584372
0.000157003
0.000596088
0.000177847
0.000605581
0.000201464
0.000612814
0.000228162
0.000617764
0.00025821
0.000620563
0.000291761
0.00062183
0.000623298
0.000328663
2.00057e-05
0.000239229
2.6355e-05
0.000281148
3.33652e-05
0.00032111
4.10038e-05
0.000358684
4.9267e-05
0.000393542
5.81852e-05
0.000425469
6.78263e-05
0.000454357
7.82977e-05
0.000480196
8.97466e-05
0.000503045
0.000102359
0.000523014
0.000116356
0.000540227
0.000131992
0.0005548
0.000149549
0.000566815
0.000169332
0.000576305
0.00019166
0.000583253
0.000216861
0.000587613
0.00024525
0.000589375
0.000277101
0.000588712
0.000312564
0.000586366
0.000584406
0.000351457
2.06618e-05
2.73369e-05
0.000274472
3.47558e-05
0.000313691
4.28899e-05
0.00035055
5.17373e-05
0.000384695
6.13285e-05
0.000415878
7.17302e-05
0.000443956
8.30478e-05
0.000468878
9.5426e-05
0.000490667
0.000109048
0.000509391
0.000124135
0.00052514
0.00014094
0.000537996
0.000159745
0.00054801
0.000180857
0.000555192
0.000204601
0.000559508
0.00023131
0.000560905
0.000261307
0.000559378
0.000294872
0.000555146
0.000332157
0.000549082
0.000543621
0.000372941
2.81209e-05
0.000267517
3.59003e-05
0.000305911
4.44797e-05
0.00034197
5.38601e-05
0.000375314
6.40726e-05
0.000405665
7.51829e-05
0.000432845
8.72946e-05
0.000456767
0.00010055
0.000477412
0.000115129
0.000494812
0.00013125
0.000509019
0.000149165
0.00052008
0.000169157
0.000528018
0.000191534
0.000532816
0.000216623
0.000534419
0.000244763
0.000532764
0.000276287
0.000527854
0.000311483
0.000519951
0.000350502
0.000510063
0.000501033
0.00039309
2.87049e-05
0.000260327
3.67951e-05
0.000297821
4.57678e-05
0.000332997
5.56275e-05
0.000365455
6.64065e-05
0.000394886
7.81703e-05
0.000421082
9.10204e-05
0.000443916
0.000105096
0.000463336
0.000120575
0.000479333
0.000137673
0.000491922
0.000156638
0.000501115
0.000177752
0.000506904
0.000201325
0.000509244
0.000227687
0.000508057
0.000257183
0.000503268
0.000290156
0.000494882
0.000326904
0.000483203
0.000367582
0.000469384
0.000456711
0.000411904
2.90885e-05
0.000252949
3.74389e-05
0.000289471
4.67514e-05
0.000323685
5.70348e-05
0.000355171
6.83234e-05
0.000383598
8.06827e-05
0.000408722
9.42127e-05
0.000430386
0.00010905
0.000448499
0.000125369
0.000463014
0.000143381
0.000473909
0.000163333
0.000481163
0.000185505
0.000484733
0.000210205
0.000484543
0.000237769
0.000480494
0.000268547
0.000472489
0.000302895
0.000460535
0.000341124
0.000444973
0.000383401
0.000427108
0.000410706
0.000429406
2.9273e-05
3.78327e-05
0.000280911
4.74307e-05
0.000314087
5.80809e-05
0.000344521
6.98205e-05
0.000371858
8.27156e-05
0.000395827
9.68649e-05
0.000416237
0.000112403
0.000432961
0.0001295
0.000445917
0.000148364
0.000455045
0.000169238
0.000460289
0.000192401
0.00046157
0.000218161
0.000458783
0.000246857
0.000451798
0.000278849
0.000440497
0.000314504
0.00042488
0.000354156
0.000405321
0.000397984
0.00038328
0.000363045
0.000445645
3.798e-05
0.000272193
4.78088e-05
0.000304258
5.87685e-05
0.000333561
7.08997e-05
0.000359727
8.42698e-05
0.000382457
9.89766e-05
0.00040153
0.000115152
0.000416785
0.000132964
0.000428104
0.000152617
0.000435393
0.00017435
0.000438556
0.000198439
0.000437481
0.000225195
0.000432028
0.000254959
0.000422034
0.000288101
0.000407355
0.000325006
0.000387975
0.000366033
0.000364294
0.000411385
0.000337928
0.000313725
0.000460704
3.78865e-05
0.000263367
4.78923e-05
0.000294252
5.91045e-05
0.000322349
7.15681e-05
0.000347263
8.53522e-05
0.000368673
0.000100555
0.000386328
0.000117306
0.000400034
0.000135771
0.00040964
0.00015615
0.000415014
0.00017868
0.000416026
0.000203635
0.000412526
0.000231326
0.000404337
0.0002621
0.00039126
0.000296338
0.000373116
0.000334448
0.000349865
0.00037682
0.000321922
0.000423691
0.000291057
0.000262714
0.000474702
3.75611e-05
0.000254481
4.76913e-05
0.000284122
5.91002e-05
0.00031094
7.1838e-05
0.000334525
8.59765e-05
0.000354535
0.000101614
0.00037069
0.000118881
0.000382767
0.000137938
0.000390582
0.000158984
0.000393968
0.000182254
0.000392756
0.00020802
0.00038676
0.000236594
0.000375763
0.000268331
0.000359524
0.000303625
0.000337822
0.00034291
0.00031058
0.000386616
0.000278216
0.000435026
0.000242647
0.000209945
0.000487796
3.70154e-05
4.72195e-05
0.000273918
5.87716e-05
0.000299388
7.17277e-05
0.000321569
8.61632e-05
0.000340099
0.000102178
0.000354675
0.000119902
0.000365044
0.000139496
0.000370988
0.000161156
0.000372308
0.000185115
0.000368797
0.000211646
0.000360229
0.000241063
0.000346346
0.000273728
0.000326858
0.000310055
0.000301495
0.000350505
0.00027013
0.000395557
0.000233164
0.000445552
0.000192652
0.000155312
0.000500185
4.64947e-05
0.000263688
5.81395e-05
0.000287743
7.12615e-05
0.000308447
8.59406e-05
0.00032542
0.00010228
0.000338335
0.000120409
0.000346914
0.00014049
0.000350908
0.000162717
0.00035008
0.000187325
0.000344189
0.000214586
0.000332968
0.00024482
0.000316111
0.0002784
0.000293279
0.000315757
0.000264138
0.000357387
0.0002285
0.000403824
0.000186727
0.00045548
0.000140996
9.86776e-05
0.000512115
4.55387e-05
0.000253474
5.72303e-05
0.000276052
7.04704e-05
0.000295207
8.5345e-05
0.000310545
0.000101961
0.00032172
0.00012045
0.000328425
0.000140976
0.000330382
0.000163736
0.00032732
0.000188964
0.000318961
0.000216938
0.000304994
0.000247984
0.000285065
0.000282486
0.000258777
0.000320897
0.000225726
0.000363751
0.000185646
0.000411642
0.000138836
0.000465067
8.75708e-05
3.98649e-05
0.000523879
4.43776e-05
0.000243315
5.60754e-05
0.000264354
6.93922e-05
0.00028189
8.44209e-05
0.000295517
0.000101274
0.000304867
0.000120088
0.000309611
0.00014103
0.00030944
0.0001643
0.00030405
0.000190137
0.000293124
0.000218825
0.000276306
0.000250699
0.000253191
0.000286159
0.000223317
0.000325681
0.000186204
0.000369836
0.000141491
0.000419284
8.93886e-05
0.000474616
3.22388e-05
-2.13316e-05
0.000535812
4.30417e-05
5.4712e-05
0.000252684
6.80715e-05
0.000268531
8.32218e-05
0.000280366
0.000100282
0.000287806
0.000119397
0.000290496
0.000140738
0.000288099
0.000164513
0.000280276
0.000190968
0.000266669
0.000220395
0.000246879
0.000253144
0.000220443
0.000289629
0.000186832
0.000330353
0.00014548
0.000375924
9.59195e-05
0.000427068
3.82449e-05
0.000484476
-2.5169e-05
-8.51428e-05
0.000548287
5.31828e-05
0.000241067
6.656e-05
0.000255154
8.18095e-05
0.000265117
9.90604e-05
0.000270555
0.000118465
0.000271091
0.000140206
0.000266358
0.000164499
0.000255982
0.000191603
0.000239566
0.000221822
0.00021666
0.000255521
0.000186743
0.000293136
0.000149217
0.000335192
0.000103423
0.000382336
4.8776e-05
0.000435352
-1.47711e-05
0.000495032
-8.48489e-05
-0.000151815
0.000561703
5.15354e-05
0.000229519
6.49161e-05
0.000241773
8.02546e-05
0.000249778
9.76922e-05
0.000253118
0.000117394
0.00025139
0.000139553
0.000244198
0.000164401
0.000231135
0.00019221
0.000211757
0.000223303
0.000185566
0.000258063
0.000151983
0.000296948
0.000110332
0.000340509
5.98621e-05
0.000389422
-1.36294e-07
0.000444522
-6.98714e-05
0.000506693
-0.00014702
-0.000221595
0.000576473
4.98231e-05
6.32046e-05
0.000228391
7.86354e-05
0.000234348
9.62718e-05
0.000235482
0.000116294
0.000231368
0.000138912
0.00022158
0.000164374
0.000205672
0.000192973
0.000183158
0.000225054
0.000153486
0.000261022
0.000116015
0.000301358
6.99964e-05
0.000346635
1.45846e-05
0.000397552
-5.10528e-05
0.00045498
-0.000127299
0.000519876
-0.000211916
-0.00029472
0.000593001
6.14964e-05
0.000214999
7.70377e-05
0.000218806
9.4902e-05
0.000217617
0.000115288
0.000210982
0.000138427
0.000198441
0.00016459
0.000179509
0.000194094
0.000153654
0.000227308
0.000120272
0.000264665
7.86582e-05
0.000306668
2.79929e-05
0.000353911
-3.26579e-05
0.0004071
-0.000104243
0.000467123
-0.000187322
0.000534984
-0.000279776
-0.000371395
0.000611659
5.9867e-05
0.00020157
7.55534e-05
0.00020312
9.36931e-05
0.000199477
0.000114508
0.000190167
0.000138255
0.000174695
0.00016523
0.000152534
0.00019578
0.000123104
0.000230305
8.57472e-05
0.000269263
3.96993e-05
0.000313184
-1.59275e-05
0.00036267
-8.21445e-05
0.000418427
-0.00016
0.000481327
-0.000250222
0.000552385
-0.000350834
-0.000451776
0.000632765
5.83963e-05
7.42787e-05
0.000187237
9.27604e-05
0.000180996
0.00011409
0.000168837
0.000138554
0.000150231
0.000166479
0.000124608
0.000198246
9.13377e-05
0.000234286
4.97074e-05
0.000275088
-1.10277e-06
0.0003212
-6.20392e-05
0.00037323
-0.000134175
0.00043186
-0.00021863
0.000497916
-0.000316278
0.000572384
-0.000425302
-0.000535949
0.000656558
7.33128e-05
0.000171091
9.22221e-05
0.000162086
0.000114174
0.000146885
0.000139486
0.000124918
0.000168524
9.55703e-05
0.000201702
5.81604e-05
0.000239485
1.19238e-05
0.000282392
-4.40098e-05
0.000330985
-0.000110632
0.000385866
-0.000189055
0.000447675
-0.00028044
0.000517152
-0.000385754
0.000595206
-0.000503357
-0.000623915
0.000683172
7.27553e-05
9.21965e-05
0.000142645
0.000114897
0.000124185
0.000141212
9.86032e-05
0.000171545
6.52377e-05
0.000206347
2.33581e-05
0.00024612
-2.78489e-05
0.000291405
-8.92952e-05
0.000342774
-0.000162001
0.000400806
-0.000247087
0.000466079
-0.000345713
0.000539206
-0.00045888
0.000620976
-0.000585127
-0.000715568
0.000712628
9.27984e-05
0.000122551
0.000116393
0.000100591
0.000143882
7.11141e-05
0.000175709
3.3411e-05
0.000212363
-1.32967e-05
0.000254379
-6.98646e-05
0.000302317
-0.000137234
0.000356747
-0.00021643
0.00041821
-0.000308551
0.000487198
-0.000414701
0.000564153
-0.000535836
0.000649705
-0.000670679
-0.000810685
0.000744822
9.41365e-05
0.000118785
7.59422e-05
0.000147633
4.22658e-05
0.000181165
-1.20599e-07
0.000219907
-5.20385e-05
0.000264419
-0.000114377
0.000315275
-0.00018809
0.000373028
-0.000274183
0.000438165
-0.000373688
0.000511067
-0.000487602
0.000591964
-0.000616733
0.000681295
-0.00076001
-0.000908916
0.000779526
0.000122184
5.00678e-05
0.000152586
1.18638e-05
0.000188038
-3.55726e-05
0.0002291
-9.31003e-05
0.000276352
-0.000161629
0.000330369
-0.000242106
0.000391673
-0.000335487
0.000460677
-0.000442692
0.000537628
-0.000564553
0.000622506
-0.000701612
0.000715538
-0.000853041
-0.00100978
0.000816403
0.000126685
2.27882e-05
0.000158838
-2.02898e-05
0.000196424
-7.31585e-05
0.000240029
-0.000136705
0.000290244
-0.000211845
0.00034763
-0.000299493
0.000412665
-0.000400522
0.000485668
-0.000515694
0.000566732
-0.000645617
0.000655552
-0.000790432
0.000752135
-0.000949624
-0.00111267
0.000855026
0.000132359
0.00016646
-5.43908e-05
0.000206384
-0.000113082
0.000252735
-0.000183056
0.000306105
-0.000265215
0.000367028
-0.000360415
0.000435917
-0.000469411
0.00051298
-0.000592758
0.000598142
-0.000730778
0.000690795
-0.000883086
0.000790718
-0.00104955
-0.00121686
0.000894903
0.000175493
-9.06265e-05
0.000217942
-0.000155532
0.000267218
-0.000232332
0.000323896
-0.000321892
0.000388467
-0.000424987
0.000461266
-0.000542209
0.000542377
-0.000673869
0.00063154
-0.000819941
0.000727856
-0.000979402
0.000830869
-0.00115256
-0.0013215
0.00093551
0.000185949
0.000231088
-0.000200672
0.00028343
-0.000284674
0.000343521
-0.000381983
0.000411792
-0.000493258
0.000488484
-0.000618902
0.00057355
-0.000758935
0.000666541
-0.000912932
0.0007663
-0.00107916
0.000872103
-0.00125836
-0.00142577
0.000976375
0.000245772
-0.000248636
0.000301282
-0.000340183
0.000364836
-0.000445538
0.000436791
-0.000565212
0.000517281
-0.000699392
0.000606131
-0.000847784
0.000702717
-0.00100952
0.0008057
-0.00118214
0.00091385
-0.00136651
-0.00152915
0.00101723
0.000261912
0.000320644
-0.000398915
0.000387653
-0.000512547
0.000463201
-0.00064076
0.000547308
-0.000783499
0.000639682
-0.000940158
0.000739605
-0.00110944
0.000845774
-0.00128831
0.000955827
-0.00147657
-0.00163121
0.00105788
0.000341351
0.000411744
-0.00058294
0.000490717
-0.000719733
0.000578162
-0.000870945
0.000673679
-0.00103567
0.000776555
-0.00121232
0.000886017
-0.00139777
0.000999169
-0.00158972
-0.00172944
0.0010974
0.000436856
-0.000656582
0.00051901
-0.000801887
0.000609416
-0.000961351
0.000707541
-0.0011338
0.000812628
-0.0013174
0.000924221
-0.00150937
0.00104231
-0.00170781
-0.00188124
0.00119411
0.000462715
0.000547735
-0.000886906
0.00064064
-0.00105426
0.00074072
-0.00123388
0.000847072
-0.00142376
0.000959172
-0.00162147
0.00107642
-0.00182506
-0.0020152
0.00121038
0.000576556
-0.000974419
0.000671442
-0.00114914
0.000772776
-0.00133521
0.000879418
-0.0015304
0.0009904
-0.00173245
0.00110424
-0.0019389
-0.00213701
0.00122605
0.000605152
0.000701469
-0.00124546
0.000803361
-0.0014371
0.000909429
-0.00163647
0.00101827
-0.00184129
0.00112796
-0.00204859
-0.00224928
0.00124023
0.000730406
0.000832187
-0.00153889
0.00093694
-0.00174122
0.00104293
-0.00194728
0.00114805
-0.0021537
-0.0023536
0.00125236
0.000859013
-0.00163993
0.000961809
-0.00184402
0.00106443
-0.0020499
0.00116471
-0.00225398
-0.00245092
0.00126203
0.000883636
0.000983923
-0.0019443
0.00108275
-0.00214873
0.00117805
-0.00234928
-0.00254184
0.00126897
0.00100319
0.00109792
-0.00224345
0.00118816
-0.00243952
-0.00262673
0.00127305
0.00110994
0.00119509
-0.00252467
-0.0027059
0.00127426
0.00119896
-0.00260475
-0.0027796
0.00127266
0.00119987
-0.00284809
0.00126836
0.0012615
0.00266461
0.00113579
0.00106818
0.00244081
0.00259844
0.00113435
0.000984911
0.00219652
0.00105988
0.00236584
0.00252816
0.00113016
0.000969946
0.00211473
0.00104865
0.00228714
0.00245366
0.00112316
0.000867485
0.00185174
0.000952113
0.0020301
0.00103448
0.00220478
0.00237482
0.00111331
0.000757372
0.00158764
0.000844233
0.00176488
0.000931412
0.00194292
0.00101732
0.00211887
0.00229149
0.00110066
0.000730539
0.00150245
0.000818457
0.00167696
0.000907847
0.00185353
0.000997177
0.00202954
0.00220332
0.00108534
0.000616966
0.00125164
0.000701741
0.00141767
0.000790213
0.00158849
0.000881406
0.00176234
0.000974003
0.00193694
0.00210975
0.00106757
0.000508741
0.00101977
0.000587258
0.00117313
0.000671087
0.00133384
0.000759544
0.00150003
0.000852031
0.00166985
0.000947681
0.00184129
0.00200971
0.00104773
0.0004799
0.000949599
0.000556352
0.00109667
0.000638687
0.00125151
0.000726477
0.00141224
0.000819586
0.00157674
0.000917933
0.00174294
0.00190136
0.00102628
0.000382997
0.000751029
0.000450418
0.000882178
0.000524386
0.00102271
0.000604659
0.00117123
0.00069102
0.00132588
0.000783752
0.00148401
0.000884051
0.00164264
0.00178169
0.00100372
0.000356012
0.000693347
0.000420416
0.000817774
0.00049151
0.000951612
0.000569153
0.00109359
0.000653211
0.00124182
0.000743956
0.00139327
0.000843311
0.00154329
0.00164435
0.000980646
0.000274374
0.000531133
0.000328855
0.000638866
0.000390015
0.000756614
0.000457895
0.000883732
0.000532396
0.00101909
0.000613314
0.0011609
0.000700462
0.00130612
0.000791671
0.00145208
0.00156462
0.000871403
0.000205605
0.000394853
0.000250437
0.000486301
0.000301608
0.000587695
0.000359345
0.000698876
0.000423743
0.000819335
0.000494719
0.000948114
0.000571949
0.00108367
0.000654711
0.00122336
0.000741356
0.00136543
0.00148243
0.000823544
0.000184907
0.000358972
0.000226557
0.000444651
0.00027434
0.000539912
0.000328525
0.000644691
0.00038925
0.00075861
0.000456467
0.000880897
0.000529854
0.00101028
0.000608666
0.00114454
0.000692355
0.00128174
0.00140057
0.000774223
0.000131384
0.000254841
0.000164323
0.000326034
0.000202772
0.000406201
0.000247118
0.000495566
0.000297664
0.000594145
0.000354589
0.000701685
0.000417905
0.000817581
0.000487381
0.000940807
0.000562431
0.0010695
0.000642967
0.00120121
0.00131931
0.000724224
0.00011386
0.000229625
0.000143871
0.000296023
0.000179119
0.000370953
0.000220005
0.00045468
0.000266858
0.000547292
0.000319905
0.000648638
0.000379222
0.000758265
0.0004447
0.000875329
0.000515955
0.000998239
0.000593147
0.00112402
0.00123898
0.000673475
7.38742e-05
0.000152834
9.64687e-05
0.000207031
0.000123575
0.000268916
0.000155635
0.000338893
0.000193058
0.000417257
0.000236197
0.000504153
0.000285319
0.000599517
0.000340574
0.000703009
0.000401978
0.000813925
0.000469382
0.000930835
0.000543156
0.00105024
0.00116015
0.000621984
5.92233e-05
0.000136609
7.92314e-05
0.000187023
0.000103466
0.000244682
0.000132364
0.000309995
0.000166339
0.000383282
0.000205764
0.000464728
0.000250946
0.000554335
0.000302109
0.000651846
0.000359396
0.000756639
0.000422898
0.000867333
0.00049318
0.000979959
0.00108341
0.000569925
3.07629e-05
8.21159e-05
4.47144e-05
0.000122657
6.2177e-05
0.00016956
8.35808e-05
0.000223278
0.000109354
0.000284221
0.000139914
0.000352723
0.000175647
0.000428995
0.000216901
0.000513081
0.00026397
0.000604776
0.000317125
0.000703484
0.000376682
0.000807776
0.000443376
0.000913265
0.00100926
0.000517522
1.86569e-05
7.32336e-05
3.03779e-05
0.000110936
4.53421e-05
0.000154596
6.39642e-05
0.000204656
8.66634e-05
0.000261522
0.000113854
0.000325531
0.000145939
0.00039691
0.0001833
0.000475721
0.000226303
0.000561773
0.000275338
0.000654449
0.00033092
0.000752194
0.000393922
0.000850264
0.000938177
0.000465007
6.71184e-06
6.62891e-05
1.62512e-05
0.000101397
2.87711e-05
0.000142076
4.46702e-05
0.000188757
6.43564e-05
0.000241836
8.8242e-05
0.000301646
0.000116741
0.000368411
0.000150268
0.000442193
0.000189258
0.000522784
0.000234209
0.000609498
0.000285804
0.000700599
0.000345007
0.00079106
0.000870564
0.00041262
-1.0089e-05
3.32702e-05
-5.03444e-06
6.12346e-05
2.37822e-06
9.3984e-05
1.25159e-05
0.000131938
2.57603e-05
0.000175512
4.25072e-05
0.000225089
6.3166e-05
0.000280987
8.81604e-05
0.000343417
0.000117937
0.000412416
0.00015299
0.00048773
0.000193917
0.000568572
0.000241527
0.000652989
0.000296829
0.000735758
0.000806789
0.000360603
-1.97582e-05
3.18501e-05
-1.65397e-05
5.80161e-05
-1.11915e-05
8.86358e-05
-3.366e-06
0.000124113
7.30213e-06
0.000164844
2.11966e-05
0.000211195
3.87227e-05
0.000263461
6.03134e-05
0.000321826
8.64436e-05
0.000386286
0.00011766
0.000456514
0.000154641
0.000531591
0.000198283
0.000609347
0.000249582
0.00068446
0.000747174
0.000309198
-2.90454e-05
1.12072e-05
-2.92007e-05
3.20054e-05
-2.77581e-05
5.65735e-05
-2.44053e-05
8.5283e-05
-1.88127e-05
0.00011852
-1.06317e-05
0.000156663
5.09702e-07
0.000200053
1.5013e-05
0.000248958
3.33184e-05
0.000303521
5.59253e-05
0.000363679
8.34247e-05
0.000429014
0.000116554
0.000498461
0.000156254
0.000569647
0.000203452
0.000637262
0.000691989
0.000258637
-3.67021e-05
1.40069e-05
-3.83756e-05
3.36789e-05
-3.86424e-05
5.68404e-05
-3.72079e-05
8.38486e-05
-3.37604e-05
0.000115073
-2.79667e-05
0.000150869
-1.94662e-05
0.000191553
-7.86195e-06
0.000237354
7.29286e-06
0.000288366
2.65169e-05
0.000344455
5.04336e-05
0.000405097
7.98168e-05
0.000469078
0.000115607
0.000533856
0.00015861
0.000594259
0.000641465
0.000209134
-4.41125e-05
1.80971e-05
-4.72412e-05
3.68076e-05
-4.91442e-05
5.87434e-05
-4.95438e-05
8.42481e-05
-4.81449e-05
0.000113674
-4.4629e-05
0.000147354
-3.86462e-05
0.00018557
-2.9804e-05
0.000228511
-1.76517e-05
0.000276213
-1.65715e-06
0.000328461
1.88224e-05
0.000384618
4.45712e-05
0.000443329
7.64899e-05
0.000501938
0.000115216
0.000555533
0.000595792
0.000160888
-4.59181e-05
8.18942e-06
-5.12406e-05
2.34196e-05
-5.57564e-05
4.13234e-05
-5.92165e-05
6.22035e-05
-6.13591e-05
8.63907e-05
-6.19045e-05
0.000114219
-6.05481e-05
0.000145997
-5.69499e-05
0.000181972
-5.07227e-05
0.000222284
-4.14144e-05
0.000266905
-2.8487e-05
0.000315533
-1.12929e-05
0.000367424
1.09354e-05
0.000421101
3.90369e-05
0.000473836
7.34144e-05
0.000521155
0.000555126
0.000114081
-5.15604e-05
1.5116e-05
-5.80521e-05
2.99113e-05
-6.38817e-05
4.71531e-05
-6.88143e-05
6.71361e-05
-7.26027e-05
9.01791e-05
-7.49818e-05
0.000116598
-7.56594e-05
0.000146675
-7.43054e-05
0.000180618
-7.05386e-05
0.000218517
-6.39096e-05
0.000260276
-5.38821e-05
0.000305506
-3.98185e-05
0.00035336
-2.10006e-05
0.000402283
3.22993e-06
0.000449606
3.34179e-05
0.000490968
0.000519706
6.88383e-05
-5.69207e-05
2.30221e-05
-6.45144e-05
3.7505e-05
-7.15803e-05
5.42189e-05
-7.78961e-05
7.34519e-05
-8.32286e-05
9.55115e-05
-8.73255e-05
0.000120695
-8.99064e-05
0.000149256
-9.06512e-05
0.000181363
-8.91863e-05
0.000217052
-8.50693e-05
0.000256159
-7.77745e-05
0.000298211
-6.66893e-05
0.000342275
-5.1146e-05
0.00038674
-3.04636e-05
0.000428923
-4.10599e-06
0.00046461
0.000490702
2.48982e-05
-5.3148e-05
1.93485e-05
-6.19725e-05
3.18466e-05
-7.05977e-05
4.61302e-05
-7.88187e-05
6.24399e-05
-8.64252e-05
8.10585e-05
-9.31963e-05
0.000102283
-9.88917e-05
0.000126391
-0.000103242