/*--------------------------------*- C++ -*----------------------------------*\
  =========                 |
  \\      /  F ield         | OpenFOAM: The Open Source CFD Toolbox
   \\    /   O peration     | Website:  https://openfoam.org
    \\  /    A nd           | Version:  7
     \\/     M anipulation  |
\*---------------------------------------------------------------------------*/
FoamFile
{
    version     2.0;
    format      ascii;
    class       volScalarField;
    location    "40";
    object      p;
}
// * * * * * * * * * * * * * * * * * * * * * * * * * * * * * * * * * * * * * //

dimensions      [0 2 -2 0 0 0 0];

internalField   nonuniform List<scalar> 
20050
(
-0.17819
-0.179624
-0.180404
-0.181055
-0.181608
-0.182078
-0.182495
-0.182875
-0.183226
-0.183553
-0.183856
-0.184138
-0.184404
-0.184659
-0.184908
-0.178268
-0.179694
-0.18047
-0.181118
-0.181667
-0.182133
-0.182547
-0.182923
-0.18327
-0.183592
-0.18389
-0.184167
-0.184429
-0.184678
-0.184919
-0.178427
-0.17984
-0.180608
-0.181248
-0.181789
-0.182249
-0.182655
-0.183024
-0.183363
-0.183676
-0.183966
-0.184233
-0.184486
-0.184725
-0.184949
-0.178668
-0.180059
-0.180815
-0.181444
-0.181975
-0.182423
-0.182818
-0.183176
-0.183503
-0.183804
-0.184081
-0.184334
-0.184573
-0.184797
-0.184997
-0.178987
-0.180352
-0.181092
-0.181706
-0.182221
-0.182655
-0.183036
-0.183378
-0.18369
-0.183974
-0.184232
-0.184467
-0.184688
-0.184892
-0.185059
-0.179383
-0.180714
-0.181435
-0.18203
-0.182528
-0.182943
-0.183305
-0.183628
-0.18392
-0.184183
-0.184419
-0.184629
-0.184827
-0.185006
-0.185131
-0.179853
-0.181146
-0.181843
-0.182417
-0.182892
-0.183285
-0.183624
-0.183924
-0.184191
-0.184428
-0.184636
-0.184816
-0.184986
-0.185134
-0.185207
-0.180394
-0.181644
-0.182315
-0.182862
-0.183311
-0.183678
-0.183991
-0.184263
-0.184501
-0.184707
-0.184881
-0.185025
-0.18516
-0.185272
-0.185281
-0.181004
-0.182205
-0.182846
-0.183364
-0.183784
-0.184121
-0.184402
-0.184641
-0.184845
-0.185015
-0.18515
-0.185251
-0.185345
-0.185414
-0.185344
-0.181679
-0.182828
-0.183436
-0.183921
-0.184306
-0.184609
-0.184855
-0.185057
-0.185221
-0.185349
-0.185438
-0.18549
-0.185534
-0.185555
-0.185388
-0.182416
-0.183508
-0.18408
-0.184529
-0.184877
-0.185141
-0.185346
-0.185506
-0.185626
-0.185705
-0.185742
-0.185735
-0.185721
-0.185689
-0.185402
-0.18321
-0.184245
-0.184778
-0.185186
-0.185493
-0.185713
-0.185873
-0.185986
-0.186055
-0.18608
-0.186057
-0.185984
-0.185901
-0.18581
-0.185372
-0.184061
-0.185034
-0.185526
-0.18589
-0.186151
-0.186324
-0.186434
-0.186494
-0.186507
-0.186471
-0.18638
-0.186231
-0.186068
-0.185915
-0.185283
-0.184963
-0.185874
-0.186321
-0.186639
-0.186849
-0.186969
-0.187024
-0.187026
-0.186978
-0.186874
-0.186709
-0.186474
-0.186216
-0.185999
-0.185105
-0.185916
-0.186763
-0.187163
-0.18743
-0.187586
-0.187648
-0.187643
-0.187581
-0.187465
-0.187288
-0.18704
-0.186709
-0.186343
-0.186076
-0.184794
-0.186917
-0.187699
-0.18805
-0.188262
-0.188358
-0.188358
-0.188287
-0.188157
-0.187967
-0.18771
-0.187373
-0.186935
-0.186445
-0.186163
-0.184403
-0.187965
-0.188681
-0.18898
-0.189133
-0.189165
-0.189097
-0.188955
-0.18875
-0.188482
-0.188139
-0.187706
-0.187152
-0.186508
-0.186087
-0.184087
-0.18906
-0.18971
-0.189952
-0.190043
-0.190006
-0.189864
-0.189645
-0.189361
-0.189009
-0.188576
-0.188039
-0.187362
-0.186581
-0.185963
-0.183624
-0.190201
-0.190784
-0.190968
-0.190991
-0.190879
-0.190658
-0.190357
-0.189987
-0.189547
-0.189019
-0.188375
-0.187565
-0.186627
-0.18584
-0.182994
-0.191391
-0.191905
-0.192028
-0.191978
-0.191786
-0.191479
-0.191088
-0.190628
-0.190095
-0.189468
-0.188713
-0.187765
-0.186648
-0.185707
-0.182209
-0.19263
-0.193076
-0.193132
-0.193004
-0.192725
-0.192325
-0.19184
-0.191284
-0.190653
-0.189924
-0.189056
-0.187967
-0.186656
-0.185567
-0.181266
-0.193922
-0.194298
-0.194284
-0.194072
-0.193698
-0.193199
-0.192611
-0.191953
-0.191221
-0.190387
-0.189405
-0.188174
-0.186656
-0.185431
-0.180171
-0.195272
-0.195575
-0.195486
-0.195183
-0.194707
-0.1941
-0.193403
-0.192637
-0.191797
-0.190856
-0.189759
-0.188388
-0.186656
-0.185309
-0.17894
-0.196685
-0.196912
-0.196742
-0.196341
-0.195755
-0.195032
-0.194217
-0.193335
-0.192384
-0.191331
-0.19012
-0.18861
-0.186662
-0.185205
-0.177603
-0.198167
-0.198315
-0.198057
-0.197549
-0.196844
-0.195996
-0.195055
-0.194049
-0.19298
-0.191813
-0.190487
-0.188841
-0.186683
-0.185111
-0.176212
-0.199727
-0.19979
-0.199438
-0.198814
-0.19798
-0.196997
-0.19592
-0.194782
-0.193587
-0.192301
-0.190858
-0.189077
-0.186727
-0.185009
-0.174853
-0.201374
-0.201346
-0.200891
-0.200142
-0.199168
-0.198039
-0.196816
-0.195538
-0.194209
-0.192798
-0.191236
-0.189316
-0.186809
-0.184865
-0.173646
-0.203118
-0.202992
-0.202423
-0.201539
-0.200415
-0.199129
-0.197751
-0.196322
-0.194851
-0.193307
-0.191624
-0.189556
-0.186948
-0.184602
-0.172655
-0.204972
-0.204736
-0.204046
-0.203014
-0.201728
-0.200275
-0.19873
-0.197141
-0.195521
-0.193838
-0.19203
-0.189809
-0.187182
-0.184095
-0.171768
-0.206949
-0.206591
-0.205768
-0.204577
-0.203118
-0.201486
-0.199765
-0.198006
-0.196227
-0.194399
-0.192467
-0.190105
-0.1876
-0.183401
-0.171481
-0.209063
-0.208568
-0.2076
-0.206238
-0.204593
-0.202773
-0.200865
-0.198928
-0.196982
-0.195002
-0.192947
-0.190468
-0.188246
-0.183146
-0.17556
-0.21133
-0.210681
-0.209555
-0.208008
-0.206167
-0.204146
-0.202043
-0.199919
-0.197799
-0.195658
-0.193475
-0.190881
-0.188929
-0.18371
-0.18915
-0.213763
-0.212942
-0.211644
-0.2099
-0.20785
-0.20562
-0.203312
-0.200994
-0.198691
-0.19638
-0.194053
-0.191328
-0.189506
-0.184157
-0.191231
-0.216381
-0.215367
-0.213882
-0.211927
-0.209656
-0.207207
-0.204687
-0.202167
-0.199673
-0.197178
-0.194683
-0.191798
-0.189884
-0.184401
-0.190603
-0.219199
-0.217968
-0.21628
-0.214102
-0.2116
-0.208923
-0.206183
-0.203453
-0.200758
-0.198063
-0.195368
-0.192286
-0.190101
-0.184512
-0.189248
-0.222234
-0.22076
-0.218854
-0.216438
-0.213694
-0.210781
-0.207815
-0.204867
-0.201957
-0.199042
-0.196111
-0.192782
-0.19019
-0.184461
-0.187348
-0.225502
-0.223758
-0.221617
-0.21895
-0.215953
-0.212796
-0.209596
-0.206421
-0.203281
-0.200121
-0.196908
-0.193275
-0.190166
-0.184224
-0.185157
-0.229017
-0.226974
-0.224582
-0.221651
-0.218392
-0.214984
-0.211541
-0.208126
-0.204737
-0.201299
-0.197754
-0.19375
-0.190039
-0.1838
-0.182857
-0.232795
-0.230423
-0.227763
-0.224555
-0.221024
-0.217356
-0.213662
-0.209992
-0.206328
-0.202572
-0.198639
-0.194194
-0.189817
-0.183195
-0.180547
-0.236848
-0.234115
-0.231171
-0.227676
-0.223863
-0.219927
-0.21597
-0.212026
-0.208053
-0.203933
-0.199551
-0.194593
-0.1895
-0.182419
-0.178268
-0.241187
-0.238063
-0.23482
-0.231024
-0.226922
-0.222708
-0.218472
-0.214229
-0.209909
-0.205369
-0.200472
-0.19493
-0.189084
-0.18148
-0.176026
-0.245822
-0.242275
-0.238719
-0.234612
-0.230211
-0.225708
-0.221175
-0.2166
-0.211885
-0.206863
-0.201381
-0.195187
-0.188561
-0.180387
-0.173808
-0.250761
-0.246761
-0.242877
-0.23845
-0.23374
-0.228934
-0.22408
-0.219134
-0.213968
-0.208394
-0.202257
-0.195348
-0.187922
-0.179143
-0.17159
-0.256008
-0.251526
-0.247303
-0.242546
-0.237517
-0.232391
-0.227185
-0.22182
-0.216137
-0.209938
-0.203073
-0.195393
-0.187154
-0.17775
-0.169344
-0.261565
-0.256574
-0.252001
-0.246907
-0.241547
-0.236079
-0.230483
-0.224641
-0.218369
-0.211464
-0.203804
-0.195305
-0.186246
-0.176208
-0.167044
-0.267431
-0.261906
-0.256974
-0.251534
-0.245829
-0.239992
-0.233959
-0.227575
-0.220632
-0.212942
-0.204421
-0.195067
-0.185185
-0.174512
-0.164663
-0.273601
-0.267519
-0.262222
-0.256428
-0.25036
-0.24412
-0.237595
-0.230592
-0.222893
-0.214337
-0.2049
-0.19466
-0.183961
-0.172656
-0.16218
-0.280064
-0.273408
-0.26774
-0.261583
-0.255132
-0.248446
-0.241363
-0.233657
-0.225113
-0.215616
-0.205212
-0.194068
-0.18256
-0.170635
-0.159573
-0.286807
-0.279561
-0.273519
-0.26699
-0.260129
-0.252948
-0.245231
-0.236731
-0.227252
-0.216742
-0.205333
-0.193275
-0.180971
-0.168439
-0.156824
-0.293809
-0.285963
-0.279546
-0.272633
-0.265328
-0.257592
-0.249158
-0.239767
-0.229265
-0.217681
-0.205239
-0.192265
-0.179182
-0.166059
-0.153916
-0.301046
-0.292594
-0.2858
-0.278488
-0.270702
-0.262342
-0.253098
-0.242718
-0.231109
-0.218399
-0.204905
-0.191023
-0.17718
-0.163484
-0.150833
-0.308485
-0.299426
-0.292256
-0.284527
-0.276212
-0.26715
-0.256998
-0.24553
-0.232739
-0.218863
-0.204311
-0.189532
-0.174952
-0.160703
-0.147562
-0.316088
-0.306427
-0.298881
-0.290713
-0.281813
-0.271963
-0.2608
-0.24815
-0.234111
-0.219041
-0.203432
-0.187777
-0.172484
-0.157702
-0.144088
-0.32381
-0.313557
-0.305634
-0.297
-0.287453
-0.276722
-0.264443
-0.250522
-0.235183
-0.218903
-0.202249
-0.18574
-0.169762
-0.154469
-0.140397
-0.3316
-0.320769
-0.312468
-0.303336
-0.293071
-0.281359
-0.267863
-0.252592
-0.235913
-0.218418
-0.200739
-0.183406
-0.166771
-0.15099
-0.136477
-0.339398
-0.328009
-0.319328
-0.309659
-0.298599
-0.285805
-0.270994
-0.254306
-0.23626
-0.217559
-0.198882
-0.180757
-0.163496
-0.147252
-0.132314
-0.347139
-0.335218
-0.326152
-0.315901
-0.303963
-0.289985
-0.273768
-0.25561
-0.236186
-0.216298
-0.196657
-0.177775
-0.159921
-0.143239
-0.127895
-0.354751
-0.342327
-0.332869
-0.321988
-0.309084
-0.293822
-0.27612
-0.256454
-0.235655
-0.214609
-0.194043
-0.174442
-0.156029
-0.138936
-0.123208
-0.362156
-0.349263
-0.339404
-0.327836
-0.313878
-0.297237
-0.277984
-0.256789
-0.234631
-0.212465
-0.191019
-0.170741
-0.151806
-0.134331
-0.11824
-0.36927
-0.355946
-0.345673
-0.333361
-0.318258
-0.300154
-0.279299
-0.256569
-0.233081
-0.209842
-0.187565
-0.166654
-0.147235
-0.129409
-0.11298
-0.376006
-0.362291
-0.351588
-0.338471
-0.322138
-0.302494
-0.280005
-0.25575
-0.230974
-0.206716
-0.183661
-0.162163
-0.142301
-0.124155
-0.107417
-0.38227
-0.368209
-0.357059
-0.343073
-0.325429
-0.304185
-0.280044
-0.254291
-0.22828
-0.203063
-0.179287
-0.157251
-0.136989
-0.118558
-0.10154
-0.38797
-0.373607
-0.361989
-0.347072
-0.328044
-0.305155
-0.279363
-0.252155
-0.224971
-0.198861
-0.174424
-0.151902
-0.131285
-0.112604
-0.09534
-0.393007
-0.37839
-0.366282
-0.350373
-0.329898
-0.305337
-0.277915
-0.249306
-0.221021
-0.194089
-0.169055
-0.146099
-0.125175
-0.106283
-0.0888084
-0.397284
-0.38246
-0.369839
-0.352883
-0.330911
-0.304667
-0.275652
-0.245713
-0.216406
-0.188728
-0.163162
-0.13983
-0.118646
-0.0995836
-0.0819373
-0.400704
-0.385721
-0.372565
-0.354511
-0.331007
-0.30309
-0.272536
-0.241348
-0.211105
-0.18276
-0.156731
-0.133079
-0.111688
-0.0924968
-0.07472
-0.403171
-0.388078
-0.374364
-0.35517
-0.330115
-0.300552
-0.268531
-0.236183
-0.205098
-0.176169
-0.149747
-0.125837
-0.104291
-0.0850143
-0.0671501
-0.404594
-0.389438
-0.375146
-0.354779
-0.328171
-0.297008
-0.263604
-0.230199
-0.198367
-0.16894
-0.142198
-0.118091
-0.096445
-0.0771298
-0.0592235
-0.404884
-0.389712
-0.374825
-0.353263
-0.325116
-0.292418
-0.257729
-0.223374
-0.190899
-0.161062
-0.134074
-0.109834
-0.0881439
-0.0688391
-0.0509409
-0.403956
-0.388814
-0.373319
-0.350554
-0.320901
-0.286749
-0.250885
-0.215696
-0.182682
-0.152524
-0.125366
-0.101057
-0.0793807
-0.0601396
-0.0423071
-0.401735
-0.386667
-0.370555
-0.346591
-0.315483
-0.279973
-0.243055
-0.207151
-0.173706
-0.143319
-0.116068
-0.0917559
-0.0701498
-0.0510261
-0.0333118
-0.398148
-0.383199
-0.366468
-0.341322
-0.308826
-0.272069
-0.234225
-0.197733
-0.163966
-0.133443
-0.106177
-0.081928
-0.0604506
-0.0414891
-0.0238962
-0.393135
-0.378346
-0.361
-0.334705
-0.300904
-0.263022
-0.22439
-0.187437
-0.15346
-0.122895
-0.0956935
-0.0715752
-0.0502891
-0.0315249
-0.0139747
-0.38664
-0.372053
-0.354104
-0.326705
-0.291699
-0.252826
-0.213546
-0.176264
-0.142189
-0.111676
-0.0846181
-0.0607009
-0.0396707
-0.0211501
-0.00360842
-0.37862
-0.364274
-0.345741
-0.317299
-0.281198
-0.241477
-0.201697
-0.164217
-0.130157
-0.0997903
-0.0729558
-0.049309
-0.0285935
-0.0103638
0.00689052
-0.369039
-0.354973
-0.335883
-0.30647
-0.2694
-0.228981
-0.188849
-0.151304
-0.11737
-0.0872449
-0.0607139
-0.0374093
-0.0170843
0.000842754
0.0176637
-0.357871
-0.344123
-0.324513
-0.294214
-0.256308
-0.215348
-0.175014
-0.137537
-0.103841
-0.0740501
-0.0479045
-0.0250187
-0.00513127
0.0124227
0.0287672
-0.345103
-0.331709
-0.311622
-0.280534
-0.241935
-0.200593
-0.16021
-0.122931
-0.089583
-0.0602205
-0.0345413
-0.0121418
0.00724798
0.0243653
0.040204
-0.330729
-0.317726
-0.297213
-0.265442
-0.226301
-0.184739
-0.144458
-0.107505
-0.0746149
-0.0457737
-0.0206375
0.00120656
0.0200381
0.0366624
0.0519603
-0.314756
-0.302178
-0.281299
-0.248959
-0.209431
-0.167814
-0.127784
-0.0912844
-0.0589592
-0.0307269
-0.00621195
0.0150089
0.0332225
0.0493024
0.0640185
-0.297199
-0.285081
-0.2639
-0.231113
-0.191358
-0.149852
-0.110217
-0.0742961
-0.042638
-0.0151032
0.0087145
0.0292453
0.0467833
0.0622701
0.0763594
-0.278086
-0.26646
-0.24505
-0.211944
-0.172124
-0.13089
-0.091793
-0.0565699
-0.0256796
0.00107195
0.0241182
0.0438937
0.0607002
0.0755469
0.0889626
-0.257452
-0.246351
-0.224788
-0.1915
-0.151787
-0.110955
-0.0725464
-0.0381399
-0.00811507
0.0177703
0.0399731
0.0589295
0.0749509
0.0891115
0.101805
-0.235343
-0.224796
-0.203163
-0.169844
-0.130403
-0.0900854
-0.0525172
-0.019044
0.0100214
0.034961
0.0562507
0.0743262
0.0895109
0.10294
0.114861
-0.21181
-0.20185
-0.180239
-0.147026
-0.107938
-0.0684048
-0.03176
0.000677009
0.0286933
0.0526108
0.0729204
0.0900549
0.104354
0.117007
0.128102
-0.186912
-0.177581
-0.156095
-0.123072
-0.0845393
-0.0459113
-0.0103228
0.0209785
0.0478612
0.0706842
0.0899495
0.106085
0.119452
0.131282
0.141487
-0.160717
-0.152064
-0.130804
-0.0980276
-0.0602786
-0.0226697
0.0117423
0.0418135
0.0674834
0.0891437
0.107304
0.122386
0.134775
0.145732
0.154968
-0.133301
-0.125388
-0.104314
-0.0720975
-0.0352096
0.00125485
0.03438
0.0631325
0.0875159
0.10795
0.124948
0.138924
0.150294
0.160327
0.1685
-0.104742
-0.0976639
-0.0767629
-0.0452965
-0.00940611
0.0257941
0.0575318
0.0848838
0.107913
0.127063
0.142844
0.155663
0.165984
0.175049
0.182053
-0.0751022
-0.068863
-0.048412
-0.0177062
0.0170552
0.0508784
0.0811367
0.107013
0.128626
0.146439
0.160954
0.172572
0.181826
0.189878
0.195517
-0.0445181
-0.0392038
-0.0192511
0.0105846
0.0440945
0.0764362
0.105131
0.129465
0.149606
0.166034
0.179238
0.189627
0.197823
0.20474
0.208502
-0.0132314
-0.00865151
0.0106389
0.0394833
0.0716291
0.102394
0.12945
0.152181
0.170802
0.185803
0.19766
0.206819
0.21398
0.219488
0.220566
0.0187879
0.02261
0.0411547
0.0688959
0.0995737
0.128675
0.154025
0.1751
0.192158
0.205696
0.216185
0.22413
0.230241
0.234009
0.232403
0.0514383
0.0544552
0.0721906
0.0987262
0.127841
0.155203
0.178787
0.198161
0.21362
0.225664
0.234771
0.241504
0.246444
0.248226
0.247004
0.0845971
0.0867757
0.103639
0.128875
0.156342
0.181899
0.203667
0.221301
0.235129
0.245656
0.253368
0.258853
0.26253
0.262915
0.262197
0.118143
0.119459
0.135389
0.159243
0.184988
0.208681
0.228592
0.244455
0.256627
0.265619
0.271924
0.276127
0.278526
0.277782
0.276913
0.151955
0.152389
0.167329
0.189727
0.213686
0.235469
0.253491
0.267559
0.278057
0.285501
0.290387
0.293286
0.294427
0.292665
0.291316
0.185913
0.18545
0.199349
0.220226
0.242346
0.262183
0.27829
0.290546
0.299359
0.305247
0.308705
0.310288
0.310188
0.307427
0.305405
0.219893
0.218525
0.231335
0.250637
0.270877
0.28874
0.302917
0.313353
0.320475
0.324803
0.32683
0.327093
0.325763
0.321997
0.319182
0.253775
0.251494
0.263177
0.280861
0.299188
0.31506
0.327299
0.335913
0.341345
0.344115
0.344713
0.343657
0.341105
0.336326
0.332642
0.287436
0.284241
0.294763
0.310794
0.327189
0.341062
0.351366
0.358162
0.361912
0.363132
0.362307
0.359938
0.356174
0.350376
0.345777
0.320755
0.316648
0.325984
0.340339
0.35479
0.366668
0.375044
0.380037
0.382117
0.381801
0.379565
0.375894
0.37093
0.364114
0.35857
0.353612
0.348598
0.356732
0.369396
0.381904
0.391797
0.398266
0.401474
0.401906
0.400071
0.396442
0.391486
0.385336
0.377511
0.371006
0.38589
0.379979
0.386898
0.39787
0.408445
0.416375
0.420961
0.422412
0.421221
0.417894
0.412893
0.406672
0.399358
0.390537
0.383064
0.417474
0.410678
0.416381
0.425665
0.434328
0.440325
0.443062
0.44279
0.440009
0.43522
0.428876
0.421415
0.412961
0.403165
0.394724
0.44825
0.440586
0.445076
0.452691
0.459472
0.463574
0.464504
0.46255
0.458217
0.452001
0.444348
0.435678
0.426113
0.415365
0.405966
0.478108
0.469596
0.472888
0.478858
0.483797
0.486051
0.485223
0.481634
0.475794
0.468193
0.459268
0.449424
0.438783
0.427111
0.416767
0.506942
0.497606
0.499719
0.50408
0.507226
0.507688
0.505157
0.499987
0.49269
0.483751
0.473596
0.462618
0.450938
0.438374
0.427106
0.53465
0.524517
0.525478
0.528274
0.529686
0.528418
0.524247
0.517556
0.508858
0.498632
0.487296
0.475226
0.462549
0.449129
0.43696
0.561132
0.550234
0.550077
0.551362
0.551104
0.548177
0.542437
0.53429
0.524252
0.512795
0.500328
0.487216
0.473587
0.45935
0.44631
0.586296
0.574667
0.573433
0.573268
0.571414
0.566906
0.559671
0.55014
0.538828
0.526201
0.51266
0.498556
0.484024
0.469011
0.455135
0.610052
0.597729
0.595466
0.59392
0.590552
0.584548
0.5759
0.56506
0.552544
0.538812
0.524257
0.509217
0.493834
0.478088
0.463416
0.632316
0.61934
0.616101
0.613252
0.608459
0.601047
0.591074
0.579007
0.565362
0.550595
0.535088
0.519171
0.502991
0.48656
0.471134
0.65301
0.639424
0.63527
0.6312
0.625076
0.616355
0.605147
0.591939
0.577245
0.561515
0.545125
0.528392
0.511472
0.494404
0.478272
0.672062
0.657912
0.652907
0.647706
0.640354
0.630424
0.618079
0.60382
0.58816
0.571542
0.554338
0.536855
0.519255
0.501601
0.484814
0.689403
0.674738
0.668954
0.662717
0.654243
0.643211
0.62983
0.614614
0.598074
0.580649
0.562704
0.544537
0.526319
0.508132
0.490745
0.704973
0.689845
0.683355
0.676185
0.6667
0.654677
0.640366
0.624289
0.606959
0.58881
0.570199
0.551419
0.532646
0.513981
0.496052
0.718719
0.70318
0.696063
0.688065
0.677686
0.664788
0.649655
0.632819
0.61479
0.596001
0.576803
0.557481
0.538219
0.519133
0.500722
0.730591
0.714696
0.707036
0.69832
0.687167
0.673512
0.657668
0.640176
0.621545
0.602204
0.582498
0.562708
0.543024
0.523573
0.504745
0.740548
0.724354
0.716236
0.706917
0.695114
0.680823
0.664383
0.646341
0.627204
0.607399
0.587268
0.567086
0.547047
0.527292
0.508111
0.748555
0.732121
0.723633
0.713828
0.701501
0.686699
0.669779
0.651294
0.631751
0.611573
0.591099
0.570602
0.550279
0.530278
0.510813
0.754585
0.737969
0.729202
0.71903
0.706308
0.691121
0.67384
0.655021
0.635172
0.614713
0.593982
0.573247
0.55271
0.532524
0.512845
0.758616
0.741879
0.732925
0.722507
0.709521
0.694076
0.676554
0.657512
0.637458
0.616811
0.595908
0.575014
0.554334
0.534025
0.514202
0.760634
0.743836
0.734789
0.724247
0.71113
0.695556
0.677912
0.658759
0.638602
0.617861
0.596872
0.575899
0.555147
0.534776
0.514881
0.760633
0.743835
0.734787
0.724246
0.711128
0.695554
0.677911
0.658758
0.638601
0.617861
0.596871
0.575898
0.555146
0.534775
0.514881
0.758612
0.741875
0.732921
0.722503
0.709518
0.694073
0.676551
0.657509
0.637455
0.616809
0.595906
0.575012
0.554332
0.534023
0.5142
0.754578
0.737963
0.729196
0.719024
0.706302
0.691115
0.673835
0.655016
0.635167
0.614709
0.593978
0.573243
0.552707
0.532521
0.512842
0.748546
0.732112
0.723624
0.713819
0.701493
0.686691
0.669772
0.651287
0.631744
0.611566
0.591094
0.570597
0.550274
0.530273
0.510809
0.740535
0.724342
0.716224
0.706906
0.695103
0.680813
0.664374
0.646332
0.627196
0.607391
0.58726
0.567079
0.547041
0.527285
0.508105
0.730576
0.714681
0.707022
0.698307
0.687155
0.6735
0.657657
0.640165
0.621535
0.602194
0.582489
0.5627
0.543016
0.523566
0.504737
0.718701
0.703162
0.696046
0.688049
0.677671
0.664774
0.649641
0.632806
0.614778
0.59599
0.576793
0.557471
0.538209
0.519124
0.500713
0.704953
0.689824
0.683336
0.676166
0.666682
0.654661
0.640351
0.624275
0.606945
0.588797
0.570187
0.551407
0.532635
0.513971
0.496042
0.689379
0.674715
0.668931
0.662696
0.654223
0.643192
0.629813
0.614597
0.598058
0.580634
0.56269
0.544524
0.526306
0.50812
0.490734
0.672035
0.657886
0.652883
0.647682
0.640331
0.630403
0.618059
0.603801
0.588142
0.571526
0.554322
0.536839
0.51924
0.501587
0.484801
0.652981
0.639395
0.635243
0.631173
0.625052
0.616332
0.605125
0.591918
0.577226
0.561496
0.545107
0.528375
0.511456
0.494389
0.478258
0.632284
0.619308
0.616071
0.613223
0.608431
0.601022
0.59105
0.578984
0.565341
0.550574
0.535069
0.519153
0.502974
0.486543
0.471119
0.610017
0.597694
0.595433
0.593889
0.590523
0.58452
0.575874
0.565035
0.552521
0.53879
0.524236
0.509197
0.493815
0.47807
0.463399
0.586258
0.574629
0.573397
0.573234
0.571382
0.566876
0.559643
0.550113
0.538802
0.526177
0.512637
0.498534
0.484004
0.468991
0.455117
0.561092
0.550194
0.550038
0.551326
0.55107
0.548145
0.542406
0.534261
0.524225
0.512769
0.500304
0.487192
0.473565
0.459329
0.446291
0.534606
0.524474
0.525436
0.528235
0.529649
0.528383
0.524214
0.517525
0.508829
0.498604
0.487269
0.475201
0.462525
0.449107
0.436939
0.506896
0.49756
0.499674
0.504038
0.507187
0.507651
0.505122
0.499954
0.492659
0.483722
0.473569
0.462591
0.450913
0.43835
0.427083
0.478058
0.469547
0.472841
0.478813
0.483755
0.486012
0.485185
0.481599
0.475761
0.468162
0.459238
0.449396
0.438756
0.427085
0.416743
0.448197
0.440534
0.445027
0.452643
0.459428
0.463532
0.464464
0.462513
0.458182
0.451968
0.444316
0.435648
0.426085
0.415338
0.405941
0.417418
0.410623
0.416328
0.425615
0.434281
0.44028
0.44302
0.442751
0.439972
0.435184
0.428843
0.421384
0.412931
0.403136
0.394698
0.385832
0.379921
0.386843
0.397817
0.408395
0.416328
0.420917
0.42237
0.421182
0.417857
0.412858
0.406639
0.399326
0.390507
0.383036
0.35355
0.348537
0.356673
0.36934
0.381852
0.391748
0.398219
0.40143
0.401864
0.400032
0.396405
0.391451
0.385303
0.377479
0.370976
0.32069
0.316583
0.325923
0.34028
0.354735
0.366616
0.374996
0.379991
0.382074
0.38176
0.379526
0.375858
0.370895
0.364081
0.358539
0.287368
0.284174
0.294699
0.310733
0.327131
0.341008
0.351314
0.358114
0.361866
0.363089
0.362266
0.359899
0.356137
0.350341
0.345744
0.253704
0.251424
0.263109
0.280796
0.299127
0.315003
0.327246
0.335862
0.341297
0.34407
0.34467
0.343617
0.341067
0.33629
0.332608
0.219819
0.218451
0.231264
0.25057
0.270814
0.28868
0.302861
0.3133
0.320425
0.324756
0.326786
0.327051
0.325723
0.32196
0.319146
0.185835
0.185373
0.199274
0.220155
0.24228
0.262121
0.278231
0.290491
0.299307
0.305198
0.308659
0.310244
0.310147
0.307388
0.305368
0.151874
0.152309
0.167252
0.189653
0.213617
0.235404
0.25343
0.267501
0.278003
0.28545
0.290339
0.29324
0.294384
0.292624
0.291277
0.118059
0.119375
0.135308
0.159166
0.184916
0.208613
0.228529
0.244395
0.256571
0.265566
0.271874
0.27608
0.278481
0.277739
0.276873
0.0845095
0.0866888
0.103555
0.128796
0.156268
0.181828
0.203601
0.221239
0.23507
0.2456
0.253316
0.258804
0.262483
0.262871
0.262156
0.0513472
0.054365
0.0721035
0.0986436
0.127763
0.15513
0.178719
0.198097
0.213559
0.225606
0.234717
0.241453
0.246395
0.24818
0.246961
0.0186935
0.0225164
0.0410644
0.0688102
0.099493
0.1286
0.153954
0.175033
0.192095
0.205636
0.216129
0.224077
0.230191
0.233962
0.232358
-0.0133292
-0.00874847
0.0105452
0.0393944
0.0715454
0.102315
0.129376
0.152111
0.170736
0.185741
0.197602
0.206764
0.213928
0.219439
0.22052
-0.0446193
-0.0393041
-0.0193481
0.0104925
0.0440078
0.0763549
0.105055
0.129393
0.149539
0.16597
0.179178
0.18957
0.19777
0.20469
0.208454
-0.0752067
-0.0689668
-0.0485123
-0.0178015
0.0169655
0.0507942
0.0810576
0.106939
0.128556
0.146373
0.160891
0.172513
0.181771
0.189826
0.195468
-0.10485
-0.0977711
-0.0768665
-0.045395
-0.00949882
0.0257071
0.0574501
0.084807
0.10784
0.126994
0.14278
0.155602
0.165926
0.174995
0.182003
-0.133413
-0.125498
-0.104421
-0.0721991
-0.0353054
0.00116494
0.0342956
0.0630532
0.0874413
0.10788
0.124882
0.138861
0.150235
0.160271
0.168448
-0.160832
-0.152178
-0.130914
-0.0981324
-0.0603775
-0.0227624
0.0116552
0.0417317
0.0674064
0.0890712
0.107236
0.122322
0.134714
0.145675
0.154915
-0.18703
-0.177698
-0.156209
-0.12318
-0.0846412
-0.046007
-0.0104126
0.0208942
0.0477818
0.0706094
0.089879
0.106019
0.119389
0.131223
0.141432
-0.211931
-0.201971
-0.180356
-0.147137
-0.108043
-0.0685035
-0.0318525
0.000590115
0.0286115
0.0525338
0.0728478
0.0899865
0.104289
0.116947
0.128045
-0.235468
-0.22492
-0.203284
-0.169958
-0.13051
-0.0901871
-0.0526125
-0.0191334
0.00993732
0.0348818
0.0561761
0.0742558
0.0894446
0.102878
0.114803
-0.257581
-0.246478
-0.224911
-0.191618
-0.151899
-0.111059
-0.0726444
-0.0382319
-0.0082016
0.0176888
0.0398964
0.0588573
0.0748828
0.0890475
0.101745
-0.278218
-0.266591
-0.245177
-0.212065
-0.172239
-0.130997
-0.0918936
-0.0566645
-0.0257685
0.000988245
0.0240394
0.0438195
0.0606303
0.0754811
0.088901
-0.297334
-0.285214
-0.26403
-0.231238
-0.191475
-0.149962
-0.110321
-0.0743932
-0.0427293
-0.0151891
0.00863353
0.0291691
0.0467115
0.0622026
0.0762962
-0.314893
-0.302315
-0.281432
-0.249086
-0.209551
-0.167927
-0.12789
-0.0913841
-0.059053
-0.0308151
-0.00629504
0.0149306
0.0331488
0.0492332
0.0639536
-0.33087
-0.317866
-0.29735
-0.265572
-0.226424
-0.184855
-0.144567
-0.107608
-0.0747111
-0.0458642
-0.0207228
0.00112629
0.0199625
0.0365914
0.0518938
-0.345246
-0.331852
-0.311762
-0.280667
-0.242061
-0.200712
-0.160322
-0.123035
-0.0896816
-0.0603133
-0.0346287
-0.0122241
0.00717052
0.0242925
0.0401359
-0.358018
-0.344269
-0.324655
-0.294351
-0.256437
-0.215469
-0.175129
-0.137644
-0.103942
-0.0741451
-0.047994
-0.025103
-0.00521063
0.0123481
0.0286973
-0.369188
-0.355121
-0.336029
-0.30661
-0.269532
-0.229106
-0.188966
-0.151414
-0.117474
-0.0873422
-0.0608056
-0.0374956
-0.0171656
0.000766299
0.0175921
-0.378772
-0.364425
-0.345889
-0.317441
-0.281333
-0.241605
-0.201816
-0.164329
-0.130262
-0.09989
-0.0730496
-0.0493974
-0.0286766
-0.0104421
0.0068171
-0.386795
-0.372207
-0.354254
-0.32685
-0.291837
-0.252956
-0.213668
-0.176379
-0.142297
-0.111778
-0.0847141
-0.0607914
-0.0397559
-0.0212303
-0.00368357
-0.393292
-0.378502
-0.361153
-0.334852
-0.301045
-0.263155
-0.224515
-0.187555
-0.153571
-0.123
-0.0957917
-0.0716678
-0.0503763
-0.0316068
-0.0140513
-0.398308
-0.383358
-0.366623
-0.341472
-0.308969
-0.272204
-0.234353
-0.197853
-0.164079
-0.13355
-0.106278
-0.0820227
-0.0605397
-0.0415729
-0.0239747
-0.401896
-0.386828
-0.370712
-0.346743
-0.315628
-0.28011
-0.243185
-0.207274
-0.173821
-0.143428
-0.116171
-0.0918527
-0.070241
-0.0511118
-0.0333923
-0.40412
-0.388977
-0.373478
-0.350708
-0.321049
-0.286889
-0.251018
-0.215821
-0.182799
-0.152635
-0.12547
-0.101156
-0.0794739
-0.0602273
-0.0423894
-0.405049
-0.389876
-0.374986
-0.35342
-0.325266
-0.292561
-0.257864
-0.223502
-0.191019
-0.161175
-0.134181
-0.109935
-0.0882392
-0.0689289
-0.0510251
-0.404761
-0.389604
-0.37531
-0.354938
-0.328323
-0.297153
-0.263741
-0.230328
-0.19849
-0.169056
-0.142307
-0.118194
-0.0965423
-0.0772215
-0.0593096
-0.40334
-0.388245
-0.374529
-0.355331
-0.33027
-0.300699
-0.26867
-0.236315
-0.205223
-0.176287
-0.149858
-0.125942
-0.10439
-0.085108
-0.0672381
-0.400873
-0.385889
-0.372731
-0.354673
-0.331164
-0.303239
-0.272678
-0.241482
-0.211232
-0.18288
-0.156845
-0.133187
-0.11179
-0.0925925
-0.07481
-0.397454
-0.382629
-0.370007
-0.353047
-0.331069
-0.304819
-0.275796
-0.24585
-0.216535
-0.188851
-0.163278
-0.139939
-0.11875
-0.0996815
-0.0820294
-0.393178
-0.37856
-0.36645
-0.350538
-0.330058
-0.30549
-0.278061