/*--------------------------------*- C++ -*----------------------------------*\
  =========                 |
  \\      /  F ield         | OpenFOAM: The Open Source CFD Toolbox
   \\    /   O peration     | Website:  https://openfoam.org
    \\  /    A nd           | Version:  7
     \\/     M anipulation  |
\*---------------------------------------------------------------------------*/
FoamFile
{
    version     2.0;
    format      ascii;
    class       surfaceScalarField;
    location    "40";
    object      phi;
}
// * * * * * * * * * * * * * * * * * * * * * * * * * * * * * * * * * * * * * //

dimensions      [0 3 -1 0 0 0 0];

internalField   nonuniform List<scalar> 
39691
(
-2.11554e-06
2.04379e-06
7.17501e-08
-7.80715e-06
5.51575e-06
1.75863e-07
-1.66718e-05
8.6137e-06
2.50963e-07
-2.83127e-05
1.13407e-05
3.00244e-07
-4.23491e-05
1.37088e-05
3.27515e-07
-5.84269e-05
1.57411e-05
3.36833e-07
-7.62303e-05
1.74713e-05
3.32057e-07
-9.54931e-05
1.89464e-05
3.16428e-07
-0.000116013
2.02278e-05
2.92215e-07
-0.000137666
2.13926e-05
2.60472e-07
-0.000160422
2.25345e-05
2.20942e-07
-0.000184356
2.37625e-05
1.72053e-07
-0.000209663
2.5196e-05
1.10968e-07
-0.00023664
2.69433e-05
3.36862e-08
2.91207e-05
-6.559e-08
-0.000265695
-2.10472e-06
4.14851e-06
-7.76838e-06
1.11794e-05
-1.65897e-05
1.74351e-05
-2.81728e-05
2.29238e-05
-4.21367e-05
2.76727e-05
-5.81263e-05
3.17307e-05
-7.58233e-05
3.51683e-05
-9.49584e-05
3.80815e-05
-0.000115324
4.05938e-05
-0.000136792
4.28598e-05
-0.000159323
4.50657e-05
-0.000182989
4.7428e-05
-0.000207976
5.01834e-05
-0.000234579
5.35465e-05
5.77453e-05
-0.000263204
-2.08315e-06
6.23166e-06
-7.69104e-06
1.67873e-05
-1.6426e-05
2.61701e-05
-2.78939e-05
3.43916e-05
-4.17133e-05
4.14921e-05
-5.7527e-05
4.75444e-05
-7.50123e-05
5.26536e-05
-9.38931e-05
5.69622e-05
-0.000113953
6.06538e-05
-0.000135051
6.39576e-05
-0.000157136
6.7151e-05
-0.000180266
7.05579e-05
-0.000204617
7.45346e-05
-0.000230477
7.94061e-05
8.55139e-05
-0.000258245
-2.05121e-06
8.28288e-06
-7.57637e-06
2.23124e-05
-1.61831e-05
3.47768e-05
-2.74796e-05
4.5688e-05
-4.10841e-05
5.50967e-05
-5.6636e-05
6.30963e-05
-7.38061e-05
6.98237e-05
-9.2308e-05
7.54641e-05
-0.000111912
8.02575e-05
-0.000132458
8.45043e-05
-0.000153878
8.85707e-05
-0.000176208
9.28875e-05
-0.000199608
9.79346e-05
-0.000224355
0.000104153
0.000112003
-0.000250844
-2.00948e-06
1.02924e-05
-7.42624e-06
2.77292e-05
-1.58646e-05
4.32152e-05
-2.69356e-05
5.6759e-05
-4.02569e-05
6.8418e-05
-5.54635e-05
7.83029e-05
-7.22174e-05
8.65775e-05
-9.02189e-05
9.34656e-05
-0.000109219
9.92581e-05
-0.000129037
0.000104322
-0.000149575
0.000109108
-0.000170842
0.000114155
-0.000192977
0.00012007
-0.000216245
0.00012742
0.000136791
-0.000241032
-1.95869e-06
1.2251e-05
-7.24299e-06
3.30135e-05
-1.54749e-05
5.14471e-05
-2.62689e-05
6.7553e-05
-3.92416e-05
8.13907e-05
-5.40224e-05
9.30836e-05
-7.02624e-05
0.000102818
-8.76455e-05
0.000110849
-0.0001059
0.000117513
-0.000124814
0.000123236
-0.000144258
0.000128552
-0.000164204
0.000134102
-0.000184763
0.000140629
-0.000206183
0.00014884
0.000159455
-0.000228847
-1.89972e-06
1.41508e-05
-7.02946e-06
3.81432e-05
-1.50196e-05
5.94373e-05
-2.5488e-05
7.80214e-05
-3.80499e-05
9.39526e-05
-5.23278e-05
0.000107362
-6.79602e-05
0.00011845
-8.46112e-05
0.0001275
-0.000101981
0.000134883
-0.000119824
0.000141079
-0.000137965
0.000146693
-0.000156335
0.000152472
-0.000175008
0.000159301
-0.000194213
0.000168046
0.000179572
-0.00021433
-1.83356e-06
1.59843e-05
-6.78882e-06
4.30985e-05
-1.45048e-05
6.71533e-05
-2.46024e-05
8.8119e-05
-3.66949e-05
0.000106045
-5.03967e-05
0.000121063
-6.53318e-05
0.000133385
-8.11415e-05
0.000143309
-9.74943e-05
0.000151236
-0.000114101
0.000157685
-0.000130737
0.000163329
-0.00014728
0.000169015
-0.000163756
0.000175777
-0.000180376
0.000184666
0.000196712
-0.000197516
-1.76129e-06
1.77456e-05
-6.52452e-06
4.78617e-05
-1.39369e-05
7.45657e-05
-2.36222e-05
9.78043e-05
-3.51904e-05
0.000117613
-4.82471e-05
0.00013412
-6.23994e-05
0.000147537
-7.72632e-05
0.000158173
-9.24704e-05
0.000166443
-0.000107683
0.000172898
-0.000122617
0.000178263
-0.000137084
0.000183482
-0.000151054
0.000189747
-0.000164713
0.000198325
0.000210431
-0.000178433
-1.68406e-06
1.94297e-05
-6.24019e-06
5.24179e-05
-1.3323e-05
8.16485e-05
-2.25578e-05
0.000107039
-3.35508e-05
0.000128606
-4.58968e-05
0.000146466
-5.91849e-05
0.000160826
-7.30024e-05
0.000171991
-8.69407e-05
0.000180381
-0.000100606
0.000186563
-0.000113646
0.000191303
-0.00012579
0.000195627
-0.000136941
0.000200897
-0.000147254
0.000208638
0.000220266
-0.000157089
-1.60302e-06
2.10327e-05
-5.93948e-06
5.67543e-05
-1.26699e-05
8.83789e-05
-2.14198e-05
0.000115789
-3.179e-05
0.000138977
-4.33634e-05
0.000158039
-5.57089e-05
0.000173171
-6.83832e-05
0.000184665
-8.09326e-05
0.000192931
-9.2902e-05
0.000198533
-0.000103857
0.000202258
-0.000113436
0.000205205
-0.000121449
0.00020891
-0.000128019
0.000215208
0.00022572
-0.000133473
-1.51931e-06
2.2552e-05
-5.62602e-06
6.0861e-05
-1.19843e-05
9.47372e-05
-2.02182e-05
0.000124023
-2.99211e-05
0.000148679
-4.06625e-05
0.000168781
-5.19894e-05
0.000184498
-6.34252e-05
0.000196101
-7.44679e-05
0.000203973
-8.45938e-05
0.000208659
-9.32774e-05
0.000210941
-0.000100044
0.000211972
-0.000104595
0.000213461
-0.000107004
0.000217618
0.000226255
-0.000107539
-1.43405e-06
2.39861e-05
-5.30323e-06
6.47302e-05
-1.12726e-05
0.000100707
-1.89619e-05
0.000131712
-2.79555e-05
0.000157673
-3.7807e-05
0.000178632
-4.80399e-05
0.000194731
-5.8142e-05
0.000206203
-6.75593e-05
0.000213391
-7.56934e-05
0.000216793
-8.19164e-05
0.000217164
-8.56229e-05
0.000215679
-8.63739e-05
0.000214212
-8.41823e-05
0.000215426
0.000221289
-7.92161e-05
-1.34828e-06
2.53343e-05
-4.97427e-06
6.83562e-05
-1.05404e-05
0.000106273
-1.7659e-05
0.000138831
-2.59024e-05
0.000165916
-3.48064e-05
0.000187536
-4.38684e-05
0.000203793
-5.25383e-05
0.000214873
-6.02071e-05
0.000221059
-6.61958e-05
0.000222781
-6.97625e-05
0.000220731
-7.01503e-05
0.000216067
-6.67473e-05
0.000210809
-5.94923e-05
0.000208171
0.000210218
-4.84213e-05
-1.26294e-06
2.65973e-05
-4.64195e-06
7.17352e-05
-9.7924e-06
0.000111423
-1.63156e-05
0.000145354
-2.37683e-05
0.000173369
-3.16655e-05
0.000195434
-3.94757e-05
0.000211603
-4.66085e-05
0.000222006
-5.23962e-05
0.000226847
-5.60743e-05
0.00022646
-5.67761e-05
0.000221433
-5.35699e-05
0.00021286
-4.5614e-05
0.000202853
-3.27845e-05
0.000195342
0.000192792
-1.5358e-05
-1.17885e-06
2.77761e-05
-4.30859e-06
7.4865e-05
-9.03247e-06
0.000116147
-1.4936e-05
0.000151258
-2.15563e-05
0.000179989
-2.83837e-05
0.000202261
-3.48543e-05
0.000218073
-4.03339e-05
0.000227485
-4.40927e-05
0.000230606
-4.52761e-05
0.000227643
-4.28837e-05
0.000219041
-3.57928e-05
0.00020577
-2.28311e-05
0.000189891
-3.0129e-06
0.000175524
0.000168632
2.11471e-05
-1.0967e-06
2.88728e-05
-3.97601e-06
7.77443e-05
-8.26311e-06
0.000120434
-1.35222e-05
0.000156517
-1.92658e-05
0.000185733
-2.49544e-05
0.00020795
-2.99871e-05
0.000223106
-3.36813e-05
0.000231179
-3.52411e-05
0.000232166
-3.37169e-05
0.000226119
-2.79677e-05
0.000213291
-1.66708e-05
0.000194473
1.46406e-06
0.000171756
2.76771e-05
0.000149311
0.000134973
6.13355e-05
-1.01702e-06
2.98898e-05
-3.64543e-06
8.03727e-05
-7.48554e-06
0.000124274
-1.20739e-05
0.000161105
-1.6892e-05
0.000190551
-2.13643e-05
0.000212422
-2.48467e-05
0.000226589
-2.66019e-05
0.000232935
-2.57617e-05
0.000231325
-2.12763e-05
0.000221633
-1.1858e-05
0.000203873
4.05611e-06
0.000178558
2.82007e-05
0.000147611
6.17494e-05
0.000115762
9.16422e-05
0.00010508
-9.40187e-07
3.083e-05
-3.31741e-06
8.27499e-05
-6.69952e-06
0.000127656
-1.0588e-05
0.000164994
-1.44257e-05
0.000194389
-1.75935e-05
0.00021559
-1.93953e-05
0.00022839
-1.90305e-05
0.00023257
-1.55504e-05
0.000227845
-7.79766e-06
0.000213881
5.66851e-06
0.000190407
2.66456e-05
0.000157581
5.7237e-05
0.00011702
9.91262e-05
7.38727e-05
3.75838e-05
0.000153185
-8.66367e-07
3.16964e-05
-2.99182e-06
8.48753e-05
-5.90324e-06
0.000130568
-9.05857e-06
0.000168149
-1.18533e-05
0.000197183
-1.36147e-05
0.000217351
-1.35843e-05
0.00022836
-1.08861e-05
0.000229872
-4.47905e-06
0.000221438
6.91179e-06
0.00020249
2.48863e-05
0.000172432
5.14808e-05
0.000130987
8.91931e-05
7.93077e-05
0.00014029
2.27762e-05
-2.8408e-05
0.000206282
-7.95544e-07
3.24919e-05
-2.66774e-06
8.67475e-05
-5.0932e-06
0.000132993
-7.47681e-06
0.000170533
-9.15639e-06
0.000198863
-9.39395e-06
0.000217589
-7.35479e-06
0.000226321
-2.07238e-06
0.000224589
7.60314e-06
0.000211763
2.30786e-05
0.000187014
4.61212e-05
0.00014939
7.90033e-05
9.81048e-05
0.000124617
3.36943e-05
0.000185884
-3.84913e-05
-0.000107587
0.000265063
-7.27474e-07
3.32194e-05
-2.34343e-06
8.83635e-05
-4.26409e-06
0.000134914
-5.83076e-06
0.000172099
-6.31177e-06
0.000199344
-4.89008e-06
0.000216167
-6.38136e-07
0.000222069
7.5205e-06
0.000216431
2.08658e-05
0.000198417
4.09568e-05
0.000166923
6.97395e-05
0.000120607
0.000109715
5.81289e-05
0.00016414
-2.07302e-05
0.000236652
-0.000111003
-0.000201183
0.000330247
-6.61663e-07
3.38811e-05
-2.01621e-06
8.9718e-05
-3.40863e-06
0.000136306
-4.10508e-06
0.000172796
-3.2913e-06
0.00019853
-5.44738e-08
0.00021293
6.64342e-06
0.000215371
1.80139e-05
0.00020506
3.54933e-05
0.000180938
6.08189e-05
0.000141598
9.61329e-05
8.52931e-05
0.000144157
1.01045e-05
0.000208447
-8.50198e-05
0.0002934
-0.000195956
-0.000310288
0.000402506
-5.97334e-07
3.44784e-05
-1.68239e-06
9.08031e-05
-2.51739e-06
0.000137141
-2.28085e-06
0.000172559
-6.02354e-08
0.00019631
5.16639e-06
0.000207704
1.45761e-05
0.000205961
2.95389e-05
0.000190097
5.16796e-05
0.000158797
8.2946e-05
0.000110331
0.0001257
4.25395e-05
0.000182875
-4.70709e-05
0.000258226
-0.000160371
0.000356945
-0.000294676
-0.000435717
0.000482374
-5.33388e-07
3.50118e-05
-1.33712e-06
9.16068e-05
-1.57857e-06
0.000137383
-3.35243e-07
0.000171316
3.41677e-06
0.000192558
1.0836e-05
0.000200284
2.32546e-05
0.000193543
4.22344e-05
0.000171117
6.96234e-05
0.000131408
0.000107616
7.23385e-05
0.000158821
-8.66559e-06
0.000226381
-0.00011463
0.000314113
-0.000248103
0.000428025
-0.000408588
-0.000577817
0.000570125
-4.6836e-07
3.54802e-05
-9.74284e-07
9.21128e-05
-5.77745e-07
0.000136986
1.75811e-06
0.00016898
7.18839e-06
0.000187127
1.70237e-05
0.000190449
3.27818e-05
0.000177785
5.62463e-05
0.000147653
8.95245e-05
9.813e-05
0.000135096
2.67674e-05
0.000195843
-6.9413e-05
0.000275113
-0.0001939
0.000376631
-0.000349621
0.000507196
-0.000539153
-0.000736247
0.000665626
-4.00368e-07
3.58805e-05
-5.86388e-07
9.22988e-05
5.02153e-07
0.000135898
4.03145e-06
0.000165451
1.13046e-05
0.000179854
2.38072e-05
0.000177946
4.32685e-05
0.000158323
7.17255e-05
0.000119196
0.000111579
5.82761e-05
0.000165627
-2.72807e-05
0.000237051
-0.000140836
0.000329387
-0.000286236
0.000446127
-0.000466362
0.000594707
-0.000687733
-0.000909774
0.000768234
-3.27114e-07
3.62076e-05
-1.63537e-07
9.21352e-05
1.68089e-06
0.000134053
6.52049e-06
0.000160611
1.5823e-05
0.000170552
3.12716e-05
0.000162498
5.48332e-05
0.000134762
8.88272e-05
8.5202e-05
0.000135978
1.11255e-05
0.000199425
-9.07281e-05
0.000282656
-0.000224068
0.00038937
-0.00039295
0.000522725
-0.000599716
0.000690317
-0.000855325
-0.0010963
0.000876845
-2.46101e-07
3.64537e-05
3.01485e-07
9.15876e-05
2.98144e-06
0.000131373
9.26585e-06
0.000154327
2.08076e-05
0.00015901
3.95095e-05
0.000143796
6.76006e-05
0.000106671
0.000107707
4.50953e-05
0.000162896
-4.40634e-05
0.00023666
-0.000164492
0.000332782
-0.00032019
0.000455074
-0.000515242
0.000606366
-0.000751009
0.000793122
-0.00104208
-0.00129341
0.000990234
-1.54107e-07
3.66078e-05
8.2271e-07
9.06108e-05
4.42931e-06
0.000127767
1.23122e-05
0.000146444
2.63278e-05
0.000144994
4.86192e-05
0.000121505
8.16992e-05
7.35906e-05
0.000128517
-1.72293e-06
0.000192488
-0.000108034
0.000277439
-0.000249443
0.000387418
-0.000430168
0.000526315
-0.000654139
0.000696933
-0.000921627
0.000901977
-0.00124712
-0.00149964
0.0011082
-4.79997e-08
3.66558e-05
1.41304e-06
8.91497e-05
6.0523e-06
0.000123127
1.57077e-05
0.000136788
3.24569e-05
0.000128245
5.87025e-05
9.52589e-05
9.72566e-05
3.50365e-05
0.000151398
-5.58639e-05
0.000224869
-0.000181505
0.00032178
-0.000346354
0.000446346
-0.000554735
0.000602458
-0.000810251
0.000793538
-0.00111271
0.00101797
-0.00147156
-0.00171467
0.001233
7.82848e-08
3.65776e-05
2.08568e-06
8.71424e-05
7.87933e-06
0.000117334
1.95022e-05
0.000125165
3.92699e-05
0.000108478
6.98605e-05
6.46684e-05
0.000114394
-9.49678e-06
0.000176466
-0.000117937
0.000260105
-0.000265144
0.000369592
-0.000455842
0.000509119
-0.000694261
0.000682205
-0.000983337
0.000892213
-0.00132271
0.00113788
-0.00171722
-0.00205693
0.00148014
2.25397e-07
3.63522e-05
2.85517e-06
8.45126e-05
9.94129e-06
0.000110248
2.37473e-05
0.000111359
4.68419e-05
8.53829e-05
8.21898e-05
2.93205e-05
0.000133217
-6.0524e-05
0.00020381
-0.000188529
0.000298197
-0.000359532
0.000420672
-0.000578317
0.000575115
-0.000848704
0.000764195
-0.00117242
0.000990196
-0.00154872
0.00124844
-0.00197547
-0.00237638
0.00156789
3.99402e-07
3.59528e-05
3.73576e-06
8.11762e-05
1.22677e-05
0.000101716
2.84921e-05
9.5135e-05
5.52427e-05
5.86323e-05
9.57756e-05
-1.12124e-05
0.000153809
-0.000118558
0.000233468
-0.000268188
0.000339069
-0.000465133
0.000474705
-0.000713952
0.000643608
-0.00101761
0.000847135
-0.00137594
0.00108523
-0.00178681
0.00135076
-0.00224099
-0.00268225
0.00165663
6.04047e-07
3.53487e-05
4.74147e-06
7.70388e-05
1.48874e-05
9.15697e-05
3.37826e-05
7.62397e-05
6.45342e-05
2.78807e-05
0.000110686
-5.73641e-05
0.000176219
-0.000184091
0.000265419
-0.000357387
0.000382541
-0.000582255
0.000531228
-0.00086264
0.000713712
-0.00120009
0.000929678
-0.00159191
0.00117632
-0.00203346
0.00144487
-0.00250954
-0.0029758
0.00173842
8.43159e-07
3.45056e-05
5.88545e-06
7.19965e-05
1.78263e-05
7.96289e-05
3.9659e-05
5.44071e-05
7.47661e-05
-7.2264e-06
0.000126965
-0.000109563
0.000200451
-0.000257576
0.000299565
-0.000456501
0.000428315
-0.000711006
0.000589617
-0.00102394
0.000784352
-0.00139483
0.00101028
-0.00181784
0.00126184
-0.00228502
0.00152884
-0.00277654
-0.00325582
0.00180886
1.12029e-06
3.33853e-05
7.17949e-06
6.59373e-05
2.11073e-05
6.57011e-05
4.61536e-05
2.93607e-05
8.5972e-05
-4.70447e-05
0.000144625
-0.000168216
0.000226454
-0.000339405
0.000335718
-0.000565766
0.000475959
-0.000851246
0.000649068
-0.00119705
0.000854271
-0.00160003
0.00108724
-0.0020508
0.00133995
-0.00253773
0.00160115
-0.00303773
-0.00352035
0.00186568
1.43859e-06
3.19467e-05
8.63363e-06
5.87423e-05
2.47482e-05
4.95865e-05
5.32888e-05
8.20097e-07
9.81657e-05
-9.19217e-05
0.000163645
-0.000233695
0.000254116
-0.000429876
0.000373594
-0.000685243
0.000524902
-0.00100255
0.000708621
-0.00138077
0.000922084
-0.00181349
0.00115887
-0.00228759
0.00140896
-0.00278783
0.00166064
-0.00328941
-0.00376748
0.00190777
1.80071e-06
3.0146e-05
1.02558e-05
5.02872e-05
2.87617e-05
3.10806e-05
6.10751e-05
-3.14933e-05
0.000111339
-0.000142185
0.000183959
-0.000306316
0.000283258
-0.000529175
0.000412805
-0.000814791
0.000574449
-0.0011642
0.000767192
-0.00157351
0.000986352
-0.00203265
0.00122357
-0.00252481
0.00146751
-0.00303176
0.00170662
-0.00352853
-0.00399581
0.00193496
2.20877e-06
2.79372e-05
1.20516e-05
4.04443e-05
3.31541e-05
9.97811e-06
6.95098e-05
-6.7849e-05
0.000125456
-0.000198132
0.000205461
-0.000386321
0.00031363
-0.000637343
0.000452871
-0.000954032
0.000623795
-0.00133512
0.000823626
-0.00177334
0.00104568
-0.00225471
0.00128
-0.00275913
0.00151464
-0.00326641
0.00173892
-0.0037528
-0.00420467
0.00194778
2.66431e-06
2.52729e-05
1.4024e-05
2.90846e-05
3.79251e-05
-1.3923e-05
7.85761e-05
-0.0001085
0.000140458
-0.000260014
0.000227997
-0.00047386
0.000344913
-0.000754259
0.000493222
-0.00110234
0.000672059
-0.00151396
0.000876759
-0.00197804
0.0010988
-0.00247675
0.00132712
-0.00298744
0.00154989
-0.00348918
0.00175783
-0.00396074
-0.0043941
0.00194726
3.16827e-06
2.21046e-05
1.61733e-05
1.60796e-05
4.30671e-05
-4.08168e-05
8.8242e-05
-0.000153675
0.000156256
-0.000328028
0.000251369
-0.000568973
0.000376727
-0.000879617
0.000533221
-0.00125883
0.000718325
-0.00169906
0.000925488
-0.00218521
0.00114467
-0.00269594
0.00136427
-0.00320704
0.00157323
-0.00369815
0.00176409
-0.00415159
-0.00456472
0.00193472
3.721e-06
1.83836e-05
1.84969e-05
1.30374e-06
4.85653e-05
-7.08853e-05
9.84598e-05
-0.000203569
0.000172731
-0.000402299
0.000275333
-0.000671575
0.000408634
-0.00101292
0.000572184
-0.00142238
0.000761685
-0.00188856
0.000968832
-0.00239235
0.0011825
-0.00290961
0.00139115
-0.00341568
0.00158505
-0.00389205
0.00175873
-0.00432527
-0.00471763
0.00191164
4.32224e-06
1.40614e-05
2.09894e-05
-1.53634e-05
5.43971e-05
-0.000104293
0.000109166
-0.000258338
0.000189741
-0.000482874
0.000299607
-0.000781442
0.000440153
-0.00115346
0.00060941
-0.00159164
0.000801288
-0.00208044
0.00100598
-0.00259705
0.0012118
-0.00311543
0.00140783
-0.00361171
0.00158602
-0.00407024
0.00174295
-0.0044822
-0.00485421
0.00187952
4.97108e-06
9.09029e-06
2.36423e-05
-3.40346e-05
6.05318e-05
-0.000141183
0.000120282
-0.000318088
0.000207113
-0.000569705
0.000323874
-0.000898203
0.000470775
-0.00130036
0.000644209
-0.00176508
0.00083638
-0.00227261
0.00103635
-0.00279702
0.00123238
-0.00331146
0.00141467
-0.003794
0.00157706
-0.00423263
0.00171806
-0.0046232
-0.00497596
0.00183982
5.66596e-06
3.42434e-06
2.64441e-05
-5.48128e-05
6.69312e-05
-0.00018167
0.000131712
-0.000382869
0.000224654
-0.000662648
0.000347791
-0.00102134
0.000499984
-0.00145256
0.000675939
-0.00194103
0.000866344
-0.00246302
0.00105956
-0.00299024
0.00124432
-0.00349622
0.00141227
-0.00396195
0.0015592
-0.00437956
0.00168535
-0.00474935
-0.00508445
0.00179384
6.40457e-06
-2.98024e-06
2.938e-05
-7.77883e-05
7.35487e-05
-0.000225838
0.000143346
-0.000452667
0.000242148
-0.000761449
0.000370996
-0.00115019
0.000527273
-0.00160883
0.000704028
-0.00211778
0.000890718
-0.00264971
0.00107547
-0.00317499
0.00124792
-0.00366866
0.00140139
-0.00411542
0.00153353
-0.00451171
0.00164605
-0.00486187
-0.00518117
0.00174276
7.18389e-06
-1.01641e-05
3.24319e-05
-0.000103036
8.03302e-05
-0.000273737
0.000155064
-0.0005274
0.000259364
-0.00086575
0.000393124
-0.00128395
0.000552167
-0.00176788
0.000728001
-0.00229362
0.00090921
-0.00283092
0.00108414
-0.00334992
0.00124366
-0.00382819
0.00138287
-0.00425463
0.00150113
-0.00462997
0.00160129
-0.00496203
-0.00526748
0.0016876
8.00005e-06
-1.81642e-05
3.55784e-05
-0.000130615
8.72141e-05
-0.000325372
0.000166729
-0.000606914
0.000276062
-0.000975083
0.000413817
-0.0014217
0.000574239
-0.0019283
0.000747499
-0.00246688
0.000921694
-0.00300511
0.0010858
-0.00351402
0.00123216
-0.00397455
0.00135763
-0.00438009
0.00146303
-0.00473536
0.00155207
-0.00505106
-0.00534461
0.0016292
8.84836e-06
-2.70125e-05
3.8795e-05
-0.000160561
9.41322e-05
-0.000380709
0.000178199
-0.000690981
0.000291996
-0.00108888
0.000432736
-0.00156244
0.00059313
-0.00208869
0.00076228
-0.00263603
0.000928198
-0.00317103
0.00108083
-0.00366665
0.00121412
-0.00410784
0.00132654
-0.00449252
0.00142016
-0.00482898
0.00149925
-0.00513015
-0.00541363
0.00156827
9.72322e-06
-3.67358e-05
4.20539e-05
-0.000192892
0.00010101
-0.000439666
0.000189325
-0.000779295
0.000306927
-0.00120648
0.000449573
-0.00170509
0.000608559
-0.00224768
0.000772228
-0.0027997
0.000928886
-0.00332769
0.0010697
-0.00380746
0.00119024
-0.00422839
0.00129046
-0.00459274
0.00137337
-0.00491189
0.00144357
-0.00520036
-0.00547543
0.00150537
1.06182e-05
-4.7354e-05
4.53246e-05
-0.000227598
0.00010777
-0.000502111
0.000199955
-0.00087148
0.000320624
-0.00132715
0.000464064
-0.00184853
0.000620328
-0.00240394
0.000777338
-0.00295671
0.000924029
-0.00347438
0.00105295
-0.00393638
0.00116127
-0.00433671
0.00125018
-0.00468165
0.0013234
-0.00498511
0.00138566
-0.00526261
-0.00553075
0.00144098
1.15261e-05
-5.888e-05
4.85741e-05
-0.000264646
0.000114329
-0.000567867
0.000209941
-0.000967092
0.000332877
-0.00145009
0.000475993
-0.00199165
0.000628325
-0.00255627
0.000777709
-0.00310609
0.000913983
-0.00361065
0.00103117
-0.00405357
0.0011279
-0.00443343
0.00120641
-0.00476017
0.00127089
-0.00504959
0.00132601
-0.00531772
-0.00558019
0.00137545
1.24388e-05
-7.13188e-05
5.17675e-05
-0.000303975
0.000120606
-0.000636705
0.000219139
-0.00106563
0.000343499
-0.00157445
0.0004852
-0.00213335
0.000632519
-0.00270359
0.000773523
-0.0032471
0.000899161
-0.00373629
0.00100493
-0.00415934
0.00109079
-0.00451929
0.00115979
-0.00482917
0.00121638
-0.00510618
0.00126504
-0.00536639
-0.00562423
0.00130909
1.33477e-05
-8.46665e-05
5.48688e-05
-0.000345496
0.000126516
-0.000708352
0.000227414
-0.00116652
0.000352335
-0.00169937
0.000491583
-0.00227259
0.000632956
-0.00284497
0.000765033
-0.00337917
0.000880008
-0.00385127
0.00097482
-0.00425415
0.00105055
-0.00459502
0.00111088
-0.0048895
0.00116032
-0.00515562
0.0012031
-0.00540916
-0.00566325
0.00124211
1.42436e-05
-9.89102e-05
5.78411e-05
-0.000389094
0.000131982
-0.000782493
0.000234645
-0.00126919
0.000359261
-0.00182398
0.000495096
-0.00240843
0.000629747
-0.00297962
0.000752539
-0.00350197
0.000856988
-0.00395571
0.000941372
-0.00433854
0.00100773
-0.00466138
0.00106014
-0.00494191
0.00110308
-0.00519856
0.00114044
-0.00544652
-0.00569752
0.00117471
1.51171e-05
-0.000114027
6.06478e-05
-0.000434624
0.000136926
-0.000858771
0.00024073
-0.00137299
0.000364193
-0.00194745
0.000495748
-0.00253998
0.000623056
-0.00310693
0.000736376
-0.00361529
0.000830559
-0.0040499
0.0009051
-0.00441308
0.000962799
-0.00471908
0.00100798
-0.00498709
0.00104498
-0.00523556
0.00107729
-0.00547883
-0.00572727
0.00110704
1.59582e-05
-0.000129986
6.32535e-05
-0.00048192
0.000141282
-0.0009368
0.000245581
-0.00147729
0.00036708
-0.00206895
0.000493593
-0.0026665
0.000613091
-0.00322643
0.000716896
-0.00371909
0.000801167
-0.00413417
0.00086647
-0.00447838
0.000916191
-0.0047688
0.000954755
-0.00502565
0.000986253
-0.00526705
0.00101382
-0.0055064
-0.00575267
0.00103921
1.67574e-05
-0.000146743
6.56243e-05
-0.000530786
0.000144987
-0.00101616
0.000249135
-0.00158144
0.000367908
-0.00218772
0.000488728
-0.00278732
0.00060009
-0.00333779
0.000694458
-0.00381346
0.000769234
-0.00420894
0.000825901
-0.00453505
0.000868269
-0.00481117
0.00090074
-0.00505813
0.000927121
-0.00529343
0.000950166
-0.00552944
-0.00577383
0.000971323
1.75051e-05
-0.000164248
6.77286e-05
-0.00058101
0.000147991
-0.00109642
0.000251348
-0.00168479
0.000366695
-0.00230307
0.000481286
-0.00290191
0.000584311
-0.00344081
0.000669417
-0.00389856
0.000735154
-0.00427468
0.000783769
-0.00458366
0.000819347
-0.00484675
0.000846178
-0.00508496
0.000867749
-0.005315
0.000886456
-0.00554815
-0.00579083
0.000903462
1.81921e-05
-0.00018244
6.95384e-05
-0.000632356
0.000150251
-0.00117714
0.000252198
-0.00178674
0.00036349
-0.00241436
0.000471424
-0.00300984
0.000566023
-0.00353541
0.000642114
-0.00397466
0.000699287
-0.00433186
0.000740403
-0.00462478
0.000769694
-0.00487604
0.000791265
-0.00510653
0.000808274
-0.00533201
0.00082278
-0.00556266
-0.00580375
0.000835699
1.88097e-05
-0.00020125
7.10289e-05
-0.000684576
0.000151738
-0.00125785
0.000251683
-0.00188669
0.000358366
-0.00252104
0.000459319
-0.0031108
0.000545496
-0.00362159
0.000612873
-0.00404203
0.00066196
-0.00438094
0.000696089
-0.00465891
0.000719536
-0.00489948
0.000736167
-0.00512316
0.000748811
-0.00534466
0.000759219
-0.00557306
-0.00581263
0.000768097
1.93517e-05
-0.000220602
7.2183e-05
-0.000737407
0.000152437
-0.0013381
0.000249828
-0.00198408
0.000351426
-0.00262264
0.000445171
-0.00320454
0.000523008
-0.00369943
0.000582008
-0.00410103
0.000623475
-0.00442241
0.000651087
-0.00468652
0.000669073
-0.00491747
0.000681029
-0.00513511
0.000689463
-0.00535309
0.000695852
-0.00557945
-0.0058175
0.000700724
1.9808e-05
-0.00024041
7.29782e-05
-0.000790577
0.000152329
-0.00141745
0.000246654
-0.0020784
0.000342767
-0.00271875
0.000429157
-0.00329093
0.000498798
-0.00376907
0.000549778
-0.00415201
0.000584074
-0.00445671
0.000605592
-0.00470804
0.000618447
-0.00493032
0.000625947
-0.00514261
0.000630293
-0.00535744
0.000632719
-0.00558188
-0.00581839
0.000633612
2.0174e-05
-0.000260584
7.3406e-05
-0.000843809
0.000151423
-0.00149547
0.000242217
-0.00216919
0.00033252
-0.00280906
0.000411486
-0.0033699
0.000473122
-0.0038307
0.000516447
-0.00419534
0.000543994
-0.00448425
0.000559798
-0.00472384
0.000567804
-0.00493833
0.000571023
-0.00514583
0.000571376
-0.00535779
0.000569885
-0.00558039
-0.00581533
0.000566818
2.04445e-05
-0.000281028
7.34595e-05
-0.000896824
0.000149729
-0.00157174
0.000236578
-0.00225604
0.000320815
-0.00289329
0.000392352
-0.00344143
0.000446209
-0.00388456
0.000482247
-0.00423137
0.000503436
-0.00450544
0.000513861
-0.00473427
0.000517256
-0.00494173
0.00051634
-0.00514492
0.000512772
-0.00535422
0.000507395
-0.00557501
-0.00580832
0.000500388
2.06155e-05
-0.000301644
7.3136e-05
-0.000949345
0.000147268
-0.00164587
0.000229809
-0.00233858
0.000307791
-0.00297127
0.000371946
-0.00350559
0.000418275
-0.00393089
0.000447381
-0.00426048
0.000462575
-0.00452063
0.000467915
-0.00473961
0.000466901
-0.00494071
0.000461964
-0.00513998
0.000454531
-0.00534679
0.000445293
-0.00556577
-0.00579739
0.000434365
2.06843e-05
-0.000322328
7.24373e-05
-0.0010011
0.000144069
-0.0017175
0.00022199
-0.00241651
0.000293584
-0.00304287
0.000350449
-0.00356245
0.000389516
-0.00396996
0.000412034
-0.004283
0.000421561
-0.00453016
0.000422074
-0.00474012
0.000416819
-0.00493546
0.000407955
-0.00513112
0.0003967
-0.00533554
0.00038362
-0.00555269
-0.00578256
0.000368785
2.0649e-05
-0.000342977
7.13694e-05
-0.00105182
0.000140166
-0.0017863
0.000213204
-0.00248954
0.000278331
-0.003108
0.000328033
-0.00361216
0.000360111
-0.00400203
0.000376368
-0.00429926
0.000380526
-0.00453432
0.000376434
-0.00473603
0.00036708
-0.0049261
0.000354364
-0.0051184
0.00033932
-0.00532049
0.000322413
-0.00553579
-0.00576383
0.000303684
2.0509e-05
-0.000363486
6.99416e-05
-0.00110125
0.000135599
-0.00185195
0.000203539
-0.00255748
0.000262166
-0.00316662
0.000304859
-0.00365485
0.000330222
-0.0040274
0.000340525
-0.00430956
0.000339582
-0.00453338
0.00033108
-0.00472753
0.000317744
-0.00491277
0.000301235
-0.00510189
0.000282426
-0.00530168
0.000261706
-0.00551507
-0.00574121
0.000239089
2.02647e-05
-0.00038375
6.81667e-05
-0.00114915
0.000130413
-0.0019142
0.000193083
-0.00262015
0.000245217
-0.00321876
0.000281074
-0.00369071
0.000299995
-0.00404632
0.00030463
-0.00431419
0.000298826
-0.00452757
0.000286081
-0.00471478
0.000268863
-0.00489555
0.00024861
-0.00508164
0.000226052
-0.00527913
0.000201525
-0.00549054
-0.0057147
0.000175019
1.99175e-05
-0.000403668
6.60602e-05
-0.0011953
0.000124655
-0.0019728
0.000181926
-0.00267742
0.000227605
-0.00326443
0.000256815
-0.00371992
0.000269558
-0.00405906
0.000268791
-0.00431343
0.000258341
-0.00451712
0.0002415
-0.00469794
0.000220485
-0.00487453
0.00019653
-0.00505768
0.000170237
-0.00525283
0.000141896
-0.0054622
-0.00568428
0.000111472
1.94698e-05
-0.000423138
6.36398e-05
-0.00123947
0.000118375
-0.00202753
0.000170154
-0.0027292
0.000209447
-0.00330373
0.000232206
-0.00374268
0.000239028
-0.00406588
0.000233104
-0.0043075
0.000218198
-0.00450222
0.000197388
-0.00467713
0.000172651
-0.0048498
0.000145037
-0.00503007
0.000115046
-0.00522284
8.28604e-05
-0.00543001
-0.00564972
4.83005e-05
1.89246e-05
-0.000442062
6.09252e-05
-0.00128147
0.000111623
-0.00207823
0.00015785
-0.00277543
0.000190848
-0.00333673
0.000207361
-0.00375919
0.000208506
-0.00406703
0.000197649
-0.00429664
0.000178459
-0.00448303
0.000153791
-0.00465246
0.000125398
-0.0048214
9.41664e-05
-0.00499884
6.05398e-05
-0.00518922
2.46325e-05
-0.0053941
-0.00561043
-1.46554e-05
1.82858e-05
-0.000460348
5.79375e-05
-0.00132112
0.000104448
-0.00212474