/*--------------------------------*- C++ -*----------------------------------*\
  =========                 |
  \\      /  F ield         | OpenFOAM: The Open Source CFD Toolbox
   \\    /   O peration     | Website:  https://openfoam.org
    \\  /    A nd           | Version:  7
     \\/     M anipulation  |
\*---------------------------------------------------------------------------*/
FoamFile
{
    version     2.0;
    format      ascii;
    class       volVectorField;
    location    "40";
    object      U;
}
// * * * * * * * * * * * * * * * * * * * * * * * * * * * * * * * * * * * * * //

dimensions      [0 1 -1 0 0 0 0];

internalField   nonuniform List<vector> 
20050
(
(-0.000485964 0.000422417 2.4018e-21)
(-0.00308652 0.0010653 -4.39734e-22)
(-0.00828743 0.001541 -5.53085e-21)
(-0.0149479 0.00187866 -8.32244e-21)
(-0.0226378 0.00209868 -7.55456e-22)
(-0.0309617 0.0022213 5.12302e-21)
(-0.0395791 0.00226624 -5.72224e-21)
(-0.0482298 0.00225237 1.47203e-21)
(-0.0567235 0.00219786 -4.05194e-21)
(-0.0649364 0.0021201 7.43657e-21)
(-0.0728075 0.00203548 6.33033e-21)
(-0.0803339 0.00195907 -7.67062e-21)
(-0.0875671 0.00190382 -3.90978e-21)
(-0.0945927 0.0018784 4.12588e-21)
(-0.101511 0.00189024 -4.31616e-21)
(-0.000528787 0.00132645 3.97429e-21)
(-0.00318624 0.00333384 -2.68277e-21)
(-0.00841528 0.00481016 -1.21703e-21)
(-0.0150826 0.00584864 8.33931e-21)
(-0.0227613 0.00651607 1.03349e-20)
(-0.0310584 0.00687823 -2.54215e-20)
(-0.0396354 0.0069984 1.54721e-20)
(-0.0482334 0.00693639 1.63104e-20)
(-0.056663 0.00674883 2.12396e-20)
(-0.0648007 0.00648902 -2.01251e-20)
(-0.0725856 0.00620655 1.35602e-20)
(-0.0800151 0.00594636 1.2689e-20)
(-0.0871419 0.00574665 7.28838e-21)
(-0.0940518 0.00563256 -2.31728e-20)
(-0.100839 0.00562505 1.90804e-20)
(-0.000614711 0.00222111 -1.62875e-20)
(-0.00338634 0.00558017 -2.06506e-20)
(-0.00867191 0.00804866 1.56543e-20)
(-0.0153532 0.00978243 1.98348e-20)
(-0.0230094 0.0108938 -1.26447e-20)
(-0.0312528 0.0114933 -2.38578e-20)
(-0.039749 0.0116872 1.50142e-20)
(-0.0482417 0.0115758 -4.32469e-20)
(-0.056543 0.0112537 -2.07505e-20)
(-0.0645304 0.0108101 -1.70255e-20)
(-0.0721431 0.0103278 -2.38228e-20)
(-0.0793789 0.00988185 4.26813e-21)
(-0.0862929 0.00953641 1.73914e-20)
(-0.0929716 0.00933385 7.90432e-20)
(-0.0994964 0.00930984 -3.03871e-20)
(-0.000742803 0.00310028 2.1437e-21)
(-0.00368486 0.00778972 4.13488e-20)
(-0.00905503 0.0112364 1.63716e-20)
(-0.0157573 0.0136562 -2.87761e-20)
(-0.0233801 0.0152057 6.92298e-21)
(-0.0315433 0.0160389 2.68325e-20)
(-0.0399185 0.016304 2.50609e-20)
(-0.0482535 0.0161411 1.64993e-20)
(-0.0563628 0.0156822 -3.12778e-20)
(-0.0641247 0.0150519 8.71147e-20)
(-0.0714791 0.0143663 -3.74595e-20)
(-0.0784239 0.0137314 5.23106e-20)
(-0.0850181 0.013238 -1.74297e-20)
(-0.0913496 0.0129474 -6.64683e-20)
(-0.0974802 0.0129119 2.5159e-20)
(-0.00091169 0.00395813 5.88198e-20)
(-0.0040789 0.0099485 -2.27584e-20)
(-0.00956127 0.0143538 -1.58214e-21)
(-0.0162915 0.0174468 1.64781e-20)
(-0.0238702 0.0194262 1.05088e-20)
(-0.0319272 0.0204879 1.38366e-20)
(-0.0401418 0.0208208 -5.4411e-20)
(-0.048267 0.0206033 -4.85151e-21)
(-0.0561206 0.0200043 3.18433e-21)
(-0.0635821 0.0191832 -8.57844e-20)
(-0.0705917 0.0182894 7.68405e-20)
(-0.0771478 0.0174608 -5.31149e-20)
(-0.083314 0.0168164 -2.44743e-20)
(-0.089181 0.0164383 -1.3514e-20)
(-0.0947836 0.0163988 -3.29032e-20)
(-0.0011196 0.00478918 -3.48758e-20)
(-0.00456469 0.0120433 -1.45594e-20)
(-0.0101862 0.0173823 -4.58378e-20)
(-0.0169515 0.021132 -7.92407e-21)
(-0.0244757 0.0235306 -3.19651e-20)
(-0.0324007 0.0248141 -2.61962e-20)
(-0.0404155 0.0252102 -3.26199e-20)
(-0.0482794 0.0249342 1.92604e-20)
(-0.0558139 0.0241907 2.30295e-20)
(-0.0629001 0.0231733 8.39303e-21)
(-0.0694781 0.0220651 1.6022e-20)
(-0.0755465 0.0210363 2.60865e-20)
(-0.081175 0.0202365 -4.47745e-20)
(-0.0864583 0.0197717 -2.92125e-20)
(-0.0913965 0.0197385 9.61273e-20)
(-0.00136438 0.0055884 -2.17377e-20)
(-0.00513764 0.0140616 -2.24641e-20)
(-0.0109243 0.0203044 1.00162e-19)
(-0.0177316 0.0246906 5.32056e-20)
(-0.0251911 0.0274953 1.59107e-21)
(-0.032959 0.0289922 1.78962e-20)
(-0.0407351 0.0294456 4.79998e-20)
(-0.0482866 0.0291063 -3.19467e-20)
(-0.0554388 0.028213 2.29951e-20)
(-0.0620744 0.0269926 2.94407e-20)
(-0.0681334 0.0256616 -9.33455e-20)
(-0.0736139 0.0244243 -1.75834e-20)
(-0.0785925 0.0234633 -7.95654e-20)
(-0.0831703 0.0229125 4.93585e-20)
(-0.0873031 0.0228991 -5.99691e-20)
(-0.00164362 0.00635128 2.85487e-20)
(-0.00579245 0.0159924 -2.22287e-20)
(-0.0117691 0.0231038 -7.78401e-20)
(-0.018625 0.0281026 -8.6163e-20)
(-0.0260098 0.0312978 -1.04099e-19)
(-0.0335957 0.0329979 2.68867e-20)
(-0.0410948 0.0335017 3.47647e-20)
(-0.0482827 0.0330933 6.98102e-20)
(-0.0549894 0.0320436 -3.39945e-20)
(-0.061099 0.0306121 -2.95658e-20)
(-0.0665505 0.0290484 5.63735e-20)
(-0.0713408 0.0275921 -5.79979e-20)
(-0.0755541 0.0264621 5.52811e-20)
(-0.0793008 0.0258259 -8.69758e-20)
(-0.0824805 0.0258493 5.65666e-20)
(-0.00195461 0.00707392 -4.66698e-21)
(-0.00652321 0.0178253 2.31879e-20)
(-0.0127135 0.0257656 1.15816e-19)
(-0.0196239 0.0313497 1.10981e-19)
(-0.0269241 0.0349171 4.53056e-20)
(-0.034303 0.0368084 -1.40536e-20)
(-0.0414868 0.0373543 -5.67578e-20)
(-0.04826 0.0368699 2.57225e-20)
(-0.0544576 0.0356566 1.26705e-20)
(-0.0599647 0.0340044 -3.77856e-20)
(-0.0647186 0.032196 -1.19195e-19)
(-0.0687138 0.0305077 -3.70954e-20)
(-0.0720418 0.0291987 9.9647e-20)
(-0.0748273 0.0284767 1.4857e-20)
(-0.0768963 0.0285577 -1.17353e-19)
(-0.00229448 0.00775299 -4.43351e-20)
(-0.00732345 0.0195518 -1.21401e-19)
(-0.0137491 0.0282766 -1.34534e-19)
(-0.0207193 0.0344148 -8.2117e-20)
(-0.0279243 0.0383334 5.81427e-20)
(-0.0350713 0.0404021 9.91867e-21)
(-0.0419009 0.0409807 2.25232e-20)
(-0.0482078 0.0404127 -2.15165e-20)
(-0.0538318 0.0390274 1.97596e-19)
(-0.0586587 0.0371438 6.57058e-20)
(-0.0626227 0.0350766 1.08508e-19)
(-0.0657139 0.0331405 1.50046e-19)
(-0.068031 0.0316394 -1.0826e-19)
(-0.0697189 0.0308303 1.69421e-19)
(-0.0705054 0.0309935 2.31638e-20)
(-0.00266023 0.00838583 4.44744e-20)
(-0.0081863 0.0211641 6.95357e-20)
(-0.0148671 0.030625 5.9567e-20)
(-0.0219012 0.0372828 -6.99838e-20)
(-0.0289996 0.041529 5.70762e-20)
(-0.0358887 0.0437592 9.58888e-21)
(-0.0423245 0.0443598 -1.62318e-19)
(-0.0481121 0.0436997 1.44611e-19)
(-0.0530964 0.0421335 -1.17467e-19)
(-0.0571628 0.0400068 -3.35154e-20)
(-0.0602414 0.037665 -1.09062e-21)
(-0.0623151 0.035462 8.98986e-20)
(-0.0634878 0.0337524 1.15377e-19)
(-0.0639341 0.0328522 -9.99725e-20)
(-0.063247 0.0331256 2.16109e-20)
(-0.00304882 0.0089704 -8.0859e-20)
(-0.00910455 0.0226562 2.40986e-20)
(-0.0160578 0.0328006 -5.47585e-20)
(-0.023158 0.0399401 -4.7531e-21)
(-0.0301372 0.0444874 6.83693e-20)
(-0.0367409 0.0468615 -8.4418e-20)
(-0.0427416 0.0474721 1.12735e-19)
(-0.0479548 0.0467109 -1.37648e-19)
(-0.0522305 0.0449545 -1.76149e-19)
(-0.0554528 0.0425724 5.16162e-20)
(-0.0575458 0.0399386 1.06592e-19)
(-0.0584818 0.0374469 -1.27476e-19)
(-0.0583668 0.0355079 1.08798e-19)
(-0.057419 0.0345093 -1.87974e-19)
(-0.0550401 0.0349225 1.3181e-19)
(-0.00345717 0.0095053 2.14579e-19)
(-0.0100707 0.0240232 -1.39732e-19)
(-0.0173109 0.0347949 6.46316e-20)
(-0.0244771 0.0423748 9.47333e-20)
(-0.0313221 0.047194 -1.10574e-19)
(-0.0376108 0.0496923 1.63462e-19)
(-0.0431322 0.0503 -2.31282e-20)
(-0.0477125 0.0494283 -2.05017e-19)
(-0.0512065 0.0474729 5.87445e-20)
(-0.0534961 0.0448231 2.96331e-20)
(-0.0544969 0.041879 -1.48282e-19)
(-0.0541667 0.0390739 1.23942e-19)
(-0.0526079 0.0368808 -3.98382e-19)
(-0.0501045 0.0357713 3.25447e-19)
(-0.0457798 0.0363527 -1.15665e-19)
(-0.00388227 0.00998972 -1.52961e-19)
(-0.0110772 0.0252614 2.34466e-20)
(-0.0186154 0.036601 -1.24289e-19)
(-0.0258446 0.0445767 -1.07606e-19)
(-0.0325373 0.049636 -1.14364e-19)
(-0.038478 0.052237 -1.83081e-19)
(-0.0434717 0.0528278 2.2819e-19)
(-0.0473559 0.0518364 2.76611e-19)
(-0.0499893 0.0496735 1.91435e-20)
(-0.0512502 0.0467449 -1.36118e-19)
(-0.0510435 0.0434726 9.4021e-21)
(-0.0493074 0.0403276 1.16282e-19)
(-0.0461322 0.0378518 -5.02477e-20)
(-0.0419038 0.0366145 -1.34052e-20)
(-0.0353394 0.0374 1.73716e-19)
(-0.00432119 0.0104234 9.56405e-20)
(-0.0121163 0.0263685 1.22156e-19)
(-0.0199596 0.0382134 3.76225e-20)
(-0.0272448 0.0465371 1.45376e-19)
(-0.0337633 0.0518019 6.15059e-20)
(-0.0393181 0.0544821 1.21765e-19)
(-0.0437304 0.0550415 -1.38671e-20)
(-0.0468483 0.0539215 -1.23093e-19)
(-0.0485339 0.0515447 5.86079e-20)
(-0.0486604 0.0483284 2.09485e-19)
(-0.0471191 0.0447114 7.3927e-20)
(-0.0438226 0.0411993 -9.20354e-20)
(-0.0388342 0.0384064 1.74203e-19)
(-0.0326934 0.0370081 -1.16129e-19)
(-0.0235935 0.0381045 1.35717e-20)
(-0.00477114 0.0108065 -1.64696e-20)
(-0.0131801 0.027343 -4.74516e-20)
(-0.0213311 0.0396279 1.17199e-19)
(-0.0286609 0.0482489 7.16378e-20)
(-0.0349777 0.053682 1.44245e-19)
(-0.0401027 0.0564162 -7.82873e-20)
(-0.0438724 0.056929 -1.74869e-19)
(-0.0461447 0.0556726 -7.99812e-20)
(-0.0467844 0.0530779 -1.1261e-19)
(-0.0456577 0.0495687 -2.52733e-19)
(-0.0426393 0.0455945 -1.39897e-19)
(-0.037611 0.0416896 -3.82124e-20)
(-0.0305862 0.0385347 -1.68146e-19)
(-0.0222615 0.0368782 -2.50201e-21)
(-0.0103975 0.0385137 8.94485e-20)
(-0.00522945 0.0111398 -6.94437e-20)
(-0.0142607 0.0281844 -4.29377e-20)
(-0.0227169 0.0408415 6.56199e-21)
(-0.0300738 0.0497062 -3.0539e-19)
(-0.0361552 0.0552678 -2.87962e-19)
(-0.0407984 0.0580291 -1.12382e-19)
(-0.0438547 0.0584797 2.15086e-19)
(-0.0451907 0.0570807 -1.036e-19)
(-0.0446721 0.0542675 9.89721e-20)
(-0.0421564 0.0504662 1.34402e-19)
(-0.0374984 0.0461295 4.81982e-20)
(-0.030548 0.0418122 -8.87947e-20)
(-0.0212723 0.0382597 9.90697e-20)
(-0.0103917 0.0362809 8.17601e-20)
(0.00459437 0.0385174 -1.1643e-19)
(-0.00569363 0.0114242 -1.81305e-20)
(-0.0153502 0.0288931 5.66169e-20)
(-0.0241029 0.0418524 -1.65469e-19)
(-0.0314629 0.0509044 3.82066e-19)
(-0.0372667 0.0565523 2.71757e-19)
(-0.0413668 0.0593122 4.4673e-20)
(-0.043627 0.059685 -1.35888e-19)
(-0.0439211 0.0581389 5.44117e-20)
(-0.0421138 0.0551114 6.92735e-20)
(-0.0380514 0.051026 -1.70647e-19)
(-0.0315648 0.046332 2.03759e-19)
(-0.0224631 0.0415957 7.93735e-20)
(-0.0106824 0.0376171 -1.30714e-19)
(0.0030544 0.0353128 9.07467e-20)
(0.021745 0.0380479 3.46062e-20)
(-0.00616137 0.0116609 2.85644e-20)
(-0.0164406 0.0294701 1.45888e-19)
(-0.0254745 0.0426595 -6.80707e-21)
(-0.0328051 0.0518401 -2.21674e-19)
(-0.0382797 0.0575295 -1.59609e-19)
(-0.0417633 0.060258 1.66093e-19)
(-0.0431304 0.0605374 2.30329e-19)
(-0.0422592 0.0588421 -3.41119e-20)
(-0.0390108 0.0556098 -1.00511e-19)
(-0.0332171 0.0512578 2.53643e-19)
(-0.0246816 0.0462249 -2.04442e-19)
(-0.0131651 0.0410749 1.0681e-19)
(0.00144663 0.0366436 1.39213e-19)
(0.0183554 0.0339852 -4.27644e-19)
(0.0413723 0.0372237 5.42589e-20)
(-0.00663048 0.0118516 8.09456e-20)
(-0.0175235 0.0299168 -6.51758e-20)
(-0.0268155 0.0432627 -8.83968e-23)
(-0.0340751 0.0525105 4.91434e-20)
(-0.0391574 0.0581946 6.29667e-20)
(-0.0419373 0.0608604 -1.83559e-19)
(-0.042297 0.061031 -8.78813e-20)
(-0.0401157 0.059187 -1.78734e-19)
(-0.0352473 0.0557655 -1.73711e-19)
(-0.0275052 0.0511754 1.49622e-19)
(-0.0166624 0.0458387 -1.66685e-19)
(-0.00242613 0.0403037 -1.95325e-20)
(0.0153919 0.0354234 4.90057e-20)
(0.0358512 0.0323389 -2.05258e-20)
(0.0638709 0.0361571 1.72744e-19)
(-0.00709891 0.0119977 -2.56033e-20)
(-0.0185905 0.0302349 -1.7388e-19)
(-0.0281089 0.0436621 -1.46573e-19)
(-0.0352449 0.052914 -3.06316e-20)
(-0.0398584 0.0585441 2.74755e-20)
(-0.0418312 0.0611147 -5.42199e-21)
(-0.041049 0.0611614 -3.33174e-20)
(-0.0373881 0.0591719 -2.57612e-20)
(-0.0306899 0.0555835 9.06987e-20)
(-0.0207448 0.0507959 -6.79227e-20)
(-0.00729094 0.0452105 1.95875e-19)
(0.0100206 0.039348 -2.10788e-19)
(0.0314729 0.0340586 -1.54833e-19)
(0.0559157 0.0304788 1.08374e-19)
(0.0896953 0.034982 -1.31411e-19)
(-0.00756468 0.012101 -6.6574e-20)
(-0.0196325 0.0304264 2.12783e-20)
(-0.0293359 0.0438587 1.24919e-19)
(-0.0362833 0.0530496 -6.4797e-20)
(-0.0403364 0.0585755 1.03086e-19)
(-0.0413799 0.0610175 -3.38741e-20)
(-0.0392987 0.0609258 -1.73774e-19)
(-0.0339602 0.0587971 2.26796e-19)
(-0.0251875 0.0550706 9.99195e-20)
(-0.0127415 0.050139 -2.81117e-19)
(0.00367778 0.0443819 2.76367e-20)
(0.024477 0.038283 -5.83713e-21)
(0.0500503 0.0326706 3.14715e-19)
(0.0789631 0.0285509 6.41326e-20)
(0.119327 0.0338879 1.79597e-19)
(-0.00802583 0.0121628 2.77964e-21)
(-0.0206401 0.0304932 1.49632e-19)
(-0.0304759 0.0438536 -7.16373e-20)
(-0.0371557 0.0529175 9.8404e-20)
(-0.0405394 0.0582877 1.85518e-19)
(-0.0405104 0.0605674 2.3587e-19)
(-0.0369473 0.0603239 7.06754e-20)
(-0.0297016 0.0580652 -1.52732e-20)
(-0.0185707 0.0542362 2.83914e-19)
(-0.00327942 0.0492267 3.16351e-19)
(0.0165149 0.0433973 2.8624e-20)
(0.0412754 0.0371906 3.01822e-19)
(0.0715148 0.0313981 -3.39212e-22)
(0.105443 0.0267336 -2.58876e-19)
(0.153239 0.0331319 -1.74016e-19)
(-0.00848031 0.0121848 8.09837e-20)
(-0.0216028 0.0304372 1.64361e-19)
(-0.0315062 0.0436483 2.72616e-20)
(-0.0378234 0.0525183 1.89758e-19)
(-0.0404095 0.0576811 -2.26281e-19)
(-0.0391414 0.0597654 -2.92981e-20)
(-0.0338847 0.0593581 -4.79839e-20)
(-0.0244676 0.0569821 3.42126e-19)
(-0.010653 0.0530928 -4.65243e-19)
(0.00787775 0.0480836 -3.14936e-19)
(0.0315137 0.0423028 1.19184e-19)
(0.0607705 0.0361552 -1.49213e-19)
(0.0962711 0.0303897 -4.02847e-20)
(0.135824 0.0252324 1.2184e-19)
(0.191845 0.0330391 4.31379e-19)
(-0.00892591 0.0121682 7.7061e-20)
(-0.0225091 0.0302601 -3.00053e-19)
(-0.0324014 0.0432444 6.52127e-20)
(-0.0382436 0.0518539 -2.92816e-19)
(-0.0398819 0.0567584 1.46427e-19)
(-0.0371821 0.0586156 -9.7276e-20)
(-0.0299891 0.0580347 -1.0563e-19)
(-0.0180991 0.0555584 -2.53092e-19)
(-0.00123152 0.0516577 8.99572e-20)
(0.0209837 0.0467382 1.28593e-19)
(0.0489836 0.0411466 -6.95111e-21)
(0.0833301 0.0352611 1.22979e-19)
(0.124719 0.0297931 -6.41513e-20)
(0.170579 0.0242734 -2.23154e-20)
(0.235425 0.0339913 -2.99606e-20)
(-0.0093601 0.0121138 -3.39077e-19)
(-0.0233459 0.0299632 1.36765e-20)
(-0.033133 0.042644 -2.7745e-20)
(-0.0383681 0.0509277 4.83157e-20)
(-0.038885 0.0555248 -2.19614e-19)
(-0.0345322 0.0571253 2.6542e-19)
(-0.0251266 0.0563654 -7.88524e-21)
(-0.0104228 0.0538111 -3.23763e-19)
(0.00991219 0.0499557 -2.9758e-19)
(0.0363063 0.0452258 -2.53289e-19)
(0.0692432 0.0399802 -1.14319e-19)
(0.109322 0.0345913 -7.25686e-20)
(0.157228 0.0297433 -2.4159e-19)
(0.210164 0.0240968 -1.63396e-19)
(0.284036 0.0363896 1.94317e-19)
(-0.00977987 0.0120222 1.93907e-19)
(-0.0240984 0.0295473 1.54281e-19)
(-0.033669 0.0418495 1.8123e-19)
(-0.0381432 0.0497443 -5.39524e-20)
(-0.0373389 0.053988 9.65996e-20)
(-0.0310812 0.0553073 -1.33448e-19)
(-0.0191508 0.0543688 6.79751e-20)
(-0.00125168 0.0517661 4.19037e-19)
(0.0230098 0.0480212 1.5839e-19)
(0.0541229 0.0435917 3.3688e-19)
(0.0926111 0.0388622 1.26938e-19)
(0.139099 0.0342303 -2.2986e-20)
(0.194114 0.0303522 2.15868e-19)
(0.254991 0.0249578 -2.27463e-19)
(0.33742 0.0405908 -2.53371e-19)
(-0.0101816 0.0118937 -1.71151e-19)
(-0.0247494 0.0290129 -2.75411e-19)
(-0.0339733 0.0408637 5.75597e-20)
(-0.0375091 0.0483099 -1.08773e-19)
(-0.0351555 0.0521595 1.28726e-19)
(-0.026708 0.0531798 -2.67416e-19)
(-0.011903 0.0520712 7.72216e-20)
(0.00961416 0.0494599 -1.19055e-19)
(0.0383035 0.0459019 -1.12983e-19)
(0.0747152 0.0418952 -1.51861e-19)
(0.119397 0.0378633 -2.58127e-19)
(0.172979 0.0342696 2.58161e-20)
(0.235613 0.0317016 2.23116e-19)
(0.305369 0.0271652 1.78887e-19)
(0.394845 0.0469119 1.21277e-19)
(-0.0105607 0.0117278 1.2539e-19)
(-0.0252792 0.0283602 -2.02276e-20)
(-0.034005 0.0396897 9.20626e-20)
(-0.0363994 0.0466328 2.92646e-19)
(-0.032238 0.0500548 -3.15845e-19)
(-0.0212808 0.0507674 2.80288e-19)
(-0.00321295 0.0495087 -2.62659e-19)
(0.0223854 0.0469413 4.22532e-20)
(0.0560422 0.0436609 1.12486e-19)
(0.098361 0.0402126 1.01354e-20)
(0.149887 0.0370688 1.72215e-19)
(0.211232 0.0348064 1.79554e-19)
(0.281882 0.0338363 -1.23376e-19)
(0.361431 0.0311858 -2.91875e-19)
(0.454856 0.0557533 4.14488e-19)
(-0.0109119 0.0115237 -7.80429e-20)
(-0.0256652 0.0275889 1.98898e-19)
(-0.0337183 0.0383308 -1.21581e-19)
(-0.0347404 0.0447233 -8.23327e-20)
(-0.0284805 0.0476938 1.67501e-19)
(-0.0146578 0.0481022 -3.34338e-20)
(0.00709992 0.0467279 1.03031e-19)
(0.0372802 0.0442737 6.0585e-19)
(0.0764745 0.0413786 7.85427e-20)
(0.125323 0.0386386 4.0102e-20)
(0.18433 0.036578 -7.38343e-20)
(0.254053 0.035928 -1.07465e-19)
(0.333066 0.0367473 -8.78884e-20)
(0.423234 0.0376512 1.21269e-19)
(0.515528 0.0670218 -6.30348e-19)
(-0.0112283 0.0112801 2.45631e-19)
(-0.0258811 0.0266978 2.10866e-19)
(-0.033062 0.0367916 6.92981e-20)
(-0.0324513 0.0425947 -1.6005e-20)
(-0.0237686 0.0451014 1.02769e-19)
(-0.00668775 0.0452239 -7.82597e-20)
(0.0192241 0.0437864 -4.75184e-20)
(0.0545197 0.041535 -7.38368e-20)
(0.0998402 0.0391535 -3.36505e-19)
(0.15583 0.0372875 8.0204e-20)
(0.222899 0.0365022 3.13593e-20)
(0.30149 0.037693 3.42665e-20)
(0.389246 0.0403774 2.58722e-19)
(0.490875 0.0468126 -1.64409e-20)
(0.57709 0.0772114 1.08071e-19)
(-0.0115016 0.010995 -3.89287e-19)
(-0.0258973 0.025686 -1.50258e-19)
(-0.0319793 0.0350774 -3.86203e-20)
(-0.0294443 0.0402626 -3.15897e-21)
(-0.0179799 0.0423076 -1.78122e-19)
(0.00278808 0.0421805 8.10306e-20)
(0.0333524 0.0407536 8.01488e-21)
(0.0743216 0.0388184 2.35715e-19)
(0.126359 0.0371029 -8.78063e-20)
(0.190062 0.0362943 -8.0236e-20)
(0.265659 0.0369724 -1.06988e-20)
(0.353358 0.0401559 -6.9047e-21)
(0.450012 0.0446878 -2.40046e-19)
(0.563035 0.0573807 6.16809e-20)
(0.646107 0.0787322 -1.65287e-19)
(-0.0117217 0.0106661 2.85285e-19)
(-0.0256797 0.0245523 8.67439e-20)
(-0.030408 0.0331947 -1.75846e-19)
(-0.0256247 0.037746 8.18502e-20)
(-0.0109851 0.0393479 -3.18056e-19)
(0.0139336 0.0390282 6.25531e-20)
(0.0496779 0.0377099 1.08582e-19)
(0.096892 0.0362315 -2.45013e-19)
(0.156218 0.035361 3.28223e-19)
(0.22813 0.0358143 1.89247e-19)
(0.312558 0.0381502 1.25723e-19)
(0.409266 0.043435 3.58956e-20)
(0.514361 0.0497441 -3.88327e-21)
(0.634785 0.0659377 -6.30358e-20)
(0.725557 0.075044 2.89202e-19)
(-0.0118772 0.0102911 -3.22107e-19)
(-0.0251901 0.0232957 -2.86689e-19)
(-0.0282798 0.0311515 2.63585e-20)
(-0.0208918 0.035067 8.30663e-20)
(-0.00264947 0.0362634 2.97461e-19)
(0.0269146 0.0358313 -9.81314e-20)
(0.0683875 0.0347468 -3.78631e-19)
(0.122417 0.0338943 -2.92703e-19)
(0.18956 0.0340753 -1.82575e-19)
(0.270064 0.0360157 -3.39076e-19)
(0.363416 0.0402158 1.32486e-19)
(0.468686 0.0476941 7.45145e-20)
(0.581264 0.0558932 6.80464e-20)
(0.705909 0.0741325 1.55382e-19)
(0.802339 0.0790813 8.26018e-20)
(-0.0119548 0.00986716 2.15373e-19)
(-0.0243867 0.0219158 1.93584e-19)
(-0.0255215 0.0289578 7.90728e-20)
(-0.0151396 0.0322517 -2.29965e-19)
(0.00716463 0.0331013 -1.48877e-19)
(0.0418948 0.0326622 1.08077e-19)
(0.0896556 0.0319646 1.45945e-19)
(0.15105 0.0319362 2.85247e-19)
(0.226468 0.0334004 8.50911e-20)
(0.315796 0.037068 4.94652e-20)
(0.417914 0.043341 -2.93671e-19)
(0.530967 0.0530898 -2.15933e-19)
(0.649606 0.0633595 3.42953e-20)
(0.775931 0.0829078 -7.06458e-20)
(0.874702 0.0872693 1.76947e-19)
(-0.0119392 0.00939177 6.44069e-20)
(-0.0232233 0.0204134 -1.41764e-19)
(-0.0220551 0.0266263 -1.39546e-19)
(-0.00825836 0.0293305 2.70301e-20)
(0.0185955 0.0299144 1.23355e-19)
(0.0590311 0.0296007 2.19691e-19)
(0.113636 0.029472 -1.28493e-19)
(0.182904 0.0304928 1.29346e-19)
(0.266948 0.0334909 5.33134e-20)
(0.365142 0.0391284 -2.75926e-19)
(0.475586 0.0476642 5.50415e-20)
(0.595313 0.0597183 2.90621e-20)
(0.718215 0.0721328 -8.56741e-20)
(0.843856 0.0924606 -1.47954e-19)
(0.942338 0.0974844 -3.29962e-19)
(-0.0118134 0.00886267 4.04014e-20)
(-0.0216504 0.0187909 -5.48868e-20)
(-0.0177991 0.0241726 1.37913e-19)
(-0.000136419 0.0263384 -1.22866e-19)
(0.0317787 0.0267624 2.24386e-20)
(0.0784681 0.0267337 -5.69178e-20)
(0.140454 0.0273836 -7.32822e-20)
(0.218034 0.0297014 4.3109e-20)
(0.310917 0.034494 1.62391e-20)
(0.417792 0.0423304 2.56033e-19)
(0.53581 0.0532748 1.08671e-19)
(0.660787 0.0676019 1.21532e-19)
(0.785885 0.082074 3.26827e-19)
(0.908591 0.10276 -9.6419e-20)
(1.00428 0.108829 1.81923e-19)
(-0.0115587 0.00827825 -1.21755e-19)
(-0.0196151 0.0170528 2.6233e-19)
(-0.0126688 0.0216163 7.39342e-20)
(0.00933813 0.0233159 3.27604e-19)
(0.0468435 0.023711 7.69629e-20)
(0.100333 0.0241545 -2.7497e-19)
(0.170197 0.0258184 1.18372e-19)
(0.256432 0.0296975 2.64655e-19)
(0.358189 0.0365427 -2.39916e-19)
(0.473301 0.0467752 -6.0487e-20)
(0.597827 0.0602057 -4.53655e-21)
(0.726352 0.0766895 -1.36151e-19)
(0.851436 0.0929743 -1.8717e-19)
(0.969137 0.113647 1.78841e-19)
(1.05985 0.120666 6.70669e-20)
(-0.0111548 0.00763781 -4.18656e-20)
(-0.0170619 0.0152064 -1.46332e-19)
(-0.00657802 0.0189815 2.07729e-19)
(0.020275 0.0203096 -1.44915e-19)
(0.0639093 0.0208329 3.6664e-20)
(0.124727 0.0219626 -3.47978e-21)
(0.202906 0.0248972 1.67693e-19)
(0.298012 0.0306099 -2.10118e-19)
(0.408473 0.0397492 5.62427e-19)
(0.531098 0.0525238 1.17308e-19)
(0.660767 0.0684303 -1.08834e-19)
(0.790933 0.0868615 9.39633e-21)
(0.91379 0.104586 -3.01935e-20)
(1.02469 0.124887 3.77935e-20)
(1.10867 0.132516 -2.54945e-19)
(-0.0105802 0.00694184 2.61632e-20)
(-0.0139332 0.0132626 -1.73273e-19)
(0.000559455 0.0162973 -1.61298e-19)
(0.032779 0.0173725 -9.90157e-20)
(0.0830808 0.0182076 -1.70794e-19)
(0.151723 0.0202621 -8.54386e-20)
(0.238568 0.0247404 -2.43521e-19)
(0.342604 0.0325564 8.47067e-20)
(0.461365 0.0441987 -3.97589e-19)
(0.590499 0.0595923 -7.7499e-20)
(0.723695 0.0778655 -2.8992e-19)
(0.85349 0.0979437 2.08598e-19)
(0.972044 0.116648 1.66475e-19)
(1.07471 0.136232 1.03843e-22)
(1.1507 0.144037 4.02635e-19)
(-0.0098121 0.0061923 2.10149e-20)
(-0.0101703 0.0112361 1.74833e-19)
(0.00882859 0.0135992 2.56953e-19)
(0.0469478 0.0145647 3.30327e-20)
(0.104445 0.0159212 -1.24862e-19)
(0.181357 0.0191608 1.09271e-19)
(0.27711 0.0254647 1.14501e-20)
(0.389953 0.0356389 -1.1663e-19)
(0.516362 0.049944 -9.7828e-20)
(0.650739 0.0679504 -9.64876e-20)
(0.785664 0.0883795 2.43632e-19)
(0.91308 0.109726 1.60385e-19)
(1.02551 0.12891 -1.90651e-19)
(1.1189 0.147454 1.42069e-19)
(1.18617 0.155004 1.41525e-20)
(-0.00882712 0.00539285 5.61213e-20)
(-0.00571434 0.0091464 -3.84668e-19)
(0.0183111 0.0109288 -2.68872e-19)
(0.0628684 0.0119535 -1.56793e-20)
(0.128064 0.0140658 5.76171e-20)
(0.213622 0.0187684 1.46619e-19)
(0.318392 0.02718 -5.06686e-20)
(0.439715 0.0399385 9.59771e-20)
(0.572872 0.0570018 2.35779e-19)
(0.710999 0.0775225 8.42812e-20)
(0.845766 0.0998032 8.93376e-20)
(0.968916 0.121983 -3.81659e-20)
(1.07374 0.141146 -1.00932e-19)
(1.15724 0.15837 -3.2914e-19)
(1.21551 0.165289 -1.79164e-20)
(-0.00760121 0.00454909 -2.06871e-19)
(-0.000507177 0.00701776 4.21464e-19)
(0.0290836 0.00833478 -8.00332e-20)
(0.0806142 0.00961374 -2.52018e-20)
(0.153975 0.012739 -8.57679e-20)
(0.248465 0.0191941 -1.60759e-19)
(0.362205 0.0299852 1.11383e-19)
(0.491466 0.0455113 -2.02016e-19)
(0.630234 0.0653515 -8.02033e-20)
(0.770458 0.088194 -5.75097e-20)
(0.903185 0.111945 -1.81311e-19)
(1.0204 0.134495 3.97138e-20)
(1.11653 0.153172 1.2711e-19)
(1.1899 0.168844 1.81972e-20)
(1.23929 0.174842 -2.6229e-19)
(-0.00611018 0.00366869 5.51432e-20)
(0.00550746 0.0048799 2.86577e-20)
(0.0412155 0.00587265 5.1995e-19)
(0.100242 0.00762683 2.2876e-19)
(0.182182 0.0120423 9.8199e-20)
(0.285783 0.020544 1.64236e-20)
(0.408273 0.0339644 -2.94548e-19)
(0.544709 0.0523851 3.30891e-19)
(0.687751 0.0749353 1.74542e-20)
(0.828328 0.0998192 7.47047e-20)
(0.957236 0.124605 -6.81427e-20)
(1.06713 0.147063 -2.08672e-19)
(1.15386 0.164846 -3.08389e-19)
(1.21723 0.178798 4.04047e-19)
(1.25816 0.183673 5.59546e-20)
(-0.00433003 0.00276162 -2.82017e-21)
(0.0123827 0.00276803 -2.05083e-19)
(0.0547668 0.00360506 -1.94649e-19)
(0.121789 0.0060806 -1.61807e-19)
(0.212653 0.0120793 1.10005e-19)
(0.325417 0.0229179 -6.79138e-20)
(0.456255 0.0391832 2.15474e-19)
(0.598896 0.0605573 -1.67617e-19)
(0.744716 0.0856628 5.85931e-20)
(0.883894 0.112233 -1.24409e-19)
(1.00739 0.13759 2.69275e-20)
(1.10892 0.159519 -8.83467e-20)
(1.18593 0.176073 8.38816e-20)
(1.23967 0.188195 -2.31725e-19)
(1.27278 0.191828 -8.27388e-20)
(-0.00223738 0.00184012 -2.96415e-19)
(0.0201674 0.000722875 2.62876e-19)
(0.0697862 0.00160122 -3.12367e-20)
(0.145269 0.00506788 1.17043e-19)
(0.24532 0.0129533 -1.83253e-19)
(0.367157 0.0264059 1.6123e-19)
(0.50575 0.0456854 -1.84321e-19)
(0.653438 0.0699948 -1.0858e-19)
(0.800448 0.0974165 3.24238e-20)
(0.936547 0.125262 -9.75334e-20)
(1.05328 0.150723 -1.3998e-19)
(1.14573 0.171732 3.88182e-19)
(1.21302 0.186797 -4.74915e-20)
(1.25775 0.197039 2.47634e-19)
(1.2838 0.199381 -5.65721e-20)
(0.000190138 0.000918841 5.51759e-20)
(0.0289044 -0.00120937 -4.26773e-20)
(0.0863082 -6.36482e-05 -2.60572e-19)
(0.170669 0.00468509 -3.65478e-20)
(0.280074 0.0147649 3.17915e-19)
(0.410741 0.0310847 -2.21604e-19)
(0.556311 0.0534906 3.24459e-19)
(0.707739 0.0806364 -1.65385e-19)
(0.85432 0.11006 2.0165e-19)
(0.985803 0.138736 1.53706e-19)
(1.09471 0.163854 -9.99269e-20)
(1.1777 0.183608 -1.497e-19)
(1.23554 0.197 1.67383e-19)
(1.27199 0.20536 -1.82139e-19)
(1.29181 0.206418 -9.53765e-20)
(0.00297341 1.48056e-05 2.06969e-19)
(0.0386299 -0.00297737 -3.28543e-20)
(0.104352 -0.00130925 1.42812e-19)
(0.19795 0.00503031 -1.72687e-19)
(0.316762 0.0176089 -3.92853e-19)
(0.455858 0.0370152 5.70119e-20)
(0.607458 0.0625932 -8.9686e-20)
(0.761213 0.0923959 2.99089e-19)
(0.905781 0.123448 -9.77132e-20)
(1.03131 0.152495 4.00086e-21)
(1.13162 0.176858 1.32074e-19)
(1.20506 0.195088 1.0818e-19)
(1.25392 0.206692 -2.5486e-19)
(1.28291 0.213208 1.48975e-19)
(1.29734 0.213029 1.71688e-19)
(0.00613133 -0.000852651 -8.99202e-20)
(0.0493712 -0.0045251 -4.42819e-20)
(0.123917 -0.00205135 -1.34854e-19)
(0.227042 0.00620122 8.89062e-20)
(0.355194 0.0215715 1.80611e-19)
(0.502158 0.0442392 -1.86236e-20)
(0.658694 0.072963 1.67516e-19)
(0.813307 0.105168 -1.70239e-19)
(0.954376 0.137431 1.81308e-19)
(1.07284 0.166399 -1.91269e-19)
(1.16407 0.189645 2.09137e-19)
(1.22813 0.206144 -1.95361e-19)
(1.26864 0.215902 -6.58201e-20)
(1.29101 0.220643 6.91016e-20)
(1.30083 0.219299 2.20946e-20)
(0.00968027 -0.00166197 6.94024e-20)
(0.0611462 -0.00579242 -7.93466e-21)
(0.144987 -0.0022032 -1.78047e-19)
(0.257845 0.00829269 1.33855e-19)
(0.395139 0.0267274 5.45718e-20)
(0.549259 0.0527782 5.21396e-20)
(0.709521 0.084547 -5.39564e-20)
(0.863522 0.118836 -3.81626e-20)
(0.999752 0.151867 -3.16687e-19)
(1.1103 0.180327 1.92601e-19)
(1.19224 0.202149 -1.22898e-19)
(1.24727 0.216773 -2.53549e-20)
(1.28013 0.224675 3.99754e-19)
(1.29674 0.227731 -3.06002e-19)
(1.30268 0.225309 -2.08967e-19)
(0.0136336 -0.00238956 -1.20839e-20)
(0.0739614 -0.00671589 1.0402e-19)
(0.16752 -0.00167715 1.70531e-19)
(0.290226 0.0113944 -2.20136e-20)
(0.436334 0.0331372 -1.23421e-19)
(0.596756 0.0626326 1.26959e-19)
(0.759458 0.0972727 -1.29539e-19)
(0.911427 0.133273 -7.22216e-20)
(1.04166 0.166624 2.09938e-19)
(1.14369 0.194185 1.46019e-19)
(1.21636 0.214333 2.47591e-20)
(1.26286 0.226991 1.02694e-19)
(1.28885 0.233065 -2.08007e-19)
(1.30047 0.234537 1.3305e-19)
(1.30319 0.231127 2.34896e-19)
(0.0180012 -0.00300997 -4.31562e-20)
(0.0878115 -0.00722962 -2.87945e-19)
(0.191455 -0.000386364 -1.80662e-19)
(0.324023 0.0155885 -1.80215e-19)
(0.478484 0.0408457 -1.20608e-19)
(0.644237 0.0737823 6.19515e-20)
(0.808056 0.111052 2.2612e-19)
(0.956666 0.148355 -7.56075e-20)
(1.07995 0.181585 1.2917e-19)
(1.1731 0.207899 -2.10044e-20)
(1.23671 0.226178 3.26854e-20)
(1.2753 0.236827 -5.74925e-20)
(1.29517 0.241129 2.12429e-20)
(1.30254 0.241122 -3.08629e-20)
(1.30263 0.236814 -8.4394e-20)
(0.0227888 -0.00349623 6.93051e-20)
(0.102678 -0.00726638 3.05647e-19)
(0.216709 0.00175332 -6.34502e-20)
(0.359047 0.0209473 1.45408e-19)
(0.521273 0.0498803 2.7947e-20)
(0.691292 0.0861875 2.1416e-20)
(0.854909 0.125786 -1.08904e-19)
(0.998963 0.16396 1.25967e-19)
(1.11456 0.196649 -1.8556e-19)
(1.19869 0.221417 -9.82227e-20)
(1.25361 0.237686 -3.30323e-20)
(1.28494 0.246319 -2.30292e-20)
(1.29945 0.248922 -8.34424e-20)
(1.30324 0.24754 -1.08651e-20)
(1.30118 0.242417 4.01033e-20)
(0.0279977 -0.00382012 -2.19783e-20)
(0.118528 -0.00675869 1.41708e-20)
(0.243174 0.00482152 1.74367e-19)
(0.395083 0.0275311 1.67766e-19)
(0.56437 0.0602502 6.87858e-20)
(0.737524 0.0997916 -1.20484e-19)
(0.899663 0.141369 3.92112e-20)
(1.03812 0.179975 1.00944e-19)
(1.14551 0.211733 -1.49131e-20)
(1.22065 0.234705 1.87391e-20)
(1.26736 0.248868 3.77985e-20)
(1.29214 0.255511 1.03614e-20)
(1.30199 0.256497 -8.15777e-20)
(1.3028 0.253839 -2.71545e-21)
(1.299 0.247975 8.80369e-20)
(0.0336243 -0.00395263 1.44218e-20)
(0.135316 -0.00564008 -5.90429e-20)
(0.270724 0.00889147 -1.00049e-19)
(0.431893 0.0353868 -1.99701e-19)
(0.607437 0.0719469 -2.10538e-20)
(0.782561 0.114524 9.45121e-20)
(0.942023 0.157693 -4.8072e-20)
(1.07402 0.196294 -1.24961e-19)
(1.17287 0.22677 -1.1453e-19)
(1.23923 0.247744 5.29235e-20)
(1.27829 0.259747 -2.87214e-20)
(1.29722 0.264446 -1.32763e-19)
(1.30306 0.263903 1.26486e-19)
(1.3014 0.260059 1.23963e-19)
(1.29621 0.253515 -5.97624e-20)
(0.0396597 -0.00386438 6.38399e-21)
(0.15298 -0.00384642 -1.17327e-19)
(0.299211 0.0140282 5.09523e-20)