/*--------------------------------*- C++ -*----------------------------------*\
  =========                 |
  \\      /  F ield         | OpenFOAM: The Open Source CFD Toolbox
   \\    /   O peration     | Website:  https://openfoam.org
    \\  /    A nd           | Version:  7
     \\/     M anipulation  |
\*---------------------------------------------------------------------------*/
FoamFile
{
    version     2.0;
    format      ascii;
    class       volVectorField;
    location    "280";
    object      U;
}
// * * * * * * * * * * * * * * * * * * * * * * * * * * * * * * * * * * * * * //

dimensions      [0 1 -1 0 0 0 0];

internalField   nonuniform List<vector> 
4575
(
(0.035258 -0.00642001 3.94206e-20)
(0.126774 -0.0158059 4.13781e-20)
(0.240018 -0.0157416 1.54756e-19)
(0.0392608 -0.00644587 4.61029e-20)
(0.138378 -0.0151271 1.68788e-19)
(0.258753 -0.0135228 1.33227e-19)
(0.396083 -0.00447131 3.7281e-20)
(0.544867 0.01128 3.4699e-19)
(0.0434408 -0.0063489 -2.08688e-19)
(0.150366 -0.0140863 -7.58297e-20)
(0.277924 -0.0107307 -2.47108e-19)
(0.421447 0.000526382 -1.35457e-19)
(0.574931 0.0186584 -7.00393e-20)
(0.730876 0.042007 -2.19172e-19)
(0.881106 0.0683282 -1.36643e-19)
(1.01793 0.0951825 2.44133e-19)
(0.0477898 -0.00611861 6.86292e-20)
(0.162709 -0.0126606 -1.14565e-19)
(0.297472 -0.0073398 1.93276e-19)
(0.44704 0.0062816 9.02692e-20)
(0.604916 0.0268774 -1.28801e-19)
(0.763169 0.0524793 1.57729e-19)
(0.913412 0.0805731 3.93158e-20)
(1.04808 0.108548 -7.06573e-20)
(1.16161 0.134069 8.4536e-20)
(1.25115 0.155409 -6.5669e-20)
(1.31667 0.17163 -1.8463e-19)
(1.36039 0.18256 -1.80915e-20)
(0.0522981 -0.00574486 -3.40883e-20)
(0.175371 -0.0108285 1.85306e-20)
(0.31733 -0.00332766 -1.75533e-19)
(0.472767 0.0128088 1.12524e-19)
(0.634703 0.0359367 1.04893e-19)
(0.794823 0.0637708 -1.48994e-19)
(0.944611 0.0935372 6.82756e-20)
(1.07671 0.122481 -1.32419e-19)
(1.18608 0.148261 -1.87763e-19)
(1.27057 0.169261 6.76032e-20)
(1.33085 0.184727 1.23738e-20)
(1.36973 0.194683 1.04722e-19)
(1.39126 0.199729 1.62959e-19)
(1.39979 0.200776 -7.83286e-21)
(1.39937 0.198813 2.78714e-20)
(0.0569546 -0.00521794 -3.79526e-20)
(0.188313 -0.00857048 -4.76074e-20)
(0.337432 0.0013248 1.85323e-19)
(0.498532 0.0201177 -2.31029e-20)
(0.664177 0.0458305 1.11159e-21)
(0.825721 0.0758583 -1.00728e-19)
(0.974602 0.107183 -1.78967e-20)
(1.10376 0.136937 7.10334e-20)
(1.20875 0.162806 2.41763e-19)
(1.28814 0.183318 -7.73369e-20)
(1.34329 0.197916 1.32098e-20)
(1.37756 0.20683 4.18892e-20)
(1.39527 0.210821 -8.14509e-20)
(1.40091 0.210905 -5.24237e-20)
(1.39844 0.208125 1.39165e-20)
(1.39101 0.203394 6.99493e-20)
(1.38086 0.197425 -1.74654e-20)
(1.36943 0.190749 -1.08212e-21)
(1.3575 0.18369 6.30953e-20)
(0.0617468 -0.00452872 6.60661e-20)
(0.201496 -0.00586885 1.32731e-19)
(0.357704 0.00663307 9.11343e-20)
(0.524236 0.0282134 -4.99174e-20)
(0.693221 0.0565477 1.84425e-19)
(0.855748 0.0887141 1.08819e-19)
(1.00329 0.121471 -1.62562e-19)
(1.12919 0.15187 -5.65266e-20)
(1.22961 0.177662 8.11202e-22)
(1.3039 0.197544 -4.67773e-20)
(1.35407 0.211174 -1.34879e-19)
(1.38394 0.218986 2.23512e-20)
(1.39812 0.221895 2.36946e-22)
(1.40113 0.221014 -1.40643e-19)
(1.39685 0.217422 6.4396e-20)
(1.38825 0.212032 -3.46564e-20)
(1.37741 0.205535 -1.53258e-19)
(1.3656 0.198432 7.42089e-20)
(1.35348 0.190995 -1.57577e-19)
(1.34129 0.183227 6.88692e-20)
(0.0666608 -0.00366873 -2.32046e-20)
(0.214874 -0.00270829 -5.70977e-20)
(0.378074 0.0126088 -9.49308e-20)
(0.549779 0.0370957 -4.57057e-21)
(0.721725 0.0680723 -8.93337e-21)
(0.884799 0.102306 -1.02599e-19)
(1.03061 0.136358 2.36915e-20)
(1.15294 0.167234 2.20946e-20)
(1.24868 0.192786 -4.55894e-20)
(1.3179 0.211906 3.71817e-21)
(1.36324 0.224479 7.10024e-20)
(1.38898 0.231138 -9.35833e-21)
(1.3999 0.232947 5.39664e-20)
(1.40053 0.2311 2.40945e-20)
(1.39465 0.226704 -1.32745e-19)
(1.38505 0.220662 1.0103e-20)
(1.37363 0.213641 8.12181e-20)
(1.36152 0.206108 -1.94558e-20)
(1.34926 0.198291 3.58498e-21)
(1.33701 0.19029 -1.34511e-20)
(0.0716815 -0.00263027 -2.11828e-20)
(0.228401 0.000924046 -2.01974e-20)
(0.398466 0.0192598 -3.57499e-20)
(0.575064 0.0467598 -2.34903e-20)
(0.74958 0.0803832 -6.12793e-20)
(0.912779 0.116599 7.07771e-20)
(1.05648 0.151799 1.39768e-19)
(1.17501 0.182983 4.86115e-20)
(1.26598 0.208138 2.4837e-20)
(1.33019 0.226373 -5.904e-20)
(1.3709 0.237808 -6.22605e-22)
(1.39275 0.243274 3.82094e-20)
(1.40067 0.24397 -4.90461e-20)
(1.39917 0.241159 1.88278e-20)
(1.39188 0.235967 6.31086e-20)
(1.38142 0.229281 -2.18984e-20)
(1.36953 0.221738 -3.88095e-20)
(1.35718 0.213774 -3.60475e-20)
(1.34482 0.205573 1.28862e-19)
(1.33255 0.197329 4.56366e-20)
(0.0767928 -0.00140652 -3.76443e-20)
(0.242029 0.00503838 4.45364e-20)
(0.418801 0.0265894 -1.01018e-20)
(0.599992 0.0571958 3.18374e-20)
(0.776685 0.0934545 -2.85044e-20)
(0.939599 0.131554 -1.73694e-20)
(1.08085 0.167748 -6.77949e-20)
(1.19537 0.199072 7.88152e-21)
(1.28152 0.223679 1.90788e-20)
(1.34083 0.240916 4.27993e-20)
(1.37711 0.251142 -1.66832e-20)
(1.39532 0.255382 -1.30427e-20)
(1.4005 0.254957 1.20247e-20)
(1.3971 0.251188 -2.11684e-20)
(1.38858 0.245208 4.81762e-20)
(1.3774 0.237885 3.20431e-20)
(1.36513 0.229822 -5.51526e-21)
(1.3526 0.221423 -3.62089e-21)
(1.34018 0.212833 -3.4733e-20)
(1.3279 0.204337 -4.3923e-20)
(0.0819772 8.40808e-06 8.09998e-21)
(0.255709 0.00964212 -1.38839e-20)
(0.439003 0.0345972 9.47839e-21)
(0.624468 0.0683889 -1.29857e-20)
(0.802944 0.107256 -4.9644e-20)
(0.96518 0.147127 2.2918e-20)
(1.10367 0.184159 1.11851e-20)
(1.21402 0.215455 -5.27674e-20)
(1.29534 0.239371 -3.31782e-20)
(1.34987 0.255507 -3.16219e-21)
(1.38195 0.264464 -4.6081e-20)
(1.39678 0.267452 4.75836e-20)
(1.39946 0.265902 -7.75429e-23)
(1.39436 0.261182 -6.34075e-21)
(1.38478 0.254424 -1.2194e-20)
(1.373 0.246468 6.00076e-21)
(1.36042 0.237887 4.16723e-21)
(1.34777 0.229049 -1.68017e-21)
(1.33532 0.220067 -1.27787e-20)
(1.32306 0.211309 1.57572e-20)
(0.0872166 0.00161933 2.6959e-21)
(0.269388 0.0147397 9.13417e-21)
(0.458994 0.0432781 5.08155e-21)
(0.648401 0.0803199 -2.35558e-21)
(0.828265 0.121754 3.27423e-20)
(0.989451 0.163275 -7.29046e-21)
(1.12492 0.200981 1.15485e-20)
(1.23095 0.232088 2.54589e-20)
(1.30747 0.255177 -4.57919e-21)
(1.35739 0.27012 1.13756e-21)
(1.38548 0.277757 1.26437e-20)
(1.39717 0.279472 -6.74214e-21)
(1.3976 0.276798 8.7737e-21)
(1.391 0.271136 1.57708e-21)
(1.38052 0.263608 -1.66396e-20)
(1.36824 0.255025 8.03145e-22)
(1.35543 0.245926 2.16841e-20)
(1.3427 0.236644 -4.55615e-21)
(1.33026 0.227266 6.74166e-21)
(1.31802 0.218236 -7.64775e-21)
(0.0924924 0.00342999 1.09866e-21)
(0.283016 0.0203327 1.34323e-20)
(0.478697 0.0526232 7.24605e-21)
(0.6717 0.0929647 -1.46456e-21)
(0.852566 0.136909 3.01206e-20)
(1.01235 0.179951 -8.47332e-21)
(1.14455 0.218167 1.58196e-20)
(1.24619 0.248925 2.1198e-20)
(1.31797 0.271062 -4.36635e-21)
(1.36343 0.284728 9.78506e-22)
(1.38776 0.291002 1.4335e-20)
(1.39658 0.291433 -5.77512e-21)
(1.39497 0.287639 5.73651e-21)
(1.38706 0.281044 -1.4194e-21)
(1.3758 0.272754 -1.36014e-20)
(1.36312 0.263548 -4.01045e-22)
(1.35014 0.25393 2.15754e-20)
(1.33738 0.244201 -4.25704e-21)
(1.32498 0.234422 7.99058e-21)
(1.31279 0.225112 -8.66962e-21)
(0.097785 0.005443 9.60178e-21)
(0.29654 0.0264195 -1.72435e-20)
(0.498036 0.0626191 8.74261e-21)
(0.694282 0.106295 -7.02808e-21)
(0.875768 0.152681 -4.76718e-20)
(1.03383 0.197105 1.92923e-20)
(1.16255 0.235667 8.77408e-21)
(1.25975 0.265925 -5.9791e-20)
(1.32686 0.286993 -2.50278e-20)
(1.36806 0.299308 -1.93203e-23)
(1.38887 0.304185 -3.86143e-20)
(1.39504 0.303323 3.22684e-20)
(1.39162 0.298415 -7.27757e-21)
(1.38256 0.290897 4.56921e-21)
(1.37065 0.281854 -1.79217e-20)
(1.35766 0.272029 1.35984e-20)
(1.34457 0.261892 8.76545e-21)
(1.33182 0.25171 -1.5163e-21)
(1.31948 0.241527 -1.72706e-20)
(1.30737 0.231929 1.59542e-20)
(0.103074 0.00765972 -2.07126e-20)
(0.309905 0.0329955 -9.25613e-21)
(0.516937 0.0732484 -1.34848e-20)
(0.716064 0.120279 4.59866e-20)
(0.897803 0.169025 2.36205e-22)
(1.05384 0.214686 -2.42167e-20)
(1.17892 0.253432 -9.82812e-20)
(1.27164 0.283043 9.56239e-21)
(1.33421 0.302936 1.10295e-20)
(1.37132 0.313837 4.89331e-20)
(1.38885 0.317288 7.28196e-21)
(1.39261 0.315131 -4.12686e-20)
(1.38757 0.309117 3.88452e-20)
(1.37753 0.300688 -1.56693e-20)
(1.36509 0.2909 5.94079e-20)
(1.35186 0.280458 -5.3466e-21)
(1.33872 0.269801 3.13452e-21)
(1.32601 0.259163 2.66838e-21)
(1.31376 0.248571 -4.62528e-20)
(1.30174 0.238677 -2.81879e-20)
(0.108338 0.0100802 -7.77955e-21)
(0.323061 0.0400528 -4.44505e-20)
(0.535327 0.0844898 3.49678e-20)
(0.736971 0.13488 -4.41777e-20)
(0.918606 0.185894 -7.90048e-20)
(1.07235 0.232644 6.86708e-20)
(1.19364 0.271412 1.1254e-19)
(1.2819 0.300239 4.00815e-20)
(1.34004 0.318858 2.7726e-20)
(1.37329 0.328291 -7.94237e-20)
(1.38777 0.330296 6.06705e-20)
(1.38934 0.326845 7.07591e-21)
(1.38287 0.319736 -7.6799e-20)
(1.37199 0.310407 2.98678e-20)
(1.35912 0.299881 1.06877e-19)
(1.34573 0.288826 -7.33667e-20)
(1.33258 0.277648 -2.10709e-20)
(1.31995 0.266549 -2.04211e-20)
(1.30782 0.255546 9.42587e-20)
(1.29591 0.245349 5.45394e-20)
(0.113558 0.0127034 5.41315e-20)
(0.335955 0.0475805 -8.99241e-20)
(0.553137 0.0963179 -1.30427e-19)
(0.756933 0.150059 5.85898e-21)
(0.938124 0.203238 -2.3182e-20)
(1.08933 0.250924 -9.42072e-20)
(1.20673 0.289558 -1.58821e-20)
(1.29055 0.317471 4.78459e-20)
(1.34441 0.334729 -7.68363e-20)
(1.37401 0.342647 6.26782e-20)
(1.38567 0.343194 7.27704e-20)
(1.38527 0.338453 -4.56898e-20)
(1.37755 0.330262 1.85866e-20)
(1.36596 0.320044 9.48322e-20)
(1.35276 0.308788 -1.26516e-19)
(1.33928 0.297122 2.23293e-20)
(1.32616 0.285422 6.08067e-20)
(1.31364 0.273858 -1.84457e-20)
(1.30165 0.262441 -1.93436e-20)
(1.28987 0.251935 -3.25524e-21)
(0.118712 0.0155267 7.95573e-20)
(0.348537 0.0555647 1.44847e-19)
(0.570302 0.108704 7.66485e-20)
(0.775883 0.165773 -9.05866e-20)
(0.956307 0.221005 2.35234e-19)
(1.10475 0.269474 3.60248e-20)
(1.21818 0.307822 -9.90482e-20)
(1.29763 0.3347 -7.11004e-20)
(1.34738 0.350518 -5.68176e-20)
(1.37353 0.356884 1.87267e-20)
(1.38261 0.355963 -6.36414e-20)
(1.38044 0.349941 2.19927e-21)
(1.37163 0.340682 -4.32212e-20)
(1.35946 0.329587 -5.89788e-20)
(1.34602 0.317608 -1.00896e-20)
(1.33249 0.305335 -6.35612e-21)
(1.31946 0.293111 -1.12449e-19)
(1.30707 0.28108 8.53632e-20)
(1.29526 0.269246 -1.29918e-19)
(1.28362 0.258426 -7.69458e-20)
(0.123779 0.0185465 -9.64341e-20)
(0.360756 0.0639886 -3.88472e-20)
(0.586757 0.121616 1.71859e-19)
(0.793763 0.181976 4.35417e-20)
(0.973113 0.239141 -1.47927e-19)
(1.11861 0.28824 -8.53297e-20)
(1.22802 0.326154 -2.82601e-20)
(1.30317 0.351885 1.82048e-19)
(1.34897 0.366195 1.29766e-19)
(1.37191 0.370979 -4.45503e-20)
(1.37861 0.368589 -2.59856e-20)
(1.37487 0.361298 6.48689e-20)
(1.36514 0.350984 -7.12502e-20)
(1.3525 0.339025 3.29e-20)
(1.33889 0.326331 1.45977e-20)
(1.32538 0.313452 -1.80486e-20)
(1.31247 0.300704 1.37523e-19)
(1.30026 0.288203 -5.8139e-20)
(1.28863 0.275949 1.17682e-19)
(1.27717 0.264812 -4.26245e-20)
(0.12874 0.0217577 -5.40323e-20)
(0.372566 0.0728325 -9.77674e-20)
(0.602445 0.135018 -1.54379e-19)
(0.810519 0.198619 9.26273e-20)
(0.988508 0.257593 5.0492e-20)
(1.13089 0.307167 -7.17307e-20)
(1.23625 0.344508 1.18871e-19)
(1.30721 0.368987 -1.82687e-19)
(1.34926 0.381731 -1.93832e-19)
(1.36919 0.384911 1.16684e-19)
(1.37374 0.381054 4.36488e-20)
(1.36861 0.372507 -4.84908e-20)
(1.35809 0.361155 7.31272e-20)
(1.34509 0.348344 5.78289e-20)
(1.33139 0.334942 -4.2574e-20)
(1.31795 0.32146 -1.47025e-20)
(1.30519 0.308188 -1.0539e-19)
(1.29318 0.295215 2.20095e-20)
(1.28178 0.28254 -9.08408e-20)
(1.27051 0.271082 -1.54121e-20)
(0.133573 0.0251541 4.49526e-20)
(0.38392 0.0820742 -7.65458e-20)
(0.61731 0.148872 1.39184e-19)
(0.826102 0.215652 2.34183e-19)
(1.00247 0.276304 -3.3501e-19)
(1.14159 0.326201 2.93515e-19)
(1.24291 0.362835 7.84745e-20)
(1.3098 0.38597 -1.13365e-19)
(1.34827 0.397096 1.33748e-19)
(1.36542 0.398658 7.91144e-20)
(1.36802 0.393341 9.81547e-20)
(1.36168 0.383555 -1.69772e-19)
(1.35051 0.371182 -3.54843e-20)
(1.33725 0.357531 8.41721e-20)
(1.32352 0.343428 3.20007e-20)
(1.3102 0.329348 1.49366e-19)
(1.29763 0.315552 1.8817e-19)
(1.28585 0.302105 -4.62896e-20)
(1.27469 0.289004 8.12848e-20)
(1.26365 0.277225 9.32114e-20)
(0.138259 0.0287283 -1.28281e-20)
(0.394774 0.0916886 -1.77451e-19)
(0.6313 0.163136 -2.42989e-19)
(0.840471 0.233024 -3.15689e-19)
(1.01496 0.295216 -3.0522e-20)
(1.15072 0.345288 1.14699e-19)
(1.24802 0.381089 -2.19308e-20)
(1.31096 0.402796 3.8235e-20)
(1.34605 0.412263 -5.90415e-20)
(1.36063 0.412198 9.91192e-20)
(1.36149 0.405432 -1.5089e-19)
(1.3541 0.394426 1.97294e-19)
(1.34241 0.381049 1.13461e-19)
(1.32898 0.366572 5.23878e-20)
(1.31529 0.351776 -7.76993e-20)
(1.30212 0.337101 -8.25631e-20)
(1.28978 0.322783 -7.95497e-20)
(1.27825 0.30886 5.82188e-21)
(1.26737 0.295327 1.07307e-19)
(1.25657 0.283233 -1.13771e-19)
(0.142779 0.0324715 -2.30112e-20)
(0.405088 0.101649 1.38502e-19)
(0.644371 0.177768 1.73191e-19)
(0.853589 0.250678 -2.68816e-20)
(1.02598 0.314273 8.03312e-20)
(1.15829 0.364374 2.14763e-20)
(1.25161 0.399225 -1.15816e-19)
(1.31074 0.419428 9.16072e-20)
(1.34266 0.427203 8.56458e-20)
(1.35488 0.425509 -1.49139e-19)
(1.35419 0.417309 2.4016e-19)
(1.34591 0.405103 -2.00647e-19)
(1.33381 0.390742 1.15962e-19)
(1.32029 0.375453 -1.69521e-19)
(1.3067 0.359972 2.50468e-19)
(1.29373 0.344706 -1.593e-19)
(1.28164 0.329868 -4.70782e-20)
(1.2704 0.315468 -6.36234e-20)
(1.25981 0.3015 -1.34895e-19)
(1.24923 0.2891 1.71881e-21)
(0.147115 0.0363741 1.65955e-19)
(0.414822 0.111925 1.7285e-19)
(0.65648 0.192721 -2.48325e-19)
(0.865427 0.26856 -1.50374e-19)
(1.03552 0.333417 2.22056e-19)
(1.1643 0.383406 -8.81076e-20)
(1.25371 0.417197 1.28492e-19)
(1.30919 0.435831 5.51965e-20)
(1.33813 0.441889 -1.28328e-19)
(1.3482 0.438569 -3.18587e-19)
(1.34613 0.428954 -5.64455e-20)
(1.33712 0.41557 -1.19533e-19)
(1.32473 0.400244 -1.77463e-19)
(1.31119 0.384156 1.43672e-20)
(1.29775 0.368001 -1.76381e-20)
(1.28503 0.352149 -1.84015e-20)
(1.27322 0.336796 1.47297e-19)
(1.26228 0.321922 1.07065e-19)
(1.25199 0.307532 1.09417e-20)
(1.24158 0.29482 6.37978e-20)
(0.151249 0.0404252 -3.99962e-20)
(0.423942 0.122486 3.06263e-19)
(0.66759 0.207948 1.18747e-19)
(0.875959 0.286614 2.39896e-19)
(1.04356 0.35259 7.75689e-20)
(1.16878 0.402331 2.92607e-20)
(1.25435 0.434961 -1.8751e-19)
(1.30634 0.451969 -6.04645e-20)
(1.33251 0.456293 2.9459e-20)
(1.34063 0.451356 2.37072e-19)
(1.33737 0.440347 -7.74993e-20)
(1.32775 0.42581 9.57484e-20)
(1.31516 0.409539 2.05026e-19)
(1.30169 0.392668 4.68184e-20)
(1.28845 0.375847 -4.06091e-20)
(1.27601 0.359417 5.56326e-20)
(1.26451 0.343552 1.07503e-19)
(1.25392 0.328214 5.04658e-20)
(1.24395 0.313443 1.27299e-19)
(1.23374 0.300372 9.99296e-20)
(0.155165 0.044613 -1.04194e-19)
(0.432414 0.133298 -1.57084e-19)
(0.677669 0.223401 9.92396e-20)
(0.885166 0.304781 3.31432e-20)
(1.05012 0.371734 6.59387e-20)
(1.17175 0.421097 -2.67776e-19)
(1.25357 0.452473 9.70603e-20)
(1.30224 0.467809 -2.0917e-19)
(1.32584 0.470387 -1.16283e-19)
(1.3322 0.463848 1.35761e-19)
(1.32791 0.451471 -1.42708e-20)
(1.31782 0.435806 9.06668e-21)
(1.30514 0.418611 -2.5022e-19)
(1.29179 0.400972 -1.01653e-19)
(1.27881 0.383495 8.56957e-20)
(1.26667 0.366494 -1.49154e-19)
(1.25553 0.350122 -8.03588e-20)
(1.2453 0.33432 -8.06009e-20)
(1.23569 0.319188 -1.4401e-19)
(1.22578 0.305774 -3.40347e-19)
(0.158846 0.0489248 6.08343e-20)
(0.440208 0.144326 -7.3774e-20)
(0.686689 0.239028 -4.0187e-19)
(0.893035 0.323005 2.15777e-19)
(1.05519 0.390792 -2.67826e-19)
(1.17322 0.439652 -3.79849e-20)
(1.2514 0.469692 -3.66188e-19)
(1.29693 0.483316 3.89926e-19)
(1.31815 0.484147 2.22617e-19)
(1.32295 0.476024 -1.2859e-20)
(1.31779 0.462305 8.03907e-20)
(1.30736 0.445539 -1.01726e-19)
(1.29467 0.427442 -8.4896e-21)
(1.28151 0.409051 4.70198e-20)
(1.26882 0.39093 -4.95089e-20)
(1.25704 0.373365 9.5287e-20)
(1.24626 0.356492 -1.28765e-19)
(1.23643 0.340235 -1.15003e-19)
(1.22718 0.324737 6.49546e-20)
(1.21765 0.310993 9.05471e-20)
(0.162279 0.053347 1.38769e-19)
(0.447299 0.155535 1.36785e-19)
(0.694626 0.254778 1.05214e-19)
(0.899558 0.341226 -2.80168e-21)
(1.0588 0.409707 -6.95388e-20)
(1.17324 0.457947 4.69489e-19)
(1.24789 0.486575 2.65641e-19)
(1.29046 0.498456 1.80339e-19)
(1.3095 0.497543 2.56788e-19)
(1.31291 0.48786 3.23442e-20)
(1.30704 0.47283 -2.15458e-19)
(1.29637 0.454991 -2.421e-20)
(1.28376 0.436015 -4.80978e-20)
(1.27085 0.416888 -1.56901e-19)
(1.25851 0.398136 -6.00315e-20)
(1.2471 0.380016 -8.33895e-20)
(1.23672 0.362648 2.63279e-19)
(1.2273 0.345944 -4.11967e-21)
(1.21846 0.330081 7.70828e-20)
(1.2093 0.316014 6.31712e-20)
(0.16545 0.0578652 -4.67242e-20)
(0.453661 0.166886 -7.9387e-20)
(0.701463 0.270598 -1.72208e-19)
(0.90473 0.359388 -2.89293e-20)
(1.06094 0.428423 -2.8515e-19)
(1.17182 0.475932 -2.04322e-19)
(1.24308 0.503083 6.77008e-20)
(1.28286 0.513199 -4.94071e-19)
(1.29991 0.510552 -2.68251e-19)
(1.30212 0.499335 6.54775e-20)
(1.29567 0.483025 -3.55137e-20)
(1.28488 0.464143 1.97439e-19)
(1.27243 0.444312 2.71868e-19)
(1.25983 0.424468 6.90661e-20)
(1.24786 0.405097 1.90464e-19)
(1.23686 0.386432 -1.01789e-19)
(1.22691 0.368578 1.43529e-19)
(1.21793 0.351434 8.03768e-20)
(1.20952 0.335212 7.16024e-20)
(1.20076 0.320828 -1.39684e-19)
(0.168347 0.0624643 6.99328e-20)
(0.459277 0.178342 -8.10831e-21)
(0.707185 0.286437 -2.67171e-19)
(0.908553 0.377431 -1.99554e-22)
(1.06165 0.446884 6.41933e-19)
(1.16901 0.493559 1.28506e-19)
(1.237 0.519176 9.72614e-20)
(1.27417 0.527512 2.87148e-19)
(1.28943 0.523146 -2.32622e-19)
(1.2906 0.510427 -2.51236e-19)
(1.28372 0.492872 -4.00301e-21)
(1.2729 0.472978 -1.82716e-19)
(1.26068 0.452317 -1.02109e-19)
(1.24844 0.431774 2.78298e-19)
(1.23689 0.411797 -7.32413e-20)
(1.22633 0.392599 3.52924e-21)
(1.21683 0.374267 -1.03512e-19)
(1.20831 0.356692 -1.62363e-19)
(1.20036 0.340118 1.16495e-20)
(1.19201 0.325426 1.62613e-19)
(0.170959 0.0671287 -3.36873e-19)
(0.464128 0.189862 2.05938e-19)
(0.711784 0.302242 4.59336e-19)
(0.911034 0.3953 1.44364e-19)
(1.06094 0.465037 -7.57134e-19)
(1.16484 0.510781 -3.13202e-19)
(1.2297 0.534814 -2.46135e-19)
(1.26445 0.541365 -9.00748e-20)
(1.27809 0.535301 3.07323e-19)
(1.27838 0.521113 3.24299e-20)
(1.2712 0.50235 -6.73271e-20)
(1.26046 0.481476 1.19129e-19)
(1.24853 0.46001 1.80162e-20)
(1.2367 0.438788 -3.34772e-19)
(1.2256 0.418221 1.0389e-19)
(1.21551 0.398501 1.39643e-19)
(1.20648 0.379702 6.96152e-20)
(1.19845 0.361705 9.39165e-20)
(1.19098 0.34479 -1.70506e-19)
(1.18307 0.329799 -8.64103e-20)
(0.173277 0.0718423 -2.32737e-20)
(0.468202 0.201407 1.04047e-19)
(0.715254 0.317958 5.23844e-20)
(0.912182 0.412936 1.54533e-19)
(1.05885 0.482828 4.2326e-19)
(1.15934 0.527553 -2.76889e-19)
(1.22123 0.549962 -1.79176e-20)
(1.25373 0.554727 2.68478e-19)
(1.26593 0.546991 -3.28981e-19)
(1.2655 0.531372 1.07782e-19)
(1.25813 0.511439 2.81729e-19)
(1.24756 0.489618 6.46053e-20)
(1.236 0.467374 -1.45341e-19)
(1.22463 0.445494 2.45108e-19)
(1.21401 0.424354 -2.90895e-19)
(1.20441 0.404125 1.2018e-20)
(1.19588 0.38487 -6.97782e-20)
(1.18836 0.366461 1.2998e-19)
(1.18139 0.349215 1.15254e-19)
(0.175292 0.0765884 4.36914e-20)
(0.471488 0.212936 1.67083e-19)
(0.717595 0.333534 1.65141e-19)
(0.912012 0.430285 -1.04203e-19)
(1.05539 0.500206 9.4901e-21)
(1.15256 0.54383 2.57169e-19)
(1.21162 0.564583 4.5894e-19)
(1.24205 0.567569 -4.618e-20)
(1.25299 0.558192 4.4279e-20)
(1.25199 0.541183 -1.36396e-19)
(1.24455 0.52012 -2.90946e-19)
(1.23422 0.497387 4.72738e-20)
(1.22309 0.474393 1.69278e-19)
(1.21222 0.451876 -3.45682e-20)
(1.20212 0.430181 -3.27452e-20)
(1.19304 0.409457 -1.19402e-19)
(1.18502 0.389758 -2.20318e-20)
(1.17804 0.370949 -4.74233e-20)
(0.176997 0.0813499 -1.51556e-19)
(0.473979 0.22441 -3.83226e-19)
(0.71881 0.348916 -5.68929e-19)
(0.910543 0.447291 1.05546e-20)
(1.05061 0.517119 -3.16744e-21)
(1.14454 0.55957 -2.34981e-19)
(1.20092 0.578643 1.28669e-19)
(1.22946 0.579862 -1.38157e-19)
(1.2393 0.56888 2.66586e-19)
(1.23787 0.550524 2.69941e-19)
(1.23046 0.528372 1.22323e-19)
(1.22047 0.504762 -3.27916e-20)
(1.20982 0.481047 4.85548e-20)
(1.19949 0.457918 -1.24118e-19)
(1.18995 0.435686 2.14844e-19)
(1.1814 0.414484 -1.00512e-19)
(0.178386 0.0861098 1.64544e-19)
(0.475672 0.235788 5.18753e-19)
(0.718906 0.364054 2.04495e-19)
(0.907796 0.463902 -4.01006e-20)
(1.04453 0.53352 -2.24082e-19)
(1.13532 0.57473 -4.8723e-20)
(1.18917 0.592106 -6.11832e-20)
(1.216 0.591579 -1.94478e-20)
(1.2249 0.579032 -7.79445e-20)
(1.22317 0.559374 -2.65667e-19)
(1.2159 0.536177 -2.23095e-19)
(1.20632 0.511728 1.61505e-19)
(1.1962 0.487321 -2.35816e-19)
(1.18646 0.463604 -1.36354e-20)
(1.1775 0.440855 6.55823e-20)
(0.179456 0.0908506 1.61931e-20)
(0.476566 0.247029 3.40271e-20)
(0.717895 0.378896 4.7167e-19)
(0.903798 0.480064 -2.65628e-19)
(1.03721 0.549361 6.29385e-19)
(1.12495 0.589273 2.86631e-19)
(1.17643 0.604942 -3.90119e-19)
(1.2017 0.602694 -3.63366e-20)
(1.20983 0.588624 -3.20192e-19)
(1.20792 0.567713 -8.03233e-20)
(1.20089 0.543516 8.7045e-20)
(1.19178 0.518264 1.25772e-19)
(1.18226 0.493198 2.42488e-19)
(1.17313 0.468918 2.90243e-20)
(0.180204 0.0955549 1.32561e-19)
(0.476663 0.258093 -6.25666e-19)
(0.715792 0.393393 -1.39316e-19)
(0.898577 0.495728 -1.05916e-19)
(1.02867 0.564597 -3.96042e-19)
(1.11347 0.603159 -3.90891e-19)
(1.16273 0.617118 -1.23628e-19)
(1.18662 0.613179 -1.59155e-19)
(1.19411 0.597634 4.52552e-19)
(1.19215 0.575521 1.58026e-20)
(1.18545 0.550369 -2.99526e-19)
(1.17688 0.524355 -4.20962e-19)
(1.16799 0.498661 2.02119e-19)
(0.180627 0.100205 1.07379e-20)
(0.475968 0.268941 9.22149e-20)
(0.712613 0.407494 -2.85842e-19)
(0.892164 0.510844 1.68225e-19)
(1.01895 0.579183 1.88658e-20)
(1.10092 0.616351 4.91552e-19)
(1.14813 0.628606 1.93337e-19)
(1.17079 0.623013 3.10728e-19)
(1.17779 0.606042 -2.05676e-19)
(1.17589 0.582778 3.77062e-19)
(1.1696 0.556719 2.50642e-19)
(1.16164 0.529982 5.24288e-20)
(0.180727 0.104785 -2.70339e-19)
(0.474489 0.279535 6.39601e-19)
(0.708382 0.421154 3.38107e-19)
(0.884596 0.525365 1.24737e-19)
(1.00812 0.593078 -6.67991e-20)
(1.08737 0.628817 -4.10123e-19)
(1.13266 0.639376 6.03339e-20)
(1.15425 0.632169 -5.66585e-20)
(1.1609 0.613826 -2.17919e-19)
(1.15916 0.589466 -2.63979e-19)
(1.15336 0.562548 1.46935e-19)
(0.180503 0.109276 -5.88956e-20)
(0.472238 0.289836 -1.68172e-19)
(0.703121 0.434326 -3.88965e-19)
(0.87591 0.539245 -2.02221e-19)
(0.9962 0.606243 -2.38602e-19)
(1.07285 0.640522 2.11788e-19)
(1.11638 0.649403 -8.68221e-20)
(1.13706 0.640625 5.52237e-20)
(1.14348 0.620967 -3.64081e-20)
(1.142 0.595566 -1.27586e-19)
(0.179959 0.113664 5.51853e-19)
(0.469226 0.299809 2.10113e-20)
(0.696859 0.446965 -1.72991e-19)
(0.866147 0.552441 1.64946e-19)
(0.983249 0.618639 -2.88481e-20)
(1.05741 0.651434 -7.81884e-20)
(1.09934 0.65866 -1.88559e-19)
(1.11924 0.648361 2.63687e-20)
(1.12555 0.627445 2.34302e-19)
(0.179097 0.117932 -1.23337e-19)
(0.46547 0.309417 1.44022e-19)
(0.689628 0.459028 3.83965e-20)
(0.855355 0.564915 3.53997e-19)
(0.969304 0.630226 -4.99065e-20)
(1.04111 0.661525 -2.3242e-19)
(1.08158 0.667123 4.22568e-19)
(1.10083 0.655355 1.46335e-20)
(0.177922 0.122064 -5.21365e-19)
(0.460987 0.318626 -1.35269e-20)
(0.681463 0.470471 3.32495e-19)
(0.843565 0.576627 -3.71394e-20)
(0.954422 0.640979 5.25364e-19)
(1.024 0.670765 -1.42933e-21)
(1.06314 0.674769 -4.56372e-19)
(0.176439 0.126047 3.1299e-19)
(0.455798 0.327402 -2.56662e-19)
(0.672397 0.48126 -3.94201e-19)
(0.830815 0.587529 -6.2111e-20)
(0.938663 0.650865 -3.50935e-19)
(1.00613 0.67913 1.58648e-19)
(0.174656 0.129864 -1.23353e-19)
(0.449926 0.335711 1.68256e-19)
(0.662462 0.491357 -5.28391e-20)
(0.817166 0.597599 -6.54293e-20)
(0.922077 0.659849 1.28811e-20)
(0.172574 0.1335 -2.01291e-19)
(0.443394 0.343525 -2.02347e-19)
(0.651696 0.50072 4.41539e-19)
(0.802675 0.606801 1.30633e-19)
(0.904714 0.667906 3.3208e-20)
(0.170194 0.136926 2.50166e-19)
(0.436245 0.350821 3.9643e-19)
(0.640148 0.509323 -1.0076e-19)
(0.787385 0.615104 -1.01889e-19)
(0.167538 0.140116 -1.74764e-19)
(0.428507 0.357557 -3.15697e-19)
(0.627858 0.517141 -1.5036e-19)
(0.164638 0.143073 1.79727e-19)
(0.420197 0.363698 3.3245e-19)
(0.614866 0.524141 1.44417e-19)
(0.161498 0.145798 -9.48478e-20)
(0.41134 0.369229 6.82965e-21)
(0.15812 0.148275 9.52011e-20)
(0.154514 0.150492 2.7305e-20)
(0.143688 -0.14017 -5.87147e-20)
(0.146874 -0.137965 1.04178e-20)
(0.149831 -0.135512 -8.31056e-20)
(0.384128 -0.345905 -1.64704e-19)
(0.152557 -0.132826 1.49091e-19)
(0.391937 -0.340401 1.07417e-19)
(0.576608 -0.494318 -2.21352e-20)
(0.15504 -0.129903 -1.03034e-19)
(0.399191 -0.334304 -2.8148e-19)
(0.588134 -0.487383 -1.08614e-19)
(0.157252 -0.126747 1.58951e-19)
(0.405871 -0.327651 2.38278e-19)
(0.598935 -0.479661 -2.37023e-20)
(0.74071 -0.583779 -5.26756e-20)
(0.159178 -0.123384 -1.87186e-19)
(0.411944 -0.320477 -7.18304e-20)
(0.60897 -0.471177 1.27155e-19)
(0.754262 -0.575617 9.94e-20)
(0.854547 -0.638325 6.10529e-20)
(0.160814 -0.11984 4.80929e-20)
(0.417372 -0.312805 -4.2563e-20)
(0.61819 -0.461958 1.13284e-19)
(0.766983 -0.566588 -1.4899e-19)
(0.870077 -0.630492 -9.73532e-21)
(0.93622 -0.660641 8.18824e-20)
(0.162158 -0.116129 3.59206e-19)
(0.422132 -0.304665 -2.06877e-19)
(0.626559 -0.452046 -2.76563e-19)
(0.778815 -0.556724 -1.15014e-19)
(0.884791 -0.621761 -1.54987e-19)
(0.952986 -0.653507 -5.25478e-21)
(0.163202 -0.112265 -1.90749e-19)
(0.426201 -0.29609 -9.29308e-21)
(0.634045 -0.441477 1.45238e-19)
(0.789708 -0.546054 1.77264e-20)
(0.898632 -0.61216 3.1191e-19)
(0.968999 -0.6455 -2.49773e-20)
(1.01029 -0.653688 2.02005e-20)
(0.163941 -0.108264 -7.77081e-20)
(0.429559 -0.287113 3.39883e-20)
(0.64061 -0.430288 6.1738e-20)
(0.79962 -0.534619 1.41181e-19)
(0.911541 -0.601718 -8.55979e-20)
(0.984209 -0.636648 3.00928e-20)
(1.02696 -0.646532 2.07373e-19)
(1.04895 -0.638905 -2.01439e-20)
(0.16437 -0.104141 3.95528e-19)
(0.432189 -0.277769 -1.01194e-19)
(0.646222 -0.41852 -1.3011e-19)
(0.808511 -0.522455 7.11093e-20)
(0.92347 -0.590471 3.87972e-20)
(0.998561 -0.626979 -7.13992e-20)
(1.04292 -0.638585 -1.39922e-20)
(1.06572 -0.632532 -3.68729e-20)
(1.07484 -0.61535 3.70997e-20)
(0.164488 -0.0999118 -1.75996e-19)
(0.434074 -0.268093 2.0284e-20)
(0.650848 -0.406217 -2.00569e-19)
(0.816339 -0.509604 -2.54652e-19)
(0.934378 -0.578457 -9.75961e-20)
(1.012 -0.616516 -6.33757e-21)
(1.05811 -0.629872 1.13977e-19)
(1.08188 -0.625445 -7.84836e-20)
(1.09129 -0.609617 2.37836e-20)
(1.09246 -0.58743 1.35359e-19)
(0.164291 -0.0955931 -1.8544e-19)
(0.435204 -0.258122 3.96791e-19)
(0.654464 -0.393422 2.3271e-19)
(0.82306 -0.496111 9.93887e-20)
(0.944213 -0.565708 -3.60517e-20)
(1.02447 -0.60529 -2.05829e-19)
(1.07249 -0.620418 -1.1526e-19)
(1.09737 -0.617667 -5.08328e-20)
(1.10721 -0.603252 -5.98323e-20)
(1.10829 -0.582182 -2.02118e-19)
(1.10494 -0.557991 1.0214e-19)
(0.163778 -0.0912019 3.3741e-20)
(0.435567 -0.247894 -5.41633e-20)
(0.657043 -0.380181 4.12812e-20)
(0.828639 -0.482018 -9.87189e-20)
(0.952929 -0.552265 1.97827e-19)
(1.03594 -0.593336 3.19253e-19)
(1.08602 -0.610249 9.21304e-20)
(1.11217 -0.609217 2.19678e-19)
(1.12256 -0.596273 -1.08355e-19)
(1.12366 -0.57638 2.25285e-19)
(1.11997 -0.553102 4.83247e-20)
(1.11429 -0.528695 1.75789e-19)
(0.162951 -0.0867555 -1.19735e-19)
(0.435156 -0.237447 -2.66243e-19)
(0.658567 -0.366543 -2.01475e-19)
(0.83304 -0.467373 5.90898e-20)
(0.96048 -0.538167 -2.97049e-19)
(1.04634 -0.580685 -3.33032e-19)
(1.09863 -0.599391 -3.55574e-20)
(1.12621 -0.600119 -8.05496e-20)
(1.13731 -0.588701 2.54187e-19)
(1.13854 -0.57004 -5.35154e-20)
(1.1346 -0.547726 -1.41546e-19)
(1.12844 -0.524075 -2.13441e-19)
(1.12173 -0.500407 -1.18332e-19)
(0.161811 -0.0822712 -9.57336e-20)
(0.433968 -0.226822 -7.43157e-20)
(0.659017 -0.352555 3.08534e-19)
(0.836232 -0.452225 -1.82743e-19)
(0.966824 -0.523459 4.41974e-19)
(1.05564 -0.567374 1.70492e-19)
(1.11029 -0.587873 -1.00974e-19)
(1.13947 -0.590396 -1.54761e-19)
(1.15143 -0.580555 -2.1119e-19)
(1.15291 -0.563181 8.38095e-20)
(1.14881 -0.541881 1.2806e-20)
(1.14224 -0.519028 6.76004e-20)
(1.135 -0.496004 1.34956e-19)
(1.12801 -0.473518 2.59339e-20)
(0.160361 -0.0777667 1.89555e-19)
(0.432001 -0.216057 2.97269e-19)
(0.658381 -0.338267 1.4057e-20)
(0.838188 -0.436624 1.6831e-19)
(0.971921 -0.508185 -3.86532e-19)
(1.06379 -0.553439 8.90509e-20)
(1.12095 -0.575725 -5.63013e-20)
(1.15189 -0.580072 -1.17986e-20)
(1.16486 -0.571857 -8.18463e-20)
(1.16674 -0.555822 -1.50093e-19)
(1.16257 -0.535584 -3.50994e-20)
(1.15567 -0.51357 6.96658e-20)
(1.14795 -0.491223 -1.9573e-19)
(1.14043 -0.469303 4.56575e-20)
(1.1336 -0.448164 -8.10589e-20)
(0.158607 -0.0732592 -3.3913e-20)
(0.429256 -0.205194 -4.56646e-19)
(0.656647 -0.323731 -3.4219e-19)
(0.838881 -0.420621 -2.05608e-20)
(0.975733 -0.492392 7.08249e-20)
(1.07074 -0.53892 -1.25328e-19)
(1.13056 -0.562978 -3.30665e-21)
(1.16344 -0.569172 3.16588e-20)
(1.17759 -0.562627 4.24311e-20)
(1.17999 -0.547983 2.29139e-19)
(1.17587 -0.528855 8.39663e-20)
(1.16871 -0.507719 -1.67568e-20)
(1.16057 -0.486081 1.8641e-20)
(1.15256 -0.464753 -2.23066e-20)
(1.14523 -0.444125 9.1558e-20)
(1.13883 -0.424377 3.45633e-20)
(0.156554 -0.0687661 6.30338e-20)
(0.425738 -0.194273 2.44344e-19)
(0.653811 -0.308997 1.45653e-19)
(0.838292 -0.40427 -2.68066e-19)
(0.978226 -0.476128 5.32968e-20)
(1.07644 -0.523855 2.99484e-19)
(1.13907 -0.549663 1.50166e-19)
(1.17407 -0.557722 1.675e-20)
(1.18957 -0.552888 1.48396e-19)
(1.19264 -0.539683 -2.71672e-19)
(1.18868 -0.521711 -6.8066e-20)
(1.18134 -0.501493 -2.56973e-20)
(1.17284 -0.480594 1.38925e-19)
(1.16439 -0.459882 -4.00565e-20)
(1.15658 -0.439785 -6.34228e-22)
(1.14971 -0.420505 -5.60501e-20)
(1.14388 -0.402125 -1.73582e-20)
(1.13904 -0.384547 -8.1962e-20)
(0.15421 -0.0643043 -5.87952e-20)
(0.421457 -0.183334 -3.547e-20)
(0.649871 -0.29412 -8.9358e-20)
(0.836404 -0.387625 2.78311e-19)
(0.979366 -0.459442 1.811e-19)
(1.08086 -0.508288 -5.12033e-20)
(1.14644 -0.535815 -8.3179e-21)
(1.18373 -0.545749 1.70794e-19)
(1.20075 -0.542662 -2.42432e-19)