/*--------------------------------*- C++ -*----------------------------------*\
  =========                 |
  \\      /  F ield         | OpenFOAM: The Open Source CFD Toolbox
   \\    /   O peration     | Website:  https://openfoam.org
    \\  /    A nd           | Version:  7
     \\/     M anipulation  |
\*---------------------------------------------------------------------------*/
FoamFile
{
    version     2.0;
    format      ascii;
    class       volScalarField;
    location    "100";
    object      p;
}
// * * * * * * * * * * * * * * * * * * * * * * * * * * * * * * * * * * * * * //

dimensions      [0 2 -2 0 0 0 0];

internalField   nonuniform List<scalar> 
4575
(
-0.35903
-0.289678
-0.236172
-0.200858
-0.182173
-0.178757
-0.1914
-0.215347
-0.237355
-0.241999
-0.224007
-0.191384
-0.156348
-0.127185
-0.107051
-0.0963801
-0.0937882
-0.0979766
-0.110297
-0.131275
-0.154577
-0.168664
-0.165241
-0.365989
-0.294034
-0.238204
-0.20092
-0.180541
-0.175415
-0.186191
-0.20853
-0.229793
-0.234956
-0.218306
-0.187252
-0.153606
-0.125525
-0.106249
-0.0963502
-0.0944656
-0.0993446
-0.112465
-0.134295
-0.158287
-0.17258
-0.168757
-0.372491
-0.298051
-0.23998
-0.200773
-0.178724
-0.171917
-0.180839
-0.201567
-0.222049
-0.227709
-0.212416
-0.182961
-0.150734
-0.123752
-0.10535
-0.0962358
-0.0950658
-0.100639
-0.114557
-0.137235
-0.161918
-0.176427
-0.172217
-0.378536
-0.30174
-0.241519
-0.200441
-0.17675
-0.168292
-0.175375
-0.194489
-0.214156
-0.220279
-0.206352
-0.178519
-0.147732
-0.121866
-0.104351
-0.0960323
-0.0955834
-0.101854
-0.116565
-0.140083
-0.16546
-0.180198
-0.175618
-0.384127
-0.305112
-0.242841
-0.199949
-0.174645
-0.16457
-0.169833
-0.187332
-0.206148
-0.212693
-0.200129
-0.173933
-0.144603
-0.119866
-0.103249
-0.0957353
-0.0960128
-0.102982
-0.11848
-0.142831
-0.168902
-0.183883
-0.178954
-0.389264
-0.30818
-0.243963
-0.199321
-0.172436
-0.160779
-0.164244
-0.180126
-0.198058
-0.204977
-0.193764
-0.169211
-0.141349
-0.117751
-0.102041
-0.0953407
-0.0963491
-0.104017
-0.120293
-0.145469
-0.172236
-0.187475
-0.182221
-0.393955
-0.310958
-0.244904
-0.19858
-0.17015
-0.156946
-0.158639
-0.172905
-0.18992
-0.197157
-0.187273
-0.164362
-0.137975
-0.11552
-0.100725
-0.0948447
-0.0965872
-0.104953
-0.121998
-0.147987
-0.17545
-0.190966
-0.185412
-0.398206
-0.313458
-0.245683
-0.197748
-0.167813
-0.153097
-0.153049
-0.165698
-0.181768
-0.189259
-0.180673
-0.159396
-0.134482
-0.113175
-0.0992999
-0.0942439
-0.0967226
-0.105783
-0.123585
-0.150376
-0.178535
-0.194347
-0.188523
-0.402025
-0.315696
-0.246318
-0.196848
-0.165448
-0.149259
-0.147503
-0.158536
-0.173633
-0.18131
-0.173983
-0.154323
-0.130877
-0.110717
-0.0977634
-0.0935351
-0.0967509
-0.106502
-0.125048
-0.152627
-0.181483
-0.197612
-0.19155
-0.405422
-0.317685
-0.246827
-0.1959
-0.163081
-0.145453
-0.142028
-0.151446
-0.165546
-0.173339
-0.16722
-0.149152
-0.127163
-0.108146
-0.0961149
-0.0927158
-0.0966681
-0.107104
-0.12638
-0.154733
-0.184284
-0.200752
-0.194486
-0.408409
-0.31944
-0.247227
-0.194924
-0.160732
-0.141704
-0.136648
-0.144455
-0.157537
-0.165371
-0.160402
-0.143895
-0.123346
-0.105465
-0.0943543
-0.0917836
-0.0964706
-0.107584
-0.127573
-0.156684
-0.186929
-0.20376
-0.197328
-0.171811
-0.410996
-0.320976
-0.247534
-0.193938
-0.158422
-0.138031
-0.131389
-0.137589
-0.149632
-0.157432
-0.153547
-0.138562
-0.119433
-0.102677
-0.0924818
-0.0907367
-0.0961552
-0.107938
-0.128622
-0.158473
-0.189411
-0.206629
-0.200071
-0.173992
-0.413197
-0.322308
-0.247764
-0.192959
-0.156171
-0.134454
-0.12627
-0.130872
-0.141856
-0.14955
-0.146675
-0.133166
-0.11543
-0.099785
-0.0904982
-0.0895739
-0.0957191
-0.108161
-0.12952
-0.160094
-0.191722
-0.209352
-0.202709
-0.176105
-0.415026
-0.323448
-0.247933
-0.192002
-0.153997
-0.130991
-0.121312
-0.124325
-0.134233
-0.141748
-0.139802
-0.127716
-0.111343
-0.0967931
-0.0884049
-0.0882942
-0.0951598
-0.10825
-0.130264
-0.16154
-0.193854
-0.211922
-0.20524
-0.178149
-0.416496
-0.324412
-0.248054
-0.191082
-0.151915
-0.127658
-0.11653
-0.11797
-0.126782
-0.13405
-0.132949
-0.122226
-0.107181
-0.0937057
-0.0862037
-0.0868974
-0.0944755
-0.1082
-0.130847
-0.162805
-0.195803
-0.214334
-0.207658
-0.180123
-0.417623
-0.325212
-0.24814
-0.190211
-0.149938
-0.12447
-0.11194
-0.111825
-0.119522
-0.126479
-0.126132
-0.116706
-0.102951
-0.0905278
-0.0838972
-0.0853837
-0.0936648
-0.10801
-0.131266
-0.163884
-0.197561
-0.216582
-0.209959
-0.182024
-0.418421
-0.325861
-0.248203
-0.189402
-0.148081
-0.121439
-0.107553
-0.105907
-0.11247
-0.119056
-0.119355
-0.111167
-0.098662
-0.0872652
-0.0814885
-0.0837538
-0.0927266
-0.107676
-0.131518
-0.164774
-0.199125
-0.218661
-0.21214
-0.183851
-0.418906
-0.326372
-0.248254
-0.188664
-0.146352
-0.118576
-0.103382
-0.100231
-0.105641
-0.111799
-0.112666
-0.10562
-0.094322
-0.0839239
-0.0789814
-0.0820091
-0.0916605
-0.107198
-0.131599
-0.165471
-0.200489
-0.220566
-0.214196
-0.185603
-0.419092
-0.326757
-0.248304
-0.188006
-0.144762
-0.115893
-0.0994332
-0.0948087
-0.0990464
-0.104727
-0.106013
-0.100077
-0.08994
-0.0805108
-0.07638
-0.0801514
-0.0904665
-0.106574
-0.131509
-0.165971
-0.201652
-0.222293
-0.216125
-0.187278
-0.418995
-0.327025
-0.24836
-0.187435
-0.143317
-0.113397
-0.0957149
-0.0896522
-0.092699
-0.0978529
-0.0993958
-0.0945528
-0.0855255
-0.0770328
-0.0736892
-0.0781831
-0.0891453
-0.105802
-0.131244
-0.166273
-0.202609
-0.223839
-0.217922
-0.188874
-0.418631
-0.327189
-0.24843
-0.186958
-0.142023
-0.111095
-0.0922321
-0.0847696
-0.0866088
-0.0911926
-0.0929198
-0.0890629
-0.0810875
-0.0734976
-0.0709145
-0.0761072
-0.0876979
-0.104884
-0.130805
-0.166376
-0.20336
-0.225201
-0.219585
-0.19039
-0.418015
-0.327257
-0.248521
-0.186581
-0.140885
-0.108992
-0.088989
-0.0801675
-0.0807851
-0.0847592
-0.0866107
-0.083617
-0.0766359
-0.0699134
-0.0680616
-0.0739272
-0.0861259
-0.103818
-0.130191
-0.16628
-0.203904
-0.226377
-0.221111
-0.191825
-0.417163
-0.327238
-0.248639
-0.186306
-0.139905
-0.107091
-0.0859881
-0.0758502
-0.0752362
-0.0785623
-0.0804653
-0.0782255
-0.0721806
-0.0662884
-0.0651372
-0.0716472
-0.0844315
-0.102608
-0.129402
-0.165984
-0.20424
-0.227365
-0.222498
-0.193175
-0.41609
-0.327142
-0.248788
-0.186138
-0.139085
-0.105397
-0.0832312
-0.0718205
-0.0699688
-0.072609
-0.0744873
-0.0729004
-0.067732
-0.0626314
-0.062148
-0.0692719
-0.0826172
-0.101252
-0.12844
-0.16549
-0.204369
-0.228165
-0.223742
-0.194441
-0.41481
-0.326975
-0.248972
-0.186078
-0.138427
-0.103908
-0.0807188
-0.0680791
-0.0649888
-0.0669048
-0.0686851
-0.0676543
-0.0633005
-0.0589515
-0.0591014
-0.0668062
-0.0806861
-0.0997545
-0.127305
-0.164799
-0.204293
-0.228774
-0.224842
-0.19562
-0.326745
-0.249194
-0.186127
-0.137928
-0.102626
-0.0784504
-0.0646254
-0.0603004
-0.0614544
-0.0630684
-0.0625001
-0.0588964
-0.0552578
-0.0560052
-0.0642559
-0.078642
-0.0981167
-0.126
-0.163914
-0.204014
-0.229195
-0.225796
-0.19671
-0.326458
-0.249455
-0.186286
-0.13759
-0.101548
-0.076425
-0.0614575
-0.0559067
-0.0562612
-0.0576471
-0.0574514
-0.0545304
-0.0515598
-0.0528674
-0.061627
-0.0764888
-0.096342
-0.124527
-0.162838
-0.203536
-0.229427
-0.226602
-0.19771
-0.326119
-0.249757
-0.186554
-0.137408
-0.100672
-0.0746403
-0.0585721
-0.0518094
-0.0513283
-0.0524299
-0.0525238
-0.0502134
-0.0478669
-0.0496964
-0.058926
-0.0742312
-0.0944335
-0.122889
-0.161573
-0.202861
-0.229471
-0.227258
-0.198617
-0.325735
-0.250101
-0.18693
-0.137383
-0.099994
-0.0730937
-0.0559655
-0.0480089
-0.0466577
-0.0474242
-0.0477264
-0.0459558
-0.0441887
-0.046501
-0.05616
-0.0718742
-0.0923952
-0.121089
-0.160123
-0.201994
-0.22933
-0.227763
-0.19943
-0.32531
-0.250487
-0.187412
-0.137509
-0.0995101
-0.0717811
-0.0536326
-0.0445043
-0.0422508
-0.0426361
-0.0430582
-0.0417677
-0.0405347
-0.0432898
-0.0533361
-0.0694231
-0.0902314
-0.119131
-0.158493
-0.20094
-0.229006
-0.228116
-0.200147
-0.324846
-0.250911
-0.187995
-0.137782
-0.0992133
-0.0706973
-0.0515677
-0.0412929
-0.0381079
-0.0380684
-0.0386815
-0.0376597
-0.0369143
-0.0400718
-0.0504622
-0.0668839
-0.0879466
-0.117019
-0.156687
-0.199703
-0.2285
-0.228315
-0.200765
-0.324345
-0.251372
-0.188677
-0.138197
-0.0990981
-0.0698369
-0.0497648
-0.0383719
-0.0342291
-0.0337219
-0.0342259
-0.0336422
-0.033337
-0.036856
-0.047546
-0.0642628
-0.085546
-0.114757
-0.15471
-0.198291
-0.227818
-0.228359
-0.201281
-0.32382
-0.251878
-0.189463
-0.13876
-0.0991653
-0.069199
-0.0482219
-0.0357402
-0.030616
-0.0296002
-0.0299111
-0.0297329
-0.0298124
-0.0336514
-0.0445958
-0.0615664
-0.0830351
-0.11235
-0.152566
-0.196708
-0.22696
-0.228247
-0.201692
-0.323291
-0.252447
-0.190366
-0.139478
-0.0994172
-0.0687832
-0.0469368
-0.0333953
-0.0272681
-0.0257059
-0.0258388
-0.0259452
-0.0263502
-0.0304673
-0.0416201
-0.0588016
-0.0804197
-0.109803
-0.150261
-0.19496
-0.225929
-0.227973
-0.201996
-0.322724
-0.253032
-0.191338
-0.140308
-0.0998161
-0.0685577
-0.0458844
-0.0313169
-0.024171
-0.0220311
-0.021998
-0.0222835
-0.0229603
-0.027313
-0.0386278
-0.055976
-0.0777061
-0.10712
-0.147799
-0.193053
-0.22473
-0.227541
-0.202193
-0.321983
-0.253484
-0.192241
-0.141136
-0.10027
-0.06845
-0.0450104
-0.0294664
-0.0213007
-0.0185547
-0.0183371
-0.018744
-0.0196463
-0.0241954
-0.0356268
-0.0530965
-0.0749007
-0.104307
-0.145187
-0.190997
-0.223381
-0.226971
-0.202285
-0.321159
-0.253909
-0.193182
-0.142058
-0.100861
-0.0685255
-0.0443696
-0.0278972
-0.0187149
-0.0153234
-0.0148696
-0.0153363
-0.0164157
-0.0211187
-0.0326224
-0.050169
-0.0720091
-0.10137
-0.14243
-0.188799
-0.221881
-0.226265
-0.202241
-0.255226
-0.195001
-0.143784
-0.102157
-0.0692249
-0.0443021
-0.0268683
-0.0166128
-0.0125075
-0.0117599
-0.0121998
-0.0133524
-0.0181205
-0.0296325
-0.0472093
-0.0690416
-0.0983067
-0.13951
-0.186391
-0.220054
-0.225179
-0.201986
-0.257625
-0.197853
-0.146416
-0.104206
-0.0705539
-0.0447741
-0.0262693
-0.0148076
-0.00991672
-0.0089682
-0.00950345
-0.010583
-0.0153103
-0.0267336
-0.0442733
-0.0660392
-0.0951169
-0.136355
-0.183601
-0.217709
-0.223408
-0.201623
-0.256117
-0.1972
-0.146086
-0.103813
-0.0699085
-0.0436652
-0.0243502
-0.0118148
-0.00614265
-0.00513455
-0.00615119
-0.00748947
-0.0124929
-0.023899
-0.0412976
-0.062972
-0.0919795
-0.133439
-0.181481
-0.21663
-0.222826
-0.201723
-0.24367
-0.187053
-0.137701
-0.0965332
-0.0631789
-0.0369696
-0.0171763
-0.00335749
0.00438876
0.00737227
0.00892812
0.00419023
-0.00278557
-0.0149891
-0.0319463
-0.0536296
-0.0849868
-0.131656
-0.185946
-0.224811
-0.234314
-0.204847
-0.164356
-0.224558
-0.173098
-0.127597
-0.0889243
-0.0570544
-0.031432
-0.0112916
0.00340499
0.0118712
0.014498
0.00945884
0.0110309
0.00448244
-0.00766754
-0.024504
-0.0463498
-0.0782788
-0.125652
-0.179233
-0.216533
-0.219606
-0.196771
-0.157386
-0.20746
-0.160448
-0.118236
-0.0817481
-0.0511511
-0.0261199
-0.00594885
0.0093826
0.0189803
0.0227592
0.0238957
0.0187406
0.0113067
-0.00102628
-0.017869
-0.039806
-0.0715178
-0.117867
-0.170447
-0.207843
-0.212916
-0.188812
-0.150093
-0.19115
-0.148405
-0.10942
-0.0751442
-0.0458749
-0.0215171
-0.00150612
0.0142238
0.024826
0.0297458
0.0304546
0.0260335
0.0183791
0.00624939
-0.0101808
-0.031799
-0.063134
-0.109164
-0.161972
-0.199299
-0.203741
-0.17917
-0.141527
-0.176086
-0.137215
-0.101211
-0.0690576
-0.0411319
-0.0175223
0.0021431
0.0179979
0.0293159
0.0352797
0.0363859
0.032716
0.0254289
0.0140054
-0.0015712
-0.0225552
-0.0536862
-0.100031
-0.152672
-0.188778
-0.192246
-0.167917
-0.131956
-0.162136
-0.126784
-0.0935673
-0.0634697
-0.0369178
-0.0141197
0.00508245
0.0208508
0.0326343
0.0395726
0.0415465
0.0387761
0.0323014
0.0219511
0.0074736
-0.0127746
-0.0437274
-0.0899771
-0.14154
-0.176178
-0.178841
-0.155283
-0.12152
-0.149289
-0.117124
-0.0864956
-0.0583663
-0.0332006
-0.0112706
0.00739602
0.0229269
0.0349622
0.0427222
0.0457324
0.0441563
0.0388745
0.0298952
0.0166785
-0.00274193
-0.0332369
-0.078726
-0.128791
-0.16183
-0.163777
-0.141491
-0.110408
-0.137481
-0.108196
-0.0799692
-0.0537191
-0.0299389
-0.00892944
0.00915267
0.0243463
0.0364498
0.0448414
0.048904
0.048699
0.0449214
0.0376041
0.0258649
0.00747042
-0.022291
-0.0666737
-0.114913
-0.145998
-0.147342
-0.126834
-0.098846
-0.126637
-0.0999575
-0.0739597
-0.0495002
-0.0270898
-0.00704384
0.0104101
0.0252077
0.037237
0.0460625
0.0510563
0.0522256
0.0501208
0.0447105
0.034722
0.0175685
-0.0113563
-0.0543629
-0.100248
-0.128968
-0.129917
-0.111665
-0.0870826
-0.116681
-0.0923624
-0.0684334
-0.0456779
-0.0246105
-0.00555731
0.0112246
0.0255895
0.0374463
0.046473
0.0522432
0.0546452
0.0541692
0.0507425
0.0427107
0.0269601
-0.00101439
-0.0422164
-0.0850937
-0.111112
-0.111965
-0.09637
-0.0753751
-0.107538
-0.0853628
-0.0633537
-0.0422184
-0.0224601
-0.00441378
0.0116556
0.0255554
0.0371781
0.0462957
0.052594
0.0559755
0.0568983
0.0552839
0.0491984
0.0349501
0.00822722
-0.0305555
-0.0697321
-0.0927792
-0.0939917
-0.0813438
-0.0639724
-0.0991335
-0.078911
-0.0586836
-0.0390865
-0.0205991
-0.00356077
0.0117636
0.0251634
0.036505
0.0456125
0.05225
0.0563389
0.0583067
0.0581169
0.0537124
0.0409981
0.0160487
-0.0195408
-0.0544276
-0.0745693
-0.0765376
-0.0669639
-0.0530978
-0.0914011
-0.0729603
-0.0543866
-0.0362468
-0.0189893
-0.00295021
0.0116072
0.0244708
0.0354887
0.0445053
0.0513343
0.0558999
0.0585615
0.0593127
0.0561527
0.0449789
0.0224447
-0.00919381
-0.0395178
-0.057185
-0.0601435
-0.0535585
-0.0429317
-0.0842772
-0.0674658
-0.0504271
-0.033665
-0.0175935
-0.00253843
0.0112404
0.0235349
0.0341863
0.0430442
0.0499468
0.0548116
0.0578973
0.0591806
0.0568536
0.047235
0.0276283
0.000381571
-0.025525
-0.0412289
-0.0452653
-0.0413722
-0.0336007
-0.0777038
-0.0623849
-0.046771
-0.0313086
-0.0163766
-0.00228522
0.0107121
0.022412
0.0326557
0.0412927
0.0481727
0.0532014
0.0565314
0.0580878
0.0563349
0.0482606
0.0317449
0.00885499
-0.0130777
-0.0271909
-0.0321937
-0.0305421
-0.0251742
-0.0716279
-0.0576776
-0.043386
-0.0291472
-0.0153058
-0.00215351
0.0100661
0.0211549
0.0309542
0.0393143
0.0460916
0.0511793
0.054637
0.0563324
0.0550237
0.0483911
0.0347771
0.0158501
-0.00263594
-0.0153645
-0.021028
-0.0210987
-0.0176696
-0.066001
-0.0533071
-0.040242
-0.0271529
-0.0143517
-0.00210949
0.00934183
0.0198101
0.0291368
0.0371738
0.0437826
0.0488453
0.052349
0.0541162
0.0531749
0.0477921
0.0366954
0.0211885
0.00566775
-0.00574323
-0.0116995
-0.0129901
-0.0110654
-0.0607793
-0.0492393
-0.0373112
-0.0253003
-0.0134875
-0.002123
0.0085743
0.018419
0.0272546
0.0349338
0.0413211
0.0462918
0.0497796
0.0515808
0.0509458
0.0466008
0.037606
0.0249734
0.0120029
0.00189113
-0.00403459
-0.00611394
-0.0053142
-0.0559233
-0.0454434
-0.0345686
-0.0235667
-0.0126899
-0.00216787
0.00779446
0.0170191
0.0253529
0.0326498
0.0387764
0.0436038
0.0470299
0.0488427
0.0484673
0.0449797
0.037718
0.0274687
0.0166859
0.00784271
0.00218358
-0.000344621
-0.000353853
-0.0513974
-0.0418916
-0.0319915
-0.021932
-0.0119387
-0.00222162
0.00702886
0.0156431
0.0234712
0.0303705
0.0362096
0.0408574
0.0441911
0.0460042
0.0458563
0.0430868
0.0372521
0.0289674
0.0200522
0.0124145
0.00717317
0.00444877
0.00388456
-0.04717
-0.0385589
-0.0295599
-0.0203787
-0.0112169
-0.00226533
0.00629966
0.0143178
0.0216434
0.0281382
0.0336733
0.0381183
0.0413414
0.0431503
0.0432081
0.0410494
0.0363938
0.0297262
0.0223964
0.0158743
0.0111338
0.00839258
0.0074722
-0.0432129
-0.0354233
-0.0272563
-0.0188921
-0.0105102
-0.00228365
0.00562492
0.0130651
0.0198972
0.0259878
0.0312114
0.0354406
0.0385436
0.0403473
0.0405938
0.0389607
0.0352834
0.0299476
0.0239579
0.0184464
0.0142404
0.011604
0.0104794
-0.0395014
-0.0324655
-0.0250656
-0.0174596
-0.00980716
-0.00226455
0.00501883
0.0119025
0.0182545
0.0239467
0.0288582
0.0328668
0.0358462
0.0376441
0.0380637
0.036885
0.0340221
0.0297849
0.0249252
0.0203142
0.0166428
0.014189
0.0129737
-0.0360133
-0.0296683
-0.0229749
-0.0160711
-0.00909885
-0.00219899
0.004492
0.0108436
0.0167319
0.0220356
0.0266397
0.0304284
0.0332841
0.0350752
0.0356515
0.0348653
0.0326819
0.029352
0.0254444
0.0216258
0.0184676
0.0162423
0.0150188
-0.0327296
-0.0270172
-0.0209733
-0.0147185
-0.00837873
-0.00208055
0.00405166
0.00989744
0.0153414
0.0202698
0.0245748
0.0281477
0.0308812
0.0326632
0.0333784
0.0329296
0.0313136
0.0287351
0.025628
0.0224993
0.0198208
0.0178471
0.0166737
-0.0296334
-0.0244996
-0.0190517
-0.0133955
-0.0076423
-0.0019055
0.00370199
0.00906961
0.0140904
0.018659
0.0226757
0.0260392
0.0286527
0.0304215
0.0312569
0.0310958
0.0299531
0.027998
0.0255634
0.0230293
0.020791
0.0190763
0.0179924
-0.02671
-0.0221047
-0.017203
-0.0120976
-0.0068869
-0.00167219
0.00344452
0.00836216
0.0129823
0.0172084
0.0209492
0.0241104
0.0266062
0.0283566
0.0292928
0.0293747
0.0286258
0.0271857
0.0253199
0.0232929
0.0214527
0.019993
0.0190235
-0.0239468
-0.0198233
-0.0154213
-0.0108218
-0.00611148
-0.00138077
0.00327852
0.00777449
0.0120174
0.0159191
0.0193971
0.0223638
0.0247438
0.0264698
0.0274877
0.0277721
0.0273495
0.0263314
0.0249091
0.0233485
0.0218672
0.0206515
0.0198104
-0.0213325
-0.0176478
-0.0137021
-0.00956613
-0.00531637
-0.00103306
0.00320145
0.00730411
0.0111932
0.0147885
0.0180172
0.0207973
0.0230634
0.0247585
0.0258395
0.0262902
0.0261369
0.02547
0.0244392
0.0232512
0.0220861
0.0210988
0.0203918
-0.0188577
-0.0155717
-0.012042
-0.00832995
-0.00450301
-0.000632152
0.00320912
0.00694616
0.0105057
0.0138209
0.0168045
0.0194055
0.0215595
0.0232173
0.0243437
0.0249283
0.0249955
0.0246195
0.023913
0.0230409
0.0221524
0.0213746
0.0208016
-0.0165138
-0.0135897
-0.0104384
-0.00711332
-0.00367367
-0.000182194
0.00329587
0.00669386
0.00994496
0.0129857
0.015749
0.0181805
0.0202245
0.0218388
0.0229944
0.0236843
0.0239299
0.0237934
0.0233542
0.0227497
0.0221011
0.0215128
0.0210693
-0.0142935
-0.0116972
-0.00888955
-0.00591702
-0.00283135
0.000312078
0.00345543
0.00653965
0.00950415
0.0122907
0.0148443
0.0171137
0.0190493
0.0206144
0.0217846
0.0225544
0.0229412
0.0229878
0.0227801
0.0224026
0.0219609
0.021542
0.0212205
-0.0121903
-0.00989043
-0.00739436
-0.00474233
-0.00197958
0.0008453
0.00368111
0.0064755
0.00917465
0.011726
0.0140825
0.0161942
0.0180231
0.0195344
0.0207062
0.0215344
0.022033
0.0222357
0.0222081
0.0220199
0.0217554
0.021486
0.0212776
-0.0101987
-0.00816627
-0.0059521
-0.00359089
-0.00112209
0.00141178
0.00396566
0.00649317
0.00894693
0.0112804
0.0134487
0.015411
0.017135
0.0185886
0.0197505
0.0206185
0.0212016
0.0215291
0.0216488
0.0216176
0.0215037
0.021365
0.0212593
-0.00831342
-0.00652199
-0.00456241
-0.00246461
-0.000262846
0.00200576
0.00430165
0.00658407
0.00881115
0.010942
0.0129365
0.0147598
0.0163755
0.0177672
0.0189084
0.0198017
0.0204483
0.0208721
0.0211105
0.0212084
0.0212211
0.0211955
0.0211819
-0.00652997
-0.00495523
-0.00322516
-0.00136547
0.00059414
0.0026214
0.00468171
0.00673935
0.00875749
0.0107001
0.012532
0.0142219
0.0157408
0.0170631
0.0181804
0.0190792
0.0197696
0.0202666
0.020599
0.0208019
0.0209201
0.0209914
0.0210592
-0.00484423
-0.00346396
-0.00194039
-0.000295551
0.00144491
0.003253
0.00509859
0.00695046
0.00877629
0.0105445
0.012224
0.0137867
0.0152068
0.0164635
0.0175451
0.0184433
0.0191621
0.019713
0.0201185
0.0204056
0.0206107
0.020764
0.0209025
-0.0032524
-0.00204633
-0.000708214
0.000743131
0.00228561
0.00389506
0.00554528
0.00720911
0.00885825
0.010465
0.0120021
0.0134445
0.0147695
0.0159592
0.017001
0.0178881
0.018622
0.0192107
0.0196715
0.0200251
0.0203007
0.0205225
0.0207217
-0.00175098
-0.000700621
0.000471242
0.00174864
0.00311261
0.00454233
0.00601512
0.0075074
0.00899449
0.0104522
0.0118565
0.0131855
0.0144189
0.0155407
0.0165391
0.0174074
0.0181455
0.0187585
0.0192597
0.0196645
0.0199964
0.0202743
0.0205248
-0.000336743
0.000574705
0.00159784
0.00271915
0.00392247
0.00518988
0.00650182
0.00783788
0.00917662
0.010497
0.0117778
0.0129998
0.0141452
0.0151996
0.0161518
0.0169952
0.0177285
0.0183548
0.0188836
0.0193266
0.0197022
0.0200255
0.0203184
0.000993381
0.00178115
0.00267149
0.00365304
0.00471203
0.00583314
0.00699951
0.00819358
0.00939675
0.0105907
0.0117569
0.0128786
0.0139398
0.0149276
0.0158317
0.0166455
0.0173669
0.0179971
0.0185432
0.0190131
0.0194219
0.0197807
0.020108
0.00224226
0.00292015
0.00369217
0.0045488
0.00547839
0.00646787
0.00750278
0.00856802
0.00964753
0.0107254
0.0117855
0.0128131
0.0137941
0.0147169
0.0155719
0.0163527
0.0170565
0.0176832
0.0182375
0.0187252
0.0191578
0.0195437
0.019898
0.0034126
0.0039931
0.00465991
0.00540512
0.00621894
0.00709023
0.00800664
0.00895522
0.00992216
0.0108937
0.0118558
0.0127956
0.0137005
0.0145601
0.0153657
0.0161111
0.0167929
0.01741
0.0179656
0.0184632
0.0189116
0.0193171
0.0196919
0.00450695
0.00500134
0.00557483
0.0062209
0.00693133
0.00769672
0.00850653
0.00934971
0.0102144
0.0110887
0.0119605
0.0128185
0.0136515
0.0144504
0.015207
0.0159154
0.0165719
0.0171748
0.0177257
0.0182267
0.0186843
0.0191031
0.0194926
0.00552779
0.0059462
0.00643711
0.00699514
0.00761346
0.00828417
0.00899831
0.00974647
0.0105185
0.0113042
0.012093
0.012875
0.0136406
0.0143813
0.0150899
0.0157605
0.0163895
0.0169746
0.0175162
0.0180153
0.0184765
0.018903
0.0193022
0.00647729
0.00682893
0.00724697
0.00772703
0.0082635
0.00884975
0.00947823
0.0101409
0.0108292
0.0115343
0.0122471
0.012959
0.0136614
0.0143469
0.0150087
0.0156416
0.0162416
0.0168061
0.0173349
0.0178278
0.0182881
0.0187177
0.0191222
0.00735774
0.00765077
0.00800466
0.00841587
0.00887979
0.00939092
0.00994291
0.010529
0.0111418
0.0117738
0.0124172
0.0130644
0.0137081
0.0143414
0.0149584
0.0155539
0.0161243
0.0166665
0.0171797
0.0176631
0.0181188
0.0185477
0.0189538
0.00817099
0.00841281
0.00871045
0.00906106
0.00946088
0.00990539
0.0103893
0.0109069
0.0114518
0.0120178
0.0125981
0.0131861
0.0137753
0.0143598
0.014934
0.0154932
0.0160337
0.0165526
0.0170484
0.0175198
0.017968
0.018393
0.0187977
0.00891888
0.00911618
0.00936464
0.00966208
0.0100055
0.0103911
0.0108146
0.0112711
0.0117554
0.012262
0.0127851
0.0133191
0.0138582
0.0143972
0.014931
0.0154553
0.0159664
0.0164615
0.0169386
0.0173964
0.0178348
0.0182536
0.0186545
0.00960317
0.00976179
0.00996742
0.0102184
0.0105123
0.0108462
0.0112163
0.0116187
0.0120489
0.0125024
0.012974
0.013459
0.0139522
0.0144491
0.0149451
0.0154362
0.0159189
0.0163903
0.0168483
0.0172911
0.0177183
0.018129
0.0185242
0.0102249
0.0103503
0.0105189
0.0107296
0.0109804
0.0112689
0.0115921
0.0119468
0.0123291
0.0127351
0.0131607
0.0136015
0.0140531
0.0145115
0.0149724
0.0154323
0.0158879
0.0163361
0.016775
0.0172023
0.0176173
0.0180188
0.0184069
0.0107859
0.0108826
0.0110194
0.0111951
0.0114085
0.0116575
0.0119398
0.0122526
0.0125928
0.012957
0.0133416
0.0137429
0.0141571
0.0145804
0.0150093
0.0154403
0.0158703
0.0162965
0.0167165
0.0171284
0.0175308
0.0179223
0.0183024
0.0112875
0.0113592
0.0114685
0.0116144
0.0117956
0.0120106
0.0122575
0.0125339
0.0128373
0.0131648
0.0135133
0.0138797
0.0142605
0.0146525
0.0150523
0.0154569
0.0158633
0.0162687
0.0166709
0.0170677
0.0174575
0.0178387
0.0182105
0.0117261
0.011779
0.0118658
0.0119866
0.0121405
0.0123265
0.012543
0.0127882
0.0130599
0.0133557
0.0136728
0.0140086
0.0143601
0.0147244
0.0150983
0.0154792
0.0158641
0.0162505
0.0166361
0.0170186
0.0173963
0.0177674
0.0181307
0.0121087
0.0121439
0.0122114
0.012311
0.012442
0.0126037
0.0127946
0.0130134
0.0132581
0.0135268
0.0138172
0.0141268
0.0144529
0.0147931
0.0151445
0.0155044
0.0158703
0.0162397
0.0166102
0.0169796
0.017346
0.0177076
0.0180628
0.0124312
0.0124525
0.0125043
0.0125865
0.0126988
0.0128403
0.0130101
0.013207
0.0134295
0.0136757
0.0139437
0.0142313
0.0145361
0.0148559
0.0151881
0.0155302
0.0158797
0.0162342
0.0165915
0.0169493
0.0173056
0.0176585
0.0180064
0.0126934
0.0127037
0.0127432
0.0128117
0.012909
0.0130346
0.0131876
0.013367
0.0135716
0.0137997
0.0140496
0.0143195
0.0146071
0.0149103
0.0152268
0.0155542
0.0158901
0.0162324
0.0165786
0.0169266
0.0172743
0.0176198
0.0179612
0.012894
0.0128962
0.0129264
0.0129846
0.0130708
0.0131843
0.0133247
0.0134909
0.013682
0.0138964
0.0141327
0.014389
0.0146634
0.0149539
0.0152583
0.0155744
0.0158999
0.0162325
0.0165701
0.0169104
0.0172513
0.0175908
0.017927
0.0130309
0.0130276
0.0130517
0.013103
0.0131816
0.0132871
0.0134189
0.0135763
0.0137582
0.0139634
0.0141903
0.0144375
0.0147029
0.0149848
0.0152809
0.0155892
0.0159075
0.0162335
0.016565
0.0168999
0.017236
0.0175714
0.017904
0.0131013
0.0130953
0.0131162
0.013164
0.0132388
0.0133402
0.0134676
0.0136204
0.0137976
0.0139981
0.0142203
0.0144627
0.0147236
0.0150009
0.0152928
0.0155971
0.0159116
0.0162342
0.0165626
0.0168947
0.0172284
0.0175615
0.0178922
0.00634238
0.00641808
0.0065226
0.00665631
0.00681945
0.00701201
0.00723377
0.0074843
0.0077629
0.00806865
0.00840037
0.00875662
0.00913571
0.00953571
0.00995436
0.0103893
0.0108376
0.0112967
0.0117633
0.0122342
0.0127059
0.0131751
0.00627094
0.00634898
0.00645618
0.00659293
0.00675941
0.00695563
0.00718134
0.00743606
0.00771908
0.00802945
0.00836594
0.00872711
0.0091112
0.00951625
0.00993996
0.0103799
0.0108332
0.0112971
0.0117684
0.0122437
0.0127196
0.0131927
0.00613219
0.00621479
0.00632724
0.0064699
0.00664293
0.00684629
0.00707967
0.00734257
0.0076342
0.00795356
0.00829936
0.00867008
0.00906389
0.00947876
0.00991231
0.010362
0.010825
0.0112983
0.0117786
0.0122626
0.0127465
0.0132272
0.00592909
0.0060185
0.00613874
0.00629015
0.00647286
0.00668675
0.00693145
0.00720637
0.00751066
0.00784322
0.00820266
0.00858738
0.00899544
0.00942469
0.00987264
0.0103367
0.0108137
0.0113007
0.0117942
0.0122909
0.0127867
0.0132783
0.00566406
0.00576252
0.00589311
0.00605611
0.00625158
0.00647935
0.00673895
0.00702967
0.00735057
0.00770042
0.00807774
0.00848078
0.00890746
0.0093555
0.00982226
0.0103049
0.0108004
0.0113053
0.0118161
0.0123292
0.0128404
0.0133462
0.00533871
0.00544855
0.00559211
0.0057696
0.005981
0.00622602
0.00650408
0.00681437
0.00715579
0.00752699
0.00792634
0.00835192
0.00880151
0.00927264
0.00976249
0.0102681
0.0107861
0.011313
0.0118449
0.0123781
0.0129083
0.0134315
0.00495419
0.00507788
0.00523712
0.00543209
0.00566265
0.00592835
0.0062285
0.00656213
0.006928
0.00732458
0.00775008
0.00820239
0.0086791
0.00917755
0.00969471
0.0102274
0.010772
0.0113248
0.0118817
0.0124387
0.0129911
0.0135349
0.0045112
0.00465135
0.00482917
0.00504475
0.00529779
0.00558771
0.00591364
0.00627445
0.00666871
0.00709472
0.00755048
0.00803368
0.0085417
0.00907166
0.00962029
0.0101842
0.0107594
0.0113421
0.0119277
0.0125121
0.01309
0.0136573
0.0040101
0.00416954
0.00436901
0.00460847
0.00488748
0.00520527
0.00556077
0.00595266
0.00637933
0.00683884
0.00732899
0.00784725
0.00839076
0.00895639
0.00954061
0.0101398
0.0107496
0.011366
0.0119841
0.0125993
0.0132061
0.0138
0.00345096
0.00363275
0.00385716
0.00412398
0.00443261
0.00478206
0.00517105
0.00559802
0.00606116
0.0065583
0.007087
0.0076445
0.00822766
0.00883311
0.00945705
0.0100955
0.010744
0.011398
0.0120522
0.0127018
0.0133407
0.0139641
0.00283369
0.00304112
0.00329398
0.00359188
0.00393396
0.00431902
0.00474553
0.00521169
0.00571545
0.0062544
0.00682584
0.00742675
0.00805375
0.00870319
0.00937096
0.0100528
0.0107438
0.0114393
0.0121333
0.0128208
0.0134952
0.0141512
0.00215802
0.00239468
0.00267978
0.00301267
0.00339226
0.00381704
0.00428523
0.00479479
0.00534339
0.00592837
0.00654678
0.00719532
0.00787034
0.00856792
0.00928363
0.0100129
0.0107505
0.0114912
0.0122288
0.0129578
0.013671
0.0143626
0.00142358
0.00169341
0.00201481
0.00238688
0.00280821
0.00327698
0.00379117
0.00434842
0.00494614
0.00558142
0.00625104
0.00695143
0.00767866
0.00842854
0.0091963
0.00997709
0.0107652
0.0115551