/*--------------------------------*- C++ -*----------------------------------*\
  =========                 |
  \\      /  F ield         | OpenFOAM: The Open Source CFD Toolbox
   \\    /   O peration     | Website:  https://openfoam.org
    \\  /    A nd           | Version:  7
     \\/     M anipulation  |
\*---------------------------------------------------------------------------*/
FoamFile
{
    version     2.0;
    format      ascii;
    class       volVectorField;
    location    "100";
    object      U;
}
// * * * * * * * * * * * * * * * * * * * * * * * * * * * * * * * * * * * * * //

dimensions      [0 1 -1 0 0 0 0];

internalField   nonuniform List<vector> 
4575
(
(0.352074 -0.589345 2.72367e-22)
(0.408592 -0.660883 -1.27589e-22)
(0.443336 -0.685912 -9.42241e-23)
(0.454367 -0.685741 8.51158e-23)
(0.437882 -0.681522 -8.77187e-23)
(0.396917 -0.674925 -9.64635e-23)
(0.362328 -0.626297 1.71939e-23)
(0.377746 -0.485446 1.41658e-22)
(0.446312 -0.25571 1.04429e-22)
(0.540906 0.00627719 -3.38959e-22)
(0.63732 0.240495 1.98667e-22)
(0.719543 0.411254 -8.05477e-23)
(0.77943 0.512462 -3.70528e-23)
(0.81378 0.560019 5.06703e-23)
(0.826771 0.572531 3.83777e-23)
(0.827377 0.563858 -8.4416e-24)
(0.815331 0.555241 -4.42842e-23)
(0.78209 0.564697 4.18507e-24)
(0.731161 0.571275 -9.8488e-23)
(0.687103 0.517051 1.09471e-22)
(0.673696 0.364333 -3.33041e-23)
(0.694834 0.13852 3.45139e-23)
(0.740077 -0.094899 -1.48012e-22)
(0.377013 -0.598793 1.40557e-21)
(0.429803 -0.66743 -1.36356e-22)
(0.460742 -0.689109 -5.94328e-22)
(0.468811 -0.685292 3.74882e-22)
(0.450498 -0.677434 -6.44582e-22)
(0.406954 -0.66955 6.24133e-22)
(0.366137 -0.624703 3.61844e-23)
(0.373114 -0.490835 -8.92394e-23)
(0.435512 -0.266409 -5.98571e-22)
(0.527098 -0.00622014 8.21668e-22)
(0.623039 0.228868 -5.86242e-22)
(0.706686 0.402075 5.03497e-22)
(0.768926 0.506417 -8.55837e-23)
(0.805812 0.556956 -5.47086e-22)
(0.821386 0.571563 4.03401e-22)
(0.82427 0.564405 -2.15114e-22)
(0.813645 0.557708 1.98275e-22)
(0.781098 0.569247 -1.01702e-23)
(0.731148 0.576358 -6.55523e-23)
(0.688905 0.520195 2.67367e-22)
(0.677447 0.36421 -4.86411e-22)
(0.700029 0.135497 5.16425e-22)
(0.746023 -0.099461 -5.2572e-22)
(0.402442 -0.607483 2.65285e-21)
(0.451386 -0.673323 -1.72551e-21)
(0.478414 -0.691817 -1.07911e-22)
(0.483418 -0.684548 1.78575e-22)
(0.463325 -0.6731 1.39468e-21)
(0.417564 -0.663681 -5.68441e-24)
(0.37101 -0.622353 -4.44589e-22)
(0.36957 -0.495653 2.91645e-22)
(0.425523 -0.277028 -3.3745e-22)
(0.51385 -0.0190108 7.22306e-24)
(0.609122 0.21677 2.39893e-23)
(0.694038 0.392394 -1.13873e-22)
(0.758518 0.499931 -1.01802e-23)
(0.797904 0.553529 -2.67394e-23)
(0.816074 0.570306 4.45748e-22)
(0.821255 0.564753 -3.55853e-22)
(0.812069 0.560048 -1.83542e-23)
(0.780266 0.573684 -2.65355e-22)
(0.731371 0.581332 2.34993e-22)
(0.690963 0.523324 -1.74587e-23)
(0.68143 0.36423 2.03117e-22)
(0.70542 0.132731 -7.7049e-23)
(0.752118 -0.103741 1.37903e-22)
(0.428307 -0.615409 2.13659e-21)
(0.4733 -0.67856 -1.86029e-21)
(0.496336 -0.694037 1.11323e-21)
(0.498177 -0.683522 -1.65991e-21)
(0.476331 -0.668563 7.0944e-22)
(0.428695 -0.657376 -3.3437e-22)
(0.376922 -0.619259 4.9596e-22)
(0.36715 -0.499853 -9.81978e-22)
(0.416388 -0.287513 5.83231e-22)
(0.501198 -0.0320593 4.2075e-22)
(0.595597 0.204222 3.77932e-22)
(0.681615 0.382218 2.91695e-22)
(0.748214 0.493001 -6.94604e-22)
(0.790058 0.54973 -3.38725e-22)
(0.810835 0.568752 6.25452e-23)
(0.818327 0.564894 3.86646e-22)
(0.810599 0.56225 5.14852e-22)
(0.779592 0.577995 -5.77109e-23)
(0.731822 0.586195 8.21588e-23)
(0.693267 0.526444 -3.42233e-22)
(0.685635 0.364405 1.41321e-22)
(0.711001 0.130234 4.38295e-23)
(0.758359 -0.107731 -1.10703e-21)
(0.454552 -0.622564 1.4837e-21)
(0.495507 -0.683139 -1.16973e-21)
(0.514485 -0.69577 1.05915e-21)
(0.513078 -0.682224 -4.71258e-22)
(0.489488 -0.663863 2.51199e-22)
(0.44029 -0.650696 -1.15289e-21)
(0.38384 -0.615446 1.48558e-21)
(0.365883 -0.503394 1.33589e-22)
(0.408147 -0.297803 -5.60017e-22)
(0.489179 -0.0453224 -1.40129e-21)
(0.582491 0.191247 3.11327e-22)
(0.669431 0.37156 -4.09716e-22)
(0.738021 0.485628 4.9637e-22)
(0.782278 0.545553 -9.03844e-23)
(0.805667 0.566892 -1.23837e-22)
(0.815484 0.564819 6.84723e-23)
(0.809231 0.564302 2.77753e-22)
(0.779074 0.582168 1.27781e-22)
(0.732496 0.59094 1.67357e-23)
(0.695807 0.529562 5.55513e-22)
(0.690053 0.364747 -2.22106e-22)
(0.716765 0.128017 -9.77492e-22)
(0.764743 -0.111423 4.40228e-22)
(0.481121 -0.628948 -3.69121e-21)
(0.517963 -0.687063 1.15458e-21)
(0.532838 -0.69702 -2.38478e-22)
(0.528112 -0.680665 -1.99277e-21)
(0.502769 -0.659035 1.63569e-21)
(0.452295 -0.643701 -2.04266e-22)
(0.391721 -0.610944 -9.41706e-23)
(0.365792 -0.506238 1.93457e-21)
(0.400839 -0.307839 -1.50579e-21)
(0.477825 -0.0587597 1.46515e-21)
(0.569827 0.177869 -5.33803e-22)
(0.657501 0.36043 -8.01964e-22)
(0.727947 0.477813 9.55277e-22)
(0.774565 0.540991 -5.86029e-22)
(0.800568 0.564719 -3.30541e-22)
(0.81272 0.564518 -7.67769e-23)
(0.807963 0.566191 -6.58443e-22)
(0.778709 0.586189 3.15636e-22)
(0.733385 0.595565 -8.20586e-22)
(0.698571 0.532683 -4.88767e-22)
(0.694674 0.365265 9.48906e-22)
(0.722704 0.126088 6.26153e-22)
(0.771265 -0.11481 6.49821e-22)
(0.507956 -0.634561 -5.15559e-21)
(0.540625 -0.690334 2.3028e-21)
(0.551368 -0.697792 -2.76078e-21)
(0.543267 -0.678853 -2.34422e-22)
(0.516149 -0.654113 8.10866e-22)
(0.464652 -0.636454 -6.07772e-22)
(0.400512 -0.605789 -5.53437e-22)
(0.366894 -0.508353 -6.43371e-22)
(0.394499 -0.31756 8.9332e-22)
(0.467169 -0.0723259 1.29466e-21)
(0.557632 0.164116 1.52558e-21)
(0.645838 0.348842 -1.61057e-21)
(0.717998 0.469557 1.57069e-21)
(0.766922 0.536038 -7.45015e-22)
(0.795536 0.562224 -5.9974e-22)
(0.810032 0.563984 8.83166e-22)
(0.806789 0.567905 5.67154e-22)
(0.778494 0.590047 -1.58751e-21)
(0.73448 0.600065 4.50112e-22)
(0.701548 0.535814 5.54749e-22)
(0.699487 0.36597 -3.53381e-22)
(0.72881 0.124459 8.68213e-22)
(0.77792 -0.117885 -7.96876e-22)
(0.535001 -0.639404 -2.70952e-22)
(0.563451 -0.692957 9.24149e-22)
(0.570048 -0.69809 2.03734e-21)
(0.558535 -0.676793 -1.45414e-21)
(0.529605 -0.649125 9.11957e-23)
(0.477306 -0.629017 -2.06826e-23)
(0.410153 -0.600027 -8.85655e-22)
(0.369198 -0.509713 -8.35748e-22)
(0.389163 -0.326902 2.27097e-21)
(0.457239 -0.0859729 -9.56639e-23)
(0.545926 0.150018 -1.03859e-21)
(0.634456 0.336812 -1.01887e-21)
(0.708182 0.460863 1.57492e-21)
(0.759351 0.530689 -1.02841e-21)
(0.79057 0.559401 1.83899e-22)
(0.807414 0.563206 -4.21187e-22)
(0.805704 0.569431 1.08259e-21)
(0.778422 0.59373 -1.05083e-21)
(0.735772 0.604436 3.83996e-22)
(0.704725 0.538958 1.08331e-21)
(0.704479 0.366868 -1.9968e-21)
(0.735071 0.123137 -6.12495e-22)
(0.784701 -0.120642 1.33824e-21)
(0.562197 -0.643483 2.96849e-21)
(0.586395 -0.694938 1.15336e-21)
(0.588846 -0.697923 -6.91489e-22)
(0.573904 -0.674494 9.88376e-22)
(0.543117 -0.644099 1.64235e-21)
(0.490203 -0.621448 -2.65194e-21)
(0.420579 -0.59371 5.61431e-22)
(0.372703 -0.510301 1.35115e-21)
(0.384861 -0.335803 -8.0625e-22)
(0.448061 -0.0996498 2.63069e-21)
(0.53473 0.135605 -3.17246e-21)
(0.623366 0.324356 1.17972e-21)
(0.698505 0.451733 -1.48212e-21)
(0.751854 0.524939 1.47258e-22)
(0.785666 0.556242 -2.15269e-22)
(0.804861 0.562176 8.40173e-22)
(0.804705 0.570756 -4.4513e-22)
(0.77849 0.597226 -7.16725e-22)
(0.73725 0.608673 -5.04156e-22)
(0.70809 0.542121 1.94368e-21)
(0.709638 0.367969 1.32778e-21)
(0.741477 0.12213 4.22776e-22)
(0.791603 -0.123074 -9.93377e-22)
(0.589489 -0.646804 3.73512e-21)
(0.609415 -0.696283 3.004e-21)
(0.607732 -0.697299 -3.26711e-21)
(0.589361 -0.671959 -4.75097e-21)
(0.556668 -0.639054 -8.91651e-23)
(0.503291 -0.613808 5.98305e-22)
(0.431718 -0.586895 4.1355e-21)
(0.377397 -0.510106 -3.02465e-21)
(0.381625 -0.344201 1.51193e-21)
(0.439661 -0.113304 -2.52586e-21)
(0.524061 0.120912 1.60586e-21)
(0.612581 0.311491 -7.51759e-22)
(0.688974 0.442172 5.46029e-22)
(0.744434 0.518783 -8.48102e-22)
(0.780822 0.552741 7.70565e-23)
(0.802368 0.560884 -6.08813e-22)
(0.803786 0.571869 1.15754e-21)
(0.778689 0.600523 -9.06342e-22)
(0.738903 0.612773 6.74191e-22)
(0.711627 0.545305 -1.90562e-21)
(0.714948 0.369278 5.13907e-22)
(0.748017 0.121447 -2.98763e-21)
(0.798618 -0.125175 1.70874e-21)
(0.61682 -0.649374 -8.93968e-22)
(0.632466 -0.697001 4.45333e-21)
(0.626673 -0.696226 -4.82706e-21)
(0.604895 -0.669195 8.86613e-22)
(0.570243 -0.634011 -2.00885e-21)
(0.51652 -0.606152 3.10288e-21)
(0.443493 -0.579645 1.93473e-21)
(0.383261 -0.509127 3.85156e-22)
(0.379483 -0.352034 -3.02407e-21)
(0.43206 -0.126878 6.17811e-22)
(0.513936 0.105975 3.21288e-21)
(0.60211 0.298237 -6.91545e-22)
(0.679596 0.432185 -1.79009e-21)
(0.737092 0.51222 -2.14056e-22)
(0.776036 0.548891 2.82034e-21)
(0.799929 0.559323 -8.8955e-23)
(0.80294 0.572758 -5.76851e-22)
(0.779015 0.60361 2.48057e-22)
(0.74072 0.616732 -4.81417e-22)
(0.715325 0.548514 2.46221e-21)
(0.720396 0.370802 -1.22688e-21)
(0.754676 0.121092 4.08036e-21)
(0.805739 -0.12694 -1.92891e-21)
(0.856424 -0.313872 2.29293e-21)
(0.644135 -0.651204 1.13051e-21)
(0.655507 -0.697102 -4.67926e-21)
(0.645637 -0.694716 -5.19728e-23)
(0.620491 -0.666207 5.94786e-21)
(0.583829 -0.628981 -2.69571e-21)
(0.529844 -0.59853 -3.90463e-21)
(0.455826 -0.572027 3.63526e-21)
(0.390258 -0.507373 4.01612e-22)
(0.37846 -0.359245 -3.2128e-21)
(0.425279 -0.140312 -1.52962e-21)
(0.504369 0.0908302 1.06838e-21)
(0.591964 0.284613 1.86153e-21)
(0.670377 0.421777 -3.03156e-21)
(0.729829 0.505245 7.5551e-22)
(0.771303 0.544686 5.15595e-22)
(0.797537 0.557483 -2.56985e-21)
(0.802162 0.573409 -1.0422e-21)
(0.779457 0.606476 1.6259e-22)
(0.742688 0.620545 4.75353e-21)
(0.719167 0.551748 -1.96414e-21)
(0.725965 0.372545 2.07363e-21)
(0.761441 0.121072 -6.88622e-21)
(0.812957 -0.128364 1.20107e-21)
(0.863344 -0.315679 3.53634e-22)
(0.671379 -0.652306 -7.31191e-21)
(0.678495 -0.696596 1.58238e-21)
(0.664591 -0.69278 1.29813e-21)
(0.636133 -0.662999 -3.89285e-21)
(0.597416 -0.623977 5.746e-21)
(0.54322 -0.590991 -3.76946e-21)
(0.468636 -0.564112 2.91665e-21)
(0.398345 -0.50486 -4.55799e-21)
(0.378581 -0.365779 4.45813e-21)
(0.419337 -0.153545 1.35909e-21)
(0.495372 0.0755196 1.32001e-21)
(0.582152 0.270642 -3.89941e-21)
(0.661323 0.410955 1.37597e-21)
(0.722649 0.497857 -6.09701e-22)
(0.76662 0.540122 1.97963e-22)
(0.795187 0.555356 2.18817e-21)
(0.801445 0.573812 -4.49808e-22)
(0.780009 0.609111 7.5275e-22)
(0.744796 0.624207 1.28582e-21)
(0.723138 0.555011 -1.37091e-21)
(0.731638 0.374512 1.79599e-21)
(0.768296 0.121392 -3.03314e-21)
(0.820264 -0.129443 2.3238e-21)
(0.870339 -0.317207 -1.80383e-22)
(0.698501 -0.65269 -3.81699e-22)
(0.701389 -0.695494 -8.1777e-21)
(0.683503 -0.69043 6.01317e-21)
(0.651804 -0.659577 -4.08431e-21)
(0.610996 -0.619004 -2.49524e-21)
(0.556608 -0.583577 4.63787e-22)
(0.481843 -0.555972 9.47673e-22)
(0.407463 -0.501618 -1.73102e-21)
(0.379862 -0.371587 2.19647e-21)
(0.414255 -0.166511 2.33929e-21)
(0.486957 0.0600855 -4.67516e-21)
(0.572683 0.256347 1.37758e-21)
(0.652442 0.399727 2.0788e-21)
(0.715553 0.490054 -2.89622e-21)
(0.761985 0.535192 3.41157e-21)
(0.792872 0.552933 9.79577e-22)
(0.800783 0.573955 -9.41757e-22)
(0.780661 0.611503 -9.89332e-22)
(0.74703 0.627713 1.36569e-21)
(0.727224 0.558301 -2.78265e-21)
(0.737398 0.376706 2.82612e-21)
(0.775228 0.122056 2.39188e-21)
(0.827649 -0.130172 1.86339e-23)
(0.877404 -0.318455 8.58478e-22)
(0.725447 -0.652371 -5.17626e-21)
(0.724149 -0.693809 -1.62926e-21)
(0.702343 -0.687679 -2.15328e-22)
(0.667486 -0.655947 1.37813e-21)
(0.624563 -0.614068 -2.11607e-21)
(0.569973 -0.576325 -5.0897e-22)
(0.49537 -0.547681 3.95008e-23)
(0.417545 -0.497683 2.7899e-21)
(0.382318 -0.376624 -7.18848e-22)
(0.410054 -0.179144 -5.80134e-22)
(0.479134 0.0445732 -4.68113e-21)
(0.563567 0.241751 -5.43536e-22)
(0.643739 0.388103 2.15004e-21)
(0.708543 0.481838 2.07556e-22)
(0.757394 0.529893 6.63753e-23)
(0.790585 0.550207 7.03235e-22)
(0.800168 0.573826 -6.41299e-22)
(0.781404 0.613642 -1.19314e-21)
(0.749377 0.631059 -1.12527e-21)
(0.731408 0.56162 2.23985e-21)
(0.743229 0.37913 -3.63813e-21)
(0.782219 0.123067 -1.69557e-22)
(0.835104 -0.130548 7.55657e-22)
(0.884534 -0.319421 -4.27064e-21)
(0.752168 -0.651363 4.16995e-21)
(0.746734 -0.691554 -4.31809e-21)
(0.721081 -0.684542 1.91802e-21)
(0.683161 -0.652115 2.70867e-21)
(0.638111 -0.60917 5.83121e-22)
(0.583286 -0.569266 -1.50214e-22)
(0.509138 -0.539309 6.67134e-22)
(0.428513 -0.493101 -2.77925e-21)
(0.385955 -0.380857 1.98286e-21)
(0.406757 -0.191375 -7.91694e-23)
(0.471915 0.0290292 2.72259e-21)
(0.554811 0.226882 -1.1556e-21)
(0.635221 0.376091 -9.49359e-22)
(0.701622 0.473207 1.72824e-22)
(0.752844 0.524221 -1.6478e-21)
(0.788319 0.54717 1.53492e-21)
(0.799592 0.573416 -8.63424e-22)
(0.782227 0.61552 1.16732e-21)
(0.751824 0.63424 -3.75804e-23)
(0.735674 0.564966 -2.67018e-21)
(0.74911 0.381786 7.79054e-22)
(0.789253 0.124428 -1.32704e-21)
(0.842617 -0.130568 5.07082e-21)
(0.891724 -0.320105 -3.43936e-21)
(0.778614 -0.649681 8.9716e-21)
(0.769107 -0.688742 5.618e-21)
(0.739688 -0.681031 -2.32627e-22)
(0.698807 -0.648089 2.56768e-21)
(0.651637 -0.604308 1.22301e-22)
(0.596522 -0.562426 -2.15286e-21)
(0.523075 -0.53093 -2.11638e-22)
(0.440283 -0.487929 1.07602e-21)
(0.390768 -0.384258 2.31548e-21)
(0.404388 -0.203136 -4.18097e-21)
(0.465311 0.0135219 1.54851e-21)
(0.546425 0.211766 -1.05112e-21)
(0.626896 0.363705 2.85767e-21)
(0.694791 0.464164 -3.47876e-23)
(0.748331 0.518172 1.23503e-21)
(0.786068 0.543815 -1.126e-21)
(0.799048 0.572712 -9.97977e-22)
(0.783121 0.617125 6.43405e-22)
(0.754358 0.637248 -1.96361e-21)
(0.740007 0.568339 4.766e-21)
(0.755026 0.384673 -3.30988e-21)
(0.796313 0.126141 3.84939e-21)
(0.850178 -0.13023 1.63209e-21)
(0.898969 -0.320503 -2.25524e-21)
(0.804739 -0.647339 6.22641e-21)
(0.791231 -0.68539 5.74353e-22)
(0.758138 -0.677161 -2.83632e-21)
(0.714405 -0.643877 1.25148e-21)
(0.665138 -0.599482 1.0875e-21)
(0.609658 -0.555825 8.34081e-22)
(0.537112 -0.522609 -1.15439e-21)
(0.452763 -0.482229 1.92834e-21)
(0.396745 -0.386811 -4.08462e-21)
(0.402977 -0.214358 -9.72234e-23)
(0.459337 -0.00183148 3.98041e-21)
(0.538417 0.196434 -3.4106e-21)
(0.618772 0.350955 -8.80903e-22)
(0.688054 0.454713 -4.47749e-22)
(0.743852 0.511745 4.38607e-22)
(0.783826 0.540134 -2.05027e-22)
(0.798528 0.571705 -1.34032e-21)
(0.784074 0.618448 1.7266e-22)
(0.756965 0.640079 2.87307e-21)
(0.744391 0.571735 1.43439e-22)
(0.760956 0.387793 -2.94807e-21)
(0.803383 0.128205 -3.41577e-21)
(0.857775 -0.129531 1.15059e-21)
(0.906263 -0.320615 3.82434e-21)
(0.830495 -0.644355 -5.01668e-21)
(0.81307 -0.681512 -3.99252e-21)
(0.776405 -0.672947 -2.67926e-21)
(0.729933 -0.639486 4.84577e-21)
(0.678609 -0.594685 -2.76227e-21)
(0.62268 -0.549476 2.20235e-21)
(0.551185 -0.514411 -7.76526e-22)
(0.465858 -0.476071 -1.40421e-21)
(0.403858 -0.38851 9.04606e-23)
(0.402558 -0.224973 -2.70697e-21)
(0.454008 -0.0171217 -2.78236e-23)
(0.530791 0.180914 2.79518e-21)
(0.610858 0.337856 1.6629e-21)
(0.681415 0.444856 -2.11356e-21)
(0.739403 0.504937 -1.72316e-22)
(0.781584 0.536121 2.91371e-22)
(0.798023 0.570387 5.2812e-22)
(0.785077 0.619481 -2.52139e-21)
(0.759632 0.642726 2.28919e-21)
(0.748809 0.575152 -3.6049e-22)
(0.766883 0.391144 -1.65731e-21)
(0.810444 0.130622 3.92725e-22)
(0.865398 -0.128472 -3.01597e-21)
(0.9136 -0.320439 4.29503e-22)
(0.855837 -0.640744 -2.27436e-20)
(0.834591 -0.677125 1.87756e-20)
(0.794468 -0.668404 -1.13465e-20)
(0.745371 -0.634926 4.78856e-22)
(0.692047 -0.589915 2.61633e-21)
(0.635577 -0.543388 -1.81185e-21)
(0.565234 -0.506394 -1.57046e-21)
(0.479471 -0.469531 2.06038e-21)
(0.412068 -0.389361 9.5473e-22)
(0.403143 -0.234921 -2.46308e-21)
(0.449345 -0.0323382 1.5802e-21)
(0.523574 0.165242 -4.3366e-23)
(0.603161 0.324423 -4.12515e-22)
(0.674877 0.434599 1.96183e-21)
(0.734983 0.497748 1.37011e-21)
(0.779338 0.531772 7.91285e-22)
(0.797525 0.568746 -2.91014e-21)
(0.786118 0.620213 1.0646e-21)
(0.762346 0.645182 1.04614e-21)
(0.753247 0.578586 -1.01663e-21)
(0.772789 0.394725 2.22655e-21)
(0.817481 0.133391 -1.13741e-22)
(0.873035 -0.12705 -3.08856e-21)
(0.920974 -0.319975 1.42643e-21)
(0.880724 -0.636524 -1.74814e-20)
(0.85576 -0.672247 1.20597e-20)
(0.812304 -0.663545 5.47187e-21)
(0.7607 -0.630206 -4.76655e-21)
(0.705448 -0.585166 -6.00643e-21)
(0.648341 -0.537562 3.48383e-21)
(0.579208 -0.498611 -5.26708e-22)
(0.493506 -0.462687 -1.82167e-21)
(0.421322 -0.389382 1.06462e-23)
(0.40476 -0.244143 8.35618e-22)
(0.445372 -0.0472743 -1.07958e-22)
(0.516778 0.149455 9.67495e-22)
(0.595694 0.310674 9.34849e-22)
(0.668444 0.423948 -2.06542e-21)
(0.730588 0.490178 5.27743e-23)
(0.777078 0.52708 1.30435e-22)
(0.797024 0.566776 -4.8228e-22)
(0.787186 0.620636 1.41056e-21)
(0.765093 0.647441 2.65049e-21)
(0.757689 0.582032 -4.33128e-21)
(0.778656 0.398534 -5.79969e-23)
(0.824476 0.136509 7.25493e-22)
(0.880675 -0.125267 5.09834e-21)
(0.928379 -0.31922 -1.99614e-21)
(0.905112 -0.631711 -1.42128e-20)
(0.876547 -0.666896 3.6694e-22)
(0.829896 -0.658385 -8.28931e-21)
(0.7759 -0.625336 1.03502e-20)
(0.718806 -0.580433 -6.59836e-21)
(0.660969 -0.531997 1.96756e-21)
(0.59306 -0.491108 -3.62597e-21)
(0.507868 -0.455621 6.12246e-21)
(0.431555 -0.388601 -4.27147e-21)
(0.407433 -0.252584 2.79369e-21)
(0.442117 -0.0618726 9.81799e-22)
(0.510418 0.13359 -2.50563e-21)
(0.588468 0.296627 -2.57372e-22)
(0.662121 0.412912 -1.215e-21)
(0.726216 0.482227 8.44647e-22)
(0.7748 0.522041 1.97509e-22)
(0.796512 0.564468 -2.10811e-21)
(0.78827 0.620741 1.40232e-21)
(0.767861 0.649494 8.97806e-22)
(0.76212 0.585486 -1.84169e-21)
(0.784467 0.402567 5.04056e-22)
(0.831412 0.139976 -2.48615e-21)
(0.888307 -0.123122 1.05309e-21)
(0.935809 -0.318174 -9.72402e-22)
(0.928962 -0.626325 1.07454e-20)
(0.896924 -0.661093 -2.86391e-21)
(0.847225 -0.65294 -3.92247e-21)
(0.790953 -0.620326 6.24017e-22)
(0.732116 -0.575709 -7.45454e-22)
(0.673463 -0.526685 1.0619e-21)
(0.60675 -0.483925 -7.79099e-22)
(0.522464 -0.448413 2.77959e-21)
(0.44269 -0.387059 3.93448e-22)
(0.411177 -0.2602 1.30258e-21)
(0.439612 -0.0760791 -3.42906e-21)
(0.504516 0.11769 2.41405e-21)
(0.581497 0.282304 3.27088e-22)
(0.655914 0.4015 -4.87792e-22)
(0.721866 0.473899 -8.72788e-22)
(0.772496 0.516651 1.35374e-21)
(0.795979 0.561814 -1.07464e-21)
(0.789359 0.62052 -8.06472e-22)
(0.770638 0.651333 3.83708e-21)
(0.766526 0.588942 -1.03976e-21)
(0.790206 0.406821 -1.05988e-21)
(0.838275 0.143787 7.25239e-21)
(0.895918 -0.120616 -1.38785e-21)
(0.943257 -0.316835 -1.01202e-21)
(0.952236 -0.620385 -1.12807e-20)
(0.916864 -0.654856 2.71645e-21)
(0.864276 -0.647222 -4.72016e-22)
(0.805844 -0.615186 1.07478e-20)
(0.745368 -0.570992 -2.43087e-21)
(0.685827 -0.521618 4.11565e-22)
(0.620244 -0.477093 -5.91877e-23)
(0.537209 -0.441146 -4.94766e-21)
(0.454641 -0.384807 7.56769e-22)
(0.415999 -0.266958 3.17801e-21)
(0.437892 -0.0898316 9.78687e-22)
(0.499092 0.101798 -1.4867e-21)
(0.574795 0.267729 -5.43491e-23)
(0.64983 0.389722 2.00935e-23)
(0.717535 0.465195 7.06245e-22)
(0.77016 0.510908 -8.78208e-22)
(0.795417 0.558809 -3.0234e-21)
(0.790441 0.619964 1.51137e-21)
(0.77341 0.652951 -6.92809e-22)
(0.770893 0.592392 -4.25936e-21)
(0.795855 0.411291 2.59877e-21)
(0.845048 0.147941 6.8373e-22)
(0.9035 -0.117752 7.03256e-22)
(0.950718 -0.315204 -1.39987e-21)
(0.974896 -0.613909 1.58757e-20)
(0.936344 -0.648208 8.95279e-21)
(0.881036 -0.641248 -1.00751e-20)
(0.820558 -0.609925 6.70024e-21)
(0.758554 -0.566278 -2.2766e-21)
(0.698066 -0.516779 -4.03052e-22)
(0.633515 -0.470636 4.00167e-21)
(0.55202 -0.433897 -7.08229e-22)
(0.467315 -0.381906 -2.06422e-22)
(0.421894 -0.272834 -5.22301e-22)
(0.436996 -0.103068 -1.3624e-21)
(0.494176 0.0859632 2.6877e-21)
(0.56838 0.252926 -1.09987e-21)
(0.643877 0.377592 1.46371e-21)
(0.713223 0.456121 -2.42355e-21)
(0.767787 0.504809 -1.60807e-21)
(0.794817 0.555445 3.88336e-21)
(0.791506 0.619066 -8.89634e-22)
(0.776168 0.654339 -2.56753e-22)
(0.775209 0.595829 4.63833e-21)
(0.801399 0.415971 -3.54148e-21)
(0.851717 0.152431 -2.54927e-22)
(0.911042 -0.114531 -1.35258e-21)
(0.958184 -0.313278 3.54137e-21)
(0.955342 -0.641169 -1.29986e-20)
(0.897493 -0.63503 2.78425e-22)
(0.835083 -0.604554 4.56716e-21)
(0.771663 -0.561563 5.35096e-21)
(0.710188 -0.512154 1.91668e-21)
(0.646544 -0.464572 8.66018e-22)
(0.566823 -0.426741 -3.15344e-21)
(0.480615 -0.378423 2.27509e-22)
(0.42884 -0.277817 5.95675e-22)
(0.43696 -0.115727 2.17826e-22)
(0.489796 0.0702372 -7.43137e-22)
(0.562269 0.237925 -4.07477e-22)
(0.638062 0.365124 -1.39179e-21)
(0.70893 0.446681 -1.35063e-22)
(0.765369 0.498353 2.34666e-23)
(0.794168 0.551718 9.81348e-22)
(0.792542 0.617817 -1.5057e-21)
(0.778898 0.655486 -4.57169e-21)
(0.779462 0.599244 -2.47208e-22)
(0.806824 0.420855 -9.21978e-22)
(0.858268 0.157253 -5.81736e-22)
(0.918535 -0.110955 5.98253e-21)
(0.965651 -0.311057 2.15872e-21)
(0.973839 -0.633762 -1.10638e-21)
(0.913635 -0.628583 2.22201e-21)
(0.849407 -0.599081 -6.05094e-21)
(0.784685 -0.556846 1.3877e-21)
(0.722201 -0.507724 4.29765e-21)
(0.659316 -0.458909 -4.74229e-21)
(0.581549 -0.419748 6.08274e-22)
(0.494441 -0.374436 5.83005e-22)
(0.436803 -0.281908 1.41425e-21)
(0.43782 -0.12775 -2.6051e-21)
(0.485988 0.0546753 2.45588e-22)
(0.556484 0.222757 3.29521e-21)
(0.632395 0.352335 -1.13362e-21)
(0.704656 0.436884 5.54089e-22)
(0.762901 0.49154 7.24555e-22)
(0.793461 0.547623 -2.63659e-21)
(0.793538 0.61621 4.02998e-21)
(0.78159 0.656384 -3.77987e-21)
(0.783639 0.60263 5.81652e-21)
(0.812115 0.425937 -4.22585e-21)
(0.86469 0.162402 -8.22122e-21)
(0.92597 -0.107028 2.06e-21)
(0.97311 -0.30854 2.30218e-21)
(0.99182 -0.626011 7.75738e-21)
(0.929455 -0.62192 -4.35707e-21)
(0.863524 -0.593516 3.42281e-21)
(0.797607 -0.552126 7.06265e-22)
(0.734116 -0.50347 6.22412e-22)
(0.671823 -0.453651 -2.42044e-21)
(0.596136 -0.412981 2.85303e-22)
(0.508694 -0.370022 1.88239e-21)
(0.445734 -0.285119 3.36494e-22)
(0.439607 -0.139082 5.53449e-22)
(0.482788 0.0393334 -1.99352e-21)
(0.551049 0.207457 1.39016e-21)
(0.626887 0.339242 -3.40695e-22)
(0.700401 0.426736 4.5272e-22)
(0.760378 0.484372 -2.54156e-21)
(0.792688 0.543156 4.84282e-21)
(0.794484 0.614238 1.5408e-21)
(0.784235 0.657023 -4.4155e-21)
(0.78773 0.605974 7.84184e-21)
(0.81726 0.431207 3.54155e-21)
(0.870973 0.16787 1.47434e-21)
(0.933342 -0.102752 -8.86937e-21)
(0.980557 -0.305727 6.87204e-22)
(1.00927 -0.617938 1.80093e-20)
(0.944944 -0.615057 -6.67136e-21)
(0.877425 -0.587866 -4.25279e-21)
(0.810419 -0.547404 1.36397e-21)
(0.745939 -0.499372 3.86716e-21)
(0.684064 -0.448792 -1.72093e-21)
(0.610531 -0.406499 2.09735e-21)
(0.523278 -0.365265 -6.55106e-22)
(0.455571 -0.287475 4.86406e-22)
(0.442343 -0.149677 -1.18019e-21)
(0.480238 0.0242679 -8.84343e-23)
(0.545988 0.192061 -2.04447e-21)
(0.621551 0.325868 8.7379e-22)
(0.696169 0.416247 -2.96232e-22)
(0.757796 0.476849 -1.22272e-21)
(0.79184 0.538314 2.91846e-21)
(0.795368 0.611894 -2.52653e-21)
(0.78682 0.657392 6.08794e-21)
(0.791725 0.609268 -9.30964e-22)
(0.822245 0.436658 1.54245e-21)
(0.877107 0.173651 -2.83329e-21)
(0.940646 -0.0981314 -2.87002e-21)
(0.987985 -0.302616 -2.10387e-21)
(1.02619 -0.609567 5.14524e-21)
(0.960096 -0.608006 -7.45179e-21)
(0.891105 -0.582139 8.70405e-21)
(0.823107 -0.54268 -6.29812e-21)
(0.757678 -0.495411 9.38852e-21)
(0.696042 -0.444323 -6.35742e-21)
(0.624686 -0.400352 1.17515e-21)
(0.538102 -0.360249 -6.62397e-22)
(0.466242 -0.289009 1.46836e-21)
(0.446039 -0.159497 -6.27456e-22)
(0.47838 0.00958659 2.66724e-21)
(0.541332 0.176613 -2.04313e-21)
(0.616399 0.312234 2.42096e-21)
(0.691961 0.405429 -1.53871e-21)
(0.755148 0.468975 5.47774e-22)
(0.790906 0.533096 1.47759e-21)
(0.796181 0.609171 -4.38933e-21)
(0.789339 0.657479 -2.75495e-21)
(0.795615 0.612499 8.93687e-21)
(0.82706 0.442279 -7.83105e-22)
(0.883088 0.179736 3.82762e-21)
(0.94788 -0.0931701 -2.11258e-21)
(0.995389 -0.299207 -2.01441e-21)
(1.04256 -0.600922 3.16497e-22)
(0.974907 -0.60078 -2.56531e-20)
(0.904561 -0.576339 4.20306e-21)
(0.83566 -0.537955 2.45237e-22)
(0.769338 -0.491567 5.46814e-21)
(0.707764 -0.440226 -2.86761e-21)
(0.63856 -0.394581 3.6349e-21)
(0.553079 -0.355059 -1.73706e-21)
(0.477665 -0.289768 -6.06504e-22)
(0.450694 -0.168513 1.92599e-21)
(0.477257 -0.00461141 -1.20122e-21)
(0.53711 0.161156 7.90507e-22)
(0.611449 0.298367 8.72268e-22)
(0.687781 0.394296 1.14839e-21)
(0.752432 0.460755 -1.98961e-21)
(0.789879 0.5275 -2.20825e-21)
(0.79691 0.606063 2.18219e-21)
(0.79178 0.657275 2.56692e-21)
(0.799392 0.615654 -4.4913e-21)
(0.831695 0.44806 -8.35198e-23)
(0.888914 0.186116 -5.48378e-21)
(0.955043 -0.087872 4.7353e-21)
(1.00276 -0.295497 4.66726e-21)
(1.05838 -0.592024 -6.1812e-21)
(0.989373 -0.593389 2.90406e-21)
(0.917791 -0.57047 4.31215e-21)
(0.848069 -0.533231 -4.26637e-21)
(0.780923 -0.48782 -2.5052e-21)
(0.719244 -0.43648 5.67251e-23)
(0.65212 -0.38922 1.99035e-21)
(0.568129 -0.349776 -3.39295e-23)
(0.489756 -0.289803 -1.80408e-21)
(0.45629 -0.176701 1.27922e-21)
(0.47691 -0.0185129 -2.02989e-22)
(0.533356 0.145731 -1.04065e-21)
(0.60672 0.284295 -5.44642e-22)
(0.683636 0.38286 4.14203e-22)
(0.749643 0.452195 1.20941e-23)
(0.788749 0.521526 -2.46753e-21)
(0.797547 0.602564 3.63278e-21)
(0.794136 0.656767 -6.51914e-21)
(0.803047 0.618722 1.03004e-20)
(0.836139 0.453988 -1.67101e-21)
(0.894587 0.192781 -4.69473e-21)
(0.96214 -0.0822415 -1.0702e-21)
(1.0101 -0.291486 -4.76028e-21)
(1.07365 -0.582901 1.51046e-20)
(1.00349 -0.585853 -9.92252e-21)
(0.930792 -0.564544 4.38243e-21)
(0.860324 -0.528514 4.18201e-21)
(0.792433 -0.484159 4.70143e-23)
(0.730497 -0.433063 -7.96775e-22)
(0.665339 -0.384299 -9.84175e-24)
(0.583178 -0.344483 -3.24067e-22)
(0.50243 -0.289175 5.20958e-22)
(0.462768 -0.184061 7.77197e-22)
(0.477371 -0.0320579 -1.13847e-21)
(0.530137 0.130394 -1.89703e-22)
(0.602239 0.270049 -7.88505e-22)
(0.679534 0.37114 2.78459e-21)
(0.746781 0.443301 -1.67623e-21)
(0.787509 0.515176 1.35203e-21)
(0.798079 0.59867 2.66131e-21)
(0.796398 0.655943 -2.87498e-21)
(0.806573 0.621687 -4.43023e-21)
(0.840385 0.46005 2.69797e-21)
(0.90012 0.199719 4.57655e-21)
(0.969181 -0.0762823 -6.6796e-21)
(1.0174 -0.28717 -5.35688e-21)
(1.08837 -0.573596 1.00997e-20)
(1.01726 -0.578204 -5.45511e-21)
(0.943566 -0.558585 7.08115e-21)
(0.872418 -0.523825 5.5116e-21)
(0.803869 -0.480582 -7.31418e-21)
(0.741541 -0.429957 6.97581e-22)
(0.678195 -0.379842 8.74176e-22)
(0.598157 -0.339262 1.43743e-21)
(0.515602 -0.287954 -8.96491e-22)
(0.47008 -0.19059 -4.7801e-22)
(0.478662 -0.0449805 -5.38985e-22)
(0.527503 0.115192 1.03618e-21)
(0.598046 0.255662 -8.72292e-22)
(0.675491 0.359155 1.48809e-21)
(0.743845 0.434083 -7.9648e-22)
(0.786151 0.508452 -9.34372e-22)
(0.798498 0.594376 3.27055e-22)
(0.798559 0.654792 4.3283e-21)
(0.809963 0.624534 -7.79054e-21)
(0.844427 0.466232 5.69106e-21)
(0.905533 0.206921 1.18528e-20)
(0.97618 -0.0699949 -1.61395e-20)
(1.02466 -0.282546 6.24088e-21)
(1.10255 -0.564124 -1.59357e-20)
(1.03068 -0.570444 9.77742e-21)
(0.956112 -0.55258 2.87074e-21)
(0.884344 -0.519151 1.81135e-21)
(0.815227 -0.477065 -3.76052e-24)
(0.752398 -0.427122 -3.84749e-21)
(0.690676 -0.375852 1.90428e-21)
(0.613007 -0.334179 7.77124e-22)
(0.529195 -0.286199 4.71506e-22)
(0.478168 -0.196286 7.06417e-23)
(0.480789 -0.0572832 -1.12924e-21)
(0.525518 0.100166 8.38206e-22)
(0.594195 0.24117 8.10092e-23)
(0.671536 0.346925 -2.04144e-22)
(0.740843 0.424551 -9.00171e-22)
(0.784668 0.501356 1.56168e-21)
(0.798794 0.589678 -1.35152e-21)
(0.800613 0.653302 2.97363e-21)
(0.813209 0.62725 -2.03419e-21)
(0.848265 0.472516 4.47085e-21)
(0.910868 0.214373 -4.23239e-21)
(0.983162 -0.0633806 4.17337e-21)
(1.03186 -0.277614 -4.27083e-21)
(1.11619 -0.554389 1.28792e-21)
(1.04376 -0.562453 1.50712e-20)
(0.96843 -0.546412 -5.35728e-22)
(0.896098 -0.51439 2.24808e-21)
(0.826503 -0.47351 -4.82625e-21)
(0.763088 -0.424457 -5.80209e-22)
(0.702772 -0.372278 -2.78072e-22)
(0.627669 -0.329259 2.13616e-21)
(0.543131 -0.28395 -1.22731e-21)
(0.486963 -0.201139 -2.60648e-22)
(0.483733 -0.0689469 6.13241e-22)
(0.524254 0.0853761 -1.31882e-21)
(0.590772 0.22662 2.95989e-22)
(0.667721 0.334477 1.3931e-21)
(0.737794 0.414718 -1.76986e-21)
(0.783061 0.493895 1.12994e-21)
(0.798957 0.584573 3.48704e-23)
(0.802554 0.65146 2.17837e-21)
(0.816304 0.629816 -1.14371e-22)
(0.851912 0.478879 -7.16412e-22)
(0.916193 0.222042 4.12056e-21)
(0.990161 -0.0564654 -1.03972e-20)
(1.03902 -0.272379 6.98296e-21)
(1.12931 -0.544347 -1.68102e-20)
(1.05648 -0.554186 2.09307e-21)
(0.980519 -0.540037 1.64935e-21)
(0.907672 -0.509511 1.0536e-21)
(0.837686 -0.469888 2.03824e-21)
(0.773627 -0.421914 7.61906e-22)
(0.714479 -0.369104 5.70733e-22)
(0.64209 -0.32457 -4.52587e-22)
(0.557342 -0.281294 4.12349e-23)
(0.496394 -0.205186 -1.49273e-22)
(0.487448 -0.0799424 -2.63408e-22)
(0.523781 0.0708957 7.80943e-22)
(0.587902 0.212079 -7.63465e-22)
(0.664142 0.321857 1.56879e-21)
(0.734747 0.404611 -2.09594e-21)
(0.781341 0.486083 1.48444e-21)
(0.798986 0.579062 -1.32758e-21)
(0.804379 0.649252 -1.63839e-23)
(0.819241 0.632202 1.48922e-22)
(0.855409 0.485263 2.94805e-21)
(0.921626 0.229861 -2.90632e-21)
(0.997229 -0.0492934 -5.37871e-21)
(1.04612 -0.26682 7.58902e-21)
(1.06886 -0.546327 8.2529e-21)
(0.992379 -0.534093 -5.47758e-21)