/*--------------------------------*- C++ -*----------------------------------*\
  =========                 |
  \\      /  F ield         | OpenFOAM: The Open Source CFD Toolbox
   \\    /   O peration     | Website:  https://openfoam.org
    \\  /    A nd           | Version:  7
     \\/     M anipulation  |
\*---------------------------------------------------------------------------*/
FoamFile
{
    version     2.0;
    format      ascii;
    class       volScalarField;
    location    "60";
    object      p;
}
// * * * * * * * * * * * * * * * * * * * * * * * * * * * * * * * * * * * * * //

dimensions      [0 2 -2 0 0 0 0];

internalField   nonuniform List<scalar> 
4575
(
-0.357301
-0.350461
-0.345181
-0.362939
-0.355751
-0.350257
-0.34445
-0.338332
-0.368622
-0.361093
-0.355389
-0.349358
-0.342974
-0.336216
-0.328918
-0.320936
-0.374328
-0.366464
-0.360553
-0.354295
-0.347632
-0.340515
-0.332758
-0.324212
-0.314791
-0.304501
-0.293444
-0.281808
-0.380029
-0.371839
-0.365725
-0.359237
-0.352278
-0.344774
-0.33652
-0.327368
-0.317254
-0.30622
-0.294415
-0.282065
-0.269433
-0.256776
-0.244311
-0.385696
-0.377191
-0.370878
-0.364155
-0.356883
-0.348963
-0.340172
-0.330372
-0.319527
-0.307721
-0.295152
-0.282085
-0.268811
-0.255599
-0.242666
-0.230169
-0.21821
-0.206835
-0.196062
-0.391298
-0.38249
-0.375984
-0.369019
-0.361415
-0.353046
-0.34368
-0.333191
-0.321579
-0.308979
-0.295634
-0.281852
-0.267947
-0.254194
-0.24081
-0.22794
-0.215676
-0.204048
-0.193076
-0.182814
-0.3968
-0.387705
-0.381009
-0.373796
-0.365839
-0.35699
-0.347008
-0.335791
-0.323382
-0.309967
-0.295842
-0.281351
-0.266827
-0.252551
-0.238733
-0.225508
-0.212953
-0.201085
-0.189925
-0.179476
-0.402169
-0.392803
-0.385922
-0.378452
-0.37012
-0.360755
-0.35012
-0.338138
-0.324905
-0.310662
-0.295757
-0.280566
-0.265439
-0.250659
-0.236427
-0.222864
-0.210033
-0.197941
-0.186604
-0.175976
-0.407365
-0.397746
-0.390685
-0.382949
-0.374219
-0.364306
-0.352978
-0.340199
-0.326119
-0.311041
-0.295359
-0.279482
-0.263773
-0.24851
-0.233883
-0.220001
-0.206911
-0.194607
-0.183106
-0.17231
-0.412351
-0.402499
-0.395261
-0.387249
-0.378098
-0.367601
-0.355546
-0.341941
-0.326996
-0.311079
-0.29463
-0.278086
-0.261815
-0.246092
-0.231092
-0.21691
-0.203577
-0.191078
-0.179424
-0.168471
-0.417087
-0.407023
-0.399611
-0.391313
-0.381714
-0.370602
-0.357787
-0.34333
-0.32751
-0.310757
-0.293555
-0.276364
-0.259557
-0.243397
-0.228047
-0.213583
-0.200025
-0.187346
-0.175554
-0.164456
-0.421532
-0.411277
-0.403696
-0.395099
-0.385028
-0.373269
-0.359663
-0.344335
-0.327635
-0.310053
-0.292117
-0.274304
-0.256986
-0.240415
-0.224737
-0.210014
-0.196249
-0.183406
-0.17149
-0.16026
-0.425641
-0.415221
-0.407472
-0.398564
-0.387997
-0.375561
-0.361139
-0.344926
-0.327345
-0.308949
-0.290302
-0.271894
-0.254093
-0.237138
-0.221156
-0.206194
-0.192241
-0.179252
-0.167226
-0.155879
-0.429374
-0.418811
-0.410898
-0.401667
-0.39058
-0.377439
-0.362181
-0.345073
-0.326618
-0.307426
-0.288094
-0.269121
-0.250868
-0.233556
-0.217296
-0.202117
-0.187996
-0.174879
-0.162758
-0.151308
-0.432687
-0.422007
-0.413931
-0.404365
-0.392735
-0.378865
-0.362754
-0.34475
-0.325432
-0.305467
-0.285481
-0.265976
-0.247302
-0.229662
-0.213149
-0.197776
-0.183507
-0.170281
-0.158081
-0.146544
-0.435537
-0.424765
-0.416529
-0.406614
-0.39442
-0.379803
-0.362827
-0.343929
-0.323767
-0.303057
-0.28245
-0.262448
-0.243386
-0.225449
-0.208709
-0.193165
-0.178768
-0.165453
-0.153191
-0.141584
-0.437881
-0.427043
-0.418648
-0.408373
-0.395598
-0.380215
-0.36237
-0.342588
-0.321604
-0.300182
-0.278991
-0.258528
-0.239112
-0.220908
-0.203968
-0.188278
-0.173776
-0.16039
-0.148085
-0.136424
-0.439678
-0.428799
-0.420248
-0.409601
-0.396227
-0.380068
-0.361354
-0.340704
-0.318926
-0.296829
-0.275094
-0.254208
-0.234473
-0.216033
-0.198922
-0.183109
-0.168524
-0.15509
-0.142759
-0.131063
-0.440885
-0.429993
-0.421286
-0.410259
-0.396273
-0.37933
-0.359754
-0.338257
-0.315719
-0.292987
-0.270748
-0.24948
-0.229463
-0.210818
-0.193564
-0.177655
-0.163009
-0.149547
-0.13721
-0.125498
-0.441464
-0.430584
-0.421724
-0.410306
-0.395699
-0.377971
-0.357544
-0.335228
-0.311968
-0.288644
-0.265946
-0.244338
-0.224075
-0.205259
-0.18789
-0.17191
-0.157227
-0.143758
-0.131435
-0.119726
-0.441376
-0.430535
-0.421522
-0.409708
-0.394473
-0.375964
-0.354705
-0.331601
-0.307661
-0.283792
-0.260682
-0.238774
-0.218304
-0.19935
-0.181896
-0.165871
-0.151175
-0.137722
-0.125432
-0.113745
-0.440585
-0.429807
-0.420645
-0.408429
-0.392565
-0.373283
-0.351217
-0.327363
-0.30279
-0.278425
-0.254948
-0.232785
-0.212145
-0.193087
-0.175578
-0.159535
-0.14485
-0.131434
-0.1192
-0.107557
-0.439056
-0.428367
-0.419058
-0.406438
-0.389947
-0.369906
-0.347062
-0.322501
-0.297345
-0.272535
-0.248742
-0.226367
-0.205597
-0.186469
-0.168934
-0.1529
-0.13825
-0.124894
-0.11274
-0.101168
-0.436757
-0.426182
-0.416729
-0.403705
-0.386593
-0.365815
-0.342228
-0.317007
-0.29132
-0.266118
-0.242058
-0.219517
-0.198656
-0.179492
-0.161963
-0.145965
-0.131372
-0.118096
-0.106052
-0.0945731
-0.43366
-0.423223
-0.413631
-0.400205
-0.382482
-0.360991
-0.336702
-0.310872
-0.28471
-0.259172
-0.234895
-0.212233
-0.19132
-0.172156
-0.154663
-0.138728
-0.124216
-0.111042
-0.099127
-0.0877179
-0.429737
-0.419461
-0.409735
-0.395913
-0.377596
-0.355422
-0.330475
-0.304091
-0.277513
-0.251694
-0.227253
-0.204514
-0.183591
-0.164461
-0.147036
-0.131191
-0.116783
-0.103734
-0.0919467
-0.0804829
-0.424966
-0.414874
-0.405019
-0.39081
-0.371918
-0.349097
-0.323542
-0.296662
-0.269726
-0.243684
-0.21913
-0.196362
-0.175468
-0.156408
-0.139082
-0.123355
-0.10908
-0.0961828
-0.0845229
-0.0728585
-0.419326
-0.409439
-0.399464
-0.384878
-0.365436
-0.342008
-0.315898
-0.288582
-0.261351
-0.235144
-0.21053
-0.187778
-0.166953
-0.148
-0.130804
-0.115225
-0.101108
-0.0883882
-0.0768847
-0.0653715
-0.4128
-0.40314
-0.393053
-0.378104
-0.35814
-0.334149
-0.307542
-0.279854
-0.252391
-0.226077
-0.201454
-0.178764
-0.15805
-0.139238
-0.122204
-0.106802
-0.0928716
-0.0803581
-0.0689934
-0.0577714
-0.405374
-0.395962
-0.385772
-0.370479
-0.350025
-0.325521
-0.298476
-0.27048
-0.242848
-0.216486
-0.191908
-0.169326
-0.148761
-0.130127
-0.113288
-0.0980913
-0.0843772
-0.0720876
-0.0609024
-0.0499706
-0.397039
-0.387893
-0.377612
-0.361995
-0.341089
-0.316122
-0.288703
-0.260466
-0.232729
-0.206379
-0.181896
-0.159468
-0.139093
-0.120672
-0.104061
-0.0890982
-0.0756259
-0.0635839
-0.0526133
-0.387788
-0.378927
-0.368567
-0.35265
-0.331331
-0.305958
-0.278229
-0.249818
-0.222042
-0.195761
-0.171426
-0.149197
-0.129052
-0.11088
-0.0945266
-0.0798276
-0.0666231
-0.0548531
-0.377618
-0.36906
-0.358635
-0.342444
-0.320755
-0.295035
-0.267063
-0.238546
-0.210795
-0.184641
-0.160505
-0.138519
-0.118645
-0.100756
-0.0846931
-0.0702861
-0.366529
-0.358292
-0.347817
-0.331381
-0.30937
-0.283362
-0.255215
-0.226662
-0.199
-0.173031
-0.149144
-0.127446
-0.10788
-0.0903092
-0.0745678
-0.354527
-0.346626
-0.336118
-0.319468
-0.297184
-0.270951
-0.242699
-0.214178
-0.186668
-0.160941
-0.137352
-0.115986
-0.0967672
-0.0795485
-0.341619
-0.33407
-0.323547
-0.306717
-0.28421
-0.257817
-0.229529
-0.201109
-0.173814
-0.148384
-0.125143
-0.10415
-0.0853161
-0.327816
-0.320633
-0.310114
-0.29314
-0.270465
-0.243978
-0.215724
-0.187472
-0.160453
-0.135374
-0.112528
-0.0919511
-0.313134
-0.306331
-0.295836
-0.278756
-0.255967
-0.229452
-0.201303
-0.173286
-0.146599
-0.121927
-0.0995223
-0.29759
-0.29118
-0.28073
-0.263583
-0.240737
-0.214262
-0.186287
-0.158565
-0.132278
-0.108059
-0.281208
-0.275202
-0.264819
-0.247646
-0.224801
-0.198435
-0.170692
-0.143336
-0.117503
-0.26401
-0.258419
-0.248126
-0.230969
-0.208189
-0.181995
-0.154544
-0.127622
-0.246026
-0.240859
-0.230679
-0.213584
-0.190926
-0.164949
-0.137886
-0.227286
-0.222551
-0.212511
-0.19553
-0.173019
-0.147354
-0.207818
-0.203529
-0.193657
-0.176847
-0.154497
-0.187657
-0.183832
-0.174147
-0.157486
-0.135478
-0.166838
-0.163496
-0.154013
-0.13757
-0.145394
-0.142566
-0.133291
-0.123357
-0.121099
-0.11204
-0.100797
-0.0991259
-0.0778382
-0.0544517
-0.0559481
-0.0793689
-0.102361
-0.100685
-0.124955
-0.122691
-0.113607
-0.147025
-0.144191
-0.134891
-0.168502
-0.165153
-0.155645
-0.139158
-0.189353
-0.185521
-0.175812
-0.159106
-0.137042
-0.209546
-0.20525
-0.195353
-0.178497
-0.156092
-0.13076
-0.229044
-0.224303
-0.214237
-0.197212
-0.174644
-0.148911
-0.247815
-0.242641
-0.232436
-0.215297
-0.19258
-0.166536
-0.139404
-0.265829
-0.260231
-0.249913
-0.232712
-0.209872
-0.18361
-0.156091
-0.129099
-0.283055
-0.277042
-0.266635
-0.249417
-0.226514
-0.200079
-0.172266
-0.144841
-0.118942
-0.299466
-0.293049
-0.282574
-0.265383
-0.242478
-0.215935
-0.187888
-0.160095
-0.133742
-0.109461
-0.315037
-0.308227
-0.297707
-0.280583
-0.257736
-0.231152
-0.202931
-0.174843
-0.148089
-0.123352
-0.100888
-0.329745
-0.322556
-0.312012
-0.294995
-0.272261
-0.245705
-0.217379
-0.189054
-0.161967
-0.136823
-0.113917
-0.0932842
-0.343574
-0.336018
-0.325471
-0.308598
-0.286032
-0.259571
-0.23121
-0.202717
-0.175353
-0.149856
-0.126554
-0.105505
-0.0866186
-0.356507
-0.348598
-0.338067
-0.321375
-0.299031
-0.27273
-0.244405
-0.215811
-0.188231
-0.162437
-0.138787
-0.117363
-0.0980908
-0.0808222
-0.368533
-0.360288
-0.34979
-0.333312
-0.311242
-0.285166
-0.256946
-0.228319
-0.200586
-0.17455
-0.1506
-0.128845
-0.109225
-0.0916033
-0.0758145
-0.379644
-0.371078
-0.360631
-0.344398
-0.322652
-0.296863
-0.268818
-0.240227
-0.212405
-0.186183
-0.161984
-0.139939
-0.120011
-0.10207
-0.0859596
-0.0715074
-0.389835
-0.380967
-0.370585
-0.354627
-0.333251
-0.30781
-0.280008
-0.251522
-0.223674
-0.197325
-0.172926
-0.150638
-0.130438
-0.112214
-0.0958127
-0.0810681
-0.0678205
-0.0560096
-0.399107
-0.389953
-0.37965
-0.363994
-0.343031
-0.317997
-0.290504
-0.262193
-0.234384
-0.207965
-0.183418
-0.16093
-0.1405
-0.122026
-0.105366
-0.0903578
-0.0768419
-0.0647586
-0.0537483
-0.407461
-0.39804
-0.387829
-0.372498
-0.351989
-0.327418
-0.3003
-0.272229
-0.244525
-0.218094
-0.193451
-0.170809
-0.150188
-0.131501
-0.114613
-0.0993698
-0.0856118
-0.0732804
-0.0620554
-0.051085
-0.414905
-0.405236
-0.395128
-0.380142
-0.360124
-0.336067
-0.309388
-0.281625
-0.254089
-0.227705
-0.203018
-0.180268
-0.159496
-0.140631
-0.123549
-0.108099
-0.0941249
-0.0815689
-0.0701641
-0.058906
-0.421448
-0.411552
-0.401557
-0.386934
-0.367439
-0.343946
-0.317764
-0.290374
-0.26307
-0.236793
-0.212114
-0.189301
-0.168419
-0.149413
-0.132167
-0.116541
-0.102379
-0.089617
-0.0780727
-0.0665278
-0.427103
-0.417002
-0.407128
-0.392883
-0.373939
-0.351054
-0.325428
-0.298474
-0.271465
-0.245353
-0.220734
-0.197905
-0.176953
-0.157841
-0.140464
-0.12469
-0.11037
-0.0974301
-0.0857288
-0.0740358
-0.431888
-0.421603
-0.411858
-0.398002
-0.379634
-0.357398
-0.33238
-0.305923
-0.279271
-0.253383
-0.228876
-0.206076
-0.185096
-0.165913
-0.148436
-0.132544
-0.118092
-0.104999
-0.0931684
-0.0816646
-0.435823
-0.425377
-0.415767
-0.402308
-0.384536
-0.362984
-0.338625
-0.312722
-0.286488
-0.26088
-0.236538
-0.213814
-0.192844
-0.173626
-0.156082
-0.1401
-0.125542
-0.112325
-0.100366
-0.0889163
-0.438932
-0.428347
-0.418877
-0.405821
-0.388661
-0.367823
-0.344168
-0.318875
-0.293116
-0.267845
-0.243719
-0.221117
-0.200198
-0.180981
-0.163401
-0.147355
-0.132717
-0.119398
-0.107311
-0.0957918
-0.44124
-0.430542
-0.421216
-0.408565
-0.392028
-0.37193
-0.349019
-0.324387
-0.299159
-0.27428
-0.250421
-0.227985
-0.207157
-0.187976
-0.17039
-0.154309
-0.139613
-0.126214
-0.114018
-0.102406
-0.442778
-0.43199
-0.422811
-0.410566
-0.394658
-0.37532
-0.353188
-0.329265
-0.304621
-0.280187
-0.256646
-0.234421
-0.213724
-0.194612
-0.177052
-0.160962
-0.146231
-0.132773
-0.120496
-0.108813
-0.443576
-0.432724
-0.423696
-0.411853
-0.396577
-0.378013
-0.356691
-0.333518
-0.309509
-0.285572
-0.262396
-0.240428
-0.2199
-0.200892
-0.183388
-0.167316
-0.152575
-0.139078
-0.126747
-0.115019
-0.44367
-0.432779
-0.423903
-0.412459
-0.397812
-0.380032
-0.359543
-0.337159
-0.313831
-0.29044
-0.267678
-0.246008
-0.225688
-0.206819
-0.1894
-0.173373
-0.158645
-0.145133
-0.132768
-0.121018
-0.443095
-0.432192
-0.42347
-0.412417
-0.398393
-0.3814
-0.361764
-0.340202
-0.317597
-0.294798
-0.272496
-0.251168
-0.231094
-0.212396
-0.195092
-0.179136
-0.164445
-0.15094
-0.138561
-0.126809
-0.441891
-0.431
-0.422435
-0.411764
-0.398354
-0.382147
-0.363375
-0.342662
-0.320818
-0.298656
-0.276857
-0.255912
-0.236121
-0.217628
-0.200467
-0.184608
-0.169978
-0.156501
-0.144129
-0.132393
-0.440096
-0.429245
-0.420837
-0.410539
-0.397729
-0.3823
-0.364401
-0.344557
-0.323509
-0.302023
-0.28077
-0.260248
-0.240776
-0.222519
-0.205531
-0.189794
-0.175248
-0.16182
-0.149474
-0.137773
-0.437751
-0.426966
-0.418717
-0.408781
-0.396555
-0.381894
-0.364866
-0.345909
-0.325684
-0.304911
-0.284243
-0.264183
-0.245065
-0.227077
-0.210289
-0.194699
-0.180259
-0.166901
-0.154599
-0.142952
-0.4349
-0.424207
-0.416118
-0.406531
-0.394871
-0.380961
-0.3648
-0.346738
-0.32736
-0.307334
-0.287287
-0.267725
-0.248997
-0.231307
-0.214746
-0.199328
-0.185015
-0.171748
-0.159508
-0.147932
-0.431585
-0.421008
-0.413082
-0.403832
-0.392717
-0.379537
-0.364232
-0.34707
-0.328556
-0.309304
-0.289913
-0.270885
-0.252578
-0.235217
-0.21891
-0.203686
-0.189522
-0.176365
-0.164204
-0.152715
-0.427848
-0.417413
-0.409652
-0.400727
-0.390133
-0.377661
-0.363195
-0.346929
-0.329292
-0.310838
-0.292134
-0.273671
-0.255818
-0.238814
-0.222787
-0.207781
-0.193786
-0.180757
-0.168692
-0.157306
-0.423733
-0.413465
-0.405871
-0.397257
-0.387162
-0.375369
-0.361721
-0.346344
-0.32959
-0.311953
-0.293962
-0.276095
-0.258725
-0.242107
-0.226384
-0.211618
-0.197812
-0.18493
-0.172976
-0.161708
-0.419282
-0.409204
-0.40178
-0.393466
-0.383844
-0.372701
-0.359846
-0.345343
-0.329472
-0.312666
-0.295411
-0.278167
-0.26131
-0.245104
-0.229709
-0.215204
-0.201607
-0.188889
-0.17706
-0.165925
-0.414539
-0.404672
-0.397422
-0.389396
-0.380222
-0.369697
-0.357606
-0.343957
-0.328964
-0.312996
-0.296496
-0.279901
-0.263582
-0.247814
-0.232771
-0.218548
-0.205177
-0.19264
-0.180951
-0.169962
-0.409544
-0.399911
-0.392838
-0.385088
-0.376338
-0.366398
-0.355037
-0.342217
-0.328091
-0.312965
-0.297234
-0.281309
-0.265553
-0.250246
-0.235578
-0.221656
-0.208529
-0.196189
-0.184653
-0.173822
-0.404338
-0.394957
-0.388065
-0.380582
-0.372232
-0.362843
-0.352176
-0.340157
-0.326881
-0.312593
-0.29764
-0.282403
-0.267232
-0.25241
-0.238137
-0.224537
-0.21167
-0.199543
-0.188172
-0.177511
-0.39896
-0.389849
-0.383143
-0.375916
-0.367943
-0.35907
-0.349061
-0.337809
-0.32536
-0.311903
-0.297734
-0.283198
-0.268631
-0.254315
-0.240458
-0.227198
-0.214608
-0.202707
-0.191515
-0.181033
-0.393446
-0.384623
-0.378106
-0.371129
-0.363509
-0.35512
-0.345728
-0.335207
-0.323559
-0.310918
-0.297532
-0.283709
-0.269762
-0.255971
-0.24255
-0.229647
-0.217349
-0.20569
-0.194687
-0.184395
-0.387832
-0.379312
-0.372989
-0.366253
-0.358967
-0.351028
-0.342214
-0.332385
-0.321506
-0.309664
-0.297055
-0.28395
-0.270638
-0.257389
-0.244421
-0.231892
-0.219902
-0.208497
-0.197695
-0.382153
-0.373947
-0.367823
-0.361323
-0.354351
-0.34683
-0.338555
-0.329376
-0.319232
-0.308164
-0.296323
-0.283937
-0.27127
-0.258578
-0.246081
-0.376439
-0.368559
-0.362637
-0.356369
-0.349693
-0.34256
-0.334784
-0.326215
-0.316767
-0.306445
-0.295356
-0.370719
-0.363175
-0.35746
-0.351418
-0.345023
-0.33825
-0.330935
-0.322932
-0.365021
-0.357819
-0.352315
-0.346497
-0.340368
-0.359369
-0.352514
-0.347224
-0.151628
-0.155609
-0.159442
-0.163131
-0.166679
-0.170089
-0.138412
-0.14225
-0.145971
-0.14958
-0.153079
-0.156471
-0.126753
-0.13044
-0.134036
-0.137543
-0.140965
-0.144302
-0.116616
-0.120137
-0.123586
-0.126965
-0.130277
-0.133523
-0.107672
-0.111025
-0.114322
-0.117564
-0.120752
-0.123888
-0.0998032
-0.102985
-0.106123
-0.109217
-0.112268
-0.115279
-0.0928247
-0.0958393
-0.0988186
-0.101764
-0.104675
-0.107555
-0.0866399
-0.08949
-0.0923122
-0.0951074
-0.0978764
-0.10062
-0.0811346
-0.0838259
-0.0864953
-0.0891435
-0.091771
-0.0943784
-0.0762256
-0.0787648
-0.0812868
-0.083792
-0.0862809
-0.0887542
-0.0718408
-0.0742345
-0.0766147
-0.0789817
-0.0813361
-0.0836784
-0.0679174
-0.0701727
-0.0724173
-0.0746518
-0.0768765
-0.0790919
-0.0643954
-0.06652
-0.0686364
-0.0707448
-0.0728457
-0.0749393
-0.0612347
-0.0632353
-0.0652296
-0.0672178
-0.0692002
-0.0711772
-0.0583917
-0.0602752
-0.0621538
-0.0640279
-0.0658976
-0.0677633
-0.0558274
-0.0576008
-0.0593707
-0.061137
-0.0629002
-0.0646603
-0.0535141
-0.0551839
-0.0568509
-0.0585154
-0.0601775
-0.0618375
-0.0514238
-0.0529959
-0.0545659
-0.0561341
-0.0577007
-0.0592658
-0.049532
-0.0510121
-0.0524908
-0.0539683
-0.0554446
-0.05692
-0.0583945
-0.0478166
-0.0492104
-0.0506032
-0.0519952
-0.0533864
-0.0547771
-0.0561674
-0.046259
-0.0475718
-0.0488838
-0.0501954
-0.0515065
-0.0528173
-0.0541279
-0.0448446
-0.0460809
-0.0473169
-0.0485526
-0.0497881
-0.0510234
-0.0522588
-0.0435579
-0.0447224
-0.0458867
-0.0470509
-0.0482151
-0.0493793
-0.0505437
-0.0423857
-0.0434826
-0.0445795
-0.0456764
-0.0467734
-0.0478706
-0.048968
-0.0413166
-0.04235
-0.0433835
-0.0444171
-0.0454509
-0.0464849
-0.0475192
-0.0403399
-0.0413136
-0.0422876
-0.0432616
-0.0442359
-0.0452104
-0.0461853
-0.0394484
-0.0403659
-0.0412836
-0.0422016
-0.0431197
-0.0440382
-0.0449569
-0.0386338
-0.0394984
-0.0403632
-0.0412282
-0.0420934
-0.0429589
-0.0438247
-0.037888
-0.0387028
-0.0395178
-0.040333
-0.0411484
-0.0419641
-0.0427801
-0.037206
-0.0379739
-0.0387419
-0.0395102
-0.0402787
-0.0410474
-0.0418163
-0.0365812
-0.037305
-0.0380288
-0.0387529
-0.0394772
-0.0402017
-0.0409263
-0.0360086
-0.0366907
-0.0373731
-0.0380556
-0.0387383
-0.0394211
-0.0401041
-0.0354849
-0.0361279
-0.0367711
-0.0374144
-0.0380578
-0.0387014
-0.0393451
-0.0350061
-0.0356122
-0.0362184
-0.0368247
-0.0374311
-0.0380376
-0.0386442
-0.0345676
-0.0351389
-0.0357104
-0.0362819
-0.0368535
-0.0374252
-0.0379969
-0.0341672
-0.0347058
-0.0352445
-0.0357833
-0.0363221
-0.0368609
-0.0373998
-0.0338015
-0.0343093
-0.0348172
-0.0353251
-0.035833
-0.0363409
-0.0368489
-0.0334682
-0.033947
-0.0344259
-0.0349047
-0.0353836
-0.0358625
-0.0363413
-0.0331647
-0.0336162
-0.0340678
-0.0345194
-0.034971
-0.0354225
-0.0358739
-0.032889
-0.0333149
-0.0337409
-0.0341668
-0.0345926
-0.0350185
-0.0354442
-0.0326393
-0.0330411
-0.033443
-0.0338448
-0.0342465
-0.0346482
-0.0350497
-0.0324136
-0.0327929
-0.0331721
-0.0335513
-0.0339304
-0.0343094
-0.0346883
-0.0322103
-0.0325683
-0.0329264
-0.0332843
-0.0336422
-0.034
-0.0343577
-0.0320277
-0.0323659
-0.0327041
-0.0330423
-0.0333803
-0.0337182
-0.034056
-0.0318644
-0.0321841
-0.0325038
-0.0328234
-0.0331428
-0.0334622
-0.0337814
-0.031719
-0.0320214
-0.0323238
-0.0326261
-0.0329283
-0.0332304
-0.0335323
-0.0315902
-0.0318765
-0.0321628
-0.032449
-0.0327351
-0.0330211
-0.033307
-0.0314766
-0.031748
-0.0320194
-0.0322907
-0.0325619
-0.032833
-0.033104
-0.0313771
-0.0316347
-0.0318924
-0.0321499
-0.0324073
-0.0326647
-0.0329218
-0.0312905
-0.0315355
-0.0317804
-0.0320253
-0.0322701
-0.0325148
-0.0327593
-0.0312156
-0.0314491
-0.0316824
-0.0319157
-0.0321489
-0.0323821
-0.032615
-0.0311517
-0.0313746
-0.0315974
-0.0318202
-0.0320429
-0.0322656
-0.032488
-0.0310974
-0.0313108
-0.0315242
-0.0317375
-0.0319508
-0.032164
-0.032377
-0.0310521
-0.0312571
-0.0314621
-0.031667
-0.0318719
-0.0320767
-0.0322813
-0.0310145
-0.0312122
-0.0314098
-0.0316074
-0.0318049
-0.0320023
-0.0321997
-0.0309847
-0.0311761
-0.0313674
-0.0315586
-0.0317498
-0.031941
-0.0321321
-0.0309608
-0.0311469
-0.031333
-0.031519
-0.0317051
-0.031891
-0.0320769
-0.0309441
-0.031126
-0.0313079
-0.0314898
-0.0316716
-0.0318534
-0.0320351
-0.0309317
-0.0311107
-0.0312897
-0.0314687
-0.0316477
-0.0318266
-0.0320055
-0.0309268
-0.0311037
-0.0312806
-0.0314575
-0.0316344
-0.0318113
-0.0319881
-0.0441886
-0.0514059
-0.0584623
-0.0653448
-0.0719189
-0.0786402
-0.085108
-0.091274
-0.0972261
-0.10301
-0.108628
-0.114073
-0.119346
-0.124449
-0.129384
-0.134154
-0.13876
-0.143206
-0.147494
-0.0410721
-0.0474578
-0.0537025
-0.0597924
-0.0656965
-0.071313
-0.0769786
-0.0825444
-0.0879408
-0.0931837
-0.0982924
-0.10327
-0.108114
-0.112826
-0.117406
-0.121858
-0.126182
-0.130381
-0.134457
-0.0370704
-0.0427764
-0.048361
-0.0538206
-0.0591529
-0.0643509
-0.0695218
-0.074629
-0.0795939
-0.0844177
-0.0891236
-0.093722
-0.0982135
-0.102598
-0.106876
-0.11105
-0.115123
-0.119097
-0.122972
-0.034316
-0.0394504
-0.0444888
-0.0494298
-0.05427
-0.0590015
-0.063581
-0.068201
-0.0727356
-0.0771506
-0.0814647
-0.085694
-0.0898415
-0.0939064
-0.0978887
-0.10179
-0.105612
-0.109356
-0.113023
-0.0316643
-0.0363068
-0.0408713
-0.0453581
-0.0497671
-0.0540977
-0.0583445
-0.0625025
-0.0666484
-0.0707288
-0.0747252
-0.0786461
-0.0824993
-0.0862868
-0.0900087
-0.0936656
-0.097259
-0.10079
-0.104261
-0.029563
-0.0337794
-0.0379317
-0.04202
-0.0460443
-0.0500029
-0.053893
-0.057696
-0.0615216
-0.0652909
-0.0689843
-0.0726138
-0.0761894
-0.0797137
-0.0831865
-0.0866079
-0.0899792
-0.0933013
-0.0965757
-0.0277459
-0.0315903
-0.0353829
-0.0391242
-0.0428149
-0.0464552
-0.0500446
-0.0535786
-0.0570601
-0.0605275
-0.0639539
-0.0673294
-0.0706583
-0.0739448
-0.0771903
-0.0803953
-0.0835602
-0.0866861
-0.089774
-0.0262554
-0.0297737
-0.0332497
-0.036684
-0.0400773
-0.04343
-0.0467416
-0.05001
-0.0532167
-0.0564283
-0.0596098
-0.062748
-0.0658471
-0.0689123
-0.0719453
-0.0749461
-0.0779152
-0.0808533
-0.0837613
-0.0250114
-0.0282388
-0.0314311
-0.0345886
-0.0377116
-0.0408001
-0.0438538
-0.0468723
-0.0498531
-0.0528572
-0.0558221
-0.058742
-0.061629
-0.06449
-0.0673261
-0.0701369
-0.0729225
-0.0756835
-0.0784207
-0.0240029
-0.0269752
-0.0299196
-0.0328368
-0.0357277
-0.0385932
-0.041434
-0.04425
-0.0470384
-0.0497591
-0.052492
-0.0552178
-0.0579195
-0.0605959
-0.0632502
-0.0658842
-0.0684983
-0.0710929
-0.0736685
-0.0231812
-0.0259227
-0.028641
-0.0313365
-0.0340098
-0.0366611
-0.0392905
-0.0418978
-0.0444825
-0.0470388
-0.0495994
-0.0521437
-0.0546654
-0.0571671
-0.0596517
-0.0621204
-0.0645733
-0.0670107
-0.069433
-0.0225253
-0.0250596
-0.0275749
-0.0300715
-0.0325497
-0.0350098
-0.0374518
-0.0398758
-0.0422818
-0.0446685
-0.0470705
-0.0494497
-0.0518045
-0.0541429
-0.0564689
-0.0587827
-0.0610843
-0.0633737
-0.0656513
-0.0220155
-0.0243646
-0.0266984
-0.0290176
-0.0313226
-0.0336139
-0.035892
-0.0381575
-0.0404103
-0.0426488
-0.0448463
-0.0470531
-0.0492593
-0.0514542
-0.0536363
-0.0558073
-0.0579684
-0.0601199
-0.0622622
-0.0216245
-0.0238044
-0.0259719
-0.0281271
-0.0302705
-0.0324022
-0.0345226
-0.0366317
-0.0387294
-0.0408154
-0.0428857
-0.044958
-0.047024
-0.0490796
-0.0511251
-0.0531621
-0.0551913
-0.057213
-0.0592274
-0.0213372
-0.0233637
-0.02538
-0.0273864
-0.0293831
-0.0313703
-0.0333483
-0.0353172
-0.037277
-0.0392278
-0.0411681
-0.043115
-0.0450512
-0.0469761
-0.0488931
-0.0508042
-0.0527096
-0.0546092
-0.0565031
-0.0211393
-0.0230263
-0.024905
-0.0267759
-0.0286391
-0.0304948
-0.0323433
-0.0341848
-0.0360196
-0.0378476
-0.0396681
-0.0414799
-0.0432902
-0.0450964
-0.046897
-0.0486922
-0.0504826
-0.0522684
-0.05405
-0.0210165
-0.0227759
-0.0245287
-0.0262751
-0.0280154
-0.0297498
-0.0314784
-0.0332016
-0.0349193
-0.0366317
-0.0383384
-0.0400324
-0.0417291
-0.043425
-0.0451166
-0.0468034
-0.0484862
-0.0501654
-0.0518413
-0.0209566
-0.0225988
-0.0242357
-0.0258675
-0.0274944
-0.0291165
-0.0307339
-0.0323468
-0.0339554
-0.0355596
-0.0371594
-0.0387529
-0.0403474
-0.0419394
-0.0435276
-0.0451122
-0.0466939
-0.048273
-0.0498496
-0.0209503
-0.0224849
-0.0240152
-0.0255415
-0.0270639
-0.0285824
-0.0300973
-0.0316086
-0.0331165
-0.0346209
-0.036122
-0.037619
-0.0391187
-0.0406144
-0.042106
-0.0435949
-0.0450819
-0.046567
-0.0480504
-0.020989
-0.0224244
-0.0238565
-0.0252855
-0.0267113
-0.0281341
-0.0295541
-0.0309713
-0.0323857
-0.0337975
-0.0352068
-0.0366132
-0.0380217
-0.0394271
-0.0408293
-0.0422295
-0.0436282
-0.0450256
-0.0464217
-0.0210661
-0.0224103
-0.0237519
-0.0250911
-0.026428
-0.0277627
-0.0290953
-0.0304259
-0.0317546
-0.0330815
-0.0344067
-0.0357297
-0.0370442
-0.038362
-0.0396813
-0.0409995
-0.0423161
-0.0436313
-0.0449456
-0.0211736
-0.0224331
-0.0236906
-0.0249463
-0.0262001
-0.0274522
-0.0287027
-0.0299515
-0.0311988
-0.0324446
-0.0336889
-0.0349317
-0.0361716
-0.0374125
-0.0386535
-0.0398935
-0.0411324
-0.0423704
-0.0436078
-0.0213069
-0.022488
-0.0236677
-0.0248459
-0.0260228
-0.0271983
-0.0283727
-0.0295458
-0.0307179
-0.0318889
-0.0330588
-0.0342276
-0.0353949
-0.0365629
-0.0377304
-0.0388969
-0.0400628
-0.0412282
-0.0423932
-0.0214614
-0.0225697
-0.023677
-0.0247832
-0.0258884
-0.0269927
-0.0280962
-0.0291987
-0.0303005
-0.0314015
-0.0325017
-0.0336012
-0.0346998
-0.0358
-0.036899
-0.0379969
-0.0390943
-0.0401916
-0.0412887
-0.0216328
-0.0226735
-0.0237134
-0.0247525
-0.025791
-0.0268289
-0.0278661
-0.0289027
-0.0299387
-0.0309742
-0.0320091
-0.0330436
-0.0340775
-0.0351142
-0.0361493
-0.037183
-0.0382164
-0.0392497
-0.0402832
-0.0218188
-0.0227966
-0.0237739
-0.0247508
-0.0257274
-0.0267035
-0.0276793
-0.0286548
-0.02963
-0.030605
-0.0315799
-0.0325545
-0.0335287
-0.0344985
-0.0354708
-0.0364447
-0.0374188
-0.0383926
-0.0393662
-0.0220149
-0.0229339
-0.0238526
-0.0247711
-0.0256894
-0.0266075
-0.0275253
-0.028443
-0.0293605
-0.0302778
-0.031195
-0.032112
-0.0330289
-0.0339448
-0.0348616
-0.0357789
-0.0366963
-0.0376136
-0.0385309
-0.0222196
-0.0230838
-0.0239479
-0.0248119
-0.0256759
-0.0265398
-0.0274036
-0.0282674
-0.0291311
-0.0299949
-0.0308585
-0.0317222
-0.0325858
-0.0334491
-0.0343129
-0.0351769
-0.036041
-0.0369051
-0.0377694
-0.0224304
-0.0232433
-0.0240563
-0.0248693
-0.0256824
-0.0264955
-0.0273087
-0.0281219
-0.0289352
-0.0297485
-0.0305619
-0.0313754
-0.0321889
-0.0330024
-0.0338164
-0.0346305
-0.0354446
-0.0362589
-0.0370734
-0.0226461
-0.0234111
-0.0241762
-0.0249415
-0.025707
-0.0264726
-0.0272383
-0.0280042
-0.0287702
-0.0295363
-0.0303026
-0.031069
-0.0318355
-0.032602
-0.0333694
-0.0341366
-0.0349037
-0.0356709
-0.0364383
-0.0228645
-0.0235845
-0.0243048
-0.0250253
-0.025746
-0.0264669
-0.027188
-0.0279093
-0.0286307
-0.0293523
-0.030074
-0.0307959
-0.0315178
-0.03224
-0.0329649
-0.0336887
-0.0344116
-0.0351345
-0.0358577
-0.0230857
-0.0237638
-0.0244422
-0.0251209
-0.0257998
-0.0264791
-0.0271586
-0.0278384
-0.0285185
-0.0291988
-0.0298793
-0.0305601
-0.0312411
-0.0319223
-0.0326007
-0.033281
-0.0339626
-0.0346446
-0.0353265
-0.023307
-0.0239456
-0.0245845
-0.0252237
-0.0258632
-0.0265031
-0.0271432
-0.0277836
-0.0284242
-0.0290651
-0.0297062
-0.0303475
-0.030989
-0.0316306
-0.0322721
-0.0329141
-0.0335566
-0.0341993
-0.034842
-0.0235287
-0.0241302
-0.0247321
-0.0253344
-0.025937
-0.0265399
-0.0271431
-0.0277466
-0.0283504
-0.0289545
-0.0295588
-0.0301633
-0.030768
-0.0313729
-0.0319779
-0.0325831
-0.0331886
-0.0337943
-0.0344001
-0.0237495
-0.0243162
-0.0248833
-0.0254508
-0.0260187
-0.0265868
-0.0271554
-0.0277242
-0.0282933
-0.0288626
-0.0294323
-0.0300021
-0.0305722
-0.0311424
-0.0317128
-0.0322834
-0.0328543
-0.0334253
-0.0339964
-0.0239691
-0.0245031
-0.0250376
-0.0255724
-0.0261076
-0.0266432
-0.0271791
-0.0277152
-0.0282517
-0.0287885
-0.0293255
-0.0298628
-0.0304002
-0.0309379
-0.0314757
-0.0320137
-0.0325519
-0.0330902
-0.0336286
-0.0241868
-0.0246901
-0.0251939
-0.025698
-0.0262025
-0.0267074
-0.0272125
-0.0277181
-0.0282239
-0.0287299
-0.0292363
-0.0297428
-0.0302496
-0.0307565
-0.0312636