/*--------------------------------*- C++ -*----------------------------------*\
  =========                 |
  \\      /  F ield         | OpenFOAM: The Open Source CFD Toolbox
   \\    /   O peration     | Website:  https://openfoam.org
    \\  /    A nd           | Version:  7
     \\/     M anipulation  |
\*---------------------------------------------------------------------------*/
FoamFile
{
    version     2.0;
    format      ascii;
    class       volScalarField;
    location    "240";
    object      p;
}
// * * * * * * * * * * * * * * * * * * * * * * * * * * * * * * * * * * * * * //

dimensions      [0 2 -2 0 0 0 0];

internalField   nonuniform List<scalar> 
4575
(
0.238177
0.247517
0.256641
0.271265
0.265538
0.280487
0.274199
0.289457
0.282613
0.298164
0.290769
0.315458
0.306595
0.298658
0.324114
0.314738
0.306268
0.332453
0.32258
0.31359
0.340462
0.33011
0.320612
0.358618
0.348129
0.337316
0.327324
0.366439
0.355442
0.344187
0.333718
0.37387
0.362389
0.350712
0.339784
0.380901
0.368959
0.356881
0.345512
0.387519
0.375141
0.362683
0.350894
0.406525
0.393713
0.380925
0.368108
0.355921
0.412699
0.399473
0.386301
0.373149
0.360587
0.418401
0.404789
0.391259
0.377796
0.364882
0.423619
0.409651
0.395792
0.38204
0.368802
0.428345
0.414051
0.39989
0.385876
0.372339
0.43257
0.417981
0.403548
0.389295
0.375487
0.436287
0.421434
0.406758
0.392293
0.378241
0.439488
0.424404
0.409514
0.394862
0.380597
0.442167
0.426884
0.411811
0.396998
0.382549
0.444318
0.42887
0.413644
0.398697
0.384095
0.445938
0.430357
0.415009
0.399956
0.385231
0.462874
0.447022
0.431343
0.415903
0.40077
0.385955
0.463489
0.447568
0.431823
0.416324
0.401139
0.386265
0.463528
0.447573
0.431797
0.41627
0.401059
0.386159
0.462988
0.447036
0.431264
0.41574
0.400531
0.385637
0.46187
0.445957
0.430222
0.414733
0.399554
0.384697
0.460175
0.444337
0.428673
0.41325
0.398129
0.383342
0.442176
0.426617
0.411293
0.396256
0.381571
0.439477
0.424058
0.408862
0.393938
0.379386
0.436243
0.420997
0.405962
0.391176
0.37679
0.432478
0.417438
0.402594
0.387975
0.373784
0.428187
0.413386
0.398764
0.384338
0.370373
0.423375
0.408846
0.394476
0.380269
0.366559
0.418048
0.403823
0.389735
0.375774
0.362348
0.412215
0.398325
0.384548
0.370858
0.357744
0.405882
0.392358
0.378922
0.365527
0.352753
0.399058
0.385931
0.372864
0.35979
0.347381
0.391753
0.379053
0.366382
0.353652
0.341634
0.371732
0.359484
0.347124
0.335518
0.363979
0.352181
0.340212
0.329042
0.355804
0.344482
0.332926
0.322214
0.347218
0.336397
0.325276
0.315041
0.338234
0.327936
0.317272
0.307532
0.319113
0.308924
0.299697
0.309937
0.300244
0.291544
0.300422
0.291242
0.283083
0.290579
0.28193
0.274325
0.27232
0.265279
0.262423
0.255955
0.252253
0.246364
0.236515
0.226419
0.216086
0.114588
0.115718
0.117873
0.120934
0.124772
0.129341
0.134519
0.14027
0.146445
0.152988
0.15968
0.16642
0.17288
0.178896
0.183973
0.187903
0.189942
0.189938
0.186731
0.180538
0.169279
0.113937
0.115024
0.117088
0.120013
0.123665
0.127988
0.132854
0.138212
0.143902
0.149849
0.155822
0.161703
0.167152
0.171997
0.175743
0.178193
0.17864
0.176965
0.17214
0.164389
0.152153
0.113215
0.114255
0.116219
0.118998
0.122448
0.126509
0.131042
0.135987
0.14117
0.146507
0.151753
0.156781
0.161246
0.16498
0.1675
0.168639
0.167741
0.16475
0.158797
0.150168
0.137833
0.112418
0.113406
0.115265
0.117887
0.121124
0.124908
0.129094
0.13361
0.138275
0.14299
0.147507
0.15169
0.155198
0.157866
0.159243
0.159179
0.157108
0.152994
0.14619
0.136941
0.124666
0.111545
0.112479
0.114227
0.116683
0.119698
0.123195
0.127024
0.131102
0.135243
0.139337
0.143136
0.146497
0.149094
0.150763
0.1511
0.149965
0.146901
0.141871
0.134441
0.124782
0.112604
0.110596
0.111472
0.113104
0.115388
0.118173
0.121375
0.12484
0.128475
0.132093
0.135573
0.138674
0.141246
0.142989
0.143739
0.143151
0.141089
0.137211
0.131473
0.123613
0.113753
0.101785
0.109569
0.110384
0.111896
0.114003
0.116552
0.119452
0.122549
0.12574
0.128839
0.131718
0.134147
0.135971
0.136923
0.13684
0.135441
0.132596
0.128065
0.121807
0.113688
0.103806
0.0921818
0.108465
0.109216
0.110605
0.112528
0.114837
0.117431
0.120158
0.122907
0.125497
0.127793
0.129581
0.130706
0.130932
0.130106
0.128005
0.124514
0.119475
0.112858
0.104623
0.0948622
0.0836764
0.107282
0.107968
0.109231
0.110968
0.113032
0.115318
0.117677
0.11999
0.122085
0.123821
0.125004
0.125481
0.125052
0.123572
0.120875
0.116862
0.111444
0.104605
0.0963732
0.0868377
0.0761466
0.106022
0.106641
0.107776
0.109323
0.111142
0.113122
0.115117
0.117003
0.11862
0.119824
0.120442
0.120326
0.119311
0.117266
0.114073
0.109653
0.10397
0.0970238
0.0888891
0.0796527
0.0694889
0.104686
0.105236
0.106241
0.107598
0.109173
0.110848
0.112486
0.113959
0.115118
0.115822
0.115918
0.115266
0.113735
0.111211
0.107615
0.102889
0.0970399
0.0900815
0.0821178
0.0732327
0.0636136
0.103273
0.103755
0.10463
0.105798
0.107129
0.108505
0.109795
0.110872
0.111598
0.111836
0.111454
0.110325
0.108346
0.105422
0.10151
0.0965692
0.0906375
0.0837425
0.0760061
0.0675076
0.0584382
0.101788
0.102201
0.102946
0.103925
0.105017
0.106102
0.107057
0.107756
0.108075
0.107883
0.10707
0.105522
0.103161
0.0999127
0.0957601
0.0906832
0.0847404
0.0779693
0.0705019
0.0624113
0.0538865
0.10023
0.100575
0.101192
0.101986
0.102844
0.103647
0.104281
0.104624
0.104564
0.103982
0.102784
0.100871
0.0981919
0.0946878
0.0903646
0.0852189
0.0793237
0.0727236
0.0655544
0.0578823
0.0498892
0.0986045
0.0988813
0.099372
0.0999856
0.100616
0.101149
0.101479
0.101489
0.101081
0.100146
0.0986093
0.0963877
0.0934478
0.0897503
0.0853178
0.0801601
0.0743603
0.067967
0.0611152
0.0538633
0.0463841
0.0969131
0.0971236
0.0974912
0.0979299
0.0983423
0.0986184
0.0986617
0.0983638
0.0976388
0.0963908
0.0945598
0.0920801
0.0889343
0.0850992
0.0806105
0.0754887
0.0698224
0.0636619
0.0571383
0.0503024
0.0433154
0.0951598
0.095306
0.0955544
0.095825
0.0960291
0.0960631
0.0958396
0.0952598
0.0942496
0.0927267
0.0906455
0.0879556
0.0846537
0.0807305
0.0762313
0.0711849
0.0656816
0.0597721
0.0535812
0.0471519
0.0406337
0.0933489
0.0934332
0.093567
0.0936775
0.0936846
0.0934925
0.0930231
0.0921879
0.0909246
0.0891643
0.0868743
0.0840187
0.0806058
0.0766378
0.072167
0.0672277
0.06191
0.056263
0.0504041
0.0443689
0.0382948
0.0914848
0.0915101
0.0915347
0.091494
0.0913166
0.0909154
0.0902218
0.0891581
0.0876734
0.0857116
0.0832521
0.0802716
0.076788
0.0728128
0.0684028
0.063596
0.0584802
0.0531019
0.0475704
0.0419145
0.0362594
0.0895726
0.0895421
0.0894636
0.0892814
0.0889329
0.0883404
0.0874447
0.0861795
0.0845042
0.0823755
0.079783
0.0767145
0.0731957
0.0692456
0.0649232
0.0602685
0.0553658
0.0502583
0.0450468
0.0397536
0.0344927
0.0876176
0.0875348
0.0873601
0.0870467
0.0865412
0.0857758
0.0847005
0.0832601
0.0814242
0.079161
0.076469
0.0733459
0.0698231
0.0659253
0.0617121
0.0572243
0.0525415
0.0477036
0.0428023
0.0378547
0.0329638
0.0856254
0.0854942
0.0852305
0.0847969
0.0841491
0.0832293
0.0819967
0.080407
0.0784391
0.0760715
0.0733108
0.0701628
0.0666629
0.06284
0.0587533
0.054443
0.0499835
0.0454111
0.040809
0.0361894
0.0316451
0.0836021
0.0834265
0.0830814
0.082539
0.0817639
0.0807084
0.0793405
0.0776263
0.0755533
0.0731094
0.0703078
0.0671608
0.0637069
0.0599776
0.0560305
0.0519048
0.0476693
0.0433565
0.0390415
0.0347321
0.030512
0.0815537
0.081338
0.0809196
0.08028
0.0793927
0.0782198
0.0767381
0.0749232
0.0727703
0.0702757
0.067458
0.0643347
0.0609462
0.0573255
0.053528
0.049591
0.0455778
0.0415171
0.0374764
0.03346
0.0295428
0.0794867
0.0792352
0.0787516
0.0780266
0.0770421
0.07577
0.0741951
0.0723019
0.0700925
0.0675704
0.0647585
0.0616785
0.0583716
0.0548712
0.0512302
0.0474836
0.0436892
0.0398721
0.0360927
0.0323523
0.0287179
0.0774075
0.0771246
0.0765841
0.0757855
0.0747186
0.0733648
0.0717162
0.0697657
0.0675212
0.0649925
0.0622056
0.0591855
0.0559733
0.0526024
0.0491223
0.0455658
0.0419852
0.0384025
0.0348713
0.0313905
0.0280198
0.0753227
0.0750128
0.0744237
0.0735628
0.0724281
0.0710093
0.0693056
0.0673171
0.0650571
0.0625402
0.0597951
0.0568488
0.0537417
0.0505067
0.0471899
0.0438216
0.0404489
0.0370907
0.0337947
0.0305578
0.027433
0.0732388
0.0729062
0.0722766
0.0713648
0.0701761
0.0687082
0.0669668
0.0649581
0.0627
0.0602111
0.057522
0.0546609
0.0516671
0.0485725
0.0454196
0.0422362
0.0390645
0.0359209
0.0328473
0.0298392
0.0269436
0.0711622
0.0708112
0.070149
0.0691972
0.0679678
0.0664657
0.0647024
0.0626897
0.060449
0.0580023
0.0553811
0.0526144
0.04974
0.0467882
0.0437984
0.0407956
0.0378177
0.0348784
0.0320147
0.029221
0.0265389
0.0690995
0.0687341
0.0680469
0.0670654
0.0658077
0.0642854
0.0625148
0.0605124
0.0583029
0.0559104
0.053367
0.0507018
0.047951
0.0451431
0.0423142
0.039487
0.036695
0.0339499
0.0312841
0.0286912
0.0262078
0.0670567
0.0666809
0.0659759
0.0649744
0.0637001
0.0621702
0.0604055
0.0584264
0.0562597
0.0539315
0.0514739
0.0489157
0.046291
0.0436268
0.0409558
0.0382984
0.0356842
0.0331233
0.0306437
0.0282386
0.0259402
0.0650399
0.0646573
0.0639413
0.062929
0.0616488
0.0601228
0.0583756
0.056431
0.0543173
0.0520618
0.0496962
0.0472487
0.0447514
0.0422295
0.0397124
0.0372186
0.0347743
0.0323875
0.030083
0.0278535
0.0257272
0.0630549
0.0626689
0.0619482
0.0609334
0.0596569
0.0581452
0.056426
0.0545254
0.0524732
0.0502971
0.0480282
0.0456938
0.0433239
0.0409419
0.0385743
0.0362377
0.0339548
0.0317327
0.0295925
0.0275269
0.0255607
0.061107
0.0607208
0.0600011
0.0589914
0.0577274
0.0562392
0.0545569
0.0527086
0.0507246
0.0486331
0.0464642
0.0442441
0.0420007
0.0397554
0.0375323
0.035346
0.0332166
0.0311496
0.0291635
0.027251
0.0254335
0.0592014
0.0588178
0.0581043
0.0571065
0.0558628
0.054406
0.0527682
0.0509789
0.0490688
0.0470658
0.0449989
0.0428931
0.0407742
0.038662
0.036578
0.0345352
0.0325511
0.0306302
0.0287885
0.0270186
0.0253394
0.0573429
0.0569645
0.0562618
0.0552818
0.0540651
0.0526465
0.0510595
0.0493347
0.0475026
0.0455907
0.0436267
0.0416344
0.0396375
0.0376542
0.0357037
0.0337974
0.0319507
0.0301671
0.0284604
0.0268235
0.0252726
0.0555358
0.0551648
0.0544769
0.05352
0.0523359
0.0509612
0.0494304
0.0477743
0.0460231
0.0442038
0.0423427
0.0404622
0.0385841
0.036725
0.0349021
0.0331254
0.0314083
0.0297537
0.0281731
0.0266599
0.0252282
0.0537842
0.0534225
0.0527528
0.0518233
0.0506767
0.0493506
0.0478798
0.0462955
0.0446272
0.0429011
0.041142
0.0393708
0.0376079
0.0358681
0.0341668
0.0325129
0.0309178
0.0293839
0.0279211
0.0265231
0.0252017
0.0520916
0.0517408
0.0510922
0.0501938
0.0490885
0.0478145
0.0464068
0.0448964
0.0433119
0.0416785
0.0400198
0.0383552
0.0367033
0.0350776
0.0334919
0.0319539
0.0304735
0.0290526
0.0276996
0.0264085
0.0251895
0.0504612
0.0501226
0.0494974
0.0486329
0.0475719
0.0463528
0.0450102
0.0435747
0.0420742
0.0405325
0.0389718
0.0374104
0.0358651
0.0343482
0.032872
0.0314432
0.0300705
0.0287551
0.0275042
0.0263124
0.0251882
0.0488957
0.0485704
0.0479704
0.0471419
0.0461275
0.044965
0.0436887
0.0423285
0.0409111
0.0394593
0.037994
0.0365319
0.0350885
0.0336751
0.0323023
0.0309762
0.0297042
0.0284872
0.0273313
0.0262315
0.0251949
0.0473976
0.0470864
0.0465127
0.0457219
0.0447555
0.0436506
0.042441
0.0411555
0.0398199
0.0384557
0.0370824
0.0357156
0.0343693
0.0330537
0.0317784
0.0305486
0.0293706
0.0282453
0.0271776
0.0261629
0.0252072
0.0459689
0.0456722
0.0451258
0.0443735
0.0434558
0.0424089
0.0412656
0.0400537
0.0387979
0.0375185
0.0362336
0.0349577
0.0337035
0.0324803
0.0312964
0.0301567
0.0290664
0.0280262
0.0270402
0.0261042
0.0252232
0.0446112
0.0443293
0.0438106
0.0430973
0.0422283
0.041239
0.040161
0.0390211
0.0378425
0.0366447
0.0354443
0.0342547
0.0330875
0.0319511
0.030853
0.0297972
0.0287885
0.0278272
0.0269168
0.0260534
0.0252412
0.0433259
0.0430589
0.0425679
0.0418933
0.0410727
0.0401401
0.0391258
0.0380556
0.0369515
0.0358316
0.0347114
0.0336034
0.0325181
0.0314631
0.0304449
0.0294673
0.0285342
0.027646
0.0268052
0.0260087
0.0252597
0.0421141
0.0418617
0.0413982
0.0407618
0.0399885
0.0391111
0.0381586
0.0371554
0.0361224
0.0350766
0.0340324
0.0330012
0.0319926
0.0310135
0.0300697
0.0291646
0.0283014
0.0274805
0.0267039
0.0259688
0.0252779
0.0409765
0.0407386
0.0403018
0.0397026
0.0389754
0.0381513
0.037258
0.0363188
0.0353533
0.0343775
0.0334047
0.0324454
0.0315083
0.0305998
0.029725
0.0288868
0.0280881
0.0273291
0.0266115
0.0259327
0.0252948
0.0399138
0.0396899
0.039279
0.0387157
0.0380327
0.0372596
0.0364227
0.0355441
0.0346423
0.0337322
0.0328261
0.0319338
0.0310632
0.03022
0.0294088
0.0286322
0.0278927
0.0271904
0.0265267
0.0258994
0.0253099
0.0389264
0.0387159
0.0383298
0.0378009
0.0371599
0.0364352
0.0356516
0.03483
0.0339878
0.033139
0.0322949
0.0314646
0.0306553
0.0298722
0.0291194
0.0283993
0.0277139
0.0270635
0.0264489
0.0258683
0.0253229
0.0380148
0.037817
0.0374544
0.0369578
0.0363565
0.0356772
0.0349435
0.0341751
0.0333883
0.0325962
0.0318094
0.0310361
0.0302831
0.029555
0.0288556
0.0281869
0.0275508
0.0269473
0.0263774
0.0258392
0.0253335
0.0371794
0.0369934
0.0366528
0.0361865
0.0356222
0.0349851
0.0342977
0.0335784
0.0328426
0.0321026
0.0313682
0.030647
0.0299453
0.0292672
0.0286162
0.0279941
0.0274025
0.0268415
0.0263117
0.0258116
0.0253418
0.0364204
0.0362455
0.0359251
0.0354868
0.0349566
0.0343584
0.0337134
0.033039
0.0323498
0.0316571
0.0309702
0.0302963
0.0296408
0.0290078
0.0284003
0.0278201
0.0272684
0.0267455
0.0262516
0.0257857
0.0253479
0.0357384
0.0355736
0.0352718
0.0348589
0.0343597
0.0337968
0.0331902
0.0325564
0.0319091
0.031259
0.0306148
0.0299831
0.0293689
0.0287762
0.0282075
0.0276644
0.0271483
0.0266591
0.0261971
0.0257614
0.0253519
0.0351341
0.0349783
0.0346932
0.0343032
0.0338317
0.0333004
0.032728
0.0321303
0.0315202
0.0309079
0.0303014
0.0297069
0.0291293
0.0285719
0.0280373
0.027527
0.0270419
0.0265823
0.0261482
0.0257389
0.0253542
0.0346085
0.0344607
0.0341902
0.0338202
0.0333731
0.0328694
0.0323269
0.0317608
0.0311831
0.0306036
0.0300299
0.0294677
0.0289217
0.0283949
0.0278897
0.0274075
0.0269493
0.0265151
0.0261051
0.0257185
0.025355
0.0341631
0.0340221
0.033764
0.0334112
0.0329849
0.0325047
0.0319877
0.0314484
0.0308982
0.0303465
0.0298005
0.0292656
0.0287462
0.0282452
0.0277648
0.0273064
0.0268707
0.0264579
0.0260681
0.0257005
0.0253549
0.0337998
0.0336643
0.0334165
0.0330778
0.0326685
0.0322076
0.0317115
0.031194
0.0306663
0.0301373
0.0296138
0.0291011
0.0286034
0.0281233
0.0276631
0.0272239
0.0268064
0.026411
0.0260375
0.0256853
0.0253541
0.033521
0.0333899
0.03315
0.0328222
0.0324261
0.03198
0.0314999
0.0309992
0.0304887
0.029977
0.0294708
0.0289752
0.028494
0.0280299
0.027585
0.0271605
0.026757
0.0263748
0.0260137
0.0256733
0.0253531
0.0333303
0.0332022
0.0329678
0.0326474
0.0322603
0.0318244
0.0313553
0.0308661
0.0303674
0.0298676
0.0293731
0.0288891
0.0284192
0.0279661
0.0275317
0.0271171
0.0267232
0.0263499
0.0259973
0.0256649
0.0253522
0.0332321
0.0331055
0.0328739
0.0325574
0.0321751
0.0317444
0.031281
0.0307977
0.030305
0.0298113
0.0293229
0.0288448
0.0283807
0.0279332
0.0275042
0.0270948
0.0267057
0.0263371
0.0259888
0.0256605
0.0253516
0.117099
0.118262
0.120536
0.123772
0.127902
0.132926
0.138755
0.145488
0.153019
0.161512
0.170827
0.181195
0.192434
0.204823
0.218142
0.232732
0.248288
0.265205
0.283087
0.302441
0.322606
0.34439
0.366527
0.117176
0.118341
0.120618
0.123859
0.127995
0.133026
0.138864
0.145604
0.153148
0.161654
0.170981
0.18136
0.192612
0.205015
0.218348
0.232948
0.248511
0.265433
0.283314
0.302662
0.322814
0.344575
0.366676
0.117245
0.118412
0.120692
0.123938
0.128079
0.133117
0.138963
0.14571
0.153263
0.161777
0.171114
0.1815
0.192758
0.205165
0.2185
0.233094
0.248647
0.265552
0.283405
0.302711
0.322803
0.344485
0.366479
0.117307
0.118476
0.120759
0.12401
0.128155
0.133198
0.139051
0.145806
0.153364
0.161883
0.171225
0.181614
0.192872
0.205275
0.218599
0.233174
0.2487
0.265564
0.283359
0.302588
0.322574
0.344123
0.365936
0.117362
0.118532
0.120818
0.124073
0.128222
0.13327
0.139128
0.145889
0.15345
0.161972
0.171316
0.181702
0.192954
0.205345
0.218647
0.23319
0.248669
0.265471
0.283177
0.302295
0.322127
0.343489
0.365049
0.11741
0.118581
0.12087
0.124128
0.12828
0.133332
0.139193
0.145959
0.153522
0.162044
0.171385
0.181765
0.193003
0.205373
0.218644
0.23314
0.248554
0.265272
0.282861
0.30183
0.321463
0.342585
0.36382
0.117451
0.118623
0.120914
0.124175
0.12833
0.133385
0.139243
0.146017
0.15358
0.162099
0.171434
0.181801
0.19302
0.205361
0.218588
0.233026
0.248356
0.264967
0.282409
0.301196
0.320584
0.341411
0.362251
0.117485
0.118658
0.12095
0.124214
0.128371
0.133428
0.139276
0.146062
0.153623
0.162137
0.171462
0.181812
0.193005
0.205309
0.218481
0.232846
0.248075
0.264557
0.281822
0.300392
0.319489
0.33997
0.360344
0.117511
0.118685
0.120979
0.124245
0.128404
0.133463
0.139304
0.146093
0.153652
0.162157
0.171469
0.181797
0.192957
0.205216
0.218322
0.232602
0.24771
0.264042
0.281102
0.29942
0.318181
0.338263
0.358102
0.117531
0.118705
0.121
0.124268
0.128428
0.133488
0.139344
0.146113
0.153667
0.162161
0.171455
0.181757
0.192878
0.205083
0.218113
0.232293
0.247263
0.263423
0.280249
0.298281
0.316661
0.336293
0.355529
0.117543
0.118718
0.121014
0.124283
0.128443
0.133503
0.139361
0.146122
0.153668
0.162147
0.171421
0.181691
0.192767
0.20491
0.217852
0.23192
0.246734
0.2627
0.279263
0.296976
0.314931
0.334062
0.352628
0.117549
0.118724
0.12102
0.124289
0.12845
0.133508
0.139367
0.146118
0.153655
0.162117
0.171366
0.1816
0.192624
0.204697
0.217541
0.231483
0.246124
0.261873
0.278146
0.295506
0.312993
0.331573
0.349403
0.117547
0.118722
0.121019
0.124288
0.128449
0.133504
0.139361
0.146102
0.153627
0.16207
0.171291
0.181483
0.19245
0.204444
0.21718
0.230982
0.245432
0.260945
0.276899
0.293872
0.310849
0.328829
0.345859
0.117539
0.118714
0.12101
0.124279
0.128439
0.133491
0.139344
0.146075
0.153586
0.162006
0.171195
0.181342
0.192244
0.204152
0.216769
0.230418
0.244659
0.259914
0.275521
0.292077
0.3085
0.325833
0.342001
0.117523
0.118698
0.120994
0.124263
0.128421
0.133468
0.139317
0.146036
0.153531
0.161926
0.171079
0.181175
0.192008
0.203821
0.216308
0.229791
0.243806
0.258783
0.274016
0.290122
0.30595
0.322588
0.337834
0.117501
0.118675
0.120971
0.124238
0.128395
0.133432
0.139279
0.145985
0.153462
0.161829
0.170944
0.180984
0.19174
0.203451
0.215798
0.229101
0.242874
0.257551
0.272383
0.288008
0.3032
0.319099
0.333363
0.117471
0.118645
0.12094
0.124206
0.128361
0.133381
0.13923
0.145923
0.15338
0.161716
0.170788
0.180768
0.191442
0.203042
0.215239
0.22835
0.241862
0.25622
0.270624
0.285737
0.300254
0.315369
0.328595
0.117435
0.118608
0.120902
0.124166
0.128319
0.133327
0.13917
0.145849
0.153284
0.161587
0.170613
0.180528
0.191113
0.202595
0.214631
0.227537
0.240773
0.25479
0.26874
0.283311
0.297114
0.311403
0.323535
0.117392
0.118564
0.120856
0.124119
0.128269
0.133293
0.1391
0.145763
0.153174
0.161442
0.170419
0.180264
0.190755
0.202109
0.213975
0.226663
0.239606
0.253263
0.266733
0.280733
0.293782
0.307204
0.318191
0.117342
0.118513
0.120804
0.124064
0.12821
0.133225
0.139021
0.145666
0.153052
0.16128
0.170205
0.179976
0.190366
0.201586
0.213271
0.225728
0.238362
0.25164
0.264604
0.278004
0.290263
0.302777
0.312568
0.117285
0.118456
0.120744
0.124001
0.128143
0.133148
0.138933
0.145558
0.152916
0.161104
0.169972
0.179664
0.189948
0.201026
0.212521
0.224734
0.237042
0.249921
0.262355
0.275126
0.286559
0.298127
0.306675
0.117221
0.118391
0.120677
0.123931
0.128068
0.133064
0.138834
0.145439
0.152767
0.160911
0.16972
0.179328
0.189501
0.200428
0.211723
0.223679
0.235647
0.248107
0.259986
0.272103
0.282673
0.293259
0.300518
0.117151
0.11832
0.120604
0.123854
0.127981
0.13297
0.138727
0.145309
0.152606
0.160704
0.16945
0.17897
0.189025
0.199793
0.210879
0.222566
0.234177
0.2462
0.2575
0.268935
0.278609
0.288178
0.294104
0.117074
0.118242
0.120523
0.12377
0.12788
0.132868
0.13861
0.145169
0.152432
0.160481
0.169161
0.178588
0.18852
0.199122
0.20999
0.221394
0.232635
0.244201
0.254898
0.265625
0.27437
0.282889
0.287443
0.11699
0.118157
0.120436
0.123679
0.127789
0.132756
0.138483
0.145017
0.152245
0.160243
0.168854
0.178184
0.187986
0.198415
0.209055
0.220164
0.231019
0.24211
0.252181
0.262177
0.269958
0.277398
0.280542
0.1169
0.118066
0.120342
0.123582
0.127681
0.132637
0.138348
0.144855
0.152046
0.159991
0.168528
0.177757
0.187425
0.197673
0.208075
0.218877
0.229332
0.239928
0.249353
0.258591
0.265379
0.271709
0.273408
0.116803
0.117968
0.120241
0.123476
0.127564
0.13251
0.138203
0.144683
0.151835
0.159724
0.168186
0.177308
0.186836
0.196895
0.207052
0.217534
0.227574
0.237657
0.246413
0.254871
0.260634
0.26583
0.266049
0.1167
0.117864
0.120133
0.123361
0.127443
0.132376
0.13805
0.144501
0.151612
0.159442
0.167825
0.176838
0.18622
0.196082
0.205984
0.216134
0.225747
0.235298
0.243365
0.25102
0.255728
0.259765
0.258474
0.11659
0.117753
0.12002
0.123235
0.127315
0.132233
0.137887
0.144308
0.151378
0.159147
0.167447
0.176346
0.185577
0.195235
0.204873
0.214678
0.22385
0.232852
0.240211
0.247039
0.250664
0.253522
0.250691
0.116474
0.117636
0.1199
0.123116
0.127179
0.132083
0.137717
0.144106
0.151132
0.158838
0.167053
0.175832
0.184907
0.194355
0.203719
0.213168
0.221886
0.230319
0.236952
0.24293
0.245446
0.247105
0.242705
0.116352
0.117513
0.119774
0.122981
0.127037
0.131926
0.137537
0.143894
0.150874
0.158515
0.166641
0.175298
0.184211
0.19344
0.202523
0.211604
0.219855
0.227701
0.23359
0.238697
0.240077
0.240521
0.234525
0.116223
0.117383
0.119639
0.122839
0.126887
0.131761
0.137349
0.143672
0.150605
0.158178
0.166213
0.174743
0.183489
0.192492
0.201286
0.209986
0.217757
0.224999
0.230127
0.23434
0.234561
0.233777
0.226155
0.116088
0.117248
0.119495
0.122693
0.126731
0.131588
0.137154
0.143442
0.150326
0.157829
0.165769
0.174168
0.182741
0.191512
0.200006
0.208315
0.215595
0.222213
0.226566
0.229862
0.228903
0.226878
0.2176
0.115948
0.117107
0.119355
0.12254
0.126569
0.131409
0.13695
0.143202
0.150035
0.157467
0.16531
0.173574
0.181968
0.1905
0.198687
0.206592
0.213368
0.219346
0.222909
0.225264
0.223106
0.219829
0.208864
0.115801
0.11696
0.119199
0.122382
0.126399
0.131222
0.136738
0.142953
0.149734
0.157091
0.164834
0.172959
0.18117
0.189455
0.197326
0.204816
0.211077
0.216396
0.219157
0.220546
0.217174
0.212635
0.115648
0.116806
0.119039
0.122217
0.126223
0.131028
0.136517
0.142693
0.149421
0.156701
0.164339
0.172321
0.180343
0.188374
0.195921
0.202985
0.208717
0.213361
0.215308
0.215708
0.211111
0.205298
0.115489
0.116648
0.118876
0.122047
0.126041
0.130826
0.136289
0.142425
0.149097
0.156298
0.163828
0.171662
0.17949
0.18726
0.194473
0.201101
0.206295
0.210249
0.211372
0.21076
0.204936
0.197836
0.115325
0.116484
0.118709
0.121874
0.125857
0.130627
0.136065
0.142163
0.148782
0.155906
0.163331
0.171018
0.17865
0.186158
0.193033
0.199216
0.20386
0.207107
0.207391
0.205736
0.198673
0.190269
0.115155
0.116316
0.118539
0.1217
0.125677
0.130434
0.135852
0.141918
0.148489
0.155541
0.162865
0.170409
0.177846
0.185088
0.191615
0.197337
0.201405
0.203907
0.20331
0.200545
0.19219
0.182415
0.114978
0.116136
0.11835
0.121496
0.125451
0.130177
0.135552
0.14156
0.148052
0.154997
0.162179
0.169533
0.176726
0.183646
0.18977
0.194974
0.198418
0.200126
0.198635
0.194721
0.185163
0.10863
0.109655
0.111592
0.114331
0.117756
0.12183
0.126437
0.131549
0.137022
0.142814
0.148709
0.154631
0.160245
0.16543
0.169658
0.172799
0.173996
0.173287
0.169143
0.162418
0.149666
0.108957
0.109987
0.111939
0.114702
0.11816
0.12228
0.126947
0.132141
0.137718
0.143648
0.149719
0.15587
0.161773
0.16733
0.172014
0.175737
0.177623
0.177785
0.174611
0.169135
0.157682
0.144825
0.109277
0.110307
0.112268
0.115044
0.118522
0.122672
0.12738
0.13263
0.138283
0.144316
0.150525
0.15686
0.163003
0.168877
0.173965
0.178212
0.180741
0.181726
0.179515
0.175252
0.165189
0.153844
0.109592
0.110624
0.112594
0.115386
0.118887
0.12307
0.127822
0.133132
0.138865
0.145005
0.151352
0.157872
0.164252
0.170436
0.175914
0.180664
0.183806
0.185571
0.184275
0.18115
0.17242
0.162501
0.109903
0.110937
0.112917
0.115726
0.119251
0.123469
0.128267
0.13364
0.139454
0.145703
0.152191
0.158896
0.165512
0.172004
0.177866
0.183109
0.186852
0.189379
0.18898
0.18696
0.179549
0.171036
0.110208
0.111245
0.113236
0.116061
0.119611
0.123862
0.128706
0.13414
0.140035
0.14639
0.153016
0.159902
0.166748
0.17354
0.179778
0.185505
0.189836
0.19311
0.193598
0.192658
0.186565
0.179438
0.110508
0.111548
0.11355
0.116391
0.119964
0.124249
0.129137
0.134632
0.140604
0.147063
0.153822
0.160885
0.167956
0.175041
0.181645
0.187844
0.192751
0.196755
0.198118
0.198231
0.193446
0.187685
0.110803
0.111845
0.113858
0.116716
0.120312
0.12463
0.129562
0.135115
0.141163
0.147724
0.154614
0.161849
0.16914
0.17651
0.183471
0.19013
0.195601
0.200315
0.20254
0.20368
0.200186
0.195777
0.183399
0.111093
0.112137
0.114161
0.117035
0.120654
0.125005
0.129979
0.13559
0.141713
0.148373
0.155391
0.162794
0.170298
0.177947
0.185257
0.192363
0.198386
0.203791
0.206864
0.209004
0.206783
0.203711
0.193118
0.111377
0.112425
0.11446
0.117349
0.120991
0.125373
0.13039
0.136057
0.142253
0.14901
0.156153
0.16372
0.171432
0.179352
0.187001
0.194543
0.201104
0.207182
0.211086
0.214202
0.213232
0.211482
0.202641
0.111655
0.112707
0.114753
0.117658
0.121321
0.125735
0.130793
0.136515
0.142783
0.149635
0.156899
0.164625
0.17254
0.180724
0.188703
0.196669
0.203756
0.210487
0.215206
0.219273
0.219529
0.219085
0.211964
0.111928
0.112983
0.115039
0.117961
0.121646
0.126091
0.131189
0.136965
0.143303
0.150247
0.157629
0.165511
0.173623
0.182063
0.190363
0.198741
0.206339
0.213704
0.219222
0.224214
0.225671
0.226515
0.221083
0.112196
0.113254
0.115318
0.118258
0.121964
0.126439
0.131577
0.137406
0.143811
0.150846
0.158343
0.166376
0.174679
0.183368
0.191981
0.200757
0.208855
0.216834
0.22313
0.229025
0.231655
0.233764
0.22999
0.112457
0.113519
0.115594
0.118549
0.122276
0.126781
0.131957
0.137838
0.144309
0.151431
0.15904
0.16722
0.175709
0.184639
0.193555
0.202717
0.2113
0.219876
0.22693
0.233703
0.237475
0.240828
0.238679
0.112713
0.113779
0.115864
0.118834
0.122582
0.127115
0.132329
0.13826
0.144796
0.152004
0.159721
0.168043
0.176712
0.185875
0.195086
0.204621
0.213676
0.222827
0.23062
0.238245
0.24313
0.247701
0.247143
0.112962
0.114032
0.116128
0.119115
0.122881
0.127443
0.132693
0.138673
0.145272
0.152562
0.160385
0.168845
0.177688
0.187077
0.196573
0.206468
0.21598
0.225688
0.234197
0.242651
0.248616
0.254377
0.255374
0.113206
0.11428
0.116385
0.119391
0.123173
0.127763
0.133049
0.139077
0.145736
0.153107
0.161031
0.169625
0.178637
0.188243
0.198015
0.208258
0.218212
0.228457
0.23766
0.246916
0.25393
0.260851
0.263365
0.113443
0.114522
0.116636
0.119659
0.123459
0.128075
0.133396
0.139471
0.146189
0.153637
0.16166
0.170383
0.179558
0.189374
0.199412
0.209989
0.220371
0.231133
0.241007
0.25104
0.259067
0.267117
0.271108
0.113675
0.114758
0.116881
0.119904
0.123738
0.12838
0.133734
0.139854
0.14663
0.154153
0.162272
0.171118
0.18045
0.190469
0.200763
0.211662
0.222456
0.233716
0.244237
0.25502
0.264026
0.27317
0.278596
0.1139
0.114987
0.11712
0.120159
0.124009
0.128677
0.134064
0.140228
0.147058
0.154655
0.162865
0.171831
0.181315
0.191527
0.202068
0.213275
0.224467
0.236205
0.247348
0.258854
0.268803
0.279005
0.285821
0.114119
0.11521
0.117352
0.120406
0.124273
0.128966