/*--------------------------------*- C++ -*----------------------------------*\
  =========                 |
  \\      /  F ield         | OpenFOAM: The Open Source CFD Toolbox
   \\    /   O peration     | Website:  https://openfoam.org
    \\  /    A nd           | Version:  7
     \\/     M anipulation  |
\*---------------------------------------------------------------------------*/
FoamFile
{
    version     2.0;
    format      ascii;
    class       volVectorField;
    location    "240";
    object      U;
}
// * * * * * * * * * * * * * * * * * * * * * * * * * * * * * * * * * * * * * //

dimensions      [0 1 -1 0 0 0 0];

internalField   nonuniform List<vector> 
4575
(
(0.830262 0.301061 -3.08052e-19)
(0.820773 0.294496 5.65985e-19)
(0.811499 0.287599 -3.17457e-19)
(0.788679 0.29699 -1.76064e-19)
(0.802449 0.280373 -1.29849e-19)
(0.779327 0.288981 2.07181e-19)
(0.793633 0.272826 1.033e-19)
(0.770224 0.280642 -5.44767e-20)
(0.785061 0.264962 2.06978e-19)
(0.761381 0.271979 -5.96241e-20)
(0.776743 0.25679 -2.87605e-19)
(0.735586 0.278695 2.74061e-19)
(0.752811 0.263001 1.75368e-19)
(0.768688 0.248317 1.33575e-19)
(0.726767 0.268852 -1.79385e-19)
(0.744525 0.253714 -1.28529e-19)
(0.760907 0.239552 1.27198e-20)
(0.718262 0.258691 -1.5504e-19)
(0.736534 0.244129 -5.65102e-20)
(0.753409 0.230505 9.66339e-20)
(0.710081 0.248222 -6.09143e-20)
(0.72885 0.234255 4.81266e-19)
(0.746205 0.221184 -3.09333e-19)
(0.682186 0.251583 1.32877e-19)
(0.702238 0.237457 -1.09187e-19)
(0.721482 0.224103 -9.52189e-20)
(0.739303 0.2116 2.11254e-19)
(0.674172 0.23988 2.01515e-19)
(0.694742 0.226406 2.78166e-19)
(0.714443 0.213683 5.53076e-20)
(0.732712 0.201764 -2.4987e-19)
(0.666541 0.227884 -5.00385e-20)
(0.687606 0.215082 -2.94952e-20)
(0.707741 0.203006 4.02676e-20)
(0.726442 0.191688 2.29323e-19)
(0.659303 0.215608 9.35643e-20)
(0.680839 0.203498 -1.38055e-19)
(0.701387 0.192085 -1.26928e-19)
(0.720501 0.181381 -2.46643e-19)
(0.652471 0.203067 4.46176e-20)
(0.674452 0.191667 -1.34013e-20)
(0.69539 0.180932 4.13871e-21)
(0.714897 0.170858 1.35847e-19)
(0.622344 0.201677 1.58873e-19)
(0.646054 0.190276 -1.77871e-19)
(0.668454 0.179603 3.38121e-19)
(0.689759 0.16956 -3.02174e-19)
(0.709639 0.160129 1.09966e-19)
(0.61593 0.18786 -1.03363e-19)
(0.640062 0.17725 1.03351e-20)
(0.662854 0.167319 -2.97393e-19)
(0.684502 0.157982 2.10273e-19)
(0.704732 0.149208 1.94588e-19)
(0.609981 0.173806 1.43095e-19)
(0.634504 0.164004 1.88251e-20)
(0.657661 0.154831 4.70118e-20)
(0.679627 0.146212 1.87405e-20)
(0.700185 0.138108 -2.14529e-19)
(0.604504 0.159533 -2.01836e-19)
(0.629389 0.150554 2.61855e-20)
(0.652882 0.142153 1.68329e-19)
(0.675142 0.134264 -2.36708e-19)
(0.696003 0.126841 -1.26237e-21)
(0.599509 0.145059 1.86005e-19)
(0.624725 0.136918 -1.39885e-19)
(0.648525 0.129301 -1.72071e-20)
(0.671054 0.122153 1.3539e-19)
(0.692193 0.115423 -2.50022e-19)
(0.595004 0.130402 -1.65804e-19)
(0.620519 0.123111 3.67043e-20)
(0.644597 0.116291 -2.42249e-20)
(0.667368 0.109893 -8.46396e-20)
(0.68876 0.103866 3.36067e-20)
(0.590996 0.11558 3.55494e-20)
(0.616779 0.109151 8.27413e-20)
(0.641104 0.103138 1.46828e-20)
(0.664092 0.0974994 -1.79793e-20)
(0.68571 0.092185 2.26056e-21)
(0.587491 0.100613 1.00662e-19)
(0.613508 0.095055 8.40756e-20)
(0.638051 0.0898582 4.10398e-20)
(0.661229 0.0849874 9.36299e-20)
(0.683046 0.080394 3.77956e-20)
(0.584495 0.0855182 -3.42407e-20)
(0.610714 0.0808414 -6.85609e-20)
(0.635444 0.0764693 -7.07011e-21)
(0.658784 0.0723727 -1.35185e-19)
(0.680772 0.0685077 2.67984e-21)
(0.582013 0.0703158 -7.1268e-20)
(0.608401 0.0665279 -9.98045e-21)
(0.633286 0.0629874 -2.19021e-20)
(0.656762 0.0596709 1.03064e-19)
(0.678893 0.0565408 -1.75891e-20)
(0.58005 0.0550253 1.01043e-19)
(0.606572 0.0521325 1.27339e-19)
(0.631581 0.0494295 -1.86093e-20)
(0.655165 0.046898 4.6653e-20)
(0.677411 0.0445081 -2.10247e-20)
(0.550365 0.0418005 3.42397e-20)
(0.578608 0.0396661 8.52251e-21)
(0.60523 0.0376736 -4.27974e-20)
(0.630332 0.0358126 -4.16445e-21)
(0.653997 0.0340701 -1.00757e-19)
(0.676328 0.0324247 4.1931e-20)
(0.549376 0.0254265 1.67773e-20)
(0.57769 0.0242581 -4.65619e-20)
(0.604378 0.0231696 4.39366e-21)
(0.629541 0.0221541 -2.0459e-21)
(0.65326 0.0212034 2.55658e-20)
(0.675646 0.0203055 5.81716e-22)
(0.54895 0.00902114 -8.50971e-21)
(0.577298 0.00882122 1.12899e-20)
(0.604018 0.00863909 2.18489e-20)
(0.629209 0.00847118 1.61592e-21)
(0.652954 0.00831413 2.38736e-21)
(0.675366 0.00816561 1.0467e-20)
(0.549087 -0.00739431 -1.01046e-20)
(0.577433 -0.00662464 1.0019e-20)
(0.60415 -0.00589938 2.23766e-20)
(0.629338 -0.00521876 1.8997e-21)
(0.65308 -0.00458129 1.65912e-21)
(0.675489 -0.00397933 1.11272e-20)
(0.549788 -0.0237984 6.96115e-21)
(0.578095 -0.0220595 -3.67977e-20)
(0.604775 -0.0204272 1.09047e-20)
(0.629928 -0.0188984 -1.77565e-21)
(0.65364 -0.0174666 1.87614e-20)
(0.676015 -0.0161144 1.90754e-21)
(0.551053 -0.0401696 2.22538e-20)
(0.579284 -0.0374633 7.30776e-21)
(0.605892 -0.0349258 -5.65233e-20)
(0.630977 -0.0325503 3.3311e-21)
(0.654631 -0.0303254 -8.06132e-20)
(0.676944 -0.0282246 1.79672e-20)
(0.580998 -0.0528163 1.02656e-19)
(0.607499 -0.0493765 9.35643e-20)
(0.632486 -0.0461572 -4.7919e-20)
(0.656054 -0.0431415 6.28166e-20)
(0.678274 -0.0402948 -1.42287e-21)
(0.583234 -0.0680984 -1.00656e-19)
(0.609595 -0.0637609 -1.7864e-20)
(0.634451 -0.0597018 -2.32981e-20)
(0.657906 -0.0558985 3.71068e-20)
(0.680004 -0.0523095 -2.61987e-21)
(0.58599 -0.08329 -1.02476e-20)
(0.612177 -0.0780605 -4.84927e-20)
(0.63687 -0.0731668 2.552e-20)
(0.660184 -0.0685803 -2.1392e-19)
(0.682132 -0.0642539 7.65034e-20)
(0.589263 -0.0983714 1.33183e-19)
(0.615241 -0.0922571 3.51098e-20)
(0.63974 -0.0865354 5.18839e-20)
(0.662886 -0.0811709 1.20222e-19)
(0.684655 -0.076113 -6.37592e-20)
(0.593046 -0.113323 1.09506e-19)
(0.618782 -0.106333 -4.57517e-20)
(0.643057 -0.0997906 3.24688e-20)
(0.666008 -0.0936545 6.8245e-20)
(0.68757 -0.087872 -2.52191e-20)
(0.597335 -0.128127 -2.0912e-19)
(0.622797 -0.120269 -2.7222e-20)
(0.646816 -0.112916 -6.12577e-20)
(0.669545 -0.106015 -3.93515e-20)
(0.690873 -0.0995163 1.01445e-19)
(0.602124 -0.142762 1.35378e-19)
(0.627279 -0.134049 -1.53848e-19)
(0.651012 -0.125894 -3.30335e-20)
(0.673492 -0.118238 1.21122e-19)
(0.69456 -0.111031 -9.83256e-20)
(0.607406 -0.157212 -2.69826e-19)
(0.632223 -0.147656 1.13013e-19)
(0.65564 -0.13871 1.53264e-19)
(0.677845 -0.130307 -2.76611e-19)
(0.698625 -0.122403 1.16505e-21)
(0.613174 -0.171457 2.32962e-19)
(0.63762 -0.161071 2.71765e-20)
(0.660692 -0.151348 -8.09408e-21)
(0.682596 -0.142208 1.34849e-20)
(0.703064 -0.133616 -1.73887e-19)
(0.619418 -0.18548 6.50415e-20)
(0.643463 -0.174278 -1.93306e-19)
(0.666161 -0.163791 -2.35946e-19)
(0.68774 -0.153925 2.71303e-19)
(0.707871 -0.144658 1.69736e-19)
(0.62613 -0.199263 -2.47081e-19)
(0.649744 -0.187262 5.73782e-20)
(0.67204 -0.176025 1.22422e-19)
(0.693268 -0.165446 -1.5116e-19)
(0.71304 -0.155515 -3.07258e-20)
(0.656455 -0.200006 1.53459e-19)
(0.678321 -0.188034 -1.76754e-19)
(0.699173 -0.176755 1.01521e-19)
(0.718563 -0.166174 1.45701e-19)
(0.663585 -0.212494 -9.96292e-21)
(0.684995 -0.199805 -7.59618e-21)
(0.705448 -0.187839 -1.44807e-19)
(0.724434 -0.176621 -3.40457e-19)
(0.671124 -0.224713 -4.52639e-20)
(0.692051 -0.211323 -1.61625e-19)
(0.712082 -0.198685 6.27251e-20)
(0.730645 -0.186845 3.16059e-19)
(0.679062 -0.236646 1.09829e-19)
(0.699482 -0.222575 2.32047e-19)
(0.719067 -0.20928 3.02327e-20)
(0.737188 -0.196832 -3.11414e-19)
(0.687387 -0.248281 -2.78117e-19)
(0.707275 -0.233548 -5.42279e-20)
(0.726394 -0.219613 -4.5264e-20)
(0.744054 -0.206571 1.97129e-19)
(0.715422 -0.244229 -8.82202e-21)
(0.734052 -0.229671 2.10792e-19)
(0.751236 -0.216051 1.00861e-19)
(0.723909 -0.254607 -1.04789e-19)
(0.742032 -0.239443 -1.27176e-20)
(0.758724 -0.225259 1.21484e-19)
(0.732726 -0.26467 -5.84471e-21)
(0.750322 -0.248918 -2.12382e-19)
(0.766508 -0.234187 -9.12025e-20)
(0.741861 -0.274407 1.63901e-19)
(0.758911 -0.258087 1.57558e-19)
(0.77458 -0.242823 1.55656e-19)
(0.767789 -0.26694 -6.00833e-20)
(0.782929 -0.251159 -1.64489e-19)
(0.776943 -0.275468 -2.44717e-19)
(0.791547 -0.259185 1.11929e-19)
(0.786364 -0.283664 3.96532e-19)
(0.800423 -0.266893 8.48132e-20)
(0.809547 -0.274275 -5.46032e-20)
(0.818911 -0.281324 -2.26544e-19)
(0.828504 -0.288035 3.92669e-19)
(0.999953 0.00142319 0)
(0.998839 0.00457332 0)
(0.996626 0.00820722 0)
(0.99368 0.012396 0)
(0.989876 0.0172444 0)
(0.985531 0.0228104 0)
(0.98045 0.0291863 0)
(0.97498 0.0364365 0)
(0.968873 0.0447014 0)
(0.962572 0.0540543 0)
(0.955763 0.0647069 0)
(0.949069 0.0767212 0)
(0.942071 0.0903916 0)
(0.935701 0.105706 0)
(0.929317 0.123066 0)
(0.924394 0.142238 0)
(0.919776 0.163839 0)
(0.917952 0.187041 0)
(0.916568 0.2132 -2.6479e-28)
(0.920162 0.239582 2.81384e-28)
(0.923654 0.270954 0)
(0.999954 0.00154736 0)
(0.998886 0.0049417 0)
(0.99676 0.00880814 0)
(0.993945 0.0132217 0)
(0.990316 0.0183039 0)
(0.986208 0.0240925 0)
(0.981418 0.0307093 0)
(0.976332 0.0381763 0)
(0.970682 0.0466738 0)
(0.964972 0.0562037 0)
(0.958852 0.067034 0)
(0.953037 0.0791064 0)
(0.947036 0.0928078 0)
(0.941924 0.107916 0)
(0.936912 0.125017 0)
(0.933705 0.143475 0)
(0.930841 0.164362 0)
(0.93121 0.185932 -1.15315e-28)
(0.931816 0.210828 1.22647e-28)
(0.938001 0.23388 -1.46635e-28)
(0.943084 0.263507 1.55899e-28)
(0.999954 0.00167161 0)
(0.998938 0.00530899 0)
(0.996911 0.0094105 0)
(0.994247 0.0140509 0)
(0.990816 0.0193705 0)
(0.986976 0.0253836 0)
(0.982513 0.0322426 0)
(0.977848 0.0399237 0)
(0.972694 0.0486489 0)
(0.96761 0.0583418 0)
(0.962209 0.0693318 0)
(0.957286 0.0814267 0)
(0.952277 0.0951191 0)
(0.948372 0.109948 0)
(0.944646 0.126718 0)
(0.942968 0.144336 0)
(0.941633 0.164384 0)
(0.943759 0.184173 0)
(0.945936 0.207541 0)
(0.953778 0.227439 0)
(0.959947 0.25443 0)
(0.999955 0.00179424 0)
(0.998993 0.00566955 0)
(0.997074 0.0100005 0)
(0.994573 0.014859 0)
(0.991359 0.0204033 0)
(0.987806 0.0266251 0)
(0.983695 0.0337038 0)
(0.979475 0.0415723 0)
(0.974847 0.0504893 0)
(0.97041 0.0603046 0)
(0.965751 0.0714032 0)
(0.961717 0.0834668 0)
(0.957698 0.0970866 0)
(0.95494 0.111581 0)
(0.952443 0.127954 0)
(0.952117 0.144717 0)
(0.952166 0.16387 0)
(0.955661 0.182036 0)
(0.959167 0.2038 0)
(0.967954 0.22124 0)
(0.975103 0.245588 0)
(0.999956 0.0019135 0)
(0.999051 0.00601798 0)
(0.997248 0.0105683 0)
(0.994917 0.0156309 0)
(0.991934 0.0213818 0)
(0.988679 0.0277892 0)
(0.984938 0.035057 0)
(0.981175 0.0430756 0)
(0.977093 0.0521365 0)
(0.973305 0.062018 0)
(0.969401 0.0731557 0)
(0.966233 0.0851118 0)
(0.963193 0.0985672 0)
(0.961503 0.112642 0)
(0.960179 0.128513 0)
(0.96103 0.144372 0)
(0.962336 0.162521 0)
(0.966888 0.17916 0)
(0.971531 0.19925 0)
(0.980846 0.214639 0)
(0.988836 0.236515 0)
(0.999958 0.00202857 0)
(0.999111 0.00635183 0)
(0.99743 0.0111098 0)
(0.995275 0.0163614 0)
(0.992533 0.0222993 0)
(0.989582 0.0288682 0)
(0.986226 0.0362936 0)
(0.982923 0.0444242 0)
(0.979397 0.0535808 0)
(0.976249 0.0634724 0)
(0.973098 0.0745798 0)
(0.970758 0.0863546 0)
(0.968667 0.0995552 0)
(0.967956 0.113133 0)
(0.967726 0.128396 0)
(0.969588 0.14331 0)
(0.972007 0.16036 0)
(0.977371 0.175541 0)
(0.982951 0.193927 0)
(0.992542 0.207491 0)
(1.00114 0.227032 0)
(0.99996 0.00213884 0)
(0.999173 0.0066695 0)
(0.99762 0.0116224 0)
(0.995644 0.017047 0)
(0.993152 0.0231518 0)
(0.99051 0.0298572 0)
(0.987546 0.0374086 0)
(0.984699 0.0456132 0)
(0.981732 0.054818 0)
(0.979207 0.0646668 0)
(0.976793 0.0756785 0)
(0.975234 0.0872078 0)
(0.974044 0.100072 0)
(0.974219 0.113095 0)
(0.974985 0.127666 0)
(0.977706 0.141619 0)
(0.981078 0.157512 0)
(0.987058 0.171314 0)
(0.993368 0.18802 0)
(1.00305 0.199941 0)
(1.01202 0.217295 0)
(0.999963 0.00224371 0)
(0.999237 0.00696935 0)
(0.997817 0.0121034 0)
(0.996023 0.0176841 0)
(0.993788 0.0239344 0)
(0.991454 0.0307507 0)
(0.988888 0.0383953 0)
(0.986491 0.0466367 0)
(0.984077 0.0558427 0)
(0.98215 0.0655991 0)
(0.980448 0.0764529 0)
(0.979618 0.0876816 0)
(0.979267 0.100139 0)
(0.980233 0.112564 0)
(0.981883 0.126379 0)
(0.985324 0.139376 0)
(0.989488 0.15409 0)
(0.995919 0.1666 0)
(1.00277 0.181689 0)
(1.0124 0.192138 0)
(1.02156 0.207488 -1.52616e-29)
(0.999967 0.00234257 0)
(0.999302 0.00724973 0)
(0.998019 0.0125499 0)
(0.996409 0.0182688 0)
(0.994436 0.0246421 0)
(0.992409 0.0315433 0)
(0.990239 0.0392479 0)
(0.988283 0.0474894 0)
(0.98641 0.0566502 0)
(0.985055 0.0662686 0)
(0.984029 0.0769065 0)
(0.983872 0.0877878 0)
(0.984288 0.0997767 0)
(0.985953 0.111575 0)
(0.98837 0.124591 0)
(0.992404 0.136647 0)
(0.997205 0.150189 0)
(1.00394 0.16149 0)
(1.01117 0.175054 0)
(1.02064 0.18419 0)
(1.02985 0.197731 0)
(0.999971 0.0024348 0)
(0.999369 0.00750904 0)
(0.998225 0.0129591 0)
(0.996801 0.0187976 0)
(0.99509 0.0252706 0)
(0.993369 0.0322303 0)
(0.991591 0.0399614 0)
(0.990065 0.048168 0)
(0.988712 0.0572389 0)
(0.987901 0.0666776 0)
(0.987506 0.077047 0)
(0.987966 0.087542 0)
(0.989071 0.0990128 0)
(0.991345 0.110165 0)
(0.994415 0.122357 0)
(0.998923 0.133496 0)
(1.00422 0.145893 0)
(1.01115 0.156069 0)
(1.0186 0.168213 0)
(1.02783 0.176178 0)
(1.03697 0.188098 0)
(0.999975 0.00251983 0)
(0.999437 0.00774579 0)
(0.998434 0.0133284 0)
(0.997195 0.0192673 0)
(0.995747 0.0258159 0)
(0.994328 0.0328081 0)
(0.992933 0.0405325 0)
(0.991821 0.0486707 0)
(0.990966 0.0576094 0)
(0.990665 0.0668313 0)
(0.990853 0.0768858 0)
(0.991873 0.0869628 0)
(0.993587 0.0978781 0)
(0.996383 0.108374 0)
(0.999995 0.119733 0)
(1.00487 0.129984 0)
(1.01054 0.141282 0)
(1.01755 0.150413 0)
(1.02511 0.161249 0)
(1.03404 0.168172 0)
(1.04303 0.178642 0)
(0.999979 0.00259708 0)
(0.999506 0.00795863 0)
(0.998643 0.0136556 0)
(0.997591 0.0196752 0)
(0.996401 0.0262748 0)
(0.995278 0.0332738 0)
(0.994254 0.040959 0)
(0.993541 0.0489974 0)
(0.993155 0.0577648 0)
(0.99333 0.0667369 0)
(0.99405 0.0764373 0)
(0.995569 0.0860714 0)
(0.997813 0.0964053 0)
(1.00105 0.106242 0)
(1.0051 0.116776 5.13316e-28)
(1.01025 0.126174 -5.46203e-28)
(1.01617 0.136426 0)
(1.02318 0.144594 0)
(1.03076 0.154232 -9.00657e-29)
(1.03934 0.160229 1.17583e-29)
(1.04811 0.169407 8.93281e-29)
(0.999983 0.00266603 0)
(0.999575 0.00814633 0)
(0.998852 0.0139384 0)
(0.997984 0.0200189 0)
(0.997047 0.0266449 0)
(0.996214 0.0336257 0)
(0.995544 0.0412402 0)
(0.995212 0.0491495 0)
(0.995263 0.0577101 0)
(0.995877 0.0664036 0)
(0.997076 0.0757183 0)
(0.999036 0.0848906 0)
(1.00173 0.0946282 0)
(1.00533 0.103811 0)
(1.00973 0.113536 0)
(1.01506 0.12212 0)
(1.02114 0.13139 0)
(1.02808 0.138673 0)
(1.03559 0.147219 0)
(1.0438 0.152397 0)
(1.05229 0.160425 0)
(0.999986 0.00272621 0)
(0.999644 0.00830783 0)
(0.999058 0.0141753 0)
(0.998372 0.0202967 0)
(0.99768 0.0269244 0)
(0.997128 0.0338625 0)
(0.996796 0.0413769 0)
(0.996822 0.0491298 0)
(0.997278 0.0574526 0)
(0.998292 0.0658427 0)
(0.999916 0.0747471 0)
(1.00226 0.0834448 0)
(1.00534 0.0925806 0)
(1.00922 0.101119 0)
(1.01388 0.110062 0)
(1.01933 0.117877 0)
(1.02548 0.126229 0)
(1.0323 0.132702 0)
(1.03967 0.140259 0)
(1.04749 0.144713 0)
(1.05567 0.151722 0)
(0.999989 0.00277724 0)
(0.999713 0.00844222 0)
(0.99926 0.0143648 0)
(0.998752 0.020507 0)
(0.998297 0.0271124 0)
(0.998013 0.0339844 0)
(0.998 0.041371 0)
(0.998361 0.0489427 0)
(0.999186 0.0570009 0)
(1.00056 0.0650669 0)
(1.00256 0.0735435 0)
(1.00523 0.0817591 0)
(1.00862 0.0902957 0)
(1.01272 0.0982067 0)
(1.01756 0.1064 0)
(1.02306 0.113489 0)
(1.02922 0.120991 0)
(1.03587 0.126727 0)
(1.04305 0.133392 0)
(1.05048 0.137207 0)
(1.05831 0.143314 0)
(0.999992 0.0028188 0)
(0.999781 0.00854875 0)
(0.999457 0.0145061 0)
(0.999123 0.020649 0)
(0.998892 0.0272087 0)
(0.998865 0.033992 0)
(0.999148 0.0412259 0)
(0.999819 0.0485938 0)
(1.00098 0.0563652 0)
(1.00267 0.0640906 0)
(1.00499 0.072128 0)
(1.00793 0.0798594 0)
(1.01157 0.0878061 0)
(1.01584 0.0951097 0)
(1.02079 0.10259 0)
(1.02628 0.109002 0)
(1.03239 0.115719 0)
(1.03884 0.120787 0)
(1.0458 0.126648 0)
(1.05282 0.129903 0)
(1.0603 0.135211 0)
(0.999994 0.00285065 0)
(0.999847 0.00862688 0)
(0.999647 0.0145986 0)
(0.99948 0.0207223 0)
(0.999463 0.0272141 0)
(0.999677 0.0338874 0)
(1.00023 0.0409459 0)
(1.00119 0.0480901 0)
(1.00264 0.0555569 0)
(1.00462 0.062929 0)
(1.0072 0.0705218 0)
(1.01037 0.0777715 0)
(1.01419 0.0851429 0)
(1.01857 0.0918632 0)
(1.02358 0.0986712 0)
(1.02902 0.104452 0)
(1.03503 0.110449 0)
(1.04125 0.114913 0)
(1.04796 0.120053 0)
(1.05458 0.122817 0)
(1.0617 0.127419 2.99508e-29)
(0.999996 0.00287266 0)
(0.999911 0.00867626 0)
(0.99983 0.0146422 0)
(0.999821 0.0207272 0)
(1 0.02713 0)
(1.00044 0.0336732 0)
(1.00125 0.0405365 0)
(1.00246 0.0474397 0)
(1.00418 0.0545882 0)
(1.00639 0.0615984 0)
(1.0092 0.0687459 0)
(1.01254 0.0755207 0)
(1.0165 0.0823359 0)
(1.02093 0.0884999 0)
(1.02595 0.0946769 0)
(1.0313 0.0998737 0)
(1.03717 0.105213 -1.68108e-28)
(1.04314 0.109132 1.7883e-28)
(1.04958 0.113628 0)
(1.05581 0.115961 0)
(1.06256 0.11994 0)
(0.999998 0.00288478 0)
(0.999972 0.00869676 0)
(1 0.0146372 0)
(1.00015 0.0206644 0)
(1.00051 0.0269586 0)
(1.00116 0.0333533 0)
(1.00219 0.0400042 0)
(1.00363 0.0466519 0)
(1.00557 0.0534723 0)
(1.00799 0.0601156 0)
(1.01098 0.0668217 0)
(1.01445 0.0731319 0)
(1.01849 0.0794131 0)
(1.02294 0.0850496 0)
(1.02792 0.090638 0)
(1.03315 0.0952964 0)
(1.03885 0.100036 0)
(1.04456 0.103467 0)
(1.05071 0.107388 0)
(1.05657 0.109344 0)
(1.06295 0.112775 0)
(1 0.00288706 0)
(1.00003 0.00868851 0)
(1.00017 0.0145842 0)
(1.00045 0.0205352 0)
(1.00099 0.0267029 0)
(1.00182 0.0329321 0)
(1.00306 0.0393561 0)
(1.00469 0.0457367 0)
(1.00683 0.0522228 0)
(1.00941 0.0584979 0)
(1.01253 0.0647698 0)
(1.01609 0.0706291 0)
(1.02018 0.0764009 0)
(1.02461 0.0815402 0)
(1.02952 0.0865819 0)
(1.0346 0.0907459 0)
(1.0401 0.0949425 0)
(1.04555 0.0979348 0)
(1.0514 0.101344 -3.562e-29)
(1.05689 0.102972 4.72308e-30)
(1.06292 0.10592 3.52502e-29)
(1 0.00287962 0)
(1.00009 0.00865185 0)
(1.00032 0.0144845 0)
(1.00073 0.0203418 0)
(1.00143 0.0263663 0)
(1.00243 0.032415 0)
(1.00384 0.0386004 0)
(1.00565 0.0447048 0)
(1.00794 0.0508537 0)
(1.01065 0.0567622 0)
(1.01388 0.0626105 0)
(1.01748 0.0680349 0)
(1.02158 0.0733238 0)
(1.02595 0.0779966 0)
(1.03076 0.0825331 0)
(1.03568 0.0862449 0)
(1.04096 0.08995 0)
(1.04615 0.0925512 0)
(1.0517 0.0955053 0)
(1.05683 0.096849 0)
(1.0625 0.0993721 0)
(1 0.00286268 0)
(1.00014 0.00858738 0)
(1.00046 0.0143394 0)
(1.00099 0.0200864 0)
(1.00183 0.025953 0)
(1.00298 0.0318081 0)
(1.00455 0.0377453 0)
(1.0065 0.0435674 0)
(1.00891 0.0493791 0)
(1.01172 0.0549258 0)
(1.01501 0.0603634 0)
(1.01864 0.0653708 0)
(1.0227 0.0702042 0)
(1.027 0.0744417 0)
(1.03167 0.0785129 0)
(1.03641 0.0818126 2.61963e-28)
(1.04147 0.0850747 -2.7871e-28)
(1.04638 0.0873274 0)
(1.05163 0.0898783 0)
(1.05643 0.090975 0)
(1.06176 0.0931253 0)
(1 0.00283653 0)
(1.00018 0.00849594 0)
(1.00059 0.0141508 0)
(1.00123 0.0197721 0)
(1.00219 0.0254676 0)
(1.00347 0.031118 0)
(1.00517 0.0368001 0)
(1.00723 0.042336 0)
(1.00974 0.0478132 0)
(1.01262 0.0530051 0)
(1.01594 0.0580471 0)
(1.01955 0.0626572 0)
(1.02357 0.0670629 0)
(1.02776 0.0708957 0)
(1.03228 0.0745401 0)
(1.03683 0.0774654 0)
(1.04166 0.0803293 0)
(1.0463 0.0822725 0)
(1.05125 0.0844668 0)
(1.05573 0.0853503 0)
(1.06072 0.0871739 0)
(1 0.00280153 0)
(1.00023 0.0083786 0)
(1.0007 0.0139209 0)
(1.00144 0.0194024 0)
(1.00251 0.0249155 0)
(1.0039 0.0303517 0)
(1.0057 0.0357741 0)
(1.00786 0.0410225 0)
(1.01044 0.0461701 0)
(1.01335 0.0510164 0)
(1.01667 0.0556794 0)
(1.02026 0.0599126 0)
(1.02419 0.0639187 0)
(1.02826 0.0673767 0)
(1.03262 0.0706311 0)
(1.03696 0.0732175 0)
(1.04155 0.0757243 0)
(1.04593 0.0773934 0)
(1.05059 0.079273 0)
(1.05476 0.0799732 0)
(1.05943 0.0815112 -4.38226e-29)
(1 0.00275811 0)
(1.00026 0.00823664 0)
(1.0008 0.0136521 0)
(1.00162 0.0189809 0)
(1.00278 0.0243019 0)
(1.00427 0.0295168 0)
(1.00615 0.0346767 -2.59354e-29)
(1.00838 0.0396385 2.76136e-29)
(1.011 0.0444635 0)
(1.01393 0.0489751 0)
(1.01723 0.0532768 1.25638e-28)
(1.02075 0.0571543 -1.33738e-28)
(1.02458 0.0607885 0)
(1.02852 0.0639009 0)
(1.0327 0.0668 0)
(1.03684 0.0690803 0)
(1.04119 0.071268 0)
(1.0453 0.072695 0)
(1.04968 0.0742978 0)
(1.05356 0.074841 0)
(1.05793 0.07613 0)
(1 0.00270676 0)
(1.0003 0.00807155 0)
(1.00089 0.0133472 0)
(1.00178 0.018512 0)
(1.00302 0.0236328 0)
(1.00458 0.0286209 0)
(1.00653 0.0335177 0)
(1.0088 0.0381957 0)
(1.01144 0.0427066 0)
(1.01436 0.0468959 0)
(1.01761 0.0508549 0)
(1.02106 0.0543981 0)
(1.02477 0.0576874 0)
(1.02856 0.0604823 0)
(1.03256 0.0630586 0)
(1.03648 0.0650635 0)
(1.04059 0.0669668 0)
(1.04446 0.0681806 0)
(1.04856 0.0695406 0)
(1.05217 0.06995 0)
(1.05623 0.0710225 0)
(1.00001 0.00264801 0)
(1.00032 0.00788498 1.73134e-29)
(1.00097 0.013009 -1.84366e-29)
(1.00192 0.018 0)
(1.00322 0.0229143 0)
(1.00484 0.027672 0)
(1.00682 0.0323066 0)
(1.00912 0.0367054 0)
(1.01176 0.0409122 0)
(1.01465 0.0447927 0)
(1.01784 0.0484279 0)
(1.02119 0.0516583 0)
(1.02477 0.054629 0)
(1.0284 0.0571329 0)
(1.03221 0.059417 0)
(1.03593 0.0611749 0)
(1.0398 0.0628254 0)
(1.04342 0.0638522 0)
(1.04726 0.0649998 -5.62206e-29)
(1.05061 0.0652961 5.91623e-30)
(1.05439 0.066181 5.72715e-29)
(1.00001 0.00258245 0)
(1.00035 0.00767874 0)
(1.00103 0.0126408 0)
(1.00203 0.0174496 0)
(1.00337 0.0221526 0)
(1.00503 0.026678 0)
(1.00704 0.0310531 0)
(1.00934 0.0351786 0)
(1.01196 0.0390924 0)
(1.01481 0.0426784 0)
(1.01792 0.046009 0)
(1.02116 0.0489478 0)
(1.0246 0.051625 0)
(1.02807 0.0538634 0)
(1.03168 0.0558837 0)
(1.03519 0.0574206 0)
(1.03884 0.0588471 0)
(1.04222 0.0597104 0)
(1.0458 0.0606729 0)
(1.0489 0.0608742 0)
(1.05241 0.0615972 0)
(1.00001 0.0025107 0)
(1.00037 0.00745475 0)
(1.00108 0.0122457 0)
(1.00212 0.0168656 0)
(1.00349 0.0213539 0)
(1.00518 0.0256467 0)
(1.0072 0.0297663 0)
(1.00948 0.0336259 0)
(1.01206 0.0372588 0)
(1.01485 0.040565 0)
(1.01786 0.0436101 0)
(1.02099 0.0462779 0)
(1.02428 0.0486858 0)
(1.02758 0.0506824 0)
(1.031 0.0524654 0)
(1.03431 0.0538052 0)
(1.03772 0.0550338 0)
(1.04088 0.0557548 0)
(1.04421 0.0565566 0)
(1.04709 0.0566788 0)
(1.05034 0.0572628 0)
(1.00001 0.00243342 0)
(1.00038 0.00721501 0)
(1.00112 0.0118273 0)
(1.00218 0.0162528 0)
(1.00358 0.0205246 0)
(1.00527 0.0245858 0)
(1.00728 0.0284553 0)
(1.00954 0.0320574 0)
(1.01207 0.0354218 0)
(1.01478 0.0384635 0)
(1.01769 0.0412418 0)
(1.02069 0.0436587 0)
(1.02383 0.0458202 0)
(1.02696 0.0475975 0)
(1.03019 0.0491674 0)
(1.03329 0.050332 0)
(1.03649 0.0513864 0)
(1.03943 0.0519841 0)
(1.04253 0.0526469 0)
(1.04518 0.0527039 0)
(1.04819 0.0531691 -3.24668e-29)
(1.00001 0.00235128 0)
(1.00039 0.00696159 0)
(1.00115 0.0113888 0)
(1.00222 0.015616 0)
(1.00363 0.0196708 0)
(1.00532 0.023503 0)
(1.00731 0.0271286 0)
(1.00953 0.0304824 0)
(1.01199 0.0335915 1.43795e-28)
(1.01461 0.0363838 -1.53085e-28)
(1.01741 0.0389138 0)
(1.02028 0.0410992 0)
(1.02327 0.0430358 0)
(1.02623 0.0446146 0)
(1.02926 0.0459939 0)
(1.03217 0.0470032 0)
(1.03515 0.0479047 0)
(1.03789 0.0483959 0)
(1.04076 0.0489392 0)
(1.04322 0.0489433 0)
(1.046 0.0493076 0)
(1.00001 0.00226495 0)
(1.0004 0.00669656 0)
(1.00116 0.0109338 0)
(1.00225 0.0149601 0)
(1.00365 0.0187987 0)
(1.00533 0.0224054 0)
(1.00728 0.0257944 0)
(1.00945 0.0289098 0)
(1.01184 0.0317767 0)
(1.01436 0.0343349 0)
(1.01704 0.0366344 0)
(1.01977 0.0386067 0)
(1.0226 0.0403387 0)
(1.02539 0.0417385 0)
(1.02824 0.0429476 0)
(1.03096 0.0438198 0)
(1.03374 0.0445876 0)
(1.03628 0.0449874 0)
(1.03894 0.0454284 0)
(1.0412 0.0453901 0)
(1.04377 0.0456693 0)
(1.00001 0.00217514 0)
(1.00041 0.00642198 0)
(1.00117 0.0104655 0)
(1.00225 0.0142897 0)
(1.00364 0.017914 0)
(1.00529 0.0212998 0)
(1.0072 0.0244602 0)
(1.00931 0.0273476 0)
(1.01161 0.0299858 0)
(1.01403 0.0323249 0)
(1.01659 0.034411 0)
(1.01918 0.0361878 0)
(1.02185 0.037734 0)
(1.02448 0.0389727 0)
(1.02715 0.0400305 0)
(1.02968 0.0407819 0)
(1.03226 0.0414332 0)
(1.03462 0.0417551 0)
(1.03708 0.0421089 -5.57285e-29)
(1.03917 0.0420376 4.1845e-30)
(1.04153 0.0422454 5.85555e-29)
(1.00001 0.00208251 0)
(1.00041 0.00613992 0)
(1.00117 0.00998742 0)
(1.00224 0.0136094 0)
(1.00361 0.0170223 0)
(1.00522 0.0201929 0)
(1.00708 0.0231331 0)
(1.00912 0.0258033 0)
(1.01133 0.0282261 0)
(1.01364 0.0303605 0)
(1.01607 0.0322498 0)
(1.01853 0.0338476 0)
(1.02104 0.0352257 0)
(1.0235 0.0363199 0)
(1.02599 0.0372433 0)
(1.02836 0.0378888 0)
(1.03075 0.0384391 0)
(1.03293 0.0386948 0)
(1.0352 0.0389749 0)
(1.03712 0.0388784 0)
(1.03929 0.039027 0)
(1.00001 0.00198773 0)
(1.0004 0.00585235 0)
(1.00115 0.00950266 0)
(1.00221 0.0129235 0)
(1.00355 0.016129 0)
(1.00512 0.0190904 0)
(1.00692 0.0218195 0)
(1.00888 0.0242834 0)
(1.011 0.0265039 0)
(1.0132 0.028448 0)
(1.0155 0.030156 0)
(1.01782 0.0315905 0)
(1.02017 0.0328167 0)
(1.02248 0.0337816 0)
(1.0248 0.0345861 0)
(1.027 0.035139 0)
(1.02921 0.035602 0)
(1.03123 0.035802 0)
(1.03331 0.0360201 0)
(1.03508 0.0359053 0)
(1.03707 0.0360053 0)
(1.00001 0.00189144 0)
(1.0004 0.00556121 0)
(1.00114 0.0090143 0)
(1.00217 0.0122362 0)
(1.00347 0.0152388 0)
(1.005 0.0179981 0)
(1.00673 0.0205254 0)
(1.0086 0.0227939 0)
(1.01062 0.024825 0)
(1.01271 0.0265925 0)
(1.01489 0.0281339 0)
(1.01706 0.0294196 0)
(1.01927 0.0305091 0)
(1.02142 0.0313585 0)
(1.02358 0.0320581 0)
(1.02562 0.0325304 0)
(1.02766 0.0329181 0)
(1.02952 0.0330717 0)
(1.03144 0.0332382 0)
(1.03307 0.0331108 0)
(1.03489 0.0331713 -3.546e-29)
(1.00001 0.00179428 0)
(1.00039 0.00526833 0)
(1.00111 0.00852525 0)
(1.00211 0.0115511 0)
(1.00338 0.0143564 0)
(1.00485 0.0169208 0)
(1.00651 0.0192558 0)
(1.0083 0.02134 0)
(1.01021 0.0231942 0)
(1.01219 0.024798 0)
(1.01424 0.0261869 0)
(1.01628 0.0273374 0)
(1.01834 0.0283039 0)
(1.02034 0.0290505 0)
(1.02234 0.0296578 0)
(1.02423 0.0300601 0)
(1.02612 0.0303835 0)
(1.02783 0.0304985 0)
(1.02959 0.0306224 0)
(1.03109 0.0304872 0)
(1.03275 0.0305162 0)
(1.00001 0.00169681 0)
(1.00038 0.00497541 0)
(1.00108 0.00803818 0)
(1.00205 0.0108719 0)
(1.00327 0.0134858 0)
(1.00468 0.0158631 0)
(1.00626 0.0180155 0)
(1.00797 0.0199261 0)
(1.00978 0.0216155 0)
(1.01164 0.0230682 0)
(1.01356 0.0243174 0)
(1.01547 0.0253455 0)
(1.01739 0.0262016 0)
(1.01925 0.0268568 0)
(1.02111 0.0273831 0)
(1.02285 0.0277249 0)
(1.02459 0.0279934 0)
(1.02617 0.0280769 0)
(1.02778 0.0281659 0)
(1.02915 0.028027 -1.33655e-29)
(1.03067 0.0280313 1.42096e-29)
(1.00001 0.00159958 0)
(1.00037 0.00468405 0)
(1.00104 0.00755557 0)
(1.00198 0.0102016 0)
(1.00315 0.0126306 0)
(1.0045 0.0148289 0)
(1.006 0.0168082 0)
(1.00762 0.018556 0)
(1.00933 0.020092 0)
(1.01108 0.0214054 0)
(1.01287 0.0225273 0)
(1.01466 0.0234444 0)
(1.01644 0.0242018 0)
(1.01817 0.024776 0)
(1.01988 0.0252315 0)
(1.02149 0.0255211 0)
(1.02309 0.0257431 0)
(1.02454 0.025801 0)
(1.02602 0.0258619 -2.49661e-29)
(1.02727 0.0257226 2.65486e-29)
(1.02866 0.0257078 0)
(1.00001 0.00150309 0)
(1.00036 0.00439569 0)
(1.00101 0.00707963 0)
(1.0019 0.00954326 0)
(1.00302 0.0117942 0)
(1.0043 0.0138216 0)
(1.00573 0.0156374 0)
(1.00726 0.0172326 0)
(1.00886 0.0186264 0)
(1.0105 0.0198117 0)
(1.01218 0.0208175 0)
(1.01384 0.0216345 0)
(1.01549 0.0223035 0)
(1.01709 0.0228062 0)
(1.01867 0.0231997 0)
(1.02015 0.0234446 0)
(1.02162 0.0236273 0)
(1.02295 0.0236648 0)
(1.0243 0.0237032 0)
(1.02545 0.0235662 0)
(1.02672 0.0235372 -2.07411e-29)
(1.00001 0.00140779 0)
(1.00034 0.00411161 0)
(1.00096 0.00661233 0)
(1.00182 0.00889918 0)
(1.00288 0.0109792 0)
(1.0041 0.0128441 0)
(1.00545 0.0145058 0)
(1.00689 0.0159583 0)
(1.00839 0.0172205 0)
(1.00993 0.018288 0)
(1.01149 0.0191883 0)
(1.01303 0.0199149 0)
(1.01456 0.0205052 0)
(1.01603 0.0209446 0)
(1.01749 0.0212842 0)
(1.01885 0.0214909 0)
(1.0202 0.0216406 0)
(1.02142 0.0216621 0)
(1.02265 0.0216829 0)
(1.02371 0.0215503 0)
(1.02486 0.0215111 0)
(1.00001 0.00131407 0)
(1.00033 0.00383295 0)
(1.00092 0.0061554 0)
(1.00174 0.00827155 0)
(1.00274 0.0101879 0)
(1.0039 0.0118986 0)
(1.00517 0.0134154 0)
(1.00651 0.0147349 0)
(1.00792 0.0158754 0)
(1.00935 0.016835 0)
(1.0108 0.0176393 0)
(1.01223 0.0182846 0)
(1.01364 0.0188047 0)
(1.015 0.0191884 0)
(1.01634 0.0194811 0)
(1.01759 0.0196553 0)
(1.01883 0.0197774 0)
(1.01994 0.0197866 0)
(1.02107 0.0197938 0)
(1.02203 0.0196672 0)
(1.02308 0.0196213 0)
(1.00001 0.00122228 0)
(1.00031 0.00356068 0)
(1.00088 0.00571027 0)
(1.00165 0.00766211 0)
(1.0026 0.00942238 0)
(1.00369 0.010987 0)
(1.00488 0.0123678 0)
(1.00614 0.0135634 0)
(1.00745 0.0145916 0)
(1.00878 0.0154524 0)
(1.01013 0.0161697 0)
(1.01145 0.0167418 0)
(1.01275 0.0171994 0)
(1.01401 0.0175341 0)
(1.01523 0.0177862 0)
(1.01638 0.0179328 0)
(1.01751 0.018032 0)
(1.01853 0.018032 0)
(1.01956 0.0180291 3.28259e-29)
(1.02044 0.0179097 -1.19296e-30)
(1.02139 0.0178597 -3.58426e-29)
(1.00001 0.0011327 0)
(1.0003 0.00329561 0)
(1.00083 0.00527814 0)
(1.00156 0.00707227 0)
(1.00246 0.0086839 0)
(1.00348 0.0101106 0)
(1.0046 0.0113639 0)
(1.00577 0.0124445 0)
(1.007 0.0133691 0)
(1.00823 0.0141396 0)
(1.00947 0.014778 0)
(1.01069 0.0152844 0)
(1.0119 0.0156864 0)
(1.01305 0.015978 0)
(1.01417 0.0161949 0)
(1.01523 0.0163181 0)
(1.01626 0.0163985 0)
(1.01719 0.0163918 0)
(1.01813 0.0163816 0)
(1.01893 0.0162702 0)
(1.01979 0.0162184 0)
(1 0.00104557 0)
(1.00028 0.00303838 0)
(1.00079 0.00485992 0)
(1.00147 0.00650307 0)
(1.00232 0.0079735 0)
(1.00327 0.00927012 0)
(1.00432 0.0104043 0)
(1.00541 0.011378 0)
(1.00655 0.0122073 0)
(1.00769 0.0128953 0)
(1.00884 0.0134622 0)
(1.00997 0.0139096 -2.02944e-29)
(1.01107 0.0142623 2.16009e-29)
(1.01213 0.014516 -2.15245e-29)
(1.01316 0.0147024 2.29059e-29)
(1.01413 0.014806 0)
(1.01507 0.0148708 0)
(1.01592 0.0148596 0)
(1.01677 0.0148443 0)
(1.01751 0.0147415 0)
(1.01829 0.0146896 4.55254e-29)
(1 0.000961073 0)
(1.00027 0.00278947 0)
(1.00074 0.00445626 0)
(1.00139 0.00595521 0)
(1.00218 0.00729176 0)
(1.00307 0.00846596 0)
(1.00405 0.00948888 0)
(1.00507 0.0103635 0)
(1.00612 0.0111052 0)
(1.00718 0.0117177 0)
(1.00824 0.0122201 0)
(1.00927 0.0126144 0)
(1.01029 0.0129233 0)
(1.01126 0.0131438 0)
(1.0122 0.0133039 0)
(1.01309 0.0133908 0)
(1.01394 0.0134431 0)
(1.01473 0.0134289 0)
(1.0155 0.0134105 0)
(1.01617 0.0133165 0)