/*--------------------------------*- C++ -*----------------------------------*\
  =========                 |
  \\      /  F ield         | OpenFOAM: The Open Source CFD Toolbox
   \\    /   O peration     | Website:  https://openfoam.org
    \\  /    A nd           | Version:  7
     \\/     M anipulation  |
\*---------------------------------------------------------------------------*/
FoamFile
{
    version     2.0;
    format      ascii;
    class       volVectorField;
    location    "80";
    object      U;
}
// * * * * * * * * * * * * * * * * * * * * * * * * * * * * * * * * * * * * * //

dimensions      [0 1 -1 0 0 0 0];

internalField   nonuniform List<vector> 
4575
(
(0.804573 0.522014 -5.43437e-23)
(0.793509 0.517972 -1.61552e-23)
(0.753319 0.532885 3.17512e-23)
(0.696543 0.540217 6.52633e-24)
(0.655206 0.480231 -3.46187e-23)
(0.651496 0.323139 1.25683e-22)
(0.684013 0.102053 7.23335e-23)
(0.737618 -0.119476 5.22939e-24)
(0.790686 -0.295113 3.18362e-23)
(0.830321 -0.406908 -1.73475e-23)
(0.858574 -0.454902 6.99132e-23)
(0.873373 -0.463527 9.15403e-24)
(0.863739 -0.474748 1.46541e-23)
(0.825569 -0.499758 -7.49932e-23)
(0.774183 -0.497321 -4.57047e-23)
(0.736946 -0.411304 -4.47777e-24)
(0.727055 -0.236186 -3.80256e-23)
(0.741415 -0.0185665 -6.15868e-23)
(0.772409 0.175966 6.10291e-23)
(0.813358 0.307896 -4.78221e-23)
(0.848882 0.378319 1.38293e-23)
(0.86171 0.42211 1.39076e-23)
(0.842262 0.460432 1.32769e-23)
(0.798412 0.468651 -1.74215e-23)
(0.801297 0.522066 -8.48058e-23)
(0.790963 0.520398 -1.98868e-22)
(0.751038 0.537411 9.2858e-23)
(0.695241 0.544739 -1.36978e-22)
(0.655823 0.482366 6.10193e-23)
(0.653995 0.32206 1.93763e-22)
(0.687945 0.0985271 -1.28211e-22)
(0.742533 -0.123858 9.5654e-23)
(0.795867 -0.298876 -4.58999e-23)
(0.834676 -0.409617 6.72092e-23)
(0.861503 -0.456599 9.41479e-23)
(0.87517 -0.463707 -4.69246e-23)
(0.86495 -0.472855 8.22607e-23)
(0.826452 -0.4963 -8.23571e-23)
(0.774275 -0.493979 1.04339e-22)
(0.735691 -0.409614 9.25108e-23)
(0.724765 -0.236457 6.79146e-23)
(0.738655 -0.0203215 5.06612e-23)
(0.769872 0.173314 -1.79305e-22)
(0.81146 0.305167 -1.25139e-23)
(0.847641 0.376621 -1.7028e-22)
(0.860915 0.422279 2.6599e-23)
(0.841727 0.462445 -5.60354e-23)
(0.798187 0.471498 -1.41935e-22)
(0.798093 0.521994 8.21565e-23)
(0.788489 0.522762 9.38847e-23)
(0.748882 0.541859 2.27105e-23)
(0.694133 0.549166 1.74945e-22)
(0.656633 0.484478 -4.21873e-22)
(0.656648 0.321079 8.93472e-23)
(0.691998 0.0951683 -2.14774e-22)
(0.747535 -0.128064 -1.40902e-22)
(0.801126 -0.302458 -3.5522e-22)
(0.839116 -0.412151 2.34419e-22)
(0.864504 -0.458166 -2.33253e-22)
(0.877038 -0.463815 4.26282e-23)
(0.86624 -0.470916 8.29064e-23)
(0.827435 -0.492794 -1.13324e-22)
(0.77451 -0.490597 2.30865e-22)
(0.734568 -0.407943 -1.58281e-22)
(0.722571 -0.23683 3.4975e-22)
(0.735982 -0.0222258 2.25424e-22)
(0.767425 0.170513 1.57454e-22)
(0.809637 0.302321 1.55016e-23)
(0.846472 0.374846 2.52522e-22)
(0.860196 0.422396 -2.67939e-22)
(0.841278 0.464423 5.08659e-23)
(0.798077 0.47433 1.99464e-22)
(0.794959 0.521793 -2.52988e-22)
(0.786089 0.525053 2.15715e-22)
(0.74685 0.546217 -3.18865e-22)
(0.693217 0.553495 -5.04503e-22)
(0.657632 0.486574 1.03136e-21)
(0.659455 0.320207 -8.32792e-22)
(0.696176 0.0919839 3.68523e-22)
(0.752624 -0.132089 4.64832e-22)
(0.806459 -0.305861 -4.80834e-22)
(0.843639 -0.41451 6.44558e-22)
(0.867577 -0.459606 -1.31527e-22)
(0.878977 -0.463856 2.82006e-22)
(0.867609 -0.468937 -1.2909e-22)
(0.828519 -0.489246 4.57386e-22)
(0.774888 -0.487175 5.13969e-23)
(0.733584 -0.406287 -1.73405e-22)
(0.72048 -0.2373 -4.37215e-22)
(0.733402 -0.0242767 -5.19517e-22)
(0.765068 0.167563 -8.91181e-23)
(0.80789 0.299361 4.14528e-23)
(0.845374 0.372993 -1.04252e-22)
(0.859554 0.422457 3.23141e-22)
(0.840915 0.466362 -3.02371e-23)
(0.798083 0.477145 7.26483e-23)
(0.791893 0.521456 2.30775e-22)
(0.783762 0.527262 -9.93989e-23)
(0.744945 0.550477 2.75098e-23)
(0.692488 0.557725 5.2184e-23)
(0.658813 0.488663 -5.15961e-22)
(0.662415 0.319452 1.11039e-21)
(0.700481 0.0889815 4.15558e-22)
(0.757799 -0.13593 5.30421e-23)
(0.811865 -0.309084 3.56489e-22)
(0.848245 -0.416697 -5.64438e-22)
(0.870724 -0.46092 -4.22948e-24)
(0.880985 -0.463832 -3.11812e-22)
(0.869059 -0.466922 -2.64809e-22)
(0.829703 -0.485659 -4.5902e-22)
(0.77541 -0.483715 -4.62266e-22)
(0.732745 -0.404643 7.00466e-22)
(0.7185 -0.237861 4.07892e-22)
(0.730918 -0.0264711 9.59928e-23)
(0.762802 0.164468 1.05769e-22)
(0.806216 0.296286 -1.38496e-22)
(0.844348 0.371059 3.83002e-22)
(0.858986 0.422461 -2.53903e-22)
(0.840637 0.468259 1.96106e-22)
(0.798204 0.47994 2.48153e-22)
(0.788895 0.52098 -2.48792e-22)
(0.781508 0.52938 -4.46169e-22)
(0.743168 0.554629 -3.78527e-24)
(0.691945 0.561856 3.55579e-22)
(0.66017 0.490751 -1.49512e-22)
(0.665526 0.318823 -2.64954e-22)
(0.704912 0.0861684 -1.1644e-21)
(0.76306 -0.139583 -6.00786e-24)
(0.817341 -0.31213 8.87265e-23)
(0.852933 -0.418713 -7.89289e-22)
(0.873945 -0.462109 3.28931e-22)
(0.883063 -0.463747 -6.7016e-23)
(0.870589 -0.464877 5.30195e-23)
(0.830985 -0.482039 5.55144e-22)
(0.776078 -0.480217 7.76374e-25)
(0.732058 -0.403006 -2.58117e-22)
(0.716635 -0.23851 -1.54133e-22)
(0.728532 -0.0288057 5.48615e-22)
(0.760626 0.161229 5.63928e-24)
(0.804617 0.293097 -3.02612e-23)
(0.843392 0.369044 1.43898e-22)
(0.858492 0.422403 -5.72262e-22)
(0.840444 0.470111 -1.57197e-22)
(0.79844 0.482713 -5.85497e-22)
(0.785961 0.520358 1.10751e-22)
(0.779326 0.531395 9.01524e-23)
(0.741517 0.558665 1.48078e-22)
(0.691581 0.565886 -7.64687e-22)
(0.661697 0.492844 1.70795e-21)
(0.668786 0.318328 8.86334e-22)
(0.709471 0.0835516 4.82485e-23)
(0.768408 -0.143045 -9.46878e-22)
(0.822885 -0.314999 4.2689e-22)
(0.857703 -0.42056 6.62445e-22)
(0.87724 -0.463174 4.91117e-22)
(0.885208 -0.463604 -7.32727e-23)
(0.8722 -0.462807 -3.03588e-22)
(0.832365 -0.478391 -1.88334e-22)
(0.776891 -0.476684 1.52455e-23)
(0.731528 -0.401371 -5.06796e-22)
(0.714893 -0.23924 4.91134e-23)
(0.726248 -0.0312764 -2.36321e-22)
(0.758542 0.15785 -4.30443e-22)
(0.803092 0.289795 1.65177e-22)
(0.842506 0.366946 -3.2647e-22)
(0.85807 0.422281 5.43678e-22)
(0.840336 0.471913 3.56057e-23)
(0.798791 0.485461 5.44043e-22)
(0.783091 0.519585 -2.47453e-22)
(0.777215 0.533299 -2.15509e-22)
(0.739994 0.562574 7.0375e-22)
(0.691391 0.569815 4.76614e-22)
(0.663387 0.494949 -1.41417e-21)
(0.672193 0.317973 3.03539e-22)
(0.714157 0.0811379 -1.92084e-22)
(0.773843 -0.146311 2.06313e-21)
(0.828493 -0.317691 -3.00971e-21)
(0.862552 -0.42224 5.46654e-22)
(0.880609 -0.464118 -7.47462e-22)
(0.887422 -0.463407 1.04083e-21)
(0.873891 -0.460717 5.35493e-23)
(0.833841 -0.474719 3.99852e-22)
(0.777847 -0.473115 1.63937e-22)
(0.731161 -0.399735 -4.39594e-23)
(0.71328 -0.240045 1.53654e-22)
(0.72407 -0.0338792 1.02217e-22)
(0.756548 0.154331 4.74977e-22)
(0.801639 0.28638 -4.49522e-22)
(0.84169 0.364762 -3.3946e-22)
(0.857719 0.422092 8.68423e-23)
(0.840312 0.473662 -8.02882e-22)
(0.799256 0.488182 1.82393e-22)
(0.780281 0.518654 5.6152e-22)
(0.775174 0.53508 2.65971e-22)
(0.738596 0.56635 -1.20993e-21)
(0.69137 0.573642 1.2997e-22)
(0.665234 0.497071 1.13624e-22)
(0.675744 0.317766 -7.26448e-22)
(0.71897 0.0789339 3.68116e-22)
(0.779362 -0.149377 -3.83641e-22)
(0.834163 -0.320208 5.12484e-22)
(0.867479 -0.423755 -1.5648e-21)
(0.884055 -0.46494 8.21581e-22)
(0.889701 -0.463159 -4.98795e-23)
(0.875662 -0.458611 -7.47692e-22)
(0.835413 -0.471028 1.75781e-22)
(0.778946 -0.469514 1.37498e-21)
(0.730962 -0.398093 -4.74952e-23)
(0.711802 -0.240919 -6.73448e-22)
(0.722 -0.0366094 9.3592e-22)
(0.754646 0.150677 -3.31285e-22)
(0.800261 0.282853 -2.32339e-22)
(0.840943 0.362491 4.67234e-22)
(0.857437 0.421833 1.01633e-22)
(0.840372 0.475356 1.12148e-21)
(0.799833 0.490874 -2.62486e-22)
(0.77753 0.517559 -9.28043e-22)
(0.773202 0.536728 1.54834e-22)
(0.737321 0.569983 1.32888e-21)
(0.69151 0.577366 -4.64215e-22)
(0.667232 0.499213 5.6579e-22)
(0.679434 0.317712 3.08513e-22)
(0.723907 0.0769459 -5.07826e-23)
(0.784966 -0.15224 -8.16749e-22)
(0.839892 -0.32255 -5.30133e-22)
(0.872483 -0.425106 1.3064e-21)
(0.887576 -0.465642 2.5521e-22)
(0.892045 -0.462863 5.17923e-22)
(0.877513 -0.456495 -7.85095e-22)
(0.83708 -0.467323 2.86106e-22)
(0.780185 -0.465882 -6.21354e-22)
(0.730935 -0.396443 4.13736e-22)
(0.710466 -0.241857 -1.96364e-22)
(0.720041 -0.039462 1.15956e-21)
(0.752835 0.146891 -1.49179e-21)
(0.798954 0.279215 -5.55025e-22)
(0.840262 0.360133 8.76126e-23)
(0.857223 0.421502 -1.0896e-22)
(0.840514 0.476989 -3.45626e-22)
(0.800522 0.493534 -2.82122e-22)
(0.771297 0.538235 6.03892e-22)
(0.736168 0.573467 2.42178e-22)
(0.691806 0.580988 6.25287e-22)
(0.669374 0.501382 -1.34384e-21)
(0.683259 0.317817 1.26747e-21)
(0.728966 0.0751801 -1.5347e-21)
(0.790653 -0.154894 1.69931e-22)
(0.845678 -0.324719 5.44237e-22)
(0.877559 -0.426298 -3.54204e-22)
(0.891173 -0.466224 -2.22953e-22)
(0.894453 -0.462521 -7.87373e-22)
(0.879441 -0.454373 4.88936e-22)
(0.838841 -0.463609 -8.57737e-23)
(0.781561 -0.462223 -2.18008e-22)
(0.731084 -0.394782 -7.62614e-22)
(0.709278 -0.242851 -1.1543e-22)
(0.718196 -0.0424326 -5.33136e-23)
(0.751115 0.142974 1.06263e-21)
(0.79772 0.275466 1.01691e-21)
(0.839647 0.357685 5.77879e-23)
(0.857076 0.421094 -3.99415e-23)
(0.840739 0.478559 -4.63377e-22)
(0.80132 0.49616 1.93012e-22)
(0.769458 0.539589 -4.46815e-22)
(0.735134 0.576792 4.10685e-22)
(0.692249 0.584505 -1.22006e-21)
(0.671652 0.503579 -1.96817e-22)
(0.687213 0.318084 1.48185e-21)
(0.734142 0.0736423 2.00719e-22)
(0.796422 -0.157336 4.71941e-22)
(0.851516 -0.326713 1.47066e-22)
(0.882707 -0.427331 1.56718e-21)
(0.894846 -0.466689 -2.65167e-22)
(0.896924 -0.462135 -4.19449e-22)
(0.881447 -0.452251 -1.78366e-22)
(0.840695 -0.459891 8.23332e-23)
(0.783072 -0.458537 -5.45129e-22)
(0.731413 -0.393105 -2.5564e-22)
(0.708243 -0.243894 -8.47262e-23)
(0.716468 -0.0455157 -1.58376e-21)
(0.749487 0.138931 1.48891e-21)
(0.796558 0.271608 -1.62238e-21)
(0.839097 0.355146 -4.48408e-22)
(0.856992 0.420607 3.85032e-22)
(0.841044 0.480063 -4.16621e-22)
(0.802225 0.49875 2.81891e-22)
(0.767682 0.540781 2.28406e-22)
(0.734214 0.579953 9.53487e-22)
(0.692832 0.587916 3.873e-22)
(0.674059 0.505808 -1.15155e-21)
(0.691288 0.318519 9.78823e-22)
(0.739431 0.0723375 -2.36344e-21)
(0.802272 -0.159562 1.57261e-21)
(0.857404 -0.328535 -2.16223e-21)
(0.887923 -0.428209 4.27679e-22)
(0.898596 -0.467036 1.68682e-21)
(0.899456 -0.461709 -1.53119e-21)
(0.883527 -0.450133 7.22212e-23)
(0.842643 -0.456172 -6.08123e-22)
(0.784714 -0.454828 1.47414e-21)
(0.731923 -0.391411 -2.76497e-23)
(0.707369 -0.244981 -6.57543e-22)
(0.71486 -0.0487047 6.28418e-22)
(0.74795 0.134766 5.53138e-23)
(0.795467 0.267641 -6.07736e-23)
(0.83861 0.352515 5.64804e-22)
(0.856971 0.420039 -6.25433e-22)
(0.841429 0.481496 9.87617e-22)
(0.803236 0.501301 -1.00666e-22)
(0.765967 0.541802 2.21422e-21)
(0.733406 0.582941 -4.82831e-22)
(0.693548 0.591222 3.61734e-22)
(0.676587 0.508071 9.11421e-22)
(0.695476 0.319126 4.4455e-22)
(0.744826 0.0712701 -2.40126e-21)
(0.808199 -0.161567 -7.58022e-22)
(0.863339 -0.330183 3.9009e-22)
(0.893203 -0.428934 -1.03395e-21)
(0.902423 -0.467267 -2.03194e-21)
(0.902048 -0.461243 1.21557e-21)
(0.885679 -0.448023 5.04814e-22)
(0.844682 -0.452459 1.38442e-21)
(0.786483 -0.451099 -5.57852e-22)
(0.732615 -0.389697 1.52236e-22)
(0.70666 -0.246104 2.80713e-22)
(0.713376 -0.0519936 -5.60274e-22)
(0.746506 0.130481 3.09195e-23)
(0.794447 0.263567 2.9914e-22)
(0.838183 0.34979 -5.13743e-22)
(0.857011 0.419386 5.95389e-22)
(0.841892 0.482855 -4.89531e-22)
(0.804349 0.503811 1.74294e-22)
(0.76431 0.542641 -2.75639e-21)
(0.732703 0.58575 -2.83273e-21)
(0.694387 0.59442 1.89084e-21)
(0.679228 0.510371 1.19531e-21)
(0.699768 0.319906 -3.46024e-21)
(0.750322 0.0704444 4.76064e-21)
(0.814202 -0.163347 3.35909e-23)
(0.869318 -0.331659 1.18794e-21)
(0.898545 -0.42951 -5.98424e-22)
(0.906326 -0.467383 3.69464e-22)
(0.9047 -0.46074 2.63382e-22)
(0.887902 -0.445927 2.7355e-22)
(0.846813 -0.448755 -7.15436e-22)
(0.788375 -0.447353 -6.01274e-22)
(0.733489 -0.387962 1.05282e-21)
(0.706122 -0.247257 7.9834e-22)
(0.712019 -0.0553762 1.94333e-22)
(0.745154 0.12608 -1.59851e-22)
(0.793497 0.259386 1.44117e-21)
(0.837815 0.346971 4.26608e-22)
(0.857109 0.418646 -2.59724e-22)
(0.842432 0.484136 5.71525e-22)
(0.805562 0.506279 -4.59826e-22)
(0.762708 0.543291 4.30986e-22)
(0.732101 0.588372 1.45934e-21)
(0.695343 0.597508 1.78302e-21)
(0.681972 0.512709 -8.13724e-23)
(0.704155 0.320862 1.91278e-21)
(0.755911 0.0698651 -2.61373e-21)
(0.820278 -0.164899 -2.35471e-21)
(0.875339 -0.332963 2.59283e-21)
(0.903944 -0.429938 -3.91603e-22)
(0.910306 -0.467384 1.15552e-21)
(0.90741 -0.460201 -1.95949e-21)
(0.890192 -0.443849 -3.26544e-22)
(0.849034 -0.445065 -9.86785e-23)
(0.790386 -0.443593 5.35775e-22)
(0.734544 -0.386203 -3.99603e-22)
(0.705761 -0.248433 -8.78845e-22)
(0.710791 -0.0588457 7.87703e-22)
(0.743895 0.121568 -4.63659e-22)
(0.792616 0.2551 -5.22666e-22)
(0.837505 0.344057 -6.24803e-22)
(0.857264 0.417815 7.26348e-23)
(0.843046 0.485337 -5.4759e-22)
(0.806873 0.5087 7.14059e-22)
(0.761158 0.543741 -9.7436e-22)
(0.731595 0.590803 4.40751e-22)
(0.696407 0.600486 -4.92383e-22)
(0.684811 0.515085 -3.6342e-22)
(0.708625 0.321998 5.38505e-22)
(0.761584 0.0695354 -3.70911e-21)
(0.826424 -0.166219 4.00068e-22)
(0.881396 -0.334093 1.4963e-21)
(0.909397 -0.430223 -1.31133e-21)
(0.91436 -0.467272 2.42303e-21)
(0.910177 -0.459627 -1.7765e-21)
(0.892546 -0.441792 9.87696e-22)
(0.851345 -0.441393 9.62674e-22)
(0.792511 -0.439821 -1.40238e-22)
(0.735778 -0.38442 6.20231e-22)
(0.705582 -0.249625 -1.29629e-25)
(0.709698 -0.0623951 1.45784e-22)
(0.742731 0.116949 -6.78727e-22)
(0.791804 0.25071 -2.38016e-22)
(0.837249 0.341046 -5.5082e-22)
(0.857474 0.416892 -5.44382e-22)
(0.843734 0.486454 3.0404e-22)
(0.808277 0.511075 1.19406e-21)
(0.759657 0.543984 1.212e-22)
(0.731178 0.593034 -2.05844e-21)
(0.69757 0.603351 1.15281e-21)
(0.687735 0.5175 8.20727e-23)
(0.713168 0.323313 3.85314e-21)
(0.767332 0.0694576 1.47175e-21)
(0.832635 -0.167303 -3.17041e-21)
(0.887489 -0.335051 -1.0463e-21)
(0.914898 -0.430366 -1.22056e-21)
(0.918489 -0.467048 -6.78751e-22)
(0.913002 -0.459019 2.95921e-22)
(0.89496 -0.439762 -6.51165e-22)
(0.853743 -0.437745 3.93837e-22)
(0.794749 -0.436041 -1.09191e-21)
(0.737188 -0.382611 4.84472e-23)
(0.705589 -0.250828 -5.8551e-23)
(0.708741 -0.0660173 -1.09175e-21)
(0.741661 0.112228 8.53985e-22)
(0.79106 0.246218 5.58741e-22)
(0.837046 0.337938 -1.54691e-22)
(0.857735 0.415873 1.01128e-22)
(0.844491 0.487483 7.90481e-22)
(0.809773 0.513399 -1.74517e-21)
(0.758201 0.544011 -1.4371e-21)
(0.730844 0.595061 -4.28589e-22)
(0.698824 0.6061 -2.17403e-21)
(0.690733 0.519955 3.30175e-21)
(0.717769 0.324811 -2.28826e-22)
(0.773146 0.0696338 -2.08528e-21)
(0.838909 -0.168148 2.78432e-21)
(0.893614 -0.335835 -1.46416e-21)
(0.920445 -0.430372 1.26877e-21)
(0.922692 -0.466712 2.90753e-21)
(0.915882 -0.458377 -1.12667e-21)
(0.897432 -0.437762 1.21839e-21)
(0.856227 -0.434125 3.51519e-22)
(0.797094 -0.432256 -3.00346e-22)
(0.738767 -0.380777 9.85995e-22)
(0.705785 -0.252035 1.45094e-22)
(0.707926 -0.0697048 2.70795e-22)
(0.740686 0.107409 -8.43057e-23)
(0.790383 0.241626 -4.11937e-22)
(0.836894 0.334732 -2.29236e-22)
(0.858047 0.414755 4.75492e-22)
(0.845318 0.488422 5.71362e-24)
(0.811356 0.515671 2.26029e-22)
(0.756784 0.543814 4.3e-22)
(0.730587 0.596876 2.70701e-21)
(0.700161 0.608732 -3.95712e-21)
(0.693797 0.52245 2.2637e-21)
(0.722419 0.32649 -3.08308e-21)
(0.779016 0.070066 9.23061e-22)
(0.845241 -0.168751 -1.85554e-21)
(0.899768 -0.336445 5.02344e-21)
(0.926031 -0.430242 -2.35125e-21)
(0.926967 -0.466267 -3.30617e-21)
(0.918819 -0.457701 -1.78774e-22)
(0.899957 -0.435795 8.51649e-23)
(0.858796 -0.430536 1.02307e-21)
(0.799544 -0.428468 3.64292e-22)
(0.740512 -0.378917 -2.12394e-22)
(0.706174 -0.25324 -1.24835e-22)
(0.707256 -0.07345 -9.19117e-22)
(0.739809 0.102496 1.61652e-22)
(0.789773 0.236936 6.19896e-22)
(0.83679 0.331427 3.31963e-22)
(0.858407 0.413538 1.74948e-22)
(0.84621 0.489267 4.54074e-22)
(0.813024 0.517889 1.96148e-23)
(0.755404 0.543385 -6.69385e-22)
(0.730399 0.598474 9.4148e-22)
(0.701572 0.611243 -2.68737e-21)
(0.696915 0.524983 1.28961e-21)
(0.727102 0.328352 2.47661e-21)
(0.784931 0.0707551 3.72884e-21)
(0.851627 -0.16911 -1.01717e-22)
(0.905949 -0.33688 -4.20158e-21)
(0.931654 -0.42998 2.31628e-21)
(0.931313 -0.465713 -5.72604e-22)
(0.92181 -0.456992 -6.73598e-22)
(0.902533 -0.433866 6.10452e-22)
(0.861446 -0.426985 -1.57511e-21)
(0.802095 -0.424681 -1.28877e-21)
(0.742414 -0.377032 9.54181e-22)
(0.706759 -0.254439 5.17604e-22)
(0.706737 -0.0772454 -2.6677e-22)
(0.73903 0.0974962 -4.64059e-23)
(0.789229 0.23215 -1.04327e-21)
(0.836731 0.328024 5.67254e-22)
(0.858813 0.412217 -5.37455e-22)
(0.847167 0.490015 3.32478e-22)
(0.814772 0.52005 -1.03791e-21)
(0.754054 0.542717 6.10597e-22)
(0.730274 0.599849 6.23204e-22)
(0.703048 0.613631 3.52267e-21)
(0.700076 0.527554 5.7772e-22)
(0.731807 0.330396 5.10655e-22)
(0.790882 0.0717017 -4.10035e-21)
(0.858062 -0.169221 3.34125e-21)
(0.912153 -0.33714 6.03122e-22)
(0.937306 -0.42959 1.61993e-21)
(0.935727 -0.465052 2.36996e-22)
(0.924857 -0.45625 1.90817e-22)
(0.905156 -0.431977 -8.92889e-22)
(0.864174 -0.423475 6.39836e-22)
(0.804747 -0.420898 2.82637e-22)
(0.744466 -0.375121 -1.13425e-21)
(0.70754 -0.255625 -1.55936e-22)
(0.706371 -0.0810833 1.00318e-21)
(0.738351 0.092414 -2.18472e-22)
(0.788749 0.22727 2.71706e-22)
(0.836717 0.324522 1.32982e-22)
(0.859261 0.410791 1.56799e-21)
(0.848184 0.490663 -1.57344e-21)
(0.816597 0.522152 -2.0651e-22)
(0.752731 0.541804 -4.40005e-22)
(0.730204 0.600996 -3.87387e-22)
(0.704583 0.615892 3.03954e-21)
(0.703271 0.530162 -5.62799e-21)
(0.736519 0.332621 -1.89629e-21)
(0.796859 0.072906 -1.24929e-21)
(0.864542 -0.169083 -2.86695e-21)
(0.918377 -0.337223 -2.75328e-21)
(0.942985 -0.429073 1.76079e-21)
(0.940208 -0.464286 -2.7478e-21)
(0.927959 -0.455473 1.49083e-21)
(0.907822 -0.430132 6.96292e-23)
(0.866976 -0.420011 2.73219e-22)
(0.807496 -0.417121 4.84786e-22)
(0.74666 -0.373185 7.79437e-22)
(0.708516 -0.256796 -1.22461e-21)
(0.706165 -0.0849559 -2.20676e-22)
(0.737773 0.0872554 6.91838e-23)
(0.788333 0.222299 -3.11419e-22)
(0.836744 0.320922 -5.36854e-22)
(0.85975 0.409257 -2.75374e-22)
(0.84926 0.491208 1.61072e-22)
(0.818496 0.524194 1.25125e-21)
(0.751428 0.540638 1.77427e-22)
(0.730183 0.601909 1.19293e-21)
(0.706166 0.618023 -7.11165e-22)
(0.706488 0.532804 3.15298e-21)
(0.741226 0.335027 2.81655e-21)
(0.80285 0.0743664 1.40476e-21)
(0.871063 -0.168694 2.97989e-21)
(0.92462 -0.337127 -2.67832e-21)
(0.948685 -0.428432 -4.47071e-22)
(0.944753 -0.463416 -2.14242e-21)
(0.931116 -0.454661 7.53181e-22)
(0.910528 -0.428332 -1.17003e-21)
(0.86985 -0.416597 -5.59957e-23)
(0.81034 -0.413354 8.72489e-22)
(0.748988 -0.371225 -1.18225e-21)
(0.709686 -0.257947 2.80365e-23)
(0.706123 -0.0888557 9.09023e-22)
(0.7373 0.0820262 -7.95696e-22)
(0.787981 0.21724 6.42211e-22)
(0.836809 0.317222 -1.41731e-22)
(0.860277 0.407614 1.01385e-21)
(0.850391 0.491647 -2.00976e-21)
(0.820464 0.526172 1.65579e-21)
(0.750139 0.539213 2.90378e-21)
(0.730202 0.602581 -1.10034e-21)
(0.707792 0.620019 -3.24806e-21)
(0.709717 0.53548 -4.82918e-22)
(0.745916 0.337611 -2.47534e-22)
(0.808848 0.0760817 -3.26054e-21)
(0.877619 -0.168052 -7.99586e-22)
(0.930877 -0.336852 -8.87101e-23)
(0.9544 -0.427671 2.64825e-21)
(0.949359 -0.462444 3.47651e-22)
(0.934327 -0.453813 8.69401e-22)
(0.913271 -0.426581 -1.70875e-21)
(0.87279 -0.413239 7.95152e-22)
(0.813279 -0.409598 -6.90522e-22)
(0.751441 -0.369241 1.1846e-21)
(0.711046 -0.259074 -3.1342e-22)
(0.706249 -0.0927752 7.54631e-23)
(0.736933 0.0767328 -2.35591e-22)
(0.787691 0.212096 2.2059e-22)
(0.836911 0.313423 -3.91625e-22)
(0.86084 0.405859 -1.18101e-21)
(0.851574 0.491977 2.38972e-21)
(0.822499 0.528085 1.71406e-21)
(0.748859 0.537525 2.98434e-23)
(0.730255 0.603009 1.30702e-21)
(0.70945 0.621878 -1.43056e-21)
(0.712948 0.538186 -7.95444e-22)
(0.750575 0.340372 2.23526e-21)
(0.814844 0.0780507 2.07738e-21)
(0.884207 -0.167157 -7.69112e-22)
(0.937147 -0.336396 -1.80987e-21)
(0.960127 -0.426792 -8.80244e-22)
(0.954023 -0.461373 -2.28905e-21)
(0.937592 -0.452929 8.13799e-22)
(0.916048 -0.424879 1.39331e-21)
(0.875791 -0.409941 -9.70507e-22)
(0.81631 -0.405856 8.87206e-23)
(0.754011 -0.367234 -3.29836e-22)
(0.71259 -0.260175 -4.5572e-22)
(0.706549 -0.0967073 1.3002e-21)
(0.736675 0.0713816 8.45398e-22)
(0.787464 0.206869 -7.8349e-22)
(0.837047 0.309527 8.6823e-22)
(0.861435 0.403992 -1.22314e-21)
(0.852808 0.492197 -1.64982e-21)
(0.824596 0.52993 -1.49577e-21)
(0.747582 0.535566 -5.4523e-22)
(0.730334 0.603186 2.45015e-21)
(0.711135 0.623595 2.34486e-22)
(0.716169 0.540921 5.16638e-22)
(0.755191 0.343307 -2.96912e-21)
(0.82083 0.0802711 5.25958e-21)
(0.890822 -0.166007 -5.77408e-22)
(0.943427 -0.335757 -1.01216e-21)
(0.965859 -0.425796 7.67505e-22)
(0.958742 -0.460204 1.77663e-22)
(0.940912 -0.452006 4.10686e-22)
(0.918856 -0.423228 -4.12772e-22)
(0.878849 -0.406707 1.07392e-21)
(0.819431 -0.402132 -1.93151e-22)
(0.75669 -0.365205 1.17831e-24)
(0.714311 -0.261248 -4.5967e-23)
(0.707027 -0.100645 -9.45136e-22)
(0.736531 0.0659794 3.324e-22)
(0.787299 0.201565 -5.94357e-22)
(0.837216 0.305532 3.83744e-22)
(0.862061 0.402009 6.14715e-22)
(0.854087 0.492302 2.18632e-21)
(0.826751 0.531705 -2.05453e-22)
(0.746301 0.533333 2.40884e-21)
(0.730431 0.603107 -5.4683e-21)
(0.712837 0.625164 2.06657e-21)
(0.719371 0.54368 -4.59507e-21)
(0.759755 0.346412 3.32705e-21)
(0.826799 0.0827393 -6.88303e-21)
(0.897462 -0.164602 5.23729e-21)
(0.949713 -0.334934 3.87818e-21)
(0.971593 -0.424687 -6.73922e-22)
(0.963511 -0.458941 1.32174e-21)
(0.944287 -0.451045 -6.66917e-22)
(0.921692 -0.421629 7.98249e-22)
(0.88196 -0.403543 -2.78405e-23)
(0.822639 -0.398428 -9.87721e-22)
(0.759474 -0.363154 1.35232e-22)
(0.716198 -0.26229 8.51455e-22)
(0.707685 -0.104583 6.76895e-22)
(0.736505 0.0605329 6.39171e-23)
(0.787196 0.196186 -5.36143e-22)
(0.837414 0.301441 8.74856e-23)
(0.862715 0.399909 -1.58372e-22)
(0.855411 0.492291 -7.09369e-22)
(0.82896 0.533408 -1.73175e-21)
(0.745009 0.530822 1.54368e-21)
(0.730539 0.602766 -1.60728e-21)
(0.714551 0.626582 -1.252e-21)
(0.722545 0.546461 -6.49582e-22)
(0.764254 0.349685 2.61616e-21)
(0.832749 0.0854517 1.16314e-21)
(0.904123 -0.162941 -2.71446e-21)
(0.956002 -0.333923 -1.17941e-21)
(0.977323 -0.423467 3.09223e-22)
(0.968328 -0.457585 -1.96966e-21)
(0.947716 -0.450043 8.2359e-23)
(0.924555 -0.420082 6.47779e-22)
(0.885116 -0.400452 2.06949e-22)
(0.825933 -0.394746 -2.49768e-22)
(0.762355 -0.361081 7.34571e-24)
(0.71824 -0.263301 6.6624e-22)
(0.708527 -0.108514 -2.51318e-22)
(0.736601 0.0550491 -2.95958e-22)
(0.787156 0.190737 4.52551e-22)
(0.83764 0.297255 3.26156e-22)
(0.863393 0.397692 1.48917e-22)
(0.856774 0.492162 -8.27812e-22)
(0.83122 0.535036 6.8172e-22)
(0.7437 0.528027 3.28083e-23)
(0.730651 0.602159 3.23146e-22)
(0.716269 0.627843 -1.34512e-21)
(0.725679 0.54926 -4.15235e-21)
(0.76868 0.35312 9.9654e-21)
(0.838676 0.0884047 -4.8008e-21)
(0.910803 -0.161024 -2.6395e-21)
(0.962292 -0.332724 2.11848e-21)
(0.983045 -0.422136 1.3178e-21)
(0.973187 -0.456139 -4.58718e-22)
(0.9512 -0.448999 5.60862e-22)
(0.92744 -0.418588 -9.4316e-22)
(0.888315 -0.397439 -4.82584e-23)
(0.829308 -0.39109 -1.26787e-22)
(0.76533 -0.358987 9.40917e-23)
(0.720423 -0.264277 -2.47889e-22)
(0.709553 -0.112434 -6.2451e-22)
(0.736827 0.0495351 1.26148e-22)
(0.787182 0.185223 -4.63946e-22)
(0.837893 0.292974 8.22451e-22)
(0.864093 0.395356 6.87235e-22)
(0.858174 0.491912 5.92899e-22)
(0.833528 0.536588 -1.53214e-21)
(0.742366 0.524946 4.38652e-22)
(0.73076 0.60128 3.33974e-22)
(0.717984 0.628941 4.87459e-21)
(0.728766 0.552072 -5.10509e-22)
(0.773026 0.356713 -3.0682e-21)
(0.844583 0.0915939 5.51689e-21)
(0.917501 -0.158851 -1.39104e-21)
(0.968579 -0.331333 7.04151e-22)
(0.988753 -0.420697 -3.16566e-21)
(0.978084 -0.454607 2.29526e-21)
(0.954737 -0.447911 -5.59559e-22)
(0.930347 -0.417147 6.24271e-22)
(0.891549 -0.394509 -4.2876e-22)
(0.832762 -0.387463 -2.85702e-22)
(0.768396 -0.356871 -9.1937e-23)
(0.722733 -0.26522 5.97389e-24)
(0.710762 -0.116338 3.75433e-22)
(0.737189 0.0439977 -2.77223e-22)
(0.787275 0.179648 -5.09608e-22)
(0.83817 0.288601 2.67731e-22)
(0.864813 0.392901 2.60471e-23)
(0.859608 0.491538 -1.43133e-21)
(0.835878 0.538061 2.27557e-22)
(0.741 0.521575 2.78223e-22)
(0.730857 0.600125 -4.39562e-21)
(0.71969 0.629872 -1.68185e-21)
(0.731794 0.554892 3.98601e-22)
(0.777286 0.360457 1.02054e-21)
(0.850477 0.0950136 3.0894e-21)
(0.924218 -0.156421 -6.97842e-21)
(0.97486 -0.329747 2.77679e-21)
(0.994443 -0.41915 -3.39202e-21)
(0.983014 -0.45299 1.31051e-21)
(0.95833 -0.446779 -1.49846e-21)
(0.933273 -0.415756 4.09676e-22)
(0.894815 -0.391664 4.85682e-22)
(0.836289 -0.383868 7.63032e-22)
(0.771549 -0.354734 4.82043e-22)
(0.725157 -0.266126 -4.4264e-22)
(0.71215 -0.120223 -3.35969e-22)
(0.737696 0.0384437 -3.48695e-22)
(0.78744 0.174017 -2.84702e-23)
(0.838473 0.284137 -5.34145e-22)
(0.86555 0.390325 1.61135e-22)
(0.861073 0.491039 2.78503e-22)
(0.838269 0.539453 1.41036e-22)
(0.739594 0.517912 -1.55468e-21)
(0.730936 0.598688 6.0129e-22)
(0.721381 0.630628 2.94103e-21)
(0.734756 0.557715 -1.44358e-22)
(0.78146 0.364346 -1.28451e-22)
(0.856369 0.0986585 -1.73279e-21)
(0.930956 -0.153733 2.32807e-21)
(0.981131 -0.327964 -4.30518e-21)
(1.00011 -0.417498 2.39787e-21)
(0.987973 -0.451292 -9.78365e-22)
(0.961976 -0.445602 9.15684e-22)
(0.936217 -0.414416 -4.26108e-22)
(0.898107 -0.38891 -2.18092e-22)
(0.839887 -0.380309 -4.93735e-22)
(0.774788 -0.352574 6.8244e-22)
(0.727679 -0.266997 9.61534e-23)
(0.71371 -0.124086 -3.5213e-23)
(0.738357 0.0328792 2.99642e-22)
(0.787686 0.168337 8.44972e-22)
(0.838801 0.279586 9.41655e-23)
(0.866302 0.387627 -9.69523e-22)
(0.862564 0.490414 2.27652e-23)
(0.840695 0.540762 -5.68005e-22)
(0.738143 0.513955 -4.01189e-21)
(0.73099 0.596964 3.37856e-21)
(0.72305 0.631205 2.08646e-21)
(0.73764 0.560534 -3.76087e-21)
(0.785552 0.368372 4.71424e-21)
(0.862281 0.102525 1.7231e-21)
(0.937718 -0.150785 3.92849e-21)
(0.987387 -0.32598 -6.72352e-21)
(1.00575 -0.415742 -1.03965e-21)
(0.992954 -0.44952 1.35846e-21)
(0.965675 -0.44438 1.13233e-21)
(0.939178 -0.413127 -1.89069e-21)
(0.90142 -0.386251 3.76301e-22)
(0.843549 -0.376789 -1.97429e-22)
(0.77811 -0.350393 -1.93139e-22)
(0.730287 -0.267829 4.13166e-22)
(0.71543 -0.127926 -4.9908e-22)
(0.739183 0.0273095 2.53798e-22)
(0.788021 0.162612 -1.68517e-22)
(0.839159 0.274948 -3.83554e-22)
(0.867068 0.384809 7.70017e-22)
(0.86408 0.489659 -8.24341e-22)
(0.843153 0.541985 -2.09524e-22)
(0.736637 0.509702 8.38117e-22)
(0.731011 0.594949 -7.70909e-22)
(0.724691 0.631595 6.00616e-22)
(0.740439 0.563344 -4.22825e-21)
(0.789578 0.372525 8.62795e-22)
(0.868248 0.106607 6.44323e-21)
(0.944508 -0.147578 -9.40789e-21)
(0.993623 -0.323794 9.22636e-21)
(1.01136 -0.413883 6.03911e-22)
(0.997954 -0.447672 -3.33748e-21)
(0.969428 -0.443108 2.22887e-21)
(0.942154 -0.411882 1.66851e-22)
(0.904749 -0.383686 1.86816e-23)
(0.847271 -0.373312 -4.33833e-22)
(0.781514 -0.348186 -3.06869e-22)
(0.73297 -0.268621 2.32776e-22)
(0.717294 -0.131738 -3.95239e-23)
(0.740182 0.0217396 5.78415e-22)
(0.788463 0.156849 -1.17138e-21)
(0.839551 0.270229 6.02107e-22)
(0.867845 0.38187 7.77632e-22)
(0.865617 0.488774 4.13563e-22)
(0.845641 0.54312 -5.04566e-22)
(0.735071 0.505153 2.29045e-21)
(0.730994 0.592638 1.86787e-21)
(0.726299 0.631792 1.28401e-21)
(0.743145 0.566133 -1.73929e-21)
(0.793575 0.376788 -8.60157e-23)
(0.874322 0.110878 -6.88153e-21)
(0.951334 -0.144125 1.4869e-21)
(0.999834 -0.3214 2.42597e-21)
(1.01693 -0.411906 -3.17909e-22)
(1.00297 -0.445736 -1.22805e-21)
(0.973232 -0.441772 -3.74813e-22)
(0.945144 -0.410668 1.86524e-21)
(0.908089 -0.381212 -2.89753e-23)
(0.851049 -0.369876 -5.97012e-22)
(0.784997 -0.34595 -2.44067e-22)
(0.73572 -0.269364 1.91497e-22)
(0.719284 -0.135516 -3.54038e-23)
(0.741362 0.0161767 2.32715e-22)
(0.789033 0.151058 5.11798e-22)
(0.839991 0.265433 -1.31346e-22)
(0.868638 0.378812 -6.94499e-22)
(0.867173 0.487757 -6.80996e-22)
(0.848154 0.544165 7.61363e-22)
(0.733441 0.500314 -2.02613e-23)
(0.730933 0.590029 1.11611e-21)
(0.727871 0.631784 -1.86286e-21)
(0.74576 0.568876 -3.15284e-21)
(0.797621 0.381113 4.90751e-21)
(0.880584 0.115307 4.42988e-21)
(0.958206 -0.140417 -5.3151e-21)
(1.00602 -0.318774 -1.85616e-21)
(1.02245 -0.409796 -8.9949e-22)
(1.00799 -0.44371 7.19155e-22)
(0.977087 -0.440372 -1.84199e-22)
(0.948148 -0.409489 7.84095e-22)
(0.911434 -0.378836 4.13679e-22)
(0.854877 -0.366493 -3.13658e-22)
(0.788557 -0.343695 2.38662e-22)
(0.73853 -0.270066 -1.67903e-22)
(0.721377 -0.139265 4.2531e-22)
(0.742727 0.0106288 -4.85137e-22)
(0.789759 0.145248 -1.6285e-22)
(0.840501 0.260571 3.60363e-22)
(0.86945 0.37564 -4.79321e-22)
(0.868746 0.48661 6.05291e-22)
(0.85069 0.545117 2.29215e-22)
(0.731747 0.49518 1.82732e-21)
(0.730829 0.587117 -2.78974e-21)
(0.729413 0.631569 1.2506e-21)
(0.748318 0.571571 -4.4331e-21)
(0.801881 0.385559 6.7035e-21)
(0.887154 0.120055 -2.8578e-21)
(0.96514 -0.136317 3.68254e-21)
(1.01216 -0.315896 -6.82701e-21)
(1.02793 -0.407629 3.76268e-21)
(1.01301 -0.441698 3.37751e-21)
(0.980991 -0.439002 -2.56786e-21)
(0.951166 -0.408417 6.89477e-22)
(0.914781 -0.376619 -1.55074e-21)
(0.858749 -0.363206 2.0512e-22)
(0.79219 -0.341452 2.04678e-22)
(0.741396 -0.270773 6.08309e-23)
(0.72355 -0.143048 8.87842e-24)
(0.744276 0.00509474 -1.79042e-22)
(0.79068 0.139391 1.74099e-22)
(0.841115 0.255625 -2.42204e-22)
(0.870296 0.372342 -1.40309e-23)
(0.870338 0.485325 -4.74052e-23)
(0.853248 0.545974 -1.29599e-22)
(0.730003 0.489657 1.63106e-21)
(0.730702 0.583871 -2.94994e-21)
(0.730982 0.631253 -2.6373e-22)
(0.750986 0.574521 3.75827e-21)
(0.806731 0.390615 -1.63929e-21)
(0.894224 0.125584 1.653e-21)
(0.972145 -0.131666 -8.21179e-21)
(1.01825 -0.312882 8.09518e-21)
(1.03335 -0.405594 -2.70589e-21)
(1.01803 -0.439869 -3.39257e-21)
(0.984942 -0.437781 1.49106e-21)
(0.954199 -0.407532 -3.49979e-22)