/*--------------------------------*- C++ -*----------------------------------*\
  =========                 |
  \\      /  F ield         | OpenFOAM: The Open Source CFD Toolbox
   \\    /   O peration     | Website:  https://openfoam.org
    \\  /    A nd           | Version:  7
     \\/     M anipulation  |
\*---------------------------------------------------------------------------*/
FoamFile
{
    version     2.0;
    format      ascii;
    class       volVectorField;
    location    "260";
    object      U;
}
// * * * * * * * * * * * * * * * * * * * * * * * * * * * * * * * * * * * * * //

dimensions      [0 1 -1 0 0 0 0];

internalField   nonuniform List<vector> 
4575
(
(0.821247 0.281359 -1.4167e-19)
(0.812025 0.27463 2.60545e-19)
(0.803022 0.26757 -1.46186e-19)
(0.780268 0.276475 -8.26645e-20)
(0.794247 0.260184 -5.98819e-20)
(0.771198 0.268304 9.73558e-20)
(0.785709 0.25248 4.76826e-20)
(0.762382 0.259808 -2.56035e-20)
(0.777418 0.244463 9.55958e-20)
(0.753829 0.250992 -2.81119e-20)
(0.769384 0.236142 -1.32955e-19)
(0.728157 0.257206 1.30496e-19)
(0.745552 0.241864 8.25676e-20)
(0.761616 0.227524 6.17802e-20)
(0.719639 0.247215 -8.53846e-20)
(0.737563 0.232434 -6.0543e-20)
(0.754125 0.218619 5.89298e-21)
(0.711439 0.236911 -7.38704e-20)
(0.729871 0.222709 -2.66707e-20)
(0.74692 0.209436 4.47596e-20)
(0.703566 0.226304 -2.90356e-20)
(0.722489 0.212702 2.26985e-19)
(0.74001 0.199985 -1.43267e-19)
(0.675821 0.229162 6.40464e-20)
(0.696033 0.215407 -5.20748e-20)
(0.715427 0.202421 -4.48902e-20)
(0.733405 0.190277 9.79145e-20)
(0.668128 0.217328 9.72018e-20)
(0.688852 0.20423 1.32703e-19)
(0.708695 0.191878 2.61349e-20)
(0.727115 0.180322 -1.15825e-19)
(0.660821 0.205207 -2.41343e-20)
(0.682033 0.192786 -1.40644e-20)
(0.702304 0.181085 1.90355e-20)
(0.721147 0.170132 1.06337e-19)
(0.653911 0.192813 4.51533e-20)
(0.675586 0.181089 -6.58792e-20)
(0.696262 0.170053 -5.99239e-20)
(0.71551 0.159719 -1.14401e-19)
(0.647409 0.180161 2.15398e-20)
(0.669521 0.16915 -6.39619e-21)
(0.69058 0.158796 1.96847e-21)
(0.710213 0.149094 6.30158e-20)
(0.617485 0.178262 7.75434e-20)
(0.641325 0.167266 -8.58445e-20)
(0.663848 0.156985 1.61468e-19)
(0.685267 0.147327 -1.42824e-19)
(0.705263 0.138271 5.1031e-20)
(0.611417 0.164343 -5.04578e-20)
(0.635669 0.154142 4.98564e-21)
(0.658575 0.144608 -1.42044e-19)
(0.680329 0.135658 9.94056e-20)
(0.700667 0.127263 9.03437e-20)
(0.605815 0.150195 6.9851e-20)
(0.630449 0.140806 9.08811e-21)
(0.653712 0.132033 2.24509e-20)
(0.675776 0.123804 8.8741e-21)
(0.696432 0.116081 -9.95796e-20)
(0.600688 0.135836 -9.85306e-20)
(0.625675 0.127273 1.26452e-20)
(0.649265 0.119275 8.04247e-20)
(0.671614 0.11178 -1.11955e-19)
(0.692564 0.104741 -5.76206e-22)
(0.596046 0.121283 9.08093e-20)
(0.621354 0.113561 -6.75524e-20)
(0.645242 0.106351 -8.22075e-21)
(0.667851 0.0995987 6.40459e-20)
(0.68907 0.093255 -1.16128e-19)
(0.591896 0.106555 -8.09462e-20)
(0.617494 0.0996863 1.7723e-20)
(0.64165 0.0932754 -1.1579e-20)
(0.664492 0.0872759 -4.00483e-20)
(0.685955 0.0816377 1.56065e-20)
(0.588244 0.0916706 1.73575e-20)
(0.614099 0.0856662 3.99604e-20)
(0.638494 0.0800646 7.0164e-21)
(0.661544 0.0748268 -8.5083e-21)
(0.683223 0.0699031 1.04827e-21)
(0.585098 0.0766481 4.91507e-20)
(0.611178 0.0715181 4.061e-20)
(0.63578 0.0667351 1.96212e-20)
(0.65901 0.0622665 4.43244e-20)
(0.68088 0.0580655 1.756e-20)
(0.582462 0.0615067 -1.67187e-20)
(0.608733 0.05726 -3.31196e-20)
(0.633512 0.0533036 -3.37671e-21)
(0.656896 0.0496108 -6.39958e-20)
(0.678928 0.04614 1.24214e-21)
(0.580341 0.0462658 -3.47984e-20)
(0.606771 0.0429097 -4.82413e-21)
(0.631695 0.0397867 -1.04701e-20)
(0.655206 0.0368757 4.87979e-20)
(0.677371 0.0341414 -8.17935e-21)
(0.57874 0.0309448 4.9337e-20)
(0.605294 0.0284856 6.15181e-20)
(0.630332 0.0262015 -8.89792e-21)
(0.653942 0.0240766 2.20967e-20)
(0.676213 0.0220817 -9.77941e-21)
(0.549396 0.0172466 1.69044e-20)
(0.577662 0.0155636 4.16157e-21)
(0.604305 0.014006 -2.06775e-20)
(0.629426 0.0125651 -1.9917e-21)
(0.653106 0.0112293 -4.77219e-20)
(0.67545 0.00997241 1.94989e-20)
(0.548782 0.000857875 8.28283e-21)
(0.577108 0.00014191 -2.27358e-20)
(0.603807 -0.000510499 2.12207e-21)
(0.628978 -0.00110445 -9.7885e-22)
(0.652698 -0.00164633 1.21099e-20)
(0.675074 -0.00215012 2.69899e-22)
(0.548731 -0.0155537 -4.20097e-21)
(0.577081 -0.0153004 5.51247e-21)
(0.6038 -0.0150454 1.05572e-20)
(0.628991 -0.0147902 7.72989e-22)
(0.652728 -0.0145354 1.13099e-21)
(0.675125 -0.0142773 4.86985e-21)
(0.549245 -0.0319667 -4.9881e-21)
(0.577581 -0.0307434 4.89195e-21)
(0.604287 -0.0295804 1.08135e-20)
(0.629464 -0.0284758 9.08928e-22)
(0.653192 -0.0274255 7.86308e-22)
(0.675582 -0.0264159 5.17868e-21)
(0.550322 -0.0483598 3.43593e-21)
(0.578608 -0.0461673 -1.79697e-20)
(0.605267 -0.0440971 5.27113e-21)
(0.630399 -0.0421439 -8.49142e-22)
(0.654088 -0.0402992 8.89359e-21)
(0.676438 -0.0385413 8.88646e-22)
(0.551962 -0.0647114 1.09854e-20)
(0.580161 -0.061552 3.56971e-21)
(0.606738 -0.0585768 -2.73186e-20)
(0.631793 -0.055777 1.59414e-21)
(0.655416 -0.0531391 -3.82148e-20)
(0.677695 -0.0506334 8.36839e-21)
(0.582239 -0.0768776 5.01359e-20)
(0.608699 -0.0730009 4.52276e-20)
(0.633646 -0.0693577 -2.29387e-20)
(0.657174 -0.0659293 2.97772e-20)
(0.679353 -0.0626781 -6.60231e-22)
(0.584839 -0.0921245 -4.91567e-20)
(0.611149 -0.087351 -8.63263e-21)
(0.635956 -0.0828689 -1.11574e-20)
(0.659362 -0.0786536 1.75949e-20)
(0.681411 -0.0746609 -1.22471e-21)
(0.587958 -0.107273 -5.00698e-21)
(0.614084 -0.101609 -2.34413e-20)
(0.638718 -0.0962933 1.22179e-20)
(0.661975 -0.0912959 -1.0147e-19)
(0.683866 -0.0865667 3.56509e-20)
(0.591592 -0.122303 6.50624e-20)
(0.617499 -0.115756 1.69864e-20)
(0.641931 -0.109614 2.48473e-20)
(0.665011 -0.10384 5.70373e-20)
(0.686715 -0.0983806 -2.97087e-20)
(0.595735 -0.137196 5.35059e-20)
(0.621392 -0.129775 -2.21152e-20)
(0.645589 -0.122814 1.55485e-20)
(0.668466 -0.11627 3.23896e-20)
(0.689956 -0.110088 -1.17457e-20)
(0.600383 -0.151933 -1.02148e-19)
(0.625756 -0.143647 -1.3156e-20)
(0.649689 -0.135878 -2.93497e-20)
(0.672335 -0.128571 -1.86846e-20)
(0.693584 -0.121674 4.73274e-20)
(0.605528 -0.166494 6.61577e-20)
(0.630585 -0.157356 -7.44172e-20)
(0.654224 -0.148788 -1.58342e-20)
(0.676613 -0.140727 5.75083e-20)
(0.697594 -0.133124 -4.58682e-20)
(0.611165 -0.180862 -1.3185e-19)
(0.635874 -0.170884 5.46869e-20)
(0.659188 -0.161528 7.34763e-20)
(0.681294 -0.152724 -1.31368e-19)
(0.701982 -0.144425 5.33081e-22)
(0.617284 -0.195018 1.13851e-19)
(0.641614 -0.184214 1.31639e-20)
(0.664575 -0.174083 -3.86762e-21)
(0.686372 -0.164545 6.38253e-21)
(0.706743 -0.155561 -8.1234e-20)
(0.623877 -0.208945 3.17974e-20)
(0.647798 -0.197329 -9.35768e-20)
(0.670377 -0.186438 -1.13177e-19)
(0.691841 -0.176178 1.28939e-19)
(0.711869 -0.166521 7.92695e-20)
(0.630936 -0.222624 -1.20803e-19)
(0.654418 -0.210214 2.77789e-20)
(0.676586 -0.198576 5.8727e-20)
(0.697692 -0.187606 -7.1869e-20)
(0.717356 -0.177289 -1.43576e-20)
(0.661463 -0.222852 7.43334e-20)
(0.683195 -0.210484 -8.48204e-20)
(0.703917 -0.198818 4.8263e-20)
(0.723195 -0.187853 6.81708e-20)
(0.668925 -0.235228 -4.8309e-21)
(0.690193 -0.222148 -3.65569e-21)
(0.710509 -0.209799 -6.89326e-20)
(0.729379 -0.198201 -1.59314e-19)
(0.676793 -0.247328 -2.19264e-20)
(0.697571 -0.233553 -7.76618e-20)
(0.717458 -0.220537 2.97976e-20)
(0.735901 -0.208319 1.47991e-19)
(0.685056 -0.259137 5.32851e-20)
(0.70532 -0.244686 1.11512e-19)
(0.724755 -0.231018 1.43623e-20)
(0.742753 -0.218195 -1.45953e-19)
(0.693703 -0.270641 -1.3495e-19)
(0.713429 -0.255534 -2.60636e-20)
(0.732391 -0.241231 -2.16171e-20)
(0.749925 -0.227818 9.24458e-20)
(0.721886 -0.266085 -4.25136e-21)
(0.740354 -0.251165 1.00534e-19)
(0.75741 -0.237177 4.73046e-20)
(0.730681 -0.276327 -5.05212e-20)
(0.748634 -0.260807 -6.05282e-21)
(0.765197 -0.24626 5.70457e-20)
(0.739802 -0.286249 -2.86615e-21)
(0.757221 -0.270149 -1.01469e-19)
(0.773277 -0.255058 -4.29122e-20)
(0.749236 -0.295841 7.901e-20)
(0.766104 -0.279179 7.53348e-20)
(0.781641 -0.263559 7.32462e-20)
(0.77527 -0.287889 -2.87964e-20)
(0.790279 -0.271756 -7.75809e-20)
(0.784709 -0.29627 -1.1737e-19)
(0.799181 -0.279638 5.2758e-20)
(0.794409 -0.304315 1.90381e-19)
(0.808337 -0.287198 4.01699e-20)
(0.817736 -0.294429 -2.58424e-20)
(0.82737 -0.301324 -1.07628e-19)
(0.837228 -0.307877 1.86627e-19)
(0.999959 0.00162134 0)
(0.998858 0.00450416 0)
(0.996631 0.00732321 0)
(0.993607 0.0103059 0)
(0.989662 0.013703 0)
(0.98509 0.0176989 0)
(0.979722 0.022477 0)
(0.973884 0.0281822 0)
(0.96736 0.0349894 0)
(0.960573 0.0430215 0)
(0.953245 0.0524812 0)
(0.945975 0.0634656 0)
(0.938381 0.0762286 0)
(0.93137 0.0907969 0)
(0.924331 0.107502 0)
(0.918724 0.126174 0)
(0.913405 0.14732 0)
(0.910883 0.170234 0)
(0.908752 0.196083 -1.06791e-28)
(0.911687 0.222405 1.13633e-28)
(0.914365 0.253539 0)
(0.99996 0.00174368 0)
(0.998907 0.00487394 0)
(0.996765 0.0079426 0)
(0.993867 0.0111747 0)
(0.990084 0.0148363 0)
(0.985734 0.0190886 0)
(0.980637 0.0241422 0)
(0.975159 0.0301 0)
(0.969066 0.0371727 0)
(0.962837 0.0454157 0)
(0.956167 0.0550801 0)
(0.949737 0.0661527 0)
(0.943105 0.0789642 0)
(0.937307 0.0933515 0)
(0.931605 0.109802 0)
(0.927662 0.127784 0)
(0.92407 0.148196 0)
(0.923682 0.169512 -4.6065e-29)
(0.923537 0.194018 4.90336e-29)
(0.928958 0.217048 -5.81994e-29)
(0.933266 0.246198 6.194e-29)
(0.99996 0.00186555 0)
(0.998962 0.0052424 0)
(0.996917 0.00856239 0)
(0.994166 0.012044 0)
(0.990573 0.0159714 0)
(0.986477 0.0204794 0)
(0.981689 0.0258074 0)
(0.976609 0.0320138 0)
(0.970991 0.0393464 0)
(0.965361 0.0477893 0)
(0.959384 0.0576441 0)
(0.953813 0.0687807 0)
(0.948147 0.0816118 0)
(0.943518 0.0957715 0)
(0.93908 0.111915 0)
(0.936623 0.12913 0)
(0.934547 0.148717 0)
(0.935855 0.168362 0)
(0.937293 0.191329 0)
(0.944264 0.211376 0)
(0.949756 0.237895 0)
(0.999961 0.00198503 0)
(0.99902 0.00560283 0)
(0.997082 0.00916712 0)
(0.99449 0.012888 0)
(0.991105 0.0170668 0)
(0.987284 0.0218134 0)
(0.982833 0.0273924 0)
(0.978179 0.0338206 0)
(0.973065 0.0413774 0)
(0.968058 0.0499808 0)
(0.962802 0.059976 0)
(0.958093 0.0711247 0)
(0.953396 0.0839129 0)
(0.949886 0.0977906 0)
(0.946662 0.113563 0)
(0.945526 0.129989 0)
(0.944827 0.148697 0)
(0.947468 0.166802 0)
(0.950245 0.188184 0)
(0.958132 0.205868 0)
(0.96465 0.229827 0)
(0.999963 0.00210053 0)
(0.999081 0.0059506 0)
(0.997257 0.00974964 0)
(0.994832 0.013697 0)
(0.99167 0.0181109 0)
(0.988137 0.0230751 0)
(0.984041 0.0288767 0)
(0.979827 0.0354917 0)
(0.975239 0.0432269 0)
(0.970861 0.0519364 0)
(0.966338 0.0620035 0)
(0.962474 0.0730884 0)
(0.958737 0.0857419 0)
(0.956275 0.0992495 0)
(0.954207 0.114543 0)
(0.954232 0.13012 0)
(0.954778 0.147845 0)
(0.958467 0.164475 0)
(0.962373 0.184212 0)
(0.970807 0.199869 0)
(0.978138 0.221403 0)
(0.999965 0.00221134 0)
(0.999143 0.00628374 0)
(0.997441 0.010307 0)
(0.995188 0.0144676 0)
(0.99226 0.0190994 0)
(0.989022 0.0242594 0)
(0.985296 0.0302549 0)
(0.981527 0.0370208 0)
(0.977477 0.0448884 0)
(0.973721 0.0536496 0)
(0.96993 0.0637214 0)
(0.966878 0.0746692 0)
(0.96407 0.0870996 0)
(0.962574 0.100157 0)
(0.961582 0.114871 0)
(0.962613 0.12955 0)
(0.964255 0.146204 0)
(0.968764 0.161412 0)
(0.973583 0.17948 0)
(0.982323 0.193317 0)
(0.990207 0.212543 0)
(0.999968 0.00231689 0)
(0.999207 0.00660073 0)
(0.997632 0.0108365 0)
(0.995556 0.0151961 0)
(0.992871 0.0200274 0)
(0.989933 0.0253606 0)
(0.986586 0.0315201 0)
(0.983261 0.0384012 0)
(0.979752 0.0463558 0)
(0.976604 0.0551171 0)
(0.973531 0.0651302 0)
(0.971247 0.0758766 0)
(0.96932 0.088006 0)
(0.968702 0.100552 0)
(0.968687 0.114609 0)
(0.970578 0.128367 0)
(0.973154 0.1439 0)
(0.978291 0.157759 0)
(0.983817 0.174186 0)
(0.992675 0.186387 0)
(1.00089 0.203461 0)
(0.999971 0.0024166 0)
(0.999273 0.00689991 0)
(0.99783 0.0113353 0)
(0.995934 0.0158784 0)
(0.993499 0.0208896 0)
(0.990862 0.0263723 0)
(0.9879 0.0326653 0)
(0.985015 0.0396259 0)
(0.982042 0.0476224 0)
(0.979481 0.0563354 0)
(0.977101 0.0662299 0)
(0.975537 0.0767192 0)
(0.97443 0.0884794 0)
(0.9746 0.100469 0)
(0.975451 0.113809 0)
(0.978065 0.126646 0)
(0.981416 0.141043 0)
(0.987017 0.153631 0)
(0.993061 0.168488 0)
(1.00189 0.179227 0)
(1.01026 0.194343 -5.63615e-30)
(0.999975 0.00250988 0)
(0.999339 0.00717961 0)
(0.998033 0.0118004 0)
(0.996319 0.0165106 0)
(0.994139 0.0216809 0)
(0.991804 0.0272889 0)
(0.989228 0.033684 0)
(0.986774 0.0406893 0)
(0.984327 0.0486835 0)
(0.982329 0.057303 0)
(0.980609 0.0670234 0)
(0.979711 0.077208 0)
(0.979356 0.0885409 0)
(0.980222 0.0999419 0)
(0.981827 0.112525 0)
(0.985038 0.124452 0)
(0.989011 0.137721 0)
(0.994933 0.149122 0)
(1.00133 0.162502 0)
(1.01002 0.171939 0)
(1.01841 0.185296 0)
(0.99998 0.00259616 0)
(0.999407 0.00743825 0)
(0.998239 0.012229 0)
(0.996709 0.0170892 0)
(0.994788 0.0223968 0)
(0.992753 0.0281056 0)
(0.990558 0.0345714 0)
(0.988527 0.0415875 0)
(0.986588 0.0495369 0)
(0.985127 0.0580219 0)
(0.984024 0.0675179 0)
(0.983739 0.0773578 0)
(0.98406 0.0882165 0)
(0.985535 0.0990076 0)
(0.987781 0.110811 0)
(0.991473 0.121849 0)
(0.99593 0.134021 0)
(1.00205 0.144316 0)
(1.00867 0.156325 0)
(1.01713 0.164603 0)
(1.02544 0.176389 0)
(0.999984 0.00267486 0)
(0.999476 0.00767434 0)
(0.998449 0.0126185 0)
(0.997102 0.0176109 0)
(0.995439 0.0230333 0)
(0.993702 0.0288185 0)
(0.991882 0.0353236 0)
(0.990261 0.0423184 0)
(0.988809 0.0501828 0)
(0.987853 0.0584963 0)
(0.987323 0.0677239 0)
(0.987595 0.0771866 0)
(0.988516 0.0875356 0)
(0.990515 0.097705 0)
(0.993295 0.108722 0)
(0.997361 0.118899 0)
(1.00218 0.130018 0)
(1.0084 0.139289 0)
(1.01512 0.150038 0)
(1.0233 0.157287 0)
(1.03143 0.167675 0)
(0.999989 0.00274545 0)
(0.999545 0.00788655 0)
(0.998658 0.0129666 0)
(0.997496 0.0180729 0)
(0.996088 0.023587 0)
(0.994644 0.0294244 0)
(0.993189 0.0359383 0)
(0.991962 0.0428814 0)
(0.990972 0.0506236 0)
(0.990489 0.0587328 0)
(0.990484 0.0676546 0)
(0.991254 0.0767147 0)
(0.9927 0.0865294 0)
(0.995142 0.0960738 0)
(0.998358 0.106312 1.99153e-28)
(1.0027 0.115662 -2.12027e-28)
(1.00778 0.125784 0)
(1.01401 0.13411 0)
(1.02073 0.143709 -3.34905e-29)
(1.02859 0.150047 5.03915e-30)
(1.03649 0.159194 3.2575e-29)
(0.999993 0.00280744 0)
(0.999614 0.00807368 0)
(0.998867 0.0132711 0)
(0.997888 0.0184727 0)
(0.99673 0.0240553 0)
(0.995574 0.0299212 0)
(0.99447 0.0364141 0)
(0.99362 0.0432771 0)
(0.993063 0.0508634 0)
(0.993017 0.0587398 0)
(0.993487 0.0673253 0)
(0.9947 0.0759638 0)
(0.996598 0.08523 0)
(0.999406 0.0941533 0)
(1.00297 0.103629 0)
(1.00751 0.112193 0)
(1.01274 0.121378 0)
(1.01892 0.12884 0)
(1.02557 0.137395 0)
(1.03307 0.142928 0)
(1.0407 0.150977 0)
(0.999997 0.0028604 0)
(0.999683 0.00823465 0)
(0.999073 0.0135304 0)
(0.998275 0.0188083 0)
(0.997361 0.0244361 0)
(0.996483 0.0303073 0)
(0.995715 0.0367513 0)
(0.995222 0.0435078 0)
(0.995067 0.0509085 0)
(0.995422 0.0585277 0)
(0.996318 0.0667533 0)
(0.997917 0.0749572 0)
(1.0002 0.0836695 0)
(1.0033 0.0919822 0)
(1.00713 0.100722 0)
(1.01179 0.108542 0)
(1.01711 0.116855 0)
(1.02318 0.123528 0)
(1.0297 0.131141 0)
(1.03683 0.135965 0)
(1.04414 0.143045 0)
(1 0.00290398 0)
(0.999752 0.00836856 0)
(0.999275 0.0137431 0)
(0.998654 0.0190781 0)
(0.997976 0.0247283 0)
(0.997367 0.0305824 0)
(0.996916 0.0369512 0)
(0.996759 0.0435771 0)
(0.996974 0.0507665 0)
(0.997692 0.0581082 0)
(0.998962 0.0659568 0)
(1.00089 0.0737187 0)
(1.00349 0.0818792 0)
(1.00683 0.0895972 0)
(1.01084 0.097632 0)
(1.01557 0.104754 0)
(1.0209 0.11226 0)
(1.02682 0.118216 0)
(1.03317 0.124982 0)
(1.03992 0.129183 0)
(1.04691 0.13541 0)
(1 0.00293789 0)
(0.999819 0.0084747 0)
(0.999472 0.0139081 0)
(0.999024 0.0192812 0)
(0.998572 0.0249314 0)
(0.998218 0.0307468 0)
(0.998066 0.0370165 0)
(0.99822 0.0434899 0)
(0.998772 0.0504465 0)
(0.999814 0.0574944 0)
(1.00141 0.0649547 0)
(1.00362 0.0722725 0)
(1.00648 0.0798898 0)
(1.00999 0.0870336 0)
(1.01413 0.0943992 0)
(1.01887 0.10087 0)
(1.02416 0.107633 0)
(1.0299 0.112941 0)
(1.03604 0.118946 0)
(1.04241 0.122602 0)
(1.04906 0.128076 0)
(1.00001 0.00296196 0)
(0.999885 0.00855253 0)
(0.999661 0.0140249 0)
(0.99938 0.0194169 0)
(0.999143 0.0250458 0)
(0.999032 0.0308019 0)
(0.999156 0.0369507 0)
(0.999597 0.0432524 0)
(1.00045 0.0499586 0)
(1.00178 0.0567005 0)
(1.00366 0.0637665 0)
(1.0061 0.0706429 0)
(1.00916 0.0777306 0)
(1.01279 0.084324 0)
(1.01701 0.0910588 0)
(1.02171 0.0969248 0)
(1.02692 0.103007 0)
(1.03245 0.107731 0)
(1.03836 0.113056 0)
(1.04436 0.116233 0)
(1.05067 0.121047 1.03302e-29)
(1.00001 0.00297608 0)
(0.999948 0.00860171 0)
(0.999843 0.0140934 0)
(0.999721 0.0194853 0)
(0.999686 0.0250725 0)
(0.999802 0.0307501 0)
(1.00018 0.0367586 0)
(1.00088 0.0428718 0)
(1.00201 0.049314 0)
(1.00359 0.0557414 0)
(1.0057 0.0624119 0)
(1.00833 0.0688534 0)
(1.01153 0.0754292 0)
(1.01524 0.0814986 0)
(1.01948 0.0876424 0)
(1.02412 0.0929495 0)
(1.02921 0.0984115 -6.29075e-29)
(1.03452 0.10261 6.69669e-29)
(1.04018 0.107328 0)
(1.04582 0.110086 0)
(1.05178 0.114318 0)
(1.00001 0.00298026 0)
(1.00001 0.00862215 0)
(1.00002 0.0141137 0)
(1.00004 0.019487 0)
(1.0002 0.0250135 0)
(1.00053 0.0305944 0)
(1.00114 0.0364459 0)
(1.00207 0.0423564 0)
(1.00343 0.0485245 0)
(1.00523 0.0546324 0)
(1.00753 0.0609102 0)
(1.01031 0.066927 0)
(1.01362 0.0730116 0)
(1.01736 0.0785853 0)
(1.02159 0.084178 0)
(1.02613 0.0889709 0)
(1.03107 0.0938685 0)
(1.03615 0.0975951 0)
(1.04155 0.101772 0)
(1.04684 0.104164 0)
(1.05247 0.107884 0)
(1.00001 0.00297459 0)
(1.00007 0.00861398 0)
(1.00018 0.0140866 0)
(1.00035 0.0194231 0)
(1.00068 0.0248712 0)
(1.0012 0.030339 0)
(1.00202 0.0360189 0)
(1.00316 0.0417151 0)
(1.00473 0.0476024 0)
(1.0067 0.0533893 0)
(1.00916 0.0592807 0)
(1.01204 0.0648855 0)
(1.01541 0.0705018 0)
(1.01915 0.075609 0)
(1.02334 0.0806904 0)
(1.02776 0.0850119 0)
(1.03254 0.0893975 0)
(1.03738 0.0927017 0)
(1.04252 0.096397 -1.29339e-29)
(1.04747 0.0984684 1.9601e-30)
(1.05278 0.101739 1.25655e-29)
(1.00001 0.00295925 0)
(1.00012 0.00857758 0)
(1.00033 0.014013 0)
(1.00063 0.0192955 0)
(1.00112 0.0246487 0)
(1.00182 0.0299884 0)
(1.00282 0.0354847 0)
(1.00415 0.0409575 0)
(1.00588 0.0465604 0)
(1.008 0.0520276 0)
(1.01058 0.0575416 0)
(1.01353 0.0627499 0)
(1.01694 0.0679222 0)
(1.02065 0.0725926 0)
(1.02475 0.0772013 0)
(1.02904 0.0810919 0)
(1.03364 0.0850143 0)
(1.03823 0.0879408 0)
(1.04311 0.0912075 0)
(1.04775 0.0929992 0)
(1.05274 0.0958726 0)
(1.00001 0.0029345 0)
(1.00017 0.00851355 0)
(1.00047 0.0138944 0)
(1.00089 0.0191063 0)
(1.00152 0.0243498 0)
(1.00238 0.0295482 0)
(1.00355 0.034851 0)
(1.00503 0.0400939 0)
(1.00691 0.0454113 0)
(1.00914 0.0505627 0)
(1.0118 0.0557109 0)
(1.0148 0.0605394 0)
(1.0182 0.0652931 0)
(1.02186 0.069556 0)
(1.02586 0.0737294 0)
(1.02999 0.0772272 9.86753e-29)
(1.03441 0.0807313 -1.05049e-28)
(1.03876 0.0833206 0)
(1.04338 0.0862061 0)
(1.04771 0.0877535 0)
(1.0524 0.0902771 0)
(1.00001 0.00290068 0)
(1.00021 0.00842276 0)
(1.00059 0.0137326 0)
(1.00113 0.0188583 0)
(1.00189 0.0239787 0)
(1.00288 0.0290243 0)
(1.00419 0.0341259 0)
(1.0058 0.0391346 0)
(1.0078 0.044168 0)
(1.01011 0.0490097 0)
(1.01283 0.0538053 0)
(1.01584 0.0582722 0)
(1.01922 0.0626329 0)
(1.0228 0.0665172 0)
(1.02669 0.0702908 0)
(1.03066 0.0734314 0)
(1.03487 0.0765584 0)
(1.039 0.0788469 0)
(1.04336 0.0813936 0)
(1.0474 0.0827276 0)
(1.0518 0.0849425 0)
(1.00001 0.00285819 0)
(1.00025 0.00830632 0)
(1.00071 0.0135295 0)
(1.00134 0.0185547 0)
(1.00222 0.02354 0)
(1.00333 0.0284231 0)
(1.00476 0.0333179 0)
(1.00647 0.0380901 0)
(1.00856 0.042843 0)
(1.01093 0.0473831 0)
(1.01368 0.0518407 0)
(1.01668 0.055965 0)
(1.02001 0.0599581 0)
(1.0235 0.063492 0)
(1.02726 0.0668994 0)
(1.03106 0.0697159 0)
(1.03507 0.0725033 0)
(1.03897 0.0745237 0)
(1.04308 0.0767692 0)
(1.04685 0.0779168 0)
(1.05097 0.079859 -1.56107e-29)
(1.00001 0.0028075 0)
(1.00029 0.00816551 0)
(1.00081 0.0132877 0)
(1.00152 0.0181991 0)
(1.0025 0.023039 0)
(1.00371 0.0277514 0)
(1.00524 0.0324355 -1.01749e-29)
(1.00704 0.0369711 1.08353e-29)
(1.00919 0.0414488 0)
(1.0116 0.0456967 0)
(1.01435 0.049832 4.8652e-29)
(1.01732 0.0536331 -5.18051e-29)
(1.02058 0.0572836 0)
(1.02397 0.0604941 0)
(1.02759 0.0635667 0)
(1.03121 0.0660897 0)
(1.03503 0.0685717 0)
(1.0387 0.0703534 0)
(1.04257 0.0723311 0)
(1.04609 0.0733159 0)
(1.04995 0.075017 0)
(1.00001 0.00274915 0)
(1.00032 0.00800186 0)
(1.0009 0.0130096 0)
(1.00169 0.0177954 0)
(1.00274 0.0224809 0)
(1.00404 0.0270163 0)
(1.00565 0.0314876 0)
(1.00751 0.0357879 0)
(1.0097 0.0399973 0)
(1.01213 0.0439637 0)
(1.01486 0.047793 0)
(1.01778 0.0512903 0)
(1.02096 0.0546226 0)
(1.02423 0.0575353 0)
(1.0277 0.0603027 0)
(1.03116 0.0625602 0)
(1.03477 0.0647677 0)
(1.03822 0.066337 0)
(1.04186 0.0680768 0)
(1.04514 0.0689194 0)
(1.04875 0.0704071 0)
(1.00001 0.00268371 0)
(1.00035 0.00781701 6.83775e-30)
(1.00097 0.0126983 -7.28202e-30)
(1.00182 0.0173477 0)
(1.00295 0.0218714 0)
(1.00432 0.0262249 0)
(1.00598 0.030483 0)
(1.00789 0.034551 0)
(1.0101 0.0385 0)
(1.01252 0.0421965 0)
(1.01522 0.0457363 0)
(1.01808 0.048949 0)
(1.02116 0.0519867 0)
(1.02431 0.0546259 0)
(1.02763 0.0571155 0)
(1.03091 0.0591331 0)
(1.03433 0.0610943 0)
(1.03757 0.0624747 0)
(1.04098 0.0640029 -2.08647e-29)
(1.04403 0.0647213 2.3725e-30)
(1.04741 0.06602 2.11105e-29)
(1.00001 0.0026118 0)
(1.00037 0.0076128 0)
(1.00103 0.0123566 0)
(1.00194 0.0168605 0)
(1.00312 0.0212164 0)
(1.00454 0.0253845 0)
(1.00624 0.0294302 0)
(1.00817 0.0332702 0)
(1.01038 0.0369678 0)
(1.01279 0.0404066 0)
(1.01544 0.0436736 0)
(1.01822 0.0466206 0)
(1.0212 0.049386 0)
(1.02422 0.0517745 0)
(1.02738 0.0540116 0)
(1.03049 0.0558129 0)
(1.03371 0.0575532 0)
(1.03676 0.0587655 0)
(1.03995 0.0601058 0)
(1.0428 0.0607158 0)
(1.04594 0.0618471 0)
(1.00001 0.00253408 0)
(1.00039 0.00739114 0)
(1.00108 0.0119879 0)
(1.00202 0.0163383 0)
(1.00325 0.0205215 0)
(1.0047 0.0245024 0)
(1.00643 0.0283378 0)
(1.00837 0.031955 0)
(1.01057 0.0354109 0)
(1.01294 0.0386046 0)
(1.01553 0.0416153 0)
(1.01823 0.044315 0)
(1.02109 0.0468294 0)
(1.02398 0.0489885 0)
(1.02698 0.0509965 0)
(1.02992 0.0526028 0)
(1.03296 0.054145 0)
(1.03581 0.0552081 0)
(1.0388 0.0563813 0)
(1.04145 0.0568968 0)
(1.04438 0.0578797 0)
(1.00001 0.00245121 0)
(1.0004 0.00715404 0)
(1.00112 0.0115954 0)
(1.00209 0.0157857 0)
(1.00334 0.0197929 0)
(1.00482 0.0235857 0)
(1.00656 0.0272139 0)
(1.0085 0.0306146 0)
(1.01067 0.0338389 0)
(1.01299 0.0368002 0)
(1.01551 0.039571 0)
(1.01811 0.0420408 0)
(1.02085 0.0443244 0)
(1.0236 0.0462741 0)
(1.02646 0.0480743 0)
(1.02923 0.0495052 0)
(1.03208 0.05087 0)
(1.03475 0.0518005 0)
(1.03755 0.0528254 0)
(1.04001 0.0532585 0)
(1.04274 0.0541099 -1.2114e-29)
(1.00001 0.0023639 0)
(1.00041 0.00690356 0)
(1.00114 0.0111823 0)
(1.00214 0.0152073 0)
(1.0034 0.0190361 0)
(1.00489 0.0226414 0)
(1.00663 0.0260665 0)
(1.00855 0.0292575 0)
(1.01068 0.0322608 5.58828e-29)
(1.01294 0.0350025 -5.95076e-29)
(1.01538 0.037549 0)
(1.01788 0.0398058 0)
(1.0205 0.0418774 0)
(1.02312 0.0436361 0)
(1.02582 0.0452483 0)
(1.02843 0.0465213 0)
(1.03111 0.0477274 0)
(1.0336 0.0485402 0)
(1.03621 0.0494335 0)
(1.0385 0.0497948 0)
(1.04104 0.0505299 0)
(1.00001 0.00227284 0)
(1.00041 0.00664177 0)
(1.00116 0.0107522 0)
(1.00216 0.0146077 0)
(1.00344 0.018257 0)
(1.00492 0.021676 0)
(1.00664 0.0249029 0)
(1.00853 0.0278917 0)
(1.01061 0.0306847 0)
(1.01281 0.0332194 0)
(1.01516 0.0355568 0)
(1.01756 0.0376166 0)
(1.02005 0.0394938 0)
(1.02253 0.0410785 0)
(1.02508 0.0425208 0)
(1.02754 0.043652 0)
(1.03005 0.0447161 0)
(1.03238 0.0454246 0)
(1.03481 0.0462011 0)
(1.03693 0.0465001 0)
(1.0393 0.0471322 0)
(1.00001 0.00217874 0)
(1.00042 0.00637076 0)
(1.00116 0.0103081 0)
(1.00217 0.0139913 0)
(1.00344 0.017461 0)
(1.00492 0.0206961 0)
(1.00661 0.0237302 0)
(1.00846 0.0265246 0)
(1.01048 0.029118 0)
(1.01261 0.0314581 0)
(1.01486 0.0336009 0)
(1.01715 0.0354788 0)
(1.01952 0.0371781 0)
(1.02187 0.0386046 0)
(1.02427 0.0398933 0)
(1.02657 0.0408972 0)
(1.02892 0.0418345 0)
(1.0311 0.0424506 0)
(1.03336 0.0431236 -2.12136e-29)
(1.03533 0.0433685 1.6441e-30)
(1.03752 0.0439096 2.22807e-29)
(1.00001 0.00208227 0)
(1.00042 0.0060925 0)
(1.00116 0.00985342 0)
(1.00216 0.0133624 0)
(1.00342 0.0166534 0)
(1.00487 0.0197076 0)
(1.00653 0.022555 0)
(1.00833 0.025163 0)
(1.01029 0.0275674 0)
(1.01234 0.0297249 0)
(1.01449 0.0316871 0)
(1.01667 0.0333972 0)
(1.01892 0.0349339 0)
(1.02114 0.0362166 0)
(1.02339 0.0373668 0)
(1.02555 0.0382565 0)
(1.02775 0.0390806 0)
(1.02978 0.0396149 0)
(1.03188 0.0401963 0)
(1.03371 0.0403946 0)
(1.03574 0.0408554 0)
(1.00001 0.00198411 0)
(1.00041 0.00580893 0)
(1.00114 0.00939113 0)
(1.00214 0.0127253 0)
(1.00337 0.0158392 0)
(1.0048 0.0187163 0)
(1.00642 0.0213831 0)
(1.00816 0.023813 0)
(1.01005 0.026039 0)
(1.01201 0.0280254 0)
(1.01407 0.0298201 0)
(1.01614 0.0313758 0)
(1.01827 0.0327639 0)
(1.02035 0.0339162 0)
(1.02247 0.0349414 0)
(1.02449 0.0357289 0)
(1.02654 0.0364521 0)
(1.02843 0.0369142 0)
(1.03038 0.0374147 0)
(1.03207 0.0375726 0)
(1.03396 0.0379628 0)
(1.00001 0.00188487 0)
(1.0004 0.00552193 0)
(1.00112 0.00892421 0)
(1.0021 0.0120837 0)
(1.00331 0.0150229 0)
(1.0047 0.0177272 0)
(1.00627 0.0202202 0)
(1.00795 0.0224802 0)
(1.00977 0.0245379 0)
(1.01164 0.0263645 0)
(1.0136 0.0280039 0)
(1.01556 0.0294176 0)
(1.01756 0.0306703 0)
(1.01953 0.0317043 0)
(1.02151 0.032617 0)
(1.0234 0.0333129 0)
(1.02531 0.0339463 0)
(1.02706 0.0343447 0)
(1.02888 0.0347739 0)
(1.03044 0.0348972 0)
(1.03218 0.0352254 -1.36281e-29)
(1.00001 0.00178518 0)
(1.00039 0.0052333 0)
(1.0011 0.00845548 0)
(1.00205 0.0114415 0)
(1.00323 0.014209 0)
(1.00458 0.0167451 0)
(1.00609 0.0190711 0)
(1.00771 0.0211695 0)
(1.00945 0.0230687 0)
(1.01123 0.024746 0)
(1.01309 0.026242 0)
(1.01494 0.0275253 0)
(1.01683 0.0286545 0)
(1.01867 0.0295813 0)
(1.02053 0.0303929 0)
(1.02229 0.0310069 0)
(1.02406 0.0315605 0)
(1.02569 0.0319027 0)
(1.02737 0.0322691 0)
(1.02883 0.032363 0)
(1.03043 0.0326368 0)
(1.00001 0.0016856 0)
(1.00038 0.0049447 0)
(1.00107 0.00798752 0)
(1.00199 0.0108018 0)
(1.00313 0.0134013 0)
(1.00444 0.0157744 0)
(1.00589 0.0179403 0)
(1.00745 0.0198851 0)
(1.0091 0.0216354 0)
(1.0108 0.0231736 0)
(1.01255 0.024537 0)
(1.0143 0.0257005 0)
(1.01607 0.0267173 0)
(1.0178 0.0275471 0)
(1.01953 0.0282678 0)
(1.02117 0.0288087 0)
(1.02282 0.0292914 0)
(1.02433 0.0295844 0)
(1.02589 0.0298957 0)
(1.02723 0.0299645 -5.16175e-30)
(1.02871 0.0301909 5.49354e-30)
(1.00001 0.00158667 0)
(1.00037 0.00465767 0)
(1.00103 0.00752273 0)
(1.00193 0.0101679 0)
(1.00303 0.0126034 0)
(1.00428 0.0148189 0)
(1.00567 0.0168315 0)
(1.00716 0.0186308 0)
(1.00873 0.0202413 0)
(1.01034 0.0216498 0)
(1.01199 0.0228908 0)
(1.01364 0.0239445 0)
(1.0153 0.0248591 0)
(1.01692 0.0256012 0)
(1.01853 0.0262402 0)
(1.02006 0.026716 0)
(1.02159 0.0271358 0)
(1.02299 0.0273856 0)
(1.02443 0.0276487 -9.65568e-30)
(1.02567 0.0276964 1.02772e-29)
(1.02704 0.0278817 0)
(1.00001 0.00148886 0)
(1.00036 0.00437361 0)
(1.00099 0.00706324 0)
(1.00186 0.00954247 0)
(1.00291 0.0118184 0)
(1.00411 0.0138818 0)
(1.00544 0.0157481 0)
(1.00686 0.0174095 0)
(1.00834 0.018889 0)
(1.00987 0.0201769 0)
(1.01142 0.0213049 0)
(1.01297 0.022258 0)
(1.01452 0.0230796 0)
(1.01603 0.0237424 0)
(1.01753 0.0243083 0)
(1.01896 0.024726 0)
(1.02037 0.0250903 0)
(1.02167 0.0253023 0)
(1.023 0.0255233 0)
(1.02415 0.0255535 0)
(1.02541 0.0257032 -8.04831e-30)
(1.00001 0.00139259 0)
(1.00034 0.00409375 0)
(1.00095 0.00661096 0)
(1.00178 0.00892789 0)
(1.00279 0.011049 0)
(1.00394 0.0129661 0)
(1.0052 0.0146929 0)
(1.00654 0.016224 0)
(1.00795 0.0175806 0)
(1.00938 0.0187563 0)
(1.01085 0.0197802 0)
(1.0123 0.0206411 0)
(1.01375 0.0213783 0)
(1.01516 0.0219695 0)
(1.01655 0.0224698 0)
(1.01787 0.0228358 0)
(1.01919 0.023151 0)
(1.02039 0.0233301 0)
(1.02161 0.0235146 0)
(1.02268 0.0235303 0)
(1.02383 0.0236495 0)
(1.00001 0.00129823 0)
(1.00033 0.00381918 0)
(1.00091 0.00616754 0)
(1.0017 0.00832625 0)
(1.00266 0.0102976 0)
(1.00375 0.012074 0)
(1.00495 0.0136681 0)
(1.00622 0.015076 0)
(1.00755 0.0163176 0)
(1.0089 0.017389 0)
(1.01027 0.0183171 0)
(1.01163 0.0190935 0)
(1.01298 0.019754 0)
(1.01429 0.0202805 0)
(1.01559 0.0207222 0)
(1.01682 0.0210423 0)
(1.01803 0.0213144 0)
(1.01914 0.0214649 0)
(1.02027 0.0216178 0)
(1.02125 0.0216216 0)
(1.02231 0.0217147 0)
(1.00001 0.00120611 0)
(1.00031 0.0035508 0)
(1.00087 0.00573439 0)
(1.00162 0.00773931 0)
(1.00253 0.00956598 0)
(1.00357 0.0112077 0)
(1.0047 0.0126754 0)
(1.0059 0.0139671 0)
(1.00715 0.0151011 0)
(1.00842 0.0160757 0)
(1.0097 0.0169153 0)
(1.01097 0.0176145 0)
(1.01223 0.0182052 0)
(1.01345 0.0186735 0)
(1.01466 0.0190627 0)
(1.01579 0.0193421 0)
(1.01691 0.0195762 0)
(1.01794 0.019702 0)
(1.01898 0.0198276 1.27594e-29)
(1.01989 0.019822 -4.64702e-31)
(1.02086 0.019893 -1.39591e-29)
(1.00001 0.00111647 0)
(1.00029 0.00328938 0)
(1.00082 0.00531265 0)
(1.00153 0.00716848 0)
(1.0024 0.00885577 0)
(1.00338 0.0103684 0)
(1.00446 0.0117161 0)