/*--------------------------------*- C++ -*----------------------------------*\
  =========                 |
  \\      /  F ield         | OpenFOAM: The Open Source CFD Toolbox
   \\    /   O peration     | Website:  https://openfoam.org
    \\  /    A nd           | Version:  7
     \\/     M anipulation  |
\*---------------------------------------------------------------------------*/
FoamFile
{
    version     2.0;
    format      ascii;
    class       surfaceScalarField;
    location    "60";
    object      phi;
}
// * * * * * * * * * * * * * * * * * * * * * * * * * * * * * * * * * * * * * //

dimensions      [0 3 -1 0 0 0 0];

internalField   nonuniform List<scalar> 
14031
(
0.000748235
0.00479021
-0.00486493
0.000807962
0.00627377
-0.0063335
0.000849326
0.00739543
-0.0074368
0.00087082
0.00815895
-0.00818044
0.000869701
0.0086242
-0.00862309
0.000839835
0.00894118
-0.00891132
0.000780851
0.00929423
-0.00923525
0.000711775
0.00965473
-0.00958565
0.000665952
0.00961504
-0.00956921
0.000663307
0.00868266
-0.00868002
0.000698328
0.00674591
-0.00678093
0.000757659
0.00407376
-0.00413309
0.000831347
0.00103857
-0.00111225
0.00091013
-0.00198501
0.00190623
0.000984297
-0.00465095
0.00457678
0.00104413
-0.00672423
0.00666439
0.00108272
-0.00816033
0.00812174
0.00110192
-0.00902794
0.00900873
0.00110619
-0.00936899
0.00936472
0.00108733
-0.00935821
0.00937706
0.0010334
-0.00942995
0.00948388
0.000955287
-0.00979895
0.00987706
0.000887367
-0.00998412
0.010052
0.000857503
-0.009186
0.00921586
0.000869493
-0.0070714
0.00705941
0.000913507
-0.00396309
0.00391908
0.000976947
-0.000486146
0.000422706
0.00104532
0.00274544
-0.00281381
0.00533913
-0.00539723
0.000741445
0.00471337
0.000803208
0.00621201
0.000846441
0.0073522
0.000869443
0.00813595
0.000869135
0.00862451
0.00083952
0.0089708
0.000781245
0.00935251
0.000714352
0.00972162
0.000671647
0.00965774
0.000671207
0.0086831
0.000706706
0.00671041
0.00076538
0.00401508
0.000837829
0.000966117
0.00091501
-0.00206219
0.000987451
-0.00472339
0.00104574
-0.00678252
0.00108295
-0.00819753
0.00110076
-0.00904575
0.00110415
-0.00937238
0.00108545
-0.00933952
0.001032
-0.00937649
0.000953449
-0.0097204
0.000884152
-0.00991483
0.000853145
-0.00915499
0.000864921
-0.00708317
0.000909409
-0.00400758
0.000973619
-0.000550356
0.00104277
0.00267629
0.00528031
0.000734575
0.00463445
0.000798365
0.00614822
0.000843472
0.00730709
0.000867984
0.00811143
0.000868499
0.008624
0.000839218
0.00900008
0.000781806
0.00940992
0.000717227
0.0097862
0.000677621
0.00969735
0.000679254
0.00868147
0.000715121
0.00667454
0.000773075
0.00395713
0.000844243
0.00089495
0.000919786
-0.00213774
0.000990469
-0.00479407
0.00104721
-0.00683926
0.00108305
-0.00823337
0.0010995
-0.0090622
0.00110201
-0.00937488
0.00108349
-0.009321
0.0010306
-0.0093236
0.000951699
-0.0096415
0.000881042
-0.00984417
0.000848831
-0.00912278
0.000860328
-0.00709467
0.000905248
-0.0040525
0.000970196
-0.000615304
0.00104011
0.00260638
0.00522078
0.000727629
0.00455347
0.000793435
0.00608241
0.000840419
0.00726011
0.000866441
0.00808541
0.000867797
0.00862264
0.000838937
0.00902894
0.000782542
0.00946632
0.000720395
0.00984835
0.000683861
0.00973388
0.000687437
0.0086779
0.000723565
0.00663841
0.000780741
0.00389995
0.000850585
0.000825105
0.000924459
-0.00221161
0.000993353
-0.00486297
0.00104853
-0.00689444
0.00108303
-0.00826787
0.00109814
-0.00907731
0.00109977
-0.00937651
0.00108144
-0.00930267
0.00102918
-0.00927134
0.000950034
-0.00956235
0.000878037
-0.00977217
0.000844566
-0.00908931
0.000855718
-0.00710582
0.000901025
-0.00409781
0.000966675
-0.000680954
0.00103732
0.00253573
0.00516052
0.000720608
0.00447046
0.00078842
0.0060146
0.000837282
0.00721125
0.000864812
0.00805788
0.000867032
0.00862042
0.000838684
0.00905729
0.000783458
0.00952154
0.000723853
0.00990795
0.000690352
0.00976738
0.000695741
0.00867251
0.000732033
0.00660212
0.000788372
0.00384361
0.000856853
0.000756624
0.000929025
-0.00228378
0.000996103
-0.00493004
0.0010497
-0.00694803
0.00108288
-0.00830106
0.00109669
-0.00909112
0.00109743
-0.00937724
0.0010793
-0.00928454
0.00102775
-0.0092198
0.000948452
-0.00948305
0.000875143
-0.00969886
0.000840353
-0.00905452
0.00085109
-0.00711656
0.000896738
-0.00414346
0.000963055
-0.000747271
0.00103441
0.00246438
0.00509953
0.000713515
0.00438546
0.000783321
0.0059448
0.000834061
0.00716051
0.000863098
0.00802884
0.000866206
0.00861731
0.000838467
0.00908503
0.00078456
0.00957545
0.000727595
0.00996492
0.000697079
0.0097979
0.000704156
0.00866543
0.000740518
0.00656576
0.000795965
0.00378817
0.000863043
0.000689546
0.000933484
-0.00235422
0.000998717
-0.00499528
0.00105071
-0.00700003
0.00108261
-0.00833295
0.00109515
-0.00910366
0.001095
-0.00937709
0.00107706
-0.0092666
0.0010263
-0.00916904
0.000946951
-0.0094037
0.000872361
-0.00962427
0.000836197
-0.00901836
0.000846447
-0.00712681
0.000892387
-0.0041894
0.000959335
-0.000814218
0.00103137
0.00239235
0.00503781
0.000706351
0.00429848
0.000778139
0.00587301
0.000830754
0.00710789
0.000861295
0.0079983
0.000865321
0.00861329
0.000838291
0.00911206
0.000785851
0.00962789
0.000731614
0.0100192
0.000704029
0.00982548
0.000712669
0.00865679
0.000749014
0.00652941
0.000803515
0.00373366
0.000869151
0.00062391
0.000937833
-0.00242291
0.0010012
-0.00505864
0.00105158
-0.00705041
0.0010822
-0.00836357
0.00109351
-0.00911497
0.00109247
-0.00937604
0.00107473
-0.00924887
0.00102483
-0.00911914
0.000945528
-0.0093244
0.000869695
-0.00954844
0.000832104
-0.00898077
0.00084179
-0.00713649
0.000887972
-0.00423558
0.000955513
-0.000881759
0.00102821
0.00231965
0.00497534
0.000699116
0.00420955
0.000772874
0.00579925
0.000827359
0.00705341
0.000859403
0.00796626
0.00086438
0.00860831
0.000838162
0.00913827
0.000787333
0.00967872
0.000735903
0.0100706
0.000711185
0.0098502
0.000721268
0.00864671
0.000757512
0.00649317
0.000811017
0.00368016
0.000875172
0.000559755
0.00094207
-0.0024898
0.00100354
-0.00512011
0.00105229
-0.00709916
0.00108166
-0.00839295
0.00109177
-0.00912507
0.00108984
-0.00937411
0.00107231
-0.00923134
0.00102332
-0.00907015
0.000944179
-0.00924526
0.000867146
-0.00947141
0.000828076
-0.0089417
0.000837124
-0.00714554
0.000883491
-0.00428195
0.000951588
-0.000949857
0.00102493
0.0022463
0.00491212
0.000691811
0.00411871
0.000767525
0.00572354
0.000823873
0.00699706
0.000857419
0.00793271
0.000863385
0.00860235
0.000838086
0.00916357
0.000789008
0.00972779
0.00074045
0.0101191
0.000718534
0.00987212
0.000729943
0.0086353
0.000766008
0.0064571
0.000818466
0.0036277
0.000881103
0.000497118
0.000946192
-0.00255489
0.00100575
-0.00517967
0.00105286
-0.00714627
0.00108099
-0.00842108
0.00108994
-0.00913402
0.00108712
-0.0093713
0.00106978
-0.00921399
0.00102178
-0.00902215
0.000942898
-0.00916638
0.000864716
-0.00939322
0.000824118
-0.0089011
0.000832447
-0.00715387
0.000878944
-0.00432844
0.000947561
-0.00101847
0.00102153
0.00217233
0.00484814
0.000684436
0.00402599
0.000762091
0.00564588
0.000820293
0.00693886
0.000855342
0.00789766
0.000862337
0.00859535
0.000838066
0.00918784
0.000790875
0.00977499
0.000745247
0.0101648
0.000726058
0.00989131
0.000738682
0.00862267
0.000774494
0.00642129
0.000825857
0.00357634
0.000886939
0.000436037
0.000950195
-0.00261815
0.00100782
-0.0052373
0.00105327
-0.00719172
0.00108018
-0.008448
0.00108801
-0.00914185
0.00108431
-0.0093676
0.00106716
-0.00919684
0.00102019
-0.00897518
0.000941684
-0.00908787
0.000862407
-0.00931395
0.000820235
-0.00885892
0.000827765
-0.0071614
0.000874332
-0.00437501
0.00094343
-0.00108757
0.00101801
0.00209775
0.00478337
0.000676989
0.0039314
0.000756569
0.0055663
0.000816617
0.00687881
0.000853168
0.00786111
0.00086124
0.00858728
0.000838107
0.00921098
0.000792933
0.00982016
0.000750281
0.0102074
0.000733743
0.00990784
0.000747474
0.00860894
0.000782963
0.0063858
0.000833185
0.00352612
0.000892675
0.000376546
0.000954077
-0.00267955
0.00100976
-0.00529298
0.00105353
-0.00723548
0.00107924
-0.00847371
0.00108598
-0.0091486
0.00108141
-0.00936302
0.00106443
-0.00917985
0.00101855
-0.0089293
0.000940528
-0.00900985
0.000860219
-0.00923364
0.000816432
-0.00881514
0.000823079
-0.00716805
0.000869656
-0.00442159
0.000939195
-0.00115711
0.00101437
0.00202258
0.00471782
0.000669467
0.00383499
0.000750957
0.00548481
0.000812839
0.00681693
0.000850896
0.00782306
0.000860093
0.00857808
0.000838211
0.00923286
0.000795181
0.00986319
0.000755541
0.0102471
0.000741573
0.00992181
0.000756308
0.00859421
0.000791409
0.0063507
0.000840444
0.00347708
0.000898308
0.000318682
0.000957835
-0.00273908
0.00101155
-0.0053467
0.00105363
-0.00727756
0.00107815
-0.00849824
0.00108386
-0.0091543
0.00107842
-0.00935758
0.00106159
-0.00916303
0.00101685
-0.00888456
0.000939427
-0.00893243
0.000858154
-0.00915237
0.000812712
-0.0087697
0.000818393
-0.00717373
0.000864915
-0.00446811
0.000934857
-0.00122705
0.00101061
0.00194683
0.00465146
0.00066187
0.00373678
0.000745251
0.00540143
0.000808956
0.00675322
0.000848522
0.00778349
0.0008589
0.0085677
0.000838381
0.00925338
0.000797613
0.00990396
0.000761013
0.0102837
0.000749533
0.00993329
0.000765173
0.00857857
0.000799824
0.00631605
0.000847629
0.00342928
0.000903832
0.000262479
0.000961465
-0.00279671
0.00101321
-0.00539845
0.00105358
-0.00731793
0.00107693
-0.00852158
0.00108163
-0.00915901
0.00107533
-0.00935127
0.00105865
-0.00914634
0.00101509
-0.00884101
0.000938373
-0.00885571
0.000856209
-0.0090702
0.000809081
-0.00872257
0.00081371
-0.00717836
0.000860111
-0.00451451
0.000930417
-0.00129736
0.00100673
0.00187052
0.00458428
0.000654192
0.0036368
0.000739446
0.00531618
0.000804962
0.00668771
0.000846046
0.0077424
0.00085766
0.00855609
0.000838618
0.00927242
0.000800225
0.00994235
0.000766684
0.0103172
0.000757607
0.00994237
0.000774058
0.00856212
0.000808202
0.00628191
0.000854735
0.00338274
0.000909243
0.000207971
0.000964963
-0.00285243
0.00101473
-0.00544821
0.00105338
-0.00735658
0.00107556
-0.00854376
0.00107931
-0.00916276
0.00107216
-0.00934412
0.00105559
-0.00912978
0.00101326
-0.00879867
0.000937359
-0.00877981
0.000854386
-0.00898723
0.000805542
-0.00867372
0.000809034
-0.00718185
0.000855245
-0.00456072
0.000925875
-0.00136799
0.00100274
0.00179366
0.00451627
0.000646431
0.00353507
0.000733539
0.00522907
0.000800853
0.00662039
0.000843464
0.00769979
0.000856375
0.00854318
0.000838923
0.00928987
0.000803011
0.00997826
0.000772539
0.0103477
0.000765779
0.00994913
0.000782953
0.00854494
0.000816534
0.00624833
0.000861756
0.00333752
0.000914538
0.000155189
0.000968326
-0.00290622
0.0010161
-0.00549599
0.00105302
-0.0073935
0.00107404
-0.00856477
0.00107688
-0.0091656
0.00106889
-0.00933614
0.00105243
-0.00911332
0.00101135
-0.00875759
0.000936378
-0.00870484
0.000852683
-0.00890353
0.0008021
-0.00862314
0.000804368
-0.00718412
0.00085032
-0.00460667
0.000921233
-0.0014389
0.000998638
0.00171625
0.00444742
0.000638583
0.00343163
0.000727524
0.00514013
0.000796624
0.00655129
0.000840773
0.00765565
0.000855045
0.00852891
0.000839296
0.00930562
0.000805965
0.0100116
0.000778564
0.0103751
0.000774034
0.00995366
0.000791847
0.00852713
0.000824815
0.00621536
0.000868688
0.00329365
0.000919711
0.000104166
0.000971551
-0.00295806
0.00101733
-0.00554177
0.00105251
-0.00742868
0.00107237
-0.00858463
0.00107434
-0.00916756
0.00106554
-0.00932735
0.00104916
-0.00909693
0.00100935
-0.00871779
0.000935422
-0.00863091
0.000851098
-0.00881921
0.000798759
-0.0085708
0.000799717
-0.00718508
0.000845336
-0.00465229
0.000916494
-0.00151006
0.000994427
0.00163832
0.00437771
0.000630642
0.00332652
0.000721396
0.00504937
0.000792269
0.00648042
0.000837971
0.00760994
0.000853671
0.00851321
0.000839735
0.00931956
0.000809078
0.0100423
0.000784742
0.0103994
0.000782357
0.00995605
0.000800729
0.00850876
0.000833037
0.00618305
0.000875525
0.00325116
0.000924759
5.49319e-05
0.000974634
-0.00300794
0.00101841
-0.00558555
0.00105185
-0.00746211
0.00107056
-0.00860335
0.00107169
-0.0091687
0.0010621
-0.00931776
0.00104577
-0.0090806
0.00100727
-0.00867928
0.000934483
-0.00855813
0.000849629
-0.00873436
0.000795523
-0.0085167
0.000795084
-0.00718464
0.000840297
-0.0046975
0.000911658
-0.00158142
0.000990109
0.00155987
0.00430713
0.000622603
0.00321977
0.000715147
0.00495683
0.000787783
0.00640778
0.000835056
0.00756267
0.000852252
0.00849601
0.00084024
0.00933157
0.000812342
0.0100701
0.000791058
0.0104207
0.000790732
0.00995637
0.00080959
0.0084899
0.000841192
0.00615145
0.000882261
0.00321009
0.000929677
7.51579e-06
0.00097757
-0.00305583
0.00101935
-0.00562733
0.00105103
-0.00749379
0.00106859
-0.00862091
0.00106894
-0.00916904
0.00105857
-0.00930739
0.00104227
-0.00906429
0.00100508
-0.0086421
0.000933553
-0.00848659
0.000848272
-0.00864907
0.000792395
-0.00846082
0.000790475
-0.00718272
0.000835206
-0.00474223
0.000906729
-0.00165294
0.000985688
0.00148091
0.00423567
0.000614462
0.00311141
0.000708773
0.00486252
0.000783161
0.0063334
0.000832025
0.00751381
0.00085079
0.00847725
0.000840807
0.00934155
0.000815746
0.0100952
0.000797496
0.0104389
0.000799145
0.00995472
0.000818417
0.00847063
0.000849273
0.00612059
0.000888892
0.00317047
0.000934462
-3.80544e-05
0.000980358
-0.00310172
0.00102013
-0.0056671
0.00105005
-0.00752371
0.00106648
-0.00863734
0.00106607
-0.00916864
0.00105496
-0.00929628
0.00103865
-0.00904798
0.0010028
-0.00860625
0.000932621
-0.00841642
0.000847025
-0.00856348
0.00078938
-0.00840317
0.000785894
-0.00717923
0.000830065
-0.00478641
0.000901708
-0.00172459
0.000981165
0.00140145
0.00416332
0.000606213
0.0030015
0.000702267
0.00476646
0.000778397
0.00625727
0.000828876
0.00746333
0.000849282
0.00845684
0.000841435
0.0093494
0.00081928
0.0101174
0.00080404
0.0104542
0.000807582
0.00995118
0.000827202
0.00845101
0.000857272
0.00609052
0.000895411
0.00313233
0.000939109
-8.17524e-05
0.000982993
-0.00314561
0.00102077
-0.00570488
0.00104892
-0.00755186
0.0010642
-0.00865263
0.00106309
-0.00916752
0.00105126
-0.00928445
0.00103492
-0.00903165
0.0010004
-0.00857172
0.00093168
-0.0083477
0.000845883
-0.00847768
0.00078648
-0.00834377
0.000781346
-0.0071741
0.000824877
-0.00482994
0.0008966
-0.00179631
0.000976545
0.00132151
0.00409007
0.000597851
0.00289007
0.000695623
0.00466869
0.000773487
0.0061794
0.000825607
0.00741121
0.000847728
0.00843472
0.000842118
0.00935501
0.000822933
0.0101366
0.000810672
0.0104664
0.000816026
0.00994583
0.000835934
0.0084311
0.000865182
0.00606127
0.000901815
0.0030957
0.000943616
-0.000123553
0.000985471
-0.00318746
0.00102124
-0.00574065
0.00104763
-0.00757824
0.00106177
-0.00866677
0.00105999
-0.00916573
0.00104746
-0.00927192
0.00103108
-0.00901526
0.00099788
-0.00853852
0.000930718
-0.00828054
0.000844842
-0.00839181
0.000783698
-0.00828263
0.000776837
-0.00716724
0.000819647
-0.00487275
0.000891407
-0.00186807
0.00097183
0.00124108
0.00401592
0.000589373
0.00277718
0.000688835
0.00456923
0.000768426
0.00609981
0.000822216
0.00735742
0.000846128
0.00841081
0.000842852
0.00935828
0.000826692
0.0101527
0.000817377
0.0104758
0.000824463
0.00993874
0.000844601
0.00841096
0.000872995
0.00603288
0.000908098
0.0030606
0.000947979
-0.000163434
0.000987791
-0.00322727
0.00102156
-0.00577442
0.00104619
-0.00760286
0.00105919
-0.00867977
0.00105676
-0.0091633
0.00104358
-0.00925874
0.00102711
-0.00899879
0.000995239
-0.00850665
0.000929725
-0.00821503
0.000843895
-0.00830598
0.000781038
-0.00821977
0.00077237
-0.00715857
0.000814377
-0.00491475
0.000886132
-0.00193983
0.000967023
0.00116019
0.00394086
0.000580775
0.00266289
0.000681898
0.00446811
0.00076321
0.0060185
0.000818701
0.00730193
0.000844479
0.00838503
0.000843633
0.00935913
0.000830545
0.0101658
0.000824137
0.0104822
0.00083288
0.00993
0.000853194
0.00839065
0.000880704
0.00600537
0.000914255
0.00302705
0.000952194
-0.000201373
0.000989948
-0.00326503
0.00102172
-0.0058062
0.00104458
-0.00762572
0.00105644
-0.00869164
0.00105342
-0.00916028
0.00103961
-0.00924494
0.00102304
-0.00898222
0.00099247
-0.00847608
0.000928693
-0.00815125
0.000843037
-0.00822032
0.0007785
-0.00815523
0.000767953
-0.00714802
0.000809073
-0.00495587
0.000880779
-0.00201153
0.000962128
0.00107884
0.00386488
0.000572054
0.00254726
0.000674807
0.00436535
0.000757836
0.00593547
0.00081506
0.0072447
0.000842781
0.00835731
0.000844453
0.00935746
0.000834479
0.0101758
0.000830935
0.0104857
0.000841262
0.00991967
0.000861702
0.00837021
0.000888301
0.00597877
0.000920281
0.00299507
0.000956258
-0.000237351
0.00099194
-0.00330071
0.00102172
-0.00583598
0.00104282
-0.00764682
0.00105354
-0.00870235
0.00104994
-0.00915668
0.00103555
-0.00923055
0.00101885
-0.00896551
0.000989567
-0.0084468
0.00092761
-0.00808929
0.000842261
-0.00813497
0.000776087
-0.00808906
0.000763589
-0.00713553
0.000803738
-0.00499602
0.000875351
-0.00208315
0.000957146
0.00099705
0.003788
0.000563209
0.00243037
0.000667559
0.004261
0.000752299
0.00585073
0.000811293
0.00718571
0.00084103
0.00832757
0.000845306
0.00935318
0.00083848
0.0101826
0.000837755
0.0104864
0.000849595
0.00990783
0.000870114
0.00834969
0.000895778
0.00595311
0.000926171
0.00296468
0.000960169
-0.000271349
0.000993764
-0.00333431
0.00102156
-0.00586377
0.0010409
-0.00766617
0.00105048
-0.00871193
0.00104634
-0.00915254
0.0010314
-0.00921562
0.00101454
-0.00894864
0.000986523
-0.00841878
0.000926465
-0.00802923
0.00084156
-0.00805007
0.0007738
-0.0080213
0.000759285
-0.00712101
0.000798376
-0.00503511
0.000869852
-0.00215462
0.000952081
0.00091482
0.0037102
0.000554242
0.00231231
0.000660151
0.00415509
0.000746599
0.00576428
0.000807397
0.00712491
0.000839226
0.00829574
0.000846186
0.00934622
0.000842534
0.0101863
0.000844581
0.0104844
0.000857865
0.00989455
0.000878421
0.00832913
0.000903128
0.0059284
0.000931919
0.00293588
0.000963923
-0.000303352
0.000995417
-0.0033658
0.00102122
-0.00588958
0.00103882
-0.00768377
0.00104725
-0.00872035
0.0010426
-0.00914789
0.00102716
-0.00920018
0.00101012
-0.0089316
0.000983336
-0.008392
0.000925248
-0.00797115
0.000840925
-0.00796574
0.00077164
-0.00795201
0.000755045
-0.00710442
0.000792992
-0.00507306
0.000864284
-0.00222591
0.000946936
0.000832169
0.00363149
0.000545154
0.00219317
0.000652582
0.00404767
0.000740733
0.00567613
0.000803372
0.00706227
0.000837365
0.00826175
0.000847084
0.0093365
0.000846626
0.0101867
0.000851394
0.0104796
0.000866059
0.00987988
0.000886612
0.00830858
0.000910343
0.00590467
0.000937523
0.0029087
0.000967517
-0.000333347
0.000996897
-0.00339518
0.00102072
-0.0059134
0.00103658
-0.00769963
0.00104386
-0.00872763
0.00103873
-0.00914276
0.00102283
-0.00918428
0.00100559
-0.00891437
0.00098
-0.00836641
0.000923949
-0.0079151
0.000840349
-0.00788214
0.000769608
-0.00788127
0.000750876
-0.00708568
0.00078759
-0.00510977
0.000858652
-0.00229698
0.000941712
0.000749109
0.00355187
0.000535951
0.00207307
0.00064485
0.00393877
0.0007347
0.00558628
0.000799217
0.00699775
0.000835445
0.00822552
0.000847993
0.00932396
0.000850741
0.010184
0.00085818
0.0104722
0.000874163
0.0098639
0.000894677
0.00828807
0.000917416
0.00588193
0.000942976
0.00288314
0.000970949
-0.00036132
0.000998201
-0.00342243
0.00102004
-0.00593524
0.00103418
-0.00771377
0.00104031
-0.00873376
0.00103471
-0.00913716
0.0010184
-0.00916797
0.00100095
-0.00889691
0.000976511
-0.00834197
0.000922556
-0.00786114
0.000839821
-0.00779941
0.000767702
-0.00780916
0.000746782
-0.00706476
0.000782175
-0.00514517
0.000852957
-0.00236776
0.000936411
0.000665655
0.00347136
0.000526641
0.00195213
0.000636959
0.00382845
0.000728502
0.00549474
0.000794933
0.00693132
0.000833464
0.00818699
0.000848903
0.00930852
0.000854866
0.010178
0.000864922
0.0104621
0.000882163
0.00984666
0.000902605
0.00826762
0.000924339
0.0058602
0.000948274
0.00285921
0.000974217
-0.000387263
0.000999328
-0.00344754
0.00101919
-0.0059551
0.00103162
-0.0077262
0.0010366
-0.00873874
0.00103056
-0.00913112
0.00101387
-0.00915128
0.00099619
-0.00887923
0.000972866
-0.00831865
0.000921059
-0.00780933
0.000839332
-0.00771768
0.000765923
-0.00773575
0.000742768
-0.00704161
0.000776751
-0.00517915
0.000847204
-0.00243821
0.000931036
0.000581823
0.00338996
0.000517232
0.0018305
0.00062891
0.00371677
0.000722138
0.00540151
0.000790519
0.00686294
0.000831417
0.00814609
0.000849805
0.00929013
0.000858984
0.0101688
0.000871603
0.0104495
0.000890047
0.00982821
0.000910386
0.00824729
0.000931105
0.00583948
0.000953414
0.0028369
0.000977318
-0.000411167
0.00100027
-0.0034705
0.00101816
-0.00597299
0.00102889
-0.00773693
0.00103272
-0.00874257
0.00102626
-0.00912466
0.00100924
-0.00913426
0.000991324
-0.00886132
0.000969062
-0.00829639
0.000919447
-0.00775972
0.000838872
-0.00763711
0.000764268
-0.00766114
0.00073884
-0.00701618
0.000771323
-0.00521163
0.000841396
-0.00250828
0.000925588
0.000497631
0.00330768
0.000507739
0.00170833
0.00062071
0.0036038
0.000715612
0.00530661
0.000785975
0.00679258
0.000829302
0.00810276
0.00085069
0.00926874
0.000863081
0.0101564
0.000878209
0.0104344
0.000897803
0.00980862
0.000918011
0.00822708
0.000937708
0.00581978
0.000958392
0.00281621
0.000980251
-0.000433025
0.00100104
-0.00349129
0.00101695
-0.0059889
0.001026
-0.00774597
0.00102868
-0.00874525
0.00102181
-0.0091178
0.00100452
-0.00911697
0.000986351
-0.00884315
0.000965097
-0.00827514
0.00091771
-0.00771233
0.000838431
-0.00755783
0.000762736
-0.00758545
0.000735002
-0.00698845
0.000765897
-0.00524253
0.000835534
-0.00257792
0.000920068
0.000413097
0.00322454
0.000498178
0.000612365
0.00348961
0.000708926
0.00521005
0.000781303
0.0067202
0.000827116
0.00805695
0.000851549
0.00924431
0.000867141
0.0101408
0.000884723
0.0104168
0.000905416
0.00978793
0.00092547
0.00820702
0.00094414
0.00580111
0.000963204
0.00279715
0.000983013
-0.000452834
0.00100162
-0.0035099
0.00101556
-0.00600284
0.00102294
-0.00775335
0.00102447
-0.00874678
0.00101721
-0.00911054
0.000999686
-0.00909944
0.000981269
-0.00882473
0.000960969
-0.00825483
0.000915838
-0.0076672
0.000837996
-0.00747998
0.000761323
-0.00750878
0.00073126
-0.00695838
0.000760475
-0.00527174
0.000829622
-0.00264707
0.000914477
0.000328242
0.00314055
0.000603885
0.0033743
0.000702086
0.00511185
0.000776503
0.00664579
0.000824855
0.0080086
0.000852371
0.00921679
0.000871149
0.0101221
0.000891131
0.0103968
0.000912875
0.00976618
0.000932752
0.00818715
0.000950396
0.00578347
0.000967848
0.0027797
0.000985604
-0.000470591
0.00100202
-0.00352631
0.00101399
-0.00601481
0.00101971
-0.00775907
0.0010201
-0.00874717
0.00101246
-0.0091029
0.00099475
-0.00908173
0.000976081
-0.00880606
0.000956675
-0.00823543
0.000913822
-0.00762435
0.000837556
-0.00740372
0.000760027
-0.00743125
0.000727617
-0.00692597
0.000755063
-0.00529919
0.000823662
-0.00271567
0.000908816
0.000243088
0.00305573
0.000595281
0.00325795
0.000695097
0.00501203
0.000771578
0.0065693
0.000822515
0.00795766
0.000853146
0.00918616
0.00087509
0.0101001
0.000897417
0.0103745
0.000920168
0.00974343
0.00093985
0.00816747
0.00095647
0.00576685
0.00097232
0.00276385
0.000988022
-0.000486293
0.00100223
-0.00354052
0.00101223
-0.00602481
0.00101632
-0.00776316
0.00101556
-0.00874642
0.00100756
-0.00909489
0.000989705
-0.00906388
0.000970788
-0.00878715
0.000952215
-0.00821686
0.00091165
-0.00758378
0.000837098
-0.00732917
0.000758843
-0.00735299
0.000724078
-0.00689121
0.000749665
-0.00532478
0.000817656
-0.00278366
0.000903085
0.00015766
0.0029701
0.000586568
0.0031407
0.000687966
0.00491063
0.00076653
0.00649074
0.000820094
0.0079041
0.000853863
0.00915239
0.00087895
0.010075
0.000903567
0.0103499
0.000927283
0.00971972
0.000946753
0.008148
0.000962357
0.00575124
0.00097662
0.00274959
0.000990267
-0.00049994
0.00100226
-0.00355251
0.00101028
-0.00603283
0.00101275
-0.00776563
0.00101087
-0.00874453
0.00100249
-0.00908652
0.000984549
-0.00904593
0.000965391
-0.00876799
0.000947589
-0.00819905
0.000909316
-0.00754551
0.000836612
-0.00725646
0.000757767
-0.00727415
0.000720646
-0.00685409
0.000744287
-0.00534842
0.000811608
-0.00285098
0.000897285
7.19829e-05
0.00288368
0.000577762
0.00302265
0.000680701
0.00480769
0.000761361
0.00641008
0.000817587
0.00784787
0.000854512
0.00911547
0.000882713
0.0100468
0.000909567
0.010323
0.000934208
0.00969507
0.000953453
0.00812875
0.000968052
0.00573664
0.000980746
0.00273689
0.000992338
-0.000511532
0.00100209
-0.00356226
0.00100814
-0.00603889
0.00100902
-0.0077665
0.001006
-0.00874152
0.000997274
-0.00907779
0.000979278
-0.00902794
0.000959891
-0.0087486
0.000942797
-0.00818196
0.000906808
-0.00750952
0.000836082
-0.00718574
0.000756792
-0.00719486
0.000717325
-0.00681462
0.000738933
-0.00537002
0.000805518
-0.00291756
0.000891415
-1.39138e-05
0.00279649
0.000568882
0.00290396
0.000673313
0.00470326
0.000756074
0.00632732
0.000814991
0.00778896
0.000855083
0.00907537
0.000886365
0.0100155
0.000915402
0.010294
0.000940932
0.00966954
0.000959942
0.00810974
0.000973554
0.00572303
0.0009847
0.00272575
0.000994236
-0.000521067
0.00100174
-0.00356977
0.00100581
-0.00604296
0.00100511
-0.0077658
0.00100097
-0.00873739
0.000991893
-0.00906871
0.000973891
-0.00900994
0.000954288
-0.008729
0.000937838
-0.00816551
0.000904121
-0.0074758
0.000835498
-0.00711711
0.000755914
-0.00711527
0.000714118
-0.00677282
0.000733606
-0.00538951
0.00079939
-0.00298335
0.000885476
-0.0001
0.00270855
0.000559951
0.00278478
0.000665813
0.0045974
0.000750674
0.00624246
0.000812302
0.00772733
0.000855566
0.00903211
0.000889892
0.00998122
0.00092106
0.0102628
0.000947444
0.00964316
0.000966213
0.00809097
0.00097886
0.00571038
0.000988482
0.00271612
0.000995961
-0.000528546
0.0010012
-0.00357501
0.00100329
-0.00604505
0.00100103
-0.00776353
0.000995784
-0.00873214
0.000986351
-0.00905928
0.000968383
-0.00899197
0.000948585
-0.0087092
0.000932715
-0.00814964
0.000901245
-0.00744433
0.000834845
-0.00705071
0.000755123
-0.00703555
0.000711029
-0.00672873
0.000728313
-0.0054068
0.000793224
-0.00304826
0.000879469
-0.000186245
0.00261991
0.000550993
0.00266529
0.000658214
0.00449018
0.000745163
0.00615551
0.000809518
0.00766297
0.000855948
0.00898568
0.00089328
0.00994389
0.000926528
0.0102296
0.000953732
0.00961596
0.000972259
0.00807244
0.00098397
0.00569867
0.000992097
0.002708
0.000997515
-0.000533965
0.00100047
-0.00357796
0.00100057
-0.00604516
0.000996768
-0.00775972
0.000990429
-0.0087258
0.000980647
-0.0090495
0.000962752
-0.00897407
0.00094278
-0.00868923
0.000927427
-0.00813429
0.000898174
-0.00741508
0.00083411
-0.00698665
0.000754413
-0.00695585
0.000708059
-0.00668237
0.000723057
-0.00542179
0.000787023
-0.00311222
0.000873392
-0.000272615
0.00253057
0.000542038
0.00254569
0.00065053
0.00438169
0.000739548
0.00606649
0.000806634
0.00759589
0.000856221
0.00893609
0.000896515
0.00990359
0.000931792
0.0101943
0.000959788
0.00958796
0.000978076
0.00805416
0.000988889
0.00568786
0.000995549
0.00270134
0.0009989
-0.000537316
0.000999546
-0.0035786
0.000997663
-0.00604328
0.000992334
-0.0077544
0.00098491
-0.00871838
0.000974779
-0.00903937
0.000956995
-0.00895629
0.000936876
-0.00866911
0.000921978
-0.00811939
0.000894901
-0.007388
0.000833279
-0.00692503
0.000753776
-0.00687635
0.000705211
-0.00663381
0.000717843
-0.00543443
0.000780788
-0.00317517
0.000867247
-0.000359074
0.00244058
0.000533118
0.00242618
0.000642778
0.00427203
0.000733835
0.00597543
0.000803647
0.00752607
0.000856374
0.00888337
0.000899584
0.00986038
0.000936841
0.010157
0.0009656
0.0095592
0.000983661
0.0080361
0.000993622
0.0056779
0.000998848
0.00269611
0.00100012
-0.000538588
0.000998435
-0.00357692
0.000994554
-0.0060394
0.000987723
-0.00774756
0.000979228
-0.00870988
0.000968748
-0.00902889
0.000951108
-0.00893865
0.000930872
-0.00864887
0.000916369
-0.00810489
0.000891421
-0.00736305
0.00083234
-0.00686595
0.000753202
-0.00679721