/*--------------------------------*- C++ -*----------------------------------*\
  =========                 |
  \\      /  F ield         | OpenFOAM: The Open Source CFD Toolbox
   \\    /   O peration     | Website:  https://openfoam.org
    \\  /    A nd           | Version:  7
     \\/     M anipulation  |
\*---------------------------------------------------------------------------*/
FoamFile
{
    version     2.0;
    format      ascii;
    class       volVectorField;
    location    "160";
    object      U;
}
// * * * * * * * * * * * * * * * * * * * * * * * * * * * * * * * * * * * * * //

dimensions      [0 1 -1 0 0 0 0];

internalField   nonuniform List<vector> 
4575
(
(0.881253 0.491426 -5.32454e-23)
(0.884424 0.492364 -1.34891e-23)
(0.866855 0.50625 2.69187e-23)
(0.827995 0.524285 4.8255e-24)
(0.782472 0.50093 -2.70925e-23)
(0.749396 0.396874 9.83064e-23)
(0.737676 0.21865 5.85614e-23)
(0.747874 0.0121222 3.48737e-24)
(0.775451 -0.170719 2.68056e-23)
(0.811867 -0.298906 -1.4897e-23)
(0.845748 -0.372128 6.02429e-23)
(0.864034 -0.411798 7.71653e-24)
(0.857043 -0.438342 1.17246e-23)
(0.825843 -0.44971 -5.9319e-23)
(0.784334 -0.421632 -3.50687e-23)
(0.751844 -0.3317 -3.12519e-24)
(0.739517 -0.186019 -2.62571e-23)
(0.749872 -0.0175825 -4.03207e-23)
(0.778001 0.132719 3.90371e-23)
(0.809996 0.244058 -3.11877e-23)
(0.826317 0.319739 9.09574e-24)
(0.819081 0.369112 9.70284e-24)
(0.795514 0.383751 9.79746e-24)
(0.771965 0.343619 -1.30291e-23)
(0.878697 0.490322 -8.77536e-23)
(0.883228 0.492982 -1.77576e-22)
(0.866507 0.508845 7.85743e-23)
(0.828422 0.528149 -1.10022e-22)
(0.784011 0.504546 4.73848e-23)
(0.752032 0.399036 1.5202e-22)
(0.741006 0.218959 -1.03391e-22)
(0.751458 0.0107405 8.10994e-23)
(0.778785 -0.173235 -3.92766e-23)
(0.814455 -0.3017 5.83548e-23)
(0.847461 -0.374182 8.16479e-23)
(0.865068 -0.412211 -3.96686e-23)
(0.857652 -0.43683 6.66495e-23)
(0.826107 -0.446921 -6.52105e-23)
(0.784064 -0.418876 8.1218e-23)
(0.751028 -0.330118 6.84727e-23)
(0.738549 -0.186064 4.70664e-23)
(0.749179 -0.0190799 3.30478e-23)
(0.777628 0.130509 -1.13611e-22)
(0.809698 0.242326 -7.3385e-24)
(0.825945 0.319381 -1.12995e-22)
(0.818746 0.370096 1.80644e-23)
(0.795311 0.385277 -4.21759e-23)
(0.771786 0.344806 -1.08121e-22)
(0.876219 0.489052 7.14073e-23)
(0.882122 0.493478 7.99808e-23)
(0.866276 0.511335 1.79121e-23)
(0.829015 0.531926 1.38257e-22)
(0.785732 0.508146 -3.25063e-22)
(0.754827 0.401298 6.87798e-23)
(0.744469 0.219464 -1.73936e-22)
(0.755164 0.00958849 -1.18383e-22)
(0.782238 -0.175533 -3.07566e-22)
(0.817152 -0.304319 2.0469e-22)
(0.849272 -0.376118 -2.02041e-22)
(0.866205 -0.412554 3.83679e-23)
(0.85838 -0.435277 6.95471e-23)
(0.826521 -0.444112 -8.92866e-23)
(0.783975 -0.416134 1.76112e-22)
(0.750392 -0.328608 -1.1389e-22)
(0.73774 -0.186238 2.41657e-22)
(0.748616 -0.0207197 1.45417e-22)
(0.777354 0.128189 9.89924e-23)
(0.80949 0.240526 9.31592e-24)
(0.825674 0.31898 1.67983e-22)
(0.818525 0.371052 -1.86168e-22)
(0.795224 0.386805 3.6224e-23)
(0.771718 0.346039 1.51906e-22)
(0.873817 0.487613 -2.4464e-22)
(0.881102 0.493846 1.96212e-22)
(0.866161 0.513713 -2.62419e-22)
(0.829769 0.535612 -3.90497e-22)
(0.787631 0.511732 7.91947e-22)
(0.757774 0.403667 -6.49955e-22)
(0.748059 0.220169 2.95384e-22)
(0.758988 0.00867111 3.95287e-22)
(0.785809 -0.177611 -4.21266e-22)
(0.819961 -0.306762 5.67384e-22)
(0.851182 -0.377939 -1.13691e-22)
(0.867446 -0.412831 2.43392e-22)
(0.859228 -0.433688 -1.05071e-22)
(0.827084 -0.441285 3.65176e-22)
(0.784066 -0.413405 3.96113e-23)
(0.749937 -0.327169 -1.25194e-22)
(0.737088 -0.186537 -2.96596e-22)
(0.74818 -0.0224978 -3.32215e-22)
(0.777179 0.125761 -5.36361e-23)
(0.809371 0.238658 2.72337e-23)
(0.825503 0.318532 -6.85301e-23)
(0.818416 0.371979 2.24028e-22)
(0.795255 0.388336 -2.1515e-23)
(0.771762 0.347318 5.45191e-23)
(0.871488 0.485999 2.16337e-22)
(0.880165 0.494078 -9.40387e-23)
(0.86616 0.515968 2.0896e-23)
(0.830681 0.539199 4.2437e-23)
(0.789699 0.515303 -3.95537e-22)
(0.760867 0.406148 8.62302e-22)
(0.751771 0.22108 3.40142e-22)
(0.762926 0.00799098 4.83551e-23)
(0.789498 -0.179466 3.16958e-22)
(0.822881 -0.309028 -5.00086e-22)
(0.853191 -0.379645 -3.39619e-24)
(0.86879 -0.413046 -2.70201e-22)
(0.860196 -0.432068 -2.17832e-22)
(0.827794 -0.438446 -3.6318e-22)
(0.784336 -0.410691 -3.51239e-22)
(0.749663 -0.325796 5.0306e-22)
(0.736591 -0.186955 2.64744e-22)
(0.747867 -0.02441 5.60086e-23)
(0.777099 0.123228 6.73878e-23)
(0.80934 0.23672 -8.76365e-23)
(0.825432 0.318037 2.52679e-22)
(0.81842 0.372874 -1.74736e-22)
(0.795405 0.389869 1.42808e-22)
(0.771921 0.348644 1.89536e-22)
(0.869227 0.484205 -2.31644e-22)
(0.879308 0.494166 -3.73342e-22)
(0.86627 0.518092 7.96407e-24)
(0.831748 0.542683 2.77458e-22)
(0.791931 0.518861 -1.15392e-22)
(0.7641 0.408743 -2.09598e-22)
(0.755601 0.222201 -9.59184e-22)
(0.766973 0.00755058 -1.58867e-23)
(0.793301 -0.181095 8.03513e-23)
(0.825913 -0.311116 -7.06793e-22)
(0.855299 -0.381238 2.93563e-22)
(0.870237 -0.413202 -5.70644e-23)
(0.861284 -0.430422 4.64299e-23)
(0.828648 -0.435599 4.41288e-22)
(0.784784 -0.407992 -2.6724e-24)
(0.749568 -0.324485 -1.91508e-22)
(0.736248 -0.187489 -1.05308e-22)
(0.747676 -0.0264518 3.41338e-22)
(0.777113 0.12059 1.46697e-24)
(0.809396 0.234712 -1.78942e-23)
(0.82546 0.31749 9.71878e-23)
(0.818537 0.373734 -3.94693e-22)
(0.795676 0.391402 -1.19356e-22)
(0.772198 0.350019 -4.51066e-22)
(0.867033 0.482227 1.15028e-22)
(0.878525 0.494104 8.34568e-23)
(0.866487 0.520077 1.4347e-22)
(0.832963 0.546058 -5.69532e-22)
(0.794318 0.522405 1.30062e-21)
(0.767465 0.411457 7.00339e-22)
(0.759544 0.223536 6.40476e-23)
(0.771127 0.00735396 -7.95146e-22)
(0.797218 -0.182498 3.87932e-22)
(0.829059 -0.313024 5.96056e-22)
(0.857508 -0.382718 4.44094e-22)
(0.871787 -0.413305 -6.5437e-23)
(0.862489 -0.428754 -2.53777e-22)
(0.829644 -0.432746 -1.52392e-22)
(0.785406 -0.405309 5.98545e-24)
(0.749653 -0.323235 -3.62925e-22)
(0.736058 -0.188132 3.60734e-23)
(0.747602 -0.028619 -1.47315e-22)
(0.777218 0.117849 -2.58197e-22)
(0.809538 0.232631 1.05827e-22)
(0.825586 0.316889 -2.11412e-22)
(0.818766 0.374558 3.74309e-22)
(0.796068 0.392935 2.69353e-23)
(0.772593 0.351443 4.21635e-22)
(0.8649 0.48006 -2.10953e-22)
(0.877814 0.493883 -1.68034e-22)
(0.866808 0.521915 5.56264e-22)
(0.834321 0.549319 3.54125e-22)
(0.796853 0.525935 -1.07744e-21)
(0.770958 0.414293 2.28327e-22)
(0.763594 0.225089 -1.82688e-22)
(0.775382 0.00740624 1.76294e-21)
(0.801245 -0.183672 -2.67741e-21)
(0.832317 -0.314751 4.92741e-22)
(0.859816 -0.384086 -6.72681e-22)
(0.873439 -0.413356 9.19181e-22)
(0.863813 -0.42707 4.9569e-23)
(0.83078 -0.429893 3.35005e-22)
(0.786199 -0.402642 1.28955e-22)
(0.749916 -0.322041 -3.32022e-23)
(0.736018 -0.188879 1.02743e-22)
(0.747643 -0.0309069 6.63484e-23)
(0.777411 0.115008 2.81815e-22)
(0.809764 0.230476 -2.73601e-22)
(0.825809 0.316231 -2.13062e-22)
(0.819107 0.375343 6.28687e-23)
(0.796582 0.394467 -5.97177e-22)
(0.77311 0.352916 1.43423e-22)
(0.862824 0.477699 5.33623e-22)
(0.877169 0.493496 2.41461e-22)
(0.867229 0.523595 -9.64398e-22)
(0.835818 0.552461 9.76064e-23)
(0.79953 0.529451 8.8732e-23)
(0.77457 0.417252 -5.51947e-22)
(0.767746 0.226862 3.22515e-22)
(0.779733 0.00771782 -3.10064e-22)
(0.805379 -0.184615 4.69159e-22)
(0.835689 -0.316297 -1.42285e-21)
(0.862226 -0.385344 7.4609e-22)
(0.87519 -0.413361 -5.13071e-23)
(0.865253 -0.425374 -6.32742e-22)
(0.832052 -0.427041 1.56984e-22)
(0.787161 -0.399992 1.05252e-21)
(0.750355 -0.320898 -4.34394e-23)
(0.736127 -0.189724 -4.44224e-22)
(0.747796 -0.033311 5.65311e-22)
(0.777689 0.112068 -2.01797e-22)
(0.810071 0.228247 -1.39187e-22)
(0.826127 0.315513 2.97106e-22)
(0.81956 0.376086 6.81099e-23)
(0.797218 0.395997 8.33657e-22)
(0.773749 0.354438 -2.05037e-22)
(0.860801 0.47514 -8.40379e-22)
(0.876587 0.492937 1.52194e-22)
(0.867746 0.525111 1.05392e-21)
(0.837446 0.555476 -3.58441e-22)
(0.80234 0.532951 4.20707e-22)
(0.778297 0.420337 2.43338e-22)
(0.771996 0.22886 -4.99792e-24)
(0.784176 0.0082707 -6.84883e-22)
(0.809616 -0.185326 -4.93668e-22)
(0.839174 -0.31766 1.19679e-21)
(0.864736 -0.386491 2.36352e-22)
(0.877041 -0.413321 4.6011e-22)
(0.866808 -0.42367 -6.78438e-22)
(0.833458 -0.424196 2.2565e-22)
(0.788286 -0.397359 -4.84709e-22)
(0.750968 -0.319805 2.93829e-22)
(0.736381 -0.190662 -1.24272e-22)
(0.748058 -0.0358269 6.89607e-22)
(0.778051 0.10903 -8.69146e-22)
(0.810459 0.225942 -3.29807e-22)
(0.826538 0.314733 4.75337e-23)
(0.820123 0.376786 -7.60918e-23)
(0.797976 0.397522 -2.54915e-22)
(0.774513 0.356009 -2.26297e-22)
(0.876062 0.492198 5.07307e-22)
(0.868354 0.526454 1.9192e-22)
(0.839199 0.558361 4.74689e-22)
(0.805275 0.536435 -1.00279e-21)
(0.782131 0.423549 9.96992e-22)
(0.776336 0.231084 -1.23674e-21)
(0.788706 0.00906984 1.38221e-22)
(0.813955 -0.185803 4.84074e-22)
(0.84277 -0.318839 -3.32649e-22)
(0.867348 -0.387528 -2.09399e-22)
(0.878988 -0.413241 -7.03462e-22)
(0.868477 -0.421963 4.2549e-22)
(0.834995 -0.42136 -7.98402e-23)
(0.789571 -0.394745 -1.78929e-22)
(0.751752 -0.318757 -5.51788e-22)
(0.73678 -0.191687 -8.20877e-23)
(0.748425 -0.0384497 -4.24391e-23)
(0.778493 0.105897 6.18634e-22)
(0.810924 0.223558 6.09653e-22)
(0.827041 0.313888 3.14266e-23)
(0.820796 0.377438 -2.71587e-23)
(0.798857 0.399042 -3.43174e-22)
(0.775403 0.357629 1.43536e-22)
(0.875589 0.491272 -3.66879e-22)
(0.869049 0.527615 3.2436e-22)
(0.84107 0.561109 -9.08803e-22)
(0.80833 0.539898 -1.45524e-22)
(0.786066 0.426889 1.1624e-21)
(0.780761 0.233536 1.95313e-22)
(0.793317 0.0101321 4.22721e-22)
(0.818389 -0.186046 1.4136e-22)
(0.846478 -0.319833 1.45585e-21)
(0.87006 -0.388454 -2.49227e-22)
(0.88103 -0.413122 -3.80996e-22)
(0.870257 -0.420257 -1.5752e-22)
(0.83666 -0.418536 6.44273e-23)
(0.79101 -0.392148 -4.24306e-22)
(0.752706 -0.317751 -1.91231e-22)
(0.737321 -0.192793 -5.57854e-23)
(0.748894 -0.0411747 -9.28675e-22)
(0.779012 0.102669 8.49436e-22)
(0.811464 0.221095 -9.56325e-22)
(0.827634 0.312974 -2.85832e-22)
(0.821577 0.37804 2.55036e-22)
(0.799861 0.400554 -3.15514e-22)
(0.77642 0.359299 2.16317e-22)
(0.875164 0.490152 1.64076e-22)
(0.869823 0.528588 6.99547e-22)
(0.843051 0.563714 2.6362e-22)
(0.811494 0.543341 -8.72729e-22)
(0.790096 0.430355 7.44835e-22)
(0.785265 0.236218 -1.93782e-21)
(0.798004 0.011451 1.36539e-21)
(0.822916 -0.186053 -1.96018e-21)
(0.850294 -0.320641 4.05923e-22)
(0.872873 -0.389269 1.57693e-21)
(0.883166 -0.412968 -1.40535e-21)
(0.872146 -0.418555 6.23214e-23)
(0.838449 -0.415727 -5.00234e-22)
(0.792597 -0.38957 1.12423e-21)
(0.753823 -0.316782 -2.317e-23)
(0.738001 -0.193973 -4.05238e-22)
(0.749463 -0.0439969 3.8024e-22)
(0.779605 0.0993479 3.28196e-23)
(0.812077 0.218552 -2.96212e-23)
(0.828315 0.311988 3.4789e-22)
(0.822464 0.37859 -4.31489e-22)
(0.800986 0.402058 7.36879e-22)
(0.777564 0.361016 -6.4439e-23)
(0.874779 0.488832 1.76286e-21)
(0.870673 0.529363 -4.03727e-22)
(0.845136 0.566171 2.61205e-22)
(0.814762 0.546758 7.05501e-22)
(0.794214 0.433948 4.42073e-22)
(0.789844 0.239132 -1.91484e-21)
(0.802762 0.0130321 -7.07871e-22)
(0.827531 -0.185824 3.39317e-22)
(0.854218 -0.321262 -9.5765e-22)
(0.875786 -0.389974 -1.9121e-21)
(0.885391 -0.41278 1.11892e-21)
(0.87414 -0.416862 4.32005e-22)
(0.840361 -0.412936 1.13009e-21)
(0.794328 -0.387012 -4.34858e-22)
(0.755102 -0.315848 1.08821e-22)
(0.738818 -0.195222 1.8043e-22)
(0.750128 -0.0469115 -3.20456e-22)
(0.780269 0.0959361 1.85336e-23)
(0.81276 0.215926 1.7964e-22)
(0.829081 0.310929 -3.03491e-22)
(0.823457 0.379084 4.20549e-22)
(0.802233 0.403549 -3.51348e-22)
(0.778836 0.362781 1.3622e-22)
(0.874431 0.487305 -2.24907e-21)
(0.871591 0.529934 -2.12788e-21)
(0.847317 0.568473 1.4079e-21)
(0.818125 0.550147 8.81087e-22)
(0.798413 0.437666 -2.70353e-21)
(0.794489 0.242278 3.85601e-21)
(0.807584 0.0148741 8.39678e-23)
(0.832228 -0.185358 1.09512e-21)
(0.858248 -0.321696 -5.63221e-22)
(0.8788 -0.390566 3.42907e-22)
(0.887706 -0.412561 2.45403e-22)
(0.876238 -0.415181 2.49705e-22)
(0.842393 -0.410166 -5.85779e-22)
(0.796195 -0.384473 -4.50394e-22)
(0.756537 -0.314945 7.32484e-22)
(0.739768 -0.196533 4.76656e-22)
(0.750886 -0.0499134 9.94534e-23)
(0.781001 0.0924348 -9.92908e-23)
(0.81351 0.213216 8.14959e-22)
(0.829929 0.309792 2.68904e-22)
(0.824554 0.37952 -1.55241e-22)
(0.8036 0.405027 4.46748e-22)
(0.780238 0.364592 -3.6161e-22)
(0.874113 0.485566 3.75819e-22)
(0.872571 0.530293 1.12271e-21)
(0.849585 0.570614 1.30033e-21)
(0.821576 0.553502 -4.9648e-23)
(0.802687 0.441508 1.51822e-21)
(0.799196 0.245656 -2.09543e-21)
(0.812466 0.0169781 -2.07789e-21)
(0.837004 -0.184654 2.42951e-21)
(0.862379 -0.321941 -3.55632e-22)
(0.881914 -0.391047 1.10024e-21)
(0.890106 -0.412312 -1.81875e-21)
(0.878436 -0.413516 -2.57519e-22)
(0.844541 -0.40742 -6.18351e-23)
(0.798194 -0.381954 4.15268e-22)
(0.758122 -0.31407 -2.83116e-22)
(0.740851 -0.197901 -5.46923e-22)
(0.751734 -0.0529974 4.40984e-22)
(0.781797 0.0888458 -2.56524e-22)
(0.814323 0.210422 -3.00618e-22)
(0.830858 0.308575 -3.77282e-22)
(0.825751 0.379893 3.72964e-23)
(0.805087 0.406489 -4.29342e-22)
(0.781768 0.366449 5.62088e-22)
(0.873819 0.483608 -7.28011e-22)
(0.873607 0.530433 3.52466e-22)
(0.851933 0.572587 -3.55361e-22)
(0.825106 0.556821 -2.69125e-22)
(0.807029 0.44547 4.61511e-22)
(0.803958 0.249267 -2.94459e-21)
(0.817401 0.0193475 3.55744e-22)
(0.841852 -0.183712 1.3868e-21)
(0.866611 -0.321998 -1.25179e-21)
(0.885127 -0.391413 2.32661e-21)
(0.89259 -0.412034 -1.66922e-21)
(0.880729 -0.41187 9.00808e-22)
(0.846803 -0.404699 7.9104e-22)
(0.800319 -0.379455 -1.12526e-22)
(0.759852 -0.31322 4.30018e-22)
(0.742062 -0.19932 1.08662e-23)
(0.75267 -0.0561586 1.00486e-22)
(0.782655 0.085171 -3.61527e-22)
(0.815197 0.207541 -1.24455e-22)
(0.831863 0.307274 -3.28586e-22)
(0.827047 0.380202 -3.74728e-22)
(0.806691 0.407932 2.23213e-22)
(0.783427 0.368349 9.6035e-22)
(0.873543 0.481425 6.50483e-23)
(0.874691 0.530347 -1.52415e-21)
(0.854352 0.574387 8.36658e-22)
(0.828709 0.560096 5.37395e-23)
(0.811433 0.44955 2.96828e-21)
(0.808769 0.25311 1.30359e-21)
(0.822383 0.0219806 -2.75286e-21)
(0.846768 -0.18253 -9.9165e-22)
(0.870939 -0.321865 -1.17038e-21)
(0.888438 -0.391666 -6.5495e-22)
(0.895156 -0.411728 2.73991e-22)
(0.883113 -0.410247 -5.73021e-22)
(0.849176 -0.402007 3.52182e-22)
(0.802563 -0.376976 -8.23994e-22)
(0.761719 -0.312392 4.21096e-23)
(0.743398 -0.200783 -5.23472e-23)
(0.75369 -0.0593915 -6.05708e-22)
(0.78357 0.0814123 4.56063e-22)
(0.816128 0.204572 3.09127e-22)
(0.832943 0.305888 -8.68104e-23)
(0.82844 0.380443 6.77631e-23)
(0.808412 0.409353 6.12446e-22)
(0.785214 0.370291 -1.41735e-21)
(0.873279 0.479014 -1.11938e-21)
(0.875816 0.530028 -3.04016e-22)
(0.856835 0.576006 -1.56732e-21)
(0.832376 0.563323 2.40502e-21)
(0.815891 0.453744 -1.3311e-22)
(0.813622 0.257184 -1.68176e-21)
(0.827407 0.0248779 2.45842e-21)
(0.851747 -0.18111 -1.37447e-21)
(0.87536 -0.321543 1.20938e-21)
(0.891847 -0.391802 2.82367e-21)
(0.897802 -0.411395 -1.06813e-21)
(0.885585 -0.40865 1.11787e-21)
(0.851656 -0.399345 2.81671e-22)
(0.804922 -0.374517 -2.27445e-22)
(0.763718 -0.311583 6.79539e-22)
(0.744856 -0.202285 5.32578e-23)
(0.754791 -0.062691 1.25868e-22)
(0.784541 0.0775717 -3.5273e-23)
(0.817113 0.201515 -2.05215e-22)
(0.834093 0.304412 -1.29632e-22)
(0.829927 0.380612 2.97716e-22)
(0.810246 0.41075 2.17566e-24)
(0.78713 0.372274 1.89955e-22)
(0.873021 0.476369 3.58676e-22)
(0.876975 0.529469 1.97842e-21)
(0.859372 0.577437 -2.8291e-21)
(0.8361 0.566494 1.62539e-21)
(0.820397 0.458047 -2.37833e-21)
(0.81851 0.261489 6.20397e-22)
(0.832467 0.0280403 -1.76422e-21)
(0.856782 -0.17945 4.68197e-21)
(0.879869 -0.32103 -2.26907e-21)
(0.895352 -0.391822 -3.22705e-21)
(0.900525 -0.411035 -1.40558e-22)
(0.88814 -0.407082 1.12377e-22)
(0.854241 -0.396717 8.68677e-22)
(0.807391 -0.372078 2.76194e-22)
(0.765841 -0.31079 -1.53922e-22)
(0.746431 -0.203821 -7.33157e-23)
(0.755972 -0.0660516 -4.7899e-22)
(0.785562 0.0736513 8.248e-23)
(0.818148 0.198368 3.13878e-22)
(0.83531 0.302845 1.86996e-22)
(0.831504 0.380706 1.01263e-22)
(0.812193 0.41212 3.26391e-22)
(0.789172 0.374295 1.62059e-23)
(0.872762 0.473485 -4.99949e-22)
(0.87816 0.528666 6.93426e-22)
(0.861955 0.578674 -1.8959e-21)
(0.839873 0.569603 8.88813e-22)
(0.824944 0.462454 1.85796e-21)
(0.823428 0.266022 3.14916e-21)
(0.837556 0.0314679 6.07889e-23)
(0.861869 -0.177551 -3.94314e-21)
(0.884464 -0.320327 2.23797e-21)
(0.898952 -0.391723 -5.68499e-22)
(0.903324 -0.410648 -6.69269e-22)
(0.890772 -0.405545 5.27853e-22)
(0.856928 -0.394124 -1.36342e-21)
(0.809964 -0.369659 -9.89149e-22)
(0.768078 -0.31001 6.85755e-22)
(0.748121 -0.205384 2.91349e-22)
(0.757229 -0.0694679 -1.63082e-22)
(0.786631 0.0696535 -2.01656e-23)
(0.819228 0.19513 -5.55086e-22)
(0.836591 0.301183 3.09212e-22)
(0.833169 0.380723 -3.63514e-22)
(0.81425 0.413459 2.70769e-22)
(0.79134 0.376352 -8.38723e-22)
(0.872495 0.470359 4.47678e-22)
(0.879362 0.527611 4.4598e-22)
(0.864576 0.579709 2.48601e-21)
(0.843687 0.572643 4.26171e-22)
(0.829526 0.46696 4.62689e-22)
(0.828368 0.270781 -3.3129e-21)
(0.84267 0.035163 2.87663e-21)
(0.867003 -0.175412 5.60955e-22)
(0.889138 -0.319433 1.58316e-21)
(0.902645 -0.391504 2.38303e-22)
(0.906196 -0.410233 1.93934e-22)
(0.893478 -0.404043 -8.11483e-22)
(0.859712 -0.391569 5.42497e-22)
(0.812639 -0.367259 1.9911e-22)
(0.770423 -0.309241 -7.62377e-22)
(0.749919 -0.20697 -5.66309e-23)
(0.75856 -0.0729346 5.30801e-22)
(0.787745 0.0655807 -1.13877e-22)
(0.820351 0.191801 1.30429e-22)
(0.837933 0.299424 4.67599e-23)
(0.834919 0.380658 1.02707e-21)
(0.816413 0.414765 -1.19401e-21)
(0.793632 0.378443 -2.01629e-22)
(0.872214 0.466987 -2.84278e-22)
(0.880575 0.526299 -2.80837e-22)
(0.867226 0.580535 2.12539e-21)
(0.847536 0.575604 -3.94675e-21)
(0.834134 0.471559 -1.4131e-21)
(0.833323 0.275763 -1.01219e-21)
(0.847801 0.0391242 -2.48411e-21)
(0.872177 -0.173033 -2.58492e-21)
(0.893888 -0.318348 1.72945e-21)
(0.906429 -0.391164 -2.72682e-21)
(0.909141 -0.40979 1.46085e-21)
(0.896252 -0.402577 6.05425e-23)
(0.862589 -0.389055 2.63662e-22)
(0.815412 -0.364878 3.86296e-22)
(0.772867 -0.308479 5.03075e-22)
(0.751821 -0.208574 -7.26203e-22)
(0.759962 -0.0764462 -9.30529e-23)
(0.788901 0.0614355 3.1625e-23)
(0.821513 0.188379 -1.56827e-22)
(0.83933 0.297565 -2.98235e-22)
(0.836748 0.380508 -1.73147e-22)
(0.81868 0.416034 1.12202e-22)
(0.796046 0.380564 1.03496e-21)
(0.871913 0.463367 1.29074e-22)
(0.881789 0.524726 8.25819e-22)
(0.869896 0.581145 -5.0418e-22)
(0.851411 0.57848 2.21761e-21)
(0.838764 0.476243 2.11713e-21)
(0.838288 0.280965 1.20998e-21)
(0.852946 0.0433503 2.76981e-21)
(0.877387 -0.170414 -2.42235e-21)
(0.898709 -0.317073 -3.98427e-22)
(0.910301 -0.390701 -2.14254e-21)
(0.912156 -0.409317 7.36468e-22)
(0.899089 -0.401149 -1.08342e-21)
(0.865555 -0.386583 -1.22992e-23)
(0.818279 -0.362516 6.91539e-22)
(0.775402 -0.307723 -8.22142e-22)
(0.753821 -0.210191 3.88353e-23)
(0.761435 -0.0799975 4.78837e-22)
(0.790095 0.0572206 -3.75688e-22)
(0.82271 0.184865 3.19923e-22)
(0.840779 0.295603 -9.32611e-23)
(0.838655 0.38027 6.4812e-22)
(0.821049 0.417262 -1.5291e-21)
(0.798581 0.382714 1.3596e-21)
(0.871585 0.459495 2.11991e-21)
(0.882997 0.522885 -7.93931e-22)
(0.872579 0.581531 -2.25691e-21)
(0.855305 0.58126 -3.45903e-22)
(0.843407 0.481004 -1.34495e-22)
(0.843255 0.286384 -2.57361e-21)
(0.858097 0.0478419 -7.24391e-22)
(0.882627 -0.167555 -1.405e-22)
(0.903595 -0.315606 2.5997e-21)
(0.91426 -0.390113 3.59505e-22)
(0.915241 -0.408813 8.49826e-22)
(0.901986 -0.399761 -1.61686e-21)
(0.868605 -0.384157 7.0922e-22)
(0.821239 -0.360172 -5.27927e-22)
(0.778019 -0.30697 8.21497e-22)
(0.755911 -0.211816 -1.95124e-22)
(0.762975 -0.0835832 3.06327e-23)
(0.791326 0.0529389 -1.14994e-22)
(0.823938 0.181257 1.09489e-22)
(0.842276 0.293537 -1.72991e-22)
(0.840635 0.37994 -7.45735e-22)
(0.823514 0.418446 1.83166e-21)
(0.801233 0.384889 1.44862e-21)
(0.871223 0.455371 2.70079e-23)
(0.884191 0.520773 9.10543e-22)
(0.875264 0.581686 -9.81953e-22)
(0.85921 0.583936 -5.70393e-22)
(0.848057 0.485836 1.70088e-21)
(0.848218 0.292014 1.75241e-21)
(0.863251 0.0525984 -5.97079e-22)
(0.887893 -0.164456 -1.67076e-21)
(0.908541 -0.313948 -9.0222e-22)
(0.918302 -0.3894 -2.3167e-21)
(0.918392 -0.408277 8.3334e-22)
(0.904938 -0.398415 1.31867e-21)
(0.871734 -0.381778 -8.83394e-22)
(0.824289 -0.357847 5.60246e-23)
(0.780712 -0.306215 -2.42638e-22)
(0.758084 -0.213446 -2.57844e-22)
(0.76458 -0.0871983 6.6454e-22)
(0.79259 0.0485937 3.79245e-22)
(0.825193 0.177556 -3.74801e-22)
(0.843817 0.291364 4.68165e-22)
(0.842684 0.379516 -7.16886e-22)
(0.826074 0.419582 -1.23724e-21)
(0.804001 0.387085 -1.26043e-21)
(0.870821 0.450992 -3.87775e-22)
(0.885361 0.518386 1.68816e-21)
(0.877944 0.581602 1.5846e-22)
(0.86312 0.586498 3.67103e-22)
(0.852707 0.490729 -2.25283e-21)
(0.85317 0.297852 4.1897e-21)
(0.868403 0.0576166 -4.07602e-22)
(0.89318 -0.161117 -9.1507e-22)
(0.913542 -0.312099 7.95595e-22)
(0.922424 -0.388559 1.78471e-22)
(0.921609 -0.407705 4.08896e-22)
(0.907939 -0.397112 -3.83816e-22)
(0.874936 -0.379451 9.63863e-22)
(0.827426 -0.355538 -1.35988e-22)
(0.783475 -0.305458 1.74389e-23)
(0.760332 -0.215076 -4.24542e-23)
(0.766248 -0.0908376 -4.80348e-22)
(0.793887 0.044188 1.45824e-22)
(0.826472 0.173762 -2.75602e-22)
(0.845398 0.289081 2.00862e-22)
(0.844797 0.378995 3.63101e-22)
(0.828723 0.420667 1.65992e-21)
(0.80688 0.3893 -1.42501e-22)
(0.870372 0.446358 1.65004e-21)
(0.8865 0.515719 -3.76181e-21)
(0.880611 0.581273 1.40072e-21)
(0.867027 0.588934 -3.18907e-21)
(0.857351 0.495673 2.39774e-21)
(0.858106 0.303891 -5.60461e-21)
(0.873548 0.062895 4.46356e-21)
(0.898483 -0.157537 3.69693e-21)
(0.918593 -0.310059 -6.42541e-22)
(0.926623 -0.387589 1.36397e-21)
(0.92489 -0.407097 -6.57708e-22)
(0.910987 -0.395852 7.97732e-22)
(0.878206 -0.377177 -3.27931e-23)
(0.83065 -0.353247 -8.08625e-22)
(0.786302 -0.304694 1.03584e-22)
(0.762645 -0.216702 5.05081e-22)
(0.767977 -0.0944967 3.33536e-22)
(0.795215 0.0397254 2.90405e-23)
(0.827772 0.169876 -2.43923e-22)
(0.847014 0.286687 2.66024e-23)
(0.84697 0.378371 -1.37165e-22)
(0.831458 0.421696 -5.77924e-22)
(0.809869 0.391531 -1.4794e-21)
(0.869871 0.44147 1.03915e-21)
(0.8876 0.512771 -1.10277e-21)
(0.883255 0.580691 -8.44828e-22)
(0.870923 0.591236 -5.42881e-22)
(0.861983 0.500659 1.86228e-21)
(0.863019 0.310125 9.6281e-22)
(0.878683 0.0684331 -2.40405e-21)
(0.9038 -0.153717 -1.17155e-21)
(0.923689 -0.307827 2.70516e-22)
(0.930895 -0.386489 -2.02102e-21)
(0.928234 -0.406449 9.66289e-23)
(0.914078 -0.394636 6.11567e-22)
(0.881538 -0.374959 1.4804e-22)
(0.833956 -0.350974 -2.07569e-22)
(0.789189 -0.303921 4.1336e-23)
(0.765013 -0.21832 4.07356e-22)
(0.769763 -0.0981709 -1.34986e-22)
(0.796574 0.0352093 -1.36674e-22)
(0.82909 0.165897 1.78822e-22)
(0.848661 0.28418 1.53199e-22)
(0.849199 0.377644 1.49365e-22)
(0.834275 0.422667 -5.65701e-22)
(0.812963 0.393772 6.0195e-22)
(0.869311 0.436327 3.90025e-24)
(0.888652 0.509538 2.0808e-22)
(0.885867 0.579848 -8.98304e-22)
(0.874803 0.593392 -2.89396e-21)
(0.866595 0.505677 7.36285e-21)
(0.867905 0.316548 -3.49659e-21)
(0.883807 0.0742283 -2.2658e-21)
(0.909126 -0.149656 1.97221e-21)
(0.928822 -0.305404 1.32616e-21)
(0.935237 -0.385258 -4.81374e-22)
(0.931639 -0.405759 5.6163e-22)
(0.917207 -0.393463 -9.49985e-22)
(0.884925 -0.3728 -7.91108e-23)
(0.837344 -0.348718 -1.10287e-22)
(0.792132 -0.303135 7.51008e-23)
(0.767425 -0.219927 -1.51569e-22)
(0.771603 -0.101856 -2.82804e-22)
(0.797964 0.0306433 5.72659e-23)
(0.830423 0.161827 -2.04961e-22)
(0.850334 0.281559 3.83624e-22)
(0.851479 0.376809 4.28936e-22)
(0.837169 0.423575 4.55568e-22)
(0.816159 0.396021 -1.31703e-21)
(0.868687 0.430931 3.70212e-22)
(0.889647 0.506018 2.44943e-22)
(0.888441 0.578738 3.24274e-21)
(0.878659 0.595391 -2.81641e-22)
(0.87118 0.510714 -2.28317e-21)
(0.872757 0.323153 4.35563e-21)
(0.888918 0.0802775 -1.15309e-21)
(0.914459 -0.145355 7.22364e-22)
(0.933989 -0.302789 -3.17669e-21)
(0.939643 -0.383893 2.37213e-21)
(0.935102 -0.405024 -5.79641e-22)
(0.920372 -0.392334 6.20701e-22)
(0.888363 -0.370703 -3.68274e-22)
(0.840809 -0.34648 -2.18373e-22)
(0.795132 -0.302333 -7.49555e-23)
(0.769873 -0.221519 -1.02605e-23)
(0.773491 -0.105549 1.68057e-22)
(0.799385 0.0260312 -1.10641e-22)
(0.831772 0.157667 -2.09791e-22)
(0.852031 0.278822 1.2808e-22)
(0.853805 0.375865 3.18633e-23)
(0.840136 0.424416 -1.11999e-21)
(0.819453 0.398273 1.85727e-22)
(0.867994 0.425285 1.34622e-22)
(0.890579 0.50221 -2.91409e-21)
(0.890967 0.577353 -1.12269e-21)
(0.882484 0.597221 1.92168e-22)
(0.875734 0.51576 7.24421e-22)
(0.877573 0.329929 2.66863e-21)
(0.894017 0.0865777 -6.04536e-21)
(0.919796 -0.140812 2.61002e-21)
(0.939183 -0.299982 -3.47399e-21)
(0.94411 -0.382394 1.35704e-21)
(0.938623 -0.404241 -1.55818e-21)
(0.923569 -0.391247 4.02847e-22)
(0.891844 -0.36867 4.38412e-22)
(0.844349 -0.344261 6.19825e-22)
(0.798185 -0.301511 3.05628e-22)
(0.772345 -0.223091 -3.08172e-22)
(0.775421 -0.109245 -1.96099e-22)
(0.80084 0.0213764 -1.51517e-22)
(0.833134 0.153419 1.48445e-25)
(0.853747 0.275967 -2.35574e-22)
(0.856172 0.374807 1.15885e-22)
(0.843171 0.425186 2.12408e-22)
(0.822841 0.400524 1.0871e-22)
(0.867229 0.419391 -1.10046e-21)
(0.891439 0.498113 3.88391e-22)
(0.893437 0.575688 1.94378e-21)
(0.886272 0.598871 4.13245e-24)
(0.880249 0.520802 7.73483e-23)
(0.882349 0.336869 -1.18291e-21)
(0.899108 0.0931257 2.28567e-21)
(0.925138 -0.136028 -4.01621e-21)
(0.944398 -0.296982 2.46571e-21)
(0.948632 -0.380761 -1.02409e-21)
(0.9422 -0.403408 9.50174e-22)
(0.926796 -0.390203 -4.14911e-22)
(0.895364 -0.366705 -1.83828e-22)
(0.84796 -0.342063 -3.94626e-22)
(0.801294 -0.300666 4.92454e-22)
(0.774833 -0.22464 7.06634e-23)
(0.777385 -0.112942 -1.23147e-25)
(0.802332 0.0166824 1.12288e-22)
(0.834513 0.149084 3.24614e-22)
(0.855481 0.272996 8.10005e-23)
(0.858577 0.373633 -5.42969e-22)
(0.846269 0.425882 1.79414e-23)
(0.826318 0.402771 -4.91369e-22)
(0.866391 0.413253 -2.65757e-21)
(0.892221 0.493728 2.21395e-21)
(0.895843 0.573736 1.35981e-21)
(0.890016 0.600329 -2.54078e-21)
(0.884718 0.525828 3.36426e-21)
(0.887086 0.343963 1.42927e-21)
(0.9042 0.099919 3.71245e-21)
(0.930482 -0.130999 -6.31818e-21)
(0.949629 -0.293788 -1.17128e-21)
(0.953205 -0.378992 1.40328e-21)
(0.94583 -0.402522 1.172e-21)
(0.930049 -0.389199 -1.90178e-21)
(0.898916 -0.36481 3.69723e-22)
(0.851638 -0.339887 -1.51344e-22)
(0.804459 -0.299795 -1.06271e-22)
(0.77733 -0.226163 2.45114e-22)
(0.779372 -0.116637 -2.1475e-22)
(0.803863 0.011952 1.06852e-22)
(0.835911 0.144665 -5.92593e-23)
(0.85723 0.269906 -1.74022e-22)
(0.861015 0.372341 4.4789e-22)
(0.849426 0.4265 -6.36952e-22)
(0.82988 0.405008 -1.90498e-22)
(0.865481 0.406877 5.37991e-22)
(0.892919 0.489054 -5.07857e-22)
(0.898178 0.571491 4.01276e-22)
(0.893709 0.601583 -2.79563e-21)
(0.889135 0.530823 4.85906e-22)
(0.891789 0.351201 5.18139e-21)
(0.909307 0.106953 -8.30311e-21)
(0.93583 -0.125726 8.84546e-21)
(0.954869 -0.290402 8.26909e-22)
(0.957822 -0.377088 -3.48518e-21)
(0.949512 -0.40158 2.33895e-21)
(0.933326 -0.388233 1.36666e-22)
(0.902496 -0.362986 -1.80591e-23)
(0.855378 -0.337733 -3.65057e-22)
(0.80768 -0.298894 -1.8114e-22)
(0.779831 -0.227652 1.40727e-22)
(0.781371 -0.120327 -2.00786e-23)
(0.805435 0.00718713 2.00398e-22)
(0.837337 0.140163 -4.09281e-22)
(0.858996 0.266697 2.08161e-22)
(0.863483 0.370929 4.53067e-22)
(0.852637 0.427036 3.55116e-22)
(0.833523 0.407231 -4.25679e-22)
(0.864515 0.40027 1.49949e-21)
(0.893533 0.484093 1.18368e-21)
(0.900436 0.568948 8.48114e-22)
(0.897347 0.602623 -1.09039e-21)
(0.893497 0.535773 1.17295e-23)
(0.896473 0.358564 -5.53104e-21)
(0.914449 0.114208 9.59362e-22)
(0.941184 -0.120222 2.15073e-21)
(0.960113 -0.286822 -3.74751e-22)
(0.96248 -0.375036 -1.30727e-21)
(0.953244 -0.400564 -3.59965e-22)
(0.936626 -0.38729 1.92382e-21)
(0.906097 -0.361226 -5.91037e-23)
(0.859175 -0.335599 -5.20269e-22)
(0.81096 -0.297954 -1.60354e-22)
(0.782331 -0.229097 1.28456e-22)
(0.783368 -0.124003 4.89345e-25)
(0.80705 0.00239841 8.75677e-23)
(0.838802 0.135585 1.75685e-22)
(0.860785 0.263374 -9.51845e-24)
(0.865981 0.369395 -3.6354e-22)
(0.855899 0.427485 -5.45415e-22)
(0.837243 0.409436 6.52084e-22)
(0.863527 0.393448 1.13229e-23)
(0.894071 0.478857 7.1076e-22)
(0.902617 0.566103 -1.18474e-21)
(0.900927 0.60343 -2.13913e-21)
(0.897804 0.540648 3.4411e-21)
(0.901168 0.366011 3.82901e-21)
(0.91966 0.121657 -4.3099e-21)
(0.94655 -0.114484 -1.72462e-21)
(0.965357 -0.283031 -9.53685e-22)
(0.967173 -0.372823 7.44914e-22)
(0.957023 -0.399467 -1.84149e-22)
(0.939945 -0.386369 8.10022e-22)
(0.909715 -0.359535 3.68094e-22)
(0.863025 -0.333491 -2.81035e-22)
(0.814298 -0.29698 1.63432e-22)
(0.784831 -0.230498 -1.065e-22)
(0.785349 -0.127664 1.65637e-22)
(0.808707 -0.00239533 -1.66359e-22)
(0.84032 0.130939 -5.99547e-23)
(0.862607 0.259941 1.3034e-22)
(0.868511 0.36774 -2.8477e-22)
(0.859211 0.427844 4.79494e-22)
(0.84104 0.411612 2.21911e-22)
(0.862594 0.38642 1.13944e-21)
(0.894566 0.473346 -1.76229e-21)
(0.904735 0.562957 7.83685e-22)
(0.904461 0.603997 -2.98298e-21)
(0.902077 0.545439 4.6369e-21)
(0.905945 0.373582 -2.17844e-21)
(0.924993 0.12942 3.3736e-21)
(0.951938 -0.108403 -6.58846e-21)
(0.970595 -0.279007 3.75426e-21)
(0.971894 -0.370499 3.60646e-21)
(0.960846 -0.398362 -2.75517e-21)
(0.943281 -0.385542 6.72096e-22)
(0.913344 -0.357977 -1.50411e-21)
(0.866921 -0.33146 2.00356e-22)
(0.817696 -0.296009 1.58981e-22)
(0.787331 -0.231896 2.62774e-23)
(0.787298 -0.131362 -1.38011e-23)
(0.810401 -0.0072493 -6.34763e-23)
(0.841913 0.126187 5.42644e-23)
(0.864484 0.256374 -7.69978e-23)
(0.871084 0.365952 -4.59559e-25)
(0.862576 0.42811 -6.0467e-23)
(0.844915 0.413765 -1.28338e-22)
(0.86189 0.379114 1.03064e-21)
(0.89512 0.46748 -1.84486e-21)
(0.90686 0.559477 -1.75687e-22)
(0.908014 0.604409 2.44581e-21)
(0.906415 0.55039 -1.0436e-21)
(0.910966 0.381673 1.44638e-21)
(0.930531 0.137874 -7.35663e-21)
(0.957355 -0.10182 7.65782e-21)
(0.975814 -0.274835 -2.6957e-21)
(0.976632 -0.36822 -3.63127e-21)
(0.964709 -0.39739 1.61787e-21)
(0.946633 -0.384913 -2.96781e-22)