/*--------------------------------*- C++ -*----------------------------------*\
  =========                 |
  \\      /  F ield         | OpenFOAM: The Open Source CFD Toolbox
   \\    /   O peration     | Website:  https://openfoam.org
    \\  /    A nd           | Version:  7
     \\/     M anipulation  |
\*---------------------------------------------------------------------------*/
FoamFile
{
    version     2.0;
    format      ascii;
    class       volScalarField;
    location    "100";
    object      p;
}
// * * * * * * * * * * * * * * * * * * * * * * * * * * * * * * * * * * * * * //

dimensions      [0 2 -2 0 0 0 0];

internalField   nonuniform List<scalar> 
7156
(
-0.14566
-0.161341
-0.149297
-0.137553
-0.164992
-0.152612
-0.140825
-0.12933
-0.168952
-0.155834
-0.143751
-0.132232
-0.120994
-0.173183
-0.159344
-0.146538
-0.134763
-0.123521
-0.112547
-0.193557
-0.177719
-0.1631
-0.149592
-0.137109
-0.125653
-0.114696
-0.103995
-0.199408
-0.182611
-0.167134
-0.152867
-0.139701
-0.127553
-0.116426
-0.105762
-0.0953414
-0.205743
-0.187906
-0.171494
-0.156391
-0.142489
-0.129677
-0.117874
-0.107086
-0.0967244
-0.0865904
-0.212611
-0.193649
-0.176223
-0.160211
-0.145497
-0.131973
-0.119526
-0.108079
-0.0976389
-0.0875877
-0.077747
-0.220061
-0.199891
-0.181367
-0.164367
-0.14877
-0.134459
-0.121325
-0.109255
-0.098174
-0.0880913
-0.078358
-0.0688164
-0.228126
-0.206677
-0.186973
-0.168904
-0.152347
-0.137179
-0.123284
-0.110552
-0.09887
-0.0881657
-0.0784493
-0.0690415
-0.0598047
-0.236818
-0.214043
-0.193086
-0.173866
-0.156269
-0.14017
-0.125446
-0.111979
-0.0996612
-0.0883789
-0.078061
-0.0687198
-0.0596449
-0.0507182
-0.222
-0.199743
-0.179299
-0.160581
-0.143471
-0.127845
-0.113578
-0.100553
-0.0886611
-0.0777888
-0.0678675
-0.0589103
-0.0501757
-0.0415646
-0.230511
-0.206957
-0.185239
-0.165327
-0.147127
-0.130521
-0.115381
-0.101585
-0.0890139
-0.0775591
-0.0671076
-0.0575929
-0.0490284
-0.040642
-0.0323525
-0.23945
-0.214695
-0.191702
-0.170543
-0.151179
-0.133514
-0.117426
-0.102787
-0.089474
-0.0773691
-0.0663631
-0.0563432
-0.0472455
-0.0390827
-0.0310528
-0.0230922
-0.24855
-0.222838
-0.198659
-0.176248
-0.155667
-0.136869
-0.119753
-0.104197
-0.0900725
-0.0772546
-0.0656272
-0.0550812
-0.0455037
-0.0368335
-0.0290818
-0.0214179
-0.0137962
-0.257343
-0.231133
-0.205998
-0.182416
-0.160608
-0.140622
-0.122406
-0.105855
-0.0908447
-0.0772461
-0.0649353
-0.0537968
-0.0437215
-0.0345972
-0.0263655
-0.0190349
-0.0117482
-0.00447895
-0.265089
-0.239125
-0.213477
-0.188944
-0.165982
-0.144796
-0.125423
-0.107804
-0.091831
-0.0773786
-0.0643179
-0.0525253
-0.041886
-0.0322919
-0.0236316
-0.0158501
-0.00895103
-0.00205498
0.00484098
-0.246094
-0.220659
-0.195601
-0.171693
-0.149372
-0.128826
-0.110082
-0.0930739
-0.0776922
-0.0638096
-0.0512975
-0.0400333
-0.0299033
-0.0208002
-0.0126146
-0.00529516
0.00116111
0.00764885
0.0141384
-0.251018
-0.226843
-0.201965
-0.177522
-0.154263
-0.132602
-0.112713
-0.094612
-0.0782287
-0.0634501
-0.0501482
-0.0381949
-0.0274685
-0.0178568
-0.00925387
-0.0015531
0.00529191
0.0112937
0.0173496
0.0233811
-0.252593
-0.231026
-0.207355
-0.183062
-0.159259
-0.136669
-0.115687
-0.0964707
-0.0790274
-0.0632811
-0.0491166
-0.0364054
-0.02502
-0.0148399
-0.00575462
0.00234017
0.00954658
0.015905
0.0214406
0.0270363
0.0325395
-0.231924
-0.210792
-0.187653
-0.16397
-0.14083
-0.11893
-0.0986438
-0.080115
-0.063342
-0.0482441
-0.0347038
-0.0225924
-0.011783
-0.00215668
0.00639532
0.0139753
0.0206789
0.0265389
0.0315999
0.0367082
0.0415882
-0.228097
-0.21101
-0.190339
-0.167759
-0.144711
-0.122255
-0.101063
-0.0814885
-0.0636608
-0.0475701
-0.0331309
-0.020224
-0.00872057
0.00150556
0.0105718
0.0185851
0.0256454
0.031839
0.0371908
0.0417781
0.0463715
0.0504547
-0.218271
-0.20658
-0.189875
-0.169691
-0.147695
-0.125305
-0.103553
-0.0830862
-0.0642378
-0.0471238
-0.031726
-0.017955
-0.00568979
0.00519847
0.0148351
0.0233361
0.0308068
0.0373443
0.0430231
0.0478647
0.0519974
0.0560159
0.0589352
-0.196234
-0.184846
-0.168544
-0.148871
-0.127483
-0.105772
-0.0847435
-0.0650175
-0.0469087
-0.0305196
-0.0158246
-0.00273013
0.00888601
0.0191528
0.0281946
0.0361263
0.0430519
0.0490656
0.0542294
0.0585763
0.0622984
0.0656136
0.0667939
-0.179281
-0.173991
-0.16292
-0.147043
-0.127904
-0.107146
-0.0861346
-0.065846
-0.0468755
-0.0295182
-0.0138643
0.000119278
0.0125297
0.0234903
0.0331301
0.0415728
0.0489319
0.055311
0.060801
0.0654564
0.0693428
0.0727008
0.0751544
0.0744086
-0.156599
-0.151567
-0.14083
-0.125398
-0.106815
-0.0867064
-0.0664133
-0.0468806
-0.0286786
-0.0120837
0.00282595
0.0160905
0.0278103
0.0381099
0.0471181
0.0549577
0.0617418
0.0675734
0.0725407
0.0766979
0.0801544
0.0831303
0.0845539
0.0839673
-0.132504
-0.133756
-0.128991
-0.118602
-0.103633
-0.0856263
-0.0661881
-0.04663
-0.0278674
-0.0104455
0.00537735
0.0195349
0.0320738
0.0430974
0.0527311
0.0611037
0.0683373
0.0745443
0.0798272
0.0842729
0.0879393
0.0909643
0.093526
0.0944266
0.0943783
-0.109191
-0.110781
-0.106289
-0.0962633
-0.0817767
-0.0643645
-0.0456139
-0.0268062
-0.00882645
0.00780493
0.0228474
0.0362461
0.0480537
0.0583763
0.0673404
0.0750742
0.0816993
0.0873274
0.0920607
0.0959853
0.099164
0.101747
0.103871
0.104368
0.104425
-0.0857751
-0.0877038
-0.083492
-0.0738416
-0.0598536
-0.0430538
-0.0250072
-0.00696366
0.0102219
0.0260538
0.0403089
0.052943
0.0640147
0.0736326
0.0819239
0.0890163
0.0950309
0.100079
0.104262
0.107665
0.110357
0.112491
0.114176
0.114309
0.114265
-0.0622856
-0.0645517
-0.0606265
-0.0513644
-0.0378906
-0.0217193
-0.00439121
0.0128757
0.0292573
0.0442821
0.0577439
0.0696089
0.0799412
0.0888516
0.0964677
0.102917
0.10832
0.112786
0.116418
0.1193
0.121504
0.123183
0.124429
0.124203
0.123968
-0.0387517
-0.0413541
-0.0377214
-0.0288593
-0.0159139
-0.000385776
0.0162106
0.0326902
0.0482594
0.0624709
0.0751349
0.0862273
0.0958175
0.104018
0.110958
0.116763
0.121553
0.125438
0.128518
0.130879
0.132592
0.133813
0.134618
0.134024
0.133541
-0.0152027
-0.0181399
-0.0148053
-0.0063537
0.00605002
0.0209218
0.0367749
0.0524578
0.0672078
0.0806012
0.0924639
0.102782
0.111628
0.119118
0.12538
0.130541
0.134718
0.138021
0.140549
0.142388
0.14361
0.144368
0.144729
0.143758
0.142991
0.00833194
0.00506167
0.00809327
0.0161246
0.0279748
0.0421785
0.0572783
0.072157
0.0860824
0.0986539
0.109713
0.119255
0.127357
0.134137
0.139722
0.144238
0.147803
0.150524
0.152501
0.153817
0.154548
0.15484
0.154754
0.153397
0.152321
0.0318228
0.0282217
0.0309459
0.0385481
0.0498341
0.0633596
0.0776976
0.0917659
0.104863
0.11661
0.126865
0.135631
0.142989
0.149059
0.153968
0.15784
0.160794
0.162935
0.164361
0.165156
0.165393
0.165219
0.164683
0.162934
0.161533
0.0552405
0.0513111
0.053724
0.0608892
0.0716018
0.0844402
0.0980097
0.111263
0.123528
0.134451
0.143902
0.151892
0.158509
0.16387
0.168104
0.171336
0.17368
0.175242
0.176119
0.176393
0.176138
0.175495
0.174508
0.172364
0.170625
0.0785558
0.074301
0.0763992
0.0831206
0.0932518
0.105396
0.118191
0.130627
0.14206
0.152158
0.160806
0.168024
0.1739
0.178556
0.182118
0.184711
0.186448
0.187434
0.187763
0.187518
0.186771
0.185661
0.184223
0.18168
0.179596
0.10174
0.0971626
0.0989435
0.105215
0.114758
0.126202
0.13822
0.149835
0.160437
0.169712
0.177561
0.184008
0.189148
0.193101
0.195996
0.197953
0.199086
0.199499
0.199284
0.198522
0.197285
0.195708
0.193819
0.190879
0.188441
0.124763
0.119867
0.121329
0.127146
0.136095
0.146835
0.158073
0.168869
0.17864
0.187096
0.194147
0.199829
0.204237
0.207493
0.209724
0.21105
0.211584
0.211426
0.21067
0.209394
0.20767
0.205629
0.203291
0.199954
0.197159
0.147597
0.142387
0.143527
0.148886
0.157238
0.167271
0.177728
0.187705
0.196649
0.204289
0.21055
0.215471
0.219153
0.221717
0.223289
0.223989
0.223927
0.223205
0.221912
0.220126
0.217918
0.215414
0.21263
0.2089
0.205745
0.170214
0.164693
0.165511
0.170408
0.17816
0.187485
0.197162
0.206324
0.214445
0.221275
0.226751
0.230919
0.23388
0.235758
0.236677
0.236757
0.236106
0.234824
0.232999
0.230708
0.22802
0.225058
0.221832
0.217711
0.214194
0.192585
0.186758
0.187254
0.191688
0.198838
0.207454
0.216354
0.224704
0.232009
0.238036
0.242734
0.246155
0.248404
0.249603
0.249877
0.249343
0.248109
0.246273
0.243922
0.24113
0.237967
0.234551
0.230888
0.226381
0.214683
0.208554
0.208728
0.212698
0.219246
0.227156
0.235283
0.242827
0.249322
0.254554
0.258482
0.261165
0.262709
0.263238
0.262874
0.261734
0.259925
0.257541
0.25467
0.251385
0.247752
0.243887
0.239793
0.234904
0.23648
0.230054
0.229908
0.233414
0.239361
0.246568
0.253926
0.260672
0.266365
0.270811
0.27398
0.275934
0.276783
0.27665
0.275657
0.27392
0.271542
0.268619
0.265235
0.261462
0.257366
0.253059
0.248538
0.243275
0.257949
0.251232
0.250766
0.25381
0.259159
0.265667
0.272263
0.278219
0.283121
0.286791
0.28921
0.290447
0.290611
0.289826
0.288213
0.285887
0.28295
0.279496
0.275606
0.271353
0.266802
0.262058
0.257119
0.279064
0.272061
0.271278
0.273861
0.278616
0.284431
0.290273
0.295449
0.29957
0.302477
0.304158
0.304688
0.304179
0.302752
0.300531
0.297625
0.294139
0.290161
0.285776
0.28105
0.27605
0.270878
0.265527
0.299798
0.292516
0.291419
0.293545
0.29771
0.30284
0.307938
0.312344
0.315697
0.317851
0.318808
0.318644
0.317473
0.315417
0.312597
0.309123
0.305097
0.300606
0.295733
0.290545
0.285104
0.279511
0.273757
0.320126
0.312571
0.311163
0.312836
0.316419
0.320871
0.325235
0.328885
0.331482
0.3329
0.333145
0.3323
0.33048
0.327807
0.324401
0.32037
0.315814
0.310821
0.30547
0.299828
0.293956
0.28795
0.281802
0.340024
0.332202
0.330487
0.331712
0.334719
0.338505
0.342147
0.345054
0.346911
0.347605
0.347154
0.345642
0.343187
0.339911
0.335931
0.331355
0.326281
0.320797
0.314978
0.308892
0.302598
0.296189
0.359466
0.351384
0.349367
0.350151
0.352591
0.355721
0.358655
0.360834
0.361966
0.361953
0.36082
0.358658
0.355582
0.351716
0.347175
0.342067
0.336488
0.330523
0.324249
0.317729
0.311023
0.30422
0.378429
0.370095
0.36778
0.36813
0.370013
0.372499
0.374741
0.376207
0.37663
0.375927
0.37413
0.371333
0.367653
0.363211
0.358124
0.352497
0.346425
0.339992
0.333273
0.326331
0.319224
0.312036
0.396889
0.38831
0.385705
0.385628
0.386965
0.388822
0.390386
0.391157
0.39089
0.389514
0.387071
0.383655
0.379386
0.374385
0.368766
0.362635
0.356083
0.349195
0.342043
0.33469
0.327193
0.319632
0.414825
0.406009
0.403119
0.402625
0.403428
0.40467
0.405573
0.405668
0.404729
0.4027
0.399628
0.395611
0.390771
0.385226
0.379092
0.37247
0.365453
0.358123
0.350551
0.342799
0.334923
0.432215
0.423169
0.420001
0.4191
0.419382
0.420025
0.420286
0.419724
0.418133
0.41547
0.411789
0.40719
0.401796
0.395725
0.38909
0.381994
0.374526
0.366768
0.35879
0.350651
0.342408
0.449037
0.439769
0.436332
0.435034
0.434809
0.434871
0.434509
0.43331
0.431088
0.427812
0.423541
0.41838
0.41245
0.40587
0.398752
0.391197
0.383294
0.375122
0.366751
0.358239
0.349642
0.465272
0.455791
0.452091
0.450408
0.449692
0.449191
0.448226
0.446412
0.443581
0.439712
0.434873
0.429169
0.422723
0.415652
0.408068
0.400071
0.391748
0.383177
0.374427
0.365556
0.356617
0.480899
0.471214
0.467261
0.465205
0.464014
0.462968
0.461422
0.459015
0.455597
0.451159
0.445773
0.439547
0.432604
0.425062
0.41703
0.408607
0.39988
0.390926
0.381813
0.372596
0.363328
0.495901
0.486019
0.481823
0.479407
0.477758
0.476189
0.474083
0.471106
0.467125
0.462141
0.45623
0.449504
0.442084
0.43409
0.425629
0.416798
0.407684
0.398363
0.3889
0.379352
0.510258
0.500191
0.495759
0.492998
0.490909
0.488837
0.486196
0.482673
0.478153
0.472646
0.466233
0.459029
0.451154
0.442727
0.433855
0.424635
0.415152
0.405479
0.395683
0.385818
0.523955
0.51371
0.509054
0.505962
0.503452
0.5009
0.497747
0.493703
0.488669
0.482664
0.475773
0.468113
0.459804
0.450966
0.441703
0.432112
0.422276
0.412269
0.402155
0.391989
0.536975
0.526562
0.521693
0.518284
0.515373
0.512363
0.508723
0.504185
0.498663
0.492184
0.48484
0.476746
0.468027
0.458797
0.449164
0.439221
0.42905
0.418726
0.408311
0.397859
0.549302
0.538732
0.533659
0.529951
0.526659
0.523216
0.519115
0.514108
0.508124
0.501197
0.493424
0.484922
0.475814
0.466215
0.456231
0.445955
0.435469
0.424845
0.414146
0.403424
0.560923
0.550205
0.54494
0.540949
0.537297
0.533445
0.528909
0.523461
0.517042
0.509695
0.501518
0.492631
0.483157
0.473211
0.462897
0.452309
0.441526
0.43062
0.419653
0.408677
0.571824
0.560967
0.555523
0.551265
0.547276
0.54304
0.538096
0.532235
0.525409
0.517667
0.509113
0.499866
0.49005
0.479779
0.469157
0.458276
0.447216
0.436046
0.424829
0.413615
0.581992
0.571007
0.565395
0.560889
0.556585
0.55199
0.546667
0.540421
0.533216
0.525108
0.516202
0.50662
0.496486
0.485913
0.475004
0.463851
0.452533
0.441118
0.429668
0.591416
0.580314
0.574546
0.569809
0.565213
0.560287
0.554613
0.548011
0.540455
0.532008
0.522778
0.512887
0.502459
0.491607
0.480434
0.469029
0.457473
0.445832
0.434167
0.600085
0.588875
0.582965
0.578016
0.573152
0.567922
0.561925
0.554996
0.54712
0.538362
0.528834
0.518661
0.507964
0.496856
0.485441
0.473806
0.462031
0.450183
0.438322
0.607989
0.596683
0.590644
0.585502
0.580393
0.574886
0.568596
0.561371
0.553203
0.544164
0.534366
0.523936
0.512994
0.501656
0.49002
0.478177
0.466204
0.454168
0.442128
0.61512
0.603728
0.597572
0.592257
0.586929
0.581173
0.57462
0.567129
0.558699
0.549407
0.539368
0.528707
0.517547
0.506001
0.494168
0.482138
0.469988
0.457784
0.445584
0.62147
0.610004
0.603745
0.598276
0.592753
0.586777
0.579991
0.572264
0.563603
0.554088
0.543835
0.532971
0.521618
0.509888
0.497882
0.485687
0.47338
0.461027
0.448685
0.627033
0.615502
0.609154
0.603551
0.59786
0.591692
0.584703
0.576773
0.567911
0.558202
0.547764
0.536724
0.525203
0.513314
0.501157
0.488819
0.476376
0.463895
0.451431
0.631802
0.620218
0.613794
0.608078
0.602243
0.595913
0.588753
0.580649
0.571618
0.561746
0.551151
0.539961
0.528299
0.516277
0.503992
0.491533
0.478976
0.466385
0.453818
0.635773
0.624147
0.617662
0.611853
0.6059
0.599437
0.592137
0.583892
0.574722
0.564715
0.553993
0.542682
0.530905
0.518773
0.506384
0.493827
0.481176
0.468497
0.455845
0.638943
0.627286
0.620753
0.614872
0.608828
0.602261
0.594852
0.586497
0.577219
0.56711
0.556288
0.544884
0.533017
0.5208
0.508332
0.495699
0.482976
0.470228
0.457511
0.641308
0.629632
0.623066
0.617133
0.611023
0.604382
0.596896
0.588463
0.579109
0.568926
0.558035
0.546564
0.534635
0.522359
0.509834
0.497147
0.484373
0.471577
0.458814
0.642868
0.631183
0.624598
0.618634
0.612485
0.6058
0.598267
0.589789
0.58039
0.570165
0.559233
0.547724
0.535758
0.523447
0.51089
0.498172
0.485368
0.472544
0.459754
0.643622
0.631939
0.625349
0.619376
0.613214
0.606514
0.598967
0.590474
0.581062
0.570824
0.559881
0.548361
0.536385
0.524065
0.511499
0.498773
0.485961
0.473129
0.460331
0.643569
0.6319
0.625319
0.619357
0.613209
0.606525
0.598994
0.590519
0.581126
0.570906
0.55998
0.548477
0.536518
0.524213
0.511662
0.498949
0.486151
0.473331
0.460546
0.642712
0.631068
0.624511
0.61858
0.612471
0.605833
0.598351
0.589925
0.580581
0.570409
0.559531
0.548072
0.536155
0.523891
0.511378
0.498703
0.485939
0.473152
0.460397
0.641054
0.629445
0.622926
0.617048
0.611005
0.604441
0.597038
0.588694
0.579431
0.569337
0.558534
0.547148
0.5353
0.523102
0.510651
0.498034
0.485326
0.472592
0.459887
0.638597
0.627036
0.620567
0.614763
0.608811
0.602351
0.59506
0.586828
0.577677
0.567692
0.556993
0.545706
0.533953
0.521845
0.50948
0.496945
0.484314
0.471652
0.459017
0.635347
0.623843
0.617441
0.611729
0.605895
0.599568
0.592418
0.584331
0.575322
0.565476
0.55491
0.54375
0.532118
0.520125
0.507869
0.495436
0.482904
0.470335
0.457788
0.631308
0.619874
0.61355
0.607952
0.602261
0.596096
0.589119
0.581207
0.572371
0.562692
0.552288
0.541282
0.529797
0.517943
0.505819
0.493512
0.481098
0.468643
0.456202
0.626489
0.615134
0.608903
0.603439
0.597915
0.591941
0.585166
0.57746
0.568827
0.559346
0.549131
0.538306
0.526993
0.515303
0.503334
0.491175
0.4789
0.466577
0.454262
0.620895
0.609631
0.603507
0.598195
0.592863
0.587108
0.580565
0.573096
0.564696
0.555442
0.545444
0.534827
0.523711
0.512208
0.500418
0.488427
0.476313
0.464142
0.45197
0.614537
0.603374
0.597369
0.592229
0.587114
0.581605
0.575324
0.568121
0.559984
0.550985
0.541232
0.530848
0.519955
0.508663
0.497073
0.485273
0.473339
0.461339
0.44933
0.607423
0.596372
0.590498
0.585549
0.580675
0.575439
0.569449
0.562541
0.554697
0.545981
0.5365
0.526376
0.51573
0.504673
0.493306
0.481717
0.469984
0.458174
0.446345
0.599564
0.588635
0.582906
0.578166
0.573555
0.56862
0.562949
0.556366
0.548843
0.540438
0.531256
0.521417
0.511042
0.500243
0.48912
0.477764
0.466251
0.454649
0.443018
0.590972
0.580176
0.574603
0.57009
0.565766
0.561156
0.555832
0.549602
0.542428
0.534361
0.525504
0.515976
0.505896
0.495378
0.484521
0.473417
0.462144
0.45077
0.439354
0.427948
0.581659
0.571005
0.565602
0.561332
0.557316
0.553058
0.548108
0.542259
0.535461
0.527761
0.519254
0.510061
0.5003
0.490084
0.479515
0.468684
0.457669
0.446541
0.435358
0.424172
0.571638
0.561138
0.555914
0.551905
0.548219
0.544337
0.539788
0.534347
0.527952
0.520643
0.512513
0.503679
0.49426
0.484369
0.474108
0.463569
0.452832
0.441967
0.431034
0.420084
0.560925
0.550587
0.545555
0.541823
0.538487
0.535004
0.530881
0.525875
0.519911
0.513019
0.50529
0.496839
0.487784
0.478239
0.468307
0.45808
0.447639
0.437054
0.426387
0.41569
0.549533
0.539367
0.534538
0.531098
0.528133
0.525072
0.521401
0.516855
0.511346
0.504897
0.497593
0.489548
0.480879
0.471701
0.462118
0.452222
0.442094
0.431807
0.421422
0.410993
0.537481
0.527496
0.522879
0.519746
0.51717
0.514555
0.511359
0.507298
0.50227
0.496287
0.489432
0.481815
0.473554
0.464764
0.455549
0.446002
0.436206
0.426233
0.416146
0.406
0.524783
0.51499
0.510594
0.507783
0.505615
0.503465
0.500768
0.497217
0.492693
0.487201
0.480818
0.473651
0.465819
0.457436
0.448608
0.439428
0.42998
0.420338
0.410565
0.400716
0.511459
0.501865
0.497701
0.495225
0.493481
0.491819
0.489643
0.486624
0.482628
0.47765
0.47176
0.465065
0.457682
0.449726
0.441302
0.432507
0.423425
0.414129
0.404685
0.395148
0.385568
0.497527
0.488142
0.484218
0.482089
0.480787
0.47963
0.477996
0.475533
0.472087
0.467644
0.46227
0.456067
0.449153
0.441642
0.433642
0.425248
0.416547
0.407613
0.398512
0.3893
0.38003
0.483006
0.473838
0.470163
0.468393
0.467548
0.466915
0.465844
0.463957
0.461083
0.457198
0.452359
0.446668
0.440242
0.433195
0.425635
0.417659
0.409355
0.400797
0.392053
0.383181
0.374232
0.467917
0.458975
0.455556
0.454156
0.453782
0.453691
0.453202
0.451911
0.449631
0.446323
0.44204
0.43688
0.43096
0.424394
0.417291
0.409749
0.401856
0.393689
0.385316
0.376796
0.368181
0.45228
0.443572
0.440417
0.439397
0.439508
0.439975
0.440086
0.439411
0.437743
0.435032
0.431324
0.426714
0.421317
0.415249
0.408619
0.401526
0.39406
0.386297
0.378309
0.370153
0.361883
0.436119
0.427652
0.424767
0.424137
0.424745
0.425784
0.426513
0.426472
0.425436
0.42334
0.420225
0.416182
0.411326
0.405772
0.39963
0.393001
0.385974
0.37863
0.371038
0.363258
0.355346
0.347374
0.419454
0.411236
0.408628
0.408396
0.409511
0.411138
0.4125
0.41311
0.412723
0.41126
0.408756
0.405297
0.400997
0.395972
0.390333
0.384182
0.377609
0.370694
0.363511
0.356119
0.348575
0.340955
0.402309
0.394348
0.392022
0.392195
0.393829
0.396055
0.398064
0.399342
0.39962
0.398808
0.39693
0.394071
0.390343
0.385862
0.38074
0.375079
0.368972
0.362501
0.355737
0.348744
0.341579
0.334321
0.384708
0.37701
0.374972
0.375557
0.377718
0.380554
0.383225
0.385185
0.386144
0.385998
0.384762
0.382518
0.379377
0.375453
0.370861
0.365704
0.360075
0.354057
0.347725
0.341141
0.334364
0.327477
0.366676
0.359248
0.357501
0.358503
0.361199
0.364657
0.368001
0.370657
0.372311
0.372845
0.372266
0.370652
0.36811
0.364757
0.360708
0.356066
0.350926
0.345373
0.339482
0.333317
0.326938
0.32043
0.313791
0.348237
0.341085
0.339634
0.341058
0.344296
0.348383
0.352411
0.355775
0.358138
0.359366
0.359458
0.358485
0.356556
0.353786
0.350291
0.346175
0.341535
0.336457
0.331017
0.325281
0.319308
0.313189
0.30692
0.329416
0.322548
0.321394
0.323245
0.327029
0.331753
0.336475
0.340558
0.343642
0.345576
0.346351
0.346033
0.344728
0.342553
0.339622
0.336043
0.331914
0.32732
0.32234
0.31704
0.311482
0.30576
0.29987
0.310241
0.303661
0.302809
0.305087
0.309423
0.31479
0.320213
0.325025
0.328841
0.331493
0.332961
0.333309
0.332639
0.331069
0.328714
0.325682
0.322071
0.31797
0.313459
0.308604
0.303469
0.29815
0.292646
0.290737
0.284451
0.283902
0.28661
0.2915
0.297514
0.303646
0.309195
0.313752
0.317132
0.319305
0.320329
0.320305
0.319349
0.317578
0.315102
0.312018
0.308419
0.304383
0.299981
0.295275
0.290366
0.285255
0.279502
0.270931
0.264945
0.2647
0.267839
0.273284
0.279949
0.286795
0.293088
0.298394
0.302511
0.305398
0.307107
0.307738
0.307405
0.306227
0.304314
0.301766
0.298675
0.295123
0.291179
0.286909
0.282416
0.277705
0.272305
0.250852
0.24517
0.24523
0.248799
0.254799
0.262118
0.269681
0.276724
0.282786
0.287648
0.291257
0.293659
0.294952
0.295251
0.294674
0.293331
0.291326
0.28875
0.285687
0.282208
0.27838
0.274308
0.270002
0.264961
0.230526
0.225153
0.225518
0.229516
0.236071
0.244042
0.252325
0.260123
0.266947
0.27256
0.276897
0.280001
0.281963
0.282901
0.282931
0.282165
0.280708
0.278653
0.276085
0.273077
0.269695
0.26605
0.262153
0.257475
0.25335
0.209981
0.204922
0.205592
0.210016
0.217123
0.225747
0.23475
0.243305
0.250895
0.257264
0.262337
0.266147
0.268786
0.270367
0.27101
0.270828
0.269925
0.268396
0.266328
0.263794
0.260863
0.257647
0.254165
0.249853
0.24607
0.189247
0.184505
0.185479
0.190326
0.197981
0.207255
0.216978
0.226291
0.23465
0.24178
0.247592
0.252114
0.255434
0.257665
0.258926
0.259331
0.258987
0.257989
0.256424
0.254369
0.251892
0.249109
0.246044
0.242102
0.23866
0.168351
0.163931
0.165206
0.170472
0.178671
0.18859
0.199032
0.209102
0.218232
0.226125
0.23268
0.237918
0.241923
0.244808
0.246691
0.247688
0.247906
0.247442
0.246385
0.244812
0.242791
0.240444
0.237798
0.234228
0.231124
0.147324
0.143228
0.144803
0.150482
0.159218
0.169778
0.180933
0.19176
0.20166
0.210318
0.217619
0.223575
0.228269
0.23181
0.234319
0.235911
0.236694
0.236767
0.23622
0.235131
0.233568
0.231658
0.229433
0.226237
0.223466
0.126193
0.122425
0.124296
0.130383
0.139649
0.150841
0.162706
0.174285
0.184955
0.194377
0.202425
0.209102
0.214486
0.218687
0.221823
0.224013
0.225364
0.225976
0.22594
0.225336
0.224233
0.22276
0.220956
0.218133
0.21569
0.104988
0.10155
0.103715
0.110201
0.119988
0.131806
0.144372
0.1567
0.168136
0.178322
0.187116
0.194515
0.20059
0.205451
0.209217
0.212006
0.213926
0.215078
0.215556
0.215438
0.214794
0.213758
0.212375
0.209921
0.207799
0.0837376
0.0806331
0.0830868
0.089965
0.100263
0.112695
0.125956
0.139025
0.151224
0.162171
0.171711
0.17983
0.186597
0.192119
0.196515
0.199903
0.202393
0.204086
0.205077
0.205446
0.205262
0.20466
0.203696
0.201609
0.199795
0.0624721
0.0597026
0.0624412
0.0697018
0.0804994
0.0935353
0.10748
0.121283
0.134239
0.145943
0.156225
0.165063
0.172522
0.178704
0.18373
0.187717
0.190777
0.193012
0.194516
0.195371
0.195645
0.195475
0.194926
0.193199
0.191679
0.0412204
0.0387875
0.041806
0.0494392
0.0607238
0.0743505
0.0889671
0.103496
0.117201
0.129657
0.140678
0.150233
0.15838
0.165222
0.170876
0.175462
0.179091
0.181867
0.183884
0.185223
0.185954
0.186214
0.186076
0.184699
0.18345
0.0200116
0.0179167
0.0212097
0.0292046
0.0409625
0.0551657
0.0704418
0.0856845
0.10013
0.113332
0.125088
0.135355
0.144188
0.151686
0.157967
0.16315
0.167347
0.170663
0.173192
0.175015
0.176199
0.176884
0.177153
0.176117
0.175103
-0.00112507
-0.00288114
0.000680633
0.00902544
0.0212418
0.0360059
0.0519269
0.0678713
0.0830481
0.0969877
0.109471
0.120446
0.12996
0.138112
0.145017
0.150795
0.155559
0.159412
0.162451
0.164756
0.166392
0.167498
0.16817
0.167463
0.166631
-0.0221608
-0.0235774
-0.0197531
-0.0110708
0.00158796
0.0168959
0.0334458
0.0500779
0.0659741
0.080642
0.0938453
0.105522
0.115713
0.124514
0.13204
0.13841
0.143737
0.148126
0.151673
0.15446
0.156546
0.158066
0.15914
0.15876
0.158021
-0.0430667
-0.044144
-0.0400637
-0.0310571
-0.017973
-0.00213969
0.0150216
0.032326
0.0489287
0.0643142
0.0782291
0.0906001
0.101462
0.110907
0.119049
0.126007
0.131895
0.136817
0.140871
0.144138
0.146674
0.148601
0.150075
0.150049
0.149205
-0.0645526
-0.0602232
-0.0509063
-0.0374152
-0.0210761
-0.0033225
0.0146373
0.031932
0.048023
0.0626396
0.0756968
0.0872228
0.0973056
0.106058
0.1136
0.120045
0.125498
0.130057
0.133803
0.13679
0.139116
0.140968
0.141391
0.140048
-0.084775
-0.0802037
-0.0705913
-0.0567125
-0.0398888
-0.0215634
-0.00296678
0.015004
0.0317872
0.0470942
0.0608281
0.0730098
0.0837236
0.0930812
0.101201
0.108199
0.11418
0.119241
0.123467
0.126911
0.129635
0.131841
0.133171
0.131736
-0.0999793
-0.0900866
-0.0758401
-0.0585539
-0.0396785
-0.020465
-0.00183539
0.0156253
0.0316103
0.0460102
0.0588385
0.0701755
0.0801311
0.0888239
0.0963691
0.102874
0.108435
0.11314
0.11705
0.120199
0.122751
0.124861
0.125147
-0.119523
-0.109366
-0.0947727
-0.0770475
-0.0576452
-0.0378361
-0.0185666
-0.000444514
0.0162048
0.0312591
0.0447239
0.0566751
0.0672211
0.0764799
0.0845672
0.0915911
0.0976498
0.102834
0.107214
0.110816
0.113752
0.11651
0.118346
-0.128403
-0.113485
-0.0953457
-0.0754412
-0.0550594
-0.0351701
-0.0164041
0.000894653
0.0165905
0.0306806
0.0432363
0.054364
0.0641812
0.0728042
0.0803422
0.0868947
0.0925547
0.0974032
0.10147
0.104823
0.108108
0.110994
-0.131954
-0.113425
-0.0930445
-0.0721142
-0.0516267
-0.0322355
-0.0143036
0.00201975
0.016723
0.0298725
0.0415724
0.0519396
0.0610909
0.0691366
0.0761778
0.0823095
0.0876208
0.0921489
0.0959319
0.0996832
0.103288
-0.150154
-0.131263
-0.110434
-0.0889803
-0.0679176
-0.0479214
-0.0293736
-0.0124378
0.0028653
0.0165969
0.0288586
0.0397665
0.0494377
0.0579837
0.0655071
0.0721044
0.0778704
0.0828489
0.0870607
0.0912502
0.0954125
-0.148837
-0.127587
-0.105638
-0.0840241
-0.0634442
-0.0442993
-0.0267673
-0.0108785
0.00342256
0.0162347
0.027673
0.037855
0.0468927
0.0548903
0.0619456
0.0681571
0.0735739
0.0782053
0.0828075
0.0874397
-0.144484
-0.122067
-0.0999281
-0.0787872
-0.0590649
-0.040954
-0.0244948
-0.00963792
0.00371238
0.0156701
0.0263525
0.0358726
0.0443354
0.0518399
0.0584867
0.0643291
0.0693683
0.074357
0.0793962
-0.138248
-0.115612
-0.0939337
-0.073655
-0.0549836
-0.0379704
-0.0225721
-0.00869674
0.00376841
0.0149403
0.0249324
0.0338504
0.0417941
0.0488655
0.0551211
0.0605561
0.0659094
0.0713092
-0.154164
-0.131057
-0.108867
-0.0880546
-0.0688421
-0.051292
-0.0353679
-0.0209814
-0.00802167
0.00362786
0.0140807
0.0234434
0.0318158
0.0393006
0.0459571
0.0517765
0.0574778
0.0632077
-0.146248
-0.123573
-0.102249
-0.082516
-0.0644472
-0.0480136
-0.0331307
-0.0196899
-0.00757533
0.00332655
0.0131224
0.0219124
0.0297995
0.0368451
0.0430382
0.0490743
0.0551151
-0.138034
-0.116224
-0.0959918
-0.0774236
-0.0604975
-0.045134
-0.0312263
-0.01866
-0.00732155
0.00289571
0.012092
0.0203699
0.0277933
0.0343501
0.04071
0.0470485
-0.129965
-0.109257
-0.0902091
-0.0728087
-0.0569807
-0.0426212
-0.029617
-0.017855
-0.00722863
0.00236215
0.0110198
0.01881
0.0257207
0.032395
0.0390213
-0.122299
-0.102792
-0.0849361
-0.0686607
-0.0538652
-0.0404374
-0.0282654
-0.0172426
-0.00726915
0.00175688
0.0099033
0.0171585
0.0241385
0.0310451
-0.115162
-0.0968695
-0.0801644
-0.0649489
-0.0511127