/*--------------------------------*- C++ -*----------------------------------*\
  =========                 |
  \\      /  F ield         | OpenFOAM: The Open Source CFD Toolbox
   \\    /   O peration     | Website:  https://openfoam.org
    \\  /    A nd           | Version:  7
     \\/     M anipulation  |
\*---------------------------------------------------------------------------*/
FoamFile
{
    version     2.0;
    format      ascii;
    class       surfaceScalarField;
    location    "100";
    object      phi;
}
// * * * * * * * * * * * * * * * * * * * * * * * * * * * * * * * * * * * * * //

dimensions      [0 3 -1 0 0 0 0];

internalField   nonuniform List<scalar> 
13974
(
-0.00333909
-0.000215196
-0.000192678
-0.00318314
-0.00021425
-0.00324946
-0.00331709
-0.000236252
-0.000190049
-0.0030975
-0.000211988
-0.0031612
-0.000234349
-0.0032271
-0.0032943
-0.000257136
-0.000186145
-0.00301482
-0.000208396
-0.00307525
-0.000231122
-0.00313847
-0.000254272
-0.00320395
-0.00327073
-0.000277843
-0.000181068
-0.00293555
-0.000203538
-0.00299235
-0.000226563
-0.00305222
-0.000250076
-0.00311496
-0.000274016
-0.00318001
-0.00324638
-0.000298369
-0.000152939
-0.00280933
-0.000174922
-0.00285976
-0.000197529
-0.00291294
-0.000220749
-0.00296913
-0.000244545
-0.00302843
-0.000268845
-0.00309066
-0.000293575
-0.00315528
-0.00322124
-0.000318711
-0.000145715
-0.00273984
-0.000167785
-0.00278726
-0.000190478
-0.00283707
-0.000213808
-0.00288961
-0.000237774
-0.00294517
-0.000262338
-0.00300386
-0.000287424
-0.00306557
-0.000312946
-0.00312976
-0.00319532
-0.000338863
-0.000137545
-0.0026729
-0.000159694
-0.00271769
-0.000182459
-0.00276449
-0.000205855
-0.00281367
-0.000229903
-0.00286557
-0.000254607
-0.00292046
-0.000279936
-0.00297853
-0.000305808
-0.0030397
-0.000332122
-0.00310345
-0.00316862
-0.000358822
-0.000128457
-0.00260799
-0.000150671
-0.00265068
-0.000173506
-0.00269486
-0.00019696
-0.00274104
-0.000221052
-0.00278958
-0.00024581
-0.00284081
-0.000271246
-0.00289502
-0.000297334
-0.00295245
-0.00032399
-0.00301304
-0.000351099
-0.00307634
-0.00314114
-0.000378582
-0.000118491
-0.00254443
-0.000140735
-0.00258575
-0.000163633
-0.00262778
-0.00018715
-0.00267134
-0.000211287
-0.0027169
-0.000236068
-0.0027648
-0.000261527
-0.00281535
-0.000287686
-0.00286887
-0.000314527
-0.0029256
-0.000341966
-0.00298561
-0.000369871
-0.00304843
-0.00311288
-0.000398137
-0.000107721
-0.00248114
-0.000129926
-0.00252223
-0.000152856
-0.00256282
-0.000176433
-0.00260421
-0.000200625
-0.00264715
-0.000225438
-0.00269209
-0.000250899
-0.00273934
-0.000277051
-0.0027892
-0.000303924
-0.00284199
-0.000331511
-0.00289802
-0.000359729
-0.00295739
-0.000388432
-0.00301973
-0.00308382
-0.000417484
-9.62623e-05
-0.00241646
-0.00011831
-0.0024591
-0.000141209
-0.00249933
-0.000164819
-0.00253921
-0.000189068
-0.00257996
-0.000213929
-0.00262229
-0.000239411
-0.00266661
-0.000265546
-0.00271321
-0.00029238
-0.00276236
-0.000319957
-0.00281442
-0.000348279
-0.0028697
-0.000377271
-0.0029284
-0.000406774
-0.00299023
-0.00305398
-0.000436614
-0.000105998
-0.00239474
-0.000128755
-0.00243634
-0.00015234
-0.00247575
-0.000176623
-0.00251492
-0.000201537
-0.00255505
-0.000227062
-0.00259676
-0.000253206
-0.00264046
-0.000280006
-0.00268641
-0.000307513
-0.00273486
-0.000335781
-0.00278615
-0.000364827
-0.00284065
-0.000394587
-0.00289864
-0.00042489
-0.00295992
-0.00302335
-0.000455522
-9.31492e-05
-0.00232672
-0.000115598
-0.00237229
-0.000139055
-0.00241288
-0.000163318
-0.00245148
-0.000188266
-0.00248998
-0.00021384
-0.00252947
-0.000240022
-0.00257058
-0.000266823
-0.00261366
-0.00029428
-0.00265895
-0.000322449
-0.00270669
-0.000351395
-0.0027572
-0.000381151
-0.00281089
-0.000411669
-0.00286812
-0.000442772
-0.00292882
-0.00299192
-0.0004742
-7.9987e-05
-0.00225151
-0.000101892
-0.00230481
-0.000125062
-0.00234912
-0.000149208
-0.00238874
-0.000174141
-0.00242655
-0.000199748
-0.00246437
-0.000225975
-0.00250324
-0.000252808
-0.00254375
-0.000280259
-0.00258621
-0.000308366
-0.00263084
-0.000337188
-0.00267787
-0.000366797
-0.00272759
-0.000397248
-0.00278044
-0.000428511
-0.00283686
-0.000460412
-0.00289692
-0.00295969
-0.000492641
-6.67991e-05
-0.00216434
-8.78525e-05
-0.00223045
-0.000110509
-0.00228215
-0.000134388
-0.00232524
-0.000159214
-0.00236391
-0.000184808
-0.00240096
-0.000211067
-0.00243811
-0.000237942
-0.00247637
-0.000265421
-0.00251627
-0.000293516
-0.00255812
-0.000322266
-0.00260209
-0.000351729
-0.0026484
-0.000381987
-0.00269733
-0.000413114
-0.00274931
-0.000445106
-0.00280486
-0.000477802
-0.00286422
-0.00292666
-0.000510835
-5.39327e-05
-0.00205918
-7.37614e-05
-0.00214451
-9.56043e-05
-0.00220861
-0.000118998
-0.00225876
-0.000143574
-0.00230067
-0.000169071
-0.00233841
-0.000195319
-0.00237471
-0.000222223
-0.00241121
-0.00024974
-0.00244885
-0.000277859
-0.00248815
-0.000306593
-0.00252938
-0.000335978
-0.00257271
-0.000366074
-0.00261831
-0.000396967
-0.00266644
-0.000428749
-0.00271753
-0.00046145
-0.00277216
-0.000494933
-0.00283074
-0.00289282
-0.000528775
-4.17744e-05
-0.0019289
-5.99629e-05
-0.00204099
-8.06243e-05
-0.00212385
-0.000103241
-0.00218599
-0.000127358
-0.00223464
-0.000152621
-0.0022754
-0.000178778
-0.00231226
-0.000205673
-0.00234781
-0.000233215
-0.00238366
-0.000261367
-0.0024207
-0.00029012
-0.0024594
-0.000319489
-0.00250001
-0.000349505
-0.00254269
-0.000380225
-0.00258759
-0.000411739
-0.00263493
-0.000444155
-0.00268512
-0.000477539
-0.00273878
-0.000511797
-0.00279648
-0.00285816
-0.000546455
-4.6846e-05
-0.00191277
-6.59095e-05
-0.00202193
-8.73861e-05
-0.00210238
-0.000110761
-0.00216262
-0.000135589
-0.00220982
-0.000161526
-0.00224947
-0.000188335
-0.00228545
-0.000215867
-0.00232028
-0.000244041
-0.00235549
-0.000272823
-0.00239192
-0.000302206
-0.00243002
-0.000332204
-0.00247001
-0.000362846
-0.00251205
-0.000394185
-0.00255625
-0.000426308
-0.0026028
-0.000459336
-0.00265209
-0.000493374
-0.00270474
-0.000528391
-0.00276146
-0.00282268
-0.00056387
-3.48141e-05
-0.00175204
-5.18508e-05
-0.00189573
-7.17706e-05
-0.00200201
-9.40451e-05
-0.0020801
-0.000118163
-0.0021385
-0.000143688
-0.00218429
-0.000170289
-0.00222286
-0.000197741
-0.00225799
-0.000225903
-0.00229212
-0.000254701
-0.00232669
-0.000284106
-0.00236251
-0.000314113
-0.00240001
-0.000344736
-0.00243939
-0.000376002
-0.00248078
-0.000407956
-0.00252429
-0.00044068
-0.00257008
-0.000474299
-0.00261847
-0.00050896
-0.00267008
-0.000544714
-0.00272571
-0.00278638
-0.000581015
-2.4242e-05
-0.00155108
-3.88614e-05
-0.00173742
-5.67866e-05
-0.0018778
-7.75445e-05
-0.00198125
-0.0001006
-0.00205705
-0.000125445
-0.00211366
-0.000151655
-0.00215808
-0.00017891
-0.00219561
-0.000206994
-0.00222991
-0.000235777
-0.00226334
-0.000265193
-0.00229728
-0.000295214
-0.00233249
-0.000325841
-0.00236938
-0.000357085
-0.00240815
-0.000388971
-0.0024489
-0.00042154
-0.00249173
-0.000454862
-0.00253676
-0.000489058
-0.00258427
-0.000524308
-0.00263483
-0.000560771
-0.00268925
-0.00274926
-0.000597895
-2.73366e-05
-0.00153918
-4.28563e-05
-0.0017219
-6.16517e-05
-0.00185901
-8.32293e-05
-0.00195967
-0.000107049
-0.00203323
-0.000132607
-0.0020881
-0.000159488
-0.0021312
-0.000187385
-0.00216771
-0.000216093
-0.0022012
-0.00024549
-0.00223394
-0.000275515
-0.00226725
-0.000306147
-0.00230186
-0.000337387
-0.00233814
-0.000369249
-0.00237629
-0.000401755
-0.00241639
-0.000434938
-0.00245854
-0.000468859
-0.00250284
-0.000503624
-0.00254951
-0.000539437
-0.00259902
-0.000576583
-0.0026521
-0.00271129
-0.000614549
-1.76109e-05
-0.00129404
-3.03946e-05
-0.00152639
-4.67971e-05
-0.0017055
-6.64441e-05
-0.00183936
-8.88237e-05
-0.0019373
-0.000113391
-0.00200866
-0.000139647
-0.00206184
-0.000167188
-0.00210366
-0.000195716
-0.00213918
-0.000225038
-0.00217188
-0.00025504
-0.00220394
-0.000285668
-0.00223662
-0.000316903
-0.00227063
-0.00034875
-0.0023063
-0.000381225
-0.00234381
-0.000414348
-0.00238327
-0.000448151
-0.00242474
-0.000482678
-0.00246831
-0.000518015
-0.00251417
-0.000554376
-0.00256266
-0.000592188
-0.00261429
-0.00267245
-0.00063103
-9.92172e-06
-0.000996837
-1.97679e-05
-0.00128419
-3.34142e-05
-0.00151275
-5.0682e-05
-0.00168823
-7.11623e-05
-0.00181888
-9.4326e-05
-0.00191413
-0.000119625
-0.00198336
-0.000146565
-0.0020349
-0.000174752
-0.00207547
-0.000203902
-0.00211003
-0.000233828
-0.00214195
-0.000264426
-0.00217334
-0.000295648
-0.0022054
-0.000327479
-0.00223879
-0.000359927
-0.00227385
-0.000393009
-0.00231073
-0.000426749
-0.00234953
-0.000461174
-0.00239031
-0.00049632
-0.00243316
-0.000532248
-0.00247824
-0.000569166
-0.00252574
-0.000607608
-0.00257585
-0.00263271
-0.000647353
-1.12593e-05
-0.000989973
-2.19004e-05
-0.00127355
-3.63938e-05
-0.00149825
-5.45091e-05
-0.00167012
-7.58047e-05
-0.00179759
-9.97352e-05
-0.0018902
-0.000125749
-0.00195735
-0.00015336
-0.00200729
-0.000182181
-0.00204665
-0.00021194
-0.00208027
-0.000242461
-0.00211143
-0.000273647
-0.00214215
-0.000305454
-0.00217359
-0.000337874
-0.00220637
-0.000370915
-0.00224081
-0.000404599
-0.00227704
-0.00043895
-0.00231518
-0.000474
-0.00235526
-0.000509779
-0.00239739
-0.000546337
-0.00244169
-0.000583869
-0.00248821
-0.000622855
-0.00253686
-0.00259185
-0.000663709
-5.05394e-06
-0.000640866
-1.25835e-05
-0.000982444
-2.40071e-05
-0.00126213
-3.93317e-05
-0.00148293
-5.82771e-05
-0.00165117
-8.03698e-05
-0.00177549
-0.00010505
-0.00186552
-0.000131763
-0.00193063
-0.00016003
-0.00197902
-0.000189473
-0.00201721
-0.000219831
-0.00204992
-0.000250937
-0.00208033
-0.000282701
-0.00211039
-0.000315086
-0.00214121
-0.000348085
-0.00217338
-0.000381711
-0.00220718
-0.000415988
-0.00224277
-0.000450945
-0.00228022
-0.000486616
-0.00231959
-0.000523038
-0.00236096
-0.000560274
-0.00240445
-0.000598528
-0.00244995
-0.000638362
-0.00249703
-0.00255078
-0.00067943
-5.70368e-06
-0.000636423
-1.38896e-05
-0.000974258
-2.60821e-05
-0.00124994
-4.22217e-05
-0.00146679
-6.19792e-05
-0.00163142
-8.48512e-05
-0.00175262
-0.000110263
-0.00184011
-0.000137661
-0.00190324
-0.000166569
-0.00195012
-0.000196623
-0.00198715
-0.000227568
-0.00201897
-0.000259249
-0.00204865
-0.000291583
-0.00207805
-0.000324536
-0.00210826
-0.000358106
-0.00213981
-0.000392308
-0.00217298
-0.000427169
-0.00220791
-0.00046272
-0.00224467
-0.000499002
-0.00228331
-0.000536062
-0.0023239
-0.000573997
-0.00236652
-0.000612891
-0.00241106
-0.000652212
-0.00245771
-0.00250787
-0.000695122
-1.4472e-06
-0.00023533
-6.35e-06
-0.00063152
-1.5184e-05
-0.000965424
-2.8133e-05
-0.00123699
-4.50721e-05
-0.00144985
-6.56246e-05
-0.00161086
-8.92582e-05
-0.00172899
-0.000115386
-0.00181398
-0.000143452
-0.00187517
-0.000172988
-0.00192058
-0.000203639
-0.0019565
-0.000235162
-0.00198745
-0.000267408
-0.0020164
-0.000300301
-0.00204516
-0.000333813
-0.00207474
-0.000367944
-0.00210568
-0.000402712
-0.00213821
-0.000438145
-0.00217247
-0.000474278
-0.00220853
-0.000511154
-0.00224644
-0.000548828
-0.00228623
-0.000587391
-0.00232795
-0.000626892
-0.00237156
-0.000667308
-0.00241729
-0.00246528
-0.000709899
-1.63184e-06
-0.000233698
-6.98953e-06
-0.000626163
-1.64622e-05
-0.000955951
-3.01544e-05
-0.0012233
-4.78767e-05
-0.00143213
-6.92068e-05
-0.00158953
-9.35844e-05
-0.00170461
-0.000120411
-0.00178715
-0.00014913
-0.00184645
-0.000179281
-0.00189043
-0.000210517
-0.00192527
-0.000242606
-0.00195536
-0.000275407
-0.0019836
-0.00030885
-0.00201172
-0.000342911
-0.00204068
-0.000377593
-0.00207099
-0.000412917
-0.00210289
-0.000448911
-0.00213648
-0.000485612
-0.00217183
-0.000523063
-0.00220898
-0.00056132
-0.00224797
-0.000600462
-0.00228881
-0.000640539
-0.00233148
-0.000681655
-0.00237618
-0.0024226
-0.000724336
-1.81481e-06
-0.000231883
-7.62182e-06
-0.000620356
-1.77232e-05
-0.00094585
-3.21449e-05
-0.00120887
-5.06344e-05
-0.00141364
-7.27246e-05
-0.00156744
-9.78287e-05
-0.00167951
-0.000125337
-0.00175965
-0.000154695
-0.00181709
-0.000185446
-0.00185968
-0.000217255
-0.00189346
-0.000249899
-0.00192272
-0.000283245
-0.00195025
-0.000317228
-0.00197773
-0.000351828
-0.00200608
-0.000387051
-0.00203577
-0.00042292
-0.00206702
-0.000459463
-0.00209994
-0.000496718
-0.00213458
-0.000534728
-0.00217098
-0.000573546
-0.00220915
-0.000613237
-0.00224912
-0.000653855
-0.00229086
-0.000695514
-0.00233452
-0.00237967
-0.00073844
-1.99595e-06
-0.000229887
-8.24634e-06
-0.000614105
-1.89662e-05
-0.00093513
-3.41037e-05
-0.00119374
-5.33441e-05
-0.0013944
-7.61769e-05
-0.00154461
-0.00010199
-0.00165369
-0.000130165
-0.00173147
-0.000160145
-0.00178711
-0.000191484
-0.00182834
-0.000223854
-0.00186109
-0.000257041
-0.00188953
-0.000290921
-0.00191637
-0.000325434
-0.00194322
-0.000360563
-0.00197095
-0.000396318
-0.00200001
-0.00043272
-0.00203062
-0.000469801
-0.00206286
-0.000507597
-0.00209678
-0.00054615
-0.00213242
-0.000585509
-0.0021698
-0.00062573
-0.0022089
-0.000666865
-0.00224973
-0.000709004
-0.00229238
-0.00233643
-0.000752252
-2.17511e-06
-0.000227712
-8.86264e-06
-0.000607418
-2.01905e-05
-0.000923802
-3.60298e-05
-0.0011779
-5.60047e-05
-0.00137442
-7.95627e-05
-0.00152105
-0.000106068
-0.00162719
-0.000134892
-0.00170265
-0.00016548
-0.00175652
-0.000197393
-0.00179643
-0.000230312
-0.00182817
-0.000264032
-0.00185581
-0.000298435
-0.00188197
-0.000333468
-0.00190819
-0.000369117
-0.00193531
-0.000405392
-0.00196374
-0.000442317
-0.00199369
-0.000479923
-0.00202525
-0.000518247
-0.00205846
-0.000557329
-0.00209334
-0.000597214
-0.00212991
-0.000637951
-0.00216816
-0.000679585
-0.00220809
-0.000722184
-0.00224978
-0.00229281
-0.000765797
-2.35215e-06
-0.00022536
-9.47027e-06
-0.000600299
-2.13954e-05
-0.000911877
-3.79222e-05
-0.00116137
-5.86152e-05
-0.00135373
-8.28811e-05
-0.00149679
-0.000110061
-0.00160001
-0.000139518
-0.00167319
-0.0001707
-0.00172534
-0.000203174
-0.00176395
-0.00023663
-0.00179471
-0.000270871
-0.00182157
-0.000305787
-0.00184705
-0.000341329
-0.00187265
-0.000377486
-0.00189915
-0.000414271
-0.00192695
-0.000451709
-0.00195625
-0.00048983
-0.00198713
-0.00052867
-0.00201962
-0.000568268
-0.00205374
-0.000608665
-0.00208951
-0.000649904
-0.00212692
-0.000692025
-0.00216597
-0.000735079
-0.00220672
-0.0022488
-0.000779089
-2.52693e-06
-0.000222833
-1.00688e-05
-0.000592758
-2.25802e-05
-0.000899366
-3.97801e-05
-0.00114417
-6.11748e-05
-0.00133234
-8.61313e-05
-0.00147183
-0.000113969
-0.00157217
-0.000144044
-0.00164312
-0.000175804
-0.00169358
-0.000208825
-0.00173093
-0.000242806
-0.00176073
-0.000277557
-0.00178682
-0.000312976
-0.00181164
-0.000349017
-0.00183661
-0.000385673
-0.00186249
-0.000422957
-0.00188967
-0.000460896
-0.00191832
-0.00049952
-0.0019485
-0.000538864
-0.00198027
-0.000578965
-0.00201364
-0.000619863
-0.00204862
-0.000661594
-0.00208519
-0.000704195
-0.00212337
-0.000747703
-0.00216322
-0.00220438
-0.000792133
-2.6993e-06
-0.000220134
-1.06579e-05
-0.000584799
-2.37442e-05
-0.00088628
-4.16027e-05
-0.00112631
-6.36825e-05
-0.00131026
-8.93124e-05
-0.0014462
-0.000117791
-0.00154369
-0.000148467
-0.00161244
-0.000180792
-0.00166126
-0.000214347
-0.00169738
-0.00024884
-0.00172624
-0.000284091
-0.00175157
-0.000320001
-0.00177573
-0.00035653
-0.00180008
-0.000393674
-0.00182535
-0.000431448
-0.0018519
-0.000469877
-0.00187989
-0.000508993
-0.00190939
-0.00054883
-0.00194044
-0.000589424
-0.00197305
-0.000630811
-0.00200723
-0.000673026
-0.00204298
-0.000716099
-0.0020803
-0.000760064
-0.00211925
-0.00215951
-0.000804929
-2.86913e-06
-0.000217265
-1.12372e-05
-0.000576431
-2.48868e-05
-0.00087263
-4.33892e-05
-0.00110781
-6.61376e-05
-0.00128751
-9.24237e-05
-0.00141991
-0.000121527
-0.00151459
-0.000152788
-0.00158118
-0.000185663
-0.00162838
-0.000219739
-0.0016633
-0.000254733
-0.00169124
-0.000290471
-0.00171583
-0.000326862
-0.00173933
-0.00036387
-0.00176307
-0.000401491
-0.00178773
-0.000439743
-0.00181365
-0.000478652
-0.00184098
-0.000518249
-0.00186979
-0.000558568
-0.00190012
-0.000599644
-0.00193197
-0.000641511
-0.00196536
-0.0006842
-0.00200029
-0.000727742
-0.00203676
-0.000772163
-0.00207483
-0.0021142
-0.000817474
-3.03631e-06
-0.000214228
-1.18062e-05
-0.000567661
-2.60074e-05
-0.000858429
-4.5139e-05
-0.00108868
-6.85393e-05
-0.00126411
-9.54645e-05
-0.00139299
-0.000125175
-0.00148488
-0.000157007
-0.00154935
-0.000190417
-0.00159497
-0.000225001
-0.00162872
-0.000260483
-0.00165576
-0.000296698
-0.00167961
-0.000333559
-0.00170247
-0.000371034
-0.00172559
-0.000409122
-0.00174964
-0.000447842
-0.00177493
-0.00048722
-0.0018016
-0.000527288
-0.00182972
-0.000568079
-0.00185933
-0.000609626
-0.00189042
-0.000651963
-0.00192303
-0.00069512
-0.00195713
-0.000739124
-0.00199275
-0.000784002
-0.00202995
-0.00206844
-0.000829766
-3.20069e-06
-0.000211028
-1.23646e-05
-0.000558497
-2.71056e-05
-0.000843688
-4.68512e-05
-0.00106893
-7.08869e-05
-0.00124007
-9.84341e-05
-0.00136544
-0.000128735
-0.00145458
-0.000161122
-0.00151696
-0.000195053
-0.00156104
-0.000230132
-0.00159364
-0.000266091
-0.0016198
-0.000302771
-0.00164293
-0.000340092
-0.00166515
-0.000378023
-0.00168766
-0.000416568
-0.00171109
-0.000455745
-0.00173575
-0.000495582
-0.00176176
-0.00053611
-0.00178919
-0.000577362
-0.00181807
-0.000619371
-0.00184842
-0.000662169
-0.00188023
-0.000705786
-0.00191351
-0.000750248
-0.00194829
-0.000795581
-0.00198462
-0.00202222
-3.36217e-06
-0.000207666
-1.29122e-05
-0.000548947
-2.81806e-05
-0.000828419
-4.85254e-05
-0.00104859
-7.31797e-05
-0.00121542
-0.000101332
-0.00133729
-0.000132208
-0.0014237
-0.000165133
-0.00148404
-0.000199572
-0.0015266
-0.000235132
-0.00155808
-0.000271556
-0.00158338
-0.00030869
-0.0016058
-0.000346459
-0.00162738
-0.000384836
-0.00164929
-0.000423827
-0.0016721
-0.000463451
-0.00169612
-0.000503736
-0.00172148
-0.000544714
-0.00174822
-0.000586418
-0.00177637
-0.000628878
-0.00180595
-0.000672129
-0.00183698
-0.000716198
-0.00186944
-0.000761112
-0.00190338
-0.000806897
-0.00193883
-0.00197554
-3.52063e-06
-0.000204145
-1.34485e-05
-0.000539019
-2.92321e-05
-0.000812636
-5.01608e-05
-0.00102766
-7.54171e-05
-0.00119016
-0.000104158
-0.00130855
-0.000135591
-0.00139227
-0.000169041
-0.00145059
-0.000203972
-0.00149167
-0.000240002
-0.00152205
-0.000276878
-0.0015465
-0.000314455
-0.00156822
-0.000352661
-0.00158918
-0.000391474
-0.00161047
-0.0004309
-0.00163268
-0.00047096
-0.00165606
-0.000511683
-0.00168075
-0.000553101
-0.0017068
-0.000595245
-0.00173423
-0.000638148
-0.00176305
-0.000681842
-0.00179328
-0.000726356
-0.00182493
-0.000771716
-0.00185802
-0.00081795
-0.0018926
-0.00192842
-3.67595e-06
-0.000200469
-1.39734e-05
-0.000528722
-3.02596e-05
-0.00079635
-5.17568e-05
-0.00100616
-7.75986e-05
-0.00116432
-0.00010691
-0.00127924
-0.000138886
-0.00136029
-0.000172844
-0.00141663
-0.000208255
-0.00145626
-0.00024474
-0.00148556
-0.000282057
-0.00150918
-0.000320065
-0.00153021
-0.000358698
-0.00155055
-0.000397935
-0.00157123
-0.000437786
-0.00159283
-0.000478272
-0.00161558
-0.000519423
-0.0016396
-0.000561269
-0.00166495
-0.000603844
-0.00169165
-0.00064718
-0.00171971
-0.000691309
-0.00174915
-0.000736259
-0.00177998
-0.000782058
-0.00181222
-0.000828735
-0.00184592
-3.82803e-06
-0.000196641
-1.44863e-05
-0.000518063
-3.12626e-05
-0.000779573
-5.33131e-05
-0.000984112
-7.97235e-05
-0.00113791
-0.00010959
-0.00124937
-0.000142091
-0.00132779
-0.000176542
-0.00138218
-0.000212418
-0.00142038
-0.000249347
-0.00144863
-0.000287093
-0.00147144
-0.00032552
-0.00149179
-0.000364568
-0.0015115
-0.00040422
-0.00153158
-0.000444485
-0.00155256
-0.000485386
-0.00157468
-0.000526953
-0.00159804
-0.000569219
-0.00162269
-0.000612215
-0.00164866
-0.000655974
-0.00167596
-0.000700528
-0.0017046
-0.000745906
-0.0017346
-0.000792138
-0.00176599
-0.00179881
-3.97676e-06
-0.000192664
-1.49872e-05
-0.000507053
-3.22406e-05
-0.00076232
-5.48289e-05
-0.000961523
-8.17914e-05
-0.00111095
-0.000112195
-0.00121897
-0.000145206
-0.00129478
-0.000180136
-0.00134725
-0.000216463
-0.00138406
-0.000253823
-0.00141127
-0.000291985
-0.00143328
-0.000330821
-0.00145295
-0.000370273
-0.00147205
-0.000410328
-0.00149153
-0.000450996
-0.00151189
-0.000492302
-0.00153337
-0.000534275
-0.00155606
-0.000576949
-0.00158001
-0.000620356
-0.00160525
-0.000664528
-0.00163178
-0.000709498
-0.00165963
-0.000755297
-0.0016888
-0.000801952
-0.00171933
-0.00175127
-4.12205e-06
-0.000188542
-1.54758e-05
-0.000495699
-3.31933e-05
-0.000744602
-5.63039e-05
-0.000938413
-8.38018e-05
-0.00108345
-0.000114726
-0.00118804
-0.000148231
-0.00126127
-0.000183625
-0.00131185
-0.000220389
-0.00134729
-0.000258167
-0.0013735
-0.000296733
-0.00139471
-0.000335966
-0.00141372
-0.000375811
-0.0014322
-0.000416258
-0.00145108
-0.000457319
-0.00147083
-0.000499018
-0.00149167
-0.000541388
-0.00151369
-0.00058446
-0.00153694
-0.000628267
-0.00156144
-0.000672843
-0.00158721
-0.000718219
-0.00161425
-0.000764428
-0.00164259
-0.000811499
-0.00167226
-4.2638e-06
-0.000184278
-1.59517e-05
-0.000484011
-3.41203e-05
-0.000726434
-5.77376e-05
-0.000914795
-8.57542e-05
-0.00105543
-0.000117183
-0.00115661
-0.000151165
-0.00122729
-0.000187008
-0.00127601
-0.000224196
-0.0013101
-0.000262378
-0.00133531
-0.000301337
-0.00135575
-0.000340955
-0.0013741
-0.000381183
-0.00139197
-0.000422011
-0.00141025
-0.000463453
-0.00142939
-0.000505536
-0.00144959
-0.00054829
-0.00147094
-0.000591749
-0.00149348
-0.000635947
-0.00151724
-0.000680916
-0.00154224
-0.00072669
-0.00156848
-0.0007733
-0.00159598
-0.00162478
-4.40192e-06
-0.000179876
-1.64147e-05
-0.000471998
-3.50212e-05
-0.000707827
-5.91295e-05
-0.000890687
-8.76481e-05
-0.00102691
-0.000119565
-0.0011247
-0.000154008
-0.00119285
-0.000190285
-0.00123973
-0.000227883
-0.0012725
-0.000266458
-0.00129674
-0.000305797
-0.00131641
-0.000345789
-0.00133411
-0.000386387
-0.00135137
-0.000427585
-0.00136906
-0.000469398
-0.00138758
-0.000511853
-0.00140713
-0.000554982
-0.00142781
-0.000598818
-0.00144965
-0.000643395
-0.00147267
-0.000688747
-0.00149689
-0.000734908
-0.00152232
-0.000781909
-0.00154898
-0.00157691
-4.53632e-06
-0.00017534
-1.68647e-05
-0.00045967
-3.58955e-05
-0.000688797
-6.04792e-05
-0.000866103
-8.94833e-05
-0.000997909
-0.000121871
-0.00109231
-0.000156761
-0.00115796
-0.000193457
-0.00120304
-0.000231451
-0.00123451
-0.000270405
-0.00125779
-0.000310113
-0.0012767
-0.000350467
-0.00129375
-0.000391425
-0.00131042
-0.000432981
-0.0013275
-0.000475154
-0.0013454
-0.000517971
-0.00136432
-0.000561463
-0.00138432
-0.000605665
-0.00140545
-0.000650611
-0.00142772
-0.000696335
-0.00145116
-0.000742872
-0.00147578
-0.000790256
-0.0015016
-0.00152864
-4.66692e-06
-0.000170673
-1.73013e-05
-0.000447036
-3.67431e-05
-0.000669355
-6.17864e-05
-0.00084106
-9.12592e-05
-0.000968436
-0.000124102
-0.00105947
-0.000159422
-0.00112264
-0.000196522
-0.00116594
-0.0002349
-0.00119613
-0.00027422
-0.00121847
-0.000314284
-0.00123664
-0.000354989
-0.00125305
-0.000396294
-0.00126911
-0.000438199
-0.0012856
-0.00048072
-0.00130288
-0.000523887
-0.00132115
-0.000567732
-0.00134047
-0.000612289
-0.00136089
-0.000657593
-0.00138242
-0.000703679
-0.00140508
-0.000750582
-0.00142888
-0.000798336
-0.00145384
-4.79363e-06
-0.00016588
-1.77244e-05
-0.000434105
-3.75636e-05
-0.000649516
-6.30506e-05
-0.000815573
-9.29755e-05
-0.000938511
-0.000126256
-0.00102619
-0.000161991
-0.0010869
-0.000199481
-0.00112845
-0.000238228
-0.00115739
-0.000277902
-0.00117879
-0.000318311
-0.00119623
-0.000359354
-0.00121201
-0.000400996
-0.00122747
-0.000443237
-0.00124335
-0.000486096
-0.00126002
-0.000529601
-0.00127764
-0.000573787
-0.00129629
-0.000618689
-0.00131599
-0.00066434
-0.00133677
-0.000710777
-0.00135864
-0.000758036
-0.00138162
-0.00140573
-4.91638e-06
-0.000160963
-1.81338e-05
-0.000420887
-3.83566e-05
-0.000629293
-6.42715e-05
-0.000789658
-9.46319e-05
-0.000908151
-0.000128334
-0.000992483
-0.000164468
-0.00105077
-0.000202334
-0.00109058
-0.000241436
-0.00111828
-0.000281452
-0.00113878
-0.000322192
-0.00115549
-0.000363563
-0.00117063
-0.00040553
-0.0011855
-0.000448096
-0.00120079
-0.00049128
-0.00121684
-0.000535114
-0.00123381
-0.00057963
-0.00125177
-0.000624864
-0.00127075
-0.000670851
-0.00129078
-0.000717629
-0.00131186
-0.000765231
-0.00133402
-0.00135727
-5.0351e-06
-0.000155928
-1.85292e-05
-0.000407393
-3.91219e-05
-0.0006087
-6.54487e-05
-0.000763332
-9.62281e-05
-0.000877371
-0.000130336
-0.000958376
-0.000166853
-0.00101425
-0.00020508
-0.00105235
-0.000244524
-0.00107884
-0.000284868
-0.00109843
-0.000325928
-0.00111443
-0.000367614
-0.00112895
-0.000409895
-0.00114322
-0.000452774
-0.00115791
-0.000496273
-0.00117334
-0.000540423
-0.00118966
-0.000585258
-0.00120694
-0.000630814
-0.0012252
-0.000677126
-0.00124447
-0.000724232
-0.00126476
-0.000772167
-0.00128608
-0.00130846
-5.14971e-06
-0.000150778
-1.89105e-05
-0.000393633
-3.98592e-05
-0.000587751
-6.6582e-05
-0.000736609
-9.77636e-05
-0.00084619
-0.000132261
-0.000923878
-0.000169146
-0.000977369
-0.000207719
-0.00101378
-0.000247492
-0.00103907
-0.000288151
-0.00105777
-0.000329519
-0.00107306
-0.000371508
-0.00108696
-0.000414091
-0.00110064
-0.000457272
-0.00111473
-0.000501074
-0.00112954
-0.000545529
-0.00114521
-0.000590672
-0.00116179
-0.000636537
-0.00117933
-0.000683163
-0.00119784
-0.000730586
-0.00121733
-0.000778843
-0.00123783
-5.26014e-06
-0.000145518
-1.92775e-05
-0.000379615
-4.05683e-05
-0.000566461
-6.76711e-05
-0.000709506
-9.92383e-05
-0.000814622
-0.000134108
-0.000889008
-0.000171346
-0.000940131
-0.000210251
-0.000974874
-0.000250339
-0.000998979
-0.000291301
-0.00101681
-0.000332964
-0.0010314
-0.000375245
-0.00104468
-0.000418118
-0.00105777
-0.000461589
-0.00107126
-0.000505683
-0.00108544
-0.000550431
-0.00110046
-0.000595869
-0.00111636
-0.000642033
-0.00113317
-0.000688961
-0.00115091
-0.000736689
-0.0011696
-0.00118926
-5.36633e-06
-0.000140152
-1.963e-05
-0.000365352
-4.12488e-05
-0.000544842
-6.87155e-05
-0.000682039
-0.000100652
-0.000782686
-0.000135879
-0.000853782
-0.000173454
-0.000902556
-0.000212676
-0.000935651
-0.000253065
-0.00095859
-0.000294318
-0.000975558
-0.000336264
-0.000989455
-0.000378824
-0.00100212
-0.000421975
-0.00101462
-0.000465725
-0.00102751
-0.000510098
-0.00104107
-0.000555128
-0.00105543
-0.00060085
-0.00107063
-0.000647301
-0.00108672
-0.000694519
-0.00110369
-0.000742541
-0.00112158
-0.00114039
-5.46823e-06
-0.000134684
-1.99679e-05
-0.000350852
-4.19005e-05
-0.000522909
-6.97152e-05
-0.000654225
-0.000102004
-0.000750397
-0.000137571
-0.000818214
-0.000175468
-0.000864659
-0.000214994
-0.000896125
-0.000255671
-0.000917913
-0.0002972
-0.000934028
-0.000339417
-0.000947238
-0.000382244
-0.000959292
-0.000425662
-0.000971198
-0.000469678
-0.000983491
-0.00051432
-0.000996428
-0.00055962
-0.00101013
-0.000605614
-0.00102464
-0.00065234
-0.00103999
-0.000699836
-0.0010562
-0.000748139
-0.00107328
-0.00109124
-5.56576e-06
-0.000129118
-2.02911e-05
-0.000336126
-4.25232e-05
-0.000500677
-7.06697e-05
-0.000626078
-0.000103294
-0.000717773
-0.000139186
-0.000782323
-0.000177389
-0.000826456
-0.000217204
-0.00085631
-0.000258155
-0.000876962
-0.000299949
-0.000892235
-0.000342424
-0.000904764
-0.000385507
-0.000916209
-0.000429178
-0.000927526
-0.00047345
-0.000939219
-0.000518348
-0.00095153
-0.000563906
-0.000964569
-0.00061016
-0.000978385
-0.000657149
-0.000993003
-0.00070491
-0.00100844
-0.000753484
-0.0010247
-0.00104182
-5.65887e-06
-0.000123459
-2.05993e-05
-0.000321186
-4.31168e-05
-0.00047816
-7.15789e-05
-0.000597616
-0.000104523
-0.000684829
-0.000140723
-0.000746123
-0.000179217
-0.000787961
-0.000219307
-0.000816221
-0.000260519
-0.000835749
-0.000302564
-0.000850189
-0.000345285
-0.000862043
-0.00038861
-0.000872883
-0.000432524
-0.000883612
-0.000477039
-0.000894705
-0.000522181
-0.000906388
-0.000567985
-0.000918766
-0.000614487
-0.000931883
-0.000661727
-0.000945763
-0.000709742
-0.000960422
-0.000758573
-0.000975874
-5.74751e-06
-0.000117712
-2.08924e-05
-0.000306041
-4.36809e-05
-0.000455371
-7.24426e-05
-0.000568854
-0.000105689
-0.000651582
-0.000142181
-0.000709632
-0.000180952
-0.00074919
-0.000221301
-0.000775871
-0.000262761
-0.00079429
-0.000305045
-0.000807905
-0.000347999
-0.000819089
-0.000391555
-0.000829326
-0.000435699
-0.000839468
-0.000480445
-0.000849959
-0.000525819
-0.000861014
-0.000571856
-0.000872728
-0.000618595
-0.000885144
-0.000666073
-0.000898285
-0.00071433
-0.000912165
-0.000926798
-5.83162e-06
-0.00011188
-2.11704e-05
-0.000290702
-4.42154e-05
-0.000432326
-7.32604e-05
-0.000539809
-0.000106793
-0.000618049
-0.000143561
-0.000672864
-0.000182592
-0.000710159
-0.000223188
-0.000735276
-0.000264881
-0.000752596
-0.000307391
-0.000765396
-0.000350565
-0.000775914
-0.000394341
-0.000785551
-0.000438703
-0.000795106
-0.000483667
-0.000804996
-0.000529261
-0.00081542
-0.00057552
-0.000826469
-0.000622483
-0.000838182
-0.000670187
-0.000850581
-0.000718673
-0.000863679
-0.000877491
-5.91117e-06
-0.000105969
-2.1433e-05
-0.000275181
-4.47201e-05
-0.000409039
-7.40323e-05
-0.000510497
-0.000107835
-0.000584246
-0.000144862
-0.000635837
-0.000184139
-0.000670882
-0.000224966
-0.000694449
-0.00026688
-0.000710682
-0.000309602
-0.000722673
-0.000352985
-0.000732531
-0.000396967
-0.00074157
-0.000441535
-0.000750538
-0.000486705
-0.000759825
-0.000532507
-0.000769618
-0.000578976
-0.00078
-0.000626149
-0.000791008
-0.000674068
-0.000802662
-0.00072277
-0.000814976
-0.000827963
-5.9861e-06
-9.99827e-05
-2.16802e-05
-0.000259487
-4.51949e-05
-0.000385524
-7.47579e-05
-0.000480934
-0.000108814
-0.00055019
-0.000146085
-0.000598565
-0.000185592
-0.000631375
-0.000226636
-0.000653405
-0.000268757
-0.000668562
-0.000311679
-0.000679751
-0.000355258
-0.000688952
-0.000399433
-0.000697394
-0.000444195
-0.000705776
-0.000489559
-0.000714461
-0.000535556
-0.000723621
-0.000582222
-0.000733334
-0.000629595
-0.000743635
-0.000677714
-0.000754543
-0.000726621
-0.00076607
-0.000778228
-6.05637e-06
-9.39263e-05
-2.19118e-05
-0.000243631
-4.56395e-05
-0.000361796
-7.54371e-05
-0.000451137
-0.000109729
-0.000515898
-0.000147228
-0.000561066
-0.000186951
-0.000591653