/*--------------------------------*- C++ -*----------------------------------*\
  =========                 |
  \\      /  F ield         | OpenFOAM: The Open Source CFD Toolbox
   \\    /   O peration     | Website:  https://openfoam.org
    \\  /    A nd           | Version:  7
     \\/     M anipulation  |
\*---------------------------------------------------------------------------*/
FoamFile
{
    version     2.0;
    format      ascii;
    class       surfaceScalarField;
    location    "20";
    object      phi;
}
// * * * * * * * * * * * * * * * * * * * * * * * * * * * * * * * * * * * * * //

dimensions      [0 3 -1 0 0 0 0];

internalField   nonuniform List<scalar> 
14036
(
0.00129172
-9.7953e-06
-7.41697e-07
0.00130168
-9.1816e-06
-7.70844e-07
0.00131109
-8.64812e-06
-7.65309e-07
0.00132
-8.18467e-06
-7.28517e-07
0.00132844
-7.76712e-06
-6.65157e-07
0.00133639
-7.3736e-06
-5.80914e-07
0.00134387
-7.00028e-06
-4.82068e-07
0.00135092
-6.66727e-06
-3.7504e-07
0.00135758
-6.39533e-06
-2.65914e-07
0.00136392
-6.18044e-06
-1.60241e-07
0.00136996
-5.97662e-06
-6.2736e-08
0.00137565
-5.71459e-06
2.27401e-08
0.00138089
-5.3308e-06
9.34986e-08
0.00138554
-4.80358e-06
1.478e-07
0.00138951
-4.15745e-06
1.85122e-07
0.00139277
-3.46297e-06
2.05561e-07
0.00139536
-2.79941e-06
2.10431e-07
0.00139741
-2.25497e-06
2.01326e-07
0.0013991
-1.86626e-06
1.81356e-07
0.00140062
-1.67425e-06
1.53213e-07
0.0014021
-1.60415e-06
1.21358e-07
0.00140368
-1.6695e-06
8.81411e-08
0.00140528
-1.6586e-06
5.82045e-08
0.00140696
-1.70279e-06
3.14508e-08
0.00140835
-1.40704e-06
1.21342e-08
0.00140963
-1.2792e-06
-3.6902e-09
0.00141018
-5.31818e-07
-1.12138e-08
0.00141057
-3.72625e-07
-1.79434e-08
7.47048e-07
-1.80406e-08
0.00129192
-2.03121e-05
0.00130185
-1.91154e-05
0.00131125
-1.80442e-05
0.00132015
-1.70819e-05
0.00132856
-1.61847e-05
0.0013365
-1.53145e-05
0.00134397
-1.447e-05
0.001351
-1.36978e-05
0.00135765
-1.30456e-05
0.00136399
-1.25109e-05
0.00137002
-1.20066e-05
0.0013757
-1.1398e-05
0.00138093
-1.05605e-05
0.00138558
-9.4525e-06
0.00138954
-8.12354e-06
0.00139279
-6.71467e-06
0.00139538
-5.38319e-06
0.00139743
-4.30392e-06
0.00139911
-3.54703e-06
0.00140063
-3.19171e-06
0.00140211
-3.08397e-06
0.00140368
-3.24846e-06
0.00140528
-3.25732e-06
0.00140695
-3.37314e-06
0.00140835
-2.80198e-06
0.00140963
-2.56288e-06
0.00141018
-1.07703e-06
0.00141057
-7.65901e-07
1.47165e-06
0.00129231
-3.07884e-05
0.0013022
-2.90115e-05
0.00131157
-2.74054e-05
0.00132043
-2.59467e-05
0.00132882
-2.45723e-05
0.00133673
-2.32279e-05
0.00134418
-2.19142e-05
0.00135118
-2.07046e-05
0.00135781
-1.96736e-05
0.00136412
-1.88209e-05
0.00137013
-1.80179e-05
0.0013758
-1.70645e-05
0.00138101
-1.5775e-05
0.00138565
-1.40878e-05
0.0013896
-1.20773e-05
0.00139284
-9.95508e-06
0.00139542
-7.95671e-06
0.00139745
-6.34364e-06
0.00139913
-5.21966e-06
0.00140064
-4.70212e-06
0.00140211
-4.55793e-06
0.00140369
-4.8227e-06
0.00140528
-4.85277e-06
0.00140695
-5.04156e-06
0.00140834
-4.19702e-06
0.00140963
-3.84815e-06
0.00141018
-1.62661e-06
0.00141058
-1.1646e-06
2.18742e-06
0.00129289
-4.12042e-05
0.00130273
-3.88514e-05
0.00131204
-3.67143e-05
0.00132085
-3.47631e-05
0.0013292
-3.29153e-05
0.00133707
-3.10999e-05
0.00134448
-2.93201e-05
0.00135145
-2.76756e-05
0.00135804
-2.62684e-05
0.00136432
-2.51e-05
0.0013703
-2.4001e-05
0.00137594
-2.27056e-05
0.00138114
-2.09669e-05
0.00138575
-1.87027e-05
0.00138969
-1.60126e-05
0.00139291
-1.31787e-05
0.00139547
-1.0515e-05
0.00139749
-8.36963e-06
0.00139916
-6.88021e-06
0.00140066
-6.20208e-06
0.00140212
-6.02321e-06
0.00140369
-6.38995e-06
0.00140528
-6.44337e-06
0.00140694
-6.70712e-06
0.00140834
-5.59227e-06
0.00140963
-5.13584e-06
0.00141018
-2.18278e-06
0.00141059
-1.57145e-06
2.88994e-06
0.00129366
-5.154e-05
0.00130342
-4.86168e-05
0.00131266
-4.5954e-05
0.00132142
-4.35153e-05
0.0013297
-4.11989e-05
0.00133752
-3.89172e-05
0.00134487
-3.66753e-05
0.0013518
-3.45994e-05
0.00135835
-3.28192e-05
0.00136458
-3.13384e-05
0.00137053
-2.9947e-05
0.00137614
-2.83133e-05
0.0013813
-2.61289e-05
0.00138589
-2.32908e-05
0.0013898
-1.99236e-05
0.001393
-1.63802e-05
0.00139554
-1.30531e-05
0.00139755
-1.03775e-05
0.00139919
-8.52484e-06
0.00140068
-7.68826e-06
0.00140213
-7.47706e-06
0.00140369
-7.94801e-06
0.00140527
-8.02762e-06
0.00140694
-8.36899e-06
0.00140833
-6.98786e-06
0.00140962
-6.42684e-06
0.00141019
-2.74778e-06
0.0014106
-1.98922e-06
3.57479e-06
0.00129461
-6.1777e-05
0.00130428
-5.82902e-05
0.00131343
-5.5108e-05
0.00132211
-5.21881e-05
0.00133032
-4.94091e-05
0.00133807
-4.66667e-05
0.00134536
-4.39677e-05
0.00135222
-4.14648e-05
0.00135872
-3.93155e-05
0.00136491
-3.75264e-05
0.00137081
-3.5847e-05
0.00137638
-3.38796e-05
0.0013815
-3.12539e-05
0.00138606
-2.78459e-05
0.00138994
-2.38047e-05
0.00139311
-1.95545e-05
0.00139562
-1.55665e-05
0.00139761
-1.23632e-05
0.00139923
-1.01499e-05
0.0014007
-9.1575e-06
0.00140214
-8.91685e-06
0.00140369
-9.49478e-06
0.00140527
-9.60413e-06
0.00140692
-1.00264e-05
0.00140832
-8.38402e-06
0.00140962
-7.72208e-06
0.00141019
-3.32389e-06
0.00141062
-2.42069e-06
4.23749e-06
0.00129573
-7.1897e-05
0.00130529
-6.78547e-05
0.00131435
-6.41607e-05
0.00132292
-6.07669e-05
0.00133105
-5.75325e-05
0.00133872
-5.4336e-05
0.00134593
-5.11857e-05
0.00135273
-4.82609e-05
0.00135916
-4.57472e-05
0.00136529
-4.36548e-05
0.00137114
-4.16926e-05
0.00137665
-3.93971e-05
0.00138174
-3.63352e-05
0.00138625
-3.23618e-05
0.0013901
-2.76505e-05
0.00139324
-2.26966e-05
0.00139572
-1.80508e-05
0.00139768
-1.43226e-05
0.00139928
-1.17518e-05
0.00140073
-1.06068e-05
0.00140216
-1.03401e-05
0.00140369
-1.10283e-05
0.00140526
-1.11716e-05
0.00140691
-1.16786e-05
0.00140831
-9.78104e-06
0.00140961
-9.02255e-06
0.0014102
-3.91345e-06
0.00141065
-2.86871e-06
4.87357e-06
0.00129701
-8.1883e-05
0.00130645
-7.72942e-05
0.00131539
-7.30971e-05
0.00132386
-6.92378e-05
0.00133188
-6.55561e-05
0.00133946
-6.19132e-05
0.00134659
-5.83184e-05
0.00135331
-5.49774e-05
0.00135967
-5.21048e-05
0.00136573
-4.97146e-05
0.00137151
-4.74757e-05
0.00137697
-4.48584e-05
0.001382
-4.13666e-05
0.00138647
-3.6833e-05
0.00139028
-3.14559e-05
0.00139338
-2.58019e-05
0.00139584
-2.05016e-05
0.00139776
-1.6252e-05
0.00139934
-1.33273e-05
0.00140077
-1.20332e-05
0.00140217
-1.17445e-05
0.00140369
-1.25468e-05
0.00140525
-1.27288e-05
0.00140689
-1.33252e-05
0.00140829
-1.11793e-05
0.0014096
-1.03294e-05
0.0014102
-4.51888e-06
0.00141067
-3.33617e-06
5.47853e-06
0.00129845
-9.17187e-05
0.00130775
-8.65938e-05
0.00131655
-8.19031e-05
0.0013249
-7.75877e-05
0.00133281
-7.34679e-05
0.00134029
-6.93871e-05
0.00134733
-6.53553e-05
0.00135395
-6.16049e-05
0.00136023
-5.83794e-05
0.00136621
-5.56976e-05
0.00137192
-5.31888e-05
0.00137732
-5.02569e-05
0.0013823
-4.6342e-05
0.00138672
-4.12542e-05
0.00139048
-3.52163e-05
0.00139354
-2.88663e-05
0.00139596
-2.29152e-05
0.00139785
-1.81479e-05
0.0013994
-1.48734e-05
0.0014008
-1.34343e-05
0.00140218
-1.31279e-05
0.00140369
-1.40485e-05
0.00140523
-1.42748e-05
0.00140687
-1.49657e-05
0.00140827
-1.25794e-05
0.00140959
-1.16437e-05
0.00141021
-5.14262e-06
0.0014107
-3.82603e-06
6.04781e-06
0.00130002
-0.000101389
0.00130917
-9.57394e-05
0.00131783
-9.05657e-05
0.00132605
-8.58044e-05
0.00133384
-8.12567e-05
0.0013412
-7.67474e-05
0.00134813
-7.2287e-05
0.00135466
-6.81342e-05
0.00136084
-6.45625e-05
0.00136674
-6.1596e-05
0.00137237
-5.88249e-05
0.0013777
-5.55863e-05
0.00138262
-5.1256e-05
0.00138698
-4.56206e-05
0.0013907
-3.89273e-05
0.00139371
-3.18857e-05
0.00139609
-2.52881e-05
0.00139795
-2.00071e-05
0.00139946
-1.63873e-05
0.00140083
-1.48075e-05
0.00140219
-1.44884e-05
0.00140368
-1.55321e-05
0.00140521
-1.58088e-05
0.00140685
-1.65998e-05
0.00140825
-1.39819e-05
0.00140957
-1.29669e-05
0.00141022
-5.78726e-06
0.00141073
-4.34132e-06
6.57685e-06
0.00130172
-0.000110881
0.0013107
-0.000104718
0.00131921
-9.90729e-05
0.00132728
-9.3877e-05
0.00133493
-8.8912e-05
0.00134217
-8.39846e-05
0.00134899
-7.91047e-05
0.00135541
-7.45573e-05
0.0013615
-7.06465e-05
0.0013673
-6.74027e-05
0.00137286
-6.43776e-05
0.00137811
-6.0841e-05
0.00138296
-5.61036e-05
0.00138727
-4.99279e-05
0.00139092
-4.25851e-05
0.00139389
-3.48568e-05
0.00139622
-2.7617e-05
0.00139804
-2.18269e-05
0.00139952
-1.78664e-05
0.00140087
-1.61509e-05
0.0014022
-1.58244e-05
0.00140367
-1.69963e-05
0.00140519
-1.733e-05
0.00140681
-1.82274e-05
0.00140822
-1.53876e-05
0.00140955
-1.43003e-05
0.00141022
-6.45544e-06
0.00141077
-4.88514e-06
7.06101e-06
0.00130353
-0.000120183
0.00131233
-0.000113519
0.00132067
-0.000107414
0.00132859
-0.000101795
0.0013361
-9.64248e-05
0.00134321
-9.10901e-05
0.0013499
-8.58003e-05
0.00135621
-8.08667e-05
0.00136219
-7.66245e-05
0.0013679
-7.31114e-05
0.00137336
-6.9841e-05
0.00137854
-6.60158e-05
0.00138332
-6.08804e-05
0.00138756
-5.41723e-05
0.00139116
-4.61863e-05
0.00139408
-3.77766e-05
0.00139636
-2.98994e-05
0.00139814
-2.36047e-05
0.00139958
-1.93088e-05
0.00140089
-1.74625e-05
0.0014022
-1.71344e-05
0.00140365
-1.844e-05
0.00140516
-1.88381e-05
0.00140678
-1.98487e-05
0.00140819
-1.67974e-05
0.00140953
-1.56455e-05
0.00141023
-7.14992e-06
0.0014108
-5.46071e-06
7.49563e-06
0.00130543
-0.000129282
0.00131405
-0.000122131
0.00132221
-0.00011558
0.00132997
-0.00010955
0.00133733
-0.000103787
0.0013443
-9.80564e-05
0.00135086
-9.23668e-05
0.00135705
-8.70559e-05
0.00136292
-8.24903e-05
0.00136852
-7.87163e-05
0.00137389
-7.521e-05
0.00137898
-7.11062e-05
0.00138368
-6.55826e-05
0.00138786
-5.83504e-05
0.0013914
-4.97282e-05
0.00139427
-4.06424e-05
0.0013965
-3.21329e-05
0.00139824
-2.53386e-05
0.00139964
-2.07125e-05
0.00140092
-1.87409e-05
0.0014022
-1.84173e-05
0.00140362
-1.98626e-05
0.00140512
-2.03329e-05
0.00140673
-2.14639e-05
0.00140815
-1.82125e-05
0.00140951
-1.70042e-05
0.00141023
-7.87354e-06
0.00141084
-6.07129e-06
7.87598e-06
0.00130742
-0.00013817
0.00131583
-0.000130547
0.00132381
-0.000123561
0.0013314
-0.000117134
0.0013386
-0.000110991
0.00134542
-0.000104877
0.00135185
-9.87984e-05
0.00135792
-9.31192e-05
0.00136366
-8.82387e-05
0.00136916
-8.42126e-05
0.00137443
-8.04802e-05
0.00137943
-7.61086e-05
0.00138406
-7.0207e-05
0.00138817
-6.24598e-05
0.00139165
-5.32084e-05
0.00139446
-4.34524e-05
0.00139664
-3.43156e-05
0.00139833
-2.70268e-05
0.00139969
-2.20761e-05
0.00140094
-1.9985e-05
0.00140219
-1.96723e-05
0.00140359
-2.12637e-05
0.00140507
-2.18143e-05
0.00140668
-2.30735e-05
0.0014081
-1.96341e-05
0.00140948
-1.83783e-05
0.00141023
-8.62929e-06
0.00141088
-6.72028e-06
8.19729e-06
0.00130946
-0.000146839
0.00131767
-0.000138758
0.00132546
-0.000131352
0.00133287
-0.000124541
0.00133991
-0.00011803
0.00134658
-0.000111546
0.00135287
-0.00010509
0.0013588
-9.90519e-05
0.00136443
-9.38651e-05
0.00136981
-8.9596e-05
0.00137498
-8.56481e-05
0.00137989
-8.10196e-05
0.00138443
-7.47511e-05
0.00138847
-6.64982e-05
0.00139189
-5.66253e-05
0.00139464
-4.6205e-05
0.00139677
-3.64463e-05
0.00139841
-2.86682e-05
0.00139974
-2.33987e-05
0.00140094
-2.11939e-05
0.00140217
-2.08989e-05
0.00140355
-2.26429e-05
0.00140502
-2.32826e-05
0.00140662
-2.46783e-05
0.00140805
-2.10638e-05
0.00140945
-1.97698e-05
0.00141024
-9.42025e-06
0.00141093
-7.41117e-06
8.45476e-06
0.00131154
-0.000155284
0.00131954
-0.000146758
0.00132714
-0.000138946
0.00133436
-0.000131766
0.00134123
-0.000124902
0.00134775
-0.000118059
0.0013539
-0.000111237
0.00135969
-0.00010485
0.00136519
-9.93662e-05
0.00137046
-9.48635e-05
0.00137552
-9.07106e-05
0.00138034
-8.58371e-05
0.0013848
-7.9213e-05
0.00138877
-7.04644e-05
0.00139212
-5.99778e-05
0.00139482
-4.88994e-05
0.00139689
-3.85242e-05
0.00139849
-3.02622e-05
0.00139977
-2.46798e-05
0.00140094
-2.23673e-05
0.00140214
-2.20968e-05
0.0014035
-2.40003e-05
0.00140495
-2.47384e-05
0.00140656
-2.62792e-05
0.00140799
-2.25032e-05
0.00140941
-2.11809e-05
0.00141024
-1.02497e-05
0.00141097
-8.14757e-06
8.64346e-06
0.00131365
-0.000163499
0.00132144
-0.000154544
0.00132883
-0.000146341
0.00133587
-0.000138804
0.00134257
-0.000131601
0.00134892
-0.000124414
0.00135492
-0.000117237
0.00136059
-0.000110512
0.00136596
-0.000104739
0.00137111
-0.000100013
0.00137606
-9.56656e-05
0.00138079
-9.05592e-05
0.00138516
-8.35915e-05
0.00138906
-7.43575e-05
0.00139234
-6.32655e-05
0.00139498
-5.15352e-05
0.001397
-4.0549e-05
0.00139855
-3.18083e-05
0.00139979
-2.5919e-05
0.00140093
-2.3505e-05
0.0014021
-2.32664e-05
0.00140343
-2.53366e-05
0.00140488
-2.61826e-05
0.00140648
-2.78774e-05
0.00140793
-2.39542e-05
0.00140936
-2.2614e-05
0.00141023
-1.11209e-05
0.00141102
-8.93318e-06
8.75846e-06
0.00131577
-0.000171482
0.00132333
-0.000162113
0.00133053
-0.000153532
0.00133737
-0.000145653
0.0013439
-0.000138125
0.00135009
-0.000130608
0.00135594
-0.000123089
0.00136147
-0.000116034
0.00136671
-0.000109983
0.00137174
-0.000105042
0.00137659
-0.000100512
0.00138121
-9.51852e-05
0.00138551
-8.78863e-05
0.00138933
-7.81776e-05
0.00139255
-6.64884e-05
0.00139513
-5.41126e-05
0.0013971
-4.2521e-05
0.0013986
-3.33071e-05
0.0013998
-2.71168e-05
0.0014009
-2.46076e-05
0.00140204
-2.44082e-05
0.00140336
-2.66523e-05
0.00140479
-2.76161e-05
0.00140639
-2.94745e-05
0.00140785
-2.5419e-05
0.00140931
-2.40717e-05
0.00141023
-1.20374e-05
0.00141106
-9.77187e-06
8.79477e-06
0.00131787
-0.000179231
0.00132522
-0.000169463
0.0013322
-0.000160518
0.00133886
-0.000152312
0.00134521
-0.000144474
0.00135124
-0.00013664
0.00135694
-0.000128791
0.00136233
-0.000121417
0.00136744
-0.000115096
0.00137235
-0.00010995
0.00137709
-0.000105249
0.00138162
-9.97149e-05
0.00138583
-9.20975e-05
0.00138957
-8.19251e-05
0.00139273
-6.96475e-05
0.00139525
-5.66327e-05
0.00139717
-4.44411e-05
0.00139863
-3.47591e-05
0.00139978
-2.82738e-05
0.00140085
-2.56757e-05
0.00140197
-2.5523e-05
0.00140326
-2.79485e-05
0.00140469
-2.90406e-05
0.00140628
-3.10722e-05
0.00140776
-2.68998e-05
0.00140925
-2.55566e-05
0.00141022
-1.30029e-05
0.00141111
-1.06676e-05
8.74728e-06
0.00131993
-0.000186747
0.00132706
-0.000176595
0.00133385
-0.000167301
0.00134032
-0.000158781
0.00134649
-0.000150647
0.00135236
-0.00014251
0.00135791
-0.000134343
0.00136316
-0.000126661
0.00136814
-0.000120079
0.00137293
-0.000114738
0.00137756
-0.000109878
0.00138199
-0.000104149
0.00138612
-9.62263e-05
0.00138979
-8.56015e-05
0.00139289
-7.27442e-05
0.00139536
-5.90969e-05
0.00139722
-4.63107e-05
0.00139863
-3.61658e-05
0.00139975
-2.93914e-05
0.00140078
-2.67105e-05
0.00140187
-2.66121e-05
0.00140315
-2.92268e-05
0.00140457
-3.04576e-05
0.00140617
-3.26724e-05
0.00140767
-2.83992e-05
0.00140918
-2.70719e-05
0.0014102
-1.40211e-05
0.00141116
-1.16244e-05
8.61086e-06
0.00132195
-0.000194031
0.00132886
-0.00018351
0.00133544
-0.000173881
0.00134172
-0.000165061
0.00134772
-0.000156646
0.00135343
-0.00014822
0.00135884
-0.000139747
0.00136394
-0.000131767
0.0013688
-0.000124933
0.00137346
-0.000119407
0.00137799
-0.000114399
0.00138233
-0.000108489
0.00138637
-0.000100274
0.00138998
-8.92087e-05
0.00139302
-7.57806e-05
0.00139543
-6.15072e-05
0.00139725
-4.81317e-05
0.00139861
-3.75289e-05
0.00139969
-3.04713e-05
0.00140069
-2.77138e-05
0.00140176
-2.76773e-05
0.00140302
-3.04889e-05
0.00140443
-3.18692e-05
0.00140604
-3.42776e-05
0.00140756
-2.99201e-05
0.00140911
-2.86206e-05
0.00141018
-1.5096e-05
0.00141121
-1.26466e-05
8.38031e-06
0.00132389
-0.000201087
0.00133059
-0.000190212
0.00133697
-0.000180261
0.00134307
-0.000171156
0.00134889
-0.000162473
0.00135445
-0.000153773
0.00135971
-0.000145006
0.00136468
-0.000136738
0.0013694
-0.00012966
0.00137395
-0.000123958
0.00137837
-0.000118814
0.00138262
-0.000112736
0.00138659
-0.000104244
0.00139013
-9.27494e-05
0.00139311
-7.87596e-05
0.00139547
-6.38665e-05
0.00139724
-4.99068e-05
0.00139856
-3.88509e-05
0.00139961
-3.15156e-05
0.00140058
-2.86876e-05
0.00140162
-2.87206e-05
0.00140287
-3.17369e-05
0.00140428
-3.32778e-05
0.00140589
-3.58902e-05
0.00140744
-3.14655e-05
0.00140902
-3.02061e-05
0.00141016
-1.62317e-05
0.00141125
-1.37385e-05
8.05035e-06
0.00132575
-0.00020792
0.00133224
-0.000196704
0.00133842
-0.000186445
0.00134433
-0.000177068
0.00134999
-0.000168132
0.00135539
-0.000159171
0.00136051
-0.000150123
0.00136535
-0.000141576
0.00136995
-0.000134263
0.00137439
-0.000128396
0.0013787
-0.000123126
0.00138286
-0.000116895
0.00138675
-0.000108138
0.00139023
-9.6227e-05
0.00139315
-8.16845e-05
0.00139547
-6.61781e-05
0.0013972
-5.1639e-05
0.00139848
-4.01346e-05
0.00139949
-3.25269e-05
0.00140044
-2.96344e-05
0.00140146
-2.97445e-05
0.0014027
-3.29733e-05
0.00140411
-3.4686e-05
0.00140573
-3.75132e-05
0.0014073
-3.30386e-05
0.00140893
-3.18321e-05
0.00141013
-1.74324e-05
0.0014113
-1.49046e-05
7.61562e-06
0.00132749
-0.000214535
0.00133378
-0.000202993
0.00133977
-0.000192439
0.00134551
-0.000182803
0.00135101
-0.000173628
0.00135625
-0.000164419
0.00136123
-0.000155102
0.00136594
-0.000146286
0.00137043
-0.000138747
0.00137475
-0.000132722
0.00137897
-0.000127339
0.00138304
-0.000120968
0.00138686
-0.000111961
0.00139028
-9.96454e-05
0.00139316
-8.45595e-05
0.00139542
-6.84459e-05
0.00139712
-5.33322e-05
0.00139837
-4.13835e-05
0.00139935
-3.35086e-05
0.00140027
-3.05572e-05
0.00140128
-3.07518e-05
0.0014025
-3.42009e-05
0.00140392
-3.60968e-05
0.00140555
-3.91496e-05
0.00140716
-3.46431e-05
0.00140883
-3.35022e-05
0.0014101
-1.87025e-05
0.00141134
-1.61495e-05
7.07073e-06
0.00132911
-0.000220941
0.00133521
-0.000209086
0.00134102
-0.000198249
0.00134658
-0.000188367
0.00135192
-0.000178967
0.00135702
-0.000169524
0.00136187
-0.000159949
0.00136646
-0.000150873
0.00137082
-0.000143116
0.00137504
-0.000136942
0.00137916
-0.000131458
0.00138315
-0.00012496
0.00138691
-0.000115717
0.00139027
-0.000103009
0.0013931
-8.73892e-05
0.00139533
-7.06746e-05
0.00139699
-5.49906e-05
0.00139821
-4.26014e-05
0.00139917
-3.44641e-05
0.00140007
-3.14594e-05
0.00140106
-3.17459e-05
0.00140228
-3.54231e-05
0.0014037
-3.75136e-05
0.00140535
-4.0803e-05
0.00140699
-3.62826e-05
0.00140871
-3.52206e-05
0.00141006
-2.00466e-05
0.00141138
-1.7478e-05
6.41017e-06
0.00133059
-0.000227146
0.0013365
-0.00021499
0.00134213
-0.000203882
0.00134753
-0.000193767
0.00135272
-0.000184154
0.00135768
-0.00017449
0.00136241
-0.000164669
0.00136688
-0.000155343
0.00137113
-0.000147375
0.00137525
-0.000141061
0.00137928
-0.000135486
0.0013832
-0.000128876
0.00138689
-0.000119411
0.00139021
-0.000106324
0.001393
-9.0179e-05
0.00139519
-7.28692e-05
0.00139682
-5.6619e-05
0.00139801
-4.37929e-05
0.00139895
-3.53977e-05
0.00139983
-3.23447e-05
0.00140081
-3.27303e-05
0.00140204
-3.66433e-05
0.00140346
-3.894e-05
0.00140514
-4.24771e-05
0.00140681
-3.79612e-05
0.00140859
-3.69913e-05
0.00141001
-2.14694e-05
0.00141142
-1.88949e-05
5.62841e-06
0.00133191
-0.00023316
0.00133764
-0.000220715
0.0013431
-0.000209348
0.00134835
-0.000199012
0.00135339
-0.000189199
0.00135823
-0.000179327
0.00136283
-0.000169271
0.00136719
-0.000159703
0.00137135
-0.000151531
0.00137537
-0.000145086
0.00137932
-0.000139431
0.00138316
-0.000132721
0.0013868
-0.00012305
0.00139007
-0.000109596
0.00139283
-9.29347e-05
0.00139499
-7.50354e-05
0.0013966
-5.82228e-05
0.00139777
-4.4963e-05
0.00139868
-3.63139e-05
0.00139956
-3.32175e-05
0.00140054
-3.37092e-05
0.00140176
-3.78656e-05
0.0014032
-4.03798e-05
0.0014049
-4.41759e-05
0.00140662
-3.96831e-05
0.00140845
-3.8819e-05
0.00140995
-2.29758e-05
0.00141146
-2.04053e-05
4.71984e-06
0.00133306
-0.000238993
0.00133861
-0.000226272
0.00134392
-0.000214657
0.00134902
-0.000204109
0.00135393
-0.00019411
0.00135865
-0.000184042
0.00136314
-0.000173762
0.00136739
-0.00016396
0.00137145
-0.000155592
0.00137539
-0.000149022
0.00137926
-0.000143298
0.00138304
-0.000136502
0.00138663
-0.000126639
0.00138986
-0.00011283
0.00139259
-9.56628e-05
0.00139474
-7.71796e-05
0.00139632
-5.9808e-05
0.00139747
-4.6117e-05
0.00139838
-3.72177e-05
0.00139924
-3.40824e-05
0.00140022
-3.46869e-05
0.00140145
-3.90941e-05
0.00140291
-4.18375e-05
0.00140463
-4.59036e-05
0.0014064
-4.1453e-05
0.00140829
-4.07081e-05
0.00140989
-2.45708e-05
0.0014115
-2.20144e-05
3.67878e-06
0.00133401
-0.000244658
0.00133941
-0.000231671
0.00134457
-0.000219818
0.00134954
-0.00020907
0.00135432
-0.000198895
0.00135892
-0.000188644
0.00136331
-0.000178151
0.00136748
-0.000168124
0.00137145
-0.000159565
0.0013753
-0.000152878
0.0013791
-0.000147094
0.00138282
-0.000140227
0.00138637
-0.000130185
0.00138958
-0.000116035
0.00139228
-9.83702e-05
0.00139441
-7.93085e-05
0.00139599
-6.13808e-05
0.00139713
-4.72609e-05
0.00139803
-3.81145e-05
0.00139889
-3.49445e-05
0.00139987
-3.56683e-05
0.00140111
-4.03335e-05
0.00140259
-4.33176e-05
0.00140435
-4.7665e-05
0.00140617
-4.32753e-05
0.00140813
-4.26636e-05
0.00140982
-2.62595e-05
0.00141153
-2.37273e-05
2.49948e-06
0.00133477
-0.000250166
0.00134002
-0.000236924
0.00134505
-0.000224843
0.00134988
-0.000213906
0.00135455
-0.000203566
0.00135905
-0.000193143
0.00136335
-0.000182448
0.00136743
-0.000172202
0.00137132
-0.000163458
0.0013751
-0.000156661
0.00137884
-0.000150828
0.00138251
-0.000143901
0.00138602
-0.000133697
0.00138921
-0.000119218
0.0013919
-0.000101065
0.00139402
-8.14293e-05
0.00139559
-6.29483e-05
0.00139673
-4.84012e-05
0.00139762
-3.90104e-05
0.00139849
-3.58093e-05
0.00139948
-3.66585e-05
0.00140073
-4.15888e-05
0.00140224
-4.48249e-05
0.00140404
-4.94648e-05
0.00140592
-4.51553e-05
0.00140795
-4.46904e-05
0.00140974
-2.80472e-05
0.00141156
-2.55496e-05
1.17616e-06
0.00133531
-0.000255532
0.00134043
-0.000242045
0.00134533
-0.000229744
0.00135005
-0.000218626
0.00135461
-0.000208133
0.00135902
-0.00019755
0.00136323
-0.000186661
0.00136724
-0.000176205
0.00137106
-0.000167282
0.00137478
-0.00016038
0.00137846
-0.000154507
0.00138209
-0.000147535
0.00138558
-0.000137181
0.00138875
-0.000122387
0.00139143
-0.000103754
0.00139356
-8.35498e-05
0.00139512
-6.45177e-05
0.00139627
-4.95446e-05
0.00139717
-3.99117e-05
0.00139804
-3.66827e-05
0.00139905
-3.76631e-05
0.00140032
-4.28652e-05
0.00140186
-4.63647e-05
0.00140371
-5.13081e-05
0.00140565
-4.7098e-05
0.00140775
-4.67939e-05
0.00140965
-2.99395e-05
0.00141158
-2.74867e-05
-2.97047e-07
0.00133562
-0.000260769
0.00134062
-0.000247046
0.00134541
-0.000234533
0.00135002
-0.000223244
0.0013545
-0.000212608
0.00135882
-0.000201875
0.00136297
-0.000190803
0.0013669
-0.000180142
0.00137067
-0.000171045
0.00137433
-0.000164044
0.00137796
-0.00015814
0.00138156
-0.000151135
0.00138503
-0.000140647
0.00138819
-0.000125549
0.00139089
-0.000106446
0.00139301
-8.56782e-05
0.00139459
-6.60968e-05
0.00139575
-5.06985e-05
0.00139666
-4.0825e-05
0.00139755
-3.75709e-05
0.00139857
-3.86879e-05
0.00139988
-4.41684e-05
0.00140145
-4.79424e-05
0.00140335
-5.32003e-05
0.00140536
-4.91088e-05
0.00140754
-4.89794e-05
0.00140955
-3.19419e-05
0.0014116
-2.95443e-05
-1.92605e-06
0.00133569
-0.000265891
0.00134058
-0.000251941
0.00134527
-0.000239225
0.0013498
-0.000227772
0.0013542
-0.000217002
0.00135845
-0.00020613
0.00136253
-0.000194884
0.00136641
-0.000184026
0.00137013
-0.000174758
0.00137375
-0.000167663
0.00137734
-0.000161737
0.00138092
-0.000154711
0.00138438
-0.000144103
0.00138754
-0.000128716
0.00139025
-0.000109151
0.00139239
-8.78231e-05
0.00139399
-6.76939e-05
0.00139516
-5.18704e-05
0.00139609
-4.17575e-05
0.001397
-3.84805e-05
0.00139805
-3.97392e-05
0.00139939
-4.55043e-05
0.00140101
-4.95637e-05
0.00140296
-5.51471e-05
0.00140504
-5.11935e-05
0.00140732
-5.12525e-05
0.00140943
-3.40601e-05
0.00141162
-3.17281e-05
-3.71682e-06
0.00133551
-0.000270914
0.00134031
-0.000256745
0.00134492
-0.000243832
0.00134937
-0.000232223
0.0013537
-0.000221328
0.00135789
-0.000210327
0.00136192
-0.000198915
0.00136576
-0.000187866
0.00136944
-0.000178432
0.00137302
-0.000171248
0.00137659
-0.000165308
0.00138015
-0.000158273
0.00138361
-0.000147559
0.00138679
-0.000131894
0.00138952
-0.000111877
0.00139169
-8.99935e-05
0.00139331
-6.93174e-05
0.00139451
-5.30685e-05
0.00139547
-4.27167e-05
0.0013964
-3.94184e-05
0.00139749
-4.08235e-05
0.00139886
-4.68792e-05
0.00140053
-5.12348e-05
0.00140254
-5.71544e-05
0.00140471
-5.33577e-05
0.00140707
-5.3619e-05
0.00140931
-3.63001e-05
0.00141163
-3.40441e-05
-5.67534e-06
0.00133507
-0.000275853
0.0013398
-0.000261471
0.00134434
-0.000248369
0.00134872
-0.000236611
0.00135299
-0.000225599
0.00135715
-0.000214479
0.00136114
-0.000202909
0.00136495
-0.000191674
0.00136859
-0.000182078
0.00137215
-0.000174808
0.00137571
-0.000168861
0.00137926
-0.000161829
0.00138273
-0.000151025
0.00138593
-0.000135095
0.00138869
-0.000114634
0.00139089
-9.21987e-05
0.00139255
-7.09763e-05
0.00139378
-5.43011e-05
0.00139478
-4.37103e-05
0.00139575
-4.0392e-05
0.00139687
-4.19476e-05
0.00139829
-4.82994e-05
0.00140002
-5.29618e-05
0.0014021
-5.92282e-05
0.00140435
-5.56075e-05
0.00140681
-5.60849e-05
0.00140918
-3.86676e-05
0.00141163
-3.64981e-05
-7.80768e-06
0.00133437
-0.000280723
0.00133904
-0.000266136
0.00134352
-0.00025285
0.00134785
-0.000240948
0.00135208
-0.000229828
0.0013562
-0.000218597
0.00136017
-0.000206879
0.00136396
-0.000195463
0.00136759
-0.000185706
0.00137113
-0.000178355
0.00137468
-0.000172408
0.00137824
-0.000165391
0.00138173
-0.000154509
0.00138496
-0.000138327
0.00138776
-0.000117431
0.00139001
-9.44484e-05
0.00139171
-7.268e-05
0.00139299
-5.55769e-05
0.00139402
-4.47465e-05
0.00139504
-4.14089e-05
0.00139621
-4.31186e-05
0.00139768
-4.97718e-05
0.00139947
-5.47512e-05
0.00140162
-6.13748e-05
0.00140396
-5.79492e-05
0.00140653
-5.86563e-05
0.00140903
-4.11689e-05
0.00141163
-3.90963e-05
-1.01199e-05
0.0013334
-0.00028554
0.00133801
-0.000270754
0.00134245
-0.000257289
0.00134676
-0.00024525
0.00135096
-0.000234029
0.00135505
-0.000222696
0.00135901
-0.000210836
0.00136279
-0.000199244
0.00136642
-0.00018933
0.00136996
-0.000181899
0.00137351
-0.000175959
0.00137709
-0.000168969
0.0013806
-0.000158023
0.00138388
-0.000141602
0.00138673
-0.000120279
0.00138903
-9.67525e-05
0.00139079
-7.44378e-05
0.00139212
-5.6905e-05
0.0013932
-4.58337e-05
0.00139427
-4.24768e-05
0.0013955
-4.43441e-05
0.00139703
-5.13035e-05
0.00139889
-5.66099e-05
0.00140111
-6.36009e-05
0.00140355
-6.03892e-05
0.00140624
-6.13395e-05
0.00140888
-4.38101e-05
0.00141163
-4.18448e-05
-1.26182e-05
0.00133214
-0.000290319
0.00133673
-0.00027534
0.00134114
-0.000261701
0.00134542
-0.00024953
0.00134961
-0.000238214
0.0013537
-0.000226787
0.00135766
-0.000214793
0.00136144
-0.00020303
0.00136507
-0.000192961
0.00136863
-0.000185453
0.00137219
-0.000179526
0.0013758
-0.000172572
0.00137935
-0.000161576
0.00138268
-0.000144929
0.00138559
-0.000123189
0.00138796
-9.91212e-05
0.00138978
-7.62597e-05
0.00139117
-5.82945e-05
0.00139231
-4.69806e-05
0.00139344
-4.36039e-05
0.00139473
-4.56315e-05
0.00139633
-5.29016e-05
0.00139826
-5.85448e-05
0.00140057
-6.59132e-05
0.00140312
-6.29339e-05
0.00140592
-6.41409e-05
0.00140871
-4.65975e-05
0.00141161
-4.47499e-05
-1.53087e-05
0.00133061
-0.000295077
0.00133518
-0.00027991
0.00133958
-0.000266101
0.00134385
-0.000253801
0.00134803
-0.000242397
0.00135213
-0.000230884
0.0013561
-0.000218764
0.00135991
-0.000206834
0.00136356
-0.00019661
0.00136713
-0.000189028
0.00137072
-0.000183119
0.00137436
-0.000176212
0.00137797
-0.00016518
0.00138136
-0.00014832
0.00138434
-0.00012617
0.00138678
-0.000101565
0.00138868
-7.81557e-05
0.00139014
-5.97552e-05
0.00139135
-4.81962e-05
0.00139255
-4.47986e-05
0.00139391
-4.69888e-05
0.00139558
-5.45737e-05
0.0013976
-6.0563e-05
0.0014
-6.83185e-05
0.00140266
-6.55901e-05
0.00140558
-6.7067e-05
0.00140852
-4.95376e-05
0.00141159
-4.78178e-05
-1.81975e-05
0.00132879
-0.000299828
0.00133335
-0.000284479
0.00133776
-0.000270503
0.00134204
-0.00025808
0.00134623
-0.000246593
0.00135035
-0.000235001
0.00135434
-0.00022276
0.00135818
-0.000210667
0.00136186
-0.000200291
0.00136547
-0.000192635
0.0013691
-0.000186749
0.00137279
-0.0001799
0.00137645
-0.000168845
0.00137991
-0.000151784
0.00138298
-0.000129234
0.00138551
-0.000104094
0.00138749
-8.0136e-05
0.00138903
-6.12967e-05
0.00139032
-4.94896e-05
0.00139159
-4.60696e-05
0.00139303
-4.84241e-05
0.00139478
-5.63275e-05
0.00139689
-6.26719e-05
0.0013994
-7.0824e-05
0.00140217
-6.83646e-05
0.00140523
-7.01244e-05
0.00140833
-5.26367e-05
0.00141157
-5.1055e-05
-2.12909e-05
0.00132667
-0.000304588
0.00133126
-0.000289061
0.00133568
-0.000274922
0.00133997
-0.000262378
0.0013442
-0.000250814
0.00134835
-0.00023915
0.00135238
-0.000226796
0.00135626
-0.000214544
0.00135998
-0.000204016
0.00136363
-0.000196287
0.00136731
-0.000190429
0.00137106
-0.000183646
0.0013748
-0.000172581
0.00137835
-0.000155333
0.0013815
-0.000132391
0.00138413
-0.00010672
0.0013862
-8.2211e-05
0.00138784
-6.29289e-05
0.00138922
-5.08702e-05
0.00139057
-4.74256e-05
0.00139209
-4.99457e-05
0.00139394
-5.81708e-05
0.00139615
-6.48792e-05
0.00139876
-7.3437e-05
0.00140166
-7.12645e-05
0.00140485
-7.33201e-05
0.00140812
-5.59014e-05
0.00141153
-5.4468e-05
-2.4595e-05
0.00132427
-0.000309373
0.00132888
-0.000293672
0.00133333
-0.000279373
0.00133767
-0.000266712
0.00134193
-0.000255075
0.00134612
-0.000243346
0.00135021
-0.000230885
0.00135414
-0.000218477
0.00135792
-0.000207798
0.00136163
-0.000199996
0.00136537
-0.000194169
0.00136919
-0.000187463
0.00137301
-0.000176401
0.00137665
-0.000158977
0.00137991
-0.000135653
0.00138265
-0.000109452
0.00138483
-8.43912e-05
0.00138656
-6.46619e-05
0.00138804
-5.23475e-05
0.00138949
-4.88755e-05
0.0013911
-5.1562e-05
0.00139304
-6.01117e-05
0.00139536
-6.71923e-05
0.00139808
-7.61648e-05
0.00140112
-7.42968e-05
0.00140446
-7.66609e-05
0.00140789
-5.93384e-05
0.00141149
-5.80632e-05
-2.81162e-05
0.00132157
-0.000314197
0.00132623
-0.000298326
0.00133072
-0.00028387
0.00133511
-0.000271093
0.00133942
-0.000259388
0.00134367
-0.0002476
0.00134783
-0.000235038
0.00135183
-0.000222478
0.00135568
-0.000211647
0.00135945
-0.000203773
0.00136327
-0.00019798
0.00136716
-0.00019136
0.00137108
-0.000180314
0.00137483
-0.000162728
0.0013782
-0.000139029
0.00138105
-0.000112303
0.00138335
-8.66875e-05
0.0013852
-6.65061e-05
0.00138678
-5.39313e-05
0.00138833