/*--------------------------------*- C++ -*----------------------------------*\
  =========                 |
  \\      /  F ield         | OpenFOAM: The Open Source CFD Toolbox
   \\    /   O peration     | Website:  https://openfoam.org
    \\  /    A nd           | Version:  7
     \\/     M anipulation  |
\*---------------------------------------------------------------------------*/
FoamFile
{
    version     2.0;
    format      ascii;
    class       volVectorField;
    location    "20";
    object      U;
}
// * * * * * * * * * * * * * * * * * * * * * * * * * * * * * * * * * * * * * //

dimensions      [0 1 -1 0 0 0 0];

internalField   nonuniform List<vector> 
7158
(
(0.867847 -0.000226771 6.65521e-24)
(0.875909 -0.000211079 5.7558e-24)
(0.88363 -0.000198138 9.23393e-24)
(0.891038 -0.000187569 4.574e-24)
(0.898157 -0.000178704 -5.07869e-24)
(0.904987 -0.000170936 7.99385e-25)
(0.911532 -0.000164027 6.77643e-24)
(0.917794 -0.000158208 4.11018e-24)
(0.923814 -0.000153715 1.35535e-24)
(0.929631 -0.00015032 -5.76503e-24)
(0.935288 -0.000147048 3.76334e-24)
(0.940767 -0.000142573 -1.80931e-24)
(0.946022 -0.000135763 -2.2438e-24)
(0.950951 -0.000126301 -4.97561e-24)
(0.95548 -0.000114716 -1.69075e-25)
(0.959541 -0.000102306 -3.53665e-24)
(0.963157 -9.04717e-05 -3.17345e-24)
(0.966364 -8.06905e-05 -6.74159e-25)
(0.969309 -7.35403e-05 4.47095e-25)
(0.972073 -6.96263e-05 1.55216e-24)
(0.974859 -6.77034e-05 1.04432e-24)
(0.977638 -6.79399e-05 5.12386e-25)
(0.980635 -6.70439e-05 -8.22249e-25)
(0.983507 -6.70573e-05 1.03668e-24)
(0.986682 -6.20647e-05 -5.84664e-25)
(0.989232 -5.97338e-05 -5.74681e-25)
(0.99234 -4.85235e-05 -6.12758e-25)
(0.993899 -4.60812e-05 1.50936e-26)
(0.996905 -3.01613e-05 -3.76636e-25)
(0.868091 -0.000742438 -7.26854e-25)
(0.876137 -0.000696954 2.89242e-23)
(0.883844 -0.00065682 -1.00127e-23)
(0.891238 -0.00062129 -1.81091e-23)
(0.898344 -0.000588845 -3.59955e-24)
(0.905162 -0.000558195 7.17568e-25)
(0.911695 -0.000529181 -1.87067e-23)
(0.917947 -0.000503029 -1.99255e-23)
(0.923956 -0.000480931 -1.36094e-23)
(0.929762 -0.000462615 7.55168e-24)
(0.935409 -0.000445494 9.20665e-24)
(0.940879 -0.000425835 -1.11072e-23)
(0.946125 -0.000400392 3.2065e-24)
(0.951046 -0.000368293 -1.32524e-24)
(0.955567 -0.000331102 7.84538e-24)
(0.95962 -0.000292661 4.87617e-24)
(0.963227 -0.000257034 3.38054e-24)
(0.966428 -0.000228503 2.65601e-24)
(0.969365 -0.000208558 -7.1301e-24)
(0.972123 -0.000198811 2.2795e-24)
(0.974902 -0.000195222 -1.10299e-24)
(0.977675 -0.000198138 -5.23315e-24)
(0.980665 -0.000197396 2.59442e-24)
(0.983533 -0.000199133 -3.83639e-24)
(0.986703 -0.000185362 -1.454e-24)
(0.989248 -0.000179331 -1.11872e-24)
(0.992352 -0.000146158 -7.39109e-25)
(0.993909 -0.000139218 -8.94496e-25)
(0.99691 -9.14737e-05 -3.03523e-25)
(0.86858 -0.00125662 -1.45475e-23)
(0.876595 -0.00118144 -3.179e-23)
(0.884272 -0.00111421 -7.5846e-24)
(0.891639 -0.00105381 2.04687e-23)
(0.898719 -0.000997865 -3.96941e-23)
(0.905512 -0.000944408 -1.79772e-23)
(0.912022 -0.000893354 8.10489e-24)
(0.91825 -0.000846924 4.36165e-23)
(0.924238 -0.00080727 1.92435e-23)
(0.930024 -0.000774082 8.41713e-24)
(0.935651 -0.000743164 -1.30246e-23)
(0.941102 -0.000708373 3.20277e-23)
(0.94633 -0.000664348 -1.31962e-23)
(0.951234 -0.000609652 9.23383e-24)
(0.955739 -0.000546891 -2.30245e-23)
(0.959776 -0.000482449 6.8996e-25)
(0.963368 -0.000423057 -7.76875e-24)
(0.966554 -0.000375802 -4.12082e-24)
(0.969477 -0.000343091 6.38165e-24)
(0.972221 -0.000327538 9.21187e-25)
(0.974988 -0.00032231 4.03665e-24)
(0.977748 -0.000327931 3.14249e-24)
(0.980727 -0.000327374 -3.04832e-24)
(0.983584 -0.000330864 -2.2877e-25)
(0.986744 -0.00030836 2.31005e-24)
(0.989281 -0.00029866 1.73337e-24)
(0.992376 -0.000243585 9.34561e-25)
(0.993928 -0.000232167 1.17366e-24)
(0.996922 -0.000152668 8.77864e-25)
(0.869312 -0.00176832 -1.73995e-23)
(0.87728 -0.00166363 2.86188e-23)
(0.884914 -0.00156944 -3.71296e-23)
(0.892239 -0.00148431 -2.39924e-23)
(0.89928 -0.00140501 5.90446e-23)
(0.906036 -0.00132887 9.09113e-24)
(0.91251 -0.00125589 -1.91293e-23)
(0.918705 -0.00118927 -4.77588e-23)
(0.92466 -0.00113214 5.04551e-24)
(0.930415 -0.00108417 -1.0728e-23)
(0.936013 -0.00103954 -1.09974e-23)
(0.941435 -0.000989707 -1.57178e-23)
(0.946637 -0.000927182 -5.30784e-24)
(0.951515 -0.000849962 -5.5059e-24)
(0.955996 -0.00076169 1.59413e-23)
(0.960009 -0.000671296 2.80401e-24)
(0.963579 -0.000588184 -6.24715e-24)
(0.966742 -0.00052225 3.9652e-24)
(0.969644 -0.000476817 -3.40209e-24)
(0.972368 -0.000455502 6.59387e-24)
(0.975116 -0.000448683 -2.63331e-24)
(0.977858 -0.000457051 -5.10745e-24)
(0.98082 -0.000456733 -3.65642e-24)
(0.983661 -0.000462023 1.1101e-23)
(0.986805 -0.000430859 4.26263e-24)
(0.98933 -0.000417543 7.73917e-25)
(0.992412 -0.000340663 5.40178e-25)
(0.993957 -0.000324803 6.54792e-25)
(0.996939 -0.000213667 1.49894e-24)
(0.870283 -0.00227657 5.33415e-23)
(0.878191 -0.00214258 -1.66959e-23)
(0.885766 -0.00202167 5.64834e-23)
(0.893036 -0.00191201 -3.26798e-23)
(0.900025 -0.00180954 -9.58851e-24)
(0.906731 -0.00171089 9.81573e-24)
(0.913159 -0.00161613 1.83827e-23)
(0.919309 -0.00152946 -1.14191e-24)
(0.925221 -0.00145497 -1.37098e-23)
(0.930935 -0.00139233 1.81928e-23)
(0.936493 -0.00133411 1.23133e-23)
(0.941878 -0.00126936 1.11428e-23)
(0.947044 -0.00118845 -6.51902e-25)
(0.951889 -0.00108881 4.03328e-24)
(0.956337 -0.000975108 -3.40372e-23)
(0.960319 -0.000858831 7.30056e-24)
(0.963858 -0.000752063 -7.47152e-25)
(0.966993 -0.000667512 -6.60404e-24)
(0.969867 -0.000609421 1.36801e-23)
(0.972564 -0.000582404 2.23616e-24)
(0.975286 -0.000574057 -1.34341e-23)
(0.978005 -0.000585231 -1.29902e-24)
(0.980942 -0.000585226 -4.12103e-24)
(0.983763 -0.000592383 -1.45493e-23)
(0.986886 -0.000552663 -4.41654e-24)
(0.989395 -0.000535803 -2.30234e-24)
(0.99246 -0.000437256 -2.51767e-24)
(0.993996 -0.000417 -1.46304e-24)
(0.996963 -0.000274392 -2.44968e-24)
(0.87149 -0.00278041 -2.04843e-23)
(0.879322 -0.00261743 -7.43492e-23)
(0.886826 -0.00247005 6.3155e-24)
(0.894027 -0.00233612 6.42991e-23)
(0.900951 -0.00221072 -8.90528e-23)
(0.907596 -0.00208979 8.74678e-23)
(0.913965 -0.00197343 -2.19002e-23)
(0.920059 -0.00186687 5.08987e-23)
(0.925918 -0.00177519 2.75436e-23)
(0.931581 -0.00169802 7.07344e-24)
(0.93709 -0.00162637 1.60756e-23)
(0.942429 -0.00154686 3.22807e-23)
(0.947551 -0.00144772 4.4626e-23)
(0.952354 -0.00132578 2.0354e-23)
(0.956761 -0.00118676 2.68083e-23)
(0.960705 -0.00104469 -2.29645e-23)
(0.964206 -0.000914347 2.20671e-23)
(0.967305 -0.000811256 6.26205e-24)
(0.970144 -0.000740589 -1.47387e-23)
(0.972808 -0.000707947 2.29067e-24)
(0.975498 -0.000698153 1.56319e-23)
(0.978187 -0.000712209 8.05603e-25)
(0.981095 -0.000712611 1.23526e-23)
(0.98389 -0.000721721 7.68153e-24)
(0.986987 -0.000673575 4.81998e-24)
(0.989476 -0.000653263 8.77819e-25)
(0.992519 -0.000533227 2.61222e-24)
(0.994044 -0.000508635 8.97273e-27)
(0.996992 -0.000334766 8.36322e-25)
(0.872928 -0.00327892 4.58134e-24)
(0.880669 -0.00308729 8.3641e-23)
(0.888087 -0.00291377 7.98639e-23)
(0.895207 -0.00275588 -9.93436e-23)
(0.902054 -0.00260785 1.50793e-22)
(0.908626 -0.00246489 -1.3291e-22)
(0.914926 -0.00232719 4.85404e-23)
(0.920954 -0.00220094 -6.2711e-23)
(0.926749 -0.00209223 1.41742e-24)
(0.932351 -0.00200072 -5.19855e-24)
(0.937801 -0.00191584 2.98017e-23)
(0.943085 -0.00182176 5.91647e-24)
(0.948155 -0.00170457 7.90187e-24)
(0.952908 -0.00156049 -1.13112e-23)
(0.957268 -0.00139627 3.01621e-23)
(0.961165 -0.00122852 3.09551e-23)
(0.964622 -0.0010747 -1.10574e-23)
(0.967677 -0.000953159 -1.66309e-24)
(0.970474 -0.000870012 6.13923e-24)
(0.973099 -0.000831839 -1.36256e-23)
(0.975751 -0.000820696 8.49397e-24)
(0.978404 -0.000837724 8.46798e-24)
(0.981278 -0.000838648 -5.77323e-24)
(0.984041 -0.000849814 -6.26182e-24)
(0.987108 -0.000793404 -1.32201e-23)
(0.989573 -0.000769752 3.91424e-24)
(0.99259 -0.000628441 -6.56115e-24)
(0.994101 -0.000599587 -5.55448e-27)
(0.997026 -0.000394713 -8.56119e-25)
(0.874589 -0.00377121 3.39295e-24)
(0.882226 -0.00355133 -2.85401e-23)
(0.889546 -0.00335205 -6.02741e-23)
(0.896572 -0.00317055 1.05604e-22)
(0.90333 -0.00300022 -1.0796e-22)
(0.909818 -0.00283556 7.14204e-23)
(0.916038 -0.00267678 -3.32032e-23)
(0.921989 -0.00253107 5.41532e-23)
(0.927711 -0.00240555 -6.41235e-23)
(0.933242 -0.00229992 -5.28207e-23)
(0.938625 -0.00220201 -8.66452e-23)
(0.943846 -0.0020936 -2.10385e-23)
(0.948855 -0.00195857 -5.14372e-23)
(0.95355 -0.00179254 -2.73561e-23)
(0.957854 -0.00160328 -4.19104e-23)
(0.961698 -0.00140996 -2.58548e-23)
(0.965103 -0.00123277 7.27915e-24)
(0.968108 -0.0010929 -6.4136e-24)
(0.970858 -0.000997389 2.23096e-24)
(0.973437 -0.000953792 2.91039e-23)
(0.976045 -0.000941415 -1.57718e-23)
(0.978656 -0.000961522 1.23955e-23)
(0.98149 -0.000963101 1.43878e-23)
(0.984217 -0.000976445 1.4589e-23)
(0.987249 -0.000911957 9.61424e-24)
(0.989686 -0.000885097 -6.1065e-24)
(0.992672 -0.000722765 9.35107e-24)
(0.994168 -0.000689735 -5.71606e-25)
(0.997066 -0.000454156 -2.25376e-24)
(0.876467 -0.00425641 7.2786e-23)
(0.883988 -0.00400875 6.01739e-23)
(0.891196 -0.00378413 1.14397e-23)
(0.898117 -0.00357943 -4.52211e-23)
(0.904774 -0.00338719 2.24084e-23)
(0.911168 -0.00320118 -3.43689e-23)
(0.917296 -0.00302162 7.18441e-23)
(0.923162 -0.00285672 -7.21112e-23)
(0.9288 -0.00271463 -1.02594e-23)
(0.934251 -0.00259511 3.25983e-23)
(0.939559 -0.00248444 5.50581e-23)
(0.944707 -0.00236195 -1.1114e-23)
(0.949648 -0.00220933 4.09735e-23)
(0.954278 -0.00202156 1.86182e-23)
(0.95852 -0.00180742 4.78845e-23)
(0.962303 -0.00158868 -7.60924e-24)
(0.965649 -0.00138826 3.74228e-24)
(0.968598 -0.00123017 -1.13422e-24)
(0.971293 -0.00112242 1.21872e-23)
(0.97382 -0.00107352 -2.44451e-23)
(0.976378 -0.00106004 -9.70421e-24)
(0.978943 -0.00108335 -1.51948e-24)
(0.981731 -0.00108574 -1.56117e-23)
(0.984417 -0.0011014 -5.75205e-24)
(0.987408 -0.00102905 -4.29421e-24)
(0.989813 -0.000999132 5.23957e-24)
(0.992766 -0.000816067 -9.91032e-25)
(0.994244 -0.00077896 1.87126e-24)
(0.997112 -0.000513023 4.49485e-24)
(0.878554 -0.00473372 6.72636e-23)
(0.885945 -0.00445878 2.88148e-24)
(0.89303 -0.00420928 -4.4485e-23)
(0.899834 -0.00398184 -2.97158e-23)
(0.906381 -0.00376811 4.42848e-23)
(0.912669 -0.00356114 -2.27129e-23)
(0.918697 -0.00336115 -8.51352e-23)
(0.924466 -0.00317736 4.66122e-23)
(0.930013 -0.00301896 2.68167e-23)
(0.935376 -0.00288582 1.89993e-23)
(0.940599 -0.00276268 -5.73298e-23)
(0.945667 -0.0026264 2.20638e-23)
(0.950531 -0.00245646 -2.88215e-23)
(0.955089 -0.00224717 -7.9641e-24)
(0.959261 -0.00200836 3.96532e-23)
(0.962978 -0.00176435 -4.72669e-23)
(0.966259 -0.00154083 -1.46424e-23)
(0.969144 -0.00136467 1.86077e-24)
(0.971778 -0.00124483 -1.514e-23)
(0.974248 -0.00119076 1.35375e-23)
(0.97675 -0.00117633 2.55634e-23)
(0.979262 -0.00120297 -2.51024e-23)
(0.982 -0.00120633 7.36708e-24)
(0.98464 -0.00122446 -1.16634e-23)
(0.987586 -0.0011445 -4.9801e-24)
(0.989956 -0.00111169 -3.98354e-24)
(0.992871 -0.000908219 -1.70301e-24)
(0.994328 -0.000867147 2.74179e-25)
(0.997162 -0.00057124 1.8452e-25)
(0.880841 -0.00520236 7.89977e-23)
(0.888091 -0.00490069 -7.28598e-23)
(0.895041 -0.00462684 -9.4331e-23)
(0.901718 -0.00437713 -1.97929e-23)
(0.908143 -0.00414239 9.52708e-23)
(0.914316 -0.00391489 2.21758e-23)
(0.920235 -0.00369485 1.41946e-23)
(0.925899 -0.00349248 -1.70378e-23)
(0.931345 -0.00331807 5.19488e-23)
(0.936611 -0.00317159 -7.05663e-23)
(0.941741 -0.00303628 -1.59728e-23)
(0.946721 -0.00288654 -1.18275e-22)
(0.951503 -0.00269958 -4.52659e-23)
(0.955981 -0.00246904 -7.53235e-24)
(0.960077 -0.00220575 -2.94462e-23)
(0.96372 -0.00193665 2.66419e-23)
(0.966929 -0.0016902 4.10798e-23)
(0.969746 -0.00149611 -1.01094e-23)
(0.972313 -0.00136432 -1.90258e-23)
(0.974719 -0.00130524 -4.05475e-23)
(0.97716 -0.00129001 -1.51007e-24)
(0.979615 -0.00132013 1.96976e-23)
(0.982296 -0.00132467 -1.08429e-23)
(0.984886 -0.00134544 2.27368e-23)
(0.987783 -0.00125812 9.58365e-24)
(0.990114 -0.00122261 -2.60647e-24)
(0.992986 -0.000999096 7.13882e-24)
(0.994422 -0.000954181 -8.2956e-25)
(0.997219 -0.000628736 -2.51437e-24)
(0.883318 -0.00566162 -1.26591e-22)
(0.890416 -0.00533382 1.21125e-22)
(0.897222 -0.00503615 4.81108e-23)
(0.90376 -0.0047647 1.45981e-22)
(0.910055 -0.00450945 -1.53417e-22)
(0.916103 -0.00426189 5.99864e-23)
(0.921904 -0.0040222 5.40841e-23)
(0.927455 -0.00380159 -2.70692e-23)
(0.932791 -0.00361148 -4.50649e-23)
(0.937952 -0.00345199 1.12092e-23)
(0.942983 -0.00330484 2.80249e-23)
(0.947868 -0.00314198 1.1571e-22)
(0.952559 -0.00293834 1.1671e-22)
(0.956951 -0.00268683 3.93683e-23)
(0.960965 -0.0023993 3.17262e-23)
(0.964528 -0.00210528 9.02946e-24)
(0.967659 -0.00183606 2.75278e-23)
(0.970401 -0.0016242 -3.67413e-23)
(0.972896 -0.00148064 -1.72942e-24)
(0.975233 -0.00141671 8.85485e-24)
(0.977607 -0.00140084 -1.42224e-23)
(0.979999 -0.00143461 -7.90929e-24)
(0.98262 -0.00144052 -1.58647e-24)
(0.985155 -0.00146412 -1.73309e-23)
(0.987997 -0.00136975 -1.1893e-24)
(0.990285 -0.00133174 2.51382e-25)
(0.993112 -0.00108858 -8.01848e-24)
(0.994523 -0.00103995 7.03445e-25)
(0.99728 -0.000685441 3.09042e-24)
(0.885975 -0.00611083 -6.70229e-23)
(0.892911 -0.00575752 4.03799e-23)
(0.899562 -0.00543662 -1.74195e-22)
(0.905954 -0.00514398 -4.58121e-23)
(0.912108 -0.00486876 4.26641e-23)
(0.918024 -0.00460163 -1.31719e-22)
(0.923698 -0.00434272 -1.83783e-22)
(0.929127 -0.00410426 3.03363e-23)
(0.934347 -0.00389877 8.22896e-23)
(0.939396 -0.0037266 4.79011e-23)
(0.944319 -0.00356798 6.84811e-23)
(0.949102 -0.00339237 -9.60792e-23)
(0.953696 -0.00317239 -1.11861e-22)
(0.957997 -0.00290021 6.09204e-23)
(0.961922 -0.00258869 -7.71591e-23)
(0.965399 -0.00226996 1.12084e-23)
(0.968447 -0.00197814 -2.56466e-23)
(0.971108 -0.00174869 3.79995e-23)
(0.973525 -0.00159352 2.45718e-23)
(0.975787 -0.0015249 1.34472e-23)
(0.97809 -0.0015086 2.25606e-23)
(0.980414 -0.00154618 1.33286e-23)
(0.982969 -0.00155369 5.79377e-24)
(0.985445 -0.00158033 5.55156e-24)
(0.988228 -0.00147921 -8.57483e-24)
(0.990471 -0.00143893 4.76313e-24)
(0.993248 -0.00117654 -3.34728e-24)
(0.994633 -0.00112435 -4.36683e-24)
(0.997346 -0.000741288 -2.72675e-24)
(0.888802 -0.0065494 1.77382e-22)
(0.895566 -0.00617122 -6.89204e-25)
(0.902054 -0.0058277 1.93305e-22)
(0.90829 -0.00551446 3.25167e-23)
(0.914296 -0.00521983 -8.13428e-23)
(0.920071 -0.00493365 2.33239e-22)
(0.925611 -0.00465599 2.1277e-22)
(0.930911 -0.00440004 1.99987e-23)
(0.936007 -0.00417953 -3.43641e-23)
(0.940937 -0.00399503 -7.24295e-23)
(0.945745 -0.00382532 -4.76016e-23)
(0.95042 -0.00363736 5.40256e-23)
(0.954911 -0.00340143 3.44256e-24)
(0.959114 -0.00310891 -9.12383e-23)
(0.962944 -0.00277365 6.09348e-23)
(0.96633 -0.00243041 1.71312e-23)
(0.96929 -0.00211618 -1.08553e-23)
(0.971865 -0.0018693 -4.63093e-23)
(0.974199 -0.00170272 -5.58556e-24)
(0.976382 -0.0016296 -2.64311e-23)
(0.978607 -0.00161304 -3.93615e-24)
(0.980859 -0.00165462 -8.02714e-24)
(0.983343 -0.00166397 9.42608e-24)
(0.985756 -0.00169386 4.99489e-24)
(0.988477 -0.00158634 1.31824e-23)
(0.99067 -0.00154402 -8.15051e-24)
(0.993393 -0.00126287 9.4544e-24)
(0.994752 -0.00120728 9.85775e-24)
(0.997417 -0.000796211 5.7303e-24)
(0.891786 -0.00697676 9.82798e-23)
(0.898371 -0.0065744 1.15718e-22)
(0.904687 -0.00620889 2.10669e-22)
(0.910759 -0.00587566 2.68725e-23)
(0.91661 -0.00556221 -9.78585e-23)
(0.922237 -0.00525753 -1.37044e-22)
(0.927635 -0.00496159 -3.12811e-23)
(0.9328 -0.00468857 1.08291e-23)
(0.937765 -0.00445339 3.71306e-24)
(0.942569 -0.00425693 6.98724e-23)
(0.947258 -0.00407653 6.1273e-23)
(0.951818 -0.00387663 -7.29848e-23)
(0.9562 -0.00362515 6.39062e-23)
(0.960299 -0.00331263 2.1515e-23)
(0.964031 -0.00295391 -2.68153e-23)
(0.96732 -0.00258639 -6.9308e-23)
(0.970185 -0.00224993 -1.17027e-23)
(0.97267 -0.00198581 5.73886e-23)
(0.974915 -0.001808 6.61608e-24)
(0.977014 -0.00173056 1.74673e-23)
(0.979157 -0.00171397 1.24194e-23)
(0.981332 -0.00175973 -1.21717e-24)
(0.983741 -0.00177117 5.28127e-24)
(0.986087 -0.00180453 -8.12829e-24)
(0.988741 -0.00169098 -1.53418e-23)
(0.990882 -0.00164688 -1.11568e-23)
(0.993549 -0.00134746 1.04895e-24)
(0.994877 -0.00128862 -1.31758e-23)
(0.997493 -0.000850146 -1.1715e-24)
(0.894917 -0.00739243 -3.14765e-22)
(0.901314 -0.0069666 -1.75742e-22)
(0.907452 -0.00657974 -2.69491e-22)
(0.913354 -0.00622715 -1.41698e-22)
(0.919042 -0.00589549 -1.08059e-23)
(0.924514 -0.00557288 -1.04222e-22)
(0.929765 -0.00525914 8.97574e-24)
(0.934788 -0.00496947 -8.23975e-24)
(0.939616 -0.00472 -1.11654e-22)
(0.944289 -0.00451196 -1.14253e-22)
(0.948851 -0.00432128 -5.13843e-23)
(0.953291 -0.00410989 2.33827e-23)
(0.957559 -0.00384328 -4.38005e-23)
(0.96155 -0.00351113 -9.80309e-24)
(0.965177 -0.00312923 -4.43927e-23)
(0.968365 -0.00273764 2.91804e-23)
(0.971132 -0.00237916 -1.63355e-23)
(0.97352 -0.00209799 -7.9427e-24)
(0.975673 -0.00190915 5.98559e-24)
(0.977682 -0.00182758 -1.44602e-23)
(0.97974 -0.00181116 -4.99206e-23)
(0.981833 -0.00186132 -1.54129e-23)
(0.984163 -0.00187511 1.3759e-23)
(0.986437 -0.00191219 1.58872e-23)
(0.989021 -0.00179298 4.17333e-24)
(0.991107 -0.00174736 3.5152e-23)
(0.993713 -0.00143019 -1.10823e-23)
(0.995011 -0.0013683 1.11401e-23)
(0.997573 -0.000903031 -5.81654e-24)
(0.898182 -0.00779598 -4.80872e-23)
(0.904385 -0.00734739 2.81757e-22)
(0.910338 -0.00693986 3.61542e-23)
(0.916063 -0.00656855 5.10178e-22)
(0.921583 -0.0062193 1.59902e-22)
(0.926895 -0.00587934 5.70139e-24)
(0.931992 -0.00554833 -8.65508e-23)
(0.936868 -0.00524242 1.38259e-22)
(0.941554 -0.00497905 1.03975e-22)
(0.946089 -0.00475982 6.34273e-24)
(0.95052 -0.00455929 5.10836e-23)
(0.954834 -0.00433687 1.28128e-22)
(0.958984 -0.00405556 2.31384e-23)
(0.962862 -0.00370415 -3.97332e-23)
(0.96638 -0.00329938 3.08228e-23)
(0.969462 -0.00288396 -8.79147e-24)
(0.972126 -0.00250366 3.26016e-23)
(0.974414 -0.00220561 -4.77571e-23)
(0.976469 -0.00200595 1.26311e-23)
(0.978385 -0.00192044 4.88835e-23)
(0.980352 -0.00190442 4.39844e-24)
(0.98236 -0.00195918 1.56323e-23)
(0.984607 -0.0019756 -9.64979e-24)
(0.986806 -0.00201666 1.18548e-23)
(0.989316 -0.0018922 4.33049e-24)
(0.991343 -0.00184534 -2.1159e-23)
(0.993887 -0.00151098 1.74769e-23)
(0.995151 -0.0014462 -5.1957e-24)
(0.997657 -0.000954808 3.07643e-24)
(0.901568 -0.00818705 8.49095e-23)
(0.907573 -0.00771642 -3.27759e-22)
(0.913335 -0.00728889 -9.40452e-24)
(0.918878 -0.00689951 -1.09524e-22)
(0.924224 -0.00653332 -1.00323e-22)
(0.92937 -0.00617661 1.84313e-22)
(0.934309 -0.00582884 -1.45757e-23)
(0.939033 -0.00550714 -5.70871e-23)
(0.943572 -0.00523025 7.17286e-23)
(0.947965 -0.00500022 1.12866e-22)
(0.952259 -0.00479029 -1.38928e-22)
(0.956444 -0.00455731 -1.79872e-23)
(0.960471 -0.00426178 6.69115e-23)
(0.964231 -0.0038915 -5.06164e-24)
(0.967636 -0.00346415 4.94152e-23)
(0.970608 -0.00302514 2.41832e-23)
(0.973165 -0.00262322 -1.18512e-23)
(0.975349 -0.00230849 -5.95062e-24)
(0.977303 -0.0020982 3.06855e-24)
(0.979121 -0.00200897 -7.28551e-23)
(0.980994 -0.00199356 -3.6052e-24)
(0.982913 -0.00205314 1.00646e-23)
(0.985072 -0.00207249 -8.96492e-24)
(0.987192 -0.00211778 -3.47708e-23)
(0.989624 -0.00198849 2.44147e-24)
(0.991591 -0.0019407 3.12072e-24)
(0.994068 -0.00158971 -4.84318e-24)
(0.995298 -0.00152225 3.23992e-24)
(0.997746 -0.00100542 -7.64561e-25)
(0.905063 -0.00856534 9.84445e-23)
(0.910865 -0.0080734 1.74754e-22)
(0.916432 -0.00762654 -7.592e-23)
(0.921788 -0.00721976 -2.20814e-22)
(0.926957 -0.00683727 -1.79769e-22)
(0.931933 -0.00646443 1.12427e-23)
(0.936709 -0.00610043 -1.66434e-22)
(0.941276 -0.00576337 4.73174e-23)
(0.945663 -0.00547336 -1.20528e-22)
(0.94991 -0.00523293 5.69566e-23)
(0.954063 -0.00501404 2.25744e-23)
(0.958114 -0.004771 3.01039e-23)
(0.962014 -0.00446171 -1.21739e-22)
(0.965653 -0.00407297 -8.00676e-24)
(0.968941 -0.00362337 -4.1136e-23)
(0.971801 -0.00316101 -4.87995e-23)
(0.974247 -0.00273766 3.10467e-23)
(0.976323 -0.00240645 2.23511e-23)
(0.978171 -0.00218573 3.31058e-23)
(0.979889 -0.00209298 1.47493e-23)
(0.981663 -0.00207842 7.47598e-23)
(0.983489 -0.00214304 -4.09381e-23)
(0.985558 -0.00216561 3.04356e-24)
(0.987596 -0.00221541 3.05202e-23)
(0.989947 -0.00208174 1.38036e-23)
(0.99185 -0.0020333 4.87189e-24)
(0.994258 -0.0016663 -5.42775e-24)
(0.995452 -0.00159635 2.89002e-24)
(0.997839 -0.00105481 -1.14157e-24)
(0.908655 -0.0089306 -3.73909e-23)
(0.914249 -0.00841808 7.14066e-23)
(0.919618 -0.00795259 -3.59165e-23)
(0.924784 -0.00752906 3.90383e-22)
(0.929771 -0.00713092 1.69499e-22)
(0.934573 -0.00674256 -1.13466e-22)
(0.939183 -0.00636286 1.81233e-22)
(0.94359 -0.0060109 -5.22965e-23)
(0.947822 -0.00570815 4.85317e-23)
(0.951918 -0.00545774 -2.34214e-22)
(0.955927 -0.00523035 1.15009e-22)
(0.959841 -0.00497773 -1.28467e-22)
(0.96361 -0.00465518 1.11295e-22)
(0.967125 -0.0042484 2.35821e-23)
(0.970293 -0.00377687 -2.89843e-23)
(0.973036 -0.00329139 9.24917e-24)
(0.975368 -0.00284683 -4.32364e-23)
(0.977333 -0.00249931 6.66906e-23)
(0.979072 -0.00226838 -4.72753e-23)
(0.980685 -0.0021723 3.05904e-23)
(0.982358 -0.00215882 -8.91981e-23)
(0.984087 -0.00222871 9.478e-24)
(0.986062 -0.00225481 -7.74866e-24)
(0.988015 -0.00230941 -5.3466e-23)
(0.990282 -0.0021718 -2.12075e-23)
(0.992119 -0.00212305 -1.07911e-23)
(0.994455 -0.00174066 7.45343e-24)
(0.995612 -0.00166844 -5.60645e-24)
(0.997935 -0.00110294 1.7024e-24)
(0.91233 -0.00928266 -2.82087e-22)
(0.917715 -0.00875029 -7.31548e-23)
(0.922883 -0.00826683 1.49951e-22)
(0.927856 -0.00782721 -2.35618e-22)
(0.932657 -0.00741409 -1.43131e-22)
(0.937283 -0.00701082 -3.89444e-23)
(0.941724 -0.00661597 -4.01314e-23)
(0.945967 -0.00624954 3.59473e-23)
(0.950041 -0.00593445 1.02573e-22)
(0.953984 -0.00567444 1.65801e-22)
(0.957846 -0.00543902 -1.61517e-23)
(0.961619 -0.00517734 -2.94816e-23)
(0.965254 -0.00484202 6.36181e-23)
(0.968642 -0.00441763 2.0117e-23)
(0.971688 -0.00392451 5.53908e-23)
(0.974312 -0.00341616 6.87235e-23)
(0.976526 -0.00295058 1.06379e-22)
(0.978376 -0.00258694 -6.80294e-23)
(0.980004 -0.00234599 8.23704e-23)
(0.981509 -0.00224678 2.2319e-23)
(0.983077 -0.00223463 -5.1191e-24)
(0.984707 -0.00231002 4.06386e-23)
(0.986584 -0.00233996 -9.10834e-24)
(0.98845 -0.00239964 4.74935e-23)
(0.990629 -0.00225858 1.66033e-23)
(0.992398 -0.00220984 -4.43433e-24)
(0.99466 -0.0018127 -1.96368e-23)
(0.995778 -0.00173842 7.26536e-24)
(0.998035 -0.00114974 -3.49419e-24)
(0.916077 -0.00962139 1.29753e-22)
(0.92125 -0.00906989 1.07498e-22)
(0.926215 -0.00856913 -6.30396e-23)
(0.930993 -0.00811408 1.76463e-22)
(0.935607 -0.00768662 1.96751e-22)
(0.940054 -0.00726907 3.5097e-23)
(0.944323 -0.00685961 -7.4092e-23)
(0.948401 -0.00647915 4.47635e-23)
(0.952314 -0.00615209 -1.26539e-22)
(0.956101 -0.0058829 -1.87905e-22)
(0.959813 -0.00563991 -6.26738e-23)
(0.963442 -0.00536969 4.11537e-23)
(0.966942 -0.00502211 -6.96727e-23)
(0.9702 -0.00458055 -7.68774e-24)
(0.973121 -0.00406617 1.96364e-23)
(0.975623 -0.00353519 -4.90306e-23)
(0.977718 -0.00304878 -2.89244e-23)
(0.979451 -0.0026692 -7.26002e-23)
(0.980964 -0.00241842 -6.71876e-23)
(0.982359 -0.00231629 -2.42874e-23)
(0.983818 -0.0023057 4.86093e-23)
(0.985346 -0.00238681 -5.084e-23)
(0.987123 -0.00242093 -9.5709e-25)
(0.988898 -0.00248599 -3.21607e-23)
(0.990988 -0.00234195 -3.68862e-24)
(0.992686 -0.00229356 2.89893e-23)
(0.994871 -0.00188235 1.0897e-23)
(0.99595 -0.00180623 -1.32798e-23)
(0.998138 -0.00119518 1.73749e-24)
(0.919882 -0.00994673 -2.23722e-22)
(0.924843 -0.00937681 -1.05865e-22)
(0.929603 -0.0088594 2.5166e-22)
(0.934185 -0.00838957 -1.73434e-22)
(0.93861 -0.00794842 -2.20513e-23)
(0.942877 -0.00751721 1.83388e-22)
(0.946973 -0.00709366 -2.00154e-22)
(0.950884 -0.00669962 9.20279e-23)
(0.954634 -0.00636098 2.67173e-23)
(0.958263 -0.00608299 1.26962e-22)
(0.961822 -0.00583289 1.71112e-22)
(0.965306 -0.00555465 -1.62447e-23)
(0.968668 -0.00519534 -2.35999e-24)
(0.971794 -0.00473704 -6.13451e-23)
(0.974588 -0.00420175 -1.63069e-23)
(0.976967 -0.00364838 9.1214e-23)
(0.97894 -0.00314133 -1.03374e-22)
(0.980555 -0.00274598 2.07887e-23)
(0.981951 -0.00248556 -4.77911e-23)
(0.983232 -0.00238071 2.65973e-23)
(0.98458 -0.0023719 -3.75479e-23)
(0.986003 -0.00245898 4.81107e-23)
(0.987677 -0.00249759 1.68463e-23)
(0.989359 -0.00256833 2.88793e-23)
(0.991357 -0.00242183 -6.0317e-24)
(0.992983 -0.00237412 -2.63061e-23)
(0.995089 -0.00194953 -4.10296e-24)
(0.996126 -0.0018718 -9.22992e-25)
(0.998244 -0.00123922 -8.06417e-25)
(0.923734 -0.0102587 2.77399e-22)
(0.928482 -0.00967103 2.52231e-22)
(0.933038 -0.00913761 -1.90745e-22)
(0.937422 -0.00865363 -1.53412e-22)
(0.941659 -0.00819943 -2.35195e-23)
(0.945744 -0.00775516 -6.24772e-23)
(0.949666 -0.00731807 9.41261e-23)
(0.953408 -0.00691087 -8.71254e-23)
(0.956995 -0.006561 2.46882e-24)
(0.960464 -0.00627461 -5.28387e-23)
(0.963869 -0.00601786 -7.06815e-23)
(0.967206 -0.00573212 7.18395e-23)
(0.970428 -0.00536161 -5.07112e-23)
(0.973422 -0.00488704 9.54536e-23)
(0.976087 -0.00433117 2.34511e-23)
(0.978341 -0.00375565 -1.83573e-22)
(0.980191 -0.00322815 7.33617e-23)
(0.981684 -0.00281718 6.20542e-23)
(0.98296 -0.00254731 7.48778e-23)
(0.984126 -0.00243991 -6.51541e-23)
(0.985362 -0.00243314 5.69326e-23)
(0.986677 -0.0025264 -1.95549e-23)
(0.988245 -0.00256984 1.59219e-23)
(0.989832 -0.00264658 -2.44281e-23)
(0.991735 -0.00249811 1.21056e-23)
(0.993287 -0.00245145 -2.62256e-24)
(0.995312 -0.00201418 6.62698e-24)
(0.996307 -0.00193508 9.97486e-24)
(0.998354 -0.0012818 5.11153e-24)
(0.92762 -0.0105573 -4.70191e-22)
(0.932157 -0.00995257 -2.38987e-22)
(0.936508 -0.00940377 -7.45231e-23)
(0.940695 -0.00890624 -1.92948e-22)
(0.944743 -0.00843963 1.91644e-22)
(0.948646 -0.00798291 2.10279e-22)
(0.952394 -0.00753279 1.10577e-23)
(0.955967 -0.00711285 -1.40866e-22)
(0.959389 -0.00675212 -1.07194e-22)
(0.962698 -0.00645769 5.10495e-23)
(0.965948 -0.00619475 -4.27076e-23)
(0.969137 -0.00590204 -1.08844e-23)
(0.972218 -0.00552086 8.20898e-23)
(0.975077 -0.00503048 -2.40846e-23)
(0.977613 -0.00445437 -9.07869e-23)
(0.979741 -0.00385694 1.34875e-22)
(0.981466 -0.00330916 -6.3693e-23)
(0.982836 -0.00288273 3.20478e-23)
(0.983992 -0.00260357 3.60334e-23)
(0.98504 -0.00249381 2.78691e-23)
(0.98616 -0.00248929 -4.25654e-23)
(0.987366 -0.00258898 -1.75214e-23)
(0.988827 -0.00263759 -3.23907e-23)
(0.990317 -0.00272063 -1.79999e-24)
(0.992123 -0.00257072 -2.55892e-23)
(0.993599 -0.00252546 5.58572e-24)
(0.995541 -0.00207623 -1.30182e-23)
(0.996493 -0.001996 3.94128e-24)
(0.998465 -0.00132291 -1.04789e-24)
(0.931528 -0.0108426 1.07729e-22)
(0.935855 -0.0102215 1.02777e-22)
(0.940004 -0.00965793 9.16121e-23)
(0.943995 -0.00914746 -5.06348e-23)
(0.947853 -0.00866903 -8.26692e-23)
(0.951576 -0.00820045 8.09805e-23)
(0.955149 -0.00773783 1.99592e-22)
(0.958554 -0.00730555 1.34863e-22)
(0.961811 -0.00693431 1.65008e-22)
(0.964959 -0.00663221 3.29849e-23)
(0.968053 -0.00636352 6.18529e-23)
(0.971093 -0.00606437 -1.64119e-23)
(0.974032 -0.00567306 -1.5562e-22)
(0.976757 -0.00516732 -5.75951e-23)
(0.979163 -0.00457133 8.87414e-23)
(0.981163 -0.00395221 -2.55483e-24)
(0.982763 -0.00338431 5.44575e-23)
(0.984009 -0.00294256 -1.1074e-22)
(0.985042 -0.00265427 -5.68965e-23)
(0.985971 -0.00254233 -4.10531e-23)
(0.986975 -0.00254029 -2.70552e-23)
(0.988069 -0.00264664 3.68707e-23)
(0.98942 -0.00270075 2.7127e-24)
(0.990811 -0.00279041 3.39293e-23)
(0.992518 -0.00263958 3.14215e-23)
(0.993917 -0.00259608 1.5499e-24)
(0.995774 -0.00213563 3.15149e-24)
(0.996683 -0.0020545 -8.92568e-24)
(0.99858 -0.00136249 -3.69177e-25)
(0.935447 -0.0111149 -1.74966e-23)
(0.939567 -0.010478 -2.25346e-22)
(0.943514 -0.00990018 -1.94818e-22)
(0.947311 -0.00937734 7.15522e-24)
(0.950982 -0.0088877 -2.59429e-22)
(0.954525 -0.00840785 -2.4129e-23)
(0.957924 -0.00793321 -3.14565e-22)
(0.961161 -0.007489 -2.78745e-23)
(0.964253 -0.00710757 -8.68023e-24)
(0.96724 -0.00679814 -1.74411e-22)
(0.970178 -0.00652415 -1.38228e-22)
(0.973069 -0.00621908 3.51971e-23)
(0.975867 -0.00581818 1.86631e-22)
(0.978456 -0.00529756 1.1781e-22)
(0.980732 -0.00468202 6.40793e-23)
(0.982605 -0.00404144 7.36518e-23)
(0.984078 -0.00345357 -6.6958e-24)
(0.9852 -0.00299662 -2.63827e-23)
(0.986109 -0.00269936 -2.60751e-25)
(0.986918 -0.00258539 2.20572e-24)
(0.987803 -0.00258605 3.55164e-23)
(0.988784 -0.00269928 -3.06715e-23)
(0.990024 -0.00275923 -2.90726e-23)
(0.991314 -0.00285582 -2.36696e-24)
(0.992921 -0.00270462 -2.4834e-23)
(0.994241 -0.00266325 3.41474e-24)
(0.996012 -0.00219234 -3.91201e-24)
(0.996876 -0.00211056 -1.33098e-24)
(0.998696 -0.00140053 -3.83424e-24)
(0.939367 -0.0113742 7.56798e-23)
(0.943281 -0.0107221 4.56201e-23)
(0.94703 -0.0101307 -3.20784e-23)
(0.950635 -0.00959601 -6.85717e-23)
(0.954121 -0.00909572 -9.9319e-23)
(0.957484 -0.00860516 1.41578e-23)
(0.960712 -0.00811902 3.87735e-23)
(0.963781 -0.00766325 -8.53382e-23)
(0.96671 -0.00727194 4.10154e-23)
(0.969537 -0.00695552 1.84657e-22)
(0.972319 -0.00667665 1.36701e-22)
(0.975061 -0.00636618 -4.46943e-23)
(0.977717 -0.00595623 -6.05397e-23)
(0.980171 -0.00542119 -2.54434e-22)
(0.982317 -0.00478645 -1.04106e-22)
(0.984062 -0.00412462 1.70124e-23)
(0.985409 -0.00351692 3.20561e-23)
(0.986406 -0.00304489 1.18129e-22)
(0.987191 -0.00273879 2.12186e-23)
(0.987878 -0.00262295 8.92695e-23)
(0.988643 -0.00262652 -2.22346e-23)