/*--------------------------------*- C++ -*----------------------------------*\
  =========                 |
  \\      /  F ield         | OpenFOAM: The Open Source CFD Toolbox
   \\    /   O peration     | Website:  https://openfoam.org
    \\  /    A nd           | Version:  7
     \\/     M anipulation  |
\*---------------------------------------------------------------------------*/
FoamFile
{
    version     2.0;
    format      ascii;
    class       volScalarField;
    location    "60";
    object      p;
}
// * * * * * * * * * * * * * * * * * * * * * * * * * * * * * * * * * * * * * //

dimensions      [0 2 -2 0 0 0 0];

internalField   nonuniform List<scalar> 
4575
(
-0.130188
-0.117866
-0.105242
-0.0930814
-0.0821146
-0.0729518
-0.065542
-0.0596273
-0.0545409
-0.0494997
-0.0438946
-0.0374623
-0.030368
-0.0230304
-0.0160638
-0.0100645
-0.00557104
-0.00282293
-0.0017615
-0.00187042
-0.00249391
-0.00289745
-0.0027091
-0.00175981
-0.127812
-0.11612
-0.104232
-0.0928619
-0.0826768
-0.0742076
-0.0673609
-0.0618113
-0.0568678
-0.0517578
-0.0459089
-0.0391163
-0.0315978
-0.0238163
-0.0164126
-0.00999798
-0.00512311
-0.00204806
-0.000743467
-0.000722288
-0.00133876
-0.00184597
-0.00183824
-0.00111281
-0.125415
-0.114356
-0.103212
-0.092639
-0.0832402
-0.0754657
-0.0691754
-0.0639796
-0.0591658
-0.0539757
-0.0478763
-0.0407222
-0.032784
-0.0245671
-0.0167381
-0.00992052
-0.00467475
-0.00127857
0.000269434
0.000426238
-0.000175254
-0.000779074
-0.000947945
-0.000446294
-0.123005
-0.112581
-0.102185
-0.0924141
-0.083804
-0.0767232
-0.0709809
-0.0661271
-0.0614302
-0.0561495
-0.049794
-0.0422784
-0.0339256
-0.0252829
-0.0170406
-0.0098327
-0.00422702
-0.000516249
0.00127466
0.00157215
0.000993572
0.000300605
-4.02906e-05
0.00023824
-0.12059
-0.110799
-0.101154
-0.0921887
-0.0843674
-0.0779775
-0.0727731
-0.0682492
-0.0636565
-0.0582758
-0.0516597
-0.0437836
-0.0350225
-0.0259638
-0.0173204
-0.0097353
-0.00378113
0.000237034
0.00226963
0.00271237
0.00216454
0.00139021
0.000882427
0.000939088
-0.118176
-0.109017
-0.100124
-0.091964
-0.0849296
-0.0792249
-0.074549
-0.0703416
-0.0658409
-0.0603507
-0.0534717
-0.0452373
-0.0360747
-0.0266105
-0.0175785
-0.00962934
-0.00333841
0.000979384
0.00325175
0.00384375
0.00333436
0.0024867
0.0018177
0.00165434
-0.115771
-0.107241
-0.0990966
-0.0917415
-0.0854899
-0.0804632
-0.0763042
-0.0724005
-0.0679801
-0.0623703
-0.0552288
-0.0466394
-0.037083
-0.0272239
-0.0178161
-0.00951604
-0.0029003
0.00170887
0.00421843
0.00496313
0.00449963
0.00358688
0.00276281
0.00238187
-0.113382
-0.105475
-0.0980771
-0.0915225
-0.0860475
-0.08169
-0.0780351
-0.0744221
-0.070071
-0.0643328
-0.0569304
-0.0479903
-0.0380483
-0.0278055
-0.0180346
-0.00939684
-0.00246833
0.00242356
0.0051671
0.00606735
0.00565691
0.00468743
0.0037149
0.0031194
-0.111018
-0.103726
-0.0970683
-0.0913082
-0.0866017
-0.0829025
-0.0797386
-0.0764032
-0.0721112
-0.0662417
-0.058576
-0.0492905
-0.038972
-0.028357
-0.0182357
-0.00927333
-0.00204415
0.00312149
0.00609522
0.00715327
0.00680271
0.00578494
0.00467094
0.0038645
-0.108683
-0.101999
-0.0960735
-0.0910996
-0.0871512
-0.0840988
-0.0814116
-0.0783411
-0.0740985
-0.0681004
-0.0601661
-0.0505412
-0.0398558
-0.0288802
-0.0184212
-0.00914727
-0.00162944
0.00380073
0.00700034
0.00821782
0.00793355
0.00687591
0.00562782
0.0046146
-0.100299
-0.0950958
-0.0908978
-0.0876949
-0.0852765
-0.0830514
-0.080233
-0.0760311
-0.0698975
-0.0617011
-0.0517437
-0.0407016
-0.0293772
-0.0185934
-0.00902054
-0.00122597
0.00445937
0.00788005
0.009258
0.00904601
0.00795685
0.00658232
0.00536704
-0.0986304
-0.0941379
-0.0907034
-0.0882324
-0.0864329
-0.0846553
-0.0820767
-0.0779076
-0.0716376
-0.0631816
-0.0528995
-0.0415113
-0.0298504
-0.0187542
-0.00889509
-0.000835513
0.00509553
0.0087321
0.0102709
0.0101367
0.00902424
0.00753117
0.0061191
-0.0969981
-0.0932025
-0.0905172
-0.0887624
-0.087566
-0.086221
-0.0838703
-0.079727
-0.0733196
-0.0646086
-0.0540103
-0.0422873
-0.0303021
-0.0189061
-0.00877296
-0.000459865
0.00570742
0.00955429
0.0112539
0.0112024
0.0100747
0.00847202
0.006868
-0.095406
-0.0922915
-0.0903391
-0.0892842
-0.0886739
-0.0877463
-0.0856122
-0.0814885
-0.0749437
-0.0659833
-0.0550781
-0.0430318
-0.0307348
-0.0190514
-0.00865617
-0.000100805
0.0062933
0.0103446
0.0122043
0.01224
0.0111047
0.00939925
0.00761098
-0.0938578
-0.0914067
-0.0901699
-0.0897962
-0.0897546
-0.0892292
-0.0873007
-0.0831914
-0.0765103
-0.0673068
-0.0561047
-0.0437471
-0.0311508
-0.0191923
-0.00854679
0.00023992
0.00685152
0.0111012
0.0131197
0.0132465
0.0121112
0.0103107
0.0083453
-0.0923564
-0.0905499
-0.0900095
-0.0902972
-0.0908064
-0.0906679
-0.0889349
-0.0848345
-0.0780201
-0.0685807
-0.0570922
-0.0444356
-0.0315526
-0.0193312
-0.00844682
0.00056062
0.00738053
0.0118223
0.013998
0.0142193
0.0130911
0.0112038
0.0090683
-0.090904
-0.0897252
-0.0898553
-0.0907861
-0.0918275
-0.0920608
-0.0905136
-0.0864152
-0.0794736
-0.0698064
-0.0580426
-0.0450996
-0.0319426
-0.0194703
-0.00835821
0.000859679
0.00787892
0.0125064
0.0148372
0.0151557
0.0140413
0.012076
0.00977741
-0.0895027
-0.0889312
-0.0897096
-0.0912616
-0.0928162
-0.0934064
-0.0920362
-0.0879312
-0.0808717
-0.0709854
-0.0589579
-0.0457413
-0.0323231
-0.0196117
-0.00828282
0.00113557
0.00834538
0.0131521
0.0156354
0.0160535
0.0149593
0.0129245
0.0104702
-0.0881592
-0.0881649
-0.0895718
-0.0917224
-0.093771
-0.0947035
-0.0935019
-0.089387
-0.0822153
-0.0721194
-0.0598401
-0.0463629
-0.0326962
-0.0197576
-0.0082224
0.0013869
0.00877876
0.0137582
0.0163913
0.0169107
0.0158425
0.0137466
0.0111442
-0.0868728
-0.0874296
-0.0894411
-0.0921672
-0.0946904
-0.095951
-0.0949103
-0.0908569
-0.0835059
-0.0732098
-0.0606911
-0.0469666
-0.0330641
-0.0199097
-0.00817858
0.00161236
0.00917803
0.0143238
0.0171035
0.0177254
0.0166889
0.0145398
0.0117974
-0.0856367
-0.0867268
-0.0893165
-0.0925948
-0.0955731
-0.0971476
-0.0962604
-0.0922033
-0.0847442
-0.0742583
-0.0615128
-0.0475542
-0.0334286
-0.0200699
-0.00815284
0.00181081
0.00954233
0.0148481
0.017771
0.0184963
0.0174964
0.0153019
0.0124277
-0.0844567
-0.0860554
-0.0891972
-0.0930039
-0.0964177
-0.0982927
-0.097552
-0.0934942
-0.0859313
-0.0752662
-0.0623069
-0.0481277
-0.0337916
-0.0202398
-0.00814652
0.00198126
0.00987096
0.0153304
0.0183931
0.0192221
0.0182634
0.0160312
0.0130335
-0.0833361
-0.0854147
-0.0890824
-0.0933932
-0.0972232
-0.0993854
-0.0987852
-0.0947299
-0.0870681
-0.0762351
-0.0630751
-0.0486887
-0.0341546
-0.0204207
-0.00816078
0.00212283
0.0101634
0.0157705
0.0189691
0.019902
0.0189884
0.016726
0.0136131
-0.0822734
-0.0848042
-0.0889708
-0.0937615
-0.0979884
-0.100425
-0.0999598
-0.0959086
-0.0881557
-0.0771664
-0.0638191
-0.0492388
-0.0345192
-0.020614
-0.00819662
0.00223486
0.0104191
0.0161679
0.0194988
0.0205351
0.0196706
0.017385
0.0141652
-0.0812678
-0.0842232
-0.0888616
-0.0941077
-0.0987124
-0.101411
-0.101076
-0.0970312
-0.0891951
-0.0780614
-0.0645402
-0.0497795
-0.0348865
-0.0208207
-0.00825488
0.0023168
0.0106381
0.0165228
0.0199821
0.0211212
0.020309
0.018007
0.0146887
-0.0803188
-0.0836711
-0.0887537
-0.0944307
-0.0993942
-0.102343
-0.102133
-0.0980982
-0.0901874
-0.0789215
-0.0652399
-0.0503121
-0.0352578
-0.0210417
-0.00833621
0.00236828
0.0108201
0.0168352
0.0204191
0.0216601
0.0209031
0.0185913
0.0151827
-0.0794259
-0.0831468
-0.0886458
-0.0947293
-0.100033
-0.103221
-0.103132
-0.0991103
-0.0911337
-0.0797478
-0.0659195
-0.0508378
-0.0356341
-0.0212779
-0.00844111
0.00238908
0.0109652
0.0171054
0.0208101
0.022152
0.0214526
0.0191373
0.0156466
-0.0785884
-0.0826493
-0.088537
-0.0950026
-0.100628
-0.104044
-0.104072
-0.100068
-0.0920349
-0.0805416
-0.06658
-0.0513576
-0.0360162
-0.0215298
-0.00856991
0.00237915
0.0110738
0.0173338
0.0211556
0.0225972
0.0219577
0.0196448
0.0160799
-0.0778052
-0.0821778
-0.0884263
-0.0952496
-0.101179
-0.104812
-0.104954
-0.100972
-0.0928921
-0.0813039
-0.0672227
-0.0518724
-0.0364048
-0.0217978
-0.0087228
0.00233856
0.011146
0.0175212
0.0214563
0.0229962
0.0224185
0.0201137
0.0164825
-0.0770754
-0.0817311
-0.0883125
-0.0954695
-0.101685
-0.105525
-0.105779
-0.101824
-0.0937062
-0.0820359
-0.0678485
-0.0523831
-0.0368004
-0.0220822
-0.00889981
0.00226754
0.0111824
0.0176681
0.0217131
0.0233498
0.0228355
0.0205441
0.0168544
-0.0763979
-0.0813082
-0.0881947
-0.0956615
-0.102145
-0.106183
-0.106547
-0.102623
-0.0944781
-0.0827385
-0.0684583
-0.0528904
-0.0372035
-0.0223832
-0.00910081
0.00216646
0.0111837
0.0177754
0.0219269
0.023659
0.0232094
0.0209365
0.0171957
-0.0757716
-0.0809081
-0.0880721
-0.0958249
-0.10256
-0.106787
-0.107258
-0.103371
-0.0952088
-0.0834126
-0.0690529
-0.0533947
-0.0376143
-0.0227008
-0.00932557
0.00203579
0.0111504
0.0178441
0.0220987
0.0239247
0.023541
0.0212914
0.0175067
-0.0751953
-0.0805299
-0.0879437
-0.095959
-0.102928
-0.107336
-0.107912
-0.104068
-0.0958991
-0.0840592
-0.0696331
-0.0538968
-0.0380334
-0.0230351
-0.00957394
0.00187597
0.0110834
0.0178751
0.0222298
0.0241481
0.0238313
0.0216096
0.0177881
-0.0746683
-0.0801725
-0.0878087
-0.0960629
-0.10325
-0.107831
-0.108509
-0.104715
-0.0965501
-0.0846794
-0.0702
-0.0543975
-0.038461
-0.0233863
-0.00984568
0.0016875
0.0109835
0.0178695
0.0223214
0.0243305
0.0240816
0.0218919
0.0180405
-0.0741894
-0.0798356
-0.087667
-0.0961371
-0.103526
-0.108271
-0.109052
-0.105313
-0.0971633
-0.0852741
-0.0707537
-0.0548963
-0.0388964
-0.0237529
-0.0101392
0.00147211
0.0108523
0.017829
0.0223753
0.0244739
0.0242934
0.0221393
0.0182647
-0.0737579
-0.0795198
-0.0875204
-0.0961839
-0.103758
-0.10866
-0.109541
-0.105865
-0.0977382
-0.0858415
-0.0712913
-0.0553892
-0.0393351
-0.0241308
-0.0104506
0.00123341
0.0106931
0.0177566
0.022394
0.0245801
0.0244683
0.0223531
0.0184616
-0.073372
-0.0792226
-0.0873655
-0.0961991
-0.103942
-0.108997
-0.10997
-0.106363
-0.0982702
-0.0863785
-0.0718115
-0.055877
-0.039779
-0.0245223
-0.0107824
0.000968822
0.0105036
0.0176503
0.0223761
0.0246482
0.0246057
0.0225346
0.0186313
-0.073029
-0.078928
-0.0871767
-0.0961511
-0.104043
-0.109264
-0.110317
-0.106797
-0.0987626
-0.0869016
-0.072341
-0.0563925
-0.0402633
-0.0249618
-0.0111656
0.000651842
0.0102624
0.0174936
0.0223097
0.0246706
0.0247012
0.0226799
0.0187747
-0.0727349
-0.0786393
-0.0869567
-0.0960446
-0.10407
-0.109442
-0.110618
-0.107213
-0.0992651
-0.0874617
-0.0729279
-0.0569775
-0.0408219
-0.0254746
-0.0116178
0.000272208
0.00996556
0.0172886
0.0222019
0.0246579
0.0247667
0.0227823
0.0188992
-0.0725173
-0.0785099
-0.0869516
-0.096188
-0.10437
-0.109775
-0.111119
-0.107756
-0.0998177
-0.087997
-0.0734273
-0.0574305
-0.0412241
-0.0258241
-0.0119126
3.58519e-05
0.00979266
0.0171861
0.0221749
0.0247048
0.0248723
0.0228892
0.019018
-0.0784661
-0.0874628
-0.0972161
-0.105843
-0.111555
-0.112708
-0.10915
-0.100925
-0.0887897
-0.0739295
-0.0576977
-0.0413242
-0.025815
-0.0118332
0.000165029
0.00996066
0.0173951
0.0224317
0.0250198
0.0252441
0.0233326
0.0192815
-0.0792829
-0.0884173
-0.0981258
-0.106468
-0.111615
-0.112785
-0.109019
-0.100608
-0.0883717
-0.0735106
-0.0573681
-0.0411459
-0.0258123
-0.0120059
-0.000154171
0.00954014
0.0169272
0.0219622
0.0245763
0.0248163
0.0226855
0.0189013
-0.0803485
-0.089427
-0.0989377
-0.106989
-0.111848
-0.112602
-0.108537
-0.0999404
-0.0876545
-0.072875
-0.0569161
-0.0409376
-0.0258629
-0.0122955
-0.000636543
0.00892139
0.0162335
0.0212476
0.023885
0.0241703
0.0221418
0.0183358
-0.081526
-0.0903978
-0.0995765
-0.107206
-0.111665
-0.112
-0.107654
-0.0989262
-0.0866706
-0.072066
-0.056383
-0.0407294
-0.0259782
-0.0126986
-0.00126879
0.00812533
0.0153416
0.0203203
0.022976
0.0233162
0.0213849
0.0176117
-0.0827518
-0.091241
-0.0999192
-0.107004
-0.110977
-0.110892
-0.106302
-0.0975193
-0.0853952
-0.0710729
-0.0557656
-0.0405209
-0.0261596
-0.0132183
-0.00205608
0.00714531
0.0142445
0.0191738
0.021842
0.022242
0.0204178
0.016741
-0.0839441
-0.0918873
-0.0999232
-0.10637
-0.109794
-0.109295
-0.104509
-0.0957564
-0.0838651
-0.0699266
-0.0550846
-0.0403216
-0.0264066
-0.0138467
-0.00298446
0.00599949
0.0129633
0.0178315
0.0205094
0.0209804
0.0192864
0.0157529
-0.0850309
-0.0922852
-0.099577
-0.105311
-0.108153
-0.107263
-0.102339
-0.0936991
-0.0821325
-0.0686647
-0.0543618
-0.040139
-0.0267147
-0.0145695
-0.00403253
0.00471458
0.0115287
0.0163272
0.0190148
0.0195677
0.0180253
0.0146761
-0.0859624
-0.0924314
-0.0988914
-0.103864
-0.106116
-0.104868
-0.0998666
-0.0914158
-0.0802518
-0.0673243
-0.0536169
-0.0399774
-0.0270763
-0.0153701
-0.00517726
0.00331829
0.00997165
0.014694
0.0173915
0.0180349
0.0166633
0.0135342
-0.0867086
-0.0923237
-0.0979043
-0.102096
-0.103766
-0.102202
-0.0971787
-0.08898
-0.0782783
-0.0659408
-0.0528673
-0.0398395
-0.0274824
-0.0162312
-0.00639549
0.00183791
0.00832233
0.0129635
0.0156707
0.0164114
0.0152259
0.0123453
-0.0872619
-0.0919902
-0.0966757
-0.100089
-0.101202
-0.099361
-0.0943648
-0.0864647
-0.0762647
-0.0645468
-0.0521279
-0.0397259
-0.0279234
-0.017136
-0.00766498
0.000299367
0.00660905
0.0111653
0.0138815
0.0147242
0.0137352
0.0111236
-0.0876316
-0.0914736
-0.0952763
-0.097935
-0.0985225
-0.0964435
-0.0915098
-0.0839371
-0.074258
-0.0631704
-0.0514108
-0.0396365
-0.0283901
-0.0180685
-0.00896539
-0.00127381
0.00485746
0.00932619
0.0120504
0.0129969
0.0122103
0.00988029
-0.087837
-0.0908213
-0.0937767
-0.0957197
-0.0958196
-0.0935353
-0.0886873
-0.0814537
-0.072297
-0.0618339
-0.050725
-0.0395702
-0.0288738
-0.0190148
-0.010279
-0.00286117
0.00308979
0.00746927
0.0102
0.01125
0.0106671
0.00862424
-0.0879009
-0.0900771
-0.0922382
-0.0935149
-0.0931672
-0.090705
-0.0859549
-0.0790581
-0.070411
-0.0605542
-0.050077
-0.0395255
-0.0293672
-0.0199634
-0.0115911
-0.00444569
0.00132461
0.0056138
0.00834927
0.00950062
0.00911921
0.0073626
-0.0878448
-0.089277
-0.0907076
-0.0913737
-0.0906193
-0.0880017
-0.0833529
-0.0767806
-0.0686202
-0.0593425
-0.0494709
-0.0395006
-0.0298642
-0.0209048
-0.0128898
-0.00601366
-0.000423168
0.00377528
0.00651345
0.00776279
0.0075775
0.00610131
-0.0876867
-0.0884463
-0.0892163
-0.0893301
-0.0882093
-0.0854552
-0.0809058
-0.0746393
-0.0669366
-0.0582055
-0.0489086
-0.0394939
-0.0303602
-0.0218319
-0.0141659
-0.00755445
-0.00214188
0.00196584
0.00470448
0.00604735
0.00604804
0.0048454
-0.0874402
-0.0876011
-0.0877816
-0.087402
-0.0859539
-0.0830801
-0.0786251
-0.0726426
-0.0653659
-0.057146
-0.0483908
-0.0395039
-0.0308516
-0.0227392
-0.0154127
-0.00906004
-0.0038227
0.000194664
0.00293143
0.00436277
0.004543
0.0035993
-0.0871148
-0.0867499
-0.0864107
-0.0855947
-0.0838571
-0.0808788
-0.0765126
-0.0707917
-0.0639086
-0.0561642
-0.0479169
-0.0395289
-0.0313356
-0.0236231
-0.0166251
-0.0105246
-0.00545914
-0.00153146
0.00120099
0.00271525
0.00306477
0.00236657
-0.0867175
-0.085896
-0.0851034
-0.0839056
-0.0819145
-0.0788465
-0.0745636
-0.0690829
-0.0625622
-0.0552585
-0.0474855
-0.0395675
-0.0318104
-0.0244807
-0.0177996
-0.0119438
-0.0070465
-0.00320763
-0.000481949
0.00110926
0.00161738
0.00115024
-0.0862532
-0.0850397
-0.0838556
-0.082327
-0.0801166
-0.0769736
-0.0727695
-0.0675096
-0.061322
-0.0544259
-0.047095
-0.0396185
-0.0322746
-0.0253103
-0.018934
-0.013315
-0.00858147
-0.00483035
-0.00211393
-0.000451974
0.000203948
-4.6951e-05
-0.0857256
-0.0841796
-0.0826611
-0.0808493
-0.078452
-0.0752483
-0.07112
-0.0660634
-0.0601822
-0.0536627
-0.046743
-0.0396806
-0.032727
-0.0261106
-0.0200265
-0.0146359
-0.0100618
-0.00639726
-0.00369255
-0.00196618
-0.00117322
-0.00122269
-0.0851383
-0.0833139
-0.0815133
-0.0794622
-0.0769084
-0.0736581
-0.0696037
-0.0647353
-0.0591363
-0.0529647
-0.0464273
-0.0397524
-0.0331669
-0.0268809
-0.0210763
-0.0159055
-0.0114859
-0.00790677
-0.0052162
-0.00343177
-0.00251245
-0.00237506
-0.0844946
-0.0824408
-0.0804058
-0.0781556
-0.0754736
-0.0721906
-0.0682095
-0.0635161
-0.0581777
-0.0523277
-0.0461453
-0.0398326
-0.0335937
-0.0276208
-0.0220827
-0.017123
-0.0128531
-0.0093579
-0.00668388
-0.00484768
-0.00381246
-0.00350245
-0.0837981
-0.0815591
-0.0793326
-0.0769202
-0.0741362
-0.0708339
-0.0669263
-0.0623969
-0.0572996
-0.051747
-0.0458945
-0.03992
-0.0340067
-0.0283299
-0.0230456
-0.0182881
-0.0141628
-0.0107502
-0.00809501
-0.00621324
-0.00507229
-0.00460344
-0.0830524
-0.0806677
-0.0782886
-0.0757473
-0.0728856
-0.0695767
-0.0657437
-0.0613689
-0.0564954
-0.0512184
-0.0456721
-0.0400131
-0.0344055
-0.0290082
-0.0239649
-0.0194008
-0.015415
-0.0120835
-0.00944942
-0.0075281
-0.00629126
-0.00567683
-0.0822613
-0.0797661
-0.0772692
-0.0746292
-0.071712
-0.0684088
-0.0646518
-0.0604236
-0.0557586
-0.0507373
-0.0454755
-0.0401108
-0.0347897
-0.0296557
-0.0248411
-0.0204615
-0.0166101
-0.0133582
-0.0107472
-0.0087922
-0.00746891
-0.00672162
-0.0814285
-0.0788543
-0.0762706
-0.0735592
-0.0706067
-0.0673204
-0.0636415
-0.0595531
-0.055083
-0.0502993
-0.0453019
-0.0402117
-0.0351587
-0.0302727
-0.0256745
-0.0214707
-0.0177486
-0.0145746
-0.0119888
-0.0100057
-0.00860499
-0.00773694
-0.0805582
-0.0779326
-0.0752896
-0.072531
-0.0695617
-0.066303
-0.0627042
-0.0587499
-0.0544627
-0.0499003
-0.0451489
-0.0403143
-0.0355123
-0.0308595
-0.0264658
-0.0224293
-0.0188312
-0.0157336
-0.0131747
-0.0111688
-0.0096994
-0.0087221
-0.0796541
-0.0770014
-0.0743237
-0.0715395
-0.0685697
-0.0653483
-0.0618319
-0.058007
-0.053892
-0.049536
-0.0450137
-0.0404175
-0.0358502
-0.0314162
-0.0272157
-0.0233382
-0.0198591
-0.0168361
-0.0143058
-0.0122822
-0.0107522
-0.00967656
-0.0787204
-0.0760617
-0.0733705
-0.0705799
-0.0676245
-0.0644491
-0.0610174
-0.0573176
-0.0533655
-0.0492026
-0.0448938
-0.0405199
-0.036172
-0.0319435
-0.027925
-0.0241984
-0.0208333
-0.0178832
-0.0153831
-0.0133465
-0.0117636
-0.0105999
-0.0777609
-0.0751147
-0.0724286
-0.0696484
-0.0667203
-0.0635989
-0.060254
-0.0566759
-0.052878
-0.0488962
-0.0447868
-0.0406203
-0.0364775
-0.0324416
-0.0285948
-0.0250112
-0.0217553
-0.0188763
-0.0164076
-0.0143625
-0.0127339
-0.0114918
-0.0767795
-0.0741615
-0.0714967
-0.0687414
-0.0658521
-0.0627917
-0.0595356
-0.056076
-0.052425
-0.0486135
-0.0446903
-0.0407175
-0.0367664
-0.0329112
-0.029226
-0.025778
-0.0226264
-0.0198167
-0.0173807
-0.0153312
-0.0136636
-0.0123521
-0.0757802
-0.0732037
-0.070574
-0.0678562
-0.0650157
-0.0620223
-0.0588567
-0.055513
-0.052002
-0.0483509
-0.0446023
-0.0408105
-0.0370387
-0.0333528
-0.0298197
-0.0265
-0.0234482
-0.020706
-0.0183036
-0.0162534
-0.0145532
-0.0131807
-0.0747667
-0.0722429
-0.06966
-0.0669905
-0.0642071
-0.0612861
-0.0582124
-0.054982
-0.0516051
-0.0481055
-0.0445207
-0.0408982
-0.0372941
-0.0337671
-0.030377
-0.0271788
-0.0242223
-0.0215458
-0.0191777
-0.0171304
-0.0154034
-0.0139777
-0.0737429
-0.071281
-0.0687545
-0.0661423
-0.0634233
-0.0605791
-0.0575985
-0.0544791
-0.0512307
-0.0478744
-0.0444435
-0.0409797
-0.0375326
-0.0341545
-0.030899
-0.0278158
-0.0249503
-0.0223376
-0.0200046
-0.0179632
-0.0162147
-0.0147431
-0.0727122
-0.0703198
-0.0678577
-0.0653104
-0.0626617
-0.0598978
-0.0570109
-0.0540003
-0.0508754
-0.0476552
-0.0443692
-0.0410542
-0.0377543
-0.0345157
-0.031387
-0.0284125
-0.0256339
-0.0230832
-0.0207857
-0.0187531
-0.0169879
-0.0154771
-0.0716784
-0.0693613
-0.0669701
-0.0644935
-0.0619199
-0.0592393
-0.0564465
-0.0535425
-0.0505364
-0.0474455
-0.0442961
-0.0411209
-0.037959
-0.0348516
-0.0318421
-0.0289705
-0.0262748
-0.0237842
-0.0215226
-0.0195012
-0.0177239
-0.0161799
-0.0148518
-0.0706448
-0.0684076
-0.0660923
-0.0636913
-0.0611964
-0.0586011
-0.0559025
-0.0531028
-0.0502111
-0.0472434
-0.0442231
-0.0411793
-0.0381469
-0.0351626
-0.0322654
-0.0294912
-0.0268746
-0.0244423
-0.0222168
-0.0202089
-0.0184234
-0.0168518
-0.0154801
-0.0696151
-0.0674609
-0.0652252
-0.0629032
-0.0604899
-0.0579813
-0.0553765
-0.0526789
-0.0498975
-0.0470471
-0.0441489
-0.0412289
-0.0383183
-0.0354497
-0.0326582
-0.0299761
-0.0274349
-0.0250592
-0.0228697
-0.0208772
-0.0190873
-0.0174932
-0.016084
-0.0685925
-0.0665234
-0.0643699
-0.0621295
-0.0597996
-0.0573783
-0.0548666
-0.0522687
-0.0495937
-0.0468552
-0.0440727
-0.0412693
-0.0384732
-0.0357135
-0.0330216
-0.0304268
-0.0279576
-0.0256364
-0.0234831
-0.0215076
-0.0197164
-0.0181044
-0.0166633
-0.0675804
-0.0655975
-0.0635277
-0.0613703
-0.0591248
-0.0567911
-0.0543714
-0.0518707
-0.0492982
-0.0466665
-0.0439937
-0.0413005
-0.0386121
-0.0359548
-0.0333568
-0.0308445
-0.028444
-0.0261757
-0.0240582
-0.0221012
-0.0203116
-0.0186858
-0.0172178
-0.066582
-0.0646854
-0.0627
-0.0606264
-0.0584656
-0.0562189
-0.0538898
-0.0514837
-0.0490099
-0.0464803
-0.0439114
-0.0413222
-0.0387354
-0.0361744
-0.0336651
-0.0312309
-0.0288958
-0.0266786
-0.0245965
-0.0226592
-0.0208737
-0.0192378
-0.0177475
-0.0656005
-0.0637898
-0.0618885
-0.0598985
-0.057822
-0.0556613
-0.053421
-0.0511068
-0.048728
-0.0462958
-0.0438256
-0.0413346
-0.0388435
-0.0363733
-0.0339475
-0.0315873
-0.0293145
-0.0271466
-0.0250995
-0.0231827
-0.0214035
-0.0197608
-0.0182523
-0.0646392
-0.062913
-0.061095
-0.0591878
-0.0571945
-0.0551185
-0.0529648
-0.0507396
-0.0484519
-0.0461127
-0.0437361
-0.0413379
-0.0389369
-0.0365523
-0.0342052
-0.031915
-0.0297017
-0.0275811
-0.0255686
-0.0236729
-0.0219019
-0.0202553
-0.0187322
-0.0637012
-0.0620576
-0.0603213
-0.0584955
-0.0565839
-0.0545906
-0.052521
-0.0503817
-0.0481815
-0.0459309
-0.043643
-0.0413325
-0.0390165
-0.0367124
-0.0344395
-0.0322154
-0.0300586
-0.0279836
-0.0260049
-0.0241309
-0.0223696
-0.0207216
-0.0191872
-0.0627896
-0.0612263
-0.0595696
-0.0578232
-0.0559912
-0.0540783
-0.0520901
-0.0500334
-0.0479169
-0.0457505
-0.0435466
-0.0413188
-0.0390828
-0.0368545
-0.0346515
-0.0324899
-0.0303868
-0.0283555
-0.0264098
-0.0245578
-0.0228075
-0.0211602
-0.0196175
-0.0619076
-0.0604217
-0.058842
-0.0571725
-0.0554177
-0.0535823
-0.0516725
-0.049695
-0.0476582
-0.0455718
-0.0434474
-0.0412975
-0.0391367
-0.0369796
-0.0348424
-0.0327398
-0.0306875
-0.0286981
-0.0267844
-0.0249544
-0.0232162
-0.0215715
-0.0200229
-0.0610584
-0.0596467
-0.058141
-0.0565454
-0.0548647
-0.053104
-0.0512692
-0.0493672
-0.0474062
-0.0453954
-0.0433459
-0.0412693
-0.0391791
-0.0370888
-0.0350133
-0.0329662
-0.0309621
-0.0290126
-0.0271299
-0.0253218
-0.0235963
-0.0219558
-0.0204035
-0.0602452
-0.0589039
-0.0574688
-0.0559439
-0.0543341
-0.0526445
-0.0508812
-0.0490508
-0.0471615
-0.0452221
-0.043243
-0.0412351
-0.039211
-0.0371832
-0.0351655
-0.0331705
-0.0312117
-0.0293002
-0.0274474
-0.0256608
-0.0239486
-0.0223135
-0.0207594
-0.0594711
-0.0581965
-0.0568282
-0.0553703
-0.0538277
-0.0522055
-0.0505098
-0.0487471
-0.0469253
-0.0450528
-0.0431396
-0.0411958
-0.0392335
-0.0372639
-0.0353001
-0.0333538
-0.0314377
-0.029562
-0.0277377
-0.0259723
-0.0242736
-0.0226448
-0.0210904
-0.0587396
-0.0575274
-0.0562218
-0.054827
-0.0533476
-0.0517888
-0.0501566
-0.0484573
-0.0466986
-0.0448886
-0.0430368
-0.0411527
-0.0392475
-0.0373321
-0.0354184
-0.0335174
-0.0316411
-0.0297991
-0.028002
-0.0262568
-0.0245717
-0.02295
-0.0213966
-0.058054
-0.0568997
-0.0556526
-0.0543165
-0.0528961
-0.0513964
-0.0498233
-0.048183
-0.046483
-0.0447309
-0.0429358
-0.0411068
-0.0392544
-0.0373889
-0.0355214
-0.0336623
-0.0318229
-0.0300124
-0.0282409
-0.0265152
-0.0248435
-0.0232292
-0.0216778
-0.0574178
-0.0563168
-0.0551234
-0.0538415
-0.0524756
-0.0510305
-0.0495119
-0.047926
-0.0462799
-0.0445809
-0.0428379
-0.0410594
-0.0392554
-0.0374354
-0.0356103
-0.0337897
-0.0319843
-0.0302029
-0.0284552
-0.026748
-0.0250891
-0.0234826
-0.0219338
-0.0568347
-0.0557821
-0.0546376
-0.0534051
-0.0520888
-0.0506934
-0.0492246
-0.0476881
-0.046091
-0.0444404
-0.0427446
-0.0410118
-0.0392516
-0.037473
-0.0356863
-0.0339005
-0.0321261
-0.0303713
-0.0286455
-0.0269555
-0.0253089
-0.02371
-0.0221644
-0.0563085
-0.0552991
-0.0541985
-0.0530102
-0.0517384
-0.0503877
-0.0489635
-0.0474714
-0.0459183
-0.0443109
-0.0426573
-0.0409654
-0.0392443
-0.0375027
-0.0357503
-0.0339958
-0.0322491
-0.0305182
-0.0288124
-0.027138
-0.025503
-0.0239114
-0.0223692
-0.0558431
-0.0548716
-0.0538095
-0.0526602
-0.0514276
-0.0501162
-0.0487312
-0.0472782
-0.0457636
-0.0441943
-0.0425777
-0.0409217
-0.0392349
-0.0375256
-0.0358033
-0.0340762
-0.032354
-0.0306443
-0.0289562
-0.0272959
-0.0256712
-0.0240865
-0.0225478
-0.0554428
-0.0545037
-0.0534745
-0.0523584
-0.0511594
-0.0498816
-0.0485302
-0.0471107
-0.0456292
-0.0440923
-0.0425074
-0.040882
-0.0392245
-0.0375429
-0.0358462
-0.0341427
-0.0324414
-0.0307499
-0.029077
-0.0274289
-0.0258134
-0.0242349
-0.0226995
-0.0551121
-0.0541996
-0.0531974
-0.0521087
-0.0509373
-0.0496872
-0.0483634
-0.0469713
-0.045517
-0.0440068
-0.042448
-0.0408477
-0.0392143
-0.0375554
-0.0358799
-0.0341956
-0.0325116
-0.0308351
-0.0291749
-0.027537
-0.0259292
-0.0243559
-0.0228234
-0.0548559
-0.0539638
-0.0529825
-0.0519149
-0.0507648
-0.049536
-0.0482337
-0.0468628
-0.0454295
-0.0439399
-0.0424011
-0.0408203
-0.0392054
-0.037564
-0.0359048
-0.0342354
-0.0325647
-0.0308999
-0.0292495
-0.0276196
-0.0260178
-0.0244487
-0.0229187
-0.0546793
-0.0538013
-0.0528343
-0.0517812
-0.0506457
-0.0494317
-0.048144
-0.0467877
-0.0453688
-0.0438933
-0.0423684
-0.0408009
-0.0391987
-0.0375694
-0.0359214
-0.0342622
-0.0326007
-0.030944
-0.0293003
-0.027676
-0.0260784
-0.0245123
-0.0229839
-0.0545879
-0.0537171
-0.0527575
-0.051712
-0.050584
-0.0493776
-0.0480975
-0.0467488
-0.0453373
-0.0438692
-0.0423513
-0.0407907
-0.0391951
-0.037572
-0.0359298
-0.0342759
-0.0326192
-0.0309666
-0.0293264
-0.0277049
-0.0261095
-0.024545
-0.0230175
-0.0556588
-0.0548413
-0.0539307
-0.0529304
-0.0518444
-0.0506775
-0.0494348
-0.0481223
-0.0467463
-0.0453133
-0.0438303
-0.0423044
-0.0407425
-0.0391522
-0.03754
-0.0359132
-0.0342781
-0.0326415
-0.0310089
-0.029387
-0.0277802
-0.026195
-0.024635
-0.0557598
-0.0549341
-0.054015
-0.053006
-0.0519112
-0.0507355
-0.0494842
-0.0481633
-0.0467791
-0.0453384
-0.0438479
-0.0423152
-0.0407471
-0.039151
-0.0375337
-0.0359024
-0.0342632
-0.0326232
-0.0309876
-0.0293631
-0.0277543
-0.0261673
-0.0246059
-0.0559552
-0.0551134
-0.0541778
-0.053152
-0.0520401
-0.0508474
-0.0495793
-0.0482421
-0.046842
-0.0453862
-0.0438816
-0.0423357
-0.0407554
-0.0391483
-0.037521
-0.035881
-0.0342341
-0.0325875
-0.0309462
-0.0293169
-0.027704
-0.0261137
-0.0245496
-0.056239
-0.0553738
-0.054414
-0.0533634
-0.0522267
-0.0510092
-0.0497165
-0.0483553
-0.0469322
-0.0454545
-0.0439293
-0.0423642
-0.0407663
-0.0391432
-0.0375017
-0.035849
-0.0341912
-0.0325349
-0.0308855
-0.0292493
-0.0276307
-0.0260356
-0.0244677
-0.0566059
-0.05571
-0.0547186
-0.0536358
-0.0524666
-0.0512167
-0.0498921
-0.0484998
-0.0470468
-0.0455406
-0.0439887
-0.0423988
-0.0407783
-0.0391348
-0.037475
-0.0358062
-0.0341343
-0.032466
-0.0308062
-0.0291613
-0.0275353
-0.0259343
-0.0243615
-0.057051
-0.0561174
-0.0550871
-0.0539647
-0.0527556
-0.051466
-0.0501024
-0.0486721
-0.0471826
-0.0456418
-0.0440574
-0.0424376
-0.0407897
-0.0391216
-0.03744
-0.0357519
-0.0340633
-0.0323807
-0.0307087
-0.0290535
-0.0274189
-0.0258107
-0.0242322
-0.0575697
-0.0565915
-0.0555152
-0.054346
-0.0530898
-0.0517533
-0.0503436
-0.0488687
-0.0473363
-0.0457551
-0.0441329
-0.0424783
-0.0407988
-0.0391023
-0.0373955
-0.0356855
-0.0339779
-0.032279
-0.0305932
-0.0289264
-0.0272821
-0.025666
-0.024081
-0.0581581
-0.0571282
-0.0559988
-0.0547756
-0.0534651
-0.0520747
-0.0506122
-0.0490861
-0.0475049
-0.0458775
-0.0442124
-0.0425184
-0.0408033
-0.0390751
-0.0373404
-0.0356061
-0.0338776
-0.0321609
-0.03046
-0.0287805
-0.0271257
-0.0255009
-0.0239087
-0.0588124
-0.0577239
-0.0565343
-0.0552499
-0.0538779
-0.0524266
-0.0509045
-0.0493209
-0.0476848
-0.0460059
-0.0442931
-0.0425556
-0.0408014
-0.0390384
-0.0372733
-0.0355128
-0.0337618
-0.0320261
-0.0303092
-0.0286164
-0.0269503
-0.0253162