/*--------------------------------*- C++ -*----------------------------------*\
  =========                 |
  \\      /  F ield         | OpenFOAM: The Open Source CFD Toolbox
   \\    /   O peration     | Website:  https://openfoam.org
    \\  /    A nd           | Version:  7
     \\/     M anipulation  |
\*---------------------------------------------------------------------------*/
FoamFile
{
    version     2.0;
    format      ascii;
    class       surfaceScalarField;
    location    "60";
    object      phi;
}
// * * * * * * * * * * * * * * * * * * * * * * * * * * * * * * * * * * * * * //

dimensions      [0 3 -1 0 0 0 0];

internalField   nonuniform List<scalar> 
8924
(
-0.000228466
0.00186155
-0.00190011
-0.000192928
0.00256919
-0.00260473
-0.000159837
0.00314819
-0.00318128
-0.000126573
0.00354514
-0.0035784
-8.88862e-05
0.00371254
-0.00375022
-4.22039e-05
0.00361286
-0.00365954
1.65432e-05
0.00322887
-0.00328762
8.74278e-05
0.00257414
-0.00264502
0.000167238
0.00170022
-0.00178003
0.000250214
0.000687865
-0.000770841
0.000329579
-0.000366836
0.000287471
0.000399017
-0.00137303
0.00130359
0.000453848
-0.00225924
0.0022044
0.000492051
-0.00297927
0.00294106
0.000515148
-0.00350704
0.00348394
0.000528667
-0.00382397
0.00381046
0.000541282
-0.00390426
0.00389164
0.000562226
-0.00371684
0.00369589
0.000597587
-0.00324106
0.0032057
0.000647907
-0.002497
0.00244668
0.000708173
-0.00155423
0.00149397
0.000770445
-0.00051876
0.000456489
0.000826516
0.000496859
-0.00055293
0.00140533
-0.00144921
-0.000239674
0.00182222
-0.000202474
0.00253199
-0.000166748
0.00311246
-0.000129888
0.00350828
-8.78244e-05
0.00367047
-3.63515e-05
0.00356139
2.71035e-05
0.00316542
0.000102132
0.00249911
0.000185192
0.00161716
0.000270403
0.000602654
0.000351036
-0.00044747
0.000420887
-0.00144288
0.000475339
-0.00231369
0.000512313
-0.00301624
0.000533143
-0.00352787
0.00054317
-0.003834
0.00055109
-0.00391218
0.000566524
-0.00373227
0.00059626
-0.00327079
0.000641584
-0.00254233
0.000697983
-0.00161063
0.000757674
-0.000578452
0.000812365
0.000442168
0.00136177
-0.000248203
0.00178208
-0.000209292
0.00249308
-0.000170892
0.00307406
-0.000130435
0.00346782
-8.40634e-05
0.0036241
-2.79558e-05
0.00350528
3.99683e-05
0.00309749
0.000118852
0.00242023
0.000204866
0.00153115
0.000292051
0.000515469
0.000373757
-0.000529175
0.000443912
-0.00151304
0.000497979
-0.00236776
0.000533816
-0.00305208
0.000552553
-0.00354661
0.000559291
-0.00384074
0.000562678
-0.00391557
0.000572659
-0.00374225
0.0005967
-0.00329483
0.000636858
-0.00258248
0.000689177
-0.00166295
0.000746092
-0.000635367
0.00079926
0.000389
0.00131861
-0.000254002
0.0017411
-0.000213351
0.00245243
-0.000172262
0.00303297
-0.000128241
0.0034238
-7.76652e-05
0.00357353
-1.71097e-05
0.00344472
5.50154e-05
0.00302537
0.000137449
0.00233779
0.000226112
0.00144249
0.000315006
0.000426575
0.000397589
-0.000611758
0.000467941
-0.00158339
0.000521617
-0.00242143
0.000556417
-0.00308688
0.000573248
-0.00356344
0.000576925
-0.00384442
0.00057598
-0.00391462
0.000580611
-0.00374688
0.000598928
-0.00331315
0.000633779
-0.00261733
0.000681825
-0.001711
0.000735776
-0.000689319
0.000787284
0.000337492
0.00127591
-0.000257045
0.00169927
-0.000214641
0.00241002
-0.000170875
0.0029892
-0.000123352
0.00337628
-6.87098e-05
0.00351888
-3.89582e-06
0.00337991
7.21125e-05
0.00294936
0.000157776
0.00225213
0.000248778
0.00135148
0.000339116
0.000336237
0.00042238
-0.000695022
0.000492822
-0.00165383
0.000546102
-0.00247471
0.000579966
-0.00312074
0.000595088
-0.00357856
0.000595958
-0.00384529
0.000590917
-0.00390958
0.000590342
-0.00374631
0.000602948
-0.00332576
0.000632388
-0.00264677
0.000675988
-0.0017546
0.000726799
-0.000740129
0.00077651
0.000287781
0.00123376
-0.000257323
0.00165659
-0.000213172
0.00236587
-0.000166766
0.0029428
-0.000115834
0.00332534
-5.72934e-05
0.00346034
1.14755e-05
0.00331114
9.11188e-05
0.00286972
0.000179685
0.00216356
0.000272713
0.00125846
0.00036423
0.00024472
0.000447981
-0.000778774
0.000518406
-0.00172426
0.000571281
-0.00252759
0.000604311
-0.00315377
0.000617928
-0.00359218
0.000616261
-0.00384362
0.000607393
-0.00390071
0.000601802
-0.00374072
0.000608755
-0.00333271
0.000632713
-0.00267073
0.000671719
-0.0017936
0.000719225
-0.000787636
0.000767008
0.000239998
0.00119221
-0.00025485
0.00161305
-0.000208975
0.00232
-0.000159991
0.00289381
-0.000105771
0.00327112
-4.35263e-05
0.0033981
2.89403e-05
0.00323868
0.000111887
0.00278677
0.000203021
0.00207243
0.000297761
0.00116372
0.000390197
0.000152284
0.000474244
-0.000862821
0.000544545
-0.00179456
0.000597006
-0.00258005
0.0006293
-0.00318606
0.000641619
-0.0036045
0.000637701
-0.0038397
0.000625304
-0.00388832
0.000614926
-0.00373034
0.000616328
-0.00333411
0.000634769
-0.00268917
0.000669059
-0.00182789
0.000713111
-0.000831688
0.000758839
0.00019427
0.00115135
-0.00024966
0.00156867
-0.000202103
0.00227244
-0.000150624
0.00284234
-9.32627e-05
0.00321376
-2.75301e-05
0.00333237
4.83507e-05
0.00316279
0.000134265
0.00270085
0.00022763
0.00197906
0.000323773
0.00106757
0.000416869
5.91883e-05
0.000501026
-0.000946977
0.000571097
-0.00186463
0.00062313
-0.00263208
0.000654781
-0.00321772
0.000666008
-0.00361572
0.000660133
-0.00383383
0.000644532
-0.00387271
0.000629635
-0.00371544
0.000625629
-0.00333011
0.000638562
-0.00270211
0.00066804
-0.00185737
0.000708504
-0.000872151
0.000752057
0.000150717
0.00111127
-0.000241806
0.00152348
-0.000192625
0.00222326
-0.000138757
0.00278847
-7.84225e-05
0.00315343
-9.4242e-06
0.00326337
6.95544e-05
0.00308382
0.0001581
0.00261231
0.000253359
0.00188381
0.000350602
0.000970329
0.000444105
-3.43146e-05
0.00052819
-0.00103106
0.000597925
-0.00193437
0.000649512
-0.00268367
0.000680607
-0.00324881
0.000690942
-0.00362606
0.000683411
-0.00382629
0.000664948
-0.00385425
0.000645835
-0.00369633
0.000636611
-0.00332088
0.00064408
-0.00270957
0.000668682
-0.00188197
0.000705441
-0.00090891
0.000746706
0.000109453
0.00107204
-0.00023136
-0.000180627
0.00217252
-0.000124494
0.00273234
-6.1376e-05
0.00309031
1.0605e-05
0.00319139
9.23981e-05
0.00300202
0.000183235
0.00252147
0.000280057
0.00178698
0.000378101
0.000872284
0.000471772
-0.000127985
0.000555606
-0.0011149
0.000624899
-0.00200366
0.000676017
-0.00273478
0.000706633
-0.00327943
0.000716269
-0.0036357
0.000707381
-0.00381741
0.000686417
-0.00383329
0.000663423
-0.00367334
0.00064921
-0.00330667
0.000651301
-0.00271167
0.000670993
-0.00190167
0.00070395
-0.000941866
0.00074282
7.0582e-05
0.00103374
-0.000166212
0.00212033
-0.000107956
0.00267408
-4.22589e-05
0.00302461
3.24265e-05
0.0031167
0.000116727
0.00291772
0.000209518
0.00242868
0.000307576
0.00168893
0.000406134
0.000773725
0.000499739
-0.00022159
0.000583151
-0.00119831
0.000651897
-0.00207241
0.000702519
-0.00278541
0.000732722
-0.00330963
0.00074184
-0.00364481
0.000731892
-0.00380746
0.000708795
-0.00381019
0.000682283
-0.00364682
0.000663348
-0.00328773
0.000660189
-0.00270851
0.000674969
-0.00191645
0.000704046
-0.000970944
0.000740427
3.42012e-05
0.000996461
-0.000149495
0.00206677
-8.92727e-05
0.00261386
-2.12143e-05
0.00295655
5.59071e-05
0.00303958
0.000142384
0.00283125
0.000236796
0.00233427
0.000335774
0.00158995
0.00043457
0.000674928
0.000527886
-0.000314906
0.00061071
-0.00128113
0.000678806
-0.0021405
0.000728898
-0.0028355
0.000758744
-0.00333948
0.000767511
-0.00365358
0.000756789
-0.00379674
0.000731934
-0.00378533
0.000702288
-0.00361718
0.000678937
-0.00326438
0.000670694
-0.00270026
0.000680594
-0.00192635
0.000705737
-0.000996086
0.000739542
3.96633e-07
0.000960279
-0.000130604
0.00201196
-6.85834e-05
0.00255184
1.61248e-06
0.00288636
8.08828e-05
0.00296031
0.000169216
0.00274291
0.000264922
0.00223856
0.000364514
0.00149036
0.000463285
0.000576158
0.000556098
-0.00040772
0.000638176
-0.00136321
0.00070552
-0.00220785
0.000755043
-0.00288502
0.000784576
-0.00336901
0.000793143
-0.00366215
0.000781921
-0.00378551
0.000755682
-0.00375909
0.000723305
-0.0035848
0.000695875
-0.00323695
0.000682754
-0.00268714
0.00068784
-0.00193143
0.000709016
-0.00101726
0.00074017
-3.07569e-05
0.000925277
-0.000109676
0.00195602
-4.60357e-05
0.0024882
2.60497e-05
0.00281427
0.000107196
0.00287916
0.00019707
0.00265304
0.000293753
0.00214188
0.000393667
0.00139044
0.000492161
0.000477664
0.00058427
-0.000499829
0.000665449
-0.00144439
0.000731941
-0.00227434
0.000780853
-0.00293393
0.000810104
-0.00339826
0.000818605
-0.00367065
0.000807142
-0.00377405
0.000779887
-0.00373184
0.000745194
-0.00355011
0.00071405
-0.00320581
0.000696293
-0.00266939
0.000696666
-0.00193181
0.000713867
-0.00103446
0.000742307
-5.91966e-05
0.000891533
-8.68565e-05
0.00189909
-2.17861e-05
0.00242313
5.19599e-05
0.00274053
0.000134692
0.00279643
0.000225797
0.00256193
0.000323152
0.00204453
0.00042311
0.00129048
0.000521088
0.000379686
0.000612302
-0.000591042
0.00069244
-0.00152452
0.000757981
-0.00233988
0.000806235
-0.00298219
0.000835223
-0.00342725
0.000843773
-0.0036792
0.000832307
-0.00376259
0.000804395
-0.00370393
0.000767806
-0.00351352
0.000733341
-0.00317134
0.000711226
-0.00264727
0.000707018
-0.0019276
0.000720262
-0.00104771
0.000745939
-8.48736e-05
0.000859124
-6.22972e-05
0.00184129
3.99413e-06
0.00235683
7.91809e-05
0.00266534
0.000163216
0.0027124
0.000255254
0.0024699
0.000352988
0.00194679
0.000452726
0.00119075
0.000549966
0.000282445
0.000640104
-0.00068118
0.000719063
-0.00160348
0.000783559
-0.00240438
0.000831105
-0.00302973
0.000859838
-0.00345598
0.000868533
-0.00368789
0.000857282
-0.00375134
0.000829055
-0.0036757
0.000790994
-0.00347546
0.000753617
-0.00313397
0.000727454
-0.00262111
0.000718834
-0.00191898
0.000728161
-0.00105703
0.000751041
-0.000107753
0.00082812
-3.61603e-05
0.00178279
3.12382e-05
0.00228944
0.000107557
0.00258902
0.00019262
0.00262733
0.0002853
0.00237721
0.000383137
0.00184895
0.000482406
0.00109148
0.000578699
0.000186152
0.00066759
-0.000770071
0.000745242
-0.00168114
0.000808602
-0.00246773
0.000855387
-0.00307652
0.000883862
-0.00348445
0.00089278
-0.00369681
0.000881937
-0.00374049
0.000853721
-0.00364749
0.000814605
-0.00343634
0.000774743
-0.00309411
0.000744869
-0.00259123
0.000732036
-0.00190614
0.000737517
-0.00106252
0.000757579
-0.000127815
0.000798589
-8.67667e-06
0.0017238
5.96901e-05
0.00222107
0.000136935
0.00251178
0.000222757
0.00254151
0.000315805
0.00228417
0.000413482
0.00175128
0.000512047
0.000992912
0.000607198
9.10013e-05
0.000694685
-0.000857558
0.000770908
-0.00175736
0.000833043
-0.00252987
0.000879012
-0.00312249
0.00090722
-0.00351266
0.000916419
-0.00370601
0.000906153
-0.00373023
0.000878251
-0.00361958
0.000838488
-0.00339658
0.000796575
-0.00305219
0.000763355
-0.00255801
0.00074654
-0.00188933
0.000748268
-0.00106424
0.000765509
-0.000145055
0.000770592
2.02785e-05
0.00166426
8.92249e-05
0.00215212
0.000167166
0.00243383
0.000253489
0.00245519
0.000346642
0.00219101
0.000443912
0.00165401
0.000541558
0.000895266
0.000635377
-2.81788e-06
0.000721316
-0.000943497
0.000795996
-0.00183204
0.000856823
-0.0025907
0.000901921
-0.00316759
0.000929841
-0.00354058
0.000939364
-0.00371553
0.000929819
-0.00372068
0.000902507
-0.00359227
0.000862494
-0.00335657
0.000818968
-0.00300867
0.000782786
-0.00252183
0.000762249
-0.00186879
0.000760346
-0.00106234
0.00077478
-0.00015949
0.000744182
5.03143e-05
0.00160421
0.000119693
0.00208274
0.000198104
0.00235542
0.000284682
0.00236861
0.000377692
0.002098
0.000474324
0.00155738
0.000570847
0.000798743
0.000663163
-9.51345e-05
0.000747418
-0.00102775
0.000820449
-0.00190507
0.000879888
-0.00265014
0.00092406
-0.00321176
0.000951667
-0.00356819
0.00096154
-0.00372541
0.000952835
-0.00371198
0.000926363
-0.0035658
0.000886475
-0.00331668
0.000841775
-0.00296397
0.000803033
-0.00248309
0.000779059
-0.00184482
0.000773672
-0.00105695
0.00078533
-0.000171148
0.000719403
8.12962e-05
0.00154414
0.000150947
0.00201309
0.000229611
0.00227676
0.000316209
0.00228201
0.000408844
0.00200537
0.000504622
0.0014616
0.00059983
0.000703536
0.000690489
-0.000185794
0.000772931
-0.00111019
0.000844213
-0.00197635
0.000902189
-0.00270811
0.000945382
-0.00325495
0.000972645
-0.00359545
0.000982879
-0.00373564
0.000975109
-0.00370421
0.000949698
-0.00354039
0.000910289
-0.00327727
0.000864847
-0.00291852
0.000823958
-0.0024422
0.000796857
-0.00181772
0.000788157
-0.00104825
0.000797091
-0.000180082
0.000696292
0.000113098
0.00148415
0.000182846
0.00194334
0.000261554
0.00219805
0.000347951
0.00219561
0.000439993
0.00191333
0.000534717
0.00136687
0.000628435
0.000609818
0.00071729
-0.000274649
0.000797798
-0.0011907
0.000867238
-0.00204579
0.000923683
-0.00276456
0.000965843
-0.00329711
0.000992729
-0.00362234
0.00100332
-0.00374623
0.000996561
-0.00369744
0.000972403
-0.00351623
0.0009338
-0.00323867
0.000888036
-0.00287276
0.000845421
-0.00239958
0.000815525
-0.00178782
0.000803708
-0.00103644
0.000809985
-0.00018636
0.000674872
0.000145581
0.00142434
0.000215255
0.00187367
0.000293807
0.0021195
0.000379795
0.00210963
0.000471041
0.00182208
0.000564525
0.00127339
0.000656591
0.000517751
0.000743504
-0.000361562
0.000821968
-0.00126917
0.000889482
-0.00211331
0.000944329
-0.00281941
0.000985409
-0.00333819
0.00101188
-0.00364881
0.00102282
-0.00375718
0.00101712
-0.00369174
0.000994376
-0.00349349
0.00095688
-0.00320117
0.000911198
-0.00282708
0.000867282
-0.00235567
0.000834938
-0.00175548
0.000820221
-0.00102172
0.00082393
-0.000190068
0.000655159
0.000178613
0.00136483
0.000248043
0.00180424
0.000326252
0.00204129
0.000411636
0.00202424
0.000501898
0.00173182
0.000593969
0.00118132
0.000684232
0.000427488
0.000769075
-0.000446405
0.000845393
-0.00134548
0.000910901
-0.00217881
0.000964094
-0.0028726
0.00100405
-0.00337814
0.00103007
-0.00367483
0.00104134
-0.00376845
0.00103672
-0.00368712
0.00101553
-0.00347229
0.000979408
-0.00316505
0.000934193
-0.00278186
0.000889396
-0.00231087
0.000854966
-0.00172105
0.000837589
-0.00100434
0.000838836
-0.000191315
0.000637152
0.000212065
0.00130575
0.000281092
0.00173521
0.00035878
0.0019636
0.000443378
0.00193964
0.000532481
0.00164272
0.000622979
0.00109082
0.000711297
0.00033917
0.000793952
-0.00052906
0.000868028
-0.00141956
0.00093146
-0.00224225
0.000982944
-0.00292408
0.00102173
-0.00341693
0.00104726
-0.00370036
0.00105884
-0.00378003
0.00105532
-0.00368361
0.00103578
-0.00345275
0.00100127
-0.00313054
0.000956885
-0.00273748
0.000911622
-0.00226561
0.000875478
-0.00168491
0.000855698
-0.000984563
0.000854608
-0.000190225
0.000620839
0.000245818
0.00124724
0.000314287
0.00166674
0.000391288
0.0018866
0.000474931
0.001856
0.000562713
0.00155493
0.000651489
0.00100205
0.00073773
0.000252929
0.000818085
-0.000609415
0.000889833
-0.00149131
0.000951123
-0.00230354
0.00100085
-0.00297381
0.00103843
-0.00345451
0.00106344
-0.00372537
0.00107529
-0.00379188
0.00107287
-0.00368119
0.00105506
-0.00343493
0.00102237
-0.00309785
0.000979147
-0.00269425
0.00093382
-0.00222028
0.000896339
-0.00164742
0.000874431
-0.000962655
0.000871148
-0.000186942
0.000606195
0.000279759
0.00118941
0.000347526
0.00159898
0.000423682
0.00181045
0.000506212
0.00177347
0.000592522
0.00146862
0.000679437
0.000915131
0.000763478
0.000168888
0.000841429
-0.000687366
0.000910768
-0.00156065
0.000969859
-0.00236263
0.00101779
-0.00302174
0.00105413
-0.00349084
0.00107858
-0.00374982
0.00109067
-0.00380397
0.00108934
-0.00367986
0.00107331
-0.0034189
0.00104261
-0.00306716
0.00100086
-0.00265249
0.000955854
-0.00217528
0.000917414
-0.00160899
0.000893667
-0.000938908
0.000888351
-0.000181626
0.000593178
0.000313785
0.00113238
0.000380712
0.00153205
0.000455878
0.00173528
0.000537149
0.0016922
0.000621846
0.00138393
0.000706768
0.000830208
0.000788492
8.71649e-05
0.000863942
-0.000762816
0.000930797
-0.0016275
0.000987638
-0.00241947
0.00103374
-0.00306784
0.00106881
-0.00352591
0.00109267
-0.00377369
0.00110496
-0.00381626
0.00110469
-0.0036796
0.00109048
-0.00340469
0.00106192
-0.0030386
0.0010219
-0.00261248
0.000977592
-0.00213097
0.00093857
-0.00156996
0.000913282
-0.00091362
0.000906112
-0.000174456
0.000581733
0.0003478
0.00107626
0.00041376
0.00146609
0.000487799
0.00166124
0.000567673
0.00161232
0.000650625
0.00130098
0.000733431
0.000747402
0.000812725
7.8709e-06
0.000885583
-0.000835674
0.000949889
-0.00169181
0.00100443
-0.00247401
0.00104867
-0.00311208
0.00108245
-0.00355969
0.0011057
-0.00379694
0.00111816
-0.00382872
0.00111892
-0.00368036
0.00110653
-0.0033923
0.00108021
-0.00301228
0.00104218
-0.00257445
0.000998908
-0.00208769
0.000959674
-0.00153073
0.000933154
-0.000887099
0.00092432
-0.000165622
0.00057179
0.000381718
0.00102115
0.000446592
0.00140121
0.000519377
0.00158846
0.000597726
0.00153397
0.000678807
0.0012199
0.000759378
0.00066683
0.000836137
-6.88877e-05
0.000906317
-0.000905854
0.000968011
-0.0017535
0.00102022
-0.00252622
0.00106258
-0.00315443
0.00109505
-0.00359216
0.00111766
-0.00381956
0.00113025
-0.00384131
0.001132
-0.0036821
0.00112143
-0.00338172
0.00109744
-0.00298829
0.0010616
-0.00253862
0.00101969
-0.00204578
0.000980599
-0.00149164
0.000953157
-0.000859657
0.000942867
-0.000155332
0.000563263
0.000415458
0.000967132
0.00047914
0.00133753
0.000550552
0.00151705
0.000627256
0.00145727
0.000706345
0.00114081
0.000784567
0.000588608
0.000858687
-0.000143008
0.000926108
-0.000973275
0.000985136
-0.00181253
0.00103498
-0.00257607
0.00107544
-0.00319489
0.00110659
-0.00362331
0.00112855
-0.00384152
0.00114123
-0.00385399
0.00114393
-0.0036848
0.00113515
-0.00337295
0.00111354
-0.00296668
0.00108008
-0.00250515
0.00103981
-0.00200551
0.00100122
-0.00145305
0.000973169
-0.000831609
0.00096164
-0.000143803
0.000556052
0.000448948
0.000914272
0.000511342
0.00127514
0.000581273
0.00144712
0.000656216
0.00138233
0.000733197
0.00106383
0.000808957
0.000512849
0.000880339
-0.00021439
0.000944924
-0.00103786
0.00100124
-0.00186884
0.0010487
-0.00262353
0.00108724
-0.00323343
0.00111706
-0.00365313
0.00113835
-0.00386281
0.00115111
-0.00386675
0.0011547
-0.00368839
0.00114768
-0.00336593
0.00112848
-0.00294748
0.00109753
-0.00247421
0.00105918
-0.00196716
0.00102141
-0.00141528
0.000993069
-0.000803265
0.000980527
-0.000131261
0.000550045
0.000482121
0.000862621
0.000543146
0.00121411
0.000611497
0.00137877
0.000684571
0.00130925
0.000759328
0.000989068
0.000832512
0.000439665
0.000901057
-0.000282935
0.000962734
-0.00109954
0.00101629
-0.0019224
0.00106134
-0.00266858
0.00109797
-0.00327006
0.00112646
-0.00368162
0.00114708
-0.00388342
0.00115987
-0.00387954
0.00116431
-0.00369283
0.00115901
-0.00336062
0.00114223
-0.0029307
0.00111391
-0.00244589
0.00107771
-0.00193096
0.00104107
-0.00137864
0.00101274
-0.000774934
0.00099942
-0.000117941
0.000545112
0.000514914
0.000812205
0.000574508
0.00115452
0.00064119
0.00131208
0.000712287
0.00123816
0.000784706
0.00091665
0.000855201
0.000369169
0.000920811
-0.000348545
0.000979511
-0.00115824
0.00103028
-0.00197317
0.00107291
-0.00271122
0.00110763
-0.00330478
0.0011348
-0.00370879
0.00115472
-0.00390335
0.00116753
-0.00389235
0.00117277
-0.00369807
0.00116913
-0.00335698
0.00115476
-0.00291633
0.00112916
-0.00242029
0.00109531
-0.00189711
0.00106009
-0.00134342
0.00103207
-0.000746913
0.00101821
-0.000104082
0.000541115
0.00054727
0.000763025
0.000605387
0.0010964
0.000670322
0.00124715
0.000739341
0.00116914
0.000809303
0.000846688
0.000876992
0.00030148
0.00093957
-0.000411122
0.000995228
-0.00121389
0.00104317
-0.00202111
0.00108339
-0.00275143
0.0011162
-0.0033376
0.00114205
-0.00373463
0.00116129
-0.00392258
0.00117409
-0.00390516
0.0011801
-0.00370408
0.00117806
-0.00335495
0.00116607
-0.00290434
0.00114324
-0.00239746
0.00111191
-0.00186578
0.00107836
-0.00130987
0.00105094
-0.000719492
0.00103679
-8.99273e-05
0.000537902
0.000579131
0.000715047
0.00063575
0.00103978
0.000698872
0.00118403
0.000765713
0.0011023
0.000833095
0.000779305
0.000897858
0.000236717
0.000957306
-0.00047057
0.00100986
-0.00126645
0.00105496
-0.00206621
0.00109277
-0.00278923
0.0011237
-0.00336853
0.00114824
-0.00375918
0.00116679
-0.00394114
0.00117957
-0.00391793
0.00118629
-0.00371079
0.00118579
-0.00335445
0.00117613
-0.00289468
0.00115611
-0.00237743
0.00112744
-0.00183711
0.00109581
-0.00127824
0.00106926
-0.000692944
0.00105505
-7.57181e-05
0.000535313
0.000610447
0.000668198
0.000665578
0.000984653
0.000726839
0.00112276
0.000791405
0.00103773
0.000856077
0.000714634
0.000917783
0.000175011
0.000974006
-0.000526794
0.0010234
-0.00131585
0.00106564
-0.00210845
0.00110104
-0.00282463
0.0011301
-0.00339759
0.00115335
-0.00378244
0.00117123
-0.00395901
0.00118397
-0.00393067
0.00119136
-0.00371818
0.00119233
-0.00335543
0.00118496
-0.00288731
0.00116774
-0.00236021
0.00114185
-0.00181121
0.00111234
-0.00124874
0.00108693
-0.000667528
0.0010729
-6.16954e-05
0.000533178
0.000641171
0.000622348
0.000694867
0.000930958
0.000754242
0.00106339
0.000816441
0.00097553
0.000878261
0.000652814
0.000936761
0.000116512
0.00098965
-0.000579683
0.00103582
-0.00136202
0.00107517
-0.0021478
0.00110816
-0.00285762
0.00113537
-0.0034248
0.00115736
-0.00380443
0.00117457
-0.00397622
0.00118726
-0.00394337
0.00119529
-0.0037262
0.00119768
-0.00335782
0.00119253
-0.00288215
0.00117811
-0.0023458
0.00115508
-0.00178818
0.00112789
-0.00122155
0.00110384
-0.000643485
0.00109024
-4.80965e-05
0.000531317
0.000671216
0.000577359
0.000723537
0.000878637
0.000781
0.00100593
0.000840722
0.000915808
0.00089955
0.000593986
0.000954698
6.13638e-05
0.00100413
-0.000629115
0.00104703
-0.00140492
0.00108351
-0.00218428
0.00111413
-0.00288824
0.00113954
-0.00345021
0.00116031
-0.00382519
0.00117687
-0.00399278
0.00118952
-0.00395602
0.00119815
-0.00373483
0.0012019
-0.00336157
0.00119889
-0.00287915
0.00118725
-0.00233415
0.00116713
-0.00176806
0.0011424
-0.00119682
0.00111994
-0.000621027
0.00110699
-3.51416e-05
0.000529546
0.000700496
0.00075137
0.000827762
0.000806784
0.000950512
0.00086383
0.000858763
0.000919443
0.000538372
0.000971141
9.66605e-06
0.00101709
-0.000675068
0.00105681
-0.00144464
0.00109056
-0.00221802
0.00111898
-0.00291667
0.00114273
-0.00347395
0.00116236
-0.00384483
0.00117833
-0.00400875
0.00119094
-0.00396863
0.00120014
-0.00374403
0.00120516
-0.0033666
0.00120421
-0.0028782
0.00119527
-0.00232522
0.00117809
-0.00175087
0.00115593
-0.00117465
0.00113524
-0.000600344
0.00112312
-2.30168e-05
0.000527725
0.00291946
0.000683462
0.00311118
0.000758799
0.00334008
0.000629861
0.00359049
0.000287957
0.00384496
-0.000244804
0.00408843
-0.000918538
0.00430743
-0.00166364
0.00449289
-0.00240348
0.00463881
-0.00306259
0.00474252
-0.00357767
0.00480484
-0.00390714
0.00482974
-0.00403365
0.00482297
-0.00396186
0.00479064
-0.0037117
0.00473689
-0.00331285
0.00466235
-0.00280366
0.00456474
-0.0022276
0.00444447
-0.0016306
0.00431073
-0.00104092
0.00418346
-0.000473072
0.00408763
7.2809e-05
0.000571314
0.00344743
0.000546533
0.00362708
0.000579151
0.00383915
0.000417788
0.00407035
5.67571e-05
0.00430337
-0.000477825
0.00452461
-0.00113978
0.00472207
-0.00186109
0.00488643
-0.00256784
0.0050114
-0.00318756
0.00509459
-0.00366086
0.00513773
-0.00395028
0.00514603
-0.00404195
0.00512637
-0.0039422
0.00508583
-0.00367117
0.00502967
-0.00325668
0.00495983
-0.00273382
0.00487434
-0.00214212
0.00477164
-0.0015279
0.00465654
-0.000925809
0.00454419
-0.000360727
0.00445645
0.000160554
0.000612421
0.00400077
0.000418879
0.00416749
0.000412427
0.0043633
0.000221978
0.00457424
-0.000154183
0.00478623
-0.000689815
0.00498507
-0.00133861
0.00515914
-0.00203517
0.00529909
-0.00270778
0.00539906
-0.00328753
0.00545779
-0.00371959
0.00547847
-0.00397096
0.00546765
-0.00403113
0.00543319
-0.00390774
0.0053828
-0.00362078
0.00532243
-0.00319631
0.00525508
-0.00266647
0.00517966
-0.00206671
0.00509374
-0.00144198
0.00499858
-0.000830656
0.00490475
-0.000266896
0.00483012
0.000235182
0.000647325
0.0045745
0.000301332
0.00472747
0.000259448
0.00490584
4.36149e-05
0.00509637
-0.000344715
0.00528548
-0.00087893
0.00545948
-0.00151261
0.00560681
-0.00218249
0.00571859
-0.00281957
0.00579015
-0.00335908
0.00582184
-0.00375128
0.0058184
-0.00396753
0.00578756
-0.00400028
0.00573784
-0.00385802
0.0056773
-0.00356024
0.00561214
-0.00313115
0.00554609
-0.00260042
0.00547906
-0.00199967
0.00540858
-0.0013715
0.00533363
-0.000755704
0.00526041
-0.000193675
0.00520246
0.00029313
0.000672443
0.00515931
0.000194001
0.00529799
0.00012076
0.00545809
-0.000116479
0.00562688
-0.000513502
0.005791
-0.00104306
0.0059373
-0.00165891
0.00605469
-0.00229988
0.00613544
-0.00290031
0.0061765
-0.00340014
0.00617999
-0.00375477
0.00615207
-0.00393961
0.00610134
-0.00394955
0.00603673
-0.00379341
0.00596635
-0.00348986
0.00589644
-0.00306125
0.00583109
-0.00253507
0.00577107
-0.00193965
0.00571441
-0.00131484
0.00565882
-0.000700113
0.00560692
-0.000141774
0.00556784
0.000332208
0.000684888
0.00574287
9.63038e-05
0.00586727
-3.6404e-06
0.0060085
-0.000257709
0.00615424
-0.000659242
0.00629153
-0.00118034
0.0064079
-0.00177528
0.0064933
-0.00238529
0.0065416
-0.00294861
0.00655161
-0.00341015
0.00652713
-0.00373029
0.0064755
-0.00388798
0.00640589
-0.00387994
0.00632735
-0.00371487
0.00624789
-0.0034104
0.00617359
-0.00298695
0.00610865
-0.00247013
0.00605451
-0.00188551
0.00600991
-0.00127024
0.00597205
-0.000662253
0.00594092
-0.00011064
0.00592158
0.000351542
0.000682759
0.006311
7.09494e-06
0.00642168
-0.000114325
0.00654401
-0.000380041
0.00666611
-0.000781336
0.00677561
-0.00128985
0.00686113
-0.00186079
0.00691408
-0.00243824
0.0069302
-0.00296472
0.00691017
-0.00339013
0.0068593
-0.00367942
0.00678577
-0.00381446
0.00669904
-0.00379321
0.00660806
-0.00362389
0.00652059
-0.00332292
0.00644246
-0.00290882
0.00637786
-0.00240553
0.00632865
-0.0018363
0.00629428
-0.00123587
0.00627201
-0.000639985
0.00626007
-9.86976e-05
0.00626008
0.000351525
0.000665253
0.00684948
-7.49862e-05
0.00694751
-0.000212353
0.00705167
-0.000484202
0.00715057
-0.000880235
0.00723272
-0.001372
0.0072881
-0.00191617
0.0073099
-0.00246004
0.0072958
-0.00295062
0.00724825
-0.00334257
0.00717373
-0.00360489
0.00708098
-0.00372171
0.0069795
-0.00369172
0.00687796
-0.00352236
0.00678378
-0.00322874
0.00670254
-0.00282757
0.00663829
-0.00234128
0.00659319
-0.0017912
0.00656728
-0.00120996
0.00655819
-0.000630895
0.00656311
-0.000103615
0.00658099
0.000333637
0.000632658
0.00734634
-0.000151158
0.00743307
-0.000299078
0.00752049
-0.000571624
0.00759775
-0.000957495
0.00765441
-0.00142866
0.00768202
-0.00194378
0.00767563
-0.00245366
0.0076348
-0.00290979
0.00756344
-0.00327122
0.00746892
-0.00351037
0.00736027
-0.00361307
0.00724681
-0.00357826
0.00713686
-0.00341241
0.00703745
-0.00312933
0.00695387
-0.002744
0.00689008
-0.00227749
0.00684835
-0.00174947
0.00682923
-0.00119084
0.00683081
-0.00063248
0.00684981
-0.000122611
0.00688326
0.000300181
0.000586226
0.00779368
-0.000222305
0.0078705
-0.000375896
0.0079431
-0.000644219
0.00800118
-0.00101558
0.00803543
-0.00146291
0.00803897
-0.00194733
0.00800865
-0.00242333
0.00794564
-0.00284677
0.00785503
-0.00318061
0.00774473
-0.00340008
0.00762384
-0.00349217
0.00750136
-0.00345579
0.00738524
-0.00329628
0.00728211
-0.0030262
0.00719702
-0.00265891
0.00713379
-0.00221426
0.00709481
-0.00171048
0.00708092
-0.00117696
0.00709075
-0.000642306
0.00712086
-0.000152716
0.00716706
0.000253979
0.000527959
0.0081887
-0.000288858
0.00825684
-0.00044404
0.00831671
-0.000704091
0.0083586
-0.00105746
0.00837426
-0.00147857
0.00835827
-0.00193135
0.00830902
-0.00237408
0.00822895
-0.0027667
0.00812397
-0.00307563
0.00800228
-0.00327838
0.00787282
-0.00336272
0.00774428
-0.00332724
0.00762417
-0.00317617
0.00751878
-0.00292081
0.00743296
-0.00257309
0.00737042
-0.00215171
0.00733359
-0.00167366
0.00732357
-0.00116694
0.00733938
-0.000658113
0.00737767
-0.000191012
0.00743357
0.000198078
0.000460337
0.00853359
-0.000350834
0.00859402
-0.000504469
0.00864319
-0.000753259
0.00867196
-0.00108623
0.00867307
-0.00147967
0.00864231
-0.00190059
0.00857924
-0.00231101
0.00848723
-0.00267469
0.00837264
-0.00296104
0.00824371
-0.00314945
0.00810914
-0.00322815
0.00797722
-0.00319532
0.00785511
-0.00305406
0.00774879
-0.00281449
0.00766294
-0.00248725
0.00760119
-0.00208996
0.00756602
-0.00163849
0.00755864
-0.00115956
0.00757842
-0.000677892
0.00762221
-0.000234796
0.0076848
0.000135488
0.000386041
0.00883455
-0.000407969
0.00888793
-0.000557855
0.00892815
-0.000793474
0.00894663
-0.00110472
0.00893696
-0.00147
0.00889585
-0.00185948
0.00882369
-0.00223885
0.00872436
-0.00257536
0.0086044
-0.00284108
0.00847189
-0.00301694
0.00833519
-0.00309145
0.00820222
-0.00306234
0.0080798
-0.00293164
0.00797368
-0.00270837
0.00788841
-0.00240198
0.00782753
-0.00202909
0.00779357
-0.00160452
0.0077878
-0.00115379
0.00780983
-0.000699923
0.00785672
-0.000281686
0.00792323
6.8979e-05
0.00030771
0.00910011
-0.00045987
0.00914688
-0.000604622
0.00917953
-0.000826123
0.00919009
-0.00111528
0.00917281
-0.00145272
0.00912508
-0.00181175
0.00904776
-0.00216153
0.00894495
-0.00247255
0.00882309
-0.00271922
0.00868996
-0.00288381
0.00855356
-0.00295505
0.0084214
-0.00293019
0.00830005
-0.00281029
0.00819503
-0.00260336
0.00811081
-0.00231776
0.00805087
-0.00196915
0.00801774
-0.00157139
0.00801271
-0.00114876
0.00803558
-0.00072279
0.00808359
-0.000329693
0.00815161
9.53825e-07
0.00022775
0.00933956
-0.000506151
0.00937997
-0.000645037
0.00940609
-0.000852235
0.00941052
-0.00111971
0.00938807
-0.00143028
0.00933658
-0.00176026
0.00925711
-0.00208206
0.00915371
-0.00236915
0.00903257
-0.00259808
0.00890106
-0.0027523
0.00876676
-0.00282075
0.00863683
-0.00280026
0.00851758
-0.00269104
0.00841435
-0.00250013
0.00833154
-0.00223494
0.00827256
-0.00191017
0.00823994
-0.00153878
0.00823498
-0.0011438
0.00825757
-0.000745372
0.0083051
-0.000377228
0.00837267
-6.66181e-05
0.000148212
0.00956148
-0.000546539
0.00959574
-0.000679291
0.00961604
-0.00087254
0.00961561
-0.00111928
0.00958971
-0.00140438
0.00953645
-0.00170699
0.00945691
-0.00200252
0.00935494
-0.00226717
0.00923632
-0.00247946
0.00910798
-0.00262395
0.00897705