/*--------------------------------*- C++ -*----------------------------------*\
  =========                 |
  \\      /  F ield         | OpenFOAM: The Open Source CFD Toolbox
   \\    /   O peration     | Website:  https://openfoam.org
    \\  /    A nd           | Version:  7
     \\/     M anipulation  |
\*---------------------------------------------------------------------------*/
FoamFile
{
    version     2.0;
    format      ascii;
    class       volVectorField;
    location    "260";
    object      U;
}
// * * * * * * * * * * * * * * * * * * * * * * * * * * * * * * * * * * * * * //

dimensions      [0 1 -1 0 0 0 0];

internalField   nonuniform List<vector> 
4575
(
(0.886348 -0.494455 -1.10803e-22)
(0.874332 -0.498912 -3.09402e-23)
(0.841356 -0.515439 6.1806e-23)
(0.79598 -0.511495 1.20256e-23)
(0.757339 -0.440873 -6.67435e-23)
(0.739031 -0.289567 2.35543e-22)
(0.743535 -0.0897342 1.27974e-22)
(0.76713 0.106388 1.04828e-23)
(0.80201 0.257411 5.78972e-23)
(0.838443 0.350418 -3.05508e-23)
(0.864622 0.400099 1.23178e-22)
(0.869647 0.431058 1.65179e-23)
(0.849462 0.452679 2.73999e-23)
(0.812095 0.447839 -1.44037e-22)
(0.774856 0.389338 -9.00516e-23)
(0.7533 0.266762 -7.76166e-24)
(0.752958 0.102694 -6.54768e-23)
(0.772911 -0.0640251 -9.55037e-23)
(0.804369 -0.197467 9.02902e-23)
(0.831313 -0.289681 -7.14968e-23)
(0.837708 -0.350208 2.07245e-23)
(0.822343 -0.384303 2.24271e-23)
(0.796068 -0.37897 2.27089e-23)
(0.775075 -0.314688 -2.99633e-23)
(0.888224 -0.494062 -1.79131e-22)
(0.87524 -0.496708 -3.86704e-22)
(0.841606 -0.511706 1.78419e-22)
(0.795314 -0.507601 -2.5607e-22)
(0.755458 -0.438355 1.09325e-22)
(0.736156 -0.289102 3.37338e-22)
(0.740105 -0.0911631 -2.35025e-22)
(0.763643 0.103666 1.61198e-22)
(0.799029 0.254219 -7.92067e-23)
(0.836314 0.347691 1.10868e-22)
(0.863321 0.398743 1.61408e-22)
(0.868973 0.431602 -8.4021e-23)
(0.849251 0.454892 1.54992e-22)
(0.812429 0.450705 -1.62438e-22)
(0.775874 0.391621 2.09141e-22)
(0.754762 0.267703 1.83495e-22)
(0.7544 0.102137 1.1824e-22)
(0.774008 -0.0657239 7.77154e-23)
(0.805167 -0.199427 -2.75217e-22)
(0.832034 -0.290779 -2.15107e-23)
(0.838407 -0.349884 -2.68882e-22)
(0.822921 -0.382924 4.26667e-23)
(0.796475 -0.377461 -9.58414e-23)
(0.775416 -0.31386 -2.36152e-22)
(0.890189 -0.493555 1.5686e-22)
(0.876256 -0.494422 1.7615e-22)
(0.842005 -0.5079 3.97396e-23)
(0.79484 -0.503661 3.09421e-22)
(0.753766 -0.435876 -7.29489e-22)
(0.733437 -0.28878 1.46686e-22)
(0.736808 -0.0927961 -3.60371e-22)
(0.760278 0.100728 -2.27948e-22)
(0.796156 0.250836 -5.81423e-22)
(0.834279 0.344818 3.8075e-22)
(0.862111 0.397284 -4.03289e-22)
(0.868401 0.432073 6.89065e-23)
(0.849167 0.457054 1.51002e-22)
(0.812926 0.453553 -2.38234e-22)
(0.777065 0.393945 4.9155e-22)
(0.756387 0.268755 -3.01923e-22)
(0.755986 0.101733 6.69309e-22)
(0.775224 -0.0672795 3.892e-22)
(0.806062 -0.201288 2.49506e-22)
(0.832846 -0.291822 1.95581e-23)
(0.839207 -0.349527 4.04049e-22)
(0.823609 -0.381528 -4.3576e-22)
(0.79699 -0.375966 8.44227e-23)
(0.775858 -0.313083 3.33733e-22)
(0.892243 -0.492939 -5.18709e-22)
(0.877383 -0.492062 4.21412e-22)
(0.842554 -0.504027 -5.68356e-22)
(0.794561 -0.499676 -8.50479e-22)
(0.752268 -0.433429 1.70912e-21)
(0.730878 -0.288592 -1.35566e-21)
(0.733646 -0.0946272 5.97034e-22)
(0.757035 0.09758 7.34095e-22)
(0.793392 0.247266 -7.5156e-22)
(0.832336 0.3418 1.01959e-21)
(0.860991 0.395718 -2.22102e-22)
(0.867931 0.432465 4.94086e-22)
(0.849211 0.45916 -2.48438e-22)
(0.813583 0.45638 9.3588e-22)
(0.778428 0.396309 1.28677e-22)
(0.758172 0.26992 -3.59109e-22)
(0.757716 0.101484 -8.4669e-22)
(0.776562 -0.0686888 -9.13031e-22)
(0.807053 -0.203051 -1.50264e-22)
(0.83375 -0.292811 6.81106e-23)
(0.840109 -0.349138 -1.73015e-22)
(0.824403 -0.380117 5.27756e-22)
(0.797612 -0.374486 -4.91097e-23)
(0.776397 -0.312355 1.06969e-22)
(0.894388 -0.49222 4.7185e-22)
(0.87862 -0.489636 -2.02889e-22)
(0.843251 -0.500095 4.54241e-23)
(0.79448 -0.495648 1.06836e-22)
(0.750971 -0.431009 -8.3273e-22)
(0.728485 -0.288531 1.72316e-21)
(0.730624 -0.0966498 6.14668e-22)
(0.753916 0.0942256 7.0806e-23)
(0.790734 0.243511 5.25207e-22)
(0.830483 0.338636 -8.86889e-22)
(0.859958 0.394043 -2.56418e-23)
(0.86756 0.432773 -5.48912e-22)
(0.849382 0.461204 -5.16058e-22)
(0.814399 0.459183 -9.91018e-22)
(0.779961 0.398715 -1.05468e-21)
(0.760116 0.271201 1.55408e-21)
(0.759591 0.101395 7.79683e-22)
(0.778024 -0.0699486 1.51417e-22)
(0.808143 -0.204714 1.6124e-22)
(0.834744 -0.293747 -2.29818e-22)
(0.841111 -0.34872 6.44122e-22)
(0.825303 -0.378692 -4.17115e-22)
(0.798339 -0.373019 3.16956e-22)
(0.777031 -0.311676 3.68625e-22)
(0.896626 -0.491405 -4.99872e-22)
(0.879969 -0.487153 -7.81929e-22)
(0.844097 -0.496113 2.96507e-23)
(0.794598 -0.491578 5.70324e-22)
(0.749881 -0.42861 -2.18848e-22)
(0.726265 -0.288587 -4.04537e-22)
(0.727743 -0.0988572 -1.71094e-21)
(0.750922 0.0906693 4.53588e-24)
(0.788182 0.239573 1.09026e-22)
(0.828717 0.335324 -1.16325e-21)
(0.859011 0.392254 5.20667e-22)
(0.867286 0.432992 -1.28185e-22)
(0.849678 0.463182 8.61027e-23)
(0.815372 0.461958 1.21711e-21)
(0.781659 0.401164 -3.83524e-24)
(0.762216 0.2726 -5.93296e-22)
(0.76161 0.101468 -3.1731e-22)
(0.77961 -0.0710557 1.07386e-21)
(0.809331 -0.206276 -1.25473e-23)
(0.835828 -0.294633 -4.98205e-23)
(0.842213 -0.348275 2.47723e-22)
(0.826309 -0.377253 -9.45089e-22)
(0.799168 -0.371565 -2.44666e-22)
(0.777756 -0.311042 -8.61667e-22)
(0.898956 -0.490499 2.62139e-22)
(0.88143 -0.48462 1.83695e-22)
(0.845091 -0.492086 3.19741e-22)
(0.794916 -0.487469 -1.09315e-21)
(0.749004 -0.426227 2.47154e-21)
(0.724221 -0.288752 1.21139e-21)
(0.725008 -0.101242 8.1106e-23)
(0.748052 0.086916 -1.27763e-21)
(0.785734 0.235454 5.5821e-22)
(0.827039 0.331865 9.56074e-22)
(0.858148 0.390349 7.46004e-22)
(0.867108 0.433115 -1.29701e-22)
(0.850098 0.465088 -6.11213e-22)
(0.8165 0.464703 -4.23904e-22)
(0.78352 0.403654 4.76964e-23)
(0.76447 0.27412 -1.23856e-21)
(0.763771 0.101707 1.4307e-22)
(0.781322 -0.0720072 -4.77741e-22)
(0.810618 -0.207735 -8.49431e-22)
(0.837001 -0.295468 2.99324e-22)
(0.843413 -0.347806 -5.71552e-22)
(0.827419 -0.375802 9.01321e-22)
(0.800098 -0.370123 5.90105e-23)
(0.778571 -0.310452 7.97674e-22)
(0.901379 -0.489507 -4.49383e-22)
(0.883003 -0.482046 -3.26986e-22)
(0.84623 -0.488024 1.08975e-21)
(0.795433 -0.483322 6.59177e-22)
(0.748344 -0.423852 -1.9928e-21)
(0.72236 -0.289017 3.75239e-22)
(0.722421 -0.103797 -2.55603e-22)
(0.745308 0.0829708 2.79465e-21)
(0.783389 0.231157 -4.04751e-21)
(0.825443 0.328258 7.13791e-22)
(0.857365 0.388323 -1.19197e-21)
(0.867023 0.433139 1.79618e-21)
(0.85064 0.466916 6.10181e-23)
(0.817781 0.467416 7.94313e-22)
(0.78554 0.406187 3.69535e-22)
(0.766874 0.275762 -1.45884e-22)
(0.766075 0.102113 4.14228e-22)
(0.78316 -0.0728 1.95696e-22)
(0.812006 -0.20909 9.25583e-22)
(0.838262 -0.296254 -8.74167e-22)
(0.844712 -0.347314 -6.3549e-22)
(0.828631 -0.37434 1.34577e-22)
(0.801125 -0.368692 -1.22519e-21)
(0.779472 -0.309903 2.57328e-22)
(0.903897 -0.488435 1.24946e-21)
(0.884687 -0.479437 5.36373e-22)
(0.847515 -0.483933 -1.8857e-21)
(0.79615 -0.479141 1.74285e-22)
(0.747907 -0.421481 1.02053e-22)
(0.720688 -0.289371 -9.60702e-22)
(0.719985 -0.106513 4.37696e-22)
(0.742688 0.0788393 -4.35455e-22)
(0.781143 0.226684 6.9843e-22)
(0.82393 0.324502 -2.08452e-21)
(0.856659 0.386174 1.26398e-21)
(0.867028 0.433057 -1.82019e-23)
(0.851302 0.468662 -1.49594e-21)
(0.819209 0.470093 2.98036e-22)
(0.787714 0.408763 3.60603e-21)
(0.769426 0.277528 -1.58117e-22)
(0.768519 0.10269 -1.65468e-21)
(0.785125 -0.0734312 2.05649e-21)
(0.813495 -0.210338 -6.89013e-22)
(0.839611 -0.296993 -4.96138e-22)
(0.846106 -0.346801 8.74033e-22)
(0.829946 -0.372868 1.78939e-22)
(0.802248 -0.367272 1.70518e-21)
(0.780456 -0.309394 -3.61074e-22)
(0.906507 -0.487288 -1.88924e-21)
(0.886482 -0.476801 3.71802e-22)
(0.848944 -0.479821 2.04076e-21)
(0.797065 -0.474929 -6.57708e-22)
(0.747698 -0.419108 6.66586e-22)
(0.71921 -0.289805 3.68488e-22)
(0.717702 -0.109382 -5.26338e-23)
(0.740194 0.0745271 -9.71358e-22)
(0.778997 0.22204 -6.45959e-22)
(0.822495 0.320597 1.65951e-21)
(0.856029 0.383897 3.32466e-22)
(0.86712 0.432865 9.23822e-22)
(0.852081 0.470319 -1.51988e-21)
(0.820782 0.472731 7.5538e-22)
(0.790038 0.41138 -1.64369e-21)
(0.772121 0.279418 1.20175e-21)
(0.771101 0.103439 -5.38436e-22)
(0.787217 -0.0738982 2.76491e-21)
(0.815084 -0.211478 -3.32799e-21)
(0.841045 -0.297684 -1.20354e-21)
(0.847596 -0.346271 2.11722e-22)
(0.83136 -0.371386 -1.7076e-22)
(0.803464 -0.36586 -5.30527e-22)
(0.781519 -0.308922 -3.76027e-22)
(0.888387 -0.474145 1.06926e-21)
(0.850513 -0.475697 3.69209e-22)
(0.798174 -0.470688 8.49235e-22)
(0.747719 -0.416728 -1.63245e-21)
(0.717933 -0.290308 1.45684e-21)
(0.715576 -0.112394 -1.73042e-21)
(0.737825 0.0700403 1.90786e-22)
(0.776948 0.217225 6.33295e-22)
(0.821137 0.316543 -4.79421e-22)
(0.855469 0.381489 -2.74651e-22)
(0.867297 0.432555 -1.35451e-21)
(0.852974 0.471883 9.33555e-22)
(0.822496 0.475327 -1.14622e-22)
(0.792508 0.414039 -5.63664e-22)
(0.774955 0.281434 -2.24876e-21)
(0.773819 0.104362 -4.16702e-22)
(0.789436 -0.0741981 -4.51872e-23)
(0.816776 -0.212508 2.32766e-21)
(0.842564 -0.298328 2.14572e-21)
(0.849179 -0.345723 1.47171e-22)
(0.832874 -0.369895 -6.38394e-23)
(0.80477 -0.364457 -6.95031e-22)
(0.78266 -0.308485 2.18011e-22)
(0.890399 -0.471476 -7.54541e-22)
(0.852222 -0.471566 6.2032e-22)
(0.799475 -0.466422 -1.48817e-21)
(0.747973 -0.414335 -1.65636e-22)
(0.716862 -0.290869 1.61581e-21)
(0.713611 -0.115541 2.43043e-22)
(0.735581 0.0653852 5.13111e-22)
(0.774993 0.212245 1.41039e-22)
(0.819852 0.312341 1.9679e-21)
(0.854978 0.378948 -2.67742e-22)
(0.867554 0.432124 -6.82957e-22)
(0.853978 0.473348 -3.61426e-22)
(0.824346 0.477877 2.33349e-22)
(0.795118 0.416738 -1.65883e-21)
(0.777925 0.283575 -8.58419e-22)
(0.77667 0.10546 -3.09975e-22)
(0.791782 -0.0743283 -4.03678e-21)
(0.81857 -0.213425 3.63016e-21)
(0.844166 -0.298926 -3.60873e-21)
(0.850853 -0.345161 -8.57511e-22)
(0.834486 -0.368396 6.84299e-22)
(0.806165 -0.363061 -5.87938e-22)
(0.783874 -0.30808 3.34765e-22)
(0.892518 -0.468801 2.51616e-22)
(0.854067 -0.467437 1.09777e-21)
(0.800965 -0.462135 2.73739e-22)
(0.748462 -0.411926 -1.24418e-21)
(0.716004 -0.291478 1.05873e-21)
(0.711808 -0.118812 -2.46647e-21)
(0.733462 0.0605687 1.65386e-21)
(0.773131 0.207102 -2.34693e-21)
(0.818638 0.307988 4.19898e-22)
(0.854551 0.376269 2.29988e-21)
(0.86789 0.431566 -2.49049e-21)
(0.855089 0.474708 1.11562e-22)
(0.826327 0.480379 -1.56934e-21)
(0.797863 0.419476 4.56952e-21)
(0.781025 0.285843 -1.61505e-22)
(0.779652 0.106735 -1.99174e-21)
(0.794254 -0.0742866 1.78965e-21)
(0.820467 -0.214228 2.00117e-22)
(0.845849 -0.299477 -2.1299e-22)
(0.852617 -0.344587 1.17417e-21)
(0.836195 -0.366889 -1.04434e-21)
(0.807646 -0.36167 1.4248e-21)
(0.785159 -0.307706 -9.93144e-23)
(0.89474 -0.466125 3.52468e-21)
(0.856046 -0.463317 -9.00347e-22)
(0.802638 -0.457831 3.082e-22)
(0.749186 -0.409496 8.3723e-22)
(0.715364 -0.292124 4.15614e-22)
(0.710172 -0.122197 -2.39554e-21)
(0.731468 0.0555978 -7.89216e-22)
(0.771361 0.2018 4.76082e-22)
(0.81749 0.303487 -1.1695e-21)
(0.854184 0.373451 -2.76443e-21)
(0.868299 0.430876 1.96508e-21)
(0.856303 0.475959 1.10056e-21)
(0.828435 0.482828 3.74497e-21)
(0.800738 0.422252 -1.67218e-21)
(0.78425 0.288236 4.66263e-22)
(0.78276 0.108187 8.30903e-22)
(0.796851 -0.0740706 -1.60601e-21)
(0.822466 -0.214913 1.17338e-22)
(0.847613 -0.299982 6.46192e-22)
(0.854466 -0.344002 -1.15767e-21)
(0.837999 -0.365377 9.38998e-22)
(0.809211 -0.360283 -7.65167e-22)
(0.786512 -0.307359 1.2705e-22)
(0.897063 -0.463456 -4.8589e-21)
(0.858157 -0.459214 -3.58502e-21)
(0.80449 -0.453514 2.26516e-21)
(0.750145 -0.407042 1.14141e-21)
(0.714947 -0.292797 -3.28392e-21)
(0.708706 -0.125684 4.52785e-21)
(0.729599 0.0504799 2.66274e-23)
(0.769679 0.196342 1.24389e-21)
(0.816407 0.298837 -7.04337e-22)
(0.853873 0.370489 5.28868e-22)
(0.868777 0.430048 4.48784e-22)
(0.857616 0.477095 4.84795e-22)
(0.830663 0.485222 -1.97372e-21)
(0.803737 0.425064 -2.01466e-21)
(0.787596 0.290755 3.63922e-21)
(0.78599 0.109816 2.60529e-21)
(0.799571 -0.0736782 4.43979e-22)
(0.824569 -0.215479 -4.02444e-22)
(0.849456 -0.300441 3.65455e-21)
(0.8564 -0.343408 8.52704e-22)
(0.839897 -0.363858 -5.47955e-22)
(0.810858 -0.358899 7.25779e-22)
(0.787929 -0.307037 -5.16844e-22)
(0.899485 -0.460798 9.80928e-22)
(0.860395 -0.455134 2.10409e-21)
(0.806516 -0.449189 1.89706e-21)
(0.751337 -0.404562 -1.61303e-22)
(0.71476 -0.293486 1.73437e-21)
(0.707414 -0.129263 -2.40177e-21)
(0.727856 0.0452231 -2.15473e-21)
(0.768085 0.190734 2.53059e-21)
(0.815385 0.294038 -2.96076e-22)
(0.853615 0.367381 1.6504e-21)
(0.869322 0.429078 -3.2343e-21)
(0.859023 0.47811 -1.02073e-21)
(0.833006 0.487556 -5.4586e-22)
(0.806854 0.42791 1.76919e-21)
(0.791057 0.293398 -1.46562e-21)
(0.78934 0.111624 -3.0609e-21)
(0.802414 -0.0731076 2.50693e-21)
(0.826774 -0.215923 -1.25938e-21)
(0.851376 -0.300853 -1.26708e-21)
(0.858415 -0.342806 -1.37142e-21)
(0.841887 -0.362334 1.76877e-22)
(0.812585 -0.357516 -6.78554e-22)
(0.789407 -0.306737 7.27422e-22)
(0.902001 -0.458157 -1.2404e-21)
(0.862758 -0.451084 7.76701e-22)
(0.808711 -0.444861 -5.50474e-22)
(0.752757 -0.402051 -4.01228e-22)
(0.714807 -0.294181 4.97504e-22)
(0.706302 -0.132922 -3.1673e-21)
(0.726239 0.0398355 4.00943e-22)
(0.766576 0.184978 1.31238e-21)
(0.81442 0.289092 -1.46688e-21)
(0.853404 0.364126 2.9134e-21)
(0.869927 0.42796 -2.81603e-21)
(0.860519 0.479 1.84233e-21)
(0.835459 0.489827 2.81362e-21)
(0.810083 0.430788 -3.24661e-22)
(0.794627 0.296164 2.33681e-21)
(0.792803 0.113611 1.19742e-22)
(0.805377 -0.072357 6.47946e-22)
(0.829083 -0.216242 -2.02596e-21)
(0.853372 -0.301217 -7.12838e-22)
(0.860507 -0.342199 -1.28099e-21)
(0.843968 -0.360806 -8.87583e-22)
(0.814391 -0.356133 4.55005e-22)
(0.790944 -0.306457 1.20154e-21)
(0.904609 -0.455538 -7.7085e-23)
(0.865242 -0.447071 -2.53485e-21)
(0.81107 -0.440534 1.44369e-21)
(0.754403 -0.399511 1.91777e-22)
(0.715092 -0.294873 3.19575e-21)
(0.705373 -0.136648 1.25985e-21)
(0.724749 0.0343259 -2.6218e-21)
(0.765151 0.179081 -9.62001e-22)
(0.813509 0.284 -1.18282e-21)
(0.853237 0.360719 -7.95391e-22)
(0.870589 0.42669 5.33522e-22)
(0.862099 0.479759 -1.52136e-21)
(0.838014 0.492031 8.40156e-22)
(0.813418 0.433696 -4.18703e-21)
(0.798301 0.299053 1.17804e-22)
(0.796376 0.115774 -2.28533e-22)
(0.808457 -0.071425 -3.81765e-21)
(0.831494 -0.216433 2.80572e-21)
(0.855443 -0.301533 1.51972e-21)
(0.862675 -0.341589 -4.14896e-22)
(0.846138 -0.359274 1.84066e-22)
(0.816274 -0.354748 9.91255e-22)
(0.792536 -0.306194 -1.86754e-21)
(0.907304 -0.452946 -2.40346e-21)
(0.867842 -0.443103 -4.36096e-22)
(0.813587 -0.436213 -2.05408e-21)
(0.756267 -0.396937 2.83011e-21)
(0.715618 -0.29555 -2.41943e-22)
(0.704633 -0.14043 -1.60114e-21)
(0.723388 0.0287034 2.25019e-21)
(0.763808 0.173047 -1.276e-21)
(0.812649 0.278762 1.07006e-21)
(0.85311 0.35716 3.49527e-21)
(0.871303 0.425264 -1.69598e-21)
(0.863757 0.480382 2.40253e-21)
(0.840667 0.494163 1.23856e-21)
(0.816852 0.436631 -1.17496e-21)
(0.802072 0.302061 4.08448e-21)
(0.800053 0.118115 4.79117e-22)
(0.811653 -0.0703103 9.45738e-22)
(0.834008 -0.216494 -4.67652e-22)
(0.857587 -0.301799 -1.44122e-21)
(0.864915 -0.340975 -6.16065e-22)
(0.848394 -0.35774 9.59341e-22)
(0.818233 -0.353359 8.52971e-24)
(0.794181 -0.305945 2.11632e-22)
(0.910085 -0.450385 1.01165e-21)
(0.870552 -0.439186 3.21111e-21)
(0.816258 -0.431904 -3.78035e-21)
(0.758343 -0.394332 1.87691e-21)
(0.716388 -0.296207 -2.32811e-21)
(0.704088 -0.144256 7.08904e-22)
(0.722156 0.0229777 -1.47629e-21)
(0.762545 0.166881 4.02146e-21)
(0.811836 0.273381 -1.95455e-21)
(0.853017 0.353446 -3.78315e-21)
(0.872064 0.423677 -6.77116e-22)
(0.865488 0.480865 -2.48567e-22)
(0.843411 0.49622 3.07046e-21)
(0.82038 0.43959 1.63049e-21)
(0.805935 0.305188 -1.07338e-21)
(0.803829 0.120632 -3.77313e-22)
(0.81496 -0.069012 -3.48086e-21)
(0.836623 -0.216422 5.82923e-22)
(0.859803 -0.302014 2.09188e-21)
(0.867224 -0.340361 8.8092e-22)
(0.850735 -0.356205 3.86828e-22)
(0.820266 -0.351966 7.03321e-22)
(0.795876 -0.305708 9.45014e-23)
(0.912946 -0.447857 -9.61258e-22)
(0.873369 -0.435326 1.25368e-21)
(0.819076 -0.427612 -2.26413e-21)
(0.760624 -0.391694 1.08078e-21)
(0.717401 -0.296833 1.75562e-21)
(0.703742 -0.148112 2.65942e-21)
(0.721057 0.0171589 -1.22305e-23)
(0.761362 0.160589 -3.30077e-21)
(0.811066 0.267858 2.13298e-21)
(0.852955 0.349576 -3.23934e-22)
(0.872867 0.421924 -6.97428e-22)
(0.867286 0.481202 1.71072e-21)
(0.846238 0.498197 -4.42231e-21)
(0.823995 0.442569 -5.29715e-21)
(0.809882 0.308431 4.30351e-21)
(0.807698 0.123324 2.32774e-21)
(0.818377 -0.0675291 -1.30393e-21)
(0.839339 -0.216215 -2.07525e-22)
(0.862089 -0.302176 -3.13785e-21)
(0.869597 -0.339747 1.60521e-21)
(0.853158 -0.354669 -9.31934e-22)
(0.822374 -0.350565 3.21103e-22)
(0.797617 -0.305478 -1.10516e-21)
(0.915886 -0.445368 8.92585e-22)
(0.876287 -0.431529 7.70821e-22)
(0.822038 -0.423342 3.09742e-21)
(0.7631 -0.389023 2.59298e-22)
(0.718658 -0.297422 2.99147e-22)
(0.703603 -0.151987 -2.78885e-21)
(0.720093 0.011257 2.22953e-21)
(0.760257 0.154177 4.1138e-22)
(0.810338 0.262195 1.36068e-21)
(0.852918 0.345548 1.09176e-22)
(0.873706 0.420003 1.11768e-22)
(0.869144 0.481388 -2.05138e-21)
(0.849144 0.50009 1.98853e-21)
(0.82769 0.445565 1.50704e-21)
(0.813909 0.311787 -5.46098e-21)
(0.811656 0.126189 -6.19664e-22)
(0.821899 -0.0658612 4.36347e-21)
(0.842155 -0.21587 -8.04771e-22)
(0.864445 -0.302285 1.06383e-21)
(0.872033 -0.339134 5.98985e-22)
(0.855661 -0.353134 2.98539e-21)
(0.824555 -0.349157 -2.06729e-21)
(0.799403 -0.305255 -7.16884e-23)
(0.918899 -0.442918 -2.04659e-22)
(0.879298 -0.427802 -4.47406e-22)
(0.825138 -0.419098 2.34849e-21)
(0.765764 -0.386321 -4.08197e-21)
(0.720153 -0.297967 -1.22822e-21)
(0.703676 -0.155868 -7.7464e-22)
(0.719269 0.00528545 -1.8811e-21)
(0.75923 0.147652 -1.94653e-21)
(0.809646 0.256396 1.51456e-21)
(0.852903 0.341361 -2.87656e-21)
(0.874577 0.417909 2.03503e-21)
(0.871057 0.481419 1.96234e-22)
(0.85212 0.501894 3.65351e-22)
(0.831459 0.448576 1.91099e-21)
(0.818008 0.315253 4.10701e-21)
(0.815696 0.129225 -6.07486e-21)
(0.825523 -0.064008 -8.89947e-22)
(0.84507 -0.215383 2.98047e-22)
(0.866869 -0.302337 -1.06276e-21)
(0.874527 -0.338524 -1.41392e-21)
(0.85824 -0.351602 -5.54469e-22)
(0.826809 -0.347739 2.79121e-22)
(0.801232 -0.305033 1.25327e-21)
(0.921985 -0.44051 1.8615e-22)
(0.882398 -0.424151 1.05113e-21)
(0.82837 -0.414888 -8.45176e-22)
(0.768606 -0.383589 2.07574e-21)
(0.721883 -0.298463 1.69103e-21)
(0.703966 -0.159745 8.90279e-22)
(0.718587 -0.000725806 1.94472e-21)
(0.758281 0.141021 -1.60876e-21)
(0.808989 0.250462 -9.19089e-23)
(0.852904 0.337015 -2.01167e-21)
(0.875474 0.415638 1.11256e-21)
(0.873019 0.48129 -2.61005e-21)
(0.855161 0.503605 -7.60693e-22)
(0.835296 0.451595 3.79882e-21)
(0.822173 0.318827 -6.22543e-21)
(0.819813 0.132431 1.75474e-22)
(0.829246 -0.0619695 4.34876e-21)
(0.848083 -0.214754 -3.486e-21)
(0.86936 -0.302331 2.21156e-21)
(0.877077 -0.337917 -2.93634e-22)
(0.860892 -0.350072 2.05085e-21)
(0.829135 -0.346309 -2.63034e-21)
(0.8031 -0.304811 1.35642e-21)
(0.925138 -0.438146 4.6339e-21)
(0.885578 -0.420581 -1.72805e-21)
(0.831728 -0.410715 -2.70014e-21)
(0.771619 -0.380828 -2.11692e-22)
(0.72384 -0.298905 -1.64273e-22)
(0.704481 -0.163605 -1.83479e-21)
(0.718054 -0.0067942 -4.8788e-22)
(0.757409 0.134291 -1.13525e-22)
(0.808364 0.244397 1.93709e-21)
(0.852918 0.332509 3.43591e-22)
(0.876391 0.413189 1.32001e-21)
(0.875022 0.480996 -3.50304e-21)
(0.858259 0.505218 2.28184e-21)
(0.839193 0.45462 -3.3941e-21)
(0.826397 0.322505 6.44588e-21)
(0.824001 0.135805 -1.75046e-21)
(0.833063 -0.0597459 1.56759e-22)
(0.851192 -0.213979 -1.37665e-21)
(0.871916 -0.302264 7.31097e-22)
(0.879679 -0.337314 -1.49007e-21)
(0.863615 -0.348548 -2.44834e-21)
(0.831533 -0.344868 3.04982e-21)
(0.805007 -0.304585 1.1765e-21)
(0.928358 -0.435826 1.74733e-22)
(0.888834 -0.417097 1.34177e-21)
(0.835208 -0.406586 -1.27672e-21)
(0.774794 -0.37804 -4.73063e-22)
(0.726015 -0.299288 1.26518e-21)
(0.70522 -0.167439 1.13925e-21)
(0.717676 -0.0129268 -3.587e-22)
(0.756617 0.127471 -1.07426e-21)
(0.807768 0.238205 -6.55393e-22)
(0.852939 0.327843 -2.3862e-21)
(0.877323 0.410557 6.68404e-22)
(0.87706 0.480533 2.96292e-21)
(0.861408 0.506728 -2.60181e-21)
(0.843145 0.457646 6.92781e-22)
(0.830675 0.326283 -1.92748e-21)
(0.828254 0.139342 -2.52467e-21)
(0.83697 -0.0573376 6.88458e-21)
(0.854395 -0.213055 3.75456e-21)
(0.874537 -0.302134 -3.03432e-21)
(0.88233 -0.336715 2.51262e-21)
(0.866405 -0.347031 -2.80019e-21)
(0.834002 -0.343413 -2.25239e-21)
(0.806952 -0.304352 -1.10819e-21)
(0.931641 -0.43355 -8.15265e-22)
(0.892157 -0.413705 2.60864e-21)
(0.838801 -0.402506 3.67532e-23)
(0.778125 -0.375226 2.44667e-22)
(0.728396 -0.29961 -1.52336e-21)
(0.706187 -0.171237 2.68083e-21)
(0.717459 -0.0190814 -2.11234e-22)
(0.755908 0.120568 -5.04307e-22)
(0.8072 0.23189 5.97929e-22)
(0.852964 0.323018 1.78531e-22)
(0.878264 0.40774 6.02356e-22)
(0.879128 0.479897 -1.02912e-21)
(0.864601 0.50813 3.2147e-21)
(0.847144 0.460668 -1.12758e-21)
(0.835 0.330158 -2.74946e-22)
(0.832567 0.143041 -4.05261e-22)
(0.840964 -0.0547454 -5.47806e-21)
(0.857691 -0.211981 1.56512e-21)
(0.87722 -0.301938 -2.48007e-21)
(0.885026 -0.336121 1.18168e-21)
(0.869258 -0.345522 1.34542e-21)
(0.836543 -0.341944 2.87551e-21)
(0.808932 -0.304109 -7.82812e-23)
(0.934986 -0.43132 2.79671e-21)
(0.895541 -0.41041 -6.33992e-21)
(0.842502 -0.398481 1.69296e-21)
(0.781605 -0.372388 -2.53642e-21)
(0.730971 -0.299867 1.70664e-21)
(0.707381 -0.174991 -3.40899e-21)
(0.717413 -0.0252473 2.61929e-21)
(0.755285 0.113593 2.16066e-21)
(0.806658 0.225457 -2.80666e-22)
(0.852989 0.318034 1.32537e-21)
(0.879209 0.404737 -1.05293e-21)
(0.881217 0.479083 1.19762e-21)
(0.867832 0.509419 8.39913e-23)
(0.851185 0.463682 -4.69162e-21)
(0.839365 0.334126 7.8731e-22)
(0.836935 0.146899 5.43481e-21)
(0.84504 -0.0519702 4.08473e-21)
(0.861078 -0.210755 7.15189e-22)
(0.879966 -0.301674 -2.04106e-21)
(0.887765 -0.335532 4.94897e-22)
(0.87217 -0.344023 -7.89011e-23)
(0.839153 -0.34046 -7.15432e-22)
(0.810949 -0.303852 -1.27155e-21)
(0.93839 -0.429133 1.72522e-21)
(0.89898 -0.407214 -2.09429e-21)
(0.846303 -0.394517 -8.02735e-22)
(0.785229 -0.369529 -1.228e-22)
(0.733726 -0.300057 1.36801e-21)
(0.708799 -0.178691 5.43458e-22)
(0.717545 -0.0314222 -1.32324e-21)
(0.754755 0.106554 -6.82696e-22)
(0.806143 0.21891 1.28821e-22)
(0.853011 0.312893 -1.86441e-21)
(0.880152 0.401544 -2.06334e-22)
(0.883322 0.478088 1.61943e-21)
(0.871093 0.51059 1.35972e-21)
(0.855261 0.466681 -1.2187e-21)
(0.843765 0.338181 -3.6338e-23)
(0.841353 0.150912 4.52966e-21)
(0.849194 -0.0490133 -1.58588e-21)
(0.864554 -0.209373 -1.52579e-21)
(0.882772 -0.301338 2.37878e-21)
(0.890544 -0.334947 1.28628e-21)
(0.875138 -0.342536 -2.58808e-23)
(0.841833 -0.33896 -1.44365e-21)
(0.813002 -0.303579 3.78298e-22)
(0.941852 -0.426988 -2.84777e-22)
(0.902468 -0.404122 -8.97299e-23)
(0.850194 -0.39062 -1.1589e-21)
(0.78899 -0.36665 -2.03141e-21)
(0.73665 -0.300177 4.56492e-21)
(0.710433 -0.182332 -2.10524e-21)
(0.717865 -0.0375897 -1.20676e-21)
(0.754324 0.099462 9.82816e-22)
(0.805655 0.212257 7.09748e-22)
(0.853025 0.307597 -4.84436e-22)
(0.881088 0.398162 8.56089e-22)
(0.885436 0.476908 -1.42493e-21)
(0.874378 0.511638 5.93404e-22)
(0.859365 0.469662 -3.54576e-22)
(0.848194 0.342319 4.08804e-22)
(0.845816 0.155076 -1.63883e-21)
(0.853424 -0.045876 -4.00526e-21)
(0.868116 -0.207836 9.14773e-22)
(0.885637 -0.300928 -2.01016e-21)
(0.893359 -0.334367 2.98495e-21)
(0.878158 -0.341063 1.43358e-21)
(0.844581 -0.337444 7.52762e-22)
(0.815091 -0.303285 -1.03943e-21)
(0.945369 -0.424885 2.36705e-21)
(0.905998 -0.401136 1.24819e-21)
(0.854169 -0.386797 3.40758e-21)
(0.792884 -0.363753 -5.31307e-22)
(0.739729 -0.300225 -1.34502e-21)
(0.712274 -0.185907 2.34021e-21)
(0.71838 -0.0437317 -6.16731e-22)
(0.754003 0.0923263 4.00151e-22)
(0.805198 0.205503 -1.75944e-21)
(0.85303 0.302148 1.85649e-21)
(0.882011 0.394588 -4.72017e-22)
(0.887552 0.475538 1.0854e-21)
(0.877681 0.512558 -1.89224e-21)
(0.863491 0.472619 -1.90094e-21)
(0.852646 0.346536 -6.73212e-22)
(0.850321 0.159387 1.19317e-22)
(0.857725 -0.04256 2.59732e-21)
(0.871762 -0.206139 -1.63949e-21)
(0.888561 -0.300439 -2.40241e-21)
(0.896209 -0.333791 9.69541e-22)
(0.881226 -0.339605 -7.58362e-23)
(0.847395 -0.335911 -1.69552e-21)
(0.817218 -0.302968 4.49137e-22)
(0.948942 -0.42282 -9.48418e-22)
(0.909564 -0.39826 -4.70072e-21)
(0.858218 -0.383053 -3.3808e-22)
(0.796906 -0.360842 5.7306e-22)
(0.742952 -0.3002 4.8354e-22)
(0.714308 -0.189412 1.25525e-21)
(0.719098 -0.0498433 -2.88095e-21)
(0.753806 0.0851575 1.21629e-21)
(0.804779 0.198656 -1.84194e-21)
(0.853026 0.296549 9.53561e-22)
(0.882916 0.390823 -1.60657e-21)
(0.889663 0.473977 8.68069e-22)
(0.880994 0.513344 1.74557e-21)
(0.867634 0.475545 4.41509e-21)
(0.857115 0.350826 3.66655e-21)
(0.854863 0.163841 -3.50996e-21)
(0.862095 -0.0390673 -2.75209e-21)
(0.87549 -0.204283 -2.44835e-21)
(0.891541 -0.29987 -3.65107e-22)
(0.899089 -0.333219 -2.08795e-21)
(0.884339 -0.338165 2.26098e-22)
(0.850274 -0.334362 3.61844e-22)
(0.819383 -0.302624 1.36074e-22)
(0.952568 -0.420793 -3.93456e-21)
(0.913162 -0.395494 2.4174e-22)
(0.862332 -0.379396 1.24635e-21)
(0.801049 -0.35792 -5.16185e-22)
(0.746311 -0.3001 -1.2992e-22)
(0.716517 -0.192843 -6.24581e-22)
(0.720023 -0.0559205 9.45617e-22)
(0.753749 0.0779659 -1.73775e-21)
(0.804408 0.191724 1.26099e-21)
(0.853013 0.290804 -6.87474e-22)
(0.8838 0.386866 1.02468e-21)
(0.891765 0.47222 -9.67455e-22)
(0.884312 0.513991 -1.06038e-21)
(0.871787 0.478435 -3.02803e-21)
(0.861597 0.355183 5.22591e-21)
(0.859443 0.168435 8.04326e-22)
(0.866532 -0.0353994 -2.80772e-22)
(0.879296 -0.202266 1.88007e-21)
(0.894575 -0.299216 4.12805e-21)
(0.901997 -0.332648 -1.97324e-22)
(0.887493 -0.336745 -2.46118e-21)
(0.853216 -0.332798 2.64689e-23)
(0.821588 -0.302251 -2.76032e-22)
(0.956247 -0.418802 -6.29732e-21)
(0.916787 -0.392843 4.50358e-21)
(0.866503 -0.375833 1.1925e-21)
(0.805309 -0.35499 -1.69815e-21)
(0.749798 -0.299923 1.81107e-21)
(0.718882 -0.196197 6.03766e-22)
(0.721155 -0.061957 1.50858e-21)
(0.753852 0.0707609 -2.65246e-21)
(0.804102 0.184715 -7.68208e-22)
(0.852996 0.284918 6.20296e-22)
(0.884659 0.382718 1.40164e-21)
(0.89385 0.470264 -3.51679e-21)
(0.887628 0.514495 8.21041e-22)
(0.875944 0.481284 -1.45765e-21)
(0.866089 0.359602 -1.65319e-21)
(0.86406 0.173163 3.45908e-21)
(0.871033 -0.0315577 -4.0565e-21)
(0.883179 -0.200085 2.00038e-21)
(0.897664 -0.298475 -9.98557e-22)
(0.90493 -0.33208 -1.45272e-21)
(0.890683 -0.335346 1.83187e-21)
(0.856219 -0.331218 -1.02384e-21)
(0.823836 -0.301846 -2.70513e-23)
(0.959977 -0.416841 7.60596e-22)
(0.920434 -0.390301 -1.42881e-21)
(0.87072 -0.372367 4.79085e-23)
(0.809678 -0.352052 -1.92016e-21)
(0.753407 -0.299662 3.55043e-22)
(0.72138 -0.199468 2.17033e-21)
(0.722488 -0.0679458 -3.3025e-21)
(0.754139 0.0635518 3.54304e-21)
(0.803884 0.177638 7.69305e-22)
(0.852989 0.278896 -1.92784e-21)
(0.885495 0.378379 2.38145e-21)
(0.895914 0.468108 9.02976e-22)
(0.890938 0.514849 8.86699e-22)
(0.880099 0.484084 -2.40866e-21)
(0.870589 0.364078 -3.00894e-21)
(0.868716 0.178021 1.98929e-21)
(0.875598 -0.0275457 -4.18429e-22)
(0.887136 -0.197741 4.13486e-21)
(0.900804 -0.297644 -6.94947e-21)
(0.907887 -0.331512 3.07184e-21)
(0.893906 -0.33397 1.89531e-21)
(0.859281 -0.329623 3.15175e-22)
(0.826126 -0.301405 -3.34264e-22)
(0.963759 -0.414885 4.24856e-21)
(0.9241 -0.387854 8.67652e-22)
(0.874976 -0.368994 -3.49754e-22)
(0.81415 -0.349106 -1.13039e-21)
(0.757136 -0.299309 -7.00101e-23)
(0.72399 -0.202643 -2.2188e-21)
(0.724009 -0.0738737 4.11714e-22)
(0.754633 0.0563543 7.77046e-22)
(0.803791 0.170507 -2.14989e-22)
(0.853011 0.272748 -1.06784e-21)
(0.886312 0.373855 -1.36567e-21)
(0.897955 0.465749 2.91478e-21)
(0.894236 0.515049 6.49074e-22)
(0.88425 0.486828 -3.1762e-21)
(0.8751 0.368598 -2.18197e-21)
(0.873418 0.182996 1.7108e-21)
(0.880229 -0.0233734 -1.89329e-22)
(0.891163 -0.195235 1.91265e-21)
(0.903994 -0.296715 2.7912e-21)
(0.910863 -0.330936 -1.17572e-21)
(0.897159 -0.332614 -1.98621e-21)
(0.862398 -0.328011 -7.42158e-22)
(0.82846 -0.300922 6.71335e-22)
(0.96759 -0.41294 8.81631e-22)
(0.927779 -0.38551 1.38774e-21)
(0.879262 -0.36573 -1.07554e-21)
(0.818716 -0.346169 -1.00361e-21)
(0.760982 -0.298876 1.63703e-21)
(0.726695 -0.205728 1.34337e-21)
(0.725698 -0.0797393 -1.60828e-21)
(0.755358 0.0491811 -5.90256e-22)
(0.80387 0.163341 -4.74556e-22)
(0.853102 0.266489 2.13094e-22)
(0.88713 0.369154 -4.70858e-22)
(0.899977 0.463189 1.24811e-21)
(0.897522 0.515088 2.03928e-21)
(0.888396 0.489502 -1.51092e-21)
(0.879632 0.373145 2.10709e-21)
(0.878179 0.188074 -1.62176e-21)
(0.884926 -0.019045 3.96956e-21)
(0.895258 -0.192555 -4.18586e-21)
(0.907234 -0.295677 -6.30894e-22)
(0.913857 -0.330348 1.81589e-21)
(0.900438 -0.331279 -1.10664e-21)
(0.865569 -0.326383 6.95414e-22)
(0.830841 -0.300397 -1.16976e-22)
(0.971469 -0.411126 1.94478e-21)
(0.931468 -0.383364 -3.83431e-21)
(0.883568 -0.362652 9.12874e-22)
(0.823367 -0.343302 -1.46689e-21)