/*--------------------------------*- C++ -*----------------------------------*\
  =========                 |
  \\      /  F ield         | OpenFOAM: The Open Source CFD Toolbox
   \\    /   O peration     | Website:  https://openfoam.org
    \\  /    A nd           | Version:  7
     \\/     M anipulation  |
\*---------------------------------------------------------------------------*/
FoamFile
{
    version     2.0;
    format      ascii;
    class       volScalarField;
    location    "40";
    object      p;
}
// * * * * * * * * * * * * * * * * * * * * * * * * * * * * * * * * * * * * * //

dimensions      [0 2 -2 0 0 0 0];

internalField   nonuniform List<scalar> 
4575
(
0.249734
0.258975
0.268021
0.282769
0.276861
0.291905
0.285486
0.300812
0.293884
0.309477
0.302046
0.326617
0.317888
0.30996
0.335239
0.326034
0.317616
0.343567
0.333901
0.325004
0.35159
0.341478
0.332114
0.369475
0.359295
0.348754
0.338934
0.377322
0.36667
0.355717
0.345457
0.384807
0.373703
0.362357
0.351671
0.391917
0.380383
0.368663
0.35757
0.398641
0.3867
0.374626
0.363142
0.41727
0.404968
0.392644
0.380235
0.368382
0.423576
0.410887
0.398204
0.385483
0.37328
0.429439
0.41639
0.403373
0.39036
0.377831
0.434849
0.421467
0.408141
0.394859
0.382026
0.439796
0.42611
0.4125
0.398973
0.38586
0.444273
0.43031
0.416445
0.402695
0.389327
0.448272
0.434062
0.419968
0.406019
0.392422
0.451785
0.437358
0.423063
0.408939
0.395141
0.454808
0.440194
0.425726
0.411451
0.397479
0.457335
0.442564
0.427952
0.413551
0.399432
0.459362
0.444466
0.429737
0.415235
0.400998
0.475988
0.460885
0.445894
0.431078
0.4165
0.402175
0.477071
0.461902
0.446848
0.431974
0.417345
0.402961
0.477614
0.462411
0.447326
0.432422
0.417768
0.403354
0.477614
0.462412
0.447326
0.432423
0.417768
0.403355
0.477072
0.461903
0.446849
0.431975
0.417346
0.402962
0.475989
0.460887
0.445896
0.43108
0.416501
0.402177
0.459364
0.444468
0.429739
0.415236
0.401
0.457338
0.442567
0.427954
0.413553
0.399434
0.454811
0.440197
0.425729
0.411454
0.397481
0.451789
0.437362
0.423067
0.408942
0.395144
0.448276
0.434066
0.419972
0.406022
0.392426
0.444278
0.430314
0.416449
0.402699
0.389331
0.439801
0.426114
0.412505
0.398978
0.385865
0.434855
0.421472
0.408146
0.394865
0.382031
0.429445
0.416396
0.403378
0.390366
0.377836
0.423583
0.410894
0.39821
0.385489
0.373286
0.417277
0.404975
0.39265
0.380242
0.368388
0.398648
0.386707
0.374633
0.363149
0.391925
0.380391
0.368671
0.357577
0.384816
0.373711
0.362365
0.351679
0.377332
0.366679
0.355725
0.345465
0.369485
0.359304
0.348763
0.338943
0.3516
0.341487
0.332123
0.343578
0.333911
0.325014
0.33525
0.326044
0.317627
0.326629
0.317899
0.309971
0.309489
0.302057
0.300824
0.293896
0.291917
0.285498
0.276874
0.268034
0.258989
0.115048
0.116365
0.118873
0.122401
0.126805
0.131997
0.137844
0.144273
0.151126
0.158313
0.165617
0.172904
0.179861
0.186297
0.191751
0.195989
0.198337
0.198608
0.195766
0.18996
0.179323
0.113973
0.115239
0.117639
0.121012
0.125202
0.130119
0.13562
0.14162
0.14795
0.154505
0.161057
0.167457
0.173385
0.17864
0.182769
0.18555
0.186344
0.185011
0.180626
0.173398
0.161928
0.112807
0.114017
0.116302
0.119505
0.123466
0.128089
0.133221
0.13877
0.144556
0.150464
0.156254
0.161773
0.166693
0.170823
0.17372
0.175195
0.174656
0.17203
0.16654
0.158466
0.146869
0.111547
0.112696
0.114858
0.117882
0.121602
0.125915
0.130665
0.135748
0.140978
0.146228
0.151255
0.155898
0.159837
0.162885
0.164626
0.164898
0.163185
0.159447
0.153097
0.14439
0.132766
0.11019
0.111275
0.113309
0.116145
0.119614
0.123609
0.127966
0.132574
0.137242
0.141835
0.146109
0.1499
0.152901
0.154931
0.155617
0.154812
0.152097
0.147443
0.140445
0.131303
0.119714
0.108736
0.109753
0.111654
0.114295
0.117506
0.121173
0.12513
0.129258
0.133364
0.137306
0.140847
0.143819
0.145936
0.147027
0.146767
0.145025
0.141478
0.136104
0.128648
0.119272
0.10785
0.107183
0.10813
0.109893
0.112333
0.115279
0.118611
0.122164
0.12581
0.129359
0.132663
0.135494
0.137687
0.138982
0.139216
0.138119
0.135576
0.131352
0.125436
0.117687
0.108252
0.0971222
0.105531
0.106406
0.108027
0.11026
0.112936
0.115929
0.119075
0.122242
0.125241
0.127925
0.130077
0.131537
0.132073
0.131536
0.129709
0.126493
0.121732
0.115425
0.107522
0.0981585
0.0874049
0.103779
0.104579
0.106056
0.108079
0.11048
0.113132
0.115872
0.118565
0.121029
0.123115
0.124623
0.125399
0.125244
0.124022
0.121567
0.117798
0.112623
0.106056
0.0981089
0.0889146
0.0785866
0.101927
0.102651
0.103982
0.105791
0.107916
0.110228
0.112566
0.114795
0.11674
0.118254
0.119157
0.119304
0.118525
0.116704
0.113716
0.109504
0.104023
0.0973055
0.089404
0.0804479
0.0705761
0.0999767
0.100624
0.101806
0.1034
0.10525
0.107224
0.109167
0.110943
0.11239
0.113364
0.113704
0.113276
0.111942
0.109603
0.106173
0.101615
0.0959245
0.0891452
0.0813598
0.0726916
0.063293
0.0979285
0.0984972
0.099531
0.100911
0.102487
0.104127
0.105685
0.107025
0.107997
0.108464
0.108285
0.107339
0.105517
0.102737
0.0989477
0.0941312
0.0883119
0.0815441
0.0739289
0.0655824
0.0566624
0.0957843
0.0962745
0.0971601
0.0983269
0.0996329
0.100948
0.102132
0.103055
0.103578
0.103574
0.102921
0.101513
0.0992662
0.0961189
0.092046
0.0870466
0.0811671
0.0744691
0.0670646
0.0590612
0.0506157
0.0935461
0.0939583
0.094697
0.0956537
0.096695
0.0976935
0.0985187
0.0990449
0.0991477
0.09871
0.0976288
0.0958143
0.0932049
0.089757
0.0854679
0.0803512
0.0744686
0.0678865
0.0607219
0.0530725
0.0450909
0.0912169
0.0915518
0.0921459
0.0928969
0.0936806
0.0943741
0.0948566
0.0950096
0.0947222
0.0938893
0.0924255
0.0902572
0.087343
0.0836556
0.0792102
0.0740321
0.0681935
0.0617628
0.0548576
0.0475657
0.0400327
0.0887998
0.0890589
0.0895114
0.0900624
0.0905972
0.0909991
0.0911571
0.0909617
0.0903153
0.0891256
0.0873242
0.0848528
0.0816874
0.0778157
0.0732666
0.0680744
0.0623177
0.056065
0.0494314
0.0424947
0.0353919
0.0862988
0.086484
0.0867989
0.0871568
0.0874528
0.0875779
0.0874313
0.0869135
0.08594
0.084432
0.0823363
0.0796095
0.0762426
0.0722357
0.0676284
0.0624616
0.0568171
0.0507616
0.0444058
0.0378177
0.0311249
0.0837182
0.083832
0.0840142
0.0841869
0.0842558
0.0841202
0.0836902
0.0828766
0.0816084
0.0798196
0.0774712
0.0745336
0.0710101
0.0669116
0.0622853
0.0571764
0.0516677
0.0458226
0.0397461
0.0334969
0.0271933
0.0810631
0.0811083
0.0811633
0.08116
0.0810145
0.0806356
0.0799441
0.0788622
0.0773311
0.0752978
0.0727364
0.069629
0.0659897
0.0618377
0.0572256
0.0522012
0.0468459
0.0412196
0.0354205
0.0294986
0.0235628
0.0783388
0.0783186
0.0782529
0.0780836
0.0777374
0.0771334
0.0762031
0.0748801
0.0731176
0.070875
0.0681374
0.064898
0.0611792
0.0570069
0.0524369
0.0475181
0.0423294
0.0369262
0.0314
0.0257924
0.0202034
0.0755511
0.0754693
0.0752899
0.0749653
0.0744331
0.0736227
0.0724766
0.0709397
0.0689765
0.0665575
0.0636784
0.0603412
0.0565751
0.052411
0.0479063
0.0431097
0.0380967
0.032918
0.027658
0.0223511
0.0170886
0.0727065
0.0725669
0.0722815
0.0718129
0.0711098
0.0701124
0.0687736
0.0670494
0.0649148
0.0623508
0.0593618
0.0559576
0.0521725
0.048041
0.0436206
0.038959
0.0341276
0.0291724
0.0241706
0.0191503
0.0141948
0.0698116
0.0696185
0.069235
0.0686344
0.0677761
0.066611
0.0651023
0.0632166
0.0609387
0.0582589
0.0551891
0.0517455
0.047966
0.0438875
0.0395668
0.0350497
0.0304031
0.0256684
0.0209161
0.0161685
0.0115012
0.0668735
0.0666314
0.0661582
0.0654378
0.06444
0.0631265
0.0614704
0.0594481
0.0570533
0.0542848
0.0511604
0.0477018
0.0439492
0.0399409
0.035732
0.0313662
0.0269055
0.0223871
0.0178748
0.013386
0.00898952
0.0638995
0.0636128
0.0630587
0.0622309
0.0611095
0.0596667
0.0578849
0.0557498
0.0532629
0.0504303
0.0472751
0.0438229
0.0401155
0.0361913
0.0321037
0.0278936
0.0236184
0.0193108
0.0150289
0.0107855
0.00664333
0.0608972
0.0605707
0.0599442
0.0590215
0.0577924
0.0562389
0.0543522
0.0521266
0.0495707
0.0466966
0.0435317
0.0401046
0.0364578
0.0326293
0.0286701
0.0246182
0.0205265
0.0164237
0.0123623
0.00835154
0.00444813
0.0578743
0.0575126
0.0568228
0.0558175
0.054496
0.0528498
0.0508781
0.0485831
0.0459793
0.0430842
0.0399282
0.0365424
0.0329689
0.0292453
0.0254195
0.0215269
0.0176157
0.0137112
0.0098606
0.0060701
0.00239102
0.0548387
0.0544465
0.053702
0.0526263
0.0512275
0.0495058
0.0474679
0.0451229
0.0424905
0.0395926
0.0364621
0.0331312
0.0296419
0.0260302
0.0223412
0.0186076
0.0148731
0.0111601
0.00751069
0.00392868
0.000460444
0.0517983
0.0513802
0.0505896
0.0494553
0.0479936
0.0462127
0.0441262
0.0417492
0.0391057
0.0362212
0.0331304
0.0298662
0.0264695
0.0229751
0.0194249
0.0158489
0.012287
0.0087583
0.00530076
0.00191608
-0.00135388
0.0487611
0.0483216
0.0474931
0.0463116
0.0448007
0.042976
0.0408572
0.0384645
0.0358256
0.0329689
0.02993
0.0267422
0.023445
0.0200716
0.016661
0.0132405
0.00984626
0.00649486
0.00322016
2.22339e-05
-0.00306117
0.045735
0.0452784
0.04442
0.043202
0.0416549
0.0398008
0.0376646
0.0352709
0.0326506
0.0298341
0.0268576
0.0237541
0.0205618
0.0173119
0.0140406
0.0107728
0.00754111
0.00435986
0.00125927
-0.00176191
-0.00466968
0.0427277
0.0422581
0.0413774
0.0401333
0.0385619
0.0366916
0.0345515
0.0321702
0.0295808
0.0268152
0.0239097
0.020897
0.0178134
0.0146884
0.0115553
0.00843694
0.00536244
0.0023443
-0.000590578
-0.00344447
-0.00618681
0.039747
0.0392683
0.0383723
0.0371115
0.0355272
0.0336526
0.0315209
0.0291637
0.0266159
0.0239103
0.021083
0.018166
0.0151938
0.012194
0.00919751
0.00622472
0.00330198
0.000440027
-0.00233721
-0.00503275
-0.0076192
0.0368003
0.036316
0.0354114
0.0341427
0.0325556
0.0306876
0.0285752
0.0262525
0.0237553
0.0211174
0.0183741
0.0155566
0.0126973
0.00982243
0.00696004
0.00412878
0.00135224
-0.00136032
-0.00398765
-0.00653332
-0.00897277
0.0338949
0.0334083
0.0325012
0.0312326
0.029652
0.0278003
0.0257167
0.0234373
0.0209986
0.0184346
0.0157797
0.0130642
0.0103187
0.00756746
0.0048364
0.00214233
-0.000493589
-0.0030634
-0.00554825
-0.00795205
-0.0102529
0.0310377
0.0305519
0.0296477
0.0283865
0.0268205
0.0249937
0.0229473
0.0207187
0.0183449
0.0158597
0.0132967
0.0106848
0.00805284
0.00542359
0.00282063
0.000259228
-0.00224166
-0.0046752
-0.00702468
-0.00929422
-0.0114643
0.0282354
0.0277531
0.0268568
0.0256094
0.0240653
0.0222708
0.0202687
0.0180972
0.0157935
0.013391
0.010922
0.00841442
0.00589527
0.00338571
0.000907306
-0.00152609
-0.00389753
-0.0062011
-0.00842205
-0.0105645
-0.0126112
0.0254944
0.0250181
0.0241339
0.0229059
0.0213901
0.0196343
0.0176824
0.0155731
0.0133436
0.0110264
0.0086529
0.00624955
0.00384175
0.00144916
-0.000908492
-0.00321866
-0.00546618
-0.00764594
-0.0097449
-0.0117672
-0.0136975
0.0228209
0.0223526
0.0214844
0.0202806
0.0187983
0.0170865
0.0151896
0.0131467
0.0109943
0.00876425
0.00648671
0.00418684
0.00188842
-0.000390263
-0.0026312
-0.00482299
-0.00695207
-0.009014
-0.0109973
-0.012906
-0.0147266
0.0202206
0.0197621
0.018913
0.0177375
0.0162932
0.0146297
0.0127916
0.0108181
0.00874479
0.00660287
0.00442104
0.00222329
3.18175e-05
-0.00213637
-0.0042648
-0.00634311
-0.00835918
-0.0103091
-0.0121828
-0.0139842
-0.0157013
0.017699
0.0172518
0.0164243
0.0152805
0.0138777
0.0122659
0.0104896
0.00858745
0.00659446
0.00454074
0.00245374
0.000356173
-0.00173119
-0.00379254
-0.00581283
-0.00778261
-0.00969102
-0.0115347
-0.0133047
-0.0150047
-0.0166243
0.0152611
0.0148264
0.0140227
0.0129132
0.0115547
0.00999707
0.00828445
0.00645495
0.00454261
0.00257653
0.000582844
-0.00141692
-0.00340336
-0.00536179
-0.00727842
-0.00914463
-0.0109507
-0.0126936
-0.0143656
-0.0159701
-0.0174979
0.0129118
0.0124905
0.0117122
0.0106389
0.00932674
0.00782497
0.00617719
0.00442077
0.00258872
0.000709062
-0.00119334
-0.00309811
-0.00498714
-0.00684675
-0.00866432
-0.0104319
-0.0121409
-0.0137885
-0.015368
-0.0168825
-0.018324
0.0106556
0.0102483
0.00949659
0.00846087
0.00719626
0.00575132
0.00416878
0.00248516
0.000732375
-0.00106264
-0.00287625
-0.00468922
-0.00648462
-0.00824969
-0.00997286
-0.0116469
-0.0132639
-0.0148216
-0.0163139
-0.0177438
-0.0191042
0.00849675
0.00810399
0.00737943
0.00638206
0.00516565
0.00377778
0.00226019
0.000648427
-0.00102669
-0.00273935
-0.00446712
-0.00619179
-0.00789757
-0.00957254
-0.0112061
-0.0127915
-0.0143217
-0.0157947
-0.0172051
-0.0185555
-0.0198401
0.0064393
0.00606122
0.00536417
0.00440537
0.00323717
0.00190597
0.000452413
-0.001089
-0.0026886
-0.00432165
-0.00596687
-0.00760706
-0.00922744
-0.0108169
-0.0123656
-0.0138674
-0.015316
-0.0167093
-0.0180429
-0.019319
-0.0205326
0.00448711
0.00412371
0.00345409
0.00253361
0.00141306
0.000137558
-0.00125345
-0.00272657
-0.00425326
-0.00580986
-0.00737619
-0.00893597
-0.0104754
-0.0119839
-0.0134527
-0.0148759
-0.0162479
-0.0175667
-0.0188285
-0.0200352
-0.0211826
0.0026439
0.00229499
0.00165236
0.000769511
-0.000304439
-0.00152575
-0.00285622
-0.00426357
-0.00572041
-0.0072041
-0.00869547
-0.0101791
-0.0116421
-0.0130747
-0.0144684
-0.015818
-0.0171184
-0.0183678
-0.0195626
-0.0207048
-0.0217907
0.000913307
0.000578521
-3.78298e-05
-0.000884161
-0.00191304
-0.00308213
-0.00435454
-0.00569911
-0.00708954
-0.00850417
-0.00992482
-0.0113369
-0.0127282
-0.0140896
-0.0154134
-0.0166945
-0.0179283
-0.0191131
-0.0202459
-0.0213283
-0.0223572
-0.000701028
-0.00102221
-0.0016133
-0.00242459
-0.00341033
-0.00452964
-0.0057469
-0.00703206
-0.00835987
-0.00970962
-0.011064
-0.0124092
-0.0137338
-0.0150291
-0.0162879
-0.0175055
-0.0186777
-0.0198029
-0.0208786
-0.0219058
-0.0228824
-0.00219541
-0.00250366
-0.00307075
-0.00384881
-0.00479374
-0.0058661
-0.00703151
-0.008261
-0.00953033
-0.0108196
-0.0121125
-0.0133958
-0.0146586
-0.0158929
-0.0170918
-0.0182511
-0.0193668
-0.0204374
-0.0214606
-0.0224374
-0.023366
-0.00356601
-0.00386212
-0.00440671
-0.00515366
-0.00606048
-0.00708908
-0.0082063
-0.0093842
-0.0105995
-0.0118331
-0.0130694
-0.0142958
-0.0155021
-0.0166806
-0.0178249
-0.018931
-0.0199952
-0.021016
-0.0219916
-0.0229226
-0.0238077
-0.00480874
-0.00509362
-0.00561743
-0.00633569
-0.0072074
-0.00819579
-0.00926884
-0.0103996
-0.0115655
-0.0127484
-0.0139333
-0.0151082
-0.0162633
-0.0173913
-0.0184864
-0.0195444
-0.0205622
-0.0215383
-0.022471
-0.0233609
-0.0242069
-0.00591917
-0.00619386
-0.00669882
-0.00739106
-0.00823098
-0.00918304
-0.0102162
-0.0113045
-0.0124262
-0.0135636
-0.0147025
-0.0158313
-0.0169407
-0.0180238
-0.0190749
-0.0200903
-0.0210669
-0.0220033
-0.022898
-0.0237514
-0.0245627
-0.0068924
-0.00715804
-0.00764625
-0.00831541
-0.00912717
-0.0100471
-0.0110451
-0.0120959
-0.0131786
-0.0142761
-0.0153746
-0.016463
-0.0175325
-0.0185763
-0.019589
-0.0205672
-0.0215079
-0.0224096
-0.0232712
-0.0240928
-0.024874
-0.00772292
-0.00798076
-0.00845452
-0.00910378
-0.00989128
-0.0107835
-0.0117513
-0.0127701
-0.0138194
-0.0148827
-0.0159467
-0.0170007
-0.0180361
-0.0190464
-0.0200265
-0.020973
-0.0218831
-0.0227555
-0.0235889
-0.0243836
-0.0251392
-0.00840445
-0.00865581
-0.00911762
-0.00975041
-0.0105179
-0.0113873
-0.0123301
-0.0133225
-0.0143443
-0.0153796
-0.0164153
-0.017441
-0.0184484
-0.0194313
-0.0203848
-0.0213053
-0.0221905
-0.0230388
-0.0238493
-0.024622
-0.0253567
-0.00892973
-0.00917607
-0.00962859
-0.0102486
-0.0110005
-0.0118522
-0.0127758
-0.0137477
-0.0147484
-0.015762
-0.0167758
-0.0177797
-0.0187657
-0.0197275
-0.0206604
-0.021561
-0.022427
-0.0232569
-0.0240497
-0.0248054
-0.0255241
-0.00929035
-0.00953325
-0.00997935
-0.0105905
-0.0113316
-0.0121711
-0.0130815
-0.0140393
-0.0150254
-0.0160242
-0.0170231
-0.018012
-0.0189832
-0.0199306
-0.0208494
-0.0217364
-0.0225892
-0.0234064
-0.0241872
-0.0249314
-0.0256391
-0.00947644
-0.00971761
-0.0101604
-0.0107669
-0.0115024
-0.0123356
-0.0132391
-0.0141897
-0.0151683
-0.0161594
-0.0171505
-0.0181318
-0.0190954
-0.0200353
-0.0209468
-0.0218268
-0.0226728
-0.0234835
-0.0242581
-0.0249963
-0.0256984
0.122038
0.12343
0.126154
0.129998
0.134874
0.140752
0.147522
0.155245
0.16381
0.173339
0.183695
0.19506
0.207259
0.220531
0.234653
0.249921
0.266044
0.283384
0.301536
0.320983
0.341068
0.362576
0.384255
0.12203
0.123422
0.126145
0.129989
0.134865
0.140742
0.147511
0.155232
0.163795
0.173321
0.183674
0.195035
0.207227
0.220492
0.234603
0.249858
0.265963
0.283283
0.301406
0.32082
0.34086
0.362317
0.383926
0.122013
0.123404
0.126127
0.129971
0.134845
0.140721
0.147488
0.155206
0.163765
0.173286
0.183632
0.194983
0.207164
0.220413
0.234503
0.249732
0.265802
0.283079
0.301146
0.320493
0.340444
0.361799
0.383269
0.121987
0.123378
0.1261
0.129943
0.134816
0.140689
0.147453
0.155167
0.163721
0.173234
0.183569
0.194907
0.207068
0.220294
0.234353
0.249543
0.265561
0.282774
0.300757
0.320003
0.339821
0.361022
0.382285
0.121953
0.123344
0.126064
0.129906
0.134777
0.140647
0.147407
0.155115
0.163661
0.173164
0.183485
0.194804
0.206942
0.220136
0.234153
0.249291
0.265239
0.282368
0.300238
0.319351
0.338992
0.359988
0.380975
0.121911
0.1233
0.12602
0.129859
0.134728
0.140595
0.147349
0.15505
0.163587
0.173076
0.183381
0.194677
0.206783
0.219939
0.233903
0.248976
0.264837
0.281861
0.29959
0.318537
0.337956
0.358698
0.379341
0.12186
0.123249
0.125967
0.129804
0.13467
0.140532
0.147279
0.154972
0.163498
0.172971
0.183255
0.194523
0.206594
0.219702
0.233604
0.248599
0.264356
0.281253
0.298814
0.317561
0.336716
0.357152
0.377383
0.121801
0.123188
0.125904
0.129739
0.134602
0.140459
0.147199
0.154882
0.163394
0.172849
0.183109
0.194345
0.206373
0.219427
0.233255
0.248159
0.263794
0.280545
0.29791
0.316425
0.335272
0.355354
0.375106
0.121734
0.12312
0.125833
0.129665
0.134524
0.140375
0.147107
0.154778
0.163276
0.17271
0.182942
0.194142
0.206121
0.219112
0.232857
0.247658
0.263154
0.279737
0.296879
0.315129
0.333624
0.353303
0.372511
0.121658
0.123042
0.125754
0.129582
0.134437
0.140281
0.147004
0.154662
0.163143
0.172554
0.182755
0.193913
0.205838
0.218758
0.23241
0.247094
0.262435
0.27883
0.29572
0.313674
0.331776
0.351004
0.369602
0.121573
0.122956
0.125665
0.129491
0.13434
0.140177
0.146889
0.154534
0.162995
0.17238
0.182547
0.193659
0.205524
0.218366
0.231914
0.246469
0.261637
0.277823
0.294436
0.312061
0.329728
0.348457
0.366383
0.121481
0.122862
0.125568
0.12939
0.134234
0.140063
0.146763
0.154392
0.162834
0.17219
0.18232
0.193381
0.205179
0.217936
0.231369
0.245783
0.260762
0.276719
0.293027
0.310292
0.327483
0.345666
0.362856
0.12138
0.122759
0.125463
0.12928
0.134119
0.139938
0.146627
0.154239
0.162658
0.171983
0.182072
0.193078
0.204804
0.217467
0.230777
0.245036
0.259808
0.275516
0.291494
0.308368
0.325041
0.342634
0.359028
0.121271
0.122648
0.125348
0.129162
0.133992
0.139803
0.146479
0.154073
0.162468
0.171759
0.181804
0.192751
0.204398
0.216961
0.230136
0.244228
0.258778
0.274217
0.289837
0.306291
0.322406
0.339364
0.354901
0.121153
0.122529
0.125226
0.129035
0.133843
0.139657
0.146321
0.153895
0.162264
0.171519
0.181516
0.192399
0.203963
0.216416
0.229448
0.24336
0.257672
0.272822
0.288059
0.304061
0.31958
0.335858
0.350482
0.121028
0.122402
0.125095
0.1289
0.133735
0.139501
0.146151
0.153705
0.162046
0.171262
0.181209
0.192024
0.203498
0.215835
0.228713
0.242433
0.25649
0.271332
0.286159
0.301682
0.316564
0.332122
0.345776
0.120894
0.122266
0.124955
0.128756
0.133568
0.139336
0.145972
0.153502
0.161814
0.170989
0.180882
0.191624
0.203003
0.215216
0.227931
0.241446
0.255232
0.269747
0.28414
0.299153
0.313362
0.328158
0.340789
0.120752
0.122122
0.124807
0.128603
0.133405
0.139162
0.145781
0.153288
0.161569
0.1707
0.180536
0.191201
0.202479
0.21456
0.227103
0.240401
0.2539
0.268068
0.282003
0.296478
0.309977
0.323971
0.335526
0.120602
0.12197
0.124651
0.128441
0.133235
0.138978
0.14558
0.153063
0.16131
0.170396
0.180171
0.190754
0.201926
0.213868
0.226229
0.239297
0.252495
0.266297
0.279748
0.293659
0.306411
0.319565
0.329995
0.120445
0.12181
0.124487
0.128271
0.133055
0.138785
0.145369
0.152825
0.161038
0.170076
0.179788
0.190285
0.201345
0.213139
0.225309
0.238136
0.251017
0.264433
0.277378
0.290696
0.302667
0.314945
0.324202
0.120279
0.121643
0.124315
0.128093
0.132867
0.138583
0.145148
0.152577
0.160754
0.16974
0.179386
0.189792
0.200735
0.212375
0.224344
0.236917
0.249466
0.26248
0.274894
0.287593
0.298749
0.310115
0.318155
0.120105
0.121467
0.124135
0.127903
0.13267
0.138371
0.144917
0.152317
0.160456
0.169389
0.178965
0.189277
0.200097
0.211576
0.223335
0.235641
0.247844
0.260436
0.272297
0.284352
0.294659
0.305079
0.311859
0.119924
0.121284
0.123947
0.1277
0.132464
0.138151
0.144676
0.152046
0.160145
0.169023
0.178526
0.18874
0.199432
0.210741
0.222282
0.23431
0.246152
0.258303
0.269589
0.280975
0.290401
0.299844
0.305325
0.119735
0.121093
0.123752
0.127519
0.132249
0.137921
0.144425
0.151765
0.159822
0.168642
0.17807
0.18818
0.198739
0.209872
0.221186
0.232923
0.244391
0.256083
0.266772
0.277464
0.285978
0.294415
0.298558
0.119538
0.120894
0.123549
0.127303
0.132026
0.137683
0.144165
0.151472
0.159487
0.168247
0.177596
0.187599
0.198019
0.208968
0.220046
0.231481
0.24256
0.253776
0.263848
0.273821
0.281395
0.288796
0.291568
0.119333
0.120688
0.123339
0.127081
0.131796
0.137437
0.143895
0.151169
0.159139
0.167838
0.177105
0.186997
0.197272
0.208031
0.218864
0.229984
0.240662
0.251384
0.260818
0.27005
0.276653
0.282993
0.284361
0.119121
0.120474
0.12312
0.126854
0.131558
0.137182
0.143616
0.150856
0.15878
0.167414
0.176596
0.186373
0.1965
0.20706
0.217641
0.228434
0.238698
0.248907
0.257684
0.266152
0.271758
0.277012
0.276948
0.118902
0.120253
0.12289
0.12662
0.131312
0.136918
0.143328
0.150533
0.158409
0.166976
0.176071
0.185729
0.195701
0.206056
0.216376
0.226831
0.236668
0.246346
0.254448
0.262129
0.266713
0.270859
0.269335
0.118675
0.120025
0.122647
0.126378
0.131058
0.136647
0.143031
0.150199
0.158027
0.166526
0.17553
0.185064
0.194877
0.20502
0.21507
0.225176
0.234573
0.243703
0.251113
0.257985
0.261522
0.264539
0.26153
0.11844
0.11979
0.122433
0.126129
0.130797
0.136367
0.142726
0.149856
0.157633
0.166061
0.174972
0.18438
0.194027
0.203952
0.213723
0.223468
0.232414
0.240979
0.24768
0.253721
0.256188
0.258059
0.253542
0.118199
0.119548
0.122176
0.125872
0.130529
0.13608
0.142412
0.149504
0.157228
0.165584
0.174398
0.183675
0.193153
0.202852
0.212337
0.22171
0.230192
0.238174
0.244151
0.249339
0.250716
0.251424
0.245378
0.11795
0.119299
0.121917
0.125609
0.130253
0.135785
0.142089
0.149142
0.156813
0.165094
0.173809
0.182951
0.192255
0.201721
0.210912
0.219902
0.227908
0.23529
0.240529
0.244842
0.24511
0.24464
0.237045
0.117694
0.119042
0.121656
0.125339
0.12997
0.135482
0.141758
0.148771
0.156387
0.164591
0.173205
0.182208
0.191332
0.200559
0.209448
0.218043
0.225563
0.232328
0.236815
0.240231
0.239374
0.237713
0.228548
0.117431
0.118779
0.121387
0.125062
0.12968
0.135172
0.14142
0.148391
0.155951
0.164077
0.172585
0.181447
0.190386
0.199368
0.207945
0.216136
0.223157
0.22929
0.233012
0.235508
0.233513
0.230648
0.219893
0.117161
0.118511
0.121112
0.124779
0.129383
0.134855
0.141073
0.148003
0.155505
0.16355
0.171951
0.180667
0.189416
0.198146
0.206405
0.214181
0.220692
0.226175
0.229121
0.230674
0.22753
0.223448
0.116884
0.118234
0.12083
0.124489
0.129079
0.13453
0.140718
0.147604
0.155047
0.163009
0.1713
0.179866
0.18842
0.196891
0.204823
0.212172
0.218163
0.22298
0.22514
0.225727
0.221429
0.216117
0.116601
0.11795
0.120542
0.124192
0.128769
0.134198
0.140355
0.147196
0.154578
0.162455
0.170632
0.179044
0.187398
0.195604
0.203199
0.210113
0.215573
0.219711
0.221076
0.220678
0.215227
0.208668
0.11631
0.117662
0.12025
0.123893
0.128458
0.133867
0.139996
0.146795
0.154118
0.161912
0.169977
0.178235
0.186388
0.194326
0.201582
0.208053
0.212971
0.216416
0.216973
0.215562
0.20895
0.201126
0.116015
0.117368
0.119955
0.123594
0.12815
0.133545
0.139651
0.146414
0.153684
0.161401
0.169359
0.177469
0.185421
0.19309
0.199997
0.20601
0.210362
0.213079
0.212788
0.210302
0.202487
0.193342
0.115709
0.117061
0.119637
0.123261
0.127794
0.133156
0.139217
0.145918
0.153107
0.160714
0.168528
0.176445
0.184151
0.191498
0.198004
0.203504
0.20724
0.209179
0.208022
0.204429
0.195488
0.115711
0.117063
0.119639
0.123263
0.127796
0.133158
0.139219
0.145921
0.15311
0.160717
0.168532
0.176449
0.184156
0.191504
0.198011
0.203511
0.207249
0.209189
0.208033
0.204442
0.195502
0.116016
0.11737
0.119956
0.123596
0.128152
0.133547
0.139653
0.146416
0.153687
0.161405
0.169363
0.177474
0.185427
0.193096
0.200004
0.206018
0.21037
0.213089
0.212799
0.210314
0.202501
0.193357
0.116312
0.117663
0.120252
0.123895
0.128459
0.133869
0.139998
0.146798
0.154121
0.161915
0.169981
0.17824
0.186393
0.194332
0.201588
0.208061
0.212979
0.216426
0.216984
0.215573
0.208964
0.201141
0.116602
0.117952
0.120544
0.124194
0.12877
0.1342
0.140357
0.147199
0.154581
0.162458
0.170636
0.179048
0.187403
0.195609
0.203206
0.210121
0.215581
0.219721
0.221087
0.220689
0.21524
0.208682
0.116886
0.118235
0.120832
0.12449
0.129081
0.134532
0.14072
0.147607
0.155049
0.163012
0.171304
0.17987
0.188425
0.196897
0.204829
0.212179
0.218171
0.222989
0.22515
0.225739
0.221441
0.216131
0.117162
0.118512
0.121114
0.124781
0.129385
0.134857
0.141076
0.148005
0.155507
0.163553
0.171955
0.180671
0.189421
0.198152
0.206411
0.214187
0.2207
0.226183
0.229131
0.230685
0.227542
0.223462
0.117432
0.11878
0.121389
0.125064
0.129682
0.135174
0.141422
0.148394
0.155954
0.16408
0.172589
0.181451
0.190391
0.199373
0.207951
0.216143
0.223165
0.229298
0.233022
0.235519
0.233524
0.230661
0.117695
0.119043
0.121657
0.125341
0.129972
0.135484
0.14176
0.148773
0.15639
0.164594
0.173208
0.182212
0.191336
0.200564
0.209453
0.21805
0.22557
0.232337
0.236824
0.240241
0.239385
0.237726
0.228562
0.117951
0.1193
0.121919
0.12561
0.130254
0.135787
0.142091
0.149144
0.156815
0.165097
0.173812
0.182955
0.192259
0.201726
0.210917
0.219908
0.227915
0.235298
0.240538
0.244852
0.245121
0.244652
0.237058
0.1182
0.11955
0.122177
0.125873
0.13053
0.136082
0.142413
0.149506
0.157231
0.165587
0.174402
0.183679
0.193157
0.202857
0.212343
0.221716
0.230199
0.238182
0.24416
0.249349
0.250727
0.251436
0.245391
0.118441
0.119792
0.122434
0.12613
0.130799
0.136369
0.142728
0.149858
0.157635
0.166064
0.174975
0.184383
0.194031
0.203956
0.213728
0.223474
0.23242
0.240986
0.247688
0.25373
0.256199
0.258071
0.253555
0.118676
0.120026
0.122649
0.12638
0.13106
0.136648
0.143033
0.150201
0.158029
0.166528
0.175533
0.185068
0.194881
0.205024
0.215075
0.225181
0.234579
0.24371
0.251121
0.257994
0.261532
0.26455
0.261543
0.118903
0.120254
0.122892
0.126622
0.131313
0.13692
0.14333
0.150535
0.158411
0.166979
0.176074
0.185732
0.195705
0.20606
0.21638
0.226837
0.236674
0.246353
0.254456
0.262138
0.266723
0.27087
0.269347
0.119122
0.120475
0.123121
0.126856
0.131559
0.137183
0.143618
0.150858
0.158782
0.167416
0.176599
0.186377
0.196503
0.207064
0.217645
0.22844
0.238704
0.248913
0.257691
0.26616
0.271768
0.277023
0.276959
0.119334
0.120689
0.12334
0.127082
0.131797
0.137438
0.143897
0.151171
0.159142
0.16784
0.177107
0.187
0.197276
0.208035
0.218869
0.229989
0.240668
0.25139
0.260825
0.270058
0.276662
0.283003
0.284373
0.119539
0.120895
0.12355
0.127304
0.132028
0.137685
0.144166
0.151474
0.159489
0.168249
0.177599
0.187602
0.198022
0.208972
0.220051
0.231486
0.242566
0.253783
0.263855
0.273829
0.281403
0.288805
0.291578
0.119736
0.121093
0.123753
0.12752
0.13225
0.137923
0.144427
0.151766
0.159824
0.168645
0.178072
0.188183
0.198742
0.209875
0.22119
0.232927
0.244396
0.256089
0.266779
0.277471
0.285987
0.294424
0.298568
0.119925
0.121284
0.123948
0.127701
0.132465
0.138152
0.144677
0.152048
0.160147
0.169025
0.178529
0.188743
0.199435
0.210744
0.222286
0.234314
0.246157
0.258309
0.269595
0.280982
0.290409
0.299853
0.305335
0.120106
0.121468
0.124136
0.127904
0.132671
0.138372
0.144918
0.152319
0.160457
0.169391
0.178967
0.18928
0.2001
0.211579
0.223339
0.235646
0.247849
0.260441
0.272303
0.284359
0.294666
0.305088
0.311869
0.12028
0.121643
0.124316
0.128094
0.132868
0.138584
0.14515
0.152578
0.160755
0.169742
0.179388
0.189795
0.200738
0.212378
0.224348
0.236921
0.249471
0.262485
0.274899
0.2876
0.298756
0.310123
0.318163
0.120445
0.121811
0.124488
0.128272
0.133056
0.138786
0.145371
0.152827
0.16104
0.170077
0.17979
0.190287
0.201348
0.213143
0.225312
0.238139
0.251021
0.264438
0.277383
0.290702
0.302674
0.314952
0.324211
0.120603
0.121971
0.124652
0.128442
0.133236
0.138979
0.145582
0.153064
0.161312
0.170398
0.180173
0.190757
0.201929
0.213871
0.226232
0.239301
0.252499
0.266301
0.279753
0.293664
0.306417
0.319572
0.330003
0.120753
0.122123
0.124808
0.128604
0.133406
0.139163
0.145782
0.15329
0.16157
0.170702
0.180538
0.191203
0.202482
0.214563
0.227106
0.240404
0.253904
0.268072
0.282008
0.296484
0.309983
0.323978
0.335534
0.120895
0.122267
0.124956
0.128757
0.133569
0.139337
0.145973
0.153504
0.161815
0.170991
0.180884
0.191626
0.203005
0.215218
0.227934
0.24145
0.255236
0.269751
0.284145
0.299158
0.313368
0.328165
0.340796
0.121028
0.122402
0.125095
0.128901
0.133736
0.139502
0.146152
0.153706
0.162047
0.171263
0.18121
0.192025
0.2035
0.215837
0.228716
0.242436
0.256493
0.271336
0.286164
0.301686
0.31657
0.332128
0.345783
0.121154
0.12253
0.125226
0.129036
0.133843
0.139658
0.146322
0.153896
0.162265
0.17152
0.181518
0.192401
0.203965
0.216419
0.229451
0.243363
0.257675
0.272826
0.288063
0.304066
0.319585
0.335864
0.350489
0.121271
0.122649
0.125349
0.129162
0.133992
0.139804
0.14648
0.154074
0.162469
0.17176
0.181805
0.192753
0.2044
0.216963
0.230139
0.244231
0.258781
0.274221
0.289841
0.306295
0.322411
0.339369
0.354907
0.12138
0.12276
0.125463
0.129281
0.134119
0.139939
0.146628
0.15424
0.162659
0.171984
0.182073
0.19308
0.204806
0.217469
0.230779
0.245038
0.259811
0.27552
0.291497
0.308372
0.325046
0.342639
0.359033
0.121481
0.122863
0.125569
0.12939
0.134234
0.140063
0.146764
0.154393
0.162835
0.172191
0.182321
0.193383
0.205181
0.217938
0.231371
0.245785
0.260764
0.276722
0.29303
0.310296
0.327487
0.345671
0.362861
0.121574
0.122957
0.125666
0.129491
0.134341
0.140178
0.14689
0.154534
0.162996
0.172381
0.182549
0.193661
0.205525
0.218368
0.231916
0.246471
0.26164
0.277826
0.294439
0.312064
0.329732
0.348461
0.366387
0.121658
0.123043
0.125754
0.129583
0.134438
0.140282
0.147004
0.154663
0.163143
0.172554
0.182756
0.193914
0.205839
0.21876
0.232411
0.247096
0.262437
0.278832
0.295723