/*--------------------------------*- C++ -*----------------------------------*\
  =========                 |
  \\      /  F ield         | OpenFOAM: The Open Source CFD Toolbox
   \\    /   O peration     | Website:  https://openfoam.org
    \\  /    A nd           | Version:  7
     \\/     M anipulation  |
\*---------------------------------------------------------------------------*/
FoamFile
{
    version     2.0;
    format      ascii;
    class       volVectorField;
    location    "40";
    object      U;
}
// * * * * * * * * * * * * * * * * * * * * * * * * * * * * * * * * * * * * * //

dimensions      [0 1 -1 0 0 0 0];

internalField   nonuniform List<vector> 
4575
(
(0.80428 0.300783 -1.49965e-19)
(0.79534 0.293981 2.74947e-19)
(0.786595 0.286864 -1.54113e-19)
(0.76396 0.29523 -8.66037e-20)
(0.778054 0.279436 -6.28296e-20)
(0.755124 0.287069 1.01826e-19)
(0.769726 0.271702 4.99837e-20)
(0.746515 0.278595 -2.6777e-20)
(0.76162 0.263669 9.98803e-20)
(0.738146 0.269814 -2.91558e-20)
(0.753747 0.255344 -1.38672e-19)
(0.712719 0.275687 1.35224e-19)
(0.730026 0.260732 8.58716e-20)
(0.746116 0.246733 6.43434e-20)
(0.70435 0.265797 -8.85656e-20)
(0.722168 0.251359 -6.28948e-20)
(0.738737 0.237845 6.10385e-21)
(0.69627 0.255604 -7.64031e-20)
(0.714582 0.241701 -2.75749e-20)
(0.731619 0.228688 4.64512e-20)
(0.688492 0.245117 -2.99946e-20)
(0.70728 0.231768 2.35069e-19)
(0.724772 0.219271 -1.4866e-19)
(0.661044 0.247869 6.59836e-20)
(0.681026 0.234347 -5.37162e-20)
(0.700271 0.221569 -4.65348e-20)
(0.718205 0.209605 1.01454e-19)
(0.653404 0.236218 9.99064e-20)
(0.673883 0.223305 1.36789e-19)
(0.693567 0.211116 2.69622e-20)
(0.711927 0.199698 -1.19965e-19)
(0.64612 0.224286 -2.48127e-20)
(0.667075 0.212002 -1.449e-20)
(0.687176 0.200419 1.96581e-20)
(0.705947 0.189563 1.10091e-19)
(0.639203 0.212087 4.6338e-20)
(0.660611 0.200451 -6.78795e-20)
(0.681109 0.189488 -6.19508e-20)
(0.700272 0.179208 -1.1837e-19)
(0.632665 0.199634 2.2084e-20)
(0.654501 0.188663 -6.59367e-21)
(0.675374 0.178336 2.02871e-21)
(0.694912 0.168646 6.51754e-20)
(0.603047 0.197937 7.9375e-20)
(0.626515 0.186942 -8.81318e-20)
(0.648755 0.176653 1.66141e-19)
(0.66998 0.166975 -1.47337e-19)
(0.689873 0.157889 5.27921e-20)
(0.59689 0.184276 -5.16377e-20)
(0.620764 0.174024 5.13218e-21)
(0.643381 0.164432 -1.46095e-19)
(0.664936 0.155417 1.02571e-19)
(0.685163 0.146948 9.34176e-20)
(0.591168 0.170387 7.15107e-20)
(0.615419 0.160895 9.30641e-21)
(0.638387 0.152016 2.30945e-20)
(0.660249 0.143676 9.16882e-21)
(0.680788 0.135836 -1.02978e-19)
(0.585889 0.156289 -1.00871e-19)
(0.61049 0.147571 1.29595e-20)
(0.633782 0.139418 8.27369e-20)
(0.655926 0.131764 -1.1549e-19)
(0.676755 0.124565 -5.97233e-22)
(0.581064 0.141997 9.29532e-20)
(0.605983 0.134068 -6.93295e-20)
(0.629572 0.126653 -8.44835e-21)
(0.651975 0.119696 6.60968e-20)
(0.67307 0.113148 -1.20135e-19)
(0.576698 0.12753 -8.29564e-20)
(0.601907 0.120401 1.81677e-20)
(0.625764 0.113735 -1.1901e-20)
(0.6484 0.107485 -4.1314e-20)
(0.669738 0.101599 1.61166e-20)
(0.5728 0.112904 1.77163e-20)
(0.598267 0.106587 4.10054e-20)
(0.622364 0.100681 7.23949e-21)
(0.645209 0.095146 -8.80166e-21)
(0.666763 0.0899302 1.04193e-21)
(0.569375 0.0981377 5.03224e-20)
(0.595069 0.0926428 4.16814e-20)
(0.619377 0.0875057 2.01981e-20)
(0.642405 0.0826929 4.57657e-20)
(0.664151 0.0781558 1.81592e-20)
(0.566429 0.083249 -1.71318e-20)
(0.592319 0.0785847 -3.4071e-20)
(0.616808 0.0742244 -3.4862e-21)
(0.639994 0.0701407 -6.61373e-20)
(0.661905 0.0662893 1.27426e-21)
(0.563967 0.0682564 -3.57304e-20)
(0.59002 0.06443 -4.98554e-21)
(0.614661 0.0608532 -1.07756e-20)
(0.637978 0.0575043 5.04851e-20)
(0.660028 0.0543447 -8.44347e-21)
(0.561992 0.0531785 5.06402e-20)
(0.588177 0.0501961 6.33242e-20)
(0.612939 0.0474084 -9.16201e-21)
(0.636362 0.0447988 2.29035e-20)
(0.658523 0.042336 -1.01503e-20)
(0.532699 0.0403159 1.73117e-20)
(0.560509 0.0380342 4.28576e-21)
(0.586792 0.0359004 -2.13117e-20)
(0.611645 0.033906 -2.05795e-21)
(0.635148 0.0320394 -4.94313e-20)
(0.657392 0.0302774 2.02294e-20)
(0.531638 0.0242128 8.49778e-21)
(0.559518 0.0228422 -2.33827e-20)
(0.585867 0.0215605 2.17517e-21)
(0.610782 0.0203625 -1.01706e-21)
(0.634337 0.0192414 1.2546e-20)
(0.656637 0.018183 2.76586e-22)
(0.531107 0.00807895 -4.31766e-21)
(0.559022 0.00762164 5.66827e-21)
(0.585404 0.00719398 1.08934e-20)
(0.610349 0.00679427 7.99926e-22)
(0.633931 0.00642023 1.17275e-21)
(0.656259 0.00606705 5.06659e-21)
(0.531107 -0.00806517 -5.12875e-21)
(0.559022 -0.00760844 5.0403e-21)
(0.585404 -0.00718135 1.11813e-20)
(0.610349 -0.00678219 9.42525e-22)
(0.633931 -0.00640867 8.1762e-22)
(0.656259 -0.00605601 5.39726e-21)
(0.531637 -0.024199 3.54255e-21)
(0.559518 -0.022829 -1.85644e-20)
(0.585867 -0.0215478 5.47345e-21)
(0.610781 -0.0203504 -8.76397e-22)
(0.634337 -0.0192299 9.26457e-21)
(0.656637 -0.0181719 9.31714e-22)
(0.532698 -0.0403021 1.13472e-20)
(0.560508 -0.038021 3.68432e-21)
(0.586791 -0.0358878 -2.83133e-20)
(0.611644 -0.0338939 1.65655e-21)
(0.635147 -0.0320279 -3.98185e-20)
(0.657391 -0.0302664 8.76198e-21)
(0.561991 -0.0531654 5.19559e-20)
(0.588176 -0.0501835 4.69793e-20)
(0.612938 -0.0473963 -2.39025e-20)
(0.636361 -0.0447873 3.10205e-20)
(0.658522 -0.042325 -6.74402e-22)
(0.563965 -0.0682433 -5.09459e-20)
(0.590019 -0.0644174 -8.91431e-21)
(0.614659 -0.0608412 -1.16771e-20)
(0.637977 -0.0574928 1.83809e-20)
(0.660026 -0.0543337 -1.30528e-21)
(0.566427 -0.0832359 -5.22372e-21)
(0.592317 -0.0785721 -2.43728e-20)
(0.616806 -0.0742124 1.27316e-20)
(0.639992 -0.0701293 -1.06245e-19)
(0.661903 -0.0662784 3.74395e-20)
(0.569373 -0.0981246 6.78116e-20)
(0.595067 -0.0926303 1.78063e-20)
(0.619375 -0.0874938 2.5994e-20)
(0.642403 -0.0826815 5.97957e-20)
(0.664149 -0.0781449 -3.11728e-20)
(0.572797 -0.112891 5.5997e-20)
(0.598264 -0.106575 -2.30202e-20)
(0.622361 -0.100669 1.62959e-20)
(0.645207 -0.0951346 3.40594e-20)
(0.666761 -0.0899194 -1.2305e-20)
(0.576695 -0.127517 -1.06678e-19)
(0.601904 -0.120389 -1.36681e-20)
(0.625761 -0.113724 -3.08523e-20)
(0.648398 -0.107474 -1.97107e-20)
(0.669735 -0.101588 5.00391e-20)
(0.58106 -0.141984 6.94374e-20)
(0.60598 -0.134056 -7.8124e-20)
(0.629569 -0.126641 -1.6723e-20)
(0.651972 -0.119685 6.07192e-20)
(0.673067 -0.113138 -4.85026e-20)
(0.585886 -0.156276 -1.38556e-19)
(0.610486 -0.147559 5.76277e-20)
(0.633778 -0.139406 7.76541e-20)
(0.655923 -0.131753 -1.39019e-19)
(0.676752 -0.124554 4.77698e-22)
(0.591164 -0.170374 1.19929e-19)
(0.615415 -0.160883 1.39991e-20)
(0.638383 -0.152004 -3.97258e-21)
(0.660245 -0.143665 6.58577e-21)
(0.680785 -0.135825 -8.66027e-20)
(0.596886 -0.184263 3.36971e-20)
(0.62076 -0.174012 -9.91145e-20)
(0.643377 -0.164421 -1.20283e-19)
(0.664932 -0.155406 1.37207e-19)
(0.685159 -0.146938 8.43266e-20)
(0.603043 -0.197925 -1.28134e-19)
(0.626511 -0.18693 2.94359e-20)
(0.64875 -0.176641 6.24715e-20)
(0.669976 -0.166964 -7.67263e-20)
(0.689869 -0.157879 -1.5348e-20)
(0.63266 -0.199622 7.92281e-20)
(0.654496 -0.188652 -9.06279e-20)
(0.675369 -0.178325 5.14899e-20)
(0.694908 -0.168636 7.33181e-20)
(0.639198 -0.212075 -5.15631e-21)
(0.660606 -0.20044 -4.05245e-21)
(0.681104 -0.189477 -7.43459e-20)
(0.700268 -0.179198 -1.71553e-19)
(0.646114 -0.224274 -2.35964e-20)
(0.667069 -0.211991 -8.39172e-20)
(0.687171 -0.200408 3.17225e-20)
(0.705942 -0.189552 1.59903e-19)
(0.653398 -0.236206 5.75614e-20)
(0.673878 -0.223294 1.20504e-19)
(0.693561 -0.211106 1.52428e-20)
(0.711922 -0.199688 -1.58477e-19)
(0.661038 -0.247858 -1.46495e-19)
(0.68102 -0.234336 -2.82125e-20)
(0.700265 -0.221559 -2.38934e-20)
(0.718199 -0.209595 1.00538e-19)
(0.688486 -0.245106 -4.68419e-21)
(0.707274 -0.231757 1.09886e-19)
(0.724766 -0.219261 5.15388e-20)
(0.696264 -0.255593 -5.57368e-20)
(0.714576 -0.24169 -6.37626e-21)
(0.731613 -0.228678 6.26044e-20)
(0.704343 -0.265786 -3.68442e-21)
(0.722161 -0.251348 -1.12217e-19)
(0.73873 -0.237835 -4.77114e-20)
(0.712712 -0.275677 8.74877e-20)
(0.730019 -0.260722 8.37909e-20)
(0.746109 -0.246723 8.15962e-20)
(0.738138 -0.269804 -3.21448e-20)
(0.75374 -0.255334 -8.7066e-20)
(0.746508 -0.278585 -1.32747e-19)
(0.761613 -0.26366 5.94815e-20)
(0.755116 -0.28706 2.16728e-19)
(0.769718 -0.271693 4.59e-20)
(0.778046 -0.279427 -2.95496e-20)
(0.786587 -0.286855 -1.2562e-19)
(0.795332 -0.293972 2.18354e-19)
(0.999957 0.00240055 0)
(0.998632 0.00713005 0)
(0.996035 0.0119328 0)
(0.992508 0.0169413 0)
(0.987986 0.0223207 0)
(0.982748 0.0282159 0)
(0.976672 0.0347647 0)
(0.970064 0.0421125 0)
(0.962755 0.0504102 0)
(0.955134 0.0598042 0)
(0.946976 0.0704782 0)
(0.938835 0.0825638 0)
(0.930389 0.0962847 0)
(0.922475 0.111713 0)
(0.914563 0.129125 0)
(0.908002 0.148421 0)
(0.90176 0.169999 0)
(0.898177 0.193302 0)
(0.895007 0.219243 -1.14747e-28)
(0.8967 0.245779 1.22097e-28)
(0.898077 0.276489 0)
(0.999959 0.00254479 0)
(0.998688 0.00756282 0)
(0.996191 0.0126447 0)
(0.992807 0.0179319 0)
(0.988472 0.0235997 0)
(0.983482 0.0297791 0)
(0.97771 0.0366266 0)
(0.971492 0.0442563 0)
(0.964648 0.0528436 0)
(0.957617 0.0624815 0)
(0.950152 0.0733859 0)
(0.94288 0.085599 0)
(0.935428 0.0993982 0)
(0.928751 0.1147 0)
(0.9222 0.131895 0)
(0.917319 0.150587 0)
(0.912813 0.171483 0)
(0.911369 0.193342 -4.93809e-29)
(0.910168 0.218006 5.25631e-29)
(0.914342 0.241533 -6.36263e-29)
(0.91731 0.270361 6.77156e-29)
(0.999959 0.00268974 0)
(0.99875 0.00799675 0)
(0.996365 0.0133623 0)
(0.993148 0.0189317 0)
(0.98903 0.0248924 0)
(0.984323 0.0313587 0)
(0.978893 0.0385066 0)
(0.973107 0.0464167 0)
(0.966771 0.0552895 0)
(0.960371 0.0651602 0)
(0.953629 0.0762794 0)
(0.947242 0.0885922 0)
(0.940777 0.102435 0)
(0.93529 0.117553 0)
(0.930011 0.13447 0)
(0.92663 0.152463 0)
(0.923636 0.172574 0)
(0.923908 0.192876 0)
(0.924272 0.216076 0)
(0.930037 0.236789 0)
(0.934172 0.263159 0)
(0.99996 0.00283291 0)
(0.998815 0.00842399 0)
(0.996553 0.0140676 0)
(0.993517 0.0199095 0)
(0.989635 0.0261495 0)
(0.985235 0.0328852 0)
(0.980176 0.0403099 0)
(0.974852 0.0484725 0)
(0.969056 0.0575945 0)
(0.963313 0.0676577 0)
(0.957321 0.0789422 0)
(0.951825 0.0913026 0)
(0.946348 0.105129 0)
(0.941999 0.120011 0)
(0.937939 0.13659 0)
(0.935894 0.153858 0)
(0.934267 0.173145 0)
(0.935893 0.192001 0)
(0.937583 0.213715 0)
(0.944308 0.232185 0)
(0.949474 0.256179 0)
(0.99996 0.002972 0)
(0.998883 0.0088375 0)
(0.996751 0.0147484 0)
(0.993906 0.0208485 0)
(0.990274 0.0273498 0)
(0.986196 0.0343323 0)
(0.981529 0.0420043 0)
(0.976683 0.0503832 0)
(0.97145 0.0597084 0)
(0.966374 0.0699097 0)
(0.961146 0.0812927 0)
(0.956529 0.0936263 0)
(0.952031 0.10735 0)
(0.948757 0.121908 0)
(0.94586 0.138052 0)
(0.944996 0.154535 0)
(0.944612 0.172906 0)
(0.947309 0.190375 0)
(0.950129 0.210557 0)
(0.957444 0.227108 0)
(0.963454 0.24886 0)
(0.999962 0.0031061 0)
(0.998954 0.00923462 0)
(0.996958 0.0154007 0)
(0.994311 0.0217439 0)
(0.99094 0.0284877 0)
(0.987194 0.0356935 0)
(0.982932 0.0435829 0)
(0.978573 0.0521415 0)
(0.973915 0.0616242 0)
(0.969504 0.0719091 0)
(0.965042 0.0833251 0)
(0.961274 0.0955593 0)
(0.95773 0.109095 0)
(0.955455 0.123251 0)
(0.953649 0.138865 0)
(0.95382 0.154512 0)
(0.954541 0.171888 0)
(0.95809 0.188014 0)
(0.961841 0.206646 0)
(0.969512 0.221469 0)
(0.97612 0.241087 0)
(0.999963 0.00323458 0)
(0.999027 0.0096137 0)
(0.997173 0.0160219 0)
(0.994728 0.022592 0)
(0.991629 0.0295585 0)
(0.988219 0.0369633 0)
(0.984373 0.0450395 0)
(0.980501 0.053741 0)
(0.976423 0.0633357 0)
(0.972664 0.0736523 0)
(0.968957 0.0850396 0)
(0.966 0.0971099 0)
(0.963369 0.110384 0)
(0.962009 0.124074 0)
(0.961206 0.139085 0)
(0.962273 0.15387 0)
(0.963953 0.170207 0)
(0.968174 0.185054 0)
(0.972665 0.20216 0)
(0.980519 0.215424 0)
(0.987512 0.233049 0)
(0.999966 0.00335678 0)
(0.999102 0.00997295 0)
(0.997395 0.0166088 0)
(0.995157 0.0233885 0)
(0.992336 0.0305566 0)
(0.989266 0.0381349 0)
(0.98584 0.0463664 0)
(0.982453 0.0551735 0)
(0.978951 0.0648354 0)
(0.975827 0.0751339 0)
(0.972852 0.086434 0)
(0.970661 0.0982835 0)
(0.968886 0.11123 0)
(0.968358 0.124408 0)
(0.968456 0.138761 0)
(0.970293 0.15268 0)
(0.972784 0.167959 0)
(0.977526 0.181602 0)
(0.982582 0.197245 0)
(0.990487 0.209114 0)
(0.997703 0.224922 -6.55515e-30)
(0.999969 0.00347204 0)
(0.999178 0.0103105 0)
(0.997623 0.0171581 0)
(0.995594 0.0241291 0)
(0.993057 0.0314764 0)
(0.990327 0.0392019 0)
(0.987323 0.0475563 0)
(0.984414 0.0564323 0)
(0.981478 0.066117 0)
(0.978967 0.0763507 0)
(0.976693 0.0875089 0)
(0.975217 0.0990885 0)
(0.974236 0.11165 0)
(0.974455 0.124283 0)
(0.975347 0.137937 0)
(0.977837 0.150998 0)
(0.980999 0.165227 0)
(0.986128 0.177742 0)
(0.991602 0.192007 0)
(0.999454 0.20263 0)
(1.00677 0.216803 0)
(0.999972 0.00357971 0)
(0.999256 0.0106245 0)
(0.997855 0.0176669 0)
(0.996037 0.0248096 0)
(0.993787 0.0323127 0)
(0.991396 0.0401586 0)
(0.988813 0.0486034 0)
(0.986372 0.0575124 0)
(0.983987 0.0671769 0)
(0.982061 0.0773028 0)
(0.98045 0.088269 0)
(0.979639 0.0995369 0)
(0.97938 0.111667 0)
(0.980262 0.123731 0)
(0.981846 0.136661 0)
(0.984877 0.148882 0)
(0.988582 0.162086 0)
(0.993986 0.173547 0)
(0.999749 0.18653 0)
(1.00747 0.196039 0)
(1.0148 0.20875 0)
(0.999975 0.00367915 0)
(0.999335 0.0109132 0)
(0.998091 0.0181321 0)
(0.996485 0.0254263 0)
(0.994521 0.0330611 0)
(0.992467 0.0410005 0)
(0.990297 0.0495031 0)
(0.988312 0.0584105 0)
(0.986459 0.068014 0)
(0.985089 0.077993 0)
(0.984098 0.0887226 0)
(0.983897 0.0996441 0)
(0.984289 0.111306 0)
(0.985754 0.122786 0)
(0.987929 0.134984 0)
(0.991401 0.146388 0)
(0.995533 0.158605 0)
(1.00111 0.169086 0)
(1.00706 0.180888 0)
(1.0146 0.189402 0)
(1.02186 0.200806 0)
(0.999979 0.00376975 0)
(0.999415 0.0111751 0)
(0.998327 0.018551 0)
(0.996933 0.0259758 0)
(0.995255 0.0337175 0)
(0.993533 0.0417235 0)
(0.991767 0.0502519 0)
(0.990223 0.0591249 0)
(0.988877 0.0686291 0)
(0.988031 0.0784261 0)
(0.987616 0.0888804 0)
(0.987969 0.0994277 0)
(0.988941 0.110595 0)
(0.990909 0.121485 0)
(0.993582 0.132952 2.02949e-28)
(0.997404 0.143569 -2.16068e-28)
(1.00186 0.154846 0)
(1.00754 0.164422 0)
(1.01358 0.175139 -3.56062e-29)
(1.02089 0.182766 4.70423e-30)
(1.02803 0.193006 3.5328e-29)
(0.999982 0.00385094 0)
(0.999495 0.0114086 0)
(0.998564 0.0189213 0)
(0.99738 0.0264552 0)
(0.995983 0.0342786 0)
(0.994587 0.0423248 0)
(0.993213 0.0508477 0)
(0.992093 0.0596552 0)
(0.991227 0.0690249 0)
(0.99087 0.078609 0)
(0.990982 0.0887557 0)
(0.991835 0.0989072 0)
(0.993317 0.109563 0)
(0.995715 0.119863 0)
(0.9988 0.130612 0)
(1.00289 0.140475 0)
(1.00759 0.150866 0)
(1.0133 0.159606 0)
(1.01936 0.169335 0)
(1.02641 0.176172 0)
(1.03338 0.185375 0)
(0.999986 0.00392219 0)
(0.999574 0.0116125 0)
(0.998798 0.0192407 0)
(0.997823 0.026862 0)
(0.996701 0.0347417 0)
(0.995622 0.0428021 0)
(0.994625 0.0512896 0)
(0.993908 0.0600027 0)
(0.993493 0.069206 0)
(0.99359 0.0785503 0)
(0.994181 0.0883632 0)
(0.995479 0.0981029 0)
(0.997403 0.108238 0)
(1.00016 0.117954 0)
(1.00358 0.128005 0)
(1.00787 0.137153 0)
(1.01273 0.146714 0)
(1.01842 0.154686 0)
(1.02445 0.163517 0)
(1.03122 0.16965 0)
(1.03799 0.177932 0)
(0.999989 0.00398307 0)
(0.999653 0.0117857 0)
(0.999029 0.0195075 0)
(0.998258 0.0271941 0)
(0.997404 0.0351051 0)
(0.996632 0.0431544 0)
(0.995994 0.051578 0)
(0.995659 0.0601698 0)
(0.995663 0.0691786 0)
(0.996176 0.07826 0)
(0.997198 0.0877191 0)
(0.998889 0.0970365 0)
(1.00119 0.106648 0)
(1.00425 0.115792 0)
(1.00793 0.125171 0)
(1.01236 0.133642 0)
(1.01732 0.14243 0)
(1.02294 0.149701 0)
(1.02889 0.157717 0)
(1.03537 0.163225 0)
(1.04192 0.170688 0)
(0.999992 0.00403317 0)
(0.999731 0.0119271 0)
(0.999255 0.0197204 0)
(0.998684 0.0274501 0)
(0.998088 0.0353676 0)
(0.99761 0.0433813 0)
(0.997312 0.0517144 0)
(0.997336 0.0601604 0)
(0.997726 0.0689504 0)
(0.998617 0.0777498 0)
(1.00002 0.0868403 0)
(1.00205 0.0957298 0)
(1.00468 0.104822 0)
(1.00798 0.11341 0)
(1.01186 0.122147 0)
(1.01638 0.129982 0)
(1.02137 0.138053 0)
(1.02689 0.144683 0)
(1.03273 0.151963 0)
(1.03892 0.156916 0)
(1.04523 0.163649 0)
(0.999995 0.00407222 0)
(0.999807 0.012036 0)
(0.999475 0.0198782 0)
(0.999097 0.027629 0)
(0.998748 0.0355289 0)
(0.998551 0.0434835 0)
(0.998572 0.0517016 0)
(0.998929 0.0599796 0)
(0.999672 0.0685302 0)
(1.0009 0.0770322 0)
(1.00265 0.0857445 0)
(1.00497 0.0942049 0)
(1.00786 0.102787 0)
(1.01135 0.110838 0)
(1.01537 0.118964 0)
(1.01993 0.126204 0)
(1.02493 0.133614 0)
(1.03032 0.13966 0)
(1.03602 0.146274 0)
(1.04192 0.150734 0)
(1.04799 0.156818 9.04427e-30)
(0.999997 0.0041 0)
(0.999881 0.0121118 0)
(0.999687 0.0199805 0)
(0.999495 0.0277303 0)
(0.999381 0.0355895 0)
(0.999448 0.0434626 0)
(0.999767 0.0515433 0)
(1.00043 0.0596337 0)
(1.00149 0.0679278 0)
(1.00303 0.0761208 0)
(1.00506 0.0844495 0)
(1.00763 0.0924836 0)
(1.01074 0.100569 0)
(1.01437 0.108104 0)
(1.01849 0.115653 0)
(1.02305 0.122339 0)
(1.02802 0.129139 -5.61545e-29)
(1.03326 0.134654 5.97781e-29)
(1.03879 0.140667 0)
(1.04441 0.144689 0)
(1.05024 0.150195 0)
(0.999999 0.00411638 0)
(0.999952 0.0121543 0)
(0.99989 0.020027 0)
(0.999875 0.0277543 0)
(0.999983 0.0355505 0)
(1.0003 0.0433213 0)
(1.00089 0.0512444 0)
(1.00183 0.0591298 0)
(1.00318 0.0671539 0)
(1.00498 0.0750295 0)
(1.00727 0.0829735 0)
(1.01004 0.0905872 0)
(1.01332 0.0981909 0)
(1.01705 0.105234 0)
(1.02123 0.112241 0)
(1.02576 0.118411 0)
(1.03066 0.12465 0)
(1.03575 0.129684 0)
(1.0411 0.135156 0)
(1.04644 0.138787 0)
(1.05202 0.143777 0)
(1 0.00412133 0)
(1.00002 0.0121634 0)
(1.00008 0.0200181 0)
(1.00024 0.0277017 0)
(1.00055 0.0354139 0)
(1.0011 0.0430628 0)
(1.00194 0.0508106 0)
(1.00314 0.0584762 0)
(1.00474 0.0662198 0)
(1.00677 0.0737729 0)
(1.00926 0.0813342 0)
(1.0122 0.0885365 0)
(1.0156 0.0956765 0)
(1.0194 0.102252 0)
(1.0236 0.10875 0)
(1.02808 0.114443 0)
(1.03289 0.120169 0)
(1.0378 0.124765 0)
(1.04298 0.129748 -9.72794e-30)
(1.04805 0.133032 2.03321e-30)
(1.05338 0.13756 8.85589e-30)
(1 0.00411493 0)
(1.00008 0.0121392 0)
(1.00026 0.0199544 0)
(1.00057 0.0275738 0)
(1.00108 0.0351824 0)
(1.00184 0.0426913 0)
(1.00291 0.0502481 0)
(1.00433 0.0576818 0)
(1.00615 0.0651374 0)
(1.00838 0.0723657 0)
(1.01105 0.0795491 0)
(1.01412 0.086351 0)
(1.01761 0.093047 0)
(1.02144 0.0991801 0)
(1.02563 0.105203 0)
(1.03004 0.110454 0)
(1.03473 0.11571 0)
(1.03947 0.119909 0)
(1.04445 0.124451 0)
(1.04926 0.127426 0)
(1.05436 0.131541 0)
(1 0.0040973 0)
(1.00014 0.0120822 0)
(1.00043 0.019837 0)
(1.00089 0.0273725 0)
(1.00157 0.0348591 0)
(1.00252 0.0422117 0)
(1.0038 0.0495641 0)
(1.00542 0.0567559 0)
(1.00743 0.0639188 0)
(1.00982 0.0708226 0)
(1.01263 0.0776352 0)
(1.01579 0.0840498 0)
(1.01934 0.0903223 0)
(1.02317 0.0960382 0)
(1.02733 0.101618 0)
(1.03165 0.106462 7.40673e-29)
(1.03622 0.111287 -7.88514e-29)
(1.04078 0.115127 0)
(1.04556 0.11927 0)
(1.05013 0.121969 0)
(1.05499 0.125714 0)
(1.00001 0.00406869 0)
(1.0002 0.011993 0)
(1.00059 0.0196673 0)
(1.00118 0.0271003 0)
(1.00203 0.0344479 0)
(1.00315 0.0416296 0)
(1.0046 0.0487662 0)
(1.00639 0.0557086 0)
(1.00857 0.0625762 0)
(1.01109 0.069158 0)
(1.014 0.075609 0)
(1.01723 0.0816505 0)
(1.02082 0.0875206 0)
(1.02463 0.0928443 0)
(1.02873 0.0980125 0)
(1.03294 0.10248 0)
(1.03737 0.106912 0)
(1.04175 0.110426 0)
(1.04635 0.114209 0)
(1.05067 0.116661 0)
(1.0553 0.120073 0)
(1.00001 0.00402941 0)
(1.00025 0.0118726 0)
(1.00073 0.0194471 0)
(1.00145 0.02676 0)
(1.00243 0.0339532 0)
(1.00371 0.040951 0)
(1.00532 0.0478626 0)
(1.00726 0.0545499 0)
(1.00956 0.061122 0)
(1.01219 0.0673862 0)
(1.01519 0.0734862 0)
(1.01846 0.0791697 0)
(1.02204 0.0846587 0)
(1.02582 0.0896147 0)
(1.02984 0.0944005 0)
(1.03393 0.0985225 0)
(1.03823 0.102594 0)
(1.04243 0.105813 0)
(1.04682 0.10927 0)
(1.05092 0.111502 0)
(1.05533 0.114613 -4.36144e-30)
(1.00001 0.00397984 0)
(1.0003 0.011722 0)
(1.00086 0.0191787 0)
(1.00169 0.0263549 0)
(1.0028 0.0333797 0)
(1.00421 0.0401824 0)
(1.00596 0.0468616 -8.09994e-30)
(1.00801 0.0532902 8.62566e-30)
(1.01043 0.0595684 0)
(1.01314 0.0655209 0)
(1.01618 0.0712817 3.64723e-29)
(1.01947 0.076623 -3.8836e-29)
(1.02304 0.0817521 0)
(1.02675 0.0863638 0)
(1.03069 0.090795 0)
(1.03466 0.0945989 0)
(1.0388 0.0983419 0)
(1.04282 0.101292 0)
(1.04703 0.104455 0)
(1.05091 0.106488 0)
(1.05511 0.109329 0)
(1.00001 0.00392044 0)
(1.00034 0.0115427 0)
(1.00098 0.0188643 0)
(1.0019 0.0258888 0)
(1.00313 0.0327328 0)
(1.00465 0.0393307 0)
(1.00651 0.0457719 0)
(1.00867 0.05194 0)
(1.01116 0.0579274 0)
(1.01393 0.0635756 0)
(1.017 0.0690095 0)
(1.02028 0.0740248 0)
(1.02381 0.0788146 0)
(1.02746 0.0831047 0)
(1.0313 0.0872075 0)
(1.03513 0.0907188 0)
(1.03913 0.094161 0)
(1.04297 0.0968678 0)
(1.04699 0.0997627 0)
(1.05066 0.101619 0)
(1.05466 0.104215 0)
(1.00001 0.00385171 0)
(1.00038 0.0113361 5.32808e-30)
(1.00108 0.0185069 -5.67426e-30)
(1.00208 0.0253656 0)
(1.00341 0.032018 0)
(1.00503 0.0384031 0)
(1.00698 0.0446022 0)
(1.00921 0.0505096 0)
(1.01177 0.0562106 0)
(1.01457 0.0615628 0)
(1.01765 0.0666831 0)
(1.02091 0.0713883 0)
(1.02439 0.0758591 0)
(1.02795 0.079849 0)
(1.03168 0.0836478 0)
(1.03538 0.0868901 0)
(1.03922 0.0900573 0)
(1.04289 0.0925428 0)
(1.04673 0.095195 -5.5978e-30)
(1.05021 0.0968919 2.81343e-30)
(1.054 0.0992658 3.34688e-30)
(1.00001 0.00377424 0)
(1.00041 0.0111041 0)
(1.00117 0.0181092 0)
(1.00224 0.0247898 0)
(1.00365 0.0312409 0)
(1.00535 0.0374068 0)
(1.00737 0.0433614 0)
(1.00966 0.0490092 0)
(1.01226 0.0544294 0)
(1.01507 0.0594947 0)
(1.01814 0.0643146 0)
(1.02136 0.0687259 0)
(1.02477 0.0728969 0)
(1.02825 0.076607 0)
(1.03186 0.0801246 0)
(1.03543 0.0831196 0)
(1.03911 0.086035 0)
(1.04261 0.0883193 0)
(1.04626 0.090751 0)
(1.04956 0.0923043 0)
(1.05316 0.0944771 0)
(1.00001 0.00368863 0)
(1.00044 0.0108483 0)
(1.00125 0.0176745 0)
(1.00238 0.0241657 0)
(1.00385 0.0304077 0)
(1.00561 0.0363493 0)
(1.00769 0.0420582 0)
(1.01002 0.0474486 0)
(1.01263 0.0525945 0)
(1.01545 0.0573826 0)
(1.01849 0.0619157 0)
(1.02165 0.0660486 0)
(1.02499 0.0699384 0)
(1.02836 0.0733879 0)
(1.03186 0.0766453 0)
(1.03528 0.0794128 0)
(1.03881 0.0820979 0)
(1.04215 0.0841989 0)
(1.04563 0.08643 0)
(1.04875 0.0878538 0)
(1.05216 0.0898437 0)
(1.00001 0.00359554 0)
(1.00046 0.0105708 0)
(1.00131 0.017206 0)
(1.00249 0.0234981 0)
(1.00401 0.0295242 0)
(1.00582 0.0352378 0)
(1.00793 0.0407011 0)
(1.01029 0.0458376 0)
(1.0129 0.0507164 0)
(1.0157 0.0552373 0)
(1.0187 0.0594969 0)
(1.0218 0.0633666 0)
(1.02505 0.0669929 0)
(1.02832 0.0701997 0)
(1.03169 0.0732165 0)
(1.03498 0.0757747 0)
(1.03835 0.0782486 0)
(1.04153 0.0801827 0)
(1.04484 0.0822309 0)
(1.04779 0.0835378 0)
(1.05103 0.0853612 2.42891e-30)
(1.00001 0.00349566 0)
(1.00048 0.0102737 0)
(1.00136 0.0167071 0)
(1.00258 0.0227916 0)
(1.00413 0.0285965 0)
(1.00598 0.0340798 0)
(1.00811 0.0392986 0)
(1.01047 0.0441853 0)
(1.01308 0.0488048 3.27803e-29)
(1.01584 0.0530687 -3.49065e-29)
(1.01879 0.057068 0)
(1.02182 0.0606892 0)
(1.02497 0.0640686 0)
(1.02813 0.0670496 0)
(1.03137 0.0698436 0)
(1.03452 0.0722092 0)
(1.03775 0.0744895 0)
(1.04077 0.0762712 0)
(1.04392 0.0781526 0)
(1.04671 0.0793536 0)
(1.04978 0.0810253 0)
(1.00001 0.00338969 0)
(1.00049 0.00995893 0)
(1.00139 0.0161812 0)
(1.00264 0.0220511 0)
(1.00422 0.0276306 0)
(1.00609 0.0328823 0)
(1.00823 0.0378588 0)
(1.01058 0.0425006 0)
(1.01316 0.0468688 0)
(1.01588 0.0508861 0)
(1.01876 0.054638 0)
(1.02171 0.0580246 0)
(1.02477 0.0611729 0)
(1.02781 0.0639436 0)
(1.03093 0.0665316 0)
(1.03394 0.0687197 0)
(1.03702 0.0708223 0)
(1.0399 0.0724647 0)
(1.04288 0.0741937 0)
(1.04553 0.0752987 0)
(1.04843 0.0768319 0)
(1.00001 0.00327834 0)
(1.0005 0.00962872 0)
(1.00142 0.0156319 0)
(1.00268 0.0212813 0)
(1.00428 0.0266325 0)
(1.00615 0.0316522 0)
(1.00828 0.0363893 0)
(1.01062 0.0407917 0)
(1.01316 0.0449169 0)
(1.01583 0.0486979 0)
(1.01864 0.0522149 0)
(1.0215 0.0553803 0)
(1.02446 0.0583123 0)
(1.02738 0.0608872 0)
(1.03037 0.0632843 0)
(1.03325 0.0653088 0)
(1.03618 0.0672481 0)
(1.03892 0.068763 0)
(1.04175 0.0703527 2.94259e-30)
(1.04425 0.0713704 2.21768e-30)
(1.047 0.072777 -5.69358e-30)
(1.00001 0.00316234 0)
(1.00051 0.00928519 0)
(1.00143 0.0150625 0)
(1.00271 0.0204868 0)
(1.00431 0.0256079 0)
(1.00617 0.0303964 0)
(1.00829 0.0348976 0)
(1.01059 0.0390664 0)
(1.01309 0.0429573 0)
(1.01569 0.0465121 0)
(1.01843 0.049806 0)
(1.0212 0.052763 0)
(1.02404 0.0554925 0)
(1.02686 0.0578849 0)
(1.02971 0.0601053 0)
(1.03246 0.0619786 0)
(1.03525 0.0637678 0)
(1.03785 0.0651658 0)
(1.04054 0.0666279 0)
(1.04291 0.0675661 0)
(1.0455 0.0688567 0)
(1.00001 0.00304239 0)
(1.00051 0.00893043 0)
(1.00144 0.0144765 0)
(1.00271 0.0196722 0)
(1.00431 0.0245623 0)
(1.00616 0.029121 0)
(1.00825 0.0333905 0)
(1.01051 0.0373321 0)
(1.01295 0.0409971 0)
(1.01549 0.0443355 0)
(1.01814 0.0474181 0)
(1.02081 0.0501785 0)
(1.02355 0.0527183 0)
(1.02625 0.0549407 0)
(1.02898 0.0569972 0)
(1.0316 0.0587309 0)
(1.03425 0.0603817 0)
(1.03672 0.0616725 0)
(1.03926 0.0630175 0)
(1.0415 0.0638832 0)
(1.04396 0.0650675 0)
(1.00001 0.00291919 0)
(1.00051 0.00856644 0)
(1.00143 0.0138769 0)
(1.0027 0.0188417 0)
(1.00428 0.023501 0)
(1.00611 0.0278321 0)
(1.00816 0.0318746 0)
(1.01038 0.0355954 0)
(1.01276 0.039043 0)
(1.01522 0.0421747 0)
(1.01778 0.0450568 0)
(1.02036 0.047632 0)
(1.02298 0.0499942 0)
(1.02557 0.052058 0)
(1.02817 0.0539622 0)
(1.03067 0.0555668 0)
(1.03319 0.0570901 0)
(1.03553 0.0582821 0)
(1.03794 0.0595196 0)
(1.04006 0.0603189 0)
(1.04237 0.0614057 7.34796e-30)
(1.00001 0.0027934 0)
(1.00051 0.00819518 0)
(1.00142 0.013267 0)
(1.00268 0.0179996 0)
(1.00424 0.0224289 0)
(1.00603 0.0265353 0)
(1.00804 0.0303558 0)
(1.01021 0.0338625 0)
(1.01251 0.037101 0)
(1.0149 0.0400353 0)
(1.01736 0.0427274 0)
(1.01984 0.0451279 0)
(1.02236 0.0473235 0)
(1.02483 0.0492393 0)
(1.02731 0.0510021 0)
(1.02969 0.052487 0)
(1.03208 0.0538924 0)
(1.0343 0.0549936 0)
(1.03658 0.0561321 0)
(1.03858 0.0568706 0)
(1.04077 0.0578677 0)
(1.00001 0.00266567 0)
(1.0005 0.00781852 0)
(1.0014 0.0126497 0)
(1.00264 0.0171498 0)
(1.00417 0.0213507 0)
(1.00593 0.0252358 0)
(1.00789 0.0288396 0)
(1.00999 0.0321388 0)
(1.01223 0.0351765 0)
(1.01453 0.0379224 0)
(1.0169 0.0404343 0)
(1.01928 0.04267 0)
(1.02169 0.0447095 0)
(1.02404 0.0464869 0)
(1.02641 0.0481181 0)
(1.02867 0.0494918 0)
(1.03094 0.0507884 0)
(1.03304 0.0518055 0)
(1.03519 0.0528529 0)
(1.03709 0.0535355 2.66794e-30)
(1.03915 0.05445 -2.83943e-30)
(1.00001 0.0025366 0)
(1.00049 0.00743826 0)
(1.00138 0.0120279 0)
(1.00259 0.0162959 0)
(1.00409 0.0202707 0)
(1.0058 0.0239384 0)
(1.00771 0.027331 0)
(1.00975 0.0304295 0)
(1.0119 0.0332743 0)
(1.01412 0.0358403 0)
(1.0164 0.0381814 0)
(1.01868 0.0402616 0)
(1.02098 0.0421543 0)
(1.02323 0.0438023 0)
(1.02547 0.0453109 0)
(1.02762 0.0465814 0)
(1.02977 0.047777 0)
(1.03177 0.0487164 0)
(1.0338 0.0496797 4.46753e-30)
(1.03559 0.0503107 -4.75512e-30)
(1.03753 0.0511492 0)
(1.00001 0.00240676 0)
(1.00048 0.00705606 0)
(1.00135 0.0114041 0)
(1.00253 0.0154412 0)
(1.00399 0.0191929 0)
(1.00566 0.0226473 0)
(1.00751 0.0258344 0)
(1.00948 0.0287388 0)
(1.01156 0.0313985 0)
(1.01369 0.0337929 0)
(1.01587 0.0359719 0)
(1.01805 0.0379051 0)
(1.02024 0.03966 0)
(1.02238 0.0411866 0)
(1.02452 0.0425809 0)
(1.02656 0.0437552 0)
(1.02859 0.0448571 0)
(1.03048 0.0457246 0)
(1.0324 0.04661 0)
(1.0341 0.0471934 0)
(1.03593 0.0479617 5.63765e-30)
(1.00001 0.0022767 0)
(1.00047 0.00667344 0)
(1.00131 0.0107807 0)
(1.00247 0.0145889 0)
(1.00388 0.0181206 0)
(1.0055 0.0213663 0)
(1.00729 0.0243537 0)
(1.00919 0.0270707 0)
(1.01118 0.0295527 0)
(1.01323 0.0317831 0)
(1.01532 0.0338083 0)
(1.0174 0.0356025 0)
(1.01949 0.0372278 0)
(1.02153 0.0386406 0)
(1.02355 0.039928 0)
(1.02549 0.0410125 0)
(1.02741 0.0420274 0)
(1.0292 0.0428279 0)
(1.03102 0.0436413 0)
(1.03262 0.0441805 0)
(1.03434 0.044884 0)
(1.00001 0.00214687 0)
(1.00046 0.00629178 0)
(1.00128 0.0101598 0)
(1.0024 0.0137415 0)
(1.00377 0.0170572 0)
(1.00533 0.0200988 0)
(1.00705 0.0228923 0)
(1.00888 0.0254283 0)
(1.0108 0.0277398 0)
(1.01276 0.0298137 0)
(1.01475 0.0316926 0)
(1.01674 0.0333554 0)
(1.01873 0.0348585 0)
(1.02067 0.0361643 0)
(1.02259 0.0373517 0)
(1.02442 0.0383523 0)
(1.02624 0.0392862 0)
(1.02794 0.0400242 0)
(1.02965 0.0407708 0)
(1.03117 0.0412689 0)
(1.03279 0.0419124 0)
(1.00001 0.00201772 0)
(1.00044 0.00591231 0)
(1.00124 0.0095433 0)
(1.00232 0.0129017 0)
(1.00364 0.0160053 0)
(1.00515 0.0188477 0)
(1.00681 0.0214531 0)
(1.00856 0.0238143 0)
(1.0104 0.0259622 0)
(1.01227 0.0278864 0)
(1.01418 0.0296265 0)
(1.01607 0.0311647 0)
(1.01796 0.0325525 0)
(1.0198 0.0337576 0)
(1.02163 0.0348512 0)
(1.02337 0.0357732 0)
(1.02509 0.0366313 0)
(1.02669 0.0373111 0)
(1.0283 0.0379956 -8.05509e-30)
(1.02974 0.0384553 -7.84057e-31)
(1.03127 0.0390432 9.95917e-30)
(1.00001 0.0018896 0)
(1.00043 0.00553609 0)
(1.00119 0.00893285 0)
(1.00224 0.0120712 0)
(1.00352 0.0149671 0)
(1.00497 0.0176154 0)
(1.00656 0.0200383 0)
(1.00824 0.0222309 0)
(1.01 0.0242217 0)
(1.01179 0.0260029 0)
(1.01361 0.0276107 0)
(1.01541 0.0290306 0)
(1.0172 0.0303095 0)
(1.01895 0.0314196 0)
(1.02068 0.0324251 0)
(1.02233 0.0332733 0)
(1.02396 0.0340607 0)
(1.02547 0.0346859 0)
(1.027 0.0353125 0)
(1.02836 0.0357362 0)
(1.02979 0.0362724 0)
(1.00001 0.00176284 0)
(1.00041 0.00516401 0)
(1.00115 0.00832981 0)
(1.00216 0.011252 0)
(1.00339 0.0139446 0)
(1.00478 0.0164037 0)
(1.00631 0.0186499 0)
(1.00792 0.0206797 0)
(1.0096 0.0225196 0)
(1.01131 0.0241638 0)
(1.01304 0.0256456 0)
(1.01475 0.0269532 1.74527e-30)
(1.01646 0.0281289 -1.85832e-30)
(1.01812 0.0291493 2.91414e-30)
(1.01975 0.0300718 -3.10266e-30)
(1.02132 0.0308505 0)
(1.02285 0.0315715 0)
(1.02429 0.0321455 0)
(1.02573 0.032718 0)
(1.02702 0.0331079 0)
(1.02836 0.0335962 -1.51377e-29)
(1.00001 0.00163769 0)
(1.0004 0.00479682 0)
(1.00111 0.00773526 0)
(1.00208 0.0104453 0)
(1.00326 0.0129392 0)
(1.00459 0.0152141 0)
(1.00605 0.0172889 0)
(1.0076 0.0191616 0)
(1.0092 0.0208564 0)
(1.01083 0.0223695 0)
(1.01247 0.023731 0)
(1.01411 0.0249317 0)
(1.01573 0.0260097 0)
(1.0173 0.026945 0)
(1.01885 0.0277892 0)
(1.02033 0.0285023 0)
(1.02179 0.029161 0)
(1.02315 0.0296867 0)
(1.0245 0.0302086 0)
(1.02573 0.0305666 0)
(1.02699 0.0310101 0)