/*--------------------------------*- C++ -*----------------------------------*\
  =========                 |
  \\      /  F ield         | OpenFOAM: The Open Source CFD Toolbox
   \\    /   O peration     | Website:  https://openfoam.org
    \\  /    A nd           | Version:  7
     \\/     M anipulation  |
\*---------------------------------------------------------------------------*/
FoamFile
{
    version     2.0;
    format      ascii;
    class       volScalarField;
    location    "240";
    object      p;
}
// * * * * * * * * * * * * * * * * * * * * * * * * * * * * * * * * * * * * * //

dimensions      [0 2 -2 0 0 0 0];

internalField   nonuniform List<scalar> 
20050
(
-0.380102
-0.381215
-0.38169
-0.382
-0.382301
-0.382755
-0.383513
-0.384686
-0.386357
-0.388605
-0.391534
-0.395281
-0.400043
-0.406039
-0.413551
-0.380906
-0.381637
-0.381921
-0.382076
-0.382245
-0.382593
-0.383275
-0.384409
-0.386091
-0.388415
-0.3915
-0.395505
-0.400651
-0.407178
-0.415367
-0.381709
-0.382063
-0.382156
-0.382152
-0.382185
-0.382421
-0.383015
-0.384097
-0.385772
-0.388148
-0.391356
-0.395574
-0.401046
-0.408029
-0.416767
-0.382479
-0.382464
-0.382369
-0.382205
-0.382097
-0.382212
-0.382707
-0.383719
-0.385365
-0.387764
-0.39106
-0.395442
-0.401176
-0.408536
-0.417686
-0.383185
-0.38282
-0.382538
-0.382213
-0.38196
-0.381944
-0.382326
-0.383249
-0.38484
-0.38723
-0.390572
-0.395067
-0.400995
-0.408653
-0.418086
-0.383802
-0.383108
-0.382645
-0.38216
-0.381757
-0.3816
-0.381851
-0.382662
-0.384171
-0.386516
-0.389862
-0.394416
-0.400468
-0.408327
-0.417956
-0.384312
-0.383314
-0.382677
-0.382032
-0.381474
-0.381164
-0.381267
-0.381942
-0.383337
-0.3856
-0.388905
-0.393461
-0.399568
-0.407553
-0.417249
-0.384696
-0.383426
-0.382625
-0.381823
-0.381104
-0.380629
-0.380564
-0.381076
-0.382324
-0.384466
-0.387682
-0.392187
-0.398281
-0.406317
-0.415967
-0.384945
-0.383436
-0.382483
-0.381527
-0.380643
-0.37999
-0.379737
-0.380059
-0.381126
-0.383106
-0.386187
-0.390586
-0.396601
-0.404617
-0.414125
-0.385052
-0.383343
-0.38225
-0.381145
-0.380092
-0.379249
-0.378787
-0.378891
-0.379742
-0.381519
-0.384418
-0.388659
-0.394533
-0.402466
-0.411752
-0.385016
-0.383148
-0.38193
-0.38068
-0.379457
-0.378412
-0.377721
-0.377578
-0.378179
-0.379714
-0.382385
-0.386419
-0.392095
-0.399888
-0.408889
-0.384841
-0.382854
-0.381528
-0.380142
-0.378745
-0.377489
-0.37655
-0.376135
-0.376451
-0.377705
-0.380107
-0.383888
-0.389316
-0.396918
-0.405584
-0.384534
-0.382472
-0.381055
-0.37954
-0.37797
-0.376492
-0.375289
-0.374577
-0.37458
-0.375516
-0.37761
-0.381097
-0.386231
-0.393602
-0.401895
-0.384107
-0.382014
-0.380523
-0.378889
-0.377146
-0.375441
-0.373958
-0.372929
-0.372591
-0.373179
-0.374929
-0.378087
-0.382889
-0.389995
-0.397884
-0.383577
-0.381495
-0.379948
-0.378204
-0.376291
-0.374353
-0.372581
-0.371217
-0.370515
-0.370729
-0.372107
-0.374908
-0.379345
-0.386165
-0.393614
-0.382962
-0.380932
-0.379346
-0.377502
-0.375423
-0.373251
-0.371182
-0.369472
-0.368391
-0.368211
-0.369195
-0.371616
-0.375664
-0.382185
-0.38915
-0.382287
-0.380346
-0.378738
-0.376804
-0.374564
-0.372158
-0.36979
-0.367726
-0.366257
-0.365671
-0.366248
-0.368277
-0.371916
-0.378139
-0.384553
-0.381578
-0.37976
-0.378144
-0.376129
-0.373734
-0.371098
-0.368432
-0.366016
-0.364156
-0.363161
-0.363327
-0.36496
-0.368177
-0.37412
-0.379878
-0.380864
-0.3792
-0.377587
-0.3755
-0.372957
-0.370097
-0.367139
-0.364376
-0.362133
-0.360734
-0.360494
-0.361738
-0.364526
-0.370225
-0.375178
-0.38018
-0.378692
-0.377093
-0.37494
-0.372256
-0.369181
-0.365943
-0.362846
-0.360232
-0.358445
-0.357814
-0.358686
-0.361046
-0.366553
-0.370507
-0.379561
-0.378265
-0.376686
-0.374474
-0.371657
-0.368378
-0.364874
-0.361462
-0.3585
-0.356348
-0.35535
-0.355878
-0.357815
-0.3632
-0.365922
-0.379047
-0.377952
-0.376395
-0.374128
-0.371185
-0.367715
-0.363965
-0.360263
-0.356981
-0.354497
-0.353165
-0.353383
-0.354911
-0.360249
-0.361496
-0.378677
-0.377783
-0.376248
-0.373928
-0.370868
-0.367223
-0.363249
-0.359286
-0.355719
-0.35294
-0.351315
-0.351261
-0.3524
-0.357759
-0.357322
-0.378495
-0.377792
-0.376275
-0.373902
-0.370733
-0.36693
-0.362759
-0.358568
-0.354756
-0.351724
-0.349848
-0.349561
-0.350343
-0.355747
-0.353515
-0.378541
-0.378011
-0.376503
-0.374078
-0.370809
-0.366866
-0.362525
-0.358144
-0.354128
-0.350888
-0.348806
-0.348315
-0.348784
-0.354186
-0.3502
-0.378858
-0.378472
-0.376963
-0.374483
-0.371122
-0.367058
-0.362576
-0.358042
-0.353866
-0.350462
-0.348216
-0.347537
-0.347751
-0.353002
-0.347503
-0.379484
-0.379204
-0.377681
-0.375142
-0.371696
-0.36753
-0.362938
-0.358287
-0.353991
-0.350464
-0.34809
-0.347224
-0.347253
-0.352084
-0.345513
-0.380452
-0.380236
-0.37868
-0.376078
-0.372553
-0.368304
-0.363628
-0.358895
-0.354517
-0.3509
-0.348426
-0.347354
-0.347274
-0.351283
-0.344168
-0.381793
-0.381589
-0.379981
-0.377308
-0.37371
-0.369393
-0.364658
-0.359873
-0.355443
-0.351762
-0.349206
-0.347904
-0.347794
-0.350468
-0.343248
-0.383529
-0.383282
-0.381601
-0.378847
-0.375176
-0.370804
-0.36603
-0.361216
-0.356757
-0.353026
-0.350391
-0.348845
-0.348786
-0.349718
-0.343243
-0.385677
-0.385329
-0.38355
-0.380703
-0.376959
-0.372537
-0.367738
-0.362912
-0.358436
-0.354657
-0.351927
-0.350123
-0.350116
-0.349444
-0.347011
-0.388246
-0.387738
-0.385834
-0.38288
-0.379056
-0.374588
-0.369771
-0.364939
-0.360448
-0.35661
-0.353747
-0.351651
-0.35146
-0.349705
-0.356619
-0.39124
-0.390512
-0.388458
-0.385377
-0.381462
-0.376946
-0.37211
-0.367271
-0.362755
-0.358833
-0.355783
-0.353337
-0.352669
-0.350076
-0.356257
-0.394656
-0.393652
-0.39142
-0.38819
-0.384171
-0.379596
-0.374734
-0.369879
-0.365318
-0.361273
-0.357966
-0.355086
-0.353673
-0.350148
-0.353938
-0.39849
-0.397154
-0.394716
-0.391315
-0.387173
-0.382526
-0.377625
-0.372734
-0.368097
-0.363881
-0.360236
-0.356818
-0.354474
-0.34994
-0.35123
-0.402729
-0.401018
-0.398342
-0.394745
-0.39046
-0.385722
-0.380763
-0.37581
-0.371057
-0.366607
-0.362534
-0.358468
-0.355062
-0.349461
-0.348263
-0.407367
-0.405235
-0.402295
-0.398476
-0.394026
-0.389177
-0.384135
-0.379087
-0.374166
-0.369407
-0.36481
-0.359987
-0.355427
-0.348704
-0.345221
-0.412393
-0.409803
-0.406571
-0.402507
-0.397868
-0.392884
-0.387731
-0.382544
-0.377394
-0.372242
-0.367019
-0.361335
-0.35556
-0.347685
-0.342162
-0.4178
-0.414718
-0.41117
-0.406837
-0.401988
-0.396843
-0.391543
-0.386168
-0.380714
-0.375075
-0.369122
-0.362481
-0.355457
-0.346421
-0.33911
-0.423581
-0.419977
-0.416093
-0.411471
-0.406389
-0.401055
-0.395568
-0.389942
-0.3841
-0.377871
-0.371084
-0.363404
-0.355117
-0.344935
-0.336063
-0.429732
-0.42558
-0.421342
-0.416414
-0.411076
-0.405524
-0.399801
-0.393852
-0.387526
-0.380597
-0.372876
-0.364089
-0.354544
-0.343246
-0.333011
-0.436249
-0.431528
-0.426921
-0.42167
-0.416057
-0.41025
-0.404235
-0.397881
-0.390964
-0.383222
-0.374471
-0.364527
-0.353741
-0.341371
-0.329939
-0.44313
-0.437819
-0.432834
-0.427247
-0.421336
-0.415235
-0.408861
-0.402005
-0.394383
-0.385713
-0.375851
-0.364715
-0.352716
-0.339325
-0.326832
-0.45037
-0.444453
-0.439082
-0.433149
-0.426915
-0.420473
-0.413663
-0.406199
-0.39775
-0.388043
-0.376998
-0.36465
-0.351474
-0.337116
-0.323676
-0.457965
-0.451427
-0.445665
-0.439375
-0.432792
-0.425954
-0.418618
-0.41043
-0.40103
-0.390183
-0.377897
-0.364332
-0.350023
-0.334753
-0.320455
-0.465904
-0.458734
-0.452579
-0.445921
-0.438956
-0.431657
-0.423696
-0.41466
-0.404186
-0.392107
-0.378538
-0.363764
-0.348366
-0.332238
-0.317156
-0.474176
-0.466365
-0.459816
-0.452778
-0.445393
-0.437558
-0.428861
-0.418847
-0.40718
-0.393789
-0.378911
-0.362945
-0.346506
-0.329571
-0.313765
-0.482761
-0.474304
-0.467361
-0.459928
-0.452076
-0.443619
-0.434067
-0.422945
-0.409975
-0.395207
-0.379006
-0.361875
-0.344442
-0.326749
-0.310268
-0.491634
-0.48253
-0.475194
-0.467347
-0.458973
-0.449798
-0.439265
-0.426903
-0.412531
-0.396337
-0.378815
-0.360551
-0.342172
-0.323766
-0.306653
-0.500762
-0.491013
-0.483287
-0.475001
-0.466042
-0.456043
-0.444395
-0.430671
-0.414811
-0.397159
-0.378327
-0.358967
-0.33969
-0.320613
-0.302903
-0.510107
-0.499721
-0.491603
-0.482849
-0.47323
-0.462292
-0.449398
-0.434196
-0.416778
-0.397651
-0.377532
-0.357118
-0.336989
-0.31728
-0.299006
-0.519621
-0.508609
-0.500099
-0.490841
-0.480479
-0.46848
-0.454209
-0.437425
-0.418398
-0.397794
-0.376418
-0.354994
-0.334058
-0.313756
-0.294945
-0.529249
-0.517629
-0.508722
-0.498917
-0.48772
-0.474534
-0.45876
-0.440306
-0.419635
-0.397565
-0.374972
-0.352583
-0.330886
-0.310026
-0.290707
-0.538928
-0.526721
-0.517413
-0.507009
-0.494878
-0.480378
-0.462983
-0.442787
-0.420456
-0.396944
-0.373178
-0.349873
-0.327457
-0.306075
-0.286274
-0.548589
-0.535821
-0.526103
-0.515042
-0.501871
-0.48593
-0.466811
-0.44482
-0.420827
-0.395909
-0.371021
-0.346847
-0.323758
-0.301888
-0.281632
-0.558154
-0.544855
-0.534714
-0.522933
-0.508613
-0.49111
-0.470177
-0.446357
-0.420718
-0.394438
-0.368481
-0.34349
-0.319771
-0.297448
-0.276766
-0.567538
-0.553744
-0.543165
-0.530592
-0.515011
-0.495835
-0.473017
-0.447351
-0.420097
-0.392509
-0.365541
-0.339785
-0.315481
-0.29274
-0.271659
-0.576654
-0.562402
-0.551363
-0.537924
-0.520974
-0.500024
-0.475266
-0.447759
-0.418935
-0.390099
-0.362182
-0.335712
-0.310869
-0.287746
-0.266296
-0.585404
-0.570735
-0.559215
-0.544832
-0.526406
-0.503596
-0.476866
-0.44754
-0.4172
-0.387185
-0.358382
-0.331253
-0.305918
-0.28245
-0.260664
-0.593691
-0.578648
-0.566619
-0.551212
-0.531214
-0.506473
-0.477759
-0.446653
-0.414866
-0.383745
-0.354123
-0.32639
-0.300611
-0.276837
-0.254748
-0.601412
-0.586039
-0.573472
-0.556963
-0.535303
-0.508583
-0.477893
-0.445063
-0.411906
-0.379756
-0.349383
-0.321105
-0.294932
-0.27089
-0.248535
-0.608463
-0.592806
-0.579669
-0.561982
-0.538586
-0.509856
-0.477218
-0.442733
-0.408291
-0.375196
-0.344143
-0.315379
-0.288863
-0.264595
-0.242013
-0.614738
-0.598844
-0.585104
-0.566168
-0.540976
-0.510226
-0.475689
-0.439633
-0.404
-0.370044
-0.338385
-0.309195
-0.28239
-0.257939
-0.235171
-0.620132
-0.604046
-0.589671
-0.569423
-0.542391
-0.509634
-0.473264
-0.435733
-0.399007
-0.36428
-0.332089
-0.302537
-0.275497
-0.250908
-0.228
-0.62454
-0.60831
-0.593267
-0.571652
-0.542757
-0.508026
-0.469906
-0.431006
-0.393291
-0.357885
-0.32524
-0.295391
-0.268173
-0.243492
-0.220488
-0.627863
-0.611533
-0.595793
-0.572769
-0.542004
-0.505354
-0.465583
-0.425427
-0.386834
-0.350843
-0.317823
-0.287742
-0.260405
-0.235681
-0.212628
-0.630003
-0.613618
-0.597155
-0.57269
-0.54007
-0.501574
-0.460265
-0.418977
-0.379619
-0.343139
-0.309823
-0.279579
-0.252182
-0.227466
-0.204416
-0.630868
-0.614472
-0.597263
-0.571342
-0.536902
-0.496652
-0.453929
-0.411638
-0.371629
-0.334758
-0.30123
-0.270892
-0.243497
-0.218844
-0.195854
-0.630371
-0.614006
-0.596037
-0.568658
-0.532452
-0.490556
-0.446554
-0.403395
-0.362855
-0.325692
-0.292033
-0.26167
-0.234337
-0.209806
-0.186943
-0.628435
-0.612142
-0.593402
-0.56458
-0.526682
-0.483263
-0.438127
-0.394238
-0.353286
-0.315932
-0.282225
-0.251908
-0.224695
-0.200339
-0.17765
-0.624988
-0.608806
-0.589294
-0.55906
-0.519559
-0.474755
-0.428637
-0.384159
-0.342918
-0.305473
-0.271803
-0.241603
-0.214573
-0.190431
-0.167875
-0.619967
-0.603936
-0.583658
-0.552057
-0.511063
-0.465021
-0.418079
-0.373156
-0.331746
-0.294313
-0.260765
-0.230757
-0.203989
-0.180122
-0.157538
-0.613319
-0.597477
-0.576449
-0.543543
-0.501177
-0.454057
-0.406451
-0.361228
-0.319771
-0.282451
-0.249111
-0.219372
-0.192948
-0.169469
-0.146883
-0.605001
-0.589384
-0.567631
-0.533497
-0.489894
-0.441862
-0.393758
-0.348379
-0.306998
-0.269892
-0.236844
-0.207449
-0.181422
-0.158224
-0.136141
-0.594981
-0.579625
-0.55718
-0.521907
-0.477216
-0.428444
-0.380007
-0.334618
-0.293433
-0.256641
-0.223972
-0.195
-0.169426
-0.146584
-0.12506
-0.583234
-0.568174
-0.545081
-0.508774
-0.463151
-0.413816
-0.365214
-0.319957
-0.279086
-0.242708
-0.210507
-0.182029
-0.156969
-0.134568
-0.113611
-0.569749
-0.555021
-0.531331
-0.494103
-0.447715
-0.397996
-0.349394
-0.304411
-0.263972
-0.22811
-0.196457
-0.168547
-0.144065
-0.122177
-0.101805
-0.554524
-0.540163
-0.515937
-0.477913
-0.430931
-0.381008
-0.332571
-0.288
-0.24811
-0.212859
-0.181838
-0.154569
-0.130729
-0.109414
-0.0896583
-0.537569
-0.523607
-0.498915
-0.460227
-0.412827
-0.362883
-0.314772
-0.270749
-0.231521
-0.196975
-0.166667
-0.140111
-0.116976
-0.096288
-0.0771905
-0.518902
-0.505375
-0.480291
-0.44108
-0.39344
-0.343656
-0.296026
-0.252684
-0.214228
-0.18048
-0.150966
-0.125193
-0.102824
-0.0828117
-0.0644194
-0.498555
-0.485493
-0.4601
-0.420512
-0.372816
-0.323366
-0.276369
-0.233836
-0.196258
-0.163399
-0.134756
-0.109835
-0.0882904
-0.0690031
-0.051364
-0.476565
-0.464001
-0.438387
-0.398577
-0.351009
-0.302041
-0.25584
-0.21424
-0.177643
-0.14576
-0.118064
-0.0940606
-0.0733972
-0.0548821
-0.0380453
-0.452979
-0.440947
-0.415206
-0.375341
-0.328068
-0.27973
-0.23448
-0.193934
-0.158417
-0.127594
-0.100918
-0.077897
-0.0581681
-0.0404713
-0.0244867
-0.427853
-0.41639
-0.390623
-0.35086
-0.303989
-0.256532
-0.212339
-0.17296
-0.138617
-0.108933
-0.0833486
-0.061372
-0.0426286
-0.0257954
-0.0107143
-0.401249
-0.3904
-0.364723
-0.325151
-0.278906
-0.232466
-0.189468
-0.151361
-0.118282
-0.0898149
-0.0653878
-0.0445156
-0.0268064
-0.0108819
0.00324094
-0.373238
-0.363057
-0.33758
-0.29826
-0.252898
-0.207598
-0.16592
-0.129186
-0.0974544
-0.0702757
-0.0470701
-0.0273598
-0.0107307
0.00423816
0.0173388
-0.343899
-0.334446
-0.309153
-0.270403
-0.226014
-0.181993
-0.141752
-0.106484
-0.0761781
-0.0503554
-0.0284314
-0.00993746
0.00556817
0.0195302
0.0315263
-0.313312
-0.304672
-0.27957
-0.241618
-0.198332
-0.155719
-0.117022
-0.0833069
-0.0544998
-0.0300951
-0.00950919
0.00771669
0.0220597
0.0349628
0.045755
-0.281544
-0.273763
-0.249063
-0.211968
-0.169931
-0.128848
-0.0917921
-0.0597102
-0.0324676
-0.0095376
0.00965759
0.0255665
0.0387169
0.0505183
0.0599988
-0.248711
-0.241899
-0.217682
-0.181545
-0.140892
-0.101451
-0.0661267
-0.0357502
-0.0101315
0.0112729
0.0290284
0.0435783
0.0555254
0.0661823
0.0741507
-0.215086
-0.209047
-0.185501
-0.150445
-0.111298
-0.0736028
-0.0400918
-0.0114853
0.012457
0.0322904
0.0485633
0.0617298
0.0724915
0.0818845
0.0877993
-0.180664
-0.175375
-0.152617
-0.118764
-0.0812364
-0.0453807
-0.0137554
0.0130242
0.035244
0.0534667
0.0682246
0.0800126
0.0896215
0.0974619
0.100443
-0.14552
-0.141028
-0.119136
-0.0865993
-0.0507962
-0.0168633
0.0128126
0.0377159
0.0581736
0.0747517
0.0879752
0.0984083
0.106845
0.112754
0.112786
-0.109779
-0.106127
-0.0851696
-0.0540532
-0.0200676
0.0118694
0.0395411
0.0625261
0.0811879
0.096094
0.107774
0.116856
0.12398
0.127656
0.128014
-0.0735644
-0.0707829
-0.0508293
-0.0212277
0.0108576
0.0407359
0.0663573
0.0873896
0.104228
0.117442
0.127569
0.135264
0.140976
0.143073
0.143921
-0.0369999
-0.0351155
-0.0162295
0.0117736
0.0418869
0.0696539
0.0931879
0.11224
0.127235
0.138742
0.147308
0.15358
0.15787
0.158702
0.159365
-0.000210853
0.000756245
0.018515
0.0448464
0.0729272
0.0985407
0.119959
0.137012
0.150148
0.159939
0.166935
0.171765
0.174661
0.174367
0.174504
0.0366775
0.0367119
0.0532897
0.0778863
0.103886
0.127313
0.146597
0.161638
0.172908
0.180979
0.1864
0.189777
0.191304
0.189913
0.189318
0.0735398
0.0726303
0.0879799
0.110789
0.134669
0.155889
0.173026
0.186052
0.195454
0.201805
0.20565
0.207574
0.207749
0.205261
0.203804
0.110251
0.10839
0.122472
0.143452
0.165185
0.184186
0.199175
0.210187
0.217726
0.222364
0.224637
0.225113
0.223949
0.220355
0.217954
0.146686
0.143872
0.156652
0.175772
0.195342
0.212121
0.224969
0.233978
0.239666
0.242601
0.243313
0.24235
0.23986
0.235156
0.231757
0.182721
0.178955
0.190409
0.207648
0.22505
0.239615
0.250336
0.25736
0.261215
0.262464
0.26163
0.259242
0.255441
0.249629
0.245201
0.218236
0.213521
0.223633
0.238981
0.25422
0.266589
0.275206
0.280269
0.282314
0.281901
0.279543
0.275749
0.270654
0.263744
0.258268
0.25311
0.247456
0.256215
0.269673
0.282765
0.292963
0.299509
0.302643
0.30291
0.300863
0.297005
0.291829
0.285464
0.277471
0.27094
0.287226
0.280645
0.288051
0.299628
0.3106
0.318664
0.323176
0.32442
0.322945
0.319298
0.313973
0.307444
0.299837
0.290781
0.283198
0.320469
0.312978
0.319037
0.328756
0.337641
0.343616
0.346141
0.34554
0.342367
0.337161
0.330405
0.322556
0.313739
0.303646
0.29502
0.352728
0.344346
0.349075
0.356964
0.36381
0.367747
0.36834
0.365947
0.361124
0.354403
0.346258
0.337127
0.327137
0.316038
0.306384
0.383895
0.374647
0.378067
0.384167
0.389028
0.390989
0.389711
0.385584
0.379166
0.370981
0.361492
0.351123
0.34
0.327929
0.31727
0.413867
0.40378
0.40592
0.410281
0.41322
0.413274
0.410193
0.404397
0.396444
0.38685
0.37607
0.364508
0.352298
0.339293
0.327654
0.442544
0.431649
0.432548
0.435227
0.436316
0.434538
0.42973
0.422335
0.412912
0.40197
0.389952
0.377251
0.364001
0.350103
0.337517
0.469831
0.458162
0.457863
0.458928
0.458247
0.454721
0.448266
0.439348
0.428525
0.4163
0.403105
0.389318
0.375081
0.360334
0.346837
0.495638
0.483233
0.481788
0.481312
0.478948
0.473764
0.465749
0.45539
0.443242
0.429803
0.415494
0.400681
0.38551
0.369961
0.355595
0.51988
0.50678
0.504246
0.502311
0.498358
0.491614
0.482131
0.470416
0.457023
0.442443
0.427088
0.411309
0.395264
0.378962
0.363772
0.542477
0.528727
0.525166
0.521861
0.516422
0.508218
0.497365
0.484385
0.469831
0.454186
0.437855
0.421178
0.404318
0.387314
0.37135
0.563355
0.549001
0.544483
0.539905
0.533085
0.52353
0.511408
0.497258
0.481631
0.465002
0.447769
0.430261
0.412649
0.394997
0.378313
0.582446
0.567538
0.562137
0.556386
0.5483
0.537505
0.524222
0.509
0.49239
0.474861
0.456803
0.438535
0.420236
0.401992
0.384646
0.599687
0.584277
0.578073
0.571256
0.562021
0.550104
0.53577
0.51958
0.502081
0.483738
0.464934
0.445979
0.42706
0.408282
0.390334
0.615024
0.599165
0.592241
0.584471
0.574209
0.561291
0.54602
0.528966
0.510676
0.491608
0.47214
0.452575
0.433105
0.41385
0.395365
0.628406
0.612155
0.604597
0.59599
0.584829
0.571034
0.554943
0.537134
0.518152
0.498452
0.478403
0.458304
0.438354
0.418684
0.399728
0.639789
0.623204
0.615103
0.605779
0.593849
0.579305
0.562514
0.544061
0.524489
0.504249
0.483706
0.463153
0.442793
0.422771
0.403413
0.649138
0.632279
0.623728
0.61381
0.601244
0.586081
0.568713
0.549729
0.52967
0.508985
0.488036
0.467109
0.446413
0.4261
0.406412
0.656423
0.639349
0.630444
0.620059
0.606992
0.591343
0.573521
0.55412
0.53368
0.512647
0.49138
0.470161
0.449202
0.428662
0.408718
0.661621
0.644394
0.635232
0.624507
0.611077
0.595076
0.576925
0.557224
0.536509
0.515226
0.49373
0.472301
0.451155
0.430453
0.410326
0.664715
0.647398
0.638077
0.627142
0.613487
0.597269
0.578917
0.559031
0.538149
0.516713
0.495079
0.473524
0.452265
0.431466
0.411236
0.665697
0.648351
0.638971
0.627957
0.614217
0.597917
0.579491
0.559538
0.538596
0.517106
0.495424
0.473827
0.45253
0.4317
0.411441
0.664564
0.647252
0.637912
0.626949
0.613264
0.597018
0.578645
0.558742
0.537848
0.516404
0.494764
0.473208
0.451948
0.431152
0.410935
0.661321
0.644105
0.634905
0.624122
0.610631
0.594575
0.576381
0.556646
0.535907
0.514607
0.493101
0.471669
0.450522
0.429821
0.409721
0.655979
0.638922
0.629959
0.619486
0.606327
0.590596
0.572708
0.553257
0.53278
0.511721
0.490439
0.469214
0.448255
0.427714
0.407803
0.648557
0.63172
0.623091
0.613055
0.600364
0.585092
0.567635
0.548582
0.528474
0.507754
0.486785
0.465849
0.445152
0.424837
0.405193
0.63908
0.622523
0.614323
0.604849
0.592762
0.578079
0.561176
0.542637
0.523001
0.502717
0.482148
0.461584
0.441222
0.421197
0.401894
0.627581
0.611362
0.603683
0.594893
0.583542
0.569579
0.553351
0.535437
0.516376
0.496622
0.476541
0.456428
0.436473
0.416801
0.397909
0.614097
0.598274
0.591206
0.583219
0.572733
0.559615
0.544181
0.527002
0.508618
0.489486
0.469978
0.450394
0.430919
0.411661
0.393248
0.598674
0.583303
0.576931
0.569863
0.560366
0.548216
0.533693
0.517356
0.499748
0.481329
0.462476
0.443499
0.424574
0.40579
0.387922
0.581365
0.566498
0.560905
0.554865
0.546478
0.535417
0.521916
0.506526
0.489789
0.472171
0.454055
0.43576
0.417452
0.399201
0.38194
0.562226
0.547916
0.543178
0.538271
0.531111
0.521253
0.508884
0.494541
0.478769
0.462037
0.444737
0.427195
0.409571
0.39191
0.375317
0.541321
0.527616
0.523806
0.520132
0.51431
0.505766
0.494634
0.481435
0.466717
0.450954
0.434546
0.417828
0.400952
0.383936
0.368066
0.518722
0.505667
0.502853
0.500505
0.496125
0.489
0.479205
0.467245
0.453667
0.438952
0.423507
0.407681
0.391615
0.375297
0.360202
0.494502
0.482141
0.480384
0.479449
0.47661
0.471005
0.462642
0.452009
0.439653
0.426062
0.41165
0.396779
0.381583
0.366015
0.351743
0.468743
0.457117
0.456472
0.457029
0.455824
0.451831
0.444991
0.435769
0.424714
0.412317
0.399005
0.38515
0.370881
0.356111
0.342706
0.441532
0.430677
0.431193
0.433315
0.433826
0.431535
0.426302
0.418571
0.408888
0.397755
0.385604
0.372823
0.359535
0.345608
0.333109
0.41296
0.402908
0.404628
0.408378
0.410684
0.410174
0.406628
0.40046
0.39222
0.382413
0.371481
0.359828
0.347571
0.334531
0.322974
0.383121
0.373904
0.376863
0.382295
0.386465
0.38781
0.386022
0.381488
0.374753
0.36633
0.356672
0.346197
0.335018
0.322905
0.312319
0.352117
0.343761
0.347987
0.355148
0.361242
0.364508
0.364545
0.361705
0.356534
0.34955
0.341214
0.331962
0.321905
0.310756
0.301166
0.320052
0.312579
0.318092
0.32702
0.33509
0.340335
0.342254
0.341166
0.337611
0.332114
0.325147
0.317159
0.308264
0.298111
0.289535
0.287032
0.280462
0.287276
0.297998
0.308086
0.31536
0.319214
0.319927
0.318035
0.314069
0.308509
0.301822
0.294124
0.284997
0.277449
0.253171
0.247518
0.255637
0.268171
0.28031
0.289655
0.295488
0.298046
0.297858
0.295461
0.291343
0.28599
0.279519
0.271441
0.264926
0.21858
0.213857
0.223279
0.237633
0.251845
0.263294
0.271142
0.275582
0.277133
0.276337
0.273692
0.269699
0.264483
0.257473
0.251988
0.183378
0.179592
0.190305
0.206478
0.222776
0.236352
0.246245
0.252596
0.255915
0.256748
0.255599
0.252989
0.249049
0.243119
0.238652
0.147682
0.144838
0.156825
0.174803
0.19319
0.208907
0.220865
0.22915
0.23426
0.236742
0.23711
0.2359
0.233254
0.228411
0.224935
0.111614
0.109711
0.122945
0.142706
0.163174
0.181038
0.195073
0.205308
0.212224
0.216372
0.21827
0.218475
0.217138
0.21338
0.210849
0.0752939
0.0743287
0.0887769
0.110288
0.132818
0.152824
0.168941
0.181133
0.189866
0.195691
0.199128
0.200754
0.200742
0.198064
0.196403
0.0388453
0.0388101
0.0544318
0.0776487
0.102211
0.124346
0.14254
0.156692
0.167245
0.17475
0.17973
0.182781
0.184114
0.182515
0.181601
0.00239053
0.00327379
0.0200215
0.0448907
0.0714461
0.0956839
0.115943
0.132048
0.144419
0.153606
0.160127
0.164598
0.1673
0.166808
0.166441
-0.0339477
-0.032162
-0.0143418
0.0121159
0.040613
0.0669203
0.0892236
0.107268
0.121448
0.132312
0.14037
0.146244
0.150346
0.151089
0.150924
-0.0700471
-0.0673797
-0.0485462
-0.0205737
0.00980318
0.0381361
0.0624534
0.0824164
0.0983912
0.110922
0.120513
0.12776
0.133254
0.135532
0.134868
-0.105786
-0.102263
-0.0824799
-0.0530765
-0.0208925
0.00941197
0.0357049
0.057559
0.0753063
0.0894896
0.100608
0.109196
0.115992
0.12045
0.119361
-0.141046
-0.1367
-0.116033
-0.0852921
-0.0513839
-0.0191719
0.00904962
0.0327597
0.052252
0.068066
0.080708
0.0906458
0.0986195
0.104999
0.106787
-0.175705
-0.170578
-0.149098
-0.117121
-0.0815822
-0.0475365
-0.0174421
0.00808162
0.0292855
0.0467023
0.0608536
0.0721687
0.0813082
0.0892565
0.0939315
-0.20965
-0.20378
-0.181568
-0.148466
-0.1114
-0.0756042
-0.0437014
-0.0164137
0.00646229
0.0254483
0.041082
0.0537826
0.0641199
0.0733511
0.0800601
-0.242842
-0.236149
-0.213342
-0.179234
-0.140751
-0.103299
-0.0696611
-0.0406665
-0.0161643
0.00435162
0.0214305
0.0354964
0.0470492
0.0574428
0.0656582
-0.275209
-0.267581
-0.244336
-0.20933
-0.169551
-0.130548
-0.0952558
-0.0646189
-0.038543
-0.016542
0.00193891
0.0173331
0.0300936
0.0416088
0.0511377
-0.306518
-0.298052
-0.27449
-0.238664
-0.19772
-0.157278
-0.120422
-0.0882147
-0.0606243
-0.0371884
-0.0173521
-0.0006728
0.0132698
0.0258674
0.0366106
-0.336683
-0.327461
-0.30368
-0.267157
-0.225177
-0.183423
-0.1451
-0.1114
-0.08236
-0.0575449
-0.0364035
-0.018485
-0.00339474
0.0102376
0.0221047
-0.365636
-0.35572
-0.331699
-0.294811
-0.251837
-0.208916
-0.169231
-0.134122
-0.103704
-0.0775702
-0.0551776
-0.0360685
-0.019869
-0.00524833
0.00766781
-0.393302
-0.382747
-0.358554
-0.321482
-0.277615
-0.233698
-0.192757
-0.156332
-0.124612
-0.0972247
-0.0736383
-0.0533901
-0.0361221
-0.0205555
-0.0066477
-0.419609
-0.408464
-0.384195
-0.346848
-0.302647
-0.257712
-0.215625
-0.177983
-0.145042
-0.11647
-0.091751
-0.0704173
-0.0521241
-0.0356522
-0.0208015
-0.444493
-0.4328
-0.408568
-0.371132
-0.326614
-0.280875
-0.237785
-0.199031
-0.164955
-0.135271
-0.109483
-0.0871196
-0.0678469
-0.0505102
-0.0347626
-0.4679
-0.455693
-0.431596
-0.394251
-0.349476
-0.303154
-0.259189
-0.219433
-0.184312
-0.153594
-0.126802
-0.103468
-0.083264
-0.065104
-0.0485044
-0.489783
-0.477094
-0.453215
-0.416111
-0.371247
-0.324487
-0.279797
-0.239151
-0.203081
-0.171408
-0.143682
-0.119436
-0.0983511
-0.0794102
-0.062003
-0.510099
-0.496962
-0.47338
-0.436656
-0.391884
-0.34484
-0.299567
-0.258149
-0.221229
-0.188684
-0.160094
-0.135
-0.113086
-0.0934076
-0.075237
-0.528818
-0.515267
-0.492055
-0.455845
-0.411337
-0.364177
-0.318464
-0.276397
-0.238729
-0.205397
-0.176017
-0.150137
-0.127449
-0.107077
-0.0881871
-0.545917
-0.531987
-0.509213
-0.473645
-0.429567
-0.382461
-0.336458
-0.293873
-0.255553
-0.221525
-0.191428
-0.164828
-0.141422
-0.120403
-0.100835
-0.561384
-0.54711
-0.524836
-0.49003
-0.446543
-0.399661
-0.353522
-0.310546
-0.271689
-0.237044
-0.20631
-0.179056
-0.154989
-0.133373
-0.113164
-0.575216
-0.560634
-0.538913
-0.504981
-0.462243
-0.415754
-0.369632
-0.326396
-0.287111
-0.251947
-0.220645
-0.192806
-0.168139
-0.145977
-0.125157
-0.58742
-0.572568
-0.551446
-0.518489
-0.476649
-0.430719
-0.384772
-0.341408
-0.301805
-0.266215
-0.234429
-0.206062
-0.180857
-0.158209
-0.1368
-0.598015
-0.58293
-0.562444
-0.530551
-0.489752
-0.444544
-0.398926
-0.35557
-0.31576
-0.279837
-0.247647
-0.218832
-0.193127
-0.170062
-0.148097
-0.607028
-0.591748
-0.571927
-0.541177
-0.501549
-0.45722
-0.412086
-0.368873
-0.328969
-0.292805
-0.260289
-0.231095
-0.204957
-0.181491
-0.159125
-0.614496
-0.599061
-0.579926
-0.550382
-0.512044
-0.468744
-0.424247
-0.381313
-0.341428
-0.305116
-0.272351
-0.242845
-0.216336
-0.192526
-0.170068
-0.620465
-0.604915
-0.586478
-0.558192
-0.521249
-0.479121
-0.435409
-0.392887
-0.353135
-0.316769
-0.283833
-0.254082
-0.227262
-0.203132
-0.180497
-0.624991
-0.609366
-0.591634
-0.564641
-0.529185
-0.48836
-0.445576
-0.4036
-0.364093
-0.327766
-0.294736
-0.264806
-0.237731
-0.213301
-0.190413
-0.628136
-0.612479
-0.59545
-0.569772
-0.535878
-0.496475
-0.454756
-0.413456
-0.374307
-0.338112
-0.305063
-0.275016
-0.247743
-0.223057
-0.199926
-0.629972
-0.614325
-0.597991
-0.573637
-0.541364
-0.50349
-0.462965
-0.422466
-0.383785
-0.347814
-0.314821
-0.28472
-0.257303
-0.232415
-0.20909
-0.630576
-0.614983
-0.599331
-0.576295
-0.545684
-0.50943
-0.470218
-0.430644
-0.39254
-0.356882
-0.32402
-0.293926
-0.26642
-0.24138
-0.217912
-0.63003
-0.614536
-0.599548
-0.577813
-0.548887
-0.514328
-0.47654
-0.438007
-0.400584
-0.36533
-0.332672
-0.302645
-0.275102
-0.249954