/*--------------------------------*- C++ -*----------------------------------*\
  =========                 |
  \\      /  F ield         | OpenFOAM: The Open Source CFD Toolbox
   \\    /   O peration     | Website:  https://openfoam.org
    \\  /    A nd           | Version:  7
     \\/     M anipulation  |
\*---------------------------------------------------------------------------*/
FoamFile
{
    version     2.0;
    format      ascii;
    class       surfaceScalarField;
    location    "240";
    object      phi;
}
// * * * * * * * * * * * * * * * * * * * * * * * * * * * * * * * * * * * * * //

dimensions      [0 3 -1 0 0 0 0];

internalField   nonuniform List<scalar> 
39691
(
-1.63808e-06
6.91131e-05
-6.7475e-05
-6.53037e-06
0.000201107
-0.000196214
-1.49129e-05
0.000330961
-0.000322579
-2.69501e-05
0.000454492
-0.000442455
-4.26189e-05
0.000569024
-0.000553356
-6.16508e-05
0.000673971
-0.000654939
-8.354e-05
0.000770845
-0.000748956
-0.000107607
0.000862815
-0.000838748
-0.000133098
0.000953884
-0.000928394
-0.000159273
0.00104796
-0.00102179
-0.000185469
0.00114812
-0.00112192
-0.000211095
0.0012561
-0.00123047
-0.000235596
0.00137214
-0.00134764
-0.000258357
0.00149483
-0.00147207
0.00162127
-0.00160092
-0.000278708
-1.02115e-06
7.01343e-05
-4.36336e-06
0.000204449
-1.04475e-05
0.000337046
-1.95994e-05
0.000463644
-3.19276e-05
0.000581352
-4.72527e-05
0.000689296
-6.51038e-05
0.000788696
-8.47757e-05
0.000882487
-0.000105423
0.000974532
-0.000126159
0.0010687
-0.000146115
0.00116807
-0.00016446
0.00127444
-0.000180373
0.00138805
-0.000192984
0.00150744
0.00162964
-0.000201349
-4.19461e-07
7.05537e-05
-2.22663e-06
0.000206256
-6.00505e-06
0.000340824
-1.22247e-05
0.000469864
-2.11158e-05
0.000590244
-3.25855e-05
0.000700766
-4.62007e-05
0.000802311
-6.12336e-05
0.00089752
-7.6752e-05
0.00099005
-9.17174e-05
0.00108366
-0.000105058
0.00118142
-0.000115696
0.00128508
-0.000122538
0.0013949
-0.000124473
0.00150938
0.00162544
-0.000120276
1.59596e-07
7.03941e-05
-1.54774e-07
0.00020657
-1.65528e-06
0.000342324
-4.93706e-06
0.000473145
-1.03394e-05
0.000595646
-1.78514e-05
0.000708278
-2.70798e-05
0.000811539
-3.72808e-05
0.000907721
-4.7442e-05
0.00100021
-5.63806e-05
0.0010926
-6.28246e-05
0.00118786
-6.54514e-05
0.00128771
-6.29002e-05
0.00139234
-5.38268e-05
0.00150031
0.00160845
-3.68354e-05
7.01272e-07
6.96929e-05
1.8184e-06
0.000205453
2.533e-06
0.00034161
2.15247e-06
0.000473526
2.44284e-07
0.000597554
-3.25747e-06
0.000711779
-8.00002e-06
0.000816282
-1.32311e-05
0.000912952
-1.78692e-05
0.00100485
-2.05996e-05
0.00109533
-1.9961e-05
0.00118722
-1.43997e-05
0.00128215
-2.30028e-06
0.00138025
1.79722e-05
0.00148003
0.00157864
4.77825e-05
1.20106e-06
6.84918e-05
3.66223e-06
0.000202992
6.49505e-06
0.000338777
8.93514e-06
0.000471086
1.04755e-05
0.000596014
1.09852e-05
0.00071127
1.07734e-05
0.000816494
1.05921e-05
0.000913134
1.15778e-05
0.00100386
1.51604e-05
0.00109175
2.29715e-05
0.00117941
3.67778e-05
0.00126834
5.84297e-05
0.00135859
8.9711e-05
0.00144875
0.00153601
0.000132339
1.65035e-06
6.68414e-05
5.34835e-06
0.000199294
1.01697e-05
0.000333956
1.53076e-05
0.000465948
2.02026e-05
0.000591119
2.46684e-05
0.000706804
2.89733e-05
0.000812189
3.38599e-05
0.000908247
4.05034e-05
0.000997221
5.04272e-05
0.00108183
6.54094e-05
0.00116443
8.74036e-05
0.00124635
0.000118471
0.00132753
0.000160587
0.00140664
0.00148102
0.000215573
2.04264e-06
6.47988e-05
6.85158e-06
0.000194485
1.3501e-05
0.000327306
2.11723e-05
0.000458277
2.92769e-05
0.000583014
3.75878e-05
0.000698493
4.63348e-05
0.000803442
5.62437e-05
0.000898338
6.85108e-05
0.000984953
8.4729e-05
0.00106561
0.000106794
0.00114236
0.000136816
0.00121632
0.00017704
0.0012873
0.000229603
0.00135407
0.00141422
0.000296404
2.37267e-06
6.24261e-05
8.15036e-06
0.000188707
1.64394e-05
0.000319017
2.64402e-05
0.000448276
3.75602e-05
0.000571894
4.9548e-05
0.000686505
6.26006e-05
0.000790389
7.74207e-05
0.000883518
9.52085e-05
0.000967166
0.000117601
0.00104322
0.000146579
0.00111338
0.000184376
0.00117853
0.000233387
0.00123829
0.000295891
0.00129157
0.00133628
0.000373832
2.63639e-06
5.97897e-05
9.22704e-06
0.000182117
1.89426e-05
0.000309302
3.10327e-05
0.000436186
4.49269e-05
0.000558
6.03676e-05
0.000671065
7.7527e-05
0.00077323
9.70806e-05
0.000863965
0.000120217
0.000944029
0.000148592
0.00101484
0.000184241
0.00107774
0.00022948
0.00113329
0.000286821
0.00118095
0.000358664
0.00121973
0.00124796
0.000446988
2.83091e-06
5.69588e-05
1.0068e-05
0.00017488
2.09763e-05
0.000298393
3.48835e-05
0.000422278
5.1267e-05
0.000541616
6.98831e-05
0.000652449
9.08894e-05
0.000752224
0.000114933
0.000839921
0.00014318
0.000915783
0.000177278
0.000980744
0.000219284
0.00103573
0.000271566
0.00108101
0.000336714
0.0011158
0.000417227
0.00113921
0.00115004
0.000515142
2.95452e-06
5.40043e-05
1.0664e-05
0.00016717
2.25148e-05
0.000286543
3.79399e-05
0.000406853
5.64896e-05
0.000523067
7.79542e-05
0.000630984
0.00010249
0.000727688
0.000130717
0.000811693
0.000163768
0.000882732
0.000203264
0.000941247
0.000251257
0.000987736
0.000310127
0.00102214
0.000382511
0.00104342
0.00047099
0.00105073
0.00104331
0.00057772
3.00661e-06
5.09977e-05
1.10099e-05
0.000159167
2.3542e-05
0.000274011
4.01649e-05
0.00039023
6.05256e-05
0.000502706
8.44686e-05
0.000607041
0.000112162
0.000699994
0.000144208
0.000779648
0.000181696
0.000845244
0.000226208
0.000896736
0.00027976
0.000934183
0.000344721
0.000957175
0.000423748
0.000964391
0.000519487
0.000954995
0.000928476
0.000634323
2.98764e-06
4.80101e-05
1.1105e-05
0.000151049
2.40511e-05
0.000261065
4.15382e-05
0.000372743
6.33307e-05
0.000480914
8.93472e-05
0.000581025
0.000119784
0.000669557
0.00015523
0.000744202
0.000196735
0.000803739
0.000245826
0.000847644
0.000304471
0.000875539
0.000375
0.000886646
0.000460077
0.000879314
0.000562399
0.000852673
0.000806103
0.000684771
2.89914e-06
4.51109e-05
1.09532e-05
0.000142995
2.40459e-05
0.000247972
4.20575e-05
0.000354732
6.48883e-05
0.000458083
9.25489e-05
0.000553364
0.000125279
0.000636827
0.000163667
0.000705815
0.000208725
0.00075868
0.000261924
0.000794445
0.000325168
0.000812295
0.000400739
0.000811074
0.000491305
0.000788749
0.000599613
0.000744364
0.000676559
0.000729157
2.74372e-06
4.23672e-05
1.0563e-05
0.000135176
2.35412e-05
0.000234994
4.17408e-05
0.000336532
6.52129e-05
0.000434611
9.40767e-05
0.0005245
0.000128632
0.000602272
0.000169477
0.000664969
0.000217599
0.000710559
0.000274414
0.000737631
0.000341764
0.000744945
0.000421883
0.000730955
0.000517454
0.000693177
0.000631293
0.000630526
0.000539914
0.000767938
2.52519e-06
3.9842e-05
9.94781e-06
0.000127753
2.25633e-05
0.000222378
4.0627e-05
0.000318468
6.4353e-05
0.000410885
9.3983e-05
0.00049487
0.000129893
0.000566362
0.000172708
0.000622154
0.000223404
0.000659863
0.000283354
0.00067768
0.000354354
0.000673945
0.000438604
0.000646705
0.000538842
0.00059294
0.000657981
0.000511387
0.000395859
0.000802036
2.24872e-06
3.75933e-05
9.12685e-06
0.000120875
2.11515e-05
0.000210353
3.87786e-05
0.000300841
6.23943e-05
0.000387269
9.23753e-05
0.000464889
0.000129189
0.000529548
0.00017351
0.000577833
0.00022632
0.000607053
0.000288979
0.000615021
0.000363262
0.000599663
0.000451377
0.000558589
0.000556167
0.00048815
0.000680711
0.000386842
0.00024362
0.000832951
1.92104e-06
3.56723e-05
8.12517e-06
0.000114671
1.93585e-05
0.00019912
3.62827e-05
0.000283917
5.94628e-05
0.000364089
8.9422e-05
0.00043493
0.000126737
0.000492233
0.000172153
0.000532417
0.000226692
0.000552514
0.000291737
0.000549975
0.000369094
0.000522306
0.00046104
0.000466643
0.000570598
0.000378592
0.000701111
0.000256329
8.19151e-05
0.000862816
1.55066e-06
3.41216e-05
6.9744e-06
0.000109247
1.72517e-05
0.000188843
3.32528e-05
0.000267916
5.57274e-05
0.000341614
8.53562e-05
0.000405301
0.000122844
0.000454745
0.000169039
0.000486223
0.000225042
0.000496511
0.000292317
0.0004827
0.000372771
0.000441852
0.000468844
0.00037057
0.000583817
0.000263619
0.000721437
0.000118709
-9.1019e-05
0.000894371
1.14806e-06
3.29735e-05
5.71308e-06
0.000104682
1.49132e-05
0.000179643
2.98294e-05
0.000253
5.1401e-05
0.000320043
8.04787e-05
0.000376223
0.00011792
0.000417304
0.00016471
0.000439433
0.000222087
0.000439134
0.000291666
0.00041312
0.000375552
0.000357966
0.00047646
0.000269662
0.000598004
0.000142075
0.000744505
-2.77913e-05
-0.000277285
0.000930771
7.25781e-07
3.22478e-05
4.38665e-06
0.000101022
1.24401e-05
0.000171589
2.61791e-05
0.000239261
4.6739e-05
0.000299483
7.51561e-05
0.000347806
0.000112469
0.000379991
0.000159847
0.000392055
0.00021873
0.00038025
0.000290977
0.000340874
0.000379001
0.000269943
0.000485918
0.000162745
0.000615708
1.22848e-05
0.000773469
-0.000185552
-0.00047904
0.000975225
2.98387e-07
3.19494e-05
3.04692e-06
9.8273e-05
9.94265e-06
0.000164693
2.24924e-05
0.000226711
4.20358e-05
0.00027994
6.98146e-05
0.000320027
0.000107084
0.000342722
0.000155252
0.000343887
0.00021604
0.000319462
0.000291648
0.000265266
0.000384911
0.00017668
0.000499464
4.81922e-05
0.000639616
-0.000127868
0.000811442
-0.000357379
-0.00069807
0.00103047
-1.181e-07
3.20675e-05
1.75079e-06
9.64041e-05
7.54177e-06
0.000158902
1.89782e-05
0.000215275
3.7616e-05
0.000261302
6.4927e-05
0.000292716
0.000102425
0.000305224
0.00015182
0.000294492
0.000215197
0.000256085
0.000295196
0.000185266
0.000395173
7.6703e-05
0.00051935
-7.5985e-05
0.000672226
-0.000280744
0.000861007
-0.000546159
-0.00093525
0.00109819
-5.05874e-07
3.25733e-05
5.58812e-07
9.53394e-05
5.36479e-06
0.000154096
1.58569e-05
0.000204783
3.38225e-05
0.000243336
6.09932e-05
0.000265546
9.91884e-05
0.000267029
0.000150487
0.000243194
0.000217418
0.000189154
0.000303144
9.954e-05
0.000411594
-3.17462e-05
0.000547566
-0.000211957
0.000715506
-0.000448685
0.000923728
-0.000754381
-0.00118999
0.00117847
-8.47631e-07
3.3421e-05
-4.67174e-07
9.4959e-05
3.53966e-06
0.00015009
1.33494e-05
0.000194973
3.0999e-05
0.000225687
5.85136e-05
0.000238031
9.80677e-05
0.000227475
0.000152171
0.00018909
0.000223865
0.000117461
0.00031688
6.52467e-06
0.000435702
-0.000150568
0.000585574
-0.00036183
0.000770582
-0.000633692
0.000999783
-0.000983582
-0.0014598
0.00126959
-1.12661e-06
3.45476e-05
-1.27328e-06
9.51057e-05
2.18772e-06
0.000146629
1.16661e-05
0.000185494
2.94717e-05
0.000207881
5.79584e-05
0.000209545
9.97033e-05
0.00018573
0.000157699
0.000131094
0.000235536
3.96244e-05
0.00033751
-9.54493e-05
0.000468561
-0.000281619
0.000634095
-0.000527364
0.000837539
-0.000837137
0.00108779
-0.00123383
-0.00174015
0.00136814
-1.32761e-06
3.58752e-05
-1.80462e-06
9.55827e-05
1.41762e-06
0.000143406
1.09936e-05
0.000175918
2.95277e-05
0.000189347
5.9736e-05
0.000179336
0.000104637
0.000140829
0.000167737
6.79936e-05
0.000253175
-4.58137e-05
0.000365741
-0.000208015
0.000510638
-0.000426516
0.000692998
-0.000709724
0.000915384
-0.00105952
0.00118484
-0.00150329
-0.00202501
0.0014697
-1.43859e-06
3.73138e-05
-2.02048e-06
9.61646e-05
1.31726e-06
0.000140069
1.14831e-05
0.000165752
3.1397e-05
0.000169433
6.41645e-05
0.000146569
0.000113269
9.1724e-05
0.000182735
-1.47209e-06
0.000277199
-0.000140277
0.0004018
-0.000332617
0.000561731
-0.000586447
0.000761336
-0.000909329
0.00100221
-0.00130039
0.00128684
-0.00178792
-0.00230806
0.00156988
-1.45137e-06
3.87652e-05
-1.89173e-06
9.66049e-05
1.94876e-06
0.000136228
1.32412e-05
0.00015446
3.52373e-05
0.000147437
7.14502e-05
0.000110356
0.000125833
3.73417e-05
0.000202891
-7.85304e-05
0.000307657
-0.000245043
0.000445404
-0.000470364
0.000620969
-0.000762011
0.000837417
-0.00112578
0.0010954
-0.00155837
0.00138954
-0.00208206
-0.00258461
0.00166609
-1.36217e-06
4.01273e-05
-1.40328e-06
9.6646e-05
3.34561e-06
0.000131479
1.63241e-05
0.000141481
4.11263e-05
0.000122635
8.16766e-05
6.98055e-05
0.000142376
-2.33582e-05
0.000228143
-0.000164297
0.000344242
-0.000361142
0.000495795
-0.000621918
0.00068687
-0.000953086
0.000918818
-0.00135773
0.00119122
-0.00183078
0.00149048
-0.00238131
-0.00285559
0.00176146
-1.17199e-06
4.12993e-05
-5.52966e-07
9.6027e-05
5.51096e-06
0.000125415
2.07365e-05
0.000126256
4.90606e-05
9.43108e-05
9.48068e-05
2.40592e-05
0.000162778
-9.13295e-05
0.00025819
-0.000259709
0.000386332
-0.000489284
0.000551834
-0.00078742
0.000757531
-0.00115878
0.00100262
-0.00160281
0.00128408
-0.00211224
0.00158383
-0.00268106
-0.00321106
0.0019393
-8.86035e-07
4.21853e-05
6.39919e-07
9.45011e-05
8.42062e-06
0.000117635
2.64368e-05
0.00010824
5.89635e-05
6.1784e-05
0.000110695
-2.76726e-05
0.000186763
-0.000167397
0.00029253
-0.000365476
0.000433056
-0.00062981
0.000612109
-0.000966472
0.000830834
-0.00137751
0.00108598
-0.00185796
0.00137105
-0.00239731
0.00166724
-0.00297725
-0.00353209
0.00198828
-5.13373e-07
4.26987e-05
2.15503e-06
9.18327e-05
1.20273e-05
0.000107762
3.33429e-05
8.69242e-05
7.06975e-05
2.44294e-05
0.00012911
-8.60848e-05
0.000213938
-0.000252225
0.000330514
-0.000482052
0.000483379
-0.000782675
0.000675064
-0.00115816
0.000904629
-0.00160707
0.00116622
-0.00211955
0.00144973
-0.00268082
0.00173715
-0.00326467
-0.00382454
0.0020296
-5.82295e-08
4.27569e-05
3.96246e-06
8.7812e-05
1.62675e-05
9.54573e-05
4.13449e-05
6.18468e-05
8.40815e-05
-1.83072e-05
0.000149756
-0.00015176
0.000243831
-0.000346299
0.000371394
-0.000609616
0.000536166
-0.000947447
0.00073908
-0.00136107
0.000976836
-0.00184483
0.00124099
-0.00238371
0.00151872
-0.00295855
0.00179289
-0.00353884
-0.00409108
0.00205942
4.56401e-07
4.23005e-05
6.02325e-06
8.22451e-05
2.10682e-05
8.04124e-05
5.03168e-05
3.25981e-05
9.89098e-05
-6.69002e-05
0.000172306
-0.000225156
0.000275923
-0.000449916
0.000414372
-0.000748066
0.00059024
-0.00112331
0.000802554
-0.00157338
0.00104553
-0.0020878
0.00130838
-0.00264656
0.00157659
-0.00322676
0.00183432
-0.00379657
-0.00433264
0.00207589
1.02638e-06
4.12742e-05
8.30138e-06
7.49701e-05
2.63543e-05
6.23595e-05
6.01277e-05
-1.17527e-06
0.000114967
-0.00012174
0.000196415
-0.000306603
0.000309676
-0.000563176
0.000458631
-0.000897021
0.000644428
-0.00130911
0.000863958
-0.00179292
0.001109
-0.00233284
0.00136689
-0.00290445
0.00162248
-0.00348235
0.00186168
-0.00403578
-0.00455011
0.00207915
1.64069e-06
3.96335e-05
1.07633e-05
6.58475e-05
3.20554e-05
4.10674e-05
7.06512e-05
-3.97711e-05
0.000132043
-0.000183132
0.000221742
-0.000396302
0.000344549
-0.000685983
0.000503354
-0.00105583
0.000697588
-0.00150335
0.000921885
-0.00201721
0.00116581
-0.00257677
0.00141547
-0.0031541
0.00165601
-0.00372289
0.0018756
-0.00425536
-0.00474465
0.00207014
2.29096e-06
3.73425e-05
1.33805e-05
5.4758e-05
3.81087e-05
1.63391e-05
8.1771e-05
-8.34334e-05
0.000149936
-0.000251297
0.000247952
-0.000494318
0.000380009
-0.000818041
0.000547737
-0.00122355
0.000748637
-0.00170425
0.000975088
-0.00224366
0.00121485
-0.00281654
0.00145351
-0.00339276
0.00167734
-0.00394672
0.00187703
-0.00445505
-0.00491776
0.00205013
2.97171e-06
3.43708e-05
1.61311e-05
4.15987e-05
4.44622e-05
-1.1992e-05
9.33839e-05
-0.000132355
0.000168458
-0.00032637
0.000274719
-0.000600579
0.000415526
-0.000958847
0.000591
-0.00139903
0.000796569
-0.00190981
0.00102252
-0.00246961
0.00125534
-0.00304936
0.00148082
-0.00361824
0.00168699
-0.00415289
0.00186714
-0.0046352
-0.0050712
0.00202058
3.67995e-06
3.06908e-05
1.89995e-05
2.62791e-05
5.10732e-05
-4.40656e-05
0.000105397
-0.000186679
0.000187429
-0.000408402
0.000301723
-0.000714874
0.000450576
-0.0011077
0.00063239
-0.00158084
0.000840479
-0.0021179
0.00106334
-0.00269247
0.00128682
-0.00327284
0.00149757
-0.003829
0.00168576
-0.00434108
0.00184724
-0.00479669
-0.00520686
0.00198291
4.41481e-06
2.6276e-05
2.19755e-05
8.71836e-06
5.7907e-05
-7.99971e-05
0.000117727
-0.000246499
0.000206674
-0.000497349
0.000328642
-0.000836842
0.000484641
-0.0012637
0.000671194
-0.0017674
0.000879593
-0.0023263
0.00109696
-0.00290984
0.00130915
-0.00348503
0.00150422
-0.00402407
0.00167466
-0.00451151
0.00181867
-0.0049407
-0.00532668
0.00193849
5.17687e-06
2.10992e-05
2.50522e-05
-1.11569e-05
6.49329e-05
-0.000119878
0.000130289
-0.000311856
0.000226014
-0.000593073
0.000355146
-0.000965974
0.000517206
-0.00142576
0.00070676
-0.00195695
0.000913281
-0.00253282
0.00112304
-0.0031196
0.00132247
-0.00368446
0.00150144
-0.00420304
0.00165477
-0.00466484
0.00178271
-0.00506864
-0.00543251
0.00188855
5.96745e-06
1.51317e-05
2.8224e-05
-3.34135e-05
7.21208e-05
-0.000163775
0.000142999
-0.000382733
0.00024526
-0.000695335
0.000380897
-0.00110161
0.000547774
-0.00159264
0.000738511
-0.00214769
0.00094108
-0.00273539
0.00114145
-0.00331997
0.00132714
-0.00387015
0.00149006
-0.00436595
0.00162723
-0.00480201
0.00174059
-0.005182
-0.00552611
0.00183418
6.78786e-06
8.34385e-06
3.14849e-05
-5.81105e-05
7.94367e-05
-0.000211726
0.00015576
-0.000459056
0.000264213
-0.000803788
0.000405553
-0.00124295
0.000575873
-0.00176296
0.000765963
-0.00233778
0.000962699
-0.00293213
0.00115228
-0.00350955
0.0013237
-0.00404158
0.00147097
-0.00451321
0.00159312
-0.00492416
0.0016934
-0.00528228
-0.00560902
0.00177631
7.63869e-06
7.05168e-07
3.48257e-05
-8.52976e-05
8.68407e-05
-0.000263741
0.000168467
-0.000540683
0.000282657
-0.000917978
0.00042877
-0.00138906
0.000601077
-0.00193526
0.000788748
-0.00252545
0.000978016
-0.0031214
0.00115578
-0.00368732
0.0013128
-0.00419859
0.00144511
-0.00464553
0.00155348
-0.00503253
0.00164211
-0.00537091
-0.00568262
0.00171571
8.51937e-06
-7.8142e-06
3.82338e-05
-0.000115012
9.42843e-05
-0.000319792
0.000181001
-0.000627399
0.00030037
-0.00103735
0.000450214
-0.00153891
0.000623016
-0.00210807
0.000806613
-0.00270904
0.000987063
-0.00330185
0.00115237
-0.00385263
0.00129516
-0.00434139
0.0014134
-0.00476376
0.00150924
-0.00512837
0.00158754
-0.00544921
-0.0057481
0.00165302
9.42794e-06
-1.72421e-05
4.16916e-05
-0.000147276
0.00010171
-0.00037981
0.000193232
-0.000718921
0.000317123
-0.00116124
0.000469577
-0.00169136
0.000641393
-0.00227988
0.000819429
-0.00288708
0.000990011
-0.00347243
0.00114254
-0.00400516
0.00127155
-0.00447039
0.00137669
-0.0048689
0.00146125
-0.00521293
0.00153041
-0.00551838
-0.00580644
0.00158876
1.03608e-05
-2.76029e-05
4.51768e-05
-0.000182092
0.000109052
-0.000443685
0.00020502
-0.000814889
0.000332687
-0.00128891
0.00048658
-0.00184525
0.000655991
-0.00244929
0.000827182
-0.00305827
0.00098714
-0.00363239
0.00112686
-0.00414488
0.0012427
-0.00458623
0.0013358
-0.004962
0.00141022
-0.00528735
0.00147131
-0.00557946
-0.00585847
0.00152333
1.13127e-05
-3.89156e-05
4.86623e-05
-0.000219441
0.000116237
-0.00051126
0.000216221
-0.000914874
0.000346848
-0.00141953
0.000500991
-0.0019994
0.000666678
-0.00261498
0.000829963
-0.00322156
0.000978817
-0.00378124
0.00110593
-0.00427199
0.00120935
-0.00468966
0.00129144
-0.00504408
0.0013568
-0.00535272
0.0014107
-0.00563336
-0.00590483
0.00145707
1.22772e-05
-5.11928e-05
5.21173e-05
-0.000259281
0.000123186
-0.000582328
0.000226692
-0.00101838
0.000359406
-0.00155225
0.000512629
-0.00215262
0.000673405
-0.00277576
0.00082795
-0.0033761
0.000965468
-0.00391876
0.00108035
-0.00438687
0.00117218
-0.00478149
0.00124425
-0.00511615
0.0013015
-0.00540997
0.00134898
-0.00568084
-0.00594607
0.00139022
1.32465e-05
-6.44393e-05
5.55077e-05
-0.000301543
0.000129818
-0.000656638
0.000236291
-0.00112485
0.000370191
-0.00168615
0.00052137
-0.0023038
0.000676201
-0.00293059
0.000821396
-0.0035213
0.000947555
-0.00404492
0.00105072
-0.00449003
0.0011318
-0.00486257
0.0011948
-0.00517915
0.00124477
-0.00545994
0.00128646
-0.00572254
-0.0059826
0.00132299
1.42119e-05
-7.86512e-05
5.87976e-05
-0.000346128
0.000136051
-0.000733892
0.00024489
-0.00123369
0.000379061
-0.00182032
0.000527146
-0.00245188
0.000675164
-0.0030786
0.000810605
-0.00365674
0.000925556
-0.00415987
0.0010176
-0.00458208
0.00108877
-0.00493374
0.00114356
-0.00523394
0.00118698
-0.00550335
0.0012234
-0.00575896
-0.00601474
0.00125554
1.5164e-05
-9.38152e-05
6.19498e-05
-0.000392914
0.000141807
-0.000813749
0.000252371
-0.00134426
0.00038591
-0.00195386
0.000529944
-0.00259592
0.000670451
-0.00321911
0.000795917
-0.0037822
0.000899946
-0.0042639
0.000981533
-0.00466366
0.0010436
-0.00499581
0.00109095
-0.00528129
0.00112842
-0.00554083
0.00116
-0.00579054
-0.00604273
0.00118799
1.60931e-05
-0.000109908
6.49274e-05
-0.000441749
0.000147009
-0.000895831
0.000258636
-0.00145588
0.000390667
-0.00208589
0.000529804
-0.00273506
0.000662265
-0.00335157
0.000777694
-0.00389763
0.000871188
-0.00435739
0.000942988
-0.00473546
0.000996714
-0.00504954
0.0010373
-0.00532187
0.00106934
-0.00557287
0.0010964
-0.0058176
-0.00606675
0.00112042
1.69891e-05
-0.000126897
6.76944e-05
-0.000492454
0.00015159
-0.000979726
0.000263605
-0.0015679
0.000393301
-0.00221558
0.00052681
-0.00286856
0.000650842
-0.0034756
0.000756306
-0.0040031
0.000839723
-0.00444081
0.000902406
-0.00479815
0.000948487
-0.00509562
0.000982896
-0.00535628
0.00100993
-0.00559991
0.00103274
-0.00584041
-0.00608694
0.00105293
1.7842e-05
-0.000144739
7.02164e-05
-0.000544828
0.00015549
-0.001065
0.00026722
-0.00167963
0.000393812
-0.00234217
0.000521082
-0.00299583
0.000636442
-0.00359096
0.00073212
-0.00409877
0.000805959
-0.00451465
0.000860175
-0.00485236
0.000899243
-0.00513469
0.000927987
-0.00538502
0.000950364
-0.00562228
0.000969119
-0.00585916
-0.00610338
0.000985566
1.86422e-05
-0.000163382
7.2462e-05
-0.000598648
0.000158659
-0.0011512
0.000269444
-0.00179041
0.000392235
-0.00246497
0.000512773
-0.00311637
0.00061934
-0.00369753
0.000705491
-0.00418493
0.000770275
-0.00457943
0.000816638
-0.00489873
0.000849256
-0.00516731
0.000872764
-0.00540853
0.00089076
-0.00564028
0.000905617
-0.00587402
-0.00611616
0.000918389
1.93802e-05
-0.000182762
7.44028e-05
-0.000653671
0.000161057
-0.00123785
0.000270262
-0.00189962
0.000388631
-0.00258334
0.000502057
-0.0032298
0.000599814
-0.00379529
0.000676759
-0.00426187
0.000733013
-0.00463568
0.000772094
-0.00493781
0.000798757
-0.00519397
0.00081739
-0.00542716
0.000831226
-0.00565411
0.0008423
-0.0058851
-0.0061253
0.000851443
2.00473e-05
-0.000202809
7.60143e-05
-0.000709638
0.000162657
-0.00132449
0.000269679
-0.00200664
0.000383088
-0.00269674
0.000489123
-0.00333583
0.000578141
-0.00388431
0.00064624
-0.00432997
0.000694479
-0.00468392
0.000726801
-0.00497013
0.000747941
-0.00521511
0.000761997
-0.00544122
0.000771849
-0.00566397
0.000779225
-0.00589247
-0.00613084
0.000784768
2.06355e-05
-0.000223444
7.72762e-05
-0.000766278
0.000163439
-0.00141066
0.000267719
-0.00211092
0.000375709
-0.00280473
0.000474171
-0.0034343
0.000554588
-0.00396472
0.000614229
-0.00438961
0.000654946
-0.00472464
0.000680983
-0.00499617
0.00069697
-0.00523109
0.000706694
-0.00545094
0.000712698
-0.00566997
0.000716438
-0.00589621
-0.00613281
0.0007184
2.11378e-05
-0.000244582
7.81729e-05
-0.000823313
0.0001634
-0.00149588
0.000264423
-0.00221194
0.000366615
-0.00290693
0.000457403
-0.00352508
0.000529413
-0.00403673
0.000580992
-0.00444119
0.000614655
-0.0047583
0.000634831
-0.00501634
0.000645982
-0.00524225
0.000651573
-0.00545653
0.000653834
-0.00567223
0.00065398
-0.00589636
-0.0061312
0.000652374
2.15498e-05
-0.000266132
7.86969e-05
-0.000880461
0.000162548
-0.00157973
0.000259853
-0.00230925
0.000355946
-0.00300302
0.000439031
-0.00360817
0.000502869
-0.00410057
0.000546783
-0.0044851
0.000573827
-0.00478535
0.000588516
-0.00503103
0.000595098
-0.00524883
0.000596718
-0.00545815
0.000595314
-0.00567083
0.000591898
-0.00589294
-0.00612603
0.00058673
2.18629e-05
-0.000287995
7.88344e-05
-0.000937432
0.000160886
-0.00166179
0.000254061
-0.00240242
0.00034382
-0.00309278
0.000419232
-0.00368358
0.000475161
-0.0041565
0.000511799
-0.00452174
0.000532624
-0.00480617
0.000542155
-0.00504056
0.000544395
-0.00525107
0.000542172
-0.00545593
0.000537163
-0.00566582
0.000530205
-0.00588598
-0.0061173
0.000521479
2.20749e-05
-0.00031007
7.8587e-05
-0.000993944
0.000158444
-0.00174164
0.000247129
-0.00249111
0.000330386
-0.00317604
0.000398206
-0.0037514
0.000446507
-0.0042048
0.000476245
-0.00455148
0.000491216
-0.00482114
0.000495876
-0.00504522
0.000493961
-0.00524915
0.000487997
-0.00544996
0.000479427
-0.00565725
0.000468939
-0.0058755
-0.00610502
0.000456659
2.2183e-05
-0.000332253
7.79569e-05
-0.00104972
0.000155249
-0.00181894
0.000239139
-0.002575
0.000315784
-0.00325268
0.000376132
-0.00381175
0.000417096
-0.00424577
0.000440291
-0.00457467
0.000449739
-0.00483059
0.000449778
-0.00504526
0.000443864
-0.00524324
0.00043424
-0.00544034
0.000422139
-0.00564515
0.000408129
-0.00586149
-0.00608919
0.000392298
2.21853e-05
-0.000354438
7.69502e-05
-0.00110448
0.000151341
-0.00189333
0.000230179
-0.00265384
0.000300151
-0.00332265
0.00035318
-0.00386478
0.0003871
-0.00427969
0.00040409
-0.00459167
0.00040831
-0.00483481
0.000403942
-0.0050409
0.00039416
-0.00523346
0.000380938
-0.00542712
0.00036533
-0.00562954
0.0003478
-0.00584396
-0.00606981
0.000328421
2.20812e-05
-0.000376519
7.55769e-05
-0.00115798
0.000146758
-0.00196451
0.000220337
-0.00272741
0.000283623
-0.00338594
0.000329507
-0.00391066
0.000356674
-0.00430685
0.000367773
-0.00460276
0.000367031
-0.00483407
0.000358441
-0.00503231
0.000344896
-0.00521991
0.000328127
-0.00541035
0.000309025
-0.00561044
0.000287978
-0.00582291
-0.00604688
0.000265046
2.18711e-05
-0.00039839
7.38498e-05
-0.00120996
0.000141548
-0.00203221
0.000209704
-0.00279557
0.000266325
-0.00344256
0.000305257
-0.0039496
0.000325957
-0.00432755
0.000331454
-0.00460826
0.000325987
-0.0048286
0.000313334
-0.00501965
0.000296115
-0.00520269
0.000275834
-0.00539007
0.000253247
-0.00558785
0.000228685
-0.00579835
-0.00602039
0.000202193
2.15563e-05
-0.000419947
7.17848e-05
-0.00126019
0.000135758
-0.00209618
0.000198368
-0.00285818
0.000248379
-0.00349257
0.000280563
-0.00398178
0.000295072
-0.00434206
0.000295235
-0.00460842
0.000285252
-0.00481862
0.000268672
-0.00500307
0.000247853
-0.00518187
0.000224091
-0.00536631
0.000198016
-0.00556177
0.000169935
-0.00577027
-0.00599034
0.000139883
2.11391e-05
-0.000441086
6.93997e-05
-0.00130845
0.000129438
-0.00215622
0.000186416
-0.00291516
0.000229899
-0.00353605
0.000255546
-0.00400743
0.000264127
-0.00435064
0.000259202
-0.0046035
0.000244889
-0.0048043
0.000224501
-0.00498268
0.000200146
-0.00515752
0.000172933
-0.00533909
0.000143375
-0.00553222
0.000111717
-0.00573861
-0.00595667
7.80506e-05
2.06226e-05
-0.000461708
6.67144e-05
-0.00135454
0.000122639
-0.00221214
0.000173932
-0.00296645
0.00021099
-0.00357311
0.000230313
-0.00402675
0.000233217
-0.00435355
0.000223429
-0.00459371
0.00020495
-0.00478582
0.000180855
-0.00495859
0.000153021
-0.00512968
0.000122394
-0.00530847
8.94136e-05
-0.00549924
5.40759e-05
-0.00570327
-0.00591856
1.59674e-05
2.00105e-05
-0.000481719
6.37498e-05
-0.00139828
0.000115411
-0.0022638
0.000160998
-0.00301204
0.000191749
-0.00360386
0.000204963
-0.00403996
0.000202427
-0.00435101
0.000187979
-0.00457926
0.000165481
-0.00476333
0.000137768
-0.00493088
0.000106498
-0.00509841
7.24745e-05
-0.00527444
3.61435e-05
-0.0054629
-1.92718e-06
-0.0056652
-0.00587673
-4.37606e-05
1.93071e-05
-0.000501026
6.05282e-05
-0.0014395
0.000107804
-0.00231108
0.000147688
-0.00305192
0.000172266
-0.00362844
0.000179582
-0.00404728
0.000171829
-0.00434326
0.000152909
-0.00456034
0.00012652
-0.00473694
9.52672e-05
-0.00489962
6.0602e-05
-0.00506375
2.31943e-05
-0.00523704
-1.66318e-05
-0.00542308
-5.89345e-05
-0.0056229
-0.00583253
-0.000103138
1.85175e-05
-0.000519543
5.70721e-05
-0.00147805
9.9868e-05
-0.00235388
0.000134074
-0.00308613
0.000152623
-0.00364699
0.000154247
-0.0040489
0.000141488
-0.0043305
0.000118264
-0.00453712
8.81014e-05
-0.00470678
5.33772e-05
-0.0048649
1.53533e-05
-0.00502573
-2.54022e-05
-0.00519628
-6.86407e-05
-0.00537984
-0.000114365
-0.00557717
-0.0057848
-0.000162095
1.76468e-05
-0.00053719
5.34043e-05
-0.00151381
9.16486e-05
-0.00239212