/*--------------------------------*- C++ -*----------------------------------*\
  =========                 |
  \\      /  F ield         | OpenFOAM: The Open Source CFD Toolbox
   \\    /   O peration     | Website:  https://openfoam.org
    \\  /    A nd           | Version:  7
     \\/     M anipulation  |
\*---------------------------------------------------------------------------*/
FoamFile
{
    version     2.0;
    format      ascii;
    class       volVectorField;
    location    "240";
    object      U;
}
// * * * * * * * * * * * * * * * * * * * * * * * * * * * * * * * * * * * * * //

dimensions      [0 1 -1 0 0 0 0];

internalField   nonuniform List<vector> 
20050
(
(-0.000719596 0.0296995 5.13191e-21)
(-0.00346462 0.0821797 -9.33255e-22)
(-0.00869479 0.128575 -1.17051e-20)
(-0.0158043 0.16785 -1.75549e-20)
(-0.0245921 0.199786 -1.58694e-21)
(-0.0347029 0.225005 1.07655e-20)
(-0.0456627 0.24477 -1.20227e-20)
(-0.0569526 0.260683 3.09992e-21)
(-0.0680684 0.274326 -8.53552e-21)
(-0.0785775 0.286982 1.57283e-20)
(-0.0881492 0.29948 1.34694e-20)
(-0.0965535 0.312157 -1.6479e-20)
(-0.103643 0.324926 -8.49752e-21)
(-0.109268 0.337336 9.07583e-21)
(-0.113216 0.348696 -9.7125e-21)
(-0.0013432 0.0302535 8.48841e-21)
(-0.00472973 0.0837989 -5.72484e-21)
(-0.00979605 0.131244 -2.59036e-21)
(-0.0162601 0.171514 1.75858e-20)
(-0.0240435 0.204311 2.17309e-20)
(-0.0329023 0.230178 -5.33872e-20)
(-0.0424526 0.250322 3.24792e-20)
(-0.0522317 0.266322 3.42547e-20)
(-0.0617559 0.27978 4.47404e-20)
(-0.070579 0.292026 -4.25721e-20)
(-0.0783278 0.303944 2.88259e-20)
(-0.0847089 0.315926 2.72366e-20)
(-0.0895061 0.327918 1.58318e-20)
(-0.0924938 0.339486 -5.11649e-20)
(-0.0933036 0.349956 4.28116e-20)
(-0.00198414 0.0305292 -3.48599e-20)
(-0.00605787 0.0847659 -4.38703e-20)
(-0.0110065 0.13303 3.31134e-20)
(-0.0168518 0.174169 4.17709e-20)
(-0.0236272 0.207783 -2.65961e-20)
(-0.0311955 0.234308 -4.9985e-20)
(-0.039263 0.254868 3.14745e-20)
(-0.0474258 0.270998 -9.07561e-20)
(-0.0552255 0.284298 -4.37139e-20)
(-0.0622067 0.296133 -3.59269e-20)
(-0.0679573 0.307439 -5.06411e-20)
(-0.0721219 0.318658 9.2881e-21)
(-0.0744182 0.329778 3.77213e-20)
(-0.0745544 0.340397 1.74496e-19)
(-0.0719586 0.349867 -6.82949e-20)
(-0.00262533 0.0305348 4.58798e-21)
(-0.00741604 0.0850906 8.78254e-20)
(-0.0122952 0.133932 3.45765e-20)
(-0.0175606 0.175799 -6.06498e-20)
(-0.0233428 0.210169 1.45489e-20)
(-0.0296028 0.237347 5.63045e-20)
(-0.0361346 0.258351 5.23637e-20)
(-0.0425958 0.274648 3.46179e-20)
(-0.048558 0.287819 -6.55879e-20)
(-0.0535625 0.299246 1.83662e-19)
(-0.0571635 0.30991 -7.95872e-20)
(-0.0589484 0.320305 1.12127e-19)
(-0.0585731 0.330466 -3.76681e-20)
(-0.0556956 0.340034 -1.46782e-19)
(-0.0494886 0.348415 5.69392e-20)
(-0.00325047 0.0302837 1.25871e-19)
(-0.00877229 0.0847928 -4.83181e-20)
(-0.013632 0.133961 -3.34116e-21)
(-0.0183675 0.176401 3.46317e-20)
(-0.0231887 0.211447 2.20236e-20)
(-0.0281435 0.239258 2.89384e-20)
(-0.0331086 0.260723 -1.13708e-19)
(-0.0378042 0.277219 -1.00691e-20)
(-0.041837 0.290286 6.79755e-21)
(-0.0447519 0.301312 -1.80725e-19)
(-0.0460774 0.311312 1.6268e-19)
(-0.0453504 0.320829 -1.13822e-19)
(-0.0421702 0.329949 -5.29244e-20)
(-0.036164 0.33837 -2.95942e-20)
(-0.0262173 0.345608 -7.35812e-20)
(-0.00384537 0.0297942 -7.45817e-20)
(-0.0100972 0.083903 -3.07477e-20)
(-0.0149876 0.133144 -9.65582e-20)
(-0.0192532 0.175984 -1.6786e-20)
(-0.0231625 0.211608 -6.69003e-20)
(-0.0268358 0.240013 -5.45871e-20)
(-0.0302256 0.26194 -6.77741e-20)
(-0.0331142 0.278658 4.02921e-20)
(-0.035148 0.291646 4.81253e-20)
(-0.0358837 0.302281 1.77992e-20)
(-0.034833 0.311602 3.36807e-20)
(-0.0314924 0.320199 5.61675e-20)
(-0.0254135 0.32821 -9.69412e-20)
(-0.0162035 0.335404 -6.45782e-20)
(-0.0024427 0.341447 2.17096e-19)
(-0.00439768 0.0290881 -4.63766e-20)
(-0.0113646 0.0824616 -4.727e-20)
(-0.016335 0.13152 2.10865e-19)
(-0.0201994 0.174574 1.11228e-19)
(-0.0232613 0.210657 3.28232e-21)
(-0.025697 0.239596 3.73e-20)
(-0.0275254 0.261971 9.97526e-20)
(-0.0285887 0.278924 -6.60672e-20)
(-0.0285773 0.291855 4.78164e-20)
(-0.0270677 0.302111 6.16631e-20)
(-0.0235659 0.310746 -1.96665e-19)
(-0.0175391 0.318392 -3.73891e-20)
(-0.00849927 0.325242 -1.71348e-19)
(0.0039399 0.331148 1.08526e-19)
(0.021544 0.335945 -1.36054e-19)
(-0.00489738 0.0281907 6.06524e-20)
(-0.0125523 0.0805176 -4.69053e-20)
(-0.0176508 0.129139 -1.6315e-19)
(-0.0211893 0.17221 -1.79902e-19)
(-0.0234822 0.208614 -2.16045e-19)
(-0.0247432 0.238005 5.56521e-20)
(-0.0250461 0.260794 7.16098e-20)
(-0.0242893 0.277981 1.44617e-19)
(-0.0222103 0.290869 -7.02331e-20)
(-0.0184136 0.300762 -6.15243e-20)
(-0.0124106 0.308714 1.18417e-19)
(-0.00365239 0.315391 -1.22621e-19)
(0.00838048 0.321043 1.1998e-19)
(0.0240359 0.325609 -1.89642e-19)
(0.0454633 0.329139 1.26466e-19)
(-0.00533708 0.0271299 -1.0117e-20)
(-0.0136426 0.0781276 4.8597e-20)
(-0.0189154 0.126064 2.42266e-19)
(-0.0222085 0.168945 2.30651e-19)
(-0.0238226 0.205512 9.44011e-20)
(-0.023989 0.235251 -2.91073e-20)
(-0.0228234 0.258399 -1.17247e-19)
(-0.0202752 0.275803 5.30357e-20)
(-0.0161302 0.288656 2.64553e-20)
(-0.0100284 0.2982 -7.81704e-20)
(-0.00149852 0.305479 -2.47805e-19)
(0.0100108 0.311183 -7.74187e-20)
(0.025042 0.315616 2.13511e-19)
(0.0438717 0.318806 3.334e-20)
(0.0690599 0.321066 -2.61741e-19)
(-0.00571225 0.0259359 -9.38948e-20)
(-0.0146235 0.0753544 -2.54396e-19)
(-0.0201144 0.122367 -2.80402e-19)
(-0.0232457 0.164846 -1.70471e-19)
(-0.0242803 0.201401 1.20087e-19)
(-0.0234473 0.231359 2.0378e-20)
(-0.0208898 0.254787 4.55287e-20)
(-0.0166011 0.272374 -4.35256e-20)
(-0.0104155 0.285188 4.04354e-19)
(-0.00201461 0.294397 1.35148e-19)
(0.00904472 0.301017 2.25487e-19)
(0.0233016 0.305756 3.14529e-19)
(0.0413138 0.308967 -2.30316e-19)
(0.0632549 0.310759 3.65953e-19)
(0.092109 0.311763 5.29911e-20)
(-0.00602131 0.0246401 9.39169e-20)
(-0.0154885 0.0722656 1.45664e-19)
(-0.0212387 0.11813 1.23605e-19)
(-0.024293 0.159989 -1.43889e-19)
(-0.024854 0.196342 1.16683e-19)
(-0.0231289 0.226371 1.9387e-20)
(-0.0192733 0.249977 -3.3054e-19)
(-0.0133158 0.267691 2.939e-19)
(-0.00513766 0.280448 -2.40523e-19)
(0.00553322 0.289328 -6.88319e-20)
(0.0191023 0.295308 -2.04292e-21)
(0.0360825 0.299102 1.86657e-19)
(0.0570396 0.301103 2.43583e-19)
(0.0820166 0.301492 -2.15226e-19)
(0.114422 0.30126 5.02954e-20)
(-0.00626575 0.0232747 -1.69334e-19)
(-0.0162371 0.0689321 5.05986e-20)
(-0.0222854 0.113441 -1.12877e-19)
(-0.0253467 0.154463 -9.14377e-21)
(-0.0255432 0.190411 1.38979e-19)
(-0.023042 0.220341 -1.71645e-19)
(-0.0179962 0.244 2.28884e-19)
(-0.0104601 0.261763 -2.7895e-19)
(-0.000358427 0.274429 -3.55506e-19)
(0.0125317 0.282978 1.04467e-19)
(0.0285704 0.288337 2.17173e-19)
(0.0482316 0.291211 -2.63801e-19)
(0.0720838 0.29203 2.25451e-19)
(0.100016 0.291025 -3.99508e-19)
(0.135855 0.289577 2.88062e-19)
(-0.00645003 0.0218717 4.47728e-19)
(-0.0168753 0.0654264 -2.8835e-19)
(-0.0232574 0.108392 1.33253e-19)
(-0.0264069 0.148366 1.93417e-19)
(-0.0263482 0.183697 -2.24779e-19)
(-0.0231918 0.213339 3.29805e-19)
(-0.0170737 0.236903 -4.61041e-20)
(-0.00806404 0.254615 -4.10501e-19)
(0.00387401 0.267135 1.19464e-19)
(0.0189135 0.27534 5.90288e-20)
(0.0373635 0.280092 -3.00853e-19)
(0.0596487 0.282078 2.52573e-19)
(0.0863378 0.281753 -8.26721e-19)
(0.117146 0.279376 6.88109e-19)
(0.156318 0.276728 -2.50478e-19)
(-0.0065815 0.0204626 -3.18052e-19)
(-0.0174144 0.0618211 4.93862e-20)
(-0.0241639 0.103078 -2.53353e-19)
(-0.027478 0.141799 -2.17618e-19)
(-0.0272696 0.176298 -2.29503e-19)
(-0.0235789 0.205449 -3.68083e-19)
(-0.0165119 0.22875 4.55508e-19)
(-0.00614399 0.246287 5.51346e-19)
(0.00752929 0.258588 3.93983e-20)
(0.0246327 0.26642 -2.71443e-19)
(0.0454218 0.270573 1.98786e-20)
(0.0702645 0.271703 2.33813e-19)
(0.0997312 0.270277 -9.98886e-20)
(0.133348 0.266561 -3.04899e-20)
(0.175801 0.262713 3.74177e-19)
(-0.00667024 0.0190775 1.97161e-19)
(-0.0178718 0.0581873 2.49933e-19)
(-0.0250193 0.097595 7.69384e-20)
(-0.0285674 0.134871 2.93363e-19)
(-0.0283073 0.168321 1.24782e-19)
(-0.0241985 0.196769 2.42447e-19)
(-0.0163055 0.219619 -2.8987e-20)
(-0.004699 0.236838 -2.45083e-19)
(0.0106004 0.248827 1.16528e-19)
(0.0296729 0.25624 4.14305e-19)
(0.0527215 0.259791 1.46785e-19)
(0.0800533 0.260092 -1.87108e-19)
(0.112249 0.257615 3.54732e-19)
(0.148628 0.252599 -2.43113e-19)
(0.194395 0.24753 2.68042e-20)
(-0.0067287 0.0177448 -3.45034e-20)
(-0.0182693 0.054593 -9.66225e-20)
(-0.0258428 0.0920372 2.35681e-19)
(-0.0296846 0.127689 1.4257e-19)
(-0.0294595 0.159879 2.87645e-19)
(-0.0250381 0.187405 -1.56051e-19)
(-0.0164347 0.209607 -3.44066e-19)
(-0.00370605 0.226346 -1.56989e-19)
(0.0131106 0.237909 -2.19717e-19)
(0.0340571 0.244842 -4.95475e-19)
(0.0592881 0.247777 -2.75819e-19)
(0.0890509 0.247271 -7.64889e-20)
(0.123953 0.243791 -3.38812e-19)
(0.163085 0.237519 -5.53995e-21)
(0.212341 0.231185 1.86104e-19)
(-0.0067714 0.0164904 -1.41318e-19)
(-0.0186328 0.0511015 -8.623e-20)
(-0.0266562 0.0864946 1.17466e-20)
(-0.0308399 0.120363 -6.07695e-19)
(-0.0307199 0.151089 -5.69082e-19)
(-0.0260748 0.177477 -2.20514e-19)
(-0.0168614 0.198823 4.21368e-19)
(-0.00311445 0.214908 -2.01124e-19)
(0.0151216 0.225917 1.93758e-19)
(0.0378593 0.232293 2.62846e-19)
(0.0652135 0.234585 9.42973e-20)
(0.0973782 0.233288 -1.74147e-19)
(0.135018 0.228856 1.98612e-19)
(0.176952 0.221371 1.64856e-19)
(0.230077 0.213712 -2.45258e-19)
(-0.00681433 0.0153375 -3.56304e-20)
(-0.0189904 0.0477701 1.14071e-19)
(-0.0274829 0.0810515 -3.30043e-19)
(-0.0320411 0.112998 7.56452e-19)
(-0.0320755 0.14207 5.3498e-19)
(-0.0272716 0.167108 8.84375e-20)
(-0.0175246 0.187392 -2.63146e-19)
(-0.00283904 0.202643 1.0541e-19)
(0.0167437 0.212957 1.33356e-19)
(0.0412189 0.218688 -3.25761e-19)
(0.0706761 0.220302 3.91262e-19)
(0.105269 0.218226 1.56168e-19)
(0.145763 0.212899 -2.56487e-19)
(0.19064 0.204244 1.78188e-19)
(0.24829 0.1952 7.1271e-20)
(-0.00687439 0.0143056 5.79748e-20)
(-0.0193712 0.0446488 2.89723e-19)
(-0.028345 0.0757846 -1.34679e-20)
(-0.0332918 0.105692 -4.3595e-19)
(-0.033503 0.132941 -3.11774e-19)
(-0.0285738 0.156431 3.21231e-19)
(-0.0183348 0.175452 4.44043e-19)
(-0.00275262 0.189687 -6.52689e-20)
(0.0181464 0.199164 -1.91548e-19)
(0.0443567 0.204155 4.86615e-19)
(0.0759628 0.205052 -3.93689e-19)
(0.113097 0.202211 2.04566e-19)
(0.156691 0.19606 2.73223e-19)
(0.204782 0.18628 -8.51975e-19)
(0.26795 0.175834 1.09772e-19)
(-0.00696859 0.0134101 1.60928e-19)
(-0.0198033 0.0417786 -1.29491e-19)
(-0.0292605 0.0707605 -1.05591e-21)
(-0.034587 0.098539 9.648e-20)
(-0.0349651 0.123816 1.23615e-19)
(-0.029904 0.14558 -3.54433e-19)
(-0.0191681 0.163152 -1.69629e-19)
(-0.00267813 0.176199 -3.39863e-19)
(0.0195695 0.184699 -3.26143e-19)
(0.0475892 0.188858 2.83159e-19)
(0.0814885 0.189004 -3.15484e-19)
(0.121407 0.185418 -3.92875e-20)
(0.168514 0.178543 9.38469e-20)
(0.220264 0.167687 -3.87023e-20)
(0.290308 0.155923 3.4908e-19)
(-0.00711314 0.0126619 -5.02683e-20)
(-0.0203113 0.0391909 -3.39265e-19)
(-0.0302408 0.0660351 -2.85627e-19)
(-0.0359106 0.0916201 -5.91818e-20)
(-0.0364063 0.114806 5.35643e-20)
(-0.0311576 0.13469 -9.8124e-21)
(-0.019861 0.150647 -6.35119e-20)
(-0.00238157 0.162352 -4.73419e-20)
(0.0213321 0.169751 1.7362e-19)
(0.0513409 0.172999 -1.27486e-19)
(0.0878097 0.172372 3.68432e-19)
(0.13092 0.168081 -3.99468e-19)
(0.182157 0.160621 -2.96562e-19)
(0.23822 0.148754 2.13182e-19)
(0.316824 0.135923 -2.66969e-19)
(-0.00732247 0.0120669 -1.2949e-19)
(-0.0209148 0.0369061 4.34741e-20)
(-0.0312876 0.0616514 2.42814e-19)
(-0.0372316 0.0850068 -1.24231e-19)
(-0.0377499 0.106012 1.9783e-19)
(-0.0321993 0.123893 -6.39008e-20)
(-0.020206 0.138102 -3.27959e-19)
(-0.00156743 0.148336 4.26246e-19)
(0.0238373 0.154533 1.8776e-19)
(0.0561474 0.156813 -5.21662e-19)
(0.0956242 0.155414 5.04923e-20)
(0.142529 0.150484 -9.1586e-21)
(0.198726 0.142634 5.98524e-19)
(0.259976 0.129836 1.25486e-19)
(0.349008 0.11643 3.59605e-19)
(-0.00760819 0.0116253 6.4054e-21)
(-0.0216256 0.0349327 2.89616e-19)
(-0.0323904 0.0576386 -1.37467e-19)
(-0.0385014 0.0787565 1.88801e-19)
(-0.038895 0.0975257 3.52024e-19)
(-0.0328605 0.113318 4.4555e-19)
(-0.0199499 0.125678 1.327e-19)
(0.000121729 0.134349 -2.98578e-20)
(0.0275706 0.139275 5.24958e-19)
(0.0626484 0.140562 5.85649e-19)
(0.105752 0.138427 5.2246e-20)
(0.15726 0.132963 5.62852e-19)
(0.21943 0.124972 -2.81323e-21)
(0.286948 0.111351 -4.99626e-19)
(0.388192 0.0981367 -3.49573e-19)
(-0.00797803 0.0113313 1.56304e-19)
(-0.0224458 0.0332673 3.14391e-19)
(-0.033524 0.054011 5.28299e-20)
(-0.0396524 0.072912 3.6037e-19)
(-0.0397154 0.0894244 -4.29634e-19)
(-0.0329396 0.103081 -5.65787e-20)
(-0.0187962 0.113535 -8.94111e-20)
(0.00309973 0.120593 6.32681e-19)
(0.0330869 0.124222 -8.58507e-19)
(0.071564 0.124532 -5.79059e-19)
(0.119095 0.121735 2.17781e-19)
(0.176198 0.115883 -2.76879e-19)
(0.245459 0.108052 -7.63025e-20)
(0.320479 0.0937501 2.34604e-19)
(0.43524 0.0817571 8.56955e-19)
(-0.0084349 0.0111734 1.46748e-19)
(-0.0233667 0.0318937 -5.72315e-19)
(-0.0346478 0.050768 1.24409e-19)
(-0.040597 0.0674998 -5.54587e-19)
(-0.0400605 0.081771 2.75274e-19)
(-0.0322049 0.0932872 -1.82656e-19)
(-0.0164114 0.101824 -1.96764e-19)
(0.00782394 0.107264 -4.69581e-19)
(0.0409888 0.109616 1.65905e-19)
(0.0836563 0.109011 2.35819e-19)
(0.136569 0.105671 -1.4222e-20)
(0.200392 0.0996213 2.26987e-19)
(0.277841 0.0922738 -1.19917e-19)
(0.361666 0.0775048 -4.56825e-20)
(0.490285 0.0679262 -6.27019e-20)
(-0.00897612 0.0111342 -6.42369e-19)
(-0.0243672 0.0307838 2.68304e-20)
(-0.0357054 0.0478933 -5.14425e-20)
(-0.0412287 0.0625288 9.15897e-20)
(-0.0397584 0.0746097 -4.11595e-19)
(-0.0304006 0.0840231 4.94412e-19)
(-0.0124366 0.0906769 -1.40583e-20)
(0.0147753 0.094543 -5.94241e-19)
(0.0518927 0.0956881 -5.42824e-19)
(0.0996759 0.0942782 -4.60749e-19)
(0.15903 0.0905577 -2.08966e-19)
(0.230739 0.0845463 -1.32574e-19)
(0.317298 0.0779859 -4.47738e-19)
(0.41118 0.0630858 -3.09563e-19)
(0.552556 0.0571009 3.85281e-19)
(-0.00959317 0.0111909 3.66551e-19)
(-0.0254142 0.0298986 2.90374e-19)
(-0.0366247 0.0453556 3.41514e-19)
(-0.0414249 0.0579902 -1.0072e-19)
(-0.0386208 0.0679646 1.80417e-19)
(-0.0272567 0.0753534 -2.48128e-19)
(-0.00650343 0.0802044 1.26448e-19)
(0.0244325 0.0825898 7.68553e-19)
(0.0663883 0.0826455 2.89184e-19)
(0.120302 0.080587 6.1285e-19)
(0.187183 0.0766852 2.3069e-19)
(0.26787 0.0709915 -4.2266e-20)
(0.364138 0.0654507 4.03604e-19)
(0.469123 0.0509547 -4.32008e-19)
(0.620351 0.0495003 -5.08828e-19)
(-0.0102713 0.0113169 -3.19841e-19)
(-0.0264625 0.0291896 -5.15508e-19)
(-0.0373202 0.0431093 1.07624e-19)
(-0.04105 0.0538571 -2.01974e-19)
(-0.0364497 0.0618385 2.39463e-19)
(-0.0224997 0.067318 -4.94204e-19)
(0.00174748 0.0704888 1.41999e-19)
(0.0372432 0.0715308 -2.17643e-19)
(0.0849965 0.0706591 -2.05749e-19)
(0.146085 0.0681481 -2.75736e-19)
(0.221517 0.0642948 -4.69444e-19)
(0.31207 0.0592349 4.74582e-20)
(0.418214 0.0548293 4.15279e-19)
(0.53491 0.0415713 3.40528e-19)
(0.69111 0.045151 2.42985e-19)
(-0.0109902 0.011482 2.34632e-19)
(-0.0274566 0.0286003 -3.61754e-20)
(-0.0376959 0.0410972 1.70907e-19)
(-0.0399605 0.0500864 5.44239e-19)
(-0.0330452 0.0562129 -5.84881e-19)
(-0.0158651 0.0599308 5.16895e-19)
(0.0126479 0.0615809 -4.82183e-19)
(0.0535966 0.0614562 7.77007e-20)
(0.108131 0.0598567 2.04659e-19)
(0.177394 0.0571206 1.83806e-20)
(0.262249 0.0535647 3.12717e-19)
(0.363229 0.0494731 3.28474e-19)
(0.478973 0.0461859 -2.27807e-19)
(0.607253 0.0354078 -5.54173e-19)
(0.761657 0.0439606 8.25336e-19)
(-0.0117242 0.0116546 -1.43866e-19)
(-0.0283315 0.0280695 3.69795e-19)
(-0.0376479 0.0392526 -2.26364e-19)
(-0.0380096 0.0466204 -1.52805e-19)
(-0.0282132 0.0510494 3.10148e-19)
(-0.00710902 0.0531803 -6.10545e-20)
(0.0264853 0.0535006 1.8936e-19)
(0.0738005 0.0524184 1.10551e-18)
(0.13607 0.0503207 1.42773e-19)
(0.214389 0.0476092 7.27189e-20)
(0.309298 0.0446062 -1.34286e-19)
(0.420841 0.0417927 -1.97423e-19)
(0.545561 0.0395157 -1.65052e-19)
(0.684333 0.0328485 2.26062e-19)
(0.829118 0.0451764 -1.25717e-18)
(-0.0124442 0.0118031 4.52756e-19)
(-0.029016 0.0275339 3.89009e-19)
(-0.0370682 0.0375032 1.27504e-19)
(-0.0350523 0.0433906 -2.97576e-20)
(-0.0217714 0.0462937 1.89021e-19)
(0.00398315 0.047033 -1.43595e-19)
(0.0434907 0.0462397 -8.67824e-20)
(0.0980668 0.0444359 -1.34621e-19)
(0.168939 0.0420933 -6.12398e-19)
(0.25701 0.0396695 1.45877e-19)
(0.362283 0.0374708 5.74149e-20)
(0.484016 0.0361641 6.28285e-20)
(0.616814 0.0348261 4.8089e-19)
(0.763896 0.0337395 -3.16997e-20)
(0.893117 0.0456197 2.25544e-19)
(-0.0131179 0.0118976 -7.15639e-19)
(-0.0294342 0.0269316 -2.7712e-19)
(-0.0358474 0.0357747 -7.1567e-20)
(-0.030949 0.0403223 -5.97856e-21)
(-0.013555 0.0418801 -3.27595e-19)
(0.0175906 0.0414393 1.49011e-19)
(0.0638328 0.0397689 1.48564e-20)
(0.126506 0.0375011 4.30701e-19)
(0.206715 0.0351853 -1.60459e-19)
(0.304985 0.0333209 -1.46191e-19)
(0.420555 0.0321701 -1.97255e-20)
(0.551553 0.0324915 -1.27461e-20)
(0.691075 0.0322159 -4.45847e-19)
(0.842611 0.0366192 1.16755e-19)
(0.957448 0.0405842 -3.01029e-19)
(-0.0137125 0.0119115 5.21885e-19)
(-0.0295088 0.026206 1.58875e-19)
(-0.033877 0.0339952 -3.22726e-19)
(-0.0255684 0.03734 1.50051e-19)
(-0.00341839 0.0377388 -5.83364e-19)
(0.0338554 0.0363414 1.1484e-19)
(0.0876169 0.0340473 1.98821e-19)
(0.159131 0.0315914 -4.4717e-19)
(0.249234 0.0295898 5.98877e-19)
(0.35786 0.0285619 3.46232e-19)
(0.483252 0.0286939 2.31159e-19)
(0.622105 0.0306964 6.6529e-20)
(0.76636 0.0317664 -8.66097e-21)
(0.916307 0.038706 -1.21248e-19)
(1.03067 0.0341185 5.43161e-19)
(-0.0141946 0.0118226 -5.87628e-19)
(-0.0291633 0.0253079 -5.23726e-19)
(-0.0310516 0.0320994 4.8407e-20)
(-0.0187881 0.0343738 1.51778e-19)
(0.00876411 0.0338029 5.4524e-19)
(0.0528833 0.0316827 -1.79742e-19)
(0.11489 0.0290331 -6.93161e-19)
(0.195867 0.0266818 -5.35518e-19)
(0.296208 0.0252946 -3.34205e-19)
(0.415033 0.0253809 -6.20831e-19)
(0.549358 0.0270141 2.44242e-19)
(0.694267 0.0307146 1.38379e-19)
(0.840712 0.0333263 1.27639e-19)
(0.985875 0.0412704 2.96228e-19)
(1.09715 0.0354417 1.56634e-19)
(-0.0145316 0.0116139 3.92037e-19)
(-0.0283232 0.0241981 3.52933e-19)
(-0.0272713 0.0300338 1.44198e-19)
(-0.0104954 0.0313647 -4.20304e-19)
(0.0230996 0.0300165 -2.72525e-19)
(0.0747479 0.027417 1.97968e-19)
(0.145645 0.0246949 2.67213e-19)
(0.236559 0.0227558 5.22282e-19)
(0.347248 0.0222923 1.55715e-19)
(0.475781 0.0237633 9.08741e-20)
(0.617765 0.027085 -5.41046e-19)
(0.766637 0.032478 -4.00314e-19)
(0.912543 0.036669 6.43322e-20)
(1.05061 0.0451303 -1.33305e-19)
(1.15507 0.0396998 3.27508e-19)
(-0.0146925 0.0112752 1.16462e-19)
(-0.0269157 0.0228492 -2.57669e-19)
(-0.022441 0.0277597 -2.53456e-19)
(-0.000587044 0.0282707 4.96515e-20)
(0.0396787 0.0263414 2.25242e-19)
(0.0994941 0.023517 4.01928e-19)
(0.179831 0.0210199 -2.35488e-19)
(0.280987 0.0198142 2.37196e-19)
(0.401874 0.0205863 9.77933e-20)
(0.539296 0.0236935 -5.08476e-19)
(0.687321 0.0288415 1.01507e-19)
(0.837868 0.0358799 5.3633e-20)
(0.980599 0.0415339 -1.60225e-19)
(1.10963 0.0502127 -2.79567e-19)
(1.2055 0.0455571 -6.1415e-19)
(-0.0146503 0.010802 7.26275e-20)
(-0.0248719 0.0212463 -9.89311e-20)
(-0.0164702 0.025256 2.50889e-19)
(0.0110326 0.0250703 -2.23318e-19)
(0.0585779 0.0227629 4.06259e-20)
(0.127142 0.0199806 -1.04252e-19)
(0.217356 0.0180212 -1.34461e-19)
(0.328869 0.0178795 7.91895e-20)
(0.459534 0.020192 2.99494e-20)
(0.604701 0.0251516 4.72115e-19)
(0.756877 0.0321967 2.01547e-19)
(0.906735 0.040773 2.26043e-19)
(1.0439 0.0476605 6.11153e-19)
(1.16245 0.056317 -1.82013e-19)
(1.2484 0.0524238 3.38386e-19)
(-0.0143796 0.0101946 -2.19573e-19)
(-0.0221277 0.0193882 4.7312e-19)
(-0.00927312 0.0225208 1.33959e-19)
(0.0244516 0.0217657 5.95031e-19)
(0.0798604 0.0192938 1.39897e-19)
(0.157688 0.0168352 -5.02381e-19)
(0.258087 0.0157395 2.16867e-19)
(0.379865 0.0169951 4.865e-19)
(0.519607 0.0211319 -4.42534e-19)
(0.671082 0.0281074 -1.12104e-19)
(0.825329 0.0370406 -7.92711e-21)
(0.972185 0.0469794 -2.53973e-19)
(1.10175 0.0548013 -3.50966e-19)
(1.20885 0.0632166 3.37419e-19)
(1.28425 0.0598799 1.25431e-19)
(-0.0138568 0.00945836 -7.49775e-20)
(-0.0186223 0.0172868 -2.63944e-19)
(-0.000768501 0.0195714 3.74561e-19)
(0.0397511 0.0183841 -2.62962e-19)
(0.103576 0.0159752 6.61516e-20)
(0.191101 0.0141376 -6.16635e-21)
(0.301847 0.0142417 3.0692e-19)
(0.433575 0.0172206 -3.86118e-19)
(0.581415 0.0234284 1.03776e-18)
(0.737512 0.0325133 2.17174e-19)
(0.891664 0.043241 -2.02135e-19)
(1.03338 0.0543036 1.7397e-20)
(1.15373 0.0627264 -5.70979e-20)
(1.2489 0.070693 7.10438e-20)
(1.3136 0.0676549 -4.7664e-19)
(-0.0130603 0.00860314 4.73227e-20)
(-0.0142982 0.0149658 -3.10534e-19)
(0.00912005 0.0164443 -2.90774e-19)
(0.0570037 0.0149772 -1.78571e-19)
(0.129758 0.0128764 -3.1011e-19)
(0.227325 0.0119723 -1.55334e-19)
(0.348414 0.0136159 -4.45908e-19)
(0.489541 0.0186233 1.5592e-19)
(0.644237 0.0270934 -7.3337e-19)
(0.803085 0.0382997 -1.43425e-19)
(0.954993 0.0506461 -5.38949e-19)
(1.08969 0.0625448 3.89466e-19)
(1.1997 0.0712296 3.11737e-19)
(1.28285 0.0785566 -1.64082e-23)
(1.33716 0.0755666 7.61615e-19)
(-0.0119697 0.00764204 3.77724e-20)
(-0.00910115 0.0124593 3.12494e-19)
(0.0204636 0.0131932 4.60528e-19)
(0.0762717 0.0116193 5.99468e-20)
(0.15842 0.0100912 -2.26164e-19)
(0.266262 0.0104457 1.99168e-19)
(0.397512 0.0139631 2.08431e-20)
(0.547246 0.0212677 -2.14519e-19)
(0.707323 0.0321208 -1.80386e-19)
(0.866947 0.0453725 -1.78678e-19)
(1.01459 0.0590913 4.52849e-19)
(1.14075 0.0715088 2.99526e-19)
(1.23972 0.0801331 -3.57298e-19)
(1.31112 0.0866551 2.68501e-19)
(1.35565 0.0835 2.66828e-20)
(-0.0105653 0.00659077 9.89214e-20)
(-0.00297968 0.00981067 -6.84607e-19)
(0.0333266 0.00988705 -4.80538e-19)
(0.0976039 0.00840393 -2.77724e-20)
(0.189549 0.00773341 1.0473e-19)
(0.307777 0.00967914 2.6658e-19)
(0.448809 0.0153874 -9.28281e-20)
(0.606123 0.0252055 1.76236e-19)
(0.769922 0.0384796 4.35109e-19)
(0.928329 0.0536161 1.5634e-19)
(1.06989 0.0684073 1.66158e-19)
(1.18636 0.0810168 -7.10988e-20)
(1.27402 0.0892905 -1.89162e-19)
(1.33424 0.0948737 -6.23052e-19)
(1.36979 0.0913885 -3.32567e-20)
(-0.0088275 0.00546702 -3.65919e-19)
(0.00411428 0.00707047 7.48614e-19)
(0.047765 0.00660742 -1.41117e-19)
(0.121032 0.00544011 -4.46969e-20)
(0.223102 0.00593084 -1.53532e-19)
(0.351683 0.00980091 -2.9124e-19)
(0.501914 0.0179865 2.03308e-19)
(0.665566 0.0304677 -3.7026e-19)
(0.831306 0.0461128 -1.48107e-19)
(0.98658 0.0628983 -1.06416e-19)
(1.12053 0.0784283 -3.37156e-19)
(1.22655 0.090912 7.3774e-20)
(1.30296 0.0985867 2.38379e-19)
(1.35278 0.103132 3.37028e-20)
(1.38025 0.0992005 -5.00463e-19)
(-0.00673702 0.00429007 9.67014e-20)
(0.0122249 0.00429547 4.97952e-20)
(0.0638243 0.00344575 9.22984e-19)
(0.146564 0.00284794 4.07811e-19)
(0.258998 0.00481905 1.76865e-19)
(0.397743 0.0109375 3.00102e-20)
(0.556385 0.0218426 -5.35969e-19)
(0.72495 0.0370588 6.05778e-19)
(0.890801 0.0549389 3.26771e-20)
(1.04118 0.0730782 1.3839e-19)
(1.16631 0.0889991 -1.26128e-19)
(1.26147 0.101063 -3.89305e-19)
(1.327 0.107936 -5.79483e-19)
(1.3673 0.111378 7.66266e-19)
(1.38766 0.106928 1.0584e-19)
(-0.00427463 0.00308052 -5.55187e-21)
(0.0213917 0.00154726 -3.60588e-19)
(0.0815369 0.000500715 -3.45838e-19)
(0.174187 0.000754178 -2.88868e-19)
(0.297115 0.00453486 1.97095e-19)
(0.445668 0.0132061 -1.2241e-19)
(0.611736 0.0270162 3.91313e-19)
(0.783655 0.0449559 -3.06256e-19)
(0.94781 0.0648565 1.08395e-19)
(1.09174 0.0840132 -2.29093e-19)
(1.20717 0.0999811 4.98005e-20)
(1.2914 0.111365 -1.65151e-19)
(1.34662 0.11728 1.57059e-19)
(1.37836 0.119586 -4.40166e-19)
(1.39257 0.11458 -1.60021e-19)
(-0.00142161 0.00186025 -5.1651e-19)
(0.0316479 -0.00110859 4.5997e-19)
(0.100919 -0.00212413 -5.60562e-20)
(0.203853 -0.000711948 2.06809e-19)
(0.337286 0.00521051 -3.26783e-19)
(0.495118 0.016708 2.89937e-19)
(0.667455 0.0335414 -3.33501e-19)
(0.841086 0.0541094 -1.97995e-19)
(1.00183 0.0757512 5.93404e-20)
(1.13803 0.0955664 -1.79327e-19)
(1.24321 0.111255 -2.59417e-19)
(1.3167 0.121738 7.23863e-19)
(1.36234 0.126583 -8.89777e-20)
(1.38649 0.127744 4.7215e-19)
(1.39544 0.122173 -1.08986e-19)
(0.00183983 0.000652433 9.66341e-20)
(0.0430194 -0.00360337 -7.49187e-20)
(0.12197 -0.00432253 -4.57349e-19)
(0.235487 -0.00142246 -6.53875e-20)
(0.379304 0.0069686 5.65968e-19)
(0.545713 0.0215239 -3.9699e-19)
(0.723016 0.0414251 5.85777e-19)
(0.896697 0.0644476 -2.99651e-19)
(1.05248 0.0875019 3.6878e-19)
(1.17993 0.107611 2.82473e-19)
(1.27459 0.122723 -1.84893e-19)
(1.33775 0.132125 -2.79315e-19)
(1.37463 0.135825 3.15675e-19)
(1.39215 0.135856 -3.46628e-19)
(1.39666 0.12973 -1.84902e-19)
(0.00552588 -0.000518355 3.56524e-19)
(0.0555231 -0.00586577 -5.75298e-20)
(0.144668 -0.0059874 2.49009e-19)
(0.268978 -0.00125393 -3.03425e-19)
(0.422917 0.00991796 -6.95911e-19)
(0.59704 0.0277108 1.02157e-19)
(0.777901 0.0506477 -1.61128e-19)
(0.950008 0.0758818 5.4138e-19)
(1.09947 0.0999873 -1.77553e-19)
(1.21745 0.120035 7.15018e-21)
(1.30158 0.134306 2.44797e-19)
(1.35498 0.142488 2.02226e-19)
(1.38397 0.145003 -4.81394e-19)
(1.39576 0.143931 2.85272e-19)
(1.39657 0.137272 3.3384e-19)
(0.00965036 -0.00162608 -1.54495e-19)
(0.0691651 -0.00782246 -7.64177e-20)
(0.16897 -0.0070125 -2.35116e-19)
(0.304183 -9.03257e-05 1.56107e-19)
(0.467838 0.0141505 3.19409e-19)
(0.648668 0.0353012 -3.30939e-20)
(0.831619 0.0611663 2.99126e-19)
(1.00062 0.088312 -3.07881e-19)
(1.14261 0.113091 3.28828e-19)
(1.25067 0.132741 -3.49964e-19)
(1.3245 0.145947 3.85873e-19)
(1.36882 0.152807 -3.63656e-19)
(1.39077 0.154121 -1.24877e-19)
(1.39766 0.151987 1.33576e-19)
(1.39542 0.144822 4.46979e-20)
(0.0142241 -0.00264327 1.17935e-19)
(0.08394 -0.00939869 -1.36192e-20)
(0.194809 -0.00729399 -3.07704e-19)
(0.340927 0.00217458 2.3356e-19)
(0.513749 0.0197391 9.53797e-20)
(0.700158 0.0443029 9.24647e-20)
(0.883715 0.0729181 -9.65063e-20)
(1.0482 0.101632 -6.79989e-20)
(1.18184 0.126703 -5.7273e-19)
(1.27976 0.145648 3.5138e-19)
(1.34367 0.157603 -2.2612e-19)
(1.37965 0.163074 -4.73878e-20)
(1.39541 0.163191 7.5801e-19)
(1.39816 0.160038 -5.90685e-19)
(1.39342 0.152399 -4.11617e-19)
(0.0192541 -0.003541 -2.06676e-20)
(0.099829 -0.010519 1.77407e-19)
(0.222097 -0.00673197 2.93691e-19)
(0.379006 0.00563515 -3.8456e-20)
(0.56031 0.0267364 -2.1661e-19)
(0.751081 0.0547011 2.23446e-19)
(0.93379 0.0858257 -2.29309e-19)
(1.09253 0.115736 -1.28874e-19)
(1.21715 0.140728 3.7878e-19)
(1.30493 0.158692 2.65759e-19)
(1.35944 0.169247 4.59117e-20)
(1.38786 0.173288 1.92096e-19)
(1.39823 0.172228 -3.95655e-19)
(1.39749 0.168103 2.56403e-19)
(1.39072 0.160017 4.64904e-19)
(0.024743 -0.00428915 -7.22493e-20)
(0.116799 -0.0111078 -4.88514e-19)
(0.250719 -0.00523199 -3.0901e-19)
(0.418187 0.0103722 -3.1052e-19)
(0.607166 0.0351743 -2.09457e-19)
(0.801026 0.0664603 1.08335e-19)
(0.981502 0.0998008 4.00109e-19)
(1.13345 0.130519 -1.34236e-19)
(1.24861 0.155078 2.31018e-19)
(1.32643 0.171822 -3.86677e-20)
(1.37215 0.180862 6.08615e-20)
(1.39379 0.183457 -1.0619e-19)
(1.3995 0.181248 4.16664e-20)
(1.39586 0.176195 -6.12162e-20)
(1.38745 0.167688 -1.6843e-19)
(0.0306885 -0.00485662 1.16024e-19)
(0.134804 -0.0110909 5.16835e-19)
(0.280543 -0.00270657 -1.07077e-19)
(0.458217 0.0164514 2.50138e-19)
(0.653959 0.0450642 4.9051e-20)
(0.849608 0.079528 3.71651e-20)
(1.02657 0.114749 -1.92507e-19)
(1.17087 0.145881 2.23689e-19)
(1.27634 0.16968 -3.32422e-19)
(1.34453 0.184999 -1.77515e-19)
(1.38213 0.192442 -6.0229e-20)
(1.39775 0.193591 -4.292e-20)
(1.39947 0.190268 -1.60807e-19)
(1.39342 0.184328 -2.30021e-20)
(1.3837 0.175419 8.02522e-20)
(0.0370828 -0.00521172 -3.66416e-20)
(0.15378 -0.0103959 2.32768e-20)
(0.311411 0.000923214 2.9519e-19)
(0.498826 0.0239227 2.86088e-19)
(0.700333 0.0563981 1.18905e-19)
(0.896485 0.093837 -2.08659e-19)
(1.06878 0.130572 6.82063e-20)
(1.20477 0.161731 1.7817e-19)
(1.30051 0.18447 -2.68706e-20)
(1.35951 0.198194 3.34277e-20)
(1.38967 0.203983 6.9662e-20)
(1.39998 0.203701 1.99419e-20)
(1.39832 0.1993 -1.58006e-19)
(1.3903 0.192509 -6.27111e-21)
(1.37953 0.183213 1.79725e-19)
(0.0439128 -0.00532262 2.40483e-20)
(0.173653 -0.00895397 -9.89388e-20)
(0.34315 0.00572631 -1.68614e-19)
(0.539733 0.0328189 -3.38946e-19)
(0.745944 0.06915 -3.61982e-20)
(0.941353 0.109309 1.63357e-19)
(1.10797 0.147172 -8.44644e-20)
(1.23518 0.177983 -2.19983e-19)
(1.3213 0.199395 -2.04196e-19)
(1.37164 0.211389 9.55433e-20)
(1.39506 0.21549 -5.27507e-20)
(1.40074 0.213801 -2.51078e-19)
(1.39621 0.208355 2.451e-19)
(1.38659 0.200744 2.48801e-19)
(1.37498 0.191069 -1.22842e-19)
(0.0511592 -0.00515785 1.05601e-20)
(0.194329 -0.00670083 -1.95104e-19)
(0.375569 0.0117603 8.51073e-20)
(0.58065 0.043156 1.6146e-19)
(0.790467 0.0832772 3.28121e-20)
(0.983954 0.125858 -7.84241e-21)
(1.14405 0.164452 9.95139e-20)
(1.26219 0.194562 7.83495e-20)
(1.33891 0.214413 1.0169e-20)
(1.38116 0.224569 -6.83029e-20)
(1.39853 0.226966 9.44959e-21)
(1.4002 0.223899 9.59935e-20)
(1.39328 0.217441 -9.07097e-20)
(1.38236 0.209036 -6.84543e-20)
(1.37009 0.198984 -1.12574e-19)
(0.058797 -0.00468686 1.34307e-19)
(0.215706 -0.00357807 1.82962e-20)
(0.408466 0.0190702 1.75768e-20)
(0.621288 0.054933 -4.49811e-20)