/*--------------------------------*- C++ -*----------------------------------*\
  =========                 |
  \\      /  F ield         | OpenFOAM: The Open Source CFD Toolbox
   \\    /   O peration     | Website:  https://openfoam.org
    \\  /    A nd           | Version:  7
     \\/     M anipulation  |
\*---------------------------------------------------------------------------*/
FoamFile
{
    version     2.0;
    format      ascii;
    class       surfaceScalarField;
    location    "260";
    object      phi;
}
// * * * * * * * * * * * * * * * * * * * * * * * * * * * * * * * * * * * * * //

dimensions      [0 3 -1 0 0 0 0];

internalField   nonuniform List<scalar> 
8842
(
-3.21762e-07
5.32427e-05
-5.29209e-05
-1.54244e-06
0.000149052
-0.000147831
0.000237772
-0.000235401
-1.25369e-07
5.3368e-05
-8.32792e-07
0.000149759
0.000239367
6.80071e-08
5.33e-05
-1.32808e-07
0.00014996
0.000240187
2.54751e-07
5.30453e-05
5.51852e-07
0.000149663
0.000240243
4.34864e-07
5.26104e-05
1.21592e-06
0.000148882
0.000239546
6.06522e-07
5.20039e-05
1.85407e-06
0.000147634
0.000238118
7.68312e-07
5.12356e-05
2.46118e-06
0.000145942
0.000235984
9.18959e-07
5.03166e-05
3.03241e-06
0.000143828
0.000233175
1.05731e-06
4.92593e-05
3.56331e-06
0.000141322
7.01036e-06
0.000229728
0.000313048
1.18235e-06
4.8077e-05
4.04972e-06
0.000138455
8.0929e-06
0.000225685
0.000308277
1.29314e-06
4.67838e-05
4.48789e-06
0.00013526
9.08036e-06
0.000221092
0.000302733
1.38887e-06
4.5395e-05
4.87443e-06
0.000131774
9.96483e-06
0.000216002
0.000296476
1.46886e-06
4.39261e-05
5.20642e-06
0.000128037
1.07394e-05
0.000210469
0.000289571
1.53259e-06
4.23935e-05
5.48147e-06
0.000124088
1.13983e-05
0.000204552
0.000282089
1.57967e-06
4.08138e-05
5.69776e-06
0.00011997
1.19367e-05
0.000198313
0.000274107
1.60991e-06
3.92039e-05
5.85407e-06
0.000115726
1.23511e-05
0.000191816
0.000265702
1.62325e-06
3.75807e-05
5.94973e-06
0.000111399
1.26395e-05
0.000185126
2.1384e-05
0.000256957
0.000325183
1.61977e-06
3.59609e-05
5.9847e-06
0.000107034
1.28008e-05
0.00017831
2.18008e-05
0.000247957
0.000314235
1.5997e-06
3.43612e-05
5.95946e-06
0.000102675
1.28355e-05
0.000171434
2.20058e-05
0.000238787
0.000302968
1.56338e-06
3.27978e-05
5.87507e-06
9.83629e-05
1.27453e-05
0.000164564
2.20011e-05
0.000229531
0.000291483
1.51132e-06
3.12865e-05
5.73328e-06
9.41409e-05
1.25336e-05
0.000157763
2.17914e-05
0.000220273
3.33959e-05
0.000279878
0.000334941
1.44418e-06
2.98423e-05
5.53652e-06
9.00486e-05
1.22052e-05
0.000151095
2.13845e-05
0.000211094
3.30117e-05
0.000268251
0.000320916
1.36283e-06
2.84795e-05
5.28797e-06
8.61235e-05
1.17668e-05
0.000144616
2.07912e-05
0.00020207
3.23491e-05
0.000256693
0.000306832
1.26833e-06
2.72112e-05
4.99164e-06
8.24002e-05
1.1227e-05
0.000138381
2.00258e-05
0.000193271
3.14286e-05
0.000245291
0.000292788
1.16195e-06
2.60492e-05
4.65242e-06
7.89097e-05
1.05963e-05
0.000132437
1.91059e-05
0.000184761
3.02768e-05
0.00023412
4.41938e-05
0.000278871
0.000317538
1.04525e-06
2.5004e-05
4.27615e-06
7.56788e-05
9.88707e-06
0.000126826
1.80531e-05
0.000176595
2.89257e-05
0.000223247
4.26392e-05
0.000265157
0.000300851
9.20037e-07
2.40839e-05
3.86967e-06
7.27291e-05
9.11428e-06
0.000121581
1.68926e-05
0.000168817
2.74135e-05
0.000212726
4.08631e-05
0.000251707
0.000284295
7.88434e-07
2.32955e-05
3.44087e-06
7.00767e-05
8.29482e-06
0.000116727
1.56537e-05
0.000161458
2.57848e-05
0.000202595
3.89278e-05
0.000238564
5.53101e-05
0.000267913
0.000289315
6.52847e-07
2.26427e-05
2.99864e-06
6.77309e-05
7.44781e-06
0.000112278
1.4369e-05
0.000154537
2.40893e-05
0.000192875
3.69042e-05
0.000225749
5.30942e-05
0.000251723
0.000269462
5.15968e-07
2.21267e-05
2.55282e-06
6.56941e-05
6.59432e-06
0.000108237
1.30748e-05
0.000148056
2.23825e-05
0.000183567
3.4871e-05
0.000213261
5.08782e-05
0.000235716
0.000249592
3.80746e-07
2.1746e-05
2.11409e-06
6.39607e-05
5.75708e-06
0.000104594
1.18102e-05
0.000142003
2.07241e-05
0.000174653
3.29134e-05
0.000201072
4.87775e-05
0.000219852
6.87263e-05
0.000229643
0.000229144
2.50327e-07
2.14956e-05
1.69373e-06
6.25173e-05
4.9601e-06
0.000101327
1.06164e-05
0.000136347
1.91771e-05
0.000166093
3.11209e-05
0.000189128
4.69142e-05
0.000204058
6.70387e-05
0.000209518
0.00020416
1.27991e-07
2.13676e-05
1.30339e-06
6.13419e-05
4.22806e-06
9.84025e-05
9.53561e-06
0.000131039
1.78061e-05
0.000157822
2.95858e-05
0.000177348
4.54134e-05
0.000188231
6.58502e-05
0.000189081
9.15128e-05
0.000178498
0.000155037
1.71675e-08
2.13505e-05
9.54748e-07
6.04043e-05
3.58563e-06
9.57716e-05
8.61011e-06
0.000126015
1.66757e-05
0.000149757
2.83999e-05
0.000165624
4.43996e-05
0.000172231
6.53232e-05
0.000168158
9.18852e-05
0.000151936
0.000122021
-7.94222e-08
2.14299e-05
6.5909e-07
5.96658e-05
3.0567e-06
9.3374e-05
7.88075e-06
0.000121191
1.58482e-05
0.000141789
2.76518e-05
0.00015382
4.39921e-05
0.00015589
6.5612e-05
0.000146538
9.33323e-05
0.000124215
8.72684e-05
-1.5813e-07
2.1588e-05
4.27066e-07
5.90806e-05
2.66358e-06
9.11375e-05
7.38561e-06
0.000116469
1.53815e-05
0.000133793
2.74232e-05
0.000141779
4.43004e-05
0.000139013
6.68568e-05
0.000123982
9.60251e-05
9.50471e-05
0.000132859
5.04347e-05
-1.17837e-05
-2.1662e-07
2.18046e-05
2.6808e-07
5.85959e-05
2.42611e-06
8.89795e-05
7.15859e-06
0.000111736
1.53272e-05
0.000125625
2.77865e-05
0.000129319
4.54201e-05
0.00012138
6.91773e-05
0.000100224
0.000100107
6.41178e-05
0.000139382
1.11591e-05
-6.07175e-05
-2.52631e-07
2.20573e-05
1.9001e-07
5.81533e-05
2.361e-06
8.68085e-05
7.22819e-06
0.000106869
1.57283e-05
0.000117125
2.88014e-05
0.000116246
4.74288e-05
0.000102752
7.26681e-05
7.49851e-05
0.000105684
3.11022e-05
0.000147766
-3.09229e-05
0.000200329
-0.000113281
-0.000218276
-2.64495e-07
2.23218e-05
1.98817e-07
5.769e-05
2.48114e-06
8.45262e-05
7.61645e-06
0.000101734
1.66178e-05
0.000108123
3.05132e-05
0.000102351
5.03834e-05
8.28819e-05
7.73949e-05
4.79736e-05
0.000112824
-4.32707e-06
0.000158067
-7.61654e-05
0.000214619
-0.000169833
-0.000287682
-2.51156e-07
2.25729e-05
2.98469e-07
5.71403e-05
2.79521e-06
8.20294e-05
8.33827e-06
9.61908e-05
1.80177e-05
9.84437e-05
3.29508e-05
8.74177e-05
5.4318e-05
6.15147e-05
8.33919e-05
1.88998e-05
0.000121553
-4.24884e-05
0.000170286
-0.000124898
0.00023114
-0.000230687
0.00030565
-0.000362192
-0.000521525
-2.12329e-07
2.27853e-05
4.90657e-07
5.64373e-05
3.30722e-06
7.92129e-05
9.40078e-06
9.00972e-05
1.99385e-05
8.7906e-05
3.61266e-05
7.12295e-05
5.92434e-05
3.8398e-05
9.06617e-05
-1.25185e-05
0.000131854
-8.36808e-05
0.000184371
-0.000177415
0.000249779
-0.000296096
0.000329554
-0.000441967
-0.000616885
-1.48006e-07
2.29333e-05
7.75573e-07
5.55138e-05
4.01766e-06
7.59708e-05
1.08046e-05
8.33103e-05
2.23798e-05
7.63308e-05
4.00369e-05
5.35724e-05
6.51478e-05
1.32872e-05
9.91763e-05
-4.65471e-05
0.00014367
-0.000128174
0.000200217
-0.000233962
0.000270361
-0.000366239
0.00035546
-0.000527067
0.000456496
-0.000717921
-0.000939321
-5.93643e-08
2.29926e-05
1.15072e-06
5.43037e-05
4.92207e-06
7.21994e-05
1.25425e-05
7.56899e-05
2.53301e-05
6.35432e-05
4.46625e-05
3.42401e-05
7.19984e-05
-1.40488e-05
0.00010888
-8.34291e-05
0.000156909
-0.000176203
0.000217678
-0.000294731
0.000292661
-0.000441222
0.00038304
-0.000617445
0.000489488
-0.000824369
0.000611926
-0.00106176
-0.0013278
5.36801e-08
2.29389e-05
1.61223e-06
5.27451e-05
6.01272e-06
6.77989e-05
1.46016e-05
6.7101e-05
2.87687e-05
4.93761e-05
4.99709e-05
1.30379e-05
7.97447e-05
-4.38226e-05
0.000119695
-0.000123379
0.000171451
-0.000227959
0.000236574
-0.000359854
0.000316417
-0.000521065
0.000411924
-0.000712953
0.000523396
-0.000935841
0.000650245
-0.00118861
-0.00146836
1.87196e-07
2.27517e-05
2.15458e-06
5.07777e-05
7.27901e-06
6.26745e-05
1.6964e-05
5.7416e-05
3.26675e-05
3.36726e-05
5.59191e-05
-1.02137e-05
8.83213e-05
-7.62248e-05
0.000131523
-0.000166581
0.000187151
-0.000283587
0.000256695
-0.000429399
0.000341336
-0.000605705
0.000441719
-0.000813336
0.000557713
-0.00105184
0.000688181
-0.00131908
0.000830841
-0.00161102
-0.00192183
3.40654e-07
2.24111e-05
2.77159e-06
4.83468e-05
8.70824e-06
5.67378e-05
1.96081e-05
4.65161e-05
3.69927e-05
1.6288e-05
6.24558e-05
-3.56768e-05
9.76522e-05
-0.000111421
0.000144252
-0.00021318
0.000203849
-0.000343184
0.000277817
-0.000503366
0.000367109
-0.000694998
0.000472019
-0.000918246
0.000591934
-0.00117175
0.000725142
-0.00145228
0.000868769
-0.00175465
0.0010189
-0.00207197
-0.00239602
5.11729e-07
2.18994e-05
3.45647e-06
4.54021e-05
1.02865e-05
4.99078e-05
2.25102e-05
3.42924e-05
4.17068e-05
-2.90854e-06
6.95245e-05
-6.34945e-05
0.000107654
-0.000149551
0.000157762
-0.000263288
0.000221373
-0.000406795
0.0002997
-0.000581694
0.000393419
-0.000788716
0.000502416
-0.00102724
0.000625563
-0.0012949
0.000760575
-0.0015873
0.000904035
-0.00189811
0.00105163
-0.00221956
-0.00254299
6.9835e-07
2.1201e-05
4.20232e-06
4.18981e-05
1.19995e-05
4.21106e-05
2.56455e-05
2.06464e-05
4.67705e-05
-2.40336e-05
7.70658e-05
-9.37898e-05
0.000118239
-0.000190724
0.000171926
-0.000316975
0.000239546
-0.000474415
0.000322104
-0.000664251
0.000419945
-0.000886557
0.000532509
-0.00113981
0.000658132
-0.00142052
0.000793976
-0.00172314
0.000936161
-0.0020403
0.0010801
-0.0023635
0.00122105
-0.00268394
-0.0029945
8.98604e-07
2.03024e-05
5.0025e-06
3.77942e-05
1.38331e-05
3.328e-05
2.89892e-05
5.49028e-06
5.21445e-05
-4.71888e-05
8.50196e-05
-0.000126665
0.000129319
-0.000235024
0.000186618
-0.000374273
0.000258189
-0.000545986
0.000344783
-0.000750845
0.000446371
-0.000988146
0.000561912
-0.00125535
0.000689202
-0.00154781
0.000824899
-0.00185884
0.000964757
-0.00218015
0.00110407
-0.00250281
0.00123827
-0.00281813
0.00136331
-0.00311955
-0.00340053
1.11081e-06
1.91916e-05
5.85095e-06
3.30541e-05
1.57741e-05
2.33568e-05
3.25178e-05
-1.12534e-05
5.77899e-05
-7.2461e-05
9.33262e-05
-0.000162201
0.000140805
-0.000282502
0.000201707
-0.000435176
0.000277121
-0.0006214
0.000367496
-0.00084122
0.000472389
-0.00109304
0.000590256
-0.00137322
0.000718374
-0.00167593
0.00085296
-0.00199342
0.000989522
-0.00231672
0.00112338
-0.00263667
0.00125027
-0.00294502
0.00136675
-0.00323602
0.00147078
-0.00350456
-0.00375328
1.33357e-06
1.7858e-05
6.74235e-06
2.76453e-05
1.78105e-05
1.22886e-05
3.6209e-05
-2.96518e-05
6.36701e-05
-9.99221e-05
0.000101928
-0.000200459
0.000152608
-0.000333183
0.000217067
-0.000499634
0.000296163
-0.000700496
0.000390004
-0.000935062
0.0004977
-0.00120073
0.000617199
-0.00149272
0.000745294
-0.00180402
0.000877849
-0.00212598
0.00101025
-0.00244912
0.00113797
-0.0027644
0.0012572
-0.00306424
0.00136511
-0.00334394
0.0014604
-0.00359986
-0.00383603
0.00154316
1.56581e-06
1.62922e-05
7.67221e-06
2.15389e-05
1.99317e-05
2.91176e-08
4.00424e-05
-4.97625e-05
6.97499e-05
-0.00012963
0.000110768
-0.000241476
0.000164644
-0.000387059
0.000232571
-0.000567561
0.00031514
-0.000783065
0.000412077
-0.001032
0.000522023
-0.00131068
0.000642429
-0.00161312
0.000769658
-0.00193125
0.000899323
-0.00225564
0.00102681
-0.0025766
0.00114789
-0.00288548
0.00125926
-0.00317561
0.00135877
-0.00344344
0.00144578
-0.00368687
-0.00391102
0.00152076
1.80676e-06
1.44855e-05
8.63688e-06
1.47088e-05
2.21283e-05
-1.34623e-05
4.39994e-05
-7.16336e-05
7.59962e-05
-0.000161626
0.000119791
-0.000285271
0.000176826
-0.000444094
0.000248094
-0.000638829
0.000333877
-0.000868848
0.00043349
-0.00113161
0.000545093
-0.00142228
0.000665666
-0.00173369
0.000791217
-0.0020568
0.000917216
-0.00238164
0.00103918
-0.00269857
0.00115326
-0.00299956
0.00125673
-0.00327908
0.00134811
-0.00353482
0.00142735
-0.00376611
-0.00397895
0.00149528
2.05591e-06
1.24296e-05
9.63346e-06
7.1312e-06
2.43922e-05
-2.8221e-05
4.80628e-05
-9.53042e-05
8.23772e-05
-0.000195941
0.000128945
-0.00033184
0.000189071
-0.00050422
0.000263511
-0.000713269
0.000352204
-0.000957541
0.000454027
-0.00123344
0.000566664
-0.00153492
0.000686668
-0.0018537
0.000809777
-0.00217991
0.00093143
-0.00250329
0.00104738
-0.00281452
0.00115426
-0.00310644
0.00124994
-0.00337475
0.00133355
-0.00361844
0.00140558
-0.00383814
-0.00404051
0.00146714
2.31299e-06
1.01166e-05
1.06596e-05
-1.21539e-06
2.67162e-05
-4.42777e-05
5.22163e-05
-0.000120804
8.88618e-05
-0.000232586
0.000138176
-0.000381154
0.000201293
-0.000567337
0.000278699
-0.000790674
0.000369954
-0.0010488
0.000473486
-0.00133697
0.000586517
-0.00164795
0.000705235
-0.00197242
0.000825201
-0.00229988
0.000941936
-0.00262003
0.00105153
-0.00292412
0.00115114
-0.00320605
0.00123922
-0.00346283
0.00131551
-0.00369472
0.0013809
-0.00390354
-0.00409634
0.00143673
2.57786e-06
7.5387e-06
1.17133e-05
-1.03508e-05
2.90936e-05
-6.1658e-05
5.6444e-05
-0.000148155
9.54187e-05
-0.000271561
0.000147429
-0.000433164
0.000213407
-0.000633316
0.000293533
-0.0008708
0.000386966
-0.00114223
0.000491675
-0.00144168
0.000604459
-0.00176073
0.000721208
-0.00208917
0.000837409
-0.00241608
0.000948765
-0.00273138
0.00105178
-0.00302713
0.00114417
-0.00329843
0.00122496
-0.00354363
0.00129439
-0.00376416
0.00135372
-0.00396286
-0.00414704
0.00140442
2.85044e-06
4.68826e-06
1.27927e-05
-2.02931e-05
3.15176e-05
-8.03829e-05
6.07296e-05
-0.000177367
0.000102016
-0.000312848
0.000156649
-0.000487796
0.000225327
-0.000701994
0.000307892
-0.000953365
0.000403083
-0.00123742
0.000508424
-0.00154702
0.000620329
-0.00187264
0.000734476
-0.00220331
0.000846375
-0.00252798
0.000952005
-0.00283701
0.00104834
-0.00312347
0.00113365
-0.00338374
0.00120751
-0.00361749
0.00127059
-0.00382724
0.0013244
-0.00401667
-0.00419315
0.00137052
3.13063e-06
1.55763e-06
1.38959e-05
-3.10583e-05
3.39811e-05
-0.000100468
6.50562e-05
-0.000208442
0.00010862
-0.000356412
0.000165778
-0.000544954
0.000236964
-0.00077318
0.000321656
-0.00103806
0.000418161
-0.00133393
0.000523578
-0.00165243
0.000633996
-0.00198306
0.000744968
-0.00231428
0.000852122
-0.00263513
0.000951788
-0.00293668
0.00104144
-0.00321313
0.0011199
-0.0034622
0.00118724
-0.00368482
0.00124447
-0.00388447
0.00129329
-0.00406549
-0.00423517
0.00133531
3.41829e-06
-1.86066e-06
1.50206e-05
-4.26606e-05
3.64765e-05
-0.000121924
6.94055e-05
-0.000241371
0.000115196
-0.000402203
0.000174759
-0.000604517
0.000248232
-0.000846653
0.000334708
-0.00112453
0.000432065
-0.00143128
0.000537005
-0.00175737
0.000645366
-0.00209142
0.000752657
-0.00242158
0.000854716
-0.00273719
0.000948281
-0.00303025
0.00103135
-0.0032962
0.00110325
-0.00353411
0.00116449
-0.00374606
0.00121637
-0.00393635
0.00126068
-0.00410981
-0.00427353
0.00129904
3.71311e-06
-5.57377e-06
1.61641e-05
-5.51116e-05
3.8995e-05
-0.000144755
7.37577e-05
-0.000276133
0.000121707
-0.000450152
0.000183529
-0.000666339
0.000259041
-0.000922165
0.000346936
-0.00121243
0.000444671
-0.00152902
0.0005486
-0.0018613
0.000654375
-0.00219719
0.000757557
-0.00252476
0.000854264
-0.0028339
0.000941685
-0.00311767
0.00101833
-0.00337284
0.00108402
-0.00359979
0.00113959
-0.00380164
0.00118658
-0.00398334
0.00122684
-0.00415006
-0.00430861
0.00126192
4.01462e-06
-9.5884e-06
1.73232e-05
-6.84202e-05
4.15269e-05
-0.000168959
7.80913e-05
-0.000312698
0.000128113
-0.000500174
0.000192027
-0.000730253
0.000269307
-0.000999444
0.000358237
-0.00130136
0.000455876
-0.00162666
0.00055828
-0.00196371
0.000660996
-0.00229991
0.000759717
-0.00262348
0.000850903
-0.00292509
0.000932215
-0.00319898
0.00100267
-0.00344329
0.00106249
-0.00365962
0.00111285
-0.00385199
0.00115539
-0.00402589
0.00119199
-0.00418666
-0.00434074
0.00122411
4.32216e-06
-1.39106e-05
1.84941e-05
-8.25921e-05
4.40612e-05
-0.000194526
8.23831e-05
-0.00035102
0.000134373
-0.000552164
0.000200191
-0.000796071
0.000278945
-0.0010782
0.000368516
-0.00139093
0.00046559
-0.00172373
0.000565988
-0.0020641
0.000665232
-0.00239915
0.000759218
-0.00271746
0.000844794
-0.00301066
0.000920103
-0.00327429
0.000984626
-0.00350782
0.00103897
-0.00371396
0.00108453
-0.00389754
0.00112304
-0.0040644
0.00115632
-0.00421994
-0.00437019
0.00118577
4.63487e-06
-1.85454e-05
1.96721e-05
-9.76293e-05
4.65857e-05
-0.000221439
8.66083e-05
-0.000391042
0.000140446
-0.000606002
0.000207958
-0.000863582
0.000287877
-0.00115812
0.000377687
-0.00148074
0.000473743
-0.00181979
0.000571696
-0.00216206
0.000667115
-0.00249457
0.000756165
-0.00280651
0.000836116
-0.00309061
0.000905584
-0.00334376
0.000964478
-0.00356671
0.00101372
-0.00376321
0.00105488
-0.0039387
0.00108972
-0.00409925
0.00112001
-0.00425022
-0.00439719
0.00114701
4.95167e-06
-2.34971e-05
2.08522e-05
-0.00011353
4.90871e-05
-0.000249674
9.07409e-05
-0.000432696
0.000146288
-0.000661549
0.000215267
-0.000932561
0.00029603
-0.00123888
0.000385678
-0.00157039
0.000480285
-0.0019144
0.000575396
-0.00225717
0.000666704
-0.00258588
0.000750689
-0.0028905
0.000825061
-0.00316498
0.000888892
-0.00340759
0.000942475
-0.0036203
0.000986994
-0.00380773
0.00102412
-0.00397582
0.00105563
-0.00413076
0.00108318
-0.00427777
-0.00442195
0.00110794
5.27136e-06
-2.87685e-05
2.20288e-05
-0.000130287
5.15514e-05
-0.000279197
9.4754e-05
-0.000475899
0.000151857
-0.000718652
0.000222062
-0.00100277
0.000303337
-0.00132016
0.000392431
-0.00165948
0.000485185
-0.00200715
0.000577109
-0.00234909
0.000664078
-0.00267285
0.000742933
-0.00296936
0.000811826
-0.00323388
0.000870257
-0.00346602
0.000918855
-0.00366889
0.000959006
-0.00384788
0.000992448
-0.00400926
0.00102092
-0.00415924
0.00104597
-0.00430282
-0.00444461
0.00106864
5.59265e-06
-3.43611e-05
2.31957e-05
-0.00014789
5.39636e-05
-0.000309965
9.86201e-05
-0.000520555
0.000157111
-0.000777143
0.000228287
-0.00107394
0.000309742
-0.00140161
0.000397901
-0.00174764
0.00048843
-0.00209768
0.000576871
-0.00243753
0.000659337
-0.00275532
0.000733054
-0.00304307
0.000796611
-0.00329743
0.000849901
-0.00351931
0.000893839
-0.00371283
0.00092996
-0.003884
0.000960029
-0.00403933
0.000985724
-0.00418493
0.00100846
-0.00432555
-0.00446532
0.00102917
5.91399e-06
-4.02751e-05
2.43465e-05
-0.000166323
5.63085e-05
-0.000341927
0.000102312
-0.000566559
0.000162008
-0.000836839
0.000233893
-0.00114583
0.000315195
-0.00148291
0.000402058
-0.0018345
0.000490028
-0.00218565
0.000574741
-0.00252224
0.000652595
-0.00283317
0.000721215
-0.00311169
0.000779612
-0.00335583
0.000828033
-0.00356773
0.000867627
-0.00375243
0.000900035
-0.0039164
0.000927011
-0.00406631
0.000950147
-0.00420807
0.000970733
-0.00434614
-0.00448418
0.00098959
6.23359e-06
2.5474e-05
5.85702e-05
0.000105802
-0.000613791
0.000166512
-0.000897549
0.000238837
-0.00121815
0.00031966
-0.00156374
0.000404885
-0.00191973
0.000490001
-0.00227076
0.000570792
-0.00260303
0.000643975
-0.00290635
0.000707583
-0.0031753
0.000761021
-0.00340927
0.000804849
-0.00361156
0.000840404
-0.00378798
0.000869388
-0.00394539
0.000893519
-0.00409044
0.000914287
-0.00422884
0.000932858
-0.00436471
-0.00450127
0.000949945
0.000109064
0.000170587
0.000243079
-0.00129064
0.000323107
-0.00164376
0.000406381
-0.002003
0.000488388
-0.00235277
0.00056511
-0.00267976
0.00063361
-0.00297485
0.000692322
-0.00323401
0.000741019
-0.00345797
0.00078053
-0.00365107
0.000812334
-0.00381978
0.000838158
-0.00397121
0.00085966
-0.00411194
0.000878222
-0.0042474
0.000894888
-0.00438138
-0.00451665
0.000910271
0.000246591
0.000325521
0.000406557
0.00048524
-0.00243145
0.000557791
-0.00275231
0.000621635
-0.0030387
0.000675596
-0.00328797
0.000719781
-0.00350215
0.000755243
-0.00368653
0.000783563
-0.0038481
0.000806464
-0.00399411
0.000825527
-0.00413101
0.000842019
-0.00426389
0.000856869
-0.00439623
-0.00453038
0.000870599
0.000480621
0.000548941
0.00060819
0.000657564
0.000697467
-0.00354205
0.000729137
-0.0037182
0.000754221
-0.00387319
0.000774411
-0.0040143
0.000791196
-0.00414779
0.000805733
-0.00427843
0.000818838
-0.00440933
-0.0045425
0.000830953
0.000674228
0.000702351
0.000724423
0.000742087
-0.00403197
0.000756734
-0.00416244
0.00076941
-0.0042911
0.000780827
-0.00442075
-0.00455302
0.000791355
0.000709571
0.000722197
0.000733087
0.000742861
-0.00456198
0.000751823
0.000712372
0.00432653
0.000728947
0.000710486
0.00380361
0.000726684
0.00393312
0.000741075
0.00405936
0.000754432
0.00418553
0.00431377
0.000767192
0.000619763
0.00309713
0.000660171
0.00330354
0.000692862
0.00348248
0.000719272
0.00363982
0.000740969
0.00378191
0.000759403
0.00391468
0.000775756
0.00404301
0.000790901
0.00417039
0.00429931
0.00080536
0.000450472
0.00221379
0.000520082
0.0025189
0.000582283
0.00279693
0.000635753
0.00304366
0.000680338
0.00325896
0.000716808
0.00344601
0.000746506
0.00361012
0.000771003
0.00375741
0.000791817
0.00389387
0.000810231
0.0040246
0.000827228
0.00415339
0.00428312
0.000843419
0.000223287
0.00116753
0.000297383
0.00148494
0.000375126
0.00181221
0.000452516
0.0021364
0.000525873
0.00244555
0.000592368
0.00273044
0.000650329
0.0029857
0.000699282
0.00321
0.00073976
0.00340554
0.000772978
0.0035769
0.000800482
0.00372991
0.000823842
0.00387051
0.000844438
0.004004
0.000863365
0.00413446
0.00426516
0.000881331
9.70111e-05
0.000564787
0.000152623
0.000816402
0.000219062
0.00110109
0.000293701
0.0014103
0.000373025
0.00173289
0.000453075
0.00205635
0.000530036
0.00236858
0.000600799
0.00265968
0.00066334
0.00292316
0.000716839
0.00315651
0.000761558
0.00336082
0.000798543
0.00353991
0.000829283
0.00369917
0.00085538
0.00384441
0.000878301
0.00398108
0.000899254
0.00411351
0.00424536
0.000919053
5.46663e-06
4.24637e-05
2.24004e-05
0.000162482
5.16668e-05
0.000322399
9.37243e-05
0.000522729
0.000148315
0.000761811
0.000214207
0.0010352
0.000289087
0.00133542
0.000369679
0.0016523
0.000452115
0.00197391
0.000532494
0.00228821
0.000607456
0.00258471
0.000674633
0.00285598
0.00073284
0.0030983
0.000782029
0.00331163
0.000823041
0.0034989
0.000857268
0.00366494
0.000886317
0.00381536
0.00091173
0.00395566
0.000934829
0.00409041
0.00422365
0.000956535
5.17131e-06
3.72924e-05
2.13377e-05
0.000146315
4.94886e-05
0.000294248
9.02649e-05
0.000481953
0.000143662
0.000708414
0.000208762
0.000970099
0.000283578
0.00126061
0.000365104
0.00157077
0.000449617
0.0018894
0.000533181
0.00220464
0.000612228
0.00250567
0.000684056
0.00278415
0.000747105
0.00303525
0.000800987
0.00325775
0.000846292
0.0034536
0.000884276
0.00362696
0.00091652
0.00378312
0.000944622
0.00392756
0.000970009
0.00406502
0.00419995
0.000993714
4.87646e-06
3.24159e-05
2.02633e-05
0.000130928
4.72567e-05
0.000267255
8.66606e-05
0.000442549
0.000138706
0.000656369
0.000202776
0.000906028
0.000277219
0.00118617
0.00035933
0.00148866
0.000445578
0.00180315
0.000532049
0.00211817
0.000615013
0.0024227
0.000691461
0.0027077
0.000759454
0.00296726
0.000818235
0.00319897
0.000868101
0.00340373
0.000910131
0.00358493
0.000945838
0.00374741
0.000976853
0.00389655
0.0010047
0.00403718
0.00417413
0.00103052
4.58377e-06
2.78321e-05
1.91843e-05
0.000116328
4.49873e-05
0.000241452
8.29395e-05
0.000404597
0.000133486
0.000605822
0.000196301
0.000843214
0.000270065
0.0011124
0.0003524
0.00140632
0.000440011
0.00171554
0.000529063
0.00202912
0.000615723
0.00233604
0.000696707
0.00262672
0.000769704
0.00289426
0.000833565
0.00313511
0.000888258
0.00334904
0.000934633
0.00353855
0.000974097
0.00370795
0.00100828
0.00386236
0.00103879
0.00400667
0.00414605
0.00106687
4.29497e-06
2.35372e-05
1.81075e-05
0.000102515
4.26965e-05
0.000216863
7.91306e-05
0.000368163
0.000128049
0.000556903
0.000189394
0.000781869
0.000262181
0.00103961
0.000344371
0.00132413
0.000432947
0.00162696
0.000524213
0.00193785
0.00061429
0.00224596
0.000699666
0.00254135
0.000777675
0.00281625
0.000846765
0.00306602
0.000906536
0.00328927
0.000957563
0.00348753
0.0010011
0.00366441
0.00103874
0.00382473
0.00107214
0.00397327
0.00411554
0.00110265
4.0118e-06
1.95254e-05
1.70398e-05
8.94871e-05
4.03999e-05
0.000193503
7.52627e-05
0.0003333
0.000122437
0.000509729
0.000182118
0.000722188
0.000253639
0.000968093
0.000335314
0.00124246
0.000424436
0.00153784
0.000517508
0.00184478
0.000610666
0.00215281
0.000700226
0.00245178
0.000783195
0.00273328
0.000857618
0.00299159
0.000922695
0.00322419
0.000978681
0.00343154
0.00102663
0.00361646
0.00106804
0.00378331
0.0011046
0.00393671
0.00408239
0.00113775
3.73582e-06
1.57896e-05
1.59877e-05
7.72353e-05
3.81129e-05
0.000171377
7.13642e-05
0.000300049
0.000116698
0.000464395
0.000174536
0.00066435
0.000244518
0.000898111
0.000325311
0.00116167
0.000414549
0.0014486
0.000508981
0.00175035
0.000604827
0.00205696
0.000698295
0.00235832
0.000786106
0.00264547
0.000865909
0.00291179
0.000936488
0.00315361
0.000997729
0.0033703
0.00105043
0.00356377
0.00109595
0.00373779
0.00113599
0.00389667
0.00404635
0.00117202
3.46848e-06
1.23211e-05
1.49571e-05
6.57467e-05
3.58499e-05
0.000150485
6.74626e-05
0.000268436
0.000110875
0.000420982
0.000166713
0.000608513
0.000234901
0.000829922
0.000314457
0.00108211
0.000403372
0.00135969
0.000498688
0.00165503
0.000596778
0.00195887
0.000693808
0.00226129
0.000786267
0.00255301
0.000871433
0.00282662
0.00094766
0.00307738
0.00101443
0.00330353
0.00107223
0.00350597
0.00112224
0.00368778
0.00116609
0.00385282
0.00400715
0.00120529
3.21106e-06
9.11002e-06
1.39536e-05
5.50041e-05
3.36246e-05
0.000130814
6.35842e-05
0.000238476
0.000105013
0.000379553
0.000158714
0.000554812
0.000224877
0.000763759
0.000302854
0.00100413
0.000391008
0.00127153
0.000486712
0.00155933
0.000586553
0.00185903
0.000686728
0.00216111
0.000783561
0.00245618
0.000873997
0.00273619
0.00095596
0.00299542
0.0010285
0.00323098
0.00109175
0.00344273
0.00114662
0.0036329
0.00119466
0.00380479
0.00396446
0.00123735
2.96471e-06
6.1453e-06
1.29823e-05
4.49865e-05
3.14493e-05
0.000112347
5.97536e-05
0.000210172
9.91544e-05
0.000340152
0.000150605
0.000503361
0.000214533
0.000699831
0.000290612
0.000928055
0.000377575
0.00118457
0.000473157
0.00146375
0.000574214
0.00175797
0.000677053
0.00205827
0.000777903
0.00235533
0.000873427
0.00264066
0.000961142
0.00290771
0.00103965
0.00315248
0.00110866
0.00337372
0.00116879
0.00357276
0.00122142
0.00375217
0.0039179
0.00126798
2.73041e-06
3.41489e-06
1.20474e-05
3.56695e-05
2.93351e-05
9.5059e-05
5.5993e-05
0.000183514
9.33375e-05
0.000302808
0.000142447
0.000454252
0.00020396
0.000638318
0.000277846
0.000854169
0.000363204
0.00109921
0.000458149
0.0013688
0.000559857
0.00165626
0.000664817
0.00195331
0.000769244
0.0022509
0.000869583
0.00254032
0.000962977
0.00281431
0.00104757
0.00306788
0.00112263
0.00329866
0.00118842
0.00350697
0.00124606
0.00369453
0.00386706
0.0012969
2.50891e-06
9.05983e-07
1.11524e-05
2.70261e-05
2.72912e-05
7.89202e-05
5.2322e-05
0.000158483
8.75985e-05
0.000267531
0.000134299
0.000407551
0.000193242
0.000579375
0.00026467
0.000782741
0.000348033
0.00101585
0.000441832
0.001275
0.000543607
0.00155449
0.000650092
0.00184683
0.000757572
0.00214342
0.000862355
0.00243554
0.000961259
0.00271541
0.00105199
0.00297715
0.00113334
0.00321731
0.00120514
0.00343517
0.00126823
0.00363144
0.00381149
0.00132379
2.30073e-06
-1.39475e-06
1.02999e-05
1.90269e-05
2.5325e-05
6.38951e-05
4.87568e-05
0.000135051
8.19684e-05
0.00023432
0.000126213
0.000363307
0.000182462
0.000523126
0.0002512
0.000714003
0.000332205
0.000934844
0.000424368
0.00118284
0.000525614
0.00145324
0.000632987
0.00173945
0.000742925
0.00203349
0.000851681
0.00232679
0.000955817
0.00261127
0.00105263
0.00288034
0.00114043
0.00312951
0.00121858
0.00335702
0.00128756
0.00356246
0.00375072
0.00134833
2.10612e-06
-3.50087e-06
9.49153e-06
1.16415e-05
2.34418e-05
4.99449e-05
4.53103e-05
0.000113183
7.64732e-05
0.000203157
0.000118237
0.000321543
0.000171695
0.000469667
0.000237545
0.000648154
0.000315865
0.000856524
0.000405925
0.00109278
0.000506052
0.00135312
0.000613649
0.00163186
0.000725381
0.00192175
0.000837543
0.00221462
0.000946522
0.00250229
0.00104925
0.00277761
0.00114358
0.00303519
0.00122836
0.00327224
0.00130364
0.00348717
0.00368425
0.00137012
1.92502e-06
-5.42589e-06
8.72776e-06
4.83878e-06
2.16443e-05
3.70284e-05
4.1991e-05
9.28359e-05
7.11329e-05
0.000174015
0.000110408
0.000282268
0.000161008
0.000419067
0.000223805
0.000585357
0.000299154
0.000781175
0.000386678
0.00100526
0.000485113
0.00125468
0.000592255
0.00152472
0.000705069
0.00180894
0.000819981
0.00209971
0.000933294
0.00238898
0.00104166
0.00266925
0.00114247
0.00293437
0.00123408
0.00318063
0.00131606
0.0034052
0.00361157
0.00138874
1.75702e-06
-7.18292e-06
8.00788e-06
-1.41208e-06
1.99328e-05
2.51034e-05
3.88034e-05
7.39654e-05
6.5961e-05
0.000146857
0.000102758
0.000245471
0.000150455
0.00037137
0.000210074
0.000525738
0.000282205
0.000709044
0.000366802
0.000920658
0.000463001
0.00115848
0.000569012
0.0014187
0.00068216
0.00169579
0.000799087
0.00198278
0.000916116
0.00227195
0.0010297
0.00255567
0.00113684
0.00282722
0.00123539
0.00308208
0.00132438
0.0033162
0.00353218
0.00140377
1.60139e-06
-8.7843e-06
7.32996e-06
-7.14065e-06
1.83052e-05
1.41281e-05
3.57473e-05
5.65234e-05
6.09643e-05
0.00012164
9.53066e-05
0.000211129
0.000140082
0.000326594
0.000196429
0.000469392
0.000265139
0.000640334
0.000346465
0.000839332
0.000439922
0.00106502
0.000544146
0.00131448
0.000656861
0.00158308
0.000775008
0.00186464
0.00089503
0.00215193
0.00101328
0.00243742
0.00112646
0.00271404
0.00123192
0.00297662
0.00132818
0.00321995
0.00344561
0.00141474
1.45702e-06
-1.02413e-05
6.69086e-06
-1.23745e-05
1.67566e-05
4.06241e-06
3.28182e-05
4.04617e-05
5.61428e-05
9.83158e-05
8.80654e-05
0.000179206
0.000129921
0.000284739
0.000182932
0.00041638
0.000248063
0.000575204
0.000325824
0.00076157
0.000416084
0.000974765
0.000517896
0.00121267
0.000629414
0.00147156
0.000747942
0.00174611
0.000870143
0.00202973
0.000992379
0.00231518
0.00111115
0.00259527
0.00122338
0.00286439
0.00132705
0.00311628
0.00335144
0.00142121
1.32251e-06
-1.15638e-05
6.08632e-06
-1.71383e-05
1.52797e-05
-5.13095e-06
3.00076e-05
2.57338e-05
5.149e-05
7.68334e-05
8.1036e-05
0.00014966
0.000119989
0.000245786
0.000169633
0.000366736
0.000231065
0.000513773
0.000305018
0.000687616
0.00039168
0.000888103
0.000490503
0.00111385
0.000600081
0.00136198
0.000718132
0.00162806
0.000841626
0.00190624
0.000967053
0.00218976
0.00109082
0.00247151
0.00120952
0.00274569
0.00132063
0.00300517
1.19614e-06
-1.276e-05
5.51109e-06
-2.14533e-05