/*--------------------------------*- C++ -*----------------------------------*\
  =========                 |
  \\      /  F ield         | OpenFOAM: The Open Source CFD Toolbox
   \\    /   O peration     | Website:  https://openfoam.org
    \\  /    A nd           | Version:  7
     \\/     M anipulation  |
\*---------------------------------------------------------------------------*/
FoamFile
{
    version     2.0;
    format      ascii;
    class       volVectorField;
    location    "260";
    object      U;
}
// * * * * * * * * * * * * * * * * * * * * * * * * * * * * * * * * * * * * * //

dimensions      [0 1 -1 0 0 0 0];

internalField   nonuniform List<vector> 
4575
(
(-0.00035954 0.0307225 -1.08477e-21)
(-0.00147478 0.082828 -5.64426e-21)
(-0.00354505 0.127263 6.76919e-22)
(-0.000907646 0.0308402 -5.33413e-21)
(-0.00274638 0.0833309 4.3077e-21)
(-0.00508987 0.128263 -5.00009e-21)
(-0.00145675 0.0308352 -4.1465e-20)
(-0.0040313 0.0835307 5.20744e-21)
(-0.00666681 0.128834 7.84952e-21)
(-0.00200053 0.0307106 6.79887e-20)
(-0.00531559 0.0834316 -2.95835e-20)
(-0.00825919 0.128978 -2.02324e-20)
(-0.00253322 0.0304704 -9.04128e-21)
(-0.00658595 0.0830399 1.16997e-19)
(-0.00985065 0.128699 5.41792e-20)
(-0.00304936 0.0301196 -4.48789e-20)
(-0.00782972 0.082365 2.78336e-20)
(-0.0114255 0.128007 -4.43292e-20)
(-0.00354389 0.0296641 5.45571e-20)
(-0.00903506 0.0814186 -6.63379e-20)
(-0.0129689 0.126913 -1.00482e-19)
(-0.00401228 0.0291109 9.23616e-21)
(-0.0101911 0.0802147 -3.25398e-20)
(-0.014467 0.125433 9.07318e-20)
(-0.00445054 0.0284676 -2.56827e-20)
(-0.0112881 0.0787694 1.78904e-19)
(-0.0159071 0.123587 -3.92763e-20)
(-0.0191271 0.162477 -4.62714e-20)
(-0.00485533 0.0277428 -7.98988e-20)
(-0.0123175 0.0771009 1.04996e-19)
(-0.0172784 0.121395 5.82851e-20)
(-0.0206006 0.160089 2.60972e-20)
(-0.00522398 0.0269455 1.4551e-19)
(-0.0132724 0.0752292 -8.05878e-20)
(-0.0185711 0.118881 2.70212e-20)
(-0.0220113 0.157278 1.00471e-19)
(-0.00555459 0.0260853 1.2206e-19)
(-0.0141474 0.0731758 -1.48196e-19)
(-0.0197779 0.116075 -1.52756e-19)
(-0.0233507 0.15407 -7.21385e-20)
(-0.00584599 0.0251721 -1.52061e-19)
(-0.0149388 0.0709635 -1.41707e-19)
(-0.020893 0.113003 5.81151e-20)
(-0.0246121 0.150497 1.43522e-19)
(-0.00609777 0.0242164 6.36852e-20)
(-0.0156445 0.0686162 9.46343e-20)
(-0.0219128 0.109699 1.135e-19)
(-0.0257908 0.146593 -1.8972e-19)
(-0.00631031 0.0232286 -3.66694e-20)
(-0.016264 0.0661586 4.46872e-20)
(-0.0228358 0.106193 -9.50465e-20)
(-0.026884 0.142394 -1.40109e-19)
(-0.00648474 0.0222192 1.35045e-19)
(-0.0167989 0.0636158 -1.33456e-19)
(-0.0236623 0.102521 1.07165e-19)
(-0.0278907 0.137937 1.69222e-19)
(-0.00662292 0.0211987 -5.88438e-20)
(-0.0172522 0.0610132 -3.93869e-20)
(-0.024395 0.0987173 1.10325e-19)
(-0.0288122 0.133261 -1.51275e-19)
(-0.0306979 0.163969 -8.45199e-20)
(-0.00672746 0.0201773 -1.3592e-19)
(-0.0176285 0.0583757 1.89917e-19)
(-0.0250382 0.0948161 2.62691e-21)
(-0.0296517 0.128409 -1.62494e-21)
(-0.0316142 0.158444 1.8969e-19)
(-0.00680164 0.0191649 4.35802e-20)
(-0.0179342 0.0557281 -1.35344e-19)
(-0.0255987 0.0908525 1.28114e-19)
(-0.0304139 0.123419 -1.89146e-19)
(-0.0324736 0.152696 2.3129e-19)
(-0.0068494 0.0181711 1.68402e-20)
(-0.0181771 0.0530943 -7.03697e-20)
(-0.0260847 0.0868606 2.24133e-19)
(-0.0311058 0.118334 -2.85625e-19)
(-0.0332794 0.146767 -2.33284e-19)
(-0.00687524 0.0172049 -1.18359e-19)
(-0.0183663 0.0504972 -2.09422e-19)
(-0.0265059 0.0828736 -1.1949e-19)
(-0.0317351 0.113193 1.5598e-19)
(-0.0340361 0.140704 -8.83193e-21)
(-0.0334503 0.164843 3.09832e-20)
(-0.00688418 0.0162747 1.0861e-19)
(-0.018512 0.0479584 2.73412e-19)
(-0.0268733 0.0789233 -2.04603e-19)
(-0.0323105 0.108036 -9.75035e-20)
(-0.0347484 0.134551 8.05604e-20)
(-0.034183 0.157897 -1.92027e-19)
(-0.00688163 0.0153881 -1.19176e-19)
(-0.0186251 0.0454979 -1.43107e-20)
(-0.0271987 0.0750396 2.89489e-19)
(-0.0328413 0.102901 2.82508e-19)
(-0.0354201 0.128351 -5.71108e-20)
(-0.0348861 0.150822 -3.57705e-20)
(-0.00687331 0.0145522 7.58514e-20)
(-0.0187173 0.0431337 1.52792e-19)
(-0.0274941 0.07125 -1.05429e-19)
(-0.0333364 0.0978238 -1.29027e-19)
(-0.0360546 0.122146 -1.3131e-19)
(-0.0355549 0.143665 -3.52305e-20)
(-0.00686512 0.0137728 -1.03962e-19)
(-0.0188001 0.0408817 -3.32626e-19)
(-0.0277714 0.0675797 1.03693e-19)
(-0.0338039 0.0928372 5.74903e-21)
(-0.0366531 0.115978 4.30242e-19)
(-0.0361818 0.136471 -2.52832e-19)
(-0.0323503 0.153933 -2.13834e-19)
(-0.00686294 0.0130548 -9.88561e-20)
(-0.0188852 0.0387556 3.91395e-19)
(-0.0280418 0.0640505 -2.94931e-19)
(-0.0342504 0.0879715 -5.93371e-20)
(-0.0372145 0.109884 -9.8518e-20)
(-0.0367549 0.129285 -2.51782e-19)
(-0.0327975 0.14581 2.48273e-19)
(-0.00687256 0.012402 1.3975e-19)
(-0.0189833 0.0367662 -1.71756e-19)
(-0.028315 0.0606811 -2.11026e-19)
(-0.0346803 0.0832536 -1.97175e-19)
(-0.0377339 0.103899 6.50319e-20)
(-0.0372573 0.122152 3.68097e-20)
(-0.0331432 0.13767 8.81939e-20)
(-0.00689939 0.011817 -2.94628e-19)
(-0.0191043 0.0349215 2.29416e-19)
(-0.0285987 0.0574865 2.54936e-19)
(-0.0350945 0.0787065 -1.45679e-19)
(-0.0382021 0.0980549 2.45562e-19)
(-0.0376662 0.115111 2.33996e-19)
(-0.0333476 0.129561 -4.22005e-20)
(-0.0251849 0.141206 -2.30265e-19)
(-0.00694833 0.0113009 -2.31309e-19)
(-0.0192564 0.0332263 -2.10885e-19)
(-0.028898 0.0544778 1.64059e-19)
(-0.0354905 0.0743492 9.44386e-20)
(-0.0386047 0.0923799 3.7587e-20)
(-0.037952 0.1082 -6.8261e-20)
(-0.0333624 0.121532 -4.80922e-20)
(-0.0247469 0.132198 1.07529e-19)
(-0.00702353 0.0108536 1.12037e-19)
(-0.0194458 0.0316825 2.17537e-19)
(-0.0292147 0.051662 -3.86388e-19)
(-0.0358612 0.0701963 -2.91836e-19)
(-0.0389216 0.0868976 1.4515e-19)
(-0.0380778 0.101453 1.35644e-19)
(-0.0331303 0.113628 -2.77132e-19)
(-0.0239614 0.123268 -2.44588e-20)
(-0.00712821 0.0104733 5.3531e-19)
(-0.0196761 0.0302882 -3.66707e-19)
(-0.0295469 0.0490416 8.84685e-20)
(-0.0361943 0.0662575 2.82664e-19)
(-0.0391265 0.0816274 -3.00891e-19)
(-0.0379988 0.0949009 1.49407e-20)
(-0.0325839 0.105889 2.21806e-19)
(-0.0227348 0.114471 4.01881e-19)
(-0.00835718 0.12059 4.00259e-19)
(-0.00726442 0.0101569 -5.06737e-19)
(-0.0199485 0.0290386 3.64501e-19)
(-0.0298883 0.0466151 8.77278e-20)
(-0.0364724 0.0625379 -2.79448e-19)
(-0.0391864 0.0765836 1.16276e-19)
(-0.0376627 0.0885688 -5.54242e-20)
(-0.0316472 0.0983557 -4.20548e-20)
(-0.0209623 0.105858 -3.38874e-19)
(-0.00547868 0.111042 -5.27426e-19)
(-0.00743291 0.00989965 4.04374e-19)
(-0.0202604 0.0279254 -1.02586e-19)
(-0.0302282 0.0443762 3.44056e-19)
(-0.0366723 0.0590376 8.23877e-20)
(-0.0390617 0.0717755 -1.79097e-19)
(-0.0370095 0.0824774 2.86452e-20)
(-0.0302356 0.09106 -3.70915e-19)
(-0.0185307 0.0974756 1.66352e-19)
(-0.00172672 0.101717 8.82241e-20)
(0.0203311 0.10382 1.31418e-20)
(-0.00763292 0.00969552 -1.03774e-19)
(-0.0206063 0.0269369 -1.09879e-19)
(-0.0305514 0.0423147 -2.15542e-19)
(-0.0367653 0.0557518 1.55531e-19)
(-0.0387068 0.067207 2.78939e-19)
(-0.0359726 0.0766419 -3.55105e-19)
(-0.0282574 0.0840304 5.59805e-19)
(-0.0153188 0.0893672 -1.07859e-19)
(0.00305269 0.0926749 1.53364e-20)
(0.02706 0.0940083 -3.63191e-19)
(-0.00786217 0.00953722 3.12236e-20)
(-0.0209768 0.0260588 1.06694e-19)
(-0.0308376 0.0404161 1.26362e-19)
(-0.0367173 0.0526708 -1.047e-19)
(-0.0380704 0.0628767 2.57876e-19)
(-0.0344798 0.0710717 3.40972e-19)
(-0.0256158 0.0772893 5.17121e-21)
(-0.0112015 0.0815689 -4.27399e-19)
(0.00901574 0.0839657 -3.3694e-19)
(0.0352898 0.0845579 3.48631e-19)
(-0.00811682 0.00941623 -1.90877e-19)
(-0.0213592 0.025274 1.80759e-19)
(-0.0310623 0.0386623 -1.32145e-19)
(-0.0364896 0.0497801 -6.4702e-20)
(-0.0370962 0.0587777 -1.74278e-19)
(-0.0324545 0.0657703 -1.30376e-19)
(-0.0222107 0.0708524 -2.29337e-19)
(-0.00605269 0.0741102 3.73907e-19)
(0.0163168 0.0756341 1.46453e-19)
(0.045201 0.0755281 -3.54454e-19)
(0.0809234 0.073913 -4.25368e-19)
(-0.00839133 0.00932313 -1.98197e-20)
(-0.0217373 0.0245633 -4.46144e-19)
(-0.0311968 0.0370318 1.07265e-19)
(-0.0360387 0.0470612 2.35874e-19)
(-0.0357243 0.054898 -4.33152e-20)
(-0.0298174 0.060735 -2.78016e-19)
(-0.0179412 0.0647285 3.01835e-19)
(0.000251652 0.067013 3.40702e-19)
(0.0251023 0.067716 1.28778e-19)
(0.0569614 0.0669694 6.30284e-19)
(0.0961936 0.0649154 -2.89316e-19)
(-0.00867871 0.00924792 -1.10154e-19)
(-0.0220918 0.0239058 -3.92179e-20)
(-0.0312087 0.0355007 -3.55663e-19)
(-0.0353182 0.0444918 2.14937e-19)
(-0.0338922 0.0512208 -2.16534e-19)
(-0.0264885 0.0559575 -2.16784e-19)
(-0.0127083 0.0589201 -1.95083e-20)
(0.00782966 0.0602919 -3.44029e-19)
(0.0355078 0.0602387 -5.37563e-19)
(0.0707173 0.0589223 1.45112e-19)
(0.113853 0.0565077 1.60528e-19)
(0.165287 0.053164 -6.71932e-20)
(-0.00897056 0.00918026 3.43891e-19)
(-0.0224004 0.0232796 -5.38152e-20)
(-0.0310623 0.0340429 3.13437e-19)
(-0.0342787 0.0420467 -3.1742e-19)
(-0.031536 0.0477254 4.62708e-19)
(-0.0223883 0.0514244 3.81857e-19)
(-0.00641695 0.0534229 -3.09449e-19)
(0.0167907 0.0539535 -5.6773e-19)
(0.0476527 0.053221 9.28547e-19)
(0.0865907 0.0514177 2.26189e-19)
(0.134011 0.0487321 -1.74023e-19)
(0.190265 0.0453505 -1.70183e-19)
(-0.00925734 0.00910982 -5.48969e-19)
(-0.0226385 0.0226627 3.59198e-19)
(-0.0307197 0.0326313 -5.2846e-19)
(-0.0328691 0.0396984 -2.84041e-19)
(-0.0285915 0.0443876 1.04568e-19)
(-0.0174398 0.0471176 -4.12535e-19)
(0.00102182 0.0482274 6.37554e-19)
(0.0272325 0.0479979 1.07811e-20)
(0.0616376 0.0466734 -3.45028e-19)
(0.104675 0.0444769 -2.97597e-19)
(0.156739 0.04162 -5.24922e-19)
(0.218125 0.0383048 -6.55155e-21)
(0.288938 0.0347201 -7.32748e-20)
(-0.00952858 0.00902663 1.94967e-19)
(-0.0227798 0.022033 -3.58435e-19)
(-0.0301412 0.0312384 4.55921e-19)
(-0.0310377 0.0374185 6.33127e-19)
(-0.0249957 0.0411814 -2.03507e-19)
(-0.0115695 0.0430161 2.59852e-20)
(0.00968925 0.0433193 -5.37719e-19)
(0.0392396 0.0424196 -1.32079e-19)
(0.0775422 0.0405997 -4.05248e-19)
(0.125031 0.0381132 5.21596e-19)
(0.182062 0.0351934 4.77384e-19)
(0.248835 0.0320554 -8.42177e-20)
(0.325284 0.0288913 -6.26684e-20)
(-0.00977312 0.00892132 5.14196e-20)
(-0.0227966 0.0213697 7.26957e-20)
(-0.0292859 0.0298375 -2.38493e-19)
(-0.0287326 0.0351783 -6.5202e-19)
(-0.020687 0.0380794 1.04514e-19)
(-0.00470891 0.0390966 3.12075e-19)
(0.0196576 0.0386816 1.40591e-19)
(0.0528817 0.0372089 5.95359e-19)
(0.0954238 0.0349988 -3.6926e-19)
(0.147691 0.0323338 -4.73645e-19)
(0.209965 0.0294669 -8.54572e-20)
(0.282306 0.0266222 2.10843e-19)
(0.364428 0.0239888 4.58005e-20)
(0.455559 0.0217069 1.92508e-20)
(-0.00997942 0.00878541 -2.53666e-19)
(-0.0226603 0.0206536 1.68761e-20)
(-0.0281128 0.0284033 -4.67333e-20)
(-0.0259025 0.0329502 5.65383e-19)
(-0.0156068 0.035055 1.76551e-19)
(0.00320532 0.0353356 -5.72191e-20)
(0.0309897 0.0342959 2.15934e-19)
(0.0682135 0.0323542 1.88842e-19)
(0.115317 0.0298666 4.50198e-19)
(0.172653 0.0271421 5.42105e-20)
(0.240391 0.0244503 -5.30494e-19)
(0.318403 0.0220193 2.99694e-20)
(0.406127 0.020027 -4.24013e-19)
(0.502427 0.0185837 -3.60294e-20)
(0.605509 0.0177375 -2.03185e-19)
(-0.0101356 0.00861144 4.15242e-19)
(-0.0223421 0.0198678 2.98729e-19)
(-0.0265806 0.0269132 2.34942e-19)
(-0.0224974 0.0307093 -3.22641e-19)
(-0.00969916 0.0320833 2.17092e-19)
(0.0122306 0.0317111 -2.05292e-19)
(0.0437385 0.0301448 -3.21119e-19)
(0.0852746 0.0278442 -4.45722e-19)
(0.137237 0.0251983 -1.9409e-19)
(0.199889 0.0225401 3.77848e-19)
(0.273246 0.020151 3.31838e-19)
(0.356944 0.0182568 4.82017e-19)
(0.450091 0.0170146 4.26876e-19)
(0.551141 0.0164933 -1.29357e-19)
(0.657845 0.0166766 -1.77893e-19)
(-0.01023 0.00839359 -2.5363e-19)
(-0.0218134 0.0189982 -6.82523e-19)
(-0.0246493 0.0253478 -2.78115e-19)
(-0.018469 0.0284335 2.96504e-19)
(-0.00291177 0.0291428 8.54009e-20)
(0.0224184 0.0282037 1.40449e-19)
(0.0579476 0.0262134 3.68731e-19)
(0.104091 0.0236696 -3.67615e-19)
(0.161176 0.0209913 5.05026e-19)
(0.229342 0.0185309 -5.17662e-20)
(0.308405 0.0165764 -7.36884e-19)
(0.39771 0.0153428 -1.38024e-19)
(0.49599 0.0149562 -4.75006e-19)
(0.601255 0.0154315 -3.27428e-19)
(0.710791 0.0166753 3.52756e-19)
(0.821206 0.0183765 2.88842e-19)
(-0.0102515 0.00812746 3.37599e-19)
(-0.0210459 0.0180337 5.32563e-19)
(-0.0222793 0.0236915 -2.91209e-20)
(-0.0137709 0.0261056 -2.45555e-19)
(0.0048044 0.0262162 -2.71613e-19)
(0.0338144 0.0247991 5.84084e-20)
(0.0736512 0.0224916 -4.37113e-19)
(0.124673 0.0198258 4.14333e-19)
(0.187109 0.0172466 -1.61612e-19)
(0.260931 0.0151208 -3.53104e-19)
(0.345709 0.0137353 4.40494e-19)
(0.440451 0.0132849 -1.08587e-19)
(0.543467 0.0138527 -1.97094e-19)
(0.652304 0.0153868 3.63288e-19)
(0.763801 0.0177065 -5.56068e-19)
(0.874228 0.0204075 2.90882e-21)
(0.979873 0.0233281 2.25879e-20)
(-0.0101891 0.00780997 -3.76301e-19)
(-0.0200127 0.0169667 -1.48868e-19)
(-0.0194326 0.0219336 2.67739e-19)
(-0.00835865 0.0237135 2.2211e-19)
(0.0134948 0.0232926 2.52291e-19)
(0.0464587 0.0214888 -1.45357e-19)
(0.0908752 0.0189753 -1.26389e-19)
(0.147022 0.0163141 -5.40866e-20)
(0.214993 0.0139709 -5.76491e-19)
(0.294554 0.0123202 1.07239e-18)
(0.384978 0.0116391 1.13546e-20)
(0.484888 0.0120904 1.3649e-19)
(0.592142 0.0137009 1.31783e-19)
(0.703819 0.01634 2.70427e-19)
(0.816347 0.0197314 4.70653e-19)
(0.925747 0.0233804 2.69281e-19)
(1.02824 0.0270067 2.89336e-19)
(-0.0100327 0.00743957 9.47305e-20)
(-0.0186874 0.015793 -7.96631e-20)
(-0.0160728 0.0200682 2.00812e-19)
(-0.00219031 0.0212509 -3.0373e-19)
(0.0232015 0.0203673 -3.74036e-20)
(0.060386 0.0182717 1.39563e-19)
(0.109637 0.015668 1.67584e-19)
(0.171123 0.0131432 -1.45566e-19)
(0.244769 0.0111776 4.20391e-19)
(0.330087 0.010145 -4.36943e-19)
(0.426006 0.0103019 2.04097e-19)
(0.530721 0.0117657 -3.89592e-19)
(0.641621 0.0144935 3.97591e-19)
(0.75533 0.0182638 3.37586e-19)
(0.867931 0.0227 -6.22842e-19)
(0.975298 0.0272238 -5.7334e-19)
(1.07373 0.0314571 -2.09798e-19)
(1.15982 0.0339602 -1.81667e-19)
(-0.0097724 0.00701617 5.97302e-19)
(-0.0170452 0.0145122 -3.44411e-19)
(-0.0121649 0.0180944 -4.88685e-19)
(0.00477396 0.0187182 -2.04463e-19)
(0.033963 0.0174431 -3.16984e-19)
(0.0756253 0.0151545 -3.71334e-20)
(0.129945 0.0125814 5.5999e-19)
(0.196953 0.0103299 2.84528e-19)
(0.276362 0.00888702 4.48431e-19)
(0.367386 0.00861612 1.24389e-19)
(0.468564 0.00973978 3.46247e-19)
(0.577633 0.012316 -3.99642e-19)
(0.691504 0.0162171 1.67657e-19)
(0.806384 0.021122 -2.7471e-19)
(0.918095 0.0265523 3.09678e-19)
(1.02249 0.0318565 6.82103e-19)
(1.11607 0.036584 -5.78907e-20)
(1.19597 0.0394286 4.36225e-19)
(1.26184 0.0423144 -1.5654e-19)
(-0.00939921 0.00654098 -3.10718e-19)
(-0.0150622 0.0131271 2.93928e-21)
(-0.00767578 0.0160167 2.46679e-19)
(0.0125715 0.0161224 4.94163e-20)
(0.0458141 0.0145307 6.07372e-19)
(0.0922002 0.0121525 -7.9005e-20)
(0.151801 0.00973611 -4.78627e-19)
(0.224475 0.00789913 -3.56798e-19)
(0.309681 0.00712647 -5.16829e-19)
(0.406289 0.00775864 -5.11607e-19)
(0.512408 0.00996992 -6.10178e-19)
(0.625293 0.0137428 6.66459e-19)
(0.741389 0.018852 2.96717e-19)
(0.856549 0.0248695 -4.13743e-20)
(0.966433 0.0312193 -8.43252e-20)
(1.067 0.037191 1.01277e-19)
(1.15509 0.0422888 2.93722e-19)
(1.22845 0.0453454 1.74541e-19)
(1.28714 0.048026 1.42706e-19)
(1.32846 0.0435893 4.52331e-20)
(-0.00890455 0.00601641 -1.09103e-19)
(-0.0127161 0.0116438 6.33255e-20)
(-0.00257395 0.0138446 9.11224e-20)
(0.0212371 0.0134768 2.37894e-19)
(0.0587857 0.0116483 -1.82833e-19)
(0.110128 0.00928944 4.6664e-20)
(0.175197 0.00716089 4.92572e-19)
(0.253639 0.00588353 5.44875e-20)
(0.34462 0.00592888 -2.50096e-21)
(0.446617 0.00760063 7.01574e-20)
(0.557275 0.0110084 3.61548e-19)
(0.673361 0.0160433 -5.10671e-19)
(0.790887 0.0223707 -5.58222e-19)
(0.905425 0.0294529 -3.06162e-19)
(1.0126 0.0366253 -3.7743e-19)
(1.10859 0.0431365 -4.54463e-19)
(1.1907 0.048474 -6.32445e-20)
(1.25733 0.0516127 -2.94574e-19)
(1.30902 0.0540272 6.55057e-19)
(1.34438 0.0498651 -3.37266e-19)
(-0.00828034 0.00544591 5.60001e-19)
(-0.00998544 0.0100717 -1.37205e-19)
(0.00317014 0.0115925 -1.97041e-19)
(0.0308027 0.0108014 1.00179e-19)
(0.0729045 0.00882176 4.90362e-20)
(0.129421 0.00659702 -1.41781e-19)
(0.200113 0.00489247 -4.14018e-20)
(0.284384 0.00432228 -8.44137e-20)
(0.381053 0.00533154 2.51518e-19)
(0.48817 0.0081711 6.18191e-19)
(0.60289 0.0128686 1.98238e-19)
(0.721497 0.0192083 5.93996e-19)
(0.839621 0.0267375 2.45556e-19)
(0.952653 0.0348114 3.43129e-19)
(1.0563 0.04269 3.96068e-19)
(1.14709 0.0496028 -3.96552e-20)
(1.22288 0.0550474 -1.04165e-19)
(1.28274 0.0581444 6.00573e-22)
(1.3277 0.0602338 7.33226e-20)
(1.35744 0.0562295 1.77498e-19)
(-0.00751893 0.00483379 -2.52318e-19)
(-0.00685006 0.00842248 3.74509e-20)
(0.0095841 0.00927926 -2.74186e-19)
(0.0412971 0.00812201 -3.83254e-19)
(0.0881921 0.00608382 -1.6314e-19)
(0.15008 0.00411422 -1.7408e-20)
(0.226522 0.00297428 2.18706e-19)
(0.31663 0.00325971 -1.76901e-19)
(0.418841 0.00537417 3.58704e-20)
(0.530735 0.00949803 -3.9452e-20)
(0.648966 0.0155591 -5.16556e-19)
(0.76936 0.0232213 -8.08435e-19)
(0.887238 0.0319092 -1.22782e-19)
(0.997919 0.0408781 -2.7101e-19)
(1.09731 0.0493314 -2.5961e-19)
(1.18242 0.0565025 -4.67415e-20)
(1.25169 0.0619249 -1.70699e-19)
(1.30486 0.0648667 -1.06544e-19)
(1.34346 0.066578 -3.20741e-19)
(1.36797 0.062628 -5.71598e-21)
(-0.00661293 0.00418518 -2.46258e-19)
(-0.00329096 0.00671065 5.27755e-19)
(0.0166934 0.00692797 3.26065e-19)
(0.0527456 0.00546998 1.44359e-19)
(0.104664 0.0034734 -5.15953e-20)
(0.172102 0.00188627 -3.35073e-19)
(0.254383 0.00145506 -2.19958e-19)
(0.350287 0.00274349 -1.07686e-19)
(0.457825 0.00609685 -1.58459e-19)
(0.574083 0.0116062 -5.66952e-19)
(0.69521 0.0190822 4.20643e-19)
(0.816622 0.0280577 2.74915e-19)
(0.933416 0.0378351 4.41041e-19)
(1.04096 0.0475823 1.27757e-19)
(1.13549 0.0564679 7.11685e-20)
(1.21454 0.063754 2.63221e-20)
(1.27722 0.0690322 -2.81172e-20)
(1.3239 0.0717188 -9.61491e-20)
(1.35655 0.0730077 -1.06716e-19)
(1.37627 0.0690254 -3.23281e-19)
(-0.00555526 0.00350579 4.38216e-20)
(0.000709739 0.0049527 -7.97861e-20)
(0.0245212 0.00456515 5.80939e-20)
(0.0651693 0.00288124 -1.38668e-19)
(0.122331 0.00103469 2.9098e-19)
(0.195472 -3.6622e-05 5.21936e-19)
(0.283641 0.000387289 1.60053e-19)
(0.385245 0.0028227 4.43037e-19)
(0.497832 0.00753789 -2.33681e-19)
(0.617972 0.0145152 6.11756e-19)
(0.74133 0.0234327 1.12498e-19)
(0.862969 0.0336851 2.68579e-19)
(0.977869 0.0444584 -4.84265e-19)
(1.08157 0.0548508 -1.7306e-19)
(1.17072 0.0640211 1.77741e-19)
(1.2435 0.0712831 3.45352e-19)
(1.29964 0.0763055 2.35829e-19)
(1.34011 0.0786523 -1.04069e-19)
(1.36727 0.0794839 4.31254e-19)
(1.38265 0.0754007 1.43189e-19)
(-0.004339 0.00280195 -1.47655e-19)
(0.00516869 0.00316704 -3.34569e-19)
(0.0330879 0.00222054 -2.5082e-19)
(0.0785848 0.000395745 7.75114e-20)
(0.141194 -0.00118389 -4.15027e-19)
(0.220163 -0.00160063 -5.12188e-19)
(0.314227 -0.000174547 -6.81052e-20)
(0.421381 0.00354583 -1.56602e-19)
(0.538672 0.00973192 5.53685e-19)
(0.662152 0.0182383 -1.45266e-19)
(0.787035 0.0285973 -4.26108e-19)
(0.90811 0.0400636 -6.94181e-19)
(1.02035 0.051718 3.73995e-19)
(1.11958 0.0626109 3.48157e-19)
(1.20299 0.071917 -9.29089e-20)
(1.26937 0.0790239 -1.81913e-19)
(1.31912 0.0836921 7.3991e-20)
(1.35374 0.0856301 -1.03236e-19)
(1.37587 0.0859799 -2.0127e-20)
(1.38737 0.0817443 2.60101e-19)
(-0.00295746 0.00208043 -1.13907e-19)
(0.0101012 0.0013737 -8.6459e-20)
(0.042411 -7.35392e-05 3.85995e-19)
(0.0930033 -0.00194332 -2.36563e-19)
(0.161247 -0.00313079 6.05293e-19)
(0.246138 -0.00274973 2.52813e-19)
(0.346061 -0.0001757 -1.64745e-19)
(0.458552 0.00495893 -2.79504e-19)
(0.580143 0.0127081 -4.41812e-19)
(0.706369 0.022781 1.86491e-19)
(0.832045 0.0345544 3.85067e-20)
(0.951781 0.0471467 2.31247e-19)
(1.06066 0.0595499 4.53886e-19)
(1.15491 0.0707918 -2.58125e-19)
(1.23229 0.0800883 9.29066e-20)
(1.29229 0.08692 -3.31004e-19)
(1.33587 0.0911499 -1.02434e-19)
(1.36503 0.0926256 -8.26227e-20)
(1.38262 0.0924781 -4.82305e-20)
(1.39068 0.0880537 -3.57673e-19)
(-0.00140416 0.00134849 2.23948e-19)
(0.0155212 -0.000405857 3.54844e-19)
(0.0525045 -0.00228255 1.42022e-20)
(0.10843 -0.0040903 2.17024e-19)
(0.182475 -0.00475238 -5.19675e-19)
(0.273349 -0.0034271 1.24511e-19)
(0.379043 0.000437217 -8.06236e-20)
(0.496605 0.00710395 -1.57141e-20)
(0.622032 0.016489 -1.50661e-19)
(0.750369 0.0281404 -3.28e-19)
(0.876096 0.0412747 -7.9543e-20)
(0.993751 0.054883 2.10869e-19)
(1.09865 0.0678896 -6.23846e-19)
(1.18749 0.0793261 1.60897e-19)
(1.25869 0.0884747 -4.78341e-20)
(1.31239 0.0949242 2.80155e-19)
(1.35012 0.0986463 5.27503e-19)
(1.37424 0.0996205 1.66627e-21)
(1.38775 0.0989689 -8.95391e-20)
(1.3928 0.0943323 -1.18126e-19)
(0.000327081 0.000613807 -4.02807e-20)
(0.0214409 -0.00214891 -5.35398e-19)
(0.0633789 -0.00437024 -4.08694e-19)
(0.124864 -0.00599781 -2.58451e-20)
(0.204852 -0.005994 9.10067e-20)
(0.301733 -0.00357647 -1.74472e-19)
(0.413062 0.00171475 -9.64803e-22)
(0.535371 0.0100174 5.70849e-20)
(0.664119 0.0210895 8.34383e-20)
(0.7939 0.0343053 4.66698e-19)
(0.918944 0.048722 1.91492e-19)
(1.03382 0.0632173 -4.96327e-20)
(1.13419 0.0766731 5.63541e-20)
(1.21732 0.0881519 -7.34041e-20)
(1.28229 0.0970238 3.32811e-19)
(1.32988 0.102998 -1.39998e-19)
(1.36209 0.106157 -2.34728e-19)
(1.3816 0.106604 -1.91129e-20)
(1.39149 0.105448 1.45961e-19)
(1.39392 0.100586 1.21015e-20)
(0.0022421 -0.00011551 7.15163e-20)
(0.0278703 -0.00383164 2.83882e-19)
(0.0750402 -0.00629895 1.75866e-19)
(0.142296 -0.00761737 -3.19413e-19)
(0.228345 -0.00680095 6.80037e-20)
(0.331214 -0.0031433 4.10659e-19)
(0.447991 0.0037033 2.22682e-19)
(0.57467 0.0137291 2.93131e-20)
(0.706183 0.0265161 2.67104e-19)
(0.836724 0.0412567 -5.3841e-19)
(0.960367 0.0568541 -1.49835e-19)
(1.07184 0.0720927 -6.3363e-20)
(1.16723 0.0858388 3.70214e-19)
(1.24443 0.0972127 -1.12295e-19)
(1.30321 0.105691 -3.11982e-20)
(1.34492 0.111112 -1.98246e-19)
(1.372 0.113667 -1.6368e-19)
(1.38734 0.113571 -5.55708e-20)
(1.39403 0.111917 -6.03152e-20)
(1.3942 0.106824 -1.67142e-19)
(0.00434624 -0.000830929 -6.66952e-20)
(0.0348175 -0.00542928 -4.02112e-20)
(0.0874898 -0.00803006 -1.02929e-19)
(0.160711 -0.00890008 3.35281e-19)
(0.252906 -0.00711936 2.22594e-19)
(0.361706 -0.00207586 -7.05637e-20)
(0.483694 0.00644408 -1.23903e-20)
(0.614315 0.0182617 2.72837e-19)
(0.748 0.0327674 -4.11494e-19)
(0.878613 0.0489682 2.4913e-19)
(1.00017 0.0656247 2.52532e-19)
(1.10767 0.0814518 6.65337e-20)
(1.19772 0.0953289 -1.31735e-19)
(1.26889 0.106459 1.89108e-19)
(1.32159 0.114441 -4.90776e-19)
(1.35772 0.119244 6.29005e-20)
(1.38006 0.121166 -1.1613e-19)
(1.39165 0.12052 2.91345e-19)
(1.39554 0.118379 5.31245e-19)
(1.39378 0.113055 6.85979e-20)
(0.00664426 -0.00152349 -1.03568e-19)
(0.042288 -0.00691616 4.44568e-20)
(0.100724 -0.00952424 2.90166e-19)
(0.180085 -0.00979716 4.74067e-21)
(0.278481 -0.006897 -4.81883e-19)
(0.393107 -0.000326184 -3.27993e-19)
(0.520021 0.00997231 -2.77874e-19)
(0.654114 0.0236301 -1.44669e-19)
(0.789354 0.0398339 5.44665e-19)
(0.919358 0.0574068 -2.4068e-20)
(1.0382 0.074984 7.19232e-20)
(1.14124 0.091238 1.16301e-19)
(1.22569 0.10509 -3.848e-19)
(1.29079 0.115847 -3.04239e-19)
(1.3376 0.123243 8.06842e-20)
(1.36848 0.127378 3.69986e-19)
(1.38647 0.128649 -2.95587e-20)
(1.39472 0.127455 2.87219e-19)
(1.39617 0.124838 -4.00663e-19)
(1.39277 0.119288 -4.91386e-20)
(0.00914017 -0.0021838 1.31787e-19)
(0.0502844 -0.00826593 1.63449e-19)
(0.114734 -0.0107418 -2.99921e-19)
(0.200385 -0.0102605 -1.61984e-20)
(0.305002 -0.006084 5.65959e-19)
(0.425308 0.00214921 3.51163e-19)
(0.556814 0.0143166 -1.39854e-19)
(0.693871 0.0298414 2.04097e-19)
(0.830036 0.0476985 -2.15929e-19)
(0.958771 0.0665346 -2.1592e-19)
(1.07432 0.084881 2.17791e-19)
(1.17249 0.101397 -4.35672e-19)
(1.25116 0.115073 5.44405e-20)
(1.31025 0.125341 2.05305e-19)
(1.3514 0.132074 -1.10822e-19)
(1.37739 0.135504 1.5696e-19)
(1.39144 0.136114 -1.87668e-19)
(1.39672 0.134379 -4.31482e-19)
(1.39607 0.131302 5.57704e-20)
(1.39126 0.12553 1.45969e-19)
(0.0118371 -0.00280206 1.54419e-19)
(0.0588065 -0.00945158 -4.97368e-19)
(0.129506 -0.011643 7.90493e-20)
(0.221573 -0.0102432 -8.18492e-20)
(0.332392 -0.00463349 -1.99494e-19)
(0.458188 0.00538866 -1.5823e-19)
(0.59391 0.0194985 1.40891e-19)
(0.733393 0.0368949 -6.39721e-19)
(0.86985 0.0563375 -1.48161e-19)
(0.996686 0.0763094 9.48018e-20)
(1.10842 0.0952639 -1.1892e-19)
(1.20141 0.111878 3.3706e-19)
(1.2742 0.125236 2.33979e-19)
(1.3274 0.134911 8.03851e-20)
(1.36317 0.140919 4.40034e-19)
(1.38462 0.143616 -4.29875e-19)
(1.39512 0.143565 2.61933e-19)
(1.3978 0.141298 3.66345e-19)
(1.39532 0.137776 -3.34278e-20)
(1.38935 0.13179 -2.33413e-19)
(0.0147373 -0.00336805 1.22645e-20)
(0.0678503 -0.0104456 -5.38759e-21)
(0.145018 -0.0121884 3.60036e-19)
(0.2436 -0.00969984 -5.13124e-20)
(0.360565 -0.00250216 -2.21917e-20)
(0.491617 0.00942487 3.75975e-19)
(0.631142 0.0255327 4.28288e-19)
(0.772491 0.0447826 1.16518e-19)
(0.908613 0.0657212 2.4758e-19)
(1.03296 0.0866862 -1.60872e-19)
(1.14043 0.106082 -1.35159e-19)
(1.22799 0.122632 -2.86732e-21)
(1.29489 0.135541 -1.62032e-19)
(1.34237 0.144531 -5.93136e-21)
(1.37307 0.149766 -3.0946e-19)
(1.39036 0.151713 1.20872e-19)
(1.39767 0.151004 2.80244e-19)
(1.39807 0.148219 -1.39778e-19)
(1.39404 0.144266 1.59274e-19)
(1.38708 0.138073 2.83673e-19)
(0.0178417 -0.00387118 4.73615e-20)
(0.0774089 -0.0112202 -1.27645e-19)
(0.161245 -0.0123389 -7.42258e-21)
(0.266409 -0.00858734 3.63363e-21)
(0.389428 0.000349274 -2.49533e-19)
(0.52546 0.0142845 -3.51546e-20)
(0.668338 0.0324263 -4.41708e-19)
(0.810982 0.0534896 4.54806e-19)
(0.946161 0.0758152 2.32215e-19)
(1.06749 0.0976183 2.0591e-20)
(1.17031 0.117285 -2.16708e-21)
(1.25228 0.133616 -1.17706e-19)
(1.31333 0.145956 6.86787e-20)
(1.35531 0.154184 1.86097e-19)
(1.38127 0.158606 -3.20145e-19)
(1.39476 0.159795 2.41453e-19)
(1.39924 0.158437 -2.88389e-19)
(1.39765 0.155148 -1.2863e-20)
(1.39229 0.150778 1.19834e-21)
(1.38451 0.144383 1.27821e-19)
(0.0211505 -0.00430063 -1.03762e-19)
(0.0874712 -0.0117474 -1.15263e-19)
(0.178153 -0.0120566 1.6376e-19)
(0.289936 -0.00686501 -7.22219e-20)
(0.418876 0.00395529 -2.25178e-20)
(0.559575 0.0199881 -2.18823e-19)
(0.705333 0.0401799 2.4269e-19)
(0.848695 0.0629948 -4.31469e-19)
(0.982348 0.0865809 3.90197e-20)
(1.10016 0.109058 6.53164e-20)
(1.19804 0.128826 -3.53155e-20)
(1.27432 0.144792 2.50071e-20)
(1.32963 0.156454 -2.87498e-19)
(1.36636 0.163855 -2.1737e-19)
(1.38792 0.167437 1.80759e-19)
(1.39797 0.167865 -5.76746e-20)
(1.39994 0.16587 -3.42964e-19)
(1.39663 0.16209 -6.49215e-20)
(1.39015 0.157317 -2.82109e-19)
(1.38168 0.150725 -3.46161e-19)
(0.024662 -0.00464543 -2.45603e-20)
(0.0980224 -0.0119999 1.70398e-19)
(0.195704 -0.0113049 1.22589e-19)
(0.31411 -0.00449527 3.56549e-19)
(0.4488 0.00834591 -1.24685e-20)
(0.59382 0.0265496 1.87246e-19)
(0.74196 0.0487868 -3.93376e-19)
(0.885468 0.0732713 1.37204e-19)
(1.01705 0.0979768 -1.14225e-19)
(1.13092 0.120958 1.63554e-19)
(1.22361 0.140661 4.00816e-20)
(1.29418 0.156124 9.36251e-20)
(1.34391 0.167012 2.66932e-19)
(1.37568 0.173533 3.28913e-20)
(1.39317 0.176255 -1.63076e-19)
(1.40012 0.175926 2.67547e-19)
(1.39988 0.173308 9.35867e-20)
(1.39509 0.169052 -4.40456e-20)
(1.38765 0.163885 2.65091e-19)
(1.37862 0.157099 1.74295e-19)
(0.338852 -0.00144428 -5.2312e-20)
(0.479087 0.0135457 6.31444e-20)
(0.628045 0.0339771 -3.6769e-20)
(0.77806 0.0582344 2.22939e-19)
(0.921154 0.084288 -7.00898e-20)
(1.05015 0.109959 -8.54403e-20)
(1.15972 0.133271 -2.89007e-19)
(1.24706 0.152749 -1.82767e-19)
(1.31194 0.167581 -1.67661e-19)
(1.35628 0.177613 -1.35359e-19)
(1.38339 0.183211 5.1448e-20)
(1.39715 0.185063 -9.94711e-20)
(1.40132 0.183983 1.19157e-20)
(1.39914 0.180756 1.86578e-19)
(1.39308 0.176036 1.96693e-19)
(1.38484 0.170484 1.42035e-20)
(1.37534 0.163507 1.22014e-19)
(0.662109 0.0422719 -3.82923e-20)
(0.81348 0.0685045 -1.22308e-19)
(0.955621 0.0960096 2.9129e-19)
(1.08157 0.122484 -7.26735e-20)
(1.18654 0.145953 -2.56253e-21)
(1.26841 0.16505 1.96157e-19)
(1.3277 0.179136 -1.74932e-19)
(1.36688 0.18824 7.61717e-20)
(1.38963 0.192883 -1.90678e-19)
(1.39999 0.19386 3.19315e-19)
(1.40169 0.192039 -2.40352e-19)
(1.39782 0.188219 -1.43996e-19)
(1.39067 0.183046 -1.48202e-21)
(1.38176 0.177117 -2.09141e-19)
(1.37187 0.169947 -2.44399e-21)
(1.11124 0.135506 -5.20667e-20)
(1.21136 0.15896 8.91419e-20)
(1.28773 0.177531 -1.19836e-19)
(1.34154 0.190767 1.51834e-19)
(1.37581 0.198883 1.45056e-19)
(1.39453 0.202547 3.21847e-20)
(1.4018 0.202648 -9.0838e-20)
(1.4013 0.2001 -2.14507e-20)
(1.39596 0.195699 -1.23688e-19)
(1.38789 0.190083 -5.23311e-20)
(1.37842 0.183782 8.56488e-20)
(1.36821 0.176418 -1.46459e-19)
(1.38321 0.209531 -3.75047e-21)
(1.39819 0.2122 1.34325e-19)
(1.40267 0.211431 -3.82188e-20)
(1.40024 0.208167 2.18181e-19)
(1.39363 0.2032 1.14931e-19)
(1.38478 0.197148 -1.909e-20)
(1.37485 0.190479 6.27499e-20)
(1.36438 0.182917 2.38814e-19)
(1.39857 0.216243 -1.41058e-20)
(1.39088 0.210722 -1.72848e-19)
(1.38137 0.20424 1.42601e-20)
(1.37105 0.197204 -1.1375e-19)
(1.36037 0.189441 1.17093e-21)
(1.35619 0.195984 -2.37806e-20)
(1.29018 -0.21219 -1.2e-19)
(1.32357 -0.226873 -4.71283e-20)
(1.31853 -0.223096 4.22046e-21)
(1.31114 -0.218204 2.04533e-20)
(1.30259 -0.212687 -1.03594e-19)
(1.29352 -0.206458 -1.85809e-20)