/*--------------------------------*- C++ -*----------------------------------*\
  =========                 |
  \\      /  F ield         | OpenFOAM: The Open Source CFD Toolbox
   \\    /   O peration     | Website:  https://openfoam.org
    \\  /    A nd           | Version:  7
     \\/     M anipulation  |
\*---------------------------------------------------------------------------*/
FoamFile
{
    version     2.0;
    format      ascii;
    class       surfaceScalarField;
    location    "140";
    object      phi;
}
// * * * * * * * * * * * * * * * * * * * * * * * * * * * * * * * * * * * * * //

dimensions      [0 3 -1 0 0 0 0];

internalField   nonuniform List<scalar> 
14036
(
0.00117854
-0.00558047
0.00555381
0.00119524
-0.00750108
0.00748437
0.00119462
-0.00880589
0.00880651
0.00117795
-0.00957842
0.00959509
0.00115265
-0.00958007
0.00960537
0.00112756
-0.00863552
0.00866061
0.00111045
-0.00655443
0.00657153
0.00110645
-0.00360684
0.00361085
0.00111556
-0.00018522
0.000176108
0.00113046
0.00318894
-0.00320384
0.00114121
0.006035
-0.00604574
0.00114176
0.00833722
-0.00833777
0.00113359
0.00951848
-0.00951031
0.00112053
0.00982584
-0.00981278
0.00110703
0.00844491
-0.00843141
0.0010968
0.00614463
-0.0061344
0.00109243
0.0026041
-0.00259973
0.00109217
-0.00129531
0.00129557
0.00109226
-0.00481296
0.00481287
0.00108953
-0.00826495
0.00826768
0.00108523
-0.00931067
0.00931497
0.00107765
-0.0103095
0.010317
0.00106763
-0.00776918
0.00777921
0.00105635
-0.00536864
0.00537992
0.00104499
-0.0011438
0.00115515
0.00103482
0.00392943
-0.00391926
0.00102845
0.0055551
-0.00554873
0.00102133
0.0104384
-0.0104313
0.00656794
-0.00655872
0.00117627
-0.00560599
0.00119223
-0.00751704
0.0011911
-0.00880476
0.00117417
-0.00956149
0.00114897
-0.00955488
0.00112447
-0.00861101
0.0011084
-0.00653836
0.0011056
-0.00360404
0.00111579
-0.000195411
0.00113149
0.00317324
0.00114284
0.00602364
0.00114387
0.00833619
0.00113596
0.00952639
0.00112276
0.00983904
0.00110873
0.00845894
0.00109779
0.00615557
0.0010927
0.00260918
0.0010919
-0.0012945
0.00109143
-0.00481249
0.00108828
-0.0082618
0.00108371
-0.00930609
0.00107621
-0.010302
0.00106655
-0.00775953
0.00105563
-0.00535772
0.00104483
-0.00113299
0.00103493
0.00393933
0.00102897
0.00556106
0.00102185
0.0104455
0.00657762
0.00117394
-0.00563036
0.00118918
-0.00753228
0.00118757
-0.00880315
0.00117038
-0.0095443
0.0011453
-0.00952979
0.00112139
-0.00858711
0.00110634
-0.00652331
0.00110473
-0.00360244
0.001116
-0.000206673
0.0011325
0.00315674
0.00114448
0.00601166
0.00114598
0.00833469
0.00113834
0.00953403
0.001125
0.00985238
0.00111044
0.00847349
0.00109878
0.00616723
0.00109299
0.00261497
0.00109165
-0.00129315
0.00109064
-0.00481149
0.00108707
-0.00825823
0.00108223
-0.00930125
0.0010748
-0.0102945
0.00106551
-0.00775023
0.00105497
-0.00534717
0.00104473
-0.00112276
0.00103512
0.00394893
0.00102956
0.00556662
0.00102244
0.0104527
0.00658774
0.00117156
-0.00565358
0.00118609
-0.00754681
0.00118402
-0.00880107
0.0011666
-0.00952689
0.00114164
-0.00950483
0.00111833
-0.00856379
0.00110429
-0.00650927
0.00110386
-0.00360201
0.00111618
-0.000218997
0.00113349
0.00313944
0.00114611
0.00599904
0.0011481
0.00833269
0.00114073
0.00954141
0.00112725
0.00986587
0.00111216
0.00848857
0.00109979
0.0061796
0.0010933
0.00262146
0.00109142
-0.00129128
0.00108989
-0.00480996
0.0010859
-0.00825424
0.00108078
-0.00929613
0.00107344
-0.0102872
0.00106452
-0.00774131
0.00105435
-0.005337
0.00104469
-0.00111309
0.00103538
0.00395824
0.00103022
0.00557178
0.00102311
0.0104598
0.00659831
0.00116914
-0.00567564
0.00118297
-0.00756064
0.00118045
-0.00879856
0.00116282
-0.00950926
0.00113799
-0.00948
0.00111527
-0.00854107
0.00110223
-0.00649623
0.00110297
-0.00360275
0.00111635
-0.000232374
0.00113446
0.00312133
0.00114772
0.00598577
0.00115023
0.00833019
0.00114313
0.0095485
0.00112951
0.0098795
0.0011139
0.00850418
0.00110081
0.00619269
0.00109362
0.00262865
0.00109123
-0.00128889
0.00108918
-0.00480791
0.00108477
-0.00824983
0.00107938
-0.00929074
0.00107211
-0.0102799
0.00106356
-0.00773276
0.00105378
-0.00532722
0.0010447
-0.00110402
0.0010357
0.00396725
0.00103095
0.00557653
0.00102384
0.0104669
0.00660932
0.00116667
-0.00569653
0.00117981
-0.00757378
0.00117687
-0.00879563
0.00115905
-0.00949143
0.00113436
-0.00945531
0.00111223
-0.00851894
0.00110017
-0.00648418
0.00110206
-0.00360464
0.00111648
-0.000246795
0.0011354
0.00310241
0.00114933
0.00597184
0.00115235
0.00832716
0.00114554
0.00955532
0.00113178
0.00989326
0.00111564
0.00852032
0.00110184
0.0062065
0.00109395
0.00263653
0.00109106
-0.00128599
0.0010885
-0.00480535
0.00108369
-0.00824502
0.00107802
-0.00928507
0.00107082
-0.0102727
0.00106264
-0.00772459
0.00105326
-0.00531783
0.00104478
-0.00109554
0.00103609
0.00397593
0.00103175
0.00558087
0.00102465
0.010474
0.00662077
0.00116415
-0.00571624
0.00117661
-0.00758624
0.00117328
-0.0087923
0.00115528
-0.00947343
0.00113073
-0.00943076
0.00110918
-0.0084974
0.00109811
-0.0064731
0.00110113
-0.00360766
0.00111659
-0.000262253
0.00113632
0.00308268
0.00115093
0.00595723
0.00115448
0.00832361
0.00114796
0.00956184
0.00113406
0.00990716
0.0011174
0.00853698
0.00110288
0.00622101
0.00109431
0.00264511
0.00109091
-0.0012826
0.00108786
-0.0048023
0.00108265
-0.00823981
0.00107671
-0.00927913
0.00106957
-0.0102656
0.00106177
-0.00771678
0.00105278
-0.00530885
0.00104492
-0.00108767
0.00103655
0.0039843
0.00103263
0.00558479
0.00102552
0.0104811
0.00663265
0.00116159
-0.00573476
0.00117339
-0.00759804
0.00116968
-0.00878859
0.00115151
-0.00945526
0.00112711
-0.00940636
0.00110615
-0.00847643
0.00109603
-0.00646298
0.00110018
-0.00361181
0.00111667
-0.000278741
0.00113722
0.00306213
0.00115251
0.00594194
0.0011566
0.00831952
0.00115038
0.00956807
0.00113635
0.00992118
0.00111916
0.00855416
0.00110393
0.00623624
0.00109467
0.00265437
0.0010908
-0.00127872
0.00108727
-0.00479877
0.00108166
-0.0082342
0.00107543
-0.0092729
0.00106836
-0.0102585
0.00106093
-0.00770936
0.00105236
-0.00530028
0.00104511
-0.00108043
0.00103708
0.00399233
0.00103357
0.00558831
0.00102647
0.0104882
0.00664495
0.00115899
-0.00575207
0.00117013
-0.00760917
0.00116607
-0.00878453
0.00114775
-0.00943694
0.00112351
-0.00938212
0.00110311
-0.00845604
0.00109394
-0.00645382
0.0010992
-0.00361706
0.00111671
-0.00029625
0.00113808
0.00304075
0.00115408
0.00592594
0.00115872
0.00831487
0.0011528
0.00957399
0.00113865
0.00993534
0.00112094
0.00857187
0.001105
0.00625218
0.00109506
0.00266431
0.00109071
-0.00127437
0.00108671
-0.00479478
0.00108071
-0.00822819
0.0010742
-0.0092664
0.00106718
-0.0102515
0.00106013
-0.0077023
0.00105198
-0.00529213
0.00104536
-0.00107381
0.00103767
0.00400001
0.00103458
0.0055914
0.00102749
0.0104953
0.00665768
0.00115636
-0.00576817
0.00116684
-0.00761965
0.00116244
-0.00878013
0.00114399
-0.00941849
0.0011199
-0.00935804
0.00110008
-0.00843621
0.00109184
-0.00644558
0.00109819
-0.0036234
0.00111671
-0.000314774
0.00113891
0.00301855
0.00115562
0.00590924
0.00116084
0.00830965
0.00115524
0.00957959
0.00114096
0.00994961
0.00112274
0.0085901
0.00110609
0.00626883
0.00109547
0.00267493
0.00109065
-0.00126955
0.0010862
-0.00479032
0.00107981
-0.0082218
0.00107301
-0.0092596
0.00106605
-0.0102445
0.00105937
-0.00769563
0.00105164
-0.0052844
0.00104567
-0.00106783
0.00103833
0.00400735
0.00103565
0.00559408
0.00102857
0.0105024
0.00667082
0.00115369
-0.00578303
0.00116353
-0.00762949
0.00115881
-0.00877541
0.00114023
-0.00939991
0.00111631
-0.00933411
0.00109704
-0.00841694
0.00108972
-0.00643826
0.00109714
-0.00363082
0.00111667
-0.000334306
0.00113971
0.00299551
0.00115715
0.0058918
0.00116295
0.00830386
0.00115767
0.00958487
0.00114329
0.00996399
0.00112454
0.00860884
0.00110719
0.00628619
0.00109589
0.00268623
0.00109062
-0.00126428
0.00108573
-0.00478543
0.00107895
-0.00821502
0.00107187
-0.00925252
0.00106495
-0.0102376
0.00105865
-0.00768933
0.00105136
-0.0052771
0.00104603
-0.0010625
0.00103905
0.00401432
0.0010368
0.00559633
0.00102973
0.0105094
0.00668437
0.00115098
-0.00579664
0.00116018
-0.00763869
0.00115516
-0.00877039
0.00113648
-0.00938123
0.00111272
-0.00931036
0.001094
-0.00839822
0.00108758
-0.00643185
0.00109606
-0.0036393
0.0011166
-0.000354839
0.00114048
0.00297163
0.00115865
0.00587363
0.00116505
0.00829746
0.00116011
0.00958981
0.00114562
0.00997848
0.00112637
0.00862809
0.00110831
0.00630424
0.00109634
0.0026982
0.00109062
-0.00125857
0.0010853
-0.0047801
0.00107814
-0.00820787
0.00107077
-0.00924515
0.00106389
-0.0102307
0.00105797
-0.0076834
0.00105111
-0.00527025
0.00104644
-0.00105783
0.00103984
0.00402093
0.00103801
0.00559816
0.00103095
0.0105165
0.00669832
0.00114824
-0.00580899
0.00115681
-0.00764726
0.0011515
-0.00876509
0.00113273
-0.00936246
0.00110914
-0.00928676
0.00109096
-0.00838004
0.00108542
-0.00642631
0.00109495
-0.00364883
0.00111648
-0.000376367
0.0011412
0.0029469
0.00116013
0.0058547
0.00116714
0.00829046
0.00116254
0.0095944
0.00114796
0.00999306
0.0011282
0.00864785
0.00110944
0.006323
0.0010968
0.00271084
0.00109065
-0.00125242
0.00108491
-0.00477436
0.00107739
-0.00820035
0.00106972
-0.00923749
0.00106287
-0.0102239
0.00105732
-0.00767785
0.00105091
-0.00526384
0.00104691
-0.00105383
0.00104068
0.00402716
0.00103928
0.00559956
0.00103224
0.0105235
0.00671267
0.00114548
-0.00582006
0.00115341
-0.00765519
0.00114784
-0.00875952
0.00112898
-0.0093436
0.00110555
-0.00926334
0.0010879
-0.00836239
0.00108324
-0.00642165
0.00109379
-0.00365938
0.00111631
-0.000398883
0.00114188
0.00292132
0.00116158
0.005835
0.00116921
0.00828283
0.00116498
0.00959864
0.0011503
0.0100077
0.00113005
0.0086681
0.00111059
0.00634246
0.00109729
0.00272414
0.00109071
-0.00124584
0.00108456
-0.00476822
0.00107668
-0.00819246
0.00106872
-0.00922953
0.00106189
-0.0102171
0.00105672
-0.00767268
0.00105076
-0.00525788
0.00104743
-0.0010505
0.00104159
0.004033
0.00104062
0.00560054
0.0010336
0.0105305
0.00672741
0.00114268
-0.00582982
0.00114998
-0.00766249
0.00114416
-0.0087537
0.00112524
-0.00932467
0.00110197
-0.00924007
0.00108484
-0.00834526
0.00108103
-0.00641783
0.00109259
-0.00367094
0.00111609
-0.000422381
0.00114252
0.00289489
0.001163
0.00581452
0.00117127
0.00827456
0.00116741
0.0096025
0.00115266
0.0100225
0.00113191
0.00868885
0.00111176
0.00636261
0.00109779
0.00273811
0.0010908
-0.00123884
0.00108426
-0.00476168
0.00107601
-0.00818421
0.00106776
-0.00922127
0.00106095
-0.0102102
0.00105615
-0.00766788
0.00105064
-0.00525237
0.001048
-0.00104786
0.00104256
0.00403844
0.00104202
0.00560108
0.00103503
0.0105375
0.00674253
0.00113986
-0.00583827
0.00114653
-0.00766916
0.00114048
-0.00874765
0.00112149
-0.00930569
0.00109839
-0.00921697
0.00108177
-0.00832864
0.00107878
-0.00641484
0.00109134
-0.0036835
0.00111581
-0.000446854
0.00114312
0.00286758
0.00116439
0.00579324
0.00117332
0.00826564
0.00116984
0.00960598
0.00115502
0.0100373
0.00113379
0.00871008
0.00111295
0.00638345
0.00109832
0.00275274
0.00109092
-0.00123144
0.001084
-0.00475476
0.0010754
-0.00817561
0.00106684
-0.00921271
0.00106005
-0.0102035
0.00105562
-0.00766344
0.00105057
-0.00524733
0.00104862
-0.00104591
0.00104359
0.00404347
0.00104348
0.00560119
0.00103652
0.0105445
0.00675801
0.00113701
-0.00584537
0.00114305
-0.0076752
0.00113678
-0.00874139
0.00111775
-0.00928666
0.00109481
-0.00919403
0.00107868
-0.00831251
0.00107651
-0.00641267
0.00109004
-0.00369703
0.00111549
-0.000472297
0.00114366
0.00283941
0.00116575
0.00577115
0.00117534
0.00825605
0.00117226
0.00960906
0.00115739
0.0100522
0.00113569
0.00873179
0.00111416
0.00640498
0.00109887
0.00276802
0.00109107
-0.00122363
0.00108379
-0.00474749
0.00107484
-0.00816667
0.00106598
-0.00920385
0.00105918
-0.0101967
0.00105512
-0.00765938
0.00105054
-0.00524276
0.00104929
-0.00104465
0.00104467
0.0040481
0.001045
0.00560086
0.00103808
0.0105514
0.00677386
0.00113413
-0.00585112
0.00113954
-0.0076806
0.00113307
-0.00873492
0.00111401
-0.00926759
0.00109123
-0.00917125
0.00107558
-0.00829686
0.0010742
-0.00641129
0.0010887
-0.00371153
0.0011151
-0.000498703
0.00114415
0.00281036
0.00116706
0.00574824
0.00117734
0.00824577
0.00117467
0.00961173
0.00115977
0.0100671
0.00113759
0.00875396
0.00111538
0.00642719
0.00109944
0.00278396
0.00109124
-0.00121543
0.00108361
-0.00473986
0.00107433
-0.00815738
0.00106516
-0.00919468
0.00105836
-0.0101899
0.00105466
-0.00765568
0.00105056
-0.00523865
0.00105001
-0.00104411
0.00104581
0.00405229
0.00104658
0.0056001
0.00103971
0.0105583
0.00679007
0.00113124
-0.00585548
0.001136
-0.00768537
0.00112935
-0.00872827
0.00111027
-0.00924851
0.00108764
-0.00914863
0.00107246
-0.00828168
0.00107185
-0.00641068
0.00108729
-0.00372697
0.00111466
-0.000526065
0.00114459
0.00278042
0.00116834
0.00572449
0.00117932
0.0082348
0.00117708
0.00961397
0.00116215
0.010082
0.00113952
0.00877659
0.00111663
0.00645008
0.00110003
0.00280056
0.00109145
-0.00120685
0.00108349
-0.00473189
0.00107387
-0.00814777
0.00106439
-0.0091852
0.00105757
-0.010183
0.00105424
-0.00765234
0.00105061
-0.00523502
0.00105078
-0.00104428
0.00104701
0.00405606
0.00104822
0.00559889
0.0010414
0.0105651
0.00680661
0.00112832
-0.00585844
0.00113244
-0.00768949
0.00112562
-0.00872144
0.00110652
-0.00922941
0.00108405
-0.00912615
0.00106932
-0.00826695
0.00106947
-0.00641083
0.00108583
-0.00374334
0.00111415
-0.000554377
0.00114497
0.0027496
0.00116957
0.00569989
0.00118127
0.0082231
0.00117947
0.00961577
0.00116453
0.0100969
0.00114146
0.00879967
0.0011179
0.00647364
0.00110065
0.0028178
0.00109169
-0.00119789
0.0010834
-0.0047236
0.00107346
-0.00813783
0.00106367
-0.0091754
0.00105682
-0.0101762
0.00105385
-0.00764937
0.0010507
-0.00523187
0.00105159
-0.00104517
0.00104827
0.00405938
0.00104992
0.00559724
0.00104315
0.0105719
0.00682349
0.00112538
-0.00585998
0.00112886
-0.00769296
0.00112187
-0.00871446
0.00110278
-0.00921032
0.00108045
-0.00910383
0.00106616
-0.00825266
0.00106704
-0.00641171
0.00108432
-0.00376061
0.00111357
-0.000583633
0.00114529
0.00271787
0.00117076
0.00567442
0.00118319
0.00821067
0.00118185
0.00961711
0.00116692
0.0101119
0.00114341
0.00882318
0.00111918
0.00649787
0.00110129
0.0028357
0.00109196
-0.00118856
0.00108336
-0.004715
0.0010731
-0.00812758
0.00106299
-0.00916529
0.00105611
-0.0101693
0.00105349
-0.00764675
0.00105083
-0.0052292
0.00105244
-0.00104679
0.00104958
0.00406225
0.00105167
0.00559514
0.00104497
0.0105786
0.00684069
0.00112243
-0.00586007
0.00112524
-0.00769577
0.00111811
-0.00870732
0.00109903
-0.00919123
0.00107684
-0.00908165
0.00106297
-0.00823879
0.00106457
-0.00641331
0.00108274
-0.00377878
0.00111293
-0.000613824
0.00114555
0.00268525
0.0011719
0.00564808
0.00118508
0.00819749
0.00118422
0.00961796
0.00116931
0.0101268
0.00114538
0.00884711
0.00112049
0.00652276
0.00110195
0.00285424
0.00109225
-0.00117886
0.00108335
-0.0047061
0.00107279
-0.00811702
0.00106237
-0.00915487
0.00105544
-0.0101624
0.00105317
-0.00764448
0.00105099
-0.00522702
0.00105334
-0.00104914
0.00105094
0.00406465
0.00105349
0.00559259
0.00104685
0.0105852
0.0068582
0.00111946
-0.00585868
0.0011216
-0.00769792
0.00111433
-0.00870005
0.00109527
-0.00917218
0.00107323
-0.0090596
0.00105976
-0.00822532
0.00106206
-0.0064156
0.00108109
-0.00379782
0.00111221
-0.000644944
0.00114575
0.00265171
0.00117299
0.00562084
0.00118694
0.00818355
0.00118657
0.00961833
0.0011717
0.0101416
0.00114736
0.00887145
0.00112182
0.00654831
0.00110264
0.00287342
0.00109258
-0.0011688
0.00108339
-0.00469692
0.00107254
-0.00810616
0.00106179
-0.00914412
0.00105481
-0.0101554
0.00105289
-0.00764256
0.00105119
-0.00522532
0.00105428
-0.00105223
0.00105235
0.00406659
0.00105535
0.00558959
0.00104879
0.0105918
0.00687601
0.00111647
-0.00585581
0.00111793
-0.00769939
0.00111054
-0.00869265
0.00109152
-0.00915316
0.00106961
-0.00903769
0.00105653
-0.00821224
0.00105949
-0.00641857
0.00107939
-0.00381771
0.00111143
-0.000676985
0.00114587
0.00261727
0.00117402
0.00559269
0.00118875
0.00816882
0.0011889
0.00961818
0.00117409
0.0101564
0.00114936
0.00889618
0.00112317
0.0065745
0.00110334
0.00289325
0.00109293
-0.00115839
0.00108348
-0.00468747
0.00107233
-0.00809501
0.00106126
-0.00913305
0.00105421
-0.0101484
0.00105264
-0.00764098
0.00105143
-0.00522412
0.00105527
-0.00105606
0.00105381
0.00406804
0.00105727
0.00558613
0.0010508
0.0105982
0.00689411
0.00111346
-0.00585143
0.00111424
-0.00770017
0.00110672
-0.00868514
0.00108775
-0.00913419
0.00106597
-0.00901591
0.00105326
-0.00819954
0.00105688
-0.00642218
0.00107761
-0.00383844
0.00111056
-0.00070994
0.00114593
0.0025819
0.001175
0.00556362
0.00119053
0.00815328
0.00119121
0.0096175
0.00117648
0.0101712
0.00115137
0.00892129
0.00112454
0.00660133
0.00110408
0.00291372
0.00109331
-0.00114762
0.0010836
-0.00467776
0.00107218
-0.00808359
0.00106078
-0.00912165
0.00105365
-0.0101412
0.00105241
-0.00763974
0.0010517
-0.00522341
0.00105629
-0.00106065
0.00105533
0.004069
0.00105924
0.00558221
0.00105287
0.0106046
0.00691249
0.00111044
-0.0058455
0.00111051
-0.00770024
0.00110289
-0.00867751
0.00108398
-0.00911528
0.00106232
-0.00899425
0.00104996
-0.00818718
0.00105421
-0.00642643
0.00107576
-0.00385999
0.00110962
-0.0007438
0.00114591
0.00254561
0.00117591
0.00553362
0.00119227
0.00813693
0.0011935
0.00961627
0.00117887
0.0101858
0.0011534
0.00894676
0.00112594
0.00662879
0.00110483
0.00293482
0.00109372
-0.00113652
0.00108377
-0.0046678
0.00107207
-0.00807189
0.00106035
-0.00910993
0.00105313
-0.010134
0.00105223
-0.00763884
0.00105201
-0.00522319
0.00105735
-0.00106598
0.00105689
0.00406946
0.00106127
0.00557783
0.00105499
0.0106109
0.00693112
0.0011074
-0.00583802
0.00110676
-0.0076996
0.00109903
-0.00866978
0.0010802
-0.00909644
0.00105866
-0.00897271
0.00104664
-0.00817515
0.0010515
-0.0064313
0.00107384
-0.00388233
0.0011086
-0.000778556
0.00114582
0.00250839
0.00117677
0.00550267
0.00119396
0.00811974
0.00119576
0.00961446
0.00118125
0.0102003
0.00115544
0.00897257
0.00112735
0.00665688
0.00110561
0.00295657
0.00109416
-0.00112507
0.00108397
-0.00465761
0.00107202
-0.00805994
0.00105997
-0.00909788
0.00105265
-0.0101267
0.00105207
-0.00763826
0.00105235
-0.00522347
0.00105844
-0.00107208
0.00105849
0.00406941
0.00106334
0.00557298
0.00105718
0.010617
0.00695001
0.00110436
-0.00582896
0.00110298
-0.00769822
0.00109516
-0.00866196
0.00107641
-0.0090777
0.00105498
-0.00895129
0.00104327
-0.00816344
0.00104872
-0.00643675
0.00107185
-0.00390546
0.00110749
-0.0008142
0.00114564
0.00247024
0.00117755
0.00547076
0.0011956
0.00810169
0.001198
0.00961206
0.00118363
0.0102147
0.00115749
0.00899871
0.00112879
0.00668558
0.00110642
0.00297894
0.00109463
-0.00111328
0.00108422
-0.00464719
0.00107201
-0.00804774
0.00105963
-0.00908549
0.0010522
-0.0101193
0.00105194
-0.007638
0.00105272
-0.00522425
0.00105957
-0.00107893
0.00106015
0.00406883
0.00106547
0.00556766
0.00105943
0.0106231
0.00696914
0.0011013
-0.0058183
0.00109917
-0.0076961
0.00109125
-0.00865405
0.00107261
-0.00905905
0.00105129
-0.00892997
0.00103987
-0.00815202
0.00104589
-0.00644276
0.00106978
-0.00392935
0.0011063
-0.000850721
0.00114539
0.00243115
0.00117827
0.00543788
0.00119719
0.00808277
0.0012002
0.00960906
0.001186
0.0102289
0.00115955
0.00902516
0.00113025
0.00671488
0.00110724
0.00300195
0.00109512
-0.00110116
0.0010845
-0.00463657
0.00107206
-0.00803529
0.00105935
-0.00907278
0.00105179
-0.0101117
0.00105185
-0.00763805
0.00105312
-0.00522552
0.00106074
-0.00108655
0.00106185
0.00406773
0.00106764
0.00556187
0.00106173
0.010629
0.00698849
0.00109822
-0.00580602
0.00109533
-0.0076932
0.00108733
-0.00864604
0.00106879
-0.00904052
0.00104759
-0.00890876
0.00103644
-0.00814087
0.001043
-0.00644933
0.00106764
-0.00395399
0.00110503
-0.000888111
0.00114505
0.00239112
0.00117892
0.00540401
0.00119873
0.00806296
0.00120237
0.00960541
0.00118836
0.0102429
0.00116163
0.0090519
0.00113173
0.00674477
0.0011081
0.00302559
0.00109564
-0.0010887
0.00108482
-0.00462575
0.00107215
-0.00802263
0.00105911
-0.00905974
0.00105142
-0.010104
0.00105178
-0.00763841
0.00105355
-0.00522729
0.00106194
-0.00109494
0.00106359
0.00406607
0.00106986
0.0055556
0.00106409
0.0106348
0.00700805
0.00109514
-0.00579209
0.00109146
-0.00768952
0.00108337
-0.00863796
0.00106497
-0.00902212
0.00104386
-0.00888766
0.00103296
-0.00812997
0.00104005
-0.00645642
0.00106541
-0.00397935
0.00110366
-0.00092636
0.00114463
0.00235016
0.00117949
0.00536915
0.00120021
0.00804224
0.00120451
0.00960111
0.00119071
0.0102567
0.00116371
0.0090789
0.00113324
0.00677525
0.00110897
0.00304985
0.00109619
-0.00107591
0.00108518
-0.00461475
0.0010723
-0.00800974
0.00105892
-0.00904636
0.00105108
-0.0100962
0.00105174
-0.00763907
0.00105401
-0.00522956
0.00106317
-0.0011041
0.00106538
0.00406387
0.00107213
0.00554885
0.00106651
0.0106404
0.00702781
0.00109205
-0.0057765
0.00108756
-0.00768503
0.00107939
-0.00862978
0.00106112
-0.00900385
0.00104012
-0.00886665
0.00102945
-0.0081193
0.00103703
-0.006464
0.00106311
-0.00400542
0.0011022
-0.000965456
0.00114411
0.00230825
0.00117998
0.00533328
0.00120163
0.00802059
0.00120661
0.00959613
0.00119305
0.0102702
0.00116581
0.00910614
0.00113476
0.0068063
0.00110987
0.00307474
0.00109676
-0.0010628
0.00108558
-0.00460357
0.00107249
-0.00799666
0.00105878
-0.00903266
0.00105078
-0.0100882
0.00105173
-0.00764003
0.0010545
-0.00523233
0.00106443
-0.00111404
0.0010672
0.0040611
0.00107444
0.00554161
0.00106899
0.0106458
0.00704775
0.00108894
-0.00575924
0.00108363
-0.00767971
0.00107537
-0.00862153
0.00105726
-0.00898574
0.00103636
-0.00884575
0.00102589
-0.00810883
0.00103396
-0.00647207
0.00106072
-0.00403219
0.00110066
-0.00100539
0.00114351
0.0022654
0.00118039
0.00529639
0.00120299
0.00799799
0.00120867
0.00959045
0.00119538
0.0102835
0.00116791
0.00913361
0.00113631
0.0068379
0.0011108
0.00310024
0.00109735
-0.00104935
0.00108601
-0.00459222
0.00107273
-0.00798338
0.00105869
-0.00901862
0.00105051
-0.01008
0.00105175
-0.00764126
0.00105501
-0.0052356
0.00106572
-0.00112475
0.00106907
0.00405775
0.0010768
0.00553389
0.00107152
0.0106511
0.00706786
0.00108583
-0.00574027
0.00107967
-0.00767355
0.00107132
-0.00861319
0.00105338
-0.0089678
0.00103258
-0.00882494
0.00102229
-0.00809855
0.00103081
-0.00648059
0.00105825
-0.00405963
0.00109901
-0.00104615
0.00114281
0.00222161
0.00118072
0.00525848
0.00120428
0.00797443
0.00121069
0.00958405
0.00119769
0.0102965
0.00117002
0.00916128
0.00113787
0.00687005
0.00111175
0.00312637
0.00109798
-0.00103557
0.00108647
-0.00458072
0.00107302
-0.00796992
0.00105865
-0.00900425
0.00105028
-0.0100716
0.00105179
-0.00764277
0.00105555
-0.00523936
0.00106704
-0.00113624
0.00107098
0.00405381
0.0010792
0.00552567
0.0010741
0.0106562
0.00708812
0.0010827
-0.00571959
0.00107567
-0.00766652
0.00106724
-0.00860476
0.00104948
-0.00895005
0.00102878
-0.00880424
0.00101865
-0.00808842
0.0010276
-0.00648954
0.0010557
-0.00408773
0.00109728
-0.00108773
0.00114201
0.00217687
0.00118097
0.00521952
0.0012055
0.0079499
0.00121266
0.0095769
0.00119998
0.0103092
0.00117214
0.00918912
0.00113946
0.00690272
0.00111273
0.00315311
0.00109862
-0.00102147
0.00108698
-0.00456907
0.00107335
-0.00795629
0.00105865
-0.00898955
0.00105008
-0.0100631
0.00105186
-0.00764455
0.00105612
-0.00524362
0.00106838
-0.00114851
0.00107292
0.00404928
0.00108164
0.00551694
0.00107674
0.0106611
0.00710851
0.00107957
-0.00569717
0.00107165
-0.00765859
0.00106312
-0.00859623
0.00104556
-0.00893248
0.00102496
-0.00878363
0.00101497
-0.00807844
0.00102432
-0.00649889
0.00105306
-0.00411647
0.00109545
-0.00113011
0.00114112
0.0021312
0.00118112
0.00517952
0.00120666
0.00792436
0.00121458
0.00956897
0.00120225
0.0103216
0.00117426
0.0092171
0.00114107
0.00693591
0.00111372
0.00318045
0.00109929
-0.00100704
0.00108751
-0.00455729
0.00107373
-0.00794251
0.0010587
-0.00897453
0.00104992
-0.0100543
0.00105195
-0.00764658
0.00105671
-0.00524837
0.00106975
-0.00116156
0.0010749
0.00404414
0.00108412
0.00550772
0.00107943
0.0106658
0.00712903
0.00107643
-0.00567301
0.00106759
-0.00764975
0.00105897
-0.00858761
0.00104161
-0.00891513
0.00102112
-0.00876314
0.00101125
-0.00806857
0.00102097
-0.00650861
0.00105034
-0.00414584
0.00109352
-0.00117329
0.00114013
0.00208459
0.00118118
0.00513847
0.00120773
0.00789781
0.00121645
0.00956025
0.00120449
0.0103335
0.00117638
0.00924521
0.0011427
0.00696959
0.00111475
0.0032084
0.00109998
-0.000992272
0.00108808
-0.00454538
0.00107415
-0.00792858
0.0010588
-0.00895918
0.00104979
-0.0100453
0.00105207
-0.00764886
0.00105732
-0.00525362
0.00107115
-0.00117539
0.00107691
0.00403837
0.00108665
0.00549799
0.00108217
0.0106703
0.00714965
0.00107328
-0.00564708
0.0010635
-0.00763998
0.00105477
-0.00857889
0.00103764
-0.00889799
0.00101725
-0.00874275
0.00100748
-0.0080588
0.00101755
-0.00651869
0.00104753
-0.00417581
0.00109149
-0.00121725
0.00113904
0.00203704
0.00118115
0.00509636
0.00120873
0.00787022
0.00121827
0.00955072
0.00120672
0.0103451
0.00117851
0.00927342
0.00114435
0.00700376
0.0011158
0.00323696
0.0011007
-0.000977176
0.00108867
-0.00453335
0.00107461
-0.00791452
0.00105894
-0.00894351
0.0010497
-0.010036
0.00105222
-0.00765138
0.00105795
-0.00525935
0.00107256
-0.00119
0.00107896
0.00403197
0.00108921
0.00548774
0.00108496
0.0106745
0.00717036
0.00107011
-0.00561938
0.00105938
-0.00762924
0.00105054
-0.00857005
0.00103364
-0.00888109
0.00101336
-0.00872247
0.00100366
-0.00804909
0.00101406
-0.00652908
0.00104463
-0.00420638
0.00108936
-0.00126199
0.00113784
0.00198856
0.00118102
0.00505318
0.00120965
0.00784159
0.00122003
0.00954033
0.00120891
0.0103562
0.00118064
0.00930169
0.00114602
0.00703838
0.00111687
0.0032661
0.00110144
-0.000961747
0.0010893
-0.00452122
0.00107512
-0.00790035
0.00105914
-0.00892752
0.00104964
-0.0100265
0.00105238
-0.00765412
0.0010586
-0.00526557
0.001074
-0.0012054
0.00108105
0.00402493
0.00109181
0.00547698
0.0010878
0.0106785
0.00719114
0.00106694
-0.00558989
0.00105522
-0.00761752
0.00104626
-0.00856109
0.00102961
-0.00886444
0.00100945
-0.00870231
0.000999804
-0.00803945
0.00101049
-0.00653977
0.00104163
-0.00423753
0.00108714
-0.00130749
0.00113654
0.00193916
0.00118079
0.00500893
0.00121049
0.0078119
0.00122173
0.00952909
0.00121108
0.0103668
0.00118277
0.00933
0.0011477
0.00707345
0.00111797
0.00329584
0.0011022
-0.000945981
0.00108996
-0.00450897
0.00107567
-0.00788606
0.00105937
-0.00891122
0.00104962
-0.0100168
0.00105257
-0.00765707
0.00105928
-0.00527228
0.00107546
-0.00122158
0.00108316
0.00401722
0.00109445
0.00546569
0.0010907
0.0106823
0.00721198
0.00106376
-0.0055586
0.00105103
-0.00760479
0.00104194
-0.008552
0.00102555
-0.00884804
0.00100552
-0.00868229
0.000995902
-0.00802983
0.00100685
-0.00655071
0.00103855
-0.00426923
0.00108482
-0.00135376
0.00113514
0.00188883
0.00118047
0.00496361
0.00121124
0.00778112
0.00122338
0.00951695
0.00121321
0.010377
0.0011849
0.00935831
0.00114941
0.00710894
0.00111909
0.00332616
0.00110298
-0.000929876
0.00109064
-0.00449663
0.00107626
-0.00787168
0.00105966
-0.00889461
0.00104963
-0.0100068
0.00105278
-0.00766023
0.00105997
-0.00527947
0.00107694
-0.00123855
0.00108531
0.00400885
0.00109712
0.00545388
0.00109364
0.0106858
0.00723286
0.00106057
-0.00552549
0.00104681
-0.00759104
0.00103758
-0.00854277
0.00102145
-0.00883191
0.00100156
-0.00866239
0.000991957
-0.00802023
0.00100313
-0.00656189
0.00103538
-0.00430148
0.0010824
-0.00140078
0.00113364
0.00183759
0.00118004
0.00491721
0.0012119
0.00774926
0.00122495
0.0095039
0.00121531
0.0103866
0.00118702
0.00938661
0.00115113
0.00714483
0.00112024
0.00335705
0.00110379
-0.000913429
0.00109136
-0.0044842
0.00107689
-0.00785722
0.00105998
-0.0088777
0.00104967
-0.00999644
0.00105301
-0.00766357
0.00106068
-0.00528714
0.00107843
-0.0012563
0.00108748
0.0039998
0.00109983
0.00544153
0.00109662
0.010689
0.00725376
0.00105737
-0.00549057
0.00104255
-0.00757622
0.00103317
-0.00853339
0.00101732
-0.00881606
0.000997571
-0.00864265
0.000987968
-0.00801063
0.00099934
-0.00657326
0.00103211
-0.00433424
0.00107988
-0.00144855
0.00113204
0.00178543
0.00117951
0.00486974
0.00121248
0.0077163
0.00122646
0.00948992
0.00121738
0.0103957
0.00118914
0.00941485
0.00115287
0.0071811
0.00112141
0.00338852
0.00110461
-0.000896637
0.00109209
-0.00447168
0.00107756
-0.00784269
0.00106035
-0.00886049
0.00104974
-0.00998583
0.00105326
-0.00766708
0.0010614
-0.00529529
0.00107994
-0.00127484
0.00108969
0.00399006
0.00110258
0.00542864
0.00109966
0.0106919
0.00727466
0.00105415
-0.00545382
0.00103826
-0.00756033
0.00102871
-0.00852384
0.00101314
-0.00880049
0.000993558
-0.00862306
0.000983937
-0.00800101
0.000995471
-0.0065848
0.00102874
-0.00436752
0.00107726
-0.00149707
0.00113033
0.00173236
0.00117888
0.00482119
0.00121296
0.00768222
0.0012279
0.00947497
0.0012194
0.0104042
0.00119125
0.00944301
0.00115463
0.00721772
0.0011226
0.00342054
0.00110546
-0.000879495
0.00109286
-0.00445907
0.00107827
-0.0078281
0.00106077
-0.008843
0.00104985
-0.00997492
0.00105353
-0.00767075
0.00106214
-0.0053039
0.00108147
-0.00129416
0.00109192
0.0039796
0.00110535
0.00541521
0.00110273
0.0106945
0.00729556
0.00105093
-0.00541523
0.00103394
-0.00754334
0.0010242
-0.0085141
0.00100894
-0.00878522
0.000989517
-0.00860364
0.000979864
-0.00799135
0.000991528
-0.00659646
0.00102528
-0.00440127
0.00107455
-0.00154633
0.00112853
0.00167837
0.00117815
0.00477157
0.00121335
0.00764702
0.00122927
0.00945905
0.00122139
0.0104121
0.00119335
0.00947104
0.0011564
0.00725467
0.00112382
0.00345312
0.00110632
-0.000861999
0.00109364
-0.00444639
0.001079
-0.00781346
0.00106123
-0.00882522
0.00105
-0.00996368
0.00105381
-0.00767457
0.0010629
-0.00531298
0.00108301
-0.00131428
0.00109418
0.00396843
0.00110816
0.00540123
0.00110586
0.0106968
0.00731642
0.00104769
-0.0053748
0.00102958
-0.00752523
0.00101965
-0.00850418
0.00100469
-0.00877026
0.000985448
-0.00858441
0.00097575
-0.00798166
0.000987509
-0.00660822
0.00102172
-0.00443548
0.00107173
-0.00159634
0.00112664
0.00162346
0.00117733
0.00472088
0.00121366
0.00761069
0.00123057
0.00944214
0.00122333
0.0104193
0.00119545
0.00949893
0.00115818