/*--------------------------------*- C++ -*----------------------------------*\
  =========                 |
  \\      /  F ield         | OpenFOAM: The Open Source CFD Toolbox
   \\    /   O peration     | Website:  https://openfoam.org
    \\  /    A nd           | Version:  7
     \\/     M anipulation  |
\*---------------------------------------------------------------------------*/
FoamFile
{
    version     2.0;
    format      ascii;
    class       volVectorField;
    location    "240";
    object      U;
}
// * * * * * * * * * * * * * * * * * * * * * * * * * * * * * * * * * * * * * //

dimensions      [0 1 -1 0 0 0 0];

internalField   nonuniform List<vector> 
7156
(
(0.870999 -0.484595 -1.75059e-22)
(0.883336 -0.495876 3.23107e-23)
(0.887681 -0.492919 2.59672e-23)
(0.883641 -0.489462 -4.94541e-23)
(0.868841 -0.495849 -1.20683e-25)
(0.843161 -0.507134 -6.79229e-24)
(0.811237 -0.500631 -7.65814e-24)
(0.780796 -0.449663 2.02651e-23)
(0.758739 -0.342169 -1.97373e-22)
(0.749215 -0.188393 -1.64518e-22)
(0.753678 -0.0148333 -6.90041e-23)
(0.77054 0.147906 8.98391e-23)
(0.795427 0.276081 -1.88765e-22)
(0.823018 0.359742 9.56058e-24)
(0.847678 0.404658 1.32879e-23)
(0.863155 0.428205 3.38696e-23)
(0.864786 0.446686 3.26367e-23)
(0.852011 0.462132 -4.22013e-23)
(0.82849 0.460445 7.17347e-23)
(0.800454 0.422665 -6.53126e-24)
(0.774732 0.338731 1.33878e-22)
(0.757084 0.213822 -2.33723e-23)
(0.751776 0.0663466 -1.06664e-22)
(0.760463 -0.0797227 8.15269e-23)
(0.780435 -0.202908 -4.33109e-23)
(0.804059 -0.293629 4.6655e-23)
(0.821813 -0.353732 4.93349e-23)
(0.826805 -0.391536 9.02966e-24)
(0.818041 -0.408864 1.5231e-23)
(0.874482 -0.486242 1.23712e-22)
(0.88577 -0.496636 -1.4495e-22)
(0.889149 -0.492906 -5.85385e-23)
(0.88433 -0.488561 5.37736e-23)
(0.8689 -0.493967 4.34324e-23)
(0.842633 -0.504514 4.97004e-23)
(0.810088 -0.497864 -1.27656e-23)
(0.779028 -0.447412 2.29398e-22)
(0.756466 -0.3409 1.3511e-22)
(0.746614 -0.188302 9.12833e-23)
(0.750932 -0.0158611 -1.56247e-22)
(0.767843 0.146057 -1.84195e-22)
(0.793013 0.273843 3.03045e-22)
(0.821105 0.357572 -1.40012e-22)
(0.846347 0.403021 -2.6882e-22)
(0.862376 0.427498 8.10297e-24)
(0.864534 0.447073 -1.58158e-22)
(0.852282 0.463468 5.76733e-23)
(0.829279 0.462347 1.07267e-22)
(0.801724 0.424652 1.55566e-22)
(0.776355 0.340352 5.51213e-23)
(0.758844 0.214725 -1.46087e-22)
(0.753442 0.0663287 8.8101e-23)
(0.761869 -0.0806171 2.4585e-22)
(0.781518 -0.204316 2.33473e-23)
(0.804862 -0.294964 2.13599e-22)
(0.822384 -0.354451 -6.88804e-23)
(0.827141 -0.391399 -5.26653e-23)
(0.818123 -0.407985 -5.50858e-23)
(0.878013 -0.487767 2.63927e-22)
(0.888252 -0.497299 3.73405e-23)
(0.890667 -0.492818 -1.16566e-22)
(0.88508 -0.487597 -1.86702e-22)
(0.869037 -0.492025 -1.59304e-22)
(0.842204 -0.501841 -3.90457e-23)
(0.809056 -0.495071 4.75901e-23)
(0.777384 -0.445186 -2.93065e-22)
(0.754313 -0.339713 4.00406e-22)
(0.744126 -0.188337 -2.34957e-22)
(0.748287 -0.0170293 3.29513e-22)
(0.765234 0.144073 2.38393e-23)
(0.790675 0.271487 -3.61992e-22)
(0.819256 0.355308 -3.04168e-22)
(0.845072 0.401313 5.88949e-22)
(0.861654 0.426733 -6.64171e-23)
(0.864347 0.447406 8.74112e-23)
(0.85263 0.464758 2.30236e-22)
(0.830159 0.464225 -6.08735e-23)
(0.803098 0.42665 2.18989e-22)
(0.778086 0.342024 6.86127e-23)
(0.760711 0.215713 -5.307e-22)
(0.755208 0.0664125 1.2625e-22)
(0.763365 -0.0814124 -2.01533e-22)
(0.782679 -0.205643 1.61087e-23)
(0.805732 -0.296241 -1.36223e-22)
(0.82302 -0.355132 -2.08235e-23)
(0.827547 -0.391233 -7.30069e-23)
(0.818279 -0.407089 5.35519e-24)
(0.881594 -0.489171 2.50985e-23)
(0.890783 -0.497865 -4.43749e-22)
(0.892237 -0.492657 1.24862e-22)
(0.885891 -0.486574 3.40861e-22)
(0.869253 -0.490027 -1.82465e-22)
(0.841874 -0.499118 7.80162e-22)
(0.808141 -0.492255 -1.00117e-22)
(0.775864 -0.442986 -3.18771e-22)
(0.752283 -0.338608 2.15416e-22)
(0.741751 -0.188493 8.14657e-24)
(0.745743 -0.0183347 8.5705e-22)
(0.762713 0.141957 -7.55493e-22)
(0.788415 0.269016 7.56032e-22)
(0.817473 0.352951 1.15209e-21)
(0.843852 0.399532 -9.89663e-22)
(0.860986 0.425907 2.26195e-22)
(0.864223 0.447683 1.00196e-22)
(0.853054 0.466 -4.48626e-23)
(0.83113 0.466076 -2.68861e-22)
(0.804574 0.428656 -1.606e-22)
(0.779923 0.343746 -5.07997e-22)
(0.762683 0.216785 6.30369e-22)
(0.757075 0.0665993 -3.33743e-23)
(0.764952 -0.0821071 -4.19945e-22)
(0.783917 -0.206888 2.73895e-22)
(0.806668 -0.297462 -4.08663e-22)
(0.82372 -0.355774 -6.95763e-22)
(0.828022 -0.391041 -3.63622e-22)
(0.81851 -0.406177 1.5006e-23)
(0.885224 -0.490456 3.15458e-22)
(0.893365 -0.498338 1.56462e-22)
(0.893859 -0.492426 -6.99212e-22)
(0.886764 -0.485496 -5.63113e-22)
(0.869548 -0.487977 1.56034e-22)
(0.841644 -0.496348 -5.60748e-22)
(0.807344 -0.489416 -3.53598e-22)
(0.77447 -0.44081 6.85136e-22)
(0.750375 -0.337581 -6.7261e-22)
(0.739489 -0.188767 1.16563e-22)
(0.7433 -0.0197743 -1.52673e-22)
(0.76028 0.139711 1.93969e-22)
(0.78623 0.266431 -8.30432e-22)
(0.815752 0.350502 -7.83808e-22)
(0.842685 0.39768 7.52727e-22)
(0.860372 0.425018 -6.6415e-22)
(0.864161 0.447901 3.97075e-23)
(0.853553 0.467192 -1.24794e-22)
(0.832191 0.467899 6.19393e-22)
(0.80615 0.43067 2.48479e-22)
(0.781866 0.345518 -1.10315e-22)
(0.764759 0.217943 -6.02799e-22)
(0.759041 0.0668908 5.99682e-22)
(0.76663 -0.0826995 -1.33788e-22)
(0.785235 -0.208051 -8.30637e-22)
(0.807673 -0.298625 -2.00887e-22)
(0.824486 -0.356378 4.97075e-22)
(0.828566 -0.390824 4.90634e-22)
(0.818816 -0.405251 1.13038e-22)
(0.888904 -0.491623 4.95173e-22)
(0.895998 -0.498718 -1.35876e-22)
(0.895535 -0.492128 1.40216e-22)
(0.8877 -0.484365 3.06429e-22)
(0.869925 -0.485878 -4.31225e-22)
(0.841516 -0.493534 4.37722e-22)
(0.806667 -0.486554 1.48609e-22)
(0.773203 -0.438656 3.57221e-22)
(0.748591 -0.33663 -1.55637e-22)
(0.737342 -0.189157 -8.40248e-22)
(0.740957 -0.0213449 7.37868e-22)
(0.757934 0.137337 -5.13989e-22)
(0.78412 0.263734 2.51962e-23)
(0.814093 0.347962 -8.75146e-22)
(0.841571 0.395754 -2.31835e-22)
(0.859811 0.424066 1.00769e-21)
(0.86416 0.448058 -2.16892e-22)
(0.854126 0.468331 -7.74941e-24)
(0.83334 0.469692 -1.0769e-22)
(0.807826 0.432691 -3.04748e-22)
(0.783913 0.34734 -6.80078e-22)
(0.76694 0.219188 7.0407e-22)
(0.761107 0.0672882 -4.46038e-22)
(0.768399 -0.0831881 1.43334e-21)
(0.786632 -0.20913 -2.60149e-23)
(0.808746 -0.299731 8.29348e-22)
(0.825317 -0.356946 9.80839e-22)
(0.82918 -0.390582 -2.12403e-22)
(0.819197 -0.40431 -6.86734e-22)
(0.892635 -0.492675 3.42329e-22)
(0.898682 -0.499008 1.55166e-22)
(0.897266 -0.491764 -9.03161e-22)
(0.8887 -0.483186 6.13961e-22)
(0.870382 -0.483735 1.59194e-22)
(0.841489 -0.490679 8.27929e-23)
(0.80611 -0.483672 5.25405e-22)
(0.772064 -0.436524 -1.29405e-21)
(0.746932 -0.335751 1.58812e-21)
(0.735308 -0.189658 5.47303e-22)
(0.738715 -0.0230434 6.85849e-23)
(0.755676 0.134838 -6.24278e-23)
(0.782085 0.260926 1.68845e-21)
(0.812495 0.345331 1.11164e-21)
(0.840508 0.393756 2.64384e-22)
(0.859301 0.423048 -1.00475e-21)
(0.864219 0.448151 -1.78222e-22)
(0.854771 0.469415 3.5137e-22)
(0.834575 0.471453 1.60798e-22)
(0.809599 0.434718 -5.37036e-22)
(0.786062 0.349213 5.10586e-22)
(0.769224 0.22052 1.06332e-22)
(0.763273 0.0677928 -4.67616e-22)
(0.770261 -0.0835712 -3.84249e-22)
(0.788109 -0.210123 -6.17533e-22)
(0.809888 -0.300778 2.43153e-22)
(0.826214 -0.357477 -3.59565e-22)
(0.829863 -0.390316 -2.35089e-22)
(0.819652 -0.403357 7.36801e-22)
(0.896415 -0.493612 -1.23537e-22)
(0.90142 -0.49921 1.05845e-21)
(0.899053 -0.491336 -7.78666e-22)
(0.889765 -0.481962 -5.67234e-22)
(0.870922 -0.481552 1.7098e-22)
(0.841565 -0.487787 -3.46062e-22)
(0.805674 -0.480771 -5.18322e-22)
(0.771054 -0.434411 5.73276e-22)
(0.745396 -0.334942 8.80312e-22)
(0.733388 -0.190268 -1.67676e-21)
(0.736574 -0.0248665 2.95987e-22)
(0.753505 0.132217 2.90361e-22)
(0.780122 0.258009 -1.0152e-21)
(0.810956 0.342609 1.73747e-22)
(0.839494 0.391683 1.49919e-21)
(0.858841 0.421963 -1.29457e-21)
(0.864335 0.448179 1.23646e-21)
(0.855487 0.470442 -6.53492e-22)
(0.835895 0.47318 -1.7643e-22)
(0.811468 0.43675 -3.1522e-23)
(0.788313 0.351135 3.89146e-22)
(0.77161 0.22194 -6.36576e-22)
(0.765537 0.0684058 -3.51469e-22)
(0.772215 -0.0838476 -3.12027e-22)
(0.789669 -0.211029 7.32399e-22)
(0.8111 -0.301766 1.74811e-22)
(0.827176 -0.357972 3.47222e-23)
(0.830616 -0.390028 -5.90929e-22)
(0.82018 -0.402391 -8.30048e-22)
(0.900245 -0.494437 -3.94417e-22)
(0.904212 -0.499324 -7.20943e-22)
(0.900896 -0.490847 2.22249e-21)
(0.890894 -0.480695 -2.15139e-22)
(0.871543 -0.479332 1.36506e-21)
(0.841743 -0.48486 -1.00351e-21)
(0.805358 -0.47785 -3.31853e-22)
(0.770174 -0.432316 -5.48267e-22)
(0.743986 -0.334199 -3.93958e-22)
(0.731582 -0.190981 -6.36733e-23)
(0.734532 -0.0268109 1.42297e-21)
(0.751419 0.129476 -6.23277e-22)
(0.778232 0.254985 -1.01203e-21)
(0.809475 0.339799 -1.82684e-21)
(0.838529 0.389536 -1.44322e-21)
(0.858429 0.420809 5.29302e-22)
(0.864507 0.448139 6.45325e-22)
(0.856271 0.471409 -3.2984e-22)
(0.837298 0.474872 5.94855e-22)
(0.81343 0.438785 2.76249e-22)
(0.790662 0.353106 -3.19692e-22)
(0.774096 0.223449 9.50602e-22)
(0.7679 0.0691282 6.3436e-22)
(0.774261 -0.0840156 6.78905e-22)
(0.791309 -0.211848 -2.18645e-21)
(0.812381 -0.302696 -1.83569e-21)
(0.828203 -0.358432 -6.18686e-22)
(0.831437 -0.389719 4.265e-22)
(0.820783 -0.401414 2.26824e-22)
(0.904126 -0.495151 5.01789e-22)
(0.907057 -0.499354 8.98156e-22)
(0.902797 -0.490299 -1.89194e-22)
(0.892088 -0.47939 -1.51009e-21)
(0.872247 -0.477079 4.26558e-22)
(0.842024 -0.481902 -1.99737e-22)
(0.805163 -0.474911 6.97503e-23)
(0.769425 -0.430238 -9.31064e-22)
(0.742702 -0.333519 1.3814e-21)
(0.72989 -0.191796 1.37326e-22)
(0.73259 -0.0288733 -1.14247e-21)
(0.749419 0.126618 -6.00119e-22)
(0.776413 0.251856 9.15238e-22)
(0.808049 0.3369 6.79357e-22)
(0.83761 0.387314 7.49705e-24)
(0.858063 0.419584 8.10726e-22)
(0.864733 0.448028 -1.28611e-21)
(0.857122 0.472314 1.12126e-21)
(0.838781 0.476525 -2.14666e-22)
(0.815484 0.440823 1.66475e-21)
(0.793109 0.355127 -1.02168e-21)
(0.776681 0.225046 -9.37331e-22)
(0.77036 0.069961 -1.01382e-22)
(0.776399 -0.0840741 -2.70805e-21)
(0.793033 -0.212577 1.80285e-21)
(0.813734 -0.303565 1.1207e-21)
(0.829296 -0.358857 1.95856e-21)
(0.832327 -0.38939 4.64922e-22)
(0.821458 -0.400427 3.85775e-22)
(0.908056 -0.495755 -1.06077e-21)
(0.909957 -0.4993 -1.99197e-22)
(0.904756 -0.489694 2.28498e-21)
(0.893347 -0.47805 -8.89022e-22)
(0.873032 -0.474798 2.03554e-22)
(0.842407 -0.478915 -3.00468e-22)
(0.805089 -0.471955 1.17182e-21)
(0.768805 -0.428175 1.49757e-21)
(0.741543 -0.332898 9.33642e-23)
(0.728311 -0.192707 -1.16095e-21)
(0.730748 -0.03105 -9.58063e-22)
(0.747504 0.123645 2.57179e-21)
(0.774664 0.248622 -1.02467e-21)
(0.806679 0.333914 2.35413e-21)
(0.836736 0.385017 -2.00445e-21)
(0.857743 0.418288 3.4985e-22)
(0.865012 0.447845 1.37259e-21)
(0.858037 0.473155 -1.61074e-21)
(0.840344 0.478139 -5.72632e-22)
(0.817627 0.442862 -1.05746e-21)
(0.795652 0.357196 7.0407e-22)
(0.779363 0.226732 -5.86737e-22)
(0.772916 0.0709051 -6.5347e-22)
(0.77863 -0.0840218 5.64527e-22)
(0.794839 -0.213216 -8.82365e-22)
(0.815157 -0.304375 -2.26615e-21)
(0.830454 -0.359248 5.32544e-22)
(0.833286 -0.389041 -1.38633e-21)
(0.822206 -0.39943 -6.73858e-24)
(0.912035 -0.496253 -2.46149e-21)
(0.912912 -0.499165 -1.15597e-21)
(0.906773 -0.489034 7.53358e-22)
(0.894671 -0.476677 -4.29614e-22)
(0.873899 -0.472493 -9.77281e-22)
(0.842892 -0.475902 7.97025e-22)
(0.805136 -0.468982 -3.28838e-22)
(0.768317 -0.426124 -5.17021e-22)
(0.740511 -0.332333 2.40419e-22)
(0.726846 -0.19371 -1.20932e-21)
(0.729004 -0.0333376 1.06838e-21)
(0.745673 0.12056 -1.5971e-22)
(0.772983 0.245287 1.43875e-22)
(0.805362 0.33084 -7.76663e-22)
(0.835905 0.382644 7.40399e-22)
(0.857465 0.416917 -4.50974e-22)
(0.865341 0.447587 1.27082e-21)
(0.859015 0.473929 -5.02237e-22)
(0.841982 0.479711 2.02093e-22)
(0.819856 0.4449 9.67038e-22)
(0.798287 0.359313 -1.20865e-21)
(0.782141 0.228507 -1.59318e-22)
(0.775567 0.0719611 2.36094e-21)
(0.780951 -0.0838573 2.7707e-21)
(0.796729 -0.213763 -3.69242e-22)
(0.816652 -0.305124 -1.25231e-23)
(0.831677 -0.359605 1.00942e-21)
(0.834312 -0.388674 1.54511e-22)
(0.823027 -0.398424 -6.24177e-22)
(0.916064 -0.496644 1.129e-21)
(0.915922 -0.498951 1.33327e-21)
(0.90885 -0.488321 -1.55853e-22)
(0.89606 -0.475275 -6.87624e-22)
(0.874847 -0.470166 9.65483e-22)
(0.843479 -0.472867 -1.74178e-21)
(0.805302 -0.465994 1.64873e-21)
(0.767958 -0.424085 -6.56034e-22)
(0.739605 -0.331819 -8.90479e-22)
(0.725493 -0.194802 -5.3132e-22)
(0.727358 -0.0357325 -1.49001e-21)
(0.743925 0.117366 4.68275e-22)
(0.77137 0.241852 -3.07311e-21)
(0.804096 0.327681 -1.18143e-21)
(0.835117 0.380195 1.2016e-21)
(0.857229 0.415472 -2.21444e-21)
(0.865718 0.447253 -3.17325e-22)
(0.860054 0.474633 1.06754e-21)
(0.843694 0.481239 -1.07864e-22)
(0.82217 0.446936 -1.77748e-21)
(0.801014 0.361476 7.27644e-22)
(0.785013 0.230371 1.31262e-21)
(0.778312 0.0731298 -2.2911e-22)
(0.783364 -0.0835797 -3.6894e-21)
(0.798701 -0.214218 2.61713e-21)
(0.818218 -0.305811 6.21695e-22)
(0.832964 -0.359928 -1.04734e-21)
(0.835406 -0.388289 1.00394e-22)
(0.823919 -0.39741 4.44774e-23)
(0.92014 -0.496931 2.23022e-21)
(0.918987 -0.498659 -2.6203e-21)
(0.910986 -0.487556 1.73001e-21)
(0.897514 -0.473846 -3.21676e-22)
(0.875875 -0.467823 5.10651e-22)
(0.844166 -0.469813 -1.00117e-22)
(0.805588 -0.462991 5.51227e-22)
(0.76773 -0.422054 9.87748e-22)
(0.738825 -0.331354 4.6345e-22)
(0.724253 -0.195978 2.0212e-21)
(0.725809 -0.038231 -2.80111e-22)
(0.742258 0.114065 -8.08304e-22)
(0.769822 0.238318 3.40849e-21)
(0.80288 0.324436 -9.49487e-22)
(0.834368 0.377669 -2.05071e-22)
(0.857032 0.41395 2.24185e-21)
(0.866142 0.446841 9.02993e-22)
(0.86115 0.475267 -1.45385e-21)
(0.845477 0.48272 -2.45294e-22)
(0.824566 0.448968 1.5509e-21)
(0.803828 0.363685 -6.31007e-22)
(0.787977 0.232324 2.46248e-21)
(0.781149 0.0744116 -8.16212e-22)
(0.785867 -0.0831878 1.58527e-21)
(0.800758 -0.214578 -2.05705e-22)
(0.819856 -0.306436 9.87029e-22)
(0.834316 -0.360218 6.34492e-22)
(0.836566 -0.387888 -5.77998e-22)
(0.824881 -0.396389 8.56189e-23)
(0.924265 -0.497115 8.1695e-22)
(0.922107 -0.49829 2.2701e-21)
(0.913182 -0.486742 -2.71835e-22)
(0.899033 -0.472393 -6.21859e-22)
(0.876983 -0.465466 1.4188e-21)
(0.844955 -0.466743 4.33661e-22)
(0.805992 -0.459974 -3.66611e-22)
(0.767632 -0.420031 -1.25337e-21)
(0.738171 -0.330932 8.66649e-22)
(0.723126 -0.197234 -1.10936e-22)
(0.724357 -0.0408294 -2.80349e-22)
(0.740673 0.110661 3.38906e-21)
(0.768339 0.234689 -4.42266e-22)
(0.801713 0.321107 -4.70548e-22)
(0.833658 0.375067 1.28857e-21)
(0.856873 0.412351 6.71154e-22)
(0.866609 0.446347 -1.31892e-21)
(0.862302 0.475826 1.20779e-21)
(0.847328 0.484153 -5.62562e-22)
(0.82704 0.450994 -1.90568e-23)
(0.806729 0.365939 2.61201e-21)
(0.79103 0.234365 -2.74321e-21)
(0.784077 0.075807 -1.04951e-21)
(0.78846 -0.0826808 -3.78138e-22)
(0.802898 -0.214843 -1.31029e-21)
(0.821566 -0.306998 2.19799e-22)
(0.835732 -0.360476 -2.41106e-22)
(0.837793 -0.387471 1.46766e-21)
(0.825914 -0.39536 -1.50025e-22)
(0.928436 -0.497199 -1.05359e-21)
(0.925282 -0.497848 2.93299e-21)
(0.915438 -0.48588 -1.1168e-21)
(0.900615 -0.47092 5.77661e-22)
(0.878169 -0.4631 -1.14746e-21)
(0.845842 -0.463659 -7.63377e-22)
(0.806513 -0.456945 2.09736e-22)
(0.767663 -0.418013 -5.78772e-22)
(0.737644 -0.33055 1.23465e-21)
(0.72211 -0.198565 -1.12388e-21)
(0.723 -0.0435239 -5.59547e-21)
(0.739167 0.107156 1.93705e-21)
(0.766918 0.230965 1.21978e-21)
(0.800592 0.317694 1.95424e-21)
(0.832984 0.372387 -2.958e-21)
(0.856748 0.410673 -1.22508e-21)
(0.867118 0.445771 2.61714e-22)
(0.863507 0.47631 -3.95362e-22)
(0.849244 0.485536 -7.98668e-22)
(0.82959 0.453013 8.12669e-22)
(0.809713 0.368236 -1.63925e-21)
(0.79417 0.236494 2.37984e-21)
(0.787093 0.0773163 9.82993e-22)
(0.791141 -0.0820576 -6.79643e-22)
(0.805121 -0.215012 -2.33747e-22)
(0.823349 -0.307497 1.76545e-22)
(0.837211 -0.3607 -1.14705e-21)
(0.839084 -0.387039 -1.83884e-21)
(0.827017 -0.394326 1.52324e-21)
(0.932653 -0.497183 2.42187e-22)
(0.928512 -0.497333 -8.4084e-22)
(0.917755 -0.484972 -2.54604e-21)
(0.902261 -0.469428 1.10611e-21)
(0.879432 -0.460728 -1.05414e-21)
(0.846828 -0.460566 2.32041e-21)
(0.80715 -0.453903 -1.82096e-21)
(0.767821 -0.415998 1.5071e-21)
(0.737243 -0.330205 -5.8339e-22)
(0.721206 -0.199966 3.68865e-21)
(0.721739 -0.0463104 4.34156e-22)
(0.73774 0.103553 -3.50875e-23)
(0.765559 0.227149 -2.7846e-22)
(0.799516 0.314199 -4.19208e-21)
(0.832345 0.36963 1.11253e-21)
(0.856657 0.408914 -2.96402e-23)
(0.867666 0.445111 3.07481e-22)
(0.864762 0.476716 -1.4019e-21)
(0.851224 0.486865 2.21509e-21)
(0.832213 0.455022 -4.19062e-22)
(0.812778 0.370575 3.63645e-23)
(0.797396 0.23871 9.63368e-22)
(0.790197 0.0789396 -1.28092e-21)
(0.79391 -0.0813176 -4.28751e-22)
(0.807427 -0.215083 1.75017e-21)
(0.825204 -0.307931 -5.19874e-22)
(0.838753 -0.360891 1.79345e-21)
(0.840439 -0.386593 5.65438e-22)
(0.828188 -0.393286 2.85743e-22)
(0.936915 -0.49707 -3.89852e-21)
(0.931795 -0.496748 2.04806e-21)
(0.920131 -0.484019 4.24926e-21)
(0.903971 -0.46792 -8.52054e-22)
(0.880771 -0.458353 -2.17317e-21)
(0.847912 -0.457465 4.5432e-22)
(0.807902 -0.45085 1.89541e-21)
(0.768107 -0.413985 -3.5542e-22)
(0.736969 -0.329891 -4.19918e-22)
(0.720413 -0.201433 -3.33988e-22)
(0.720571 -0.0491849 1.64421e-21)
(0.736391 0.0998555 -1.17576e-22)
(0.76426 0.223243 8.15082e-22)
(0.798483 0.310622 -1.43287e-21)
(0.831738 0.366796 1.59077e-21)
(0.856597 0.407075 6.26113e-22)
(0.86825 0.444365 -1.79667e-21)
(0.866064 0.477041 -1.71368e-22)
(0.853262 0.48814 2.11706e-22)
(0.834907 0.45702 -3.84315e-21)
(0.81592 0.372955 3.89732e-21)
(0.800703 0.241013 -2.33095e-22)
(0.793386 0.0806772 -3.04085e-21)
(0.796765 -0.08046 4.2142e-21)
(0.809816 -0.215055 -1.90606e-21)
(0.827131 -0.308299 6.09429e-22)
(0.840358 -0.36105 -3.28619e-21)
(0.841858 -0.386133 4.06759e-22)
(0.829428 -0.392241 -2.09296e-21)
(0.941222 -0.49686 -1.92354e-21)
(0.935132 -0.496094 -2.22806e-21)
(0.922568 -0.483023 -3.07155e-21)
(0.905744 -0.466398 1.69507e-21)
(0.882185 -0.455981 -4.53985e-22)
(0.84909 -0.454361 -1.72294e-21)
(0.808768 -0.447786 -6.3825e-22)
(0.768519 -0.411972 -4.42565e-21)
(0.73682 -0.329605 1.19887e-22)
(0.719732 -0.202962 -4.34602e-23)
(0.719497 -0.0521434 -3.1072e-21)
(0.735118 0.0960663 1.17044e-21)
(0.763019 0.219248 4.17093e-21)
(0.797491 0.306964 -2.54394e-21)
(0.831163 0.363884 -1.17127e-21)
(0.856566 0.405153 1.50807e-21)
(0.868869 0.443531 -7.7784e-22)
(0.867411 0.477284 -2.04758e-21)
(0.855357 0.489357 1.90675e-21)
(0.837666 0.459005 -9.55693e-22)
(0.819137 0.375374 -1.29016e-22)
(0.804091 0.243401 -1.29345e-21)
(0.796657 0.0825289 1.64141e-21)
(0.799705 -0.0794841 -1.4455e-21)
(0.812287 -0.214928 3.99452e-21)
(0.829131 -0.308601 5.37693e-22)
(0.842026 -0.361176 5.66617e-22)
(0.843339 -0.385662 -3.25065e-22)
(0.830734 -0.391192 -2.90053e-22)
(0.945571 -0.496556 1.83424e-21)
(0.938522 -0.495373 -2.88104e-22)
(0.925065 -0.481985 -6.40822e-23)
(0.907578 -0.464865 2.01727e-21)
(0.883672 -0.453613 -7.29727e-22)
(0.850363 -0.451256 2.87408e-21)
(0.809746 -0.444713 1.67901e-21)
(0.769054 -0.409957 1.01398e-21)
(0.736796 -0.329343 -2.22612e-21)
(0.719162 -0.204547 1.57284e-21)
(0.718516 -0.0551819 6.66186e-23)
(0.73392 0.0921884 -3.79609e-22)
(0.761835 0.215168 -1.18401e-21)
(0.79654 0.303227 1.88699e-21)
(0.830616 0.360895 -5.16381e-22)
(0.856561 0.403148 -4.4093e-22)
(0.869519 0.442607 1.03645e-21)
(0.8688 0.477442 2.17933e-21)
(0.857505 0.490514 3.30206e-21)
(0.84049 0.460974 -2.65931e-21)
(0.822426 0.377831 4.36234e-21)
(0.807556 0.245875 -2.94628e-21)
(0.80001 0.0844945 6.14729e-22)
(0.802728 -0.0783894 1.17547e-21)
(0.81484 -0.2147 -2.73285e-21)
(0.831202 -0.308836 -3.52305e-21)
(0.843755 -0.361269 8.30091e-23)
(0.844881 -0.385178 -1.0258e-21)
(0.832106 -0.39014 -2.02968e-22)
(0.949963 -0.496158 8.3372e-21)
(0.941963 -0.494586 -3.5714e-21)
(0.927621 -0.480907 2.76267e-21)
(0.909474 -0.463322 -3.47396e-21)
(0.88523 -0.451254 2.68761e-21)
(0.851729 -0.448154 -1.08881e-21)
(0.810835 -0.441632 4.56245e-22)
(0.769712 -0.407938 -1.38808e-21)
(0.736897 -0.329101 1.88012e-21)
(0.718703 -0.206183 3.44345e-22)
(0.717627 -0.0582961 -8.08587e-22)
(0.732795 0.0882252 -4.85236e-22)
(0.760706 0.211003 -9.89926e-22)
(0.795626 0.299411 -3.00963e-22)
(0.830097 0.357828 2.81696e-21)
(0.856581 0.40106 -1.01298e-21)
(0.870198 0.441592 1.85765e-21)
(0.870226 0.477514 -9.63608e-22)
(0.859703 0.49161 -1.12811e-21)
(0.843374 0.462925 5.76089e-22)
(0.825784 0.380322 -9.49631e-22)
(0.811094 0.248432 -2.59973e-21)
(0.80344 0.086574 -6.42821e-21)
(0.805833 -0.0771756 5.21976e-22)
(0.817474 -0.21437 -2.55037e-21)
(0.833346 -0.309002 -8.755e-23)
(0.845545 -0.361329 -7.6144e-22)
(0.846483 -0.384683 -7.46769e-22)
(0.833544 -0.389084 1.45717e-22)
(0.954394 -0.495668 -9.07819e-22)
(0.945456 -0.493736 8.85508e-22)
(0.930237 -0.479789 -7.82964e-22)
(0.911432 -0.461771 2.43296e-22)
(0.886857 -0.448906 -9.86095e-22)
(0.853185 -0.445057 -1.97315e-21)
(0.812033 -0.438544 -1.51629e-21)
(0.770491 -0.405914 2.15868e-21)
(0.737122 -0.328875 -6.57003e-22)
(0.718355 -0.207865 7.764e-22)
(0.716829 -0.0614813 -1.87825e-21)
(0.731744 0.0841797 1.76547e-21)
(0.759631 0.206757 1.93826e-21)
(0.794749 0.295518 -8.94469e-22)
(0.829603 0.354683 -2.31027e-21)
(0.856623 0.398886 9.75206e-22)
(0.870904 0.440486 9.13855e-22)
(0.871689 0.477497 1.7219e-22)
(0.861947 0.492641 6.31758e-22)
(0.846314 0.464856 2.06323e-21)
(0.829207 0.382848 2.54556e-22)
(0.814705 0.251072 3.1436e-21)
(0.806947 0.0887667 1.27299e-21)
(0.809019 -0.0758421 3.99554e-21)
(0.820188 -0.213938 4.63283e-21)
(0.835562 -0.3091 2.88388e-21)
(0.847396 -0.361356 5.01599e-22)
(0.848143 -0.384177 -2.42155e-22)
(0.835046 -0.388025 2.07296e-21)
(0.958865 -0.495087 -2.59946e-21)
(0.948999 -0.492824 -2.6138e-22)
(0.932913 -0.478634 -1.47255e-21)
(0.913449 -0.460214 1.01086e-21)
(0.888552 -0.446573 6.45986e-22)
(0.854729 -0.44197 6.08475e-22)
(0.813338 -0.43545 1.88249e-21)
(0.771388 -0.403883 -2.16486e-21)
(0.737469 -0.328661 1.48423e-21)
(0.718118 -0.209589 -1.01667e-21)
(0.716122 -0.0647333 7.29831e-22)
(0.730764 0.0800554 -2.98097e-21)
(0.758608 0.202431 -1.95515e-21)
(0.793907 0.291549 -3.85291e-22)
(0.829132 0.351461 2.97066e-21)
(0.856684 0.396628 -8.80647e-22)
(0.871632 0.439285 2.53757e-22)
(0.873183 0.47739 -9.38406e-22)
(0.864234 0.493605 1.20928e-21)
(0.849308 0.466764 8.17568e-22)
(0.832692 0.385405 1.61574e-21)
(0.818383 0.253794 1.75343e-21)
(0.810527 0.0910724 1.01728e-21)
(0.812282 -0.0743887 -1.96393e-21)
(0.822981 -0.213402 -1.37894e-21)
(0.837849 -0.309127 1.11337e-21)
(0.849308 -0.361348 4.56969e-22)
(0.849861 -0.383662 -1.20743e-22)
(0.836611 -0.386965 -1.74214e-22)
(0.963374 -0.494417 -5.04339e-23)
(0.95259 -0.491852 7.91949e-22)
(0.935647 -0.477442 1.25459e-21)
(0.915527 -0.458652 -2.98321e-21)
(0.890313 -0.444257 8.98529e-22)
(0.856359 -0.438896 -9.83963e-22)
(0.814749 -0.432351 3.48371e-22)
(0.772402 -0.401843 2.01495e-21)
(0.737939 -0.328454 8.59576e-22)
(0.717992 -0.21135 3.14797e-22)
(0.715506 -0.0680474 8.99033e-22)
(0.729854 0.0758556 -8.16934e-22)
(0.757636 0.198028 1.70255e-21)
(0.793097 0.287505 -8.87384e-22)
(0.828682 0.348163 4.95358e-22)
(0.856763 0.394283 -1.10677e-21)
(0.872382 0.43799 -1.0298e-21)
(0.874707 0.477191 9.22626e-22)
(0.86656 0.494501 -1.03715e-21)
(0.852351 0.468647 -1.85621e-21)
(0.836235 0.387991 4.17615e-22)
(0.822127 0.256595 -4.82378e-21)
(0.814179 0.0934903 -1.76635e-21)
(0.815623 -0.0728153 -1.22033e-21)
(0.825853 -0.212762 1.2799e-21)
(0.840207 -0.309083 -3.67619e-21)
(0.851279 -0.361307 -4.71256e-22)
(0.851636 -0.383136 -3.02537e-21)
(0.838237 -0.385904 1.09121e-21)
(0.967919 -0.493658 -1.74214e-21)
(0.95623 -0.490821 -1.9023e-21)
(0.938438 -0.476214 4.64981e-21)
(0.917663 -0.457086 -1.95148e-21)
(0.892137 -0.441963 3.47715e-21)
(0.858073 -0.435837 -4.76936e-22)
(0.816264 -0.429248 -5.53851e-22)
(0.77353 -0.399794 -2.18713e-21)
(0.738529 -0.328253 2.11761e-21)
(0.717977 -0.213142 7.89315e-22)
(0.71498 -0.0714192 -2.1121e-21)
(0.729014 0.0715838 3.88211e-21)
(0.756713 0.19355 -8.59751e-22)
(0.792319 0.283387 -1.85341e-21)
(0.828251 0.344787 -9.87318e-22)
(0.856856 0.391853 1.89531e-21)
(0.873149 0.436598 2.54991e-21)
(0.876256 0.476897 3.258e-22)
(0.868923 0.495325 9.18362e-22)
(0.855441 0.470502 5.73698e-21)
(0.839835 0.390605 -2.697e-21)
(0.825933 0.259474 -2.28761e-21)
(0.817898 0.0960197 -1.59029e-21)
(0.819038 -0.0711219 8.16839e-21)
(0.828801 -0.212018 -1.99521e-21)
(0.842635 -0.308966 2.47592e-21)
(0.853309 -0.361232 5.83871e-21)
(0.853465 -0.382602 -1.00191e-21)
(0.839923 -0.384841 2.77286e-22)
(0.972499 -0.492812 -3.09524e-21)
(0.959916 -0.489734 -2.9039e-21)
(0.941287 -0.474953 1.24982e-21)
(0.919857 -0.455518 5.55481e-21)
(0.894024 -0.439691 -4.68541e-21)
(0.859867 -0.432798 1.52755e-21)
(0.817882 -0.426144 8.85677e-22)
(0.774771 -0.397733 -1.09126e-21)
(0.739237 -0.328052 7.97199e-22)
(0.718073 -0.214961 -2.39177e-21)
(0.714544 -0.0748439 -3.08204e-22)
(0.728243 0.0672436 -4.53183e-22)
(0.755838 0.188999 1.78347e-21)
(0.791571 0.279197 -9.46783e-22)
(0.827838 0.341336 -3.38802e-22)
(0.856963 0.389336 9.46866e-23)
(0.873931 0.435109 -4.87407e-22)
(0.877828 0.476507 -1.00234e-22)
(0.871317 0.496075 -3.75586e-21)
(0.858573 0.472327 -2.1077e-21)
(0.843486 0.393243 -3.07703e-21)
(0.829798 0.26243 2.25517e-21)
(0.821682 0.0986598 3.77829e-21)
(0.822525 -0.0693083 -2.5812e-21)
(0.831826 -0.211167 -1.65259e-21)
(0.845134 -0.308777 7.2475e-22)
(0.855397 -0.361121 -3.54214e-22)
(0.855348 -0.382059 -7.08198e-22)
(0.841669 -0.383779 4.97882e-22)
(0.977112 -0.49188 -1.13984e-21)
(0.963646 -0.488591 6.64717e-22)
(0.944193 -0.473657 1.15175e-21)
(0.922109 -0.453949 -4.31598e-21)
(0.89597 -0.437446 5.98428e-22)
(0.86174 -0.429781 -1.55933e-21)
(0.8196 -0.423039 8.31136e-22)
(0.776122 -0.39566 7.11937e-22)
(0.740062 -0.327849 -9.26677e-22)
(0.71828 -0.216802 -3.04984e-21)
(0.714199 -0.0783168 1.94291e-21)
(0.727539 0.0628384 5.93656e-22)
(0.75501 0.184378 -1.74976e-21)
(0.79085 0.274936 -3.74877e-22)
(0.827441 0.337809 7.47804e-22)
(0.857079 0.386732 -1.56348e-21)
(0.874726 0.433522 -1.39792e-21)
(0.879419 0.47602 -9.27069e-22)
(0.873739 0.49675 -1.56677e-21)
(0.861744 0.474118 3.9888e-21)
(0.847185 0.395903 3.05751e-21)
(0.833718 0.265461 -7.87155e-21)
(0.82553 0.10141 8.47661e-22)
(0.826083 -0.0673747 7.74878e-22)
(0.834925 -0.21021 4.09828e-21)
(0.847702 -0.308513 -5.56143e-22)
(0.857544 -0.360974 2.08148e-21)
(0.857284 -0.381508 4.36406e-22)
(0.843472 -0.382717 -1.01236e-22)
(0.981757 -0.490863 3.34684e-21)
(0.967421 -0.487395 -5.91321e-21)
(0.947154 -0.47233 3.26174e-21)
(0.924418 -0.45238 3.03507e-21)
(0.897975 -0.435229 1.03729e-22)
(0.863688 -0.42679 -4.08883e-22)
(0.821416 -0.419935 -4.58795e-21)
(0.777582 -0.393573 4.65022e-21)
(0.741002 -0.32764 2.05231e-21)
(0.718598 -0.218659 5.6212e-23)
(0.713945 -0.0818329 3.98554e-22)
(0.726902 0.0583722 1.2936e-22)
(0.754228 0.179689 5.55629e-22)
(0.790157 0.270605 -5.57033e-22)
(0.827056 0.334207 -2.97223e-22)
(0.857204 0.384041 1.46902e-21)
(0.87553 0.431837 2.96392e-21)
(0.881025 0.475434 7.7072e-23)
(0.876186 0.497346 1.72586e-21)
(0.86495 0.475874 9.99735e-22)
(0.850929 0.398583 -1.74075e-21)
(0.837691 0.268565 -5.79471e-21)
(0.829437 0.104268 -2.66171e-21)
(0.829709 -0.0653213 6.88244e-21)
(0.838097 -0.209146 -2.9908e-21)
(0.850338 -0.308174 -6.69687e-21)
(0.859747 -0.360792 -5.46253e-22)
(0.859271 -0.380948 2.50143e-22)
(0.845331 -0.381656 1.40166e-21)
(0.986432 -0.489761 -8.83501e-22)
(0.971237 -0.486147 3.14161e-21)
(0.950169 -0.470972 -5.40677e-21)
(0.926782 -0.45081 1.99946e-21)
(0.900035 -0.433042 -1.39027e-21)
(0.865708 -0.423829 -3.55362e-21)
(0.823328 -0.416834 6.26218e-21)
(0.779147 -0.391472 -3.56463e-21)
(0.742053 -0.327422 -9.1222e-22)
(0.719027 -0.220529 9.89008e-23)
(0.713782 -0.0853875 -5.66695e-22)
(0.726333 0.0538487 3.18289e-21)
(0.75349 0.174935 -2.15112e-21)
(0.789489 0.266206 -1.47068e-21)
(0.826684 0.33053 1.45179e-21)
(0.857334 0.381264 5.50944e-22)
(0.87634 0.430052 -1.99637e-21)
(0.882644 0.474747 1.35051e-21)
(0.878655 0.497862 -7.69807e-22)
(0.868187 0.477592 4.85466e-21)
(0.854715 0.40128 1.51281e-21)
(0.841713 0.271739 -4.65095e-22)
(0.833401 0.107234 3.53773e-21)
(0.833401 -0.0631484 -8.01007e-21)
(0.841341 -0.207975 4.57803e-22)
(0.853042 -0.307758 -1.26282e-21)
(0.862007 -0.360572 -5.00738e-22)
(0.861307 -0.380381 5.36515e-22)
(0.847244 -0.380596 9.82541e-24)
(0.991135 -0.488576 8.4366e-21)
(0.975094 -0.484848 2.70465e-21)
(0.953238 -0.469583 -2.91194e-21)
(0.929202 -0.449242 7.22751e-22)
(0.90215 -0.430887 1.39638e-21)
(0.867798 -0.4209 3.11659e-21)
(0.825334 -0.413738 -6.72834e-22)
(0.780817 -0.389354 -2.68369e-21)
(0.743212 -0.327191 3.11554e-21)
(0.719565 -0.222407 -2.67549e-21)
(0.71371 -0.0889756 1.3078e-21)
(0.72583 0.0492718 -1.41381e-21)
(0.752796 0.170119 -1.03935e-21)
(0.788844 0.261741 1.90463e-21)
(0.826322 0.32678 7.83339e-22)
(0.857468 0.3784 -3.08259e-22)
(0.877153 0.428167 -1.83769e-21)
(0.884271 0.473958 1.79794e-21)
(0.88114 0.498295 -1.76879e-21)
(0.871452 0.479268 7.65215e-22)
(0.858538 0.403991 -4.12797e-21)
(0.84578 0.274982 2.10864e-21)
(0.837419 0.110306 4.35152e-22)
(0.837156 -0.0608565 -1.16473e-21)
(0.844655 -0.206695 7.96942e-21)
(0.855814 -0.307265 5.12258e-21)
(0.864323 -0.360315 7.74331e-22)
(0.863392 -0.379806 -2.04657e-22)
(0.84921 -0.379539 -7.15603e-22)
(0.995864 -0.487308 -5.36584e-21)
(0.97899 -0.483501 -3.00669e-21)
(0.95636 -0.468165 -6.85234e-22)
(0.931676 -0.447675 1.91615e-21)
(0.904317 -0.428767 -3.03615e-21)
(0.869953 -0.418008 1.09254e-21)
(0.827431 -0.41065 -5.2922e-22)
(0.78259 -0.387219 1.18437e-21)
(0.744478 -0.326945 -1.49456e-21)
(0.720212 -0.224289 -8.68323e-23)
(0.713732 -0.0925926 1.10375e-22)
(0.725395 0.0446456 2.91667e-21)
(0.752144 0.165243 -4.87948e-21)
(0.788222 0.257211 2.23199e-21)
(0.825967 0.322958 -1.01775e-21)
(0.857602 0.37545 5.961e-22)
(0.877968 0.426181 6.75758e-22)
(0.885904 0.473066 1.56687e-21)
(0.883639 0.498643 -2.05108e-21)
(0.87474 0.480899 -3.10849e-21)
(0.862394 0.406713 -2.73126e-21)