/*--------------------------------*- C++ -*----------------------------------*\
  =========                 |
  \\      /  F ield         | OpenFOAM: The Open Source CFD Toolbox
   \\    /   O peration     | Website:  https://openfoam.org
    \\  /    A nd           | Version:  7
     \\/     M anipulation  |
\*---------------------------------------------------------------------------*/
FoamFile
{
    version     2.0;
    format      ascii;
    class       surfaceScalarField;
    location    "120";
    object      phi;
}
// * * * * * * * * * * * * * * * * * * * * * * * * * * * * * * * * * * * * * //

dimensions      [0 3 -1 0 0 0 0];

internalField   nonuniform List<scalar> 
8923
(
0.000176519
-0.00891051
0.00883053
0.000338757
-0.0074878
0.00732556
0.000551586
-0.00492624
0.00471342
0.000775907
-0.00162697
0.00140265
0.000989731
0.00185477
-0.0020686
0.00117468
0.00494187
-0.00512682
0.00131616
0.00722158
-0.00736306
0.00140768
0.00860637
-0.00869789
0.00145245
0.00929036
-0.00933513
0.00146289
0.0095147
-0.00952514
0.00144504
0.00948439
-0.00946655
0.00138959
0.00951743
-0.00946198
0.00129876
0.0098098
-0.00971897
0.00121311
0.00985026
-0.00976461
0.00118579
0.00857554
-0.00854822
0.00123426
0.00546925
-0.00551772
0.00133655
0.00119656
-0.00129885
0.00145711
-0.0030035
0.00288293
0.00156268
-0.00622387
0.00611831
0.00163372
-0.00824762
0.00817658
0.0016709
-0.00928663
0.00924945
0.00168242
-0.00962773
0.00961621
-0.00968604
0.00970321
0.000148262
-0.00897034
0.000296421
-0.00763595
0.000506501
-0.00513632
0.000735763
-0.00185623
0.000958273
0.00163226
0.00115333
0.00474681
0.00130468
0.00707023
0.00140464
0.00850641
0.00145625
0.00923876
0.00147201
0.00949894
0.00145758
0.00949882
0.0014041
0.00957092
0.00131545
0.00989845
0.00123265
0.00993306
0.00120666
0.00860153
0.00125294
0.00542298
0.00135012
0.00109937
0.0014645
-0.00311787
0.00156424
-0.00632361
0.00163029
-0.00831367
0.00166331
-0.00931966
0.00167174
-0.00963616
-0.00966684
0.000124424
-0.00900983
0.000256905
-0.00776844
0.000462661
-0.00534208
0.000695908
-0.00208948
0.000926539
0.00140163
0.0011314
0.00454195
0.00129252
0.00690911
0.00140098
0.00839795
0.00145958
0.00918016
0.00148083
0.00947769
0.00147
0.00950964
0.00141874
0.00962218
0.00133255
0.00998464
0.00125266
0.0100129
0.00122777
0.00862642
0.00127153
0.00537922
0.00136335
0.00100755
0.00147137
-0.00322589
0.00156524
-0.00641748
0.00162635
-0.00837478
0.00165532
-0.00934863
0.00166075
-0.0096416
-0.00964576
0.000105203
-0.00902913
0.000220541
-0.00788377
0.000420295
-0.00554184
0.000656491
-0.00232567
0.000894615
0.00116351
0.00110895
0.00432761
0.00127969
0.00673838
0.00139667
0.00828097
0.00146242
0.00911441
0.00148932
0.00945079
0.00148227
0.00951669
0.00143351
0.00967095
0.00135004
0.0100681
0.0012731
0.0100899
0.00124908
0.00865044
0.00129
0.0053383
0.00137621
0.000921337
0.00147773
-0.00332741
0.00156569
-0.00650544
0.00162193
-0.00843102
0.00164692
-0.00937362
0.00164946
-0.00964414
-0.00962294
9.07409e-05
-0.00902869
0.000187647
-0.00798068
0.000379633
-0.00573382
0.000617661
-0.0025637
0.000862585
0.000918585
0.001086
0.00410419
0.00126619
0.0065582
0.00139169
0.00815546
0.00146473
0.00904138
0.00149746
0.00941806
0.00149437
0.00951978
0.00144836
0.00971695
0.00136789
0.0101486
0.00129393
0.0101638
0.00127054
0.00867383
0.00130833
0.0053005
0.00138872
0.000840952
0.0014836
-0.00342229
0.0015656
-0.00658744
0.00161703
-0.00848245
0.00163815
-0.00939475
0.0016379
-0.00964388
-0.00959851
8.11217e-05
-0.00900927
0.000158522
-0.00805808
0.000340913
-0.00591621
0.000579562
-0.00280235
0.000830535
0.000667611
0.00106259
0.00387213
0.00125201
0.00636878
0.00138604
0.00802143
0.00146649
0.00896093
0.00150519
0.00937936
0.00150624
0.00951873
0.00146327
0.00975992
0.00138604
0.0102258
0.00131508
0.0102348
0.00129209
0.00869682
0.00132649
0.0052661
0.00140085
0.000766593
0.00148898
-0.00351042
0.001565
-0.00666345
0.00161166
-0.00852911
0.00162901
-0.0094121
0.00162606
-0.00964093
-0.0095726
7.6364e-05
-0.00897196
0.00013344
-0.00811516
0.000304376
-0.00608715
0.000542335
-0.00304031
0.000798551
0.000411395
0.00103876
0.00363192
0.00123716
0.00617039
0.00137969
0.0078789
0.00146767
0.00887295
0.00151249
0.00933454
0.00151787
0.00951334
0.00147821
0.00979958
0.00140445
0.0102996
0.0013365
0.0103028
0.0013137
0.00871962
0.00134445
0.00523536
0.0014126
0.000698436
0.00149388
-0.0035917
0.00156388
-0.00673345
0.00160585
-0.00857108
0.00161953
-0.00942577
0.00161397
-0.00963538
-0.00954534
7.64154e-05
-0.00891808
0.000112644
-0.00815139
0.000270275
-0.00624478
0.00050612
-0.00327615
0.000766718
0.000150797
0.00101453
0.00338411
0.00122164
0.00596328
0.00137262
0.00772791
0.00146823
0.00877734
0.00151931
0.00928345
0.00152921
0.00950344
0.00149312
0.00983568
0.00142307
0.0103696
0.00135813
0.0103677
0.00133531
0.00874245
0.00136217
0.0052085
0.00142396
0.000636639
0.0014983
-0.00366604
0.00156227
-0.00679742
0.00159961
-0.00860842
0.00160971
-0.00943587
0.00160164
-0.00962731
-0.00951685
8.11448e-05
-0.0088492
9.63403e-05
-0.00816658
0.000238872
-0.00638731
0.000471057
-0.00350834
0.00073512
-0.000113266
0.000989939
0.00312929
0.00120544
0.00574777
0.00136481
0.00756855
0.00146814
0.00867401
0.00152562
0.00922597
0.00154022
0.00948884
0.00150796
0.00986794
0.00144184
0.0104357
0.00137991
0.0104296
0.00135687
0.00876549
0.00137963
0.00518575
0.00143492
0.000581339
0.00150225
-0.00373337
0.00156017
-0.00685534
0.00159294
-0.00864119
0.00159956
-0.00944249
0.00158907
-0.00961683
-0.00948724
9.03391e-05
-0.00876705
8.46941e-05
-0.00816094
0.000210434
-0.00651305
0.000437315
-0.00373522
0.000703798
-0.000379749
0.000965022
0.00286807
0.00118858
0.00552421
0.00135625
0.00740088
0.00146737
0.00856289
0.00153136
0.00916197
0.00155085
0.00946935
0.00152269
0.0098961
0.00146069
0.0104977
0.00140176
0.0104885
0.00137832
0.00878893
0.00139679
0.00516728
0.00144547
0.000532654
0.00150573
-0.00379363
0.00155759
-0.0069072
0.00158586
-0.00866945
0.0015891
-0.00944573
0.00157628
-0.00960401
-0.00945663
0.000103709
-0.00867348
7.78188e-05
-0.00813505
0.000185226
-0.00662046
0.000404988
-0.00395498
0.000672862
-0.000647623
0.000939811
0.00260112
0.00117106
0.00529297
0.00134692
0.00722502
0.00146587
0.00844393
0.0015365
0.00909135
0.00156106
0.00944479
0.00153725
0.00991991
0.00147958
0.0105554
0.00142364
0.0105445
0.00139963
0.00881294
0.00141363
0.00515328
0.0014556
0.000490679
0.00150875
-0.00384677
0.00155454
-0.006953
0.00157837
-0.00869327
0.00157834
-0.00944571
0.00156327
-0.00958894
0.00153176
-0.00942513
-0.00936603
0.000120902
-0.00857039
7.57621e-05
-0.00808991
0.000163504
-0.0067082
0.000374216
-0.00416569
0.000642395
-0.000915802
0.000914338
0.00232918
0.00115287
0.00505444
0.00133679
0.00704109
0.00146362
0.0083171
0.00154098
0.00901399
0.00157079
0.00941499
0.00155159
0.00993911
0.00149842
0.0106086
0.00144546
0.0105974
0.00142073
0.00883767
0.00143011
0.0051439
0.0014653
0.000455493
0.0015113
-0.00389278
0.00155104
-0.00699273
0.00157048
-0.00871271
0.00156728
-0.00944251
0.00155005
-0.0095717
0.00151774
-0.00939282
-0.00930425
0.000141513
-0.00845967
7.84899e-05
-0.00802688
0.000145517
-0.00677523
0.000345195
-0.00436537
0.00061245
-0.00118306
0.00088864
0.00205299
0.00113403
0.00480905
0.00132586
0.00684926
0.00146058
0.00818239
0.00154475
0.00892982
0.00157999
0.00937975
0.00156564
0.00995346
0.00151716
0.0106571
0.00146717
0.0106474
0.00144157
0.00886327
0.00144621
0.00513926
0.00147455
0.000427158
0.0015134
-0.00393164
0.00154708
-0.00702641
0.0015622
-0.00872783
0.00155594
-0.00943625
0.00153662
-0.00955238
0.0015036
-0.00935979
-0.00924282
0.000165098
-0.00834319
8.58737e-05
-0.00794766
0.000131492
-0.00682085
0.000318129
-0.00455201
0.000583104
-0.00144803
0.000862753
0.00177334
0.00111454
0.00455726
0.00131411
0.00664969
0.0014567
0.00803979
0.00154778
0.00883875
0.0015886
0.00933893
0.00157934
0.00996272
0.00153572
0.0107007
0.00148869
0.0106945
0.00146211
0.00888985
0.0014619
0.00513947
0.00148334
0.000405716
0.00151505
-0.00396334
0.00154268
-0.00705404
0.00155354
-0.00873869
0.00154431
-0.00942702
0.00152298
-0.00953105
0.00148933
-0.00932615
-0.00918188
0.000191186
-0.0082227
9.76891e-05
-0.00785416
0.000121621
-0.00684478
0.000293235
-0.00472362
0.000554439
-0.00170924
0.000836713
0.00149106
0.00109441
0.00429956
0.00130152
0.00644259
0.00145196
0.00788935
0.00155
0.00874071
0.00159658
0.00929234
0.00159263
0.00996667
0.00155403
0.0107393
0.00150997
0.0107385
0.0014823
0.00891752
0.00147715
0.00514463
0.00149167
0.000391193
0.00151624
-0.00398791
0.00153784
-0.00707565
0.0015445
-0.00874535
0.00153241
-0.00941493
0.00150915
-0.00950779
0.00147495
-0.00929194
-0.00912157
0.00021929
-0.00809985
0.000113625
-0.0077485
0.000116048
-0.0068472
0.000270748
-0.00487832
0.00052655
-0.00196504
0.000810562
0.00120705
0.00107367
0.00403645
0.00128808
0.00622817
0.00144631
0.00773111
0.00155136
0.00863566
0.00160386
0.00923985
0.00160545
0.00996509
0.00157202
0.0107727
0.00153093
0.0107796
0.0015021
0.00894635
0.00149193
0.0051548
0.00149952
0.000383596
0.00151697
-0.00400536
0.00153258
-0.00709125
0.00153508
-0.00874785
0.00152023
-0.00940008
0.00149512
-0.00948268
0.00146043
-0.00925725
-0.00906201
0.000248919
-0.00797614
0.000133296
-0.00763287
0.000114853
-0.00682876
0.000250922
-0.00501439
0.000499551
-0.00221367
0.000784343
0.000922261
0.00105231
0.00376848
0.00127378
0.00600671
0.00143973
0.00756516
0.00155182
0.00852357
0.00161038
0.00918129
0.00161772
0.00995775
0.00158962
0.0108008
0.00155152
0.0108177
0.00152144
0.00897643
0.00150621
0.00517003
0.00150688
0.000382925
0.00151726
-0.00401574
0.00152689
-0.00710088
0.0015253
-0.00874626
0.00150778
-0.00938256
0.00148089
-0.00945579
0.00144578
-0.00922214
-0.00900332
0.000279587
-0.00785288
0.000156257
-0.00750954
0.000118045
-0.00679055
0.000234015
-0.00513036
0.000473577
-0.00245323
0.000758111
0.000637727
0.00103038
0.00349621
0.00125861
0.00577848
0.00143217
0.0073916
0.00155133
0.00840441
0.00161609
0.00911653
0.00162938
0.00994446
0.00160675
0.0108234
0.00157166
0.0108528
0.0015403
0.00900778
0.00151998
0.00519035
0.00151375
0.000389163
0.0015171
-0.00401909
0.00152078
-0.00710457
0.00151514
-0.00874062
0.00149506
-0.00936248
0.00146647
-0.0094272
0.00143098
-0.00918665
-0.00894562
0.000310828
-0.00773119
0.000182018
-0.00738073
0.000125545
-0.00673407
0.000220282
-0.0052251
0.000448793
-0.00268174
0.00073193
0.000354589
0.00100788
0.00322026
0.00124257
0.0055438
0.00142361
0.00721055
0.00154984
0.00827818
0.00162092
0.00904545
0.00164035
0.00992504
0.00162334
0.0108404
0.00159129
0.0108848
0.00155863
0.00904044
0.00153321
0.00521578
0.0015201
0.000402271
0.00151648
-0.00401547
0.00151426
-0.00710235
0.00150462
-0.00873098
0.00148207
-0.00933993
0.00145186
-0.00939698
0.00141604
-0.00915084
-0.00888902
0.000342199
-0.00761198
0.000210054
-0.00724859
0.000137184
-0.0066612
0.000209955
-0.00529787
0.000425404
-0.00289719
0.000705894
7.40989e-05
0.000984863
0.00294129
0.00122565
0.005303
0.00141402
0.00702219
0.0015473
0.0081449
0.00162482
0.00896792
0.00165058
0.00989928
0.00163932
0.0108517
0.00161036
0.0109138
0.00157639
0.00907441
0.00154587
0.00524629
0.00152595
0.000422197
0.00151542
-0.00400494
0.00150734
-0.00709427
0.00149374
-0.00871738
0.00146881
-0.00931501
0.00143705
-0.00936521
0.00140094
-0.00911473
-0.00883361
0.00037329
-0.00749597
0.000239825
-0.00711512
0.000152706
-0.00657408
0.000203236
-0.0053484
0.000403633
-0.00309759
0.000680065
-0.000202333
0.000961346
0.00266001
0.00120787
0.00505648
0.00140336
0.0068267
0.00154366
0.0080046
0.00162773
0.00888385
0.00165999
0.00986702
0.00165462
0.0108571
0.00162881
0.0109396
0.00159354
0.00910968
0.00155796
0.00528188
0.00153127
0.000448882
0.00151391
-0.00398757
0.00150001
-0.00708037
0.00148249
-0.00869987
0.00145528
-0.00928779
0.00142204
-0.00933197
0.00138567
-0.00907836
-0.00877948
0.000403731
-0.00738368
0.000270788
-0.00698218
0.000171767
-0.00647506
0.00020026
-0.00537689
0.000383736
-0.00328106
0.000654495
-0.000473092
0.000937376
0.00237713
0.00118921
0.00480465
0.00139162
0.00662429
0.00153888
0.00785735
0.00162959
0.00879314
0.0016685
0.00982811
0.00166916
0.0108564
0.00164657
0.0109622
0.00161004
0.00914622
0.00156943
0.00532248
0.00153607
0.000482249
0.00151195
-0.00396345
0.00149228
-0.0070607
0.00147089
-0.00867848
0.00144147
-0.00925838
0.00140683
-0.00929733
0.00137023
-0.00904176
-0.0087267
0.000433193
-0.00727547
0.000302406
-0.00685139
0.000193952
-0.00636661
0.000201093
-0.00538403
0.00036586
-0.00344583
0.000629397
-0.000736629
0.000912995
0.00209353
0.00116969
0.00454796
0.00137876
0.00641521
0.00153291
0.0077032
0.00163033
0.00869571
0.00167607
0.00978237
0.00168289
0.0108496
0.0016636
0.0109815
0.00162585
0.00918396
0.0015803
0.00536804
0.00154032
0.000522222
0.00150954
-0.00393267
0.00148416
-0.00703532
0.00145893
-0.00865325
0.00142739
-0.00922684
0.00139143
-0.00926137
0.00135461
-0.00900494
-0.00867533
0.000461393
-0.0071715
0.000334165
-0.00672417
0.000218783
-0.00625123
0.000205725
-0.00537097
0.000350324
-0.00359043
0.000604878
-0.000991182
0.000888266
0.00181014
0.00114931
0.00428692
0.00136477
0.00619974
0.00152571
0.00754226
0.00162991
0.00859151
0.0016826
0.00972968
0.00169573
0.0108365
0.00167984
0.0109974
0.00164095
0.00922285
0.00159052
0.00541847
0.00154405
0.000568694
0.00150669
-0.00389531
0.00147564
-0.00700427
0.0014466
-0.00862421
0.00141303
-0.00919326
0.00137582
-0.00922417
0.0013388
-0.00896792
-0.00862543
0.000488092
0.000365583
-0.00660166
0.00024574
-0.00613138
0.000214069
-0.0053393
0.000337445
-0.00371381
0.000581129
-0.00123487
0.000863255
0.00152802
0.0011281
0.00402208
0.00134964
0.0059782
0.00151725
0.00737465
0.00162827
0.00848049
0.00168805
0.0096699
0.00170762
0.0108169
0.00169524
0.0110098
0.00165531
0.00926278
0.0016001
0.00547368
0.00154724
0.000621552
0.00150339
-0.00385146
0.00146674
-0.00696762
0.00143392
-0.0085914
0.00139838
-0.00915771
0.00136001
-0.0091858
0.0013228
-0.00893072
-0.00857703
0.000396217
-0.00648477
0.000274269
-0.00600944
0.000225947
-0.00529098
0.00032746
-0.00381532
0.000558366
-0.00146577
0.000838036
0.00124835
0.00110606
0.00375406
0.00133333
0.00575093
0.00150748
0.0072005
0.00162536
0.00836262
0.00169235
0.0096029
0.00171849
0.0107908
0.00170974
0.0110185
0.00166888
0.00930364
0.00160902
0.00553354
0.00154989
0.000680674
0.00149966
-0.00380122
0.00145745
-0.00692541
0.00142089
-0.00855484
0.00138344
-0.00912026
0.00134399
-0.00914635
0.00130659
-0.00889333
-0.00853017
0.00042567
-0.00637418
0.00030381
-0.00588758
0.000241089
-0.00522826
0.000320548
-0.00389478
0.000536816
-0.00168204
0.000812698
0.000972466
0.00108322
0.00348354
0.00131585
0.00551829
0.00149638
0.00701998
0.00162112
0.00823788
0.00169543
0.00952859
0.00172829
0.0107579
0.00172332
0.0110235
0.00168165
0.0093453
0.00161727
0.00559793
0.00155202
0.000745927
0.00149549
-0.00374469
0.00144778
-0.0068777
0.00140749
-0.00851456
0.0013682
-0.00908096
0.00132775
-0.0091059
0.00129018
-0.00885576
-0.00848484
0.000453599
-0.00627031
0.000333804
-0.00576778
0.000259139
-0.00515359
0.000316828
-0.00395247
0.000516729
-0.00188194
0.00078735
0.000701846
0.0010596
0.00321129
0.00129719
0.0052807
0.00148391
0.00683325
0.00161551
0.00810628
0.00169724
0.00944686
0.00173695
0.0107182
0.00173591
0.0110245
0.0016936
0.00938762
0.00162485
0.00566667
0.00155362
0.00081716
0.00149089
-0.00368196
0.00143773
-0.00682454
0.00139375
-0.00847058
0.00135267
-0.00903989
0.00131129
-0.00906452
0.00127355
-0.00881803
-0.00844106
0.00047971
-0.00617337
0.000363717
-0.00565179
0.000279671
-0.00506955
0.00031635
-0.00398914
0.000498365
-0.00206396
0.000762128
0.000438083
0.00103525
0.00293817
0.00127733
0.00503862
0.00147004
0.00664054
0.00160848
0.00796784
0.00169771
0.00935763
0.00174442
0.0106715
0.00174749
0.0110214
0.00170469
0.00943043
0.00163176
0.0057396
0.00155471
0.000894212
0.00148587
-0.00361312
0.0014273
-0.00676597
0.00137964
-0.00842291
0.00133683
-0.00899708
0.0012946
-0.00902229
0.0012567
-0.00878013
-0.00839881
0.000503768
-0.00608338
0.000393043
-0.00554106
0.000302207
-0.00497871
0.000319081
-0.00400602
0.000482
-0.00222688
0.000737227
0.000182856
0.00101021
0.00266519
0.00125628
0.00479255
0.00145476
0.00644206
0.0016
0.0078226
0.0016968
0.00926083
0.00175065
0.0106176
0.001758
0.0110141
0.00171491
0.00947352
0.001638
0.0058165
0.0015553
0.000976913
0.00148044
-0.00353826
0.0014165
-0.00670204
0.00136518
-0.00837159
0.00132068
-0.00895258
0.00127769
-0.0089793
0.00123963
-0.00874207
-0.00835806
0.00052559
-0.00600019
0.000421323
-0.00543679
0.000326228
-0.00488362
0.000324907
-0.0040047
0.000467854
-0.00236982
0.000712822
-6.21126e-05
0.000984546
0.00239346
0.00123405
0.00454305
0.00143803
0.00623807
0.00159002
0.00767062
0.00169445
0.0091564
0.00175558
0.0105565
0.00176742
0.0110022
0.00172423
0.00951671
0.00164358
0.00589715
0.00155542
0.00106508
0.0014746
-0.00345744
0.00140534
-0.00663277
0.00135036
-0.00831662
0.00130422
-0.00890643
0.00126053
-0.00893561
0.00122233
-0.00870387
-0.00831879
0.00054504
-0.00592352
0.000448145
-0.0053399
0.000351201
-0.00478667
0.00033361
-0.00398711
0.000456202
-0.00249242
0.000688996
-0.000294907
0.000958359
0.0021241
0.00121066
0.00429075
0.00141986
0.00602887
0.0015785
0.00751198
0.00169061
0.00904429
0.00175916
0.010488
0.00177569
0.0109857
0.00173266
0.00955975
0.00164852
0.00598129
0.0015551
0.0011585
0.00146839
-0.00337073
0.0013938
-0.00655819
0.00133519
-0.00825801
0.00128743
-0.00885867
0.00124314
-0.00889132
0.00120479
-0.00866552
-0.00828094
0.000562019
-0.00585296
0.000473145
-0.00525103
0.000376585
-0.00469011
0.000344892
-0.00395541
0.000446959
-0.00259448
0.000666177
-0.000514124
0.000931767
0.00185851
0.00118616
0.00403636
0.00140024
0.00581479
0.00156542
0.00734679
0.00168523
0.00892448
0.00176135
0.0104118
0.0017828
0.0109643
0.00174016
0.00960238
0.00165286
0.00606859
0.00155438
0.00125698
0.00146181
-0.00327816
0.0013819
-0.00647828
0.00131967
-0.00819577
0.00127032
-0.00880932
0.00122549
-0.00884649
0.00118702
-0.00862705
-0.00824447
0.000576481
-0.00578805
0.000496022
-0.00517057
0.000401866
-0.00459596
0.000358391
-0.00391194
0.00044026
-0.00267635
0.000644531
-0.000718395
0.000904943
0.0015981
0.0011606
0.0037807
0.00137917
0.00559622
0.00155076
0.0071752
0.00167828
0.00879697
0.00176209
0.010328
0.00178869
0.0109377
0.00174675
0.00964433
0.00165665
0.00615869
0.00155333
0.0013603
0.00145488
-0.00317971
0.00136964
-0.00639305
0.00130379
-0.00812991
0.00125288
-0.00875842
0.00120758
-0.00880119
0.001169
-0.00858847
-0.00820931
0.00058849
-0.00572823
0.000516589
-0.00509867
0.000426601
-0.00450597
0.000373726
-0.00385906
0.000436187
-0.00273881
0.000624336
-0.000906544
0.000878108
0.00134433
0.00113409
0.00352472
0.00135669
0.00537362
0.00153451
0.00699738
0.00166971
0.00866177
0.00176136
0.0102364
0.00179334
0.0109057
0.00175242
0.00968525
0.00165996
0.00625115
0.00155202
0.00146824
0.00144763
-0.00307532
0.00135704
-0.00630245
0.00128757
-0.00806045
0.00123512
-0.00870597
0.00118943
-0.0087555
0.00115075
-0.00854979
-0.00817539
0.000598137
-0.00567289
0.000534707
-0.00503524
0.000450377
-0.00442164
0.000390477
-0.00379916
0.000434675
-0.00278301
0.000605849
-0.00107772
0.000851531
0.00109865
0.0011068
0.00326945
0.00133287
0.00514754
0.00151666
0.00681359
0.0016595
0.00851893
0.00175911
0.0101368
0.00179671
0.0108681
0.00175722
0.00972474
0.00166291
0.00634546
0.00155053
0.00158062
0.00144009
-0.00296489
0.0013441
-0.00620646
0.00127104
-0.00798738
0.00121706
-0.008652
0.00117103
-0.00870946
0.00113227
-0.00851104
-0.00814264
0.000605077
0.000549938
-0.0049801
0.000472567
-0.00434427
0.00040801
-0.00373461
0.000435403
-0.0028104
0.000589171
-0.00123149
0.000825483
0.000862333
0.00107896
0.00301598
0.00130784
0.00491866
0.00149728
0.00662415
0.00164765
0.00836855
0.00175531
0.0100291
0.00179878
0.0108246
0.00176126
0.00976226
0.0016658
0.00644091
0.00154911
0.00169731
0.00143234
-0.00284811
0.00133079
-0.00610491
0.00125407
-0.00791067
0.00119856
-0.00859649
0.00115226
-0.00866316
0.00111347
-0.00847225
-0.00811099
0.000561588
-0.0049331
0.000492398
-0.00427508
0.00042559
-0.0036678
0.000437899
-0.00282271
0.000574201
-0.00136779
0.000800135
0.000636399
0.00105082
0.0027653
0.00128178
0.0046877
0.00147643
0.0064295
0.0016342
0.00821079
0.00175002
0.00991328
0.00179969
0.010775
0.00176504
0.00979691
0.00166941
0.00653654
0.00154832
0.0018184
0.0014245
-0.0027243
0.00131697
-0.00599739
0.00123647
-0.00783016
0.00117943
-0.00853945
0.00113297
-0.0086167
0.00109424
-0.00843352
-0.00808042
0.000571122
-0.0048936
0.000510816
-0.00421477
0.000443832
-0.00360082
0.000442682
-0.00282156
0.000561414
-0.00148652
0.000775937
0.000421876
0.00102287
0.00251837
0.00125506
0.00445551
0.00145434
0.00623022
0.00161928
0.00804584
0.00174342
0.00978914
0.00179986
0.0107185
0.00176934
0.00982743
0.00167429
0.0066316
0.00154801
0.00194467
0.00141634
-0.00259262
0.00130279
-0.00588383
0.00121866
-0.00774603
0.00116018
-0.00848097
0.00111363
-0.00857015
0.00107498
-0.00839486
-0.00805081
0.000583512
-0.00485994
0.000531824
-0.00416309
0.000466084
-0.00353507
0.00045288
-0.00280836
0.000554179
-0.00158782
0.000756115
0.00021994
0.000997696
0.00227679
0.0012297
0.0042235
0.00143251
0.00602741
0.00160401
0.00787434
0.00173631
0.00965684
0.00179985
0.010655
0.00177406
0.00985322
0.00167827
0.00672739
0.00154517
0.00207777
0.00140673
-0.00245418
0.00128923
-0.00576634
0.00120265
-0.00765945
0.00114294
-0.00842125
0.0010961
-0.00852332
0.00105723
-0.008356
-0.00802181
0.00409896
-0.00445341
0.00365071
-0.00371484
0.00312376
-0.00300812
0.00264849
-0.00233309
0.00243281
-0.00137214
0.00253806
0.000114686
0.00283455
0.0019803
0.00318395
0.0038741
0.00347808
0.00573329
0.00370789
0.00764453
0.00395178
0.00941296
0.00429499
0.0103118
0.00481459
0.00933363
0.00547034
0.00607163
0.00602756
0.00152056
0.00636867
-0.00279529
0.00645357
-0.00585123
0.00634871
-0.00755459
0.00614003
-0.00821258
0.00588176
-0.00826504
0.00561097
-0.00808521
0.00535979
-0.00777063
-0.00734303
0.00439845
-0.00407053
0.00400959
-0.00332598
0.00354743
-0.00254596
0.00306241
-0.00184806
0.00273803
-0.00104776
0.00270318
0.000149535
0.00292327
0.00176022
0.00323776
0.0035596
0.00353946
0.00543159
0.00382033
0.00736366
0.00413755
0.00909574
0.00456339
0.00988591
0.00516014
0.00873688
0.00584041
0.00539135
0.0064233
0.000937668
0.00672861
-0.0031006
0.00676557
-0.00588819
0.00660654
-0.00739556
0.00635583
-0.00796187
0.00607193
-0.00798114
0.00578334
-0.00779663
0.00551816
-0.00750545
-0.00708744
0.00468926
-0.00370313
0.00434458
-0.0029813
0.00395566
-0.00215704
0.00350271
-0.00139511
0.00311637
-0.000661428
0.00295857
0.000307339
0.00306242
0.00165636
0.00332109
0.00330094
0.00362725
0.00512543
0.00395626
0.00703465
0.0043425
0.00870949
0.00485884
0.00936958
0.00554585
0.00804987
0.00627652
0.00466068
0.00682943
0.00038476
0.00709299
-0.00336416
0.00706987
-0.00586507
0.00686045
-0.00718614
0.0065742
-0.00767562
0.0062689
-0.00767583
0.0059645
-0.00749223
0.00568545
-0.00722639
-0.00682726
0.00497172
-0.00335304
0.00466047
-0.00267004
0.00434246
-0.00183903
0.00395951
-0.00101215
0.00356236
-0.000264286
0.00330517
0.00056453
0.00328453
0.00167701
0.00346468
0.00312079
0.00376059
0.00482952
0.00412922
0.00666602
0.00458812
0.00825059
0.00520369
0.00875401
0.00597584
0.00727772
0.00673208
0.00390444
0.00725845
-0.00014161
0.00745502
-0.00356073
0.00736729
-0.00577733
0.00710811
-0.00692697
0.0067885
-0.00735601
0.00646442
-0.00735176
0.00614742
-0.00717523
0.00585638
-0.00693535
-0.00656298
0.00524877
-0.00302303
0.00496341
-0.00238468
0.00470395
-0.00157958
0.00440549
-0.000713686
0.00405215
8.90548e-05
0.00374651
0.000870166
0.00361685
0.00180667
0.00370391
0.00303373
0.00396775
0.00456567
0.00436308
0.00627068
0.00489484
0.00771883
0.0056064
0.00804245
0.00644836
0.00643576
0.00721216
0.00314064
0.00768583
-0.00061528
0.00780538
-0.00368028
0.00765111
-0.00562306
0.0073461
-0.00662196
0.00699781
-0.00700772
0.00665865
-0.0070126
0.00633248
-0.00684906
0.00603144
-0.0066343
-0.00629468
0.00552169
-0.00271527
0.00525819
-0.00212119
0.00504128
-0.00136267
0.00482363
-0.000496028
0.00455191
0.000360767
0.00426249
0.00115959
0.00406999
0.00199917
0.00407008
0.00303363
0.0042835
0.00435225
0.00468795
0.00586623
0.0052817
0.00712509
0.00607443
0.00724972
0.0069626
0.00554759
0.00770375
0.00239948
0.00810085
-0.00101238
0.00813483
-0.00371426
0.00791617
-0.0054044
0.00757205
-0.00627784
0.00720118
-0.00663685
0.00685097
-0.00666239
0.0065192
-0.00651729
0.00621053
-0.00632563
-0.00602243
0.0057911
-0.00243058
0.00554849
-0.00187858
0.00536091
-0.00117509
0.00520704
-0.000342164
0.0050297
0.000538109
0.0048117
0.0013776
0.0046226
0.00218827
0.0045723
0.00308393
0.00473514
0.00418941
0.00513164
0.00546973
0.0057667
0.00649003
0.00661354
0.00640288
0.00750961
0.00465153
0.00818957
0.00171952
0.00848885
-0.00131166
0.00843451
-0.00365992
0.00815843
-0.00512833
0.00778439
-0.00590379
0.00739809
-0.00625056
0.00704106
-0.00630536
0.0067072
-0.00618343
0.00639362
-0.00601205
-0.0057463
0.00605766
-0.00216855
0.00583608
-0.00165699
0.00567008
-0.00100909
0.00555949
-0.00023158
0.00546534
0.000632263
0.00534648
0.00149645
0.0052226
0.00231214
0.00518057
0.00312597
0.0053193
0.00405068
0.00570298
0.00508605
0.00635511
0.0058379
0.00721489
0.0055431
0.00806731
0.0037991
0.00864659
0.00114024
0.00883448
-0.00149954
0.00869715
-0.00352259
0.00837543
-0.00480661
0.00798252
-0.00551089
0.00758854
-0.00585658
0.00722885
-0.00594566
0.00689612
-0.0058507
0.0065806
-0.00569653
-0.00546658
0.00632219
-0.0019281
0.00612143
-0.00145624
0.0059739
-0.000861557
0.00589034
-0.000148025
0.00585558
0.000667028
0.0058319
0.00152013
0.00580677
0.00233728
0.00582812
0.00310462
0.00598635
0.00389244
0.00636966
0.00470274
0.00701763
0.00518993
0.00784179
0.00471894
0.0085984
0.0030425
0.00904823
0.000690398
0.00912451
-0.00157582
0.00891863
-0.00331671
0.00856693
-0.00445491
0.00816698
-0.00511094
0.00777299
-0.00546259
0.00741454
-0.00558721
0.00708566
-0.00552182
0.00677132
-0.00538219
-0.00518396
0.00658552
-0.00170806
0.00640464
-0.00127535
0.00627452
-0.000731441
0.00620869
-8.21962e-05
0.0062097
0.000666022
0.0062567
0.00147313
0.00632829
0.00226569
0.00643951
0.00299341
0.00665338
0.00367857
0.0070553
0.00430081
0.00768401
0.00456122
0.00843142
0.00397153
0.00905705
0.00241687
0.00937135
0.000376095
0.00935177
-0.00155623
0.00909936
-0.0030643
0.00873514
-0.00409069
0.00833937
-0.00471517
0.00795228
-0.0050755
0.00759851
-0.00523344
0.00727561
-0.00519892
0.00696547
-0.00507205
-0.00489966
0.00684828
-0.00150742
0.00668586
-0.00111293
0.00657221
-0.000617791
0.00652012
-3.01e-05
0.00654046
0.00064568
0.00662942
0.00138417
0.00677173
0.00212338
0.00696499
0.00280014
0.00724401
0.00339956
0.00767273
0.00387209
0.00827072
0.00396323
0.00891939
0.00332286
0.00940855
0.00192772
0.00960504
0.000179603
0.00951853
-0.00146972
0.00924469
-0.00279046
0.00888433
-0.00373032
0.00850198
-0.00433283
0.00812744
-0.00470096
0.0077813
-0.0048873
0.00746586
-0.00488348
0.00716265
-0.00476884
-0.0046156
0.00711069
-0.00132525
0.00696531
-0.000967561
0.00686693
-0.000519411
0.00682661
1.0229e-05
0.00685753
0.000614757
0.00696622
0.00127548
0.00714737
0.00194223
0.00739416
0.00255335
0.00772194
0.00307177
0.00816762
0.00342642
0.00872402
0.00340683
0.00927226
0.00277462
0.00964491
0.00155507
0.00975762
6.6892e-05
0.00963645
-0.00134856
0.00936363
-0.00251763
0.00901983
-0.00338652
0.00865742
-0.00397042
0.00829951
-0.00434305
0.00796348
-0.00455127
0.00765646
-0.00457646
0.00736234
-0.00447471
-0.00433428
0.00737272
-0.00116062
0.00724313
-0.000837974
0.00715844
-0.000434718
0.00712862
4.00522e-05
0.00716594
0.000577429
0.00728104
0.00116038
0.00747571
0.00174756
0.00774489
0.00228417
0.00809352
0.00272314
0.00853512
0.00298481
0.00904051
0.00290144
0.00950002
0.00231511
0.00978737
0.00126772
0.00985118
3.08266e-06
0.00972214
-0.00121952
0.00946614
-0.00226164
0.0091469
-0.00306727
0.00880815
-0.00363167
0.00846948
-0.00400438
0.00814559
-0.00422738
0.00784761
-0.00427848
0.00756403
-0.00419113
-0.00405854
0.00763421
-0.00101257
0.00751924
-0.000723009
0.00744678
-0.000362257
0.007426
6.08376e-05
0.0074676
0.000535826
0.00758239
0.0010456
0.00777521
0.00155474
0.00804368
0.00201569
0.00838767
0.00237916
0.00880468
0.0025678
0.00925378
0.00245235
0.00964043
0.00192846
0.00987092
0.00103723
0.00991214
-3.81322e-05
0.00979183
-0.00109921
0.00956098
-0.00203079
0.00926992
-0.00277622
0.00895629
-0.00331803
0.00863817
-0.00368627
0.00832811
-0.00391733
0.00803965
-0.00399001
0.00776728
-0.00391875
-0.00379122
0.00789494
-0.000880073
0.00779349
-0.000621558
0.00773191
-0.000300682
0.00771869
7.40599e-05
0.00776304
0.000491476
0.00787434
0.000934299
0.00805775
0.00137132
0.00831234
0.00176111
0.00863508
0.00205642
0.00901449
0.00218839
0.00940723
0.00205961
0.0097354
0.00160029
0.00992833
0.000844298
0.009962
-7.18079e-05
0.00985776
-0.000994964
0.00965447
-0.0018275
0.00939213
-0.00251388
0.00910355
-0.00302945
0.00880632
-0.00338904
0.0085114
-0.0036224
0.00823303
-0.00371164
0.00797187
-0.0036576
-0.00353465
0.00815473
-0.000762052
0.0080657
-0.000532526
0.00801377
-0.000248755
0.00800674
8.10926e-05
0.00805251
0.000445711
0.0081587
0.000828104
0.00832959
0.00120043
0.00856436
0.00152635
0.008858
0.00176278
0.00919502
0.00185138
0.00953508
0.00171954
0.00981566
0.00131971
0.00998207
0.000677889
0.0100145
-0.000104205
0.00992758
-0.000908072
0.00975069
-0.00165062
0.00951574
-0.00227893
0.00925129
-0.002765
0.00897465
-0.00311239
0.00869574
-0.00334349
0.00842818
-0.00344408
0.00817786
-0.00340728
-0.00329028
0.00841347
-0.000657418
0.00833574
-0.000454796
0.00829233
-0.000205343
0.00829025
8.31706e-05
0.00833627
0.000399695
0.0084364
0.000727969
0.00859373
0.0010431
0.00880683
0.00131324
0.00906934
0.00150026
0.00936468
0.00155604
0.00965765
0.00142657
0.00989851
0.00107885
0.010044
0.000532388
0.0100766
-0.000136765
0.0100053
-0.000836796
0.00985204
-0.00149735
0.00964227
-0.00206917
0.00940062