/*--------------------------------*- C++ -*----------------------------------*\
  =========                 |
  \\      /  F ield         | OpenFOAM: The Open Source CFD Toolbox
   \\    /   O peration     | Website:  https://openfoam.org
    \\  /    A nd           | Version:  7
     \\/     M anipulation  |
\*---------------------------------------------------------------------------*/
FoamFile
{
    version     2.0;
    format      ascii;
    class       volVectorField;
    location    "120";
    object      U;
}
// * * * * * * * * * * * * * * * * * * * * * * * * * * * * * * * * * * * * * //

dimensions      [0 1 -1 0 0 0 0];

internalField   nonuniform List<vector> 
4575
(
(0.0648825 -0.679878 2.26434e-22)
(0.127057 -0.557721 -9.58224e-23)
(0.228372 -0.356493 -1.25852e-22)
(0.342398 -0.11 1.29128e-22)
(0.455964 0.140194 -1.41312e-22)
(0.559496 0.353351 -1.44669e-22)
(0.643775 0.502871 3.55973e-23)
(0.703562 0.586226 1.26719e-22)
(0.737644 0.619989 5.25184e-23)
(0.750358 0.622743 -1.77369e-22)
(0.749659 0.609033 1.03703e-22)
(0.73342 0.599324 -4.20964e-23)
(0.693667 0.605958 -2.9122e-23)
(0.640413 0.598065 5.81481e-23)
(0.606625 0.513016 6.86967e-23)
(0.615747 0.32338 -4.23489e-24)
(0.662548 0.0720711 -9.2779e-23)
(0.728102 -0.167448 1.76299e-25)
(0.79272 -0.344837 -1.42519e-22)
(0.841252 -0.450848 1.08584e-22)
(0.869037 -0.499938 -3.26607e-23)
(0.881777 -0.509977 1.83515e-23)
(0.882587 -0.50487 -7.54519e-23)
(0.0681904 -0.685237 9.98376e-22)
(0.117802 -0.569397 -1.96296e-23)
(0.211411 -0.372137 -6.72744e-22)
(0.322163 -0.126534 5.62181e-22)
(0.435125 0.124497 -1.00335e-21)
(0.539946 0.339853 9.07623e-22)
(0.626956 0.492595 -8.05037e-23)
(0.690139 0.579572 -1.80692e-22)
(0.727548 0.616638 -3.77807e-22)
(0.743434 0.62177 4.38817e-22)
(0.745347 0.609978 -3.06736e-22)
(0.730535 0.602694 3.22788e-22)
(0.691529 0.61148 -1.56048e-23)
(0.63995 0.603174 -6.24796e-22)
(0.609281 0.514592 6.10014e-22)
(0.621574 0.320551 -4.10523e-22)
(0.670464 0.0662246 4.19162e-22)
(0.736712 -0.174236 -1.48029e-23)
(0.800819 -0.350698 -6.5758e-23)
(0.848086 -0.454736 2.63847e-22)
(0.874099 -0.501946 -3.53754e-22)
(0.884922 -0.510608 2.7708e-22)
(0.884214 -0.504013 -2.64684e-22)
(0.0742206 -0.689047 1.77667e-21)
(0.110908 -0.579955 -1.59085e-21)
(0.195999 -0.38752 -4.26874e-22)
(0.302958 -0.143388 3.55011e-23)
(0.414952 0.108207 2.12673e-21)
(0.520818 0.325662 -5.67272e-23)
(0.610387 0.481645 -4.92148e-22)
(0.676838 0.572343 2.89983e-22)
(0.717535 0.612824 -2.10219e-22)
(0.736612 0.620438 9.88659e-24)
(0.741145 0.61069 3.68885e-24)
(0.727775 0.605924 -1.09579e-22)
(0.689597 0.61685 -9.01271e-23)
(0.639817 0.6081 -1.74516e-22)
(0.612306 0.516088 6.29657e-22)
(0.627725 0.317857 -7.30437e-22)
(0.678646 0.060679 -4.14531e-23)
(0.745521 -0.180668 -4.80387e-22)
(0.809043 -0.356229 3.6877e-22)
(0.855001 -0.458346 3.57596e-24)
(0.879238 -0.503726 1.83182e-22)
(0.888149 -0.51107 -1.93986e-23)
(0.885936 -0.503047 6.70808e-23)
(0.0829057 -0.691309 1.48501e-21)
(0.106502 -0.589281 -1.55394e-21)
(0.182246 -0.402522 1.20223e-21)
(0.284873 -0.160488 -2.28858e-21)
(0.395517 0.0913676 1.01733e-21)
(0.502163 0.310802 -5.09616e-22)
(0.594095 0.47003 5.58429e-22)
(0.663674 0.564536 -7.66445e-22)
(0.707611 0.608534 4.54576e-22)
(0.729893 0.618736 2.37879e-22)
(0.737051 0.611159 2.12899e-22)
(0.725135 0.608998 2.53975e-22)
(0.687869 0.622052 -5.12134e-22)
(0.640006 0.61284 -4.68608e-22)
(0.615683 0.517519 -6.91938e-23)
(0.634181 0.315315 7.20575e-22)
(0.687077 0.0554497 1.0854e-21)
(0.754519 -0.186733 -1.92858e-22)
(0.81739 -0.361426 5.52674e-23)
(0.861997 -0.46168 -3.57719e-22)
(0.884455 -0.505281 8.88905e-23)
(0.89146 -0.511367 -6.48146e-24)
(0.887755 -0.501977 -5.24435e-22)
(0.0941428 -0.692044 1.1393e-21)
(0.104692 -0.59727 -7.41883e-22)
(0.170261 -0.417015 1.28822e-21)
(0.267994 -0.177757 -4.59884e-22)
(0.37689 0.0740279 3.8909e-22)
(0.484028 0.295298 -1.56193e-21)
(0.578109 0.457762 1.6975e-21)
(0.650661 0.556152 -5.51452e-23)
(0.697786 0.603762 -4.0762e-22)
(0.723277 0.616653 -7.64119e-22)
(0.733058 0.611373 1.51064e-22)
(0.722613 0.611899 -3.09401e-22)
(0.686344 0.627069 3.94695e-22)
(0.640506 0.617391 -1.21904e-22)
(0.619391 0.518899 -2.61618e-22)
(0.640921 0.312945 8.72823e-23)
(0.695739 0.0505499 6.52646e-22)
(0.763698 -0.192422 2.43596e-22)
(0.825854 -0.366288 1.3306e-23)
(0.869071 -0.46474 4.80909e-22)
(0.889748 -0.506616 -2.25731e-22)
(0.894857 -0.511504 -4.8596e-22)
(0.889671 -0.500811 2.15127e-22)
(0.107798 -0.6913 -2.28906e-21)
(0.105556 -0.603833 9.36034e-22)
(0.160154 -0.430868 -4.89226e-24)
(0.252401 -0.19511 -2.61278e-21)
(0.359139 0.0562402 2.26447e-21)
(0.466461 0.279182 -2.03007e-22)
(0.562455 0.444855 4.40756e-23)
(0.637816 0.547192 1.62508e-21)
(0.688065 0.598497 -1.11524e-21)
(0.716763 0.614179 8.23839e-22)
(0.729163 0.611321 -2.78766e-22)
(0.720203 0.614609 -5.83983e-22)
(0.685016 0.631884 9.78789e-22)
(0.641304 0.621752 -4.68511e-22)
(0.623409 0.520241 -4.72094e-22)
(0.647922 0.310763 -6.63623e-23)
(0.704616 0.0459912 -1.44192e-21)
(0.773045 -0.197729 6.76457e-22)
(0.83443 -0.37081 -1.04114e-21)
(0.87622 -0.467531 -1.34322e-22)
(0.895119 -0.507735 8.25775e-22)
(0.898341 -0.511486 3.40415e-22)
(0.891686 -0.499555 3.0249e-22)
(0.123712 -0.689148 -3.05101e-21)
(0.109137 -0.608898 1.67197e-21)
(0.152038 -0.443942 -2.73558e-21)
(0.238166 -0.212455 -6.19669e-22)
(0.342327 0.0380589 1.00956e-21)
(0.449508 0.262486 -7.53438e-22)
(0.547161 0.431326 -3.77897e-22)
(0.625152 0.537656 -2.04173e-22)
(0.678458 0.592732 8.20512e-22)
(0.710352 0.611306 7.96567e-22)
(0.72536 0.610991 9.84789e-22)
(0.717902 0.617113 -1.09746e-21)
(0.683882 0.636482 1.42502e-21)
(0.642386 0.62592 -9.34015e-22)
(0.627714 0.521558 -1.30235e-21)
(0.65516 0.308784 1.78394e-21)
(0.713686 0.041786 1.2458e-21)
(0.78255 -0.202645 -3.06276e-21)
(0.843115 -0.374991 8.20643e-22)
(0.883442 -0.470053 2.99817e-22)
(0.900567 -0.508645 -4.50971e-22)
(0.901913 -0.511319 3.53458e-22)
(0.893801 -0.498216 -3.62943e-22)
(0.141704 -0.68568 -7.39511e-23)
(0.115438 -0.612415 7.20593e-22)
(0.146028 -0.4561 2.08194e-21)
(0.225359 -0.229693 -1.46484e-21)
(0.326515 0.019555 1.70945e-22)
(0.433212 0.245247 -3.56681e-23)
(0.532252 0.417194 -9.47214e-22)
(0.612685 0.527549 -5.7118e-22)
(0.668971 0.586462 1.57381e-21)
(0.704041 0.608023 -1.09821e-22)
(0.721643 0.61037 -5.93477e-22)
(0.715704 0.619392 -8.15235e-22)
(0.682933 0.640849 1.50153e-21)
(0.643735 0.629896 -1.42498e-21)
(0.632284 0.522863 1.78551e-22)
(0.662612 0.307023 -1.04705e-21)
(0.722931 0.0379462 2.46354e-21)
(0.7922 -0.207166 -2.1418e-21)
(0.851901 -0.378828 7.60487e-22)
(0.890734 -0.472311 1.04085e-21)
(0.906091 -0.509349 -1.36082e-21)
(0.905575 -0.511005 -2.57589e-22)
(0.896016 -0.496801 5.80417e-22)
(0.161578 -0.681008 1.44726e-21)
(0.124419 -0.614356 5.18704e-22)
(0.142241 -0.467208 -7.97125e-22)
(0.214045 -0.246717 1.00829e-21)
(0.311754 0.000863172 2.1865e-21)
(0.417612 0.227508 -3.45986e-21)
(0.517753 0.40248 6.99866e-22)
(0.60043 0.516874 1.16497e-21)
(0.659612 0.579679 -5.60739e-22)
(0.69783 0.604324 1.62707e-21)
(0.718006 0.609448 -2.00226e-21)
(0.713603 0.621429 8.61248e-22)
(0.682163 0.644969 -1.51144e-21)
(0.645336 0.633678 1.18644e-22)
(0.637094 0.524167 -4.15639e-22)
(0.670252 0.305494 2.04202e-21)
(0.73233 0.0344784 -1.07441e-21)
(0.801983 -0.211285 -1.21466e-21)
(0.860784 -0.382321 -1.71545e-22)
(0.898093 -0.474307 2.06536e-21)
(0.911691 -0.509853 7.16445e-22)
(0.909327 -0.510551 1.44429e-22)
(0.898332 -0.495314 -4.17838e-22)
(0.183128 -0.675259 1.90447e-21)
(0.135998 -0.614721 2.29382e-21)
(0.140788 -0.477135 -2.00346e-21)
(0.204296 -0.26341 -5.16006e-21)
(0.298095 -0.018052 -4.5169e-22)
(0.402738 0.209309 9.06148e-22)
(0.503686 0.387208 4.67827e-21)
(0.588402 0.505638 -2.86727e-21)
(0.650386 0.572381 1.09459e-21)
(0.691716 0.600198 -1.63238e-21)
(0.714442 0.608213 1.06518e-21)
(0.711593 0.623209 -4.59131e-22)
(0.681562 0.64883 7.76868e-22)
(0.647169 0.637268 -1.12512e-21)
(0.642119 0.525483 1.6814e-24)
(0.678056 0.304209 -1.53726e-21)
(0.741862 0.0313892 2.76559e-21)
(0.811885 -0.214999 -1.7676e-21)
(0.869758 -0.385467 1.14756e-21)
(0.905516 -0.476044 -1.73748e-21)
(0.917365 -0.510161 3.35513e-22)
(0.913169 -0.50996 -1.45513e-21)
(0.900747 -0.493762 7.35276e-22)
(0.206139 -0.668571 -3.74045e-22)
(0.150051 -0.613539 3.0033e-21)
(0.141772 -0.485762 -3.52401e-21)
(0.196159 -0.279648 6.98744e-22)
(0.285577 -0.0372161 -2.52153e-21)
(0.388632 0.190697 3.84672e-21)
(0.490075 0.371402 1.99858e-21)
(0.576616 0.493848 -1.09386e-22)
(0.641302 0.564562 -2.39205e-21)
(0.685697 0.59564 4.14538e-22)
(0.710944 0.606652 2.21847e-21)
(0.709667 0.624714 -2.71902e-22)
(0.681119 0.652419 -1.98025e-21)
(0.649216 0.640665 -1.06956e-21)
(0.647333 0.52682 5.39606e-21)
(0.685997 0.303178 -1.59361e-22)
(0.751505 0.0286879 -1.44277e-21)
(0.821893 -0.218304 5.06064e-22)
(0.878816 -0.388266 -8.59285e-22)
(0.912998 -0.477525 2.10703e-21)
(0.92311 -0.510279 -8.31807e-22)
(0.917103 -0.509237 1.91672e-21)
(0.903261 -0.49215 -8.22201e-22)
(0.87832 -0.481229 9.46527e-22)
(0.230394 -0.661086 6.16745e-22)
(0.166419 -0.61087 -2.78162e-21)
(0.145274 -0.492981 -4.87733e-22)
(0.189699 -0.295295 5.65709e-21)
(0.27424 -0.0564436 -2.77304e-21)
(0.375331 0.171723 -4.65496e-21)
(0.476942 0.35509 4.1831e-21)
(0.565087 0.481513 2.89393e-22)
(0.632366 0.556221 -2.25886e-21)
(0.679771 0.590644 -9.3295e-22)
(0.707505 0.604755 5.75268e-22)
(0.707816 0.625928 1.48667e-21)
(0.680824 0.655725 -3.71626e-21)
(0.651457 0.64387 4.68503e-22)
(0.652711 0.528188 1.01876e-21)
(0.694049 0.302411 -6.40577e-21)
(0.761238 0.0263814 -2.27784e-21)
(0.831993 -0.221197 1.24097e-21)
(0.887952 -0.390717 7.07271e-21)
(0.920537 -0.478753 -2.49255e-21)
(0.928926 -0.510212 9.20734e-22)
(0.921128 -0.508385 -3.28922e-21)
(0.905874 -0.490483 5.43554e-22)
(0.880261 -0.47805 1.21915e-22)
(0.255677 -0.652949 -3.47456e-21)
(0.184911 -0.606804 7.71353e-22)
(0.151345 -0.498703 9.09887e-22)
(0.184994 -0.310209 -3.60944e-21)
(0.264115 -0.0756069 6.18077e-21)
(0.362859 0.152439 -4.29461e-21)
(0.464307 0.338301 3.18181e-21)
(0.553829 0.468642 -4.08708e-21)
(0.623584 0.547357 3.48486e-21)
(0.673935 0.585202 8.83589e-22)
(0.704117 0.602511 1.11822e-21)
(0.706034 0.626837 -3.40607e-21)
(0.680664 0.658734 1.09325e-21)
(0.65387 0.646883 -1.55341e-21)
(0.658227 0.529595 -1.29573e-22)
(0.702186 0.301917 5.51368e-21)
(0.771039 0.0244714 -1.12055e-21)
(0.84217 -0.223678 1.41389e-21)
(0.897159 -0.39282 1.08771e-21)
(0.928129 -0.479731 -1.75865e-21)
(0.93481 -0.509965 8.91269e-22)
(0.925245 -0.507409 -1.62205e-21)
(0.908585 -0.488765 9.07188e-22)
(0.882317 -0.474875 -1.96887e-23)
(0.281777 -0.644304 -3.70168e-23)
(0.205315 -0.601457 -4.03512e-21)
(0.159999 -0.502863 4.24677e-21)
(0.182134 -0.324242 -2.89173e-21)
(0.255233 -0.0946263 -2.69443e-21)
(0.35124 0.132899 4.42734e-22)
(0.45219 0.321066 1.10784e-21)
(0.542859 0.455248 -1.39206e-21)
(0.614964 0.537971 1.80298e-21)
(0.668186 0.57931 1.63194e-21)
(0.700773 0.599908 -3.4347e-21)
(0.70431 0.627424 1.00984e-21)
(0.680626 0.661438 2.75421e-21)
(0.656436 0.649704 -4.83984e-21)
(0.663855 0.531049 7.59102e-21)
(0.710383 0.301702 2.83054e-21)
(0.780888 0.0229585 -2.6834e-21)
(0.85241 -0.225744 -2.10892e-21)
(0.90643 -0.394574 2.01529e-21)
(0.935769 -0.480462 -2.48541e-21)
(0.940758 -0.509543 2.07182e-21)
(0.929453 -0.506313 1.06673e-21)
(0.911392 -0.487001 -2.34331e-23)
(0.884485 -0.47171 3.3064e-22)
(0.308489 -0.635289 -2.3061e-21)
(0.227398 -0.594964 -7.71729e-22)
(0.171203 -0.505425 -1.2892e-22)
(0.181216 -0.33725 1.29661e-21)
(0.247625 -0.113415 -1.83628e-21)
(0.340495 0.11316 -5.86415e-22)
(0.440612 0.303419 2.16709e-23)
(0.532193 0.441344 2.32858e-21)
(0.606511 0.528065 -8.02294e-22)
(0.662521 0.572965 -4.20857e-22)
(0.697464 0.596937 -3.60588e-21)
(0.702636 0.627675 -9.05632e-22)
(0.680696 0.663824 2.49093e-21)
(0.659131 0.652334 4.2009e-22)
(0.669568 0.532558 5.74367e-23)
(0.718614 0.301772 1.83559e-21)
(0.790761 0.0218482 -2.07706e-21)
(0.862698 -0.227397 -2.63382e-21)
(0.915758 -0.39598 -1.39502e-21)
(0.943454 -0.480948 1.79249e-21)
(0.946767 -0.508952 -2.59341e-21)
(0.933751 -0.5051 -3.73807e-23)
(0.914296 -0.485195 2.7816e-22)
(0.886762 -0.468564 -1.65088e-21)
(0.335622 -0.626032 1.79543e-21)
(0.250918 -0.587478 -2.13506e-21)
(0.184876 -0.506384 6.97238e-22)
(0.182342 -0.349092 1.84923e-21)
(0.241327 -0.131865 7.13053e-22)
(0.330644 0.0932834 -9.78813e-23)
(0.429593 0.285393 6.58959e-22)
(0.521844 0.426946 -2.48939e-21)
(0.598233 0.517641 1.60944e-21)
(0.656935 0.566162 -7.44224e-23)
(0.694183 0.593586 2.29342e-21)
(0.701002 0.627577 -6.68501e-22)
(0.680861 0.665884 -8.88262e-22)
(0.661936 0.654771 7.6709e-22)
(0.67534 0.534126 -3.49783e-21)
(0.726853 0.302133 4.39455e-21)
(0.800639 0.0211493 -2.12865e-21)
(0.87302 -0.228635 2.4184e-21)
(0.925135 -0.397038 -3.69433e-22)
(0.95118 -0.481191 -2.12445e-21)
(0.952835 -0.508195 1.00678e-21)
(0.938139 -0.503774 -3.41426e-22)
(0.917294 -0.483349 1.93561e-21)
(0.889146 -0.465442 -1.2345e-21)
(0.362999 -0.616652 3.85093e-21)
(0.275627 -0.579162 2.48321e-21)
(0.200888 -0.505773 -6.91976e-24)
(0.185618 -0.359634 1.92e-21)
(0.23638 -0.149857 3.96086e-22)
(0.321709 0.0733351 -1.97515e-21)
(0.419152 0.267027 -1.91797e-22)
(0.511831 0.412071 1.01808e-21)
(0.590135 0.506706 1.77315e-21)
(0.651427 0.558901 -3.166e-21)
(0.69092 0.589848 1.11412e-21)
(0.699399 0.627115 -1.37085e-21)
(0.681105 0.667609 3.5568e-21)
(0.664829 0.657015 -1.65479e-22)
(0.681146 0.535757 2.93079e-21)
(0.735075 0.302788 -3.1177e-21)
(0.810501 0.0208611 -2.42749e-21)
(0.88336 -0.229461 2.13771e-21)
(0.934553 -0.39775 -2.01257e-21)
(0.958942 -0.481196 4.85349e-21)
(0.958956 -0.507279 -1.96205e-21)
(0.942615 -0.502339 1.87636e-21)
(0.920386 -0.481468 5.54919e-22)
(0.891632 -0.46235 -7.74932e-22)
(0.390461 -0.607256 2.59965e-21)
(0.301277 -0.570183 3.3246e-22)
(0.219068 -0.503654 -1.32186e-21)
(0.191133 -0.368763 6.50269e-22)
(0.232837 -0.167259 8.45051e-22)
(0.313707 0.0533846 8.23002e-22)
(0.409308 0.248359 -1.11064e-21)
(0.502169 0.396737 1.6656e-21)
(0.582225 0.495266 -3.25376e-21)
(0.645991 0.551179 -1.03722e-22)
(0.687668 0.585714 3.36114e-21)
(0.697815 0.626277 -3.50787e-21)
(0.681413 0.668988 -1.48482e-21)
(0.667787 0.659066 -9.75411e-22)
(0.686962 0.537455 1.07731e-21)
(0.743257 0.303739 -5.54606e-22)
(0.820326 0.0209629 -3.534e-21)
(0.893704 -0.229878 6.09407e-22)
(0.944004 -0.398117 3.9647e-21)
(0.966737 -0.480963 -5.57765e-22)
(0.965128 -0.506209 -2.06575e-21)
(0.947178 -0.500798 -1.36924e-21)
(0.923571 -0.479553 5.02933e-22)
(0.894216 -0.459295 1.31689e-21)
(0.417865 -0.597935 -2.03495e-21)
(0.327627 -0.560709 -1.61489e-21)
(0.239209 -0.500127 -1.42291e-21)
(0.198959 -0.376381 2.7219e-21)
(0.230767 -0.183934 -1.7526e-21)
(0.306662 0.0335084 2.04377e-21)
(0.400083 0.229429 -7.21141e-22)
(0.492874 0.380965 -1.38338e-21)
(0.574509 0.483329 -1.0903e-23)
(0.640624 0.542996 -2.14548e-21)
(0.684417 0.581174 -2.42688e-22)
(0.696239 0.625051 3.01247e-21)
(0.681771 0.670013 3.09582e-21)
(0.670791 0.660921 -3.86719e-21)
(0.692762 0.539222 -6.61997e-22)
(0.751373 0.304987 8.0086e-22)
(0.830095 0.0214565 1.20475e-21)
(0.904038 -0.229886 -5.5903e-21)
(0.95348 -0.39814 3.14255e-21)
(0.974559 -0.480495 -1.52694e-21)
(0.971346 -0.504988 -1.67608e-21)
(0.951826 -0.499155 -1.81804e-24)
(0.926847 -0.477607 -1.06567e-21)
(0.896894 -0.456282 1.2948e-22)
(0.44509 -0.588763 -9.08495e-21)
(0.354448 -0.550904 7.3032e-21)
(0.261075 -0.495316 -4.54894e-21)
(0.209127 -0.382423 1.42553e-22)
(0.230253 -0.19974 1.82502e-21)
(0.300598 0.0138492 -1.33776e-21)
(0.391497 0.210283 -1.38158e-21)
(0.483963 0.36478 1.74259e-21)
(0.566993 0.470907 6.92423e-22)
(0.635323 0.534355 -2.01175e-21)
(0.681159 0.576223 1.27214e-21)
(0.694662 0.623426 -2.44556e-22)
(0.682163 0.670676 -1.04917e-21)
(0.673819 0.662578 4.15103e-21)
(0.698523 0.54106 4.37952e-21)
(0.759399 0.306532 2.56272e-21)
(0.839788 0.0223588 -8.10159e-21)
(0.914349 -0.22949 3.32847e-21)
(0.962971 -0.39782 1.81256e-21)
(0.982405 -0.479793 -9.97337e-22)
(0.977605 -0.503622 1.43213e-21)
(0.956557 -0.497415 -5.00797e-23)
(0.930214 -0.475632 -1.04947e-21)
(0.899663 -0.453315 4.87948e-22)
(0.472035 -0.579803 -6.63877e-21)
(0.381523 -0.540923 4.42136e-21)
(0.284412 -0.489371 2.3479e-21)
(0.221625 -0.386852 -1.87175e-21)
(0.231401 -0.214533 -3.75587e-21)
(0.295548 -0.00545992 2.34242e-21)
(0.383565 0.190969 -3.96623e-22)
(0.475453 0.348206 -1.50134e-21)
(0.559682 0.458012 3.43404e-23)
(0.630082 0.525256 6.99047e-22)
(0.677885 0.570854 -4.31128e-23)
(0.69307 0.62139 1.28925e-21)
(0.682574 0.670969 1.91022e-21)
(0.676851 0.664035 -4.63144e-21)
(0.704222 0.542967 -4.14954e-22)
(0.767314 0.308374 3.43483e-22)
(0.849387 0.0236647 -1.02848e-21)
(0.924622 -0.228692 3.52593e-21)
(0.97247 -0.397161 3.76484e-21)
(0.99027 -0.478861 -3.94349e-21)
(0.983902 -0.502116 6.5309e-22)
(0.961368 -0.49558 5.23503e-22)
(0.933672 -0.473629 1.72551e-21)
(0.902517 -0.450399 -6.6131e-22)
(0.498616 -0.5711 -5.82583e-21)
(0.408657 -0.530911 9.11903e-23)
(0.308956 -0.482457 -3.03298e-21)
(0.23639 -0.389665 4.55837e-21)
(0.234319 -0.228172 -3.24197e-21)
(0.291549 -0.0245919 1.35722e-21)
(0.376301 0.171531 -2.81975e-21)
(0.467359 0.331272 4.92093e-21)
(0.552583 0.444658 -3.38743e-21)
(0.624898 0.515705 2.28422e-21)
(0.674585 0.56506 1.26724e-21)
(0.691455 0.618934 -2.63101e-21)
(0.682988 0.670884 -3.49947e-22)
(0.679869 0.665288 -3.1038e-21)
(0.709837 0.544943 2.11041e-21)
(0.775095 0.31051 5.20399e-22)
(0.858875 0.0253725 -6.08163e-21)
(0.934845 -0.227498 3.53034e-21)
(0.981967 -0.396164 3.9886e-22)
(0.99815 -0.4777 -2.69772e-21)
(0.990232 -0.500473 7.81525e-23)
(0.966255 -0.493654 -1.07333e-21)
(0.937218 -0.471599 4.10388e-22)
(0.905453 -0.447537 -3.10432e-22)
(0.524768 -0.562683 3.88236e-21)
(0.435675 -0.520996 -1.06222e-21)
(0.334439 -0.474755 -1.30012e-21)
(0.253304 -0.390897 2.59483e-22)
(0.239085 -0.240535 -3.64421e-22)
(0.288653 -0.0434394 6.04957e-22)
(0.36975 0.152031 -6.54106e-22)
(0.459697 0.314006 2.12406e-21)
(0.5457 0.430862 3.00894e-22)
(0.619765 0.505706 1.20715e-21)
(0.671251 0.558838 -3.30858e-21)
(0.689802 0.616048 3.02427e-21)
(0.683391 0.670412 1.217e-21)
(0.682853 0.666332 -4.77866e-22)
(0.715347 0.546984 -2.37454e-21)
(0.782721 0.312937 4.57324e-21)
(0.868235 0.0274591 -2.84432e-21)
(0.945003 -0.225911 -4.75761e-22)
(0.991453 -0.394831 6.57418e-21)
(1.00604 -0.476311 -7.62146e-22)
(0.99659 -0.498698 2.75224e-23)
(0.971217 -0.491641 3.06684e-21)
(0.940852 -0.469543 -6.314e-22)
(0.908466 -0.444733 -3.10375e-22)
(0.550442 -0.554572 -3.77954e-21)
(0.462422 -0.511291 1.19107e-21)
(0.360601 -0.466447 -2.30139e-22)
(0.272201 -0.390614 3.58599e-21)
(0.245807 -0.251503 -9.59805e-22)
(0.286922 -0.0616283 2.52787e-22)
(0.363932 0.132532 1.92151e-23)
(0.45248 0.296443 -3.60905e-21)
(0.539037 0.416642 4.89766e-22)
(0.61468 0.495265 2.68832e-21)
(0.667873 0.552184 1.36477e-21)
(0.688102 0.612724 -1.55316e-21)
(0.683768 0.669546 4.18896e-22)
(0.685785 0.667162 9.82059e-22)
(0.720732 0.549088 3.09902e-21)
(0.790172 0.315651 -3.00211e-21)
(0.877453 0.0299166 -9.47027e-21)
(0.955089 -0.223937 3.67603e-21)
(1.00092 -0.393166 -1.48121e-21)
(1.01393 -0.474696 -3.72808e-21)
(1.00297 -0.496795 2.0154e-21)
(0.976248 -0.489545 1.22002e-22)
(0.944573 -0.467461 6.03843e-23)
(0.911553 -0.441989 -4.48881e-22)
(0.575603 -0.546772 6.37319e-21)
(0.488771 -0.50189 2.71353e-21)
(0.38719 -0.457717 -3.02863e-21)
(0.292875 -0.388917 2.07553e-21)
(0.254565 -0.260983 -7.59223e-22)
(0.286434 -0.0790526 -3.09327e-22)
(0.358869 0.113098 2.35272e-21)
(0.445723 0.278619 -3.55554e-22)
(0.532597 0.402019 -8.26344e-23)
(0.609636 0.484391 -4.31667e-22)
(0.664442 0.545095 -1.62187e-21)
(0.686342 0.608954 3.89132e-21)
(0.684105 0.668278 -1.1211e-21)
(0.688649 0.667773 5.08869e-21)
(0.725973 0.55125 -7.44854e-21)
(0.797427 0.318645 -5.61451e-21)
(0.886514 0.0327611 1.2145e-20)
(0.96509 -0.22158 -2.97029e-21)
(1.01036 -0.391171 -5.32982e-22)
(1.02182 -0.472857 3.77305e-21)
(1.00937 -0.494768 -2.80805e-21)
(0.981345 -0.48737 8.52643e-23)
(0.94838 -0.465355 -2.7324e-22)
(0.914711 -0.439308 1.09013e-21)
(0.514616 -0.492869 -3.76935e-21)
(0.413972 -0.448742 2.79423e-22)
(0.315086 -0.385936 1.11043e-21)
(0.265404 -0.268916 1.5287e-21)
(0.28728 -0.0956178 8.23115e-22)
(0.354588 0.093806 6.85869e-22)
(0.439436 0.260574 -1.83184e-21)
(0.526383 0.387015 1.05876e-22)
(0.604628 0.473092 5.28647e-22)
(0.660947 0.537569 4.73699e-22)
(0.684511 0.60473 -8.44769e-22)
(0.684387 0.6666 -1.10389e-21)
(0.69143 0.668157 -4.82506e-21)
(0.731051 0.553463 -1.34295e-21)
(0.804468 0.321914 4.03098e-22)
(0.895408 0.0359824 3.96985e-21)
(0.974996 -0.218846 -3.32539e-21)
(1.01976 -0.388849 -5.41756e-21)
(1.02971 -0.470794 1.98186e-21)
(1.01579 -0.492619 6.20616e-22)
(0.986504 -0.485119 5.04284e-22)
(0.952272 -0.463223 2.13782e-21)
(0.917934 -0.43669 6.62874e-22)
(0.539874 -0.484286 -2.9666e-22)
(0.440732 -0.439689 5.71466e-22)
(0.338574 -0.381824 -1.49862e-21)
(0.278317 -0.275273 1.7231e-22)
(0.289562 -0.111207 1.43736e-21)
(0.351127 0.0747449 -2.06117e-21)
(0.433632 0.242353 1.6326e-22)
(0.520394 0.371655 3.21657e-22)
(0.599649 0.46138 1.32558e-21)
(0.65738 0.529606 -2.9188e-21)
(0.682597 0.600047 -2.57789e-22)
(0.6846 0.664505 7.16991e-21)
(0.694112 0.668309 -2.3755e-21)
(0.73595 0.555721 2.37848e-21)
(0.81128 0.325451 2.44659e-21)
(0.904124 0.0395639 -9.11392e-21)
(0.984801 -0.21574 9.69428e-21)
(1.02911 -0.386203 -6.96121e-21)
(1.03758 -0.468509 4.95656e-21)
(1.02221 -0.490352 -3.86424e-21)
(0.991721 -0.482797 -3.36335e-21)
(0.956247 -0.461067 9.82828e-22)
(0.921222 -0.434135 6.72083e-22)
(0.564486 -0.476177 2.41591e-21)
(0.46728 -0.43071 -1.02854e-21)
(0.363069 -0.376754 7.77933e-22)
(0.293244 -0.280058 2.06734e-22)
(0.29339 -0.125697 3.01261e-22)
(0.348531 0.0560115 -8.22337e-22)
(0.42832 0.224006 2.35037e-23)
(0.51463 0.355967 1.16757e-21)
(0.594691 0.449266 4.37528e-22)
(0.65373 0.521207 1.09313e-21)
(0.680587 0.594899 -2.79491e-21)
(0.684732 0.661985 3.59647e-21)
(0.696682 0.668218 2.95864e-23)
(0.740654 0.558015 2.28948e-21)
(0.817847 0.329246 -9.65637e-21)
(0.912657 0.0434955 1.62739e-20)
(0.994498 -0.212267 8.07764e-22)
(1.0384 -0.383235 -9.26147e-21)
(1.04544 -0.466003 7.10079e-21)
(1.02864 -0.48797 5.64287e-22)
(0.99699 -0.480407 -5.10482e-22)
(0.960304 -0.458886 -3.1575e-21)
(0.92457 -0.431645 2.25167e-22)
(0.588411 -0.468567 5.21684e-21)
(0.493449 -0.421942 -1.76651e-21)
(0.388302 -0.370906 -7.63776e-22)
(0.310075 -0.283311 2.28762e-22)
(0.298866 -0.138973 7.72473e-22)
(0.34686 0.0377036 -4.6471e-22)
(0.423515 0.205586 8.15586e-22)
(0.509089 0.33998 -2.13617e-22)
(0.589748 0.436765 7.16918e-22)
(0.649986 0.512374 -9.42102e-22)
(0.678471 0.589282 4.49725e-23)
(0.68477 0.659032 -5.22243e-21)
(0.699127 0.667876 1.91049e-21)
(0.745148 0.560337 -1.46835e-21)
(0.824153 0.333289 -4.76862e-21)
(0.921004 0.0477759 9.67956e-21)
(1.00408 -0.208434 -7.56351e-21)
(1.04763 -0.379948 9.21869e-21)
(1.05327 -0.463276 -3.00185e-21)
(1.03508 -0.485476 -4.75462e-22)
(1.00231 -0.477953 -2.01132e-21)
(0.96444 -0.45668 -1.07702e-21)
(0.927977 -0.429218 -5.79399e-22)
(0.611627 -0.461461 1.56393e-21)
(0.519099 -0.4135 -1.45496e-21)
(0.414014 -0.364469 1.56527e-21)
(0.328646 -0.285103 -8.67225e-22)
(0.306078 -0.150943 1.3846e-21)
(0.346186 0.0199751 -1.25451e-21)
(0.419235 0.187159 8.37013e-23)
(0.50377 0.323726 -6.43887e-22)
(0.584811 0.423891 6.75265e-22)
(0.646139 0.503109 -1.40407e-21)
(0.676237 0.583191 4.47452e-21)
(0.684701 0.655639 -5.05468e-21)
(0.701436 0.667273 8.52549e-21)
(0.749418 0.562676 -6.13215e-21)
(0.83019 0.337569 2.32172e-21)
(0.929165 0.0523917 4.78402e-21)
(1.01355 -0.204245 -1.05912e-20)
(1.05679 -0.376345 -1.36381e-21)
(1.06107 -0.460331 9.87139e-21)
(1.0415 -0.482871 -1.46412e-21)
(1.00767 -0.47544 1.17935e-21)
(0.968655 -0.45445 -9.74577e-22)
(0.931441 -0.426853 -6.08085e-22)
(0.634127 -0.454853 -7.60249e-22)
(0.544115 -0.40548 -5.38346e-21)
(0.43996 -0.357628 1.09309e-21)
(0.348757 -0.285534 2.0528e-22)
(0.315087 -0.161532 4.83614e-22)
(0.346598 0.00318637 -4.05188e-22)
(0.415504 0.168799 7.34926e-22)
(0.498674 0.307243 -5.76929e-22)
(0.579873 0.410661 -6.67247e-22)
(0.642179 0.493418 2.43609e-21)
(0.673872 0.576623 -2.23616e-21)
(0.684513 0.651797 1.59939e-21)
(0.7036 0.666399 3.5303e-21)
(0.753451 0.565021 5.78622e-21)
(0.835947 0.342073 -9.13304e-21)
(0.937151 0.057328 -7.33423e-21)
(1.02291 -0.199705 6.28127e-21)
(1.06586 -0.372428 3.2097e-21)
(1.06883 -0.457167 -4.90294e-21)
(1.04792 -0.480158 5.60137e-22)
(1.01306 -0.47287 -1.79112e-21)
(0.972946 -0.452194 1.73846e-21)
(0.934959 -0.424548 1.2176e-21)
(0.655915 -0.44872 -1.91627e-21)
(0.568409 -0.397955 5.74877e-22)
(0.465917 -0.350558 2.51264e-22)
(0.370175 -0.28473 -5.00411e-22)
(0.325934 -0.170681 -1.08614e-22)
(0.348195 -0.013068 -3.80558e-23)
(0.412335 0.150561 2.08904e-22)
(0.493803 0.290569 1.71473e-22)
(0.574927 0.397094 -1.35209e-21)
(0.638095 0.483305 1.40869e-21)
(0.671365 0.569577 -1.40784e-22)
(0.684196 0.6475 -3.15698e-21)
(0.705608 0.665241 -3.1522e-21)
(0.757234 0.567358 1.58847e-21)
(0.841422 0.346786 1.48815e-22)
(0.944977 0.0625782 -7.9197e-21)
(1.03216 -0.194818 1.15163e-20)
(1.07484 -0.368196 -1.03245e-20)
(1.07654 -0.453783 1.11461e-20)
(1.05433 -0.477338 -2.68105e-21)
(1.01849 -0.470247 -2.35934e-21)
(0.977311 -0.449913 -3.22695e-22)
(0.93853 -0.4223 -1.22871e-21)
(0.677007 -0.443041 4.52668e-21)
(0.591916 -0.390983 -1.85034e-21)
(0.491686 -0.343429 8.70489e-22)
(0.392657 -0.282841 1.97012e-22)
(0.338529 -0.178405 -5.31347e-23)
(0.351077 -0.0287805 9.98948e-24)
(0.409835 0.132561 3.64551e-23)
(0.489173 0.27375 2.5023e-23)
(0.56997 0.383211 4.98436e-22)
(0.633878 0.472778 1.59734e-21)
(0.668705 0.562052 -1.86396e-21)
(0.683738 0.64274 -6.78506e-22)
(0.707454 0.663789 -4.16936e-21)
(0.760755 0.569675 1.40574e-20)
(0.846618 0.351691 -8.54612e-21)
(0.952673 0.0681303 4.63836e-21)
(1.04131 -0.189588 4.72348e-21)
(1.08371 -0.363652 -7.71612e-21)
(1.0842 -0.450183 -4.45418e-21)
(1.06072 -0.474413 2.20288e-21)
(1.02395 -0.467576 1.46792e-21)
(0.981746 -0.447609 -2.32665e-21)
(0.942154 -0.420107 -1.36173e-21)
(0.697423 -0.437798 3.54605e-21)
(0.614592 -0.384614 -6.20216e-22)
(0.517094 -0.336404 1.01809e-21)
(0.415952 -0.280034 -2.19892e-22)
(0.352803 -0.184703 3.29171e-22)
(0.355341 -0.0433152 -6.81328e-23)
(0.40807 0.114883 -1.35618e-22)
(0.484811 0.256836 3.06478e-22)
(0.565004 0.369038 8.26182e-23)
(0.629522 0.461846 -3.48394e-22)
(0.665881 0.554047 -1.30084e-21)
(0.683129 0.63751 3.67093e-21)
(0.70913 0.662028 -3.68744e-21)
(0.764 0.571955 8.28131e-21)
(0.85155 0.35677 -4.90674e-21)
(0.960286 0.0739728 -3.96624e-21)
(1.05037 -0.184011 1.61424e-21)
(1.09247 -0.358796 6.96175e-21)
(1.0918 -0.44637 -8.86135e-21)
(1.06709 -0.47139 4.57937e-21)
(1.02943 -0.464866 4.54258e-21)
(0.98625 -0.445285 -5.27676e-21)
(0.945828 -0.417969 1.79728e-21)
(0.717191 -0.432946 -3.98938e-21)
(0.636415 -0.378862 2.76833e-21)
(0.541995 -0.329613 5.66714e-22)
(0.439822 -0.27647 9.23863e-24)
(0.368634 -0.189604 -9.50469e-23)
(0.361059 -0.056692 7.43534e-22)
(0.407139 0.0976178 -4.54048e-22)
(0.480771 0.239885 -8.09459e-23)
(0.560046 0.3546 4.93667e-22)
(0.625024 0.45052 6.80428e-22)
(0.662884 0.545565 -2.75501e-21)
(0.68236 0.631802 2.64474e-21)
(0.71063 0.659947 4.85794e-22)
(0.766957 0.574182 -1.2081e-21)
(0.856256 0.362001 -4.29649e-21)
(0.967888 0.0800972 7.31358e-21)
(1.05935 -0.178088 -4.11557e-21)
(1.10111 -0.353629 4.89813e-21)
(1.09933 -0.442342 -3.16053e-21)
(1.07343 -0.468265 2.26263e-21)
(1.03493 -0.462113 -2.47938e-21)
(0.990819 -0.442936 1.08312e-21)
(0.949554 -0.415877 -1.20556e-21)
(0.736339 -0.428332 1.57964e-21)
(0.65738 -0.373638 3.28076e-21)
(0.566267 -0.323102 -3.88583e-22)
(0.46404 -0.272264 -4.84576e-22)
(0.385858 -0.193135 4.77264e-22)
(0.368271 -0.0688698 2.09237e-22)
(0.40716 0.0808793 8.51518e-23)
(0.477142 0.22297 -3.7675e-22)
(0.555135 0.339935 5.05723e-23)
(0.620395 0.438815 -5.48134e-22)
(0.659709 0.536608 1.71905e-21)
(0.681426 0.62561 -5.79916e-21)
(0.711948 0.657532 8.51042e-22)
(0.769619 0.576331 8.99537e-21)
(0.860818 0.367345 -1.05432e-20)
(0.97559 0.0864566 5.3399e-21)
(1.06828 -0.171843 8.0961e-23)
(1.10962 -0.348147 3.54052e-21)
(1.10678 -0.438073 -1.28786e-21)
(1.07975 -0.465002 -8.3705e-22)
(1.04044 -0.459288 1.51213e-21)
(0.99545 -0.440537 -3.23496e-21)
(0.953329 -0.413807 1.93246e-21)
(0.754889 -0.423832 -4.88714e-21)
(0.677488 -0.368869 1.27266e-21)
(0.589809 -0.316931 7.93811e-22)
(0.488399 -0.267569 4.38608e-22)
(0.404281 -0.195391 -7.26775e-23)
(0.376968 -0.0798073 -1.62936e-22)
(0.408262 0.0647976 -2.39163e-22)
(0.474061 0.206189 2.04164e-22)
(0.550355 0.325097 -1.3087e-22)
(0.615667 0.426759 -6.25061e-22)
(0.656362 0.527188 -1.61227e-21)
(0.680328 0.618925 3.31341e-21)
(0.713085 0.654757 -5.29269e-21)
(0.771997 0.578349 1.12381e-20)
(0.865404 0.372703 -1.3232e-20)
(0.983561 0.0929645 7.70269e-21)
(1.07718 -0.165291 -4.02532e-21)
(1.11797 -0.342327 9.18342e-22)
(1.11414 -0.43354 8.66017e-22)
(1.08602 -0.461592 1.90782e-21)
(1.04595 -0.456394 -1.50068e-21)
(1.00014 -0.438095 -1.53126e-21)
(0.957153 -0.411764 2.04667e-21)
(0.696759 -0.365024 2.08834e-21)
(0.61254 -0.311589 3.47071e-23)
(0.512713 -0.262895 8.0714e-22)
(0.423704 -0.196773 -9.05923e-22)
(0.387092 -0.0897002 8.62271e-22)
(0.410569 0.0493518 2.01342e-22)
(0.471731 0.189559 -1.23771e-21)
(0.54587 0.31013 1.35881e-22)
(0.610926 0.414386 9.4415e-23)
(0.652884 0.517326 -2.94109e-22)
(0.679097 0.611763 -1.13938e-21)
(0.714067 0.651621 7.6783e-21)
(0.774181 0.580213 -7.45538e-21)
(0.870371 0.378141 5.94763e-21)
(0.992059 0.0998672 -1.12984e-20)
(1.08608 -0.158215 1.19886e-20)
(1.12616 -0.33615 -7.48232e-21)
(1.1214 -0.428886 -2.10542e-21)
(1.09226 -0.458232 5.24233e-21)
(1.05147 -0.453621 -3.08834e-21)
(1.00488 -0.435764 -8.75341e-22)
(0.961025 -0.409863 1.23753e-21)
(0.715249 -0.362882 -2.9095e-22)
(0.634426 -0.30775 -2.02275e-22)
(0.536845 -0.258798 -9.17897e-22)
(0.443947 -0.197667 3.08647e-22)
(0.398553 -0.0988426 6.49751e-22)
(0.414183 0.0341863 -5.18481e-22)
(0.470444 0.172846 5.13064e-22)
(0.541995 0.2949 -6.01163e-23)