/*--------------------------------*- C++ -*----------------------------------*\
  =========                 |
  \\      /  F ield         | OpenFOAM: The Open Source CFD Toolbox
   \\    /   O peration     | Website:  https://openfoam.org
    \\  /    A nd           | Version:  7
     \\/     M anipulation  |
\*---------------------------------------------------------------------------*/
FoamFile
{
    version     2.0;
    format      ascii;
    class       surfaceScalarField;
    location    "120";
    object      phi;
}
// * * * * * * * * * * * * * * * * * * * * * * * * * * * * * * * * * * * * * //

dimensions      [0 3 -1 0 0 0 0];

internalField   nonuniform List<scalar> 
8924
(
0.00169266
0.00945498
-0.00948127
0.00168862
0.00969422
-0.00969018
0.00164671
0.0100522
-0.0100103
0.00157284
0.0106255
-0.0105516
0.00149333
0.0107052
-0.0106257
0.00143762
0.00931061
-0.0092549
0.00142019
0.00613797
-0.00612054
0.00144099
0.00183649
-0.00185729
0.0014908
-0.00248614
0.00243634
0.00155316
-0.00591648
0.00585412
0.00160643
-0.00813227
0.00807901
0.00162823
-0.00941861
0.0093968
0.00160592
-0.0102929
0.0103152
0.00154632
-0.0109034
0.010963
0.0014756
-0.0108154
0.0108862
0.00142408
-0.00931363
0.00936515
0.00140966
-0.00620386
0.00621828
0.00143397
-0.00201261
0.00198829
0.00148439
0.00221128
-0.00226171
0.00153372
0.00568357
-0.0057329
0.00155362
0.00823328
-0.00825318
0.0015348
0.0100419
-0.0100231
0.00149235
0.0110838
-0.0110414
0.0106741
-0.0106332
0.00170136
0.00942537
0.00169968
0.00969591
0.00165964
0.0100922
0.00158742
0.0106977
0.00150869
0.0107839
0.0014517
0.00936761
0.00143076
0.00615891
0.00144681
0.00182043
0.00149175
-0.00253109
0.00154995
-0.00597468
0.00160024
-0.00818256
0.00162019
-0.00943855
0.00159677
-0.0102695
0.00153658
-0.0108432
0.00146596
-0.0107448
0.00141582
-0.00926349
0.0014043
-0.00619234
0.00143229
-0.0020406
0.00148592
0.00215765
0.00153736
0.00563212
0.00155854
0.00821211
0.00154053
0.0100599
0.00149822
0.0111261
0.010716
0.00170967
0.00939238
0.00171048
0.0096951
0.00167248
0.0101302
0.00160206
0.0107681
0.00152413
0.0108618
0.00146576
0.00942597
0.00144119
0.00618348
0.00145241
0.00180921
0.00149243
-0.00257111
0.00154644
-0.00602869
0.00159376
-0.00822989
0.00161194
-0.00945673
0.00158754
-0.0102451
0.00152687
-0.0107826
0.0014564
-0.0106743
0.0014076
-0.00921469
0.00139889
-0.00618362
0.00143045
-0.00207216
0.00148723
0.00210088
0.0015408
0.00557855
0.00156332
0.0081896
0.00154619
0.0100771
0.00150406
0.0111683
0.0107588
0.00171756
0.0093559
0.00172099
0.00969167
0.00168521
0.010166
0.00161673
0.0108366
0.00153962
0.0109389
0.00147981
0.00948578
0.0014515
0.00621179
0.0014578
0.00180292
0.00149284
-0.00260615
0.00154262
-0.00607847
0.00158701
-0.00827428
0.0016035
-0.00947322
0.00157823
-0.0102198
0.0015172
-0.0107215
0.00144693
-0.0106041
0.00139942
-0.00916719
0.00139342
-0.00617762
0.00142845
-0.0021072
0.00148832
0.00204102
0.00154403
0.00552283
0.00156796
0.00816567
0.00155179
0.0100932
0.00150987
0.0112102
0.0108025
0.00172502
0.00931585
0.00173121
0.00968549
0.0016978
0.0101994
0.0016314
0.010903
0.00155515
0.0110152
0.00149382
0.00954711
0.00146168
0.00624393
0.00146298
0.00180162
0.00149299
-0.00263616
0.00153852
-0.006124
0.00157999
-0.00831575
0.00159487
-0.0094881
0.00156885
-0.0101938
0.00150756
-0.0106602
0.00143754
-0.010534
0.00139128
-0.00912093
0.00138788
-0.00617422
0.00142628
-0.0021456
0.00148917
0.00197812
0.00154705
0.00546495
0.00157245
0.00814027
0.00155731
0.0101084
0.00151565
0.0112518
0.0108472
0.00173202
0.00927215
0.0017411
0.00967641
0.00171025
0.0102303
0.00164606
0.0109672
0.00157069
0.0110906
0.00150779
0.00961001
0.00147173
0.00627999
0.00146796
0.00180539
0.00149289
-0.0026611
0.00153414
-0.00616525
0.0015727
-0.0083543
0.00158606
-0.00950145
0.0015594
-0.0101672
0.00149795
-0.0105988
0.00142823
-0.0104643
0.00138318
-0.00907588
0.00138227
-0.00617331
0.00142393
-0.00218726
0.00148979
0.00191226
0.00154985
0.00540489
0.0015768
0.00811332
0.00156276
0.0101224
0.0015214
0.0112932
0.0108929
0.00173855
0.00922471
0.00175064
0.00966432
0.00172251
0.0102584
0.00166068
0.011029
0.00158624
0.011165
0.00152171
0.00967454
0.00148165
0.00632004
0.00147274
0.00181431
0.00149256
-0.00268092
0.0015295
-0.00620219
0.00156516
-0.00838996
0.00157706
-0.00951335
0.00154989
-0.01014
0.00148838
-0.0105373
0.001419
-0.0103949
0.0013751
-0.00903199
0.00137657
-0.00617478
0.00142138
-0.00223206
0.00149015
0.00184349
0.00155241
0.00534263
0.00158098
0.00808475
0.00156813
0.0101353
0.00152712
0.0113342
0.0109395
0.00174457
0.00917345
0.00175981
0.00964908
0.00173457
0.0102836
0.00167523
0.0110883
0.00160175
0.0112385
0.00153556
0.00974073
0.00149144
0.00636417
0.00147733
0.00182842
0.00149199
-0.00269558
0.00152461
-0.00623481
0.00155738
-0.00842273
0.0015679
-0.00952387
0.0015403
-0.0101124
0.00147883
-0.0104758
0.00140984
-0.0103259
0.00136706
-0.00898921
0.00137079
-0.00617851
0.00141862
-0.00227989
0.00149026
0.00177185
0.00155474
0.00527815
0.001585
0.00805448
0.00157341
0.0101469
0.0015328
0.0113748
0.010987
0.00175006
0.00911828
0.00176859
0.00963056
0.0017464
0.0103058
0.00168969
0.011145
0.00161722
0.011311
0.00154934
0.00980862
0.00150109
0.00641241
0.00148173
0.00184778
0.00149121
-0.00270506
0.00151948
-0.00626309
0.00154936
-0.00845261
0.00155856
-0.00953306
0.00153065
-0.0100845
0.00146931
-0.0104145
0.00140075
-0.0102574
0.00135903
-0.00894749
0.0013649
-0.00618438
0.00141565
-0.00233064
0.00149009
0.00169741
0.00155681
0.00521143
0.00158885
0.00802244
0.0015786
0.0101571
0.00153845
0.011415
0.0110354
0.001755
0.00177694
0.00960863
0.00175796
0.0103248
0.00170402
0.011199
0.00163262
0.0113824
0.00156302
0.00987821
0.00151061
0.00646483
0.00148594
0.00187244
0.00149021
-0.00270932
0.00151412
-0.006287
0.00154111
-0.0084796
0.00154904
-0.009541
0.00152092
-0.0100563
0.00145981
-0.0103534
0.00139173
-0.0101893
0.00135102
-0.00890678
0.00135891
-0.00619228
0.00141246
-0.00238418
0.00148964
0.00162023
0.00155863
0.00514244
0.00159252
0.00798856
0.00158369
0.0101659
0.00154405
0.0114546
0.0110847
0.00178483
0.00958316
0.00176924
0.0103404
0.0017182
0.01125
0.00164792
0.0114526
0.00157661
0.00994952
0.00151998
0.00652146
0.00148998
0.00190245
0.001489
-0.00270835
0.00150853
-0.00630652
0.00153263
-0.0085037
0.00153936
-0.00954773
0.00151112
-0.0100281
0.00145033
-0.0102926
0.00138276
-0.0101217
0.00134302
-0.00886705
0.00135281
-0.00620207
0.00140903
-0.0024404
0.0014889
0.00154036
0.00156019
0.00507115
0.00159599
0.00795275
0.00158867
0.0101733
0.00154962
0.0114937
0.0111348
0.00179225
0.00955403
0.0017802
0.0103524
0.00173219
0.011298
0.00166311
0.0115217
0.00159009
0.0100225
0.00152922
0.00658233
0.00149383
0.00193783
0.00148759
-0.00270211
0.00150273
-0.00632166
0.00152393
-0.00852491
0.0015295
-0.00955329
0.00150125
-0.00999986
0.00144085
-0.0102322
0.00137383
-0.0100547
0.00133502
-0.00882824
0.00134659
-0.00621363
0.00140535
-0.00249916
0.00148786
0.00145785
0.00156146
0.00499755
0.00159927
0.00791495
0.00159354
0.010179
0.00155514
0.0115321
0.0111858
0.00179915
0.00952112
0.0017908
0.0103608
0.00174596
0.0113429
0.00167815
0.0115895
0.00160344
0.0100973
0.00153831
0.00664746
0.00149751
0.00197864
0.00148599
-0.00269059
0.00149672
-0.00633239
0.00151502
-0.00854321
0.00151947
-0.00955775
0.00149129
-0.00997168
0.00143138
-0.0101723
0.00136495
-0.00998826
0.00132702
-0.00879031
0.00134023
-0.00622685
0.00140142
-0.00256035
0.00148651
0.00137276
0.00156245
0.00492161
0.00160233
0.00787507
0.00159829
0.010183
0.00156061
0.0115698
0.0112376
0.00180552
0.0094843
0.00180101
0.0103653
0.00175949
0.0113844
0.00169302
0.011656
0.00161665
0.0101736
0.00154725
0.00671686
0.00150101
0.00202488
0.0014842
-0.00267378
0.00149051
-0.0063387
0.0015059
-0.0085586
0.00150927
-0.00956111
0.00148125
-0.00994366
0.0014219
-0.0101129
0.00135609
-0.00992245
0.001319
-0.00875322
0.00133375
-0.0062416
0.00139723
-0.00262384
0.00148484
0.00128515
0.00156314
0.0048433
0.00160517
0.00783304
0.00160291
0.0101853
0.00156602
0.0116066
0.0112901
0.0018113
0.00944347
0.0018108
0.0103658
0.00177272
0.0114225
0.00170769
0.011721
0.00162972
0.0102516
0.00155604
0.00679054
0.00150433
0.00207659
0.00148222
-0.00265167
0.00148411
-0.00634059
0.00149657
-0.00857107
0.00149889
-0.00956343
0.00147112
-0.0099159
0.00141241
-0.0100542
0.00134725
-0.00985729
0.00131096
-0.00871693
0.00132711
-0.00625775
0.00139277
-0.0026895
0.00148283
0.00119509
0.00156353
0.00476261
0.00160778
0.00778879
0.00160738
0.0101857
0.00157137
0.0116427
0.0113433
0.00181649
0.00939852
0.00182013
0.0103622
0.00178563
0.011457
0.00172215
0.0117845
0.00164262
0.0103311
0.00156468
0.00686847
0.00150749
0.00213378
0.00148006
-0.00262424
0.00147752
-0.00633805
0.00148705
-0.00858059
0.00148833
-0.00956471
0.00146089
-0.00988846
0.0014029
-0.00999623
0.00133842
-0.00979281
0.00130289
-0.00868139
0.00132033
-0.0062752
0.00138803
-0.00275719
0.00148049
0.00110263
0.00156359
0.00467951
0.00161015
0.00774223
0.00161171
0.0101841
0.00157665
0.0116777
0.0113971
0.00182103
0.00934934
0.00182896
0.0103543
0.00179818
0.0114877
0.00173635
0.0118463
0.00165534
0.0104121
0.00157316
0.00695065
0.00151047
0.00219647
0.00147772
-0.00259148
0.00147076
-0.00633109
0.00147733
-0.00858716
0.00147759
-0.00956498
0.00145056
-0.00986143
0.00139336
-0.00993903
0.00132958
-0.00972903
0.00129477
-0.00864658
0.0013134
-0.00629382
0.001383
-0.0028268
0.00147779
0.00100784
0.00156332
0.00459397
0.00161226
0.00769329
0.00161587
0.0101805
0.00158185
0.0117117
0.0114515
0.00182491
0.00929583
0.00183725
0.0103419
0.00181034
0.0115146
0.00175029
0.0119064
0.00166786
0.0104946
0.00158147
0.00703704
0.00151329
0.00226465
0.00147521
-0.0025534
0.00146382
-0.00631969
0.00146741
-0.00859076
0.00146667
-0.00956423
0.00144011
-0.00983487
0.00138378
-0.00988269
0.00132073
-0.00966599
0.0012866
-0.00861245
0.0013063
-0.00631351
0.00137768
-0.00289818
0.00147474
0.000910788
0.00156271
0.004506
0.00161411
0.00764189
0.00161986
0.0101748
0.00158697
0.0117446
0.0115065
0.00182808
0.0092379
0.00184498
0.010325
0.00182207
0.0115376
0.00176391
0.0119646
0.00168018
0.0105783
0.00158962
0.00712761
0.00151593
0.00233834
0.00147253
-0.00251
0.0014567
-0.00630387
0.00145731
-0.00859137
0.00145556
-0.00956248
0.00142955
-0.00980886
0.00137415
-0.0098273
0.00131186
-0.0096037
0.00127837
-0.00857897
0.00129902
-0.00633417
0.00137206
-0.00297122
0.00147131
0.000811536
0.00156175
0.00441556
0.00161567
0.00758797
0.00162366
0.0101668
0.00159199
0.0117763
0.0115619
0.00183052
0.00917547
0.0018521
0.0103034
0.00183333
0.0115563
0.0017772
0.0120207
0.00169227
0.0106632
0.00159759
0.00722229
0.00151841
0.00241752
0.00146967
-0.00246126
0.00144943
-0.00628363
0.00144703
-0.00858897
0.00144426
-0.00955971
0.00141885
-0.00978345
0.00136447
-0.00977291
0.00130294
-0.00954217
0.00127007
-0.0085461
0.00129158
-0.00635567
0.00136613
-0.00304577
0.00146751
0.000710159
0.00156042
0.00432264
0.00161694
0.00753145
0.00162727
0.0101565
0.00159691
0.0118067
0.0116177
0.00183218
0.00910845
0.00185856
0.010277
0.00184408
0.0115708
0.00179014
0.0120746
0.00170413
0.0107492
0.00160538
0.00732103
0.00152072
0.00250218
0.00146665
-0.0024072
0.00144198
-0.00625896
0.00143656
-0.00858354
0.00143277
-0.00955592
0.00140802
-0.0097587
0.00135472
-0.00971961
0.00129398
-0.00948144
0.00126168
-0.00851379
0.00128395
-0.00637794
0.00135989
-0.00312171
0.00146332
0.000606732
0.00155872
0.00422724
0.00161791
0.00747226
0.00163067
0.0101437
0.00160171
0.0118356
0.0116738
0.00183305
0.00903678
0.00186435
0.0102458
0.00185428
0.0115809
0.00180268
0.0121262
0.00171572
0.0108362
0.00161299
0.00742376
0.00152286
0.00259231
0.00146347
-0.00234781
0.00143438
-0.00622987
0.00142592
-0.00857508
0.00142108
-0.00955109
0.00139704
-0.00973465
0.0013449
-0.00966747
0.00128496
-0.0094215
0.00125319
-0.00848202
0.00127612
-0.00640088
0.00135333
-0.00319892
0.00145873
0.000501333
0.00155663
0.00412934
0.00161856
0.00741033
0.00163384
0.0101284
0.00160639
0.0118631
0.0117302
0.00183309
0.00896039
0.0018694
0.0102094
0.0018639
0.0115864
0.0018148
0.0121753
0.00172703
0.010924
0.0016204
0.0075304
0.00152483
0.00268789
0.00146012
-0.0022831
0.00142663
-0.00619638
0.0014151
-0.00856355
0.0014092
-0.00954519
0.0013859
-0.00971135
0.00133499
-0.00961657
0.00127588
-0.00936239
0.00124459
-0.00845073
0.0012681
-0.00642439
0.00134646
-0.00327728
0.00145375
0.000394041
0.00155414
0.00402895
0.00161887
0.0073456
0.00163678
0.0101105
0.00161093
0.0118889
0.0117867
0.00183227
0.00887923
0.0018737
0.010168
0.0018729
0.0115872
0.00182647
0.0122218
0.00173806
0.0110124
0.00162762
0.00764084
0.00152663
0.00278887
0.00145661
-0.00221308
0.00141871
-0.00615848
0.00140411
-0.00854894
0.00139712
-0.0095382
0.00137459
-0.00968882
0.00132499
-0.00956698
0.00126672
-0.00930411
0.00123587
-0.00841988
0.00125987
-0.00644839
0.00133926
-0.00335666
0.00144836
0.00028494
0.00155124
0.00392607
0.00161884
0.007278
0.00163946
0.0100899
0.00161532
0.0119131
0.0118432
0.00183056
0.00879326
0.0018772
0.0101214
0.00188124
0.0115831
0.00183765
0.0122654
0.00174877
0.0111012
0.00163463
0.00775498
0.00152827
0.00289523
0.00145294
-0.00213775
0.00141065
-0.00611618
0.00139295
-0.00853124
0.00138483
-0.00953008
0.0013631
-0.0096671
0.00131489
-0.00951877
0.00125747
-0.00924669
0.00122702
-0.00838942
0.00125143
-0.00647281
0.00133173
-0.00343696
0.00144256
0.000174116
0.00154792
0.0038207
0.00161845
0.00720747
0.00164188
0.0100664
0.00161956
0.0119354
0.0118997
0.00182793
0.00870244
0.00187986
0.0100694
0.00188888
0.0115741
0.00184832
0.0123059
0.00175915
0.0111904
0.00164142
0.0078727
0.00152974
0.00300691
0.00144912
-0.00205713
0.00140243
-0.00606949
0.00138162
-0.00851043
0.00137234
-0.0095208
0.00135143
-0.00964619
0.00130468
-0.00947201
0.00124814
-0.00919016
0.00121803
-0.00835931
0.00124277
-0.00649756
0.00132388
-0.00351806
0.00143634
6.16562e-05
0.00154418
0.00371286
0.00161769
0.00713396
0.00164402
0.0100401
0.00162361
0.0119558
0.011956
0.00182436
0.00860676
0.00188165
0.0100121
0.00189579
0.01156
0.00185845
0.0123433
0.00176917
0.0112797
0.001648
0.00799387
0.00153105
0.00312386
0.00144514
-0.00197122
0.00139406
-0.00601842
0.00137013
-0.0084865
0.00135964
-0.00951031
0.00133956
-0.00962612
0.00129433
-0.00942678
0.0012387
-0.00913453
0.00120888
-0.00832949
0.00123388
-0.00652255
0.00131569
-0.00359987
0.0014297
-5.23513e-05
0.00154
0.00360256
0.00161654
0.00705742
0.00164586
0.0100108
0.00162748
0.0119742
0.0120121
0.00181981
0.00850619
0.00188254
0.00994942
0.00190192
0.0115406
0.001868
0.0123772
0.00177883
0.0113689
0.00165435
0.00811835
0.00153219
0.00324602
0.00144101
-0.00188004
0.00138555
-0.00596295
0.00135847
-0.00845942
0.00134674
-0.00949858
0.00132749
-0.00960686
0.00128385
-0.00938314
0.00122916
-0.00907983
0.00119958
-0.00829991
0.00122475
-0.00654772
0.00130717
-0.00368229
0.00142263
-0.000167814
0.00153537
0.00348983
0.00161499
0.0069778
0.00164739
0.00997839
0.00163115
0.0119904
0.0120678
0.00181427
0.00840075
0.00188248
0.00988121
0.00190724
0.0115158
0.00187695
0.0124075
0.00178809
0.0114577
0.00166047
0.00824597
0.00153318
0.00337331
0.00143673
-0.00178359
0.00137688
-0.00590311
0.00134665
-0.00842919
0.00133363
-0.00948556
0.0013152
-0.00958844
0.00127323
-0.00934117
0.00121951
-0.00902612
0.00119011
-0.00827051
0.00121537
-0.00657298
0.00129831
-0.00376524
0.00141515
-0.000284647
0.00153028
0.00337469
0.00161303
0.00689506
0.00164859
0.00994283
0.00163459
0.0120044
0.012123
0.00180772
0.00829044
0.00188146
0.00980747
0.00191171
0.0114856
0.00188525
0.0124339
0.00179693
0.0115461
0.00166634
0.00837657
0.001534
0.00350565
0.0014323
-0.00168189
0.00136808
-0.00583888
0.00133467
-0.00839579
0.00132031
-0.00947119
0.00130269
-0.00957081
0.00126244
-0.00930093
0.00120975
-0.00897342
0.00118047
-0.00824123
0.00120573
-0.00659824
0.00128912
-0.00384862
0.00140724
-0.000402765
0.00152474
0.00325718
0.00161064
0.00680916
0.00164946
0.00990401
0.00163781
0.0120161
0.0121777
0.00180013
0.00817529
0.00187943
0.00972816
0.00191531
0.0114497
0.00189288
0.0124564
0.00180535
0.0116336
0.00167196
0.00850995
0.00153467
0.00364294
0.00142774
-0.00157496
0.00135912
-0.00577027
0.00132254
-0.0083592
0.00130678
-0.00945544
0.00128994
-0.00955397
0.00125149
-0.00926247
0.00119986
-0.00892179
0.00117066
-0.00821203
0.00119583
-0.00662342
0.00127959
-0.00393238
0.00139891
-0.000522088
0.00151874
0.00313735
0.00160782
0.00672008
0.00164996
0.00986187
0.00164078
0.0120253
0.0122316
0.00179149
0.00805536
0.00187637
0.00964328
0.00191798
0.0114081
0.0018998
0.0124745
0.0018133
0.0117201
0.00167734
0.00864591
0.0015352
0.00378507
0.00142304
-0.0014628
0.00135002
-0.00569725
0.00131024
-0.00831942
0.00129305
-0.00943824
0.00127696
-0.00953789
0.00124035
-0.00922586
0.00118984
-0.00887129
0.00116066
-0.00818285
0.00118566
-0.00664842
0.00126971
-0.00401643
0.00139017
-0.000642545
0.00151227
0.00301525
0.00160456
0.0066278
0.0016501
0.00981633
0.00164349
0.0120319
0.0122848
0.00178178
0.0079307
0.00187226
0.0095528
0.0019197
0.0113607
0.00190599
0.0124883
0.00182077
0.0118053
0.00168245
0.00878424
0.00153559
0.00393193
0.00141821
-0.00134542
0.00134078
-0.00561982
0.00129779
-0.00827643
0.0012791
-0.00941956
0.00126373
-0.00952252
0.00122901
-0.00919113
0.00117969
-0.00882197
0.00115049
-0.00815365
0.00117521
-0.00667314
0.00125949
-0.0041007
0.00138101
-0.00076407
0.00150534
0.00289092
0.00160084
0.0065323
0.00164985
0.00976731
0.00164591
0.0120358
0.0123369
0.00177101
0.00780139
0.00186706
0.00945675
0.00192043
0.0113073
0.00191141
0.0124973
0.00182775
0.011889
0.00168731
0.00892468
0.00153586
0.00408338
0.00141327
-0.00122282
0.0013314
-0.00553795
0.00128518
-0.00823022
0.00126495
-0.00939933
0.00125026
-0.00950783
0.00121747
-0.00915835
0.00116941
-0.00877391
0.00114014
-0.00812439
0.00116447
-0.00669747
0.00124891
-0.00418515
0.00137145
-0.00088661
0.00149795
0.00276442
0.00159666
0.0064336
0.0016492
0.00971477
0.00164805
0.012037
0.012388
0.00175917
0.00766756
0.00186076
0.00935516
0.00192016
0.0112479
0.00191602
0.0125014
0.0018342
0.0119708
0.00169191
0.00906696
0.00153602
0.00423927
0.00140821
-0.00109501
0.00132187
-0.00545161
0.00127242
-0.00818077
0.0012506
-0.0093775
0.00123653
-0.00949376
0.00120572
-0.00912753
0.00115898
-0.00872717
0.00112963
-0.00809503
0.00115345
-0.00672129
0.00123798
-0.00426968
0.0013615
-0.00101013
0.00149012
0.0026358
0.00159202
0.0063317
0.00164815
0.00965864
0.00164988
0.0120352
0.012438
0.00174628
0.00752935
0.00185335
0.00924809
0.00191884
0.0111824
0.00191981
0.0125004
0.00184011
0.0120505
0.00169628
0.00921079
0.0015361
0.00439945
0.00140306
-0.000961967
0.00131222
-0.00536077
0.00125952
-0.00812807
0.00123606
-0.00935404
0.00122255
-0.00948026
0.00119374
-0.00909872
0.00114841
-0.00868184
0.00111894
-0.00806556
0.00114214
-0.00674449
0.00122669
-0.00435423
0.00135116
-0.00113459
0.00148184
0.00250511
0.00158692
0.00622662
0.00164668
0.00959888
0.00165139
0.0120305
0.0124865
0.00173239
0.00738699
0.00184484
0.00913564
0.00191646
0.0111108
0.00192274
0.0124942
0.00184548
0.0121277
0.00170046
0.00935582
0.00153618
0.00456372
0.00139786
-0.000823646
0.00130244
-0.00526535
0.00124645
-0.00807209
0.00122128
-0.00932886
0.00120828
-0.00946726
0.0011815
-0.00907194
0.00113766
-0.008638
0.00110807
-0.00803597
0.00113052
-0.00676694
0.00121501
-0.00443872
0.00134042
-0.00126001
0.00147315
0.00237238
0.00158137
0.00611841
0.00164478
0.00953547
0.00165257
0.0120227
0.0125337
0.00171758
0.00724074
0.00183524
0.00901798
0.00191303
0.011033
0.00192483
0.0124824
0.00185041
0.0122022
0.00170463
0.0095016
0.00153643
0.00473193
0.00139268
-0.000679895
0.00129249
-0.00516517
0.00123314
-0.00801274
0.0012062
-0.00930193
0.00119367
-0.00945472
0.00116896
-0.00904723
0.00112671
-0.00859575
0.00109701
-0.00800627
0.00111858
-0.00678851
0.0012029
-0.00452305
0.00132927
-0.00138637
0.00146405
0.0022376
0.00157539
0.00600707
0.00164247
0.00946838
0.00165342
0.0120118
0.0125792
0.00170208
0.00709097
0.0018247
0.00889536
0.00190863
0.0109491
0.00192619
0.0124648
0.00185505
0.0122733
0.00170889
0.00964776
0.00153673
0.00490409
0.00138732
-0.000530485
0.00128229
-0.00506013
0.00121964
-0.00795009
0.00119097
-0.00927326
0.00117885
-0.0094426
0.00115623
-0.00902461
0.00111566
-0.00855518
0.00108587
-0.00797648
0.00110644
-0.00680908
0.00119048
-0.00460708
0.00131779
-0.00151369
0.00145463
0.00210077
0.00156904
0.00589265
0.0016398
0.00939762
0.00165398
0.0119976
0.012623
0.00168696
0.00181404
0.00876828
0.00190381
0.0108593
0.001927
0.0124416
0.00185909
0.0123412
0.00171224
0.00979461
0.00153553
0.0050808
0.00138051
-0.000375469
0.00127146
-0.00495109
0.00120624
-0.00788487
0.00117619
-0.0092432
0.00116451
-0.00943093
0.00114393
-0.00900403
0.00110509
-0.00851634
0.00107527
-0.00794666
0.00109474
-0.00682855
0.00117839
-0.00469073
0.00130664
-0.00164194
0.0014455
0.00196191
0.00156284
0.00577531
0.00163707
0.0093234
0.00165433
0.0119804
0.0126651
0.00502281
0.00859695
0.00510773
0.0107744
0.00514803
0.0124013
0.00517958
0.0123097
0.00524475
0.00972944
0.00535931
0.00496624
0.00548746
-0.000503627
0.00556721
-0.00503083
0.00555675
-0.00787442
0.00547814
-0.00916459
0.00535606
-0.00930885
0.00517253
-0.00882049
0.00492035
-0.00826417
0.00466468
-0.00769099
0.00450913
-0.006673
0.00450946
-0.00469105
0.00463198
-0.00176447
0.00478808
0.00180581
0.00490237
0.00566103
0.00494232
0.00928345
0.00491374
0.0120089
0.0127377
0.00517752
0.00840678
0.00529118
0.0106607
0.0053588
0.0123337
0.0054083
0.0122602
0.00548135
0.00965639
0.00560589
0.00484171
0.00574358
-0.000641318
0.00581568
-0.00510293
0.00578479
-0.00784353
0.00567976
-0.00905956
0.00553749
-0.00916659
0.00534485
-0.00862785
0.00508825
-0.00800757
0.00482492
-0.00742765
0.00465871
-0.0065068
0.00465289
-0.00468523
0.00477363
-0.0018852
0.00493713
0.00164231
0.00506257
0.00553558
0.00511735
0.00922868
0.00510277
0.0120235
0.0128025
0.00533919
0.0081978
0.0054782
0.0105217
0.00557119
0.0122407
0.00564351
0.0121879
0.00573867
0.00956123
0.00587831
0.00470207
0.00601898
-0.000781992
0.00607786
-0.00516181
0.00602289
-0.00778855
0.00589008
-0.00892675
0.00572661
-0.00900312
0.00552436
-0.00842559
0.00526313
-0.00774635
0.00499167
-0.00715619
0.00481411
-0.00632924
0.0048004
-0.00467151
0.00492172
-0.00200652
0.00509255
0.00147147
0.00523033
0.0053978
0.00530041
0.00915859
0.00530046
0.0120235
0.0128572
0.00550648
0.0079693
0.0056714
0.0103568
0.0057919
0.0121202
0.00589171
0.012088
0.00601316
0.00943978
0.00617036
0.00454488
0.0063098
-0.000921434
0.00635183
-0.00520384
0.00627064
-0.00770737
0.0061084
-0.00876451
0.00592214
-0.00881685
0.00570982
-0.00821328
0.00544476
-0.00748129
0.00516548
-0.00687691
0.00497528
-0.00613905
0.00495239
-0.00464862
0.00507392
-0.00212805
0.00525343
0.00129196
0.00540551
0.00524572
0.00549307
0.00907104
0.00550998
0.0120066
0.0128993
0.00567831
0.00772005
0.0058711
0.010164
0.00602166
0.0119697
0.00615178
0.0119579
0.00630336
0.0092882
0.00647981
0.00436843
0.00661528
-0.0010569
0.00663681
-0.00522537
0.00652709
-0.00759765
0.00633404
-0.00857146
0.00612367
-0.00860648
0.00590085
-0.00799046
0.00563292
-0.00721337
0.00534662
-0.0065906
0.00514283
-0.00593526
0.00510889
-0.00461467
0.00522955
-0.00224871
0.00541902
0.00110249
0.00558776
0.00507698
0.00569552
0.00896328
0.00573185
0.0119702
0.0129263
0.00585377
0.00744817
0.00607651
0.00994123
0.00625851
0.0117877
0.00642202
0.0117944
0.00660878
0.00910144
0.00680525
0.00417196
0.00693387
-0.00118552
0.00693112
-0.00522262
0.00679079
-0.00745732
0.00656612
-0.00834679
0.0063307
-0.00837106
0.00609696
-0.00775672
0.00582727
-0.00694367
0.00553519
-0.00629852
0.0053171
-0.00571718
0.00526989
-0.00456746
0.00538848
-0.0023673
0.00558894
0.000902032
0.0057768
0.00488912
0.00590765
0.00883243
0.00596588
0.011912
0.0129355
0.00603141
0.00715158
0.00628527
0.00968737
0.00649981
0.0115731
0.00670121
0.011593
0.00692787
0.00887479
0.00714451
0.00395531
0.00726331
-0.00130432
0.00723267
-0.00519197
0.00706004
-0.0072847
0.00680357
-0.00809031
0.00654262
-0.00811012
0.00629761
-0.00751171
0.00602732
-0.00667338
0.00573114
-0.00600234
0.00549846
-0.0054845
0.00543568
-0.00450467
0.0055506
-0.00248222
0.00576283
0.000689801
0.0059723
0.00467965
0.006129
0.00867573
0.00621142
0.0118296
0.0129244
0.00620895
0.00682848
0.00649446
0.00940186
0.00674324
0.0113243
0.00698755
0.0113487
0.007258
0.00860434
0.00749469
0.00371862
0.00760072
-0.00141035
0.00753893
-0.00513019
0.00733282
-0.00707859
0.0070451
-0.00780258
0.00675877
-0.00782379
0.00650223
-0.00725517
0.00623251
-0.00640367
0.00593436
-0.00570418
0.00568737
-0.00523752
0.00560674
-0.00442404
0.00571585
-0.00259134
0.00594028
0.000465378
0.00617373
0.0044462
0.00635883
0.00849063
0.00646768
0.0117207
0.0128897
0.00638365
0.00647792
0.00670108
0.00908443
0.00698628
0.0110391
0.00727838
0.0110566
0.007596
0.00828672
0.00785217
0.00346244
0.00794259
-0.00150076
0.00784694
-0.00503454
0.00760683
-0.00683849
0.00728926
-0.00748501
0.00697839
-0.00751292
0.00671022
-0.00698701
0.00644217
-0.00613562
0.00614455
-0.00540656
0.00588432
-0.00497728
0.00578375
-0.00432347
0.00588437
-0.00269195
0.00612084
0.000228906
0.00638037
0.00418667
0.00659618
0.00827482
0.00673368
0.0115832
0.0128286
0.00655274
0.00610065
0.00690178
0.00873538
0.00722582
0.0107151
0.00757075
0.0107117
0.00793823
0.00791924
0.00821278
0.0031879
0.00828486
-0.00157284
0.00815335
-0.00490303
0.00787958
-0.00656472
0.00753447
-0.00713989
0.00720071
-0.00717916
0.00692102
-0.00670732
0.00665557
-0.00587017
0.0063613
-0.00511229
0.00608972
-0.00470571
0.00596763
-0.00420138
0.00605658
-0.00278091
0.00630419
-1.87039e-05
0.00659134
0.00389952
0.00683984
0.00802632
0.00700805
0.011415
0.0127385
0.00671346
0.00570059
0.00709279
0.00835605
0.00745858
0.0103493
0.00786166
0.0103086
0.008281
0.0074999
0.0085718
0.00289709
0.00862301
-0.00162405
0.00845459
-0.0047346
0.00814848
-0.00625861
0.00777909
-0.0067705
0.00742496
-0.00682502
0.00713412
-0.00641649
0.00687196
-0.00560801
0.00658397
-0.0048243
0.0063039
-0.00442563
0.00615945
-0.00405693
0.00623326
-0.00285472
0.00649012
-0.000275568
0.00680562
0.00358402
0.00708833
0.00774361
0.00728908
0.0112142
0.012617
0.00686339
0.00528637
0.00727031
0.00794913
0.00768157
0.00993804
0.00814836
0.00984179
0.00862033
0.00702793
0.00892436
0.00259306
0.00895224
-0.00165193
0.00874696
-0.00452933
0.00841098
-0.00592264
0.00802152
-0.00638104
0.00765037
-0.00645388
0.00734911
-0.00611522
0.00709061
-0.00534951
0.00681179
-0.00454548
0.00652694
-0.00414078
0.0063604
-0.0038904
0.0064155
-0.00290981
0.00667858
-0.000538646
0.00702202
0.00324058
0.00733986
0.00742577
0.00757465
0.0109795
0.0124622
0.00700108
0.00487228
0.00743126
0.00751896
0.00789262
0.00947668
0.00842888
0.00930554
0.00895272
0.00650408
0.00926536
0.00228043
0.00926765
-0.00165422
0.00902689
-0.00428857
0.00866473
-0.00556047
0.00826024
-0.00597655
0.00787625
-0.00606989
0.00756566
-0.00580463
0.00731086
-0.00509471
0.00704381
-0.00427842
0.00675863
-0.0038556
0.00657156
-0.00370333
0.0066046
-0.00294285
0.0068696
-0.000803653
0.00723922
0.00287096
0.00759235
0.00707264
0.00786227
0.0107095
0.0122726
0.00712719
0.00447843
0.00757423
0.00707192
0.00809135
0.00895956
0.00870264
0.00869425
0.00927535
0.00593137
0.00959005
0.00196573
0.00956458
-0.00162875
0.00929115
-0.00401513
0.00890774
-0.00517707
0.00849399
-0.00556279
0.00810199
-0.00567789
0.0077836
-0.00548624
0.00753219
-0.0048433
0.00727898
-0.00402522
0.00699843
-0.00357504
0.00679374
-0.00349865
0.00680189
-0.00295099
0.00706333
-0.0010651
0.00745576
0.00247854
0.0078434