/*--------------------------------*- C++ -*----------------------------------*\
  =========                 |
  \\      /  F ield         | OpenFOAM: The Open Source CFD Toolbox
   \\    /   O peration     | Website:  https://openfoam.org
    \\  /    A nd           | Version:  7
     \\/     M anipulation  |
\*---------------------------------------------------------------------------*/
FoamFile
{
    version     2.0;
    format      ascii;
    class       volVectorField;
    location    "120";
    object      U;
}
// * * * * * * * * * * * * * * * * * * * * * * * * * * * * * * * * * * * * * //

dimensions      [0 1 -1 0 0 0 0];

internalField   nonuniform List<vector> 
4575
(
(0.878 0.484409 -1.24802e-22)
(0.885913 0.48724 -3.01935e-23)
(0.875588 0.495511 6.03273e-23)
(0.843708 0.513944 9.97581e-24)
(0.799732 0.508667 -5.67225e-23)
(0.762515 0.434999 2.05706e-22)
(0.744695 0.282183 1.23545e-22)
(0.748828 0.0834779 4.65591e-24)
(0.771609 -0.109533 5.97966e-23)
(0.805717 -0.257219 -3.47629e-23)
(0.84086 -0.348051 1.43089e-22)
(0.864724 -0.396908 1.82474e-23)
(0.866362 -0.427148 2.69464e-23)
(0.843328 -0.445334 -1.34698e-22)
(0.805021 -0.434277 -7.65425e-23)
(0.769624 -0.367275 -6.78282e-24)
(0.751259 -0.239998 -5.76927e-23)
(0.755018 -0.075955 -9.18941e-23)
(0.77796 0.0834232 9.18699e-23)
(0.809787 0.209224 -7.43541e-23)
(0.832024 0.296886 2.17519e-23)
(0.832796 0.355046 2.2781e-23)
(0.813898 0.384689 2.22941e-23)
(0.789635 0.364015 -2.91575e-23)
(0.874895 0.48286 -2.08158e-22)
(0.884278 0.487275 -4.06131e-22)
(0.874927 0.497436 1.75551e-22)
(0.843782 0.517402 -2.39633e-22)
(0.800789 0.512366 1.00178e-22)
(0.764734 0.437572 3.16889e-22)
(0.747789 0.282996 -2.19346e-22)
(0.752354 0.082563 1.79826e-22)
(0.775084 -0.111732 -9.01752e-23)
(0.808619 -0.259949 1.34385e-22)
(0.842924 -0.350369 1.93482e-22)
(0.86605 -0.39788 -9.37515e-23)
(0.867174 -0.426286 1.54562e-22)
(0.843773 -0.442972 -1.48116e-22)
(0.804998 -0.43152 1.79831e-22)
(0.769005 -0.365344 1.48351e-22)
(0.750282 -0.239567 1.03426e-22)
(0.754114 -0.0770271 7.56467e-23)
(0.777329 0.081395 -2.67618e-22)
(0.809306 0.207284 -1.77657e-23)
(0.831532 0.296051 -2.69688e-22)
(0.832336 0.355604 4.27307e-23)
(0.813589 0.386072 -9.47274e-23)
(0.789451 0.365342 -2.39853e-22)
(0.871865 0.481133 1.63329e-22)
(0.882724 0.48718 1.80074e-22)
(0.87437 0.499256 3.94692e-23)
(0.844 0.520769 2.9905e-22)
(0.802023 0.516018 -6.79072e-22)
(0.767119 0.440199 1.44263e-22)
(0.751022 0.283968 -3.67876e-22)
(0.756004 0.0818633 -2.55279e-22)
(0.778678 -0.11371 -7.0418e-22)
(0.811632 -0.262493 4.76028e-22)
(0.845085 -0.352554 -4.79677e-22)
(0.867472 -0.398769 9.184e-23)
(0.868093 -0.425373 1.64962e-22)
(0.844348 -0.440581 -2.03061e-22)
(0.805138 -0.428759 3.87815e-22)
(0.768559 -0.363459 -2.49059e-22)
(0.749464 -0.239243 5.32262e-22)
(0.753342 -0.0782348 3.31696e-22)
(0.776804 0.0792475 2.325e-22)
(0.808912 0.205264 2.18325e-23)
(0.831133 0.295165 4.00176e-22)
(0.831979 0.356125 -4.35157e-22)
(0.813389 0.387442 8.37728e-23)
(0.789374 0.366695 3.37865e-22)
(0.868908 0.479224 -5.71241e-22)
(0.881249 0.48695 4.518e-22)
(0.873912 0.500964 -5.81878e-22)
(0.844358 0.524036 -8.33092e-22)
(0.803428 0.519624 1.65446e-21)
(0.769663 0.442886 -1.35331e-21)
(0.754389 0.285106 6.20516e-22)
(0.759772 0.0813833 8.68397e-22)
(0.782388 -0.115467 -9.71055e-22)
(0.814756 -0.264848 1.32711e-21)
(0.847344 -0.354605 -2.6754e-22)
(0.86899 -0.399576 5.77675e-22)
(0.869121 -0.424413 -2.44449e-22)
(0.845052 -0.438165 8.39405e-22)
(0.805438 -0.425998 9.00848e-23)
(0.768287 -0.36162 -2.73188e-22)
(0.748803 -0.23902 -6.56633e-22)
(0.752702 -0.0795739 -7.62452e-22)
(0.776382 0.0769836 -1.2832e-22)
(0.808607 0.203163 6.60911e-23)
(0.830826 0.294225 -1.6351e-22)
(0.831725 0.356609 5.22168e-22)
(0.813299 0.3888 -4.93477e-23)
(0.789406 0.368074 1.20028e-22)
(0.866021 0.477128 5.02408e-22)
(0.87985 0.486579 -2.19606e-22)
(0.873552 0.502551 4.47424e-23)
(0.844856 0.527197 9.40909e-23)
(0.804998 0.523181 -8.21618e-22)
(0.77236 0.445634 1.78733e-21)
(0.757884 0.286413 7.20326e-22)
(0.763654 0.0811268 1.13972e-22)
(0.786212 -0.116999 7.3317e-22)
(0.817991 -0.267012 -1.17931e-21)
(0.849701 -0.356524 -1.29329e-23)
(0.870603 -0.400307 -6.42125e-22)
(0.870257 -0.423412 -5.1094e-22)
(0.845885 -0.435728 -8.30932e-22)
(0.805897 -0.423237 -7.76463e-22)
(0.768189 -0.359823 1.10506e-21)
(0.748301 -0.238894 5.96949e-22)
(0.752192 -0.08104 1.35584e-22)
(0.776062 0.0746058 1.61744e-22)
(0.808387 0.20098 -2.07873e-22)
(0.830609 0.293228 5.99761e-22)
(0.831574 0.357051 -4.08162e-22)
(0.81332 0.390142 3.23266e-22)
(0.78955 0.36948 4.1622e-22)
(0.863201 0.474843 -5.37533e-22)
(0.878524 0.486059 -8.36872e-22)
(0.873288 0.504008 2.79878e-23)
(0.845488 0.530246 6.0118e-22)
(0.806728 0.526688 -2.33121e-22)
(0.775202 0.448448 -4.33308e-22)
(0.7615 0.287895 -2.04228e-21)
(0.767646 0.0810978 -5.14584e-23)
(0.790147 -0.118303 1.84551e-22)
(0.821338 -0.268985 -1.6588e-21)
(0.852157 -0.358311 6.9744e-22)
(0.872312 -0.400963 -1.35455e-22)
(0.871501 -0.422374 1.10441e-22)
(0.846844 -0.433273 1.01435e-21)
(0.806512 -0.420479 -1.24451e-23)
(0.768264 -0.358067 -4.18019e-22)
(0.747954 -0.238862 -2.34362e-22)
(0.751808 -0.0826287 7.92748e-22)
(0.77584 0.0721166 9.0251e-24)
(0.808253 0.198716 -4.38754e-23)
(0.830483 0.292174 2.28201e-22)
(0.831524 0.357451 -9.1496e-22)
(0.813451 0.39147 -2.63658e-22)
(0.789807 0.370912 -9.86819e-22)
(0.860446 0.472363 2.72205e-22)
(0.877266 0.485384 1.94865e-22)
(0.873114 0.505329 3.46743e-22)
(0.846252 0.533176 -1.17775e-21)
(0.80861 0.530143 2.70834e-21)
(0.778183 0.451331 1.45106e-21)
(0.765234 0.289554 1.68846e-22)
(0.771744 0.0812996 -1.70384e-21)
(0.79419 -0.119377 8.98547e-22)
(0.824797 -0.270764 1.40141e-21)
(0.854713 -0.359965 1.0558e-21)
(0.874115 -0.401547 -1.56818e-22)
(0.872852 -0.421302 -5.99583e-22)
(0.847928 -0.430805 -3.57317e-22)
(0.807282 -0.417726 5.67617e-24)
(0.76851 -0.35635 -8.03372e-22)
(0.747764 -0.238917 7.90172e-23)
(0.75155 -0.0843354 -3.38642e-22)
(0.775715 0.0695187 -6.11999e-22)
(0.808202 0.196371 2.54345e-22)
(0.830447 0.291059 -5.02828e-22)
(0.831576 0.357805 8.65228e-22)
(0.813695 0.39278 5.98345e-23)
(0.790178 0.372371 9.20105e-22)
(0.857751 0.469685 -4.78135e-22)
(0.876073 0.484549 -3.67323e-22)
(0.873029 0.506504 1.21331e-21)
(0.847142 0.53598 7.2885e-22)
(0.810638 0.533545 -2.23877e-21)
(0.781296 0.454283 4.7149e-22)
(0.769078 0.291396 -4.24696e-22)
(0.775941 0.0817349 3.85324e-21)
(0.798337 -0.120219 -6.082e-21)
(0.828365 -0.272348 1.1304e-21)
(0.857369 -0.361486 -1.60573e-21)
(0.876012 -0.402063 2.1908e-21)
(0.87431 -0.420202 1.24006e-22)
(0.849135 -0.428329 7.94158e-22)
(0.808203 -0.414979 2.96406e-22)
(0.768926 -0.354671 -7.58518e-23)
(0.747728 -0.239057 2.28992e-22)
(0.751414 -0.0861555 1.52485e-22)
(0.775683 0.0668147 6.77785e-22)
(0.808233 0.193944 -6.5961e-22)
(0.830498 0.289882 -5.11481e-22)
(0.831729 0.358112 1.39416e-22)
(0.814049 0.394071 -1.32238e-21)
(0.790664 0.373857 3.09964e-22)
(0.855113 0.466806 1.25053e-21)
(0.874941 0.483548 5.57083e-22)
(0.873027 0.507526 -2.12088e-21)
(0.848155 0.538651 1.98129e-22)
(0.812806 0.536892 1.72247e-22)
(0.784534 0.457307 -1.13298e-21)
(0.773027 0.293422 7.06995e-22)
(0.780232 0.0824064 -6.37724e-22)
(0.802585 -0.120828 1.10277e-21)
(0.832042 -0.273735 -3.31435e-21)
(0.860125 -0.362875 1.77805e-21)
(0.878003 -0.402513 -1.21539e-22)
(0.875874 -0.419078 -1.4997e-21)
(0.850464 -0.425847 3.84544e-22)
(0.809272 -0.41224 2.39012e-21)
(0.76951 -0.353026 -1.00819e-22)
(0.747845 -0.239274 -9.99291e-22)
(0.751398 -0.088084 1.32524e-21)
(0.775744 0.0640071 -4.73959e-22)
(0.808344 0.191435 -3.36502e-22)
(0.830635 0.288639 7.07506e-22)
(0.831981 0.358368 1.55278e-22)
(0.814515 0.395343 1.84245e-21)
(0.791266 0.375368 -4.43691e-22)
(0.85253 0.463721 -1.94053e-21)
(0.873864 0.482373 3.62018e-22)
(0.873106 0.508386 2.30712e-21)
(0.849284 0.541184 -7.76174e-22)
(0.815105 0.540181 8.60819e-22)
(0.78789 0.460404 5.0408e-22)
(0.777075 0.295635 3.76267e-23)
(0.784614 0.0833168 -1.46976e-21)
(0.806929 -0.121201 -1.15537e-21)
(0.835827 -0.274926 2.78534e-21)
(0.862982 -0.364131 5.56722e-22)
(0.880086 -0.402898 1.09999e-21)
(0.877541 -0.417933 -1.61817e-21)
(0.851913 -0.423362 5.23126e-22)
(0.810484 -0.40951 -1.11006e-21)
(0.770259 -0.351414 6.54445e-22)
(0.748113 -0.239566 -2.8331e-22)
(0.751501 -0.0901161 1.62389e-21)
(0.775893 0.0610984 -2.08333e-21)
(0.808533 0.188843 -7.95148e-22)
(0.830858 0.287329 1.19111e-22)
(0.832333 0.358572 -1.74273e-22)
(0.815093 0.396592 -5.65581e-22)
(0.791986 0.376905 -4.83309e-22)
(0.872839 0.481019 1.14386e-21)
(0.873261 0.509078 4.24343e-22)
(0.850525 0.543572 1.01298e-21)
(0.817529 0.543409 -2.05817e-21)
(0.791356 0.463574 2.06201e-21)
(0.781216 0.298038 -2.58303e-21)
(0.789079 0.0844686 2.86118e-22)
(0.811366 -0.121337 1.07209e-21)
(0.839718 -0.275917 -8.03342e-22)
(0.865939 -0.365254 -4.96223e-22)
(0.882259 -0.403222 -1.67941e-21)
(0.879311 -0.416771 1.01373e-21)
(0.85348 -0.42088 -1.97668e-22)
(0.811836 -0.406791 -4.20766e-22)
(0.771171 -0.349832 -1.23635e-21)
(0.748531 -0.239926 -1.83786e-22)
(0.751718 -0.0922468 -8.83949e-23)
(0.776128 0.0580912 1.49259e-21)
(0.808797 0.186168 1.47418e-21)
(0.831163 0.28595 7.77264e-23)
(0.832781 0.35872 -6.20258e-23)
(0.815782 0.397817 -7.54562e-22)
(0.792823 0.378468 3.12524e-22)
(0.87186 0.47948 -8.20253e-22)
(0.873486 0.509593 7.13342e-22)
(0.851871 0.545809 -1.90192e-21)
(0.820069 0.546574 -2.8603e-22)
(0.794926 0.466818 2.39981e-21)
(0.785443 0.300632 4.36987e-22)
(0.793622 0.085864 9.37393e-22)
(0.815891 -0.121235 3.27141e-22)
(0.843712 -0.27671 3.41537e-21)
(0.868997 -0.366243 -5.76659e-22)
(0.884523 -0.403485 -9.10229e-22)
(0.881181 -0.415597 -3.80249e-22)
(0.855163 -0.418402 1.50331e-22)
(0.813323 -0.404084 -9.82436e-22)
(0.77224 -0.34828 -4.35134e-22)
(0.749096 -0.24035 -1.2995e-22)
(0.752048 -0.094471 -2.1953e-21)
(0.776447 0.0549882 2.05084e-21)
(0.809135 0.18341 -2.31372e-21)
(0.831549 0.284499 -6.73603e-22)
(0.833326 0.35881 5.86968e-22)
(0.816581 0.399016 -6.82098e-22)
(0.793779 0.380054 4.6602e-22)
(0.870923 0.477751 3.45984e-22)
(0.873777 0.509924 1.46212e-21)
(0.853316 0.547887 4.95175e-22)
(0.82272 0.549672 -1.79465e-21)
(0.798593 0.470134 1.53318e-21)
(0.789751 0.303418 -4.07006e-21)
(0.798239 0.0875043 2.96946e-21)
(0.820498 -0.120894 -4.40073e-21)
(0.847808 -0.277302 9.40686e-22)
(0.872155 -0.367097 3.74586e-21)
(0.886874 -0.40369 -3.36563e-21)
(0.883149 -0.414413 1.44935e-22)
(0.856959 -0.415933 -1.18992e-21)
(0.814941 -0.40139 2.58994e-21)
(0.773463 -0.346754 -5.80844e-23)
(0.749806 -0.240832 -9.40917e-22)
(0.752488 -0.0967834 8.84843e-22)
(0.776847 0.051792 7.83122e-23)
(0.809544 0.180568 -7.24045e-23)
(0.832014 0.282974 8.2557e-22)
(0.833965 0.358838 -9.71918e-22)
(0.81749 0.400187 1.60431e-21)
(0.794853 0.381664 -1.45112e-22)
(0.870021 0.475826 3.905e-21)
(0.874128 0.510063 -9.16934e-22)
(0.854854 0.549802 5.14151e-22)
(0.825471 0.552701 1.41539e-21)
(0.802349 0.473522 9.56695e-22)
(0.794132 0.306396 -3.97601e-21)
(0.802922 0.0893911 -1.60079e-21)
(0.825183 -0.120312 7.5446e-22)
(0.852003 -0.277692 -2.20645e-21)
(0.875413 -0.367817 -4.55449e-21)
(0.889312 -0.403837 2.67903e-21)
(0.885212 -0.413224 1.03654e-21)
(0.858868 -0.413475 2.68554e-21)
(0.816686 -0.398712 -1.01106e-21)
(0.774835 -0.345253 2.4341e-22)
(0.750659 -0.241367 4.11952e-22)
(0.753036 -0.099179 -7.65018e-22)
(0.777324 0.0485053 4.29596e-23)
(0.810021 0.177642 4.31123e-22)
(0.832555 0.281372 -7.33165e-22)
(0.834697 0.358803 9.30269e-22)
(0.818507 0.401328 -7.71161e-22)
(0.796046 0.383296 2.86779e-22)
(0.86915 0.473699 -5.04657e-21)
(0.874534 0.510005 -4.55312e-21)
(0.856477 0.551545 2.9784e-21)
(0.828317 0.555654 1.78396e-21)
(0.806189 0.47698 -5.55489e-21)
(0.798581 0.309568 8.03968e-21)
(0.807665 0.0915256 2.41267e-22)
(0.829942 -0.11949 2.47894e-21)
(0.856292 -0.277881 -1.32048e-21)
(0.878769 -0.3684 8.1407e-22)
(0.891836 -0.403928 5.92387e-22)
(0.887367 -0.412032 6.02426e-22)
(0.860886 -0.411031 -1.39862e-21)
(0.818553 -0.396049 -1.04345e-21)
(0.776351 -0.343775 1.68179e-21)
(0.751652 -0.241951 1.11359e-21)
(0.753689 -0.101652 2.49586e-22)
(0.777877 0.0451308 -2.3142e-22)
(0.810564 0.174631 1.98614e-21)
(0.83317 0.279692 6.26847e-22)
(0.83552 0.358702 -3.72275e-22)
(0.819632 0.402436 9.46648e-22)
(0.797357 0.384948 -7.64707e-22)
(0.868305 0.471366 8.72503e-22)
(0.874989 0.509741 2.45456e-21)
(0.858178 0.553112 2.7043e-21)
(0.831249 0.558529 -1.11737e-22)
(0.810103 0.480505 3.12303e-21)
(0.803091 0.312933 -4.34449e-21)
(0.812464 0.0939087 -4.49742e-21)
(0.834767 -0.118426 5.53039e-21)
(0.860674 -0.277868 -7.71414e-22)
(0.882224 -0.368846 2.64695e-21)
(0.894443 -0.403964 -4.36635e-21)
(0.88961 -0.41084 -6.23928e-22)
(0.863011 -0.408604 -1.42252e-22)
(0.820537 -0.393403 9.77871e-22)
(0.778005 -0.342319 -6.53695e-22)
(0.752781 -0.242578 -1.26907e-21)
(0.754444 -0.104198 1.06097e-21)
(0.778501 0.0416714 -6.25117e-22)
(0.811169 0.171536 -7.28829e-22)
(0.833856 0.27793 -8.9251e-22)
(0.836431 0.358531 9.25286e-23)
(0.820863 0.403509 -9.04254e-22)
(0.798785 0.38662 1.18276e-21)
(0.867479 0.468822 -1.56897e-21)
(0.875488 0.509265 7.90558e-22)
(0.85995 0.554496 -7.49734e-22)
(0.834259 0.56132 -5.58496e-22)
(0.814086 0.484095 9.76748e-22)
(0.807656 0.31649 -6.05423e-21)
(0.817311 0.0965413 7.67239e-22)
(0.839655 -0.117119 3.10371e-21)
(0.865143 -0.277652 -2.93381e-21)
(0.885776 -0.369155 5.50819e-21)
(0.897133 -0.403944 -4.00767e-21)
(0.891939 -0.409653 2.17177e-21)
(0.86524 -0.406197 1.89353e-21)
(0.822635 -0.390775 -2.67253e-22)
(0.77979 -0.340881 9.98055e-22)
(0.754043 -0.243244 1.39471e-23)
(0.7553 -0.10681 2.27736e-22)
(0.779195 0.03813 -8.93558e-22)
(0.811834 0.168356 -3.13029e-22)
(0.83461 0.276085 -7.7336e-22)
(0.837429 0.358287 -8.28295e-22)
(0.822199 0.404544 4.8111e-22)
(0.800331 0.38831 2.00084e-21)
(0.866667 0.466062 1.09823e-22)
(0.876022 0.508571 -3.25291e-21)
(0.861786 0.55569 1.81125e-21)
(0.83734 0.564023 1.4406e-22)
(0.818131 0.487746 6.0435e-21)
(0.812268 0.320238 2.79687e-21)
(0.8222 0.0994236 -5.90205e-21)
(0.8446 -0.11557 -2.25217e-21)
(0.869697 -0.277234 -2.70992e-21)
(0.889423 -0.369325 -1.55367e-21)
(0.899905 -0.403869 6.61542e-22)
(0.894349 -0.408472 -1.38505e-21)
(0.867571 -0.403812 8.55038e-22)
(0.824843 -0.388166 -1.93962e-21)
(0.781701 -0.339462 1.01269e-22)
(0.755435 -0.243943 -1.10188e-22)
(0.756253 -0.109484 -1.46847e-21)
(0.779955 0.0345095 1.12229e-21)
(0.812555 0.16509 7.55148e-22)
(0.83543 0.274155 -2.07321e-22)
(0.83851 0.357969 1.5325e-22)
(0.823637 0.405538 1.28662e-21)
(0.801992 0.390016 -2.93979e-21)
(0.865864 0.463082 -2.47783e-21)
(0.876587 0.507653 -6.418e-22)
(0.863676 0.556687 -3.21718e-21)
(0.840483 0.566631 4.87819e-21)
(0.822229 0.491454 -2.57958e-22)
(0.816921 0.324175 -3.47229e-21)
(0.827126 0.102556 5.30087e-21)
(0.849596 -0.113778 -3.10258e-21)
(0.874331 -0.276611 2.74921e-21)
(0.893164 -0.369354 6.70894e-21)
(0.902756 -0.403739 -2.55572e-21)
(0.896838 -0.407299 2.70161e-21)
(0.87 -0.401453 6.81229e-22)
(0.827158 -0.385575 -5.43167e-22)
(0.78373 -0.338058 1.59184e-21)
(0.756951 -0.244672 1.43036e-22)
(0.757301 -0.112214 3.24129e-22)
(0.780778 0.0308132 -9.48484e-23)
(0.813329 0.16174 -5.22088e-22)
(0.836312 0.272137 -3.09428e-22)
(0.839673 0.357572 6.79958e-22)
(0.825176 0.406489 5.96219e-24)
(0.803769 0.391735 3.90937e-22)
(0.865064 0.459879 8.25665e-22)
(0.877175 0.506505 4.20709e-21)
(0.865615 0.557483 -5.8441e-21)
(0.84368 0.569138 3.28888e-21)
(0.826375 0.495214 -4.83488e-21)
(0.821609 0.3283 1.17433e-21)
(0.832081 0.105938 -3.93985e-21)
(0.854638 -0.111744 1.04352e-20)
(0.87904 -0.275786 -5.19239e-21)
(0.896996 -0.369243 -7.64797e-21)
(0.905686 -0.403553 -3.57786e-22)
(0.899401 -0.406138 2.63309e-22)
(0.872523 -0.399123 2.10964e-21)
(0.829575 -0.383004 6.58854e-22)
(0.78587 -0.336669 -3.5879e-22)
(0.758587 -0.245425 -1.77372e-22)
(0.758441 -0.114995 -1.18569e-21)
(0.781661 0.0270441 2.06339e-22)
(0.814154 0.158304 7.92298e-22)
(0.837253 0.27003 4.49461e-22)
(0.840914 0.357094 2.34299e-22)
(0.826813 0.407394 6.96793e-22)
(0.805659 0.393466 3.33753e-23)
(0.86426 0.456449 -1.08604e-21)
(0.87778 0.505121 1.49657e-21)
(0.867593 0.55807 -3.86541e-21)
(0.846924 0.571539 1.80207e-21)
(0.830561 0.499022 3.7468e-21)
(0.826324 0.33261 6.60836e-21)
(0.83706 0.10957 2.88207e-22)
(0.85972 -0.109466 -8.80973e-21)
(0.883821 -0.274757 5.16419e-21)
(0.900918 -0.36899 -1.30035e-21)
(0.908692 -0.403311 -1.5903e-21)
(0.902034 -0.40499 1.2916e-21)
(0.875138 -0.396823 -3.32384e-21)
(0.832092 -0.380454 -2.36958e-21)
(0.788114 -0.335292 1.6196e-21)
(0.760338 -0.246199 7.14688e-22)
(0.759672 -0.117821 -3.89819e-22)
(0.782603 0.0232056 -5.43111e-23)
(0.815024 0.154784 -1.36489e-21)
(0.838249 0.26783 7.51059e-22)
(0.842231 0.356532 -7.96983e-22)
(0.828545 0.40825 5.56458e-22)
(0.807661 0.395207 -1.72209e-21)
(0.863447 0.452788 9.71388e-22)
(0.878393 0.503498 9.59056e-22)
(0.869602 0.558442 5.09538e-21)
(0.850207 0.573825 8.30816e-22)
(0.83478 0.502871 9.72135e-22)
(0.831059 0.337101 -6.831e-21)
(0.842057 0.11345 6.07495e-21)
(0.864837 -0.106945 1.23239e-21)
(0.888667 -0.273525 3.64974e-21)
(0.904927 -0.368594 5.47336e-22)
(0.911775 -0.403011 4.52953e-22)
(0.904734 -0.403857 -1.97643e-21)
(0.877839 -0.394557 1.31629e-21)
(0.834707 -0.377924 4.75367e-22)
(0.790456 -0.333926 -1.81759e-21)
(0.762197 -0.24699 -1.46244e-22)
(0.76099 -0.120687 1.31789e-21)
(0.783599 0.0193011 -2.82878e-22)
(0.815939 0.151179 3.36664e-22)
(0.839298 0.265537 1.4417e-22)
(0.843619 0.355884 2.26104e-21)
(0.83037 0.409055 -2.48912e-21)
(0.809772 0.396954 -3.89323e-22)
(0.86262 0.448895 -5.72649e-22)
(0.87901 0.501628 -5.99062e-22)
(0.871635 0.558592 4.2999e-21)
(0.853522 0.575991 -7.91058e-21)
(0.839025 0.506754 -2.83464e-21)
(0.835809 0.341769 -2.07324e-21)
(0.847065 0.117578 -5.24022e-21)
(0.869984 -0.104181 -5.73166e-21)
(0.893575 -0.27209 3.99887e-21)
(0.90902 -0.368054 -6.43831e-21)
(0.914931 -0.402653 3.49804e-21)
(0.907497 -0.40274 1.53109e-22)
(0.880622 -0.392327 6.48171e-22)
(0.837416 -0.375415 9.41215e-22)
(0.792889 -0.332568 1.19968e-21)
(0.764158 -0.247793 -1.76601e-21)
(0.762393 -0.123587 -2.47401e-22)
(0.784647 0.0153342 8.31194e-23)
(0.816893 0.14749 -3.92325e-22)
(0.840396 0.263149 -7.08491e-22)
(0.845077 0.355145 -3.89993e-22)
(0.832285 0.409803 2.37539e-22)
(0.811991 0.398706 2.10256e-21)
(0.861771 0.444767 2.73805e-22)
(0.879621 0.49951 1.6996e-21)
(0.873682 0.558516 -1.07317e-21)
(0.856859 0.578029 4.40898e-21)
(0.843289 0.510666 4.23997e-21)
(0.840565 0.346612 2.53938e-21)
(0.852079 0.121953 6.05265e-21)
(0.875155 -0.101175 -5.19327e-21)
(0.898539 -0.270451 -8.0018e-22)
(0.913194 -0.367369 -5.03163e-21)
(0.91816 -0.402235 1.77006e-21)
(0.91032 -0.401641 -2.63825e-21)
(0.883482 -0.390137 -3.50751e-23)
(0.840217 -0.372927 1.68952e-21)
(0.795406 -0.331217 -1.97711e-21)
(0.766213 -0.248605 8.13675e-23)
(0.763878 -0.126518 1.19786e-21)
(0.785746 0.0113086 -9.74792e-22)
(0.817883 0.143718 8.01485e-22)
(0.841538 0.260663 -2.02641e-22)
(0.846599 0.354315 1.42438e-21)
(0.834287 0.410494 -3.15186e-21)
(0.814316 0.400459 2.76072e-21)
(0.860897 0.440403 4.61154e-21)
(0.880219 0.497138 -1.73987e-21)
(0.875737 0.558206 -4.60287e-21)
(0.860212 0.57993 -6.65255e-22)
(0.847566 0.514598 -2.36788e-22)
(0.845321 0.351624 -5.22229e-21)
(0.857093 0.126572 -1.55968e-21)
(0.880346 -0.0979257 -3.99956e-22)
(0.903555 -0.26861 5.92262e-21)
(0.917446 -0.366538 8.68267e-22)
(0.921461 -0.401756 2.04254e-21)
(0.913199 -0.40056 -3.9353e-21)
(0.886415 -0.387988 1.74397e-21)
(0.843109 -0.370462 -1.28987e-21)
(0.798004 -0.329871 1.98971e-21)
(0.768355 -0.249423 -4.77167e-22)
(0.765443 -0.129473 8.19926e-23)
(0.786893 0.00722779 -2.99103e-22)
(0.818907 0.139863 2.70395e-22)
(0.842722 0.258079 -4.58979e-22)
(0.848183 0.353388 -1.64685e-21)
(0.836372 0.411124 3.75691e-21)
(0.816743 0.402211 2.90873e-21)
(0.85999 0.435801 6.95109e-23)
(0.880798 0.494509 1.89792e-21)
(0.87779 0.557656 -2.02066e-21)
(0.863574 0.581687 -1.13557e-21)
(0.851848 0.518543 3.41965e-21)
(0.850071 0.356799 3.62199e-21)
(0.8621 0.131433 -1.16576e-21)
(0.885552 -0.094435 -3.63429e-21)
(0.908616 -0.266565 -2.10687e-21)
(0.921772 -0.36556 -5.50336e-21)
(0.924831 -0.401213 1.96721e-21)
(0.916131 -0.399499 3.21354e-21)
(0.889416 -0.385884 -2.17713e-21)
(0.846087 -0.368019 1.37133e-22)
(0.800676 -0.328528 -5.88169e-22)
(0.770575 -0.250242 -6.44895e-22)
(0.767084 -0.132448 1.69275e-21)
(0.788087 0.00309663 1.00143e-21)
(0.819962 0.135926 -9.54042e-22)
(0.843943 0.255395 1.1095e-21)
(0.849825 0.352364 -1.61074e-21)
(0.838538 0.411688 -2.54194e-21)
(0.81927 0.403959 -2.53042e-21)
(0.859047 0.430961 -8.34804e-22)
(0.88135 0.49162 3.52824e-21)
(0.879833 0.556861 2.97626e-22)
(0.866935 0.583291 7.17498e-22)
(0.856129 0.522492 -4.50751e-21)
(0.854808 0.362132 8.51138e-21)
(0.867097 0.136535 -7.59625e-22)
(0.890769 -0.0907028 -1.9401e-21)
(0.913719 -0.264318 1.87321e-21)
(0.926168 -0.364434 4.21607e-22)
(0.928268 -0.400606 9.85607e-22)
(0.919113 -0.398456 -9.39949e-22)
(0.892478 -0.383826 2.37944e-21)
(0.849149 -0.365599 -3.30792e-22)
(0.80342 -0.327184 4.01333e-23)
(0.772864 -0.25106 -9.65721e-23)
(0.768796 -0.13544 -1.23614e-21)
(0.789326 -0.00107463 3.88637e-22)
(0.821044 0.131909 -7.11297e-22)
(0.845199 0.252609 4.79894e-22)
(0.851521 0.351239 8.10662e-22)
(0.840779 0.412185 3.37862e-21)
(0.821893 0.405699 -3.11167e-22)
(0.85806 0.425884 3.46933e-21)
(0.881867 0.488469 -7.8926e-21)
(0.881858 0.555816 2.85073e-21)
(0.87029 0.584733 -6.28757e-21)
(0.860403 0.526436 4.72973e-21)
(0.859526 0.367617 -1.14405e-20)
(0.872079 0.141874 9.2569e-21)
(0.895993 -0.0867298 8.13135e-21)
(0.918858 -0.261868 -1.38877e-21)
(0.930631 -0.363159 3.25586e-21)
(0.931772 -0.399931 -1.58293e-21)
(0.922142 -0.397432 1.92765e-21)
(0.895598 -0.381818 -8.42985e-23)
(0.852293 -0.363204 -2.01349e-21)
(0.806232 -0.325839 2.47103e-22)
(0.775213 -0.251873 1.26128e-21)
(0.770577 -0.138442 8.68225e-22)
(0.79061 -0.00529349 8.63774e-23)
(0.822151 0.127812 -6.23244e-22)
(0.846484 0.249721 8.77173e-23)
(0.853267 0.350011 -2.64334e-22)
(0.843093 0.412611 -1.15095e-21)
(0.824609 0.407428 -2.93412e-21)
(0.857026 0.420569 2.17323e-21)
(0.882342 0.485053 -2.33147e-21)
(0.883857 0.554514 -1.6835e-21)
(0.873631 0.586006 -1.05713e-21)
(0.864663 0.530365 3.68363e-21)
(0.864217 0.373246 1.96302e-21)
(0.877042 0.147448 -5.05991e-21)
(0.901221 -0.0825165 -2.63576e-21)
(0.924028 -0.259216 5.51537e-22)
(0.935155 -0.361736 -4.77695e-21)
(0.935339 -0.399186 2.00565e-22)
(0.925216 -0.396426 1.50217e-21)
(0.898769 -0.379862 3.85148e-22)
(0.855515 -0.360834 -5.22038e-22)
(0.809111 -0.324489 9.76463e-23)
(0.777613 -0.252677 1.02718e-21)
(0.77242 -0.141452 -3.43068e-22)
(0.791937 -0.00956094 -3.59925e-22)
(0.823282 0.123638 5.04478e-22)
(0.847795 0.246729 3.85266e-22)
(0.855058 0.348678 2.7764e-22)
(0.845475 0.412963 -1.17129e-21)
(0.827416 0.409143 1.18227e-21)
(0.855939 0.415018 -2.07496e-23)
(0.882769 0.481371 3.83723e-22)
(0.885821 0.552951 -1.83236e-21)
(0.876951 0.587099 -5.66969e-21)
(0.868902 0.534269 1.45605e-20)
(0.868877 0.379012 -6.83051e-21)
(0.881982 0.153251 -4.72337e-21)
(0.90645 -0.0780636 4.24139e-21)
(0.929224 -0.256361 2.99065e-21)
(0.939736 -0.360161 -1.16043e-21)
(0.938968 -0.39837 1.35257e-21)
(0.928331 -0.395438 -2.29972e-21)
(0.901986 -0.37796 -1.83212e-22)
(0.85881 -0.35849 -2.69535e-22)
(0.812056 -0.323132 1.93024e-22)
(0.780057 -0.25347 -3.79859e-22)
(0.774318 -0.144467 -7.65777e-22)
(0.793308 -0.013862 1.563e-22)
(0.824436 0.119388 -5.32419e-22)
(0.84913 0.243633 9.50067e-22)
(0.856891 0.347236 9.19439e-22)
(0.847921 0.413237 9.0791e-22)
(0.830308 0.410841 -2.59102e-21)
(0.854797 0.409233 9.22432e-22)
(0.883139 0.477422 6.00736e-22)
(0.887743 0.551121 6.48698e-21)
(0.880242 0.588003 -5.83899e-22)
(0.873114 0.538139 -4.52478e-21)
(0.873498 0.384907 8.75704e-21)
(0.8869 0.15928 -2.3608e-21)
(0.91168 -0.0733721 1.65222e-21)
(0.934441 -0.253303 -7.15709e-21)
(0.94437 -0.358436 5.54465e-21)
(0.942657 -0.39748 -1.3595e-21)
(0.931485 -0.394467 1.50823e-21)
(0.905246 -0.376114 -9.28027e-22)
(0.862175 -0.356174 -5.5526e-22)
(0.815065 -0.321765 -1.902e-22)
(0.782536 -0.254247 -1.7013e-23)
(0.776264 -0.147481 4.5998e-22)
(0.794724 -0.0181941 -3.12133e-22)
(0.825611 0.115065 -5.61991e-22)
(0.850485 0.240432 3.0758e-22)
(0.858761 0.345684 5.22835e-23)
(0.850427 0.41343 -2.22154e-21)
(0.833283 0.412517 3.5325e-22)
(0.853594 0.403217 1.7905e-22)
(0.883446 0.473206 -6.00812e-21)
(0.889614 0.549019 -2.12538e-21)
(0.883498 0.588709 4.21647e-22)
(0.877293 0.541962 1.43142e-21)
(0.878077 0.390922 5.51202e-21)
(0.891793 0.16553 -1.25514e-20)
(0.916909 -0.0684426 5.62232e-21)
(0.939675 -0.250043 -7.89003e-21)
(0.949052 -0.356559 3.14891e-21)
(0.946403 -0.396514 -3.71253e-21)
(0.934676 -0.39351 9.88229e-22)
(0.908542 -0.374327 1.09929e-21)
(0.865605 -0.353888 1.57396e-21)
(0.818138 -0.320387 7.76132e-22)
(0.785045 -0.255004 -7.71391e-22)
(0.778248 -0.150493 -5.03305e-22)
(0.796183 -0.0225544 -4.21382e-22)
(0.82681 0.110671 -1.91301e-23)
(0.851858 0.237127 -5.94333e-22)
(0.860665 0.34402 2.30316e-22)
(0.852989 0.413539 4.17545e-22)
(0.836335 0.414168 2.19046e-22)
(0.85233 0.396973 -2.44681e-21)
(0.883684 0.468723 7.57486e-22)
(0.891427 0.546643 3.76521e-21)
(0.886711 0.589208 -4.50628e-23)
(0.881433 0.545728 2.1334e-22)
(0.882609 0.397046 -2.23845e-21)
(0.896667 0.171996 4.9672e-21)
(0.92214 -0.0632754 -8.58219e-21)
(0.944921 -0.246578 5.59413e-21)
(0.953775 -0.35453 -2.38116e-21)
(0.950203 -0.395469 2.26347e-21)
(0.937901 -0.392567 -1.01584e-21)
(0.91187 -0.3726 -4.70926e-22)
(0.869096 -0.351635 -1.0039e-21)
(0.821276 -0.318996 1.25479e-21)
(0.787577 -0.255738 1.73846e-22)
(0.780261 -0.1535 -1.56693e-23)
(0.797686 -0.0269399 3.24333e-22)
(0.828035 0.106208 8.85901e-22)
(0.853247 0.233717 1.42006e-22)
(0.862599 0.342242 -1.18855e-21)
(0.855602 0.413561 3.16044e-23)
(0.839461 0.415791 -9.60199e-22)
(0.851006 0.390506 -5.61828e-21)
(0.883847 0.463975 4.62231e-21)
(0.893174 0.543987 2.67128e-21)
(0.889876 0.589491 -4.93589e-21)
(0.885526 0.549425 6.54732e-21)
(0.88709 0.40327 2.88017e-21)
(0.901529 0.178673 7.95485e-21)
(0.927376 -0.0578697 -1.35404e-20)
(0.950175 -0.242909 -2.81925e-21)
(0.958536 -0.352349 3.17022e-21)
(0.954055 -0.394345 2.79805e-21)
(0.941159 -0.391637 -4.62796e-21)
(0.915226 -0.370936 9.096e-22)
(0.872643 -0.349416 -3.91494e-22)
(0.824477 -0.317589 -2.72723e-22)
(0.790131 -0.256445 6.4556e-22)
(0.782291 -0.156498 -6.14348e-22)
(0.799232 -0.0313485 3.05813e-22)
(0.82929 0.101679 -1.75498e-22)
(0.854654 0.230203 -4.23147e-22)
(0.86456 0.340348 9.59691e-22)
(0.858262 0.413493 -1.24872e-21)
(0.842657 0.417382 -3.68838e-22)
(0.84963 0.383822 1.0946e-21)
(0.883933 0.458963 -1.09052e-21)
(0.894848 0.541048 7.45472e-22)
(0.892986 0.589547 -5.41491e-21)
(0.889568 0.553041 8.85531e-22)
(0.891521 0.409582 1.03852e-20)
(0.906391 0.185555 -1.72446e-20)
(0.932622 -0.0522273 1.9094e-20)
(0.955433 -0.239037 2.20194e-21)
(0.963327 -0.350016 -7.9755e-21)
(0.957957 -0.393138 5.55629e-21)
(0.944447 -0.390715 3.67693e-22)
(0.918605 -0.369333 -2.01616e-23)
(0.87624 -0.347233 -9.27381e-22)
(0.827742 -0.316164 -4.71109e-22)
(0.792704 -0.257118 3.71803e-22)
(0.784327 -0.159484 -5.75156e-23)
(0.800819 -0.035777 6.09877e-22)
(0.830583 0.0970865 -1.18733e-21)
(0.856081 0.226586 5.87524e-22)
(0.866546 0.338337 9.63103e-22)
(0.860966 0.413332 6.7546e-22)
(0.845919 0.418937 -8.25665e-22)
(0.848219 0.376929 3.19266e-21)
(0.883944 0.45369 2.31183e-21)
(0.896446 0.537823 1.52617e-21)
(0.896037 0.589369 -2.15275e-21)
(0.893553 0.556562 5.29647e-23)
(0.89591 0.415966 -1.10473e-20)
(0.911278 0.192621 1.6796e-21)
(0.937887 -0.0463629 4.42892e-21)
(0.960691 -0.234963 -9.08535e-22)
(0.968144 -0.347522 -3.08618e-21)
(0.961904 -0.391832 -9.58878e-22)
(0.947763 -0.389786 4.63951e-21)
(0.922003 -0.367784 -1.22109e-22)
(0.879883 -0.345082 -1.33204e-21)
(0.83107 -0.314715 -4.21754e-22)
(0.795296 -0.257748 3.3383e-22)
(0.786355 -0.162449 -1.34306e-23)
(0.802442 -0.0402175 2.63154e-22)
(0.831923 0.0924378 5.01175e-22)
(0.857536 0.22287 -9.45436e-23)
(0.868557 0.33621 -8.02955e-22)
(0.863711 0.413074 -1.05272e-21)
(0.849244 0.420451 1.24274e-21)
(0.846816 0.369843 8.50613e-23)
(0.883894 0.448169 1.45952e-21)
(0.897967 0.534314 -2.31395e-21)
(0.899026 0.588943 -4.07876e-21)
(0.89748 0.559965 6.62815e-21)
(0.900279 0.422385 7.79141e-21)
(0.916227 0.199842 -8.57455e-21)
(0.943185 -0.0402835 -3.63271e-21)
(0.965946 -0.230672 -2.18459e-21)
(0.972981 -0.344851 1.65001e-21)
(0.965895 -0.390419 -4.65521e-22)
(0.951106 -0.388848 1.95443e-21)
(0.925416 -0.366291 9.44322e-22)
(0.883567 -0.34297 -7.14984e-22)
(0.834458 -0.313246 4.31614e-22)
(0.79791 -0.258336 -2.85816e-22)
(0.788366 -0.165392 5.0416e-22)
(0.804093 -0.0446687 -5.26198e-22)
(0.833322 0.0877377 -1.54298e-22)
(0.859031 0.21906 3.51015e-22)
(0.8706 0.333967 -5.91686e-22)
(0.866497 0.412718 9.26416e-22)
(0.85263 0.421917 4.33262e-22)
(0.845512 0.362574 2.31181e-21)
(0.883827 0.4424 -3.62935e-21)
(0.899431 0.530521 1.55076e-21)
(0.901966 0.588266 -5.68409e-21)
(0.901365 0.563242 8.88241e-21)
(0.904685 0.428863 -4.25732e-21)
(0.921303 0.207316 7.05134e-21)
(0.948535 -0.0338678 -1.41298e-20)
(0.971196 -0.226115 8.16083e-21)