/*--------------------------------*- C++ -*----------------------------------*\
  =========                 |
  \\      /  F ield         | OpenFOAM: The Open Source CFD Toolbox
   \\    /   O peration     | Website:  https://openfoam.org
    \\  /    A nd           | Version:  7
     \\/     M anipulation  |
\*---------------------------------------------------------------------------*/
FoamFile
{
    version     2.0;
    format      ascii;
    class       volScalarField;
    location    "160";
    object      p;
}
// * * * * * * * * * * * * * * * * * * * * * * * * * * * * * * * * * * * * * //

dimensions      [0 2 -2 0 0 0 0];

internalField   nonuniform List<scalar> 
4575
(
-0.0980244
-0.10249
-0.0889022
-0.121752
-0.106749
-0.0928283
-0.079593
-0.127355
-0.111101
-0.0965188
-0.0829694
-0.070104
-0.133563
-0.11602
-0.100219
-0.0860802
-0.0729212
-0.0604434
-0.140449
-0.12149
-0.104439
-0.0891152
-0.0754429
-0.0626932
-0.05062
-0.14811
-0.127575
-0.109154
-0.0926211
-0.0778015
-0.0646175
-0.0522957
-0.0406438
-0.156637
-0.134369
-0.114421
-0.0965668
-0.0805804
-0.0662896
-0.0536156
-0.0417402
-0.0305262
-0.166115
-0.141959
-0.12033
-0.101
-0.0837428
-0.0683297
-0.0545923
-0.04245
-0.0310394
-0.0202808
-0.176596
-0.150429
-0.126964
-0.106007
-0.0873278
-0.0706959
-0.0558828
-0.0427234
-0.031134
-0.0202076
-0.00992296
-0.188044
-0.159831
-0.134405
-0.111669
-0.0914179
-0.0734196
-0.0574412
-0.0432539
-0.0306971
-0.019682
-0.00926013
0.000528847
-0.200243
-0.170141
-0.142711
-0.118066
-0.096093
-0.0765804
-0.0592918
-0.0439939
-0.030458
-0.0185283
-0.00810897
0.00178614
0.0110534
-0.212647
-0.181157
-0.151861
-0.125258
-0.101433
-0.0802567
-0.0615124
-0.0449613
-0.0303695
-0.0175099
-0.00623184
0.00356983
0.0129131
0.0216245
-0.224198
-0.192361
-0.161673
-0.133233
-0.107498
-0.0845278
-0.0641804
-0.0462327
-0.0304452
-0.0165839
-0.00442455
0.00617742
0.0153394
0.0241008
0.0322067
-0.202735
-0.171657
-0.141824
-0.114285
-0.0894563
-0.0673746
-0.0478853
-0.0307607
-0.0157608
-0.00265267
0.00878363
0.0186856
0.0271857
0.035328
0.0427578
-0.210597
-0.180831
-0.150568
-0.121641
-0.095045
-0.0711594
-0.0499974
-0.0313934
-0.0151162
-0.000925956
0.0114085
0.0221007
0.0312797
0.0390972
0.0465789
0.0532443
-0.213592
-0.187562
-0.158525
-0.129131
-0.101157
-0.0755441
-0.0526347
-0.032421
-0.0147273
0.000680399
0.0140414
0.0255843
0.0355131
0.0439473
0.0510669
0.0578509
0.0636405
-0.189532
-0.164108
-0.135856
-0.107384
-0.0804062
-0.0558128
-0.0339105
-0.0146711
0.00208973
0.0166083
0.029123
0.0398591
0.0490074
0.0566792
0.0630981
0.0691438
0.0738497
-0.184083
-0.165044
-0.140281
-0.112868
-0.0853642
-0.0594232
-0.0358828
-0.0150154
0.00322587
0.0190337
0.0326459
0.0443001
0.0542173
0.0625722
0.0694762
0.0752138
0.0804267
0.0835976
-0.169078
-0.158707
-0.140177
-0.116125
-0.0896013
-0.0631105
-0.0382432
-0.0157863
0.00402082
0.0212429
0.0360797
0.0487708
0.059553
0.0686422
0.0761981
0.082354
0.0874576
0.0916549
0.0926218
-0.142927
-0.132959
-0.11498
-0.091687
-0.0660995
-0.0406623
-0.0169024
0.00444364
0.0231681
0.0393523
0.0532024
0.0649596
0.0748601
0.0831145
0.0898753
0.0953239
0.0998362
0.102837
0.101565
-0.116738
-0.116437
-0.106892
-0.0895041
-0.067015
-0.0424061
-0.0180594
0.0045629
0.0247737
0.0423957
0.0575256
0.0703756
0.0811879
0.0901982
0.0976125
0.103586
0.108356
0.11223
0.113888
0.113183
-0.0894497
-0.0896588
-0.0805584
-0.0637989
-0.0421559
-0.0185651
0.00465765
0.0261156
0.0451699
0.0616723
0.0757339
0.0875722
0.0974304
0.105543
0.112113
0.117303
0.121379
0.124557
0.125436
0.125468
-0.0619233
-0.0626485
-0.054013
-0.0379163
-0.0171579
0.00537902
0.0274482
0.0477184
0.0655979
0.0809664
0.0939481
0.104765
0.113661
0.12087
0.126592
0.130998
0.134359
0.136821
0.137087
0.137203
-0.0342164
-0.0354613
-0.0273099
-0.0119083
0.00793028
0.0293816
0.0502713
0.0693337
0.0860233
0.100246
0.112139
0.121927
0.129855
0.136155
0.141026
0.144643
0.147278
0.149032
0.148739
0.148644
-0.0063866
-0.00815303
-0.000503972
0.014173
0.0330602
0.0533978
0.0730858
0.0909239
0.106411
0.119479
0.130276
0.13903
0.145985
0.151373
0.15539
0.158215
0.160113
0.161163
0.16031
0.159861
0.0215086
0.0192199
0.0263499
0.0402754
0.0581831
0.0773827
0.0958505
0.112451
0.126727
0.138634
0.148329
0.156046
0.162026
0.166499
0.16966
0.17169
0.172845
0.173191
0.171762
0.170876
0.0494113
0.0466007
0.0531965
0.0663467
0.0832502
0.101291
0.118524
0.133878
0.146937
0.157678
0.16627
0.172947
0.177952
0.181509
0.183814
0.185045
0.185454
0.185095
0.183073
0.181699
0.0772638
0.0739329
0.0799808
0.0923346
0.108213
0.125079
0.141066
0.155166
0.167004
0.17658
0.184069
0.189707
0.193736
0.196379
0.197828
0.19826
0.197921
0.196854
0.194229
0.192333
0.105008
0.10116
0.106648
0.118187
0.133023
0.148702
0.163435
0.176278
0.186896
0.195307
0.201695
0.206298
0.209354
0.211085
0.211681
0.211316
0.210227
0.208452
0.205217
0.202777
0.132588
0.128225
0.133143
0.143853
0.157633
0.172115
0.185591
0.197178
0.206578
0.213828
0.21912
0.222692
0.224781
0.225605
0.22535
0.224191
0.222356
0.219873
0.216026
0.213028
0.159945
0.155072
0.159413
0.169281
0.181995
0.195275
0.207493
0.217827
0.226015
0.232112
0.236316
0.238864
0.239992
0.239915
0.238816
0.236867
0.234289
0.231103
0.226644
0.187023
0.181645
0.185403
0.19442
0.206062
0.218139
0.229103
0.23819
0.245175
0.250128
0.253252
0.254786
0.254962
0.253992
0.252058
0.249326
0.24601
0.242126
0.23706
0.213766
0.20789
0.21106
0.219221
0.229788
0.240664
0.25038
0.258231
0.264024
0.267845
0.269902
0.270433
0.269668
0.267816
0.265055
0.261548
0.257503
0.252929
0.247262
0.24012
0.233753
0.236333
0.243634
0.253128
0.262808
0.271287
0.277915
0.28253
0.285234
0.286237
0.285779
0.284087
0.281365
0.277788
0.273517
0.268752
0.263497
0.266029
0.25918
0.261169
0.267612
0.276036
0.284531
0.291786
0.297206
0.300661
0.302264
0.302231
0.3008
0.298194
0.294616
0.290237
0.285215
0.279741
0.273817
0.291441
0.284118
0.285519
0.291106
0.298469
0.305791
0.31184
0.316072
0.318385
0.318907
0.317857
0.31547
0.311968
0.30755
0.302384
0.296624
0.290454
0.283875
0.316304
0.308517
0.309334
0.314071
0.320384
0.32655
0.331412
0.334477
0.335672
0.335135
0.333088
0.329765
0.325387
0.320146
0.314209
0.307727
0.300876
0.293656
0.340566
0.332326
0.332565
0.336462
0.341739
0.346769
0.350468
0.352391
0.352492
0.35092
0.347899
0.343663
0.338428
0.332385
0.325695
0.318508
0.310992
0.364178
0.355498
0.355166
0.358234
0.362495
0.366411
0.368972
0.369781
0.368815
0.366235
0.362266
0.357141
0.351071
0.344246
0.336824
0.328951
0.320787
0.387091
0.377983
0.377091
0.379346
0.38261
0.38544
0.386892
0.386617
0.384615
0.381055
0.376165
0.370175
0.363296
0.355712
0.347579
0.339039
0.330248
0.409259
0.399737
0.398296
0.399755
0.402048
0.40382
0.404195
0.402869
0.399862
0.395353
0.389571
0.382745
0.375082
0.366764
0.357943
0.348759
0.339359
0.430637
0.420715
0.418739
0.419423
0.420771
0.421517
0.420851
0.418508
0.414531
0.409106
0.402463
0.39483
0.386411
0.377384
0.367899
0.358093
0.451182
0.440875
0.438379
0.438311
0.438745
0.4385
0.436829
0.433507
0.428596
0.422289
0.414819
0.40641
0.397263
0.387555
0.377433
0.367029
0.47085
0.460175
0.457177
0.456381
0.455934
0.454736
0.452101
0.447839
0.442032
0.434881
0.426618
0.417465
0.407622
0.397261
0.386528
0.375553
0.489604
0.478577
0.475095
0.473601
0.472308
0.470196
0.466638
0.461479
0.454817
0.44686
0.437839
0.427977
0.41747
0.406487
0.395172
0.38365
0.507404
0.496042
0.492098
0.489935
0.487834
0.484853
0.480416
0.474403
0.466928
0.458205
0.448465
0.437929
0.42679
0.415217
0.403348
0.391309
0.524214
0.512537
0.508152
0.505352
0.502485
0.498678
0.493408
0.486587
0.478344
0.468896
0.458477
0.447304
0.435569
0.423437
0.411046
0.540001
0.528027
0.523225
0.519823
0.516232
0.511646
0.505593
0.498011
0.489045
0.478916
0.467857
0.456085
0.44379
0.431133
0.418251
0.554733
0.542482
0.537287
0.53332
0.529049
0.523734
0.516947
0.508655
0.499013
0.488247
0.476591
0.46426
0.451441
0.438294
0.424954
0.56838
0.555871
0.550311
0.545817
0.540913
0.534919
0.527451
0.518498
0.508229
0.496872
0.484662
0.471813
0.458508
0.444907
0.431142
0.580915
0.568169
0.56227
0.557289
0.551801
0.545182
0.537086
0.527525
0.516678
0.504778
0.492058
0.478731
0.46498
0.450961
0.436805
0.592311
0.579351
0.573142
0.567715
0.561693
0.554503
0.545833
0.535718
0.524345
0.51195
0.498766
0.485004
0.470846
0.456447
0.441935
0.602547
0.589393
0.582905
0.577075
0.57057
0.562865
0.553679
0.543064
0.531217
0.518375
0.504773
0.49062
0.476096
0.461354
0.446523
0.611602
0.598276
0.591539
0.58535
0.578416
0.570253
0.560607
0.549549
0.53728
0.524043
0.51007
0.49557
0.480721
0.465676
0.450561
0.619458
0.605983
0.599028
0.592525
0.585216
0.576653
0.566607
0.555161
0.542526
0.528943
0.514647
0.499845
0.484714
0.469404
0.454042
0.626098
0.612496
0.605356
0.598586
0.590958
0.582053
0.571666
0.559891
0.546944
0.533068
0.518497
0.503437
0.488066
0.472533
0.456961
0.631509
0.617805
0.610512
0.603521
0.59563
0.586445
0.575777
0.563731
0.550526
0.536409
0.521612
0.506342
0.490774
0.475056
0.459313
0.635681
0.621897
0.614485
0.607321
0.599223
0.589818
0.57893
0.566672
0.553267
0.538961
0.523988
0.508553
0.492831
0.47697
0.638605
0.624764
0.617266
0.609979
0.601732
0.592168
0.581121
0.56871
0.55516
0.540719
0.525619
0.510066
0.494235
0.478271
0.640276
0.626402
0.618852
0.611488
0.60315
0.593489
0.582346
0.569841
0.556203
0.54168
0.526504
0.51088
0.494982
0.478957
0.640688
0.626805
0.619238
0.611847
0.603476
0.59378
0.582601
0.570063
0.556394
0.541842
0.526639
0.510991
0.495071
0.479027
0.639843
0.625974
0.618423
0.611055
0.602709
0.593039
0.581887
0.569376
0.555732
0.541204
0.526025
0.5104
0.494502
0.478479
0.637741
0.62391
0.61641
0.609112
0.600849
0.591268
0.580205
0.567779
0.554217
0.539768
0.524663
0.509107
0.493276
0.477315
0.634386
0.620617
0.613201
0.606022
0.597901
0.588469
0.577556
0.565276
0.551853
0.537535
0.522554
0.507115
0.491393
0.475536
0.459666
0.629786
0.616101
0.608804
0.601792
0.593869
0.584648
0.573946
0.561871
0.548643
0.534509
0.519701
0.504426
0.488857
0.473144
0.45741
0.623948
0.610372
0.603225
0.596428
0.58876
0.579811
0.569382
0.55757
0.544593
0.530695
0.51611
0.501044
0.485673
0.470144
0.454584
0.616885
0.60344
0.596478
0.589942
0.582585
0.573967
0.56387
0.552379
0.539708
0.5261
0.511786
0.496975
0.481843
0.46654
0.451191
0.608611
0.59532
0.588573
0.582345
0.575354
0.567127
0.55742
0.546309
0.533998
0.52073
0.506736
0.492226
0.477376
0.462338
0.447237
0.599142
0.586027
0.579527
0.573651
0.56708
0.559301
0.550045
0.539369
0.527472
0.514594
0.500969
0.486803
0.472277
0.457543
0.442728
0.588496
0.575579
0.569357
0.563878
0.55778
0.550505
0.541755
0.53157
0.520141
0.507704
0.494493
0.480716
0.466555
0.452164
0.437671
0.576696
0.563998
0.558083
0.553043
0.547468
0.540755
0.532567
0.522928
0.512017
0.50007
0.487319
0.473974
0.46022
0.446209
0.432072
0.563764
0.551307
0.545727
0.541166
0.536166
0.530066
0.522496
0.513455
0.503115
0.491705
0.479459
0.466589
0.45328
0.439687
0.425942
0.549726
0.53753
0.532312
0.528271
0.523893
0.51846
0.51156
0.503169
0.493448
0.482623
0.470926
0.458572
0.445746
0.432608
0.419289
0.53461
0.522695
0.517866
0.514382
0.510672
0.505956
0.499778
0.492088
0.483034
0.472839
0.461734
0.449936
0.437632
0.424983
0.412124
0.518446
0.506832
0.502416
0.499525
0.496527
0.492576
0.48717
0.48023
0.47189
0.462369
0.451899
0.440696
0.42895
0.416825
0.404457
0.391967
0.501267
0.489972
0.485992
0.483728
0.481485
0.478346
0.473759
0.467616
0.460035
0.451231
0.441435
0.430865
0.419713
0.408146
0.396301
0.384301
0.483106
0.472148
0.468627
0.467022
0.465573
0.46329
0.459569
0.454267
0.44749
0.439443
0.43036
0.42046
0.409937
0.398959
0.387667
0.376187
0.464001
0.453397
0.450355
0.449437
0.448821
0.447436
0.444624
0.440207
0.434274
0.427026
0.418694
0.409498
0.399636
0.389279
0.378569
0.367636
0.443989
0.433756
0.431211
0.431009
0.431259
0.430813
0.42895
0.42546
0.420412
0.413999
0.406453
0.397996
0.388827
0.37912
0.369021
0.358661
0.42311
0.413264
0.411233
0.411772
0.412921
0.413449
0.412576
0.410051
0.405925
0.400385
0.393659
0.385973
0.377527
0.3685
0.359038
0.349275
0.339356
0.401407
0.391962
0.39046
0.391762
0.39384
0.395377
0.395529
0.394007
0.39084
0.386206
0.380333
0.373448
0.365754
0.357433
0.348633
0.339493
0.330162
0.378922
0.369894
0.368933
0.371018
0.374051
0.376629
0.377841
0.377356
0.37518
0.371485
0.366496
0.36044
0.353527
0.345937
0.337824
0.329328
0.320606
0.355702
0.347102
0.346695
0.34958
0.353592
0.357238
0.359542
0.360125
0.358973
0.356247
0.35217
0.346972
0.340864
0.334029
0.326625
0.318796
0.310704
0.331792
0.323634
0.32379
0.327489
0.3325
0.337241
0.340664
0.342346
0.342247
0.340517
0.33738
0.333064
0.327784
0.321728
0.315055
0.307912
0.300467
0.292718
0.307241
0.299536
0.300263
0.304788
0.310816
0.316673
0.321241
0.324048
0.325028
0.324322
0.322148
0.318739
0.31431
0.309053
0.30313
0.29669
0.289912
0.28279
0.282099
0.274857
0.27616
0.28152
0.288578
0.295571
0.301307
0.305263
0.307347
0.307688
0.306501
0.304019
0.300461
0.296022
0.290867
0.285149
0.279052
0.272573
0.256415
0.249647
0.25153
0.25773
0.26583
0.273974
0.280896
0.286023
0.289233
0.290642
0.290462
0.288928
0.28626
0.282656
0.278285
0.273303
0.267902
0.26208
0.255327
0.230243
0.223957
0.22642
0.233463
0.242613
0.251921
0.260046
0.266362
0.270717
0.273213
0.274059
0.273489
0.271727
0.268974
0.265402
0.26117
0.256477
0.251326
0.245157
0.203634
0.197838
0.200882
0.208768
0.21897
0.229452
0.238793
0.246313
0.251829
0.255429
0.257317
0.257727
0.256886
0.254998
0.252238
0.248767
0.244793
0.240324
0.234749
0.176642
0.171343
0.174967
0.183692
0.194948
0.206607
0.217174
0.225911
0.232602
0.23732
0.240263
0.241667
0.241759
0.240748
0.238811
0.236112
0.232866
0.229087
0.224114
0.220128
0.149323
0.144527
0.148724
0.158284
0.170589
0.183429
0.195227
0.20519
0.213068
0.218915
0.222926
0.225334
0.22637
0.226246
0.22514
0.223221
0.220711
0.217629
0.213264
0.209847
0.121731
0.117443
0.122208
0.132592
0.145941
0.159958
0.172991
0.184187
0.193259
0.200245
0.205332
0.208754
0.210743
0.211513
0.211247
0.210114
0.208344
0.205965
0.202209
0.199353
0.0939226
0.090146
0.0954715
0.106667
0.121049
0.136239
0.150506
0.162937
0.173209
0.18134
0.187511
0.191954
0.194902
0.196573
0.197152
0.196809
0.195783
0.194109
0.190961
0.188653
0.0659532
0.0626917
0.0685669
0.0805592
0.0959606
0.112313
0.12781
0.141477
0.152951
0.162232
0.16949
0.174959
0.178872
0.181448
0.182875
0.183326
0.183044
0.182076
0.17953
0.177751
0.0378797
0.0351354
0.0415485
0.0543195
0.0707228
0.0882255
0.104944
0.119843
0.132519
0.14295
0.1513
0.157796
0.162676
0.16616
0.168439
0.169683
0.170145
0.169882
0.167928
0.166646
0.0097587
0.00753265
0.0144703
0.0279989
0.0453831
0.064019
0.0819486
0.0980726
0.111947
0.123528
0.132968
0.140493
0.146342
0.150735
0.153865
0.155902
0.157106
0.157545
0.156168
0.155334
-0.018353
-0.0200607
-0.0126138
0.00164864
0.0199892
0.0397377
0.058863
0.0762025
0.0912695
0.103996
0.114524
0.123077
0.129893
0.135195
0.139176
0.142004
0.143944
0.145088
0.144269
0.143799
-0.046399
-0.0475893
-0.0396497
-0.02468
-0.00541109
0.0154258
0.0357281
0.0542698
0.0705202
0.0843857
0.0959976
0.105575
0.113356
0.119565
0.124396
0.128012
0.13068
0.132532
0.132269
0.13202
-0.0743226
-0.0749981
-0.0665837
-0.050936
-0.0307701
-0.00887288
0.0125843
0.0323117
0.0497332
0.064729
0.0774179
0.0880148
0.0967565
0.10387
0.109549
0.113951
0.117335
0.119903
0.120247
0.119909
-0.102068
-0.102232
-0.0933622
-0.0770683
-0.0560403
-0.0331144
-0.0105281
0.0103651
0.0289427
0.0450573
0.0588141
0.0704232
0.0801203
0.0881332
0.0946598
0.0998485
0.103929
0.107193
0.108302
0.107198
-0.129237
-0.119932
-0.103026
-0.0811742
-0.0572549
-0.033569
-0.0115333
0.00818241
0.0254017
0.0402151
0.0528273
0.0634729
0.0723802
0.0797516
0.0857321
0.0904956
0.0943999
0.0968407
0.0950588
-0.155962
-0.146241
-0.12876
-0.106125
-0.0812513
-0.0564988
-0.033347
-0.0125142
0.00579295
0.0216495
0.0352538
0.0468393
0.0566349
0.064848
0.0716306
0.0771084
0.0816141
0.0852703
0.0857408
-0.172238
-0.154219
-0.130847
-0.105061
-0.0792781
-0.0550401
-0.0331141
-0.0137384
0.00314534
0.0177288
0.030244
0.0409205
0.049971
0.0575622
0.0637984
0.0689535
0.0736577
0.0763707
-0.179357
-0.155293
-0.128641
-0.101868
-0.076577
-0.0535848
-0.0331626
-0.0152699
0.000277576
0.0137101
0.0252585
0.0351396
0.0435365
0.0505531
0.0564054
0.0619697
0.0662487
-0.204125
-0.179419
-0.15195
-0.124231
-0.0979229
-0.0738944
-0.0524504
-0.0335693
-0.0170753
-0.00274001
0.00966841
0.0203705
0.0295623
0.037356
0.0439253
0.0502497
0.0556331
-0.20318
-0.174946
-0.146328
-0.119044
-0.0940116
-0.0715731
-0.0517267
-0.034306
-0.0190849
-0.00583096
0.00567912
0.0156509
0.0242059
0.0314906
0.0385331
0.0448082
-0.197592
-0.168124
-0.139905
-0.113906
-0.0905028
-0.0697166
-0.0513912
-0.0353038
-0.0212214
-0.00891904
0.00181565
0.0111122
0.0190986
0.0268223
0.0338776
-0.189582
-0.160475
-0.133547
-0.109212
-0.0875144
-0.0683086
-0.0513764
-0.0364851
-0.0234085
-0.0119299
-0.00191271
0.00675613
0.0151205
0.0228691
-0.210668
-0.180722
-0.152907
-0.127675
-0.105096
-0.0850361
-0.0672828
-0.0516043
-0.0377738
-0.0255718
-0.0148559
-0.00552503
0.0034439
0.011817
-0.200615
-0.171957
-0.145867
-0.122438
-0.101553
-0.0830039
-0.0665614
-0.0519989
-0.0390954
-0.0277032
-0.0177306
-0.00818578
0.000764606
-0.19067
-0.163761
-0.139518
-0.117838
-0.0985207
-0.0813394
-0.0660683
-0.0524858
-0.0404397
-0.0298452
-0.0197479
-0.0102521
-0.181334
-0.156314
-0.133871
-0.113815
-0.0959214
-0.079966
-0.0657278
-0.0530503
-0.0418534
-0.0312239
-0.0212063
-0.172805
-0.149634
-0.128869
-0.110291
-0.0936768
-0.0788065
-0.0655197
-0.0537398
-0.0425967
-0.0320764
-0.165108
-0.143667
-0.124432
-0.107186
-0.0917073
-0.0778336
-0.0654898
-0.0538503
-0.0428439
-0.15819
-0.13833
-0.120478
-0.104416
-0.0899779
-0.0770897
-0.0649704
-0.0534928
-0.15197
-0.13354
-0.11692
-0.10194
-0.0885264
-0.0759438
-0.0640096
-0.146358
-0.129205
-0.113706
-0.0997881
-0.0867587
-0.0743825
-0.141261
-0.125267
-0.110864
-0.0974045
-0.0846014
-0.13661
-0.121744
-0.107871
-0.094657
-0.118151
-0.104541
-0.114246
0.0945995
0.0855007
0.0760649
0.0669081
0.0574402
0.0476989
0.037917
0.0281566
0.0184152
0.00871706
-0.000904569
-0.0104286
-0.0198426
-0.0291357
-0.0382983
-0.0473223
-0.0562011
-0.0649294
-0.073502
-0.0819149
-0.0901643
0.0842979
0.0749483
0.0645798
0.0554947
0.0467284
0.0377417
0.0287371
0.0198789
0.0111533
0.00253261
-0.00597585
-0.0143601
-0.0226174
-0.0307482
-0.0387516
-0.046626
-0.0543701
-0.0619826
-0.0694624
-0.0768084
-0.0840196
0.0725257
0.0634838
0.0535611
0.0452168
0.0374922
0.0296123
0.0216689
0.013865
0.00621301
-0.00133482
-0.00879075
-0.016146
-0.0233958
-0.0305409
-0.0375814
-0.0445159
-0.0513428
-0.0580604
-0.0646677
-0.0711633
-0.0775462
0.0610601
0.0527294
0.0438371
0.0364522
0.0296807
0.0227709
0.0157653
0.00886287
0.0020989
-0.00456833
-0.0111571
-0.0176605
-0.0240714
-0.0303888
-0.0366133
-0.0427444
-0.0487811
-0.054723
-0.0605696
-0.0663211
-0.0719775
0.0511624
0.0437098
0.0359064
0.0294035
0.0234235
0.0173223
0.0111277
0.00501452
-0.000975767
-0.00687613
-0.0127057
-0.018461
-0.0241358
-0.0297289
-0.0352415
-0.0406743
-0.0460273
-0.0513006
-0.0564947
-0.06161
-0.0666471
0.0428703
0.0362242
0.0293792
0.0236238
0.0182979
0.0128742
0.00737575
0.00194778
-0.0033724
-0.00861104
-0.0137858
-0.0188955
-0.0239356
-0.0289053
-0.0338058
-0.0386383
-0.0434033
-0.0481014
-0.0527332
-0.0572994
-0.0618009
0.0358876
0.0299398
0.0239326
0.0188381
0.0140874
0.00925857
0.00437542
-0.000444855
-0.00517242
-0.00982864
-0.0144287
-0.0189725
-0.0234571
-0.0278819
-0.0322483
-0.0365576
-0.0408106
-0.045008
-0.0491507
-0.0532396
-0.0572757
0.0299949
0.0246645
0.0193966
0.0148929
0.0106554
0.0063518
0.00200996
-0.00227591
-0.00648362
-0.0106308
-0.0147299
-0.0187812
-0.0227825
-0.0267336
-0.0306359
-0.0344905
-0.0382985
-0.0420604
-0.0457773
-0.04945
-0.0530794
0.0250522
0.0202762
0.0156577
0.0116759
0.00789306
0.00405166
0.000184302
-0.00363328
-0.00738553
-0.0110873
-0.0147483
-0.018369
-0.0219478
-0.0254847
-0.028981
-0.0324378
-0.0358559
-0.0392363
-0.0425797
-0.0458871
-0.0491594
0.0209381
0.0166589
0.0126058
0.00908045
0.00569814
0.00226296
-0.00118874
-0.0045962
-0.00794934
-0.0112608
-0.0145381
-0.0177815
-0.02099
-0.0241637
-0.0273038
-0.0304113
-0.033487
-0.0365316
-0.039546
-0.042531
-0.0454875
0.0175374
0.0137009
0.0101385
0.00701151
0.00398211
0.000904609
-0.00218218
-0.0052297
-0.00823224
-0.0112006
-0.0141406
-0.0170523
-0.019935
-0.022789
-0.0256152
-0.0284146
-0.0311878
-0.0339357
-0.0366589
-0.0393581
-0.0420341
0.0147475
0.0113045
0.00816778
0.00538892
0.00267115
-9.07041e-05
-0.00285637
-0.00558725
-0.00828107
-0.0109471
-0.0135897
-0.0162089
-0.018804
-0.0213755
-0.0239241
-0.0264508
-0.0289561
-0.0314406
-0.033905
-0.0363499
-0.038776
0.0124803
0.00938732
0.00662011
0.00414595
0.00170388
-0.000778818
-0.00326128
-0.00571298
-0.00813425
-0.0105331
-0.0129128
-0.0152731
-0.0176135
-0.0199346
-0.022237
-0.0245214
-0.0267883
-0.0290383
-0.0312719
-0.0334897
-0.0356923
0.0106612
0.00787949
0.0054335
0.00322641
0.00102869
-0.00120661
-0.00343876
-0.00564371
-0.00782378
-0.00998596
-0.0121325
-0.0142631
-0.0163773
-0.0184757
-0.0205589
-0.0226274
-0.0246816
-0.0267222
-0.0287494
-0.0307638
-0.0327659
0.00922616
0.00672165
0.00455525
0.00258267
0.00060191
-0.00141369
-0.00342406
-0.00541039
-0.00737646
-0.00932834
-0.0112676
-0.0131937
-0.0151064
-0.0170063
-0.0188937
-0.0207692
-0.0226332
-0.024486
-0.026328
-0.0281597
-0.0299814
0.00812047
0.00586299
0.00394036
0.00217411
0.000386396
-0.00143365
-0.00324706
-0.00503923
-0.00681494
-0.00857951
-0.0103339
-0.0120776
-0.0138104
-0.0155326
-0.0172449
-0.0189474
-0.0206406
-0.0223247
-0.0240002
-0.0256673
-0.0273263
0.00729711
0.00526004
0.00355035
0.00196603
0.000350434
-0.00129518
-0.00293327
-0.00455258
-0.00615856
-0.00775589
-0.00934512
-0.0109256
-0.0124972
-0.0140603
-0.0156153
-0.0171624
-0.018702
-0.0202343
-0.0217596
-0.0232781
-0.0247902
0.00671561
0.00487548
0.00335216
0.00192861
0.000466774
-0.00102293
-0.00250462
-0.00396967
-0.00542398
-0.00687166
-0.00831292
-0.00974708
-0.0111741
-0.0125942
-0.0140077
-0.015415
-0.0168161
-0.0182114
-0.0196011
-0.0209853
-0.0223643
0.00634105
0.00467715
0.00331725
0.00203607
0.000711851
-0.000638236
-0.0019801
-0.00330723
-0.00462572
-0.00593922
-0.00724767
-0.0085504
-0.00984732
-0.0111387
-0.0124249
-0.0137059
-0.0149821
-0.0162536
-0.0175205
-0.0187831
-0.0200415
0.00614317
0.00463718
0.00342086
0.00226599
0.00106515
-0.000159679
-0.00137631
-0.00257989
-0.00377653
-0.00496949
-0.00615854
-0.00734299
-0.00852276
-0.0096981
-0.0108693
-0.0120364
-0.0131995
-0.0143589
-0.0155147
-0.0166669
-0.0178158
0.00609559
0.00473131
0.00364135
0.00259875
0.00150871
0.00039643
-0.000707838
-0.00180054
-0.0028877
-0.00397221
-0.00505374
-0.00613158
-0.00720567
-0.00827624
-0.00934347
-0.0104075
-0.0114684
-0.0125262
-0.0135811
-0.0146333
-0.0156828
0.00617527
0.00493834
0.00395977
0.00301713
0.00202672
0.00101573
1.24231e-05
-0.000980622
-0.00196925
-0.00295605
-0.00394061
-0.00492225
-0.0059009
-0.00687675
-0.00784998
-0.00882065
-0.00978884
-0.0107546
-0.0117181
-0.0126794
-0.0136386
0.006362
0.00523965
0.00435943
0.00350594
0.00260524
0.00168551
0.000773075
-0.000130265
-0.0010301
-0.00192874
-0.00282573
-0.00372042
-0.00461274
-0.00550286
-0.00639091
-0.00727695
-0.00816103
-0.00904321
-0.00992356
-0.0108022
-0.0116791
0.00663796
0.00561884
0.00482561
0.00405174
0.00323192
0.00239453
0.00156397
0.000741487
-7.82158e-05
-0.00089722
-0.00171504
-0.00253106
-0.00334521
-0.00415763
-0.00496843
-0.00577765
-0.00658532
-0.00739148
-0.00819619
-0.00899949
-0.00980146
0.00698744
0.00606142
0.00534524
0.00464258
0.00389575
0.00313273
0.00237605
0.00162653
0.00087921
0.000132223
-0.000613948
-0.00135872
-0.00210202
-0.00284397
-0.00358466
-0.0043241
-0.00506233
-0.00579935
-0.00653522
-0.00726998
-0.00800365
0.00739653
0.00655456
0.00590673
0.00526784
0.00458694
0.00389115
0.00320119
0.00251759
0.00183572
0.00115392
0.000472645
-0.000207552
-0.000886597
-0.00156459
-0.0022416
-0.00291765
-0.00359273
-0.00426686
-0.00494007
-0.00561238
-0.00628383
0.00785289
0.0070869
0.00649977
0.00591808
0.00529677
0.00466182
0.00403218
0.00340818
0.00278555
0.00216279
0.00154035
0.000918719
0.000297993
-0.000321921
-0.000941074
-0.00155947
-0.00217711
-0.00279399
-0.00341014
-0.00402556
-0.00464028
0.00834562
0.00764835
0.00711524
0.00658488
0.0060175
0.00543764
0.00486258
0.00429252
0.00372354
0.00315431
0.00258522
0.00201676
0.00144899
0.000881845
0.000315291
-0.000250674
-0.000816039
-0.0013808
-0.00194498
-0.00250856
-0.00307157
0.00886509
0.00823003
0.00774506
0.00726084
0.00674229
0.00621234
0.00568672
0.00516551
0.00464518
0.00412449
0.00360385
0.00308366
0.00256401
0.00204485
0.00152615
0.0010079
0.000490134
-2.71514e-05
-0.000543953
-0.00106027
-0.00157611
0.00940279
0.00882409
0.00838209
0.00793941
0.0074651
0.00698042
0.0064996
0.00602269
0.00554648
0.00506987
0.00459322
0.0041169
0.00364101
0.0031655
0.00269033
0.00221554
0.00174112
0.0012671
0.000793477
0.000320257
-0.000152559
0.00995126
0.00942367
0.00902008
0.00861484
0.00818064
0.00773704
0.00729688
0.00686015
0.006424
0.00598743
0.00555077
0.00511436
0.00467827
0.00424248
0.00380697
0.00337175
0.00293684
0.00250226
0.00206802
0.00163412
0.00120057
0.010504
0.0100228
0.0096536
0.00928213
0.00888434
0.00847805
0.00807479
0.00767456
0.0072748
0.00687464
0.00647435
0.00607424
0.00567439
0.00527478
0.00487539
0.00447624
0.00407735
0.00367874
0.00328042
0.0028824
0.00248469
0.0110553
0.0106162
0.0102779
0.00993697
0.00957225
0.00919986
0.00883013
0.00846307
0.00809641
0.00772937
0.00736218
0.00699513
0.00662828
0.00626163
0.00589517
0.00552891
0.00516287
0.00479708
0.00443155
0.00406629
0.00370131
0.0116003
0.0111994
0.010889
0.0105757
0.010241
0.00989944
0.00956022
0.00922333
0.00888679
0.00854989
0.00821285
0.00787592
0.00753916
0.00720256
0.00686613
0.00652987
0.00619381
0.00585798
0.00552238
0.00518703
0.00485194
0.0121349
0.0117688
0.0114834
0.0111951
0.0108878
0.0105743
0.0102628
0.00995341
0.0096443
0.00933487
0.0090253
0.00871583
0.0084065
0.00809732
0.00778829
0.00747941
0.00717073
0.00686224
0.00655398
0.00624596
0.00593818
0.0126555
0.012321
0.0120582
0.0117927
0.0115103
0.0112223
0.0109362
0.0106518
0.0103677
0.0100833
0.00979878
0.00951435
0.00923006
0.0089459
0.00866188
0.00837801
0.00809432
0.00781083
0.00752755
0.00724449
0.00696168
0.0131592
0.0128534
0.0126112
0.0123664
0.0121066
0.011842
0.0115788
0.0113173
0.011056
0.0107945
0.0105328
0.0102713
0.0100098
0.00974852
0.00948734
0.00922632
0.00896547
0.00870481
0.00844436
0.00818413
0.00792414
0.0136436
0.013364
0.0131404
0.0129144
0.0126753
0.0124319
0.0121899
0.0119491
0.0117087
0.011468
0.0112272
0.0109866
0.010746
0.0105056
0.0102653
0.0100251
0.00978517
0.00954539
0.00930581
0.00906645
0.00882733
0.0141068
0.0138511
0.0136444
0.0134356
0.0132154
0.0129914
0.0127685
0.0125468
0.0123254
0.0121038
0.0118821
0.0116605
0.011439
0.0112177
0.0109965
0.0107754
0.0105545
0.0103339
0.0101134
0.0098931
0.00967307
0.0145473
0.0143133
0.0141221
0.013929
0.013726
0.0135198
0.0133144
0.0131101
0.0129061
0.0127019
0.0124977
0.0122935
0.0120895
0.0118856
0.0116819
0.0114783
0.0112749
0.0110716
0.0108686
0.0106658
0.0104632
0.0149642
0.0147499
0.0145728
0.0143941
0.0142069
0.0140168
0.0138275
0.0136391
0.0134509
0.0132627
0.0130744
0.0128862
0.0126982
0.0125103
0.0123225
0.0121349
0.0119474
0.0117602
0.0115731
0.0113863
0.0111997
0.0153565
0.0151603
0.0149962
0.0148306
0.0146578
0.0144825
0.0143079
0.014134
0.0139604
0.0137867
0.013613
0.0134395
0.013266
0.0130927
0.0129195
0.0127465
0.0125737
0.0124011
0.0122286
0.0120564
0.0118845
0.0157241
0.0155442
0.0153919
0.0152385
0.0150788
0.014917
0.0147558
0.0145953
0.014435
0.0142746
0.0141143
0.0139541
0.013794
0.0136341
0.0134743
0.0133146
0.0131552
0.0129959
0.0128368
0.012678
0.0125194
0.0160666
0.0159017
0.0157603
0.0156179
0.0154703
0.0153209
0.0151719
0.0150236
0.0148755
0.0147273
0.0145792
0.0144312
0.0142833
0.0141356
0.013988
0.0138406
0.0136934
0.0135463
0.0133995
0.0132529
0.0131065
0.0163843
0.016233
0.0161015
0.0159693
0.0158327
0.0156946
0.0155569
0.0154197
0.0152827
0.0151457
0.0150087
0.0148719
0.0147352
0.0145986
0.0144622
0.014326
0.0141899
0.0140541
0.0139184
0.013783
0.0136478
0.0166774
0.0165384
0.0164161
0.0162932
0.0161666
0.0160389
0.0159114
0.0157844
0.0156576
0.0155307
0.015404
0.0152774
0.0151509
0.0150245
0.0148983
0.0147723
0.0146465
0.0145208
0.0143953
0.0142701
0.0141451
0.0169463
0.0168186
0.0167047
0.0165903
0.016473
0.0163546
0.0162365
0.0161188
0.0160012
0.0158837
0.0157663
0.0156489
0.0155318
0.0154147
0.0152978
0.0151811
0.0150645
0.0149482
0.014832
0.014716
0.0146003
0.0171918
0.0170742
0.016968
0.0168615
0.0167525
0.0166427
0.0165331
0.0164238
0.0163147
0.0162057
0.0160967
0.0159879
0.0158791
0.0157706
0.0156621
0.0155539
0.0154458
0.0153379
0.0152302
0.0151227
0.0150154
0.0174146
0.0173061
0.0172069
0.0171075
0.0170061
0.0169041
0.0168022
0.0167007
0.0165992
0.0164979
0.0163966
0.0162954
0.0161944
0.0160935
0.0159928
0.0158922
0.0157918
0.0156916
0.0155915
0.0154917
0.0176153
0.017515
0.0174223
0.0173293
0.0172348
0.0171398
0.017045
0.0169504
0.0168559
0.0167615
0.0166672
0.016573
0.0164789
0.0163849
0.0162912
0.0161975
0.016104
0.0160107
0.0159176
0.0158247
0.0177949
0.017702
0.017615
0.0175279
0.0174396
0.0173509
0.0172624
0.017174
0.0170858
0.0169977
0.0169096
0.0168217
0.0167339
0.0166462
0.0165586
0.0164712
0.016384
0.016297
0.0162101
0.0161234
0.0179542
0.0178678
0.017786
0.0177042
0.0176214
0.0175384
0.0174555
0.0173727
0.0172901
0.0172076
0.0171251
0.0170428
0.0169605
0.0168784
0.0167965
0.0167147
0.016633
0.0165515
0.0164702
0.0163891
0.018094
0.0180133
0.0179362
0.0178591
0.0177812
0.0177032
0.0176253
0.0175475
0.0174698
0.0173922
0.0173147
0.0172373
0.01716
0.0170829
0.0170059
0.016929
0.0168523
0.0167758
0.0166994
0.0166232
0.0182151
0.0181394
0.0180664
0.0179933
0.0179198
0.0178461
0.0177725
0.0176991
0.0176257
0.0175525
0.0174793
0.0174062
0.0173333
0.0172605
0.0171878
0.0171153
0.0170429