/*--------------------------------*- C++ -*----------------------------------*\
  =========                 |
  \\      /  F ield         | OpenFOAM: The Open Source CFD Toolbox
   \\    /   O peration     | Website:  https://openfoam.org
    \\  /    A nd           | Version:  7
     \\/     M anipulation  |
\*---------------------------------------------------------------------------*/
FoamFile
{
    version     2.0;
    format      ascii;
    class       surfaceScalarField;
    location    "160";
    object      phi;
}
// * * * * * * * * * * * * * * * * * * * * * * * * * * * * * * * * * * * * * //

dimensions      [0 3 -1 0 0 0 0];

internalField   nonuniform List<scalar> 
8878
(
-0.00418426
-0.000231485
-0.000231477
-0.00403956
-0.00415048
-0.000265256
-0.00019546
-0.00379837
-0.000228891
-0.00389889
-0.00026332
-0.00400513
-0.00411513
-0.000298664
-0.000190034
-0.00367149
-0.000223833
-0.00376457
-0.000258799
-0.00386392
-0.000294792
-0.00396914
-0.00407823
-0.000331696
-0.000182557
-0.00355157
-0.000216552
-0.0036375
-0.000251831
-0.00372929
-0.000288327
-0.00382743
-0.000325882
-0.00393159
-0.00403977
-0.000364344
-0.000173167
-0.0034379
-0.000207283
-0.00351745
-0.000242701
-0.00360208
-0.000279447
-0.00369255
-0.000317463
-0.00378941
-0.000356578
-0.00389247
-0.00399975
-0.000396594
-0.000161926
-0.00332956
-0.000196152
-0.00340367
-0.000231651
-0.00348195
-0.000268475
-0.00356526
-0.000306672
-0.00365435
-0.000346195
-0.00374989
-0.000386867
-0.0038518
-0.00395818
-0.000428435
-0.000148887
-0.00322539
-0.000183204
-0.00329524
-0.000218791
-0.00336808
-0.000255657
-0.00344509
-0.000293869
-0.00352705
-0.000333496
-0.00361472
-0.000374513
-0.00370887
-0.000416736
-0.00380957
-0.00391507
-0.000459854
-0.000134153
-0.00312363
-0.000168477
-0.00319107
-0.000204149
-0.00325957
-0.000241083
-0.00333115
-0.000279299
-0.00340687
-0.000318879
-0.00348747
-0.000359913
-0.00357369
-0.000402404
-0.00366638
-0.00044617
-0.00376581
-0.0038704
-0.000490836
-0.000117924
-0.00302121
-0.000152061
-0.00308949
-0.000187748
-0.00315538
-0.00022476
-0.00322255
-0.000263025
-0.00329288
-0.000302573
-0.00336732
-0.000343499
-0.00344654
-0.000385917
-0.00353127
-0.000429858
-0.00362244
-0.000475158
-0.00372051
-0.00382419
-0.000521368
-0.000100539
-0.00291298
-0.000134139
-0.00298761
-0.000169665
-0.00305396
-0.000206697
-0.00311835
-0.000245034
-0.00318422
-0.000284616
-0.0032533
-0.00032548
-0.00332646
-0.00036773
-0.00340429
-0.000411501
-0.0034875
-0.000456866
-0.00357707
-0.000503684
-0.00367369
-0.00377644
-0.000551434
-8.25098e-05
-0.00279083
-0.000115032
-0.00288046
-0.000150071
-0.00295257
-0.000186963
-0.00301707
-0.000225322
-0.00307999
-0.000264968
-0.00314457
-0.000305853
-0.00321242
-0.000348018
-0.0032843
-0.00039157
-0.00336074
-0.000436666
-0.00344241
-0.000483419
-0.00353032
-0.000531737
-0.00362537
-0.00372716
-0.00058102
-6.45353e-05
-0.00264315
-9.52301e-05
-0.00276013
-0.000129267
-0.00284642
-0.000165716
-0.00291612
-0.000203952
-0.00297884
-0.000243622
-0.00304032
-0.000284563
-0.00310363
-0.000326737
-0.00317024
-0.000370187
-0.00324085
-0.000415022
-0.0033159
-0.00046141
-0.00339602
-0.000509513
-0.00348222
-0.000559306
-0.00357558
-0.00367634
-0.000610119
-4.74654e-05
-0.00245492
-7.54151e-05
-0.0026152
-0.000107725
-0.00272782
-0.000143241
-0.0028109
-0.000181073
-0.00287829
-0.000220632
-0.00293928
-0.000261593
-0.00299936
-0.000303815
-0.00306141
-0.000347266
-0.00312679
-0.000391988
-0.00319612
-0.000438087
-0.0032698
-0.000485738
-0.00334837
-0.000535149
-0.00343281
-0.000586387
-0.00352434
-0.00362401
-0.000638722
-5.64325e-05
-0.0024307
-8.61066e-05
-0.00258552
-0.000119989
-0.00269394
-0.000156952
-0.00277394
-0.000196138
-0.0028391
-0.000236998
-0.00289842
-0.000279234
-0.00295712
-0.000322723
-0.00301792
-0.000367439
-0.00308207
-0.000413423
-0.00315014
-0.000460773
-0.00322245
-0.00050966
-0.00329948
-0.000560335
-0.00338213
-0.000612982
-0.0034717
-0.00357016
-0.000666825
-3.92094e-05
-0.00218927
-6.52523e-05
-0.00240465
-9.66048e-05
-0.00255417
-0.00013202
-0.00265853
-0.000170394
-0.00273557
-0.000210909
-0.00279859
-0.000253048
-0.00285628
-0.000296543
-0.00291363
-0.000341283
-0.00297318
-0.000387253
-0.0030361
-0.000434491
-0.0031029
-0.000483083
-0.00317386
-0.000533188
-0.00324937
-0.000585088
-0.00333023
-0.000639106
-0.00341768
-0.00351483
-0.000694436
-2.46154e-05
-0.00187342
-4.61073e-05
-0.00216778
-7.39198e-05
-0.00237684
-0.000106905
-0.00252119
-0.000143814
-0.00262162
-0.000183567
-0.00269581
-0.000225383
-0.00275677
-0.000268781
-0.00281288
-0.000313516
-0.00286889
-0.000359494
-0.0029272
-0.000406707
-0.00298889
-0.000455192
-0.00305442
-0.000505024
-0.00312403
-0.000556336
-0.00319806
-0.000609434
-0.00327713
-0.000664795
-0.00336232
-0.003458
-0.000721632
-2.95936e-05
-0.00185711
-5.28944e-05
-0.00214448
-8.24298e-05
-0.00234731
-0.000117004
-0.00248661
-0.000155368
-0.00258325
-0.000196468
-0.00265471
-0.000239559
-0.00271368
-0.000284194
-0.00276824
-0.00033015
-0.00282294
-0.00037735
-0.00288
-0.000425794
-0.00294045
-0.000475523
-0.00300469
-0.000526596
-0.00307295
-0.000579121
-0.00314554
-0.000633408
-0.00322285
-0.000690104
-0.00330562
-0.00339959
-0.000748515
-1.64511e-05
-0.00145756
-3.45003e-05
-0.00183907
-5.9566e-05
-0.00211942
-9.07781e-05
-0.00231609
-0.000126898
-0.00245049
-0.000166678
-0.00254347
-0.000209093
-0.0026123
-0.000253434
-0.00266934
-0.000299283
-0.0027224
-0.000346441
-0.00277578
-0.000394846
-0.0028316
-0.00044451
-0.00289078
-0.000495476
-0.00295372
-0.000547799
-0.00302063
-0.000601561
-0.00309177
-0.000657064
-0.00316734
-0.000715053
-0.00324763
-0.00333953
-0.00077511
-7.10673e-06
-0.000959808
-1.95728e-05
-0.00144509
-3.93314e-05
-0.00181931
-6.61176e-05
-0.00209263
-9.89607e-05
-0.00228325
-0.000136583
-0.00241287
-0.000177742
-0.00250232
-0.000221442
-0.0025686
-0.000267006
-0.00262378
-0.000314045
-0.00267536
-0.000362385
-0.00272744
-0.000411978
-0.002782
-0.000462845
-0.00283992
-0.000515039
-0.00290153
-0.000568619
-0.00296705
-0.000623674
-0.00303672
-0.000680495
-0.00311052
-0.000739648
-0.00318848
-0.00327749
-0.000801689
-8.68381e-06
-0.000952769
-2.26527e-05
-0.00143113
-4.40827e-05
-0.00179788
-7.2545e-05
-0.00206417
-0.000106974
-0.00224882
-0.000146057
-0.00237379
-0.000188559
-0.00245981
-0.000233511
-0.00252364
-0.000280271
-0.00257702
-0.000328479
-0.00262715
-0.000377979
-0.00267794
-0.000428737
-0.00273125
-0.000480787
-0.00278787
-0.000534191
-0.00284813
-0.000589026
-0.00291222
-0.000645425
-0.00298032
-0.000703733
-0.00305221
-0.000764671
-0.00312754
-0.0032154
-0.000826755
-2.10756e-06
-0.000359966
-1.02398e-05
-0.000944637
-2.56823e-05
-0.00141568
-4.87444e-05
-0.00177481
-7.88382e-05
-0.00203407
-0.000114808
-0.00221285
-0.00015531
-0.00233328
-0.000199118
-0.00241601
-0.000245293
-0.00247747
-0.000293223
-0.00252909
-0.000342574
-0.0025778
-0.000393211
-0.0026273
-0.000445113
-0.00267934
-0.00049832
-0.00273466
-0.000552905
-0.00279354
-0.000608967
-0.00285616
-0.000666697
-0.00292259
-0.00072624
-0.00299267
-0.000786725
-0.00306706
-0.0031479
-0.000854227
-2.56802e-06
-0.000357398
-1.17803e-05
-0.000935425
-2.8669e-05
-0.00139879
-5.3325e-05
-0.00175016
-8.50066e-05
-0.00200239
-0.000122473
-0.00217539
-0.000164354
-0.0022914
-0.000209432
-0.00237093
-0.000256798
-0.0024301
-0.000305871
-0.00248002
-0.000356341
-0.00252733
-0.000408091
-0.00257555
-0.000461111
-0.00262632
-0.000515448
-0.00268032
-0.00057118
-0.00273781
-0.000628416
-0.00279892
-0.000687322
-0.00286368
-0.00074795
-0.00293204
-0.000810362
-0.00300465
-0.00308123
-0.000877031
-3.02376e-06
-0.000354374
-1.32996e-05
-0.000925149
-3.16047e-05
-0.00138049
-5.78151e-05
-0.00172395
-9.10405e-05
-0.00196917
-0.00012996
-0.00213647
-0.000173179
-0.00224818
-0.000219493
-0.00232461
-0.000268019
-0.00238158
-0.000318207
-0.00242983
-0.000369772
-0.00247576
-0.00042261
-0.00252271
-0.000476721
-0.00257221
-0.000532159
-0.00262488
-0.000589005
-0.00268096
-0.000647366
-0.00274056
-0.000707379
-0.00280367
-0.000769114
-0.00287031
-0.000832856
-0.0029409
-0.00301451
-0.000899582
-3.47411e-06
-0.0003509
-1.47957e-05
-0.000913827
-3.44866e-05
-0.0013608
-6.22118e-05
-0.00169622
-9.69371e-05
-0.00193444
-0.000137266
-0.00209614
-0.000181783
-0.00220367
-0.000229298
-0.0022771
-0.000278955
-0.00233192
-0.00033023
-0.00237855
-0.000382864
-0.00242313
-0.000436765
-0.00246881
-0.000491942
-0.00251704
-0.000548453
-0.00256837
-0.000606379
-0.00262304
-0.000665825
-0.00268111
-0.000726904
-0.00274259
-0.00078971
-0.0028075
-0.000854507
-0.00287611
-0.00294734
-0.000921677
-3.91858e-06
-0.000346981
-1.62672e-05
-0.000901479
-3.73124e-05
-0.00133975
-6.65123e-05
-0.00166702
-0.000102694
-0.00189826
-0.00014439
-0.00205444
-0.000190166
-0.00215789
-0.000238847
-0.00222842
-0.000289603
-0.00228116
-0.00034194
-0.00232622
-0.000395615
-0.00236945
-0.000450554
-0.00241387
-0.000506771
-0.00246082
-0.000564326
-0.00251082
-0.000623302
-0.00256406
-0.000683797
-0.00262062
-0.000745911
-0.00268048
-0.000809744
-0.00274367
-0.000875492
-0.00281036
-0.00287952
-0.000943306
-4.35661e-06
-0.000342625
-1.77123e-05
-0.000888123
-4.00798e-05
-0.00131739
-7.07139e-05
-0.00163639
-0.000108308
-0.00186067
-0.000151329
-0.00201142
-0.000198326
-0.00211089
-0.000248138
-0.00217861
-0.000299964
-0.00222934
-0.000353334
-0.00227285
-0.000408026
-0.00231476
-0.000463976
-0.00235792
-0.000521206
-0.00240359
-0.000579778
-0.00245225
-0.000639774
-0.00250407
-0.000701285
-0.0025591
-0.000764406
-0.00261736
-0.000829229
-0.00267885
-0.000895896
-0.00274369
-0.00281095
-0.000964464
-4.7877e-06
-0.000337837
-1.91297e-05
-0.000873781
-4.27865e-05
-0.00129373
-7.48144e-05
-0.00160436
-0.000113778
-0.0018217
-0.000158081
-0.00196712
-0.000206261
-0.00206271
-0.000257171
-0.00212769
-0.000310037
-0.00217647
-0.000364412
-0.00221847
-0.000420094
-0.00225908
-0.00047703
-0.00230099
-0.000535246
-0.00234537
-0.000594808
-0.00239268
-0.000655795
-0.00244308
-0.000718295
-0.0024966
-0.000782396
-0.00255326
-0.00084818
-0.00261306
-0.000915756
-0.00267612
-0.00274156
-5.21133e-06
-0.000332626
-2.0518e-05
-0.000858475
-4.54306e-05
-0.00126882
-7.88115e-05
-0.00157098
-0.000119102
-0.00178141
-0.000164646
-0.00192157
-0.000213971
-0.00201339
-0.000265945
-0.00207572
-0.00031982
-0.0021226
-0.000375173
-0.00216312
-0.000431819
-0.00220243
-0.000489715
-0.00224309
-0.000548892
-0.0022862
-0.000609416
-0.00233216
-0.000671367
-0.00238113
-0.00073483
-0.00243314
-0.000799885
-0.0024882
-0.00086661
-0.00254634
-0.000935091
-0.00260763
-0.00267131
-5.62701e-06
-0.000326999
-2.18758e-05
-0.000842226
-4.80102e-05
-0.00124268
-8.27033e-05
-0.00153629
-0.000124277
-0.00173984
-0.000171022
-0.00187483
-0.000221454
-0.00196296
-0.000274459
-0.00202271
-0.000329314
-0.00206774
-0.000385617
-0.00210681
-0.000443201
-0.00214485
-0.00050203
-0.00218426
-0.000562141
-0.00222608
-0.000623602
-0.0022707
-0.000686491
-0.00231824
-0.000750891
-0.00236874
-0.000816879
-0.00242221
-0.000884526
-0.00247869
-0.000953909
-0.00253825
-0.00260018
-6.03426e-06
-0.000320965
-2.3202e-05
-0.000825058
-5.05236e-05
-0.00121536
-8.6488e-05
-0.00150032
-0.000129303
-0.00169702
-0.000177207
-0.00182693
-0.00022871
-0.00191145
-0.000282713
-0.00196871
-0.000338517
-0.00201194
-0.000395744
-0.00204959
-0.000454238
-0.00208635
-0.000513975
-0.00212453
-0.000574995
-0.00216506
-0.000637366
-0.00220833
-0.000701168
-0.00225444
-0.00076648
-0.00230343
-0.000833379
-0.00235532
-0.000901933
-0.00241014
-0.000972212
-0.00246797
-6.43261e-06
-0.000314532
-2.44953e-05
-0.000806995
-5.29693e-05
-0.00118689
-9.01639e-05
-0.00146313
-0.000134178
-0.00165301
-0.000183201
-0.0017779
-0.000235738
-0.00185892
-0.000290707
-0.00191374
-0.000347431
-0.00195522
-0.000405553
-0.00199146
-0.000464931
-0.00202698
-0.00052555
-0.00206391
-0.000587452
-0.00210316
-0.000650709
-0.00214507
-0.000715398
-0.00218975
-0.0007816
-0.00223723
-0.000849388
-0.00228753
-0.000918831
-0.00234069
-0.0023968
-6.82164e-06
-0.00030771
-2.57548e-05
-0.000788062
-5.53456e-05
-0.00115729
-9.37295e-05
-0.00142474
-0.000138901
-0.00160784
-0.000189003
-0.0017278
-0.000242538
-0.00180538
-0.000298439
-0.00185784
-0.000356054
-0.0018976
-0.000415043
-0.00193248
-0.000475279
-0.00196674
-0.000536753
-0.00200243
-0.000599513
-0.0020404
-0.000663629
-0.00208095
-0.000729181
-0.00212419
-0.000796248
-0.00217016
-0.000864905
-0.00221887
-0.00093522
-0.00227038
-0.00232476
-7.20092e-06
-0.000300509
-2.69794e-05
-0.000768284
-5.76513e-05
-0.00112662
-9.71834e-05
-0.00138521
-0.00014347
-0.00156155
-0.000194612
-0.00167666
-0.000249108
-0.00175089
-0.000305911
-0.00180104
-0.000364386
-0.00183913
-0.000424215
-0.00187265
-0.000485282
-0.00190567
-0.000547585
-0.00194013
-0.000611176
-0.00197681
-0.000676126
-0.002016
-0.000742516
-0.0020578
-0.000810426
-0.00210225
-0.000879929
-0.00214937
-0.000951097
-0.00219921
-7.57006e-06
-0.000292939
-2.81681e-05
-0.000747686
-5.98849e-05
-0.00109491
-0.000100524
-0.00134457
-0.000147884
-0.00151419
-0.000200028
-0.00162451
-0.00025545
-0.00169546
-0.00031312
-0.00174337
-0.000372427
-0.00177982
-0.000433068
-0.00181201
-0.000494939
-0.0018438
-0.000558045
-0.00187702
-0.000622441
-0.00191242
-0.0006882
-0.00195024
-0.000755403
-0.0019906
-0.000824131
-0.00203353
-0.000894459
-0.00207904
-0.00212721
-7.92867e-06
-0.000285011
-2.93201e-05
-0.000726294
-6.20455e-05
-0.00106218
-0.000103751
-0.00130287
-0.000152143
-0.0014658
-0.000205249
-0.00157141
-0.000261562
-0.00163915
-0.000320069
-0.00168486
-0.000380177
-0.00171971
-0.000441601
-0.00175058
-0.00050425
-0.00178115
-0.000568132
-0.00181314
-0.000633307
-0.00184724
-0.000699849
-0.0018837
-0.00076784
-0.00192261
-0.000837362
-0.001964
-0.000908493
-0.00200791
-0.00205439
-8.27641e-06
-0.000276734
-3.04344e-05
-0.000704136
-6.41317e-05
-0.00102848
-0.000106862
-0.00126014
-0.000156246
-0.00141641
-0.000210275
-0.00151738
-0.000267444
-0.00158198
-0.000326755
-0.00162555
-0.000387635
-0.00165883
-0.000449816
-0.0016884
-0.000513214
-0.00171775
-0.000577846
-0.00174851
-0.000643773
-0.00178132
-0.000711072
-0.0018164
-0.000779826
-0.00185386
-0.000850118
-0.00189371
-0.000922026
-0.001936
-0.00198079
-8.61294e-06
-0.000268121
-3.15104e-05
-0.000681239
-6.61427e-05
-0.000993851
-0.000109857
-0.00121642
-0.000160192
-0.00136608
-0.000215106
-0.00146246
-0.000273096
-0.00152399
-0.000333179
-0.00156547
-0.000394802
-0.00159721
-0.00045771
-0.00162549
-0.000521831
-0.00165363
-0.000587186
-0.00168315
-0.000653838
-0.00171466
-0.000721868
-0.00174837
-0.000791359
-0.00178436
-0.000862395
-0.00182268
-0.000935058
-0.00186334
-8.93792e-06
-0.000259183
-3.25473e-05
-0.00065763
-6.80774e-05
-0.000958321
-0.000112735
-0.00117176
-0.00016398
-0.00131484
-0.000219741
-0.0014067
-0.000278517
-0.00146522
-0.00033934
-0.00150464
-0.000401676
-0.00153487
-0.000465284
-0.00156188
-0.0005301
-0.00158882
-0.00059615
-0.0016171
-0.000663502
-0.00164731
-0.000732236
-0.00167964
-0.000802437
-0.00171416
-0.000874191
-0.00175092
-0.00178995
-9.25107e-06
-0.000249932
-3.35443e-05
-0.000633336
-6.99348e-05
-0.000921931
-0.000115495
-0.0011262
-0.000167609
-0.00126272
-0.00022418
-0.00135013
-0.000283707
-0.00140569
-0.00034524
-0.00144311
-0.000408258
-0.00147185
-0.000472537
-0.00149761
-0.00053802
-0.00152333
-0.000604739
-0.00155039
-0.000672762
-0.00157929
-0.000742173
-0.00161023
-0.000813058
-0.00164328
-0.000885504
-0.00167848
-0.00171585
-9.55209e-06
-0.00024038
-3.45008e-05
-0.000608388
-7.17143e-05
-0.000884717
-0.000118136
-0.00107978
-0.000171079
-0.00120978
-0.000228422
-0.00129279
-0.000288666
-0.00134545
-0.000350876
-0.0013809
-0.000414548
-0.00140818
-0.000479469
-0.00143268
-0.000545591
-0.00145721
-0.000612951
-0.00148303
-0.000681618
-0.00151062
-0.000751679
-0.00154017
-0.00082322
-0.00157174
-0.000896331
-0.00160536
-0.00164108
-9.84072e-06
-0.000230539
-3.54163e-05
-0.000582812
-7.3415e-05
-0.000846718
-0.000120657
-0.00103254
-0.000174389
-0.00115605
-0.000232467
-0.00123471
-0.000293394
-0.00128452
-0.000356249
-0.00131805
-0.000420545
-0.00134389
-0.00048608
-0.00136715
-0.000552813
-0.00139048
-0.000620784
-0.00141505
-0.000690069
-0.00144134
-0.000760751
-0.00146949
-0.000832921
-0.00149957
-0.000906669
-0.00153162
-1.01167e-05
-0.000220423
-3.629e-05
-0.000556639
-7.50361e-05
-0.000807972
-0.000123058
-0.000984518
-0.00017754
-0.00110157
-0.000236315
-0.00117594
-0.000297891
-0.00122294
-0.00036136
-0.00125458
-0.000426249
-0.001279
-0.000492368
-0.00130103
-0.000559683
-0.00132316
-0.000628239
-0.0013465
-0.000698112
-0.00137146
-0.000769387
-0.00139821
-0.000842158
-0.0014268
-0.00145726
-1.03798e-05
-0.000210043
-3.71216e-05
-0.000529897
-7.65769e-05
-0.000768517
-0.000125338
-0.000935757
-0.000180529
-0.00104637
-0.000239965
-0.0011165
-0.000302155
-0.00116075
-0.000366206
-0.00119053
-0.000431659
-0.00121354
-0.000498333
-0.00123436
-0.000566203
-0.00125529
-0.000635314
-0.00127739
-0.000705746
-0.00130103
-0.000777587
-0.00132637
-0.00085093
-0.00135345
-0.00138232
-1.06297e-05
-0.000199413
-3.79105e-05
-0.000502616
-7.8037e-05
-0.000728391
-0.000127496
-0.000886298
-0.000183358
-0.000990513
-0.000243416
-0.00105644
-0.000306188
-0.00109798
-0.000370789
-0.00112593
-0.000436775
-0.00114756
-0.000503976
-0.00116716
-0.000572369
-0.0011869
-0.000642008
-0.00120775
-0.000712971
-0.00123007
-0.000785348
-0.00125399
-0.000859233
-0.00127957
-0.00130683
-1.08663e-05
-0.000188547
-3.86561e-05
-0.000474826
-7.94155e-05
-0.000687631
-0.000129532
-0.000836181
-0.000186024
-0.000934021
-0.00024667
-0.000995796
-0.000309988
-0.00103466
-0.000375108
-0.0010608
-0.000441597
-0.00108107
-0.000509294
-0.00109946
-0.000578183
-0.00111801
-0.000648319
-0.00113761
-0.000719784
-0.0011586
-0.000792668
-0.00118111
-0.000867067
-0.00120517
-0.00123082
-1.10894e-05
-0.000177458
-3.93581e-05
-0.000446558
-8.0712e-05
-0.000646277
-0.000131446
-0.000785447
-0.000188529
-0.000876938
-0.000249724
-0.0009346
-0.000313555
-0.000970833
-0.000379163
-0.000995198
-0.000446124
-0.00101411
-0.000514288
-0.0010313
-0.000583644
-0.00104866
-0.000654248
-0.00106701
-0.000726184
-0.00108667
-0.000799546
-0.00110775
-0.000874429
-0.00113029
-1.12988e-05
-0.000166159
-4.00161e-05
-0.00041784
-8.1926e-05
-0.000604367
-0.000133236
-0.000734137
-0.000190871
-0.000819303
-0.00025258
-0.000872891
-0.00031689
-0.000906523
-0.000382953
-0.000929135
-0.000450357
-0.000946702
-0.000518957
-0.000962696
-0.000588749
-0.000978863
-0.000659792
-0.000995965
-0.000732171
-0.00101429
-0.00080598
-0.00103394
-0.00105495
-1.14942e-05
-0.000154665
-4.06296e-05
-0.000388705
-8.30569e-05
-0.00056194
-0.000134903
-0.00068229
-0.000193051
-0.000761155
-0.000255237
-0.000810705
-0.000319992
-0.000841768
-0.000386478
-0.000862649
-0.000454294
-0.000878886
-0.000523301
-0.000893688
-0.000593499
-0.000908665
-0.000664951
-0.000924513
-0.000737742
-0.000941498
-0.000811968
-0.000959711
-0.000979191
-1.16756e-05
-0.000142989
-4.11983e-05
-0.000359182
-8.41044e-05
-0.000519034
-0.000136446
-0.000629949
-0.000195067
-0.000702534
-0.000257694
-0.000748078
-0.000322861
-0.000776602
-0.000389738
-0.000795772
-0.000457935
-0.00081069
-0.000527319
-0.000824304
-0.000597894
-0.000838089
-0.000669724
-0.000852683
-0.000742898
-0.000868324
-0.00081751
-0.000885098
-0.00090304
-1.18428e-05
-0.000131146
-4.17219e-05
-0.000329303
-8.50681e-05
-0.000475688
-0.000137864
-0.000577153
-0.00019692
-0.000643478
-0.000259952
-0.000685047
-0.000325496
-0.000711057
-0.000392733
-0.000728535
-0.000461279
-0.000742144
-0.00053101
-0.000754574
-0.000601931
-0.000767168
-0.00067411
-0.000780504
-0.000747635
-0.0007948
-0.000822603
-0.00081013
-0.000826528
-1.19956e-05
-0.000119151
-4.22001e-05
-0.000299099
-8.59475e-05
-0.00043194
-0.000139158
-0.000523942
-0.00019861
-0.000584026
-0.00026201
-0.000621647
-0.000327898
-0.000645169
-0.000395462
-0.00066097
-0.000464328
-0.000673278
-0.000534374
-0.000684527
-0.000605612
-0.00069593
-0.000678108
-0.000708008
-0.000751954
-0.000720954
-0.000827247
-0.000734837
-0.000749687
-1.2134e-05
-0.000107017
-4.26327e-05
-0.0002686
-8.67424e-05
-0.000387831
-0.000140327
-0.000470358
-0.000200136
-0.000524217
-0.000263867
-0.000557916
-0.000330066
-0.000578971
-0.000397926
-0.00059311
-0.00046708
-0.000604125
-0.000537411
-0.000614196
-0.000608934
-0.000624408
-0.000681718
-0.000635224
-0.000755853
-0.000646818
-0.00083144
-0.000659251
-0.000672549
-1.22578e-05
-9.47587e-05
-4.30193e-05
-0.000237838
-8.74524e-05
-0.000343397
-0.00014137
-0.00041644
-0.000201497
-0.00046409
-0.000265525
-0.000493888
-0.000332
-0.000512496
-0.000400124
-0.000524985
-0.000469534
-0.000534714
-0.00054012
-0.00054361
-0.000611898
-0.00055263
-0.000684938
-0.000562184
-0.000759332
-0.000572424
-0.00083518
-0.000583403
-0.000595144
-1.23669e-05
-8.23918e-05
-4.33598e-05
-0.000206846
-8.80773e-05
-0.00029868
-0.000142288
-0.000362229
-0.000202694
-0.000403683
-0.000266982
-0.000429601
-0.0003337
-0.000445778
-0.000402055
-0.00045663
-0.000471691
-0.000465078
-0.000542501
-0.0004728
-0.000614503
-0.000480629
-0.000687768
-0.000488918
-0.00076239
-0.000497802
-0.000838468
-0.000507324
-0.000517506
-1.24613e-05
-6.99305e-05
-4.3654e-05
-0.000175653
-8.86168e-05
-0.000253717
-0.00014308
-0.000307766
-0.000203727
-0.000343036
-0.000268238
-0.00036509
-0.000335165
-0.000378851
-0.00040372
-0.000388075
-0.000473551
-0.000395247
-0.000544554
-0.000401798
-0.000616748
-0.000408434
-0.000690207
-0.000415459
-0.000765026
-0.000422984
-0.000841302
-0.000431047
-0.000439666
-1.25408e-05
-5.73897e-05
-4.39017e-05
-0.000144292
-8.90708e-05
-0.000208548
-0.000143746
-0.000253091
-0.000204595
-0.000282187
-0.000269294
-0.000300391
-0.000336397
-0.000311749
-0.000405119
-0.000319352
-0.000475113
-0.000325254
-0.000546277
-0.000330634
-0.000618633
-0.000336078
-0.000692256
-0.000341836
-0.000767238
-0.000348001
-0.000843682
-0.000354604
-0.000361658
-1.26054e-05
-4.47843e-05
-4.41027e-05
-0.000112795
-8.9439e-05
-0.000163212
-0.000144286
-0.000198244
-0.000205299
-0.000221174
-0.000270149
-0.000235541
-0.000337394
-0.000244504
-0.000406251
-0.000250494
-0.000476377
-0.000255128
-0.000547672
-0.000259339
-0.000620159
-0.000263591
-0.000693913
-0.000268082
-0.000769028
-0.000272886
-0.000845606
-0.000278026
-1.26551e-05
-3.21292e-05
-4.42571e-05
-8.11927e-05
-8.97215e-05
-0.000117747
-0.0001447
-0.000143266
-0.000205837
-0.000160037
-0.000270804
-0.000170574
-0.000338156
-0.000177152
-0.000407117
-0.000181534
-0.000477343
-0.000184902
-0.000548737
-0.000187945
-0.000621324
-0.000191004
-0.000695178
-0.000194228
-0.000770394
-0.000197669
-0.000201345
-1.26898e-05
-1.94394e-05
-4.43647e-05
-4.95178e-05
-8.99179e-05
-7.21942e-05
-0.000144987
-8.81964e-05
-0.000206211
-9.88128e-05
-0.000271257
-0.000105528
-0.000338684
-0.000109725
-0.000407715
-0.000112502
-0.00047801
-0.000114607
-0.000549473
-0.000116482
-0.000622128
-0.000118349
-0.000696051
-0.000120305
-0.000771337
-0.000122383
-0.000124595
-1.27094e-05
-6.73001e-06
-4.44254e-05
-1.78019e-05
-9.00284e-05
-2.65911e-05
-0.000145148
-3.30766e-05
-0.00020642
-3.75414e-05
-0.00027151
-4.04379e-05
-0.000338977
-4.2258e-05
-0.000408047
-4.34318e-05
-0.00047838
-4.42748e-05
-0.000549879
-4.49825e-05
-0.000622571
-4.56575e-05
-0.000696531
-4.63445e-05
-0.000771855
-4.70595e-05
-4.78064e-05
-1.2714e-05
5.98402e-06
-4.44392e-05
1.39233e-05
-9.00529e-05
1.90226e-05
-0.000145183
2.20535e-05
-0.000206464
2.37392e-05
-0.000271562
2.46601e-05
-0.000339036
2.52164e-05
-0.000408112
2.56447e-05
-0.000478451
2.60636e-05
-0.000549956
2.65228e-05
-0.000622654
2.70401e-05
-0.00069662
2.76213e-05
-0.000771949
2.82696e-05
2.89877e-05
-1.27037e-05
1.86877e-05
-4.44063e-05
4.56258e-05
-8.99915e-05
6.46078e-05
-0.000145091
7.71535e-05
-0.000206343
8.49904e-05
-0.000271413
8.97301e-05
-0.00033886
9.26641e-05
-0.000407911
9.46954e-05
-0.000478224
9.63765e-05
-0.000549704
9.80028e-05
-0.000622376
9.97121e-05
-0.000696316
0.000101561
-0.000771619
0.000103572
0.000105755
-1.26783e-05
3.1366e-05
-4.43265e-05
7.7274e-05
-8.98441e-05
0.000110125
-0.000144874
0.000132183
-0.000206057
0.000146174
-0.000271063
0.000154736
-0.00033845
0.000160051
-0.000407443
0.000163688
-0.000477699
0.000166633
-0.000549122
0.000169426
-0.000621737
0.000172327
-0.00069562
0.000175444
-0.000770864
0.000178817
0.000182464
-1.2638e-05
4.4004e-05
-4.41999e-05
0.000108836
-8.96108e-05
0.000155536
-0.00014453
0.000187102
-0.000205606
0.00020725
-0.000270512
0.000219642
-0.000337806
0.000227345
-0.000406708
0.00023259
-0.000476876
0.0002368
-0.000548211
0.000240761
-0.000620738
0.000244854
-0.000694532
0.000249237
-0.000769686
0.000253972
-0.000846303
0.000259081
0.000264577
-1.25826e-05
5.65866e-05
-4.40266e-05
0.00014028
-8.92917e-05
0.000200801
-0.000144059
0.00024187
-0.000204991
0.000268182
-0.000269761
0.000284413
-0.000336927
0.00029451
-0.000405707
0.00030137
-0.000475755
0.000306848
-0.000546971
0.000311978
-0.000619378
0.000317262
-0.000693052
0.000322911
-0.000768085
0.000329005
-0.000844578
0.000335574
0.000342636
-1.25124e-05
6.9099e-05
-4.38068e-05
0.000171574
-8.8887e-05
0.000245882
-0.000143463
0.000296446
-0.000204211
0.00032893
-0.00026881
0.000349011
-0.000335814
0.000361514
-0.000404439
0.000369996
-0.000474336
0.000376745
-0.000545402
0.000383044
-0.000617659
0.000389518
-0.00069118
0.000396432
-0.00076606
0.000403884
-0.000842398
0.000411913
0.000420536
-1.24274e-05
8.15264e-05
-4.35404e-05
0.000202687
-8.83967e-05
0.000290738
-0.000142741
0.00035079
-0.000203267
0.000389455
-0.000267658
0.000413402
-0.000334467
0.000428323
-0.000402905
0.000438434
-0.000472619
0.000446459
-0.000543504
0.000453929
-0.00061558
0.000461594
-0.000688918
0.00046977
-0.000763612
0.000478578
-0.000839763
0.000488063
0.000498246
-1.23275e-05
9.38539e-05
-4.32278e-05
0.000233588
-8.78213e-05
0.000335331
-0.000141894
0.000404863
-0.000202158
0.00044972
-0.000266305
0.000477549
-0.000332886
0.000494903
-0.000401105
0.000506654
-0.000470606
0.000515959
-0.000541279
0.000524602
-0.000613141
0.000533456
-0.000686265
0.000542894
-0.000760743
0.000553056
-0.000836674
0.000563994
0.000575734
-1.2213e-05
0.000106067
-4.28691e-05
0.000264244
-8.71608e-05
0.000379623
-0.000140921
0.000458623
-0.000200886
0.000509685
-0.000264753
0.000541417
-0.000331071
0.000561221
-0.00039904
0.000574623
-0.000468295
0.000585214
-0.000538725
0.000595031
-0.000610344
0.000605075
-0.000683222
0.000615773
-0.000757452
0.000627286
-0.000833132
0.000639674
0.000652966
-1.20839e-05
0.000118151
-4.24644e-05
0.000294624
-8.64155e-05
0.000423574
-0.000139823
0.00051203
-0.00019945
0.000569312
-0.000263001
0.000604968
-0.000329023
0.000627243
-0.000396709
0.000642309
-0.000465688
0.000654194
-0.000535844
0.000665187
-0.000607188
0.00067642
-0.000679791
0.000688375
-0.000753741
0.000701236
-0.000829138
0.00071507
0.00072991
-1.19403e-05
0.000130091
-4.20142e-05
0.000324698
-8.55859e-05
0.000467146
-0.0001386
0.000565044
-0.00019785
0.000628562
-0.000261049
0.000668168
-0.000326741
0.000692935
-0.000394112
0.00070968
-0.000462784
0.000722866
-0.000532636
0.000735039
-0.000603675
0.00074746
-0.000675971
0.00076067
-0.000749611
0.000774876
-0.000824693
0.000790153
0.000806536
-1.17824e-05
0.000141874
-4.15186e-05
0.000354434
-8.46721e-05
0.000510299
-0.000137253
0.000617624
-0.000196087
0.000687396
-0.000258898
0.000730979
-0.000324227
0.000758263
-0.000391251
0.000776704
-0.000459585
0.000791199
-0.000529101
0.000804555
-0.000599805
0.000818164
-0.000671763
0.000832628
-0.000745062
0.000848175
-0.000819799
0.00086489
0.000882811
-1.16103e-05
0.000153484
-4.09779e-05
0.000383802
-8.36747e-05
0.000552996
-0.000135781
0.000669731
-0.000194161
0.000745776
-0.000256548
0.000793367
-0.00032148
0.000823195
-0.000388125
0.000843349
-0.00045609
0.000859164
-0.000525241
0.000873706
-0.000595579
0.000888502
-0.000667169
0.000904217
-0.000740096
0.000921102
-0.000814456
0.00093925
0.000958703
-1.14241e-05
0.000164908
-4.03925e-05
0.00041277
-8.25941e-05
0.000595198
-0.000134186
0.000721323
-0.000192073
0.000803662
-0.000254
0.000855294
-0.0003185
0.000887695
-0.000384735
0.000909584
-0.0004523
0.00092673
-0.000521055
0.000942461
-0.000590998
0.000958445
-0.000662189
0.000975408
-0.000734713
0.000993627
-0.000808667
0.0010132
0.00103418
-1.1224e-05
0.000176132
-3.97628e-05
0.000441309
-8.14306e-05
0.000636866
-0.000132468
0.000772361
-0.000189822
0.000861016
-0.000251252
0.000916724
-0.000315288
0.000951731
-0.000381081
0.000975376
-0.000448216
0.000993864
-0.000516545
0.00101079
-0.000586062
0.00102796
-0.000656824
0.00104617
-0.000728916
0.00106572
-0.000802432
0.00108672
-0.000877467
0.00110922
0.00113325
-1.10102e-05
0.000187142
-3.90891e-05
0.000469388
-8.01849e-05
0.000677961
-0.000130628
0.000822804
-0.00018741
0.000917798
-0.000248307
0.000977621
-0.000311845
0.00101527
-0.000377163
0.00104069
-0.000443837
0.00106054
-0.00051171
0.00107866
-0.000580772
0.00109702
-0.000651076
0.00111647
-0.000722706
0.00113735
-0.000795754
0.00115977
-0.000870315
0.00118378
0.00120942
-1.07829e-05
0.000197925
-3.83718e-05
0.000496977
-7.88574e-05
0.000718447
-0.000128665
0.000872611
-0.000184836
0.00097397
-0.000245164
0.00103795
-0.00030817
0.00107827
-0.000372982
0.00110551
-0.000439165
0.00112672
-0.000506553
0.00114605
-0.000575129
0.0011656
-0.000644946
0.00118629
-0.000716084
0.00120849
-0.000788634
0.00123232
-0.00086269
0.00125784
0.00128508
-1.05422e-05
0.000208467
-3.76114e-05
0.000524046
-7.74487e-05
0.000758284
-0.00012658
0.000921743
-0.000182102
0.00102949
-0.000241823
0.00109767
-0.000304263
0.00114071
-0.000368538
0.00116978
-0.000434199
0.00119238
-0.000501072
0.00121292
-0.000569134
0.00123366
-0.000638434
0.00125559
-0.000709051
0.0012791
-0.000781074
0.00130434
-0.000854596
0.00133136
0.0013602
-1.02884e-05
0.000218756
-3.68084e-05
0.000550566
-7.59595e-05
0.000797435
-0.000124375
0.000970158
-0.000179207
0.00108432
-0.000238286
0.00115675
-0.000300126
0.00120256
-0.000363832
0.00123349
-0.000428941
0.00125749
-0.00049527
0.00127925
-0.000562788
0.00130118