/*--------------------------------*- C++ -*----------------------------------*\
  =========                 |
  \\      /  F ield         | OpenFOAM: The Open Source CFD Toolbox
   \\    /   O peration     | Website:  https://openfoam.org
    \\  /    A nd           | Version:  7
     \\/     M anipulation  |
\*---------------------------------------------------------------------------*/
FoamFile
{
    version     2.0;
    format      ascii;
    class       volVectorField;
    location    "160";
    object      U;
}
// * * * * * * * * * * * * * * * * * * * * * * * * * * * * * * * * * * * * * //

dimensions      [0 1 -1 0 0 0 0];

internalField   nonuniform List<vector> 
4575
(
(1.16787 0.351395 -2.09259e-20)
(1.1645 0.370139 7.30506e-20)
(1.15865 0.354839 -6.73661e-20)
(1.16495 0.409844 -8.64244e-20)
(1.1595 0.391113 4.00933e-20)
(1.15463 0.373596 8.01533e-21)
(1.14925 0.358048 6.72255e-20)
(1.15984 0.433708 -5.73224e-20)
(1.15385 0.413692 1.64039e-19)
(1.14892 0.394596 -6.19816e-21)
(1.14457 0.376796 -2.32468e-20)
(1.13968 0.361013 9.49012e-21)
(1.15449 0.459154 9.58943e-20)
(1.14799 0.437658 -5.61387e-20)
(1.14252 0.417246 -8.01323e-20)
(1.13812 0.397798 2.16719e-20)
(1.13431 0.379727 -5.22151e-20)
(1.12995 0.363725 -3.4913e-20)
(1.14868 0.486219 -5.46523e-20)
(1.14184 0.463203 -1.56939e-20)
(1.1359 0.441286 -3.81791e-21)
(1.13097 0.420494 -5.31658e-21)
(1.12713 0.400708 1.26485e-21)
(1.12387 0.38238 -3.77485e-20)
(1.12005 0.366174 2.54725e-20)
(1.1421 0.514887 1.38753e-19)
(1.13518 0.490363 -3.64405e-20)
(1.12895 0.466898 -4.18909e-21)
(1.12359 0.444579 7.01631e-20)
(1.11922 0.423425 1.77816e-20)
(1.11594 0.403315 5.24773e-20)
(1.11325 0.384745 5.90678e-20)
(1.11001 0.368352 1.03638e-20)
(1.1343 0.545049 1.77813e-20)
(1.12767 0.519122 3.63677e-20)
(1.12142 0.494114 7.02246e-20)
(1.11584 0.470224 8.07967e-21)
(1.11108 0.447526 1.89532e-20)
(1.10727 0.426028 -5.40288e-20)
(1.10456 0.405611 3.26995e-20)
(1.10245 0.386812 -4.30387e-20)
(1.09981 0.370248 -9.02027e-21)
(1.12459 0.576362 -1.76435e-19)
(1.11889 0.549386 -1.98817e-19)
(1.11296 0.52292 -9.10745e-20)
(1.10742 0.497456 -9.40763e-20)
(1.10252 0.473169 -1.13091e-20)
(1.09838 0.450115 -8.44106e-21)
(1.09515 0.428292 -1.50331e-20)
(1.09301 0.407586 -1.70321e-20)
(1.09149 0.388571 -4.69045e-20)
(1.08947 0.371853 1.81216e-20)
(1.11181 0.608014 -2.90564e-20)
(1.10818 0.580831 1.28987e-19)
(1.10317 0.553233 1.78812e-19)
(1.098 0.526265 2.86398e-20)
(1.0932 0.500377 1.14329e-19)
(1.089 0.475719 -5.82183e-21)
(1.0855 0.452334 5.69177e-20)
(1.08286 0.430208 -1.77724e-20)
(1.0813 0.409231 -1.85967e-20)
(1.08036 0.390016 2.98483e-20)
(1.07899 0.37316 -7.88131e-22)
(1.09402 0.638381 5.41737e-20)
(1.09445 0.612678 7.94836e-20)
(1.09144 0.584751 4.99417e-20)
(1.08719 0.556575 -1.2462e-19)
(1.08281 0.529141 -9.2533e-20)
(1.07878 0.502861 -5.61508e-20)
(1.0753 0.477862 -9.10558e-20)
(1.07246 0.454172 -1.84329e-20)
(1.07042 0.431767 -1.05787e-20)
(1.06943 0.41054 -9.36728e-23)
(1.06908 0.391136 8.96795e-21)
(1.06838 0.374158 -3.9007e-21)
(1.06812 0.664592 -7.50218e-20)
(1.07586 0.643344 -2.65581e-19)
(1.07673 0.616725 -1.83029e-19)
(1.0744 0.588106 -5.28973e-20)
(1.07095 0.559398 7.89805e-20)
(1.06739 0.531536 6.13406e-20)
(1.06417 0.504896 1.4498e-21)
(1.06144 0.479586 4.45444e-20)
(1.05928 0.455619 -5.84762e-21)
(1.05786 0.432959 9.99065e-21)
(1.05744 0.411503 6.15703e-21)
(1.05766 0.391924 -9.5601e-21)
(1.05764 0.374837 5.5064e-21)
(1.02955 0.682088 -8.98128e-20)
(1.04942 0.669996 1.52687e-19)
(1.05728 0.647614 1.60458e-19)
(1.05867 0.620139 5.59528e-20)
(1.05709 0.590882 5.27207e-20)
(1.05448 0.561686 -2.28856e-20)
(1.05178 0.533434 -1.08861e-20)
(1.04938 0.50647 -2.33535e-21)
(1.04743 0.480879 4.36411e-20)
(1.04598 0.456664 9.05951e-21)
(1.04518 0.433776 1.19816e-21)
(1.04533 0.412115 -8.9204e-21)
(1.04611 0.392373 1.65758e-20)
(1.0468 0.375185 1.94929e-20)
(0.972256 0.684314 -4.96944e-20)
(1.01075 0.68808 2.32567e-20)
(1.03024 0.674622 -1.55837e-20)
(1.03832 0.651173 1.36902e-19)
(1.0403 0.622906 -1.20016e-19)
(1.03953 0.593065 -1.69173e-20)
(1.0378 0.563427 -2.51566e-22)
(1.03599 0.534824 1.6325e-20)
(1.03445 0.507569 3.53216e-20)
(1.03329 0.48173 -2.71952e-20)
(1.03257 0.457295 -6.22901e-21)
(1.03241 0.434206 1.60961e-21)
(1.03313 0.412369 1.25852e-20)
(1.03444 0.392473 2.99114e-20)
(1.03585 0.375188 -3.57081e-20)
(0.953928 0.690992 -1.68476e-20)
(0.991387 0.693214 -6.09712e-20)
(1.01062 0.678455 -1.71857e-20)
(1.01901 0.654008 -1.2579e-19)
(1.02166 0.625013 1.61399e-19)
(1.02174 0.594643 3.87596e-21)
(1.02093 0.564608 3.88069e-20)
(1.02003 0.535694 -2.80472e-21)
(1.01937 0.508182 -4.59466e-21)
(1.01904 0.482126 3.30344e-21)
(1.01907 0.457502 -1.21492e-20)
(1.01958 0.434241 -5.86091e-21)
(1.02086 0.412256 4.48029e-20)
(1.02268 0.392216 -2.23247e-20)
(1.02482 0.374827 6.91767e-21)
(0.871795 0.670074 -8.37996e-20)
(0.934958 0.696745 -6.34354e-20)
(0.971509 0.697472 -5.23906e-20)
(0.990605 0.681481 7.53618e-20)
(0.999392 0.656107 -4.37477e-21)
(1.00278 0.626446 -8.97212e-20)
(1.00375 0.595602 4.79169e-20)
(1.00389 0.565218 1.27827e-20)
(1.00394 0.536032 -2.36194e-20)
(1.00418 0.508299 -9.17893e-21)
(1.00469 0.482058 3.95521e-21)
(1.0055 0.457273 2.57556e-21)
(1.0067 0.43387 1.28944e-20)
(1.00854 0.411767 3.40107e-20)
(1.01086 0.391588 -9.92219e-20)
(1.01374 0.374072 2.38779e-20)
(0.756697 0.615131 1.89467e-21)
(0.853961 0.676429 8.76158e-20)
(0.915399 0.701553 1.12722e-19)
(0.951166 0.70084 6.74588e-20)
(0.970229 0.683686 -3.56844e-20)
(0.979501 0.657456 4.86234e-20)
(0.983682 0.627195 -1.4291e-20)
(0.985591 0.595932 -4.98505e-20)
(0.986713 0.565246 -7.19498e-21)
(0.987726 0.535829 2.92385e-22)
(0.988888 0.50791 -8.35904e-21)
(0.990268 0.481515 -5.38296e-21)
(0.991876 0.456598 4.68767e-20)
(0.993791 0.433081 -4.1152e-20)
(0.996213 0.410893 2.43693e-20)
(0.998984 0.390569 1.16027e-19)
(1.00262 0.372878 7.58741e-20)
(0.740879 0.621826 -1.27704e-19)
(0.835475 0.681802 -3.86321e-20)
(0.895304 0.705399 9.05826e-20)
(0.930406 0.703303 -1.17223e-19)
(0.949536 0.68506 -8.76022e-20)
(0.959371 0.658046 -3.6192e-20)
(0.9644 0.62725 4.21944e-20)
(0.967285 0.595624 8.7089e-21)
(0.969414 0.564683 1.77292e-21)
(0.971411 0.535075 -2.84597e-20)
(0.973512 0.507005 2.30613e-20)
(0.975776 0.480487 -5.31868e-21)
(0.97821 0.455466 -5.47441e-20)
(0.980877 0.431862 -2.2167e-20)
(0.983891 0.409622 -7.08976e-20)
(0.987095 0.389138 4.37133e-20)
(0.991521 0.371185 -9.05338e-20)
(0.588782 0.521898 1.25216e-19)
(0.724383 0.627561 1.81597e-19)
(0.816394 0.686174 6.82374e-20)
(0.874728 0.70827 -2.5087e-20)
(0.909278 0.704851 1.17291e-20)
(0.928571 0.685592 4.68239e-20)
(0.93904 0.657868 4.18142e-20)
(0.944965 0.626602 -1.07799e-20)
(0.94886 0.594669 1.77604e-21)
(0.952018 0.56352 3.75082e-21)
(0.955017 0.533763 3.39293e-20)
(0.95807 0.505579 -1.39667e-21)
(0.961232 0.478968 -1.61453e-20)
(0.964514 0.453867 -1.17911e-20)
(0.967965 0.4302 4.23094e-20)
(0.971586 0.40794 8.76766e-20)
(0.975238 0.387275 -1.46699e-19)
(0.980606 0.368947 1.05338e-19)
(0.392558 0.36641 2.42085e-19)
(0.575323 0.527469 -1.10523e-19)
(0.707264 0.632311 -1.23768e-19)
(0.796773 0.689528 -4.5508e-20)
(0.853724 0.710152 5.46164e-20)
(0.88783 0.705474 4.11889e-20)
(0.907374 0.685274 3.28536e-20)
(0.918541 0.656913 -2.14903e-20)
(0.925408 0.625242 9.24435e-21)
(0.930342 0.593059 9.08699e-21)
(0.934549 0.561752 -1.89494e-20)
(0.938564 0.531887 -2.19184e-20)
(0.94258 0.503624 -1.93202e-20)
(0.94665 0.476951 -2.42123e-21)
(0.950795 0.451793 7.96894e-20)
(0.95505 0.428082 -3.09985e-20)
(0.959292 0.405812 -6.45233e-20)
(0.963512 0.384919 -3.10349e-21)
(0.970133 0.366162 -1.52294e-19)
(0.383312 0.370895 -9.32029e-20)
(0.561275 0.532159 1.03821e-19)
(0.689576 0.63606 1.44283e-19)
(0.77667 0.691851 -5.53037e-20)
(0.832345 0.711034 7.78178e-21)
(0.866109 0.705163 -5.69281e-20)
(0.885987 0.684099 -1.61464e-20)
(0.897913 0.655175 1.22467e-21)
(0.905761 0.623166 -2.29088e-20)
(0.911759 0.59079 -3.9101e-20)
(0.917032 0.559372 -1.00398e-20)
(0.922073 0.529442 9.6228e-22)
(0.92706 0.501137 -2.84498e-20)
(0.932044 0.474433 2.579e-20)
(0.937057 0.449243 7.11176e-20)
(0.942109 0.425501 2.34989e-20)
(0.946994 0.403199 -1.30406e-19)
(0.952033 0.381925 -4.57761e-21)
(0.960038 0.362598 4.62789e-20)
(0.146726 0.148618 2.70321e-20)
(0.373605 0.374728 3.52451e-20)
(0.546688 0.535951 -9.13689e-20)
(0.671377 0.638789 -3.83034e-20)
(0.75614 0.693129 -3.91716e-20)
(0.810644 0.710909 -2.75762e-20)
(0.844164 0.703911 3.07243e-20)
(0.864451 0.682061 -1.65604e-20)
(0.87719 0.652648 2.73455e-20)
(0.886054 0.620368 6.94898e-20)
(0.893139 0.587855 4.99263e-20)
(0.899492 0.556377 -2.34936e-20)
(0.905567 0.526425 -1.42924e-20)
(0.911529 0.498118 -7.99379e-21)
(0.917429 0.471418 -7.91156e-20)
(0.923304 0.446226 -4.14222e-20)
(0.92913 0.42248 -4.63365e-20)
(0.9347 0.400149 1.56185e-19)
(0.940866 0.37832 -3.67872e-20)
(0.949249 0.356622 1.38831e-19)
(0.142959 0.150386 3.5095e-20)
(0.363474 0.377889 -1.33997e-20)
(0.531611 0.538826 4.72061e-20)
(0.652721 0.640486 -9.56119e-21)
(0.735242 0.693354 2.14294e-20)
(0.788676 0.709769 1.552e-20)
(0.822042 0.701715 -3.23753e-21)
(0.842809 0.679156 1.87582e-20)
(0.856409 0.64933 -8.63148e-20)
(0.86632 0.616843 2.19164e-20)
(0.87451 0.584251 -2.90207e-20)
(0.881953 0.552762 3.7086e-20)
(0.889069 0.522833 3.75088e-20)
(0.89601 0.494564 6.2355e-20)
(0.902826 0.467905 2.49493e-20)
(0.909552 0.442753 7.12978e-20)
(0.91614 0.419042 3.55596e-20)
(0.922448 0.39674 -8.66192e-21)
(0.929581 0.374946 7.89e-20)
(0.937951 0.353471 1.37511e-20)
(0.138999 0.151868 -2.32075e-20)
(0.352955 0.380362 -3.03086e-20)
(0.516094 0.540769 -2.40516e-20)
(0.633666 0.641137 1.1973e-20)
(0.71403 0.692516 -9.52561e-21)
(0.766492 0.70761 -5.86858e-21)
(0.799789 0.69857 3.10188e-20)
(0.821102 0.675382 1.89902e-20)
(0.835605 0.645217 5.85665e-20)
(0.84659 0.61259 4.66198e-20)
(0.8559 0.579976 -1.18352e-19)
(0.864441 0.548527 2.84473e-21)
(0.872603 0.518666 -1.21354e-19)
(0.880525 0.490475 -7.17006e-21)
(0.888255 0.463898 -5.46336e-20)
(0.895826 0.438825 8.56638e-20)
(0.903175 0.415191 -1.32629e-19)
(0.910211 0.392945 -3.35448e-20)
(0.918029 0.371185 -5.11558e-20)
(0.926402 0.349778 -1.86595e-19)
(0.134862 0.153058 1.44432e-20)
(0.342086 0.382133 -3.12309e-20)
(0.500188 0.541767 1.14695e-20)
(0.614267 0.640736 -4.39092e-21)
(0.692562 0.690612 1.11702e-20)
(0.744144 0.704429 -1.2306e-20)
(0.777454 0.694477 2.6488e-20)
(0.79937 0.670738 -8.68394e-20)
(0.814816 0.640308 -7.07997e-20)
(0.826896 0.607608 -1.36193e-19)
(0.837338 0.575029 8.71501e-20)
(0.846984 0.54367 -6.61424e-21)
(0.856192 0.513922 -2.2935e-20)
(0.865096 0.485853 -4.36326e-20)
(0.87374 0.459397 -6.34469e-20)
(0.882153 0.434444 3.53339e-20)
(0.890269 0.410927 1.0768e-19)
(0.898032 0.388785 -5.90647e-20)
(0.906471 0.367143 7.74153e-20)
(0.915048 0.345978 2.19523e-19)
(0.130565 0.153947 1.32815e-20)
(0.330904 0.383191 1.10841e-20)
(0.483944 0.54181 7.76664e-21)
(0.594582 0.639274 8.92843e-21)
(0.670893 0.687638 1.71975e-20)
(0.721686 0.700225 4.63957e-20)
(0.755081 0.689434 -3.64516e-20)
(0.777654 0.665225 -2.91828e-20)
(0.794075 0.634604 -2.41932e-20)
(0.807269 0.601895 9.16342e-20)
(0.818852 0.569409 -2.335e-19)
(0.829605 0.53819 -1.00003e-19)
(0.839863 0.508602 2.45708e-20)
(0.849746 0.480696 3.64854e-20)
(0.859302 0.454403 1.30749e-19)
(0.868556 0.42961 -1.83438e-19)
(0.877442 0.40625 5.40559e-20)
(0.885928 0.384251 3.18251e-20)
(0.894974 0.362787 -4.53618e-20)
(0.903884 0.341948 -1.65528e-19)
(0.126123 0.15453 1.40616e-20)
(0.319449 0.383525 -2.03538e-20)
(0.467413 0.54089 6.84034e-21)
(0.574666 0.636747 2.63016e-20)
(0.64908 0.683593 -3.02285e-20)
(0.699168 0.695001 -7.44621e-20)
(0.732718 0.683445 1.32902e-20)
(0.755995 0.658844 5.79093e-20)
(0.77342 0.628107 1.56495e-19)
(0.787743 0.595455 -1.67443e-19)
(0.800471 0.563118 1.413e-19)
(0.812333 0.53209 1.74321e-19)
(0.823638 0.502707 1.44387e-19)
(0.834499 0.475007 1.07485e-19)
(0.844964 0.448917 -2.30168e-19)
(0.855057 0.424323 -2.8334e-21)
(0.864715 0.40116 -6.17249e-20)
(0.873922 0.379344 2.3921e-19)
(0.88358 0.358106 -9.42711e-21)
(0.892902 0.337624 -1.17792e-19)
(0.121554 0.154801 1.70203e-20)
(0.307759 0.383127 7.98777e-21)
(0.450647 0.539003 6.21779e-21)
(0.554577 0.633155 -1.42615e-20)
(0.627177 0.678479 -2.61114e-20)
(0.676641 0.688758 -9.28235e-22)
(0.71041 0.676514 -3.66683e-20)
(0.734433 0.651599 -6.30885e-20)
(0.752885 0.62082 5.521e-20)
(0.768347 0.588288 1.33403e-19)
(0.782224 0.556158 3.37062e-21)
(0.795194 0.525371 6.06052e-20)
(0.807542 0.496238 -9.51099e-20)
(0.819378 0.468787 -1.18314e-19)
(0.830748 0.44294 2.99783e-19)
(0.841677 0.418585 1.20776e-19)
(0.852108 0.395654 -1.25208e-19)
(0.862035 0.374061 -1.42162e-19)
(0.872315 0.35309 -1.60095e-19)
(0.882098 0.332982 -1.53516e-20)
(0.116873 0.154757 -5.84817e-20)
(0.295874 0.381993 -1.28488e-20)
(0.433697 0.536144 -2.93999e-20)
(0.534369 0.628497 -6.24421e-20)
(0.605239 0.6723 1.13021e-19)
(0.654156 0.681503 -1.02821e-19)
(0.6882 0.668645 1.52764e-19)
(0.713007 0.643496 -1.3713e-21)
(0.732506 0.612746 -4.94463e-20)
(0.749114 0.5804 4.44642e-20)
(0.76414 0.548531 3.3384e-20)
(0.778213 0.518036 -1.67284e-19)
(0.791601 0.489199 1.77328e-19)
(0.804406 0.462039 1.09288e-19)
(0.816677 0.436475 -4.166e-20)
(0.828439 0.412396 -8.16618e-20)
(0.83964 0.389734 7.07591e-20)
(0.850287 0.3684 -1.24035e-19)
(0.861198 0.347729 -1.7195e-19)
(0.871475 0.328008 1.64549e-19)
(0.112099 0.154393 9.86301e-20)
(0.283832 0.380118 -5.94693e-20)
(0.416615 0.532314 -3.46531e-20)
(0.514098 0.622777 4.14842e-20)
(0.58332 0.665061 1.40086e-20)
(0.631762 0.673243 3.81923e-20)
(0.666135 0.659846 4.3947e-20)
(0.691757 0.634541 1.15921e-19)
(0.712317 0.603892 1.42525e-19)
(0.730074 0.571794 -1.36931e-19)
(0.746247 0.540243 1.6852e-19)
(0.761418 0.510088 -1.93841e-19)
(0.775837 0.481593 2.53461e-20)
(0.789606 0.454766 -7.62446e-20)
(0.802771 0.429524 5.62351e-20)
(0.815361 0.405758 5.31062e-20)
(0.827331 0.3834 -3.26409e-20)
(0.838697 0.362358 3.10122e-19)
(0.850243 0.342018 -4.23979e-20)
(0.861037 0.322694 -1.41306e-19)
(0.107248 0.153707 -7.93341e-20)
(0.271675 0.377501 1.0703e-19)
(0.399453 0.527514 -2.62872e-20)
(0.493819 0.616001 -1.30234e-19)
(0.561473 0.65677 9.73396e-20)
(0.609507 0.663986 -3.62849e-20)
(0.644257 0.650125 -1.24946e-19)
(0.67072 0.624741 -1.89923e-20)
(0.692353 0.594264 -2.97019e-19)
(0.711259 0.562477 2.87213e-19)
(0.728573 0.531299 -2.90786e-20)
(0.744834 0.501534 8.06121e-20)
(0.760277 0.473424 9.96639e-20)
(0.774999 0.446971 3.98908e-20)
(0.789051 0.42209 -2.70067e-19)
(0.802465 0.398673 6.13131e-20)
(0.815198 0.376653 5.62573e-20)
(0.827282 0.355934 -1.88199e-19)
(0.839464 0.335954 6.93132e-20)
(0.850789 0.317036 2.70275e-20)
(0.102338 0.152698 -7.68294e-20)
(0.25944 0.374142 -7.88611e-20)
(0.382259 0.521749 1.57922e-19)
(0.473586 0.608176 1.15971e-19)
(0.53975 0.647438 -9.51334e-20)
(0.587441 0.653744 8.89823e-21)
(0.622608 0.639494 8.3488e-20)
(0.649935 0.614107 2.48977e-20)
(0.672647 0.583872 -4.06171e-21)
(0.6927 0.552457 4.85489e-20)
(0.711146 0.521705 -7.92297e-20)
(0.728486 0.492379 -1.17994e-20)
(0.744943 0.464699 -3.09939e-19)
(0.760609 0.438661 -2.38216e-19)
(0.77554 0.414178 -4.04852e-20)
(0.789768 0.391145 -3.34972e-20)
(0.80326 0.369495 -3.73638e-20)
(0.816057 0.349131 -7.62112e-20)
(0.828874 0.329534 -8.79217e-20)
(0.0973864 0.151366 1.75834e-20)
(0.247168 0.370043 1.83182e-19)
(0.365086 0.515026 -7.39863e-20)
(0.453452 0.599312 -1.16317e-19)
(0.518203 0.637076 -8.31554e-21)
(0.565609 0.642529 1.69298e-19)
(0.601232 0.627965 -1.76637e-19)
(0.62944 0.60265 3.54897e-20)
(0.653233 0.572725 -2.77944e-20)
(0.674426 0.541743 -2.8217e-19)
(0.693993 0.511471 -2.6735e-19)
(0.712401 0.482629 4.86377e-20)
(0.729858 0.455423 4.30651e-19)
(0.746458 0.429839 6.31264e-20)
(0.762256 0.405792 1.7158e-19)
(0.77729 0.383178 -2.66982e-19)
(0.791533 0.361928 -6.28978e-20)
(0.805038 0.341949 3.11795e-19)
(0.818484 0.32276 1.37214e-19)
(0.09241 0.14971 7.01928e-20)
(0.234897 0.36521 7.14977e-20)
(0.347981 0.507352 -1.74175e-19)
(0.43347 0.589421 -8.41954e-21)
(0.496882 0.625699 -7.47301e-20)
(0.544059 0.630355 -1.04735e-19)
(0.58017 0.61555 3.45778e-20)
(0.609271 0.590382 -1.02133e-19)
(0.634144 0.560834 1.9614e-19)
(0.656468 0.530344 -1.24063e-19)
(0.677143 0.500603 8.91003e-20)
(0.696604 0.472294 2.04846e-19)
(0.715047 0.445604 -1.38377e-19)
(0.732566 0.420514 3.47668e-20)
(0.74922 0.396939 1.71524e-19)
(0.765049 0.374776 2.14469e-19)
(0.780035 0.353959 -1.12168e-19)
(0.794238 0.334391 -6.32506e-20)
(0.808307 0.315635 9.66e-20)
(0.0874265 0.147732 -1.66255e-19)
(0.222666 0.359647 6.47705e-20)
(0.330995 0.498739 1.98215e-19)
(0.413691 0.578519 2.32816e-20)
(0.475837 0.613322 -3.00865e-20)
(0.522835 0.617238 -5.47609e-20)
(0.559461 0.602265 -2.82453e-20)
(0.589464 0.577316 1.26478e-19)
(0.615411 0.548212 -1.87806e-19)
(0.638854 0.518271 4.44646e-19)
(0.660621 0.489113 1.86577e-19)
(0.681118 0.461383 -6.14907e-20)
(0.700531 0.43525 -1.91532e-20)
(0.718955 0.410693 8.25127e-20)
(0.73645 0.387624 -2.28019e-19)
(0.753063 0.365946 1.88796e-20)
(0.76878 0.345591 -1.4655e-19)
(0.783672 0.326463 -6.44171e-20)
(0.0824529 0.145435 -3.31725e-20)
(0.210513 0.353364 -2.06039e-19)
(0.314175 0.489201 1.44643e-19)
(0.394165 0.566621 -2.1721e-20)
(0.455116 0.599964 1.13848e-19)
(0.501982 0.603197 3.77046e-20)
(0.539145 0.588128 -6.9207e-21)
(0.570053 0.563468 8.7514e-20)
(0.597068 0.534872 -5.27994e-20)
(0.621612 0.505537 -1.62456e-19)
(0.644454 0.477012 1.78015e-19)
(0.665968 0.449905 1.89607e-19)
(0.686334 0.424371 -3.70314e-22)
(0.705645 0.400383 -4.28939e-20)
(0.723967 0.377857 -2.42284e-20)
(0.741349 0.356695 1.79897e-19)
(0.757785 0.33683 1.59174e-19)
(0.773354 0.318168 4.44389e-20)
(0.0775064 0.142822 1.60119e-19)
(0.198475 0.34637 2.37236e-19)
(0.297569 0.478752 -1.36146e-19)
(0.374943 0.553747 -1.0283e-20)
(0.434766 0.585645 -2.02606e-19)
(0.481542 0.588251 1.26426e-19)
(0.519261 0.573156 -5.1627e-20)
(0.551074 0.548855 -9.92373e-20)
(0.579143 0.520829 -3.78798e-20)
(0.604772 0.492155 -5.95183e-21)
(0.628667 0.464312 -3.87257e-19)
(0.651178 0.437872 -4.91376e-19)
(0.672477 0.412976 -7.57147e-20)
(0.692657 0.389596 1.70091e-19)
(0.711788 0.367645 -6.67738e-20)
(0.729923 0.34703 -3.37601e-19)
(0.747064 0.327684 3.16138e-19)
(0.763298 0.309515 4.52987e-20)
(0.0726037 0.139896 -2.64806e-19)
(0.186589 0.338677 9.32464e-20)
(0.281221 0.46741 -7.66111e-20)
(0.356071 0.539917 1.06004e-19)
(0.414833 0.570386 2.02546e-19)
(0.461557 0.572421 -1.2909e-19)
(0.499845 0.557368 2.39477e-19)
(0.53256 0.533495 -8.34948e-20)
(0.561668 0.5061 1.26482e-19)
(0.588361 0.478141 2.40583e-19)
(0.613286 0.451027 1.31439e-19)
(0.636771 0.425296 5.50695e-19)
(0.65898 0.401078 2.52508e-19)
(0.68001 0.37834 -2.03422e-20)
(0.699932 0.356998 -1.33316e-20)
(0.718803 0.336961 4.29971e-20)
(0.736634 0.318161 -3.50675e-19)
(0.753516 0.300509 -1.8673e-19)
(0.0677615 0.136664 1.48657e-19)
(0.174892 0.330298 -4.22713e-20)
(0.265178 0.455194 -2.01925e-19)
(0.337596 0.525153 -1.8554e-19)
(0.395361 0.554211 -3.41077e-20)
(0.442068 0.55573 2.55001e-20)
(0.480936 0.540787 -3.07803e-19)
(0.514544 0.517406 2.32771e-19)
(0.544672 0.490701 -1.0716e-19)
(0.572404 0.46351 -2.47463e-19)
(0.598335 0.437171 -5.97129e-20)
(0.622769 0.412192 -2.27462e-19)
(0.645866 0.388689 -4.73697e-19)
(0.667723 0.366628 4.07443e-20)
(0.688415 0.345927 3.73472e-19)
(0.708004 0.326496 -1.62644e-19)
(0.726507 0.308269 1.96443e-19)
(0.062996 0.13313 -2.61041e-20)
(0.163418 0.32125 -3.70548e-19)
(0.249483 0.442127 3.74073e-19)
(0.319565 0.50948 -9.40793e-20)
(0.376395 0.537145 1.33983e-19)
(0.423114 0.538202 8.05671e-20)
(0.462566 0.523434 3.28534e-19)
(0.497056 0.500609 -3.97342e-19)
(0.528183 0.474653 3.13285e-19)
(0.556929 0.448278 2.49219e-19)
(0.583838 0.422759 -7.21309e-20)
(0.609194 0.398572 -3.7772e-20)
(0.633154 0.375821 1.38402e-19)
(0.655814 0.354472 -2.37755e-19)
(0.677255 0.334442 -3.16628e-19)
(0.697543 0.315646 1.19553e-19)
(0.716699 0.298018 -1.21449e-19)
(0.058323 0.129302 -2.63083e-20)
(0.152202 0.311548 1.21942e-19)
(0.234178 0.428231 1.40153e-19)
(0.302021 0.492925 -2.45141e-19)
(0.357975 0.519214 1.25562e-19)
(0.404733 0.519863 -3.2476e-19)
(0.444771 0.505333 -2.54457e-20)
(0.480127 0.483127 1.8653e-20)
(0.512228 0.457973 -3.22885e-20)
(0.541959 0.432465 -3.13692e-19)
(0.569817 0.407809 -1.4296e-20)
(0.596068 0.384452 -5.07768e-20)
(0.620863 0.36249 3.06171e-19)
(0.644303 0.341884 -9.50321e-20)
(0.66647 0.322556 -2.70987e-20)
(0.687433 0.304422 1.58459e-19)
(0.707224 0.287418 4.59678e-19)
(0.0537581 0.125186 -5.00297e-20)
(0.141277 0.301211 -3.05697e-20)
(0.219305 0.413531 -1.52743e-19)
(0.285006 0.475515 9.25101e-20)
(0.340141 0.500449 2.58582e-19)
(0.386961 0.50074 -1.41999e-19)
(0.427584 0.48651 -2.27188e-19)
(0.463787 0.464981 2.2341e-19)
(0.496835 0.440685 -7.42028e-20)
(0.52752 0.416089 2.06636e-19)
(0.556295 0.392338 9.40757e-20)
(0.58341 0.36985 -5.5085e-20)
(0.609013 0.348709 -2.08181e-19)
(0.633205 0.328878 2.57502e-19)
(0.656073 0.310281 -6.45011e-20)
(0.67769 0.292837 -2.78734e-19)
(0.698093 0.276481 -9.45344e-20)
(0.0493163 0.120792 9.81978e-20)
(0.130676 0.290259 3.68742e-20)
(0.204903 0.398054 -2.90561e-20)
(0.268562 0.457281 -8.30152e-20)
(0.322933 0.480877 -6.03261e-20)
(0.369835 0.480861 3.50535e-19)
(0.411035 0.466991 6.26739e-20)
(0.448064 0.446197 1.70889e-19)
(0.482028 0.422808 1.26285e-19)
(0.513634 0.399171 -3.43492e-19)
(0.543294 0.376365 -1.79249e-19)
(0.571241 0.35478 3.3105e-19)
(0.597622 0.334495 -1.0528e-20)
(0.622539 0.31547 -2.67032e-19)
(0.646082 0.297631 6.78205e-20)
(0.668328 0.280902 3.26015e-19)
(0.0450123 0.116129 1.13414e-19)
(0.12043 0.278715 -1.50127e-19)
(0.19101 0.38183 -6.76155e-20)
(0.252727 0.438254 -1.52933e-20)
(0.306387 0.460532 -1.98308e-19)
(0.353387 0.460257 -1.04894e-19)
(0.395155 0.446803 -4.4283e-20)
(0.432985 0.426799 -3.40878e-19)
(0.467833 0.404367 -2.58256e-19)
(0.500325 0.381731 3.41281e-19)
(0.530834 0.359908 1.88228e-19)
(0.55958 0.339263 -1.46301e-19)
(0.586707 0.319865 -1.689e-19)
(0.612319 0.301675 1.81668e-19)
(0.63651 0.284621 -1.02625e-19)
(0.65936 0.268631 1.46967e-19)
(0.0408601 0.111206 1.38111e-19)
(0.110568 0.2666 -2.25312e-19)
(0.177663 0.364887 6.45202e-20)
(0.23754 0.418467 1.13552e-19)
(0.29054 0.439445 -1.15146e-21)
(0.33765 0.438959 -1.41829e-19)
(0.379974 0.425976 1.23027e-19)
(0.418576 0.406814 4.54158e-20)
(0.454274 0.385385 -1.3548e-19)
(0.487614 0.363792 9.01862e-20)
(0.518935 0.342989 -2.37433e-19)
(0.548445 0.323316 -5.23988e-20)
(0.576285 0.304836 2.14279e-19)
(0.602562 0.287508 7.59497e-20)
(0.627372 0.271266 1.18188e-19)
(0.6508 0.256038 -2.22285e-19)
(0.0368732 0.106034 -1.37939e-19)
(0.101119 0.253939 -5.7532e-20)
(0.164897 0.347259 1.12663e-19)
(0.223035 0.397955 -2.33457e-19)
(0.275424 0.417652 -1.13417e-19)
(0.322655 0.416999 2.448e-19)
(0.365518 0.404539 3.88615e-19)
(0.404862 0.386269 1.10391e-19)
(0.441371 0.365888 1.48627e-19)
(0.475521 0.345377 -1.70485e-21)
(0.507616 0.325629 6.99493e-20)
(0.537854 0.30696 2.44627e-19)
(0.566372 0.289426 -3.54912e-20)
(0.593283 0.272988 -4.32205e-19)
(0.618683 0.257581 3.76324e-21)
(0.64266 0.243138 2.38446e-20)
(0.0330645 0.100624 4.38652e-20)
(0.0921101 0.240759 -1.14422e-19)
(0.152745 0.328977 4.01552e-19)
(0.209247 0.376754 1.75779e-21)
(0.261072 0.395187 1.50397e-19)
(0.30843 0.394411 1.46933e-19)
(0.351813 0.382523 -1.44422e-19)
(0.391867 0.365192 1.77109e-20)
(0.429148 0.345901 -9.3769e-20)
(0.464066 0.326509 2.34838e-20)
(0.496895 0.30785 -2.82649e-21)
(0.527822 0.290214 -1.09396e-19)
(0.556985 0.273654 -4.86927e-20)
(0.584495 0.25813 2.87465e-19)
(0.610454 0.243582 -2.14439e-19)
(0.634952 0.229946 1.42458e-19)
(0.0294463 0.094988 -9.3679e-20)
(0.0835678 0.227085 -1.07199e-19)
(0.141239 0.310078 -5.82809e-20)
(0.196208 0.3549 1.37875e-19)
(0.247515 0.372088 -1.16788e-19)
(0.295003 0.371229 -2.04364e-19)
(0.338885 0.35996 -1.22839e-19)
(0.379612 0.343613 -2.37115e-19)
(0.417624 0.325452 1.93036e-19)
(0.453267 0.307214 -1.5681e-19)
(0.486788 0.289674 3.33158e-20)
(0.518366 0.273101 2.33851e-20)
(0.548136 0.25754 -1.00416e-19)
(0.576211 0.242955 1.16009e-19)
(0.602697 0.229287 1.73866e-19)
(0.0260302 0.0891387 2.0459e-19)
(0.0755162 0.212947 2.11096e-19)
(0.130408 0.290597 -1.59154e-19)
(0.183949 0.332433 -1.34916e-19)
(0.234779 0.348393 3.73896e-20)
(0.2824 0.347489 8.11218e-20)
(0.326757 0.336884 -2.82202e-19)
(0.368119 0.321561 4.55929e-20)
(0.406818 0.304568 -1.88616e-19)
(0.443142 0.287516 1.596e-19)
(0.477313 0.271125 3.76067e-20)
(0.509501 0.255641 -1.70501e-19)
(0.539839 0.241104 -3.83025e-20)
(0.568446 0.22748 9.05121e-20)
(0.595426 0.214714 4.24516e-20)
(0.0228272 0.0830891 -9.39904e-20)
(0.0679783 0.198372 2.49147e-20)
(0.12028 0.27057 2.98324e-19)
(0.172497 0.309393 1.65875e-19)
(0.222893 0.32414 1.10551e-19)
(0.270645 0.323227 2.0819e-19)
(0.31545 0.313326 2.85428e-20)
(0.357407 0.299068 1.97961e-20)
(0.396748 0.283277 -1.48853e-21)
(0.433707 0.267443 -2.04044e-19)
(0.468484 0.252228 1.06407e-19)
(0.50124 0.237857 -1.70459e-19)
(0.532109 0.224367 1.11691e-19)
(0.561209 0.211725 -1.78159e-19)
(0.58865 0.199879 -1.03914e-19)
(0.0198476 0.0768528 -2.02532e-20)
(0.0609754 0.183393 1.43787e-19)
(0.11088 0.250038 -1.69267e-19)
(0.161879 0.285819 -7.65067e-20)
(0.211881 0.299369 6.89371e-20)
(0.259761 0.298482 -1.53661e-19)
(0.304984 0.289324 1.16246e-19)
(0.347494 0.276166 1.62987e-20)
(0.38743 0.261609 9.6791e-20)
(0.424977 0.247021 -3.7081e-21)
(0.460314 0.233007 -9.37184e-20)
(0.493596 0.219773 9.15864e-20)
(0.524955 0.207351 -2.35027e-19)
(0.554513 0.195709 3.25895e-19)
(0.582379 0.184802 1.23926e-19)
(0.0171007 0.070444 -5.89311e-20)
(0.0545273 0.168039 -6.2465e-20)
(0.102234 0.229038 -9.3187e-20)
(0.152119 0.261755 1.08032e-19)
(0.201766 0.274122 -5.85207e-20)
(0.249768 0.273291 -2.91555e-20)
(0.295378 0.26491 -5.83893e-20)
(0.338398 0.252887 -7.39765e-20)
(0.37888 0.239593 -2.03967e-19)
(0.416967 0.226277 8.83946e-20)
(0.452818 0.213487 -1.22713e-19)
(0.486581 0.201411 2.23836e-19)
(0.518391 0.190077 1.50238e-19)
(0.548367 0.179454 -2.63174e-19)
(0.576624 0.169502 -2.62893e-19)
(0.0145953 0.0638773 5.9662e-20)
(0.0486521 0.152343 -1.61371e-19)
(0.0943616 0.207612 -1.10986e-20)
(0.143239 0.237243 -1.47929e-19)
(0.192568 0.248441 -1.65424e-19)
(0.240685 0.247694 2.41133e-19)
(0.286649 0.240123 3.31297e-20)
(0.330133 0.229263 1.19067e-19)
(0.371112 0.21726 1.24767e-19)
(0.409689 0.20524 -2.93386e-20)
(0.446006 0.193696 1.72254e-19)
(0.480207 0.182797 -1.00933e-19)
(0.512424 0.172567 -1.2993e-19)
(0.542781 0.162981 2.05821e-19)
(0.571392 0.153999 2.32386e-19)
(0.0123394 0.0571676 -6.08064e-20)
(0.0433665 0.136337 1.41478e-19)
(0.0872838 0.185801 -1.52724e-19)
(0.13526 0.212326 9.81223e-20)
(0.184306 0.222367 9.17037e-20)
(0.232529 0.221731 -1.30299e-19)
(0.278813 0.214998 6.08376e-20)
(0.322714 0.205329 6.82638e-20)
(0.364139 0.194641 -2.13074e-19)
(0.403155 0.183938 1.0373e-19)
(0.43989 0.173659 1.16551e-20)
(0.474483 0.163955 9.79883e-20)
(0.507066 0.154846 -1.26205e-19)
(0.537763 0.146309 1.57303e-20)
(0.566692 0.138311 -9.78583e-21)
(0.01034 0.0503304 -6.522e-20)
(0.038685 0.120057 8.72977e-20)
(0.0810182 0.163647 1.61817e-19)
(0.1282 0.18705 -2.00925e-20)
(0.176998 0.195944 1.12825e-19)
(0.225316 0.195441 -1.41546e-19)
(0.271883 0.189573 3.51178e-20)
(0.316153 0.18112 -1.23297e-19)
(0.357971 0.171768 2.50503e-22)
(0.397375 0.1624 -1.95172e-19)
(0.434479 0.153404 -1.41116e-19)
(0.469417 0.144909 7.50053e-20)
(0.502323 0.136935 1.96307e-20)
(0.533321 0.129462 -5.17651e-20)
(0.56253 0.122459 6.88654e-20)
(0.0086035 0.0433814 5.83056e-20)
(0.0346209 0.103534 1.98991e-20)
(0.0755804 0.141193 4.92163e-20)
(0.122073 0.161458 -7.32397e-20)
(0.170658 0.169216 -3.3369e-20)
(0.219059 0.168867 -6.31126e-20)
(0.265872 0.163885 6.07497e-21)
(0.31046 0.156668 4.39563e-20)
(0.352619 0.148672 1.35122e-19)
(0.392359 0.140656 1.64388e-19)
(0.429782 0.132957 6.33083e-20)
(0.465019 0.125686 -1.51343e-20)
(0.498203 0.11886 -3.24245e-20)
(0.529462 0.112461 -8.11871e-20)
(0.558912 0.106464 9.77103e-21)
(0.0071353 0.0363367 1.20773e-20)
(0.0311853 0.0868058 -8.33524e-20)
(0.070984 0.118482 -1.15076e-19)
(0.116895 0.135598 -4.04707e-21)
(0.165299 0.142227 -8.63837e-21)
(0.21377 0.142049 4.21214e-20)
(0.260789 0.137973 -1.31266e-19)
(0.305646 0.132011 -5.10558e-20)
(0.348092 0.125385 -8.65427e-20)
(0.388114 0.118737 3.40693e-21)
(0.425805 0.112347 2.84328e-20)
(0.461294 0.10631 6.32493e-20)
(0.494713 0.100642 -1.24448e-20)
(0.52619 0.0953277 5.45041e-20)
(0.555845 0.0903454 -2.65332e-20)
(0.00594 0.0292126 -5.19732e-20)
(0.0283877 0.069906 3.13553e-20)
(0.0672404 0.0955585 -3.16254e-20)
(0.112677 0.109515 3.95519e-20)
(0.160932 0.115023 3.05695e-20)
(0.209458 0.115029 8.60588e-21)
(0.256644 0.111875 1.01349e-19)
(0.301719 0.107182 -2.71925e-20)
(0.344396 0.101941 2.40733e-20)
(0.384647 0.0966708 2.83787e-20)
(0.422555 0.0916008 1.95892e-20)
(0.458248 0.0868091 -5.27733e-20)
(0.491858 0.0823076 6.90421e-20)
(0.523512 0.0780854 5.16032e-20)
(0.553332 0.0741255 -2.0168e-20)
(0.00502133 0.0220255 1.59318e-20)
(0.0262359 0.0528708 3.93603e-20)
(0.0643587 0.0724668 -8.8955e-21)
(0.109427 0.0832556 -6.25931e-20)
(0.157565 0.0876475 3.20644e-20)
(0.206131 0.0878507 9.36098e-20)
(0.253444 0.0856302 -7.46736e-20)
(0.298684 0.082219 -4.29008e-21)
(0.341539 0.0783724 1.89857e-20)
(0.381963 0.0744896 4.19762e-20)
(0.420038 0.0707478 3.92491e-21)
(0.455886 0.0672079 -1.32826e-20)
(0.489641 0.0638801 -2.1388e-20)
(0.521431 0.0607566 -2.24496e-20)
(0.00438215 0.0147922 7.19272e-21)
(0.0247357 0.035736 -2.05538e-20)
(0.062346 0.0492518 8.47564e-21)
(0.107154 0.0568673 2.65423e-20)
(0.155206 0.0601475 -1.53847e-20)
(0.203796 0.0605552 -4.79889e-20)
(0.251194 0.059278 2.30476e-20)
(0.296547 0.0571566 -5.38703e-22)
(0.339523 0.0547123 -6.55571e-20)
(0.380068 0.0522236 3.94906e-20)
(0.418256 0.0498159 -2.64337e-20)
(0.454212 0.0475334 2.07926e-20)
(0.488067 0.0453842 -1.69761e-20)
(0.519949 0.043364 8.85602e-21)
(0.0040244 0.00752944 -3.21004e-22)
(0.0238912 0.0185381 1.18288e-20)
(0.0612072 0.0259584 4.94039e-21)
(0.105861 0.030397 5.00008e-21)