/*--------------------------------*- C++ -*----------------------------------*\
  =========                 |
  \\      /  F ield         | OpenFOAM: The Open Source CFD Toolbox
   \\    /   O peration     | Website:  https://openfoam.org
    \\  /    A nd           | Version:  7
     \\/     M anipulation  |
\*---------------------------------------------------------------------------*/
FoamFile
{
    version     2.0;
    format      ascii;
    class       volScalarField;
    location    "100";
    object      p;
}
// * * * * * * * * * * * * * * * * * * * * * * * * * * * * * * * * * * * * * //

dimensions      [0 2 -2 0 0 0 0];

internalField   nonuniform List<scalar> 
36600
(
-0.3881
-0.390004
-0.391044
-0.391881
-0.392604
-0.393258
-0.393905
-0.394582
-0.395311
-0.396103
-0.396959
-0.397876
-0.398845
-0.399856
-0.400896
-0.401953
-0.403018
-0.404088
-0.405072
-0.406019
-0.392259
-0.394148
-0.395199
-0.396067
-0.396847
-0.397586
-0.398347
-0.399169
-0.400076
-0.401079
-0.402181
-0.403378
-0.404662
-0.406023
-0.407451
-0.408932
-0.410457
-0.412022
-0.413542
-0.415054
-0.396516
-0.398375
-0.39943
-0.400326
-0.401158
-0.401979
-0.402853
-0.40382
-0.404905
-0.40612
-0.407467
-0.408944
-0.410543
-0.412255
-0.41407
-0.415975
-0.417961
-0.420022
-0.422078
-0.424152
-0.400863
-0.402677
-0.403729
-0.404646
-0.405527
-0.406427
-0.407411
-0.408522
-0.409784
-0.411208
-0.412799
-0.414554
-0.416466
-0.418526
-0.420725
-0.423049
-0.425491
-0.428045
-0.430631
-0.433257
-0.405291
-0.407043
-0.408084
-0.409017
-0.409942
-0.410917
-0.412008
-0.413259
-0.414695
-0.416326
-0.418158
-0.420187
-0.422407
-0.424809
-0.427384
-0.430119
-0.433007
-0.436044
-0.439146
-0.442307
-0.409786
-0.411462
-0.412483
-0.413425
-0.414389
-0.415434
-0.416629
-0.418016
-0.419621
-0.421456
-0.423523
-0.42582
-0.42834
-0.431076
-0.434016
-0.437149
-0.440467
-0.44397
-0.447569
-0.451237
-0.414337
-0.41592
-0.416913
-0.417858
-0.418854
-0.419965
-0.421258
-0.422776
-0.424545
-0.426576
-0.428871
-0.431428
-0.434239
-0.437296
-0.440587
-0.444101
-0.447829
-0.451775
-0.455843
-0.459983
-0.418929
-0.420405
-0.421362
-0.422302
-0.423324
-0.424494
-0.425879
-0.427522
-0.429447
-0.431666
-0.434181
-0.436987
-0.440077
-0.44344
-0.447064
-0.450937
-0.455049
-0.45941
-0.463912
-0.468478
-0.423548
-0.424902
-0.425815
-0.426743
-0.427784
-0.429005
-0.430475
-0.432234
-0.434308
-0.436706
-0.43943
-0.442473
-0.445826
-0.449477
-0.453413
-0.457619
-0.462085
-0.466825
-0.47172
-0.476659
-0.428176
-0.429396
-0.430256
-0.431164
-0.432217
-0.433482
-0.435028
-0.436896
-0.439108
-0.441674
-0.444594
-0.447859
-0.451459
-0.455379
-0.459602
-0.464112
-0.468897
-0.473975
-0.479216
-0.484464
-0.432799
-0.433872
-0.434671
-0.435552
-0.436608
-0.437909
-0.439522
-0.441488
-0.443828
-0.44655
-0.449651
-0.453123
-0.456951
-0.461116
-0.465601
-0.470383
-0.475446
-0.480816
-0.486352
-0.491835
-0.437398
-0.438314
-0.439044
-0.439891
-0.440942
-0.44227
-0.44394
-0.445992
-0.448447
-0.451311
-0.454579
-0.45824
-0.462275
-0.466662
-0.471379
-0.476398
-0.481699
-0.487312
-0.493085
-0.49872
-0.441958
-0.442707
-0.443362
-0.444166
-0.445203
-0.446549
-0.448265
-0.450392
-0.452948
-0.455939
-0.459357
-0.463187
-0.467407
-0.471992
-0.476911
-0.482131
-0.487626
-0.493427
-0.49938
-0.505071
-0.446462
-0.447036
-0.44761
-0.448363
-0.449378
-0.45073
-0.452481
-0.454669
-0.457313
-0.460414
-0.463964
-0.467943
-0.472326
-0.477081
-0.482171
-0.487557
-0.4932
-0.499134
-0.505208
-0.510838
-0.450893
-0.451287
-0.451773
-0.452468
-0.453452
-0.4548
-0.456573
-0.458809
-0.461523
-0.464718
-0.46838
-0.472488
-0.47701
-0.481908
-0.487139
-0.492654
-0.498402
-0.504415
-0.510552
-0.515902
-0.455236
-0.455447
-0.45584
-0.45647
-0.457413
-0.458746
-0.460528
-0.462795
-0.465564
-0.468834
-0.472589
-0.476803
-0.48144
-0.486455
-0.491796
-0.497404
-0.503215
-0.509259
-0.515411
-0.520137
-0.459476
-0.459502
-0.459798
-0.460356
-0.461249
-0.462554
-0.464331
-0.466615
-0.469422
-0.472747
-0.476574
-0.480872
-0.4856
-0.490705
-0.496126
-0.501793
-0.50763
-0.513654
-0.519783
-0.524647
-0.463599
-0.463441
-0.463636
-0.464116
-0.464949
-0.466216
-0.467974
-0.470258
-0.473083
-0.476445
-0.480322
-0.484681
-0.489475
-0.494643
-0.500116
-0.50581
-0.511634
-0.5176
-0.523626
-0.528361
-0.467595
-0.467254
-0.467346
-0.467741
-0.468506
-0.469722
-0.471445
-0.473713
-0.476538
-0.479915
-0.483821
-0.488217
-0.493053
-0.498259
-0.503754
-0.509444
-0.515221
-0.521084
-0.526962
-0.531357
-0.471452
-0.470934
-0.47092
-0.471225
-0.471912
-0.473065
-0.474739
-0.476972
-0.479777
-0.483149
-0.487061
-0.491472
-0.496324
-0.501541
-0.507032
-0.512688
-0.518384
-0.524101
-0.529794
-0.533718
-0.475161
-0.474472
-0.474352
-0.474562
-0.475163
-0.47624
-0.47785
-0.48003
-0.482796
-0.486139
-0.490035
-0.494436
-0.49928
-0.504483
-0.509944
-0.515539
-0.521124
-0.526654
-0.532123
-0.535469
-0.478716
-0.477865
-0.477639
-0.47775
-0.478256
-0.479245
-0.480775
-0.482884
-0.48559
-0.488884
-0.492739
-0.497106
-0.501917
-0.507082
-0.512487
-0.517995
-0.523441
-0.528747
-0.533961
-0.536631
-0.482113
-0.48111
-0.480779
-0.480786
-0.48119
-0.482079
-0.483513
-0.485534
-0.488158
-0.49138
-0.495171
-0.499481
-0.504235
-0.509336
-0.51466
-0.520056
-0.525339
-0.530386
-0.535321
-0.53722
-0.485348
-0.484206
-0.483771
-0.483672
-0.483965
-0.484743
-0.486067
-0.48798
-0.490503
-0.493631
-0.497335
-0.501562
-0.506234
-0.511247
-0.516466
-0.521727
-0.526822
-0.531579
-0.536219
-0.537254
-0.488423
-0.487154
-0.486619
-0.486411
-0.486587
-0.487242
-0.48844
-0.490228
-0.49263
-0.495642
-0.499235
-0.503355
-0.50792
-0.512821
-0.517911
-0.523013
-0.527899
-0.532337
-0.536671
-0.536753
-0.491339
-0.489958
-0.489325
-0.489007
-0.489059
-0.489581
-0.49064
-0.492286
-0.494546
-0.49742
-0.500879
-0.504869
-0.509304
-0.514068
-0.519005
-0.523924
-0.528581
-0.532671
-0.536691
-0.535734
-0.494102
-0.492623
-0.491897
-0.491467
-0.491391
-0.49177
-0.492675
-0.494162
-0.496262
-0.498977
-0.502281
-0.506117
-0.510398
-0.515002
-0.519763
-0.524476
-0.528881
-0.532594
-0.536297
-0.534219
-0.496718
-0.495158
-0.494343
-0.4938
-0.49359
-0.493817
-0.494556
-0.495869
-0.497791
-0.500328
-0.503455
-0.507116
-0.511221
-0.515641
-0.520203
-0.524685
-0.528819
-0.532125
-0.535506
-0.532231
-0.499198
-0.497571
-0.496671
-0.496016
-0.495668
-0.495735
-0.496298
-0.497423
-0.49915
-0.50149
-0.504421
-0.507887
-0.511794
-0.516009
-0.520348
-0.524577
-0.528415
-0.531284
-0.534336
-0.529799
-0.501552
-0.499875
-0.498895
-0.498128
-0.497638
-0.497538
-0.497915
-0.498839
-0.500357
-0.502485
-0.505202
-0.508453
-0.512142
-0.516131
-0.520225
-0.524176
-0.527695
-0.530097
-0.532806
-0.526958
-0.503796
-0.502083
-0.501027
-0.500148
-0.499514
-0.499242
-0.499423
-0.500136
-0.501433
-0.503333
-0.505821
-0.508841
-0.512294
-0.516037
-0.519865
-0.523514
-0.526688
-0.528593
-0.530937
-0.523749
-0.505945
-0.504209
-0.503082
-0.502092
-0.501311
-0.500863
-0.500843
-0.501336
-0.5024
-0.504061
-0.506306
-0.509079
-0.512281
-0.515759
-0.5193
-0.522623
-0.525424
-0.526808
-0.528746
-0.520222
-0.508017
-0.50627
-0.505075
-0.503975
-0.503048
-0.502419
-0.502192
-0.502458
-0.503283
-0.504695
-0.506685
-0.509199
-0.512134
-0.515331
-0.518565
-0.521539
-0.523935
-0.524779
-0.526252
-0.516432
-0.510034
-0.508284
-0.507024
-0.505816
-0.50474
-0.503929
-0.503492
-0.503527
-0.504105
-0.505261
-0.506988
-0.509233
-0.511888
-0.514788
-0.517695
-0.520297
-0.522255
-0.522547
-0.523472
-0.512447
-0.512014
-0.510269
-0.508947
-0.50763
-0.506406
-0.505412
-0.504764
-0.504565
-0.504893
-0.505788
-0.507245
-0.50921
-0.511574
-0.514161
-0.516722
-0.518931
-0.520415
-0.520158
-0.520433
-0.508357
-0.513981
-0.512245
-0.510862
-0.509437
-0.508066
-0.506889
-0.506028
-0.505595
-0.505671
-0.506301
-0.507484
-0.509163
-0.511223
-0.513483
-0.515678
-0.517473
-0.518444
-0.517653
-0.517152
-0.504267
-0.515958
-0.514231
-0.512788
-0.511256
-0.509737
-0.508378
-0.507307
-0.50664
-0.506465
-0.506829
-0.507733
-0.509119
-0.510866
-0.512784
-0.514593
-0.515952
-0.516371
-0.51507
-0.513602
-0.500144
-0.517968
-0.516249
-0.514743
-0.513103
-0.511438
-0.5099
-0.50862
-0.507722
-0.507297
-0.507396
-0.508018
-0.509105
-0.510528
-0.512087
-0.513491
-0.514396
-0.514236
-0.512471
-0.509688
-0.495653
-0.520035
-0.518317
-0.516747
-0.514999
-0.513189
-0.511473
-0.509988
-0.508862
-0.50819
-0.508024
-0.508363
-0.509143
-0.51023
-0.511413
-0.512393
-0.512826
-0.512096
-0.509977
-0.50552
-0.491023
-0.52218
-0.520456
-0.518817
-0.51696
-0.515005
-0.513115
-0.51143
-0.51008
-0.509164
-0.508734
-0.508786
-0.509252
-0.509989
-0.510778
-0.511309
-0.511252
-0.509981
-0.507643
-0.50179
-0.490025
-0.524426
-0.522684
-0.520972
-0.519003
-0.516905
-0.514843
-0.512961
-0.511393
-0.510236
-0.509543
-0.509306
-0.509448
-0.509818
-0.510188
-0.510243
-0.509668
-0.507853
-0.505254
-0.499029
-0.498357
-0.526794
-0.525019
-0.523228
-0.521145
-0.518903
-0.516672
-0.514598
-0.512816
-0.511422
-0.510465
-0.509932
-0.50974
-0.509724
-0.509648
-0.509192
-0.508057
-0.505667
-0.502653
-0.496095
-0.49701
-0.529303
-0.527477
-0.5256
-0.523399
-0.521014
-0.518617
-0.516355
-0.514361
-0.512732
-0.51151
-0.510676
-0.510133
-0.509709
-0.509155
-0.508151
-0.506405
-0.503384
-0.499756
-0.492664
-0.492679
-0.531969
-0.530073
-0.528101
-0.525779
-0.52325
-0.520688
-0.518241
-0.51604
-0.514176
-0.512687
-0.51154
-0.51063
-0.509771
-0.508706
-0.50711
-0.504702
-0.500985
-0.49659
-0.488831
-0.487235
-0.534809
-0.532821
-0.530746
-0.528297
-0.525622
-0.522897
-0.520267
-0.51786
-0.515761
-0.513997
-0.512526
-0.511229
-0.509906
-0.508291
-0.506061
-0.502939
-0.498467
-0.493203
-0.484696
-0.481249
-0.537833
-0.535732
-0.533543
-0.530962
-0.52814
-0.525251
-0.52244
-0.519827
-0.517489
-0.515443
-0.513632
-0.511923
-0.510105
-0.507901
-0.504993
-0.501111
-0.495836
-0.489646
-0.480354
-0.475094
-0.541054
-0.538816
-0.536502
-0.533783
-0.53081
-0.527757
-0.524764
-0.521943
-0.519361
-0.517021
-0.514852
-0.512706
-0.510356
-0.507526
-0.503898
-0.499216
-0.493104
-0.485967
-0.475889
-0.468973
-0.544479
-0.542081
-0.539631
-0.536767
-0.533638
-0.53042
-0.527242
-0.52421
-0.521376
-0.518728
-0.516179
-0.513565
-0.51065
-0.507152
-0.502768
-0.497256
-0.490285
-0.482206
-0.471366
-0.462993
-0.548114
-0.545532
-0.542936
-0.539919
-0.53663
-0.533242
-0.529877
-0.526627
-0.52353
-0.520557
-0.517603
-0.514489
-0.510971
-0.506769
-0.501595
-0.49523
-0.487394
-0.478398
-0.466835
-0.457207
-0.551963
-0.549174
-0.54642
-0.543242
-0.539788
-0.536226
-0.532668
-0.529191
-0.525818
-0.522499
-0.519113
-0.515464
-0.511305
-0.506364
-0.500372
-0.493142
-0.484444
-0.474569
-0.46233
-0.451634
-0.556027
-0.553009
-0.550086
-0.546741
-0.543115
-0.539373
-0.535614
-0.5319
-0.528233
-0.524545
-0.520694
-0.516476
-0.51164
-0.505926
-0.499095
-0.490995
-0.481449
-0.470739
-0.457875
-0.446273
-0.560307
-0.55704
-0.553937
-0.550415
-0.546611
-0.542682
-0.538714
-0.534748
-0.530768
-0.526683
-0.522335
-0.517509
-0.511959
-0.505444
-0.497759
-0.48879
-0.478418
-0.466923
-0.453484
-0.441116
-0.564802
-0.561265
-0.557973
-0.554267
-0.550277
-0.546153
-0.541963
-0.53773
-0.533413
-0.528901
-0.524019
-0.518547
-0.512249
-0.504907
-0.496358
-0.48653
-0.475359
-0.46313
-0.449163
-0.436144
-0.569507
-0.565683
-0.562193
-0.558294
-0.554111
-0.549782
-0.545358
-0.540838
-0.536157
-0.531185
-0.525731
-0.519575
-0.512495
-0.504307
-0.494889
-0.484216
-0.472278
-0.459363
-0.444914
-0.43134
-0.574419
-0.570292
-0.566594
-0.562496
-0.558111
-0.553567
-0.548892
-0.544063
-0.53899
-0.53352
-0.527454
-0.520575
-0.512684
-0.503633
-0.493347
-0.48185
-0.469177
-0.455625
-0.440734
-0.426683
-0.579532
-0.575088
-0.571175
-0.56687
-0.562274
-0.557503
-0.552561
-0.547397
-0.541897
-0.53589
-0.529171
-0.521532
-0.512802
-0.502876
-0.49173
-0.47943
-0.466059
-0.451913
-0.436618
-0.422151
-0.584839
-0.580065
-0.575931
-0.571413
-0.566597
-0.561585
-0.556354
-0.550827
-0.544865
-0.538279
-0.530864
-0.522429
-0.512837
-0.50203
-0.490034
-0.476957
-0.462922
-0.448225
-0.432557
-0.417725
-0.590332
-0.585216
-0.580856
-0.576118
-0.571074
-0.565806
-0.560264
-0.554342
-0.547876
-0.540668
-0.532515
-0.52325
-0.512776
-0.501086
-0.488253
-0.474429
-0.459764
-0.444553
-0.428542
-0.413384
-0.596001
-0.590535
-0.585944
-0.580981
-0.575697
-0.570156
-0.564277
-0.557925
-0.550914
-0.543038
-0.534105
-0.523978
-0.512608
-0.500035
-0.486385
-0.471841
-0.456581
-0.440891
-0.424562
-0.409109
-0.601834
-0.596012
-0.591186
-0.585992
-0.580458
-0.574625
-0.56838
-0.56156
-0.553959
-0.545368
-0.535614
-0.524598
-0.512319
-0.498872
-0.484425
-0.469191
-0.453368
-0.437231
-0.420607
-0.404884
-0.607819
-0.601635
-0.596572
-0.591142
-0.585347
-0.579201
-0.572558
-0.565228
-0.556989
-0.547638
-0.537024
-0.525095
-0.5119
-0.497588
-0.482366
-0.466473
-0.450118
-0.433563
-0.416665
-0.400692
-0.613941
-0.607392
-0.602091
-0.596419
-0.590349
-0.583867
-0.576792
-0.568908
-0.559983
-0.549824
-0.538315
-0.525452
-0.51134
-0.496176
-0.480205
-0.463681
-0.446825
-0.429878
-0.412723
-0.396515
-0.620184
-0.613268
-0.607728
-0.601809
-0.595449
-0.588605
-0.581062
-0.572576
-0.562916
-0.551904
-0.539467
-0.525654
-0.510627
-0.494628
-0.477933
-0.46081
-0.44348
-0.426165
-0.408769
-0.39234
-0.626529
-0.619246
-0.613467
-0.607295
-0.600631
-0.593397
-0.585343
-0.576209
-0.565763
-0.553856
-0.540462
-0.525688
-0.509751
-0.492937
-0.475546
-0.457852
-0.440073
-0.422414
-0.404791
-0.388152
-0.632954
-0.625308
-0.619291
-0.612859
-0.605872
-0.598218
-0.589612
-0.579779
-0.568498
-0.555655
-0.541279
-0.525537
-0.508702
-0.491094
-0.473034
-0.454797
-0.436597
-0.418612
-0.400776
-0.383938
-0.639437
-0.631431
-0.625177
-0.61848
-0.611151
-0.603042
-0.593839
-0.583257
-0.571093
-0.557277
-0.5419
-0.525189
-0.507469
-0.489092
-0.47039
-0.451639
-0.43304
-0.41475
-0.396713
-0.379684
-0.645952
-0.637593
-0.631104
-0.624132
-0.616441
-0.607843
-0.597996
-0.586613
-0.57352
-0.5587
-0.542306
-0.524629
-0.506041
-0.48692
-0.467606
-0.448367
-0.429392
-0.410814
-0.39259
-0.375379
-0.652471
-0.643766
-0.637045
-0.62979
-0.621712
-0.612588
-0.602049
-0.589817
-0.575752
-0.559898
-0.542478
-0.523844
-0.504407
-0.48457
-0.464673
-0.444972
-0.425643
-0.406795
-0.388394
-0.371009
-0.658964
-0.649924
-0.642972
-0.635425
-0.626936
-0.617244
-0.605966
-0.592834
-0.577759
-0.560849
-0.542398
-0.522819
-0.502558
-0.482033
-0.46158
-0.441444
-0.421782
-0.402681
-0.384115
-0.366564
-0.6654
-0.656035
-0.648854
-0.641004
-0.632076
-0.621778
-0.609711
-0.595634
-0.579512
-0.561529
-0.54205
-0.52154
-0.500482
-0.479298
-0.458319
-0.437772
-0.417797
-0.398459
-0.37974
-0.362033
-0.671742
-0.662067
-0.654659
-0.646493
-0.637099
-0.626151
-0.613248
-0.598183
-0.580985
-0.561917
-0.541415
-0.519996
-0.498167
-0.476355
-0.454878
-0.433945
-0.413677
-0.39412
-0.375258
-0.357404
-0.677954
-0.667983
-0.660351
-0.651856
-0.641966
-0.630327
-0.616541
-0.600447
-0.582149
-0.56199
-0.540477
-0.518173
-0.495604
-0.473194
-0.451248
-0.429954
-0.409413
-0.389652
-0.37066
-0.352669
-0.683997
-0.673748
-0.665893
-0.657054
-0.646637
-0.634264
-0.619552
-0.602394
-0.582976
-0.561726
-0.539218
-0.516057
-0.49278
-0.469804
-0.447417
-0.425786
-0.404992
-0.385044
-0.365934
-0.347816
-0.689831
-0.679321
-0.671245
-0.662047
-0.651071
-0.637922
-0.622242
-0.60399
-0.58344
-0.561105
-0.537625
-0.513636
-0.489684
-0.466175
-0.443376
-0.421432
-0.400404
-0.380285
-0.36107
-0.342836
-0.695413
-0.684662
-0.676365
-0.666792
-0.655225
-0.64126
-0.624574
-0.605203
-0.583514
-0.560107
-0.53568
-0.510897
-0.486305
-0.462296
-0.439112
-0.416879
-0.395638
-0.375366
-0.356059
-0.337721
-0.700701
-0.689729
-0.681212
-0.671246
-0.659056
-0.644236
-0.626511
-0.606002
-0.583175
-0.558713
-0.533368
-0.507827
-0.482631
-0.458155
-0.434617
-0.412119
-0.390685
-0.370278
-0.350891
-0.332463
-0.705649
-0.694478
-0.68574
-0.675364
-0.66252
-0.64681
-0.628017
-0.606357
-0.582398
-0.556905
-0.530676
-0.504415
-0.478653
-0.453742
-0.429878
-0.407141
-0.385534
-0.365009
-0.345558
-0.327052
-0.710212
-0.698864
-0.689907
-0.679102
-0.665573
-0.648939
-0.629055
-0.606239
-0.581161
-0.554664
-0.52759
-0.500648
-0.474357
-0.449047
-0.424886
-0.401934
-0.380175
-0.359551
-0.34005
-0.321481
-0.714344
-0.702844
-0.693665
-0.682413
-0.66817
-0.650584
-0.629591
-0.605619
-0.579441
-0.551975
-0.524095
-0.496514
-0.469735
-0.444059
-0.419631
-0.396488
-0.3746
-0.353897
-0.334361
-0.315743
-0.717999
-0.70637
-0.696969
-0.685253
-0.670269
-0.651706
-0.629593
-0.604472
-0.57722
-0.548821
-0.520179
-0.492004
-0.464775
-0.438769
-0.414103
-0.390796
-0.368799
-0.348037
-0.328482
-0.309833
-0.721133
-0.709398
-0.699774
-0.687577
-0.671827
-0.652267
-0.629028
-0.602772
-0.574478
-0.545189
-0.515831
-0.487105
-0.459467
-0.433166
-0.408293
-0.384847
-0.362765
-0.341964
-0.322406
-0.303742
-0.723697
-0.711882
-0.702034
-0.689338
-0.672802
-0.652231
-0.627867
-0.600498
-0.571196
-0.541063
-0.511038
-0.481808
-0.453803
-0.427241
-0.402192
-0.378634
-0.35649
-0.33567
-0.316128
-0.297467
-0.725648
-0.713777
-0.703704
-0.690495
-0.673155
-0.651562
-0.626083
-0.597627
-0.567361
-0.536433
-0.505791
-0.476103
-0.447772
-0.420987
-0.395793
-0.372149
-0.349966
-0.32915
-0.309641
-0.291001
-0.726942
-0.71504
-0.70474
-0.691005
-0.672846
-0.65023
-0.623649
-0.59414
-0.562955
-0.531286
-0.500079
-0.469982
-0.441367
-0.414394
-0.389086
-0.365384
-0.343188
-0.322397
-0.30294
-0.28434
-0.727536
-0.715628
-0.7051
-0.690828
-0.67184
-0.648203
-0.620543
-0.590019
-0.557968
-0.525611
-0.493893
-0.463436
-0.43458
-0.407457
-0.382066
-0.358334
-0.336148
-0.315406
-0.29602
-0.27748
-0.727389
-0.7155
-0.704743
-0.689925
-0.670104
-0.645454
-0.616742
-0.585249
-0.552386
-0.519401
-0.487227
-0.456458
-0.427404
-0.400167
-0.374726
-0.350993
-0.328843
-0.308172
-0.288876
-0.270416
-0.726463
-0.714616
-0.703632
-0.688261
-0.667605
-0.641958
-0.612229
-0.579817
-0.5462
-0.512646
-0.480072
-0.449042
-0.419833
-0.392519
-0.367061
-0.343354
-0.321266
-0.300689
-0.281505
-0.263148
-0.724721
-0.712939
-0.701729
-0.685801
-0.664316
-0.637692
-0.606987
-0.57371
-0.539401
-0.50534
-0.472423
-0.441182
-0.411861
-0.384509
-0.359066
-0.335415
-0.313414
-0.292955
-0.273905
-0.255677
-0.722128
-0.710435
-0.699
-0.682516
-0.66021
-0.632638
-0.601001
-0.566919
-0.531983
-0.497477
-0.464275
-0.432874
-0.403485
-0.376132
-0.350737
-0.327171
-0.305283
-0.284965
-0.266075
-0.247998
-0.718652
-0.707071
-0.695414
-0.678376
-0.655265
-0.626777
-0.59426
-0.559436
-0.52394
-0.489054
-0.455624
-0.424114
-0.394701
-0.367385
-0.342071
-0.31862
-0.29687
-0.276715
-0.258004
-0.240083
-0.714266
-0.702818
-0.690944
-0.673357
-0.64946
-0.620096
-0.586755
-0.551255
-0.515268
-0.480067
-0.446469
-0.4149
-0.385506
-0.358266
-0.333068
-0.30976
-0.288173
-0.268205
-0.249682
-0.231869
-0.708942
-0.69765
-0.685563
-0.667438
-0.64278
-0.612583
-0.57848
-0.542373
-0.505965
-0.470515
-0.436807
-0.40523
-0.3759
-0.348774
-0.323725
-0.300591
-0.279196
-0.259443
-0.241118
-0.223332
-0.702658
-0.691543
-0.679251
-0.6606
-0.635211
-0.604231
-0.569429
-0.532788
-0.496031
-0.460399
-0.426639
-0.395104
-0.365883
-0.338909
-0.314043
-0.291114
-0.269939
-0.250434
-0.232349
-0.214696
-0.695395
-0.684476
-0.671988
-0.652829
-0.626743
-0.595033
-0.559602
-0.522501
-0.485467
-0.449719
-0.415966
-0.384524
-0.355455
-0.328671
-0.304022
-0.281328
-0.260404
-0.241166
-0.223293
-0.205963
-0.687137
-0.676435
-0.66376
-0.644112
-0.617369
-0.584988
-0.548998
-0.511513
-0.474276
-0.438478
-0.40479
-0.373492
-0.344618
-0.318063
-0.293665
-0.271235
-0.250594
-0.231644
-0.214019
-0.197023
-0.677872
-0.667405
-0.654555
-0.634443
-0.607085
-0.574096
-0.537621
-0.499829
-0.462463
-0.426681
-0.393115
-0.362011
-0.333375
-0.307087
-0.282975
-0.260843
-0.240506
-0.221871
-0.204529
-0.187862
-0.667591
-0.657377
-0.644366
-0.623816
-0.595892
-0.562359
-0.525476
-0.487456
-0.450033
-0.414333
-0.380947
-0.350085
-0.321731
-0.295749
-0.271955
-0.250151
-0.230146
-0.211852
-0.194819
-0.178485
-0.656288
-0.646345
-0.633188
-0.612231
-0.583792
-0.549785
-0.512571
-0.474401
-0.436995
-0.401442
-0.368291
-0.337721
-0.309691
-0.284052
-0.260611
-0.239164
-0.219519
-0.20159
-0.184889
-0.168899
-0.643963
-0.634308
-0.621021
-0.599691
-0.570791
-0.53638
-0.498915
-0.460674
-0.423358
-0.388015
-0.355156
-0.324926
-0.297263
-0.272003
-0.248948
-0.227887
-0.208631
-0.191092
-0.174742
-0.159111
-0.630617
-0.621266
-0.607869
-0.586201
-0.556898
-0.522157
-0.484521
-0.446287
-0.409133
-0.374064
-0.341551
-0.311708
-0.284452
-0.259609
-0.236973
-0.216328
-0.197486
-0.180361
-0.164383
-0.149127
-0.616256
-0.607225
-0.593736
-0.571771
-0.542125
-0.50713
-0.469402
-0.431254
-0.394332
-0.359599
-0.327486
-0.298076
-0.271269
-0.246879
-0.224693
-0.204494
-0.186092
-0.169404
-0.153816
-0.138953
-0.600889
-0.592194
-0.578635
-0.556413
-0.526487
-0.491313
-0.453576
-0.41559
-0.37897
-0.344634
-0.312972
-0.284042
-0.257724
-0.233821
-0.212118
-0.192392
-0.174456
-0.158229
-0.14305
-0.128596
-0.584529
-0.576184
-0.562578
-0.540144
-0.510002
-0.474726
-0.437059
-0.399313
-0.363062
-0.329181
-0.298023
-0.269617
-0.243826
-0.220447
-0.199258
-0.180033
-0.162588
-0.146843
-0.132091
-0.118064
-0.567193
-0.559212
-0.545583
-0.522982
-0.492689
-0.45739
-0.419874
-0.38244
-0.346625
-0.313258
-0.282653
-0.254813
-0.229589
-0.206767
-0.186122
-0.167427
-0.150498
-0.135256
-0.120949
-0.107364
-0.5489
-0.541295
-0.527669
-0.504948
-0.474573
-0.439327
-0.402041
-0.36499
-0.329678
-0.29688
-0.266876
-0.239646
-0.215025
-0.192794
-0.172723
-0.154583
-0.138195
-0.123478
-0.109634
-0.0965071
-0.529673
-0.522458
-0.508859
-0.486068
-0.455678
-0.420565
-0.383579
-0.346989
-0.31224
-0.280066
-0.250709
-0.22413
-0.200149
-0.178541
-0.159074
-0.141516
-0.125691
-0.11152
-0.098155
-0.0855021
-0.509537
-0.502723
-0.48918
-0.466369
-0.436035
-0.401131
-0.364514
-0.328457
-0.294333
-0.262834
-0.234171
-0.208281
-0.184975
-0.164022
-0.145187
-0.128237
-0.113
-0.0993935
-0.0865256
-0.0743614
-0.488523
-0.482121
-0.468661
-0.445882
-0.415673
-0.381037
-0.344886
-0.30942
-0.275978
-0.245205
-0.217278
-0.192116
-0.169519
-0.149252
-0.131077
-0.11476
-0.100133
-0.0871128
-0.0747586
-0.0630989
-0.466659
-0.460682
-0.447333
-0.424644
-0.394611
-0.360331
-0.324712
-0.289903
-0.2572
-0.2272
-0.200052
-0.175654
-0.153799
-0.134246
-0.116758
-0.101099
-0.0871062
-0.0746913
-0.0628689
-0.051731
-0.44398
-0.438441
-0.425234
-0.402693
-0.372876
-0.339045
-0.304023
-0.269935
-0.238023
-0.208843
-0.182512
-0.158913
-0.137831
-0.119021
-0.102246
-0.0872699
-0.0739333
-0.0621438
-0.0508725
-0.0402766
-0.420521
-0.415435
-0.402402
-0.38002
-0.350549
-0.31721
-0.282851
-0.249542
-0.218472
-0.190155
-0.164679
-0.141913
-0.121633
-0.103594
-0.0875566
-0.0732865
-0.0606297
-0.0494859
-0.0387869
-0.0287581
-0.39632
-0.391706
-0.378877
-0.356693
-0.327636
-0.294861
-0.261229
-0.228756
-0.198576
-0.171162
-0.146576
-0.124673
-0.105223
-0.0879806
-0.0727052
-0.0591646
-0.0472107
-0.0367331
-0.0266309
-0.0172029
-0.371414
-0.36729
-0.354663
-0.332792
-0.304179
-0.272034
-0.23919
-0.207605
-0.178361
-0.151889
-0.128226
-0.107215
-0.0886216
-0.072199
-0.0577079
-0.0449193
-0.0336913
-0.0239008
-0.0144253
-0.0056483
-0.345835
-0.342248
-0.329843
-0.308324
-0.280219
-0.248768
-0.216769
-0.186123
-0.157856
-0.132361
-0.109653
-0.0895606
-0.0718475
-0.0562668
-0.0425806
-0.030565
-0.0200855
-0.0110031
-0.00219212
0.00586089
-0.319622
-0.316637
-0.304466
-0.283334
-0.255798
-0.225101
-0.194002
-0.164341
-0.137091
-0.112607
-0.09088
-0.0717315
-0.0549208
-0.0402018
-0.027339
-0.0161157
-0.00640631
0.00194837
0.0100525
0.0172893
-0.292908
-0.290441
-0.27857
-0.25787
-0.230959
-0.201073
-0.170924
-0.142292
-0.116096
-0.0926519
-0.0719333
-0.0537508
-0.037862
-0.0240221
-0.0119985
-0.00158491
0.00733422
0.0149473
0.0223065
0.0286117
-0.265728
-0.263708
-0.252201
-0.231978
-0.205746
-0.176724
-0.147575
-0.120011
-0.0949011
-0.0725259
-0.0528385
-0.0356419
-0.0206922
-0.00774604
0.00342543
0.0130141
0.021127
0.0279981
0.0345711
0.0397267
-0.238081
-0.236527
-0.225408
-0.205706
-0.180205
-0.152098
-0.123991
-0.0975333
-0.0735395
-0.0522575
-0.033622
-0.017429
-0.00343314
0.0086076
0.0189172
0.0276702
0.0349744
0.0411271
0.0468149
0.050338
-0.210019
-0.208952
-0.198242
-0.179103
-0.15438
-0.127235
-0.100211
-0.0748932
-0.052043
-0.0318764
-0.0143113
0.000863048
0.0138927
0.0250189
0.0344599
0.0423745
0.0488943
0.0543828
0.0589921
0.0601603
-0.181602
-0.181034
-0.170753
-0.152217
-0.128318
-0.102178
-0.0762756
-0.0521271
-0.0304446
-0.0114128
0.00506607
0.0192086
0.0312618
0.0414662
0.0500342
0.0571173
0.0628998
0.0677738
0.0711164
0.0699113
-0.152887
-0.152825
-0.142994
-0.1251
-0.102068
-0.0769723
-0.0522236
-0.0292713
-0.00877764
0.00910255
0.0244815
0.0375812
0.0486496
0.0579259
0.065618
0.0718806
0.0769579
0.0811693
0.0830959
0.0825949
-0.123927
-0.124379
-0.115019
-0.0978008
-0.075675
-0.0516604
-0.0280956
-0.0063629
0.0129239
0.0296383
0.0439062
0.055954
0.0660305
0.0743736
0.0811877
0.0866355
0.0909926
0.0944784
0.0955878
0.0958875
-0.0947811
-0.0957503
-0.0868807
-0.0703724
-0.0491884
-0.0262868
-0.00393204
0.0165611
0.034626
0.0501631
0.0633108
0.0742998
0.0833789
0.0907845
0.0967191
0.101353
0.10497
0.10771
0.10818
0.108578
-0.0655048
-0.0669942
-0.0586342
-0.0428658
-0.0226559
-0.000895928
0.0202264
0.0394633
0.0562942
0.0706451
0.0826659
0.0925909
0.100669
0.107134
0.112188
0.116006
0.118869
0.120875
0.120766
0.120947
-0.0361559
-0.0381667
-0.0303337
-0.0153328
0.00387413
0.0244678
0.0443388
0.0623063
0.0778941
0.0910525
0.101942
0.1108
0.117874
0.123397
0.127569
0.130569
0.13267
0.133946
0.13326
0.133075
-0.00679155
-0.009324
-0.00203385
0.0121747
0.0303535
0.0497599
0.0683646
0.0850527
0.0993911
0.111353
0.121109
0.128899
0.134969
0.139549
0.142839
0.145018
0.146353
0.146901
0.14562
0.144983
0.0225308
0.0194776
0.0262106
0.039605
0.056734
0.074936
0.0922629
0.107665
0.120751
0.131516
0.140139
0.14686
0.151927
0.155566
0.157975
0.159333
0.159898
0.159718
0.157827
0.156686
0.0517539
0.0481819
0.0543453
0.0669066
0.0829678
0.0999521
0.115993
0.130106
0.141939
0.151509
0.159
0.164657
0.168723
0.171425
0.172955
0.173491
0.173286
0.172377
0.169866
0.168186
0.0808208
0.0767328
0.082316
0.0940282
0.109007
0.124764
0.139516
0.152339
0.162922
0.1713
0.177665
0.182262
0.185333
0.1871
0.187755
0.187474
0.1865
0.184861
0.181724
0.179485
0.109675
0.105075
0.110069
0.120919
0.134805
0.149329
0.16279
0.174327
0.183666
0.190858
0.196105
0.199649
0.201731
0.202571
0.202356
0.201261
0.199521
0.197156
0.193391
0.190577
0.138259
0.133152
0.13755
0.147529
0.160315
0.173604
0.185777
0.196034
0.204137
0.210153
0.21429
0.216791
0.217893
0.217813
0.216737
0.214834
0.212333
0.209247
0.204854
0.201457
0.166519
0.16091
0.164708
0.173808
0.185491
0.197546
0.208438
0.217425
0.224302
0.229155
0.232193
0.233662
0.233795
0.232806
0.230876
0.228174
0.224919
0.221118
0.216105
0.212119
0.194399
0.188296
0.19149
0.199707
0.210287
0.221114
0.230734
0.238463
0.244129
0.247832
0.249787
0.250237
0.249413
0.247527
0.244755
0.241264
0.237264
0.232757
0.227129
0.222552
0.221845
0.215255
0.217844
0.225179
0.234659
0.244266
0.252628
0.259115
0.263587
0.266157
0.267044
0.26649
0.264725
0.261955
0.258354
0.254085
0.249351
0.24415
0.237917
0.232749
0.248804
0.241735
0.243721
0.250176
0.258563
0.266963
0.274082
0.279346
0.282643
0.284099
0.283937
0.282398
0.279708
0.276069
0.271654
0.266621
0.261166
0.255282
0.248456
0.2427
0.275224
0.267686
0.269072
0.274651
0.281956
0.289166
0.295062
0.299123
0.301267
0.301631
0.300441
0.297936
0.294339
0.28985
0.284637
0.278855
0.272692
0.266141
0.258734
0.252395
0.301053
0.293058
0.293849
0.298561
0.304798
0.310835
0.315531
0.318414
0.319429
0.318725
0.316529
0.31308
0.308597
0.303277
0.297283
0.29077
0.283915
0.276713
0.268739
0.261823
0.326243
0.317801
0.318004
0.321861
0.327047
0.331934
0.335455
0.337188
0.337101
0.335355
0.332178
0.327808
0.322462
0.316331
0.309577
0.30235
0.294821
0.286985
0.278458
0.270975
0.350745
0.341868
0.341492
0.344508
0.348663
0.352426
0.354801
0.355412
0.354253
0.351493
0.347363
0.342098
0.335912
0.328993
0.3215
0.313579
0.305395
0.296943
0.287881
0.279841
0.374512
0.365213
0.36427
0.366461
0.36961
0.372276
0.373536
0.373059
0.370859
0.367116
0.362061
0.355928
0.348927
0.341245
0.333035
0.324443
0.315624
0.306575
0.296995
0.288409
0.397498
0.387792
0.386295
0.38768
0.389848
0.391451
0.39163
0.390098
0.386892
0.382197
0.376249
0.369277
0.361489
0.353069
0.344167
0.334925
0.325492
0.315869
0.305789
0.296671
0.419661
0.409562
0.407525
0.408127
0.409345
0.409917
0.409052
0.406502
0.402326
0.396715
0.389905
0.382125
0.37358
0.364448
0.35488
0.345012
0.334989
0.324812
0.314251
0.304617
0.440958
0.430481
0.427921
0.427766
0.428064
0.427643
0.425773
0.422246
0.417136
0.410646
0.403009
0.394453
0.38518
0.375366
0.365158
0.35469
0.344099
0.333393
0.322371
0.312237
0.461348
0.450511
0.447446
0.44656
0.445975
0.4446
0.441766
0.437302
0.4313
0.423968
0.41554
0.406242
0.396273
0.385807
0.374988
0.363945
0.352812
0.3416
0.330137
0.319522
0.480794
0.469614
0.466064
0.464476
0.463044
0.460758
0.457005
0.451648
0.444795
0.436661
0.427479
0.417475
0.406843
0.395756
0.384354
0.372765
0.361116
0.349422
0.337541
0.326463
0.49926
0.487754
0.483741
0.481483
0.479245
0.476091
0.471464
0.465259
0.4576
0.448704
0.438809
0.428134
0.416875
0.405198
0.393244
0.381138
0.368999
0.356849
0.344572
0.333053
0.51671
0.504897
0.500444
0.49755
0.494547
0.490573
0.485121
0.478115
0.469694
0.460081
0.449511
0.438204
0.426352
0.41412
0.401646
0.389051
0.376451
0.363872
0.351221
0.339283
0.533113
0.521013
0.516144
0.51265
0.508926
0.50418
0.497952
0.490194
0.481059
0.470772
0.45957
0.44767
0.435263
0.42251
0.409548
0.396494
0.383462
0.37048
0.357479
0.345147
0.548439
0.53607
0.530812
0.526755
0.522358
0.51689
0.509937
0.501478
0.491676
0.480762
0.468971
0.456519
0.443593
0.430355
0.416938
0.403457
0.390021
0.376665
0.363339
0.350636
0.562659
0.550043
0.544422
0.539842
0.534818
0.528681
0.521058
0.511949
0.50153
0.490035
0.477699
0.464736
0.451332
0.437644
0.423806
0.409931
0.396122
0.382419
0.368791
0.355744
0.575748