/*--------------------------------*- C++ -*----------------------------------*\
  =========                 |
  \\      /  F ield         | OpenFOAM: The Open Source CFD Toolbox
   \\    /   O peration     | Website:  https://openfoam.org
    \\  /    A nd           | Version:  7
     \\/     M anipulation  |
\*---------------------------------------------------------------------------*/
FoamFile
{
    version     2.0;
    format      ascii;
    class       surfaceScalarField;
    location    "280";
    object      phi;
}
// * * * * * * * * * * * * * * * * * * * * * * * * * * * * * * * * * * * * * //

dimensions      [0 3 -1 0 0 0 0];

internalField   nonuniform List<scalar> 
8923
(
0.000683224
0.00215111
-0.00234678
0.000865543
0.00494883
-0.00513115
0.00101811
0.00714819
-0.00730076
0.00112691
0.00854583
-0.00865462
0.00118961
0.0092443
-0.009307
0.00121202
0.00946642
-0.00948883
0.00119412
0.00946445
-0.00944655
0.00113077
0.00953239
-0.00946904
0.00104358
0.00969311
-0.00960592
0.000992866
0.00928816
-0.00923745
0.00102761
0.00741033
-0.00744508
0.00114003
0.00395473
-0.00406715
0.00128852
-0.000200404
5.19079e-05
0.00143346
-0.00398443
0.00383949
0.0015481
-0.00675176
0.00663711
0.00161991
-0.00841942
0.00834761
0.00165208
-0.00925442
0.00922225
0.00165692
-0.00953403
0.00952919
0.00163799
-0.00952429
0.00954321
0.00158668
-0.00962254
0.00967385
0.00150441
-0.0100185
0.0101008
0.00141924
-0.0101722
0.0102573
-0.0090652
0.0091161
0.000641858
0.00194489
0.000835276
0.00475542
0.000998681
0.00698479
0.00111713
0.00842738
0.0011879
0.00917353
0.00121637
0.00943795
0.00120213
0.00947869
0.00114144
0.00959308
0.0010586
0.00977595
0.0010138
0.00933295
0.001052
0.00737214
0.00116282
0.0038439
0.00130592
-0.000343495
0.00144378
-0.00412229
0.00155149
-0.00685947
0.00161746
-0.00848539
0.00164491
-0.00928187
0.00164617
-0.00953529
0.00162491
-0.00950303
0.00157208
-0.00956971
0.00148838
-0.00993481
0.00140209
-0.0100859
-0.0090149
0.00060054
0.00172855
0.000804772
0.00455118
0.000978854
0.0068107
0.00110693
0.00829931
0.00118587
0.00909459
0.00122053
0.00940329
0.00121015
0.00948906
0.00115251
0.00965072
0.00107442
0.00985405
0.00103552
0.00937186
0.00107671
0.00733095
0.00118547
0.00373514
0.00132285
-0.000480878
0.0014535
-0.00425294
0.00155424
-0.00696021
0.00161444
-0.00854559
0.0016373
-0.00930473
0.0016351
-0.00953309
0.00161165
-0.00947958
0.00155749
-0.00951556
0.00147254
-0.00984986
0.00138516
-0.0099985
-0.00896505
0.000559409
0.00150264
0.000774104
0.00433649
0.000958661
0.00662615
0.00109632
0.00816165
0.00118351
0.00900741
0.00122447
0.00936233
0.00121817
0.00949536
0.00116398
0.00970491
0.00109099
0.00992704
0.00105792
0.00940493
0.00110166
0.00728721
0.00120791
0.00362889
0.00133932
-0.00061228
0.00146262
-0.00437624
0.00155637
-0.00705397
0.00161087
-0.00860009
0.00162927
-0.00932313
0.00162374
-0.00952755
0.00159823
-0.00945407
0.00154292
-0.00946025
0.0014569
-0.00976384
0.00136847
-0.00991007
-0.00891549
0.000518602
0.00126774
0.000743344
0.00411175
0.000938129
0.00643136
0.0010853
0.00801447
0.0011808
0.00891191
0.00122817
0.00931496
0.00122617
0.00949735
0.00117582
0.00975525
0.00110826
0.0099946
0.00108094
0.00943225
0.00112678
0.00724136
0.0012301
0.00352557
0.00135528
-0.000737458
0.00147113
-0.00449208
0.00155788
-0.00714072
0.00160677
-0.00864898
0.00162083
-0.0093372
0.00161209
-0.00951881
0.00158466
-0.00942663
0.00152839
-0.00940398
0.00144148
-0.00967693
0.00135204
-0.00982062
-0.00886606
0.000478253
0.00102449
0.00071256
0.00387744
0.000917288
0.00622663
0.00107388
0.00785788
0.00117772
0.00880808
0.00123159
0.00926109
0.00123412
0.00949483
0.001188
0.00980137
0.00112618
0.0100564
0.00110447
0.00945396
0.00115199
0.00719384
0.00125199
0.00342557
0.00137073
-0.000856194
0.00147904
-0.0046004
0.00155879
-0.00722047
0.00160214
-0.00869233
0.00161201
-0.00934707
0.00160018
-0.00950698
0.00157095
-0.0093974
0.00151389
-0.00934692
0.00142628
-0.00958932
0.00133587
-0.00973022
-0.0088166
0.000438488
0.000773642
0.000681821
0.00363411
0.000896162
0.00601229
0.00106205
0.00769199
0.00117425
0.00869588
0.00123471
0.00920063
0.00124198
0.00948755
0.00120048
0.00984287
0.00114466
0.0101122
0.00112843
0.00947019
0.00117721
0.00714506
0.00127353
0.00332925
0.00138564
-0.000968298
0.00148635
-0.00470111
0.00155911
-0.00729324
0.00159701
-0.00873022
0.0016028
-0.00935286
0.00158801
-0.00949218
0.0015571
-0.0093665
0.00149943
-0.00928924
0.0014113
-0.0095012
0.00132
-0.00963891
-0.00876693
0.000399427
0.000515904
0.000651191
0.00338234
0.000874778
0.0057887
0.00104981
0.00751695
0.00117035
0.00857534
0.00123747
0.00913351
0.00124973
0.0094753
0.00121322
0.00987938
0.00116363
0.0101618
0.00115272
0.0094811
0.00120235
0.00709543
0.00129468
0.00323693
0.00139999
-0.00107361
0.00149305
-0.00479417
0.00155885
-0.00735903
0.00159138
-0.00876275
0.00159324
-0.00935473
0.0015756
-0.00947454
0.00154314
-0.00933404
0.00148501
-0.00923112
0.00139656
-0.00941274
0.00130441
-0.00954677
-0.00871689
0.000361177
0.000252003
0.00062073
0.00312279
0.000853159
0.00555627
0.00103716
0.00733295
0.00116601
0.0084465
0.00123985
0.00905966
0.00125732
0.00945784
0.00122616
0.00991054
0.00118301
0.010205
0.00117724
0.00948687
0.00122736
0.00704531
0.00131539
0.00314889
0.00141376
-0.00117198
0.00149916
-0.00487957
0.00155801
-0.00741788
0.00158526
-0.00879
0.00158333
-0.0093528
0.00156295
-0.00945416
0.00152905
-0.00930013
0.00147063
-0.00917269
0.00138203
-0.00932415
0.00128913
-0.00945386
-0.00866635
0.000323833
-1.74234e-05
0.000590493
0.00285613
0.000831327
0.00531544
0.00102408
0.00714019
0.00116118
0.0083094
0.0012418
0.00897904
0.0012647
0.00943493
0.00123925
0.00993599
0.00120272
0.0102415
0.0012019
0.0094877
0.00125214
0.00699507
0.00133562
0.00306541
0.00142694
-0.0012633
0.00150465
-0.00495728
0.00155661
-0.00746984
0.00157868
-0.00881207
0.00157308
-0.0093472
0.00155009
-0.00943117
0.00151485
-0.00926489
0.00145629
-0.00911414
0.00136774
-0.00923559
0.00127415
-0.00936028
-0.00861513
0.000287431
-0.000292341
0.00056053
0.00258303
0.000809299
0.00506667
0.00101058
0.00693892
0.00115582
0.00816416
0.00124327
0.00889159
0.00127185
0.00940636
0.00125242
0.00995541
0.00122267
0.0102713
0.0012266
0.00948376
0.00127663
0.00694503
0.00135533
0.00298671
0.00143952
-0.00134748
0.00150955
-0.00502731
0.00155466
-0.00751495
0.00157163
-0.00882903
0.0015625
-0.00933807
0.00153701
-0.00940569
0.00150053
-0.00922842
0.00144198
-0.00905558
0.00135365
-0.00914726
0.00125949
-0.00926612
0.00120748
-0.00856312
-0.00631912
0.000252066
-0.000570522
0.000530889
0.00230421
0.000787092
0.00481047
0.000996625
0.00672938
0.00114991
0.00801087
0.00124422
0.00879729
0.00127869
0.00937189
0.00126562
0.00996849
0.00124275
0.0102941
0.00125124
0.00947528
0.00130077
0.0068955
0.00137449
0.00291299
0.00145146
-0.00142445
0.00151384
-0.00508969
0.00155216
-0.00755328
0.00156412
-0.00884099
0.00155159
-0.00932554
0.00152373
-0.00937783
0.0014861
-0.00919079
0.0014277
-0.00899718
0.00133977
-0.00905934
0.00124514
-0.00917148
0.0011922
-0.00851019
-0.00634017
0.000217811
-0.00084961
0.000501607
0.00202041
0.00076472
0.00454735
0.000982213
0.00651189
0.00114341
0.00784967
0.00124459
0.0086961
0.00128518
0.00933131
0.00127875
0.00997491
0.00126288
0.01031
0.00127572
0.00946243
0.00132447
0.00684675
0.00139305
0.00284441
0.00146276
-0.00149416
0.00151752
-0.00514445
0.00154912
-0.00758488
0.00155617
-0.00884804
0.00154037
-0.00930974
0.00151024
-0.0093477
0.00147156
-0.00915211
0.00141343
-0.00893905
0.00132609
-0.00897199
0.0012311
-0.00907648
0.00117713
-0.00845622
-0.00636134
0.000184681
-0.00112884
0.000472725
0.00173237
0.00074219
0.00427789
0.000967322
0.00628676
0.00113626
0.00768074
0.00124434
0.00858802
0.00129126
0.00928439
0.00129176
0.00997441
0.00128295
0.0103188
0.00129996
0.00944542
0.00134768
0.00679903
0.00141098
0.00278111
0.0014734
-0.00155658
0.00152059
-0.00519164
0.00154555
-0.00760984
0.00154777
-0.00885025
0.00152883
-0.0092908
0.00149656
-0.00931542
0.00145689
-0.00911245
0.00139917
-0.00888133
0.00131259
-0.00888541
0.00121736
-0.00898125
0.00116228
-0.00840115
-0.00638234
0.000152734
-0.0014068
0.000444264
0.00144084
0.000719506
0.00400265
0.000951931
0.00605433
0.00112843
0.00750424
0.00124341
0.00847303
0.00129686
0.00923094
0.00130455
0.00996672
0.00130286
0.0103205
0.00132385
0.00942443
0.00137034
0.00675254
0.00142825
0.0027232
0.00148338
-0.00161171
0.00152306
-0.00523132
0.00154146
-0.00762824
0.00153894
-0.00884774
0.00151699
-0.00926886
0.00148267
-0.0092811
0.00144211
-0.00907188
0.0013849
-0.00882412
0.00129925
-0.00879977
0.00120392
-0.00888592
0.00114766
-0.00834488
-0.00640286
0.000122031
-0.00168169
0.000416241
0.00114663
0.000696669
0.00372222
0.000936016
0.00581499
0.00111987
0.00732039
0.00124176
0.00835114
0.00130194
0.00917076
0.00131705
0.00995161
0.00132253
0.010315
0.00134731
0.00939964
0.00139237
0.00670749
0.00144482
0.00267076
0.00149267
-0.00165956
0.00152491
-0.00526357
0.00153684
-0.00764016
0.00152968
-0.00884058
0.00150484
-0.00924402
0.0014686
-0.00924486
0.0014272
-0.00903048
0.00137061
-0.00876753
0.00128606
-0.00871522
0.00119078
-0.00879064
0.00113328
-0.00828738
-0.00642264
9.26505e-05
-0.00195128
0.000388671
0.000850611
0.000673672
0.00343722
0.000919547
0.00556911
0.00111054
0.0071294
0.00123932
0.00822236
0.00130642
0.00910365
0.00132917
0.00992886
0.00134184
0.0103024
0.00137025
0.00937122
0.00141373
0.00666401
0.00146066
0.00262382
0.00150126
-0.00170016
0.00152615
-0.00528847
0.0015317
-0.00764571
0.00151999
-0.00882886
0.00149238
-0.00921641
0.00145433
-0.00920681
0.00141215
-0.00898831
0.00135628
-0.00871166
0.001273
-0.00863194
0.0011779
-0.00869554
0.00111914
-0.00822861
-0.0064414
6.46933e-05
-0.00221293
0.000361571
0.000553733
0.000650505
0.00314828
0.000902495
0.00531712
0.00110039
0.00693151
0.00123605
0.0080867
0.00131025
0.00902945
0.00134084
0.00989827
0.0013607
0.0102825
0.00139259
0.00933933
0.00143435
0.00662225
0.00147575
0.00258243
0.00150915
-0.00173356
0.00152678
-0.0053061
0.00152605
-0.00764498
0.00150987
-0.00881268
0.00147961
-0.00918615
0.00143987
-0.00916706
0.00139698
-0.00894542
0.0013419
-0.00865659
0.00126005
-0.00855009
0.00116529
-0.00860079
0.00110525
-0.00816858
-0.00645889
3.82678e-05
-0.00246352
0.000334999
0.000257001
0.00062716
0.00285612
0.000884828
0.00505945
0.00108937
0.00672697
0.00123189
0.00794418
0.00131336
0.00894797
0.00135196
0.00985967
0.00137902
0.0102555
0.00141424
0.00930411
0.00145419
0.0065823
0.00149006
0.00254656
0.00151632
-0.00175982
0.00152679
-0.00531657
0.00151989
-0.00763808
0.00149934
-0.00879213
0.00146654
-0.00915335
0.00142521
-0.00912573
0.00138165
-0.00890187
0.00132745
-0.00860238
0.00124718
-0.00846981
0.00115292
-0.00850654
0.00109163
-0.00810728
-0.00647487
1.32049e-05
-0.00269914
0.000308998
-3.87923e-05
0.000603624
0.0025615
0.000866513
0.00479656
0.00107746
0.00651602
0.0012268
0.00779484
0.00131569
0.00885908
0.00136246
0.0098129
0.0013967
0.0102212
0.00143512
0.00926569
0.00147318
0.00654423
0.00150356
0.00251618
0.00152277
-0.00177903
0.00152618
-0.00531998
0.00151323
-0.00762513
0.00148839
-0.00876729
0.00145315
-0.00911812
0.00141035
-0.00908292
0.00136618
-0.0088577
0.00131291
-0.00854911
0.00123437
-0.00839127
0.00114078
-0.00841295
0.00107826
-0.00804475
-0.00648914
-9.20684e-06
-0.0029166
0.000283463
-0.000331462
0.0005799
0.00226506
0.000847522
0.00452894
0.00106459
0.00629895
0.00122072
0.00763871
0.00131718
0.00876262
0.00137226
0.00975782
0.00141366
0.0101798
0.00145516
0.00922418
0.0014913
0.0065081
0.00151623
0.00249125
0.00152849
-0.00179129
0.00152496
-0.00531645
0.00150606
-0.00760622
0.00147702
-0.00873826
0.00143946
-0.00908055
0.00139529
-0.00903875
0.00135055
-0.00881296
0.00129826
-0.00849682
0.00122159
-0.0083146
0.00112884
-0.0083202
0.00106514
-0.00798105
-0.00650151
-2.51921e-05
-0.00311602
0.000258876
-0.00061553
0.000556006
0.00196793
0.00082783
0.00425712
0.00105075
0.00607603
0.00121363
0.00747584
0.00131777
0.00865847
0.00138128
0.00969432
0.00142981
0.0101313
0.0014743
0.00917969
0.00150848
0.00647393
0.00152806
0.00247166
0.00153348
-0.00179672
0.00152312
-0.00530609
0.00149839
-0.00758149
0.00146525
-0.00870511
0.00142544
-0.00904075
0.00138002
-0.00899332
0.00133476
-0.00876771
0.00128348
-0.00844554
0.00120882
-0.00823994
0.00111707
-0.00822845
0.00105227
-0.00791625
-0.00651181
-3.85091e-05
-0.00329342
0.000235357
-0.000889396
0.000531996
0.00167129
0.000807427
0.00398169
0.0010359
0.00584755
0.00120547
0.00730627
0.00131741
0.00854653
0.00138944
0.00962229
0.00144507
0.0100757
0.00149246
0.0091323
0.00152468
0.00644171
0.00153902
0.00245733
0.00153773
-0.00179543
0.00152066
-0.00528902
0.00149022
-0.00755105
0.00145306
-0.00866796
0.00141111
-0.0089988
0.00136454
-0.00894675
0.0013188
-0.00872197
0.00126856
-0.0083953
0.00119604
-0.00816742
0.00110546
-0.00813787
0.00103963
-0.00785042
-0.00651992
-4.78336e-05
-0.00344596
0.000213254
-0.00115048
0.000507965
0.00137658
0.000786317
0.00370333
0.00102003
0.00561384
0.00119622
0.00713008
0.00131604
0.0084267
0.00139667
0.00954167
0.00145937
0.010013
0.00150959
0.00908208
0.00153989
0.00641141
0.0015491
0.00244812
0.00154124
-0.00178757
0.00151758
-0.00526536
0.00148154
-0.00751502
0.00144046
-0.00862687
0.00139645
-0.00895479
0.00134884
-0.00889914
0.00130266
-0.00867579
0.00125348
-0.00834612
0.0011832
-0.00809714
0.00109398
-0.00804864
0.00102722
-0.00778366
-0.00652572
-5.23729e-05
0.000193047
-0.0013959
0.000484053
0.00108557
0.000764529
0.00342286
0.00100312
0.00537526
0.00118585
0.00694735
0.00131363
0.00829892
0.00140291
0.00945239
0.00147264
0.00994322
0.00152563
0.00902909
0.00155405
0.00638299
0.00155829
0.00244388
0.00154401
-0.00177328
0.00151388
-0.00523524
0.00147238
-0.00747351
0.00142745
-0.00858194
0.00138146
-0.0089088
0.00133291
-0.00885059
0.00128634
-0.00862921
0.00123821
-0.008298
0.00117029
-0.00802922
0.00108259
-0.00796095
0.00101502
-0.00771609
-0.00652915
0.000175284
-0.00162272
0.000460471
0.000800387
0.000742123
0.00314121
0.000985186
0.00513219
0.00117434
0.0067582
0.00131012
0.00816313
0.00140809
0.00935442
0.00148481
0.0098665
0.00154053
0.00897337
0.00156714
0.00635638
0.00156658
0.00244443
0.00154604
-0.00175274
0.00150958
-0.00519877
0.00146271
-0.00742664
0.00141403
-0.00853325
0.00136614
-0.00886091
0.00131675
-0.00880121
0.00126982
-0.00858228
0.00122274
-0.00825092
0.00115727
-0.00796375
0.00107128
-0.00787496
0.00100301
-0.00764782
-0.00653013
0.000160584
-0.00182819
0.000437515
0.000523455
0.000719204
0.00285952
0.000966263
0.00488513
0.0011617
0.00656276
0.0013055
0.00801934
0.00141217
0.00924775
0.00149582
0.00978285
0.00155424
0.00891495
0.00157914
0.00633149
0.00157398
0.00244959
0.00154735
-0.00172611
0.00150465
-0.00515607
0.00145255
-0.00737453
0.0014002
-0.00848091
0.00135047
-0.00881119
0.00130035
-0.00875109
0.00125311
-0.00853504
0.00120706
-0.00820486
0.00114411
-0.00790081
0.00106001
-0.00779085
0.000991172
-0.00757898
-0.00652864
0.000149609
-0.00201009
0.000415604
0.000257461
0.00069593
0.00257919
0.000946406
0.00463466
0.00114793
0.00636123
0.00129972
0.00786755
0.00141508
0.00913239
0.00150562
0.00969231
0.00156672
0.00885385
0.00159002
0.00630818
0.00158049
0.00245912
0.00154794
-0.00169356
0.00149912
-0.00510726
0.00144189
-0.0073173
0.00138596
-0.00842499
0.00133447
-0.00875969
0.00128371
-0.00870033
0.0012362
-0.00848753
0.00119114
-0.00815981
0.00113079
-0.00784046
0.00104876
-0.00770882
0.000979483
-0.00750971
-0.00652467
0.000143034
-0.00216725
0.000395262
5.23262e-06
0.00067252
0.00230193
0.000925705
0.00438147
0.00113306
0.00615388
0.00129278
0.00770783
0.0014168
0.00900837
0.00151417
0.00959495
0.00157795
0.00879007
0.00159979
0.00628634
0.00158611
0.0024728
0.00154782
-0.00165527
0.00149299
-0.00505243
0.00143073
-0.00725504
0.00137132
-0.00836558
0.00131812
-0.00870648
0.0012668
-0.00864901
0.00121907
-0.0084398
0.00117497
-0.00811571
0.00111726
-0.00778275
0.00103749
-0.00762905
0.000967921
-0.00744014
-0.00651823
0.000141507
-0.00229758
0.000376969
-0.00023023
0.000649262
0.00202964
0.000904285
0.00412645
0.00111714
0.00594102
0.00128468
0.00754029
0.00141728
0.00887576
0.00152141
0.00949082
0.00158788
0.00872361
0.00160843
0.00626579
0.00159087
0.00249037
0.00154701
-0.00161142
0.00148626
-0.00499167
0.00141908
-0.00718786
0.00135627
-0.00830277
0.00130141
-0.00865162
0.00124962
-0.00859722
0.00120173
-0.0083919
0.00115855
-0.00807253
0.00110351
-0.00772771
0.00102616
-0.0075517
0.000956465
-0.00737044
-0.00650932
0.0001454
-0.00239829
0.000361368
-0.000446198
0.000626532
0.00176448
0.00088232
0.00387066
0.00110023
0.00572311
0.00127541
0.00736512
0.0014165
0.00873467
0.00152733
0.00937999
0.00159649
0.00865444
0.00161595
0.00624632
0.00159479
0.00251152
0.00154554
-0.00156216
0.00147893
-0.00492506
0.00140693
-0.00711586
0.00134082
-0.00823666
0.00128435
-0.00859515
0.00123217
-0.00854504
0.00118416
-0.00834389
0.00114185
-0.00803022
0.00108949
-0.00767535
0.00101476
-0.00747697
0.000945091
-0.00730077
-0.00649798
0.000154854
-0.0024713
0.00034917
-0.000640514
0.000604778
0.00150887
0.000860035
0.00361541
0.00108243
0.00550071
0.001265
0.00718255
0.00141444
0.00858524
0.00153188
0.00926256
0.00160377
0.00858255
0.00162237
0.00622772
0.00159793
0.00253596
0.00154343
-0.00150767
0.00147103
-0.00485266
0.00139429
-0.00703913
0.00132496
-0.00816732
0.00126693
-0.00853713
0.00121443
-0.00849254
0.00116636
-0.00829582
0.00112487
-0.00798873
0.00107519
-0.00762567
0.00100324
-0.00740502
0.000933777
-0.00723131
-0.00648424
0.000169981
-0.00251854
0.00034094
-0.000811473
0.000584554
0.00126526
0.000837719
0.00336224
0.00106387
0.00527455
0.0012535
0.00699292
0.00141109
0.00842764
0.00153504
0.00913861
0.0016097
0.0085079
0.00162772
0.0062097
0.00160034
0.00256334
0.00154073
-0.00144805
0.00146255
-0.00477448
0.00138115
-0.00695774
0.00130868
-0.00809485
0.00124914
-0.00847759
0.00119639
-0.00843979
0.00114832
-0.00824774
0.0011076
-0.007948
0.00106057
-0.00757865
0.00099157
-0.00733602
0.0009225
-0.00716224
-0.00646813
0.000190588
-0.00254257
0.000337253
-0.000958137
0.000566454
0.00103605
0.000815737
0.00311296
0.00104472
0.00504556
0.00124095
0.0067967
0.00140646
0.00826213
0.0015368
0.00900826
0.00161429
0.00843041
0.00163208
0.00619191
0.00160212
0.0025933
0.00153747
-0.00138339
0.0014535
-0.00469051
0.00136752
-0.00687176
0.001292
-0.00801933
0.00123099
-0.00841658
0.00117805
-0.00838685
0.00113004
-0.00819973
0.00109003
-0.00790799
0.00104562
-0.00753424
0.000979714
-0.00727012
0.000911239
-0.00709376
-0.0064497
0.000216182
-0.00254639
0.000338485
-0.00108044
0.00055112
0.000823419
0.000794542
0.00286954
0.00102522
0.00481489
0.00122745
0.00659447
0.00140057
0.00808901
0.00153716
0.00887167
0.00161757
0.00835
0.00163557
0.00617391
0.00160339
0.00262548
0.0015337
-0.0013137
0.0014439
-0.00460071
0.00135341
-0.00678127
0.00127494
-0.00794086
0.0012125
-0.00835414
0.00115942
-0.00833377
0.00111153
-0.00815184
0.00107217
-0.00786863
0.00103031
-0.00749238
0.000967644
-0.00720745
0.000899978
-0.0070261
-0.00642898
0.000246055
-0.0025333
0.000344802
-0.00117919
0.000539199
0.000629022
0.000774696
0.00263404
0.00100568
0.0045839
0.00121315
0.006387
0.00139346
0.0079087
0.00153613
0.008729
0.00161962
0.0082665
0.00163837
0.00615516
0.0016043
0.00265955
0.00152947
-0.00123887
0.00143377
-0.00450501
0.00133884
-0.00668635
0.00125752
-0.00785954
0.00119368
-0.0082903
0.00114049
-0.00828058
0.00109277
-0.00810412
0.00105401
-0.00782987
0.00101463
-0.00745299
0.000955317
-0.00714814
0.000888683
-0.00695946
-0.00640605
0.000279079
0.000355964
-0.00125607
0.000531198
0.000453789
0.000756836
0.0024084
0.000986583
0.00435416
0.00119833
0.00617525
0.0013853
0.00772173
0.00153382
0.00858048
0.00162071
0.00817961
0.00164094
0.00613493
0.00160526
0.00269523
0.00152497
-0.00115858
0.0014231
-0.00440314
0.0013237
-0.00658695
0.00123957
-0.0077754
0.00117435
-0.00822508
0.00112112
-0.00822735
0.00107366
-0.00805667
0.00103547
-0.00779168
0.000998482
-0.007416
0.000942648
-0.00709231
0.00087729
-0.00689411
-0.00638096
0.00037128
-0.00131356
0.000527359
0.00029771
0.000741635
0.00219412
0.000968588
0.0041272
0.00118353
0.00596032
0.00137653
0.00752873
0.00153076
0.00842626
0.0016217
0.00808867
0.00164441
0.00611221
0.0016071
0.00273254
0.00152051
-0.00107199
0.00141184
-0.00429447
0.00130774
-0.00648285
0.00122079
-0.00768846
0.00115427
-0.00815856
0.0011011
-0.00817419
0.00105406
-0.00800962
0.00101646
-0.00775408
0.000981812
-0.00738135
0.000929584
-0.00704008
0.000865777
-0.0068303
-0.00635379
0.000390943
-0.00135411
0.000528342
0.000160311
0.000730206
0.00199226
0.000952849
0.00390456
0.0011698
0.00574336
0.00136818
0.00733035
0.0015281
0.00826634
0.00162403
0.00799274
0.00164983
0.00608641
0.00160985
0.00277252
0.00151575
-0.000977888
0.00140002
-0.00417874
0.00129147
-0.00637429
0.00120195
-0.00759894
0.00113419
-0.0080908
0.00108109
-0.00812109
0.00103447
-0.00796301
0.000997399
-0.00771701
0.000964943
-0.00734889
0.000916374
-0.00699151
0.000854384
-0.00676831
-0.00632469
0.000418748
-0.00137986
0.000537936
4.11231e-05
0.000726254
0.00180394
0.000942867
0.00368795
0.00116033
0.00552589
0.00136301
0.00712767
0.00152811
0.00810124
0.00162894
0.00789191
0.00165609
0.00605927
0.00161072
0.00281789
0.00150908
-0.000876252
0.00138846
-0.00405812
0.00127725
-0.00626308
0.00118587
-0.00750756
0.00111676
-0.00802169
0.0010633
-0.00806763
0.00101672
-0.00791642
0.000979788
-0.00768007
0.000949133
-0.00731824
0.000904099
-0.00694648
0.000844261
-0.00670847
-0.00629409
0.0021437
-0.000942588
0.00194645
0.000238373
0.0019848
0.00176559
0.00219833
0.00347442
0.00253995
0.00518427
0.00302094
0.00664668
0.00365975
0.00746244
0.00445817
0.00709348
0.00533832
0.00517912
0.00608226
0.00207395
0.00655469
-0.00134868
0.00674016
-0.00424359
0.00669489
-0.0062178
0.00649504
-0.00730771
0.00622317
-0.00774983
0.00593256
-0.00777702
0.00563916
-0.00762302
0.00536272
-0.00740363
0.00510858
-0.0070641
0.00482968
-0.00666758
0.00449173
-0.00637052
0.00415634
-0.0059587
-0.00486312
0.00277561
-0.000468088
0.00246969
0.00054429
0.00240225
0.00183303
0.00255592
0.00332076
0.00290414
0.00483605
0.00343611
0.00611471
0.0041408
0.00675775
0.00498543
0.00624885
0.00584526
0.00431928
0.00654793
0.00137129
0.00696242
-0.00176318
0.00708838
-0.00436955
0.00698128
-0.00611071
0.00672992
-0.00705635
0.0064223
-0.00744221
0.00611146
-0.00746618
0.00580725
-0.0073188
0.00552048
-0.00711687
0.00525969
-0.0068033
0.00498541
-0.0063933
0.00465697
-0.00604209
0.00432178
-0.00562351
-0.00464049
0.00347363
-3.62614e-05
0.00313241
0.000885511
0.00298723
0.00197821
0.00307888
0.00322911
0.00340911
0.00450582
0.0039592
0.00556462
0.00469904
0.00601791
0.00556062
0.00538728
0.00639523
0.00348467
0.0070312
0.000735323
0.00737442
-0.0021064
0.00742222
-0.00441735
0.00725176
-0.00594024
0.0069584
-0.006763
0.00662444
-0.00710825
0.0062983
-0.00714004
0.00598516
-0.00700567
0.00568851
-0.00682021
0.00542018
-0.00653497
0.00514955
-0.00612267
0.00483043
-0.00572297
0.00449612
-0.0052892
-0.00440588
0.00417456
0.000309266
0.00387199
0.00118808
0.00370551
0.00214469
0.00375448
0.00318014
0.0040539
0.0042064
0.00459556
0.00502296
0.00533743
0.00527603
0.00618009
0.00454462
0.00695836
0.00270639
0.0075146
0.00017908
0.0077665
-0.0023583
0.007732
-0.00438285
0.00750243
-0.00571067
0.00717376
-0.00643433
0.00681917
-0.00675366
0.00648155
-0.00680242
0.00616292
-0.00668704
0.00585956
-0.00651686
0.00558479
-0.00626019
0.00531825
-0.00585613
0.0050108
-0.00541552
0.0046802
-0.0049586
-0.00416088
0.00483184
0.000546454
0.00461762
0.00140229
0.00449099
0.00227133
0.00453587
0.00313525
0.00481064
0.00393164
0.00532553
0.00450807
0.00603501
0.00456655
0.00682208
0.00375756
0.0075173
0.00201117
0.00797335
-0.000276969
0.00812445
-0.0025094
0.00801046
-0.00426886
0.00773035
-0.00543056
0.00737551
-0.00607948
0.00700757
-0.00638572
0.00666277
-0.00645763
0.00634164
-0.00636591
0.00603445
-0.00620967
0.00575406
-0.00597981
0.00549131
-0.00559338
0.00519761
-0.00512182
0.00487453
-0.00463552
-0.00390729
0.00541386
0.000682624
0.00530804
0.00150811
0.00526479
0.00231458
0.00534819
0.00305185
0.0056194
0.00366042
0.00610131
0.00402616
0.00675309
0.00391477
0.00745634
0.00305432
0.00804495
0.00142256
0.00838482
-0.000616843
0.00843507
-0.00255964
0.00825179
-0.00408558
0.0079339
-0.00511268
0.0075635
-0.00570908
0.00718972
-0.00601194
0.00684195
-0.00610986
0.00652101
-0.00604496
0.00621292
-0.00590158
0.00592814
-0.00569502
0.00566847
-0.00533372
0.00539
-0.00484335
0.00507852
-0.00432404
-0.00364728
0.00591365
0.000740608
0.00590649
0.00151526
0.00595965
0.00226142
0.00610878
0.00290272
0.00639914
0.00337007
0.00685329
0.00357201
0.00743699
0.00333107
0.00803941
0.00245189
0.00850701
0.000954965
0.00872873
-0.000838567
0.0086897
-0.00252061
0.00845449
-0.00385037
0.00811421
-0.0047724
0.00773895
-0.00533382
0.00736635
-0.00563934
0.00701951
-0.00576302
0.00670096
-0.00572641
0.00639477
-0.00559539
0.00610721
-0.00540746
0.00584963
-0.00507614
0.00558692
-0.00458064
0.00529113
-0.00402825
-0.0033839
0.00634146
0.000746327
0.00640614
0.00145058
0.00654072
0.00212685
0.00675703
0.0026864
0.00707679
0.00305031
0.00751126
0.00313754
0.00802765
0.00281468
0.00852597
0.00195357
0.00887529
0.000605643
0.00899367
-0.000956945
0.00888752
-0.00241447
0.00862163
-0.00358447
0.00827445
-0.00442522
0.00790389
-0.00496326
0.00753844
-0.00527389
0.00719595
-0.00542053
0.00688153
-0.00541199
0.0065797
-0.00529355
0.00629144
-0.00511921
0.00603489
-0.00481959
0.00578729
-0.00433304
0.00551098
-0.00375194
-0.00312139
0.00671428
0.000720546
0.00682151
0.00134335
0.00700837
0.00193999
0.00727255
0.00242222
0.00761513
0.00270773
0.00803194
0.00272073
0.00848637
0.00236025
0.00889038
0.00154956
0.00914035
0.000355681
0.00918238
-0.000998982
0.00903594
-0.00226803
0.00876008
-0.00330862
0.00841925
-0.00408439
0.0080608
-0.0046048
0.00770709
-0.00492018
0.00737185
-0.00508529
0.00706286
-0.005103
0.00676734
-0.00499804
0.00648086
-0.00483272
0.00622458
-0.00456331
0.00599026
-0.00409872
0.00573629
-0.00349796
-0.00286522
0.00704829
0.000677384
0.00717501
0.00121664
0.00738512
0.00172987
0.0076703
0.00213704
0.00801856
0.00235947
0.00841249
0.00232681
0.00881083
0.00196191
0.00913767
0.00122272
0.00931506
0.000178289
0.00931039
-0.000994317
0.00914807
-0.00210571
0.00887858
-0.00303912
0.00855359
-0.00375939
0.00821221
-0.00426343
0.00787333
-0.0045813
0.00754773
-0.0047597
0.00724518
-0.00480044
0.00695733
-0.0047102
0.0066753
-0.00455069
0.00641923
-0.00430725
0.00619534
-0.00387482
0.00596501
-0.00326763
-0.0026217
0.00735579
0.0006256
0.00748716
0.00108527
0.00769924
0.00151779
0.00798217
0.00185411
0.008318
0.00202365
0.0086813
0.0019635
0.00902878
0.00161443
0.00929641
0.000955095
0.00942617
4.85212e-05
0.00939903
-0.000967177
0.00923833
-0.00194501
0.00898556
-0.00278635
0.00868194
-0.00345577
0.00836036
-0.00394185
0.00803812
-0.00425906
0.00772405
-0.00444562
0.00742882
-0.00450521
0.00714939
-0.00443077
0.00687437
-0.00427566
0.00661938
-0.00405226
0.00640257
-0.00365801
0.00619508
-0.00306015
-0.00239713
0.00764512
0.000570401
0.00777286
0.000957535
0.00797442
0.00131623
0.00824015
0.00158837
0.00855064
0.00171317
0.00887764
0.00163651
0.00917906
0.001313
0.00940207
0.000732086
0.00950226
-5.16727e-05
0.00946824
-0.000933155
0.00931895
-0.00179572
0.00908778
-0.00255518
0.0088078
-0.00317579
0.00850708
-0.00364114
0.00820227
-0.00395424
0.00790114
-0.00414449
0.00761415
-0.00421823
0.00734337
-0.00415998
0.00707746
-0.00400975
0.00682539
-0.00380019
0.0066126
-0.00344522
0.00642491
-0.00287247
-0.00219647