/*--------------------------------*- C++ -*----------------------------------*\
  =========                 |
  \\      /  F ield         | OpenFOAM: The Open Source CFD Toolbox
   \\    /   O peration     | Website:  https://openfoam.org
    \\  /    A nd           | Version:  7
     \\/     M anipulation  |
\*---------------------------------------------------------------------------*/
FoamFile
{
    version     2.0;
    format      ascii;
    class       volVectorField;
    location    "280";
    object      U;
}
// * * * * * * * * * * * * * * * * * * * * * * * * * * * * * * * * * * * * * //

dimensions      [0 1 -1 0 0 0 0];

internalField   nonuniform List<vector> 
4575
(
(0.300078 0.172421 7.18098e-22)
(0.397456 0.379477 -3.30121e-22)
(0.484541 0.534422 -2.60787e-22)
(0.551919 0.625091 2.21412e-22)
(0.595323 0.662437 -2.22913e-22)
(0.616545 0.665068 -1.98158e-22)
(0.619286 0.651947 4.26626e-23)
(0.599314 0.643665 2.17086e-22)
(0.555074 0.642417 1.54534e-22)
(0.510304 0.605989 -5.40285e-22)
(0.504923 0.477464 3.89147e-22)
(0.550619 0.253274 -1.66332e-22)
(0.627289 -0.0079539 -1.24226e-22)
(0.710296 -0.238713 1.8731e-22)
(0.781843 -0.401287 1.34011e-22)
(0.832034 -0.493736 -4.65654e-23)
(0.858367 -0.534578 -1.38734e-22)
(0.866997 -0.541927 -1.70308e-24)
(0.864725 -0.532596 -1.71962e-22)
(0.848692 -0.529596 1.56463e-22)
(0.812835 -0.542564 -4.88581e-23)
(0.764247 -0.541332 5.52116e-23)
(0.724643 -0.473357 -2.36423e-22)
(0.273139 0.156887 3.28162e-21)
(0.37241 0.365133 -2.93854e-22)
(0.462491 0.522515 -1.5995e-21)
(0.533645 0.616631 9.59881e-22)
(0.580982 0.657506 -1.48986e-21)
(0.605933 0.663157 1.28974e-21)
(0.611447 0.652965 -2.75915e-23)
(0.59292 0.64781 -1.91879e-22)
(0.550226 0.648052 -9.12425e-22)
(0.509284 0.609108 1.388e-21)
(0.509441 0.475111 -1.14687e-21)
(0.559646 0.246184 1.39773e-21)
(0.638714 -0.0170897 -1.54373e-22)
(0.722062 -0.247462 -2.01045e-21)
(0.792361 -0.408089 1.48604e-21)
(0.840564 -0.497927 -7.16328e-22)
(0.864699 -0.536423 5.70623e-22)
(0.871118 -0.542204 -2.1762e-23)
(0.867025 -0.531563 -8.74252e-23)
(0.849889 -0.526813 3.70872e-22)
(0.813388 -0.538148 -6.05651e-22)
(0.763841 -0.536833 6.84222e-22)
(0.722756 -0.470761 -8.03914e-22)
(0.246964 0.140568 5.80317e-21)
(0.34795 0.349971 -4.35826e-21)
(0.44086 0.509819 -2.78458e-22)
(0.515641 0.607473 6.12782e-22)
(0.566833 0.651995 3.32737e-21)
(0.595479 0.660813 -7.34972e-23)
(0.60372 0.653718 -7.94234e-22)
(0.58667 0.651756 5.00498e-22)
(0.545719 0.653379 -5.35107e-22)
(0.508834 0.611837 -3.10761e-23)
(0.514537 0.472547 -4.14076e-23)
(0.569122 0.239205 -4.72783e-22)
(0.650464 -0.0258832 -2.27475e-22)
(0.734048 -0.255775 -1.65319e-22)
(0.803006 -0.414472 1.7049e-21)
(0.84916 -0.50177 -1.18804e-21)
(0.871087 -0.537991 4.73218e-24)
(0.875312 -0.542273 -5.24459e-22)
(0.869417 -0.530394 4.20721e-22)
(0.851201 -0.523943 -1.73564e-23)
(0.814105 -0.533651 2.50976e-22)
(0.763657 -0.532268 -1.24167e-22)
(0.721094 -0.468185 1.19866e-22)
(0.221666 0.123501 4.71755e-21)
(0.32415 0.334018 -4.41954e-21)
(0.419698 0.496347 2.79335e-21)
(0.497939 0.597621 -4.06764e-21)
(0.552895 0.645898 1.64756e-21)
(0.585187 0.658028 -7.58816e-22)
(0.596105 0.654193 9.1787e-22)
(0.58057 0.655477 -1.62801e-21)
(0.541558 0.658372 9.34269e-22)
(0.508939 0.614175 6.96025e-22)
(0.52018 0.469798 8.42108e-22)
(0.579016 0.232366 1.13301e-21)
(0.662513 -0.0343159 -2.30922e-21)
(0.746239 -0.263642 -1.30425e-21)
(0.81377 -0.420432 3.42129e-22)
(0.857816 -0.505269 1.49756e-21)
(0.877532 -0.539289 1.39774e-21)
(0.879582 -0.54214 -2.6293e-22)
(0.871903 -0.529098 7.73963e-23)
(0.852631 -0.520997 -4.65864e-22)
(0.814986 -0.529083 1.72111e-22)
(0.763697 -0.527638 8.90369e-23)
(0.719664 -0.465622 -1.57947e-21)
(0.197352 0.105731 3.46265e-21)
(0.301085 0.317302 -2.45864e-21)
(0.39905 0.482117 2.60674e-21)
(0.480567 0.587078 -1.15167e-21)
(0.539186 0.639209 5.35456e-22)
(0.57506 0.654795 -2.38245e-21)
(0.588598 0.654376 2.84741e-21)
(0.574621 0.658945 1.67653e-22)
(0.537749 0.663008 -9.75445e-22)
(0.509587 0.616129 -2.83879e-21)
(0.526337 0.466896 4.36868e-22)
(0.589295 0.225696 -1.46359e-21)
(0.674836 -0.0423711 1.75739e-21)
(0.758615 -0.271057 -3.75553e-22)
(0.824644 -0.425968 -4.19884e-22)
(0.86653 -0.508428 3.60019e-22)
(0.884031 -0.540324 8.78362e-22)
(0.883929 -0.541812 2.96431e-22)
(0.874485 -0.527683 4.31592e-24)
(0.854178 -0.517984 6.62272e-22)
(0.816029 -0.524454 -2.81056e-22)
(0.763965 -0.522946 -1.09521e-21)
(0.718472 -0.463061 6.29436e-22)
(0.174129 0.0873067 -7.12354e-21)
(0.278826 0.299859 2.49433e-21)
(0.378962 0.46715 -4.86693e-22)
(0.463558 0.575853 -4.63186e-21)
(0.525723 0.631927 3.81782e-21)
(0.565101 0.651107 -3.46192e-22)
(0.581197 0.654249 -8.00862e-23)
(0.568828 0.662134 3.5544e-21)
(0.534294 0.667265 -2.71442e-21)
(0.510756 0.617704 3.25457e-21)
(0.532974 0.463866 -8.67335e-22)
(0.599928 0.21922 -2.65792e-21)
(0.687407 -0.0500337 3.66789e-21)
(0.771161 -0.278012 -2.2599e-21)
(0.835619 -0.431079 -1.48583e-21)
(0.875296 -0.51125 -6.07662e-22)
(0.890584 -0.541103 -1.96897e-21)
(0.888354 -0.541295 7.59392e-22)
(0.877163 -0.526154 -1.1818e-21)
(0.855844 -0.514915 -3.83065e-22)
(0.817234 -0.519774 1.08981e-21)
(0.76446 -0.518193 6.18833e-22)
(0.717524 -0.460496 7.77952e-22)
(0.152102 0.0682836 -9.2734e-21)
(0.25744 0.281728 4.78164e-21)
(0.359477 0.45147 -6.2138e-21)
(0.446939 0.563953 -5.25912e-22)
(0.512523 0.62405 1.88403e-21)
(0.555309 0.646957 -1.23036e-21)
(0.573899 0.653799 -9.76272e-22)
(0.563192 0.665017 -1.11047e-21)
(0.531192 0.671124 1.53381e-21)
(0.512426 0.618909 2.65421e-21)
(0.540057 0.460737 4.66167e-21)
(0.61088 0.212963 -5.03617e-21)
(0.700199 -0.0572904 6.17915e-21)
(0.783857 -0.284501 -3.2335e-21)
(0.846686 -0.435764 -2.27515e-21)
(0.884111 -0.51374 3.49758e-21)
(0.897189 -0.541633 1.42693e-21)
(0.892857 -0.540597 -3.28622e-21)
(0.879939 -0.524518 8.75637e-22)
(0.857629 -0.511798 5.14143e-22)
(0.818598 -0.515053 -4.609e-22)
(0.765182 -0.513382 9.51753e-22)
(0.716826 -0.457916 -7.03725e-22)
(0.131354 0.0487175 -1.72195e-22)
(0.236992 0.262952 1.96294e-21)
(0.340638 0.435104 4.46964e-21)
(0.430741 0.55139 -3.19356e-21)
(0.499599 0.615578 1.91052e-22)
(0.545686 0.642341 -6.41378e-23)
(0.566701 0.65301 -1.79346e-21)
(0.557715 0.667568 -1.62522e-21)
(0.52844 0.674568 4.68283e-21)
(0.514573 0.619753 3.28286e-22)
(0.547549 0.457535 -2.28881e-21)
(0.62212 0.206945 -3.77418e-21)
(0.713186 -0.0641295 6.47819e-21)
(0.796686 -0.290522 -4.60473e-21)
(0.857835 -0.440023 9.07173e-22)
(0.892969 -0.515903 -1.11241e-21)
(0.903844 -0.541923 3.19585e-21)
(0.89744 -0.539724 -2.28019e-21)
(0.882814 -0.522783 7.57924e-22)
(0.859533 -0.508642 1.26573e-21)
(0.82012 -0.510301 -1.98335e-21)
(0.766131 -0.508518 -6.34658e-22)
(0.716385 -0.455315 1.53977e-21)
(0.111962 0.0286751 4.09235e-21)
(0.217541 0.24358 1.76306e-21)
(0.322485 0.41808 -1.54817e-21)
(0.414991 0.538175 2.08722e-21)
(0.486964 0.606515 3.55621e-21)
(0.536229 0.637255 -5.70277e-21)
(0.559599 0.651864 1.19221e-21)
(0.552396 0.669761 2.80867e-21)
(0.526033 0.677581 -1.75497e-21)
(0.517169 0.620248 6.5312e-21)
(0.555414 0.454285 -9.10808e-21)
(0.633614 0.201188 4.16557e-21)
(0.726343 -0.0705408 -6.52122e-21)
(0.809629 -0.29607 5.78233e-22)
(0.869056 -0.443858 -1.02165e-21)
(0.901867 -0.517743 2.82729e-21)
(0.910545 -0.541978 -1.53969e-21)
(0.902102 -0.538682 -1.23097e-21)
(0.885788 -0.520954 -2.70243e-22)
(0.861554 -0.505457 2.34015e-21)
(0.821797 -0.505527 1.18252e-21)
(0.767305 -0.503603 4.08317e-22)
(0.716204 -0.452682 -9.61494e-22)
(0.0939941 0.00828607 5.15518e-21)
(0.19914 0.223662 5.74143e-21)
(0.305055 0.40043 -5.8693e-21)
(0.399715 0.524325 -9.84995e-21)
(0.47463 0.596863 -2.93113e-22)
(0.526937 0.631693 1.23025e-21)
(0.552589 0.650347 8.92526e-21)
(0.547235 0.671572 -6.47264e-21)
(0.523962 0.68015 3.49868e-21)
(0.520187 0.620405 -6.60026e-21)
(0.563614 0.451011 4.84412e-21)
(0.64533 0.195708 -2.35867e-21)
(0.739644 -0.0765157 2.71599e-21)
(0.822668 -0.301144 -4.04631e-21)
(0.88034 -0.44727 4.65439e-22)
(0.9108 -0.519265 -1.91983e-21)
(0.917292 -0.541806 3.35489e-21)
(0.906844 -0.537477 -1.83072e-21)
(0.888861 -0.519038 1.15008e-21)
(0.863693 -0.502251 -2.00982e-21)
(0.823627 -0.500743 5.10933e-22)
(0.768699 -0.498642 -2.75712e-21)
(0.716288 -0.450011 1.64809e-21)
(0.0775072 -0.0124947 -7.31503e-22)
(0.181827 0.203248 7.96301e-21)
(0.288382 0.382189 -8.7569e-21)
(0.384938 0.509856 1.69802e-21)
(0.462607 0.586629 -4.27007e-21)
(0.517808 0.625653 6.59391e-21)
(0.545666 0.648442 4.31468e-21)
(0.542231 0.672978 1.01393e-21)
(0.522217 0.682265 -7.02793e-21)
(0.523597 0.620237 1.23976e-21)
(0.572113 0.447734 1.08146e-20)
(0.657236 0.190522 -1.64628e-21)
(0.753064 -0.082047 -8.32027e-21)
(0.835786 -0.305742 -9.40623e-22)
(0.891676 -0.450261 1.34987e-20)
(0.919762 -0.520473 -7.69186e-22)
(0.92408 -0.541416 -1.93052e-21)
(0.911664 -0.536116 4.83558e-22)
(0.892032 -0.517038 -7.92405e-22)
(0.865948 -0.499031 2.45764e-21)
(0.825606 -0.495957 -1.13053e-21)
(0.77031 -0.49364 3.54371e-21)
(0.71664 -0.447294 -2.00915e-21)
(0.687134 -0.322975 2.95363e-21)
(0.0625309 -0.0337527 1.76487e-21)
(0.165657 0.182392 -7.47831e-21)
(0.272498 0.363393 -4.99776e-22)
(0.370682 0.494786 1.13723e-20)
(0.450903 0.57582 -5.25487e-21)
(0.508836 0.619132 -8.55492e-21)
(0.538826 0.646133 8.12129e-21)
(0.537382 0.673957 9.81499e-22)
(0.520786 0.683916 -8.29242e-21)
(0.527368 0.619755 -5.56954e-21)
(0.580874 0.444475 2.15847e-21)
(0.669298 0.185643 7.49136e-21)
(0.766577 -0.0871291 -1.52973e-20)
(0.848963 -0.309866 3.87168e-21)
(0.903054 -0.452833 2.29421e-21)
(0.92875 -0.521373 -9.48931e-21)
(0.930906 -0.540813 -1.41647e-21)
(0.916562 -0.534605 1.52277e-21)
(0.895302 -0.514962 6.92707e-21)
(0.868316 -0.495806 -2.46786e-21)
(0.827731 -0.491179 1.59806e-21)
(0.772134 -0.488602 -5.7883e-21)
(0.717263 -0.444525 1.06114e-21)
(0.685962 -0.324022 4.05613e-22)
(0.0490861 -0.0552529 -8.91354e-21)
(0.150675 0.161152 2.17073e-21)
(0.257432 0.344081 2.17243e-21)
(0.356967 0.479136 -7.20212e-21)
(0.439522 0.564447 1.137e-20)
(0.500017 0.61213 -7.9942e-21)
(0.532065 0.643406 6.68479e-21)
(0.532685 0.674487 -1.1154e-20)
(0.519656 0.685095 1.15617e-20)
(0.531467 0.618974 4.74891e-21)
(0.589858 0.441253 6.30284e-21)
(0.681484 0.181085 -1.72392e-20)
(0.78016 -0.0917574 6.39132e-21)
(0.862183 -0.313515 -3.27219e-21)
(0.914464 -0.454989 1.61021e-21)
(0.937759 -0.521968 8.47005e-21)
(0.937767 -0.540005 -1.76273e-21)
(0.921538 -0.53295 1.40203e-21)
(0.898671 -0.512813 1.13717e-21)
(0.870796 -0.492583 -1.72853e-21)
(0.829999 -0.48642 1.43862e-21)
(0.774164 -0.483534 -2.41094e-21)
(0.718157 -0.441696 2.33376e-21)
(0.685035 -0.325075 3.41153e-22)
(0.0372129 -0.0767428 8.35976e-22)
(0.136899 0.139583 -1.07549e-20)
(0.243206 0.324292 9.76224e-21)
(0.34381 0.462929 -6.65152e-21)
(0.428468 0.552519 -4.95269e-21)
(0.491347 0.604643 5.76374e-22)
(0.525378 0.640246 2.01737e-21)
(0.528137 0.674549 -4.58919e-21)
(0.518811 0.685796 5.95674e-21)
(0.535863 0.617906 8.52267e-21)
(0.59903 0.438084 -1.75654e-20)
(0.693764 0.176855 5.63878e-21)
(0.793789 -0.0959292 1.13616e-20)
(0.875427 -0.316693 -1.60964e-20)
(0.925894 -0.456734 1.72398e-20)
(0.946782 -0.522264 2.48052e-21)
(0.94466 -0.539 -3.87267e-21)
(0.926589 -0.531158 -2.13005e-21)
(0.902137 -0.510596 1.90314e-21)
(0.873384 -0.489368 -2.67331e-21)
(0.832406 -0.481687 2.40765e-21)
(0.776395 -0.478443 1.82886e-21)
(0.719324 -0.438804 9.9733e-23)
(0.684359 -0.326118 1.07854e-21)
(0.0269453 -0.0981442 -4.95947e-21)
(0.124342 0.11774 -1.90455e-21)
(0.229841 0.30407 -3.30642e-22)
(0.331223 0.446191 2.47042e-21)
(0.417743 0.540051 -3.67095e-21)
(0.48282 0.596673 -1.07913e-21)
(0.51876 0.636637 1.46564e-22)
(0.523732 0.674125 7.71082e-21)
(0.518235 0.686015 -1.34077e-21)
(0.540523 0.616563 -9.71679e-22)
(0.608352 0.434984 -1.93191e-20)
(0.706105 0.172963 -4.18663e-21)
(0.80744 -0.0996425 1.17417e-20)
(0.888678 -0.3194 1.31648e-21)
(0.937334 -0.45807 6.2698e-22)
(0.955817 -0.522266 2.24188e-21)
(0.95158 -0.537804 -3.20253e-21)
(0.931714 -0.529235 -2.69995e-21)
(0.905701 -0.508315 -1.28054e-21)
(0.876079 -0.486167 1.96832e-21)
(0.834948 -0.476992 -2.98823e-21)
(0.77882 -0.473334 -1.2912e-22)
(0.72076 -0.435843 7.81342e-22)
(0.683942 -0.327136 -5.03141e-21)
(0.018325 -0.119356 4.13304e-21)
(0.113014 0.095682 -5.33618e-21)
(0.217351 0.283457 2.11231e-21)
(0.319217 0.428947 4.08353e-21)
(0.407346 0.527055 1.2739e-21)
(0.474427 0.588218 -8.68646e-23)
(0.512207 0.632566 1.82458e-21)
(0.519468 0.673198 -7.6434e-21)
(0.51791 0.685748 5.99588e-21)
(0.545413 0.614957 -2.62503e-23)
(0.617789 0.431964 1.28134e-20)
(0.718478 0.169415 -4.51929e-21)
(0.821091 -0.102897 -5.08935e-21)
(0.90192 -0.321642 6.61335e-22)
(0.948772 -0.459004 -9.84196e-21)
(0.964857 -0.521978 5.53434e-21)
(0.958524 -0.536424 -2.65733e-21)
(0.936911 -0.527186 2.40832e-21)
(0.909361 -0.505973 -3.52343e-22)
(0.878877 -0.482987 -2.24653e-21)
(0.83762 -0.472342 8.50298e-22)
(0.781432 -0.468216 -9.94683e-22)
(0.722464 -0.432811 4.28313e-21)
(0.683792 -0.328113 -3.05721e-21)
(0.0114161 -0.140238 7.36661e-21)
(0.102923 0.0734734 6.06204e-21)
(0.205745 0.262499 -8.47077e-23)
(0.307795 0.411225 3.97797e-21)
(0.397273 0.513549 7.47921e-22)
(0.466164 0.579281 -4.01608e-21)
(0.505714 0.62802 -7.23261e-22)
(0.515339 0.671752 2.91985e-21)
(0.517818 0.684995 7.83369e-21)
(0.550501 0.6131 -1.62089e-20)
(0.627305 0.429038 5.79751e-21)
(0.730852 0.166216 -6.72829e-21)
(0.834719 -0.105693 1.74751e-20)
(0.915137 -0.323421 1.19035e-23)
(0.960199 -0.459539 6.91681e-21)
(0.973898 -0.521405 -4.71159e-21)
(0.965489 -0.534866 -2.18051e-21)
(0.942176 -0.525018 2.19678e-21)
(0.913118 -0.503574 -1.82533e-21)
(0.881775 -0.479833 4.65962e-21)
(0.840418 -0.467746 -2.40102e-21)
(0.784224 -0.463096 2.6354e-21)
(0.72443 -0.429706 1.54338e-21)
(0.683915 -0.329037 -1.76614e-21)
(0.00631855 -0.160615 5.03979e-21)
(0.0940763 0.0511743 8.86716e-22)
(0.195028 0.241242 -3.12747e-21)
(0.296958 0.393056 1.4891e-21)
(0.387519 0.499547 1.73613e-21)
(0.458021 0.569861 2.00491e-21)
(0.499278 0.622986 -2.53395e-21)
(0.51134 0.669774 5.89967e-21)
(0.51794 0.683752 -1.37112e-20)
(0.555756 0.611002 -1.33615e-21)
(0.636866 0.426213 1.94258e-20)
(0.743198 0.163367 -1.96228e-20)
(0.848304 -0.108033 -6.32597e-21)
(0.928311 -0.324743 -2.87468e-21)
(0.971602 -0.459681 2.50919e-21)
(0.982934 -0.520553 -9.67713e-22)
(0.972469 -0.533138 -3.64805e-21)
(0.947507 -0.522738 7.32457e-22)
(0.916969 -0.501121 3.50787e-21)
(0.884769 -0.476709 -3.56646e-22)
(0.843336 -0.463213 -2.20659e-21)
(0.78719 -0.457982 -2.22511e-21)
(0.726652 -0.426526 3.60709e-22)
(0.684319 -0.329892 3.10828e-21)
(0.0031792 -0.180271 -3.61856e-21)
(0.0864909 0.0289127 -3.56734e-21)
(0.185202 0.219737 -3.25569e-21)
(0.286703 0.37447 5.98129e-21)
(0.378077 0.485069 -3.68722e-21)
(0.449994 0.559961 4.9464e-21)
(0.492896 0.617454 -7.42976e-22)
(0.507465 0.667251 -3.27428e-21)
(0.518259 0.682022 7.32589e-22)
(0.561146 0.608674 -1.22413e-20)
(0.646438 0.423498 -1.70618e-21)
(0.755488 0.16087 1.68226e-20)
(0.861825 -0.10992 1.20877e-20)
(0.941429 -0.325612 -1.46545e-20)
(0.982971 -0.459435 -7.60639e-22)
(0.991961 -0.519425 1.10362e-21)
(0.979461 -0.531246 8.05026e-22)
(0.952901 -0.52035 -5.15261e-21)
(0.920915 -0.498617 2.80657e-21)
(0.887857 -0.473618 -1.12368e-21)
(0.846369 -0.458751 -1.47377e-21)
(0.790322 -0.452881 2.19081e-22)
(0.729124 -0.423271 -2.33212e-21)
(0.685008 -0.330666 -1.57763e-22)
(0.00220877 -0.198909 -1.56939e-20)
(0.0802001 0.00711838 1.54902e-20)
(0.176264 0.198039 -1.00908e-20)
(0.277023 0.355501 3.52953e-22)
(0.368937 0.470133 3.97347e-21)
(0.442074 0.549583 -2.81116e-21)
(0.486565 0.611411 -3.83389e-21)
(0.503711 0.664173 6.63003e-21)
(0.518754 0.679805 4.6105e-21)
(0.56664 0.606126 -1.13064e-20)
(0.655988 0.420899 7.58246e-21)
(0.767694 0.158724 -7.52129e-22)
(0.875263 -0.111358 -3.39967e-21)
(0.954474 -0.326035 1.39845e-20)
(0.994294 -0.458808 6.97721e-21)
(1.00097 -0.518027 1.28565e-21)
(0.986462 -0.529194 -9.2404e-21)
(0.958353 -0.517862 3.41236e-21)
(0.924953 -0.496064 1.59603e-21)
(0.891034 -0.470566 -8.99679e-22)
(0.84951 -0.454368 1.50295e-21)
(0.793614 -0.447803 -8.44047e-23)
(0.731836 -0.419943 -2.00871e-21)
(0.685987 -0.331348 1.4137e-21)
(0.00370024 -0.216238 -1.13423e-20)
(0.0752553 -0.0148249 8.10232e-21)
(0.168174 0.17618 5.16609e-21)
(0.267909 0.336182 -4.14345e-21)
(0.360092 0.454758 -8.32931e-21)
(0.434256 0.53873 5.33913e-21)
(0.480283 0.60485 -1.26483e-21)
(0.500071 0.66053 -6.27363e-21)
(0.519409 0.677102 -6.09693e-22)
(0.572209 0.603365 3.91403e-21)
(0.665487 0.418419 -1.4996e-22)
(0.779792 0.156926 7.25616e-21)
(0.8886 -0.112353 7.69768e-21)
(0.967434 -0.326018 -1.5223e-20)
(1.00556 -0.457806 1.91421e-21)
(1.00996 -0.516364 1.67707e-21)
(0.993467 -0.52699 -6.62121e-22)
(0.96386 -0.515279 3.35696e-21)
(0.929083 -0.493464 3.15701e-21)
(0.894298 -0.467553 -3.58917e-21)
(0.852753 -0.450071 3.38566e-22)
(0.797059 -0.442755 4.77168e-22)
(0.73478 -0.416544 3.33537e-21)
(0.687256 -0.331927 -1.43394e-21)
(0.00783881 -0.232211 -7.5627e-21)
(0.0717327 -0.0369174 4.77708e-22)
(0.161031 0.154258 -6.20432e-21)
(0.259356 0.316552 9.87943e-21)
(0.351533 0.438963 -7.17961e-21)
(0.426535 0.527404 3.49778e-21)
(0.474052 0.59776 -9.31478e-21)
(0.496544 0.656314 1.95568e-20)
(0.520207 0.673916 -1.65887e-20)
(0.577827 0.600399 1.41016e-20)
(0.674902 0.416061 8.06852e-21)
(0.791757 0.155472 -1.69057e-20)
(0.90182 -0.112909 -1.79202e-21)
(0.980293 -0.325566 -9.24284e-21)
(1.01676 -0.456436 7.17286e-21)
(1.01892 -0.51444 1.43906e-21)
(1.00047 -0.524637 -6.28867e-21)
(0.969417 -0.512606 3.33268e-21)
(0.933304 -0.490821 3.8462e-22)
(0.897647 -0.464583 -2.20113e-21)
(0.856092 -0.445868 1.85339e-22)
(0.800649 -0.437746 -1.40225e-21)
(0.737945 -0.413077 5.83161e-22)
(0.688817 -0.332395 -7.54677e-22)
(0.0149751 -0.246655 5.53224e-21)
(0.0697944 -0.0581105 -1.12306e-21)
(0.15484 0.132346 -2.27414e-21)
(0.25136 0.296651 5.61746e-22)
(0.343253 0.422771 -8.70042e-22)
(0.41891 0.515611 1.38373e-21)
(0.467873 0.590136 -2.62912e-21)
(0.493125 0.65152 8.72976e-21)
(0.52113 0.670249 2.23505e-21)
(0.583466 0.597234 8.3857e-21)
(0.684207 0.413827 -2.22552e-20)
(0.803566 0.154357 1.87251e-20)
(0.914907 -0.113035 3.48511e-21)
(0.993041 -0.324687 -4.75985e-21)
(1.02788 -0.454703 -6.91056e-21)
(1.02785 -0.51226 6.09127e-21)
(1.00748 -0.522142 -3.02561e-21)
(0.97502 -0.509851 1.14776e-22)
(0.937613 -0.488135 5.49342e-21)
(0.901076 -0.461656 -7.41677e-22)
(0.85952 -0.441766 -2.45981e-22)
(0.804378 -0.432786 3.90014e-21)
(0.741321 -0.409545 -4.52927e-22)
(0.690667 -0.332743 -6.03891e-23)
(0.0254358 -0.259306 -5.19183e-21)
(0.0696529 -0.0782916 7.05129e-22)
(0.149632 0.110533 -1.32401e-21)
(0.243925 0.276524 7.07807e-21)
(0.335249 0.406204 -2.10896e-21)
(0.411381 0.503356 7.546e-22)
(0.461749 0.58197 7.54464e-22)
(0.489812 0.646141 -1.74511e-20)
(0.522165 0.666105 6.77395e-22)
(0.589102 0.593877 1.8301e-20)
(0.693375 0.411715 9.29193e-21)
(0.815199 0.153574 -1.09776e-20)
(0.927848 -0.112738 -4.20339e-22)
(1.00566 -0.323389 -9.18648e-22)
(1.03891 -0.452614 1.92887e-21)
(1.03675 -0.509829 -8.04488e-21)
(1.01447 -0.519509 -1.0655e-20)
(0.980664 -0.507018 3.38285e-21)
(0.942009 -0.485409 -1.22661e-21)
(0.904585 -0.458773 -3.24478e-21)
(0.863028 -0.437769 1.82442e-21)
(0.808237 -0.427883 3.9133e-22)
(0.744899 -0.405954 5.98937e-22)
(0.692799 -0.332966 -7.94704e-22)
(0.0394767 -0.269962 6.31118e-21)
(0.0715752 -0.0973366 3.8635e-21)
(0.145483 0.0889353 -4.63392e-21)
(0.237069 0.256227 3.98677e-21)
(0.327524 0.389285 -1.59603e-21)
(0.403952 0.490643 -1.24044e-21)
(0.455687 0.573258 9.00108e-21)
(0.486607 0.640175 -2.99823e-22)
(0.523298 0.661487 3.42023e-22)
(0.594713 0.590332 -2.8686e-21)
(0.70238 0.409724 -1.13103e-20)
(0.826638 0.153113 2.40437e-20)
(0.940632 -0.112028 -1.03242e-20)
(1.01815 -0.321676 1.2252e-20)
(1.04984 -0.450177 -2.06339e-20)
(1.04559 -0.507151 -7.04088e-21)
(1.02146 -0.516743 1.32943e-20)
(0.986345 -0.504114 -3.09235e-21)
(0.946489 -0.482645 -4.4075e-22)
(0.90817 -0.455934 3.25781e-21)
(0.86661 -0.433885 -2.4417e-21)
(0.81222 -0.423046 -1.41041e-22)
(0.74867 -0.402307 -8.42445e-22)
(0.695206 -0.333058 2.4275e-21)
(0.0758739 -0.11507 -4.49296e-21)
(0.142516 0.0676966 -8.68651e-22)
(0.230825 0.235822 9.67825e-22)
(0.320091 0.372043 3.06675e-21)
(0.396635 0.477481 2.98205e-21)
(0.449696 0.563998 4.27559e-21)
(0.483509 0.63362 -9.17917e-21)
(0.524517 0.656399 3.27956e-22)
(0.600278 0.586604 4.07149e-21)
(0.7112 0.40785 3.12636e-21)
(0.837869 0.152965 -6.64794e-21)
(0.953251 -0.110913 -4.22432e-21)
(1.03049 -0.319558 -1.26076e-20)
(1.06065 -0.447398 3.24126e-21)
(1.05439 -0.504233 5.23886e-21)
(1.02844 -0.513848 6.04259e-21)
(0.992058 -0.501143 -2.62089e-21)
(0.95105 -0.479846 -4.27608e-21)
(0.91183 -0.453138 1.39627e-21)
(0.870259 -0.430117 1.47028e-22)
(0.816317 -0.418284 -5.17158e-23)
(0.752623 -0.398612 2.72444e-21)
(0.697879 -0.333015 1.26339e-21)
(0.0828853 -0.131289 -3.61172e-22)
(0.140908 0.0469816 6.4799e-22)
(0.225255 0.215382 -2.68735e-21)
(0.312974 0.354508 -5.41994e-22)
(0.389445 0.46388 4.66178e-21)
(0.443791 0.554188 -9.18476e-21)
(0.480522 0.626475 -4.4784e-22)
(0.525813 0.650845 1.69532e-21)
(0.605778 0.582695 1.10393e-20)
(0.719815 0.406088 -2.28096e-20)
(0.848881 0.153118 5.58836e-22)
(0.965698 -0.109405 3.67717e-20)
(1.04268 -0.317041 -1.33265e-20)
(1.07135 -0.444283 2.44805e-21)
(1.06312 -0.501078 3.777e-24)
(1.03539 -0.510826 -1.09889e-20)
(0.997797 -0.498112 8.35546e-21)
(0.95569 -0.477012 -5.57712e-21)
(0.915563 -0.450385 4.12353e-21)
(0.873967 -0.426471 -3.09142e-21)
(0.820519 -0.413606 -3.87171e-21)
(0.756752 -0.394873 8.46295e-22)
(0.700805 -0.332836 1.28267e-21)
(0.0929352 -0.145815 1.51716e-21)
(0.140892 0.0269974 -9.38841e-22)
(0.22045 0.194999 9.68239e-22)
(0.306212 0.33672 8.63272e-22)
(0.382408 0.449852 1.65479e-21)
(0.437987 0.54383 -4.116e-21)
(0.477652 0.618741 -3.76062e-22)
(0.527178 0.64483 9.52293e-21)
(0.611196 0.578608 4.01336e-21)
(0.728206 0.404432 7.55661e-21)
(0.859666 0.15356 -2.15054e-20)
(0.977971 -0.107512 1.69336e-20)
(1.0547 -0.314132 -5.5662e-21)
(1.08191 -0.44084 1.84141e-21)
(1.07179 -0.497692 -1.41476e-20)
(1.04233 -0.507683 1.8051e-20)
(1.00356 -0.495024 -5.12976e-22)
(0.960406 -0.474146 -7.49479e-21)
(0.919369 -0.447672 5.69388e-21)
(0.877728 -0.422949 9.68164e-22)
(0.824817 -0.409022 2.88553e-22)
(0.761047 -0.391099 -3.96717e-21)
(0.703971 -0.332519 9.65537e-23)
(0.106302 -0.158532 2.37198e-21)
(0.142757 0.00810266 -7.87599e-22)
(0.216538 0.174787 -9.99193e-22)
(0.299864 0.318723 -5.44544e-22)
(0.375559 0.435414 2.70835e-21)
(0.432309 0.532928 -2.85302e-21)
(0.474908 0.610423 7.00048e-21)
(0.528607 0.638359 -1.66183e-21)
(0.616519 0.574345 6.26665e-21)
(0.736358 0.402875 -1.0051e-20)
(0.870222 0.154275 -7.88382e-22)
(0.990071 -0.105248 -2.65175e-20)
(1.06656 -0.310837 1.22938e-20)
(1.09233 -0.437074 -2.21436e-21)
(1.08039 -0.494079 -6.27449e-21)
(1.04925 -0.504422 1.04385e-20)
(1.00934 -0.491886 -7.14921e-21)
(0.965193 -0.471251 7.09006e-21)
(0.923245 -0.444998 -2.20352e-21)
(0.881536 -0.419554 -1.38264e-23)
(0.8292 -0.40454 -1.54266e-21)
(0.765502 -0.387295 -1.23481e-21)
(0.707364 -0.332064 -1.32461e-21)
(0.123191 -0.1693 4.0846e-22)
(0.146838 -0.00964002 -4.28939e-22)
(0.21368 0.154868 4.41266e-22)
(0.294014 0.300574 -2.25501e-21)
(0.368945 0.420588 5.82653e-21)
(0.426784 0.521489 -9.41794e-21)
(0.472302 0.601524 -8.41711e-23)
(0.530098 0.631438 -7.51607e-21)
(0.621733 0.569906 8.56516e-21)
(0.744258 0.401406 -1.07982e-20)
(0.880557 0.155249 3.41854e-20)
(1.00201 -0.102621 -2.8631e-20)
(1.07823 -0.307162 3.14184e-20)
(1.10259 -0.432993 -1.69554e-20)
(1.08891 -0.490245 4.70549e-21)
(1.05614 -0.501044 4.45539e-21)
(1.01513 -0.488701 -9.05021e-21)
(0.970047 -0.468329 -6.75828e-22)
(0.927192 -0.442359 7.59353e-21)
(0.885384 -0.416288 -1.01961e-21)
(0.833659 -0.40017 1.45635e-21)
(0.770108 -0.38347 -7.56082e-22)
(0.710971 -0.331472 -9.59239e-22)
(0.143645 -0.17793 -8.16388e-22)
(0.153483 -0.0263686 7.57692e-22)
(0.212114 0.135392 -5.8949e-22)
(0.288774 0.282341 -1.20317e-21)
(0.362628 0.405401 1.52965e-21)
(0.42145 0.509525 -5.29233e-21)
(0.469848 0.592052 1.01198e-20)
(0.53165 0.624071 -8.26945e-21)
(0.626827 0.565292 -7.05814e-21)
(0.751899 0.400015 2.37052e-20)
(0.890684 0.156464 -1.72712e-20)
(1.01378 -0.0996442 1.22009e-20)
(1.08972 -0.303113 1.16219e-20)
(1.11269 -0.428601 7.57688e-21)
(1.09735 -0.486195 -1.74788e-20)
(1.063 -0.497554 -6.87188e-21)
(1.02093 -0.485473 5.88839e-21)
(0.974965 -0.465382 2.27233e-21)
(0.931207 -0.439754 -3.73158e-21)
(0.889268 -0.41315 3.39331e-22)
(0.838182 -0.395921 -2.02909e-21)
(0.774858 -0.379631 1.8963e-21)
(0.71478 -0.330742 2.72817e-21)
(0.167557 -0.184387 -2.36591e-23)
(0.163009 -0.0416855 -2.09303e-22)
(0.212136 0.116537 -3.13006e-22)
(0.284293 0.264109 8.65475e-22)
(0.35669 0.38989 -4.80769e-22)
(0.416349 0.497052 -7.93733e-22)
(0.467568 0.582016 5.43324e-21)
(0.533267 0.616266 1.99859e-21)
(0.631792 0.560502 -1.82753e-20)
(0.759279 0.398688 1.60068e-20)
(0.900634 0.1579 -2.5361e-21)
(1.02543 -0.0963276 -1.76913e-20)
(1.10102 -0.298694 -6.67758e-21)
(1.12261 -0.423904 7.34776e-21)
(1.10569 -0.481931 5.58637e-22)
(1.06983 -0.493952 -7.1784e-21)
(1.02673 -0.482207 1.08307e-20)
(0.979942 -0.462412 -7.77969e-21)
(0.935291 -0.437177 8.38572e-21)
(0.893182 -0.410142 -1.86532e-21)
(0.842759 -0.391801 -2.00048e-21)
(0.779743 -0.375786 -4.44521e-22)
(0.718781 -0.329877 -2.50003e-21)
(0.194722 -0.188821 -7.77366e-22)
(0.175685 -0.0551917 1.79197e-21)
(0.214061 0.0984754 -9.09895e-22)
(0.280763 0.245979 -6.28055e-22)
(0.351233 0.3741 4.77429e-22)
(0.411538 0.484091 -2.54904e-23)
(0.465485 0.57143 1.15013e-21)
(0.534955 0.608029 -5.71412e-22)
(0.636621 0.555536 6.82529e-21)
(0.766405 0.39741 1.49124e-20)
(0.910452 0.159538 -1.90013e-20)
(1.03697 -0.0926801 -3.87064e-21)
(1.11212 -0.293906 -1.12457e-20)
(1.13234 -0.418906 3.62395e-20)
(1.11392 -0.477463 -1.61132e-20)
(1.07663 -0.490244 4.66588e-21)
(1.03253 -0.478908 2.91079e-21)
(0.984972 -0.459426 -6.22191e-21)
(0.939442 -0.434629 -3.3172e-21)
(0.897123 -0.407262 1.67765e-21)
(0.847379 -0.38782 1.57668e-21)
(0.784755 -0.371946 -2.42578e-21)
(0.722965 -0.328878 -2.75406e-21)
(0.2248 -0.191419 -1.24858e-22)
(0.191689 -0.0668617 1.72816e-21)
(0.218237 0.0813763 -1.94054e-21)
(0.278426 0.22807 -9.51792e-22)
(0.346392 0.35809 5.21707e-22)
(0.407085 0.47067 -1.0354e-21)
(0.463631 0.56031 5.98795e-22)
(0.536725 0.599371 1.11976e-20)
(0.641308 0.550392 -4.8009e-21)
(0.773302 0.396162 -6.48913e-21)
(0.920218 0.161357 -1.1137e-20)
(1.04843 -0.0887035 2.19168e-20)
(1.12302 -0.288749 -1.7864e-20)
(1.14188 -0.413618 1.77525e-20)
(1.12205 -0.4728 -1.17017e-20)
(1.08338 -0.486438 -4.75359e-21)
(1.03833 -0.475585 1.65439e-21)
(0.990052 -0.456428 5.1837e-21)
(0.94366 -0.432108 -6.50225e-21)
(0.901087 -0.40451 3.39576e-21)
(0.85203 -0.383986 4.20287e-21)
(0.789882 -0.368121 -5.67751e-21)
(0.727326 -0.327749 2.1045e-21)
(0.257339 -0.192384 3.36451e-21)
(0.211067 -0.0767155 -1.69274e-21)
(0.22502 0.0654086 -8.84304e-22)
(0.277584 0.210516 -6.5991e-22)
(0.342343 0.341933 3.63878e-22)
(0.403082 0.456827 -2.86234e-21)
(0.46205 0.548676 6.11912e-22)
(0.53859 0.590301 3.62558e-21)
(0.645853 0.545067 8.43527e-21)
(0.780029 0.394923 4.82709e-21)
(0.93005 0.16334 -2.61249e-20)
(1.05988 -0.0844018 2.10542e-20)
(1.13372 -0.283225 1.72958e-21)
(1.1512 -0.408041 -3.11587e-21)
(1.13006 -0.467943 -5.05736e-21)
(1.0901 -0.482527 9.23915e-21)
(1.04412 -0.472231 -3.56952e-21)
(0.995176 -0.453415 3.64481e-21)
(0.947944 -0.429604 -2.30513e-21)
(0.905071 -0.401878 1.79569e-21)
(0.856702 -0.380302 -1.87344e-21)
(0.795115 -0.364317 1.39862e-21)
(0.731859 -0.326486 -1.53588e-21)
(0.291817 -0.191884 1.93663e-21)
(0.233712 -0.0847443 -4.4924e-21)
(0.234737 0.0507428 -2.25589e-24)
(0.278604 0.193479 -8.44521e-22)
(0.339332 0.325722 1.95006e-21)
(0.399664 0.44261 -8.53449e-22)
(0.460808 0.53655 -3.06343e-21)
(0.540583 0.580828 1.31752e-20)
(0.650281 0.539548 -1.15365e-20)
(0.786713 0.393647 -7.02501e-21)
(0.940139 0.165426 1.72701e-20)
(1.07138 -0.0798154 -3.78883e-20)
(1.14419 -0.277344 1.13007e-20)
(1.16029 -0.402157 2.2405e-20)
(1.13795 -0.462852 -1.89684e-20)
(1.09677 -0.478467 6.63826e-21)
(1.0499 -0.468808 -9.83442e-23)
(1.00034 -0.450359 2.61207e-21)
(0.952293 -0.427092 -9.45223e-22)
(0.909073 -0.399345 -5.91256e-22)
(0.861386 -0.376763 1.32748e-21)
(0.800442 -0.360537 -3.37004e-21)
(0.736558 -0.325085 2.41787e-21)
(0.327664 -0.190139 3.61633e-21)
(0.259348 -0.0910117 5.38589e-22)
(0.247633 0.0375091 -2.39127e-22)
(0.281909 0.177125 -6.64883e-22)
(0.337703 0.309576 -1.41679e-21)
(0.397051 0.428083 -4.92601e-22)
(0.460032 0.52396 1.19856e-21)
(0.542779 0.570946 -1.78498e-21)
(0.654679 0.53378 -1.12976e-21)
(0.793626 0.39222 -6.73134e-21)
(0.950779 0.16751 -1.09551e-20)
(1.083 -0.0749808 2.69315e-20)
(1.15444 -0.27109 -2.10531e-20)
(1.16914 -0.395946 2.95415e-20)
(1.1457 -0.457517 -2.33143e-20)
(1.1034 -0.474255 9.86653e-21)
(1.05567 -0.465324 -3.45733e-21)
(1.00553 -0.44727 8.24784e-22)
(0.956703 -0.424577 6.2902e-22)
(0.913091 -0.396915 1.39654e-21)
(0.86607 -0.373386 -1.13817e-21)
(0.805851 -0.356808 -1.66673e-21)
(0.74142 -0.323569 2.57918e-21)
(0.287554 -0.0960081 -2.65639e-21)