/*--------------------------------*- C++ -*----------------------------------*\
  =========                 |
  \\      /  F ield         | OpenFOAM: The Open Source CFD Toolbox
   \\    /   O peration     | Website:  https://openfoam.org
    \\  /    A nd           | Version:  7
     \\/     M anipulation  |
\*---------------------------------------------------------------------------*/
FoamFile
{
    version     2.0;
    format      ascii;
    class       volVectorField;
    location    "260";
    object      U;
}
// * * * * * * * * * * * * * * * * * * * * * * * * * * * * * * * * * * * * * //

dimensions      [0 1 -1 0 0 0 0];

internalField   nonuniform List<vector> 
7156
(
(0.758338 -0.499045 -1.91325e-22)
(0.734422 -0.40619 3.2029e-23)
(0.726063 -0.255638 3.9482e-23)
(0.734561 -0.0722853 -9.70208e-23)
(0.757525 0.108999 7.47716e-25)
(0.788876 0.259106 -1.38068e-23)
(0.820791 0.364234 -1.77165e-23)
(0.847837 0.424895 6.84017e-24)
(0.868 0.450853 -1.59151e-22)
(0.879366 0.458717 -1.02999e-22)
(0.878905 0.46624 -3.9359e-23)
(0.865204 0.479822 5.40784e-23)
(0.840784 0.486915 -1.37366e-22)
(0.811577 0.463546 4.08191e-25)
(0.78434 0.391257 1.25385e-23)
(0.76439 0.269279 4.72356e-23)
(0.75552 0.114478 5.45384e-23)
(0.759859 -0.0462022 -7.08925e-23)
(0.776851 -0.186159 1.04555e-22)
(0.801921 -0.288994 -1.27667e-23)
(0.826988 -0.355011 1.2058e-22)
(0.843038 -0.395974 -1.97503e-23)
(0.844807 -0.422862 -6.98173e-23)
(0.832194 -0.435371 5.42821e-23)
(0.809571 -0.423498 -3.30334e-23)
(0.783741 -0.37511 4.40072e-23)
(0.762213 -0.285185 5.87038e-23)
(0.750312 -0.160971 1.23695e-23)
(0.751307 -0.020207 2.19739e-23)
(0.756601 -0.496272 1.03837e-22)
(0.731865 -0.404729 -1.92261e-22)
(0.722854 -0.25578 -8.90428e-23)
(0.730961 -0.0739109 1.00142e-22)
(0.753804 0.106348 1.00252e-22)
(0.785282 0.256107 1.17806e-22)
(0.817591 0.361499 8.5327e-24)
(0.845299 0.422744 2.45467e-22)
(0.866254 0.449436 1.12003e-22)
(0.878363 0.458211 5.7948e-23)
(0.878548 0.466791 -9.31589e-23)
(0.865445 0.481354 -1.09257e-22)
(0.841621 0.489069 2.32402e-22)
(0.813005 0.465819 -1.05999e-22)
(0.786265 0.39318 -3.23493e-22)
(0.766626 0.270502 9.21622e-24)
(0.757849 0.114775 -2.71797e-22)
(0.762065 -0.0468855 1.05562e-22)
(0.778744 -0.187623 1.71845e-22)
(0.803393 -0.290759 1.86553e-22)
(0.828045 -0.356449 4.10139e-23)
(0.843719 -0.396578 -1.13606e-22)
(0.845115 -0.422465 5.84847e-23)
(0.832134 -0.434154 1.58549e-22)
(0.809166 -0.421868 1.21109e-23)
(0.783034 -0.373561 1.94467e-22)
(0.761324 -0.284137 -7.96844e-23)
(0.749428 -0.160681 -7.47218e-23)
(0.750572 -0.020721 -7.82067e-23)
(0.755015 -0.493493 3.09687e-22)
(0.729461 -0.403331 7.65204e-23)
(0.719789 -0.256051 -2.00876e-22)
(0.727489 -0.0757017 -3.51976e-22)
(0.750188 0.103529 -3.08448e-22)
(0.781772 0.252959 -6.38262e-23)
(0.81446 0.358638 4.53383e-23)
(0.842819 0.42049 -3.01979e-22)
(0.864559 0.447936 3.12684e-22)
(0.877411 0.457637 -1.53666e-22)
(0.878251 0.467279 1.95447e-22)
(0.86576 0.482825 5.4889e-24)
(0.842549 0.491182 -2.94444e-22)
(0.814534 0.468087 -3.44147e-22)
(0.788295 0.395147 6.96185e-22)
(0.768966 0.271815 -1.32485e-22)
(0.760278 0.115191 1.38469e-22)
(0.764364 -0.0474442 4.01253e-22)
(0.780722 -0.188975 -9.074e-23)
(0.804937 -0.292437 2.75644e-22)
(0.829164 -0.357824 6.41898e-23)
(0.844464 -0.397137 -3.83392e-22)
(0.845494 -0.422034 8.57968e-23)
(0.832156 -0.432915 -1.29399e-22)
(0.808853 -0.420234 2.37672e-23)
(0.782427 -0.372033 -1.10112e-22)
(0.760535 -0.283137 -8.8691e-24)
(0.748638 -0.160461 -8.84774e-23)
(0.749922 -0.0213098 5.62711e-24)
(0.753582 -0.490707 1.58322e-22)
(0.727213 -0.401993 -4.58273e-22)
(0.71687 -0.256445 2.32608e-22)
(0.724145 -0.0776524 6.34962e-22)
(0.746677 0.100547 -3.16308e-22)
(0.778346 0.249665 1.27593e-21)
(0.811397 0.355651 -1.93483e-22)
(0.840396 0.41813 -2.91774e-22)
(0.862914 0.446354 1.83868e-22)
(0.876508 0.456995 -5.96803e-24)
(0.878013 0.467701 5.21032e-22)
(0.866149 0.484234 -4.85574e-22)
(0.843566 0.493249 5.471e-22)
(0.816164 0.470349 1.15632e-21)
(0.790431 0.397159 -1.24318e-21)
(0.77141 0.273219 3.56345e-22)
(0.762806 0.115726 1.85147e-22)
(0.766756 -0.0478765 -7.30941e-23)
(0.782785 -0.190214 -4.10872e-22)
(0.806555 -0.294028 -1.98668e-22)
(0.830348 -0.359139 -4.51105e-22)
(0.845273 -0.397651 4.74525e-22)
(0.845944 -0.421569 -1.88e-23)
(0.832257 -0.431654 -2.70923e-22)
(0.808631 -0.418598 1.78028e-22)
(0.78192 -0.370527 -3.50487e-22)
(0.759846 -0.282186 -7.4713e-22)
(0.747943 -0.160309 -4.76293e-22)
(0.749356 -0.0219719 2.3318e-23)
(0.752304 -0.487913 4.78379e-22)
(0.725122 -0.40071 3.8149e-22)
(0.7141 -0.256959 -1.07113e-21)
(0.720932 -0.0797582 -1.03942e-21)
(0.743274 0.0974056 2.81977e-22)
(0.775004 0.246226 -9.13976e-22)
(0.808402 0.352539 -3.8562e-22)
(0.838031 0.415667 7.0553e-22)
(0.861317 0.444688 -5.44791e-22)
(0.875653 0.456281 1.01628e-22)
(0.877831 0.468054 -7.17713e-23)
(0.866609 0.485576 1.63041e-22)
(0.844671 0.495269 -5.97092e-22)
(0.817892 0.472603 -7.82387e-22)
(0.792668 0.399216 1.02063e-21)
(0.773956 0.274716 -1.05187e-21)
(0.765433 0.116384 7.25315e-23)
(0.769242 -0.0481805 -2.19225e-22)
(0.784934 -0.191338 9.29679e-22)
(0.808247 -0.29553 2.33687e-22)
(0.831596 -0.360392 -1.38649e-22)
(0.846146 -0.398122 -4.37654e-22)
(0.846465 -0.421072 3.76319e-22)
(0.832439 -0.430374 -7.50935e-23)
(0.8085 -0.41696 -5.6386e-22)
(0.781512 -0.369041 -1.79242e-22)
(0.759256 -0.281281 5.26606e-22)
(0.74734 -0.160223 6.21486e-22)
(0.748873 -0.0227059 1.5199e-22)
(0.751183 -0.485111 3.8756e-22)
(0.723191 -0.399479 -1.07218e-22)
(0.711479 -0.257585 2.82599e-22)
(0.71785 -0.0820137 5.73841e-22)
(0.739977 0.0941089 -7.695e-22)
(0.771745 0.242645 7.62483e-22)
(0.805475 0.349303 1.5123e-22)
(0.83572 0.413099 2.93858e-22)
(0.859766 0.442936 -1.58649e-22)
(0.874844 0.455493 -5.69738e-22)
(0.877706 0.468336 4.55526e-22)
(0.867139 0.486851 -3.47658e-22)
(0.84586 0.49724 -6.91933e-24)
(0.819717 0.474849 -9.66732e-22)
(0.795006 0.401318 -3.75885e-22)
(0.776603 0.276306 1.69581e-21)
(0.768157 0.117164 -4.13463e-22)
(0.77182 -0.0483546 -3.55637e-23)
(0.787168 -0.192345 -1.99191e-22)
(0.810014 -0.296942 -3.84393e-22)
(0.832908 -0.361584 -6.0376e-22)
(0.847083 -0.398552 5.32707e-22)
(0.847058 -0.420545 -2.5487e-22)
(0.832701 -0.429076 8.64349e-22)
(0.80846 -0.415321 -1.66669e-23)
(0.781203 -0.367578 6.5108e-22)
(0.758764 -0.280423 9.81206e-22)
(0.746828 -0.160203 -2.6181e-22)
(0.74847 -0.0235103 -8.84061e-22)
(0.750221 -0.482298 2.50631e-22)
(0.721422 -0.398295 1.80377e-22)
(0.709008 -0.258319 -1.44384e-21)
(0.714899 -0.0844136 1.08999e-21)
(0.736786 0.0906611 2.88924e-22)
(0.76857 0.238924 1.46385e-22)
(0.802614 0.345944 6.80583e-22)
(0.833463 0.410426 -1.29478e-21)
(0.85826 0.441099 1.29795e-21)
(0.874081 0.454631 3.4413e-22)
(0.877634 0.468542 5.54894e-23)
(0.867737 0.488054 -6.27334e-23)
(0.847133 0.49916 1.38917e-21)
(0.821635 0.477085 1.26256e-21)
(0.797442 0.403465 4.60189e-22)
(0.779347 0.27799 -1.68463e-21)
(0.770977 0.118068 -3.61515e-22)
(0.77449 -0.0483971 6.9179e-22)
(0.789489 -0.193234 2.61819e-22)
(0.811858 -0.298262 -6.53525e-22)
(0.834287 -0.362715 5.1498e-22)
(0.848085 -0.398942 9.42888e-23)
(0.847723 -0.41999 -2.94651e-22)
(0.833044 -0.427761 -2.20555e-22)
(0.808509 -0.413681 -4.03656e-22)
(0.780991 -0.366135 1.41508e-22)
(0.75837 -0.279611 -3.74902e-22)
(0.746406 -0.160247 -2.64903e-22)
(0.748146 -0.0243835 9.45956e-22)
(0.749418 -0.479474 -8.36836e-23)
(0.719816 -0.397154 1.31533e-21)
(0.70669 -0.259155 -1.2154e-21)
(0.712079 -0.0869523 -1.07899e-21)
(0.733702 0.0870666 2.58355e-22)
(0.765479 0.235066 -6.47404e-22)
(0.799819 0.342463 -6.27665e-22)
(0.831259 0.407649 7.25139e-22)
(0.856798 0.439175 7.02299e-22)
(0.87336 0.453691 -1.18382e-21)
(0.877614 0.468672 2.03219e-22)
(0.868401 0.489182 2.70959e-22)
(0.848487 0.501025 -7.75005e-22)
(0.823644 0.47931 1.78668e-22)
(0.799975 0.405655 2.26104e-21)
(0.782189 0.279767 -2.18792e-21)
(0.773891 0.119098 2.39987e-21)
(0.777251 -0.0483066 -1.29716e-21)
(0.791895 -0.194003 -3.54698e-22)
(0.813777 -0.299491 -4.20899e-23)
(0.835731 -0.363785 3.57439e-22)
(0.849151 -0.399293 -4.58791e-22)
(0.84846 -0.419408 -2.15855e-22)
(0.833466 -0.426431 -1.9379e-22)
(0.808648 -0.412043 4.62589e-22)
(0.780877 -0.364714 1.11298e-22)
(0.758072 -0.278842 4.51435e-23)
(0.746073 -0.160353 -6.59363e-22)
(0.747899 -0.025324 -1.05216e-21)
(0.748776 -0.476638 -5.21541e-22)
(0.718374 -0.396051 -1.09558e-21)
(0.704523 -0.260087 3.34146e-21)
(0.709391 -0.0896241 -3.1309e-22)
(0.730725 0.0833296 2.43489e-21)
(0.76247 0.231074 -1.67082e-21)
(0.797089 0.338861 -4.362e-22)
(0.829106 0.404768 -5.59385e-22)
(0.855377 0.437164 -2.69103e-22)
(0.872681 0.452672 6.01415e-24)
(0.877644 0.468722 9.40145e-22)
(0.869129 0.490234 -4.20917e-22)
(0.849919 0.502834 -7.27497e-22)
(0.825742 0.481523 -1.90967e-21)
(0.802601 0.407889 -2.183e-21)
(0.785126 0.281639 8.5547e-22)
(0.776898 0.120254 1.28746e-21)
(0.780101 -0.0480817 -6.13294e-22)
(0.794387 -0.194651 9.58189e-22)
(0.815774 -0.300627 2.94356e-22)
(0.837243 -0.364794 -3.08803e-22)
(0.850282 -0.399605 6.13722e-22)
(0.849268 -0.4188 3.42522e-22)
(0.833968 -0.425087 3.9179e-22)
(0.808876 -0.410406 -1.31285e-21)
(0.780859 -0.363314 -1.39375e-21)
(0.757869 -0.278117 -5.97979e-22)
(0.745827 -0.16052 4.57927e-22)
(0.747728 -0.0263302 2.89616e-22)
(0.748295 -0.473788 4.89318e-22)
(0.717097 -0.394983 1.17679e-21)
(0.702509 -0.26111 -1.41154e-22)
(0.706835 -0.0924233 -2.52895e-21)
(0.727853 0.0794545 7.75937e-22)
(0.759543 0.226949 -1.83832e-22)
(0.794423 0.335138 3.11683e-22)
(0.827002 0.401782 -7.89897e-22)
(0.853997 0.435064 1.19801e-21)
(0.872042 0.451572 5.84389e-23)
(0.877722 0.46869 -7.78584e-22)
(0.869918 0.491205 -5.09326e-22)
(0.851427 0.504585 6.75392e-22)
(0.827927 0.483721 8.07918e-22)
(0.805318 0.410166 6.27494e-23)
(0.788155 0.283606 1.44708e-21)
(0.779996 0.121537 -2.60299e-21)
(0.78304 -0.0477209 2.1881e-21)
(0.796964 -0.195176 -3.67864e-22)
(0.817848 -0.301668 1.89831e-21)
(0.838821 -0.365741 -1.03934e-21)
(0.851477 -0.399881 -6.21067e-22)
(0.850147 -0.418169 -3.30981e-23)
(0.834549 -0.423731 -1.4975e-21)
(0.809191 -0.408772 1.06417e-21)
(0.780936 -0.361936 7.606e-22)
(0.757761 -0.277434 1.73984e-21)
(0.745666 -0.160746 5.29919e-22)
(0.747631 -0.0274007 4.85677e-22)
(0.747974 -0.470925 -9.05541e-22)
(0.715987 -0.393943 -4.54524e-22)
(0.700648 -0.262215 3.3505e-21)
(0.70441 -0.0953439 -1.4409e-21)
(0.725087 0.0754457 3.32473e-22)
(0.756698 0.222694 -4.73914e-22)
(0.79182 0.331297 1.60314e-21)
(0.824947 0.398693 1.58176e-21)
(0.852654 0.432875 4.60228e-23)
(0.87144 0.450389 -8.54413e-22)
(0.877845 0.468573 -6.77808e-22)
(0.870766 0.492094 1.95128e-21)
(0.853007 0.506275 -8.71435e-22)
(0.830194 0.485903 2.84188e-21)
(0.808125 0.412484 -3.00251e-21)
(0.791275 0.285668 6.33153e-22)
(0.783184 0.122949 2.75671e-21)
(0.786067 -0.047223 -3.23381e-21)
(0.799626 -0.195577 -9.44097e-22)
(0.82 -0.302614 -1.41088e-21)
(0.840466 -0.366627 4.40055e-22)
(0.852737 -0.40012 -4.61446e-22)
(0.851097 -0.417516 -3.70382e-22)
(0.835208 -0.422363 3.2473e-22)
(0.809592 -0.407141 -4.71539e-22)
(0.781106 -0.360578 -1.54423e-21)
(0.757746 -0.276792 4.63158e-22)
(0.74559 -0.16103 -1.44886e-21)
(0.747606 -0.0285337 -3.47965e-23)
(0.747814 -0.468045 -1.98366e-21)
(0.715043 -0.392928 -1.48146e-21)
(0.698941 -0.263398 8.82769e-22)
(0.702115 -0.0983799 -7.44718e-22)
(0.722426 0.0713076 -1.68245e-21)
(0.753934 0.218312 1.36786e-21)
(0.789279 0.327338 -3.50799e-22)
(0.822937 0.395499 -4.88621e-22)
(0.851348 0.430596 2.17902e-22)
(0.870873 0.449122 -8.62928e-22)
(0.878011 0.468368 7.43999e-22)
(0.87167 0.492898 -7.6071e-23)
(0.854658 0.507901 1.93707e-22)
(0.832542 0.488068 -1.00004e-21)
(0.811017 0.414844 9.17801e-22)
(0.794483 0.287824 -1.00566e-21)
(0.786459 0.124489 2.64504e-21)
(0.789179 -0.0465869 -1.04129e-21)
(0.802372 -0.195853 3.48584e-22)
(0.822229 -0.303464 1.25051e-21)
(0.842179 -0.367451 -9.3551e-22)
(0.85406 -0.400325 2.24799e-23)
(0.852118 -0.416842 1.36991e-21)
(0.835946 -0.420986 1.46285e-21)
(0.810078 -0.405514 -1.84995e-22)
(0.781369 -0.359241 -1.55436e-24)
(0.757822 -0.27619 8.37833e-22)
(0.745597 -0.161369 2.52251e-22)
(0.747651 -0.0297277 -6.98549e-22)
(0.747814 -0.465149 4.77755e-22)
(0.714266 -0.391932 1.29868e-21)
(0.697386 -0.264652 -2.26409e-22)
(0.699951 -0.101525 -1.15906e-21)
(0.719869 0.0670449 1.64569e-21)
(0.751251 0.213806 -2.77334e-21)
(0.786799 0.323261 2.07931e-21)
(0.820973 0.392201 -9.76369e-22)
(0.850077 0.428226 -8.92943e-22)
(0.87034 0.447769 -4.43269e-22)
(0.878219 0.468074 -1.08411e-21)
(0.872628 0.493614 3.84529e-22)
(0.856377 0.509462 -2.94513e-21)
(0.834967 0.490213 -1.66463e-21)
(0.813993 0.417243 1.86663e-21)
(0.797777 0.290074 -4.38544e-21)
(0.789819 0.126159 -6.8299e-22)
(0.792376 -0.0458116 2.19821e-21)
(0.805201 -0.196003 -1.741e-22)
(0.824537 -0.304215 -2.16476e-21)
(0.843961 -0.368212 6.47207e-22)
(0.855447 -0.400496 8.24711e-22)
(0.853209 -0.41615 -1.52366e-22)
(0.836762 -0.419599 -1.91761e-21)
(0.810649 -0.40389 1.4613e-21)
(0.781724 -0.357924 4.42511e-22)
(0.757989 -0.275626 -8.56933e-22)
(0.745684 -0.161762 1.10878e-22)
(0.747765 -0.0309811 4.48786e-23)
(0.747973 -0.462234 1.72326e-21)
(0.713656 -0.390951 -2.73097e-21)
(0.695985 -0.265969 2.37099e-21)
(0.697916 -0.104773 -3.73655e-22)
(0.717415 0.062662 8.46143e-22)
(0.748646 0.209177 -2.01869e-22)
(0.784378 0.31907 6.91238e-22)
(0.819052 0.3888 1.02688e-21)
(0.848838 0.425765 4.56683e-22)
(0.869838 0.446327 1.56086e-21)
(0.878464 0.467688 -2.50941e-22)
(0.873637 0.49424 -7.93277e-22)
(0.858159 0.510954 3.21009e-21)
(0.837465 0.492337 -1.22578e-21)
(0.817049 0.419681 -4.53073e-22)
(0.801154 0.292419 4.54338e-21)
(0.793263 0.127959 2.02808e-21)
(0.795656 -0.0448959 -2.99495e-21)
(0.808113 -0.196024 -2.59779e-22)
(0.826922 -0.304869 2.02273e-21)
(0.84581 -0.368912 -5.27361e-22)
(0.856898 -0.400634 1.61677e-21)
(0.854368 -0.41544 -4.99576e-22)
(0.837654 -0.418205 8.02964e-22)
(0.811302 -0.402272 -1.40069e-22)
(0.782167 -0.356628 6.121e-22)
(0.758245 -0.275099 5.50385e-22)
(0.745851 -0.162208 -5.34337e-22)
(0.747946 -0.0322921 7.08132e-23)
(0.748289 -0.459301 4.75822e-22)
(0.713212 -0.389978 2.3534e-21)
(0.694737 -0.267342 -2.08952e-22)
(0.69601 -0.108118 -8.77319e-22)
(0.715064 0.0581637 2.34827e-21)
(0.74612 0.20443 6.76553e-22)
(0.782016 0.314764 -5.42926e-22)
(0.817172 0.385296 -1.37294e-21)
(0.847629 0.423212 7.49214e-22)
(0.869365 0.444797 -1.35325e-22)
(0.878745 0.467208 -2.65725e-22)
(0.874693 0.494772 2.65078e-21)
(0.860002 0.512376 -4.76984e-22)
(0.840035 0.494436 -6.62175e-22)
(0.820182 0.422156 2.25134e-21)
(0.804612 0.294856 1.51478e-21)
(0.796787 0.129889 -2.90996e-21)
(0.799016 -0.0438391 2.37296e-21)
(0.811106 -0.195917 -9.35864e-22)
(0.829385 -0.305422 2.6254e-22)
(0.847728 -0.369549 2.35321e-21)
(0.858411 -0.400739 -1.91811e-21)
(0.855597 -0.414713 -5.67241e-22)
(0.838623 -0.416805 -1.90305e-22)
(0.812036 -0.40066 -7.11506e-22)
(0.782698 -0.355351 1.3759e-22)
(0.758589 -0.274608 -1.89795e-22)
(0.746095 -0.162703 1.37219e-21)
(0.748191 -0.033659 -1.32665e-22)
(0.748761 -0.456349 -1.15243e-21)
(0.712935 -0.389011 2.58943e-21)
(0.693641 -0.268765 -1.5457e-21)
(0.694231 -0.111552 7.39181e-22)
(0.712814 0.0535547 -1.88175e-21)
(0.743672 0.199566 -1.20032e-21)
(0.779711 0.310345 2.69017e-22)
(0.815331 0.381689 -6.82939e-22)
(0.846449 0.420566 9.59633e-22)
(0.868919 0.443175 -9.65296e-22)
(0.879059 0.466632 -4.24878e-21)
(0.875794 0.495209 1.6128e-21)
(0.861902 0.513723 1.44421e-21)
(0.842671 0.49651 3.04472e-21)
(0.82339 0.424665 -5.0839e-21)
(0.808148 0.297386 -2.80144e-21)
(0.80039 0.131949 5.75826e-22)
(0.802456 -0.0426405 -6.81017e-22)
(0.81418 -0.195679 -1.03266e-21)
(0.831925 -0.305874 1.1047e-21)
(0.849714 -0.370122 -1.38771e-21)
(0.859987 -0.400813 1.60706e-21)
(0.856893 -0.413972 4.74521e-22)
(0.839668 -0.4154 -3.2199e-22)
(0.812851 -0.399053 -9.80573e-23)
(0.783316 -0.354094 9.01365e-23)
(0.759018 -0.274152 -8.84874e-22)
(0.746416 -0.163248 -1.69333e-21)
(0.748499 -0.0350805 1.5348e-21)
(0.749388 -0.453376 4.47926e-22)
(0.712823 -0.388042 -6.9021e-22)
(0.692698 -0.270231 -3.17053e-21)
(0.692581 -0.11507 1.63616e-21)
(0.710664 0.0488397 -1.68873e-21)
(0.7413 0.194588 3.5678e-21)
(0.777461 0.305816 -2.49203e-21)
(0.813529 0.37798 1.78412e-21)
(0.845296 0.417827 -4.19937e-22)
(0.868497 0.441462 2.93993e-21)
(0.879404 0.465957 2.98255e-22)
(0.876937 0.495548 4.16379e-23)
(0.863856 0.514995 -1.56196e-23)
(0.845372 0.498554 -5.67111e-21)
(0.826668 0.427208 1.9568e-21)
(0.811759 0.300008 3.5575e-23)
(0.804069 0.134139 7.35867e-22)
(0.805972 -0.0412992 -2.89175e-21)
(0.817332 -0.195311 3.75284e-21)
(0.834543 -0.306225 -7.51799e-22)
(0.851768 -0.370632 -1.15224e-22)
(0.861625 -0.400856 4.95787e-22)
(0.858255 -0.413218 -6.84965e-22)
(0.840787 -0.41399 -1.81163e-22)
(0.813745 -0.397452 8.48081e-22)
(0.784017 -0.352856 -2.97668e-22)
(0.759532 -0.27373 1.34433e-21)
(0.746812 -0.163838 5.25267e-22)
(0.748868 -0.0365546 2.38583e-22)
(0.750166 -0.450382 -2.81344e-21)
(0.712876 -0.387068 1.54386e-21)
(0.691908 -0.271732 5.26185e-21)
(0.691057 -0.118664 -9.77454e-22)
(0.708615 0.0440237 -3.4898e-21)
(0.739004 0.1895 8.27352e-22)
(0.775266 0.301176 2.4584e-21)
(0.811763 0.374168 -5.79507e-22)
(0.844167 0.414995 -3.73147e-22)
(0.868096 0.439655 -2.34063e-22)
(0.879776 0.465182 1.28669e-21)
(0.878119 0.495787 -6.06172e-23)
(0.865861 0.516189 1.15339e-21)
(0.848133 0.500568 -1.88984e-21)
(0.830015 0.429782 2.93373e-21)
(0.815442 0.30272 1.51073e-21)
(0.807821 0.13646 -4.20781e-21)
(0.809564 -0.0398148 -2.84791e-22)
(0.820563 -0.194811 1.57034e-22)
(0.837237 -0.306472 -4.74328e-21)
(0.853891 -0.371077 3.58105e-21)
(0.863324 -0.400868 -3.76059e-22)
(0.859683 -0.412451 -1.66061e-21)
(0.84198 -0.412576 1.96499e-21)
(0.814716 -0.395858 -8.87147e-22)
(0.7848 -0.351637 3.77119e-22)
(0.760129 -0.273339 -2.27959e-21)
(0.74728 -0.164474 3.39036e-22)
(0.749297 -0.0380796 -2.06055e-21)
(0.751093 -0.447367 -1.29406e-21)
(0.713092 -0.386084 -2.14834e-21)
(0.691269 -0.273261 -3.95052e-21)
(0.689658 -0.122328 2.36356e-21)
(0.706664 0.0391116 -6.74855e-22)
(0.736782 0.184305 -2.72053e-21)
(0.773124 0.296428 -9.90725e-22)
(0.810031 0.370256 -4.88282e-21)
(0.84306 0.412068 2.84826e-22)
(0.867715 0.437754 1.70111e-23)
(0.880172 0.464306 -2.49264e-21)
(0.879335 0.495923 8.91639e-22)
(0.867912 0.517301 4.67538e-21)
(0.85095 0.502548 -3.6287e-21)
(0.833425 0.432386 -2.68785e-21)
(0.819193 0.305521 3.20227e-21)
(0.811643 0.138911 -1.90987e-21)
(0.813228 -0.0381867 -4.55603e-21)
(0.823869 -0.194177 3.06528e-21)
(0.840007 -0.306616 -1.29745e-21)
(0.856082 -0.371457 6.6592e-23)
(0.865085 -0.40085 -7.69662e-22)
(0.861176 -0.411674 9.37804e-22)
(0.843245 -0.411161 -6.39754e-22)
(0.815763 -0.394271 1.87626e-21)
(0.785664 -0.350435 3.00918e-22)
(0.760807 -0.272979 4.43647e-22)
(0.74782 -0.165152 -2.51396e-22)
(0.749784 -0.0396538 -2.51988e-22)
(0.752167 -0.44433 1.33044e-21)
(0.713469 -0.385086 -5.74067e-23)
(0.690783 -0.27481 -2.23042e-22)
(0.688385 -0.126054 2.62271e-21)
(0.704811 0.0341086 -1.22488e-21)
(0.734634 0.179004 4.41204e-21)
(0.771033 0.291573 2.10571e-21)
(0.808333 0.366242 9.06173e-22)
(0.841974 0.409048 -2.12353e-21)
(0.867351 0.435757 1.31215e-21)
(0.88059 0.463326 6.55926e-23)
(0.880584 0.495954 -1.71401e-22)
(0.870006 0.518329 -1.24184e-21)
(0.853819 0.504492 2.7513e-21)
(0.836897 0.435015 -9.02624e-22)
(0.82301 0.308409 -1.01388e-21)
(0.815533 0.141491 2.56527e-21)
(0.816962 -0.0364147 5.11858e-21)
(0.827251 -0.193411 5.68758e-21)
(0.842853 -0.306654 -3.65833e-21)
(0.85834 -0.371771 3.60048e-21)
(0.866905 -0.400803 -2.2704e-21)
(0.862732 -0.410887 1.57635e-22)
(0.844583 -0.409744 5.09756e-22)
(0.816885 -0.392691 -1.23318e-21)
(0.786605 -0.349252 -1.79993e-21)
(0.761564 -0.272648 4.46286e-23)
(0.748429 -0.165871 -8.72408e-22)
(0.750326 -0.0412753 -1.88333e-22)
(0.753385 -0.44127 5.02924e-21)
(0.714007 -0.384068 -2.89401e-21)
(0.690448 -0.276373 3.30798e-21)
(0.687238 -0.129836 -4.68091e-21)
(0.703055 0.0290197 4.16025e-21)
(0.732557 0.173602 -1.65845e-21)
(0.768993 0.286613 6.7159e-22)
(0.806665 0.362129 -1.49669e-21)
(0.840906 0.405934 1.79149e-21)
(0.867001 0.433664 2.56947e-22)
(0.881027 0.462241 -7.18858e-22)
(0.88186 0.495878 -5.5607e-22)
(0.872139 0.519271 -1.33884e-21)
(0.856738 0.506396 -8.18402e-22)
(0.840425 0.437669 5.44837e-21)
(0.82689 0.311384 -2.36611e-21)
(0.819488 0.144201 4.53261e-21)
(0.820765 -0.0344983 -2.59661e-21)
(0.830705 -0.19251 -2.41703e-21)
(0.845773 -0.306587 7.13751e-22)
(0.860667 -0.372019 -1.02834e-21)
(0.868786 -0.400726 -1.94073e-21)
(0.864349 -0.410092 -3.21549e-21)
(0.84599 -0.408327 2.95203e-22)
(0.81808 -0.391118 -1.12071e-21)
(0.787622 -0.348086 -2.70968e-23)
(0.762398 -0.272345 -4.10266e-22)
(0.749107 -0.166628 -5.13854e-22)
(0.750922 -0.0429425 1.41633e-22)
(0.754745 -0.438189 -3.30682e-22)
(0.714702 -0.383027 1.29615e-21)
(0.690264 -0.277942 -3.77529e-22)
(0.686214 -0.133665 5.8604e-22)
(0.701394 0.0238503 -1.47624e-21)
(0.730552 0.168102 -3.03449e-21)
(0.767002 0.281549 -1.99549e-21)
(0.805026 0.357916 2.46225e-21)
(0.839854 0.402724 -7.32659e-22)
(0.866663 0.431474 6.19419e-22)
(0.88148 0.461049 -1.64225e-21)
(0.883162 0.495693 1.41902e-21)
(0.874307 0.520123 2.26826e-21)
(0.859701 0.508258 -1.17997e-21)
(0.844007 0.440345 -4.91352e-21)
(0.830829 0.314443 2.11879e-21)
(0.823505 0.147039 2.4073e-21)
(0.824632 -0.0324376 6.82888e-22)
(0.83423 -0.191474 1.40442e-21)
(0.848766 -0.306412 2.3412e-21)
(0.863061 -0.3722 -1.90546e-22)
(0.870725 -0.40062 2.02984e-21)
(0.866027 -0.40929 7.2636e-22)
(0.847467 -0.406911 1.69005e-21)
(0.819347 -0.389553 2.07912e-21)
(0.788712 -0.346937 1.56269e-21)
(0.763307 -0.272069 4.99864e-22)
(0.749852 -0.167423 -1.23092e-22)
(0.751572 -0.0446536 1.82449e-21)
(0.756242 -0.435086 -1.4911e-21)
(0.715553 -0.381958 -5.04668e-22)
(0.690231 -0.27951 -1.82133e-21)
(0.685316 -0.137536 1.28399e-21)
(0.69983 0.0186059 9.55401e-22)
(0.728618 0.162507 9.45707e-22)
(0.765058 0.276385 2.50246e-21)
(0.803415 0.353604 -2.50967e-21)
(0.838816 0.399421 1.3848e-21)
(0.866334 0.429186 -9.32264e-22)
(0.881945 0.459749 6.95122e-22)
(0.884484 0.495397 -2.63562e-21)
(0.876507 0.520885 -2.41236e-21)
(0.862706 0.510075 -1.16106e-21)
(0.847639 0.443039 5.86024e-21)
(0.834823 0.317585 -2.25184e-21)
(0.82758 0.150005 5.44061e-22)
(0.828563 -0.0302323 -2.01659e-21)
(0.837824 -0.190302 2.58757e-21)
(0.851832 -0.30613 1.18669e-21)
(0.865522 -0.372313 1.47904e-21)
(0.872723 -0.400485 1.1526e-21)
(0.867765 -0.408481 5.88199e-22)
(0.849012 -0.405497 -7.91756e-22)
(0.820686 -0.387995 -5.85241e-22)
(0.789873 -0.345804 4.87214e-22)
(0.764288 -0.271818 2.74834e-22)
(0.750661 -0.168252 -9.85322e-23)
(0.752272 -0.0464067 -1.6832e-22)
(0.757875 -0.43196 -1.201e-22)
(0.716556 -0.380859 5.46371e-22)
(0.690349 -0.28107 1.4993e-21)
(0.684542 -0.141439 -3.94785e-21)
(0.69836 0.0132921 1.26538e-21)
(0.726753 0.156821 -1.4206e-21)
(0.76316 0.27112 5.89686e-22)
(0.801829 0.349195 2.4349e-21)
(0.837789 0.396023 8.27235e-22)
(0.866012 0.4268 2.41328e-22)
(0.88242 0.45834 8.62754e-22)
(0.885824 0.494988 -8.1251e-22)
(0.878733 0.521551 2.21485e-21)
(0.865747 0.511843 -1.3371e-21)
(0.851317 0.445749 1.11936e-21)
(0.838869 0.320807 -2.60717e-21)
(0.831711 0.153097 -2.61816e-21)
(0.832554 -0.0278826 2.09436e-21)
(0.841486 -0.188995 -2.33021e-21)
(0.854969 -0.305739 -2.89202e-21)
(0.868049 -0.372357 2.73569e-22)
(0.874779 -0.40032 -2.77131e-21)
(0.86956 -0.407667 -6.88181e-22)
(0.850623 -0.404085 -4.60033e-22)
(0.822093 -0.386445 5.57075e-22)
(0.791104 -0.344687 -1.72065e-21)
(0.765341 -0.271591 -2.266e-22)
(0.751534 -0.169115 -2.07407e-21)
(0.753021 -0.0482 9.07516e-22)
(0.759641 -0.428814 -6.7743e-22)
(0.717708 -0.379724 -1.58416e-21)
(0.690616 -0.282616 4.50669e-21)
(0.683893 -0.145369 -2.37097e-21)
(0.696985 0.00791426 5.1154e-21)
(0.724956 0.151046 -7.45015e-22)
(0.761308 0.265759 -7.88118e-22)
(0.800268 0.344689 -2.47891e-21)
(0.836773 0.392531 2.15032e-21)
(0.865694 0.424314 7.45401e-22)
(0.882901 0.456822 -1.95881e-21)
(0.887178 0.494464 3.93638e-21)
(0.880983 0.522121 -9.31647e-22)
(0.868821 0.51356 -3.30621e-21)
(0.855036 0.448471 -2.64096e-21)
(0.842963 0.324107 4.69995e-21)
(0.835894 0.156315 6.81596e-21)
(0.836603 -0.0253886 2.99402e-22)
(0.845213 -0.187551 1.46232e-21)
(0.858176 -0.305238 7.27777e-21)
(0.870642 -0.372331 -2.92166e-21)
(0.876892 -0.400127 -1.58637e-21)
(0.871412 -0.40685 -6.49325e-22)
(0.852299 -0.402677 3.39598e-21)
(0.823569 -0.384902 -8.35462e-22)
(0.792401 -0.343585 1.0365e-21)
(0.766462 -0.271387 3.23126e-21)
(0.75247 -0.170008 -6.10252e-22)
(0.753819 -0.0500316 1.9657e-22)
(0.761536 -0.425646 -1.80081e-21)
(0.719007 -0.378551 -2.71741e-21)
(0.691032 -0.28414 4.90885e-22)
(0.683369 -0.149317 6.97453e-21)
(0.695704 0.00247976 -6.57071e-21)
(0.723226 0.145187 2.2914e-21)
(0.759499 0.260301 1.22825e-21)
(0.79873 0.340087 -1.2306e-21)
(0.835764 0.388945 8.7675e-22)
(0.865377 0.42173 -2.15429e-21)
(0.883385 0.455192 -3.48094e-22)
(0.888542 0.493825 -5.39258e-22)
(0.883251 0.522592 2.52066e-21)
(0.871924 0.515223 -1.53616e-21)
(0.858794 0.451203 -1.23645e-21)
(0.847102 0.327482 6.10346e-23)
(0.840126 0.159657 -1.29274e-21)
(0.840706 -0.0227506 9.06041e-23)
(0.849003 -0.18597 -6.56484e-21)
(0.861451 -0.304627 -2.84968e-21)
(0.8733 -0.372235 -3.15459e-21)
(0.879062 -0.399904 1.35163e-21)
(0.873318 -0.406028 1.84115e-21)
(0.854039 -0.401273 -1.04175e-21)
(0.825113 -0.383368 -6.78025e-22)
(0.793762 -0.342497 2.91087e-22)
(0.767648 -0.271204 -1.16222e-22)
(0.753465 -0.170931 -3.59603e-22)
(0.754663 -0.0518998 4.17018e-22)
(0.763557 -0.422459 -3.69553e-22)
(0.720448 -0.377337 7.23687e-22)
(0.691595 -0.285636 1.5052e-21)
(0.682972 -0.153276 -5.24294e-21)
(0.694517 -0.0029993 6.56022e-22)
(0.721564 0.139248 -2.28621e-21)
(0.757732 0.254751 1.12065e-21)
(0.797212 0.335391 7.91458e-22)
(0.834761 0.385266 -9.78971e-22)
(0.865059 0.419046 -2.81313e-21)
(0.883869 0.453451 1.76297e-21)
(0.889912 0.493067 6.9814e-22)
(0.885534 0.52296 -2.31053e-21)
(0.875051 0.516827 -9.75649e-22)
(0.862586 0.453941 1.21062e-21)
(0.851283 0.330931 -4.53107e-21)
(0.844404 0.163122 -4.03014e-21)
(0.844861 -0.019969 -2.18535e-21)
(0.852854 -0.184252 -2.69165e-21)
(0.864794 -0.303905 5.25639e-21)
(0.876022 -0.372068 2.26535e-21)
(0.881287 -0.399652 -4.95612e-21)
(0.875278 -0.405205 5.77285e-22)
(0.85584 -0.399875 3.76588e-22)
(0.826722 -0.381841 1.57883e-21)
(0.795186 -0.341422 -2.54292e-22)
(0.768898 -0.271042 1.04334e-21)
(0.75452 -0.17188 2.80075e-22)
(0.755552 -0.0538025 -9.35718e-23)
(0.765702 -0.419253 1.54872e-21)
(0.722029 -0.376079 -4.50543e-21)
(0.692305 -0.287098 2.36846e-21)
(0.682702 -0.157238 3.69287e-21)
(0.693426 -0.00852922 2.95695e-22)
(0.719967 0.133232 -5.85522e-22)
(0.756008 0.249109 -6.04338e-21)
(0.795714 0.330601 5.60832e-21)
(0.833762 0.381493 1.88864e-21)
(0.864738 0.416263 -3.78319e-23)
(0.884351 0.451597 3.88049e-22)
(0.891285 0.49219 2.63988e-22)
(0.887828 0.523224 9.20367e-22)
(0.878198 0.518369 -7.97001e-22)
(0.866408 0.456681 -6.01973e-22)
(0.8555 0.334449 4.07876e-21)
(0.848724 0.166709 8.64237e-21)
(0.849066 -0.0170443 1.61392e-22)
(0.856763 -0.182396 3.72412e-21)
(0.868202 -0.303071 1.29098e-21)
(0.878808 -0.371828 -1.96586e-21)
(0.883567 -0.39937 -3.64055e-21)
(0.87729 -0.404379 -1.15282e-21)
(0.8577 -0.398483 2.7541e-21)
(0.828395 -0.380322 -1.1309e-21)
(0.796671 -0.340361 -2.81533e-21)
(0.770208 -0.270899 -3.37212e-22)
(0.755631 -0.172856 1.60105e-22)
(0.756486 -0.055738 1.00675e-21)
(0.767968 -0.41603 -2.93209e-22)
(0.723745 -0.374773 2.50406e-21)
(0.693158 -0.28852 -4.69236e-21)
(0.682559 -0.161196 2.14238e-21)
(0.69243 -0.0141038 -1.79614e-21)
(0.718437 0.127144 -5.00224e-21)
(0.754324 0.243379 8.39581e-21)
(0.794234 0.325719 -4.49085e-21)
(0.832765 0.377628 -9.49858e-22)
(0.864411 0.413381 1.15725e-22)
(0.884826 0.449631 -6.75536e-22)
(0.892657 0.491192 3.44566e-21)
(0.890129 0.523381 -2.79983e-21)
(0.881362 0.519847 -2.95242e-21)
(0.870256 0.459419 3.2677e-21)
(0.85975 0.338035 1.61173e-21)
(0.853082 0.170415 -5.71566e-21)
(0.853317 -0.013977 3.1892e-21)
(0.860729 -0.180403 -1.27364e-21)
(0.871674 -0.302124 6.75945e-21)
(0.881657 -0.371514 1.10927e-21)
(0.885901 -0.399058 -2.81031e-22)
(0.879353 -0.403552 1.68578e-21)
(0.859619 -0.397098 -3.076e-21)
(0.830132 -0.378811 2.27048e-22)
(0.798215 -0.339311 -4.47057e-22)
(0.771576 -0.270774 -2.54294e-22)
(0.756798 -0.173855 2.58225e-22)
(0.757462 -0.0577044 -1.66759e-23)
(0.770352 -0.412791 3.77987e-21)
(0.725594 -0.373419 2.14396e-21)
(0.694152 -0.289897 -2.3296e-21)
(0.682545 -0.165143 6.75145e-22)
(0.691531 -0.0197125 1.79976e-21)
(0.716973 0.120987 4.39087e-21)
(0.75268 0.237563 -1.05652e-21)
(0.792771 0.320746 -3.16921e-21)
(0.831767 0.373671 3.27869e-21)
(0.864075 0.4104 -2.61518e-21)
(0.885293 0.447551 1.43973e-21)
(0.894025 0.490072 -1.26559e-21)
(0.892432 0.523429 -1.6407e-21)
(0.884537 0.521256 3.12151e-21)
(0.874126 0.462153 2.02961e-21)
(0.86403 0.341684 -7.1313e-22)
(0.857476 0.174238 -5.3068e-21)
(0.857612 -0.010768 4.55085e-21)
(0.864749 -0.178272 -3.66989e-21)
(0.875208 -0.301064 1.11193e-21)
(0.884567 -0.371127 -3.65076e-21)
(0.888288 -0.398715 1.31228e-21)
(0.881464 -0.402725 9.68838e-23)
(0.861593 -0.395722 -4.04577e-22)
(0.831931 -0.377307 2.86863e-21)
(0.799815 -0.338273 1.97985e-21)
(0.772999 -0.270665 3.4973e-22)
(0.758019 -0.174876 -1.60333e-22)
(0.75848 -0.0596998 -4.8403e-22)
(0.772852 -0.409537 -1.86921e-21)
(0.727572 -0.372012 -1.4963e-21)
(0.695285 -0.291222 -4.2738e-22)
(0.682661 -0.169072 2.46282e-21)
(0.69073 -0.0253519 -3.71273e-21)
(0.715576 0.114767 1.47636e-21)
(0.751075 0.231663 -8.22078e-22)
(0.791324 0.315684 1.26965e-21)
(0.830768 0.369623 -1.67217e-21)
(0.863729 0.40732 -1.19207e-22)
(0.885747 0.445359 9.571e-23)
(0.895383 0.48883 3.65464e-21)
(0.894732 0.523365 -7.15348e-21)
(0.887719 0.522593 3.93598e-21)
(0.878014 0.464877 -2.53589e-21)
(0.868336 0.345395 1.69048e-21)
(0.861902 0.178177 2.13437e-21)
(0.861948 -0.00741805 3.74852e-21)
(0.86882 -0.176004 -5.02641e-21)
(0.878802 -0.29989 -4.96751e-21)
(0.887537 -0.370664 -2.68199e-21)
(0.890728 -0.398341 4.66568e-21)