/*--------------------------------*- C++ -*----------------------------------*\
  =========                 |
  \\      /  F ield         | OpenFOAM: The Open Source CFD Toolbox
   \\    /   O peration     | Website:  https://openfoam.org
    \\  /    A nd           | Version:  7
     \\/     M anipulation  |
\*---------------------------------------------------------------------------*/
FoamFile
{
    version     2.0;
    format      ascii;
    class       volScalarField;
    location    "300";
    object      p;
}
// * * * * * * * * * * * * * * * * * * * * * * * * * * * * * * * * * * * * * //

dimensions      [0 2 -2 0 0 0 0];

internalField   nonuniform List<scalar> 
4575
(
0.222122
0.232056
0.241773
0.256557
0.251264
0.266384
0.260519
0.275961
0.269527
0.285274
0.278278
0.302779
0.294312
0.286761
0.312061
0.303062
0.294966
0.321026
0.311513
0.302882
0.329662
0.319651
0.310499
0.348068
0.337956
0.327466
0.317807
0.356536
0.345896
0.334947
0.324796
0.364615
0.353471
0.342081
0.331456
0.372293
0.360668
0.34886
0.337779
0.379559
0.367477
0.355272
0.343756
0.398919
0.3864
0.373887
0.361308
0.349378
0.405761
0.392807
0.37989
0.366959
0.354637
0.41213
0.398769
0.385476
0.372216
0.359528
0.418016
0.404278
0.390635
0.377071
0.364041
0.423409
0.409324
0.395361
0.381518
0.368172
0.4283
0.413901
0.399646
0.385548
0.371914
0.432683
0.418
0.403482
0.389156
0.375261
0.436551
0.421615
0.406865
0.392336
0.37821
0.439895
0.424741
0.409789
0.395084
0.380756
0.442713
0.427373
0.412248
0.397394
0.382895
0.444998
0.429505
0.41424
0.399263
0.384624
0.462529
0.446747
0.431136
0.415761
0.400688
0.385941
0.46383
0.447958
0.432261
0.416808
0.401667
0.386843
0.464555
0.448628
0.43288
0.41738
0.402199
0.387332
0.464701
0.448756
0.432991
0.417476
0.402282
0.387404
0.464269
0.448341
0.432593
0.417095
0.401915
0.387055
0.46326
0.447385
0.431688
0.416237
0.401098
0.386289
0.445888
0.430277
0.414905
0.399834
0.385104
0.443853
0.428361
0.413099
0.398124
0.383508
0.441283
0.425943
0.410823
0.395971
0.381501
0.438182
0.423028
0.408079
0.393377
0.379084
0.434555
0.419619
0.404873
0.390348
0.376261
0.430406
0.415721
0.401209
0.386886
0.373035
0.425743
0.411342
0.397091
0.382998
0.369411
0.420573
0.406486
0.392528
0.378688
0.365394
0.414904
0.401162
0.387524
0.373964
0.360989
0.408744
0.395377
0.382089
0.368832
0.356202
0.402103
0.389141
0.376229
0.3633
0.35104
0.382462
0.369953
0.357377
0.345509
0.375351
0.363272
0.351069
0.339617
0.367818
0.356194
0.344388
0.333372
0.359875
0.348731
0.337342
0.326782
0.351532
0.340892
0.329943
0.319856
0.33269
0.322199
0.312603
0.324135
0.314122
0.305033
0.315241
0.305725
0.297154
0.30602
0.297017
0.288978
0.288011
0.280515
0.278719
0.271774
0.269153
0.262766
0.253502
0.243991
0.234244
0.113323
0.11438
0.116401
0.119262
0.122844
0.127097
0.131899
0.137211
0.14288
0.148846
0.154885
0.160895
0.166536
0.171646
0.175712
0.178536
0.179341
0.177996
0.173279
0.165457
0.152299
0.112451
0.113462
0.115383
0.118099
0.121481
0.125472
0.129942
0.134841
0.140001
0.145347
0.150643
0.155768
0.160374
0.164293
0.167014
0.168352
0.167567
0.164575
0.158284
0.149004
0.135072
0.111506
0.112467
0.114282
0.116842
0.120009
0.123723
0.127844
0.13231
0.136943
0.141658
0.146205
0.150457
0.15406
0.156853
0.158335
0.158355
0.156227
0.151933
0.144555
0.13445
0.120529
0.110486
0.111392
0.113095
0.115488
0.118431
0.121854
0.125612
0.129631
0.133728
0.137803
0.141602
0.144992
0.147624
0.149339
0.149671
0.148486
0.145197
0.139794
0.131604
0.120907
0.107089
0.10939
0.110237
0.111822
0.114042
0.116751
0.119874
0.123262
0.126828
0.130385
0.133824
0.136891
0.139446
0.141157
0.141865
0.141159
0.138908
0.134644
0.128348
0.119573
0.108504
0.0948458
0.108217
0.109003
0.110466
0.112506
0.114976
0.117792
0.120803
0.123913
0.126934
0.129746
0.132105
0.133863
0.134715
0.134504
0.132879
0.129715
0.124661
0.117688
0.108532
0.0973155
0.0839529
0.106966
0.107689
0.109027
0.110881
0.113106
0.115611
0.118242
0.120898
0.123391
0.125592
0.127272
0.128278
0.12834
0.127301
0.124878
0.120949
0.115274
0.107818
0.0984572
0.0872853
0.0743541
0.105639
0.106295
0.107505
0.10917
0.111147
0.113337
0.11559
0.117795
0.119771
0.121384
0.12242
0.122726
0.122069
0.120296
0.11719
0.112638
0.106492
0.0987198
0.0893023
0.0783201
0.0659094
0.104235
0.104824
0.105903
0.107376
0.109102
0.110977
0.112856
0.114618
0.116094
0.117145
0.117577
0.117239
0.115936
0.113525
0.109846
0.104802
0.0983165
0.0903709
0.0810159
0.0703279
0.0584901
0.102755
0.103275
0.104222
0.105501
0.106977
0.10854
0.110049
0.111382
0.112378
0.112897
0.112769
0.111847
0.109972
0.107015
0.102867
0.0974496
0.0907423
0.0827413
0.073544
0.0632244
0.0519904
0.1012
0.101651
0.102465
0.103551
0.104777
0.106033
0.107182
0.108101
0.108641
0.108663
0.108021
0.106575
0.104202
0.100789
0.096269
0.0905838
0.0837556
0.0757955
0.06683
0.0569307
0.0463163
0.0995729
0.0999534
0.100636
0.101529
0.10251
0.103465
0.104266
0.104789
0.104899
0.104463
0.103354
0.101447
0.0986469
0.0948615
0.0900584
0.084199
0.0773362
0.0694943
0.0608171
0.0513724
0.0413801
0.0978754
0.0981861
0.0987376
0.0994411
0.100181
0.100845
0.101312
0.101461
0.101171
0.100315
0.0987889
0.0964808
0.0933237
0.089244
0.0842373
0.0782845
0.0714594
0.0637969
0.0554491
0.0464788
0.0371008
0.0961104
0.0963521
0.0967746
0.0972926
0.0977991
0.0981825
0.0983325
0.098131
0.0974712
0.0962373
0.0943428
0.0916931
0.088244
0.0839414
0.0788025
0.0728252
0.0660973
0.0586614
0.0506714
0.0421842
0.0334048
0.094281
0.0944551
0.0947515
0.0950896
0.0953709
0.0954874
0.0953382
0.094812
0.0938154
0.0922445
0.0900307
0.087096
0.083416
0.0789548
0.0737465
0.0678029
0.0612204
0.0540463
0.0464319
0.0384275
0.0302259
0.0923912
0.0924995
0.0926735
0.0928385
0.0929046
0.0927691
0.0923409
0.0915169
0.090217
0.0883504
0.0858646
0.0826985
0.078844
0.0742818
0.0690584
0.0631969
0.0567977
0.0499108
0.0426814
0.0351531
0.0275048
0.090445
0.0904899
0.0905462
0.090546
0.0904083
0.0900373
0.0893515
0.0882577
0.0866885
0.0845667
0.0818547
0.0785069
0.0745293
0.0699168
0.0647248
0.0589848
0.0527983
0.0462155
0.0393738
0.0323098
0.0251884
0.0884473
0.0884315
0.0883756
0.0882191
0.0878903
0.0873013
0.0863804
0.0850454
0.0832407
0.0809032
0.0780081
0.0745248
0.0704704
0.0658518
0.0607304
0.0551436
0.0491914
0.0429228
0.0364662
0.0298515
0.0232292
0.0864031
0.0863298
0.0861678
0.085865
0.0853588
0.0845703
0.0834376
0.08189
0.0798832
0.0773676
0.0743302
0.0707533
0.0666633
0.0620766
0.0570583
0.0516496
0.0459469
0.0399972
0.033919
0.0277361
0.0215849
0.0843178
0.0841907
0.0839295
0.083491
0.0828219
0.0818531
0.0805324
0.0788005
0.0766241
0.0739662
0.0708241
0.0671917
0.0631022
0.0585797
0.0536909
0.0484791
0.043036
0.0374054
0.0316959
0.0259256
0.0202177
0.0821974
0.0820203
0.0816674
0.0811045
0.0802878
0.0791582
0.0776732
0.0757848
0.07347
0.0707034
0.0674912
0.063837
0.0597795
0.0553483
0.0506102
0.0456089
0.0404307
0.0351159
0.0297632
0.0243856
0.019094
0.0800479
0.0798251
0.0793882
0.0787129
0.0777642
0.0764936
0.0748678
0.0728499
0.0704262
0.067582
0.0643311
0.0606851
0.0566865
0.0523689
0.0477978
0.0430164
0.0381049
0.0330999
0.0280905
0.0230853
0.0181834
0.0778757
0.0776115
0.077099
0.0763233
0.0752586
0.0738666
0.0721231
0.0700016
0.0674968
0.0646037
0.0613421
0.0577304
0.0538136
0.0496275
0.0452355
0.0406797
0.0360336
0.0313304
0.0266497
0.0219965
0.0174593
0.0756874
0.0753863
0.0748068
0.073943
0.0727783
0.0712842
0.0694452
0.0672445
0.0646846
0.0617685
0.0585213
0.0549664
0.0511501
0.0471098
0.0429056
0.0385778
0.0341937
0.0297825
0.0254154
0.0210941
0.0168973
0.0734896
0.0731563
0.0725183
0.071579
0.0703299
0.0687526
0.0668394
0.0645826
0.0619913
0.0590756
0.0558646
0.0523858
0.0486855
0.0448015
0.0407908
0.036691
0.0325632
0.0284333
0.0243643
0.0203553
0.0164762
0.0712892
0.0709282
0.0702406
0.0692378
0.0679199
0.0662774
0.0643102
0.0620186
0.0594176
0.0565231
0.0533673
0.0499804
0.0464084
0.0426886
0.0388742
0.0350003
0.031122
0.0272617
0.0234754
0.0197597
0.0161765
0.0690929
0.0687088
0.0679801
0.0669259
0.0655541
0.0638636
0.0618614
0.0595546
0.0569633
0.0541083
0.0510239
0.0477421
0.0443078
0.0407572
0.03714
0.0334882
0.0298513
0.0262486
0.0227294
0.0192887
0.0159811
0.0669074
0.0665047
0.0657434
0.0646494
0.063238
0.0615158
0.0594959
0.0571917
0.0546275
0.0518278
0.0488284
0.0456622
0.0423724
0.0389942
0.0355729
0.032138
0.0287336
0.0253762
0.022109
0.0189258
0.0158744
0.0647393
0.0643225
0.0635366
0.062414
0.0609765
0.0592376
0.057216
0.0549305
0.0524086
0.0496778
0.0467744
0.0437319
0.0405915
0.0373865
0.0341586
0.0309344
0.027753
0.0246285
0.0215986
0.018656
0.0158429
0.0625952
0.0621683
0.0613656
0.0602249
0.0587739
0.0570322
0.0550235
0.0527708
0.0503044
0.0476537
0.0448554
0.0419425
0.0389543
0.035922
0.0328835
0.0298629
0.0268947
0.0239908
0.0211838
0.018466
0.015874
0.0604811
0.0600481
0.0592359
0.0580871
0.0566341
0.0549023
0.0529194
0.0507119
0.0483121
0.0457509
0.0430645
0.0402854
0.0374505
0.0345889
0.031735
0.0289103
0.0261453
0.0234497
0.0208518
0.0183436
0.015957
0.058403
0.0579677
0.0571528
0.0560048
0.0545606
0.05285
0.0509042
0.0487527
0.0464288
0.0439645
0.0413952
0.0387522
0.0360703
0.0333763
0.0307013
0.0280645
0.0254924
0.0229931
0.0205912
0.0182783
0.0160821
0.0563666
0.0559323
0.0551211
0.0539822
0.0525562
0.0508769
0.048978
0.0468914
0.0446511
0.0422894
0.0398405
0.0373348
0.0348042
0.0322739
0.0297714
0.027314
0.0249247
0.0226103
0.0203916
0.0182604
0.0162406
0.0543771
0.053947
0.053145
0.0520226
0.0506233
0.048984
0.0471405
0.0451261
0.0429755
0.0407203
0.038394
0.0360251
0.0336434
0.0312719
0.0289353
0.0266487
0.0244322
0.0222913
0.0202438
0.0182815
0.0164251
0.0524394
0.0520162
0.0512284
0.0501291
0.0487639
0.047172
0.0453909
0.0434548
0.0413981
0.0392523
0.0370492
0.0348158
0.0325795
0.0303614
0.0281836
0.0260591
0.0240056
0.0220273
0.0201394
0.018334
0.0166288
0.0505579
0.0501441
0.049375
0.0483044
0.0469795
0.0454413
0.0437281
0.0418748
0.0399153
0.0378802
0.0357998
0.0336996
0.0316047
0.0295341
0.0275076
0.0255368
0.0236366
0.0218104
0.0200712
0.0184113
0.0168459
0.0487367
0.0483343
0.0475876
0.0465506
0.0452713
0.0437917
0.0421508
0.0403835
0.0385231
0.0365991
0.03464
0.0326698
0.0307115
0.0287823
0.0268997
0.0250739
0.0233176
0.0216336
0.0200328
0.0185077
0.0170714
0.0469793
0.0465901
0.0458689
0.0448694
0.0436399
0.0422229
0.0406575
0.0389784
0.0372177
0.035404
0.0335641
0.0317201
0.0298932
0.028099
0.0263528
0.0246635
0.0230421
0.0214907
0.0200183
0.0186181
0.0173009
0.0452888
0.0449143
0.0442212
0.0432623
0.0420858
0.0407342
0.0392465
0.0376565
0.0359954
0.0342904
0.0325666
0.0308446
0.0291436
0.0274776
0.0258603
0.0242993
0.0228041
0.021376
0.0200228
0.0187381
0.0175308
0.0436679
0.0433092
0.042646
0.0417301
0.040609
0.0393248
0.0379157
0.036415
0.0348524
0.0332538
0.0316425
0.0300378
0.0284568
0.0269124
0.0254165
0.0239757
0.0225982
0.0212849
0.0200421
0.0188639
0.0177579
0.0421187
0.0417766
0.0411448
0.0402736
0.0392093
0.0379935
0.0366634
0.0352511
0.0337851
0.0322899
0.0307871
0.0292945
0.0278276
0.026398
0.0250162
0.0236879
0.0224199
0.0212131
0.0200724
0.0189925
0.0179797
0.0406431
0.0403181
0.0397186
0.038893
0.0378863
0.036739
0.0354872
0.0341619
0.0327901
0.0313947
0.0299959
0.02861
0.0272512
0.0259296
0.0246546
0.0234312
0.0222652
0.0211569
0.0201106
0.0191212
0.0181939
0.0392423
0.0389348
0.038368
0.0375883
0.0366393
0.03556
0.0343853
0.0331447
0.0318639
0.0305645
0.0292649
0.0279802
0.0267232
0.025503
0.0243278
0.023202
0.0221304
0.0211132
0.0201538
0.0192477
0.0183991
0.0379174
0.0376274
0.0370933
0.0363594
0.0354674
0.034455
0.0333554
0.0321968
0.0310036
0.0297956
0.0285903
0.0274011
0.0262397
0.0251143
0.0240321
0.0229968
0.0220125
0.0210794
0.0202
0.0193704
0.0185937
0.036669
0.0363964
0.0358945
0.0352057
0.0343696
0.0334222
0.0323953
0.0313157
0.030206
0.029085
0.0279685
0.0268691
0.0257972
0.0247601
0.0237642
0.0228127
0.021909
0.0210532
0.0202473
0.0194877
0.0187769
0.0354974
0.0352418
0.0347716
0.0341267
0.0333448
0.0324603
0.0315031
0.0304987
0.0294684
0.0284294
0.0273965
0.0263811
0.0253925
0.0244375
0.0235214
0.0226471
0.0218177
0.0210328
0.0202942
0.0195986
0.0189479
0.0344028
0.0341636
0.033724
0.0331215
0.0323918
0.0315674
0.0306768
0.0297437
0.0287881
0.0278263
0.0268715
0.0259342
0.025023
0.0241437
0.0233012
0.022498
0.0217366
0.0210167
0.0203395
0.0197023
0.0191064
0.0333848
0.0331615
0.0327512
0.0321893
0.0315094
0.0307421
0.0299143
0.0290484
0.0281629
0.027273
0.0263908
0.025526
0.0246861
0.0238766
0.0231017
0.0223636
0.0216643
0.0210036
0.0203825
0.0197983
0.0192521
0.0324434
0.0322351
0.0318526
0.0313291
0.0306962
0.0299828
0.0292139
0.0284108
0.0275906
0.0267673
0.0259522
0.0251541
0.0243798
0.0236343
0.0229211
0.0222423
0.0215996
0.0209927
0.0204223
0.0198862
0.019385
0.031578
0.0313838
0.0310275
0.0305401
0.0299513
0.029288
0.028574
0.027829
0.0270691
0.0263073
0.0255538
0.0248168
0.0241024
0.023415
0.022758
0.022133
0.0215415
0.0209833
0.0204588
0.019966
0.0195053
0.0307882
0.0306073
0.0302753
0.0298214
0.0292733
0.0286565
0.0279931
0.0273015
0.0265969
0.0258911
0.0251938
0.0245123
0.0238522
0.0232175
0.0226112
0.0220347
0.0214893
0.0209748
0.0204914
0.0200375
0.0196132
0.0300737
0.0299049
0.0295953
0.0291722
0.0286615
0.0280872
0.0274699
0.026827
0.0261725
0.0255175
0.0248709
0.0242393
0.0236281
0.0230407
0.0224797
0.0219467
0.0214425
0.020967
0.0205203
0.0201009
0.0197089
0.0294342
0.0292764
0.0289871
0.0285919
0.0281151
0.0275791
0.0270034
0.0264042
0.0257947
0.0251852
0.0245838
0.0239969
0.0234291
0.0228836
0.022363
0.0218684
0.0214007
0.0209597
0.0205454
0.0201565
0.019793
0.0288696
0.0287217
0.0284506
0.0280802
0.0276335
0.0271317
0.0265929
0.0260325
0.0254627
0.0248933
0.0243319
0.0237841
0.0232545
0.0227459
0.0222605
0.0217996
0.0213637
0.0209528
0.0205667
0.0202045
0.0198657
0.0283802
0.0282409
0.0279857
0.0276371
0.0272168
0.0267447
0.0262381
0.0257113
0.0251761
0.0246414
0.0241145
0.0236006
0.0231038
0.022627
0.022172
0.0217399
0.0213314
0.0209463
0.0205845
0.0202451
0.0199276
0.0279667
0.0278348
0.027593
0.0272629
0.026865
0.0264182
0.0259389
0.0254407
0.0249346
0.0244293
0.0239314
0.0234461
0.022977
0.0225268
0.0220973
0.0216895
0.021304
0.0209405
0.020599
0.0202787
0.0199789
0.0276303
0.0275043
0.0272737
0.0269587
0.0265791
0.026153
0.0256959
0.0252209
0.0247386
0.0242571
0.0237829
0.0233207
0.0228741
0.0224455
0.0220367
0.0216485
0.0212814
0.0209355
0.0206104
0.0203054
0.02002
0.0273727
0.0272514
0.0270293
0.026726
0.0263605
0.0259502
0.0255101
0.025053
0.0245888
0.0241256
0.0236694
0.0232249
0.0227954
0.0223833
0.0219902
0.021617
0.0212641
0.0209314
0.0206188
0.0203255
0.0200511
0.0271968
0.0270787
0.0268624
0.0265671
0.0262113
0.0258118
0.0253834
0.0249384
0.0244867
0.0240359
0.023592
0.0231596
0.0227417
0.0223409
0.0219585
0.0215954
0.0212521
0.0209285
0.0206243
0.020339
0.020072
0.0271063
0.0269898
0.0267765
0.0264855
0.0261347
0.0257408
0.0253184
0.0248796
0.0244342
0.0239898
0.0235523
0.023126
0.0227142
0.0223191
0.0219422
0.0215843
0.0212459
0.020927
0.0206272
0.0203459
0.0200827
0.118899
0.120059
0.122325
0.125558
0.129666
0.134673
0.140486
0.147202
0.154717
0.163192
0.172481
0.182825
0.194034
0.206395
0.219682
0.234224
0.249744
0.266623
0.284469
0.303775
0.323874
0.345651
0.367738
0.118898
0.120057
0.122324
0.125556
0.129665
0.134672
0.140484
0.1472
0.154713
0.163185
0.172472
0.182811
0.194013
0.206365
0.21964
0.234167
0.249665
0.266516
0.284326
0.303591
0.323639
0.345336
0.367338
0.11889
0.120048
0.122315
0.125547
0.129655
0.134661
0.140471
0.147185
0.154694
0.163161
0.172442
0.18277
0.19396
0.206295
0.219546
0.234045
0.249503
0.266306
0.284049
0.303235
0.323185
0.344751
0.366594
0.118874
0.120032
0.122298
0.12553
0.129637
0.134641
0.140448
0.147158
0.154661
0.16312
0.172391
0.182705
0.193874
0.206184
0.219401
0.233857
0.249257
0.265989
0.283638
0.30271
0.322514
0.343896
0.365506
0.118852
0.120009
0.122274
0.125505
0.129609
0.134611
0.140415
0.147119
0.154615
0.163062
0.172319
0.182613
0.193757
0.206033
0.219205
0.233605
0.248928
0.265567
0.283091
0.302014
0.321624
0.34277
0.364075
0.118822
0.119978
0.122242
0.125471
0.129574
0.134572
0.140371
0.147068
0.154553
0.162987
0.172226
0.182496
0.193607
0.205842
0.218957
0.233287
0.248515
0.265039
0.28241
0.301148
0.320517
0.341374
0.362301
0.118786
0.11994
0.122203
0.12543
0.129529
0.134523
0.140316
0.147004
0.154478
0.162895
0.172112
0.182353
0.193425
0.20561
0.218658
0.232904
0.24802
0.264406
0.281593
0.300112
0.319194
0.339709
0.360187
0.118742
0.119895
0.122156
0.125381
0.129476
0.134465
0.140251
0.146929
0.154388
0.162786
0.171978
0.182185
0.193212
0.205338
0.218307
0.232456
0.247441
0.263667
0.280643
0.298907
0.317656
0.337777
0.357735
0.118692
0.119843
0.122102
0.125322
0.129415
0.134398
0.140175
0.146841
0.154285
0.16266
0.171823
0.181991
0.192966
0.205026
0.217905
0.231944
0.246779
0.262824
0.279559
0.297533
0.315904
0.335579
0.354949
0.118634
0.119784
0.122041
0.125256
0.129345
0.134321
0.140089
0.146741
0.154167
0.162518
0.171648
0.181772
0.192688
0.204674
0.217453
0.231367
0.246035
0.261876
0.278342
0.295993
0.31394
0.333118
0.351831
0.11857
0.119718
0.121972
0.125184
0.129267
0.134235
0.139992
0.14663
0.154035
0.162358
0.171452
0.181527
0.192379
0.204282
0.21695
0.230726
0.245209
0.260826
0.276993
0.294287
0.311766
0.330396
0.348385
0.118499
0.119644
0.121896
0.125104
0.129181
0.13414
0.139886
0.146506
0.15389
0.162182
0.171236
0.181258
0.192039
0.203851
0.216397
0.230021
0.244301
0.259672
0.275512
0.292416
0.309383
0.327416
0.344615
0.11842
0.119564
0.121812
0.125016
0.129086
0.134036
0.139769
0.146371
0.15373
0.16199
0.171
0.180963
0.191667
0.20338
0.215793
0.229253
0.243313
0.258416
0.273901
0.290382
0.306794
0.324181
0.340525
0.118335
0.119476
0.121722
0.12492
0.128984
0.133922
0.139641
0.146224
0.153557
0.161781
0.170744
0.180644
0.191265
0.20287
0.21514
0.228422
0.242244
0.257058
0.272161
0.288187
0.304001
0.320695
0.336121
0.118243
0.119382
0.121623
0.124817
0.128873
0.1338
0.139504
0.146065
0.153371
0.161555
0.170468
0.1803
0.190831
0.202321
0.214437
0.227528
0.241094
0.2556
0.270293
0.285831
0.301006
0.316959
0.331408
0.118144
0.119281
0.121518
0.124706
0.128754
0.133669
0.139357
0.145895
0.153171
0.161314
0.170172
0.179931
0.190367
0.201733
0.213686
0.226572
0.239866
0.254041
0.268297
0.283317
0.297811
0.312979
0.326391
0.118039
0.119173
0.121406
0.124588
0.128627
0.133529
0.1392
0.145714
0.152957
0.161056
0.169857
0.179539
0.189873
0.201107
0.212885
0.225554
0.238559
0.252383
0.266175
0.280646
0.29442
0.308758
0.321076
0.117927
0.119058
0.121287
0.124462
0.128492
0.13338
0.139033
0.145521
0.152731
0.160783
0.169522
0.179122
0.189348
0.200442
0.212037
0.224475
0.237173
0.250627
0.263928
0.27782
0.290835
0.3043
0.315469
0.117808
0.118936
0.12116
0.12433
0.128349
0.133222
0.138857
0.145318
0.152491
0.160494
0.169168
0.178681
0.188794
0.19974
0.21114
0.223334
0.23571
0.248774
0.261558
0.274841
0.287058
0.29961
0.309577
0.117682
0.118808
0.121027
0.12419
0.128199
0.133056
0.138671
0.145103
0.152239
0.160189
0.168796
0.178217
0.18821
0.199
0.210196
0.222134
0.234171
0.246824
0.259066
0.271712
0.283093
0.294692
0.303406
0.11755
0.118673
0.120887
0.12404
0.12804
0.132882
0.138475
0.144877
0.151974
0.159869
0.168404
0.177729
0.187597
0.198223
0.209205
0.220873
0.232555
0.244779
0.256452
0.268434
0.278943
0.28955
0.296965
0.117411
0.118532
0.120741
0.123876
0.127873
0.132699
0.13827
0.144641
0.151696
0.159534
0.167994
0.177218
0.186955
0.19741
0.208168
0.219553
0.230864
0.242639
0.25372
0.26501
0.274611
0.28419
0.29026
0.117266
0.118384
0.120588
0.12372
0.127699
0.132509
0.138056
0.144394
0.151406
0.159184
0.167566
0.176684
0.186284
0.196559
0.207084
0.218174
0.229099
0.240406
0.25087
0.261442
0.2701
0.278617
0.283299
0.117114
0.118229
0.120428
0.123547
0.127517
0.13231
0.137833
0.144137
0.151103
0.158819
0.167119
0.176128
0.185585
0.195673
0.205955
0.216736
0.227261
0.23808
0.247904
0.257732
0.265413
0.272836
0.27609
0.116956
0.118069
0.120261
0.123371
0.127328
0.132103
0.137601
0.143869
0.150789
0.158439
0.166655
0.175549
0.184858
0.19475
0.204781
0.215241
0.22535
0.235663
0.244824
0.253883
0.260553
0.266852
0.268641
0.116791
0.117902
0.120088
0.12319
0.127133
0.131888
0.137361
0.143592
0.150462
0.158046
0.166173
0.174948
0.184103
0.193792
0.203562
0.213689
0.223368
0.233155
0.24163
0.249897
0.255525
0.260672
0.260959
0.116621
0.117729
0.119909
0.123002
0.12693
0.131666
0.137111
0.143304
0.150124
0.157638
0.165674
0.174325
0.183321
0.1928
0.202299
0.212079
0.221315
0.230557
0.238326
0.245777
0.250331
0.2543
0.253053
0.116444
0.117549
0.119722
0.122808
0.126721
0.131436
0.136853
0.143007
0.149774
0.157216
0.165157
0.173681
0.182511
0.191772
0.200992
0.210414
0.219192
0.227871
0.234913
0.241524
0.244975
0.247744
0.244931
0.116261
0.117364
0.119529
0.122607
0.126505
0.131199
0.136587
0.1427
0.149413
0.15678
0.164624
0.173016
0.181675
0.19071
0.199643
0.208693
0.217
0.225098
0.231393
0.237142
0.239461
0.241009
0.236601
0.116071
0.117173
0.119332
0.122399
0.126282
0.130954
0.136313
0.142384
0.149041
0.156331
0.164074
0.17233
0.180813
0.189615
0.198251
0.206917
0.21474
0.222237
0.227768
0.232632
0.233791
0.234102
0.228069
0.115876
0.116976
0.119132
0.122185
0.126052
0.130702
0.136031
0.142058
0.148658
0.155869
0.163508
0.171623
0.179925
0.188486
0.196816
0.205087
0.212413
0.219291
0.22404
0.227997
0.227969
0.227028
0.219341
0.115675
0.116774
0.118921
0.121965
0.125816
0.130443
0.13574
0.141724
0.148265
0.155394
0.162925
0.170896
0.179011
0.187324
0.19534
0.203203
0.210021
0.21626
0.220211
0.223238
0.222
0.219796
0.210424
0.115468
0.116565
0.118705
0.121739
0.125574
0.130178
0.135442
0.14138
0.14786
0.154906
0.162327
0.170149
0.178071
0.18613
0.193823
0.201267
0.207562
0.213146
0.216284
0.218357
0.215887
0.21241
0.201322
0.115255
0.11635
0.118483
0.121507
0.125326
0.129906
0.135137
0.141028
0.147446
0.154405
0.161714
0.169382
0.177107
0.184904
0.192265
0.199278
0.20504
0.209949
0.212261
0.213355
0.209636
0.204877
0.192034
0.115037
0.116131
0.118256
0.12127
0.125072
0.129627
0.134824
0.140668
0.147021
0.153893
0.161085
0.168597
0.176118
0.183646
0.190667
0.197237
0.202453
0.206669
0.208142
0.208233
0.203249
0.1972
0.114813
0.115907
0.118024
0.121027
0.124811
0.12934
0.134503
0.140298
0.146585
0.153366
0.160438
0.167788
0.175101
0.182353
0.189024
0.19514
0.199799
0.203304
0.203927
0.202989
0.196731
0.189381
0.114583
0.115676
0.117786
0.120778
0.124544
0.129048
0.134175
0.139919
0.146138
0.152826
0.159775
0.16696
0.174058
0.181026
0.18734
0.192991
0.197081
0.199861
0.199626
0.197635
0.190102
0.181434
0.114348
0.115441
0.117545
0.120527
0.124277
0.128757
0.13385
0.139546
0.145699
0.152295
0.159122
0.166141
0.173024
0.179706
0.185656
0.190835
0.194346
0.196384
0.195276
0.1922
0.183384
0.173382
0.114107
0.115202
0.117302
0.120276
0.124013
0.128472
0.133535
0.139188
0.14528
0.151789
0.158497
0.165354
0.17202
0.178412
0.183987
0.188675
0.191578
0.192837
0.190812
0.186582
0.176436
0.165042
0.11386
0.114951
0.117038
0.119994
0.123704
0.128126
0.13314
0.138724
0.144727
0.151116
0.157669
0.16432
0.170723
0.17677
0.181919
0.186056
0.188303
0.188727
0.185775
0.180355
0.168966
0.11345
0.114538
0.116598
0.119516
0.123175
0.127537
0.132483
0.137997
0.143932
0.150251
0.156746
0.163339
0.169706
0.175723
0.180875
0.185025
0.187342
0.187845
0.185064
0.179801
0.168731
0.113706
0.114798
0.116869
0.119806
0.123492
0.127892
0.132887
0.138469
0.144494
0.150935
0.157586
0.164389
0.171022
0.177387
0.182972
0.187679
0.190662
0.19201
0.190168
0.186114
0.176292
0.165181
0.113954
0.115046
0.117123
0.120069
0.12377
0.128192
0.133219
0.138847
0.144934
0.151463
0.158235
0.165202
0.172053
0.178711
0.184672
0.189874
0.193468
0.195603
0.194685
0.191801
0.183313
0.17365
0.114198
0.115291
0.117375
0.120332
0.124051
0.128499
0.133561
0.139239
0.145395
0.152017
0.158913
0.166047
0.173116
0.180062
0.186389
0.192066
0.196243
0.199125
0.199083
0.1973
0.190092
0.181812
0.114436
0.115531
0.117623
0.120593
0.12433
0.128807
0.133906
0.139636
0.145861
0.152579
0.159599
0.166901
0.174187
0.181419
0.188106
0.194251
0.198999
0.202613
0.203432
0.202717
0.196777
0.18986
0.114669
0.115764
0.117866
0.120848
0.124604
0.129108
0.134243
0.140024
0.146317
0.153127
0.160269
0.167735
0.175231
0.182742
0.189781
0.196383
0.201691
0.20602
0.207691
0.20802
0.203349
0.197772
0.114897
0.115994
0.118105
0.121097
0.124872
0.129402
0.134572
0.140403
0.146761
0.153661
0.160921
0.168546
0.176247
0.184029
0.191411
0.198459
0.204314
0.209341
0.211851
0.213197
0.209785
0.205531
0.115119
0.116218
0.118336
0.121341
0.125134
0.12969
0.134894
0.140773
0.147195
0.154183
0.161558
0.169337
0.177239
0.185284
0.192999
0.200481
0.206871
0.212578
0.215913
0.21825
0.216083
0.213136
0.202343
0.115335
0.116436
0.118556
0.121581
0.12539
0.129971
0.135208
0.141135
0.147619
0.154692
0.16218
0.17011
0.178205
0.186507
0.194547
0.20245
0.209363
0.21573
0.219876
0.223178
0.222238
0.220585
0.211516
0.115545
0.116648
0.118778
0.121817
0.12564
0.130245
0.135515
0.141488
0.148033
0.155189
0.162786
0.170862
0.179146
0.187697
0.196053
0.204366
0.211788
0.218797
0.223739
0.227981
0.228246
0.227872
0.220497
0.11575
0.116855
0.118992
0.12204
0.125883
0.130513
0.135814
0.141832
0.148436
0.155673
0.163376
0.171594
0.180061
0.188855
0.197516
0.206228
0.214145
0.221778
0.227498
0.232655
0.234103
0.23499
0.229282
0.115949
0.117056
0.1192
0.12225
0.126122
0.130774
0.136106
0.142167
0.148828
0.156144
0.163949
0.172305
0.18095
0.189978
0.198938
0.208034
0.216435
0.224671
0.231153
0.237201
0.239806
0.241935
0.237865
0.116142
0.117252
0.119403
0.122466
0.126358
0.131029
0.136389
0.142493
0.14921
0.156602
0.164506
0.172996
0.181812
0.191068
0.200316
0.209785
0.218656
0.227476
0.234702
0.241615
0.24535
0.2487
0.246237
0.116329
0.117441
0.119599
0.122673
0.126581
0.131276
0.136664
0.14281
0.14958
0.157045
0.165046
0.173665
0.182648
0.192123
0.20165
0.21148
0.220807
0.230192
0.238141
0.245895
0.250732
0.25528
0.254393
0.116509
0.117624
0.119789
0.122872
0.126773
0.131516
0.136932
0.143117
0.149938
0.157475
0.165569
0.174313
0.183456
0.193144
0.202941
0.213118
0.222887
0.232817
0.241469
0.25004
0.255949
0.261668
0.262325
0.116684
0.117801
0.119973
0.123066
0.126987
0.131758
0.137191
0.143414
0.150286
0.157891
0.166075
0.174939
0.184237
0.194129
0.204187
0.214699
0.224896
0.235352
0.244686
0.254048
0.260996
0.267859
0.270025
0.116852
0.117972
0.120151
0.123253
0.127189
0.132015
0.137443
0.143702
0.150621
0.158292
0.166563
0.175543
0.184991
0.195078
0.205389
0.216222
0.226832
0.237794
0.247787
0.257915
0.26587
0.273848
0.277484
0.117014
0.118137
0.120322
0.123434
0.12738
0.132118
0.137687
0.143979
0.150944
0.158679
0.167033
0.176125
0.185716
0.195992
0.206544
0.217686
0.228695
0.240144
0.250773
0.26164
0.270569
0.279629
0.284696
0.11717
0.118295
0.120487
0.123607
0.127565
0.132355
0.137923
0.144248
0.151256
0.159051
0.167485
0.176684
0.186413
0.19687
0.207654
0.219092
0.230484
0.2424
0.253641
0.26522
0.275088
0.285196
0.291652
0.117319
0.118447
0.120645
0.123774
0.127745
0.132559
0.138158
0.144507
0.151555
0.159408
0.16792
0.17722
0.187081
0.19771
0.208718
0.220438
0.232198
0.244561
0.25639
0.268654
0.279425
0.290545
0.298345
0.117462
0.118593
0.120796
0.123934
0.127917
0.132746
0.138358
0.144756
0.151843
0.15975
0.168335
0.177733
0.18772
0.198514
0.209735
0.221724
0.233837
0.246626
0.259018
0.271939
0.283577
0.295671
0.304767
0.117599
0.118732
0.120941
0.124087
0.128082
0.132925
0.138543
0.144995
0.152118
0.160077
0.168733
0.178223
0.18833
0.19928
0.210705
0.222949
0.235398
0.248594
0.261524
0.275072
0.28754
0.300569
0.310911
0.117728
0.118864
0.121078
0.124233
0.128238
0.133097
0.138738
0.14523
0.152381
0.160388
0.169111
0.178689
0.18891
0.200008
0.211626
0.224114
0.236883
0.250465
0.263906
0.278053
0.291311
0.305234
0.31677
0.117852
0.11899
0.121209
0.124371
0.128387
0.13326
0.138919
0.14546
0.152634
0.160683
0.169471
0.179131
0.18946
0.200699
0.2125
0.225218
0.238289
0.252237
0.266164
0.280879
0.294889
0.309663
0.322338
0.117968
0.119109
0.121333
0.124502
0.128529
0.133416
0.139088
0.145578
0.152874
0.160963
0.169812
0.17955
0.18998
0.201351
0.213325
0.226259
0.239617
0.25391
0.268295
0.283548
0.298269
0.313851
0.327608
0.118078
0.119221
0.12145
0.124626
0.128662
0.133563
0.13925
0.145784
0.153109
0.161226
0.170135
0.179944
0.190471
0.201965
0.214102
0.227239
0.240865
0.255483
0.270299
0.286058
0.30145
0.317794
0.332575
0.118181
0.119326
0.12156
0.124743
0.128787
0.133701
0.139403
0.145963
0.153326
0.161474
0.170438
0.180314
0.19093
0.20254
0.214829
0.228155
0.242033
0.256955
0.272174
0.288408
0.304428
0.321489
0.337232
0.118277
0.119424
0.121662
0.124851
0.128904
0.13383
0.139547
0.146124
0.153454
0.161713
0.170724
0.180659
0.191359
0.203076
0.215506
0.229009
0.243121
0.258325
0.27392
0.290596
0.307203
0.324932
0.341575
0.118367
0.119516
0.121758
0.124953
0.129014
0.13395
0.139681
0.146277
0.153647
0.161978
0.170993
0.18098
0.191757
0.203573
0.216134
0.2298
0.244128
0.259593
0.275535
0.292621
0.309771
0.328121
0.345598
0.118449
0.1196
0.121846
0.125046
0.129114
0.134062
0.139804
0.14642
0.153812
0.162111
0.171254
0.181277
0.192124
0.20403
0.216712
0.230527
0.245053
0.260758
0.277019
0.294482
0.312131
0.331051
0.349298
0.118525
0.119678
0.121927
0.125132
0.129207
0.134164
0.139918
0.14655
0.153963
0.162332
0.171515
0.181556
0.19246
0.204448
0.217239
0.23119
0.245896
0.26182
0.27837
0.296176
0.314282
0.33372
0.35267
0.118594
0.119748
0.122
0.12521
0.129291
0.134257
0.140022
0.14667
0.154103
0.162493
0.171573
0.181824
0.192771
0.204826
0.217715
0.231789
0.246658
0.262778
0.279588
0.297704
0.31622
0.336126
0.35571
0.118656
0.119811
0.122066
0.12528
0.129367
0.134341
0.140115
0.146777
0.154228
0.162632
0.171784
0.182
0.19306
0.205172
0.218141
0.232323
0.247336
0.263631
0.280673
0.299063
0.317947
0.338267
0.358416
0.118711
0.119867
0.122125
0.125343
0.129434
0.134416
0.140198
0.146873
0.154339
0.162759
0.171951
0.18219
0.193276
0.205488
0.218526
0.232794
0.247931
0.264379
0.281622
0.300254
0.31946
0.34014
0.360783
0.118759
0.119916
0.122176
0.125397
0.129493
0.134481