/*--------------------------------*- C++ -*----------------------------------*\
  =========                 |
  \\      /  F ield         | OpenFOAM: The Open Source CFD Toolbox
   \\    /   O peration     | Website:  https://openfoam.org
    \\  /    A nd           | Version:  7
     \\/     M anipulation  |
\*---------------------------------------------------------------------------*/
FoamFile
{
    version     2.0;
    format      ascii;
    class       surfaceScalarField;
    location    "300";
    object      phi;
}
// * * * * * * * * * * * * * * * * * * * * * * * * * * * * * * * * * * * * * //

dimensions      [0 3 -1 0 0 0 0];

internalField   nonuniform List<scalar> 
8921
(
-0.0024608
-0.0010643
-0.00238693
-0.00108241
-0.00231218
-0.00109998
-0.0010414
-0.00218357
-0.00223657
-0.00111701
-0.00105703
-0.00210894
-0.00216012
-0.00113349
-0.00107212
-0.0020335
-0.00208284
-0.0011494
-0.00108665
-0.00195729
-0.00200477
-0.00116473
-0.00102366
-0.00183666
-0.00110063
-0.00188031
-0.00192591
-0.00117949
-0.00103635
-0.00176078
-0.00111405
-0.00180261
-0.00184631
-0.00119365
-0.0010485
-0.00168422
-0.0011269
-0.00172421
-0.00176599
-0.00120722
-0.0010601
-0.001607
-0.00113918
-0.00164513
-0.00168498
-0.00122019
-0.000993309
-0.00149489
-0.00107116
-0.00152915
-0.00115088
-0.00156541
-0.00160331
-0.00123255
-0.00100321
-0.00141823
-0.00108166
-0.0014507
-0.001162
-0.00148507
-0.001521
-0.0012443
-0.00101258
-0.00134101
-0.00109161
-0.00137168
-0.00117253
-0.00140415
-0.0014381
-0.00125543
-0.00102143
-0.00126325
-0.00110099
-0.00129212
-0.00118246
-0.00132268
-0.00135463
-0.00126594
-0.00102974
-0.001185
-0.00110981
-0.00121205
-0.00119181
-0.00124068
-0.00127062
-0.00127581
-0.0009588
-0.00108254
-0.00103752
-0.00110629
-0.00111806
-0.0011315
-0.00120055
-0.0011582
-0.00118612
-0.00128505
-0.000965603
-0.00100512
-0.00104475
-0.00102713
-0.00112575
-0.00105051
-0.00120869
-0.00107526
-0.00110114
-0.00129366
-0.000971896
-0.000927311
-0.00105145
-0.000947578
-0.00113286
-0.000969109
-0.00121622
-0.000991897
-0.00101574
-0.00130163
-0.000977679
-0.000849132
-0.00105761
-0.000867651
-0.00113939
-0.000887325
-0.00122314
-0.000908147
-0.000929929
-0.00130895
-0.000982949
-0.000770622
-0.00106321
-0.000787386
-0.00114535
-0.000805194
-0.00122945
-0.000824042
-0.000843758
-0.00131562
-0.000987704
-0.000691811
-0.00106828
-0.000706814
-0.00115072
-0.000722751
-0.00123515
-0.000739616
-0.000757257
-0.00132165
-0.000991944
-0.000612732
-0.00107279
-0.000625969
-0.00115551
-0.000640028
-0.00124022
-0.000654904
-0.000670464
-0.00132702
-0.000995666
-0.000533419
-0.00107675
-0.000544884
-0.00115972
-0.00055706
-0.00124468
-0.000569941
-0.000583412
-0.00133173
-0.00099887
-0.000453902
-0.00108016
-0.000463592
-0.00116334
-0.000473881
-0.00124852
-0.000484761
-0.000496138
-0.00133579
-0.00100155
-0.000374216
-0.00108302
-0.000382128
-0.00116638
-0.000390525
-0.00125174
-0.0003994
-0.000408677
-0.0013392
-0.00100372
-0.000294394
-0.00108532
-0.000300524
-0.00116882
-0.000307026
-0.00125433
-0.000313894
-0.000321067
-0.00134194
-0.000925436
-0.00021037
-0.00100536
-0.000214468
-0.00108707
-0.000218815
-0.00117068
-0.000223419
-0.00125629
-0.000228276
-0.000233343
-0.00134402
-0.000926487
-0.000132048
-0.00100648
-0.000134471
-0.00108826
-0.000137034
-0.00117194
-0.000139739
-0.00125764
-0.000142584
-0.000145541
-0.00134544
-0.000927049
-5.36904e-05
-0.00100708
-5.44377e-05
-0.0010889
-5.52147e-05
-0.00117262
-5.60208e-05
-0.00125835
-5.68539e-05
-5.77006e-05
-0.00134619
-0.000927123
2.46712e-05
-0.00100716
2.55997e-05
-0.00108898
2.66079e-05
-0.0011727
2.7701e-05
-0.00125844
2.8879e-05
3.01336e-05
-0.00134627
-0.000926707
0.000103004
-0.00100672
0.000105608
-0.00108851
0.000108401
-0.0011722
0.000111392
-0.0012579
0.000114581
0.000117928
-0.0013457
-0.000925803
-0.00100575
0.000185553
-0.00108748
0.00019013
-0.00117111
0.00019502
-0.00125674
0.00020022
0.000205679
-0.0013445
-0.00100426
0.000265403
-0.00108589
0.000271762
-0.00116942
0.000278549
-0.00125496
0.000285759
0.000293328
-0.00134261
-0.00100225
0.000345124
-0.00108375
0.000353263
-0.00116714
0.000361944
-0.00125255
0.000371161
0.000380834
-0.00134005
-0.000999718
0.000424682
-0.00108105
0.000434599
-0.00116428
0.000445169
-0.00124951
0.000456391
0.000468162
-0.00133684
-0.000996667
0.000504045
-0.0010778
0.000515735
-0.00116083
0.000528192
-0.00124585
0.000541412
0.000555277
-0.00133296
-0.000993097
0.000583181
-0.001074
0.000596639
-0.00115679
0.000610977
-0.00124156
0.00062619
0.000642142
-0.00132843
-0.000989008
0.000662055
-0.00106965
0.000677277
-0.00115216
0.00069349
-0.00123666
0.000710689
0.000728721
-0.00132324
-0.000984403
0.000740635
-0.00106474
0.000757616
-0.00114695
0.000775696
-0.00123113
0.000794876
0.000814979
-0.00131739
-0.000979283
0.00081889
-0.00105929
0.000837622
-0.00114116
0.000857563
-0.00122499
0.000878714
0.00090088
-0.0013109
-0.000973649
0.000896787
-0.00105329
0.000917263
-0.00113478
0.000939057
-0.00121824
0.00096217
0.000986388
-0.00130375
-0.000967503
0.000974293
-0.00104675
0.000996507
-0.00112783
0.00102014
-0.00121087
0.00104521
0.00107147
-0.00129596
-0.000960847
-0.00103966
0.00107532
-0.00112031
0.00110079
-0.0012029
0.0011278
0.00115609
-0.00128752
-0.00103204
0.00115367
-0.00111221
0.00118097
-0.00119432
0.00120991
0.00124021
-0.00127844
-0.00102387
0.00123153
-0.00110355
0.00126064
-0.00118514
0.0012915
0.00132381
-0.00126873
-0.00101518
0.00130887
-0.00109431
0.00133978
-0.00117536
0.00137254
0.00140684
-0.00125839
-0.00100595
0.00138565
-0.00108452
0.00141835
-0.00116498
0.001453
0.00148928
-0.00124742
-0.000996195
-0.00107417
0.00149632
-0.00115402
0.00153285
0.00157108
-0.00123583
-0.00106326
0.00157366
-0.00114247
0.00161206
0.00165223
-0.00122362
-0.0010518
0.00165035
-0.00113034
0.00169059
0.00173269
-0.0012108
-0.0010398
0.00172636
-0.00111764
0.00176843
0.00181243
-0.00119738
-0.00102726
-0.00110436
0.00184554
0.00189143
-0.00118335
-0.00109053
0.00192189
0.00196964
-0.00116874
-0.00107613
0.00199746
0.00204706
-0.00115355
-0.00106119
0.00212365
-0.00113778
0.0021994
-0.00112145
0.00227428
-0.00110456
-0.00108712
0.00559879
5.28649e-05
-4.96826e-05
0.00558999
0.000158141
-0.00014934
0.00557647
0.000260059
-0.00024654
0.00555887
0.000358607
-0.000341012
0.00553754
0.000454654
-0.000433317
0.00551299
0.000548413
-0.000523866
0.00548537
0.000640973
-0.000613349
0.00545527
0.000732443
-0.000702343
0.00542282
0.000824652
-0.00079221
0.00538891
0.000917189
-0.000883276
0.00535379
0.00101249
-0.000977373
0.00531885
0.00110896
-0.00107402
0.00528453
0.00120971
-0.00117539
0.00525304
0.00131103
-0.00127953
0.00522491
0.00141737
-0.00138925
0.00520366
0.00152121
-0.00149996
0.00518934
0.00163068
-0.00161635
0.00518803
0.00172987
-0.00172856
0.00519702
0.00183844
-0.00184742
0.00522926
0.00191743
-0.00194967
0.00202607
-0.00206876
0.00573206
5.59608e-05
0.00572349
0.000166717
0.00571032
0.000273224
0.00569329
0.000375641
0.0056727
0.000475245
0.00564921
0.0005719
0.00562294
0.000667239
0.00559468
0.000760704
0.00556454
0.000854793
0.00553365
0.000948079
0.00550223
0.00104391
0.00547202
0.00113918
0.00544332
0.0012384
0.00541886
0.00133549
0.00539874
0.00143749
0.00538731
0.00153265
0.00538357
0.00163442
0.00539476
0.00171868
0.00541666
0.00181654
0.00546205
0.00187203
0.00196703
0.0058685
5.89726e-05
0.00586021
0.000175004
0.00584752
0.000285917
0.00583119
0.00039197
0.00581156
0.000494869
0.00578936
0.000594101
0.00576477
0.000691833
0.00573864
0.000786832
0.00571118
0.00088225
0.00568363
0.000975631
0.00565629
0.00107126
0.00563102
0.00116444
0.00560818
0.00126125
0.0055906
0.00135307
0.00557835
0.00144974
0.00557573
0.00153527
0.00558171
0.00162844
0.00560271
0.00169767
0.00563544
0.00178381
0.00568798
0.00181949
0.00189981
0.00600819
6.18834e-05
0.00600024
0.000182952
0.00598811
0.000298049
0.00597261
0.00040747
0.00595412
0.00051336
0.00593341
0.000614817
0.00591072
0.000714519
0.00588699
0.000810566
0.0058625
0.000906739
0.00583856
0.00099957
0.00581556
0.00109425
0.00579542
0.00118458
0.00577855
0.00127811
0.00576774
0.00136389
0.0057631
0.00145437
0.00576851
0.00152987
0.00578328
0.00161366
0.00581221
0.00166875
0.00585355
0.00174247
0.0059109
0.00176214
0.001827
0.00615122
6.46758e-05
0.00614366
0.000190516
0.00613217
0.000309542
0.0061176
0.000422036
0.00610038
0.000530581
0.00608131
0.000633883
0.00606073
0.000735104
0.0060396
0.000831697
0.0060183
0.000928039
0.00599818
0.00101969
0.00597972
0.00111272
0.00596481
0.00119949
0.00595395
0.00128897
0.00594971
0.00136813
0.00595238
0.0014517
0.00596511
0.00151714
0.00598776
0.00159102
0.00602329
0.00163322
0.00607147
0.00169429
0.00613285
0.00170076
0.00175043
0.00629767
6.73333e-05
0.00629053
0.000197653
0.00627975
0.000320324
0.00626621
0.000435571
0.00625038
0.00054641
0.00623311
0.000651157
0.00621478
0.000753431
0.00619642
0.000850061
0.00617847
0.000945986
0.00616231
0.00103585
0.00614848
0.00112655
0.0061388
0.00120916
0.00613387
0.0012939
0.00613593
0.00136607
0.00614548
0.00144215
0.00616482
0.00149779
0.00619436
0.00156148
0.00623547
0.0015921
0.006289
0.00164077
0.00635353
0.00163623
0.00167201
0.00644761
6.98398e-05
0.00644094
0.00020432
0.00643094
0.000330327
0.00641852
0.000447988
0.00640419
0.00056074
0.00638883
0.000666518
0.00637289
0.000769369
0.00635742
0.000865534
0.00634294
0.000960465
0.00633079
0.001048
0.00632162
0.00113572
0.00631709
0.0012137
0.00631791
0.00129308
0.0063259
0.00135808
0.00634179
0.00142626
0.00636704
0.00147254
0.00640249
0.00152604
0.00644825
0.00154633
0.00650578
0.00158325
0.00657243
0.00156957
0.00159311
0.00660112
7.21794e-05
0.00659497
0.000210477
0.00658581
0.000339485
0.0065746
0.000459202
0.00656186
0.000573472
0.00654852
0.000679863
0.00653508
0.00078281
0.00652258
0.000878027
0.00651164
0.000971406
0.00650353
0.00105612
0.00649897
0.00114028
0.00649942
0.00121325
0.00650572
0.00128678
0.00651922
0.00134458
0.00654085
0.00140464
0.0065713
0.00144208
0.00661169
0.00148565
0.00666123
0.00149679
0.00672158
0.00152289
0.00678946
0.0015017
0.0015146
0.0067583
7.43363e-05
0.0067527
0.000216084
0.00674445
0.000347734
0.00673451
0.00046914
0.00672346
0.000584518
0.00671222
0.000691103
0.00670136
0.000793668
0.00669191
0.000887481
0.00668454
0.000978777
0.00668042
0.00106024
0.00668037
0.00114032
0.00668559
0.00120802
0.00669703
0.00127534
0.00671558
0.00132603
0.0067423
0.00137792
0.00677726
0.00140712
0.00682168
0.00144123
0.00687416
0.00144431
0.00693638
0.00146068
0.00700474
0.00143334
0.00143713
0.00691923
7.62953e-05
0.00691421
0.000221104
0.00690693
0.000355017
0.00689833
0.000477732
0.00688905
0.0005938
0.00687998
0.00070017
0.00687177
0.000801881
0.00686538
0.00089387
0.00686157
0.000982588
0.00686137
0.00106044
0.00686567
0.00113602
0.00687541
0.00119829
0.0068916
0.00125916
0.00691473
0.0013029
0.00694588
0.00134677
0.00698466
0.00136834
0.00703227
0.00139362
0.00708693
0.00138965
0.00715021
0.00139739
0.00721846
0.00136509
0.00136117
0.00708399
7.8042e-05
0.00707959
0.000225506
0.00707333
0.00036128
0.00706614
0.000484921
0.00705868
0.000601252
0.00705184
0.000707011
0.00704631
0.000807412
0.00704299
0.000897193
0.00704269
0.000982884
0.0070463
0.00105683
0.00705475
0.00112757
0.00706872
0.00118432
0.00708923
0.00123864
0.00711644
0.00127569
0.00715139
0.00131182
0.00719334
0.00132638
0.00724338
0.00134358
0.00729954
0.00133349
0.00736322
0.00133371
0.00743082
0.00129749
0.00128713
0.00725268
7.9563e-05
0.00724892
0.00022926
0.00724373
0.000366477
0.00723799
0.000490657
0.00723242
0.000606827
0.00722783
0.000711592
0.007225
0.000810246
0.00722472
0.000897476
0.00722785
0.000979749
0.00723512
0.00104957
0.00724748
0.0011152
0.00726536
0.00116643
0.00728976
0.00121424
0.00732056
0.0012449
0.00735869
0.00127369
0.00740319
0.00128188
0.007455
0.00129177
0.00751205
0.00127644
0.00757557
0.00127019
0.00764209
0.00123097
0.0012153
0.00742538
8.08465e-05
0.0074223
0.000232341
0.00741821
0.00037057
0.00741396
0.000494903
0.0074103
0.000610489
0.007408
0.000713895
0.00740784
0.0008104
0.00741055
0.000894771
0.007417
0.000973299
0.00742775
0.00103882
0.00744375
0.00109921
0.00746521
0.00114497
0.00749306
0.00118639
0.00752695
0.00121101
0.00756769
0.00123295
0.00761416
0.0012354
0.00766715
0.00123879
0.00772456
0.00121903
0.00778746
0.00120729
0.00785257
0.00116587
0.0011459
0.0076022
8.18823e-05
0.00759981
0.000234727
0.00759685
0.00037353
0.00759412
0.000497631
0.00759239
0.000612222
0.00759236
0.000713924
0.00759485
0.00080791
0.00760046
0.000889157
0.00761008
0.000963678
0.00762412
0.00102478
0.00764346
0.00107986
0.00766816
0.00112027
0.00769901
0.00115554
0.00773552
0.0011745
0.00777834
0.00119013
0.00782627
0.00118748
0.00787991
0.00118515
0.00793723
0.0011617
0.00799914
0.00114538
0.00806256
0.00110245
0.00107907
0.00778322
8.26624e-05
0.00778154
0.000236403
0.00777974
0.000375336
0.00777854
0.000498825
0.00777874
0.000612026
0.00778096
0.000711701
0.00778603
0.000802842
0.00779445
0.000880736
0.00780707
0.000951057
0.00782417
0.00100768
0.00784656
0.00105748
0.00787413
0.0010927
0.00790756
0.00112211
0.00794623
0.00113584
0.00799064
0.00114572
0.00803954
0.00113858
0.00809339
0.00113129
0.00815024
0.00110486
0.00821086
0.00108477
0.00827238
0.00104093
0.0010149
0.00796854
8.3181e-05
0.00796759
0.000237356
0.00796695
0.000375978
0.00796729
0.000498481
0.0079694
0.000609919
0.00797383
0.000707267
0.00798139
0.000795279
0.0079925
0.000869633
0.00800793
0.000935625
0.00802785
0.00098776
0.00805296
0.00103237
0.00808305
0.00106261
0.00811865
0.00108652
0.00815904
0.00109544
0.0082046
0.00110016
0.00825405
0.00108913
0.00830774
0.0010776
0.00836379
0.0010488
0.00842287
0.00102569
0.00848234
0.000981448
0.000953444
0.00815827
8.34349e-05
0.00815804
0.000237581
0.00815857
0.000375455
0.00816044
0.000496609
0.00816442
0.000605936
0.00817101
0.00070068
0.00818096
0.000785328
0.00819459
0.000855997
0.00821263
0.000917592
0.00823512
0.000965269
0.00826264
0.00100484
0.00829489
0.00103036
0.00833226
0.00104915
0.00837398
0.00105373
0.00842027
0.00105387
0.0084699
0.0010395
0.00852309
0.00102441
0.00857808
0.000993812
0.00863544
0.000968328
0.00869277
0.000924125
0.00089472
0.0083525
8.3423e-05
0.008353
0.000237077
0.00835468
0.000373779
0.00835806
0.00049323
0.00836387
0.000600126
0.00837253
0.000692021
0.00838474
0.000773114
0.00840075
0.00083999
0.00842116
0.000897178
0.00844596
0.000940478
0.00847558
0.00097522
0.00850964
0.000996293
0.00854841
0.00101039
0.00859107
0.00101106
0.00863775
0.00100719
0.00868722
0.000990027
0.00873964
0.000971988
0.00879336
0.000940097
0.00884886
0.000912829
0.00890395
0.000869029
0.000838716
0.00855134
8.31471e-05
0.00855257
0.000235849
0.00855538
0.000370968
0.00856023
0.000488381
0.0085678
0.000592557
0.00857844
0.000681383
0.00859278
0.000758777
0.00861097
0.000821794
0.00863354
0.000874613
0.00866036
0.000913656
0.00869177
0.000943812
0.00872731
0.000960747
0.00876713
0.000970573
0.0088104
0.000967791
0.00885714
0.000960446
0.00890618
0.00094099
0.00895759
0.000920576
0.00900985
0.000887834
0.00906338
0.000859295
0.00911621
0.000816203
0.000785403
0.0087549
8.26112e-05
0.00875684
0.000233909
0.00876076
0.000367053
0.00876703
0.000482107
0.00877628
0.000583306
0.00878879
0.000668877
0.00880509
0.00074247
0.00882528
0.000801603
0.00884976
0.000850135
0.00887834
0.000885075
0.00891124
0.000910918
0.00894794
0.000924042
0.00898849
0.000930027
0.00903205
0.000924228
0.00907857
0.000913928
0.00912692
0.000892636
0.00917714
0.000870362
0.00922781
0.00083716
0.00927931
0.000807798
0.00932985
0.000765665
0.000734734
0.00896329
8.18216e-05
0.00896592
0.000231273
0.0089709
0.000362072
0.00897854
0.000474471
0.00898938
0.000572468
0.00900363
0.00065463
0.00902174
0.000724359
0.00904372
0.000779619
0.00906987
0.000823984
0.00909994
0.000855007
0.00913403
0.000876831
0.00917159
0.000886477
0.00921257
0.000889047
0.00925615
0.000880652
0.0093022
0.00086788
0.00934966
0.000845172
0.00939852
0.000821501
0.0094475
0.000788182
0.00949691
0.000758385
0.00954516
0.000717415
0.000686653
0.00917661
8.07867e-05
0.00917992
0.000227967
0.00918592
0.000356072
0.00919485
0.000465542
0.00920717
0.000560146
0.00922302
0.000638778
0.00924276
0.000704619
0.00926633
0.00075605
0.00929392
0.000796399
0.00932521
0.000823714
0.00936021
0.000841829
0.00939835
0.000848335
0.0094395
0.000847905
0.00948284
0.000837313
0.0095282
0.000822518
0.00957459
0.000798776
0.00962198
0.00077412
0.00966918
0.000740977
0.00971649
0.000711078
0.00976247
0.000671437
0.000641094
0.009395
7.9517e-05
0.00939894
0.000224019
0.00940591
0.00034911
0.00941604
0.000455404
0.00942974
0.000546455
0.00944705
0.000621467
0.00946824
0.00068343
0.00949318
0.000731108
0.00952196
0.000767618
0.00955422
0.000791453
0.00958987
0.000806174
0.00962833
0.000809877
0.00966939
0.000806845
0.00971227
0.000794432
0.00975677
0.000778025
0.00980195
0.000753591
0.00984776
0.000728315
0.00989313
0.000695602
0.00993832
0.000665884
0.00998206
0.000627699
0.000597981
0.00961855
7.8025e-05
0.00962311
0.000219465
0.00963097
0.000341247
0.00964223
0.000444145
0.00965716
0.000531517
0.00967578
0.000602853
0.00969823
0.000660977
0.00972433
0.000705006
0.00975408
0.000737873
0.00978706
0.000758469
0.00982313
0.000770113
0.00986166
0.000771341
0.00990242
0.000766087
0.00994465
0.000752203
0.00998811
0.000734559
0.010032
0.000709739
0.0100761
0.000684161
0.0101196
0.000652091
0.0101627
0.000622795
0.0102043
0.000586163
0.000557238
0.0098474
7.63246e-05
0.00985252
0.000214344
0.00986122
0.000332554
0.0098735
0.000431866
0.00988955
0.000515461
0.00990931
0.000583094
0.00993284
0.000637447
0.0099599
0.000677953
0.00999038
0.000707388
0.0100239
0.000724994
0.0100601
0.000733876
0.0100985
0.000732947
0.0101387
0.000725826
0.0101802
0.000710793
0.0102225
0.00069225
0.0102649
0.000667313
0.0103073
0.000641711
0.010349
0.000610462
0.01039
0.000581787
0.0104294
0.000546777
0.000518781
0.0100817
7.44313e-05
0.0100873
0.0002087
0.0100968
0.000323103
0.01011
0.00041867
0.010127
0.000498423
0.0101477
0.000562353
0.0101722
0.000613025
0.0102
0.000650154
0.010231
0.000676379
0.0102647
0.000691248
0.0103009
0.000697672
0.010339
0.000694891
0.0103786
0.000686234
0.010419
0.000670346
0.0104601
0.000651206
0.010501
0.000626387
0.0105417
0.000600998
0.0105814
0.000570717
0.0106204
0.000542828
0.0106577
0.000509487
0.000482525
0.0103215
7.23618e-05
0.0103276
0.000202583
0.0103377
0.000312975
0.0103517
0.000404667
0.0103696
0.000480538
0.0103912
0.000540794
0.0104163
0.000587895
0.0104447
0.000621807
0.010476
0.00064505
0.0105098
0.000657434
0.0105458
0.000661695
0.0105833
0.000657348
0.0106221
0.00064746
0.0106615
0.000630984
0.0107012
0.000611513
0.0107405
0.000587016
0.0107795
0.000562043
0.0108174
0.000532846
0.0108543
0.000505876
0.0108896
0.000474231
0.000448384
0.010567
7.01338e-05
0.0105735
0.000196042
0.0105843
0.000302252
0.010599
0.00038997
0.0106175
0.000461947
0.0106398
0.000518578
0.0106654
0.000562236
0.0106941
0.000593104
0.0107256
0.000613593
0.0107593
0.000623739
0.0107949
0.000626117
0.0108317
0.000620474
0.0108696
0.000609632
0.0109077
0.000592805
0.010946
0.000573239
0.0109838
0.000549236
0.011021
0.000524849
0.011057
0.000496829
0.011092
0.000470883
0.0111253
0.000440941
0.000416267
0.0108183
6.7766e-05
0.0108252
0.000189132
0.0108365
0.000291018
0.0108517
0.000374692
0.0108709
0.000442786
0.0108936
0.000495865
0.0109196
0.000536219
0.0109485
0.000564223
0.0109799
0.000582186
0.0110133
0.000590336
0.0110483
0.000591096
0.0110844
0.000584402
0.0111212
0.000572859
0.0111581
0.000555892
0.0111949
0.000536434
0.0112311
0.000513071
0.0112665
0.000489409
0.0113007
0.000462635
0.0113338
0.000437793
0.0113652
0.000409549
0.000386088
0.0110756
6.52773e-05
0.0110828
0.000181906
0.0110945
0.000279359
0.0111102
0.000358947
0.0111298
0.000423194
0.0111529
0.000472808
0.0111791
0.000510011
0.011208
0.000535334
0.0112391
0.000550996
0.0112721
0.000557379
0.0113064
0.000556766
0.0113416
0.00054925
0.0113772
0.00053723
0.0114128
0.000520308
0.0114481
0.000501132
0.0114826
0.000478528
0.0115163
0.000455705
0.0115488
0.000430227
0.01158
0.000406547
0.0116096
0.000379982
0.000357756
0.0113389
6.26873e-05
0.0113464
0.000174422
0.0113584
0.000267363
0.0113745
0.000342847
0.0113944
0.000403301
0.0114177
0.000449556
0.0114439
0.000483764
0.0114727
0.000506593
0.0115035
0.00052017
0.0115358
0.000525006
0.0115694
0.000523249
0.0116035
0.000515116
0.0116379
0.000502818
0.0116721
0.000486101
0.0117059
0.000467354
0.0117388
0.000445607
0.0117708
0.000423711
0.0118015
0.000399559
0.0118309
0.000377081
0.0118588
0.000352166
0.000331184
0.0116085
6.00153e-05
0.0116162
0.000166733
0.0116285
0.000255112
0.0116448
0.000326502
0.0116649
0.000383236
0.0116882
0.000426248
0.0117143
0.000457626
0.0117428
0.000478144
0.0117731
0.000489846
0.0118048
0.000493338
0.0118374
0.000490646
0.0118704
0.000482082
0.0119035
0.00046968
0.0119363
0.000453305
0.0119686
0.000435108
0.0119999
0.000414294
0.0120302
0.000393393
0.0120592
0.000370583
0.012087
0.000349329
0.0121131
0.000326025
0.000306283
0.0118845
5.72809e-05
0.0118924
0.000158896
0.0119048
0.00024269
0.0119213
0.000310017
0.0119414
0.00036312
0.0119646
0.000403017
0.0119905
0.000431729
0.0120185
0.000450118
0.0120482
0.000460142
0.0120791
0.000462483
0.0121107
0.000459044
0.0121426
0.000450212
0.0121744
0.000437858
0.0122058
0.000421938
0.0122365
0.000404393
0.0122662
0.000384568
0.0122949
0.00036471
0.0123222
0.000343245
0.0123483
0.000323223
0.0123729
0.000301484
0.000282969
0.0121671
5.45029e-05
0.012175
0.000150964
0.0121875
0.000230177
0.012204
0.000293493
0.0122241
0.000343068
0.0122471
0.000379983
0.0122726
0.000406195
0.0123001
0.000422632
0.0123291
0.000431163
0.0123591
0.000432529
0.0123896
0.000428514
0.0124202
0.000419558
0.0124507
0.000407382
0.0124807
0.000392012
0.0125098
0.000375195
0.012538
0.000356399
0.0125651
0.000337617
0.0125909
0.000317485
0.0126154
0.000298692
0.0126384
0.000278467
0.000261156
0.0124563
5.16997e-05
0.0124643
0.000142986
0.0124768
0.000217648
0.0124933
0.000277025
0.0125131
0.000323186
0.0125359
0.000357259
0.0125609
0.000381135
0.0125878
0.000395788
0.0126159
0.000403002
0.0126449
0.000403553
0.0126743
0.000399113
0.0127037
0.000390158
0.0127328
0.000378267
0.0127613
0.000363522
0.012789
0.000347496
0.0128157
0.000329753
0.0128412
0.000312063
0.0128655
0.000293246
0.0128885
0.000275666
0.01291
0.000256899
0.000240762
0.0127524
4.88887e-05
0.0127603
0.000135011
0.0127728
0.000205175
0.0127891
0.0002607
0.0128088
0.00030357
0.0128311
0.000334945
0.0128556
0.000356645
0.0128817
0.000369675
0.0129089
0.000375733
0.0129369
0.000375615
0.0129651
0.000370883
0.0129932
0.000362037
0.013021
0.000350521
0.013048
0.00033646
0.0130743
0.000321266
0.0130994
0.000304589
0.0131235
0.000287994
0.0131463
0.000270463
0.0131679
0.000254075
0.0131881
0.000236706
0.000221707
0.0130555
4.60859e-05
0.0130634
0.000127084
0.0130758
0.000192823
0.0130919
0.000244599
0.0131111
0.000284308
0.0131329
0.00031313
0.0131568
0.000332811
0.0131821
0.000344371
0.0132084
0.000349421
0.0132352
0.000348764
0.0132623
0.000343856
0.0132891
0.000335207
0.0133155
0.000324139
0.0133411
0.000310804
0.0133659
0.000296473
0.0133897
0.000280861
0.0134123
0.000265355
0.0134337
0.000249075
0.0134539
0.000233846
0.0134728
0.000217813
0.000203913
0.0133658
4.33067e-05
0.0133736
0.000119246
0.0133858
0.000180652
0.0134016
0.000228793
0.0134204
0.000265479
0.0134417
0.000291892
0.0134648
0.000309704
0.0134892
0.000319937
0.0135145
0.000324114
0.0135402
0.000323033
0.013566
0.000318049
0.0135916
0.000309672
0.0136166
0.000299108
0.0136409
0.00028653
0.0136643
0.000273076
0.0136866
0.000258519
0.0137079
0.000244086
0.013728
0.000229016
0.0137469
0.000214911
0.0137645
0.00020015
0.000187305
0.0136834
4.05646e-05
0.0136912
0.000111534
0.0137031
0.000168717
0.0137185
0.000213347
0.0137369
0.000247149
0.0137575
0.000271297
0.0137798
0.000287384
0.0138033
0.000296423
0.0138276
0.00029985
0.0138521
0.000298447
0.0138767
0.000293472
0.013901
0.000285426
0.0139247
0.000275409
0.0139476
0.000263605
0.0139696
0.000251033
0.0139906
0.000237513
0.0140106
0.000224129
0.0140294
0.000210223
0.0140471
0.000197201
0.0140636
0.000183646
0.00017181
0.0140087
3.78719e-05
0.0140162
0.000103981
0.0140279
0.000157065
0.0140429
0.000198317
0.0140607
0.000229377
0.0140806
0.0002514
0.014102
0.000265899
0.0141246
0.000273868
0.0141478
0.000276653
0.0141712
0.000275018
0.0141946
0.000270121
0.0142175
0.000262454
0.0142399
0.000253013
0.0142616
0.00024199
0.0142823
0.000230295
0.014302
0.000217787
0.0143207
0.000205421
0.0143383
0.000192632
0.0143549
0.000180647
0.0143703
0.000168234
0.000157358
0.0143416
3.52395e-05
0.0143489
9.66167e-05
0.0143603
0.000145735
0.0143748
0.00018375
0.014392
0.00021221
0.0144112
0.000232244
0.0144318
0.000245285
0.0144533
0.000252297
0.0144755
0.000254539
0.0144977
0.000252747
0.0145199
0.000247988
0.0145416
0.000240733
0.0145627
0.000231888
0.0145831
0.000221643
0.0146025
0.000210813
0.014621
0.000199285
0.0146386
0.000187902
0.014655
0.000176177
0.0146705
0.000165183
0.0146849
0.000153847
0.000143883
0.0146824
3.26766e-05
0.0146896
8.94643e-05
0.0147005
0.000134763
0.0147146
0.000169682
0.0147311
0.000195685
0.0147495
0.000213864
0.0147692
0.000225568
0.0147898
0.000231726
0.0148108
0.000233512
0.0148319
0.000231627
0.0148529
0.000227051
0.0148734
0.000220234
0.0148933
0.000211994
0.0149124
0.000202519
0.0149307
0.000192532
0.014948
0.00018195
0.0149644
0.000171511
0.0149798
0.000160797
0.0149942
0.000150745
0.0150077
0.000140422
0.000131321
0.0150313
3.01909e-05
0.0150383
8.25441e-05
0.0150489
0.000124175
0.0150624
0.000156146
0.0150782
0.00017983
0.0150958
0.000196281
0.0151146
0.000206761
0.0151342
0.00021216
0.0151541
0.000213565
0.0151741
0.000211642
0.0151939
0.000207286
0.0152132
0.000200923
0.0152319
0.000193288
0.0152499
0.000184566
0.015267
0.000175398
0.0152832
0.000165721
0.0152986
0.000156185
0.0153129
0.000146428
0.0153264
0.000137268
0.0153389
0.000127896
0.000119609
0.0153886
2.77883e-05
0.0153952
7.58715e-05
0.0154054
0.000113992
0.0154184
0.00014316
0.0154336
0.000164664
0.0154503
0.000179508
0.0154682
0.000188871
0.0154868
0.000193595
0.0155057
0.000194686
0.0155246
0.000192768
0.0155432
0.00018866
0.0155613
0.000182758
0.0155789
0.000175723
0.0155957
0.000167732
0.0156118
0.000159354
0.015627
0.000150541
0.0156413
0.000141863
0.0156547
0.00013301
0.0156673
0.000124692
0.015679
0.000116211
0.000108689
0.0157543
2.54735e-05
0.0157607
6.94578e-05
0.0157705
0.000104227
0.0157829
0.00013074
0.0157973
0.000150197
0.0158133
0.000163548
0.0158303
0.000171891
0.0158479
0.000176017
0.0158657
0.000176851
0.0158835
0.000174976
0.015901
0.000171134
0.0159181
0.000165694
0.0159346
0.000159249
0.0159503
0.000151963
0.0159653
0.000144342
0.0159795
0.00013635
0.0159929
0.000128484
0.0160054
0.000120482
0.0160172
0.000112958
0.0160281
0.000105308
9.85052e-05
0.0161287
2.32494e-05
0.0161348
6.331e-05
0.0161442
9.48892e-05
0.016156
0.000118891
0.0161698
0.000136428
0.0161849
0.000148397
0.016201
0.000155808
0.0162176
0.000159405
0.0162345
0.00016003
0.0162512
0.000158227
0.0162677
0.000154664
0.0162837
0.000149682
0.0162991
0.000143809
0.0163139
0.000137202
0.0163279
0.000130302
0.0163412
0.000123087
0.0163537
0.000115989
0.0163654
0.000108785
0.0163763
0.000102006
0.0163865
9.51324e-05
8.90026e-05
0.016512
2.11176e-05
0.0165179
5.74308e-05
0.0165268
8.59795e-05
0.0165381
0.00010761
0.0165511
0.000123351
0.0165655
0.000134039
0.0165807
0.000140602
0.0165964
0.000143729
0.0166122
0.000144188
0.016628
0.000142479
0.0166434
0.000139201
0.0166585
0.000134668
0.0166729
0.00012935
0.0166867
0.000123389
0.0166999
0.000117175
0.0167122
0.000110693
0.0167239
0.000104318
0.0167348
9.78609e-05
0.0167451
9.17796e-05
0.0167546
8.56294e-05
8.01295e-05
0.0169044
1.9078e-05
0.01691
5.18191e-05
0.0169185
7.74938e-05
0.0169292
9.689e-05
0.0169416
0.000110951
0.0169552
0.000120452
0.0169696
0.000126242
0.0169844
0.000128954
0.0169993
0.000129282
0.0170141
0.000127682
0.0170286
0.000124693
0.0170426
0.000120597
0.0170562
0.00011581
0.0170691
0.000110465
0.0170814
0.000104899
0.017093
9.91067e-05
0.0171039
9.34113e-05
0.0171141
8.76526e-05
0.0171236
8.22242e-05
0.0171325
7.67469e-05
7.18355e-05
0.0173062
1.71293e-05
0.0173115
4.647e-05
0.0173196
6.94224e-05
0.0173298
8.67143e-05
0.0173415
9.92053e-05
0.0173544
0.000107609
0.0173679
0.000112693
0.0173818
0.000115036
0.0173959
0.000115262
0.0174098
0.000113785
0.0174234
0.000111081
0.0174366
0.000107408
0.0174492
0.00010313
0.0174613
9.83668e-05
0.0174728
9.34139e-05
0.0174837
8.82685e-05
0.0174939
8.321e-05
0.0175034
7.81035e-05
0.0175123
7.32853e-05
0.0175207
6.84337e-05
6.40719e-05
0.0177175
1.5269e-05
0.0177226
4.13751e-05
0.0177303
6.17503e-05
0.0177399
7.70611e-05
0.017751
8.80849e-05
0.0177632
9.54711e-05
0.017776
9.99103e-05
0.0177891
0.000101927
0.0178023
0.000102076
0.0178153
0.000100728
0.0178281
9.83062e-05
0.0178405
9.50391e-05
0.0178523
9.1245e-05
0.0178637
8.70323e-05
0.0178744
8.26562e-05
0.0178846
7.81176e-05
0.0178941
7.36555e-05
0.0179031
6.91575e-05
0.0179115
6.49094e-05
0.0179193
6.06397e-05
5.67912e-05
0.0181386
1.3493e-05
0.0181435
3.65222e-05
0.0181507
5.44573e-05
0.0181599
6.79024e-05
0.0181704
7.75537e-05
0.0181819
8.39966e-05
0.018194
8.78458e-05
0.0182063
8.95709e-05
0.0182187
8.96618e-05
0.018231
8.84495e-05
0.018243
8.63023e-05
0.0182546
8.34239e-05
0.0182658
8.00896e-05
0.0182764
7.63963e-05
0.0182865
7.25627e-05
0.0182961
6.85926e-05
0.018305
6.4689e-05
0.0183134
6.07589e-05
0.0183213
5.70435e-05
0.0183286
5.33153e-05
4.99467e-05
0.0185697
1.1796e-05
0.0185743
3.18959e-05
0.0185813
4.75183e-05
0.01859
5.9204e-05
0.0186
6.75693e-05
0.0186108
7.31353e-05
0.0186222
7.64427e-05
0.0186339
7.79072e-05
0.0186456
7.79564e-05
0.0186572
7.68815e-05
0.0186685
7.50011e-05
0.0186794
7.24938e-05
0.0186899
6.95956e-05
0.0186999
6.63919e-05
0.0187094
6.30687e-05
0.0187184
5.96314e-05
0.0187268
5.62512e-05
0.0187347
5.28517e-05
0.0187421
4.96345e-05
0.018749
4.64113e-05
4.3492e-05
0.0190111
1.01715e-05
0.0190155
2.74771e-05
0.0190221