/*--------------------------------*- C++ -*----------------------------------*\
  =========                 |
  \\      /  F ield         | OpenFOAM: The Open Source CFD Toolbox
   \\    /   O peration     | Website:  https://openfoam.org
    \\  /    A nd           | Version:  7
     \\/     M anipulation  |
\*---------------------------------------------------------------------------*/
FoamFile
{
    version     2.0;
    format      ascii;
    class       volVectorField;
    location    "300";
    object      U;
}
// * * * * * * * * * * * * * * * * * * * * * * * * * * * * * * * * * * * * * //

dimensions      [0 1 -1 0 0 0 0];

internalField   nonuniform List<vector> 
4575
(
(0.842243 0.311985 -1.33642e-19)
(0.832351 0.305666 2.46726e-19)
(0.822674 0.299007 -1.38554e-19)
(0.799706 0.309285 -7.87971e-20)
(0.81322 0.29201 -5.71715e-20)
(0.789942 0.30149 9.287e-20)
(0.803999 0.284681 4.54035e-20)
(0.780426 0.293355 -2.44057e-20)
(0.795022 0.277028 9.18256e-20)
(0.77117 0.284889 -2.69968e-20)
(0.786297 0.269056 -1.27715e-19)
(0.74521 0.292446 1.25608e-19)
(0.762185 0.276098 7.94964e-20)
(0.777836 0.260776 5.9538e-20)
(0.735963 0.282781 -8.20985e-20)
(0.753484 0.266991 -5.84233e-20)
(0.769648 0.252194 5.82638e-21)
(0.72703 0.272788 -7.12669e-20)
(0.745078 0.257576 -2.59133e-20)
(0.761743 0.243321 4.34019e-20)
(0.718421 0.26248 -2.81007e-20)
(0.736977 0.247865 2.2005e-19)
(0.754131 0.234166 -1.38941e-19)
(0.690324 0.266661 6.19565e-20)
(0.710149 0.251867 -5.05851e-20)
(0.729194 0.237867 -4.34534e-20)
(0.74682 0.22474 9.52872e-20)
(0.681868 0.255101 9.44323e-20)
(0.702225 0.24096 1.29106e-19)
(0.721737 0.227592 2.55748e-20)
(0.739822 0.215053 -1.12766e-19)
(0.673795 0.243239 -2.34701e-20)
(0.694659 0.229772 -1.35623e-20)
(0.714619 0.217054 1.87494e-20)
(0.733143 0.205117 1.03791e-19)
(0.666116 0.231089 4.40309e-20)
(0.687464 0.218316 -6.42603e-20)
(0.707847 0.206262 -5.84234e-20)
(0.726794 0.194944 -1.11821e-19)
(0.658842 0.218667 2.10823e-20)
(0.680648 0.206605 -6.26567e-21)
(0.701433 0.195231 2.02067e-21)
(0.720781 0.184544 6.16285e-20)
(0.628435 0.218078 7.58274e-20)
(0.651984 0.205986 -8.40271e-20)
(0.674222 0.194652 1.58275e-19)
(0.695384 0.183973 -1.40013e-19)
(0.715114 0.173932 5.00792e-20)
(0.621569 0.204361 -4.95235e-20)
(0.645552 0.193062 4.87838e-21)
(0.668193 0.182473 -1.39391e-19)
(0.68971 0.172501 9.762e-20)
(0.709799 0.163119 8.88695e-20)
(0.615167 0.1904 6.86402e-20)
(0.639554 0.179911 8.88409e-21)
(0.662572 0.17008 2.20091e-20)
(0.684417 0.16083 8.82553e-21)
(0.704844 0.152119 -9.78874e-20)
(0.609239 0.176212 -9.69495e-20)
(0.633999 0.166548 1.24395e-20)
(0.657365 0.157491 7.9192e-20)
(0.679515 0.148972 -1.10273e-19)
(0.700254 0.140945 -5.17773e-22)
(0.603793 0.161816 8.94647e-20)
(0.628895 0.15299 -6.66323e-20)
(0.652581 0.14472 -8.08344e-21)
(0.675009 0.136944 6.3179e-20)
(0.696036 0.12961 -1.14634e-19)
(0.598837 0.147229 -7.99751e-20)
(0.62425 0.139255 1.74307e-20)
(0.648226 0.131782 -1.14376e-20)
(0.670906 0.124758 -3.95617e-20)
(0.692196 0.11813 1.5377e-20)
(0.594378 0.132469 1.70596e-20)
(0.620071 0.125359 3.94618e-20)
(0.644305 0.118694 6.93573e-21)
(0.667212 0.112431 -8.42428e-21)
(0.688738 0.106517 1.00853e-21)
(0.590423 0.117556 4.86458e-20)
(0.616362 0.111319 4.01929e-20)
(0.640826 0.105472 1.94563e-20)
(0.663932 0.0999784 4.3964e-20)
(0.685668 0.0947865 1.73743e-20)
(0.586977 0.102509 -1.65718e-20)
(0.61313 0.0971538 -3.28882e-20)
(0.637791 0.0921325 -3.31591e-21)
(0.66107 0.0874148 -6.349e-20)
(0.682988 0.0829527 1.20856e-21)
(0.584046 0.0873463 -3.45973e-20)
(0.610378 0.082881 -4.84846e-21)
(0.635207 0.0786925 -1.03724e-20)
(0.658631 0.0747563 4.84792e-20)
(0.680703 0.0710303 -8.1391e-21)
(0.581634 0.0720879 4.90582e-20)
(0.608112 0.0685188 6.11861e-20)
(0.633076 0.0651689 -8.8416e-21)
(0.656618 0.062019 2.20144e-20)
(0.678814 0.0590342 -9.75209e-21)
(0.551531 0.0595917 1.68199e-20)
(0.579743 0.0567533 4.16455e-21)
(0.606333 0.0540855 -2.06037e-20)
(0.631401 0.0515786 -1.98405e-21)
(0.655034 0.0492189 -4.7542e-20)
(0.677326 0.0469796 1.94177e-20)
(0.550083 0.043234 8.25741e-21)
(0.578377 0.0413624 -2.26766e-20)
(0.605044 0.0395994 2.10223e-21)
(0.630185 0.0379389 -9.76943e-22)
(0.653881 0.0363721 1.20747e-20)
(0.676239 0.0348808 2.6507e-22)
(0.549197 0.0268375 -4.19896e-21)
(0.577537 0.025935 5.50519e-21)
(0.604247 0.0250792 1.05428e-20)
(0.629428 0.0242671 7.71982e-22)
(0.653159 0.0234948 1.12905e-21)
(0.675553 0.0227525 4.86397e-21)
(0.548876 0.0104235 -4.99074e-21)
(0.577225 0.0104912 4.89865e-21)
(0.603943 0.0105434 1.08269e-20)
(0.629132 0.0105807 9.09883e-22)
(0.65287 0.010604 7.87796e-22)
(0.675268 0.0106133 5.1832e-21)
(0.549118 -0.00598654 3.4506e-21)
(0.577439 -0.00494928 -1.80174e-20)
(0.604132 -0.00398946 5.29724e-21)
(0.629298 -0.00310293 -8.50795e-22)
(0.653015 -0.00228371 8.91987e-21)
(0.67539 -0.00151797 8.94493e-22)
(0.549924 -0.0223712 1.10393e-20)
(0.578181 -0.0203664 3.56355e-21)
(0.604813 -0.0185009 -2.74141e-20)
(0.629923 -0.0167671 1.59894e-21)
(0.653594 -0.0151539 -3.83539e-20)
(0.675925 -0.0136365 8.40854e-21)
(0.579447 -0.0357403 5.04168e-20)
(0.605985 -0.0329725 4.5474e-20)
(0.631008 -0.0303948 -2.30599e-20)
(0.654604 -0.0279912 2.98926e-20)
(0.676857 -0.0257305 -6.42935e-22)
(0.581236 -0.0510511 -4.94546e-20)
(0.607646 -0.0473857 -8.63123e-21)
(0.63255 -0.0439683 -1.12575e-20)
(0.656043 -0.0407775 1.77198e-20)
(0.678186 -0.0377757 -1.21393e-21)
(0.583545 -0.0662792 -5.05726e-21)
(0.609792 -0.0617221 -2.35962e-20)
(0.634546 -0.0574703 1.22737e-20)
(0.657908 -0.0534969 -1.02247e-19)
(0.679913 -0.0497579 3.59308e-20)
(0.58637 -0.0814049 6.57175e-20)
(0.612421 -0.0759634 1.71745e-20)
(0.636992 -0.070884 2.50551e-20)
(0.660198 -0.0661334 5.75003e-20)
(0.682036 -0.0616634 -2.99331e-20)
(0.589706 -0.0964089 5.42083e-20)
(0.615527 -0.0900917 -2.22991e-20)
(0.639886 -0.0841925 1.57234e-20)
(0.662907 -0.0786713 3.27266e-20)
(0.68455 -0.0734775 -1.18454e-20)
(0.593548 -0.111272 -1.03425e-19)
(0.619107 -0.104089 -1.32517e-20)
(0.643222 -0.0973791 -2.9704e-20)
(0.666031 -0.0910948 -1.89144e-20)
(0.687453 -0.0851852 4.79103e-20)
(0.597889 -0.125976 6.71577e-20)
(0.623154 -0.117938 -7.54486e-20)
(0.646995 -0.110427 -1.60755e-20)
(0.669566 -0.103389 5.82956e-20)
(0.69074 -0.0967722 -4.64666e-20)
(0.602723 -0.140501 -1.34019e-19)
(0.627661 -0.131621 5.55562e-20)
(0.6512 -0.123321 7.46051e-20)
(0.673507 -0.115537 -1.33361e-19)
(0.694406 -0.108224 4.86246e-22)
(0.608042 -0.15483 1.15899e-19)
(0.632623 -0.145121 1.34361e-20)
(0.655828 -0.136045 -3.86805e-21)
(0.677845 -0.127526 6.39374e-21)
(0.698445 -0.119527 -8.26449e-20)
(0.613838 -0.168944 3.24876e-20)
(0.63803 -0.158422 -9.53677e-20)
(0.660874 -0.148583 -1.15318e-19)
(0.682576 -0.139341 1.31301e-19)
(0.702853 -0.130668 8.05688e-20)
(0.620101 -0.182827 -1.23478e-19)
(0.643875 -0.171507 2.83145e-20)
(0.66633 -0.16092 5.98756e-20)
(0.687692 -0.150966 -7.33185e-20)
(0.707622 -0.141632 -1.46462e-20)
(0.650149 -0.184361 7.60122e-20)
(0.672187 -0.17304 -8.67162e-20)
(0.693185 -0.16239 4.92226e-20)
(0.712746 -0.152406 6.96753e-20)
(0.656841 -0.196967 -4.93424e-21)
(0.678436 -0.184931 -3.82064e-21)
(0.699046 -0.173596 -7.07129e-20)
(0.718217 -0.162978 -1.6298e-19)
(0.663943 -0.209312 -2.25737e-20)
(0.685069 -0.196578 -7.985e-20)
(0.705268 -0.184574 3.0395e-20)
(0.724029 -0.173336 1.51639e-19)
(0.671443 -0.22138 5.48355e-20)
(0.692075 -0.207967 1.14636e-19)
(0.71184 -0.19531 1.46171e-20)
(0.730172 -0.183465 -1.49871e-19)
(0.67933 -0.233158 -1.39305e-19)
(0.699443 -0.219085 -2.68184e-20)
(0.718753 -0.205791 -2.2438e-20)
(0.736639 -0.193356 9.49588e-20)
(0.707164 -0.22992 -4.40738e-21)
(0.725998 -0.216007 1.03764e-19)
(0.74342 -0.202996 4.86657e-20)
(0.715226 -0.24046 -5.23832e-20)
(0.733563 -0.225945 -6.11534e-21)
(0.750507 -0.212375 5.8869e-20)
(0.723617 -0.250694 -3.20944e-21)
(0.741438 -0.235596 -1.05265e-19)
(0.757891 -0.221481 -4.45457e-20)
(0.732325 -0.260611 8.21348e-20)
(0.749613 -0.244949 7.83533e-20)
(0.765561 -0.230306 7.61255e-20)
(0.758075 -0.253995 -2.99208e-20)
(0.773509 -0.238838 -8.07786e-20)
(0.766814 -0.262725 -1.22846e-19)
(0.781724 -0.247069 5.51371e-20)
(0.775818 -0.271131 1.99796e-19)
(0.790196 -0.254992 4.20939e-20)
(0.798917 -0.262597 -2.71129e-20)
(0.807876 -0.269878 -1.13855e-19)
(0.817064 -0.27683 1.97641e-19)
(0.999955 0.00195776 0)
(0.998917 0.00625261 0)
(0.996852 0.0109726 0)
(0.994116 0.0161401 0)
(0.990575 0.0218169 0)
(0.98654 0.0280628 0)
(0.981808 0.0349639 0)
(0.976734 0.0426073 0)
(0.971052 0.0511474 0)
(0.96523 0.0606885 0)
(0.958926 0.071462 0)
(0.952807 0.0835542 0)
(0.946407 0.0972786 0)
(0.940732 0.112632 0)
(0.935058 0.130035 0)
(0.93098 0.149239 0)
(0.927201 0.170898 0)
(0.926418 0.194127 0)
(0.926016 0.220377 -1.00743e-28)
(0.93091 0.246745 1.07196e-28)
(0.935551 0.278305 0)
(0.999956 0.00207232 0)
(0.998969 0.00659041 0)
(0.997001 0.0115214 0)
(0.994409 0.0168936 0)
(0.991059 0.0227844 0)
(0.987279 0.0292344 0)
(0.982858 0.0363564 0)
(0.978189 0.0441971 0)
(0.972987 0.0529469 0)
(0.967778 0.0626396 0)
(0.962186 0.0735599 0)
(0.95697 0.0856725 0)
(0.951589 0.0993839 0)
(0.947195 0.114473 0)
(0.942908 0.131558 0)
(0.940565 0.149963 0)
(0.938545 0.170831 0)
(0.93996 0.192293 -4.3594e-29)
(0.941531 0.217183 4.64035e-29)
(0.948965 0.239957 -5.38782e-29)
(0.955113 0.269641 5.73413e-29)
(0.999956 0.00218684 0)
(0.999025 0.00692691 0)
(0.997165 0.0120717 0)
(0.994736 0.0176505 0)
(0.991599 0.0237579 0)
(0.988103 0.0304127 0)
(0.984027 0.0377549 0)
(0.979796 0.0457877 0)
(0.97511 0.0547393 0)
(0.970546 0.0645671 0)
(0.965692 0.0756137 0)
(0.961384 0.0877108 0)
(0.957011 0.10137 0)
(0.953836 0.116128 0)
(0.950848 0.132828 0)
(0.950037 0.150324 0)
(0.949552 0.170296 0)
(0.952697 0.189881 0)
(0.95584 0.213191 0)
(0.964832 0.23269 0)
(0.972087 0.259718 0)
(0.999956 0.00229937 0)
(0.999084 0.00725602 0)
(0.997341 0.0126088 0)
(0.995085 0.0183849 0)
(0.992179 0.0246959 0)
(0.988984 0.0315389 0)
(0.985278 0.0390778 0)
(0.981507 0.0472752 0)
(0.977364 0.0563918 0)
(0.973461 0.0663135 0)
(0.969365 0.0774352 0)
(0.965957 0.0894631 0)
(0.962587 0.103007 0)
(0.960561 0.117379 0)
(0.958812 0.133632 0)
(0.959339 0.150203 0)
(0.960246 0.169223 0)
(0.964717 0.187094 0)
(0.969196 0.208752 0)
(0.979054 0.225702 0)
(0.987317 0.250068 0)
(0.999957 0.00240791 0)
(0.999145 0.00757096 0)
(0.997525 0.0131201 0)
(0.99545 0.0190783 0)
(0.992787 0.0255733 0)
(0.989905 0.0325801 0)
(0.986584 0.0402843 0)
(0.983284 0.0486081 0)
(0.979702 0.0578414 0)
(0.976459 0.0678004 0)
(0.973131 0.0789278 0)
(0.970594 0.0908101 0)
(0.968212 0.104148 0)
(0.96725 0.11805 0)
(0.966679 0.133748 0)
(0.96836 0.149347 0)
(0.970523 0.167306 0)
(0.976004 0.183564 0)
(0.981614 0.203489 0)
(0.991934 0.218301 0)
(1.00102 0.240114 0)
(0.999959 0.00251159 0)
(0.999209 0.00786905 0)
(0.997718 0.0136013 0)
(0.995827 0.0197248 0)
(0.993418 0.0263831 0)
(0.990852 0.0335284 0)
(0.987929 0.0413658 0)
(0.985101 0.049777 0)
(0.982088 0.0590784 0)
(0.979493 0.0690182 0)
(0.976928 0.0800821 0)
(0.97522 0.0917452 0)
(0.973793 0.104787 0)
(0.973799 0.118142 0)
(0.974321 0.133183 0)
(0.976986 0.147772 0)
(0.98025 0.164574 0)
(0.986496 0.179302 0)
(0.993016 0.19745 0)
(1.00355 0.210368 0)
(1.01319 0.229735 0)
(0.999961 0.0026098 0)
(0.999275 0.00814877 0)
(0.997917 0.01405 0)
(0.996215 0.0203216 0)
(0.994066 0.0271217 0)
(0.991819 0.0343795 0)
(0.9893 0.0423175 0)
(0.986938 0.0507777 0)
(0.984495 0.0600997 0)
(0.982527 0.0699672 0)
(0.980707 0.0809026 0)
(0.979777 0.0922829 0)
(0.979253 0.104949 0)
(0.980129 0.117701 0)
(0.981638 0.132002 0)
(0.985133 0.145574 0)
(0.989328 0.16116 0)
(0.996142 0.17445 0)
(1.00335 0.190842 0)
(1.0139 0.202068 0)
(1.02386 0.219141 0)
(0.999964 0.00270194 0)
(0.999342 0.00840859 0)
(0.998122 0.0144636 0)
(0.99661 0.0208649 0)
(0.994727 0.0277845 0)
(0.992797 0.0351283 0)
(0.990686 0.0431337 0)
(0.988782 0.051605 0)
(0.986899 0.0609005 0)
(0.985534 0.0706462 0)
(0.984428 0.0813919 0)
(0.984222 0.0924355 0)
(0.984532 0.104656 0)
(0.986182 0.116766 0)
(0.98856 0.130266 0)
(0.992742 0.142832 0)
(0.997699 0.157182 0)
(1.00491 0.169133 0)
(1.01262 0.183836 0)
(1.02304 0.193559 0)
(1.03312 0.208537 -4.74682e-30)
(0.999967 0.00278743 0)
(0.99941 0.00864689 0)
(0.998332 0.0148394 0)
(0.99701 0.0213513 0)
(0.995396 0.0283669 0)
(0.993782 0.0357696 0)
(0.992075 0.0438088 0)
(0.990618 0.0522541 0)
(0.98928 0.0614771 0)
(0.988488 0.0710558 0)
(0.988057 0.0815546 0)
(0.988516 0.0922168 0)
(0.989583 0.103932 0)
(0.991913 0.115376 0)
(0.995036 0.128032 0)
(0.999775 0.139616 0)
(1.00533 0.15274 0)
(1.0128 0.163445 0)
(1.02083 0.176558 0)
(1.03102 0.184948 0)
(1.04108 0.198041 0)
(0.999971 0.00286568 0)
(0.999479 0.00886216 0)
(0.998544 0.0151747 0)
(0.997414 0.0217774 0)
(0.996068 0.0288647 0)
(0.994767 0.0362992 0)
(0.993457 0.0443385 0)
(0.992433 0.0527224 0)
(0.991619 0.0618287 0)
(0.991367 0.0711995 0)
(0.991563 0.0814001 0)
(0.992628 0.0916442 0)
(0.994371 0.102807 0)
(0.997286 0.11357 0)
(1.00104 0.12536 0)
(1.00621 0.135992 0)
(1.01223 0.147922 0)
(1.01982 0.157474 0)
(1.02803 0.169111 0)
(1.0379 0.176319 0)
(1.04783 0.187725 0)
(0.999974 0.00293613 0)
(0.999549 0.00905298 0)
(0.998758 0.015467 0)
(0.997818 0.0221401 0)
(0.996739 0.0292745 0)
(0.995745 0.0367139 0)
(0.99482 0.0447199 0)
(0.994214 0.0530092 0)
(0.993895 0.061957 0)
(0.99415 0.0710839 0)
(0.994921 0.0809413 0)
(0.996532 0.0907383 0)
(0.998866 0.101313 0)
(1.00228 0.111389 0)
(1.00654 0.122309 0)
(1.01204 0.132025 0)
(1.01838 0.142812 0)
(1.02601 0.1513 0)
(1.03427 0.16158 0)
(1.04377 0.167741 0)
(1.05347 0.177644 0)
(0.999978 0.00299824 0)
(0.999619 0.00921811 0)
(0.998971 0.0157143 0)
(0.998221 0.0224372 0)
(0.997403 0.0295933 0)
(0.996708 0.0370116 0)
(0.996156 0.0449518 0)
(0.995948 0.0531151 0)
(0.996094 0.0618662 0)
(0.996818 0.0707174 0)
(0.99811 0.0801943 0)
(1.0002 0.089522 0)
(1.00305 0.0994858 0)
(1.00687 0.108877 0)
(1.01154 0.118938 1.83118e-28)
(1.01727 0.127778 -1.94956e-28)
(1.02382 0.137485 0)
(1.03139 0.144994 0)
(1.0396 0.154037 -2.86118e-29)
(1.04869 0.159274 5.29491e-30)
(1.0581 0.167843 2.67764e-29)
(0.999982 0.00305153 0)
(0.999689 0.00935645 0)
(0.999182 0.0159147 0)
(0.998619 0.0226665 0)
(0.998055 0.0298193 0)
(0.997651 0.0371907 0)
(0.997453 0.0450342 0)
(0.997622 0.0530426 0)
(0.9982 0.0615626 0)
(0.999354 0.0701109 0)
(1.00111 0.0791775 0)
(1.00363 0.08802 0)
(1.0069 0.0973613 0)
(1.01105 0.106077 0)
(1.01603 0.115301 0)
(1.02191 0.123311 0)
(1.02856 0.132005 0)
(1.03602 0.138621 0)
(1.04409 0.146544 0)
(1.05274 0.150967 0)
(1.06181 0.158356 0)
(0.999985 0.00309559 0)
(0.999759 0.00946706 0)
(0.999389 0.0160668 0)
(0.999009 0.0228266 0)
(0.998691 0.029951 0)
(0.998567 0.0372511 0)
(0.998703 0.0449685 0)
(0.999226 0.0527954 0)
(1.0002 0.0610545 0)
(1.00174 0.0692769 0)
(1.00391 0.077911 0)
(1.00679 0.0862584 0)
(1.01041 0.0949753 0)
(1.01482 0.10303 0)
(1.02002 0.111448 0)
(1.02597 0.118676 0)
(1.03265 0.126431 0)
(1.03992 0.132235 0)
(1.0478 0.139147 0)
(1.05601 0.142859 0)
(1.06469 0.149206 0)
(0.999988 0.00313008 0)
(0.999828 0.00954919 0)
(0.999591 0.0161694 0)
(0.99939 0.0229165 0)
(0.999306 0.0299882 0)
(0.999449 0.0371934 0)
(0.999897 0.0447576 0)
(1.00075 0.0523791 0)
(1.00208 0.0603518 0)
(1.00397 0.0682296 0)
(1.00649 0.076416 0)
(1.00967 0.0842642 0)
(1.01358 0.0923631 0)
(1.01818 0.0997763 0)
(1.02352 0.107428 0)
(1.02947 0.113924 0)
(1.03611 0.120813 0)
(1.04316 0.125882 0)
(1.0508 0.131889 0)
(1.05854 0.134978 0)
(1.06682 0.14041 0)
(0.999991 0.00315473 0)
(0.999896 0.00960228 0)
(0.999787 0.0162219 0)
(0.999757 0.0229357 0)
(0.999895 0.0299313 0)
(1.00029 0.0370191 0)
(1.00103 0.0444057 0)
(1.00218 0.0518002 0)
(1.00383 0.0594659 0)
(1.00602 0.0669845 0)
(1.00884 0.0747148 0)
(1.01227 0.0820645 0)
(1.0164 0.0895588 0)
(1.02112 0.0963554 0)
(1.02654 0.103283 0)
(1.03245 0.109098 0)
(1.03898 0.115194 0)
(1.04579 0.119601 0)
(1.05314 0.124799 0)
(1.06043 0.127348 0)
(1.06828 0.131977 0)
(0.999993 0.00316937 0)
(0.999961 0.00962596 0)
(0.999975 0.0162242 0)
(1.00011 0.0228844 0)
(1.00046 0.0297816 0)
(1.00109 0.0367309 0)
(1.00209 0.0439181 0)
(1.00351 0.0510668 0)
(1.00545 0.0584094 0)
(1.0079 0.0655585 0)
(1.01096 0.0728297 0)
(1.01459 0.0796867 0)
(1.01887 0.0865951 0)
(1.02367 0.0928031 0)
(1.0291 0.099051 0)
(1.03492 0.104237 0)
(1.0413 0.109611 0)
(1.04783 0.113425 0)
(1.05487 0.117904 0)
(1.06172 0.119983 0)
(1.06915 0.12391 7.02391e-30)
(0.999996 0.00317392 0)
(1.00002 0.0096201 0)
(1.00015 0.0161764 0)
(1.00044 0.0227633 0)
(1.00098 0.0295411 0)
(1.00183 0.0363325 0)
(1.00307 0.0433012 0)
(1.00474 0.0501883 0)
(1.00692 0.0571958 0)
(1.00959 0.0639689 0)
(1.01286 0.0707835 0)
(1.01663 0.0771576 0)
(1.02101 0.0835031 0)
(1.02584 0.0891531 0)
(1.03123 0.0947684 0)
(1.03692 0.0993763 0)
(1.04311 0.104095 -5.30453e-29)
(1.04935 0.107379 5.64684e-29)
(1.05607 0.111222 0)
(1.06248 0.112897 0)
(1.06948 0.11621 0)
(0.999997 0.00316841 0)
(1.00008 0.0095848 0)
(1.00032 0.0160791 0)
(1.00076 0.0225736 0)
(1.00148 0.0292128 0)
(1.00252 0.0358283 0)
(1.00398 0.0425624 0)
(1.00586 0.0491748 0)
(1.00824 0.0558394 0)
(1.0111 0.0622339 0)
(1.01451 0.0685985 0)
(1.01839 0.0745032 0)
(1.02282 0.080312 0)
(1.02763 0.0854366 0)
(1.03295 0.090466 0)
(1.03848 0.0945452 0)
(1.04445 0.098673 0)
(1.05039 0.101487 0)
(1.05677 0.104768 0)
(1.06276 0.106094 0)
(1.06935 0.108875 0)
(0.999999 0.00315293 0)
(1.00014 0.0095204 0)
(1.00048 0.0159336 0)
(1.00105 0.0223174 0)
(1.00193 0.0288002 0)
(1.00315 0.0352237 0)
(1.0048 0.0417099 0)
(1.00686 0.0480374 0)
(1.00941 0.0543548 0)
(1.01241 0.0603717 0)
(1.01594 0.0662965 0)
(1.01987 0.0717485 0)
(1.02432 0.0770489 0)
(1.02907 0.0816818 0)
(1.03428 0.0861718 0)
(1.03962 0.0897697 0)
(1.04536 0.0933672 0)
(1.05099 0.0957642 0)
(1.05703 0.098551 -9.80046e-30)
(1.06262 0.0995801 2.08414e-30)
(1.06879 0.101898 8.88387e-30)
(1 0.0031277 0)
(1.00019 0.0094275 0)
(1.00062 0.0157412 0)
(1.00132 0.021997 0)
(1.00234 0.0283075 0)
(1.00372 0.034525 0)
(1.00553 0.0407525 0)
(1.00774 0.0467879 0)
(1.01044 0.0527572 0)
(1.01354 0.0584006 0)
(1.01714 0.063899 0)
(1.0211 0.0689171 0)
(1.02552 0.073739 0)
(1.03018 0.0779142 0)
(1.03525 0.08191 0)
(1.04039 0.0850721 0)
(1.04587 0.0881953 0)
(1.0512 0.0902252 0)
(1.05689 0.092579 0)
(1.0621 0.0933552 0)
(1.06787 0.0952732 0)
(1 0.00309298 0)
(1.00024 0.00930693 0)
(1.00076 0.0155038 0)
(1.00156 0.0216156 0)
(1.00272 0.0277396 0)
(1.00423 0.0337389 0)
(1.00618 0.0396998 0)
(1.00851 0.0454384 0)
(1.01131 0.0510617 0)
(1.01449 0.0563384 0)
(1.01812 0.0614261 0)
(1.02207 0.0660312 0)
(1.02643 0.0704053 0)
(1.03098 0.0741568 0)
(1.03588 0.077702 0)
(1.04081 0.0804711 8.22251e-29)
(1.04603 0.083172 -8.75363e-29)
(1.05105 0.0848796 0)
(1.05641 0.0868558 0)
(1.06124 0.0874182 0)
(1.06664 0.0889916 0)
(1 0.00304916 0)
(1.00028 0.00915978 0)
(1.00087 0.0152236 0)
(1.00177 0.0211767 0)
(1.00304 0.0271018 0)
(1.00468 0.032873 0)
(1.00673 0.0385614 0)
(1.00916 0.0440014 0)
(1.01203 0.0492833 0)
(1.01526 0.0542027 0)
(1.01889 0.0588974 0)
(1.0228 0.0631116 0)
(1.02707 0.0670687 0)
(1.0315 0.07043 0)
(1.03621 0.0735662 0)
(1.04091 0.0759825 0)
(1.04587 0.0783089 0)
(1.05059 0.079735 0)
(1.05561 0.0813829 0)
(1.0601 0.0817661 0)
(1.06512 0.0830438 0)
(1 0.00299665 0)
(1.00032 0.00898737 0)
(1.00098 0.0149033 0)
(1.00196 0.0206842 0)
(1.00333 0.0264 0)
(1.00506 0.0319349 0)
(1.0072 0.0373477 0)
(1.0097 0.0424894 0)
(1.01262 0.0474369 0)
(1.01585 0.0520104 0)
(1.01947 0.056331 0)
(1.02331 0.0601772 0)
(1.02747 0.0637481 0)
(1.03174 0.0667515 0)
(1.03627 0.0695181 0)
(1.04073 0.0716191 0)
(1.04542 0.0736147 0)
(1.04985 0.0747962 0)
(1.05455 0.0761601 0)
(1.05871 0.0763944 0)
(1.06338 0.0774195 -9.52879e-30)
(1 0.00293598 0)
(1.00035 0.00879121 0)
(1.00107 0.0145456 0)
(1.00213 0.0201425 0)
(1.00357 0.0256403 0)
(1.00538 0.0309331 0)
(1.00758 0.036069 -9.36833e-30)
(1.01013 0.0409149 9.97639e-30)
(1.01306 0.0455368 0)
(1.01629 0.0497774 0)
(1.01985 0.053744 4.33476e-29)
(1.02361 0.0572456 -4.61569e-29)
(1.02765 0.0604603 0)
(1.03175 0.0631371 0)
(1.03607 0.065571 0)
(1.0403 0.0673914 0)
(1.04472 0.0690961 0)
(1.04887 0.0700661 0)
(1.05326 0.0711854 0)
(1.0571 0.0712973 0)
(1.06143 0.0721079 0)
(1 0.00286768 0)
(1.00038 0.00857303 0)
(1.00115 0.0141537 0)
(1.00226 0.0195563 0)
(1.00377 0.0248292 0)
(1.00563 0.0298757 0)
(1.00788 0.0347356 0)
(1.01045 0.0392903 0)
(1.01338 0.0435969 0)
(1.01657 0.0475191 0)
(1.02007 0.051152 0)
(1.02372 0.0543326 0)
(1.02761 0.0572201 0)
(1.03154 0.0596001 0)
(1.03565 0.0617358 0)
(1.03965 0.0633075 0)
(1.0438 0.0647576 0)
(1.04768 0.0655457 0)
(1.05176 0.0664555 0)
(1.05532 0.0664681 0)
(1.05933 0.0670976 0)
(1.00001 0.00279239 0)
(1.00041 0.00833472 6.36991e-30)
(1.00121 0.0137309 -6.78378e-30)
(1.00237 0.0189306 0)
(1.00393 0.0239733 0)
(1.00583 0.0287714 0)
(1.0081 0.0333577 0)
(1.01067 0.0376274 0)
(1.01358 0.0416306 0)
(1.01672 0.0452494 0)
(1.02012 0.0485697 0)
(1.02366 0.0514522 0)
(1.02739 0.0540406 0)
(1.03114 0.0561518 0)
(1.03503 0.0580214 0)
(1.0388 0.0593738 0)
(1.04269 0.0606018 0)
(1.0463 0.0612345 0)
(1.0501 0.0619659 -1.48378e-29)
(1.05339 0.0618993 2.54141e-30)
(1.0571 0.062377 1.41034e-29)
(1.00001 0.00271075 0)
(1.00043 0.00807829 0)
(1.00126 0.0132806 0)
(1.00246 0.0182703 0)
(1.00404 0.0230793 0)
(1.00596 0.0276287 0)
(1.00824 0.0319455 0)
(1.0108 0.0359379 0)
(1.01366 0.0396503 0)
(1.01673 0.0429817 0)
(1.02003 0.0460099 0)
(1.02343 0.0486172 0)
(1.02701 0.0509329 0)
(1.03057 0.052802 0)
(1.03424 0.0544348 0)
(1.03779 0.0555945 0)
(1.04143 0.0566299 0)
(1.04479 0.0571308 0)
(1.04831 0.0577112 0)
(1.05134 0.0575828 0)
(1.05476 0.0579343 0)
(1.00001 0.00262346 0)
(1.00044 0.00780587 0)
(1.0013 0.0128066 0)
(1.00252 0.0175808 0)
(1.00412 0.0221542 0)
(1.00605 0.0264559 0)
(1.00831 0.0305087 0)
(1.01084 0.0342326 0)
(1.01364 0.0376677 0)
(1.01662 0.040728 0)
(1.0198 0.0434846 0)
(1.02307 0.0458384 0)
(1.02647 0.0479068 0)
(1.02985 0.0495583 0)
(1.03331 0.0509814 0)
(1.03663 0.0519727 0)
(1.04003 0.0528418 0)
(1.04315 0.0532316 0)
(1.04641 0.0536852 0)
(1.0492 0.0535099 0)
(1.05235 0.0537576 0)
(1.00001 0.00253123 0)
(1.00045 0.00751966 0)
(1.00132 0.0123124 0)
(1.00256 0.0168672 0)
(1.00416 0.0212045 0)
(1.00608 0.0252611 0)
(1.00831 0.0290567 0)
(1.01079 0.032522 0)
(1.01352 0.0356936 0)
(1.0164 0.0384992 0)
(1.01946 0.041004 0)
(1.02258 0.0431256 0)
(1.02581 0.0449701 0)
(1.029 0.046427 0)
(1.03225 0.047665 0)
(1.03535 0.0485098 0)
(1.03852 0.049236 0)
(1.04141 0.0495332 0)
(1.04443 0.0498811 0)
(1.04699 0.0496717 0)
(1.0499 0.0498348 -7.6813e-30)
(1.00001 0.0024348 0)
(1.00046 0.00722189 0)
(1.00133 0.0118018 0)
(1.00257 0.0161347 0)
(1.00417 0.020237 0)
(1.00607 0.0240524 0)
(1.00826 0.0275985 0)
(1.01068 0.0308156 0)
(1.01332 0.0337379 4.93746e-29)
(1.0161 0.0363052 -5.25772e-29)
(1.01902 0.0385776 0)
(1.02199 0.0404867 0)
(1.02504 0.0421294 0)
(1.02805 0.0434129 0)
(1.03109 0.0444881 0)
(1.03399 0.0452061 0)
(1.03692 0.0458103 0)
(1.0396 0.0460309 0)
(1.04239 0.0462916 0)
(1.04475 0.046059 0)
(1.04741 0.0461541 0)
(1.00001 0.00233489 0)
(1.00046 0.00691475 0)
(1.00133 0.0112784 0)
(1.00257 0.0153884 0)
(1.00414 0.0192579 0)
(1.00601 0.0228371 0)
(1.00815 0.0261422 0)
(1.0105 0.0291223 0)
(1.01304 0.0318098 0)
(1.0157 0.0341546 0)
(1.01849 0.036213 0)
(1.02131 0.0379288 0)
(1.02419 0.0393901 0)
(1.027 0.0405194 0)
(1.02985 0.0414521 0)
(1.03255 0.0420608 0)
(1.03527 0.0425613 0)
(1.03774 0.0427194 0)
(1.04031 0.042909 0)
(1.04248 0.0426622 0)
(1.04493 0.0427037 0)
(1.00001 0.00223223 0)
(1.00046 0.00660043 0)
(1.00133 0.0107458 0)
(1.00254 0.0146333 0)
(1.00409 0.0182734 0)
(1.00592 0.0216225 0)
(1.00799 0.0246957 0)
(1.01026 0.0274503 0)
(1.0127 0.0299171 0)
(1.01524 0.0320552 0)
(1.01789 0.0339172 0)
(1.02055 0.0354573 0)
(1.02325 0.036756 0)
(1.02589 0.0377489 0)
(1.02854 0.0385572 0)
(1.03105 0.0390722 0)
(1.03357 0.0394853 0)
(1.03586 0.039593 0)
(1.03822 0.0397251 -1.52303e-29)
(1.04021 0.0394718 1.74249e-30)
(1.04245 0.0394718 1.53983e-29)
(1.00001 0.00212753 0)
(1.00045 0.0062811 0)
(1.00131 0.0102076 0)
(1.0025 0.013874 0)
(1.00402 0.0172892 0)
(1.00579 0.0204151 0)
(1.00779 0.0232662 0)
(1.00997 0.025807 0)
(1.0123 0.028067 0)
(1.01472 0.0300136 0)
(1.01722 0.0316957 0)
(1.01973 0.0330767 0)
(1.02227 0.0342301 0)
(1.02473 0.0351025 0)
(1.0272 0.0358027 0)
(1.02952 0.0362379 0)
(1.03185 0.0365776 0)
(1.03396 0.0366454 0)
(1.03613 0.036732 0)
(1.03795 0.0364783 0)
(1.04 0.0364471 0)
(1.00001 0.00202151 0)
(1.00045 0.00595887 0)
(1.00128 0.00966696 0)
(1.00245 0.0131152 0)
(1.00392 0.0163108 0)
(1.00563 0.019221 0)
(1.00756 0.02186 0)
(1.00964 0.0241987 0)
(1.01186 0.0262657 0)
(1.01415 0.0280352 0)
(1.01651 0.0295531 0)
(1.01886 0.0307904 0)
(1.02124 0.0318142 0)
(1.02353 0.0325806 0)
(1.02582 0.0331871 0)
(1.02797 0.0335546 0)
(1.03012 0.0338333 0)
(1.03206 0.0338701 0)
(1.03405 0.0339211 0)
(1.03572 0.033672 0)
(1.0376 0.0336183 0)
(1.00001 0.00191482 0)
(1.00044 0.00563574 0)
(1.00125 0.00912721 0)
(1.00238 0.012361 0)
(1.0038 0.0153431 0)
(1.00545 0.0180457 0)
(1.00729 0.0204829 0)
(1.00928 0.0226313 0)
(1.01138 0.0245184 0)
(1.01354 0.0261246 0)
(1.01576 0.0274929 0)
(1.01797 0.0286007 0)
(1.02018 0.0295092 0)
(1.02231 0.0301826 0)
(1.02443 0.0307081 0)
(1.02642 0.0310185 0)
(1.0284 0.0312468 0)
(1.03018 0.0312602 0)
(1.032 0.031284 0)
(1.03354 0.0310436 0)
(1.03525 0.0309745 -9.41298e-30)
(1.00001 0.00180813 0)
(1.00043 0.00531359 0)
(1.00121 0.00859127 0)
(1.00231 0.0116152 0)
(1.00367 0.0143907 0)
(1.00525 0.0168943 0)
(1.007 0.0191399 0)
(1.00889 0.0211095 0)
(1.01087 0.0228296 0)
(1.01291 0.0242856 0)
(1.01499 0.0255178 0)
(1.01704 0.026509 0)
(1.0191 0.0273152 0)
(1.02108 0.0279071 0)
(1.02304 0.0283629 0)
(1.02488 0.0286255 0)
(1.02669 0.0288125 0)
(1.02833 0.0288088 0)
(1.03 0.0288126 0)
(1.0314 0.0285838 0)
(1.03297 0.028505 0)
(1.00001 0.00170201 0)
(1.00041 0.00499416 0)
(1.00117 0.00806185 0)
(1.00222 0.0108814 0)
(1.00352 0.0134575 0)
(1.00503 0.0157709 0)
(1.0067 0.0178355 0)
(1.00847 0.0196376 0)
(1.01035 0.0212028 0)
(1.01226 0.0225208 0)
(1.0142 0.0236294 0)
(1.01611 0.024516 0)
(1.01802 0.0252315 0)
(1.01986 0.0257522 0)
(1.02166 0.0261482 0)
(1.02335 0.0263709 0)
(1.02502 0.0265243 0)
(1.02653 0.0265087 0)
(1.02805 0.0264982 0)
(1.02934 0.0262834 -3.74992e-30)
(1.03076 0.0261996 3.99096e-30)
(1.00001 0.00159702 0)
(1.0004 0.00467905 0)
(1.00112 0.00754141 0)
(1.00213 0.0101627 0)
(1.00337 0.0125473 0)
(1.0048 0.0146795 0)
(1.00637 0.0165733 0)
(1.00805 0.0182187 0)
(1.00981 0.0196406 0)
(1.01159 0.0208322 0)
(1.0134 0.0218288 0)
(1.01518 0.0226215 0)
(1.01695 0.0232566 0)
(1.01864 0.0237153 0)
(1.02031 0.02406 0)
(1.02186 0.0242497 0)
(1.02339 0.024376 0)
(1.02477 0.0243528 0)
(1.02617 0.0243328 -7.21869e-30)
(1.02734 0.0241334 7.68337e-30)
(1.02863 0.0240484 0)
(1.00001 0.00149366 0)
(1.00038 0.00436968 0)
(1.00107 0.00703214 0)
(1.00203 0.0094618 0)
(1.00321 0.011663 0)
(1.00456 0.0136232 0)
(1.00604 0.0153562 0)
(1.00762 0.0168556 0)
(1.00926 0.0181451 0)
(1.01092 0.019221 0)
(1.01261 0.0201162 0)
(1.01426 0.0208247 0)
(1.01589 0.0213888 0)
(1.01745 0.0217933 0)
(1.01898 0.0220942 0)
(1.02041 0.0222566 0)
(1.02181 0.0223614 0)
(1.02308 0.0223339 0)
(1.02435 0.0223083 0)
(1.02542 0.0221251 0)
(1.0266 0.0220418 -5.86276e-30)
(1.00001 0.00139237 0)
(1.00036 0.00406732 0)
(1.00102 0.00653594 0)
(1.00193 0.00878114 0)
(1.00304 0.0108072 0)
(1.00431 0.0126045 0)
(1.00571 0.0141867 0)
(1.00718 0.0155501 0)
(1.00871 0.0167175 0)
(1.01026 0.0176876 0)
(1.01182 0.018491 0)
(1.01335 0.0191241 0)
(1.01485 0.0196254 0)
(1.01629 0.0199828 0)
(1.0177 0.0202463 0)
(1.01901 0.0203862 0)
(1.02029 0.0204739 0)
(1.02145 0.0204449 0)
(1.02261 0.0204165 0)
(1.02359 0.0202502 0)
(1.02466 0.0201707 0)
(1.00001 0.00129352 0)
(1.00034 0.00377303 0)
(1.00097 0.00605443 0)
(1.00182 0.00812265 0)
(1.00287 0.00998205 0)
(1.00407 0.0116254 0)
(1.00537 0.0130663 0)
(1.00675 0.0143034 0)
(1.00817 0.0153584 0)
(1.00961 0.0162319 0)
(1.01105 0.0169523 0)
(1.01246 0.0175179 0)
(1.01385 0.0179635 0)
(1.01517 0.0182799 0)
(1.01646 0.0185114 0)
(1.01766 0.0186329 0)
(1.01883 0.0187073 0)
(1.01989 0.0186788 0)
(1.02095 0.0186499 0)
(1.02184 0.0185004 0)
(1.02281 0.0184262 0)
(1.00001 0.00119745 0)
(1.00032 0.00348774 0)
(1.00091 0.00558892 0)
(1.00172 0.00748789 0)
(1.0027 0.00918908 0)
(1.00382 0.0106874 0)
(1.00504 0.0119963 0)
(1.00632 0.0131162 0)
(1.00764 0.0140677 0)
(1.00897 0.014853 0)
(1.0103 0.0154983 0)
(1.0116 0.0160034 0)
(1.01288 0.0163999 0)
(1.01409 0.0166804 0)
(1.01527 0.0168845 0)
(1.01637 0.016991 0)
(1.01744 0.017055 0)
(1.01841 0.0170285 0)
(1.01937 0.0170009 9.81951e-30)
(1.02019 0.0168678 -4.65322e-31)
(1.02107 0.0168 -1.06282e-29)
(1.00001 0.00110442 0)
(1.00031 0.00321215 0)
(1.00086 0.00514045 0)
(1.00161 0.00687804 0)
(1.00254 0.00842945 0)
(1.00358 0.00979142 0)
(1.00471 0.0109771 0)
(1.0059 0.0119884 0)
(1.00713 0.0128448 0)
(1.00835 0.0135496 0)
(1.00958 0.014127 0)