/*--------------------------------*- C++ -*----------------------------------*\
  =========                 |
  \\      /  F ield         | OpenFOAM: The Open Source CFD Toolbox
   \\    /   O peration     | Website:  https://openfoam.org
    \\  /    A nd           | Version:  7
     \\/     M anipulation  |
\*---------------------------------------------------------------------------*/
FoamFile
{
    version     2.0;
    format      ascii;
    class       volScalarField;
    location    "160";
    object      p;
}
// * * * * * * * * * * * * * * * * * * * * * * * * * * * * * * * * * * * * * //

dimensions      [0 2 -2 0 0 0 0];

internalField   nonuniform List<scalar> 
20050
(
-0.395439
-0.397134
-0.397952
-0.398713
-0.399676
-0.401029
-0.402903
-0.405357
-0.408413
-0.412077
-0.41635
-0.421227
-0.426701
-0.432719
-0.439203
-0.401787
-0.403229
-0.403978
-0.404749
-0.405808
-0.407352
-0.409519
-0.412376
-0.415952
-0.420264
-0.425322
-0.431136
-0.43771
-0.44501
-0.45293
-0.408116
-0.409281
-0.409949
-0.410721
-0.411864
-0.413587
-0.41603
-0.419269
-0.423341
-0.428268
-0.434073
-0.440772
-0.44838
-0.456877
-0.466112
-0.414384
-0.415253
-0.415828
-0.416588
-0.417801
-0.419684
-0.422384
-0.425979
-0.430513
-0.436016
-0.442516
-0.450034
-0.458596
-0.468185
-0.478591
-0.42055
-0.421106
-0.421577
-0.42231
-0.423576
-0.4256
-0.428529
-0.432449
-0.437406
-0.443436
-0.450569
-0.458831
-0.468253
-0.478814
-0.490228
-0.426574
-0.426804
-0.427159
-0.427851
-0.429151
-0.431289
-0.434417
-0.438624
-0.443959
-0.45046
-0.458158
-0.467078
-0.477253
-0.488658
-0.500895
-0.432416
-0.432314
-0.432542
-0.433176
-0.434488
-0.436712
-0.440004
-0.444455
-0.450117
-0.457026
-0.465214
-0.474701
-0.485515
-0.497632
-0.510485
-0.43804
-0.437604
-0.437694
-0.438255
-0.439554
-0.441834
-0.44525
-0.449899
-0.455831
-0.463083
-0.471682
-0.481637
-0.492973
-0.50567
-0.518907
-0.443415
-0.442647
-0.442591
-0.443062
-0.444323
-0.446623
-0.450122
-0.454918
-0.461061
-0.468586
-0.477513
-0.48784
-0.499575
-0.512713
-0.526195
-0.448513
-0.447421
-0.447212
-0.447575
-0.448772
-0.451057
-0.454593
-0.459481
-0.465774
-0.4735
-0.482672
-0.493274
-0.505294
-0.518737
-0.532286
-0.45331
-0.451908
-0.45154
-0.451779
-0.452884
-0.455116
-0.458643
-0.463568
-0.469947
-0.477802
-0.487137
-0.49792
-0.510113
-0.52375
-0.537183
-0.457789
-0.456096
-0.455566
-0.455664
-0.456651
-0.458792
-0.46226
-0.467166
-0.473565
-0.481477
-0.490896
-0.501771
-0.514031
-0.527764
-0.5409
-0.461939
-0.459977
-0.459284
-0.459228
-0.460069
-0.46208
-0.465441
-0.470271
-0.476626
-0.484525
-0.493949
-0.504832
-0.517058
-0.530801
-0.54347
-0.465754
-0.463553
-0.462696
-0.462474
-0.463142
-0.464984
-0.468191
-0.472887
-0.479135
-0.486951
-0.496307
-0.507122
-0.519221
-0.532901
-0.544941
-0.469234
-0.466826
-0.46581
-0.465409
-0.465881
-0.467518
-0.470521
-0.475028
-0.481108
-0.488775
-0.497993
-0.50867
-0.520556
-0.534115
-0.545364
-0.472387
-0.469808
-0.468637
-0.468049
-0.468301
-0.469698
-0.472453
-0.476717
-0.48257
-0.490025
-0.499041
-0.509516
-0.521109
-0.534504
-0.544794
-0.475227
-0.472514
-0.471196
-0.470412
-0.470426
-0.47155
-0.474014
-0.477985
-0.483555
-0.490741
-0.499494
-0.509712
-0.520939
-0.534141
-0.543297
-0.477772
-0.474965
-0.473507
-0.472525
-0.472282
-0.473105
-0.47524
-0.478872
-0.484108
-0.490971
-0.499408
-0.509319
-0.520114
-0.533113
-0.540983
-0.480048
-0.477186
-0.475599
-0.474414
-0.473902
-0.474398
-0.47617
-0.479423
-0.48428
-0.490774
-0.498845
-0.508408
-0.518708
-0.531502
-0.537949
-0.482085
-0.479207
-0.4775
-0.476113
-0.47532
-0.47547
-0.476851
-0.479692
-0.484132
-0.490215
-0.497879
-0.507055
-0.516804
-0.529386
-0.534293
-0.483919
-0.48106
-0.479244
-0.477656
-0.476575
-0.476365
-0.477334
-0.479735
-0.483728
-0.489368
-0.49659
-0.505346
-0.51449
-0.526843
-0.530035
-0.48559
-0.482782
-0.480867
-0.47908
-0.477708
-0.477129
-0.477673
-0.479616
-0.483139
-0.488312
-0.495064
-0.503369
-0.511866
-0.523946
-0.525217
-0.487143
-0.484412
-0.482408
-0.480425
-0.478763
-0.477812
-0.477924
-0.479399
-0.48244
-0.487129
-0.493389
-0.501213
-0.509032
-0.520782
-0.52016
-0.488625
-0.485992
-0.483905
-0.481732
-0.479784
-0.478463
-0.478144
-0.47915
-0.481704
-0.485899
-0.491655
-0.498962
-0.506088
-0.517392
-0.514941
-0.490087
-0.487566
-0.4854
-0.483043
-0.480815
-0.479132
-0.47839
-0.478934
-0.481004
-0.484702
-0.489944
-0.496691
-0.503123
-0.513792
-0.509659
-0.491583
-0.489177
-0.486937
-0.484399
-0.481901
-0.47987
-0.478719
-0.478814
-0.48041
-0.483612
-0.488331
-0.494464
-0.500214
-0.509978
-0.504423
-0.493167
-0.490871
-0.488555
-0.485844
-0.483086
-0.480723
-0.479184
-0.478848
-0.479983
-0.482691
-0.486879
-0.49233
-0.497413
-0.50593
-0.499299
-0.494893
-0.492692
-0.490297
-0.487417
-0.484414
-0.481738
-0.479833
-0.479089
-0.479778
-0.481993
-0.485633
-0.490323
-0.494749
-0.501594
-0.494227
-0.496811
-0.494682
-0.492203
-0.489157
-0.485922
-0.482955
-0.480709
-0.479579
-0.479836
-0.481553
-0.484618
-0.48847
-0.492236
-0.496897
-0.489071
-0.498972
-0.496881
-0.494308
-0.4911
-0.487646
-0.48441
-0.481847
-0.480352
-0.480186
-0.481395
-0.483843
-0.486793
-0.489869
-0.491885
-0.484326
-0.50142
-0.499326
-0.496647
-0.493277
-0.489616
-0.486131
-0.483274
-0.48143
-0.480843
-0.48152
-0.483294
-0.485285
-0.487561
-0.486908
-0.482202
-0.504192
-0.502048
-0.499249
-0.495716
-0.491858
-0.48814
-0.485006
-0.482824
-0.481808
-0.481919
-0.482944
-0.483909
-0.485121
-0.482357
-0.484027
-0.507322
-0.505075
-0.502138
-0.498437
-0.494389
-0.49045
-0.487051
-0.484532
-0.483067
-0.482565
-0.482754
-0.482614
-0.482492
-0.478063
-0.478648
-0.510833
-0.508427
-0.505333
-0.501458
-0.49722
-0.493069
-0.489408
-0.486543
-0.4846
-0.483425
-0.482683
-0.481342
-0.479679
-0.473616
-0.471676
-0.514744
-0.512122
-0.508848
-0.504788
-0.500359
-0.495995
-0.492069
-0.48884
-0.486375
-0.484456
-0.482686
-0.480044
-0.476715
-0.46903
-0.464478
-0.519065
-0.51617
-0.512692
-0.508434
-0.503807
-0.499225
-0.49502
-0.491397
-0.488355
-0.485614
-0.482718
-0.478684
-0.473621
-0.464352
-0.457286
-0.523801
-0.520578
-0.516872
-0.512399
-0.507563
-0.50275
-0.498244
-0.494185
-0.490503
-0.486852
-0.482737
-0.477235
-0.470417
-0.459608
-0.450299
-0.528952
-0.525348
-0.521389
-0.516684
-0.511622
-0.506559
-0.50172
-0.497175
-0.492777
-0.488126
-0.482705
-0.475677
-0.46712
-0.454831
-0.443564
-0.534515
-0.53048
-0.526244
-0.521287
-0.51598
-0.510641
-0.505429
-0.500335
-0.495136
-0.489391
-0.482586
-0.473996
-0.463741
-0.45005
-0.437094
-0.54048
-0.535971
-0.531436
-0.526206
-0.520631
-0.514984
-0.509347
-0.50363
-0.497541
-0.490609
-0.482352
-0.472181
-0.460289
-0.445284
-0.430874
-0.54684
-0.541818
-0.536961
-0.531437
-0.525569
-0.519573
-0.513452
-0.507029
-0.49995
-0.491741
-0.481978
-0.470228
-0.456771
-0.440543
-0.42488
-0.553582
-0.548012
-0.542816
-0.536979
-0.530786
-0.524394
-0.517717
-0.510494
-0.502324
-0.492752
-0.481444
-0.468132
-0.453192
-0.435832
-0.41908
-0.560693
-0.554548
-0.548996
-0.542824
-0.536273
-0.52943
-0.522115
-0.51399
-0.504625
-0.493612
-0.480732
-0.46589
-0.449551
-0.431149
-0.413442
-0.568157
-0.561414
-0.555493
-0.548965
-0.542018
-0.53466
-0.526615
-0.517477
-0.506812
-0.494291
-0.479828
-0.463499
-0.445847
-0.426486
-0.407933
-0.575957
-0.568597
-0.562296
-0.555391
-0.548004
-0.540057
-0.531179
-0.520914
-0.508849
-0.494763
-0.47872
-0.460956
-0.442075
-0.421832
-0.402521
-0.58407
-0.57608
-0.569392
-0.562086
-0.554209
-0.54559
-0.535767
-0.524256
-0.510697
-0.495004
-0.477397
-0.458257
-0.438227
-0.417172
-0.397174
-0.592472
-0.583845
-0.576761
-0.569029
-0.560605
-0.551219
-0.540334
-0.527458
-0.512322
-0.494993
-0.475848
-0.455394
-0.434291
-0.412489
-0.391862
-0.601132
-0.591863
-0.58438
-0.576193
-0.567155
-0.556901
-0.544828
-0.530473
-0.513687
-0.494708
-0.474063
-0.452358
-0.430255
-0.407763
-0.386555
-0.610013
-0.600106
-0.592217
-0.583541
-0.573817
-0.562583
-0.549196
-0.533252
-0.514759
-0.49413
-0.47203
-0.44914
-0.426103
-0.402973
-0.381226
-0.619074
-0.608534
-0.600234
-0.591032
-0.580539
-0.568207
-0.553378
-0.535749
-0.515505
-0.49324
-0.469736
-0.445725
-0.421819
-0.398099
-0.375847
-0.628265
-0.617104
-0.608386
-0.598613
-0.587262
-0.573708
-0.557314
-0.537915
-0.515893
-0.492017
-0.467166
-0.442099
-0.417383
-0.393116
-0.370392
-0.63753
-0.625764
-0.616621
-0.606226
-0.593918
-0.579017
-0.560942
-0.539703
-0.515892
-0.490441
-0.464303
-0.438244
-0.412774
-0.388002
-0.364834
-0.646806
-0.634455
-0.624876
-0.613802
-0.600434
-0.584061
-0.5642
-0.541067
-0.515472
-0.488492
-0.461132
-0.434142
-0.407972
-0.382733
-0.35915
-0.656023
-0.643112
-0.633083
-0.621268
-0.606731
-0.588763
-0.567023
-0.541961
-0.514603
-0.486149
-0.457632
-0.429773
-0.402955
-0.377287
-0.353316
-0.665103
-0.651661
-0.641167
-0.628541
-0.612725
-0.593048
-0.569351
-0.542342
-0.513255
-0.483389
-0.453784
-0.425115
-0.3977
-0.371639
-0.347307
-0.673964
-0.660024
-0.649044
-0.635533
-0.618328
-0.596835
-0.571123
-0.542168
-0.511399
-0.480189
-0.449566
-0.420148
-0.392185
-0.365768
-0.341104
-0.682516
-0.668115
-0.656626
-0.642153
-0.62345
-0.600048
-0.572281
-0.5414
-0.509006
-0.476527
-0.444956
-0.414848
-0.386388
-0.359651
-0.334684
-0.690667
-0.675841
-0.663817
-0.648303
-0.628
-0.602612
-0.572769
-0.539997
-0.506049
-0.472378
-0.439932
-0.409194
-0.380286
-0.353267
-0.328028
-0.698318
-0.683109
-0.670521
-0.653884
-0.631887
-0.604453
-0.572534
-0.537923
-0.5025
-0.46772
-0.434472
-0.403164
-0.373859
-0.346594
-0.321117
-0.705368
-0.689819
-0.676634
-0.658797
-0.635023
-0.605501
-0.571526
-0.535143
-0.498331
-0.462529
-0.428552
-0.396736
-0.367086
-0.339615
-0.313935
-0.711715
-0.695868
-0.682054
-0.662942
-0.63732
-0.60569
-0.569698
-0.531624
-0.493518
-0.456781
-0.422153
-0.38989
-0.359946
-0.33231
-0.306464
-0.717255
-0.701154
-0.686677
-0.66622
-0.638697
-0.604959
-0.567008
-0.527334
-0.488035
-0.450455
-0.415252
-0.382605
-0.352422
-0.324663
-0.298691
-0.721885
-0.705575
-0.6904
-0.668537
-0.639075
-0.603249
-0.563416
-0.522247
-0.481859
-0.44353
-0.407829
-0.374863
-0.344497
-0.316658
-0.290604
-0.725501
-0.709026
-0.693122
-0.669801
-0.638382
-0.60051
-0.558885
-0.516334
-0.474968
-0.435985
-0.399866
-0.366647
-0.336154
-0.308281
-0.282189
-0.728006
-0.711409
-0.694745
-0.669927
-0.636551
-0.596695
-0.553385
-0.509573
-0.467342
-0.427803
-0.391346
-0.357941
-0.327379
-0.299518
-0.273436
-0.729303
-0.712626
-0.695177
-0.668834
-0.633523
-0.591764
-0.546887
-0.501942
-0.458964
-0.418967
-0.382254
-0.348731
-0.31816
-0.29036
-0.264337
-0.729301
-0.712587
-0.694332
-0.666451
-0.629244
-0.58568
-0.539369
-0.493424
-0.449818
-0.409462
-0.372576
-0.339005
-0.308485
-0.2808
-0.254895
-0.727916
-0.711206
-0.692129
-0.662712
-0.62367
-0.578415
-0.53081
-0.484005
-0.439891
-0.399277
-0.362301
-0.328751
-0.29834
-0.270829
-0.245118
-0.72507
-0.708403
-0.688496
-0.657561
-0.616762
-0.569947
-0.521197
-0.473672
-0.429173
-0.388403
-0.35142
-0.31796
-0.287716
-0.260434
-0.234975
-0.720692
-0.704107
-0.683369
-0.65095
-0.608491
-0.560257
-0.510518
-0.462418
-0.417656
-0.376832
-0.339928
-0.306629
-0.276615
-0.249603
-0.224345
-0.714719
-0.698255
-0.676695
-0.642841
-0.598833
-0.549334
-0.498767
-0.450239
-0.405338
-0.364562
-0.327821
-0.294757
-0.265051
-0.238363
-0.213134
-0.7071
-0.690793
-0.668427
-0.633204
-0.587775
-0.537173
-0.485943
-0.437133
-0.392216
-0.35159
-0.315098
-0.282345
-0.253025
-0.226743
-0.201583
-0.69779
-0.681677
-0.658532
-0.622019
-0.575308
-0.523774
-0.472049
-0.423105
-0.378294
-0.337919
-0.30176
-0.269394
-0.240513
-0.214595
-0.189901
-0.686756
-0.670873
-0.646983
-0.609275
-0.561434
-0.509143
-0.457093
-0.40816
-0.363577
-0.323554
-0.287814
-0.255912
-0.227536
-0.202023
-0.177905
-0.673975
-0.658357
-0.633768
-0.594969
-0.546159
-0.493293
-0.441086
-0.39231
-0.348074
-0.308503
-0.27327
-0.241906
-0.214091
-0.189063
-0.165546
-0.659432
-0.644115
-0.61888
-0.579109
-0.5295
-0.476241
-0.424046
-0.375568
-0.331798
-0.292779
-0.258136
-0.227383
-0.20019
-0.175718
-0.152824
-0.643127
-0.628144
-0.602326
-0.56171
-0.511477
-0.45801
-0.405993
-0.357953
-0.314766
-0.276397
-0.242425
-0.212354
-0.185848
-0.16199
-0.139753
-0.625065
-0.610452
-0.584121
-0.542796
-0.492119
-0.438628
-0.386954
-0.339489
-0.296999
-0.259372
-0.226153
-0.196836
-0.171078
-0.147887
-0.126348
-0.605266
-0.591057
-0.564291
-0.522399
-0.471459
-0.418132
-0.366958
-0.3202
-0.278516
-0.241725
-0.20934
-0.180846
-0.155897
-0.133423
-0.112627
-0.583757
-0.569985
-0.542867
-0.500557
-0.449541
-0.396557
-0.346037
-0.300117
-0.259345
-0.223481
-0.192007
-0.164405
-0.140322
-0.118613
-0.0986078
-0.560575
-0.547274
-0.519894
-0.477326
-0.426432
-0.373924
-0.324226
-0.279271
-0.239516
-0.204666
-0.174178
-0.147534
-0.124373
-0.103475
-0.0843091
-0.535766
-0.522969
-0.495423
-0.452768
-0.402191
-0.350267
-0.301561
-0.2577
-0.219061
-0.18531
-0.155881
-0.130258
-0.108074
-0.0880321
-0.0697526
-0.509381
-0.497128
-0.46952
-0.426946
-0.376741
-0.325738
-0.278102
-0.235442
-0.198016
-0.165444
-0.137144
-0.112605
-0.0914484
-0.072307
-0.0549625
-0.481482
-0.469818
-0.442263
-0.3999
-0.350243
-0.30031
-0.253894
-0.212542
-0.17642
-0.145103
-0.118
-0.0946043
-0.0745232
-0.0563257
-0.0399659
-0.452139
-0.441116
-0.413726
-0.371601
-0.322837
-0.274056
-0.228989
-0.189047
-0.154312
-0.124324
-0.0984819
-0.0762865
-0.0573271
-0.0401167
-0.0247947
-0.421427
-0.411104
-0.383924
-0.342261
-0.294521
-0.247039
-0.203442
-0.165005
-0.131737
-0.103146
-0.0786253
-0.0576844
-0.03989
-0.0237122
-0.00949099
-0.389426
-0.379874
-0.352894
-0.312004
-0.265375
-0.219328
-0.17731
-0.140467
-0.10874
-0.0816096
-0.0584667
-0.038832
-0.0222431
-0.0071478
0.00588952
-0.356206
-0.347505
-0.32085
-0.280848
-0.235479
-0.190991
-0.150653
-0.115486
-0.0853678
-0.059756
-0.0380441
-0.0197644
-0.00441738
0.009544
0.021296
-0.321859
-0.314115
-0.287914
-0.248881
-0.204912
-0.162099
-0.123534
-0.0901183
-0.0616698
-0.037629
-0.0173974
-0.000518353
0.0135601
0.026346
0.0367029
-0.286632
-0.279726
-0.254147
-0.216198
-0.173758
-0.132727
-0.0960191
-0.0644204
-0.0376966
-0.0152736
0.00343248
0.0188721
0.031676
0.0432454
0.0520001
-0.250606
-0.244437
-0.219636
-0.182895
-0.142101
-0.102949
-0.068174
-0.0384519
-0.0135005
0.00726392
0.0244053
0.0383858
0.0499401
0.0601699
0.0667423
-0.213811
-0.208417
-0.184482
-0.149069
-0.110029
-0.0728434
-0.0400679
-0.0122738
0.0108643
0.0299348
0.0454834
0.0580168
0.0683632
0.0769474
0.0803774
-0.176362
-0.171791
-0.148796
-0.11482
-0.0776322
-0.0424895
-0.011771
0.0140512
0.0353411
0.0526882
0.0666299
0.0777481
0.0868723
0.0934081
0.0936898
-0.138385
-0.134675
-0.112689
-0.0802484
-0.0450008
-0.0119679
0.016645
0.0404588
0.0598715
0.0754723
0.0878027
0.0975147
0.105269
0.109444
0.110173
-0.100003
-0.0971822
-0.0762741
-0.0454583
-0.0122269
0.0186399
0.0451072
0.0668835
0.0843964
0.0982351
0.10895
0.11722
0.123499
0.126014
0.127311
-0.0613399
-0.059433
-0.0396653
-0.010553
0.0205969
0.0492517
0.0735421
0.0932592
0.108856
0.120923
0.130017
0.136811
0.14161
0.142808
0.143938
-0.0225208
-0.0215468
-0.0029772
0.0243634
0.0533779
0.0797847
0.101876
0.119519
0.133191
0.14348
0.15095
0.156249
0.159601
0.159636
0.160234
0.0163288
0.0163558
0.0336759
0.0591871
0.0860233
0.110156
0.130035
0.145598
0.15734
0.165852
0.171695
0.175493
0.177428
0.176334
0.176183
0.0550838
0.0541538
0.07018
0.0938147
0.118441
0.140285
0.157945
0.171427
0.181244
0.187984
0.192202
0.194501
0.195041
0.192818
0.191784
0.0936196
0.0917268
0.106422
0.128144
0.150539
0.170087
0.185533
0.196943
0.204843
0.20982
0.212421
0.21323
0.21239
0.209033
0.207029
0.131812
0.128955
0.14229
0.162072
0.182227
0.199484
0.212727
0.222079
0.228078
0.231307
0.232305
0.231635
0.229433
0.224938
0.221909
0.16954
0.16572
0.177673
0.195501
0.213415
0.228395
0.239454
0.246771
0.250892
0.252393
0.251807
0.249676
0.246127
0.240498
0.236412
0.206682
0.201905
0.212462
0.228332
0.244017
0.256741
0.265646
0.270956
0.273227
0.273028
0.270881
0.26731
0.262437
0.255684
0.250523
0.24312
0.237396
0.246552
0.260468
0.273947
0.284447
0.291233
0.294573
0.295028
0.29316
0.289483
0.284499
0.278326
0.270466
0.264224
0.278738
0.272081
0.279839
0.291817
0.30312
0.311438
0.316149
0.317562
0.316241
0.312742
0.307568
0.301203
0.29376
0.284817
0.277497
0.313425
0.305852
0.312221
0.322288
0.331455
0.33764
0.340328
0.339863
0.336813
0.331727
0.325095
0.317384
0.308708
0.298708
0.290321
0.347069
0.338602
0.343601
0.351791
0.358875
0.362984
0.363706
0.36142
0.356694
0.350068
0.342023
0.333008
0.323136
0.312112
0.302675
0.379567
0.370231
0.373886
0.380244
0.385303
0.387402
0.386224
0.382178
0.375833
0.367722
0.358313
0.348039
0.337014
0.325003
0.314538
0.410817
0.40064
0.402984
0.407564
0.410666
0.410828
0.407823
0.402085
0.394185
0.384646
0.373927
0.362443
0.350313
0.337354
0.32589
0.440722
0.429737
0.43081
0.433674
0.434895
0.433201
0.428446
0.421091
0.411704
0.4008
0.388829
0.376188
0.363003
0.349139
0.336709
0.469189
0.457431
0.457281
0.458501
0.457925
0.454461
0.448041
0.439147
0.428346
0.416145
0.402983
0.389243
0.375058
0.360334
0.346976
0.496132
0.48364
0.482321
0.481973
0.479692
0.474552
0.466557
0.456209
0.444071
0.430645
0.416358
0.40158
0.38645
0.370915
0.356671
0.521467
0.508284
0.505855
0.504026
0.500137
0.493422
0.483947
0.472233
0.458841
0.444265
0.428922
0.41317
0.397155
0.38086
0.365778
0.545119
0.53129
0.527818
0.524599
0.519208
0.511021
0.500167
0.48718
0.47262
0.456973
0.440647
0.423987
0.40715
0.390147
0.374278
0.567017
0.552589
0.548145
0.543636
0.536852
0.527304
0.515176
0.501013
0.485374
0.468738
0.451505
0.434008
0.416412
0.398757
0.382155
0.587095
0.572118
0.566779
0.561084
0.553023
0.54223
0.528936
0.513699
0.497074
0.479535
0.461472
0.443211
0.424922
0.406672
0.389396
0.605294
0.589823
0.583669
0.576897
0.56768
0.555761
0.541413
0.525206
0.507691
0.489336
0.470526
0.451574
0.432662
0.413875
0.395987
0.621563
0.605651
0.598768
0.591033
0.580785
0.567862
0.552577
0.535507
0.517201
0.498121
0.478646
0.459081
0.439614
0.420351
0.401915
0.635854
0.619559
0.612034
0.603456
0.592305
0.578505
0.562402
0.544578
0.525582
0.50587
0.485814
0.465714
0.445765
0.426087
0.407171
0.648129
0.631508
0.623434
0.614134
0.602212
0.587664
0.570863
0.552399
0.532815
0.512565
0.492016
0.471462
0.451102
0.431071
0.411746
0.658353
0.641466
0.632938
0.623041
0.610482
0.595318
0.577943
0.558951
0.538884
0.518193
0.497239
0.476311
0.455614
0.435295
0.415632
0.666501
0.64941
0.640523
0.630155
0.617097
0.60145
0.583626
0.564222
0.543778
0.522742
0.501472
0.480252
0.459293
0.438749
0.418823
0.672553
0.655319
0.646172
0.635463
0.622042
0.606047
0.5879
0.5682
0.547487
0.526204
0.504708
0.48328
0.462133
0.441429
0.421318
0.676497
0.659183
0.649874
0.638953
0.62531
0.609102
0.590759
0.57088
0.550004
0.528573
0.506942
0.485389
0.464129
0.443331
0.423107
0.678327
0.660995
0.651624
0.640621
0.626896
0.61061
0.592198
0.572259
0.551328
0.529848
0.508171
0.486577
0.46528
0.444449
0.424179
0.678045
0.660756
0.651423
0.640469
0.6268
0.610574
0.59222
0.572336
0.551458
0.530027
0.508397
0.486844
0.465585
0.444783
0.424542
0.675657
0.658476
0.649278
0.638504
0.625029
0.608997
0.590828
0.571117
0.550399
0.529116
0.507621
0.486194
0.465047
0.444342
0.424204
0.671181
0.654168
0.645204
0.634736
0.621595
0.60589
0.588031
0.568609
0.548157
0.527119
0.50585
0.484631
0.463671
0.443131
0.42318
0.664637
0.647854
0.639218
0.629184
0.616511
0.601267
0.583843
0.564823
0.544743
0.524047
0.503092
0.482163
0.461464
0.441152
0.421465
0.656055
0.63956
0.631348
0.62187
0.6098
0.595147
0.578279
0.559774
0.54017
0.51991
0.499358
0.478799
0.458434
0.438413
0.41906
0.64547
0.629322
0.621624
0.612824
0.601485
0.587551
0.571359
0.553482
0.534454
0.514725
0.49466
0.474551
0.454593
0.434924
0.415974
0.632924
0.61718
0.610084
0.602078
0.591599
0.578507
0.56311
0.545967
0.527616
0.508509
0.489016
0.469434
0.449952
0.430697
0.412216
0.618465
0.60318
0.59677
0.589671
0.580174
0.568047
0.553557
0.537255
0.519678
0.501282
0.482442
0.463463
0.444526
0.425743
0.407797
0.60215
0.587376
0.581732
0.575647
0.567251
0.556205
0.542734
0.527375
0.510666
0.493068
0.474961
0.456658
0.438333
0.42008
0.402729
0.584038
0.569826
0.565023
0.560055
0.552873
0.543022
0.530675
0.516358
0.500608
0.483891
0.466594
0.449038
0.431391
0.413723
0.397026
0.564197
0.550595
0.546703
0.542949
0.537088
0.528539
0.517419
0.504239
0.489536
0.473781
0.457367
0.440627
0.423719
0.406691
0.390703
0.542701
0.529753
0.526836
0.524386
0.519948
0.512803
0.503009
0.491056
0.477484
0.462767
0.447308
0.431449
0.415341
0.399003
0.383776
0.519627
0.507375
0.505494
0.50443
0.501511
0.495866
0.487489
0.47685
0.464488
0.450883
0.436446
0.42153
0.40628
0.390682
0.376261
0.495059
0.483543
0.482749
0.483148
0.481834
0.477781
0.470908
0.461664
0.450587
0.438163
0.424812
0.410898
0.396561
0.38175
0.368178
0.469087
0.458343
0.458681
0.46061
0.460984
0.458605
0.453318
0.445545
0.435823
0.424646
0.412439
0.399583
0.386211
0.372231
0.359547
0.441805
0.431864
0.433375
0.436893
0.439026
0.438399
0.434772
0.428541
0.42024
0.410369
0.399363
0.387616
0.375257
0.36215
0.350386
0.41331
0.404201
0.406917
0.412075
0.416032
0.417226
0.415327
0.410702
0.403883
0.395375
0.385621
0.37503
0.363729
0.351532
0.340718
0.383706
0.375454
0.379399
0.386239
0.392075
0.395151
0.395043
0.392084
0.386801
0.379705
0.37125
0.361859
0.351657
0.340405
0.330563
0.353098
0.345725
0.350916
0.35947
0.367232
0.372244
0.373981
0.372739
0.369042
0.363404
0.35629
0.348137
0.339071
0.328796
0.319944
0.321596
0.315121
0.321567
0.331859
0.341583
0.348576
0.352205
0.352727
0.350658
0.346519
0.340782
0.333901
0.326005
0.316732
0.308881
0.289314
0.28375
0.291453
0.303495
0.31521
0.324219
0.32978
0.332105
0.331701
0.329096
0.324768
0.319189
0.31249
0.304243
0.297398
0.256367
0.251725
0.260679
0.274474
0.288196
0.299249
0.306774
0.310933
0.312227
0.311184
0.308292
0.304039
0.298561
0.291356
0.285513
0.222874
0.21916
0.229351
0.244891
0.260627
0.273743
0.283255
0.289275
0.29229
0.292833
0.291398
0.28849
0.284253
0.2781
0.273247
0.188954
0.186171
0.197577
0.214845
0.232592
0.247779
0.259293
0.267191
0.271947
0.274093
0.274132
0.272584
0.269602
0.264507
0.260616
0.154728
0.152876
0.165468
0.184435
0.204179
0.221436
0.234961
0.244748
0.251255
0.255017
0.25654
0.256362
0.254649
0.250607
0.247635
0.120319
0.119393
0.133135
0.153763
0.175479
0.194795
0.210328
0.222008
0.230273
0.235657
0.238669
0.239866
0.239433
0.23644
0.234315
0.08585
0.0858407
0.10069
0.12293
0.146582
0.167937
0.185469
0.199038
0.209059
0.216066
0.220568
0.22314
0.224003
0.222055
0.220658
0.0514438
0.0523388
0.0682446
0.0920389
0.11758
0.140944
0.160456
0.175902
0.187674
0.1963
0.202286
0.206225
0.208403
0.207523
0.206666
0.0172228
0.0190051
0.0359123
0.0611914
0.0885652
0.113897
0.135363
0.152668
0.166175
0.176411
0.183875
0.189162
0.192679
0.192981
0.192342
-0.016691
-0.0140437
0.00380465
0.03049
0.059628
0.0868777
0.110261
0.129398
0.144622
0.156455
0.165386
0.17199
0.176837
0.178591
0.177525
-0.0501764
-0.0466922
-0.027967
3.62445e-05
0.0308596
0.0599663
0.0852224
0.10616
0.123074
0.136483
0.146873
0.154762
0.160853
0.164656
0.163283
-0.0831142
-0.0788297
-0.0592935
-0.03007
0.00234958
0.033243
0.0603191
0.0830154
0.101587
0.116546
0.128387
0.137563
0.144781
0.150389
0.151691
-0.115383
-0.110343
-0.0900678
-0.0597303
-0.0258135
0.00678623
0.0356205
0.0600281
0.0802187
0.0966966
0.109967
0.120451
0.128778
0.135862
0.139842
-0.146903
-0.141095
-0.120187
-0.0888487
-0.0535431
-0.019327
0.0111951
0.0372587
0.0590241
0.0769821
0.0916514
0.103444
0.112902
0.121193
0.127078
-0.177682
-0.17092
-0.149555
-0.117332
-0.0807545
-0.0450219
-0.0128906
0.0147664
0.0380556
0.05745
0.0734771
0.0865527
0.0971538
0.106534
0.113833
-0.207457
-0.199844
-0.178102
-0.145087
-0.107366
-0.0702256
-0.0365723
-0.00739178
0.0173639
0.0381455
0.0554837
0.0698022
0.0815331
0.0919598
0.100487
-0.236124
-0.227724
-0.20575
-0.17203
-0.133299
-0.0948679
-0.0597875
-0.0291606
-0.00300229
0.019112
0.037711
0.0532261
0.066058
0.0774903
0.0871482
-0.263617
-0.254501
-0.232305
-0.198109
-0.158474
-0.118881
-0.0824765
-0.0504869
-0.0229958
0.000391503
0.0201975
0.0368602
0.0507556
0.0631451
0.0738453
-0.289861
-0.280083
-0.257693
-0.223243
-0.182818
-0.142199
-0.104582
-0.0713199
-0.0425714
-0.0179756
0.00298002
0.0207386
0.0356565
0.0489554
0.0606237
-0.314781
-0.304388
-0.281902
-0.247244
-0.206312
-0.16476
-0.126049
-0.0916115
-0.0616861
-0.0359506
-0.0139062
0.004894
0.0207906
0.034955
0.0475328
-0.338313
-0.327345
-0.304863
-0.27012
-0.228832
-0.186499
-0.146826
-0.111316
-0.080299
-0.0534969
-0.0304275
-0.0106423
0.00618712
0.0211744
0.0346114
-0.3604
-0.348891
-0.326504
-0.291824
-0.250278
-0.207396
-0.166867
-0.13039
-0.0983722
-0.0705799
-0.046552
-0.0258406
-0.00812681
0.00764064
0.0218893
-0.380991
-0.368973
-0.346766
-0.312295
-0.270658
-0.227358
-0.186124
-0.148795
-0.11587
-0.0871673
-0.0622502
-0.0406733
-0.0221258
-0.00562169
0.00939205
-0.400045
-0.387549
-0.365599
-0.331477
-0.289921
-0.246348
-0.204555
-0.166493
-0.13276
-0.10323
-0.0774946
-0.0551149
-0.0357866
-0.0185904
-0.00285732
-0.417528
-0.404588
-0.382968
-0.349324
-0.308016
-0.264333
-0.222125
-0.183452
-0.149013
-0.11874
-0.0922605
-0.0691423
-0.0490881
-0.0312455
-0.0148381
-0.433416
-0.420066
-0.398841
-0.3658
-0.324903
-0.281279
-0.238804
-0.199647
-0.164601
-0.133675
-0.106526
-0.0827345
-0.0620116
-0.0435697
-0.0265314
-0.447695
-0.433971
-0.413201
-0.380879
-0.340551
-0.297152
-0.254562
-0.215048
-0.179505
-0.148011
-0.120271
-0.0958727
-0.0745407
-0.0555486
-0.0379196
-0.460362
-0.4463
-0.426036
-0.394541
-0.354934
-0.311927
-0.269374
-0.229634
-0.193704
-0.161737
-0.133479
-0.108541
-0.086661
-0.0671714
-0.048986
-0.471424
-0.457061
-0.437346
-0.406776
-0.368037
-0.325584
-0.283222
-0.243387
-0.20718
-0.174833
-0.146139
-0.120724
-0.0983586
-0.0784302
-0.0597171
-0.480898
-0.466271
-0.447142
-0.417583
-0.379848
-0.338108
-0.296091
-0.256295
-0.219922
-0.187286
-0.158239
-0.132431
-0.109608
-0.0893152
-0.0701157
-0.488812
-0.473959
-0.455442
-0.426968
-0.390364
-0.34949
-0.307969
-0.268346
-0.23192
-0.19909
-0.169766
-0.143632
-0.120429
-0.0997882
-0.0802394
-0.495201
-0.480164
-0.462278
-0.434948
-0.39959
-0.359728
-0.318852
-0.279536
-0.243169
-0.210237
-0.180714
-0.154321
-0.130803
-0.109863
-0.090232
-0.500114
-0.484932
-0.467689
-0.441551
-0.407538
-0.368826
-0.328739
-0.289861
-0.253666
-0.220727
-0.191082
-0.164498
-0.140728
-0.119525
-0.0997665
-0.503607
-0.488322
-0.471725
-0.44681
-0.414229
-0.376791
-0.337634
-0.299324
-0.263412
-0.230559
-0.200871
-0.174162
-0.150198
-0.128763
-0.108811
-0.505742
-0.490397
-0.474444
-0.450771
-0.41969
-0.383641
-0.345544
-0.30793
-0.272411
-0.239736
-0.210082
-0.183311
-0.15921
-0.137587
-0.117451
-0.506592
-0.491232
-0.475914
-0.453486
-0.423957
-0.389396
-0.352484
-0.315688
-0.280671
-0.248264
-0.218719
-0.191951
-0.167766
-0.146008
-0.125739
-0.506236
-0.490906
-0.476208
-0.455017
-0.427075
-0.394086
-0.358472
-0.322612
-0.288202
-0.256153
-0.226791
-0.200086
-0.175874
-0.154031
-0.133682
-0.504758
-0.489504
-0.475409
-0.455433
-0.429094
-0.397745
-0.36353
-0.328717
-0.295018
-0.263414
-0.234306
-0.207727
-0.18354
-0.161658
-0.141275
-0.502248
-0.487118
-0.473603
-0.454809
-0.430072
-0.400413
-0.367687
-0.334024
-0.301133
-0.270059
-0.241278
-0.214883
-0.190773