/*--------------------------------*- C++ -*----------------------------------*\
  =========                 |
  \\      /  F ield         | OpenFOAM: The Open Source CFD Toolbox
   \\    /   O peration     | Website:  https://openfoam.org
    \\  /    A nd           | Version:  7
     \\/     M anipulation  |
\*---------------------------------------------------------------------------*/
FoamFile
{
    version     2.0;
    format      ascii;
    class       surfaceScalarField;
    location    "160";
    object      phi;
}
// * * * * * * * * * * * * * * * * * * * * * * * * * * * * * * * * * * * * * //

dimensions      [0 3 -1 0 0 0 0];

internalField   nonuniform List<scalar> 
39691
(
-2.5031e-06
0.000108874
-0.000106371
-9.87888e-06
0.000272327
-0.000264951
-2.2147e-05
0.000395481
-0.000383213
-3.91163e-05
0.000481799
-0.00046483
-6.04536e-05
0.000536692
-0.000515354
-8.577e-05
0.000566705
-0.000541389
-0.000114689
0.000578433
-0.000549514
-0.00014689
0.0005775
-0.000545299
-0.000182127
0.00056777
-0.000532534
-0.000220234
0.000550945
-0.000512838
-0.000261129
0.00052656
-0.000485665
-0.00030482
0.000492243
-0.000448552
-0.000351421
0.000444063
-0.000397463
-0.000401122
0.000376705
-0.000327004
0.000283092
-0.000229823
-0.000454391
-2.03496e-06
0.000110909
-8.34964e-06
0.000278641
-1.91884e-05
0.00040632
-3.45176e-05
0.000497129
-5.40912e-05
0.000556265
-7.75428e-05
0.000590157
-0.000104465
0.000605355
-0.000134466
0.000607501
-0.000167203
0.000600508
-0.0002024
0.000586142
-0.000239854
0.000564014
-0.000279454
0.000531843
-0.000321201
0.00048581
-0.000365211
0.000420715
0.000329821
-0.00041194
-1.53206e-06
0.000112441
-6.68921e-06
0.000283799
-1.59426e-05
0.000415573
-2.94183e-05
0.000510604
-4.69589e-05
0.000573806
-6.82186e-05
0.000611417
-9.27536e-05
0.00062989
-0.000120092
0.00063484
-0.00014978
0.000630196
-0.000181411
0.000617773
-0.000214641
0.000597243
-0.000249206
0.000566408
-0.000284964
0.000521568
-0.000321923
0.000457674
0.000368368
-0.000360469
-1.00113e-06
0.000113442
-4.91697e-06
0.000287714
-1.24434e-05
0.0004231
-2.38669e-05
0.000522028
-3.91201e-05
0.000589059
-5.78781e-05
0.000630175
-7.9658e-05
0.00065167
-0.000103902
0.000659083
-0.000130035
0.000656329
-0.000157507
0.000645245
-0.00018581
0.000625547
-0.000214509
0.000595107
-0.000243287
0.000550347
-0.00027202
0.000486407
0.000397327
-0.000300979
-4.50205e-07
0.000113892
-3.05642e-06
0.000290321
-8.73335e-06
0.000428777
-1.7926e-05
0.00053122
-3.0658e-05
0.000601791
-4.66277e-05
0.000646144
-6.53134e-05
0.000670356
-8.60684e-05
0.000679838
-0.000108193
0.000678454
-0.000130983
0.000668035
-0.000153757
0.000648321
-0.000175886
0.000617236
-0.000196856
0.000571316
-0.000216391
0.000505942
0.000415544
-0.000234608
1.12367e-07
0.00011378
-1.13456e-06
0.000291568
-4.86251e-06
0.000432504
-1.16704e-05
0.000538028
-2.1674e-05
0.000611795
-3.45976e-05
0.000659068
-4.98842e-05
0.000685642
-6.68008e-05
0.000696755
-8.45217e-05
0.000696175
-0.000102186
0.000685699
-0.00011893
0.000665065
-0.00013392
0.000632226
-0.000146424
0.000583821
-0.000155997
0.000515514
0.000422093
-0.000162546
6.78119e-07
0.000113102
8.1853e-07
0.000291427
-8.86824e-07
0.00043421
-5.18603e-06
0.000542327
-1.22849e-05
0.000618894
-2.19386e-05
0.000668722
-3.35602e-05
0.000697264
-4.63362e-05
0.000709531
-5.93188e-05
0.000709158
-7.14922e-05
0.000697872
-8.18117e-05
0.000675385
-8.92326e-05
0.000639647
-9.2788e-05
0.000587376
-9.18451e-05
0.000514571
0.000416268
-8.60198e-05
1.23433e-06
0.000111868
2.77035e-06
0.000289891
3.13108e-06
0.000433849
1.43428e-06
0.000544024
-2.62052e-06
0.000622948
-8.81832e-06
0.000674919
-1.65515e-05
0.000704997
-2.49347e-05
0.000717914
-3.29066e-05
0.00071713
-3.93048e-05
0.00070427
-4.2908e-05
0.000678988
-4.24641e-05
0.000639203
-3.67519e-05
0.000581664
-2.49102e-05
0.00050273
0.000397872
-6.51413e-06
1.77297e-06
0.000110095
4.68863e-06
0.000286975
7.12732e-06
0.00043141
8.08489e-06
0.000543067
7.17874e-06
0.000623854
4.58169e-06
0.000677516
9.14648e-07
0.000708664
-2.87359e-06
0.000721702
-5.623e-06
0.000719879
-6.03598e-06
0.000704683
-2.72612e-06
0.000675678
5.75278e-06
0.000630724
2.08404e-05
0.000566577
4.38198e-05
0.00047975
0.000366757
7.49351e-05
2.28392e-06
0.000107811
6.53975e-06
0.00028272
1.1036e-05
0.000426914
1.46656e-05
0.000539437
1.69663e-05
0.000621554
1.80707e-05
0.000676412
1.86037e-05
0.000708131
1.95594e-05
0.000720746
2.21867e-05
0.000717252
2.79015e-05
0.000698969
3.82386e-05
0.000665341
5.48317e-05
0.000614131
7.9378e-05
0.00054203
0.000113206
0.000445923
0.000322728
0.000157234
2.75771e-06
0.000105053
8.29103e-06
0.000277186
1.47905e-05
0.000420415
2.10679e-05
0.00053316
2.65914e-05
0.00061603
3.14515e-05
0.000671552
3.6268e-05
0.000703315
4.20697e-05
0.000714945
5.01755e-05
0.000709146
6.21021e-05
0.000687042
7.95143e-05
0.000647929
0.000104211
0.000589434
0.000138122
0.000508119
0.000182839
0.000401206
0.000265886
0.000239681
3.18564e-06
0.000101867
9.91127e-06
0.000270461
1.83262e-05
0.000412
2.71863e-05
0.0005243
3.59028e-05
0.000607314
4.45255e-05
0.000662929
5.3662e-05
0.000694178
6.43627e-05
0.000704244
7.80004e-05
0.000695509
9.61746e-05
0.000668868
0.00012066
0.000623443
0.000153402
0.000556692
0.000196562
0.00046496
0.000252012
0.000345755
0.000196269
0.000321629
3.55987e-06
9.83075e-05
1.13716e-05
0.000262649
2.1582e-05
0.000401789
3.29189e-05
0.000512963
4.47526e-05
0.00059548
5.70965e-05
0.000650585
7.05415e-05
0.000680733
8.6148e-05
0.000688637
0.000105328
0.000676328
0.000129748
0.000644448
0.000161273
0.000591917
0.000201975
0.000515991
0.000254239
0.000412695
0.000320237
0.000279757
0.000113936
0.00040257
3.87369e-06
9.44338e-05
1.26462e-05
0.000253877
2.45016e-05
0.000389934
3.81701e-05
0.000499294
5.29999e-05
0.00058065
6.89759e-05
0.000634609
8.66701e-05
0.000663039
0.000107145
0.000668163
0.00013184
0.000651633
0.000162474
0.000613814
0.000200991
0.0005534
0.000249569
0.000467414
0.000310807
0.000351457
0.000387183
0.00020338
1.88832e-05
0.000482236
4.12157e-06
9.03122e-05
1.3713e-05
0.000244285
2.70356e-05
0.000376611
4.28536e-05
0.000483476
6.0515e-05
0.000562989
7.99873e-05
0.000615137
0.000101826
0.000641201
0.00012709
0.000642898
0.00015724
0.000621483
0.000194038
0.000577016
0.0002395
0.000507938
0.000295898
0.000411016
0.000366033
0.000281322
0.000452687
0.000116727
-8.90045e-05
0.000560574
4.29938e-06
8.60129e-05
1.45546e-05
0.00023403
2.9143e-05
0.000362023
4.68956e-05
0.000465723
6.71842e-05
0.0005427
8.99732e-05
0.000592348
0.000115807
0.000615367
0.000145744
0.000612962
0.000181261
0.000585966
0.000224164
0.000534112
0.00027654
0.000455562
0.000340757
0.0003468
0.000419808
0.000202271
0.000516761
1.97733e-05
-0.000209983
0.000637739
4.40445e-06
8.16084e-05
1.51584e-05
0.000223276
3.07926e-05
0.000346389
5.02374e-05
0.000446279
7.29138e-05
0.000520024
9.88013e-05
0.000566461
0.000128444
0.000585725
0.000162903
0.000578502
0.000203679
0.00054519
0.000252629
0.000485162
0.000311922
0.00039627
0.000384035
0.000274687
0.000472149
0.000114157
0.00057961
-8.76875e-05
-0.0003445
0.000714127
4.4357e-06
7.71727e-05
1.55177e-05
0.000212194
3.19651e-05
0.000329941
5.2839e-05
0.000425405
7.76366e-05
0.000495226
0.000106373
0.000537724
0.000139607
0.000552491
0.000178415
0.000539693
0.000224334
0.000499272
0.000279285
0.000430211
0.000345546
0.000330008
0.000425736
0.000194497
0.000523223
1.66693e-05
0.000641631
-0.000206095
-0.000493278
0.000790409
4.39375e-06
7.2779e-05
1.5632e-05
0.000200956
3.26541e-05
0.000312919
5.46821e-05
0.000403377
8.13164e-05
0.000468592
0.000112631
0.00050641
0.00014922
0.000515902
0.000192194
0.000496719
0.000243142
0.000448323
0.000304084
0.000369269
0.000377439
0.000256653
0.000466012
0.000105924
0.00057336
-9.06789e-05
0.000703398
-0.000336133
-0.00065717
0.000867291
4.28112e-06
6.84978e-05
1.55078e-05
0.000189729
3.28685e-05
0.000295559
5.57738e-05
0.000380471
8.39549e-05
0.000440411
0.00011757
0.000472794
0.000157274
0.000476199
0.000204236
0.000449757
0.000260131
0.000392428
0.000327109
0.000302292
0.000407782
0.000175981
0.000505201
8.50443e-06
0.00062308
-0.000208558
0.000765632
-0.000478686
-0.000837325
0.000945787
4.1023e-06
6.43955e-05
1.51593e-05
0.000178672
3.26334e-05
0.000278084
5.61494e-05
0.000356955
8.55961e-05
0.000410964
0.000121246
0.000437145
0.000163841
0.000433603
0.000214646
0.000398952
0.000275459
0.000331615
0.000348608
0.000229142
0.000436951
8.76377e-05
0.00054386
-9.84049e-05
0.00067315
-0.000337847
0.000829381
-0.000634917
-0.00103345
0.00102551
3.86397e-06
6.05316e-05
1.46086e-05
0.000167927
3.19916e-05
0.000260701
5.5875e-05
0.000333072
8.63322e-05
0.000380507
0.000123779
0.000399698
0.000169086
0.000388297
0.000223648
0.000344389
0.000289437
0.000265826
0.000369016
0.000149563
0.000465543
-8.88879e-06
0.000582767
-0.000215629
0.000724529
-0.000479609
0.00089584
-0.000806228
-0.00124664
0.00110902
3.57509e-06
5.69565e-05
1.38862e-05
0.000157616
3.10042e-05
0.000243583
5.50491e-05
0.000309027
8.63058e-05
0.00034925
0.000125368
0.000360635
0.000173273
0.000340393
0.000231599
0.000286063
0.000302545
0.00019488
0.000388966
6.31429e-05
0.000494363
-0.000114286
0.000622895
-0.000344161
0.000778289
-0.000635003
0.000966136
-0.000994074
-0.00147689
0.00119639
3.24697e-06
5.37095e-05
1.30313e-05
0.000147832
2.97509e-05
0.000226864
5.38031e-05
0.000284975
8.57112e-05
0.000317342
0.000126284
0.000320062
0.000176771
0.000289906
0.00023899
0.000223844
0.000315424
0.000118446
0.000409271
-3.07042e-05
0.000524396
-0.000229411
0.000665327
-0.000485092
0.000835478
-0.000805155
0.00104095
-0.00119955
-0.00172289
0.00128695
2.89322e-06
5.08163e-05
1.20908e-05
0.000138634
2.83287e-05
0.000210626
5.22991e-05
0.000261004
8.47915e-05
0.00028485
0.000126869
0.000277984
0.000180044
0.000236731
0.000246431
0.000157457
0.000328854
3.60233e-05
0.000430885
-0.000132735
0.000556726
-0.000355252
0.000711139
-0.000639504
0.000896981
-0.000990997
0.00112056
-0.00142312
-0.00198214
0.00137981
2.52946e-06
4.82868e-05
1.11188e-05
0.000130045
2.68499e-05
0.000194895
5.07261e-05
0.000237128
8.38319e-05
0.000251744
0.000127526
0.00023429
0.000183636
0.000180621
0.000254627
8.64663e-05
0.000343706
-5.30556e-05
0.00045482
-0.000243849
0.000592422
-0.000492854
0.000761236
-0.000808319
0.000963326
-0.00119309
0.00120451
-0.00166431
-0.00225076
0.00147314
2.17291e-06
4.61139e-05
1.01746e-05
0.000122043
2.54379e-05
0.000179632
4.9293e-05
0.000213273
8.31481e-05
0.000217889
0.000128699
0.00018874
0.000188139
0.000121181
0.000264327
1.02779e-05
0.000360872
-0.000149601
0.000482046
-0.000365023
0.00063239
-0.000643199
0.000816183
-0.000992111
0.0010345
-0.00141141
0.00129151
-0.00192132
-0.00252366
0.00156441
1.84172e-06
4.42722e-05
9.32063e-06
0.000114565
2.42224e-05
0.00016473
4.8219e-05
0.000189276
8.30708e-05
0.000183037
0.00013085
0.000140961
0.000194156
5.78753e-05
0.00027627
-7.18365e-05
0.00038118
-0.000254511
0.000513372
-0.000497215
0.000677233
-0.000807059
0.000876069
-0.00119095
0.00110984
-0.00164518
0.00137932
-0.0021908
-0.00279517
0.00165082
1.55405e-06
4.27181e-05
8.61887e-06
0.0001075
2.33325e-05
0.000150016
4.77223e-05
0.000164887
8.39264e-05
0.000146833
0.000134426
9.04607e-05
0.000202256
-9.95415e-06
0.000291116
-0.000160697
0.000405304
-0.000368699
0.000549336
-0.000641247
0.00072712
-0.000984843
0.000940447
-0.00140427
0.00118803
-0.00189275
0.00146499
-0.00246776
-0.00306017
0.00173
1.32704e-06
4.13911e-05
8.12804e-06
0.000100699
2.28901e-05
0.000135254
4.80068e-05
0.00013977
8.60161e-05
0.000108824
0.000139832
3.66451e-05
0.000212927
-8.30498e-05
0.000309383
-0.000257153
0.000433682
-0.000492998
0.00059011
-0.000797675
0.000781707
-0.00117644
0.00100831
-0.00163088
0.0012672
-0.00215164
0.00154567
-0.00274623
-0.0033157
0.00180119
1.17583e-06
4.02153e-05
7.89995e-06
9.39746e-05
2.30022e-05
0.000120152
4.92504e-05
0.000113522
8.95963e-05
6.84781e-05
0.000147394
-2.11523e-05
0.000226536
-0.000162192
0.000331398
-0.000362015
0.000466458
-0.000628058
0.000635456
-0.000966673
0.000840123
-0.00138111
0.00107807
-0.00186883
0.00134469
-0.00241825
0.00161984
-0.00302139
-0.00356298
0.00186713
1.11228e-06
3.9103e-05
7.97615e-06
8.71107e-05
2.37549e-05
0.000104373
5.15933e-05
8.56832e-05
9.48612e-05
2.52102e-05
0.000157342
-8.36328e-05
0.000243294
-0.000248144
0.000357258
-0.000475978
0.000503462
-0.000774262
0.000684736
-0.00114795
0.000901061
-0.00159743
0.00114762
-0.00211539
0.00141685
-0.00268749
0.00168671
-0.00329125
-0.00386247
0.0019862
1.14519e-06
3.79578e-05
8.38698e-06
7.98689e-05
2.52096e-05
8.75505e-05
5.51311e-05
5.57616e-05
0.000101932
-2.15904e-05
0.00016979
-0.000151491
0.000263244
-0.000341598
0.00038682
-0.000599555
0.000544211
-0.000931653
0.000736954
-0.00134069
0.000962913
-0.00182339
0.00121482
-0.00236729
0.00148187
-0.00295454
0.00174464
-0.00355402
-0.00412834
0.00201052
1.27865e-06
3.66791e-05
9.14838e-06
7.19992e-05
2.73984e-05
6.93005e-05
5.99096e-05
2.32504e-05
0.00011085
-7.25303e-05
0.000184736
-0.000225378
0.00028626
-0.000443122
0.000419721
-0.000733015
0.000587957
-0.00109989
0.000790857
-0.00154359
0.00102393
-0.00205646
0.00127753
-0.00262089
0.00153834
-0.00321535
0.00178933
-0.00380502
-0.00436651
0.0020275
1.51299e-06
3.51662e-05
1.02632e-05
6.32489e-05
3.03263e-05
4.92375e-05
6.59264e-05
-1.23497e-05
0.00012158
-0.000128184
0.000202061
-0.000305859
0.000312062
-0.000553122
0.000455401
-0.000876354
0.000633741
-0.00127823
0.000845031
-0.00175488
0.00108235
-0.00229378
0.00133398
-0.00287253
0.00158521
-0.00346658
0.00182093
-0.00404074
-0.00458114
0.00203556
1.84489e-06
3.33213e-05
1.17223e-05
5.33715e-05
3.39724e-05
2.69873e-05
7.31347e-05
-5.1512e-05
0.00013402
-0.00018907
0.000221552
-0.00039339
0.000340237
-0.000671808
0.000493148
-0.00102927
0.000680467
-0.00146555
0.000898004
-0.00197242
0.00113652
-0.0025323
0.00138275
-0.00311876
0.00162163
-0.00370546
0.0018402
-0.00425931
-0.00477389
0.00203296
2.26814e-06
3.10531e-05
1.35063e-05
4.21334e-05
3.82947e-05
2.19887e-06
8.14508e-05
-9.4668e-05
0.000148009
-0.000255628
0.000242912
-0.000488293
0.000370275
-0.000799171
0.000532149
-0.00119114
0.000726976
-0.00166037
0.000948352
-0.00219379
0.00118503
-0.00276897
0.00142281
-0.00335654
0.00164724
-0.00392989
0.00184772
-0.00445978
-0.00494623
0.00202005
2.77456e-06
2.82786e-05
1.55886e-05
2.93194e-05
4.32354e-05
-2.54479e-05
9.07632e-05
-0.000142196
0.000163343
-0.000328208
0.000265788
-0.000590737
0.000401597
-0.000934979
0.000571534
-0.00136108
0.000772112
-0.00186095
0.000994781
-0.00241646
0.00122673
-0.00300092
0.00145355
-0.00358336
0.00166211
-0.00413845
0.00184433
-0.004642
-0.00509965
0.00199775
3.35498e-06
2.49236e-05
1.79384e-05
1.4736e-05
4.87261e-05
-5.62356e-05
0.000100942
-0.000194412
0.000179791
-0.000407057
0.000289788
-0.000700734
0.000433584
-0.00107878
0.000610422
-0.00153791
0.000814782
-0.00206531
0.00103619
-0.00263786
0.00126082
-0.00322555
0.00147473
-0.00379728
0.00166666
-0.00433037
0.00183103
-0.00480637
-0.0052358
0.00196717
4.0002e-06
2.09234e-05
2.05232e-05
-1.78696e-06
5.46936e-05
-9.04061e-05
0.000111845
-0.000251563
0.000197102
-0.000492314
0.000314497
-0.00081813
0.000465605
-0.00122988
0.000647953
-0.00172026
0.000854005
-0.00227136
0.00107169
-0.00285555
0.00128681
-0.00344067
0.00148646
-0.00399693
0.00166156
-0.00450547
0.00180893
-0.00495375
-0.00535636
0.0019295
4.70164e-06
1.62217e-05
2.33109e-05
-2.03962e-05
6.10635e-05
-0.000128159
0.000123328
-0.000313828
0.000215017
-0.000584003
0.000339493
-0.000942605
0.000497033
-0.00138742
0.000683326
-0.00190656
0.000888946
-0.00247698
0.00110068
-0.00306728
0.00130452
-0.00364451
0.00148912
-0.00418153
0.00164767
-0.00466401
0.00177917
-0.00508526
-0.00546305
0.00188586
5.45178e-06
1.077e-05
2.62714e-05
-4.12159e-05
6.77623e-05
-0.00016965
0.000135244
-0.00038131
0.000233275
-0.000682034
0.00036435
-0.00107368
0.000527264
-0.00155034
0.000715819
-0.00209511
0.000918936
-0.0026801
0.00112276
-0.00327111
0.00131405
-0.0038358
0.00148329
-0.00435077
0.00162593
-0.00480666
0.00174286
-0.00520218
-0.0055575
0.00183731
6.24429e-06
4.52567e-06
2.93767e-05
-6.43483e-05
7.47188e-05
-0.000214992
0.000147447
-0.000454038
0.000251614
-0.000786201
0.000388655
-0.00121072
0.000555734
-0.00171742
0.000744812
-0.00228419
0.000943489
-0.00287878
0.0011378
-0.00346542
0.0013157
-0.0040137
0.00146969
-0.00450476
0.00159734
-0.00493431
0.00170105
-0.00530589
-0.00564123
0.00178478
7.07389e-06
-2.54822e-06
3.26008e-05
-8.98753e-05
8.18639e-05
-0.000264255
0.000159792
-0.000531966
0.000269772
-0.000896182
0.000412004
-0.00135295
0.000581927
-0.00188734
0.000769797
-0.00247206
0.0009623
-0.00307128
0.00114585
-0.00364897
0.00130994
-0.00417779
0.00144911
-0.00464393
0.00156284
-0.00504803
0.00165469
-0.00539775
-0.0057156
0.00172907
7.9361e-06
-1.04843e-05
3.59192e-05
-0.000117858
8.91291e-05
-0.000317465
0.000172133
-0.00061497
0.000287494
-0.00101154
0.000434018
-0.00149948
0.000605393
-0.00205872
0.000790395
-0.00265706
0.000975232
-0.00325612
0.00114713
-0.00382087
0.00129734
-0.004328
0.00142239
-0.00476898
0.00152334
-0.00514898
0.00160463
-0.00547904
-0.00578182
0.00167085
8.82675e-06
-1.93111e-05
3.93075e-05
-0.000148339
9.64455e-05
-0.000374603
0.000184325
-0.00070285
0.000304527
-0.00113174
0.000454342
-0.00164929
0.000625754
-0.00223013
0.000806351
-0.00283766
0.000982303
-0.00343207
0.00114201
-0.00398057
0.00127857
-0.00446456
0.00139033
-0.00488074
0.00147969
-0.00523834
0.00155161
-0.00555096
-0.00584091
0.0016107
9.74164e-06
-2.90527e-05
4.27409e-05
-0.000181338
0.000103743
-0.000435604
0.000196221
-0.000795328
0.000320627
-0.00125615
0.000472659
-0.00180132
0.000642713
-0.00240018
0.000817533
-0.00301248
0.000983664
-0.0035982
0.00113093
-0.00412784
0.00125429
-0.00458792
0.00135371
-0.00498016
0.0014326
-0.00531723
0.00149624
-0.00561459
-0.00589372
0.00154905
1.06761e-05
-3.97288e-05
4.6193e-05
-0.000216855
0.000110947
-0.000500359
0.000207674
-0.000892056
0.000335564
-0.00138404
0.000488694
-0.00195445
0.000656057
-0.00256755
0.000823922
-0.00318034
0.000979571
-0.00375385
0.00111442
-0.00426269
0.00122519
-0.0046987
0.00131326
-0.00506823
0.00138275
-0.00538673
0.00143904
-0.00567088
-0.00594098
0.00148629
1.16249e-05
-5.13537e-05
4.96355e-05
-0.000254866
0.000117984
-0.000568707
0.000218539
-0.00099261
0.000349123
-0.00151462
0.00050222
-0.00210755
0.000665659
-0.00273098
0.000825602
-0.00334029
0.000970359
-0.00389861
0.00109301
-0.00438535
0.00119193
-0.00479761
0.00126961
-0.0051459
0.00133069
-0.00544781
0.00138044
-0.00572063
-0.00598324
0.0014227
1.25817e-05
-6.39354e-05
5.3038e-05
-0.000295322
0.000124776
-0.000640445
0.000228674
-0.00109651
0.000361113
-0.00164706
0.000513065
-0.0022595
0.000671473
-0.00288939
0.00082274
-0.00349155
0.000956424
-0.00403229
0.00106727
-0.0044962
0.00115512
-0.00488546
0.00122335
-0.00521413
0.00127689
-0.00550135
0.00132079
-0.00576453
-0.00602095
0.00135851
1.35396e-05
-7.74749e-05
5.63681e-05
-0.000338151
0.000131244
-0.000715321
0.000237945
-0.00120321
0.00037137
-0.00178049
0.000521112
-0.00240924
0.000673528
-0.00304181
0.000815569
-0.00363359
0.00093819
-0.00415491
0.00103774
-0.00459575
0.00111532
-0.00496304
0.00117499
-0.0052738
0.00122176
-0.00554812
0.00126038
-0.00580314
-0.00605447
0.0012939
1.44906e-05
-9.19656e-05
5.95921e-05
-0.000383252
0.000137311
-0.000793039
0.000246228
-0.00131213
0.000379761
-0.00191402
0.000526298
-0.00255578
0.000671916
-0.00318743
0.000804376
-0.00376605
0.000916101
-0.00426664
0.00100494
-0.00468459
0.00107306
-0.00503116
0.00112496
-0.0053257
0.00116563
-0.00558879
0.00119942
-0.00583694
-0.00608406
0.00122901
1.54264e-05
-0.000107392
6.26754e-05
-0.000430501
0.000142901
-0.000873266
0.000253415
-0.00142264
0.000386187
-0.00204679
0.000528615
-0.00269821
0.000666788
-0.0033256
0.000789479
-0.00388874
0.0008906
-0.00436776
0.000969362
-0.00476335
0.00102878
-0.00509057
0.00107364
-0.00537056
0.00110876
-0.00562391
0.0011381
-0.00586628
-0.00610992
0.00116396
1.63379e-05
-0.00012373
6.55832e-05
-0.000479746
0.000147946
-0.000955628
0.000259411
-0.00153411
0.000390585
-0.00217797
0.000528101
-0.00283572
0.000658335
-0.00345583
0.000771217
-0.00400163
0.000862116
-0.00445866
0.000931446
-0.00483268
0.000982883
-0.00514201
0.00102134
-0.00540902
0.00105138
-0.00565395
0.00107656
-0.00589146
-0.00613218
0.00109882
1.72158e-05
-0.000140946
6.82817e-05
-0.000530812
0.000152379
-0.00103973
0.000264142
-0.00164587
0.000392923
-0.00230675
0.000524838
-0.00296764
0.000646781
-0.00357778
0.000749936
-0.00410478
0.00083106
-0.00453978
0.0008916
-0.00489322
0.000935717
-0.00518613
0.000968317
-0.00544162
0.000993668
-0.0056793
0.00101492
-0.00591272
-0.00615095
0.00103369
1.80507e-05
-0.000158996
7.07387e-05
-0.0005835
0.000156145
-0.00112513
0.000267555
-0.00175728
0.000393206
-0.0024324
0.000518942
-0.00309337
0.000632373
-0.00369121
0.000725982
-0.00419839
0.000797815
-0.00461161
0.000850185
-0.00494559
0.000887581
-0.00522352
0.0009148
-0.00546884
0.000935774
-0.00570027
0.000953264
-0.00593021
-0.00616628
0.000968597
1.88335e-05
-0.00017783
7.29244e-05
-0.000637591
0.000159197
-0.0012114
0.000269615
-0.0018677
0.000391468
-0.00255425
0.000510558
-0.00321246
0.000615369
-0.00379602
0.000699689
-0.00428271
0.000762734
-0.00467466
0.000807521
-0.00499038
0.000838728
-0.00525473
0.000860966
-0.00549108
0.000877815
-0.00571712
0.000891672
-0.00594406
-0.00617822
0.000903611
1.95552e-05
-0.000197385
7.48117e-05
-0.000692848
0.000161497
-0.00129809
0.000270308
-0.00197651
0.000387768
-0.00267171
0.000499851
-0.00332455
0.000596033
-0.0038922
0.000671376
-0.00435805
0.000726137
-0.00472942
0.000763887
-0.00502813
0.000789374
-0.00528022
0.000806965
-0.00550867
0.000819889
-0.00573005
0.000830204
-0.00595438
-0.00618679
0.00083877
2.02076e-05
-0.000217593
7.63774e-05
-0.000749018
0.000163018
-0.00138473
0.00026964
-0.00208313
0.000382189
-0.00278426
0.000487002
-0.00342936
0.000574626
-0.00397982
0.000641342
-0.00442477
0.000688315
-0.00477639
0.000719527
-0.00505934
0.000739701
-0.00530039
0.000752923
-0.00552189
0.000762074
-0.0057392
0.000768913
-0.00596122
-0.00619199
0.000774114
2.0783e-05
-0.000238376
7.76021e-05
-0.000805837
0.000163744
-0.00147087
0.000267634
-0.00218702
0.00037483
-0.00289146
0.000472201
-0.00352673
0.000551404
-0.00405903
0.000609866
-0.00448323
0.000649525
-0.00481605
0.000674649
-0.00508447
0.000689861
-0.0053156
0.00069894
-0.00553097
0.000704438
-0.0057447
0.000707843
-0.00596462
-0.00619382
0.000709677
2.12745e-05
-0.00025965
7.84705e-05
-0.000863033
0.000163669
-0.00155607
0.00026433
-0.00228768
0.000365808
-0.00299294
0.000455639
-0.00361656
0.000526611
-0.00413
0.000577201
-0.00453382
0.000609993
-0.00484885
0.000629435
-0.00510391
0.000639982
-0.00532615
0.000645101
-0.00553609
0.000647035
-0.00574663
0.000647034
-0.00596462
-0.00619228
0.000645493
2.16761e-05
-0.000281326
7.89719e-05
-0.000920328
0.000162798
-0.0016399
0.000259779
-0.00238466
0.000355246
-0.0030884
0.000437511
-0.00369883
0.000500477
-0.00419297
0.000543577
-0.00457692
0.000569921
-0.00487519
0.000584037
-0.00511802
0.000590173
-0.00533229
0.000591478
-0.00553739
0.000589912
-0.00574506
0.00058652
-0.00596123
-0.00618736
0.000581597
2.19851e-05
-0.000303311
7.91042e-05
-0.000977448
0.000161149
-0.00172194
0.000254052
-0.00247756
0.000343284
-0.00317764
0.000418013
-0.00377356
0.000473228
-0.00424818
0.000509214
-0.00461291
0.000529493
-0.00489547
0.000538597
-0.00512713
0.000540532
-0.00533422
0.00053814
-0.005535
0.00053312
-0.00574004
0.000526343
-0.00595445
-0.00617904
0.000518027
2.21937e-05
-0.000325505
7.88572e-05
-0.00103411
0.000158732
-0.00180182
0.000247207
-0.00256604
0.000330037
-0.00326047
0.000397307
-0.00384082
0.000445041
-0.00429592
0.000474274
-0.00464214
0.000488838
-0.00491003
0.000493204
-0.00513149
0.000491115
-0.00533213
0.000485116
-0.005529
0.000476675
-0.0057316
0.000466513
-0.00594429
-0.00616732
0.000454793
2.23009e-05
-0.000347806
7.82366e-05
-0.00109005
0.000155581
-0.00187916
0.000239329
-0.00264979
0.00031565
-0.00333679
0.000375575
-0.00390075
0.000416108
-0.00433645
0.000438932
-0.00466496
0.000448099
-0.0049192
0.000447964
-0.00513136
0.000441996
-0.00532616
0.00043246
-0.00551946
0.000420619
-0.00571976
0.000407068
-0.00593074
-0.00615219
0.000391934
2.2305e-05
-0.000370111
7.72484e-05
-0.00114499
0.000151732
-0.00195364
0.000230502
-0.00272856
0.000300253
-0.00340654
0.000352979
-0.00395348
0.000386594
-0.00437006
0.000403334
-0.0046817
0.000407389
-0.00492325
0.000402956
-0.00512693
0.000393229
-0.00531644
0.00038021
-0.00550645
0.00036498
-0.00570453
0.000348032
-0.00591379
-0.00613363
0.000329476
2.22053e-05
-0.000392316
7.59015e-05
-0.00119869
0.000147224
-0.00202497
0.00022081
-0.00280214
0.000283974
-0.0034697
0.00032967
-0.00399917
0.000356648
-0.00439704
0.000367607
-0.00469266
0.000366803
-0.00492245
0.000358248
-0.00511837
0.00034486
-0.00530305
0.000328399
-0.00548999
0.000309787
-0.00568592
0.000289435
-0.00589344
-0.00611164
0.000267442
2.20019e-05
-0.000414318
7.42084e-05
-0.00125089
0.0001421
-0.00209286
0.00021034
-0.00287038
0.000266938
-0.0035263
0.000305787
-0.00403802
0.000326404
-0.00441766
0.000331861
-0.00469812
0.000326426
-0.00491702
0.000313899
-0.00510584
0.00029693
-0.00528608
0.000277056
-0.00547011
0.000255058
-0.00566392
0.000231299
-0.00586968
-0.0060862
0.000205859
2.16962e-05
-0.000436014
7.21838e-05
-0.00130138
0.000136406
-0.00215708
0.000199178
-0.00293316
0.000249259
-0.00357638
0.000281459
-0.00407022
0.00029598
-0.00443218
0.000296194
-0.00469833
0.000286328
-0.00490715
0.000269959
-0.00508947
0.000249476
-0.0052656
0.000226208
-0.00544684
0.000200813
-0.00563853
0.000173632
-0.0058425
-0.00605732
0.000144753
2.12902e-05
-0.000457305
6.98448e-05
-0.00134993
0.00013019
-0.00221743
0.000187407
-0.00299037
0.000231047
-0.00362002
0.000256801
-0.00409597
0.000265482
-0.00444086
0.000260689
-0.00469354
0.000246571
-0.00489303
0.000226471
-0.00506937
0.000202531
-0.00524166
0.000175892
-0.00542021
0.000147098
-0.00560973
0.000116433
-0.00581183
-0.00602489
8.40036e-05
2.07867e-05
-0.000478091
6.72103e-05
-0.00139636
0.000123501
-0.00227372
0.000175109
-0.00304198
0.000212406
-0.00365732
0.000231919
-0.00411549
0.000235001
-0.00444394
0.00022542
-0.00468396
0.000207207
-0.00487482
0.000183471
-0.00504564
0.000156122
-0.00521431
0.000126142
-0.00539023
9.40036e-05
-0.00557759
5.97839e-05
-0.00577761
-0.00598814
2.30328e-05
2.01893e-05
-0.00049828
6.43004e-05
-0.00144047
0.000116388
-0.0023258
0.000162361
-0.00308795
0.000193428
-0.00368838
0.000206907
-0.00412897
0.000204622
-0.00444166
0.000190448
-0.00466978
0.000168281
-0.00485265
0.000140991
-0.00501835
0.000110272
-0.00518359
7.6964e-05
-0.00535692
4.15414e-05
-0.00554217
4.4445e-06
-0.00574051
-0.00594761
-3.60792e-05
1.9502e-05
-0.000517783
6.11362e-05
-0.0014821
0.000108898
-0.00237357
0.000149236
-0.00312829
0.000174202
-0.00371335
0.000181851
-0.00413661
0.000174413
-0.00443422
0.000155827
-0.0046512
0.00012983
-0.00482666
9.90594e-05
-0.00498758
6.50061e-05
-0.00514953
2.83768e-05
-0.00532029
-1.04933e-05
-0.0055033
-5.1532e-05
-0.00569948
-0.00590472
-9.44317e-05
1.87296e-05
-0.000536512
5.77395e-05
-0.00152111
0.000101078
-0.0024169
0.000135804
-0.00316302
0.000154805
-0.00373235
0.000156825
-0.00413864
0.000144439
-0.00442183
0.000121605
-0.00462837
9.18876e-05
-0.00479694
5.77003e-05
-0.00495339
2.03448e-05
-0.00511218
-1.9579e-05
-0.00528036
-6.17671e-05
-0.00546111
-0.000106236
-0.00565501
-0.00585843
-0.000152522
1.7877e-05
-0.000554389
5.41323e-05
-0.00155737
9.29751e-05
-0.00245575
0.000122129
-0.00319217
0.000135311
-0.00374553
0.000131898
-0.00413522
0.000114753
-0.00440469
8.78207e-05
-0.00460143
5.44818e-05
-0.0047636
1.69314e-05
-0.00491584
-2.36857e-05
-0.00507156
-6.68851e-05
-0.00523716
-0.000112445
-0.00541555
-0.00016026
-0.00560719
-0.00580864
-0.000210051
1.69496e-05
-0.000571339
5.03365e-05
-0.00159076
8.46321e-05
-0.00249004
0.000108273
-0.00321581
0.000115784
-0.00375304
0.000107128
-0.00412657
8.54022e-05
-0.00438296
5.45079e-05
-0.00457054
1.76353e-05
-0.00472673
-2.32159e-05
-0.00487499
-6.70694e-05
-0.00502771
-0.000113539
-0.0051907
-0.000162442
-0.00536665
-0.000213632
-0.005556
-0.00575535
-0.000266918
1.59532e-05
-0.000587292
4.6374e-05
-0.00162118
7.60907e-05
-0.00251976
9.42895e-05
-0.00323401
9.62831e-05
-0.00375504
8.2567e-05
-0.00411285
5.64275e-05
-0.00435682
2.1696e-05
-0.00453581
-1.8625e-05
-0.00468641
-6.27304e-05
-0.00483088
-0.000109794
-0.00498064
-0.000159512
-0.00514098
-0.000211741
-0.00531442
-0.000266325
-0.00550142
-0.0056986
-0.000323078
1.48936e-05
-0.000602185
4.22662e-05
-0.00164855
6.73904e-05
-0.00254488
8.02308e-05
-0.00324685
7.68621e-05
-0.00375167
5.82616e-05
-0.00409425
2.78639e-05
-0.00432643
-1.05904e-05
-0.00449735
-5.42816e-05
-0.00464271
-0.0001016
-0.00478357
-0.00015184
-0.0049304
-0.000204782
-0.00508804
-0.000260324
-0.00525888
-0.000318304
-0.00544344
-0.0056384
-0.000378503
1.37771e-05
-0.000615963
3.80342e-05
-0.00167281
5.85685e-05
-0.00256542
6.61434e-05
-0.00325443
5.75687e-05
-0.00374309
3.42512e-05
-0.00407093
-2.56302e-07
-0.00429192
-4.23243e-05
-0.00445529
-8.93237e-05
-0.00459571
-0.000139808
-0.00473308
-0.000193192
-0.00487702
-0.000249332
-0.0050319
-0.000308166
-0.00520005
-0.000369538
-0.00538207
-0.00557477
-0.000433166
1.26106e-05
-0.000628573
3.36984e-05
-0.00169389
4.96604e-05
-0.00258138
5.20718e-05
-0.00325684
3.84423e-05
-0.00372947
1.05778e-05
-0.00404307
-2.79095e-05
-0.00425343
-7.34947e-05
-0.0044097
-0.000123735
-0.00454547
-0.000177341
-0.00467948
-0.000233834
-0.00482053
-0.00029314
-0.00497259
-0.000355245
-0.00513794
-0.000419999
-0.00531731
-0.00550773
-0.000487039
1.14012e-05
-0.000639974
2.92783e-05
-0.00171177
4.06995e-05
-0.0025928
3.80627e-05
-0.0032542
1.95123e-05
-0.00371091
-1.27367e-05
-0.00401082
-5.5072e-05
-0.0042111
-0.000104084
-0.00436069
-0.000157503
-0.00449205
-0.000214187
-0.00462279
-0.000273752
-0.00476096
-0.000336188
-0.00491015
-0.000401534
-0.0050726
-0.000469656
-0.00524919
-0.00543729
-0.000540096
1.01544e-05
-0.000650129