/*--------------------------------*- C++ -*----------------------------------*\
  =========                 |
  \\      /  F ield         | OpenFOAM: The Open Source CFD Toolbox
   \\    /   O peration     | Website:  https://openfoam.org
    \\  /    A nd           | Version:  7
     \\/     M anipulation  |
\*---------------------------------------------------------------------------*/
FoamFile
{
    version     2.0;
    format      ascii;
    class       volVectorField;
    location    "160";
    object      U;
}
// * * * * * * * * * * * * * * * * * * * * * * * * * * * * * * * * * * * * * //

dimensions      [0 1 -1 0 0 0 0];

internalField   nonuniform List<vector> 
20050
(
(-0.00111949 0.0467485 5.37486e-21)
(-0.00510063 0.111015 -1.00651e-21)
(-0.01258 0.153042 -1.22746e-20)
(-0.0223954 0.176947 -1.84501e-20)
(-0.0340805 0.187009 -1.68491e-21)
(-0.0471268 0.187286 1.13854e-20)
(-0.0610586 0.181235 -1.27315e-20)
(-0.075492 0.171475 3.22438e-21)
(-0.090126 0.159683 -9.0863e-21)
(-0.104735 0.146667 1.68994e-20)
(-0.119156 0.132533 1.44304e-20)
(-0.133284 0.116907 -1.77408e-20)
(-0.147077 0.0991311 -9.20157e-21)
(-0.160506 0.0783872 9.82364e-21)
(-0.173594 0.053644 -1.04236e-20)
(-0.00221556 0.0476979 9.04117e-21)
(-0.00736334 0.113711 -6.16997e-21)
(-0.0150668 0.157287 -2.86349e-21)
(-0.0245533 0.182476 1.85115e-20)
(-0.0355477 0.19352 2.31991e-20)
(-0.0476787 0.194484 -5.70547e-20)
(-0.0605575 0.188862 3.48011e-20)
(-0.0738387 0.179317 3.70685e-20)
(-0.0872251 0.167581 4.84583e-20)
(-0.10047 0.154503 -4.59691e-20)
(-0.113377 0.140233 3.18707e-20)
(-0.1258 0.124431 2.96046e-20)
(-0.137654 0.106475 1.72573e-20)
(-0.148904 0.0855685 -5.62426e-20)
(-0.159518 0.0607477 4.70189e-20)
(-0.00333934 0.0484109 -3.73962e-20)
(-0.00968677 0.115906 -4.74354e-20)
(-0.0176004 0.160918 3.55395e-20)
(-0.0267067 0.187369 4.52675e-20)
(-0.0369225 0.199423 -2.85657e-20)
(-0.0480164 0.201119 -5.4977e-20)
(-0.0596878 0.195965 3.44617e-20)
(-0.0716314 0.186662 -9.8958e-20)
(-0.083553 0.174985 -4.77893e-20)
(-0.0951839 0.161833 -4.05353e-20)
(-0.106289 0.147397 -5.58202e-20)
(-0.116677 0.131381 1.05415e-20)
(-0.12622 0.113202 4.33424e-20)
(-0.134864 0.0921027 1.96383e-19)
(-0.142484 0.0672006 -7.64859e-20)
(-0.00447503 0.0488733 4.72167e-21)
(-0.0120412 0.117564 9.52809e-20)
(-0.0201503 0.16388 3.79226e-20)
(-0.0288299 0.191558 -6.57379e-20)
(-0.0381866 0.204641 1.59596e-20)
(-0.0481295 0.20711 6.10704e-20)
(-0.0584485 0.202463 5.84659e-20)
(-0.0688796 0.193425 3.79905e-20)
(-0.0791328 0.181811 -7.38577e-20)
(-0.0889165 0.168568 2.07047e-19)
(-0.0979568 0.153933 -9.11176e-20)
(-0.106012 0.137658 1.2866e-19)
(-0.112912 0.11921 -4.14525e-20)
(-0.118574 0.0978783 -1.66973e-19)
(-0.122736 0.0728837 6.46895e-20)
(-0.00560616 0.0490753 1.38723e-19)
(-0.0143954 0.118655 -5.28151e-20)
(-0.0226853 0.166125 -3.36397e-21)
(-0.0308981 0.194981 3.86881e-20)
(-0.0393246 0.209103 2.4671e-20)
(-0.0480135 0.21238 3.21334e-20)
(-0.0568465 0.208277 -1.26944e-19)
(-0.0656034 0.199527 -1.18959e-20)
(-0.0740004 0.187981 6.65969e-21)
(-0.0817246 0.17463 -2.06268e-19)
(-0.0884627 0.159763 1.87477e-19)
(-0.093923 0.143182 -1.31731e-19)
(-0.0978905 0.124408 -6.16998e-20)
(-0.100252 0.102801 -3.51703e-20)
(-0.100555 0.0776975 -8.79696e-20)
(-0.00671606 0.0490111 -8.22042e-20)
(-0.0167178 0.119155 -3.43989e-20)
(-0.0251742 0.167612 -1.08388e-19)
(-0.0328877 0.197584 -1.81476e-20)
(-0.0403241 0.212745 -7.51774e-20)
(-0.0476684 0.216859 -6.19805e-20)
(-0.0548955 0.213333 -7.81797e-20)
(-0.0618317 0.204896 4.53738e-20)
(-0.0682028 0.193423 5.54951e-20)
(-0.0736776 0.179951 1.99875e-20)
(-0.0779054 0.164818 4.16914e-20)
(-0.0805444 0.147882 6.60843e-20)
(-0.0813346 0.128726 -1.16478e-19)
(-0.0801387 0.106794 -7.94086e-20)
(-0.0762313 0.0815586 2.59963e-19)
(-0.00778792 0.0486792 -5.21473e-20)
(-0.0189765 0.119053 -5.39386e-20)
(-0.0275858 0.168313 2.38222e-19)
(-0.0347764 0.19932 1.26928e-19)
(-0.0411751 0.215508 3.80485e-21)
(-0.0470986 0.220482 4.24236e-20)
(-0.0526151 0.217566 1.14488e-19)
(-0.0576008 0.209465 -7.84271e-20)
(-0.0617955 0.198074 5.65313e-20)
(-0.0648541 0.18447 7.32656e-20)
(-0.0663927 0.169043 -2.34713e-19)
(-0.0660209 0.151705 -4.61087e-20)
(-0.063433 0.132108 -2.11383e-19)
(-0.0584839 0.109795 1.30752e-19)
(-0.0500638 0.084397 -1.65387e-19)
(-0.00880556 0.0480837 6.92347e-20)
(-0.0211404 0.118345 -5.40124e-20)
(-0.0298902 0.168208 -1.86911e-19)
(-0.036543 0.200155 -2.06296e-19)
(-0.0418702 0.217343 -2.50266e-19)
(-0.0463123 0.22319 6.48463e-20)
(-0.05003 0.220911 8.47157e-20)
(-0.0529528 0.213173 1.69965e-19)
(-0.0548401 0.201877 -8.36694e-20)
(-0.0553389 0.188137 -7.36348e-20)
(-0.0540373 0.172392 1.44026e-19)
(-0.0505009 0.154611 -1.52419e-19)
(-0.0443751 0.134514 1.43822e-19)
(-0.0355359 0.111749 -2.37858e-19)
(-0.0223704 0.0861745 1.59279e-19)
(-0.00975405 0.0472335 -1.13126e-20)
(-0.0231798 0.117036 5.64291e-20)
(-0.0320591 0.16729 2.80197e-19)
(-0.0381682 0.200062 2.68647e-19)
(-0.0424038 0.21821 1.08255e-19)
(-0.0453202 0.224932 -3.38492e-20)
(-0.0471683 0.223314 -1.38061e-19)
(-0.047934 0.215964 6.2745e-20)
(-0.0474024 0.204781 3.12953e-20)
(-0.0452194 0.190908 -9.58658e-20)
(-0.0409527 0.174831 -3.08778e-19)
(-0.0341299 0.156573 -9.9346e-20)
(-0.0243469 0.135923 2.66874e-19)
(-0.0115201 0.112624 3.88931e-20)
(0.00646542 0.0868617 -3.32467e-19)
(-0.0106201 0.046142 -1.09748e-19)
(-0.0250677 0.115144 -2.97836e-19)
(-0.0340662 0.165563 -3.2797e-19)
(-0.0396348 0.199029 -1.98997e-19)
(-0.0427726 0.218078 1.41209e-19)
(-0.0441355 0.225666 2.42519e-20)
(-0.0440607 0.224726 5.5993e-20)
(-0.0425932 0.217788 -5.42497e-20)
(-0.0395496 0.20674 4.98563e-19)
(-0.0345829 0.192745 1.69507e-19)
(-0.0272481 0.176332 2.81201e-19)
(-0.0170425 0.157576 3.98572e-19)
(-0.00351722 0.136328 -2.96087e-19)
(0.0133601 0.112431 4.71641e-19)
(0.0362811 0.0864601 6.53365e-20)
(-0.0113925 0.0448273 1.10096e-19)
(-0.0267805 0.112696 1.69939e-19)
(-0.0358883 0.163044 1.45927e-19)
(-0.040928 0.197056 -1.71742e-19)
(-0.0429752 0.216928 1.4035e-19)
(-0.0427728 0.225358 2.37465e-20)
(-0.0407393 0.225103 -4.0151e-19)
(-0.03698 0.218602 3.61236e-19)
(-0.0313488 0.207712 -2.96831e-19)
(-0.0235137 0.193615 -8.59892e-20)
(-0.0130256 0.176874 -1.46178e-21)
(0.00064002 0.157611 2.44561e-19)
(0.0179802 0.135731 3.18768e-19)
(0.0389383 0.111191 -2.80749e-19)
(0.0669398 0.0849672 6.26847e-20)
(-0.0120623 0.0433115 -2.02291e-19)
(-0.0282984 0.109727 5.95852e-20)
(-0.0375059 0.159763 -1.35e-19)
(-0.0420353 0.194154 -1.23304e-20)
(-0.0430115 0.214754 1.69068e-19)
(-0.0412478 0.223984 -2.08362e-19)
(-0.0372364 0.22441 2.7984e-19)
(-0.0311431 0.218364 -3.44992e-19)
(-0.0228644 0.207661 -4.49027e-19)
(-0.0120905 0.193488 1.33242e-19)
(0.00162328 0.176438 2.82261e-19)
(0.0188145 0.156673 -3.42088e-19)
(0.040038 0.134146 3.03769e-19)
(0.0650922 0.108905 -5.35269e-19)
(0.098334 0.0823775 3.83158e-19)
(-0.0126236 0.0416201 5.38302e-19)
(-0.0296066 0.106283 -3.48009e-19)
(-0.0389037 0.155761 1.59926e-19)
(-0.0429473 0.19035 2.34116e-19)
(-0.0428831 0.211559 -2.73031e-19)
(-0.0395761 0.221529 4.05374e-19)
(-0.0335832 0.22262 -5.75672e-20)
(-0.0251291 0.217039 -5.17234e-19)
(-0.0141565 0.20655 1.48307e-19)
(-0.000384397 0.192333 7.69397e-20)
(0.0166206 0.175007 -3.93206e-19)
(0.0373991 0.154762 3.36254e-19)
(0.0625796 0.131587 -1.10616e-18)
(0.0917455 0.105588 9.27051e-19)
(0.130417 0.0787009 -3.3972e-19)
(-0.0130733 0.0397819 -3.84731e-19)
(-0.0306955 0.102417 5.78425e-20)
(-0.0400714 0.151091 -3.08608e-19)
(-0.0436578 0.18568 -2.66575e-19)
(-0.0425924 0.207363 -2.83824e-19)
(-0.0377725 0.217991 -4.54767e-19)
(-0.0298082 0.219713 5.71431e-19)
(-0.01898 0.214599 6.98908e-19)
(-0.00527838 0.204347 4.8715e-20)
(0.0115442 0.190123 -3.54669e-19)
(0.0319045 0.17256 2.49107e-20)
(0.0563368 0.151872 3.18967e-19)
(0.0855653 0.128071 -1.40508e-19)
(0.118873 0.101264 -3.76263e-20)
(0.16322 0.0739569 5.12329e-19)
(-0.0134117 0.0378277 2.41424e-19)
(-0.0315615 0.0981885 3.05247e-19)
(-0.0410038 0.145816 9.34971e-20)
(-0.0441638 0.180197 3.60787e-19)
(-0.0421428 0.202195 1.52247e-19)
(-0.0358498 0.21338 3.0312e-19)
(-0.0259357 0.21568 -3.4283e-20)
(-0.012731 0.211021 -3.10767e-19)
(0.00372657 0.201022 1.50285e-19)
(0.0236486 0.186826 5.47226e-19)
(0.0474329 0.169076 1.96666e-19)
(0.0755988 0.147994 -2.50676e-19)
(0.108997 0.123613 4.85055e-19)
(0.146506 0.0959636 -3.35508e-19)
(0.196859 0.0681736 3.92821e-20)
(-0.0136421 0.0357898 -4.15981e-20)
(-0.0322067 0.0936627 -1.18959e-19)
(-0.0417013 0.140007 2.91864e-19)
(-0.0444652 0.173963 1.78129e-19)
(-0.0415371 0.196099 3.58389e-19)
(-0.0338172 0.207715 -1.95292e-19)
(-0.0219828 0.210521 -4.38797e-19)
(-0.00640686 0.206289 -2.02404e-19)
(0.0128288 0.19655 -2.8912e-19)
(0.0359008 0.182416 -6.60701e-19)
(0.0631891 0.164527 -3.74095e-19)
(0.0951912 0.143114 -1.04721e-19)
(0.132924 0.118221 -4.70321e-19)
(0.174739 0.0897168 -8.76694e-21)
(0.231535 0.061389 2.63176e-19)
(-0.0137713 0.0337013 -1.75785e-19)
(-0.0326394 0.088908 -1.0783e-19)
(-0.0421693 0.133745 1.63641e-20)
(-0.0445645 0.167051 -7.59318e-19)
(-0.0407773 0.189131 -7.1601e-19)
(-0.0316787 0.201033 -2.80361e-19)
(-0.0179573 0.204251 5.39751e-19)
(-1.83961e-05 0.200398 -2.62975e-19)
(0.0220181 0.190913 2.52548e-19)
(0.048298 0.176865 3.51694e-19)
(0.0791894 0.158889 1.2858e-19)
(0.115163 0.137211 -2.43302e-19)
(0.157454 0.111902 2.76591e-19)
(0.203739 0.0825512 2.34108e-19)
(0.267549 0.0536573 -3.44844e-19)
(-0.0138089 0.0315951 -4.5451e-20)
(-0.0328734 0.0839949 1.41971e-19)
(-0.0424179 0.127113 -4.12489e-19)
(-0.044466 0.159544 9.49801e-19)
(-0.0398622 0.181361 6.75228e-19)
(-0.0294299 0.193383 1.11212e-19)
(-0.0138528 0.196896 -3.40378e-19)
(0.0064436 0.193357 1.38177e-19)
(0.0313108 0.184104 1.77468e-19)
(0.0608721 0.170156 -4.43015e-19)
(0.0954944 0.152139 5.41268e-19)
(0.13562 0.130266 2.1781e-19)
(0.182762 0.104657 -3.63735e-19)
(0.233758 0.0744927 2.57099e-19)
(0.30533 0.0450597 1.01278e-19)
(-0.0137674 0.0295033 7.24282e-20)
(-0.0329275 0.0789938 3.64902e-19)
(-0.0424611 0.120201 -1.69088e-20)
(-0.044174 0.151531 -5.50453e-19)
(-0.038786 0.17287 -3.95929e-19)
(-0.0270553 0.184828 4.1308e-19)
(-0.00964463 0.1885 5.76084e-19)
(0.0130149 0.185191 -8.70873e-20)
(0.0407591 0.176131 -2.58262e-19)
(0.0737013 0.162285 6.59446e-19)
(0.112223 0.144265 -5.41946e-19)
(0.15674 0.122265 2.87559e-19)
(0.209104 0.0964987 3.87335e-19)
(0.265143 0.0655731 -1.22212e-18)
(0.345364 0.0356874 1.57747e-19)
(-0.0136617 0.0274561 2.0379e-19)
(-0.0328245 0.0739735 -1.6326e-19)
(-0.042315 0.113098 -6.22421e-22)
(-0.0436911 0.14311 1.22006e-19)
(-0.0375351 0.163748 1.56453e-19)
(-0.0245244 0.175447 -4.55634e-19)
(-0.00528401 0.179126 -2.19085e-19)
(0.0197656 0.175942 -4.49983e-19)
(0.0504617 0.167021 -4.42048e-19)
(0.0869241 0.153267 3.86895e-19)
(0.129569 0.135277 -4.38359e-19)
(0.178792 0.113216 -5.39043e-20)
(0.236835 0.0874601 1.33895e-19)
(0.298336 0.0558503 -5.89055e-20)
(0.388192 0.0256805 5.0473e-19)
(-0.0135083 0.025481 -6.40429e-20)
(-0.0325898 0.068999 -4.32272e-19)
(-0.0419963 0.105891 -3.63449e-19)
(-0.0430159 0.134379 -7.56689e-20)
(-0.0360849 0.154096 6.84258e-20)
(-0.0217867 0.165332 -1.28726e-20)
(-0.000691666 0.168853 -8.34035e-20)
(0.0268094 0.165678 -6.42099e-20)
(0.060575 0.156829 2.31349e-19)
(0.100753 0.143148 -1.76473e-19)
(0.147817 0.125216 5.14098e-19)
(0.202152 0.103162 -5.66832e-19)
(0.266417 0.0776106 -4.27024e-19)
(0.33389 0.0454178 3.07656e-19)
(0.434203 0.0152628 -3.8572e-19)
(-0.0133246 0.0236025 -1.66311e-19)
(-0.0322497 0.0641298 5.40797e-20)
(-0.0415195 0.0986677 3.09668e-19)
(-0.04214 0.125441 -1.59566e-19)
(-0.0343966 0.144022 2.54449e-19)
(-0.0187676 0.154591 -8.28901e-20)
(0.0042484 0.157783 -4.3104e-19)
(0.0343112 0.154492 5.66305e-19)
(0.0713244 0.145639 2.53822e-19)
(0.115489 0.132008 -7.20353e-19)
(0.167356 0.114163 6.90356e-20)
(0.227314 0.092193 -1.34945e-20)
(0.298414 0.0670675 8.64086e-19)
(0.372505 0.034435 1.82499e-19)
(0.484226 0.00495357 5.22152e-19)
(-0.0131282 0.0218407 7.58847e-21)
(-0.0318294 0.059418 3.70857e-19)
(-0.0408949 0.0915059 -1.76583e-19)
(-0.0410447 0.116395 2.42385e-19)
(-0.0324131 0.13364 4.554e-19)
(-0.0153635 0.143345 5.80363e-19)
(0.00969464 0.146038 1.75845e-19)
(0.0424946 0.142504 -3.70612e-20)
(0.0830112 0.133574 7.13677e-19)
(0.131523 0.119972 8.07984e-19)
(0.188677 0.102253 7.35134e-20)
(0.254878 0.080458 8.03026e-19)
(0.333457 0.0560036 -3.18393e-21)
(0.414915 0.0231079 -7.26757e-19)
(0.538634 -0.00493498 -5.10001e-19)
(-0.012936 0.0202111 2.01615e-19)
(-0.0313508 0.054907 4.05031e-19)
(-0.040125 0.0844773 6.75311e-20)
(-0.0396983 0.107338 4.64889e-19)
(-0.0300559 0.123066 -5.55224e-19)
(-0.0114383 0.131723 -7.25958e-20)
(0.0158519 0.133758 -1.17832e-19)
(0.0516456 0.129863 8.4597e-19)
(0.0960153 0.12079 -1.16292e-18)
(0.149342 0.107212 -7.98992e-19)
(0.212366 0.0896763 3.04617e-19)
(0.285518 0.0681797 -3.95163e-19)
(0.372182 0.0446502 -1.09746e-19)
(0.461801 0.0117273 3.41651e-19)
(0.597374 -0.0140241 1.2464e-18)
(-0.0127626 0.0187236 1.90086e-19)
(-0.0308301 0.05063 -7.37929e-19)
(-0.0392023 0.0776439 1.60261e-19)
(-0.0380526 0.0983603 -7.15974e-19)
(-0.0272222 0.112416 3.57195e-19)
(-0.00682118 0.119865 -2.37302e-19)
(0.0229724 0.121102 -2.57418e-19)
(0.0621109 0.116745 -6.24967e-19)
(0.110789 0.107483 2.25726e-19)
(0.169503 0.093946 3.24855e-19)
(0.239068 0.0766795 -2.06591e-20)
(0.319931 0.0556517 3.23655e-19)
(0.415159 0.0332915 -1.73092e-19)
(0.513707 0.000693952 -6.705e-20)
(0.659993 -0.0218608 -9.14255e-20)
(-0.0126195 0.0173826 -8.33497e-19)
(-0.0302759 0.0466089 3.46239e-20)
(-0.0381069 0.0710556 -6.66945e-20)
(-0.0360416 0.0895434 1.18218e-19)
(-0.0237838 0.101805 -5.34588e-19)
(-0.00130676 0.107915 6.46576e-19)
(0.0313528 0.108241 -1.85233e-20)
(0.0742903 0.10335 -7.94955e-19)
(0.127839 0.0938802 -7.37063e-19)
(0.192611 0.0804354 -6.36271e-19)
(0.269442 0.0635595 -2.93484e-19)
(0.358754 0.0432297 -1.87217e-19)
(0.462801 0.0222448 -6.42173e-19)
(0.570896 -0.00950833 -4.46945e-19)
(0.725511 -0.0280707 5.55165e-19)
(-0.0125141 0.0161863 4.76056e-19)
(-0.0296867 0.0428539 3.7595e-19)
(-0.0368042 0.0647496 4.41468e-19)
(-0.0335798 0.0809585 -1.30488e-19)
(-0.0195877 0.09134 2.34877e-19)
(0.00534133 0.0960175 -3.25e-19)
(0.0413264 0.0953554 1.64842e-19)
(0.0886214 0.0898925 1.02752e-18)
(0.147703 0.0802349 3.93759e-19)
(0.219273 0.0669732 8.44598e-19)
(0.304093 0.050649 3.21892e-19)
(0.402474 0.0313102 -5.97217e-20)
(0.51528 0.0118369 5.79763e-19)
(0.633218 -0.0183444 -6.19183e-19)
(0.792409 -0.0324068 -7.38637e-19)
(-0.0124486 0.0151269 -4.15926e-19)
(-0.0290499 0.0393629 -6.67709e-19)
(-0.0352442 0.0587493 1.39425e-19)
(-0.0305627 0.0726639 -2.61997e-19)
(-0.0144585 0.0811184 3.10888e-19)
(0.0133841 0.0843108 -6.46747e-19)
(0.0532497 0.0826269 1.87005e-19)
(0.105557 0.0765973 -2.88842e-19)
(0.170908 0.0668143 -2.7553e-19)
(0.250039 0.05387 -3.77477e-19)
(0.3435 0.0382977 -6.54696e-19)
(0.451331 0.0202978 6.79948e-20)
(0.572462 0.00238366 5.91223e-19)
(0.699985 -0.0252518 4.86196e-19)
(0.858684 -0.0347486 3.51997e-19)
(-0.0124194 0.0141911 3.05177e-19)
(-0.0283408 0.0361226 -4.70935e-20)
(-0.0333614 0.0530639 2.21316e-19)
(-0.0268687 0.0647031 7.05458e-19)
(-0.00820338 0.0712256 -7.60243e-19)
(0.0230972 0.0729258 6.76705e-19)
(0.0674857 0.070232 -6.35123e-19)
(0.125535 0.0636875 1.03982e-19)
(0.197932 0.0538873 2.75551e-19)
(0.285348 0.0414369 2.39136e-20)
(0.387948 0.0268501 4.31997e-19)
(0.50526 0.0105597 4.60188e-19)
(0.633908 -0.00582162 -3.2263e-19)
(0.769951 -0.0296546 -7.85068e-19)
(0.922059 -0.0351321 1.1686e-18)
(-0.0124166 0.0133606 -1.8711e-19)
(-0.0275221 0.0331089 4.79295e-19)
(-0.0310757 0.0476888 -2.93263e-19)
(-0.0223618 0.0571048 -1.9808e-19)
(-0.000618918 0.0617319 4.02696e-19)
(0.034759 0.0619786 -8.0678e-20)
(0.0843837 0.0583354 2.47711e-19)
(0.148951 0.0513759 1.46873e-18)
(0.22916 0.0417117 1.92244e-19)
(0.325475 0.0299675 9.97619e-20)
(0.437466 0.0166234 -1.86725e-19)
(0.563849 0.00237833 -2.7593e-19)
(0.698903 -0.0124979 -2.299e-19)
(0.841426 -0.0310664 3.18539e-19)
(0.980685 -0.0342646 -1.77036e-18)
(-0.0124243 0.0126129 5.88574e-19)
(-0.0265448 0.0302887 5.04086e-19)
(-0.0282947 0.0426067 1.65026e-19)
(-0.0168966 0.0498823 -3.85787e-20)
(0.00850124 0.0526906 2.45407e-19)
(0.0486371 0.0515686 -1.87419e-19)
(0.104258 0.0470843 -1.15098e-19)
(0.176127 0.0398566 -1.79402e-19)
(0.264843 0.0305227 -8.21291e-19)
(0.370485 0.0197239 1.96501e-19)
(0.491799 0.00788834 7.81e-20)
(0.626349 -0.00407284 8.70445e-20)
(0.766444 -0.0173357 6.69556e-19)
(0.912434 -0.0295235 -4.47168e-20)
(1.03462 -0.0346496 3.25387e-19)
(-0.0124207 0.0119231 -9.29309e-19)
(-0.0253493 0.0276221 -3.5881e-19)
(-0.024916 0.0377896 -9.27617e-20)
(-0.0103224 0.043035 -7.82346e-21)
(0.0193579 0.0441386 -4.25669e-19)
(0.0649754 0.041776 1.93595e-19)
(0.12737 0.0366045 1.8446e-20)
(0.207287 0.0292988 5.67674e-19)
(0.305079 0.0205244 -2.13e-19)
(0.420218 0.0109269 -1.97901e-19)
(0.550398 0.000857605 -2.83156e-20)
(0.691731 -0.0087012 -1.7894e-20)
(0.835137 -0.0200195 -6.14947e-19)
(0.980571 -0.0262961 1.58683e-19)
(1.08676 -0.0393658 -4.00818e-19)
(-0.0123789 0.0112648 6.76449e-19)
(-0.0238674 0.025065 2.05325e-19)
(-0.0208303 0.0332014 -4.17121e-19)
(-0.0024891 0.0365503 1.93887e-19)
(0.0321385 0.0360973 -7.56037e-19)
(0.0839824 0.0326625 1.48671e-19)
(0.153911 0.0269999 2.59382e-19)
(0.242538 0.0198446 -5.92008e-19)
(0.349788 0.011886 7.97736e-19)
(0.474291 0.00374974 4.64408e-19)
(0.612464 -0.00432085 3.1265e-19)
(0.7588 -0.0114439 9.09632e-20)
(0.903305 -0.0204489 -9.49326e-21)
(1.0433 -0.0235774 -1.64541e-19)
(1.14551 -0.0412782 7.33242e-19)
(-0.0122682 0.0106119 -7.6072e-19)
(-0.0220241 0.0225719 -6.76282e-19)
(-0.0159252 0.0288016 6.25667e-20)
(0.00674871 0.0304074 1.95802e-19)
(0.0470106 0.0285763 7.0586e-19)
(0.105823 0.0242739 -2.32491e-19)
(0.183996 0.0183536 -9.04869e-19)
(0.281866 0.0116094 -7.04354e-19)
(0.398723 0.00474016 -4.42473e-19)
(0.532114 -0.00168386 -8.3181e-19)
(0.677008 -0.0075684 3.26492e-19)
(0.82628 -0.0122759 1.85445e-19)
(0.969321 -0.0188504 1.7472e-19)
(1.10161 -0.0201775 4.00833e-19)
(1.19771 -0.0369363 2.07629e-19)
(-0.0120551 0.00994024 5.06712e-19)
(-0.0197403 0.0200994 4.5518e-19)
(-0.0100881 0.0245486 1.85879e-19)
(0.0175274 0.0245815 -5.42192e-19)
(0.0641166 0.0215773 -3.52489e-19)
(0.130612 0.0166443 2.56917e-19)
(0.217655 0.0107324 3.48334e-19)
(0.325133 0.00468468 6.86298e-19)
(0.451478 -0.000815191 2.07951e-19)
(0.592931 -0.00529933 1.21675e-19)
(0.742925 -0.00887176 -7.25722e-19)
(0.89289 -0.0112326 -5.39343e-19)
(1.03197 -0.0154663 8.81543e-20)
(1.15488 -0.0154488 -1.80599e-19)
(1.24214 -0.0304065 4.31979e-19)
(-0.0117045 0.0092286 1.49905e-19)
(-0.0169355 0.0176086 -3.31717e-19)
(-0.00320883 0.0204046 -3.25795e-19)
(0.0299713 0.0190485 6.42344e-20)
(0.0835716 0.0150998 2.90326e-19)
(0.158415 0.00980182 5.19969e-19)
(0.254839 0.00419167 -3.0646e-19)
(0.372087 -0.000857432 3.09397e-19)
(0.507508 -0.00471357 1.2882e-19)
(0.655867 -0.00706846 -6.71893e-19)
(0.809071 -0.0082759 1.35816e-19)
(0.957439 -0.00841924 7.27798e-20)
(1.09032 -0.0105346 -2.11177e-19)
(1.20259 -0.00951046 -3.71402e-19)
(1.28018 -0.0225301 -8.06211e-19)
(-0.0111813 0.00845999 9.29595e-20)
(-0.013529 0.0150682 -1.26766e-19)
(0.00481793 0.0163387 3.22798e-19)
(0.044191 0.0137904 -2.86852e-19)
(0.105461 0.00914704 5.18809e-20)
(0.189244 0.00377478 -1.35268e-19)
(0.295417 -0.00121871 -1.74281e-19)
(0.422371 -0.00495958 1.02488e-19)
(0.566161 -0.00691678 3.96211e-20)
(0.719971 -0.00700544 6.24393e-19)
(0.874333 -0.0058746 2.65273e-19)
(1.0189 -0.00399401 2.99674e-19)
(1.14373 -0.00429875 8.09501e-19)
(1.24456 -0.00255421 -2.3926e-19)
(1.31193 -0.0138316 4.41645e-19)
(-0.0104508 0.00762238 -2.81806e-19)
(-0.00944251 0.0124565 6.06292e-19)
(0.0140909 0.0123311 1.71958e-19)
(0.0602815 0.00879964 7.63852e-19)
(0.129841 0.00373111 1.7933e-19)
(0.223063 -0.00140292 -6.47592e-19)
(0.339188 -0.0054496 2.80922e-19)
(0.47554 -0.007576 6.30549e-19)
(0.626703 -0.00741251 -5.76725e-19)
(0.784277 -0.00516233 -1.46408e-19)
(0.937685 -0.00179964 -1.3256e-20)
(1.07644 0.00185266 -3.34135e-19)
(1.1918 0.00300622 -4.60779e-19)
(1.28082 0.00520274 4.42705e-19)
(1.33799 -0.00465574 1.60954e-19)
(-0.00947989 0.00670906 -9.57162e-20)
(-0.00460137 0.0097628 -3.38078e-19)
(0.0247007 0.0083758 4.79007e-19)
(0.0783214 0.00408312 -3.37314e-19)
(0.156738 -0.00112238 8.41253e-20)
(0.259787 -0.00568762 -7.54503e-21)
(0.385881 -0.00844983 3.95461e-19)
(0.531074 -0.00867125 -5.01626e-19)
(0.688354 -0.00621304 1.34972e-18)
(0.847843 -0.00162399 2.83552e-19)
(0.998242 0.00379027 -2.66267e-19)
(1.12947 0.00891658 2.39026e-20)
(1.23437 0.011162 -7.36722e-20)
(1.31162 0.0135572 9.28447e-20)
(1.35892 0.00478 -6.14395e-19)
(-0.0082375 0.00571869 6.08824e-20)
(0.00106457 0.00698851 -3.95981e-19)
(0.0367289 0.00448216 -3.71752e-19)
(0.0983723 -0.000335066 -2.28071e-19)
(0.186148 -0.00537165 -3.97558e-19)
(0.299283 -0.00902389 -1.98881e-19)
(0.435167 -0.0101657 -5.74275e-19)
(0.588396 -0.0082211 2.0111e-19)
(0.750319 -0.00335464 -9.50675e-19)
(0.909799 0.00349756 -1.87128e-19)
(1.05528 0.0107203 -6.99555e-19)
(1.17761 0.0169943 5.0604e-19)
(1.27149 0.0199737 4.02618e-19)
(1.33732 0.0223361 3.16381e-22)
(1.37538 0.0143271 9.76264e-19)
(-0.00669462 0.0046551 4.83742e-20)
(0.00761991 0.00414716 3.97889e-19)
(0.0502468 0.000676191 5.86481e-19)
(0.120477 -0.00441246 7.68679e-20)
(0.218034 -0.0089578 -2.8902e-19)
(0.341374 -0.0113449 2.55615e-19)
(0.486661 -0.0105432 2.67769e-20)
(0.646887 -0.00621482 -2.76019e-19)
(0.811815 0.00110317 -2.31541e-19)
(0.969375 0.0100695 -2.30937e-19)
(1.10827 0.0188092 5.86467e-19)
(1.22069 0.0258935 3.84806e-19)
(1.30338 0.0292738 -4.62643e-19)
(1.35837 0.0314003 3.43851e-19)
(1.38797 0.0238924 3.26511e-20)
(-0.00482454 0.00352681 1.25008e-19)
(0.0151231 0.00126407 -8.68835e-19)
(0.065314 -0.00299974 -6.10804e-19)
(0.144657 -0.00808847 -3.51378e-20)
(0.25233 -0.0118058 1.34131e-19)
(0.385837 -0.0125748 3.40646e-19)
(0.539928 -0.00953136 -1.19158e-19)
(0.70591 -0.00265812 2.26764e-19)
(0.872105 0.00707929 5.59699e-19)
(1.02593 0.0179453 2.00958e-19)
(1.15683 0.0278786 2.12174e-19)
(1.25872 0.0354406 -9.34e-20)
(1.33035 0.0389236 -2.43412e-19)
(1.37528 0.0406445 -7.95067e-19)
(1.3973 0.0334209 -4.36162e-20)
(-0.00260278 0.00234659 -4.63343e-19)
(0.0236258 -0.00162454 9.48816e-19)
(0.0819773 -0.00648795 -1.77725e-19)
(0.170914 -0.011286 -5.64815e-20)
(0.288932 -0.0138275 -1.94575e-19)
(0.432402 -0.0126334 -3.71387e-19)
(0.594498 -0.00708773 2.59146e-19)
(0.764824 0.00242458 -4.72445e-19)
(0.93052 0.0144739 -1.8927e-19)
(1.07896 0.0269711 -1.36118e-19)
(1.20079 0.0377591 -4.32598e-19)
(1.29183 0.0454842 9.29299e-20)
(1.35281 0.048813 3.02573e-19)
(1.38855 0.0499927 4.50503e-20)
(1.4039 0.0428853 -6.32583e-19)
(-7.03284e-06 0.0011308 1.21781e-19)
(0.0331722 -0.00447267 6.22127e-20)
(0.100269 -0.0097172 1.16751e-18)
(0.199223 -0.013914 5.16332e-19)
(0.3277 -0.0149254 2.25198e-19)
(0.480757 -0.011441 3.8469e-20)
(0.649868 -0.00318267 -6.8216e-19)
(0.823007 0.00898914 7.71596e-19)
(0.986479 0.0231725 4.25581e-20)
(1.1281 0.0369932 1.76439e-19)
(1.24009 0.0482963 -1.60854e-19)
(1.32028 0.0558975 -4.95485e-19)
(1.3712 0.058858 -7.35519e-19)
(1.39869 0.059394 9.69493e-19)
(1.40826 0.0522775 1.34034e-19)
(0.00298289 -0.000101054 -7.56916e-21)
(0.0437982 -0.00722597 -4.54129e-19)
(0.120204 -0.012605 -4.37699e-19)
(0.22953 -0.0158714 -3.65902e-19)
(0.368457 -0.0149977 2.49724e-19)
(0.530554 -0.0089245 -1.54693e-19)
(0.705522 0.00219655 4.96863e-19)
(0.879879 0.0169724 -3.89251e-19)
(1.0395 0.0330512 1.38343e-19)
(1.17312 0.0478629 -2.90409e-19)
(1.2748 0.0593534 6.3046e-20)
(1.34439 0.0665775 -2.08268e-19)
(1.38598 0.0689979 1.99238e-19)
(1.40616 0.0688171 -5.55254e-19)
(1.41079 0.0616018 -2.00579e-19)
(0.00638489 -0.00132682 -6.47514e-19)
(0.0555307 -0.00982306 5.77343e-19)
(0.141781 -0.0150601 -7.1435e-20)
(0.261756 -0.0170504 2.60103e-19)
(0.410988 -0.0139436 -4.12104e-19)
(0.581408 -0.00502214 3.66571e-19)
(0.760944 0.00904349 -4.21209e-19)
(0.93491 0.0262946 -2.49815e-19)
(1.08922 0.0439813 7.59673e-20)
(1.21392 0.0594413 -2.25348e-19)
(1.30511 0.0708131 -3.26936e-19)
(1.36452 0.077444 9.11362e-19)
(1.39759 0.079191 -1.11556e-19)
(1.41138 0.078246 5.92562e-19)
(1.41184 0.0708699 -1.36299e-19)
(0.0102144 -0.00252208 1.21523e-19)
(0.0683865 -0.0121971 -9.43253e-20)
(0.164977 -0.0169855 -5.73978e-19)
(0.295788 -0.0173413 -8.28712e-20)
(0.45504 -0.0116685 7.125e-19)
(0.632913 0.000311941 -4.99989e-19)
(0.815631 0.0173319 7.38244e-19)
(0.987644 0.0368626 -3.76429e-19)
(1.13536 0.0558345 4.64592e-19)
(1.25051 0.0716025 3.55196e-19)
(1.33124 0.082578 -2.30782e-19)
(1.38106 0.0884365 -3.51797e-19)
(1.40645 0.0894116 3.95717e-19)
(1.41471 0.0876752 -4.34559e-19)
(1.41171 0.080097 -2.30416e-19)
(0.0144841 -0.00366046 4.43766e-19)
(0.0823713 -0.0142768 -7.21807e-20)
(0.189748 -0.0182806 3.11152e-19)
(0.331485 -0.0166361 -3.79876e-19)
(0.500331 -0.00808797 -8.72595e-19)
(0.684646 0.0071052 1.28826e-19)
(0.869109 0.0270167 -2.02512e-19)
(1.0377 0.0485739 6.78738e-19)
(1.17777 0.0684869 -2.2195e-19)
(1.28296 0.0842352 7.99332e-21)
(1.35349 0.094569 3.0738e-19)
(1.3944 0.099512 2.51784e-19)
(1.41295 0.0996457 -6.01073e-19)
(1.41648 0.0971064 3.55859e-19)
(1.41061 0.0892993 4.15871e-19)
(0.0192034 -0.00471388 -1.92055e-19)
(0.0974787 -0.0159883 -9.51396e-20)
(0.21603 -0.0188444 -2.93524e-19)
(0.368672 -0.014832 1.95582e-19)
(0.54655 -0.00313166 4.00286e-19)
(0.736186 0.0153653 -4.07377e-20)
(0.920946 0.0380362 3.73583e-19)
(1.08478 0.0613212 -3.85384e-19)
(1.21637 0.0818218 4.10401e-19)
(1.31144 0.0972433 -4.36145e-19)
(1.37217 0.106724 4.80748e-19)
(1.4049 0.110641 -4.53716e-19)
(1.41743 0.109888 -1.54467e-19)
(1.41694 0.106545 1.6565e-19)
(1.40873 0.098492 5.51114e-20)
(0.0243779 -0.00565288 1.45534e-19)
(0.113689 -0.0172558 -1.68984e-20)
(0.243733 -0.0185773 -3.81954e-19)
(0.40715 -0.011835 2.91039e-19)
(0.593366 0.00325416 1.18454e-19)
(0.787117 0.0250803 1.15754e-19)
(0.970761 0.0503154 -1.20803e-19)
(1.12865 0.0749955 -8.46253e-20)
(1.25116 0.0957323 -7.11448e-19)
(1.33614 0.110546 4.36772e-19)
(1.3876 0.118997 -2.80984e-19)
(1.41292 0.121806 -5.87818e-20)
(1.42019 0.120139 9.4134e-19)
(1.41633 0.116 -7.33487e-19)
(1.40622 0.107688 -5.1049e-19)
(0.0300094 -0.0064468 -2.56795e-20)
(0.13097 -0.0180032 2.18765e-19)
(0.272747 -0.017384 3.63642e-19)
(0.446693 -0.00756222 -4.77341e-20)
(0.640436 0.0111051 -2.69051e-19)
(0.837044 0.0362195 2.7728e-19)
(1.01823 0.0637689 -2.8377e-19)
(1.16918 0.0894895 -1.59328e-19)
(1.28221 0.110122 4.6946e-19)
(1.35731 0.124076 3.28101e-19)
(1.40009 0.131352 5.70022e-20)
(1.41876 0.132997 2.37403e-19)
(1.42149 0.130403 -4.90664e-19)
(1.41482 0.125477 3.18165e-19)
(1.40318 0.116898 5.75807e-19)
(0.0360946 -0.00706418 -8.83333e-20)
(0.149275 -0.018155 -6.00666e-19)
(0.302939 -0.0151748 -3.80888e-19)
(0.487053 -0.00194433 -3.83064e-19)
(0.687411 0.0204379 -2.58176e-19)
(0.8856 0.0487357 1.33637e-19)
(1.06309 0.0783043 4.94167e-19)
(1.20629 0.1047 -1.64936e-19)
(1.30964 0.124905 2.83947e-19)
(1.37519 0.137779 -4.85233e-20)
(1.40996 0.143765 7.50121e-20)
(1.42271 0.14421 -1.31535e-19)
(1.42155 0.140685 5.13904e-20)
(1.41256 0.134985 -7.56209e-20)
(1.3997 0.126129 -2.08368e-19)
(0.0426255 -0.00747306 1.41886e-19)
(0.168541 -0.0176378 6.33939e-19)
(0.334159 -0.0118682 -1.30776e-19)
(0.527969 0.00507305 3.0841e-19)
(0.733948 0.0312508 6.12297e-20)
(0.932455 0.0625676 4.56874e-20)
(1.10512 0.0938252 -2.37459e-19)
(1.23996 0.12053 2.75386e-19)
(1.3336 0.140008 -4.08966e-19)
(1.39005 0.151612 -2.18323e-19)
(1.41748 0.15622 -7.41078e-20)
(1.42502 0.155443 -5.30926e-20)
(1.42054 0.150991 -1.98514e-19)
(1.40965 0.144528 -2.83226e-20)
(1.39582 0.135384 9.92513e-20)
(0.0495886 -0.00764142 -4.47102e-20)
(0.188693 -0.0163815 2.79183e-20)
(0.366234 -0.00739211 3.61206e-19)
(0.569164 0.0135282 3.50127e-19)
(0.779714 0.0435242 1.46054e-19)
(0.977317 0.077642 -2.55283e-19)
(1.14419 0.110234 8.29774e-20)
(1.27022 0.136888 2.17735e-19)
(1.35427 0.155365 -3.26574e-20)
(1.40213 0.16554 4.09593e-20)
(1.42291 0.168704 8.53804e-20)
(1.4259 0.166698 2.42098e-20)
(1.41862 0.161324 -1.94302e-19)
(1.40618 0.154108 -7.52855e-21)
(1.39158 0.144666 2.21764e-19)
(0.0569649 -0.00753762 2.91989e-20)
(0.209643 -0.0143204 -1.20761e-19)
(0.398979 -0.00168534 -2.05706e-19)
(0.61036 0.0234428 -4.13709e-19)
(0.824394 0.0572221 -4.4388e-20)
(1.01994 0.0938769 1.9987e-19)
(1.18019 0.127433 -1.03391e-19)
(1.29714 0.15369 -2.68353e-19)
(1.37185 0.170921 -2.48658e-19)
(1.41169 0.179536 1.16574e-19)
(1.42649 0.181211 -6.44441e-20)
(1.42552 0.177977 -3.0788e-19)
(1.41591 0.171688 3.01272e-19)
(1.40221 0.163727 3.06371e-19)
(1.38702 0.153971 -1.51489e-19)
(0.0647298 -0.00713091 1.27596e-20)
(0.231289 -0.0113945 -2.36478e-19)
(0.432194 0.00530091 1.03262e-19)
(0.651274 0.0348216 1.96561e-19)
(0.867695 0.0722936 3.94923e-20)
(1.06011 0.111183 -9.46132e-21)
(1.21308 0.145327 1.20551e-19)
(1.32081 0.170861 9.55769e-20)
(1.38652 0.18663 1.29446e-20)
(1.41895 0.193579 -8.31366e-20)
(1.42842 0.193735 1.1636e-20)
(1.42405 0.189278 1.17562e-19)
(1.41249 0.182082 -1.1117e-19)
(1.39779 0.173381 -8.43002e-20)
(1.38214 0.163295 -1.38687e-19)
(0.0728532 -0.00639194 1.61183e-19)
(0.253515 -0.00755076 2.21579e-20)
(0.465672 0.0136023 2.11396e-20)
(0.691631 0.047653 -5.43233e-20)
(0.909351 0.0886749 -2.20661e-19)
(1.09767 0.129467 4.08441e-20)
(1.24283 0.163823 -4.25707e-20)
(1.34137 0.188329 1.09126e-19)
(1.3985 0.202448 2.60806e-19)
(1.42412 0.207649 -3.52021e-22)
(1.42887 0.20627 9.94776e-20)
(1.42159 0.200602 -1.58814e-20)
(1.40844 0.192504 4.33198e-20)
(1.39295 0.183065 -1.09493e-19)
(1.37695 0.17263 1.31397e-19)
(0.0812996 -0.00529331 -3.15736e-20)
(0.276199 -0.00274401 1.3466e-20)
(0.499196 0.0232405 6.31534e-20)
(0.731164 0.0619095 3.59743e-20)
(0.949125 0.106291 -1.53855e-19)
(1.1325 0.148632 2.97094e-20)
(1.26947 0.182833 -1.59664e-19)
(1.35894 0.206032 2.65319e-20)
(1.40797 0.218341 -1.16736e-19)
(1.4274 0.221732 3.13686e-20)
(1.428 0.218812 -3.94361e-20)
(1.41827 0.211944 1.41221e-19)