/*--------------------------------*- C++ -*----------------------------------*\
  =========                 |
  \\      /  F ield         | OpenFOAM: The Open Source CFD Toolbox
   \\    /   O peration     | Website:  https://openfoam.org
    \\  /    A nd           | Version:  7
     \\/     M anipulation  |
\*---------------------------------------------------------------------------*/
FoamFile
{
    version     2.0;
    format      ascii;
    class       volScalarField;
    location    "260";
    object      p;
}
// * * * * * * * * * * * * * * * * * * * * * * * * * * * * * * * * * * * * * //

dimensions      [0 2 -2 0 0 0 0];

internalField   nonuniform List<scalar> 
4575
(
-0.589673
-0.580651
-0.573753
-0.597107
-0.587744
-0.580621
-0.573028
-0.564652
-0.604491
-0.5948
-0.587457
-0.579575
-0.570775
-0.560772
-0.549153
-0.535656
-0.611789
-0.601785
-0.594225
-0.58604
-0.576788
-0.566144
-0.553691
-0.539199
-0.522687
-0.504414
-0.484824
-0.46444
-0.618961
-0.608662
-0.600886
-0.592385
-0.582648
-0.571318
-0.557978
-0.542449
-0.524823
-0.505445
-0.484828
-0.463541
-0.442111
-0.420957
-0.400374
-0.625966
-0.61539
-0.607401
-0.598569
-0.588313
-0.576249
-0.561976
-0.54537
-0.526607
-0.506121
-0.484491
-0.462327
-0.440165
-0.418416
-0.397356
-0.377142
-0.357841
-0.339454
-0.321971
-0.632761
-0.621927
-0.613727
-0.604547
-0.593738
-0.580896
-0.565644
-0.547926
-0.528012
-0.50642
-0.483798
-0.460785
-0.437923
-0.41561
-0.394101
-0.37353
-0.353946
-0.335334
-0.317685
-0.301009
-0.639301
-0.62823
-0.61982
-0.610274
-0.598877
-0.585213
-0.568941
-0.550084
-0.529009
-0.506324
-0.482732
-0.458902
-0.435374
-0.412529
-0.390599
-0.369696
-0.34985
-0.331031
-0.313232
-0.296395
-0.64554
-0.634255
-0.625635
-0.615704
-0.603684
-0.589157
-0.571828
-0.55181
-0.529574
-0.505811
-0.481279
-0.456667
-0.432507
-0.409163
-0.38684
-0.36563
-0.345544
-0.326539
-0.308605
-0.291621
-0.651429
-0.639954
-0.631124
-0.620789
-0.608113
-0.592682
-0.574265
-0.553073
-0.529681
-0.504862
-0.479424
-0.454066
-0.429312
-0.405502
-0.382816
-0.361324
-0.34102
-0.321848
-0.303796
-0.286682
-0.656923
-0.64528
-0.63624
-0.625481
-0.612115
-0.595747
-0.576217
-0.553843
-0.529306
-0.503461
-0.477153
-0.45109
-0.425779
-0.401536
-0.378517
-0.356769
-0.336268
-0.31695
-0.298797
-0.28157
-0.661972
-0.650186
-0.640934
-0.629732
-0.615646
-0.598309
-0.577646
-0.55409
-0.528429
-0.50159
-0.474453
-0.447726
-0.421897
-0.397256
-0.373934
-0.351956
-0.331282
-0.31184
-0.293603
-0.276281
-0.666528
-0.654625
-0.64516
-0.633495
-0.618659
-0.600326
-0.578518
-0.553788
-0.527028
-0.499234
-0.471311
-0.443963
-0.417657
-0.392654
-0.369058
-0.346877
-0.326054
-0.306509
-0.288207
-0.270807
-0.670542
-0.658547
-0.648867
-0.636721
-0.621109
-0.601759
-0.578801
-0.552912
-0.525084
-0.496377
-0.467716
-0.439792
-0.413049
-0.387719
-0.363882
-0.341525
-0.320577
-0.300951
-0.282603
-0.265145
-0.673967
-0.661906
-0.652009
-0.639364
-0.622953
-0.602571
-0.578465
-0.551436
-0.52258
-0.493006
-0.463655
-0.435203
-0.408065
-0.382444
-0.358397
-0.335892
-0.314844
-0.29516
-0.276785
-0.259289
-0.676756
-0.664654
-0.654539
-0.641379
-0.624151
-0.602727
-0.57748
-0.549342
-0.519498
-0.489109
-0.45912
-0.430186
-0.402696
-0.376822
-0.352597
-0.329971
-0.308848
-0.28913
-0.270749
-0.253235
-0.678865
-0.666747
-0.656412
-0.642722
-0.624661
-0.602193
-0.575822
-0.546608
-0.515826
-0.484675
-0.4541
-0.424734
-0.396934
-0.370843
-0.346473
-0.323757
-0.302584
-0.282856
-0.264489
-0.246978
-0.680248
-0.668141
-0.657584
-0.643352
-0.624448
-0.600938
-0.573466
-0.543217
-0.511549
-0.479693
-0.448587
-0.418839
-0.390772
-0.364503
-0.340021
-0.317242
-0.296048
-0.276333
-0.258001
-0.240515
-0.680865
-0.668792
-0.658012
-0.643229
-0.623478
-0.598935
-0.570391
-0.539154
-0.506657
-0.474155
-0.442575
-0.412494
-0.384205
-0.357796
-0.333234
-0.310424
-0.289234
-0.269558
-0.251283
-0.233843
-0.680675
-0.668661
-0.657658
-0.642317
-0.621717
-0.596158
-0.566578
-0.534405
-0.50114
-0.468053
-0.436056
-0.405694
-0.377226
-0.350716
-0.326109
-0.303296
-0.282138
-0.262526
-0.24433
-0.226962
-0.67964
-0.66771
-0.656485
-0.640581
-0.619137
-0.592586
-0.562012
-0.52896
-0.494989
-0.461381
-0.429025
-0.398433
-0.369832
-0.343258
-0.318641
-0.295857
-0.274757
-0.255233
-0.237142
-0.219872
-0.677727
-0.665903
-0.654457
-0.637991
-0.615714
-0.588198
-0.556679
-0.522809
-0.488199
-0.454135
-0.421477
-0.390708
-0.362018
-0.335421
-0.310827
-0.288102
-0.267087
-0.247676
-0.229715
-0.212565
-0.674903
-0.663208
-0.651544
-0.634518
-0.611423
-0.582978
-0.550567
-0.515945
-0.480765
-0.446309
-0.413411
-0.382515
-0.353783
-0.327201
-0.302666
-0.28003
-0.259128
-0.239855
-0.222042
-0.204999
-0.671139
-0.659596
-0.647718
-0.630137
-0.606246
-0.576913
-0.543669
-0.508362
-0.472684
-0.437904
-0.404825
-0.373855
-0.345124
-0.318598
-0.294155
-0.271641
-0.250879
-0.23177
-0.214115
-0.197117
-0.66641
-0.655039
-0.642953
-0.624829
-0.600168
-0.569993
-0.535978
-0.50006
-0.463954
-0.428917
-0.395717
-0.364725
-0.336041
-0.30961
-0.285296
-0.262934
-0.242342
-0.223427
-0.205941
-0.18895
-0.660694
-0.649516
-0.637228
-0.618574
-0.593175
-0.562209
-0.527491
-0.491035
-0.454576
-0.41935
-0.386089
-0.355126
-0.326536
-0.300239
-0.27609
-0.253911
-0.23352
-0.214822
-0.197528
-0.180759
-0.653971
-0.643007
-0.630525
-0.61136
-0.585258
-0.553559
-0.518208
-0.48129
-0.444552
-0.409205
-0.375942
-0.345062
-0.316608
-0.290486
-0.266536
-0.244574
-0.224413
-0.205962
-0.188873
-0.172394
-0.646228
-0.635497
-0.622832
-0.603175
-0.576412
-0.54404
-0.50813
-0.470829
-0.433887
-0.398486
-0.36528
-0.334533
-0.306263
-0.280355
-0.25664
-0.234926
-0.215025
-0.196846
-0.179995
-0.163812
-0.637452
-0.626972
-0.614136
-0.594014
-0.566635
-0.533654
-0.497261
-0.459655
-0.422584
-0.387197
-0.354108
-0.323546
-0.295502
-0.269848
-0.246404
-0.224971
-0.205358
-0.187476
-0.170894
-0.15501
-0.627636
-0.617426
-0.604432
-0.583872
-0.555927
-0.522405
-0.485608
-0.447778
-0.410653
-0.375346
-0.342432
-0.312105
-0.284332
-0.258971
-0.235832
-0.214711
-0.195416
-0.177859
-0.161569
-0.145993
-0.616776
-0.606853
-0.593717
-0.572751
-0.544293
-0.510301
-0.47318
-0.435206
-0.398101
-0.362941
-0.330259
-0.300217
-0.27276
-0.24773
-0.224931
-0.204153
-0.185204
-0.167997
-0.152022
-0.136769
-0.604873
-0.595252
-0.581991
-0.560655
-0.531741
-0.497352
-0.459988
-0.421949
-0.384939
-0.349991
-0.317598
-0.28789
-0.260791
-0.236131
-0.213707
-0.193303
-0.174728
-0.157896
-0.142257
-0.591929
-0.582627
-0.56926
-0.547591
-0.51828
-0.48357
-0.446044
-0.408022
-0.371179
-0.336507
-0.304459
-0.275133
-0.248435
-0.224183
-0.202167
-0.182168
-0.163994
-0.147562
-0.577952
-0.568985
-0.555533
-0.533571
-0.503925
-0.46897
-0.431366
-0.393439
-0.356835
-0.322502
-0.290853
-0.261957
-0.235702
-0.211895
-0.19032
-0.170755
-0.562954
-0.554336
-0.540819
-0.518608
-0.488691
-0.45357
-0.415969
-0.378216
-0.341922
-0.307989
-0.276792
-0.248373
-0.222602
-0.199276
-0.178176
-0.546948
-0.538694
-0.525137
-0.50272
-0.472599
-0.43739
-0.399874
-0.362373
-0.326456
-0.292984
-0.262291
-0.234394
-0.209147
-0.186339
-0.529954
-0.522075
-0.508503
-0.485929
-0.455671
-0.420453
-0.383104
-0.345926
-0.310456
-0.277503
-0.247365
-0.220034
-0.19535
-0.511992
-0.504503
-0.490939
-0.468256
-0.437929
-0.402785
-0.365681
-0.328897
-0.29394
-0.261563
-0.232029
-0.205307
-0.493087
-0.485999
-0.472472
-0.449729
-0.419404
-0.384411
-0.347623
-0.311315
-0.276931
-0.245184
-0.216301
-0.473268
-0.466591
-0.453129
-0.430379
-0.400129
-0.36535
-0.328963
-0.293201
-0.259451
-0.228385
-0.452564
-0.446311
-0.43294
-0.410238
-0.380139
-0.345627
-0.30973
-0.274578
-0.241521
-0.431008
-0.42519
-0.411941
-0.389342
-0.359424
-0.325313
-0.289954
-0.255476
-0.408634
-0.403267
-0.390169
-0.367727
-0.338051
-0.304411
-0.269664
-0.385482
-0.380579
-0.367661
-0.345396
-0.316085
-0.28296
-0.361589
-0.357168
-0.34445
-0.322431
-0.293539
-0.336993
-0.333079
-0.320578
-0.298874
-0.270451
-0.311728
-0.30837
-0.296103
-0.274758
-0.285854
-0.283089
-0.271074
-0.259496
-0.257222
-0.245534
-0.232659
-0.230846
-0.205367
-0.177677
-0.0962856
-0.12246
-0.148281
-0.146983
-0.17369
-0.171929
-0.161988
-0.198651
-0.196422
-0.186151
-0.223175
-0.220375
-0.209846
-0.191472
-0.247148
-0.243797
-0.233032
-0.214314
-0.189777
-0.270505
-0.266652
-0.255665
-0.236642
-0.211662
-0.183513
-0.293213
-0.288885
-0.277689
-0.258423
-0.233048
-0.204356
-0.315237
-0.310449
-0.299066
-0.279616
-0.253897
-0.224727
-0.194575
-0.336541
-0.331308
-0.319762
-0.30015
-0.274195
-0.244592
-0.21387
-0.18391
-0.35709
-0.351425
-0.339743
-0.320019
-0.293879
-0.263914
-0.232689
-0.202104
-0.17335
-0.376849
-0.370765
-0.358975
-0.339189
-0.312905
-0.282674
-0.251004
-0.219854
-0.190454
-0.163416
-0.39579
-0.389298
-0.377425
-0.357626
-0.331263
-0.300824
-0.268787
-0.237133
-0.207142
-0.179465
-0.154321
-0.413885
-0.406995
-0.395064
-0.375299
-0.348923
-0.318342
-0.286012
-0.253916
-0.223394
-0.195126
-0.169367
-0.146103
-0.431107
-0.423833
-0.411868
-0.392181
-0.365855
-0.335203
-0.302645
-0.270187
-0.239187
-0.21038
-0.184051
-0.160208
-0.138716
-0.447434
-0.439789
-0.427814
-0.408249
-0.382034
-0.351384
-0.318673
-0.285916
-0.254501
-0.225208
-0.198356
-0.173975
-0.151944
-0.132082
-0.462848
-0.454846
-0.442883
-0.423481
-0.397438
-0.366863
-0.334073
-0.301084
-0.269319
-0.239595
-0.212266
-0.187387
-0.164855
-0.144495
-0.126112
-0.477333
-0.468988
-0.457059
-0.43786
-0.412048
-0.381618
-0.348824
-0.315676
-0.283624
-0.253524
-0.225766
-0.200433
-0.177437
-0.156612
-0.137769
-0.120711
-0.490876
-0.482204
-0.470328
-0.451371
-0.425847
-0.395631
-0.362908
-0.329673
-0.297399
-0.266981
-0.238845
-0.2131
-0.189677
-0.168421
-0.149149
-0.131667
-0.115805
-0.101488
-0.503469
-0.494486
-0.482681
-0.464002
-0.43882
-0.408888
-0.376311
-0.343061
-0.310632
-0.279955
-0.25149
-0.225378
-0.201567
-0.179914
-0.160243
-0.142365
-0.126108
-0.111397
-0.0977495
-0.515106
-0.505829
-0.494113
-0.475743
-0.450956
-0.421376
-0.389018
-0.355827
-0.32331
-0.292432
-0.263691
-0.237256
-0.213096
-0.191081
-0.171042
-0.152795
-0.136169
-0.121088
-0.107104
-0.0937312
-0.525786
-0.516233
-0.50462
-0.486591
-0.462249
-0.433084
-0.401018
-0.367959
-0.335421
-0.304404
-0.275439
-0.248727
-0.224258
-0.201916
-0.18154
-0.162952
-0.145982
-0.130554
-0.116254
-0.102551
-0.535511
-0.525699
-0.514205
-0.496544
-0.472691
-0.444005
-0.412302
-0.379447
-0.346958
-0.315861
-0.286726
-0.259782
-0.235044
-0.212411
-0.191729
-0.172829
-0.155541
-0.13979
-0.125197
-0.111171
-0.544286
-0.534235
-0.522872
-0.505603
-0.482282
-0.454133
-0.422862
-0.390284
-0.357912
-0.326797
-0.297545
-0.270416
-0.24545
-0.22256
-0.201606
-0.182421
-0.164841
-0.148791
-0.133934
-0.119581
-0.55212
-0.54185
-0.530629
-0.513773
-0.491024
-0.463466
-0.432696
-0.400464
-0.368277
-0.337206
-0.307891
-0.280624
-0.25547
-0.23236
-0.211164
-0.191724
-0.173877
-0.157551
-0.142471
-0.127774
-0.559027
-0.548558
-0.537489
-0.521064
-0.498919
-0.472006
-0.441799
-0.409984
-0.378049
-0.347084
-0.31776
-0.290402
-0.265101
-0.241807
-0.220401
-0.200735
-0.182646
-0.166063
-0.150809
-0.13576
-0.565021
-0.554375
-0.543466
-0.527486
-0.505977
-0.479755
-0.450173
-0.418842
-0.387226
-0.356428
-0.327149
-0.299748
-0.274341
-0.250899
-0.229315
-0.20945
-0.191147
-0.174319
-0.158793
-0.143744
-0.570124
-0.559321
-0.54858
-0.533057
-0.512208
-0.48672
-0.457821
-0.427038
-0.395806
-0.365236
-0.336058
-0.30866
-0.283188
-0.259633
-0.237903
-0.217868
-0.199378
-0.182341
-0.166606
-0.15152
-0.574356
-0.56342
-0.552852
-0.537794
-0.517626
-0.492911
-0.464747
-0.434574
-0.403791
-0.37351
-0.344485
-0.317139
-0.291643
-0.268011
-0.246165
-0.225988
-0.207338
-0.190121
-0.174202
-0.158983
-0.577745
-0.566698
-0.556308
-0.54172
-0.52225
-0.498339
-0.470958
-0.441456
-0.411183
-0.38125
-0.352434
-0.325185
-0.299706
-0.276032
-0.254103
-0.23381
-0.215023
-0.197648
-0.181557
-0.166179
-0.580318
-0.569184
-0.558976
-0.54486
-0.526098
-0.503019
-0.476467
-0.447689
-0.417986
-0.38846
-0.359905
-0.332801
-0.307379
-0.283698
-0.261716
-0.241335
-0.222434
-0.204921
-0.188676
-0.173153
-0.582107
-0.570909
-0.560886
-0.547242
-0.529196
-0.50697
-0.481284
-0.453282
-0.424206
-0.395144
-0.366902
-0.339989
-0.314665
-0.291012
-0.269007
-0.248565
-0.229573
-0.211942
-0.195566
-0.179919
-0.583146
-0.57191
-0.562074
-0.548897
-0.531568
-0.510212
-0.485425
-0.458245
-0.429852
-0.401308
-0.373431
-0.346755
-0.321568
-0.297978
-0.275979
-0.255502
-0.236443
-0.218715
-0.202227
-0.186479
-0.58347
-0.57222
-0.562573
-0.549859
-0.533245
-0.512769
-0.488908
-0.462593
-0.434931
-0.406959
-0.379498
-0.353103
-0.328092
-0.304598
-0.282636
-0.26215
-0.243047
-0.225243
-0.208662
-0.192831
-0.583118
-0.57188
-0.562423
-0.550162
-0.534257
-0.514666
-0.491752
-0.466338
-0.439455
-0.412105
-0.385108
-0.35904
-0.334245
-0.31088
-0.288983
-0.268513
-0.249388
-0.231529
-0.214873
-0.198977
-0.58213
-0.570928
-0.561662
-0.549846
-0.534639
-0.515932
-0.49398
-0.469498
-0.443437
-0.416757
-0.390272
-0.364574
-0.340031
-0.316829
-0.295025
-0.274596
-0.255471
-0.237576
-0.220862
-0.204918
-0.580546
-0.569406
-0.560331
-0.548949
-0.534427
-0.516597
-0.495616
-0.472092
-0.446891
-0.420925
-0.394997
-0.369711
-0.345459
-0.322452
-0.300769
-0.280404
-0.261301
-0.24339
-0.226634
-0.210659
-0.578409
-0.567355
-0.558474
-0.547512
-0.533657
-0.516694
-0.496687
-0.47414
-0.449831
-0.424622
-0.399294
-0.374461
-0.350536
-0.327756
-0.306221
-0.285944
-0.266883
-0.248974
-0.232191
-0.216201
-0.575762
-0.56482
-0.556132
-0.545577
-0.53237
-0.516257
-0.497221
-0.475664
-0.452277
-0.42786
-0.403174
-0.378834
-0.355272
-0.332749
-0.311388
-0.291222
-0.272223
-0.254334
-0.23754
-0.221549
-0.572648
-0.561842
-0.553349
-0.543188
-0.530606
-0.515323
-0.497248
-0.476689
-0.454245
-0.430655
-0.406649
-0.382839
-0.359675
-0.337439
-0.316279
-0.296246
-0.277328
-0.259476
-0.242683
-0.226707
-0.569112
-0.558466
-0.55017
-0.540386
-0.528406
-0.513929
-0.4968
-0.47724
-0.455757
-0.433023
-0.409731
-0.386488
-0.363755
-0.341837
-0.320902
-0.301023
-0.282204
-0.264405
-0.247628
-0.231678
-0.565198
-0.554735
-0.546636
-0.537217
-0.525813
-0.512113
-0.495912
-0.477345
-0.456834
-0.434979
-0.412434
-0.389793
-0.367523
-0.345951
-0.325266
-0.305561
-0.286858
-0.269129
-0.252378
-0.236467
-0.560948
-0.55069
-0.54279
-0.533722
-0.522868
-0.509915
-0.494617
-0.477032
-0.457498
-0.436543
-0.414773
-0.392764
-0.37099
-0.349791
-0.32938
-0.30987
-0.291299
-0.273653
-0.256941
-0.241079
-0.556405
-0.546373
-0.538675
-0.529944
-0.519613
-0.507375
-0.49295
-0.476331
-0.457774
-0.437732
-0.416762
-0.395416
-0.374166
-0.353367
-0.333253
-0.313957
-0.295534
-0.277986
-0.261322
-0.245519
-0.551611
-0.541825
-0.534332
-0.525925
-0.51609
-0.504533
-0.490949
-0.475274
-0.457686
-0.438567
-0.418417
-0.39776
-0.377063
-0.35669
-0.336896
-0.317831
-0.299573
-0.282134
-0.265528
-0.249794
-0.546605
-0.537084
-0.529798
-0.521704
-0.512339
-0.501427
-0.488649
-0.473891
-0.457261
-0.439069
-0.419755
-0.399811
-0.379692
-0.359771
-0.340317
-0.321503
-0.303422
-0.286105
-0.269567
-0.541429
-0.532189
-0.525113
-0.51732
-0.508399
-0.498097
-0.486087
-0.472216
-0.456527
-0.439258
-0.420793
-0.401582
-0.382065
-0.36262
-0.343528
-0.536117
-0.527174
-0.520312
-0.512809
-0.504309
-0.494581
-0.4833
-0.47028
-0.455509
-0.439158
-0.421548
-0.530707
-0.522074
-0.515429
-0.508208
-0.500105
-0.490915
-0.480323
-0.468117
-0.525231
-0.51692
-0.510495
-0.503548
-0.495821
-0.519721
-0.511742
-0.505541
-0.256061
-0.26116
-0.266115
-0.270933
-0.275619
-0.280178
-0.234721
-0.239526
-0.244225
-0.248823
-0.253322
-0.257729
-0.215563
-0.220072
-0.224502
-0.228857
-0.23314
-0.237355
-0.198408
-0.20262
-0.206774
-0.210872
-0.214918
-0.218916
-0.182882
-0.186806
-0.190687
-0.194527
-0.198329
-0.202095
-0.168793
-0.172436
-0.176046
-0.179628
-0.183182
-0.186711
-0.155918
-0.159292
-0.162644
-0.165973
-0.169284
-0.172577
-0.144131
-0.147249
-0.150349
-0.153435
-0.156507
-0.159567
-0.13328
-0.136156
-0.139019
-0.141872
-0.144715
-0.147551
-0.123273
-0.12592
-0.128559
-0.13119
-0.133814
-0.136434
-0.114009
-0.116443
-0.11887
-0.121293
-0.123711
-0.126127
-0.105416
-0.10765
-0.10988
-0.112107
-0.114331
-0.116554
-0.0974266
-0.0994752
-0.101521
-0.103565
-0.105607
-0.107649
-0.0899857
-0.0918623
-0.093737
-0.0956106
-0.0974837
-0.0993568
-0.0830421
-0.0847597
-0.0864762
-0.088192
-0.0899078
-0.0916241
-0.0765571
-0.0781278
-0.0796978
-0.0812676
-0.0828376
-0.0844084
-0.0704906
-0.0719261
-0.0733613
-0.0747964
-0.076232
-0.0776683
-0.0648134
-0.0661244
-0.0674353
-0.0687463
-0.0700578
-0.0713701
-0.0594949
-0.0606916
-0.0618883
-0.0630852
-0.0642827
-0.0654809
-0.0666802
-0.0545074
-0.0556
-0.0566923
-0.0577848
-0.0588778
-0.0599714
-0.061066
-0.0498339
-0.0508304
-0.0518268
-0.0528234
-0.0538203
-0.0548178
-0.0558161
-0.0454509
-0.0463596
-0.0472682
-0.048177
-0.0490861
-0.0499956
-0.0509058
-0.0413394
-0.0421679
-0.0429964
-0.043825
-0.0446537
-0.0454828
-0.0463124
-0.0374835
-0.0382389
-0.0389942
-0.0397494
-0.0405048
-0.0412603
-0.0420163
-0.0338675
-0.0345561
-0.0352445
-0.0359329
-0.0366212
-0.0373097
-0.0379985
-0.030477
-0.0311048
-0.0317323
-0.0323596
-0.0329869
-0.0336143
-0.0342417
-0.0272993
-0.0278716
-0.0284436
-0.0290153
-0.0295869
-0.0301585
-0.03073
-0.0243222
-0.0248439
-0.0253652
-0.0258863
-0.0264072
-0.026928
-0.0274486
-0.0215343
-0.0220099
-0.0224852
-0.0229601
-0.0234348
-0.0239093
-0.0243836
-0.0189249
-0.0193586
-0.019792
-0.0202249
-0.0206576
-0.0210899
-0.021522
-0.0164843
-0.0168799
-0.017275
-0.0176698
-0.0180641
-0.0184582
-0.0188519
-0.0142032
-0.014564
-0.0149244
-0.0152843
-0.0156439
-0.016003
-0.0163618
-0.0120727
-0.0124019
-0.0127306
-0.0130589
-0.0133868
-0.0137142
-0.0140412
-0.0100846
-0.010385
-0.010685
-0.0109844
-0.0112834
-0.011582
-0.0118801
-0.00823108
-0.00850533
-0.00877908
-0.00905232
-0.00932507
-0.00959734
-0.00986914
-0.00650477
-0.00675519
-0.00700509
-0.00725447
-0.00750333
-0.0077517
-0.00799958
-0.00489868
-0.0051274
-0.00535558
-0.00558324
-0.00581038
-0.006037
-0.00626311
-0.00340617
-0.00361513
-0.00382355
-0.00403144
-0.0042388
-0.00444563
-0.00465194
-0.00202098
-0.00221194
-0.00240237
-0.00259227
-0.00278163
-0.00297046
-0.00315875
-0.000737115
-0.000911698
-0.00108575
-0.00125926
-0.00143224
-0.00160469
-0.0017766
0.000451002
0.000291335
0.000132197
-2.64086e-05
-0.000184481
-0.000342018
-0.000499019
0.00154876
0.00140267
0.0012571
0.00111206
0.000967557
0.00082358
0.000680139
0.00256118
0.00242745
0.00229424
0.00216155
0.00202937
0.00189773
0.00176662
0.00349305
0.00337057
0.00324859
0.00312712
0.00300616
0.00288573
0.00276582
0.00434887
0.0042366
0.00412483
0.00401356
0.0039028
0.00379255
0.00368281
0.00513286
0.00502987
0.00492737
0.00482536
0.00472384
0.00462283
0.00452232
0.00584897
0.0057544
0.0056603
0.00556668
0.00547355
0.0053809
0.00528876
0.00650089
0.00641393
0.00632744
0.00624142
0.00615586
0.00607079
0.0059862
0.00709203
0.00701195
0.00693232
0.00685315
0.00677444
0.00669619
0.00661842
0.0076255
0.00755161
0.00747816
0.00740515
0.00733258
0.00726048
0.00718883
0.00810416
0.00803581
0.00796789
0.00790039
0.00783334
0.00776672
0.00770055
0.00853049
0.00846707
0.00840407
0.00834148
0.00827932
0.00821759
0.00815629
0.00890673
0.00884767
0.00878901
0.00873076
0.00867292
0.0086155
0.0085585
0.00923461
0.00917936
0.00912449
0.00907002
0.00901596
0.0089623
0.00890905
0.00951573
0.00946375
0.00941215
0.00936093
0.00931011
0.00925968
0.00920965
0.00975081
0.00970159
0.00965274
0.00960426
0.00955617
0.00950846
0.00946115
0.00994075
0.00989377
0.00984715
0.0098009
0.00975503
0.00970953
0.00966441
0.0100849
0.0100396
0.00999475
0.00995024
0.00990609
0.00986231
0.00981891
0.0101832
0.0101392
0.0100955
0.0100522
0.0100092
0.0099666
0.00992436
0.0102332
0.0101899
0.010147
0.0101044
0.0100621
0.0100203
0.00997877
-0.127305
-0.135661
-0.143844
-0.151853
-0.159687
-0.167345
-0.174818
-0.18204
-0.189275
-0.196307
-0.203072
-0.209624
-0.216004
-0.222219
-0.228266
-0.234146
-0.239861
-0.245416
-0.250815
-0.119306
-0.126629
-0.133812
-0.140855
-0.147757
-0.154514
-0.161116
-0.167549
-0.173719
-0.179992
-0.186116
-0.192041
-0.19781
-0.203451
-0.208968
-0.214361
-0.21963
-0.224777
-0.229806
-0.11117
-0.117662
-0.124039
-0.130301
-0.136446
-0.142477
-0.148393
-0.154192
-0.159871
-0.165316
-0.170818
-0.176231
-0.181504
-0.186655
-0.191707
-0.196663
-0.201524
-0.206292
-0.210971
-0.104048
-0.109807
-0.115471
-0.12104
-0.126516
-0.131897
-0.137186
-0.142381
-0.14748
-0.152475
-0.157367
-0.16224
-0.167038
-0.171744
-0.176366
-0.180913
-0.185389
-0.189795
-0.194134
-0.0972639
-0.102398
-0.107454
-0.112432
-0.117334
-0.12216
-0.12691
-0.131584
-0.136182
-0.140702
-0.145138
-0.149599
-0.153987
-0.158289
-0.162523
-0.166699
-0.170822
-0.174892
-0.178911
-0.0910564
-0.0956478
-0.100176
-0.104642
-0.109047
-0.113392
-0.11768
-0.121912
-0.126091
-0.130218
-0.13429
-0.13825
-0.142214
-0.146148
-0.15003
-0.153862
-0.157652
-0.161403
-0.165116
-0.0852389
-0.0893559
-0.0934213
-0.0974363
-0.101402
-0.105319
-0.109189
-0.113012
-0.11679
-0.120521
-0.124207
-0.127845
-0.131478
-0.135076
-0.138632
-0.14215
-0.145636
-0.149091
-0.152518
-0.0798174
-0.0835187
-0.087178
-0.0907967
-0.0943756
-0.0979161
-0.101419
-0.104887
-0.10832
-0.11172
-0.115088
-0.118424
-0.121704
-0.124981
-0.128236
-0.131463
-0.134663
-0.137839
-0.140995
-0.0747274
-0.0780612
-0.0813609
-0.0846275
-0.0878618
-0.0910649
-0.0942375
-0.0973805
-0.100494
-0.10358
-0.106637
-0.109665
-0.112665
-0.115687
-0.118675
-0.121632
-0.124568
-0.127488
-0.130391
-0.0699406
-0.0729492
-0.0759302
-0.0788845
-0.0818131
-0.084717
-0.0875972
-0.0904547
-0.0932908
-0.096107
-0.0989046
-0.101685
-0.104447
-0.107154
-0.109867
-0.112576
-0.11527
-0.11795
-0.120617
-0.0654207
-0.0681393
-0.0708354
-0.0735099
-0.0761634
-0.0787968
-0.0814109
-0.0840063
-0.0865839
-0.0891442
-0.0916879
-0.0942153
-0.0967269
-0.0992214
-0.101714
-0.104195
-0.106663
-0.109121
-0.111569
-0.0611416
-0.0636012
-0.0660424
-0.068466
-0.0708727
-0.073263
-0.0756378
-0.0779976
-0.0803431
-0.082675
-0.0849939
-0.0873005
-0.0895952
-0.0918782
-0.0941538
-0.0964214
-0.0986808
-0.100932
-0.103177
-0.0570802
-0.0593076
-0.06152
-0.0637182
-0.0659026
-0.0680739
-0.0702326
-0.0723793
-0.0745146
-0.0766393
-0.0787538
-0.0808589
-0.082955
-0.0850425
-0.0871164
-0.089188
-0.0912558
-0.0933178
-0.0953744
-0.053217
-0.0552358
-0.0572424
-0.0592374
-0.0612212
-0.0631943
-0.0651571
-0.0671103
-0.0690543
-0.0709896
-0.0729166
-0.074836
-0.0767482
-0.0786536
-0.080552
-0.082448
-0.0843389
-0.0862248
-0.0881068
-0.0495359
-0.051367
-0.053188
-0.0549996
-0.056802
-0.0585957
-0.0603811
-0.0621585
-0.0639285
-0.0656913
-0.0674474
-0.0691971
-0.0709408
-0.0726788
-0.0744114
-0.0761478
-0.0778775
-0.0796017
-0.0813229
-0.0460237
-0.0476855
-0.0493392
-0.0509851
-0.0526236
-0.0542551
-0.0558798
-0.0574983
-0.0591108
-0.0607179
-0.0623198
-0.0639171
-0.0655103
-0.0670996
-0.0686853
-0.0702596
-0.0718353
-0.0734111
-0.0749851
-0.0426688
-0.0441776
-0.0456799
-0.0471758
-0.0486656
-0.0501496
-0.0516281
-0.0531015
-0.0545699
-0.0560338
-0.0574934
-0.058949
-0.0604009
-0.0618493
-0.0632946
-0.0647364
-0.066177
-0.0676164
-0.0690542
-0.0394618
-0.0408325
-0.0421977
-0.0435577
-0.0449127
-0.046263
-0.0476087
-0.0489503
-0.0502878
-0.0516216
-0.0529519
-0.054279
-0.0556032
-0.0569246
-0.0582436
-0.0595603
-0.0608757
-0.0621895
-0.0635019
-0.036395
-0.0376406
-0.0388817
-0.0401184
-0.0413511
-0.0425799
-0.043805
-0.0450265
-0.0462448
-0.0474599
-0.0486722
-0.0498818
-0.051089
-0.052294
-0.0534969
-0.0546982
-0.0559003
-0.0571001
-0.0582979
-0.0334622
-0.0345946
-0.0357232
-0.0368484
-0.0379701
-0.0390887
-0.0402042
-0.0413168
-0.0424267
-0.043534
-0.044639
-0.0457419
-0.0468427
-0.0479418
-0.0490393
-0.0501352
-0.0512281
-0.0523212
-0.0534145
-0.0306576
-0.0316874
-0.0327142
-0.033738
-0.0347589
-0.0357773
-0.036793
-0.0378064
-0.0388175
-0.0398264
-0.0408334
-0.0418386
-0.042842
-0.043844
-0.0448446
-0.0458441
-0.0468421
-0.0478397
-0.048837
-0.0279769
-0.0289138
-0.0298481
-0.0307799
-0.0317095
-0.0326368
-0.033562
-0.0344851
-0.0354064
-0.0363259
-0.0372437
-0.03816
-0.0390748
-0.0399884
-0.0409009
-0.0418123
-0.0427227
-0.0436326
-0.0445419
-0.0254159
-0.0262685
-0.0271189
-0.0279674
-0.0288138
-0.0296584
-0.0305013
-0.0313424
-0.0321818
-0.0330198
-0.0338564
-0.0346916
-0.0355256
-0.0363585
-0.0371904
-0.0380215
-0.0388517
-0.0396814
-0.0405105
-0.022971
-0.0237472
-0.0245216
-0.0252943
-0.0260654
-0.0268349
-0.0276028
-0.0283693
-0.0291344
-0.0298982
-0.0306608
-0.0314222
-0.0321826
-0.032942
-0.0337005
-0.0344583
-0.0352153
-0.0359718
-0.0367279
-0.0206392
-0.021346
-0.0220515
-0.0227554
-0.023458
-0.0241592
-0.024859
-0.0255577
-0.0262551
-0.0269514
-0.0276467
-0.0283409
-0.0290342
-0.0297266
-0.0304182
-0.0311091
-0.0317994
-0.0324893
-0.0331786
-0.0184172
-0.0190613
-0.0197041
-0.0203456
-0.0209859
-0.0216251
-0.0222632
-0.0229001
-0.023536
-0.0241709
-0.0248048
-0.0254379
-0.0260701
-0.0267014
-0.0273321
-0.0279621
-0.0285914
-0.0292205
-0.029849
-0.0163025
-0.0168895
-0.0174755
-0.0180604
-0.0186442
-0.019227
-0.0198088
-0.0203897
-0.0209697
-0.0215487
-0.0221269
-0.0227043
-0.0232809
-0.0238568
-0.0244321
-0.0250067
-0.0255807
-0.0261538
-0.0267267
-0.0142921
-0.0148274
-0.0153618
-0.0158952
-0.0164277
-0.0169593
-0.0174901
-0.0180199
-0.018549
-0.0190772
-0.0196046
-0.0201313
-0.0206573
-0.0211826
-0.0217072
-0.0222313
-0.0227547
-0.0232776
-0.0238001
-0.0123836
-0.0128719
-0.0133594
-0.0138461
-0.014332
-0.014817
-0.0153013
-0.0157848
-0.0162676
-0.0167496
-0.0172308
-0.0177114
-0.0181913
-0.0186706
-0.0191492
-0.0196273
-0.0201048
-0.0205817
-0.0210582
-0.0105741
-0.0110198
-0.0114647
-0.0119089
-0.0123524
-0.0127952
-0.0132373
-0.0136786
-0.0141193
-0.0145592
-0.0149985
-0.0154371
-0.0158751
-0.0163125
-0.0167492
-0.0171854
-0.0176211
-0.0180562
-0.0184908
-0.00886099
-0.00926797
-0.00967428
-0.0100799
-0.0104849
-0.0108892
-0.0112929
-0.0116959
-0.0120983
-0.0125
-0.012901
-0.0133015
-0.0137013
-0.0141006
-0.0144992
-0.0148973
-0.0152948
-0.0156918
-0.0160883
-0.00724163
-0.00761344
-0.00798464
-0.00835523
-0.00872521
-0.00909458
-0.00946333
-0.00983147
-0.010199
-0.0105659
-0.0109322
-0.0112979
-0.011663
-0.0120275
-0.0123915
-0.0127549
-0.0131177
-0.0134801
-0.0138419
-0.00571326
-0.0060531
-0.00639239
-0.00673111
-0.00706926
-0.00740683
-0.00774383
-0.00808024
-0.00841607
-0.00875132
-0.00908598
-0.00942007
-0.00975358
-0.0100865
-0.0104189
-0.0107507
-0.011082
-0.0114127
-0.011743
-0.0042731
-0.00458388
-0.00489414
-0.00520387
-0.00551307
-0.00582172
-0.00612983
-0.00643737
-0.00674436
-0.00705079
-0.00735666
-0.00766196
-0.00796671
-0.0082709
-0.00857453
-0.00887761
-0.00918015
-0.00948215
-0.00978363
-0.00291833
-0.00320268
-0.00348654
-0.0037699
-0.00405275
-0.00433508
-0.00461689
-0.00489816
-0.0051789
-0.00545909
-0.00573874
-0.00601785
-0.0062964
-0.00657441
-0.00685187
-0.00712879
-0.00740516
-0.00768099
-0.0079563
-0.0016461
-0.0019064
-0.00216623
-0.00242559
-0.00268445
-0.00294283
-0.00320069
-0.00345804
-0.00371488
-0.00397118
-0.00422696
-0.0044822
-0.00473691
-0.00499108
-0.0052447
-0.00549779
-0.00575034
-0.00600235
-0.00625383
-0.000453526
-0.000691929
-0.000929884
-0.00116738
-0.00140441
-0.00164096
-0.00187702
-0.00211259
-0.00234765
-0.0025822
-0.00281623
-0.00304974
-0.00328272
-0.00351518
-0.0037471
-0.00397848
-0.00420934
-0.00443965
-0.00466944
0.000662296
0.000443837
0.000225808
8.22095e-06
-0.000208913
-0.000425583
-0.00064178
-0.000857494
-0.00107272
-0.00128744
-0.00150166
-0.00171537
-0.00192856
-0.00214123
-0.00235338
-0.002565
-0.00277608
-0.00298663
-0.00319668
0.00170428
0.00150399
0.00130412
0.00110468
0.000905672
0.000707117
0.000509022
0.000311396
0.000114247
-8.24152e-05
-0.000278585
-0.000474254
-0.000669417
-0.000864069
-0.00105821
-0.00125182
-0.00144491
-0.00163747
-0.00182949
0.00267535
0.00249163
0.00230831
0.0021254
0.00194293
0.00176089
0.00157929
0.00139816
0.00121749
0.00103729
0.000857579
0.000678355
0.000499627
0.000321401
0.000143683
-3.35215e-05
-0.000210209
-0.000386374
-0.000562006
0.00357842
0.0034098
0.00324157
0.00307374
0.00290634
0.00273935
0.0025728
0.0024067
0.00224105
0.00207587
0.00191115
0.00174692
0.00158316
0.0014199
0.00125714
0.00109489
0.00093314
0.000771907
0.000611194
0.00441636
0.00426151
0.00410704
0.00395297
0.0037993
0.00364605
0.00349322
0.00334082
0.00318887
0.00303737
0.00288632
0.00273575
0.00258564
0.00243602
0.00228689
0.00213825
0.00199011
0.00184248
0.00169536
0.00519202
0.00504974
0.00490782
0.00476629
0.00462515
0.00448442
0.00434409
0.00420419
0.00406472
0.00392569
0.0037871
0.00364898
0.00351131
0.00337411
0.0032374
0.00310116
0.00296542
0.00283017
0.00269542
0.00590822
0.00577738
0.00564691
0.00551681
0.0053871
0.00525777
0.00512884
0.00500033
0.00487223
0.00474456
0.00461733
0.00449054
0.0043642
0.00423832
0.00411291
0.00398797
0.00386351
0.00373953
0.00361604
0.00656768
0.00644728
0.00632724
0.00620756
0.00608824
0.00596931
0.00585077
0.00573263
0.00561489
0.00549757
0.00538067
0.0052642
0.00514817
0.00503259
0.00491747
0.0048028
0.0046886
0.00457488
0.00446163
0.00717306
0.00706217
0.00695162
0.00684142
0.00673159
0.00662211
0.00651302
0.00640431
0.006296
0.00618809
0.0060806
0.00597352
0.00586687
0.00576065
0.00565487
0.00554955
0.00544468
0.00534027
0.00523632
0.00772694
0.0076247
0.00752278
0.00742121
0.00731998
0.00721911
0.0071186
0.00701847
0.00691873
0.00681937
0.00672041
0.00662186
0.00652372
0.00642601
0.00632872
0.00623187
0.00613547
0.00603951
0.00594401
0.00823178
0.00813738
0.00804331
0.00794956
0.00785614
0.00776307
0.00767036
0.00757801
0.00748603
0.00739443
0.00730321
0.00721239
0.00712197
0.00703196
0.00694237
0.0068532
0.00676446
0.00667616
0.0065883
0.00877751
0.00868992
0.00860262
0.00851564
0.00842897
0.00834263
0.00825663
0.00817096
0.00808565
0.0080007
0.00791611
0.0078319
0.00774806
0.00766462
0.00758158
0.00749894
0.00741671
0.00733489
0.00725351
0.00717255
0.0091847
0.00910353
0.00902265
0.00894206
0.00886179
0.00878183
0.00870219
0.00862288
0.00854392