/*--------------------------------*- C++ -*----------------------------------*\
  =========                 |
  \\      /  F ield         | OpenFOAM: The Open Source CFD Toolbox
   \\    /   O peration     | Website:  https://openfoam.org
    \\  /    A nd           | Version:  7
     \\/     M anipulation  |
\*---------------------------------------------------------------------------*/
FoamFile
{
    version     2.0;
    format      ascii;
    class       volScalarField;
    location    "20";
    object      p;
}
// * * * * * * * * * * * * * * * * * * * * * * * * * * * * * * * * * * * * * //

dimensions      [0 2 -2 0 0 0 0];

internalField   nonuniform List<scalar> 
7156
(
-0.250568
-0.251397
-0.251923
-0.25239
-0.250595
-0.251423
-0.251948
-0.252414
-0.25065
-0.251475
-0.251999
-0.252463
-0.250733
-0.251553
-0.252074
-0.252535
-0.250842
-0.251656
-0.252174
-0.252632
-0.250979
-0.251786
-0.252298
-0.252752
-0.251141
-0.25194
-0.252447
-0.252896
-0.25133
-0.252119
-0.25262
-0.253063
-0.251545
-0.252323
-0.252816
-0.253253
-0.251785
-0.25255
-0.253036
-0.253465
-0.252049
-0.252802
-0.253279
-0.2537
-0.252338
-0.253076
-0.253544
-0.253956
-0.25265
-0.253373
-0.253831
-0.254233
-0.252984
-0.253692
-0.254139
-0.254532
-0.254879
-0.253341
-0.254032
-0.254469
-0.254851
-0.255187
-0.25372
-0.254394
-0.254818
-0.255189
-0.255514
-0.25412
-0.254776
-0.255188
-0.255547
-0.25586
-0.25454
-0.255178
-0.255578
-0.255924
-0.256225
-0.25498
-0.255599
-0.255987
-0.25632
-0.256607
-0.255439
-0.25604
-0.256414
-0.256734
-0.257007
-0.255918
-0.2565
-0.25686
-0.257166
-0.257425
-0.257633
-0.256415
-0.256978
-0.257324
-0.257616
-0.257859
-0.258051
-0.25693
-0.257474
-0.257806
-0.258083
-0.258311
-0.258486
-0.257464
-0.257989
-0.258306
-0.258568
-0.258778
-0.258936
-0.258015
-0.258521
-0.258824
-0.259069
-0.259263
-0.259402
-0.259495
-0.258584
-0.259071
-0.259358
-0.259587
-0.259763
-0.259884
-0.259957
-0.259172
-0.259639
-0.259911
-0.260123
-0.26028
-0.260381
-0.260432
-0.259777
-0.260225
-0.260481
-0.260675
-0.260813
-0.260893
-0.260922
-0.2604
-0.260829
-0.261069
-0.261245
-0.261363
-0.261421
-0.261427
-0.261387
-0.261042
-0.261452
-0.261675
-0.261832
-0.261929
-0.261964
-0.261946
-0.26188
-0.261703
-0.262093
-0.262299
-0.262437
-0.262512
-0.262524
-0.262479
-0.262386
-0.262384
-0.262754
-0.262942
-0.26306
-0.263112
-0.263099
-0.263028
-0.262907
-0.263085
-0.263435
-0.263604
-0.263701
-0.26373
-0.26369
-0.263592
-0.26344
-0.263244
-0.263806
-0.264136
-0.264287
-0.264362
-0.264365
-0.264299
-0.264171
-0.263988
-0.26376
-0.26455
-0.264859
-0.26499
-0.265042
-0.26502
-0.264924
-0.264765
-0.264551
-0.264289
-0.265316
-0.265604
-0.265715
-0.265743
-0.265693
-0.265568
-0.265376
-0.265128
-0.26483
-0.264491
-0.266106
-0.266373
-0.266463
-0.266465
-0.266387
-0.26623
-0.266005
-0.26572
-0.265386
-0.265009
-0.266922
-0.267166
-0.267234
-0.26721
-0.267101
-0.266911
-0.26665
-0.266328
-0.265955
-0.265539
-0.267765
-0.267985
-0.26803
-0.267978
-0.267838
-0.267613
-0.267314
-0.266953
-0.266539
-0.266082
-0.265587
-0.268635
-0.268832
-0.268852
-0.268771
-0.268597
-0.268335
-0.267997
-0.267595
-0.267139
-0.266638
-0.266101
-0.269536
-0.269707
-0.269702
-0.26959
-0.269381
-0.26908
-0.268701
-0.268255
-0.267754
-0.267209
-0.266626
-0.266011
-0.270469
-0.270614
-0.270581
-0.270437
-0.27019
-0.269848
-0.269425
-0.268934
-0.268386
-0.267794
-0.267165
-0.266504
-0.271436
-0.271552
-0.271491
-0.271312
-0.271026
-0.270641
-0.270172
-0.269633
-0.269036
-0.268395
-0.267716
-0.267007
-0.26627
-0.272438
-0.272525
-0.272434
-0.272218
-0.271891
-0.271461
-0.270943
-0.270353
-0.269705
-0.269012
-0.268282
-0.267524
-0.266738
-0.27348
-0.273535
-0.273411
-0.273158
-0.272786
-0.272308
-0.271739
-0.271097
-0.270395
-0.269647
-0.268864
-0.268053
-0.267217
-0.274562
-0.274584
-0.274426
-0.274131
-0.273713
-0.273185
-0.272563
-0.271864
-0.271106
-0.270302
-0.269463
-0.268598
-0.267708
-0.266795
-0.275688
-0.275674
-0.275479
-0.275142
-0.274675
-0.274093
-0.273415
-0.272659
-0.271841
-0.270978
-0.270081
-0.269158
-0.268214
-0.267249
-0.27686
-0.276808
-0.276575
-0.276191
-0.275672
-0.275035
-0.274298
-0.273481
-0.272602
-0.271677
-0.270719
-0.269738
-0.268737
-0.267717
-0.266673
-0.278082
-0.277989
-0.277714
-0.277282
-0.276709
-0.276013
-0.275214
-0.274333
-0.27339
-0.272401
-0.27138
-0.270337
-0.269278
-0.268202
-0.267106
-0.279356
-0.279219
-0.2789
-0.278417
-0.277786
-0.277028
-0.276165
-0.275218
-0.274208
-0.273152
-0.272066
-0.27096
-0.26984
-0.268707
-0.267557
-0.266382
-0.280686
-0.280501
-0.280136
-0.279598
-0.278907
-0.278085
-0.277154
-0.276138
-0.275058
-0.273934
-0.27278
-0.271609
-0.270426
-0.269234
-0.26803
-0.266806
-0.265549
-0.282075
-0.281839
-0.281424
-0.280829
-0.280074
-0.279184
-0.278183
-0.277095
-0.275943
-0.274748
-0.273525
-0.272286
-0.271039
-0.269786
-0.268527
-0.267253
-0.265956
-0.283527
-0.283235
-0.282767
-0.282111
-0.28129
-0.280329
-0.279255
-0.278093
-0.276867
-0.275598
-0.274303
-0.272995
-0.271682
-0.270368
-0.269051
-0.267727
-0.266388
-0.26503
-0.285045
-0.284693
-0.284169
-0.283449
-0.282558
-0.281523
-0.280372
-0.279133
-0.277831
-0.276486
-0.275118
-0.273739
-0.272359
-0.270981
-0.269606
-0.268229
-0.266848
-0.265458
-0.286633
-0.286216
-0.285632
-0.284845
-0.28388
-0.282768
-0.281539
-0.28022
-0.278838
-0.277416
-0.275973
-0.274522
-0.273072
-0.27163
-0.270194
-0.268764
-0.267336
-0.265911
-0.264503
-0.288294
-0.287807
-0.28716
-0.286301
-0.285259
-0.284068
-0.282757
-0.281356
-0.279893
-0.278392
-0.276871
-0.275346
-0.273827
-0.272318
-0.27082
-0.269333
-0.267854
-0.266388
-0.264949
-0.263578
-0.290032
-0.28947
-0.288755
-0.287822
-0.2867
-0.285425
-0.28403
-0.282544
-0.280998
-0.279416
-0.277817
-0.276216
-0.274625
-0.273048
-0.271486
-0.269938
-0.268404
-0.266887
-0.265405
-0.263995
-0.291851
-0.291208
-0.290422
-0.28941
-0.288204
-0.286843
-0.28536
-0.283788
-0.282157
-0.280491
-0.278812
-0.277135
-0.27547
-0.273823
-0.272194
-0.270581
-0.268985
-0.267409
-0.265868
-0.264395
-0.263075
-0.293754
-0.293024
-0.292162
-0.291068
-0.289775
-0.288324
-0.286752
-0.285091
-0.283373
-0.281623
-0.279862
-0.278107
-0.276366
-0.274646
-0.272946
-0.271264
-0.269599
-0.267952
-0.266336
-0.264775
-0.263342
-0.262006
-0.295745
-0.294922
-0.29398
-0.292799
-0.291415
-0.289873
-0.288208
-0.286456
-0.284649
-0.282813
-0.280969
-0.279134
-0.277316
-0.27552
-0.273745
-0.271988
-0.270244
-0.268514
-0.266805
-0.265135
-0.263558
-0.262023
-0.261078
-0.297828
-0.296904
-0.295878
-0.294607
-0.293129
-0.291491
-0.289731
-0.287886
-0.285988
-0.284065
-0.282137
-0.280219
-0.278321
-0.276446
-0.274591
-0.272751
-0.27092
-0.269094
-0.267275
-0.26547
-0.263722
-0.261961
-0.260656
-0.300005
-0.298975
-0.297859
-0.296494
-0.294918
-0.293182
-0.291326
-0.289385
-0.287395
-0.285382
-0.283368
-0.281366
-0.279386
-0.277427
-0.275486
-0.273556
-0.271626
-0.269689
-0.267741
-0.265782
-0.263837
-0.26183
-0.260154
-0.257084
-0.302279
-0.301136
-0.299927
-0.298464
-0.296787
-0.29495
-0.292993
-0.290956
-0.288872
-0.286768
-0.284666
-0.282577
-0.28051
-0.278463
-0.27643
-0.2744
-0.272359
-0.270296
-0.268201
-0.266067
-0.263906
-0.261636
-0.259586
-0.256232
-0.257054
-0.304655
-0.303391
-0.302084
-0.300519
-0.298737
-0.296796
-0.294738
-0.292602
-0.290422
-0.288226
-0.286032
-0.283855
-0.281697
-0.279556
-0.277422
-0.275282
-0.273118
-0.270913
-0.268654
-0.266325
-0.26393
-0.261385
-0.258966
-0.25534
-0.255241
-0.307134
-0.305742
-0.304333
-0.302661
-0.300772
-0.298725
-0.296563
-0.294326
-0.292048
-0.289757
-0.287471
-0.2852
-0.282947
-0.280705
-0.278462
-0.2762
-0.273898
-0.271536
-0.269094
-0.266553
-0.26391
-0.261082
-0.258301
-0.254417
-0.253492
-0.309719
-0.308191
-0.306676
-0.304894
-0.302894
-0.300738
-0.29847
-0.29613
-0.293754
-0.291366
-0.288984
-0.286616
-0.284261
-0.281911
-0.279548
-0.277152
-0.274698
-0.272162
-0.26952
-0.266751
-0.263846
-0.260731
-0.257598
-0.253467
-0.251808
-0.312413
-0.310742
-0.309115
-0.30722
-0.305106
-0.302838
-0.300462
-0.298018
-0.29554
-0.293053
-0.290571
-0.288101
-0.285639
-0.283171
-0.280678
-0.278134
-0.275513
-0.272785
-0.269928
-0.266916
-0.26374
-0.260334
-0.25686
-0.252492
-0.250183
-0.315217
-0.313396
-0.311654
-0.309641
-0.30741
-0.305029
-0.302543
-0.299992
-0.297411
-0.294821
-0.292236
-0.289658
-0.28708
-0.284485
-0.281849
-0.279143
-0.276338
-0.273403
-0.270313
-0.267046
-0.26359
-0.259892
-0.25609
-0.251494
-0.248611
-0.318134
-0.316155
-0.314292
-0.31216
-0.309808
-0.307311
-0.304713
-0.302054
-0.299367
-0.296671
-0.293978
-0.291286
-0.288583
-0.28585
-0.283057
-0.280174
-0.277168
-0.274009
-0.270672
-0.267137
-0.263396
-0.259407
-0.25529
-0.250472
-0.247084
-0.321163
-0.31902
-0.317033
-0.314777
-0.312303
-0.309688
-0.306976
-0.304207
-0.30141
-0.298605
-0.295798
-0.292984
-0.290147
-0.287262
-0.284298
-0.281222
-0.277998
-0.274599
-0.271001
-0.267188
-0.263156
-0.258877
-0.254457
-0.249425
-0.245593
-0.324308
-0.321992
-0.319877
-0.317494
-0.314895
-0.31216
-0.309332
-0.30645
-0.303542
-0.300622
-0.297695
-0.29475
-0.291767
-0.288718
-0.285568
-0.28228
-0.278823
-0.275167
-0.271294
-0.267194
-0.26287
-0.258302
-0.253592
-0.248352
-0.244126
-0.327567
-0.325072
-0.322826
-0.320313
-0.317587
-0.31473
-0.311784
-0.308786
-0.305762
-0.302723
-0.299668
-0.296582
-0.293441
-0.290213
-0.286859
-0.283344
-0.279635
-0.275707
-0.271548
-0.267154
-0.262533
-0.257681
-0.252692
-0.247248
-0.242675
-0.330941
-0.328261
-0.325879
-0.323233
-0.320378
-0.317397
-0.314331
-0.311215
-0.308071
-0.304906
-0.301715
-0.298477
-0.295165
-0.291741
-0.288166
-0.284405
-0.280427
-0.276214
-0.271758
-0.267063
-0.262146
-0.257013
-0.251754
-0.246112
-0.241229
-0.334429
-0.331557
-0.329036
-0.326256
-0.32327
-0.320164
-0.316976
-0.313738
-0.310469
-0.307171
-0.303833
-0.300431
-0.296932
-0.293295
-0.289482
-0.285457
-0.281195
-0.276682
-0.271919
-0.266918
-0.261704
-0.256295
-0.250776
-0.244941
-0.239779
-0.338031
-0.334961
-0.332299
-0.329382
-0.326263
-0.323029
-0.319716
-0.316353
-0.312953
-0.309514
-0.306019
-0.302439
-0.298736
-0.294869
-0.290798
-0.286492
-0.281929
-0.277104
-0.272025
-0.266715
-0.261206
-0.255524
-0.249755
-0.24373
-0.238316
-0.341745
-0.33847
-0.335664
-0.332609
-0.329355
-0.325992
-0.322552
-0.319059
-0.315521
-0.311932
-0.308268
-0.304495
-0.300571
-0.296455
-0.292108
-0.287501
-0.282623
-0.277474
-0.272074
-0.266452
-0.260649
-0.2547
-0.248688
-0.242476
-0.236831
-0.345568
-0.342084
-0.339132
-0.335937
-0.332547
-0.329053
-0.325482
-0.321854
-0.318172
-0.314421
-0.310574
-0.306592
-0.302429
-0.298044
-0.293401
-0.288478
-0.28327
-0.277787
-0.272059
-0.266124
-0.26003
-0.253818
-0.247571
-0.241177
-0.235318
-0.349498
-0.3458
-0.3427
-0.339363
-0.335836
-0.332208
-0.328503
-0.324735
-0.320899
-0.316976
-0.312932
-0.308722
-0.304301
-0.299627
-0.294669
-0.289413
-0.283862
-0.278037
-0.271977
-0.265728
-0.259345
-0.252876
-0.246401
-0.239827
-0.23377
-0.353531
-0.349614
-0.346364
-0.342886
-0.33922
-0.335457
-0.331614
-0.327698
-0.3237
-0.319591
-0.315332
-0.310877
-0.306177
-0.301194
-0.295903
-0.290298
-0.284392
-0.278218
-0.271822
-0.26526
-0.258593
-0.251872
-0.245175
-0.238425
-0.232179
-0.357662
-0.353523
-0.350123
-0.346501
-0.342696
-0.338795
-0.334809
-0.330739
-0.326567
-0.322258
-0.317768
-0.313047
-0.308048
-0.302736
-0.297094
-0.291125
-0.284853
-0.278323
-0.27159
-0.264718
-0.25777
-0.250802
-0.243888
-0.236966
-0.230541
-0.361887
-0.357523
-0.353971
-0.350206
-0.346261
-0.342219
-0.338085
-0.333851
-0.329493
-0.324969
-0.320229
-0.315222
-0.309902
-0.304241
-0.29823
-0.291884
-0.285239
-0.278348
-0.271278
-0.264097
-0.256872
-0.249663
-0.242539
-0.235447
-0.228851
-0.366199
-0.361607
-0.357904
-0.353995
-0.349908
-0.345722
-0.341435
-0.337029
-0.332471
-0.327715
-0.322705
-0.31739
-0.311729
-0.305699
-0.299304
-0.292568
-0.285541
-0.278287
-0.27088
-0.263393
-0.255898
-0.248452
-0.241123
-0.233865
-0.227103
-0.370592
-0.36577
-0.361915
-0.357863
-0.353633
-0.3493
-0.344852
-0.340263
-0.335492
-0.330485
-0.325185
-0.319541
-0.313516
-0.3071
-0.300304
-0.293168
-0.285754
-0.278135
-0.270392
-0.262604
-0.254843
-0.247166
-0.239637
-0.232216
-0.225293
-0.375057
-0.370004
-0.365999
-0.361804
-0.357429
-0.352945
-0.348328
-0.343544
-0.338544
-0.333268
-0.327657
-0.321661
-0.315253
-0.308431
-0.301221
-0.293677
-0.285871
-0.277886
-0.269811
-0.261726
-0.253704
-0.245802
-0.238078
-0.230497
-0.223418
-0.379586
-0.374302
-0.370147
-0.365809
-0.361288
-0.356648
-0.351855
-0.346864
-0.341618
-0.336052
-0.330107
-0.323738
-0.316926
-0.309682
-0.302046
-0.294085
-0.285884
-0.277535
-0.269131
-0.260755
-0.252478
-0.244356
-0.236442
-0.228705
-0.221473
-0.374352
-0.369871
-0.365202
-0.360401
-0.355422
-0.35021
-0.3447
-0.338823
-0.332522
-0.325758
-0.318523
-0.310841
-0.302769
-0.294386
-0.285789
-0.277078
-0.268349
-0.259687
-0.251161
-0.242826
-0.234725
-0.226837
-0.219455
-0.369161
-0.364193
-0.359018
-0.35357
-0.347777
-0.341568
-0.334888
-0.327708
-0.320031
-0.311898
-0.30338
-0.294571
-0.285578
-0.276508
-0.26746
-0.258518
-0.24975
-0.241206
-0.232926
-0.224889
-0.217361
-0.35693
-0.350835
-0.344272
-0.337191
-0.329573
-0.321438
-0.312841
-0.30387
-0.294633
-0.285246
-0.275821
-0.26646
-0.257245
-0.248241
-0.239495
-0.231039
-0.222857
-0.215186
-0.339414
-0.33134
-0.32273
-0.31366
-0.304231
-0.294565
-0.284787
-0.275013
-0.265345
-0.255864
-0.246631
-0.237688
-0.229062
-0.220739
-0.212929
-0.314343
-0.304453
-0.29436
-0.284194
-0.274078
-0.26411
-0.254371
-0.244915
-0.235781
-0.226991
-0.218532
-0.210585
-0.273011
-0.262752
-0.252761
-0.24309
-0.233772
-0.224823
-0.216232
-0.208152
-0.231656
-0.222553
-0.213836
-0.205627
-0.241162
-0.231665
-0.222562
-0.213844
-0.205634
-0.283474
-0.273021
-0.262762
-0.252771
-0.2431
-0.233781
-0.224831
-0.21624
-0.20816
-0.314356
-0.304466
-0.294372
-0.284206
-0.274089
-0.264121
-0.254381
-0.244925
-0.235791
-0.227
-0.21854
-0.210593
-0.346933
-0.339429
-0.331354
-0.322744
-0.313673
-0.304244
-0.294577
-0.284799
-0.275024
-0.265356
-0.255874
-0.246641
-0.237697
-0.229071
-0.220748
-0.212937
-0.362646
-0.356946
-0.35085
-0.344287
-0.337205
-0.329587
-0.321452
-0.312854
-0.303883
-0.294646
-0.285258
-0.275833
-0.266471
-0.257256
-0.248251
-0.239504
-0.231048
-0.222866
-0.215194
-0.369177
-0.364209
-0.359034
-0.353585
-0.347792
-0.341583
-0.334903
-0.327722
-0.320045
-0.311911
-0.303393
-0.294584
-0.28559
-0.27652
-0.267471
-0.258529
-0.24976
-0.241216
-0.232935
-0.224897
-0.217369
-0.378671
-0.374368
-0.369887
-0.365218
-0.360417
-0.355438
-0.350226
-0.344715
-0.338839
-0.332537
-0.325773
-0.318537
-0.310855
-0.302782
-0.294399
-0.285801
-0.27709
-0.26836
-0.259698
-0.251172
-0.242835
-0.234735
-0.226846
-0.219464
-0.379603
-0.374318
-0.370164
-0.365825
-0.361304
-0.356664
-0.351871
-0.34688
-0.341633
-0.336067
-0.330122
-0.323753
-0.31694
-0.309696
-0.302059
-0.294098
-0.285897
-0.277548
-0.269143
-0.260766
-0.252489
-0.244366
-0.236451
-0.228714
-0.221482
-0.375074
-0.37002
-0.366015
-0.36182
-0.357445
-0.352961
-0.348344
-0.34356
-0.33856
-0.333284
-0.327672
-0.321676
-0.315267
-0.308445
-0.301235
-0.29369
-0.285883
-0.277899
-0.269823
-0.261737
-0.253715
-0.245812
-0.238087
-0.230506
-0.223427
-0.370609
-0.365786
-0.361932
-0.357879
-0.353649
-0.349316
-0.344868
-0.340278
-0.335508
-0.330501
-0.3252
-0.319556
-0.313531
-0.307114
-0.300318
-0.293182
-0.285767
-0.278148
-0.270404
-0.262616
-0.254854
-0.247177
-0.239647
-0.232225
-0.225302
-0.366216
-0.361623
-0.35792
-0.354011
-0.349924
-0.345738
-0.341451
-0.337044
-0.332487
-0.327731
-0.322721
-0.317405
-0.311744
-0.305714
-0.299318
-0.292582
-0.285554
-0.2783
-0.270892
-0.263405
-0.255909
-0.248463
-0.241133
-0.233874
-0.227112
-0.361904
-0.357539
-0.353987
-0.350222
-0.346277
-0.342235
-0.338101
-0.333867
-0.329509
-0.324985
-0.320245
-0.315237
-0.309917
-0.304256
-0.298244
-0.291898
-0.285252
-0.278361
-0.27129
-0.264109
-0.256884
-0.249674
-0.242549
-0.235457
-0.22886
-0.357679
-0.35354
-0.350139
-0.346517
-0.342713
-0.338811
-0.334825
-0.330755
-0.326582
-0.322274
-0.317784
-0.313062
-0.308063
-0.30275
-0.297108
-0.291139
-0.284867
-0.278336
-0.271603
-0.26473
-0.257781
-0.250813
-0.243899
-0.236976
-0.230551
-0.353547
-0.34963
-0.346381
-0.342902
-0.339237
-0.335473
-0.33163
-0.327714
-0.323715
-0.319607
-0.315348
-0.310892
-0.306192
-0.301209
-0.295918
-0.290312
-0.284406
-0.278231
-0.271835
-0.265273
-0.258605
-0.251883
-0.245186
-0.238435
-0.232189
-0.349515
-0.345816
-0.342716
-0.339379
-0.335852
-0.332225
-0.328519
-0.324751
-0.320915
-0.316992
-0.312947
-0.308737
-0.304316
-0.299642
-0.294684
-0.289427
-0.283876
-0.278051
-0.27199
-0.26574
-0.259357
-0.252888
-0.246412
-0.239838
-0.23378
-0.345585
-0.3421
-0.339148
-0.335953
-0.332563
-0.329069
-0.325498
-0.321869
-0.318187
-0.314437
-0.31059
-0.306607
-0.302444
-0.298059
-0.293416
-0.288492
-0.283284
-0.277801
-0.272072
-0.266137
-0.260042
-0.25383
-0.247583
-0.241187
-0.235329
-0.341761
-0.338487
-0.335681
-0.332625
-0.329372
-0.326008
-0.322568
-0.319074
-0.315537
-0.311948
-0.308284
-0.30451
-0.300587
-0.29647
-0.292122
-0.287516
-0.282637
-0.277488
-0.272087
-0.266465
-0.260662
-0.254712
-0.2487
-0.242487
-0.236842
-0.338048
-0.334977
-0.332315
-0.329398
-0.326279
-0.323045
-0.319732
-0.316368
-0.312968
-0.30953
-0.306035
-0.302455
-0.298752
-0.294884
-0.290813
-0.286506
-0.281943
-0.277118
-0.272039
-0.266729
-0.261219
-0.255537
-0.249767
-0.243741
-0.238326
-0.334446
-0.331573
-0.329053
-0.326273
-0.323286
-0.32018
-0.316991
-0.313754
-0.310484
-0.307187
-0.303849
-0.300447
-0.296947
-0.29331
-0.289497
-0.285472
-0.281209
-0.276696
-0.271933
-0.266931
-0.261717
-0.256307
-0.250788
-0.244952
-0.23979
-0.330957
-0.328277
-0.325895
-0.323249
-0.320394
-0.317413
-0.314347
-0.311231
-0.308087
-0.304922
-0.301731
-0.298493
-0.29518
-0.291756
-0.288181
-0.28442
-0.280442
-0.276229
-0.271772
-0.267077
-0.262159
-0.257026
-0.251766
-0.246124
-0.24124
-0.327583
-0.325089
-0.322842
-0.320329
-0.317603
-0.314746
-0.3118
-0.308802
-0.305778
-0.302739
-0.299684
-0.296598
-0.293457
-0.290228
-0.286874
-0.283359
-0.27965
-0.275722
-0.271563
-0.267168
-0.262547
-0.257695
-0.252704
-0.24726
-0.242686
-0.324324
-0.322008
-0.319893
-0.31751
-0.314911
-0.312176
-0.309348
-0.306466
-0.303557
-0.300638
-0.297711
-0.294766
-0.291783
-0.288734
-0.285583
-0.282296
-0.278838
-0.275182
-0.271309
-0.267209
-0.262884
-0.258316
-0.253605
-0.248364
-0.244138
-0.32118
-0.319036
-0.317049
-0.314793
-0.312319
-0.309704
-0.306992
-0.304222
-0.301426
-0.298621
-0.295814
-0.293
-0.290163
-0.287278
-0.284314
-0.281237
-0.278014
-0.274614
-0.271016
-0.267202
-0.263171
-0.258891
-0.25447
-0.249438
-0.245605
-0.31815
-0.316171
-0.314308
-0.312176
-0.309824
-0.307327
-0.304729
-0.30207
-0.299383
-0.296687
-0.293994
-0.291302
-0.288599
-0.285865
-0.283073
-0.28019
-0.277184
-0.274025
-0.270688
-0.267152
-0.263411
-0.259421
-0.255303
-0.250485
-0.247097
-0.315233
-0.313412
-0.31167
-0.309657
-0.307426
-0.305045
-0.302558
-0.300008
-0.297426
-0.294837
-0.292252
-0.289674
-0.287096
-0.284501
-0.281865
-0.279159
-0.276353
-0.273419
-0.270329
-0.267061
-0.263605
-0.259907
-0.256104
-0.251507
-0.248624
-0.312429
-0.310758
-0.309131
-0.307236
-0.305122
-0.302854
-0.300478
-0.298034
-0.295556
-0.293069
-0.290587
-0.288117
-0.285655
-0.283187
-0.280694
-0.27815
-0.275529
-0.272801
-0.269943
-0.266932
-0.263755
-0.260349
-0.256874
-0.252506
-0.250196
-0.309735
-0.308208
-0.306692
-0.30491
-0.30291
-0.300754
-0.298486
-0.296146
-0.293769
-0.291381
-0.288999
-0.286631
-0.284277
-0.281927
-0.279564
-0.277168
-0.274714
-0.272178
-0.269536
-0.266767
-0.263862
-0.260746
-0.257612
-0.253481
-0.251821
-0.30715
-0.305758
-0.304349
-0.302677
-0.300787
-0.29874
-0.296578
-0.294341
-0.292064
-0.289773
-0.287487
-0.285216
-0.282963
-0.280721
-0.278478
-0.276216
-0.273915
-0.271552
-0.26911
-0.26657
-0.263926
-0.261098
-0.258316
-0.254432
-0.253506
-0.304671
-0.303407
-0.3021
-0.300534
-0.298753
-0.296812
-0.294754
-0.292618
-0.290438
-0.288241
-0.286048
-0.283871
-0.281713
-0.279572
-0.277438
-0.275298
-0.273134
-0.270929
-0.26867
-0.266341
-0.263946
-0.261401
-0.258981
-0.255355
-0.255255
-0.302295
-0.301152
-0.299943
-0.29848
-0.296802
-0.294965
-0.293009
-0.290972
-0.288888
-0.286784
-0.284681
-0.282593
-0.280526
-0.278479
-0.276446
-0.274416
-0.272376
-0.270313
-0.268218
-0.266083
-0.263923
-0.261652
-0.259602
-0.256247
-0.257068
-0.300021
-0.298991
-0.297875
-0.29651
-0.294934
-0.293198
-0.291341
-0.289401
-0.287411
-0.285398
-0.283384
-0.281382
-0.279402
-0.277443
-0.275503
-0.273572
-0.271643
-0.269706
-0.267758
-0.265799
-0.263854
-0.261846
-0.26017
-0.2571
-0.297844
-0.29692
-0.295894
-0.294623
-0.293144
-0.291507
-0.289747
-0.287902
-0.286004
-0.284081
-0.282153
-0.280235
-0.278338
-0.276462
-0.274608
-0.272768
-0.270937
-0.269111
-0.267292
-0.265488
-0.263739
-0.261978
-0.260672
-0.295761
-0.294938
-0.293996
-0.292815
-0.291431
-0.289888
-0.288224
-0.286472
-0.284664
-0.282828
-0.280985
-0.27915
-0.277332
-0.275536
-0.273761
-0.272004
-0.270261
-0.268532
-0.266823
-0.265152
-0.263575
-0.26204
-0.29377
-0.29304
-0.292178
-0.291083
-0.28979
-0.28834
-0.286768
-0.285107
-0.283388
-0.281638
-0.279878
-0.278123
-0.276383
-0.274662
-0.272963
-0.271281
-0.269616
-0.26797
-0.266353
-0.264793
-0.26336
-0.262024
-0.291867
-0.291224
-0.290437
-0.289425
-0.288219
-0.286859
-0.285376
-0.283804
-0.282173
-0.280507
-0.278828
-0.277151
-0.275487
-0.273839
-0.27221
-0.270598
-0.269003
-0.267427
-0.265886
-0.264413
-0.263092
-0.290048
-0.289486
-0.288771
-0.287837
-0.286715
-0.285441
-0.284045
-0.28256
-0.281014
-0.279431
-0.277832
-0.276232
-0.274641
-0.273064
-0.271502
-0.269955
-0.268421
-0.266905
-0.265423
-0.264013
-0.28831
-0.287823
-0.287175
-0.286317
-0.285275
-0.284083
-0.282772
-0.281372
-0.279909
-0.278407
-0.276887
-0.275362
-0.273843
-0.272334
-0.270837
-0.26935
-0.267872
-0.266405
-0.264967
-0.263596
-0.286649
-0.286232
-0.285648
-0.28486
-0.283895
-0.282784
-0.281554
-0.280236
-0.278854
-0.277432
-0.275989
-0.274538
-0.273089
-0.271646
-0.270211
-0.268781
-0.267353
-0.265929
-0.264521
-0.285061
-0.284709
-0.284184
-0.283464
-0.282573
-0.281538
-0.280388
-0.279149
-0.277846
-0.276502
-0.275134
-0.273755
-0.272375
-0.270998
-0.269623
-0.268247
-0.266865
-0.265476
-0.283543
-0.28325
-0.282783
-0.282127
-0.281305
-0.280344
-0.27927
-0.278108
-0.276882
-0.275613
-0.274319
-0.273011
-0.271698
-0.270384
-0.269068
-0.267744
-0.266406
-0.265048
-0.282091
-0.281854
-0.281439
-0.280844
-0.280089
-0.279199
-0.278198
-0.27711
-0.275959
-0.274764
-0.273541
-0.272302
-0.271055
-0.269803
-0.268544
-0.267271
-0.265974
-0.280702
-0.280516
-0.280151
-0.279613
-0.278922
-0.2781
-0.277169
-0.276153
-0.275074
-0.273949
-0.272796
-0.271625
-0.270442
-0.269251
-0.268047
-0.266824
-0.265567
-0.279372
-0.279234
-0.278915
-0.278432
-0.277801
-0.277043
-0.27618
-0.275233
-0.274223
-0.273168
-0.272082
-0.270976
-0.269856
-0.268724
-0.267575
-0.2664
-0.278097
-0.278004
-0.277729
-0.277297
-0.276724
-0.276028
-0.275229
-0.274348
-0.273405
-0.272417
-0.271396
-0.270353
-0.269294
-0.268219
-0.267123
-0.276875
-0.276823
-0.27659
-0.276206
-0.275687
-0.27505
-0.274313
-0.273496
-0.272617
-0.271692
-0.270735
-0.269754
-0.268753
-0.267734
-0.26669
-0.275703
-0.275689
-0.275494
-0.275156
-0.274689
-0.274108
-0.27343
-0.272673
-0.271856
-0.270993
-0.270097
-0.269174
-0.268231
-0.267265
-0.274577
-0.274599
-0.27444
-0.274146
-0.273728
-0.273199
-0.272577
-0.271879
-0.271121
-0.270317
-0.269479
-0.268613
-0.267725
-0.266811
-0.273494
-0.27355
-0.273426
-0.273172
-0.2728
-0.272322
-0.271754
-0.271111
-0.27041
-0.269662
-0.26888
-0.268069
-0.267233
-0.272453
-0.27254
-0.272448
-0.272233
-0.271905
-0.271475
-0.270957
-0.270368
-0.26972
-0.269027
-0.268298
-0.267539
-0.266754
-0.27145
-0.271566
-0.271505
-0.271326
-0.27104
-0.270655
-0.270186
-0.269647
-0.269051
-0.268409
-0.267731
-0.267023
-0.270483
-0.270627
-0.270595
-0.27045
-0.270204
-0.269862
-0.269439
-0.268948
-0.268401
-0.267809
-0.26718
-0.266519
-0.26955
-0.269721
-0.269715
-0.269604
-0.269394
-0.269094
-0.268714
-0.268269
-0.267768
-0.267223
-0.266641
-0.266027
-0.268649
-0.268845
-0.268865
-0.268784
-0.26861
-0.268349
-0.268011
-0.267609
-0.267153
-0.266653
-0.266115
-0.267778
-0.267998
-0.268043
-0.267991
-0.267851
-0.267626
-0.267327
-0.266967
-0.266553
-0.266096
-0.265602
-0.266935
-0.267179
-0.267247
-0.267223
-0.267114
-0.266924
-0.266663
-0.266342
-0.265969
-0.265553
-0.266119
-0.266385
-0.266475
-0.266478
-0.266399
-0.266243
-0.266017
-0.265733
-0.265399
-0.265023
-0.265328
-0.265616
-0.265727
-0.265755
-0.265705
-0.26558
-0.265389
-0.265141
-0.264843
-0.264504
-0.264562
-0.264871
-0.265002
-0.265054
-0.265032
-0.264937
-0.264778
-0.264563
-0.264301
-0.263818
-0.264147
-0.264299
-0.264373
-0.264377
-0.264311
-0.264183
-0.264001
-0.263773
-0.263096
-0.263446
-0.263616
-0.263713
-0.263741
-0.263702
-0.263603
-0.263452
-0.263257
-0.262395
-0.262765
-0.262953
-0.263071
-0.263123
-0.26311
-0.263039
-0.262918
-0.261714
-0.262103
-0.262309
-0.262448
-0.262523
-0.262535
-0.262491
-0.262398
-0.261052
-0.261462
-0.261685
-0.261842
-0.261939
-0.261975
-0.261957
-0.261891
-0.26041
-0.260839
-0.261078
-0.261255
-0.261373
-0.261431
-0.261437
-0.261397
-0.259786
-0.260234
-0.26049
-0.260685
-0.260823
-0.260903
-0.260932
-0.25918
-0.259648
-0.25992
-0.260132
-0.260289
-0.26039
-0.260442
-0.258593
-0.25908
-0.259367
-0.259596
-0.259772
-0.259893
-0.259966
-0.258023
-0.258529
-0.258832
-0.259077
-0.259271
-0.259411
-0.257471
-0.257996
-0.258314
-0.258576
-0.258787
-0.258945
-0.256937
-0.257482
-0.257814
-0.258091
-0.258318
-0.258494
-0.256422
-0.256985
-0.257332
-0.257623
-0.257867
-0.258059
-0.255924
-0.256506
-0.256867
-0.257173
-0.257432
-0.25764
-0.255445
-0.256046
-0.256421
-0.256741
-0.257014
-0.254985
-0.255605
-0.255993
-0.256326
-0.256613
-0.254545
-0.255183
-0.255584
-0.25593
-0.25623
-0.254125
-0.254781
-0.255194
-0.255553
-0.255866
-0.253725
-0.254398
-0.254823
-0.255194
-0.255519
-0.253346
-0.254037
-0.254473
-0.254855
-0.255191
-0.252988
-0.253696
-0.254143
-0.254536
-0.254883
-0.252653
-0.253377
-0.253835
-0.254238
-0.252341
-0.253079
-0.253547
-0.25396
-0.252052
-0.252805
-0.253282
-0.253703
-0.251788
-0.252553
-0.253039
-0.253468
-0.251547
-0.252325
-0.252819
-0.253255
-0.251333
-0.252121
-0.252622
-0.253065
-0.251143
-0.251942
-0.252449
-0.252898
-0.25098
-0.251787
-0.2523
-0.252754
-0.250843
-0.251658
-0.252175
-0.252633
-0.250734
-0.251554
-0.252075
-0.252536
-0.250651
-0.251476
-0.251999
-0.252463
-0.250596
-0.251423
-0.251949
-0.252415
-0.250568
-0.251397
-0.251924
-0.25239
-0.194992
-0.197585
-0.200097
-0.202527
-0.204878
-0.207153
-0.209351
-0.211475
-0.213526
-0.215506
-0.217414
-0.219251
-0.221019
-0.222717
-0.224346
-0.225907
-0.227399
-0.228824
-0.230182
-0.231475
-0.232705
-0.233876
-0.234993
-0.236061
-0.237088
-0.238085
-0.239064
-0.24004
-0.241033
-0.183291
-0.18593
-0.188501
-0.191006
-0.193447
-0.195825
-0.198142
-0.200401
-0.202603
-0.204749
-0.206842
-0.208884
-0.210878
-0.212825
-0.214729
-0.216593
-0.21842
-0.220213
-0.221979
-0.22372
-0.225444
-0.227157
-0.228867
-0.230581
-0.232309
-0.234061
-0.235848
-0.237682
-0.239575
-0.172543
-0.175191
-0.177783
-0.180322
-0.182809
-0.185244
-0.187631
-0.189969
-0.192262
-0.19451
-0.196715
-0.19888
-0.201005
-0.203094
-0.205147
-0.207168
-0.209159
-0.211122
-0.21306