/*--------------------------------*- C++ -*----------------------------------*\
  =========                 |
  \\      /  F ield         | OpenFOAM: The Open Source CFD Toolbox
   \\    /   O peration     | Website:  https://openfoam.org
    \\  /    A nd           | Version:  7
     \\/     M anipulation  |
\*---------------------------------------------------------------------------*/
FoamFile
{
    version     2.0;
    format      ascii;
    class       surfaceScalarField;
    location    "240";
    object      phi;
}
// * * * * * * * * * * * * * * * * * * * * * * * * * * * * * * * * * * * * * //

dimensions      [0 3 -1 0 0 0 0];

internalField   nonuniform List<scalar> 
72657
(
-1.68804e-06
-1.54487e-05
1.71367e-05
-6.16302e-06
-3.08039e-05
3.52789e-05
-1.30625e-05
-3.32845e-05
4.0184e-05
-2.20906e-05
-2.46825e-05
3.37107e-05
-3.30135e-05
-6.89581e-06
1.78187e-05
-4.56513e-05
1.82115e-05
-5.5736e-06
-5.98666e-05
4.89294e-05
-3.47141e-05
-7.55506e-05
8.38367e-05
-6.81526e-05
-9.26125e-05
0.000121905
-0.000104843
-0.00011097
0.000162555
-0.000144197
-0.000130549
0.00020566
-0.000186081
-0.000151284
0.000251498
-0.000230763
-0.000173124
0.000300672
-0.000278833
-0.000196042
0.000354028
-0.00033111
-0.000220039
0.000412572
-0.000388575
-0.000245143
0.000477426
-0.000452322
-0.0002714
0.00054981
-0.000523552
-0.000298863
0.00063103
-0.000603567
-0.000327553
0.000722435
-0.000693744
0.000825597
-0.000795697
-0.000357453
-1.62047e-06
-1.38282e-05
-5.90456e-06
-2.65198e-05
-1.24937e-05
-2.66954e-05
-2.10969e-05
-1.60793e-05
-3.14859e-05
3.49318e-06
-4.34871e-05
3.02127e-05
-5.69691e-05
6.24113e-05
-7.18282e-05
9.86958e-05
-8.79755e-05
0.000138052
-0.000105327
0.000179907
-0.0001238
0.000224133
-0.000143313
0.000271011
-0.000163791
0.00032115
-0.000185173
0.00037541
-0.000207416
0.000434814
-0.000230492
0.000500503
-0.000254385
0.000573703
-0.000279074
0.000655719
-0.000304508
0.000747869
0.000851675
-0.000330586
-1.54318e-06
-1.2285e-05
-5.61217e-06
-2.24508e-05
-1.18547e-05
-2.04529e-05
-1.99858e-05
-7.94816e-06
-2.97829e-05
1.32903e-05
-4.10779e-05
4.15077e-05
-5.37443e-05
7.50778e-05
-6.76819e-05
0.000112633
-8.28022e-05
0.000153173
-9.90173e-05
0.000196122
-0.000116233
0.000241349
-0.000134351
0.000289128
-0.000153268
0.000340067
-0.000172885
0.000395027
-0.00019311
0.000455039
-0.000213858
0.000521251
-0.000235045
0.00059489
-0.000256577
0.000677251
-0.000278329
0.000769621
0.000873464
-0.000300119
-1.4579e-06
-1.08271e-05
-5.29193e-06
-1.86168e-05
-1.1158e-05
-1.45869e-05
-1.87778e-05
-3.28311e-07
-2.79339e-05
2.24464e-05
-3.8463e-05
5.20367e-05
-5.02422e-05
8.6857e-05
-6.31731e-05
0.000125564
-7.71658e-05
0.000167165
-9.21265e-05
0.000211083
-0.000107949
0.000257172
-0.000124514
0.000305693
-0.000141688
0.000357242
-0.000159334
0.000412672
-0.000177306
0.000473012
-0.000195461
0.000539406
-0.000213643
0.000613072
-0.000231685
0.000695294
-0.000249391
0.000787327
0.00089057
-0.000266497
-1.36655e-06
-9.46059e-06
-4.9504e-06
-1.50329e-05
-1.04168e-05
-9.12057e-06
-1.74944e-05
6.74934e-06
-2.59703e-05
3.09223e-05
-3.56845e-05
6.1751e-05
-4.65164e-05
9.76888e-05
-5.83675e-05
0.000137415
-7.11451e-05
0.000179943
-8.47479e-05
0.000224686
-9.90562e-05
0.00027148
-0.000113928
0.000320565
-0.0001292
0.000372514
-0.000144691
0.000428163
-0.000160206
0.000488527
-0.000175537
0.000554736
-0.000190459
0.000627994
-0.000204732
0.000709567
-0.00021809
0.000800684
0.000902673
-0.000230192
-1.27107e-06
-8.18951e-06
-4.59432e-06
-1.17097e-05
-9.64481e-06
-4.07008e-06
-1.61578e-05
1.32624e-05
-2.39244e-05
3.86888e-05
-3.27862e-05
7.06128e-05
-4.26229e-05
0.000107526
-5.33347e-05
0.000148127
-6.4824e-05
0.000191432
-7.69807e-05
0.000236842
-8.96704e-05
0.00028417
-0.000102729
0.000333623
-0.00011596
0.000385745
-0.000129141
0.000441344
-0.000142023
0.00050141
-0.000154337
0.00056705
-0.00016579
0.000639447
-0.000176068
0.000719845
-0.000184843
0.000809459
0.000909526
-0.000191696
-1.17349e-06
-7.01602e-06
-4.23058e-06
-8.65261e-06
-8.85605e-06
5.55388e-07
-1.47911e-05
1.91974e-05
-2.18295e-05
4.57272e-05
-2.98133e-05
7.85966e-05
-3.86204e-05
0.000116333
-4.81472e-05
0.000157654
-5.82903e-05
0.000201575
-6.89295e-05
0.000247481
-7.99148e-05
0.000295155
-9.10587e-05
0.000344767
-0.000102134
0.00039682
-0.000112875
0.000452085
-0.000122983
0.000511517
-0.000132126
0.000576193
-0.000139944
0.000647265
-0.000146057
0.000725959
-0.000150079
0.000813481
0.00091096
-0.000151513
-1.07573e-06
-5.9403e-06
-3.86601e-06
-5.86233e-06
-8.06445e-06
4.75383e-06
-1.34171e-05
2.455e-05
-1.97195e-05
5.20296e-05
-2.68119e-05
8.56889e-05
-3.45683e-05
0.000124089
-4.28796e-05
0.000165965
-5.16348e-05
0.000210331
-6.07026e-05
0.000256549
-6.99171e-05
0.00030437
-7.90679e-05
0.000353917
-8.78966e-05
0.000405649
-9.6097e-05
0.000460285
-0.000103319
0.000518739
-0.000109174
0.000582048
-0.000113237
0.000651329
-0.000115067
0.000727789
-0.000114234
0.000812648
0.000906882
-0.000110157
-9.79604e-07
-4.96069e-06
-3.5071e-06
-3.33483e-06
-7.28395e-06
8.53068e-06
-1.2059e-05
2.93251e-05
-1.76284e-05
5.7599e-05
-2.38284e-05
9.18889e-05
-3.05269e-05
0.000130788
-3.76076e-05
0.000173046
-4.495e-05
0.000217673
-5.24111e-05
0.00026401
-5.98085e-05
0.000311767
-6.69096e-05
0.000361019
-7.3426e-05
0.000412165
-7.90126e-05
0.000465872
-8.32714e-05
0.000522998
-8.57574e-05
0.000584534
-8.59883e-05
0.00065156
-8.3466e-05
0.000725267
-7.77451e-05
0.000806927
0.000897291
-6.81537e-05
-8.86837e-07
-4.07386e-06
-3.16013e-06
-1.06154e-06
-6.52767e-06
1.18982e-05
-1.07395e-05
3.35369e-05
-1.55896e-05
6.24491e-05
-2.09085e-05
9.72078e-05
-2.65561e-05
0.000136435
-3.24065e-05
0.000178896
-3.83288e-05
0.000223595
-4.41669e-05
0.000269848
-4.97221e-05
0.000317322
-5.47402e-05
0.000366037
-5.89041e-05
0.000416329
-6.18325e-05
0.0004688
-6.3082e-05
0.000524248
-6.21555e-05
0.000583607
-5.85144e-05
0.000647919
-5.16028e-05
0.000718355
-4.10202e-05
0.000796344
0.000882446
-2.61752e-05
-7.99087e-07
-3.27477e-06
-2.83115e-06
9.70526e-07
-5.80842e-06
1.48755e-05
-9.48006e-06
3.72086e-05
-1.36353e-05
6.66044e-05
-1.80967e-05
0.000101669
-2.27141e-05
0.000141053
-2.73505e-05
0.000183533
-3.18628e-05
0.000228108
-3.60812e-05
0.000274067
-3.97906e-05
0.000321032
-4.2716e-05
0.000368962
-4.45136e-05
0.000418127
-4.47681e-05
0.000469055
-4.29945e-05
0.000522474
-3.86465e-05
0.000579259
-3.11346e-05
0.000640407
-1.9819e-05
0.00070704
-3.85445e-06
0.00078038
0.000862724
1.58677e-05
-7.17991e-07
-2.55678e-06
-2.5258e-06
2.77833e-06
-5.13814e-06
1.74878e-05
-8.3007e-06
4.03712e-05
-1.17956e-05
7.00993e-05
-1.5435e-05
0.000105309
-1.90567e-05
0.000144674
-2.2511e-05
0.000186987
-2.56412e-05
0.000231238
-2.82629e-05
0.000276689
-3.01446e-05
0.000322914
-3.09916e-05
0.000369809
-3.04353e-05
0.000417571
-2.8029e-05
0.000466648
-2.32504e-05
0.000517695
-1.55078e-05
0.000571516
-4.1653e-06
0.000629064
1.14195e-05
0.000691455
3.17382e-05
0.000760061
0.00083699
5.74717e-05
-6.45093e-07
-1.91169e-06
-2.24947e-06
4.38271e-06
-4.52768e-06
1.9766e-05
-7.21985e-06
4.30633e-05
-1.00982e-05
7.29776e-05
-1.29623e-05
0.000108173
-1.56362e-05
0.000147348
-1.79555e-05
0.000189306
-1.97487e-05
0.000233031
-2.08162e-05
0.000277756
-2.09102e-05
0.000323007
-1.97169e-05
0.000368616
-1.68452e-05
0.000414699
-1.18199e-05
0.000461623
-4.08199e-06
0.000509958
6.99242e-06
0.000560442
2.20887e-05
0.000613968
4.18844e-05
0.000671659
6.69508e-05
0.000734995
0.000806158
9.77828e-05
-5.81748e-07
-1.32994e-06
-2.00691e-06
5.80787e-06
-3.98699e-06
2.17461e-05
-6.25394e-06
4.53303e-05
-8.56778e-06
7.52915e-05
-1.07138e-05
0.000110319
-1.25e-05
0.000149134
-1.3746e-05
0.000190552
-1.4264e-05
0.000233549
-1.38387e-05
0.000277331
-1.2206e-05
0.000321375
-9.03442e-06
0.000365444
-3.91177e-06
0.000409576
3.66229e-06
0.000454049
1.42757e-05
0.000499344
2.85962e-05
0.000546122
4.73407e-05
0.000595224
7.12261e-05
0.000647774
0.000100842
0.000705379
0.000770445
0.000136555
-5.29105e-07
-8.00832e-07
-1.80217e-06
7.08093e-06
-3.52449e-06
2.34684e-05
-5.41718e-06
4.7223e-05
-7.22605e-06
7.71003e-05
-8.72027e-06
0.000111813
-9.69023e-06
0.000150104
-9.93763e-06
0.0001908
-9.25785e-06
0.000232869
-7.41906e-06
0.000275492
-4.14103e-06
0.000318097
9.24382e-07
0.000360379
8.20842e-06
0.000402292
1.82344e-05
0.000444023
3.16187e-05
0.00048596
4.9061e-05
0.000528679
7.1315e-05
0.00057297
9.91283e-05
0.00061996
0.000133095
0.000671412
0.000730089
0.000173451
-4.88073e-07
-3.1276e-07
-1.63846e-06
8.23132e-06
-3.14702e-06
2.4977e-05
-4.72121e-06
4.87972e-05
-6.09078e-06
7.84699e-05
-7.00731e-06
0.000112729
-7.24201e-06
0.000150339
-6.5775e-06
0.000190135
-4.79117e-06
0.000231083
-1.63442e-06
0.000272335
3.18871e-06
0.000313274
1.00423e-05
0.000353525
1.93749e-05
0.00039296
3.17302e-05
0.000431668
4.77499e-05
0.00046994
6.81643e-05
0.000508265
9.3761e-05
0.000547373
0.000125316
0.000588406
0.000163422
0.000633305
0.000685335
0.000208177
-4.593e-07
1.46541e-07
-1.51809e-06
9.29011e-06
-2.85949e-06
2.63184e-05
-4.17487e-06
5.01125e-05
-5.17553e-06
7.94706e-05
-5.59472e-06
0.000113149
-5.18296e-06
0.000149927
-3.70284e-06
0.000188655
-9.1307e-07
0.000228293
3.4518e-06
0.00026797
9.70351e-06
0.000307022
1.82208e-05
0.000345008
2.94678e-05
0.000381713
4.40065e-05
0.000417129
6.25017e-05
0.000451445
8.57127e-05
0.000485054
0.000114461
0.000518625
0.000149551
0.000553316
0.000191577
0.00059128
0.000636417
0.000240494
-4.43178e-07
5.89719e-07
-1.44244e-06
1.02894e-05
-2.66492e-06
2.75409e-05
-3.78344e-06
5.1231e-05
-4.48931e-06
8.01764e-05
-4.49554e-06
0.000113155
-3.53185e-06
0.000148964
-1.33974e-06
0.000186463
2.34106e-06
0.000224612
7.79319e-06
0.000262518
1.53434e-05
0.000299472
2.53842e-05
0.000334967
3.83937e-05
0.000368703
5.49504e-05
0.000400572
7.57402e-05
0.000430655
0.000101551
0.000459243
0.00013324
0.000486936
0.000171646
0.000514909
0.000217368
0.000545558
0.000583556
0.000270229
-4.39851e-07
1.02957e-06
-1.41195e-06
1.12615e-05
-2.56432e-06
2.86933e-05
-3.54892e-06
5.22156e-05
-4.0355e-06
8.0663e-05
-3.71557e-06
0.000112835
-2.29745e-06
0.000147546
4.9843e-07
0.000183667
4.95188e-06
0.000220159
1.13625e-05
0.000256108
2.00715e-05
0.000290763
3.14845e-05
0.000323554
4.60919e-05
0.000354096
6.44867e-05
0.000382178
8.73747e-05
0.000407767
0.000115573
0.000431045
0.000149978
0.000452531
0.000191473
0.000473414
0.000240676
0.000496356
0.000526943
0.000297289
-4.49213e-07
1.47878e-06
-1.42611e-06
1.22384e-05
-2.55645e-06
2.98236e-05
-3.46955e-06
5.31287e-05
-3.8117e-06
8.10052e-05
-3.25226e-06
0.000112275
-1.47785e-06
0.000145771
1.81238e-06
0.000180377
6.9177e-06
0.000215054
1.41545e-05
0.000248871
2.38783e-05
0.000281039
3.65064e-05
0.000310926
5.25405e-05
0.000338062
7.25863e-05
0.000362132
9.73686e-05
0.000382985
0.000127734
0.00040068
0.000164625
0.000415639
0.000208984
0.000429055
0.000261468
0.000443871
0.000466722
0.000321688
-4.70857e-07
1.94964e-06
-1.48332e-06
1.32508e-05
-2.63791e-06
3.09782e-05
-3.53932e-06
5.40301e-05
-3.80968e-06
8.12755e-05
-3.09453e-06
0.00011156
-1.05939e-06
0.000143736
2.61797e-06
0.0001767
8.25633e-06
0.000209415
1.61888e-05
0.000240938
2.67845e-05
0.000270443
4.04721e-05
0.000297238
5.77631e-05
0.000320771
7.92751e-05
0.00034062
0.000105751
0.000356509
0.000138067
0.000368363
0.000177221
0.000376486
0.00022423
0.000382047
0.000279824
0.000388278
0.000402983
0.000343563
-5.04051e-07
2.45369e-06
-1.58082e-06
1.43276e-05
-2.80278e-06
3.22001e-05
-3.74829e-06
5.49756e-05
-4.01433e-06
8.15416e-05
-3.22242e-06
0.000110768
-1.0162e-06
0.00014153
2.9473e-06
0.000172736
9.00657e-06
0.000203356
1.75113e-05
0.000232434
2.88445e-05
0.00025911
4.34454e-05
0.000282637
6.18353e-05
0.000302381
8.46423e-05
0.000317813
0.000112627
0.000328525
0.000146699
0.000334291
0.000187914
0.00033527
0.000237387
0.000332574
0.000295956
0.000329708
0.000335737
0.000363202
-5.47732e-07
3.00142e-06
-1.71467e-06
1.54945e-05
-3.04263e-06
3.35281e-05
-4.08226e-06
5.60153e-05
-4.40451e-06
8.18638e-05
-3.60656e-06
0.00010997
-1.30986e-06
0.000139233
2.84942e-06
0.000168577
9.22928e-06
0.000196976
1.81967e-05
0.000223466
3.01487e-05
0.000247158
4.55362e-05
0.00026725
6.48898e-05
0.000283027
8.88486e-05
0.000293854
0.00011819
0.000299184
0.000153859
0.000298622
0.000196976
0.000292152
0.000248772
0.000280778
0.00031024
0.000268241
0.000264913
0.000381064
-6.00511e-07
3.60193e-06
-1.87977e-06
1.67738e-05
-3.34667e-06
3.4995e-05
-4.52279e-06
5.71914e-05
-4.95265e-06
8.22937e-05
-4.20838e-06
0.000109226
-1.88901e-06
0.000136914
2.39032e-06
0.000164297
9.00788e-06
0.000190359
1.83488e-05
0.000214125
3.08255e-05
0.000234681
4.69018e-05
0.000251174
6.71198e-05
0.000262809
9.21304e-05
0.000268843
0.000122729
0.000268585
0.000159896
0.000261456
0.000204822
0.000247226
0.00025887
0.00022673
0.000323228
0.000203882
0.000190344
0.000397797
-6.6067e-07
4.2626e-06
-2.06992e-06
1.81831e-05
-3.70175e-06
3.66268e-05
-5.04756e-06
5.85372e-05
-5.62485e-06
8.2871e-05
-4.98061e-06
0.000108582
-2.68998e-06
0.000134623
1.65303e-06
0.000159954
8.44795e-06
0.000183564
1.81002e-05
0.000204473
3.10403e-05
0.000221741
4.77481e-05
0.000234466
6.87803e-05
0.000241777
9.48028e-05
0.000242821
0.000126632
0.000236756
0.000165281
0.000222806
0.000212014
0.000200493
0.000268334
0.00017041
0.000335663
0.000136554
0.00011177
0.000414237
-7.26182e-07
4.98879e-06
-2.27783e-06
1.97347e-05
-4.09248e-06
3.84415e-05
-5.63048e-06
6.00752e-05
-6.38161e-06
8.36221e-05
-5.86715e-06
0.000108067
-3.6377e-06
0.000132394
7.35985e-07
0.000155581
7.67628e-06
0.000176623
1.76117e-05
0.000194538
3.09951e-05
0.000208358
4.83274e-05
0.000217134
7.01854e-05
0.000219919
9.72555e-05
0.000215751
0.000130377
0.000203634
0.000170601
0.000182583
0.000219256
0.000151838
0.000277986
0.00011168
0.000348468
6.60716e-05
2.88395e-05
0.000431398
-7.94739e-07
5.78353e-06
-2.49528e-06
2.14352e-05
-4.50151e-06
4.04477e-05
-6.242e-06
6.18157e-05
-7.17825e-06
8.45584e-05
-6.80481e-06
0.000107694
-4.64618e-06
0.000130235
-2.4789e-07
0.000151182
6.83836e-06
0.000169537
1.70687e-05
0.000184307
3.0924e-05
0.000194502
4.89333e-05
0.000199124
7.17018e-05
0.000197151
9.99442e-05
0.000187508
0.00013453
0.000169049
0.000176544
0.000140569
0.000227375
0.000101007
0.00028879
5.02646e-05
0.000362721
-7.85893e-06
-5.88689e-05
0.000450429
-8.638e-07
6.64733e-06
-2.71325e-06
2.32847e-05
-4.90994e-06
4.26444e-05
-6.84997e-06
6.37557e-05
-7.96574e-06
8.56741e-05
-7.72415e-06
0.000107452
-5.6214e-06
0.000128132
-1.17411e-06
0.000146735
6.0957e-06
0.000162267
1.66773e-05
0.000173726
3.10874e-05
0.000180092
4.98928e-05
0.000180319
7.37375e-05
0.000173306
0.000103375
0.000157871
0.000139713
0.000132711
0.000183873
9.64093e-05
0.000237285
4.75951e-05
0.00030181
-1.42605e-05
0.000379602
-8.56509e-05
-0.000151818
0.00047255
-9.30658e-07
7.57798e-06
-2.92222e-06
2.52763e-05
-5.2977e-06
4.50199e-05
-7.42028e-06
6.58783e-05
-8.69227e-06
8.69461e-05
-8.55112e-06
0.000107311
-6.4624e-06
0.000126043
-1.90973e-06
0.000142182
5.62081e-06
0.000154737
1.66582e-05
0.000162688
3.17644e-05
0.000164986
5.15553e-05
0.000160528
7.67268e-05
0.000148134
0.000108085
0.000126513
0.000146583
9.4212e-05
0.00019338
4.96126e-05
0.00024993
-8.95462e-06
0.000318137
-8.24678e-05
0.000400315
-0.000167829
-0.000250469
0.000498966
-9.92512e-07
8.5705e-06
-3.11234e-06
2.73961e-05
-5.64417e-06
4.75517e-05
-7.91784e-06
6.8152e-05
-9.30434e-06
8.83326e-05
-9.20965e-06
0.000107217
-7.06518e-06
0.000123899
-2.31649e-06
0.000137434
5.59256e-06
0.000146828
1.72395e-05
0.000151041
3.3242e-05
0.000148984
5.42783e-05
0.000139492
8.11104e-05
0.000121302
0.00011461
9.30126e-05
0.00015579
5.30326e-05
0.000205842
-4.39679e-07
0.000266223
-6.93353e-05
0.000338814
-0.000155059
0.000425999
-0.000255014
-0.000355231
0.000530761
-1.04656e-06
9.61706e-06
-3.2738e-06
2.96233e-05
-5.92877e-06
5.02067e-05
-8.30759e-06
7.05308e-05
-9.7485e-06
8.97735e-05
-9.62327e-06
0.000107091
-7.32549e-06
0.000121601
-2.25681e-06
0.000132365
6.1893e-06
0.000138382
1.86481e-05
0.000138583
3.58045e-05
0.000131827
5.84123e-05
0.000116884
8.73147e-05
9.24e-05
0.000123463
5.68639e-05
0.000167937
8.55878e-06
0.000221963
-5.44658e-05
0.000286971
-0.000134343
0.000364743
-0.000232831
0.000457621
-0.000347891
-0.0004664
0.00056879
-1.09011e-06
1.07072e-05
-3.39715e-06
3.19304e-05
-6.13162e-06
5.29411e-05
-8.55564e-06
7.29548e-05
-9.97298e-06
9.11909e-05
-9.71817e-06
0.000106837
-7.14222e-06
0.000119025
-1.59692e-06
0.00012682
7.583e-06
0.000129202
2.11009e-05
0.000125065
3.97204e-05
0.000113208
6.4284e-05
9.23202e-05
9.57291e-05
6.09549e-05
0.000135099
1.7494e-05
0.000183546
-3.98882e-05
0.000242326
-0.000113246
0.000312814
-0.000204831
0.000396602
-0.00031662
0.000495886
-0.000447175
-0.000584098
0.000613583
-1.12067e-06
1.18278e-05
-3.47362e-06
3.42833e-05
-6.23428e-06
5.57018e-05
-8.63042e-06
7.5351e-05
-9.92949e-06
9.24899e-05
-9.42532e-06
0.000106332
-6.42144e-06
0.000116021
-2.12967e-07
0.000120611
9.93215e-06
0.000119057
2.47959e-05
0.000110201
4.52312e-05
9.27724e-05
7.21803e-05
6.53711e-05
0.000106685
2.64498e-05
0.000149889
-2.57097e-05
0.000203018
-9.30173e-05
0.000267348
-0.000177575
0.000344167
-0.00028165
0.000434787
-0.00040724
0.000541164
-0.000553551
-0.000708209
0.000665275
-1.13603e-06
1.29639e-05
-3.49546e-06
3.66427e-05
-6.22033e-06
5.84267e-05
-8.50378e-06
7.76344e-05
-9.57489e-06
9.35611e-05
-8.68307e-06
0.000105441
-5.07921e-06
0.000112418
2.00453e-06
0.000113528
1.33759e-05
0.000107685
2.99037e-05
9.36731e-05
5.25398e-05
7.01362e-05
8.23345e-05
3.55765e-05
0.00012044
-1.16561e-05
0.000168101
-7.33705e-05
0.000226613
-0.000151529
0.000297253
-0.000248215
0.000381194
-0.000365592
0.000479378
-0.000505424
0.000593459
-0.000667633
-0.000838326
0.000723576
-1.13441e-06
1.40983e-05
-3.45624e-06
3.89646e-05
-6.07602e-06
6.10464e-05
-8.15198e-06
7.97104e-05
-8.87266e-06
9.42817e-05
-7.43932e-06
0.000104007
-3.045e-06
0.000108023
5.14756e-06
0.000105335
1.80282e-05
9.48047e-05
3.65607e-05
7.51406e-05
6.18022e-05
4.48948e-05
9.49147e-05
2.46395e-06
0.000137162
-5.39037e-05
0.000189884
-0.000126092
0.000254431
-0.000216076
0.000332062
-0.000325846
0.0004238
-0.00045733
0.00053014
-0.000611764
0.000652409
-0.000789901
-0.000973698
0.00078778
-1.11447e-06
1.52127e-05
-3.35108e-06
4.12012e-05
-5.79078e-06
6.34862e-05
-7.55654e-06
8.14761e-05
-7.79422e-06
9.45194e-05
-5.65327e-06
0.000101866
-2.63828e-07
0.000102634
9.28575e-06
9.57855e-05
2.39735e-05
8.0117e-05
4.4863e-05
5.4251e-05
7.31199e-05
1.66379e-05
0.000110017
-3.44335e-05
0.000156924
-0.00010081
0.000215259
-0.000184427
0.000286412
-0.000287229
0.00037159
-0.000411024
0.000471636
-0.000557376
0.000586556
-0.000726684
0.00071733
-0.000920675
-0.0011132
0.000856833
-1.07543e-06
1.62882e-05
-3.17684e-06
4.33026e-05
-5.35749e-06
6.56668e-05
-6.70473e-06
8.28234e-05
-6.31972e-06
9.41344e-05
-3.2967e-06
9.88433e-05
3.30101e-06
9.6036e-05
1.4465e-05
8.46215e-05
3.12642e-05
6.33177e-05
5.48643e-05
3.06509e-05
8.65381e-05
-1.50359e-05
0.000127664
-7.55591e-05
0.0001797
-0.000152846
0.000244126
-0.000248854
0.000322338
-0.000365441
0.000415466
-0.000504152
0.00052413
-0.00066604
0.000647859
-0.000850412
0.000787207
-0.00106002
-0.00125548
0.000929489
-1.01702e-06
1.73052e-05
-2.93216e-06
4.52177e-05
-4.77267e-06
6.75073e-05
-5.58993e-06
8.36406e-05
-4.43845e-06
9.29829e-05
-3.54229e-07
9.4759e-05
7.66942e-06
8.80124e-05
2.07067e-05
7.15842e-05
3.99198e-05
4.41046e-05
6.65746e-05
3.99621e-06
0.000102045
-5.05064e-05
0.000147801
-0.000121315
0.000205371
-0.000210416
0.000276265
-0.000319748
0.000361851
-0.000451027
0.000463154
-0.000605454
0.000580557
-0.000783444
0.00071318
-0.000983036
0.0008607
-0.00120754
-0.00139942
0.00100463
-9.39531e-07
1.82447e-05
-2.61748e-06
4.68957e-05
-4.03648e-06
6.89263e-05
-4.21152e-06
8.38157e-05
-2.14884e-06
9.09202e-05
3.17594e-06
8.94343e-05
1.28425e-05
7.83458e-05
2.80085e-05
5.64182e-05
4.99282e-05
2.2185e-05
7.99626e-05
-2.60382e-05
0.000119576
-9.01198e-05
0.000170311
-0.00017205
0.000233735
-0.00027384
0.00031135
-0.000397363
0.000404455
-0.000544132
0.000513952
-0.000714951
0.000640054
-0.000909546
0.000781807
-0.00112479
0.000936775
-0.00136251
-0.00154394
0.0010813
-8.43739e-07
1.90885e-05
-2.23488e-06
4.82868e-05
-3.15242e-06
6.98439e-05
-2.57451e-06
8.32378e-05
5.42244e-07
8.78035e-05
7.28432e-06
8.26922e-05
1.88052e-05
6.6825e-05
3.63455e-05
3.88778e-05
6.12479e-05
-2.71742e-06
9.49596e-05
-5.97499e-05
0.000139018
-0.000134179
0.000195013
-0.000228045
0.000264514
-0.00034334
0.000348963
-0.000481813
0.000449536
-0.000644705
0.000566971
-0.000832386
0.000701408
-0.00104398
0.000852605
-0.00127599
0.00101672
-0.00152663
-0.00168457
0.00115735
-7.30973e-07
1.98194e-05
-1.78811e-06
4.93439e-05
-2.12722e-06
7.0183e-05
-6.89146e-07
8.17997e-05
3.62007e-06
8.34943e-05
1.195e-05
7.43623e-05
2.55274e-05
5.32476e-05
4.56736e-05
1.87316e-05
7.38128e-05
-3.08566e-05
0.000111466
-9.74029e-05
0.000160222
-0.000182935
0.000221684
-0.000289507
0.000297378
-0.000419034
0.000388625
-0.00057306
0.000496398
-0.000752478
0.000621182
-0.00095717
0.00076289
-0.00118569
0.000921563
-0.00143466
0.00109705
-0.00170211
-0.00192383
0.0013363
-6.02561e-07
2.0422e-05
-1.28144e-06
5.00228e-05
-9.69245e-07
6.98708e-05
1.43104e-06
7.93994e-05
7.06461e-06
7.78607e-05
1.7144e-05
6.42829e-05
3.29678e-05
3.74238e-05
5.59333e-05
-4.2339e-06
8.75367e-05
-6.24601e-05
0.000129356
-0.000139222
0.000183005
-0.000236585
0.000250063
-0.000356565
0.000331956
-0.000500927
0.000429816
-0.00067092
0.000544321
-0.000866982
0.000675569
-0.00108842
0.000823019
-0.00133314
0.000986371
-0.00159801
0.00116409
-0.00187983
-0.00213737
0.00137764
-4.60369e-07
2.08824e-05
-7.20545e-07
5.0283e-05
3.1075e-07
6.88395e-05
3.76884e-06
7.59413e-05
1.08505e-05
7.0779e-05
2.28304e-05
5.23031e-05
4.10758e-05
1.91783e-05
6.70533e-05
-3.02114e-05
0.000102319
-9.77257e-05
0.000148487
-0.00018539
0.000207167
-0.000295265
0.000279868
-0.000429266
0.000367861
-0.00058892
0.000472013
-0.000775072
0.000592614
-0.000987583
0.000729256
-0.00122506
0.000880749
-0.00148464
0.00104574
-0.001763
0.00122109
-0.00205518
-0.00233324
0.00141696
-3.06246e-07
2.11886e-05
-1.10721e-07
5.00875e-05
1.70117e-06
6.70276e-05
6.30558e-06
7.13369e-05
1.495e-05
6.21346e-05
2.89694e-05
3.82837e-05
4.97955e-05
-1.64785e-06
7.89554e-05
-5.93712e-05
0.00011805
-0.00013682
0.000168706
-0.000236045
0.000232493
-0.000359053
0.000310806
-0.000507578
0.000404696
-0.00068281
0.000514694
-0.00088507
0.000640625
-0.00111351
0.000781487
-0.00136592
0.000935379
-0.00163853
0.00109987
-0.00192749
0.00127095
-0.00222626
-0.00251471
0.00145241
-1.42176e-07
2.13308e-05
5.40326e-07
4.9405e-05
3.19031e-06
6.43776e-05
9.02207e-06
6.55051e-05
1.93343e-05
5.18224e-05
3.55196e-05
2.20984e-05
5.90686e-05
-2.51968e-05
9.15577e-05
-9.18603e-05
0.000134615
-0.000179877
0.000189853
-0.000291283
0.000258764
-0.000427964
0.000342574
-0.000591389
0.000442059
-0.000782295
0.000557347
-0.00100036
0.000687736
-0.0012439
0.000831593
-0.00150978
0.000986326
-0.00179326
0.00114861
-0.00208978
0.00131395
-0.0023916
-0.00268356
0.0014828
3.05555e-08
2.13002e-05
1.22901e-06
4.82065e-05
4.76714e-06
6.08395e-05
1.18998e-05
5.83725e-05
2.39752e-05
3.9747e-05
4.24403e-05
3.63328e-06
6.88368e-05
-5.15934e-05
0.000104778
-0.000127802
0.000151899
-0.000226998
0.000211767
-0.000351151
0.000285756
-0.000501953
0.000374872
-0.000680505
0.000479555
-0.000886979
0.000599475
-0.00112028
0.000733365
-0.00137779
0.000878965
-0.00165538
0.00103307
-0.00194736
0.0011917
-0.00224841
0.00135017
-0.00255007
-0.00284076
0.00150737
2.09936e-07
2.10903e-05
1.94974e-06
4.64667e-05
6.42162e-06
5.63676e-05
1.49217e-05
4.98724e-05
2.88464e-05
2.58223e-05
4.96925e-05
-1.72129e-05
7.90443e-05
-8.09451e-05
0.000118537
-0.000167294
0.000169788
-0.000278249
0.000234287
-0.000415651
0.000313245
-0.00058091
0.000407396
-0.000774656
0.000516791
-0.000996373
0.000640595
-0.00124408
0.000776966
-0.00151416
0.000923053
-0.00180147
0.00107515
-0.00209946
0.00122888
-0.00240214
0.00137965
-0.00270084
-0.0029868
0.00152568
3.9528e-07
2.0695e-05
2.69853e-06
4.41635e-05
8.14524e-06
5.09209e-05
1.8073e-05
3.99446e-05
3.39246e-05
9.97077e-06
5.7241e-05
-4.05293e-05
8.96384e-05
-0.000113343
0.000132757
-0.000210412
0.00018817
-0.000333662
0.000257254
-0.000484735
0.000341008
-0.000664665
0.000439846
-0.000873494
0.000553379
-0.00110991
0.000680243
-0.00137095
0.000818032
-0.00165195
0.000963374
-0.00194681
0.0011122
-0.00224828
0.00125999
-0.00254993
0.00140242
-0.00284327
-0.00312201
0.00153763
5.8568e-07
2.01093e-05
3.47244e-06
4.12767e-05
9.9314e-06
4.44619e-05
2.13418e-05
2.85343e-05
3.91896e-05
-7.8771e-06
6.50538e-05
-6.63935e-05
0.00010057
-0.000148859
0.000147363
-0.000257205
0.000206934
-0.000393233
0.000280506
-0.000558306
0.00036882
-0.00075298
0.00047192
-0.000976594
0.00058894
-0.00122693
0.000717979
-0.00149998
0.000856102
-0.00179007
0.000999519
-0.00209023
0.00114395
-0.00239272
0.00128495
-0.00269093
0.00141864
-0.00297695
-0.0032467
0.00154333
7.80744e-07
1.93286e-05
4.26963e-06
3.77878e-05
1.17754e-05
3.69561e-05
2.47185e-05
1.55912e-05
4.46249e-05
-2.77835e-05
7.31031e-05
-9.48717e-05
0.000111794
-0.00018755
0.000162285
-0.000307696
0.000225972
-0.00045692
0.000303882
-0.000636217
0.000396455
-0.000845552
0.000503318
-0.00108346
0.000623106
-0.00134671
0.000753391
-0.00163027
0.000890773
-0.00192746
0.00103116
-0.00223062
0.00117024
-0.00253179
0.00130379
-0.00282448
0.0014285
-0.00310167
-0.00336126
0.00154306
9.80438e-07
1.83482e-05
5.08927e-06
3.3679e-05
1.36744e-05
2.8371e-05
2.81965e-05
1.06915e-06
5.02167e-05
-4.98038e-05
8.13637e-05
-0.000126019
0.000123268
-0.000229454
0.000177451
-0.000361879
0.000245171
-0.00052464
0.000327218
-0.000718263
0.000423682
-0.000942017
0.000533742
-0.00119352
0.000655523
-0.00146849
0.000786103
-0.00176085
0.000921706
-0.00206306
0.00105807
-0.00236698
0.00119098
-0.0026647
0.00131663
-0.00295013
0.00143234
-0.00321738
-0.00346612
0.00153721
1.18504e-06
1.71631e-05
5.93146e-06
2.89326e-05
1.56272e-05
1.86753e-05
3.17709e-05
-1.50746e-05
5.59536e-05
-7.39864e-05
8.98123e-05
-0.000159877
0.000134947
-0.000274589
0.000192789
-0.000419721
0.000264418
-0.00059627
0.000350345
-0.00080419
0.00045027
-0.00104194
0.000562899
-0.00130615
0.000685858
-0.00159145
0.000815786
-0.00189078
0.000948632
-0.00219591
0.00108011
-0.00249846
0.00120624
-0.00279083
0.00132372
-0.00306762
0.00143054
-0.0033242
-0.00356184
0.00152626
1.39509e-06
1.5768e-05
6.79701e-06
2.35306e-05
1.76335e-05
7.83878e-06
3.54386e-05
-3.28797e-05
6.18254e-05
-0.000100373
9.84261e-05
-0.000196478
0.000146789
-0.000322951
0.000208222
-0.000481154
0.000283593
-0.00067164
0.000373086
-0.000893683
0.000475984
-0.00114484
0.000590506
-0.00142067
0.000713807
-0.00171475
0.000842162
-0.00201913
0.000971361
-0.0023251
0.00109722
-0.00262432
0.00121612
-0.00290973
0.00132535
-0.00317684
0.00142355
-0.0034224
-0.00364902
0.00151073
1.61127e-06
1.41568e-05
7.68716e-06
1.74547e-05
1.9694e-05
-4.16805e-06
3.91968e-05
-5.23824e-05
6.7822e-05
-0.000128998
0.000107181
-0.000235837
0.000158746
-0.000374516
0.000223672
-0.00054608
0.000302569
-0.000750537
0.000395264
-0.000986379
0.000500592
-0.00125017
0.000616294
-0.00153637
0.0007391
-0.00183756
0.000865012
-0.00214505
0.000989781
-0.00244987
0.00110945
-0.00274398
0.00122085
-0.00302114
0.00132189
-0.00327788
0.00141185
-0.00351236
-0.00372829
0.00149112
1.83435e-06
1.23224e-05
8.60335e-06
1.06857e-05
2.18093e-05
-1.7374e-05
4.30426e-05
-7.36157e-05
7.39321e-05
-0.000159888
0.000116051
-0.000277956
0.000170768
-0.000429234
0.000239049
-0.000614361
0.000321213
-0.000832701
0.000416694
-0.00108186
0.000523867
-0.00135734
0.000640016
-0.00165252
0.000761509
-0.00195905
0.00088418
-0.00226772
0.00100386
-0.00256955
0.00111692
-0.00285704
0.00122071
-0.00312494
0.00131377
-0.00337094
0.00139592
-0.00359451
-0.00380032
0.00146795
2.06512e-06
1.02573e-05
9.54693e-06
3.20394e-06
2.39798e-05
-3.18069e-05
4.69721e-05
-9.6608e-05
8.01422e-05
-0.000193058
0.000125004
-0.000322818
0.000182797
-0.000487026
0.00025426
-0.000685824
0.000339386
-0.000917827
0.000437191
-0.00117966
0.000545591
-0.00146574
0.00066145
-0.00176838
0.000780854
-0.00207846
0.000899574
-0.00238644
0.00101363
-0.00268361
0.00111981
-0.00296323
0.00121603
-0.00322116
0.0013014
-0.0034563
0.00137627
-0.00366939
-0.00386576
0.00144171
2.30426e-06
7.95303e-06
1.05189e-05
-5.0107e-06
2.62049e-05
-4.74929e-05
5.09796e-05
-0.000121383
8.64359e-05
-0.000228514
0.000134006
-0.000370388
0.000194769
-0.000547789
0.000269204
-0.000760259
0.000356945
-0.00100557
0.000456574
-0.00127929
0.000565563
-0.00157473
0.00068041
-0.00188323
0.000797006
-0.00219505
0.000911168
-0.0025006
0.0010192
-0.00279165
0.00111838
-0.0030624
0.00120717
-0.00330994
0.00128524
-0.00353437
0.00135336
-0.00373752
-0.00392524
0.00141285
2.55228e-06
5.40075e-06
1.15197e-05
-1.39781e-05
2.84828e-05
-6.44561e-05
5.50569e-05
-0.000147957
9.27926e-05
-0.00026625
0.000143017
-0.000420612
0.000206614
-0.000611386
0.000283774
-0.000837419
0.000373744
-0.00109554
0.000474669
-0.00138022
0.000583602
-0.00168366
0.000696743
-0.00199637
0.000809886
-0.00230819
0.000918992
-0.0026097
0.00102074
-0.00289339
0.0011129
-0.00315456
0.00119451
-0.00339155
0.00126571
-0.00360558
0.00132764
-0.00379945
-0.00397936
0.00138176
2.80951e-06
2.59125e-06
1.25491e-05
-2.37177e-05
3.08102e-05
-8.27172e-05
5.91933e-05
-0.00017634
9.91878e-05
-0.000306245
0.000151988
-0.000473413
0.000218256
-0.000677654
0.000297859
-0.000917022
0.000389639
-0.00118732
0.000491311
-0.00148189
0.000599553
-0.0017919
0.000710341
-0.00210715
0.000819468
-0.00241732
0.000923134
-0.00271337
0.00101844
-0.0029887
0.0011037
-0.00323982
0.00117843
-0.00346629
0.00124324
-0.00367039
0.00129952
-0.00385572
-0.00402865
0.00134882
3.07602e-06
-4.84771e-07
1.36058e-05
-3.42475e-05
3.31818e-05
-0.000102293
6.3375e-05
-0.000206533
0.000105592
-0.000348462
0.00016087
-0.00052869
0.000229615
-0.000746399
0.000311345
-0.000998752
0.00040449
-0.00128046
0.000506352
-0.00158375
0.000613288
-0.00189884
0.000721135
-0.002215
0.000825777
-0.00252196
0.000923727
-0.00281132
0.00101256
-0.00307753