/*--------------------------------*- C++ -*----------------------------------*\
  =========                 |
  \\      /  F ield         | OpenFOAM: The Open Source CFD Toolbox
   \\    /   O peration     | Website:  https://openfoam.org
    \\  /    A nd           | Version:  7
     \\/     M anipulation  |
\*---------------------------------------------------------------------------*/
FoamFile
{
    version     2.0;
    format      ascii;
    class       volVectorField;
    location    "240";
    object      U;
}
// * * * * * * * * * * * * * * * * * * * * * * * * * * * * * * * * * * * * * //

dimensions      [0 1 -1 0 0 0 0];

internalField   nonuniform List<vector> 
36600
(
(-0.000406794 -0.009418 -1.00975e-21)
(-0.00300777 -0.0184301 -5.27906e-21)
(-0.00838975 -0.0197951 6.46299e-22)
(-0.0154495 -0.0152382 9.53336e-22)
(-0.023795 -0.006352 1.66323e-21)
(-0.0331073 0.00547132 -1.21063e-20)
(-0.0431177 0.0190798 2.04872e-21)
(-0.05362 0.0335941 -7.9862e-21)
(-0.0644482 0.0484173 -1.70294e-20)
(-0.0754638 0.0632174 1.43875e-20)
(-0.0865495 0.0778869 4.22725e-21)
(-0.0976069 0.0924874 -5.01352e-21)
(-0.108558 0.107191 6.09732e-21)
(-0.119345 0.122227 8.27711e-21)
(-0.129938 0.137845 -5.18031e-21)
(-0.140322 0.154291 -6.89275e-21)
(-0.150503 0.1718 -1.63707e-20)
(-0.160514 0.190595 -1.25654e-21)
(-0.170266 0.210872 -2.72221e-21)
(-0.179624 0.232854 -5.34949e-21)
(-0.000231653 -0.00846596 -4.88302e-21)
(-0.00258849 -0.0160373 3.99102e-21)
(-0.00774178 -0.0163158 -4.60566e-21)
(-0.014594 -0.0109443 -1.81458e-20)
(-0.0227363 -0.00145552 8.2987e-21)
(-0.0318368 0.0108078 5.00623e-20)
(-0.0416186 0.0247305 -3.04824e-20)
(-0.05187 0.0394596 5.23546e-21)
(-0.0624224 0.0544158 2.43573e-20)
(-0.0731365 0.069279 -9.09599e-23)
(-0.0838941 0.0839512 1.3984e-20)
(-0.0945948 0.0985032 -1.83608e-20)
(-0.105156 0.113118 1.90156e-20)
(-0.115513 0.128036 -1.63539e-20)
(-0.125622 0.143518 -6.1886e-21)
(-0.135455 0.159822 3.11752e-20)
(-0.145 0.177188 -9.41919e-21)
(-0.154274 0.195838 1.50086e-21)
(-0.163157 0.215963 -1.7647e-20)
(-0.171453 0.237779 -1.80362e-21)
(-8.88895e-05 -0.00755298 -3.75465e-20)
(-0.0022407 -0.013749 4.76165e-21)
(-0.00717842 -0.0129954 7.25035e-21)
(-0.0138187 -0.00685394 4.55675e-20)
(-0.0217393 0.00320224 -3.61292e-20)
(-0.0305975 0.0158783 -5.57166e-20)
(-0.0401094 0.0300959 5.01058e-20)
(-0.0500588 0.0450268 -1.3438e-20)
(-0.0602744 0.0601077 -6.87912e-21)
(-0.0706159 0.0750284 -3.35043e-20)
(-0.0809642 0.0896977 8.84542e-21)
(-0.0912164 0.104193 3.24356e-20)
(-0.101285 0.118705 -6.8667e-21)
(-0.111097 0.133485 2.58628e-20)
(-0.120596 0.148803 -2.09338e-20)
(-0.129738 0.164924 -6.63673e-21)
(-0.138494 0.182095 4.90875e-20)
(-0.146865 0.20054 -3.02763e-21)
(-0.154703 0.220446 7.48659e-20)
(-0.16174 0.242023 -1.739e-20)
(2.37247e-05 -0.00668495 6.11891e-20)
(-0.00196032 -0.0115787 -2.64726e-20)
(-0.00669688 -0.00985232 -1.83249e-20)
(-0.013124 -0.00298925 -4.22529e-20)
(-0.0208086 0.00759546 2.53537e-20)
(-0.0293992 0.0206547 -4.42698e-21)
(-0.0386056 0.0351454 -8.29745e-20)
(-0.0482076 0.050263 -8.56966e-21)
(-0.0580314 0.0654585 -1.78108e-20)
(-0.0679354 0.0804292 -2.38267e-21)
(-0.0777993 0.0950883 -3.05466e-20)
(-0.0875176 0.109518 3.38422e-20)
(-0.0969972 0.123913 -4.97387e-20)
(-0.106157 0.138532 -1.4887e-21)
(-0.114929 0.153654 1.33171e-20)
(-0.123252 0.169552 -1.0104e-19)
(-0.131079 0.186478 -8.03401e-20)
(-0.138398 0.204657 4.29512e-20)
(-0.145036 0.224276 -5.78893e-20)
(-0.150636 0.245545 1.93941e-21)
(0.000108686 -0.00586672 -8.22449e-21)
(-0.00174278 -0.00953803 1.04154e-19)
(-0.00629383 -0.00690287 4.80714e-20)
(-0.0125096 0.000629909 -2.08789e-21)
(-0.0199486 0.0117018 1.27952e-20)
(-0.0282514 0.0251119 2.26268e-21)
(-0.0371228 0.0398514 4.22059e-20)
(-0.0463383 0.0551382 4.91097e-20)
(-0.0557218 0.0704355 2.05421e-20)
(-0.06513 0.0854466 7.24295e-20)
(-0.0744413 0.100087 -8.18157e-20)
(-0.0835475 0.114439 -1.73046e-20)
(-0.0923503 0.128701 3.56356e-20)
(-0.10076 0.143137 -6.05797e-20)
(-0.108696 0.158031 2.72853e-20)
(-0.116084 0.173665 6.33238e-20)
(-0.122856 0.190294 1.59104e-20)
(-0.12899 0.208147 2.04189e-20)
(-0.134292 0.227415 -3.29973e-20)
(-0.138304 0.24831 3.94669e-21)
(0.000168688 -0.00510187 -3.92097e-20)
(-0.00158309 -0.00763542 2.39133e-20)
(-0.00596557 -0.00415912 -3.9612e-20)
(-0.011975 0.00398867 3.57533e-20)
(-0.019163 0.0155028 3.10761e-20)
(-0.0271638 0.0292286 1.4344e-20)
(-0.0356768 0.0441897 2.59571e-20)
(-0.0444735 0.059625 -1.83652e-20)
(-0.053375 0.0750089 -1.10462e-19)
(-0.0622363 0.0900481 -9.70795e-20)
(-0.0709341 0.104658 -6.18566e-20)
(-0.0793577 0.118919 2.34332e-20)
(-0.0874038 0.133032 -1.32805e-20)
(-0.0949745 0.147261 9.94413e-20)
(-0.101978 0.161896 -3.53557e-20)
(-0.108324 0.177223 2.81868e-20)
(-0.11393 0.193505 4.11878e-20)
(-0.118763 0.210975 -2.31673e-20)
(-0.122615 0.229831 1.93511e-19)
(-0.12491 0.250291 -7.16457e-20)
(0.000206502 -0.00439277 4.73461e-20)
(-0.00147607 -0.00587673 -5.80779e-20)
(-0.00570802 -0.00163002 -8.7464e-20)
(-0.0115191 0.0070746 -2.25284e-20)
(-0.0184556 0.0189848 9.89204e-21)
(-0.0261456 0.0329875 1.50728e-20)
(-0.0342835 0.0481396 4.97377e-20)
(-0.0426361 0.0636995 1.06365e-20)
(-0.0510212 0.0791512 4.35867e-21)
(-0.0592919 0.0942035 1.7396e-19)
(-0.0673233 0.108769 1.28975e-19)
(-0.0750019 0.122926 -7.57315e-20)
(-0.08222 0.13687 -1.11317e-20)
(-0.0888723 0.150868 -2.96552e-20)
(-0.0948561 0.165213 2.86969e-20)
(-0.100069 0.180193 -1.49009e-19)
(-0.104411 0.19608 -3.01518e-20)
(-0.107843 0.213111 -4.57763e-20)
(-0.110152 0.231496 -1.09307e-19)
(-0.110625 0.251464 5.94764e-20)
(0.000224938 -0.00374053 7.68588e-21)
(-0.00141648 -0.00426513 -2.77104e-20)
(-0.00551712 0.000679465 7.86264e-20)
(-0.011141 0.00988121 -2.93035e-20)
(-0.01783 0.0221367 -2.61436e-20)
(-0.0252063 0.0363756 4.08626e-20)
(-0.0329588 0.0516845 -6.95973e-20)
(-0.0408489 0.0673413 -9.77869e-21)
(-0.0486908 0.0828383 1.28291e-19)
(-0.0563353 0.0978852 -8.10999e-20)
(-0.0636554 0.11239 -3.29849e-20)
(-0.0705355 0.126425 3.89356e-20)
(-0.0768635 0.140183 -1.01425e-20)
(-0.0825277 0.153925 -5.27212e-21)
(-0.0874163 0.167947 4.12582e-20)
(-0.091415 0.182542 -1.06615e-19)
(-0.0944103 0.197987 3.81957e-20)
(-0.0963559 0.214528 -2.77264e-20)
(-0.097051 0.232389 -6.1409e-20)
(-0.0956219 0.251809 2.25555e-20)
(0.000226726 -0.00314512 -2.18823e-20)
(-0.00139911 -0.00280065 1.52355e-19)
(-0.00538874 0.00276736 -3.36019e-20)
(-0.0108401 0.0124043 -3.9883e-20)
(-0.0172902 0.0249537 9.44222e-20)
(-0.0243555 0.0393839 -9.75271e-20)
(-0.0317185 0.0548118 -4.70142e-20)
(-0.0391349 0.0705336 -8.10488e-20)
(-0.0464146 0.0860496 -8.78321e-20)
(-0.0534052 0.101069 -5.67251e-20)
(-0.0599778 0.115494 -7.55785e-20)
(-0.0660145 0.129388 1.36773e-19)
(-0.0713999 0.142937 -1.54985e-20)
(-0.0760167 0.156399 -3.05431e-20)
(-0.0797449 0.170068 -1.58566e-19)
(-0.0824608 0.184241 8.87036e-20)
(-0.0840386 0.1992 2.26402e-20)
(-0.0844282 0.215204 5.32528e-20)
(-0.0834618 0.232499 3.53842e-20)
(-0.0800728 0.251324 -9.35397e-20)
(0.000214427 -0.00260539 -6.69609e-20)
(-0.00141909 -0.00148126 8.74111e-20)
(-0.00531922 0.00463683 4.89451e-20)
(-0.0106156 0.0146449 2.19565e-20)
(-0.0168402 0.0274336 8.27688e-20)
(-0.0236027 0.0420078 -6.42345e-20)
(-0.0305785 0.0575131 1.38146e-19)
(-0.0375169 0.073264 7.9591e-21)
(-0.0442227 0.0887681 1.24344e-19)
(-0.0505401 0.103733 -7.10454e-20)
(-0.0563377 0.118055 1.14394e-19)
(-0.0614956 0.131787 -1.10959e-19)
(-0.0658956 0.145105 -9.92058e-20)
(-0.0694157 0.158261 8.31055e-20)
(-0.0719297 0.171547 2.90575e-19)
(-0.0733058 0.185261 -1.57299e-19)
(-0.073408 0.199695 1.2824e-19)
(-0.0721813 0.215119 2.85964e-20)
(-0.0695246 0.231812 -1.07252e-19)
(-0.0641522 0.25004 8.91177e-20)
(0.000190308 -0.00211918 1.20672e-19)
(-0.00147228 -0.000301801 -6.80447e-20)
(-0.00530529 0.00629255 2.18124e-20)
(-0.0104675 0.0166087 8.39309e-20)
(-0.0164843 0.0295799 -6.485e-20)
(-0.0229571 0.0442472 1.48934e-19)
(-0.029554 0.0597844 -2.69927e-20)
(-0.0360169 0.075524 3.40436e-21)
(-0.0421447 0.090981 -1.71098e-19)
(-0.0477776 0.105861 1.07168e-19)
(-0.0527816 0.120052 2.37539e-20)
(-0.0570347 0.133597 -3.01955e-20)
(-0.0604163 0.14666 3.86559e-20)
(-0.0628012 0.159484 -1.51072e-19)
(-0.0640579 0.172357 -8.39093e-20)
(-0.0640487 0.185579 1.7248e-19)
(-0.0626294 0.199448 -9.48594e-20)
(-0.0597349 0.214245 -1.3331e-19)
(-0.0553429 0.230253 2.44567e-19)
(-0.04802 0.248017 -1.29805e-21)
(0.000156197 -0.00168335 9.96257e-20)
(-0.00155523 0.000744712 -1.22755e-19)
(-0.00534481 0.0077444 -1.27181e-19)
(-0.010396 0.0183038 -6.02087e-20)
(-0.0162263 0.0313995 -4.14891e-20)
(-0.0224276 0.0461063 -4.83839e-20)
(-0.0286595 0.0616263 -2.00095e-19)
(-0.0346558 0.0773098 2.46986e-20)
(-0.0402089 0.0926797 -8.25789e-20)
(-0.0451542 0.10744 2.86698e-19)
(-0.0493547 0.121469 -1.6453e-19)
(-0.0526863 0.134798 1.00897e-19)
(-0.0550268 0.147579 -3.04182e-20)
(-0.0562481 0.160044 1.63584e-19)
(-0.0562158 0.172474 1.29693e-20)
(-0.0547875 0.18517 -1.35664e-19)
(-0.0518164 0.198437 -2.32753e-20)
(-0.0472425 0.212565 6.72779e-21)
(-0.0410165 0.227861 -1.15289e-20)
(-0.0317393 0.24514 1.59372e-19)
(0.000113492 -0.00129384 -1.2454e-19)
(-0.00166559 0.00166758 -1.15523e-19)
(-0.00543638 0.00900372 4.77927e-20)
(-0.0104021 0.0197433 1.17944e-19)
(-0.0160706 0.0329037 -9.43564e-21)
(-0.0220227 0.0475939 -7.92015e-20)
(-0.0279086 0.0630438 1.75377e-19)
(-0.0334532 0.0786224 -1.90921e-20)
(-0.0384417 0.0938604 2.07218e-19)
(-0.042704 0.108461 -2.28516e-19)
(-0.0460997 0.122292 5.98274e-20)
(-0.0485026 0.135374 6.90239e-20)
(-0.049789 0.147842 -2.19278e-21)
(-0.0498292 0.159919 -1.01571e-21)
(-0.0484867 0.171876 -1.25558e-19)
(-0.0456166 0.184014 1.75991e-20)
(-0.0410709 0.196645 1.62925e-19)
(-0.0347981 0.210079 2.05434e-19)
(-0.0267417 0.224674 -2.41136e-19)
(-0.0154942 0.241305 -1.54488e-19)
(6.3091e-05 -0.000945763 5.12394e-20)
(-0.00180193 0.002478 7.7818e-20)
(-0.00557978 0.0100851 9.20359e-20)
(-0.0104875 0.0209426 -1.5528e-19)
(-0.0160214 0.0341078 1.5036e-19)
(-0.0217501 0.0487228 1.51599e-19)
(-0.0273137 0.0640466 -5.91502e-20)
(-0.032427 0.0794672 2.52406e-19)
(-0.0368672 0.0945243 -2.52715e-19)
(-0.0404584 0.10892 1.10278e-19)
(-0.0430561 0.122514 1.11202e-19)
(-0.044532 0.135312 -9.12995e-21)
(-0.0447612 0.147436 8.12367e-22)
(-0.0436133 0.159092 1.42314e-20)
(-0.0409498 0.170546 -9.65182e-20)
(-0.0366257 0.182094 9.41009e-20)
(-0.0304932 0.194055 -4.84771e-20)
(-0.0225087 0.206763 -1.06491e-19)
(-0.0126389 0.220629 1.34861e-19)
(0.000549014 0.236604 2.79121e-20)
(5.36618e-06 -0.000633547 -2.98118e-20)
(-0.00196384 0.00318878 3.62836e-20)
(-0.00577574 0.0110053 -7.70858e-20)
(-0.0106544 0.0219202 -1.13113e-19)
(-0.0160831 0.0350295 -9.96117e-20)
(-0.0216175 0.0495102 -1.03112e-19)
(-0.0268858 0.0646488 1.64371e-19)
(-0.0315926 0.0798549 -8.41448e-20)
(-0.0355064 0.0946775 6.57214e-20)
(-0.0384447 0.108818 6.1065e-21)
(-0.0402588 0.122131 -1.70653e-20)
(-0.040818 0.134605 4.14866e-20)
(-0.0399964 0.146348 -8.13131e-20)
(-0.0376629 0.157551 4.30192e-20)
(-0.0336786 0.168469 1.32832e-19)
(-0.0278986 0.179393 -1.90091e-19)
(-0.0201771 0.190652 -1.19624e-19)
(-0.0104792 0.202601 1.5448e-19)
(0.00118842 0.215707 -9.03555e-20)
(0.0162706 0.231056 -1.34944e-19)
(-5.98601e-05 -0.000351105 1.07023e-19)
(-0.00215196 0.00381405 -1.06828e-19)
(-0.00602594 0.011783 8.65268e-20)
(-0.010906 0.022697 1.36416e-19)
(-0.0162605 0.035691 -2.37956e-20)
(-0.0216311 0.049976 -8.65899e-20)
(-0.0266342 0.064869 -1.62509e-19)
(-0.030963 0.0798006 -1.21949e-19)
(-0.0343766 0.0943315 -2.39488e-19)
(-0.0366858 0.108165 2.31953e-20)
(-0.0377372 0.121146 -1.99049e-20)
(-0.0373976 0.133253 -1.63012e-19)
(-0.03554 0.144575 1.37221e-19)
(-0.032033 0.155289 1.668e-19)
(-0.0267375 0.165635 -8.02004e-21)
(-0.0195096 0.175903 9.91657e-20)
(-0.010206 0.186425 -4.9101e-20)
(0.00119839 0.197585 6.97108e-21)
(0.0146474 0.209908 1.31429e-19)
(0.0315752 0.224654 3.14328e-19)
(-0.000133311 -9.19919e-05 -4.73509e-20)
(-0.00236796 0.00436881 -3.12747e-20)
(-0.00633296 0.0124384 8.83513e-20)
(-0.0112456 0.0232955 -1.21074e-19)
(-0.0165577 0.0361155 -6.76342e-20)
(-0.0217967 0.0501445 1.18807e-19)
(-0.0265661 0.0647293 -4.23072e-20)
(-0.0305473 0.0793243 -1.21196e-19)
(-0.0334902 0.0935032 1.95016e-19)
(-0.0351982 0.106972 -5.25425e-20)
(-0.0355132 0.119569 3.72552e-20)
(-0.0342992 0.131261 1.9572e-19)
(-0.0314279 0.142119 -2.68186e-19)
(-0.0267678 0.152304 -7.25555e-20)
(-0.0201796 0.162043 -1.37972e-19)
(-0.01152 0.171617 2.76152e-19)
(-0.000648932 0.181368 8.32566e-21)
(0.0124493 0.191706 1.45359e-19)
(0.0276635 0.203224 -5.46599e-20)
(0.0463902 0.217392 -2.94273e-19)
(-0.000216255 0.000150419 -1.07406e-19)
(-0.00261453 0.00486863 1.49902e-19)
(-0.00670017 0.0129926 2.31368e-21)
(-0.011677 0.0237409 -1.06553e-21)
(-0.0169788 0.036329 1.50682e-19)
(-0.0221183 0.0500417 7.1888e-20)
(-0.0266857 0.0642556 -3.37499e-21)
(-0.030351 0.0784504 3.11149e-19)
(-0.0328543 0.0922147 1.17388e-19)
(-0.0339918 0.105259 -2.12012e-19)
(-0.0336004 0.117417 1.03325e-20)
(-0.0315411 0.128642 -8.69868e-21)
(-0.0276842 0.13899 2.80198e-19)
(-0.0218978 0.148604 -3.07514e-19)
(-0.0140423 0.157696 8.4221e-20)
(-0.00397428 0.16654 1.47797e-21)
(0.00844423 0.175482 -2.05064e-19)
(0.0232206 0.184963 -2.0908e-19)
(0.0401867 0.195653 -2.63267e-20)
(0.0606726 0.209264 2.94303e-19)
(-0.000310479 0.000382764 3.40737e-20)
(-0.00289529 0.00532918 -1.06471e-19)
(-0.00713183 0.0134674 1.01073e-19)
(-0.0122038 0.024058 -1.49086e-19)
(-0.0175269 0.03636 1.8194e-19)
(-0.0225979 0.0496963 -2.69768e-19)
(-0.0269941 0.0634772 -7.29322e-20)
(-0.0303742 0.0772074 -1.62796e-19)
(-0.032469 0.0904933 -7.54465e-20)
(-0.0330674 0.103051 1.32127e-19)
(-0.0320013 0.114712 2.63518e-19)
(-0.0291286 0.125417 -2.89446e-19)
(-0.0243179 0.135208 -1.06469e-19)
(-0.0174364 0.144207 3.78027e-19)
(-0.00834345 0.152612 -1.33033e-19)
(0.00310555 0.160684 -1.88777e-19)
(0.0170486 0.168776 2.34569e-19)
(0.0334876 0.177362 4.90236e-20)
(0.052199 0.187197 4.40024e-20)
(0.0744189 0.200267 -1.88335e-19)
(-0.000418241 0.00061154 1.30432e-20)
(-0.0032147 0.00576587 -5.49337e-20)
(-0.00763254 0.0138841 1.75186e-19)
(-0.01283 0.0242732 -2.23641e-19)
(-0.0182036 0.0362366 -1.84302e-19)
(-0.0232349 0.0491396 4.85662e-20)
(-0.0274881 0.0624256 3.12379e-19)
(-0.0306115 0.075628 -1.94107e-19)
(-0.0323269 0.0883715 4.55321e-20)
(-0.0324163 0.100381 -9.02279e-20)
(-0.0307065 0.111486 -3.56566e-19)
(-0.027052 0.121617 2.12593e-19)
(-0.0213198 0.130801 1.6613e-19)
(-0.0133753 0.139141 -2.91013e-19)
(-0.00307601 0.146815 6.81221e-20)
(0.00972597 0.154075 2.61123e-19)
(0.0251718 0.161275 9.81498e-20)
(0.0432624 0.168922 3.45098e-20)
(0.0637233 0.177865 -1.99277e-19)
(0.0876752 0.190405 -9.64925e-20)
(-0.000542187 0.000842941 -9.16879e-20)
(-0.00357779 0.0061935 -1.62616e-19)
(-0.00820724 0.0142637 -9.39814e-20)
(-0.0135584 0.024412 1.22671e-19)
(-0.019009 0.0359884 -7.0053e-21)
(-0.0240254 0.048403 2.36134e-20)
(-0.0281598 0.0611355 -4.3488e-20)
(-0.0310508 0.073748 2.96016e-20)
(-0.0324117 0.0858866 1.79344e-19)
(-0.0320181 0.0972862 2.2375e-19)
(-0.0296918 0.107777 -9.46598e-21)
(-0.0252839 0.117281 -4.80255e-20)
(-0.0186591 0.125808 -2.74599e-19)
(-0.00968057 0.133445 2.01876e-19)
(0.00179761 0.140349 -1.74928e-20)
(0.015929 0.146756 -1.16047e-19)
(0.0328622 0.153019 -5.656e-19)
(0.0526033 0.159677 1.95575e-19)
(0.074834 0.167685 1.1118e-20)
(0.10055 0.179694 -1.18088e-19)
(-0.000685248 0.00108269 8.34704e-20)
(-0.0039899 0.00662582 2.11637e-19)
(-0.00886056 0.0146261 -1.58783e-19)
(-0.014391 0.0244989 -7.55536e-20)
(-0.0199407 0.0356446 6.28862e-20)
(-0.0249619 0.047519 -1.50067e-19)
(-0.0289958 0.0596424 -2.57589e-19)
(-0.0316722 0.0716064 1.58917e-19)
(-0.032697 0.0830802 -1.86834e-20)
(-0.0318395 0.0938113 -3.52142e-19)
(-0.0289168 0.103631 6.71028e-20)
(-0.0237764 0.112457 3.63416e-20)
(-0.01628 0.120282 -6.16237e-20)
(-0.0062878 0.127175 1.60847e-19)
(0.00635139 0.133271 3.05624e-19)
(0.0217996 0.138786 -1.94241e-19)
(0.0402181 0.144069 1.57245e-19)
(0.061626 0.149687 3.58385e-20)
(0.0856693 0.156705 2.08933e-19)
(0.113226 0.168168 9.20559e-20)
(-0.000850515 0.00133584 -9.12571e-20)
(-0.00445639 0.00707519 -1.14634e-20)
(-0.00959649 0.0149895 2.2417e-19)
(-0.0153281 0.0245577 2.18844e-19)
(-0.0209935 0.0352329 -4.40654e-20)
(-0.0260325 0.046521 -2.78835e-20)
(-0.0299765 0.0579834 2.92072e-19)
(-0.0324477 0.0692447 -2.08527e-19)
(-0.0331452 0.0799978 6.1819e-20)
(-0.0318329 0.0900055 2.53728e-19)
(-0.0283228 0.0991035 2.37919e-19)
(-0.0224588 0.107203 8.94757e-20)
(-0.0140985 0.114285 3.88968e-19)
(-0.00309789 0.120398 -5.31493e-20)
(0.0107014 0.125654 -3.95684e-19)
(0.0274731 0.130247 1.9119e-19)
(0.0473968 0.134513 -9.79268e-20)
(0.0705137 0.139041 -2.27785e-19)
(0.0964417 0.145005 -1.57989e-19)
(0.125975 0.155891 -1.57153e-19)
(-0.0010411 0.00160666 5.77035e-20)
(-0.00498232 0.00755217 1.16642e-19)
(-0.010418 0.0153699 -8.13119e-20)
(-0.0163677 0.0246096 -9.99494e-20)
(-0.0221589 0.0347806 -1.00999e-19)
(-0.0272205 0.0454405 -2.73564e-20)
(-0.0310754 0.0561961 -3.70424e-19)
(-0.0333398 0.0667055 1.41364e-19)
(-0.0337069 0.0766882 -1.27717e-19)
(-0.0319351 0.0859232 -2.11263e-19)
(-0.0278316 0.0942532 6.90924e-21)
(-0.0212355 0.101586 -5.15202e-19)
(-0.0119995 0.10789 -3.91967e-19)
(2.65694e-05 0.113196 1.20388e-19)
(0.0150104 0.117591 6.02877e-20)
(0.0331409 0.121243 -1.25271e-19)
(0.0546215 0.124466 4.76388e-19)
(0.0795255 0.127861 -7.3126e-20)
(0.107447 0.132703 1.96024e-19)
(0.139162 0.142969 1.73168e-19)
(-0.00126 0.00189845 -7.92756e-20)
(-0.00557212 0.0080652 -2.54625e-19)
(-0.0113265 0.0157812 7.92009e-20)
(-0.0175058 0.0246736 4.24504e-21)
(-0.0234245 0.0343121 3.31558e-19)
(-0.0285035 0.0443085 -1.94702e-19)
(-0.0322589 0.0543174 -1.64701e-19)
(-0.0343013 0.0640332 1.93782e-19)
(-0.0343196 0.0732022 -1.16433e-20)
(-0.0320665 0.081623 8.79355e-20)
(-0.0273439 0.0891467 2.59945e-19)
(-0.0199846 0.0956799 5.35388e-19)
(-0.00983502 0.101183 4.18345e-20)
(0.0032637 0.105666 -2.27054e-19)
(0.0194911 0.109193 4.10355e-20)
(0.0390545 0.1119 3.83273e-19)
(0.0621863 0.114072 -2.54954e-19)
(0.0890015 0.116308 7.4162e-22)
(0.11907 0.119962 1.8784e-19)
(0.153249 0.129556 -1.16752e-19)
(-0.00150987 0.00221338 -7.49429e-20)
(-0.00622916 0.00862035 2.98333e-19)
(-0.0123215 0.0162338 -2.25804e-19)
(-0.0187348 0.0247656 -4.56476e-20)
(-0.0247738 0.0338494 -7.56884e-20)
(-0.0298533 0.0431542 -1.92811e-19)
(-0.033485 0.0523833 1.90512e-19)
(-0.0352751 0.0612711 -5.03245e-20)
(-0.0349081 0.0695923 -1.08176e-19)
(-0.0321312 0.077166 1.74436e-19)
(-0.0267393 0.0838549 -1.98777e-19)
(-0.0185577 0.0895672 -6.319e-20)
(-0.00742375 0.0942558 -6.97432e-21)
(0.00683271 0.0979153 1.58123e-19)
(0.0244062 0.100584 -1.39654e-19)
(0.0455254 0.102365 -2.58888e-19)
(0.0704553 0.103505 -7.56115e-20)
(0.0993609 0.10458 -1.0908e-19)
(0.131777 0.106994 -3.28278e-19)
(0.168785 0.115862 -9.62878e-20)
(-0.00179292 0.00255247 1.05513e-19)
(-0.00695544 0.00922103 -1.31152e-19)
(-0.0134 0.0167352 -1.60611e-19)
(-0.0200437 0.0248984 -1.50678e-19)
(-0.026185 0.0334115 4.97958e-20)
(-0.0312357 0.042003 2.87372e-20)
(-0.0347042 0.0504285 6.73542e-20)
(-0.0361936 0.0584626 -2.31438e-19)
(-0.0353841 0.0659108 1.31163e-19)
(-0.0320162 0.072615 -3.83863e-19)
(-0.0258767 0.0784516 -1.89456e-19)
(-0.0167805 0.0833336 2.64352e-21)
(-0.00455254 0.0872094 1.60301e-19)
(0.0109918 0.0900603 -1.02559e-19)
(0.0300655 0.0919017 2.55985e-19)
(0.0529206 0.0928013 -6.16735e-20)
(0.0798562 0.0929584 7.95681e-20)
(0.111093 0.0929117 2.8857e-19)
(0.146105 0.0940566 3.78086e-20)
(0.186388 0.10216 1.79915e-19)
(-0.0021107 0.00291542 -2.22613e-19)
(-0.00775122 0.00986786 1.7366e-19)
(-0.0145564 0.0172893 1.94415e-19)
(-0.0214179 0.0250806 -1.10806e-19)
(-0.027632 0.0330136 1.87263e-19)
(-0.0326098 0.0408787 1.78939e-19)
(-0.0358588 0.0484839 -3.24378e-20)
(-0.0369795 0.0556483 -1.75305e-19)
(-0.0356466 0.0622095 -2.56049e-19)
(-0.0315936 0.0680328 7.43698e-20)
(-0.0245958 0.073012 7.28734e-21)
(-0.014455 0.0770676 -1.82963e-19)
(-0.000979721 0.0801474 1.31097e-19)
(0.0160332 0.0822233 -1.0111e-19)
(0.0368182 0.0832903 -1.81262e-19)
(0.0616518 0.0833819 -2.30219e-19)
(0.0908655 0.0826449 5.59992e-20)
(0.124736 0.0815602 7.49255e-20)
(0.16264 0.0814483 -7.03644e-20)
(0.206706 0.0887815 2.93633e-19)
(-0.00246393 0.00330061 -1.74107e-19)
(-0.00861473 0.0105585 -1.59658e-19)
(-0.0157818 0.0178963 1.24547e-19)
(-0.0228387 0.0253171 7.19038e-20)
(-0.0290831 0.0326669 2.82676e-20)
(-0.033929 0.0397997 -5.18394e-20)
(-0.0368839 0.0465784 -3.67954e-20)
(-0.0375459 0.0528665 8.18089e-20)
(-0.035584 0.0585369 -7.18734e-20)
(-0.0307214 0.0634808 5.93628e-19)
(-0.0227201 0.0676102 4.24109e-20)
(-0.0113638 0.0708577 -6.2627e-20)
(0.00355918 0.0731745 -4.10894e-19)
(0.0222749 0.0745273 7.81367e-20)
(0.0450417 0.074896 -1.93983e-19)
(0.0721602 0.0742829 1.26427e-19)
(0.103988 0.0727799 1.1276e-19)
(0.140855 0.070796 -4.19177e-19)
(0.181976 0.0694912 -1.27128e-19)
(0.230376 0.0761046 -4.38524e-19)
(-0.00285239 0.00370513 8.44291e-20)
(-0.00954187 0.0112879 1.64414e-19)
(-0.0170642 0.0185526 -2.92541e-19)
(-0.024283 0.0256085 -2.2136e-19)
(-0.0305022 0.0323781 1.09995e-19)
(-0.0351406 0.0387808 1.03396e-19)
(-0.0377076 0.0447352 -2.10799e-19)
(-0.0377984 0.0501515 -1.85261e-20)
(-0.0350745 0.0549388 2.51653e-20)
(-0.0292469 0.0590163 -1.78614e-19)
(-0.0200599 0.0623173 2.5283e-19)
(-0.00727537 0.0647894 1.69366e-21)
(0.00934354 0.0663917 3.06806e-19)
(0.0300494 0.0670917 2.04358e-19)
(0.0551262 0.0668599 3.46279e-20)
(0.0848947 0.0656735 4.09852e-19)
(0.119727 0.0635715 -3.64445e-19)
(0.159996 0.0608839 1.66512e-19)
(0.20468 0.0585112 1.27674e-19)
(0.25796 0.0645363 1.08787e-19)
(-0.00327474 0.00412478 4.01725e-19)
(-0.0105261 0.0120479 -2.76331e-19)
(-0.0183881 0.0192507 6.72975e-20)
(-0.025724 0.0259509 2.14324e-19)
(-0.0318482 0.0321492 -2.28507e-19)
(-0.036187 0.0378318 1.14549e-20)
(-0.0382522 0.0429736 1.68234e-19)
(-0.0376359 0.047532 3.04253e-19)
(-0.0339899 0.0514554 3.01587e-19)
(-0.0270097 0.0546921 -2.9412e-19)
(-0.0164183 0.0571991 -2.23125e-19)
(-0.00195108 0.0589423 1.03924e-19)
(0.0166581 0.0598939 -2.90879e-19)
(0.0396909 0.0600274 1.95812e-20)
(0.0674563 0.059312 1.08986e-19)
(0.100288 0.0577076 8.17793e-20)
(0.138556 0.0552069 2.44758e-19)
(0.182658 0.0520641 4.9742e-20)
(0.231247 0.0488133 -1.77086e-19)
(0.289898 0.0544873 1.87838e-19)
(-0.00372852 0.0045542 -3.8004e-19)
(-0.0115582 0.0128279 2.74591e-19)
(-0.0197346 0.0199799 6.64673e-20)
(-0.027131 0.0263363 -2.11408e-19)
(-0.0330761 0.0319775 8.80232e-20)
(-0.037006 0.036957 -4.19132e-20)
(-0.0384356 0.0413068 -3.21548e-20)
(-0.0369527 0.045032 -2.56504e-19)
(-0.0321973 0.0481207 -3.97786e-19)
(-0.0238458 0.0505539 2.53486e-19)
(-0.011596 0.0523137 -1.29445e-19)
(0.00484716 0.0533878 4.00232e-21)
(0.025782 0.0537654 7.0099e-20)
(0.0515203 0.0534328 1.44501e-19)
(0.0823921 0.0523652 -1.77009e-20)
(0.118733 0.0505158 -3.97e-20)
(0.160888 0.0478417 -1.96453e-19)
(0.209248 0.0445357 -1.2891e-19)
(0.262055 0.0406577 -1.19702e-19)
(0.326442 0.0463435 1.88918e-19)
(-0.00421006 0.00498702 3.02965e-19)
(-0.0126265 0.0136149 -7.70301e-20)
(-0.0210817 0.0207258 2.59549e-19)
(-0.0284696 0.0267527 6.23217e-20)
(-0.0341373 0.0318556 -1.35462e-19)
(-0.0375323 0.0361556 2.17807e-20)
(-0.0381728 0.0397419 -2.80772e-19)
(-0.0356411 0.0426677 1.25689e-19)
(-0.0295629 0.044962 6.61843e-20)
(-0.019592 0.0466395 9.54212e-21)
(-0.00539756 0.0477105 8.9218e-20)
(0.0133484 0.0481865 3.09999e-20)
(0.0369781 0.0480783 -1.38938e-19)
(0.0658309 0.0473903 -3.17115e-19)
(0.100251 0.0461119 1.57544e-19)
(0.140559 0.0442006 -7.62938e-20)
(0.187044 0.0415923 -1.74966e-20)
(0.240049 0.0384434 3.12209e-19)
(0.297347 0.0342413 3.19716e-19)
(0.367624 0.0404397 -4.81651e-19)
(-0.00471447 0.00541605 -7.77268e-20)
(-0.0137167 0.014394 -8.24251e-20)
(-0.0224042 0.0214713 -1.62465e-19)
(-0.0297024 0.027184 1.17245e-19)
(-0.0349802 0.0317713 2.10944e-19)
(-0.0376982 0.0354214 -2.68565e-19)
(-0.0373774 0.0382803 4.23363e-19)
(-0.0335931 0.0404492 -8.14187e-20)
(-0.0259545 0.0419984 1.15079e-20)
(-0.0140903 0.0429779 -2.72111e-19)
(0.00236202 0.0434282 9.09967e-21)
(0.0237647 0.043387 -2.15465e-19)
(0.0504819 0.0428898 2.83234e-19)
(0.0828752 0.0419642 1.81972e-19)
(0.12129 0.0406213 -3.48644e-19)
(0.166011 0.0388333 -2.90561e-19)
(0.217241 0.0365328 6.57327e-20)
(0.275206 0.0338698 3.74108e-19)
(0.337209 0.0296896 1.69045e-19)
(0.413226 0.0370368 8.91718e-20)
(-0.00523576 0.00583353 2.33632e-20)
(-0.0148122 0.0151487 8.01586e-20)
(-0.0236744 0.0221968 9.49886e-20)
(-0.0307896 0.0276111 -7.9065e-20)
(-0.0355516 0.0317085 1.94763e-19)
(-0.037435 0.0347431 2.57732e-19)
(-0.0359634 0.0369168 3.85449e-21)
(-0.0307035 0.0383789 -3.2239e-19)
(-0.0212459 0.0392407 -2.53458e-19)
(-0.00719219 0.0395887 2.61261e-19)
(0.0118526 0.0394947 -4.17919e-19)
(0.0362837 0.0390248 -3.76462e-19)
(0.0664928 0.0382417 -3.69513e-20)
(0.102854 0.0372001 -1.99108e-20)
(0.145697 0.0359387 1.22376e-19)
(0.195242 0.034454 7.88191e-20)
(0.251574 0.0326956 1.00159e-19)
(0.314712 0.0308338 -4.62724e-19)
(0.381584 0.0270546 -1.24498e-19)
(0.462783 0.0362951 3.22378e-19)
(-0.00576691 0.00623135 -1.42841e-19)
(-0.0158944 0.0158616 1.35714e-19)
(-0.0248622 0.0228808 -9.95278e-20)
(-0.0316894 0.0280121 -4.87601e-20)
(-0.035797 0.0316472 -1.31578e-19)
(-0.0366741 0.0341045 -9.85393e-20)
(-0.0338466 0.0356408 -1.73205e-19)
(-0.0268713 0.0364524 2.8217e-19)
(-0.0153187 0.0366918 1.10078e-19)
(0.00123707 0.0364816 -2.6568e-19)
(0.0232228 0.0359268 -3.16418e-19)
(0.0510625 0.0351228 1.65937e-19)
(0.0851672 0.0341607 -1.51596e-19)
(0.125909 0.0331248 -2.07676e-19)
(0.173579 0.0320862 -2.56797e-20)
(0.228303 0.0310732 2.05901e-19)
(0.290019 0.0300763 -1.33807e-19)
(0.358416 0.0292937 5.04762e-20)
(0.430288 0.0263233 1.11476e-19)
(0.515618 0.0382479 2.73096e-19)
(-0.0063 0.00660139 -1.48225e-20)
(-0.0169427 0.0165148 -3.35067e-19)
(-0.0259359 0.0235009 8.06168e-20)
(-0.0323588 0.0283628 1.77823e-19)
(-0.0356615 0.0315643 -3.25861e-20)
(-0.0353482 0.0334856 -2.09875e-19)
(-0.0309463 0.0344363 2.27777e-19)
(-0.0220021 0.0346591 2.56821e-19)
(-0.00806552 0.0343467 9.69844e-20)
(0.011316 0.0336582 4.72198e-19)
(0.036597 0.0327312 -2.15115e-19)
(0.0682237 0.0316916 7.5794e-20)
(0.106613 0.0306592 -1.0247e-19)
(0.152116 0.0297486 2.40778e-19)
(0.204962 0.0290656 -2.09723e-20)
(0.265145 0.0286755 -5.27597e-20)
(0.332428 0.0286393 -8.34414e-20)
(0.406023 0.0291549 1.28211e-19)
(0.482998 0.0274615 -3.17454e-19)
(0.570801 0.0428723 -4.18771e-19)
(-0.00682646 0.00693575 -8.24148e-20)
(-0.0179355 0.0170906 -2.9399e-20)
(-0.0268624 0.0240339 -2.67529e-19)
(-0.0327542 0.0286382 1.61951e-19)
(-0.0350908 0.0314349 -1.63314e-19)
(-0.0333919 0.0328631 -1.63607e-19)
(-0.0271862 0.0332835 -1.47999e-20)
(-0.0160091 0.0329831 -2.59421e-19)
(0.000609017 0.0321944 -4.04078e-19)
(0.0231445 0.0311121 1.08594e-19)
(0.0520732 0.0299061 1.19555e-19)
(0.0878524 0.028732 -4.9355e-20)
(0.130889 0.027738 3.81655e-19)
(0.181489 0.0270674 -3.41845e-20)
(0.239789 0.0268602 -7.3084e-20)
(0.305623 0.027221 -9.36867e-21)
(0.378554 0.0283161 1.77693e-19)
(0.457154 0.0302698 3.09389e-19)
(0.539257 0.0305223 -8.53628e-20)
(0.626948 0.0503653 3.06805e-19)
(-0.0073372 0.00722705 2.57639e-19)
(-0.0188499 0.0175721 -4.04196e-20)
(-0.0276079 0.0244573 2.35815e-19)
(-0.0328316 0.0288128 -2.39143e-19)
(-0.0340317 0.0312328 3.48929e-19)
(-0.0307428 0.0322119 2.8817e-19)
(-0.0224953 0.0321592 -2.3347e-19)
(-0.00881432 0.0314046 -4.27801e-19)
(0.0107868 0.0302191 6.983e-19)
(0.0368029 0.0288315 1.69152e-19)
(0.0697219 0.027443 -1.29571e-19)
(0.109997 0.0262376 -1.25329e-19)
(0.158003 0.0253895 -1.29445e-19)
(0.213973 0.0250669 -9.42377e-20)
(0.277924 0.0254389 -3.05232e-19)
(0.349497 0.0266453 -8.10348e-20)
(0.428059 0.0289845 6.89734e-21)
(0.511458 0.0324043 -2.12451e-19)
(0.598758 0.0356709 1.04074e-19)
(0.682463 0.0608978 -2.16837e-19)
(-0.0078229 0.00746867 -4.11421e-19)
(-0.0196629 0.0179437 2.69769e-19)
(-0.0281384 0.0247498 -3.97589e-19)
(-0.0325479 0.0288617 -2.14046e-19)
(-0.0324323 0.0309317 7.88124e-20)
(-0.0273416 0.0315061 -3.11245e-19)
(-0.0168081 0.0310393 4.80939e-19)
(-0.000348683 0.0299021 8.15923e-21)
(0.0225364 0.0284021 -2.59286e-19)
(0.0523525 0.0268013 -2.22998e-19)
(0.0895864 0.0253301 -3.91153e-19)
(0.134668 0.0241983 -4.87796e-21)
(0.187915 0.0236019 -5.32637e-20)
(0.249456 0.0237276 -1.52927e-19)
(0.319151 0.024763 3.69294e-19)
(0.396425 0.0268655 2.23443e-19)
(0.48047 0.0304552 5.47189e-20)
(0.568574 0.0352133 -2.318e-19)
(0.661712 0.0427342 -1.28661e-20)
(0.738358 0.0716899 -3.63698e-19)
(-0.00827421 0.00765497 1.46131e-19)
(-0.0203509 0.0181917 -2.69394e-19)
(-0.0284199 0.0248916 3.43031e-19)
(-0.0318602 0.0287618 4.76979e-19)
(-0.0302427 0.0305068 -1.53427e-19)
(-0.0231324 0.0307204 1.96195e-20)
(-0.0100648 0.0298996 -4.05647e-19)
(0.0094482 0.0284535 -9.96087e-20)
(0.0359133 0.0267246 -3.04643e-19)
(0.0698359 0.025006 3.90794e-19)
(0.111685 0.0235549 3.55558e-19)
(0.161844 0.0226034 -6.22905e-20)
(0.220541 0.0223638 -4.55978e-20)
(0.287766 0.0230317 -7.22846e-20)
(0.363179 0.0247969 6.71258e-20)
(0.44596 0.0278031 -1.17577e-19)
(0.535103 0.0325276 -1.33678e-19)
(0.627636 0.0383235 2.78573e-19)
(0.727153 0.0501734 -8.81847e-20)
(0.801559 0.0738509 8.16667e-21)
(-0.00868193 0.00778141 3.85194e-20)
(-0.020891 0.0183044 5.45103e-20)
(-0.0284191 0.024866 -1.79488e-19)
(-0.0307269 0.0284926 -4.91291e-19)
(-0.0274146 0.0299355 7.87815e-20)
(-0.0180624 0.0298321 2.35414e-19)
(-0.00221097 0.0287181 1.06052e-19)
(0.0206285 0.0270389 4.48511e-19)
(0.0509613 0.0251696 -2.77562e-19)
(0.0892789 0.0234319 -3.54958e-19)
(0.136013 0.0221073 -6.40243e-20)
(0.191473 0.0214454 1.55521e-19)
(0.255761 0.0216681 3.3382e-20)
(0.328684 0.0229684 1.38852e-20)
(0.409661 0.0255199 -1.47125e-19)
(0.497581 0.0294175 4.11016e-20)
(0.591176 0.0351144 -5.24135e-20)
(0.687256 0.0415009 -2.77229e-20)
(0.789677 0.0543556 6.27572e-20)
(0.869464 0.0655332 6.70673e-19)
(-0.00903715 0.00784464 -1.90529e-19)
(-0.0212603 0.0182728 1.26009e-20)