/*--------------------------------*- C++ -*----------------------------------*\
  =========                 |
  \\      /  F ield         | OpenFOAM: The Open Source CFD Toolbox
   \\    /   O peration     | Website:  https://openfoam.org
    \\  /    A nd           | Version:  7
     \\/     M anipulation  |
\*---------------------------------------------------------------------------*/
FoamFile
{
    version     2.0;
    format      ascii;
    class       volScalarField;
    location    "260";
    object      p;
}
// * * * * * * * * * * * * * * * * * * * * * * * * * * * * * * * * * * * * * //

dimensions      [0 2 -2 0 0 0 0];

internalField   nonuniform List<scalar> 
7156
(
-0.405207
-0.405685
-0.406183
-0.406745
-0.407405
-0.408189
-0.409112
-0.410186
-0.411415
-0.412803
-0.414351
-0.416062
-0.417935
-0.419972
-0.422174
-0.424541
-0.427071
-0.429764
-0.432622
-0.435568
-0.438603
-0.408743
-0.40923
-0.409755
-0.410362
-0.411087
-0.411956
-0.412985
-0.414186
-0.415567
-0.41713
-0.41888
-0.420818
-0.422947
-0.42527
-0.42779
-0.430508
-0.433426
-0.436544
-0.439866
-0.44332
-0.446902
-0.412277
-0.412771
-0.413321
-0.413972
-0.414759
-0.41571
-0.416843
-0.41817
-0.419699
-0.421434
-0.423381
-0.425542
-0.427921
-0.430524
-0.433354
-0.436416
-0.439711
-0.443243
-0.447017
-0.450965
-0.455074
-0.415802
-0.4163
-0.416873
-0.417564
-0.418412
-0.419443
-0.420677
-0.422126
-0.423799
-0.425702
-0.42784
-0.430217
-0.43284
-0.435715
-0.438846
-0.44224
-0.445901
-0.449833
-0.454045
-0.458467
-0.463079
-0.419308
-0.419809
-0.420401
-0.421131
-0.422036
-0.423144
-0.424475
-0.426042
-0.427854
-0.429919
-0.432242
-0.43483
-0.437688
-0.440824
-0.444245
-0.447959
-0.451971
-0.456287
-0.460918
-0.465794
-0.470875
-0.422789
-0.423289
-0.423898
-0.424664
-0.425622
-0.426803
-0.428226
-0.429906
-0.431853
-0.434073
-0.436574
-0.439363
-0.442446
-0.445833
-0.449531
-0.45355
-0.457897
-0.462577
-0.467607
-0.472913
-0.478439
-0.426236
-0.426732
-0.427356
-0.428152
-0.429161
-0.43041
-0.431921
-0.433708
-0.435782
-0.438151
-0.440821
-0.443802
-0.4471
-0.450724
-0.454686
-0.458993
-0.463655
-0.468679
-0.474084
-0.479793
-0.485732
-0.42964
-0.43013
-0.430764
-0.431589
-0.432642
-0.433955
-0.435548
-0.437436
-0.43963
-0.442139
-0.44497
-0.448131
-0.451632
-0.455481
-0.459689
-0.464267
-0.469223
-0.474568
-0.480322
-0.486406
-0.49272
-0.432995
-0.433475
-0.434116
-0.434964
-0.436058
-0.437429
-0.439098
-0.44108
-0.443386
-0.446026
-0.449007
-0.452338
-0.456027
-0.460086
-0.464523
-0.469352
-0.474581
-0.480221
-0.486296
-0.492723
-0.499371
-0.436292
-0.436759
-0.437403
-0.43827
-0.439399
-0.440822
-0.44256
-0.444628
-0.447038
-0.449799
-0.45292
-0.456408
-0.460272
-0.464524
-0.469173
-0.474231
-0.479709
-0.485617
-0.491985
-0.498723
-0.505659
-0.439525
-0.439975
-0.440617
-0.441498
-0.442658
-0.444126
-0.445925
-0.448072
-0.450576
-0.453449
-0.456696
-0.460328
-0.464353
-0.46878
-0.473622
-0.478888
-0.48459
-0.490738
-0.497367
-0.504384
-0.511565
-0.442687
-0.443117
-0.443753
-0.444643
-0.445826
-0.447333
-0.449186
-0.451401
-0.453991
-0.456963
-0.460326
-0.464088
-0.468257
-0.472843
-0.477857
-0.483309
-0.489209
-0.495568
-0.502426
-0.509691
-0.51707
-0.445771
-0.446177
-0.446803
-0.447696
-0.448897
-0.450435
-0.452333
-0.454609
-0.457272
-0.460333
-0.463798
-0.467676
-0.471974
-0.476701
-0.481866
-0.48748
-0.493553
-0.500093
-0.507146
-0.514631
-0.522141
-0.44915
-0.449761
-0.450652
-0.451863
-0.453425
-0.45536
-0.457686
-0.460413
-0.46355
-0.467105
-0.471084
-0.475494
-0.480343
-0.485639
-0.491392
-0.49761
-0.504301
-0.511517
-0.519192
-0.526759
-0.452031
-0.452622
-0.453505
-0.45472
-0.456297
-0.45826
-0.460626
-0.463405
-0.466607
-0.470238
-0.474303
-0.478808
-0.483761
-0.489168
-0.495036
-0.501373
-0.508184
-0.515523
-0.523312
-0.531006
-0.454814
-0.455381
-0.45625
-0.457461
-0.459046
-0.461028
-0.463423
-0.466244
-0.469497
-0.473189
-0.477326
-0.48191
-0.486948
-0.492445
-0.498405
-0.504835
-0.511738
-0.519167
-0.527037
-0.534788
-0.457497
-0.458035
-0.458884
-0.460084
-0.461667
-0.463658
-0.466073
-0.468922
-0.472215
-0.475955
-0.480147
-0.484794
-0.489899
-0.495465
-0.501496
-0.507993
-0.514959
-0.522447
-0.53037
-0.538117
-0.460076
-0.46058
-0.461402
-0.462584
-0.464157
-0.466147
-0.46857
-0.471438
-0.474756
-0.478531
-0.482764
-0.487456
-0.49261
-0.498226
-0.504305
-0.510845
-0.517847
-0.525364
-0.533313
-0.541013
-0.462549
-0.463013
-0.463803
-0.464959
-0.466514
-0.468493
-0.470913
-0.473786
-0.477118
-0.480913
-0.485171
-0.489894
-0.49508
-0.500726
-0.506831
-0.513393
-0.520404
-0.527922
-0.535868
-0.543483
-0.464914
-0.465334
-0.466085
-0.467207
-0.468735
-0.470693
-0.4731
-0.475966
-0.479298
-0.483099
-0.487369
-0.492106
-0.497306
-0.502965
-0.509078
-0.515637
-0.522634
-0.530124
-0.538041
-0.545532
-0.467542
-0.468247
-0.469328
-0.470819
-0.472747
-0.475129
-0.477977
-0.481297
-0.48509
-0.489357
-0.494092
-0.499291
-0.504945
-0.511046
-0.517583
-0.524542
-0.531979
-0.53984
-0.547169
-0.469636
-0.47029
-0.471322
-0.472768
-0.474655
-0.477001
-0.479818
-0.483113
-0.486886
-0.491135
-0.495854
-0.501036
-0.506669
-0.51274
-0.519235
-0.526136
-0.533496
-0.541276
-0.548406
-0.471617
-0.472214
-0.47319
-0.474582
-0.476417
-0.478717
-0.481492
-0.484749
-0.488488
-0.492706
-0.497395
-0.502545
-0.50814
-0.514166
-0.520602
-0.527425
-0.534684
-0.542361
-0.549257
-0.473488
-0.474021
-0.474933
-0.476263
-0.478038
-0.48028
-0.483001
-0.486208
-0.489901
-0.494074
-0.498719
-0.503822
-0.509366
-0.51533
-0.521691
-0.528417
-0.535555
-0.543108
-0.549735
-0.475714
-0.476556
-0.477814
-0.479519
-0.481692
-0.484349
-0.487494
-0.491127
-0.495243
-0.499831
-0.504875
-0.510353
-0.516241
-0.52251
-0.529125
-0.536121
-0.543531
-0.549855
-0.477297
-0.478061
-0.479239
-0.480864
-0.48296
-0.48554
-0.488611
-0.492173
-0.49622
-0.500738
-0.505709
-0.511109
-0.516907
-0.523072
-0.529559
-0.536396
-0.543645
-0.54963
-0.478773
-0.479453
-0.480544
-0.48208
-0.484087
-0.48658
-0.489567
-0.493046
-0.497011
-0.501447
-0.506334
-0.511643
-0.51734
-0.523387
-0.529732
-0.536392
-0.543465
-0.549075
-0.480148
-0.480737
-0.481733
-0.483172
-0.485081
-0.487477
-0.490368
-0.493753
-0.497625
-0.501968
-0.506759
-0.511965
-0.517549
-0.523466
-0.529657
-0.536123
-0.543006
-0.548201
-0.48192
-0.482813
-0.484147
-0.485949
-0.488238
-0.491022
-0.494303
-0.498072
-0.502311
-0.506995
-0.512089
-0.517548
-0.523323
-0.529347
-0.535604
-0.542283
-0.547022
-0.483007
-0.483792
-0.485013
-0.486699
-0.488872
-0.491541
-0.494707
-0.498362
-0.502487
-0.507054
-0.512025
-0.51735
-0.522972
-0.528817
-0.534848
-0.54131
-0.545549
-0.484008
-0.484678
-0.485778
-0.487341
-0.489389
-0.491933
-0.494976
-0.498508
-0.502509
-0.50695
-0.511788
-0.516968
-0.522427
-0.528081
-0.533869
-0.540099
-0.543799
-0.484928
-0.485478
-0.486452
-0.487884
-0.489799
-0.492211
-0.495122
-0.498522
-0.502391
-0.506696
-0.511392
-0.516419
-0.521705
-0.527157
-0.532682
-0.538659
-0.54176
-0.486203
-0.487044
-0.488339
-0.490115
-0.492387
-0.495158
-0.498418
-0.502147
-0.506309
-0.510855
-0.515719
-0.520821
-0.526059
-0.531304
-0.537013
-0.539367
-0.486862
-0.487566
-0.488718
-0.490349
-0.492474
-0.495098
-0.498212
-0.501793
-0.505804
-0.510192
-0.514885
-0.519794
-0.524808
-0.529755
-0.535193
-0.536819
-0.487465
-0.488027
-0.489032
-0.490512
-0.492485
-0.494957
-0.497918
-0.501345
-0.505198
-0.509421
-0.513934
-0.518641
-0.523421
-0.528055
-0.533219
-0.534077
-0.48844
-0.489295
-0.49062
-0.492436
-0.49475
-0.497553
-0.50082
-0.50451
-0.50856
-0.512886
-0.51738
-0.521915
-0.526217
-0.531101
-0.531124
-0.488817
-0.489517
-0.490685
-0.492341
-0.494493
-0.497134
-0.500236
-0.503757
-0.507628
-0.511758
-0.516029
-0.520307
-0.524259
-0.528852
-0.527975
-0.489168
-0.489714
-0.490721
-0.492214
-0.494202
-0.496677
-0.499611
-0.502956
-0.506642
-0.510568
-0.514606
-0.518614
-0.522194
-0.526483
-0.52465
-0.489897
-0.490743
-0.492072
-0.493893
-0.496199
-0.498961
-0.502127
-0.505621
-0.509335
-0.513128
-0.516852
-0.520039
-0.524006
-0.521165
-0.49008
-0.490765
-0.491928
-0.493582
-0.495717
-0.498303
-0.501286
-0.504581
-0.508075
-0.511611
-0.515036
-0.517808
-0.521432
-0.51754
-0.4908
-0.491799
-0.493285
-0.495247
-0.497655
-0.500449
-0.50354
-0.506804
-0.510071
-0.51318
-0.515516
-0.518769
-0.513801
-0.490863
-0.491698
-0.493015
-0.494805
-0.497032
-0.499633
-0.502513
-0.505537
-0.508522
-0.511298
-0.513181
-0.516026
-0.509973
-0.491639
-0.492788
-0.494404
-0.496447
-0.498851
-0.501513
-0.504287
-0.506979
-0.509402
-0.510819
-0.51321
-0.506089
-0.491634
-0.492617
-0.494057
-0.495914
-0.498116
-0.500552
-0.503067
-0.505454
-0.507506
-0.508453
-0.510332
-0.502189
-0.491696
-0.492512
-0.493776
-0.495444
-0.497438
-0.49964
-0.501885
-0.503957
-0.505621
-0.506109
-0.507409
-0.498341
-0.492484
-0.493571
-0.495046
-0.496825
-0.498786
-0.500752
-0.502501
-0.503761
-0.503812
-0.504463
-0.494635
-0.492542
-0.493449
-0.494726
-0.496284
-0.497994
-0.499672
-0.501093
-0.501939
-0.50159
-0.501473
-0.491057
-0.493416
-0.494489
-0.495818
-0.497267
-0.49865
-0.499744
-0.500183
-0.499504
-0.498373
-0.487292
-0.493475
-0.494338
-0.495428
-0.496606
-0.497687
-0.49846
-0.498536
-0.497685
-0.495326
-0.483564
-0.494272
-0.495111
-0.496006
-0.496775
-0.497231
-0.497006
-0.4962
-0.493093
-0.483908
-0.494863
-0.495459
-0.495901
-0.496031
-0.495521
-0.494781
-0.492005
-0.494918
-0.494677
-0.494955
-0.495048
-0.494824
-0.493998
-0.493181
-0.490415
-0.495527
-0.49448
-0.494198
-0.493581
-0.492378
-0.491262
-0.488145
-0.492786
-0.494024
-0.493335
-0.492282
-0.490632
-0.489042
-0.485395
-0.488812
-0.492446
-0.490913
-0.488756
-0.486569
-0.482292
-0.484166
-0.489469
-0.486755
-0.483893
-0.478938
-0.47921
-0.487948
-0.484639
-0.481064
-0.475421
-0.474166
-0.482426
-0.478123
-0.47181
-0.469159
-0.475107
-0.468154
-0.464257
-0.464492
-0.459495
-0.460846
-0.454888
-0.450437
-0.263072
-0.267535
-0.264381
-0.275054
-0.267829
-0.2657
-0.274977
-0.267986
-0.267006
-0.280068
-0.274728
-0.267972
-0.268261
-0.285234
-0.279416
-0.274277
-0.267742
-0.269397
-0.284413
-0.278601
-0.273589
-0.267239
-0.270305
-0.289246
-0.283491
-0.277618
-0.272626
-0.266387
-0.270805
-0.293941
-0.288338
-0.282481
-0.27647
-0.271351
-0.265097
-0.270611
-0.293087
-0.287401
-0.2814
-0.275167
-0.269736
-0.263283
-0.269381
-0.297563
-0.292238
-0.286453
-0.280271
-0.273733
-0.267753
-0.260824
-0.26667
-0.296786
-0.291406
-0.285514
-0.279131
-0.272217
-0.265411
-0.257321
-0.259103
-0.300944
-0.296038
-0.290604
-0.284609
-0.278026
-0.270722
-0.262989
-0.252859
-0.235621
-0.304679
-0.300259
-0.295327
-0.289844
-0.28376
-0.277012
-0.269393
-0.260921
-0.250509
-0.22994
-0.304048
-0.299616
-0.294661
-0.289139
-0.282986
-0.276123
-0.268327
-0.259509
-0.249666
-0.230237
-0.307417
-0.303466
-0.299024
-0.29405
-0.288496
-0.282295
-0.275362
-0.267494
-0.25857
-0.249107
-0.230575
-0.306898
-0.302943
-0.29849
-0.2935
-0.287923
-0.281691
-0.27472
-0.26683
-0.257906
-0.248615
-0.230794
-0.30994
-0.306447
-0.302487
-0.298025
-0.293022
-0.287427
-0.281176
-0.274188
-0.266306
-0.257445
-0.248279
-0.231301
-0.309566
-0.306073
-0.302109
-0.297639
-0.292625
-0.287017
-0.280756
-0.273767
-0.265913
-0.257156
-0.248113
-0.232096
-0.312326
-0.309279
-0.305786
-0.301818
-0.297342
-0.292319
-0.286704
-0.28044
-0.273461
-0.265651
-0.257024
-0.248103
-0.233084
-0.312128
-0.309086
-0.305594
-0.301625
-0.297144
-0.292117
-0.286499
-0.280238
-0.273279
-0.265526
-0.257044
-0.248252
-0.234222
-0.312031
-0.308995
-0.305508
-0.30154
-0.297059
-0.29203
-0.286414
-0.280165
-0.273235
-0.265551
-0.257222
-0.248574
-0.235497
-0.314641
-0.312042
-0.309016
-0.305536
-0.301573
-0.297096
-0.292072
-0.286465
-0.280234
-0.273342
-0.265739
-0.257572
-0.249084
-0.236905
-0.314752
-0.312169
-0.309156
-0.305687
-0.301733
-0.297266
-0.292254
-0.286662
-0.28046
-0.273617
-0.266106
-0.258107
-0.249796
-0.238442
-0.317141
-0.314981
-0.312415
-0.30942
-0.305967
-0.30203
-0.297579
-0.292586
-0.28702
-0.280855
-0.274073
-0.266666
-0.258839
-0.250716
-0.240103
-0.317469
-0.31533
-0.312788
-0.309814
-0.306384
-0.302469
-0.298043
-0.293078
-0.287547
-0.281431
-0.274722
-0.267429
-0.259776
-0.251848
-0.241885
-0.317917
-0.315805
-0.313289
-0.310343
-0.306941
-0.303057
-0.298664
-0.293737
-0.288252
-0.282198
-0.275573
-0.268404
-0.260926
-0.253192
-0.243784
-0.320194
-0.318489
-0.316407
-0.313922
-0.31101
-0.307644
-0.303798
-0.299447
-0.294568
-0.289142
-0.28316
-0.276631
-0.269594
-0.262289
-0.254743
-0.2458
-0.320861
-0.319187
-0.317138
-0.31469
-0.311817
-0.308493
-0.304695
-0.300396
-0.295576
-0.290219
-0.284322
-0.277899
-0.271
-0.263863
-0.256496
-0.247932
-0.321651
-0.320011
-0.317999
-0.315592
-0.312765
-0.309492
-0.305748
-0.301511
-0.296761
-0.291485
-0.285683
-0.279376
-0.27262
-0.265647
-0.258446
-0.250183
-0.323825
-0.322565
-0.320961
-0.318991
-0.316631
-0.313855
-0.310639
-0.30696
-0.302794
-0.298124
-0.292939
-0.287243
-0.28106
-0.274449
-0.267634
-0.260588
-0.252557
-0.324829
-0.323603
-0.322038
-0.320114
-0.317805
-0.315087
-0.311936
-0.308328
-0.304242
-0.299662
-0.294579
-0.288998
-0.282946
-0.276483
-0.269821
-0.262919
-0.255062
-0.325954
-0.324764
-0.323242
-0.321366
-0.319113
-0.316459
-0.313379
-0.309851
-0.305855
-0.301374
-0.296402
-0.290945
-0.285031
-0.278717
-0.272203
-0.265436
-0.257705
-0.3272
-0.326048
-0.324571
-0.322748
-0.320556
-0.31797
-0.314968
-0.311528
-0.307629
-0.303256
-0.298404
-0.293079
-0.287308
-0.281145
-0.274776
-0.268144
-0.260498
-0.329379
-0.328566
-0.327454
-0.326025
-0.324258
-0.32213
-0.319619
-0.316701
-0.313355
-0.309561
-0.305305
-0.300581
-0.295395
-0.289773
-0.283763
-0.277537
-0.271052
-0.263449
-0.330831
-0.330052
-0.328981
-0.327602
-0.325894
-0.323835
-0.321404
-0.318576
-0.315331
-0.31165
-0.307518
-0.302929
-0.29789
-0.292421
-0.286567
-0.280489
-0.274174
-0.266555
-0.3324
-0.331655
-0.330627
-0.329301
-0.327655
-0.32567
-0.323322
-0.320591
-0.317453
-0.313892
-0.309892
-0.305446
-0.300559
-0.29525
-0.289556
-0.283626
-0.277418
-0.2699
-0.33453
-0.334084
-0.333375
-0.332392
-0.33112
-0.32954
-0.327632
-0.325373
-0.322743
-0.319719
-0.316284
-0.312423
-0.308127
-0.3034
-0.298258
-0.29273
-0.286958
-0.280858
-0.273527
-0.3363
-0.335883
-0.33521
-0.334274
-0.333059
-0.331548
-0.32972
-0.327555
-0.325031
-0.322127
-0.318825
-0.315109
-0.310971
-0.306412
-0.301442
-0.296089
-0.290483
-0.284503
-0.277414
-0.338182
-0.337794
-0.337159
-0.336271
-0.335116
-0.333676
-0.331933
-0.329865
-0.327453
-0.324675
-0.321512
-0.31795
-0.313977
-0.309592
-0.304803
-0.299633
-0.2942
-0.288347
-0.281466
-0.340175
-0.339816
-0.339221
-0.338383
-0.337289
-0.335924
-0.334269
-0.332304
-0.330008
-0.327361
-0.324345
-0.320942
-0.317142
-0.312941
-0.308341
-0.303363
-0.298112
-0.292402
-0.285714
-0.342277
-0.341948
-0.341393
-0.340607
-0.339577
-0.33829
-0.336726
-0.334868
-0.332694
-0.330185
-0.327321
-0.324086
-0.320467
-0.316457
-0.312057
-0.307281
-0.302225
-0.296679
-0.290199
-0.344565
-0.344486
-0.344188
-0.343675
-0.342942
-0.341979
-0.340772
-0.339304
-0.337557
-0.335511
-0.333145
-0.330441
-0.327381
-0.323951
-0.320143
-0.315953
-0.311391
-0.306544
-0.301187
-0.294936
-0.346856
-0.3468
-0.346534
-0.346064
-0.345386
-0.344493
-0.34337
-0.342002
-0.34037
-0.338457
-0.336241
-0.333703
-0.330826
-0.327594
-0.323997
-0.320029
-0.315696
-0.311074
-0.30593
-0.29993
-0.349249
-0.349216
-0.348983
-0.348558
-0.347938
-0.347116
-0.346081
-0.344816
-0.343306
-0.34153
-0.33947
-0.337106
-0.33442
-0.331396
-0.328022
-0.324288
-0.320197
-0.315818
-0.31091
-0.305187
-0.351741
-0.351732
-0.351534
-0.351155
-0.350596
-0.349849
-0.348904
-0.347747
-0.346362
-0.34473
-0.342832
-0.34065
-0.338163
-0.335357
-0.332216
-0.32873
-0.324897
-0.320779
-0.316133
-0.310712
-0.354329
-0.354345
-0.354184
-0.353854
-0.353356
-0.352687
-0.351836
-0.350792
-0.349537
-0.348054
-0.346326
-0.344332
-0.342054
-0.339475
-0.33658
-0.333355
-0.329797
-0.32596
-0.321599
-0.316508
-0.357012
-0.357054
-0.35693
-0.35665
-0.356217
-0.355629
-0.354876
-0.353948
-0.352828
-0.351501
-0.349949
-0.348151
-0.346091
-0.34375
-0.341112
-0.338163
-0.334896
-0.331359
-0.32731
-0.322576
-0.359786
-0.359855
-0.35977
-0.359542
-0.359176
-0.358672
-0.358021
-0.357213
-0.356234
-0.355068
-0.353698
-0.352105
-0.350271
-0.348179
-0.345811
-0.343151
-0.340193
-0.336976
-0.333264
-0.328915
-0.362383
-0.362648
-0.362745
-0.3627
-0.362526
-0.36223
-0.361812
-0.361267
-0.360584
-0.359751
-0.358752
-0.357571
-0.35619
-0.354592
-0.352758
-0.350673
-0.348317
-0.345685
-0.342807
-0.339457
-0.335521
-0.365311
-0.365593
-0.365719
-0.365715
-0.365598
-0.365375
-0.365047
-0.364611
-0.364057
-0.363374
-0.362548
-0.361563
-0.360402
-0.359048
-0.357484
-0.355693
-0.353657
-0.351366
-0.348849
-0.345885
-0.342387
-0.368319
-0.368619
-0.368774
-0.368814
-0.368754
-0.368606
-0.368371
-0.368048
-0.367628
-0.3671
-0.366453
-0.36567
-0.364737
-0.363636
-0.362351
-0.360866
-0.359162
-0.35723
-0.355092
-0.352539
-0.349505
-0.371401
-0.37172
-0.371906
-0.37199
-0.37199
-0.371919
-0.371781
-0.371574
-0.371291
-0.370924
-0.37046
-0.369886
-0.369187
-0.368347
-0.367352
-0.366184
-0.364826
-0.363269
-0.361528
-0.359408
-0.356863
-0.374555
-0.374892
-0.375109
-0.375238
-0.375301
-0.37531
-0.375271
-0.375183
-0.375042
-0.374839
-0.374564
-0.374204
-0.373746
-0.373176
-0.372478
-0.371638
-0.370639
-0.36947
-0.368144
-0.366479
-0.364443
-0.377774
-0.37813
-0.378379
-0.378555
-0.378681
-0.378772
-0.378834
-0.378869
-0.378873
-0.378839
-0.378757
-0.378617
-0.378406
-0.378111
-0.37772
-0.377218
-0.376588
-0.375821
-0.374927
-0.373735
-0.372228
-0.381055
-0.381429
-0.38171
-0.381934
-0.382125
-0.382299
-0.382465
-0.382625
-0.382777
-0.382915
-0.383031
-0.383115
-0.383156
-0.383144
-0.383066
-0.38291
-0.38266
-0.382307
-0.381858
-0.381156
-0.380195
-0.384391
-0.384783
-0.385096
-0.385368
-0.385625
-0.385885
-0.386157
-0.386445
-0.386747
-0.38706
-0.387377
-0.387689
-0.387988
-0.388263
-0.388504
-0.388701
-0.388839
-0.38891
-0.388918
-0.388721
-0.38832
-0.387776
-0.388185
-0.388531
-0.388851
-0.389175
-0.389522
-0.389901
-0.390319
-0.390774
-0.391265
-0.391785
-0.392328
-0.392887
-0.393454
-0.39402
-0.394575
-0.395108
-0.39561
-0.396085
-0.396404
-0.396573
-0.391204
-0.391629
-0.392007
-0.392377
-0.392768
-0.393202
-0.39369
-0.394239
-0.394849
-0.395518
-0.396244
-0.397021
-0.397843
-0.398704
-0.399597
-0.400515
-0.401447
-0.402386
-0.403336
-0.404179
-0.404924
-0.394668
-0.395109
-0.395518
-0.395937
-0.396396
-0.396918
-0.397515
-0.398196
-0.398961
-0.399811
-0.400743
-0.401754
-0.402841
-0.403997
-0.405219
-0.406501
-0.407835
-0.409215
-0.410643
-0.412015
-0.41334
-0.398162
-0.398616
-0.399056
-0.399524
-0.400051
-0.400661
-0.401367
-0.402179
-0.4031
-0.40413
-0.405269
-0.406515
-0.407866
-0.409318
-0.410869
-0.412515
-0.414251
-0.416072
-0.41798
-0.41988
-0.421783
-0.401677
-0.402144
-0.402614
-0.403129
-0.403724
-0.404421
-0.405236
-0.406179
-0.407255
-0.408465
-0.40981
-0.411289
-0.412903
-0.414649
-0.416527
-0.418536
-0.420671
-0.42293
-0.425316
-0.427743
-0.430217
-0.447024
-0.451339
-0.45645
-0.449844
-0.437385
-0.414407
-0.388902
-0.36394
-0.347191
-0.340735
-0.346012
-0.359164
-0.456454
-0.461567
-0.467498
-0.460974
-0.447789
-0.423155
-0.395194
-0.367302
-0.347428
-0.337986
-0.340686
-0.351905
-0.465799
-0.471651
-0.478415
-0.471962
-0.458059
-0.431767
-0.401349
-0.370523
-0.347516
-0.335053
-0.335108
-0.344309
-0.475011
-0.481543
-0.489148
-0.482757
-0.468151
-0.440206
-0.40734
-0.373586
-0.347451
-0.331946
-0.329301
-0.3364
-0.483912
-0.491194
-0.499646
-0.493311
-0.47802
-0.448436
-0.413138
-0.376476
-0.34723
-0.328678
-0.323291
-0.328203
-0.492709
-0.50056
-0.50986
-0.503577
-0.487624
-0.456424
-0.418722
-0.379179
-0.346851
-0.32526
-0.317102
-0.319819
-0.501232
-0.509597
-0.519743
-0.513512
-0.496927
-0.464141
-0.424069
-0.381683
-0.346312
-0.321705
-0.310763
-0.311232
-0.509433
-0.518265
-0.529254
-0.523075
-0.505892
-0.47156
-0.429161
-0.383978
-0.345616
-0.318027
-0.304298
-0.302478
-0.517276
-0.526525
-0.538352
-0.53223
-0.514488
-0.478658
-0.433985
-0.386059
-0.344763
-0.314241
-0.297736
-0.293598
-0.524723
-0.534346
-0.547003
-0.540944
-0.522686
-0.485415
-0.438528
-0.387923
-0.343759
-0.310361
-0.291104
-0.28463
-0.531745
-0.541698
-0.555174
-0.549189
-0.530462
-0.491814
-0.442783
-0.389569
-0.342612
-0.306403
-0.284428
-0.275609
-0.538317
-0.548556
-0.562839
-0.55694
-0.537794
-0.497844
-0.446744
-0.391
-0.341329
-0.302384
-0.277736
-0.266576
-0.544433
-0.55489
-0.569976
-0.564178
-0.544664
-0.503495
-0.450411
-0.392222
-0.339922
-0.298324
-0.271055
-0.257565
-0.550087
-0.560681
-0.57657
-0.570882
-0.551056
-0.508762
-0.453785
-0.393244
-0.338406
-0.294239
-0.264412
-0.248615
-0.555158
-0.566015
-0.582614
-0.577036
-0.556956
-0.513637
-0.456867
-0.394075
-0.336795
-0.290152
-0.257833
-0.239758
-0.559736
-0.570809
-0.588064
-0.582669
-0.562365
-0.518106
-0.459661
-0.39473
-0.335106
-0.286082
-0.251343
-0.231031
-0.563847
-0.57504
-0.59294
-0.587717
-0.567317
-0.522169
-0.462168
-0.395221
-0.333359
-0.282053
-0.244969
-0.222465
-0.567475
-0.578718
-0.597257
-0.59221
-0.571765
-0.525837
-0.464401
-0.395563
-0.331574
-0.278084
-0.238735
-0.214093
-0.570619
-0.581855
-0.601011
-0.596149
-0.575717
-0.529113
-0.466367
-0.395769
-0.329775
-0.274201
-0.232666
-0.205946
-0.573291
-0.584464
-0.604206
-0.59954
-0.579172
-0.532002
-0.468075
-0.395853
-0.327977
-0.270432
-0.226783
-0.198053
-0.575508
-0.586556
-0.606849
-0.602388
-0.582128
-0.53451
-0.469537
-0.395835
-0.32619
-0.266809
-0.221108
-0.190442
-0.577289
-0.588147
-0.608954
-0.604702
-0.584592
-0.53664
-0.470763
-0.395728
-0.324468
-0.263311
-0.215669
-0.183142
-0.578657
-0.589255
-0.610535
-0.606493
-0.58657
-0.538398
-0.471761
-0.395548
-0.322806
-0.259968
-0.210503
-0.176174
-0.154432
-0.579634
-0.5899
-0.611608
-0.607776
-0.588073
-0.539789
-0.47254
-0.395309
-0.321219
-0.256839
-0.205582
-0.169568
-0.145951
-0.580247
-0.590103
-0.612191
-0.608563
-0.589109
-0.54082
-0.473107
-0.395022
-0.319726
-0.253914
-0.200903
-0.16339
-0.137854
-0.580522
-0.589886
-0.612303
-0.608872
-0.58969
-0.541498
-0.473471
-0.394699
-0.318343
-0.251211
-0.19645
-0.157688
-0.130156
-0.580483
-0.589273
-0.611962
-0.60872
-0.589828
-0.54183
-0.473637
-0.394349
-0.317082
-0.248751
-0.192722
-0.151995
-0.122878
-0.580154
-0.588287
-0.61119
-0.608123
-0.589534
-0.541826
-0.473613
-0.393978
-0.315954
-0.246546
-0.189284
-0.146739
-0.116059
-0.579556
-0.586955
-0.610004
-0.6071
-0.588823
-0.541493
-0.473405
-0.393594
-0.314965
-0.244604
-0.186163
-0.141963
-0.109659
-0.578755
-0.58531
-0.608425
-0.60567
-0.587706
-0.54084
-0.47302
-0.3932
-0.314122
-0.24293
-0.183383
-0.137633
-0.103665
-0.57793
-0.583381
-0.606472
-0.60385
-0.586199
-0.539877
-0.472464
-0.392801
-0.313427
-0.241529
-0.180955
-0.133747
-0.0980742
-0.576969
-0.581173
-0.604162
-0.601657
-0.584315
-0.538614
-0.471741
-0.3924
-0.312882
-0.240401
-0.178884
-0.130311
-0.0933762
-0.573708
-0.578679
-0.60151
-0.599109
-0.58207
-0.537061
-0.47086
-0.391997
-0.312486
-0.239545
-0.177172
-0.127326
-0.0891175
-0.572159
-0.575938
-0.598531
-0.596223
-0.579479
-0.53523
-0.469824
-0.391594
-0.312236
-0.238957
-0.175817
-0.124788
-0.0853088
-0.570327
-0.57296
-0.595244
-0.593016
-0.576558
-0.533131
-0.468642
-0.39119
-0.312128
-0.23863
-0.174816
-0.122692
-0.0819704
-0.56819
-0.56979
-0.591664
-0.589503
-0.573322
-0.530778
-0.467318
-0.390786
-0.312156
-0.238558
-0.174162
-0.121027
-0.0791038
-0.565844
-0.566448
-0.587805
-0.5857
-0.569789
-0.528183
-0.465861
-0.390379
-0.312315
-0.238731
-0.173845
-0.119786
-0.0767061
-0.563283
-0.56295
-0.583683
-0.581623
-0.565975
-0.52536
-0.464277
-0.38997
-0.312596
-0.239136
-0.173854
-0.118955
-0.0747706
-0.560486
-0.559312
-0.579311
-0.577286
-0.561899
-0.522323
-0.462575
-0.389557
-0.312991
-0.239763
-0.174176
-0.118521
-0.0732882
-0.039827
-0.557434
-0.555546
-0.574705
-0.572707
-0.55758
-0.519089
-0.460761
-0.389138
-0.313491
-0.240598
-0.174797
-0.118468
-0.0722473
-0.0374759
-0.554099
-0.551663
-0.569881
-0.567899
-0.553036
-0.515674
-0.458845
-0.388711
-0.314085
-0.241625
-0.175699
-0.118779
-0.0716333
-0.0356082
-0.550455
-0.54767
-0.564856
-0.562881
-0.548288
-0.512093
-0.456833
-0.388272
-0.314762
-0.242828
-0.176864
-0.119435
-0.0714302
-0.0342097
-0.546467
-0.543568
-0.559646
-0.557669
-0.543359
-0.508368
-0.45474
-0.387828
-0.315521
-0.244201
-0.178284
-0.120425
-0.071628
-0.0332709
-0.542104
-0.539354
-0.554266
-0.552281
-0.538272
-0.504521
-0.452586
-0.387392
-0.316369
-0.245747
-0.179957
-0.121743
-0.0722201
-0.0327845
-0.537332
-0.535019
-0.548735
-0.546736
-0.533044
-0.50056
-0.450358
-0.386932
-0.31726
-0.24741
-0.181825
-0.123335
-0.0731578
-0.0327085
-0.532136
-0.530563
-0.543086
-0.54106
-0.527687
-0.496459
-0.447984
-0.386331
-0.318044
-0.249032
-0.183734
-0.125059
-0.0743189
-0.0329419
-0.526524
-0.525997
-0.537362
-0.535301
-0.522259
-0.492285
-0.445537
-0.38567
-0.318811
-0.250699
-0.185765
-0.126986
-0.0757655
-0.0335417
-0.520422
-0.521214
-0.531493
-0.529476
-0.516928
-0.488413
-0.443625
-0.385755
-0.320483
-0.253364
-0.188821
-0.129924
-0.0781875
-0.0350822
-0.513522
-0.515939
-0.52526
-0.523425
-0.511575
-0.484803
-0.4423
-0.386718
-0.323247
-0.25723
-0.193099
-0.134036
-0.0816998
-0.0376075
-0.505951
-0.510594
-0.519122
-0.517018
-0.505045
-0.478986
-0.437755
-0.383694
-0.321638
-0.256721
-0.193275
-0.134471
-0.0820305
-0.0374145
-0.000763962
-0.491332
-0.502119
-0.509775
-0.506128
-0.492014
-0.464654
-0.423038
-0.369541
-0.308725
-0.245367
-0.18342
-0.125766
-0.0741007
-0.0296367
0.00733499
-0.471641
-0.480777
-0.483851
-0.476929
-0.460683
-0.433147
-0.39344
-0.343542
-0.287227
-0.228492
-0.170726
-0.116445
-0.067221
-0.0241079
0.0124298
-0.453047
-0.457624
-0.456093
-0.447054
-0.429987
-0.403097
-0.365738
-0.319554
-0.267632
-0.213306
-0.159492
-0.108425
-0.061602
-0.0200163
0.0157763
-0.433293
-0.433718
-0.428298
-0.41787
-0.400677
-0.374778
-0.339783
-0.297144
-0.249395
-0.199296
-0.149331
-0.101476
-0.0571321
-0.0172606
0.0175273
-0.412062
-0.40964
-0.401244
-0.389843
-0.372921
-0.348263
-0.315643
-0.276385
-0.232577
-0.186483
-0.140214
-0.0955176
-0.0537019
-0.0156997
0.0178419
-0.390056
-0.385883
-0.375446
-0.363392
-0.346969
-0.323701
-0.293411
-0.257318
-0.217164
-0.17481
-0.132043
-0.090411
-0.0511259
-0.0150913
0.0170244
-0.367911
-0.362781
-0.351134
-0.338718
-0.322911
-0.301089
-0.273033
-0.239867
-0.203071
-0.164181
-0.124707
-0.0860165
-0.049228
-0.0152098
0.0153621
-0.346104
-0.34055
-0.328352
-0.315834
-0.300705
-0.280318
-0.254379
-0.223909
-0.190188
-0.154492
-0.118099
-0.0822105
-0.0478562
-0.0158638
0.0130963
-0.324959
-0.319317
-0.307049
-0.294654
-0.280236
-0.261241
-0.237296
-0.209309
-0.1784
-0.145643
-0.11212
-0.0788866
-0.0468834
-0.016895
0.0104239
-0.304671
-0.299145
-0.287136
-0.275046
-0.261365
-0.243704
-0.221627
-0.195927
-0.167593
-0.137539
-0.106685
-0.0759545
-0.0462055
-0.0181757
0.00750371
-0.285342
-0.280053
-0.268515
-0.256872
-0.243947
-0.227555
-0.207224
-0.183634
-0.157662
-0.130094
-0.101716
-0.0733389
-0.0457383
-0.0196048
0.00445953
-0.267014
-0.262031
-0.251093
-0.239996
-0.227841
-0.212656
-0.193952
-0.172312
-0.148509
-0.12323
-0.0971493
-0.0709771
-0.0454146
-0.0211031
0.00138714
-0.249692
-0.245051
-0.234783
-0.224299
-0.212919
-0.198879
-0.181692
-0.161853
-0.140048
-0.116878
-0.0929265
-0.0688169
-0.0451802
-0.0226089
-0.00163938
-0.233357
-0.229075
-0.219507
-0.209674
-0.199067
-0.186112
-0.170339
-0.152166
-0.132202
-0.110976
-0.0889985
-0.0668145
-0.0449916
-0.0240741
-0.00456357
-0.217978
-0.214058
-0.205197
-0.196029
-0.186184
-0.174257
-0.1598
-0.143169
-0.124903
-0.105472
-0.0853221
-0.064933
-0.0448134
-0.0254613
-0.00734282
-0.203516
-0.199953
-0.191788
-0.183285
-0.174182
-0.163227
-0.149995
-0.13479
-0.118092
-0.100318
-0.0818601
-0.0631415
-0.0446173
-0.0267415
-0.00994502
-0.189929
-0.186714
-0.179221
-0.171371
-0.162985
-0.152945
-0.140853
-0.126968
-0.111716
-0.0954723
-0.0785802
-0.0614141
-0.0443808
-0.0278927
-0.0123465
-0.177175
-0.174291
-0.167442
-0.160224
-0.152524
-0.143344
-0.132312
-0.119647
-0.105731
-0.0908988
-0.0754544
-0.0597291
-0.0440858
-0.0288983
-0.0145304
-0.165213
-0.162638
-0.156401
-0.149789
-0.142741
-0.134367
-0.124317
-0.11278
-0.100096
-0.0865659
-0.0724593
-0.0580689
-0.043719
-0.0297467
-0.0164857
-0.153996
-0.151715
-0.146053
-0.140013
-0.133581
-0.125959
-0.11682
-0.106325
-0.094777
-0.0824468
-0.0695747
-0.0564198
-0.0432705
-0.0304304
-0.0182038
-0.143485
-0.141477
-0.136351
-0.130851
-0.124998
-0.118076
-0.109779
-0.100244
-0.0897428
-0.078518
-0.0667844
-0.054771
-0.0427346
-0.0309463
-0.0196746
-0.13364
-0.13188
-0.127253
-0.12226
-0.116947
-0.110675
-0.103156
-0.0945057
-0.0849675
-0.07476
-0.0640748
-0.0531151
-0.0421086
-0.0312981
-0.0209265
-0.124422
-0.122894
-0.118721
-0.114201
-0.109392
-0.10372
-0.0969177
-0.0890814
-0.0804284
-0.071156
-0.0614355
-0.0514468
-0.0413922
-0.0314889
-0.0219566
-0.115789
-0.11447
-0.110722
-0.106639
-0.102296
-0.0971779
-0.091035
-0.0839462
-0.0761059
-0.0676921
-0.0588581
-0.0497633
-0.0405871
-0.0315235
-0.0227702
-0.107706
-0.106579
-0.103219
-0.09954
-0.0956273
-0.0910193
-0.0854813
-0.0790781
-0.071983
-0.0643567
-0.0563365
-0.0480634
-0.0396964
-0.0314086
-0.0233773
-0.100141
-0.0991871
-0.0961916
-0.0928763
-0.0893584
-0.0852172
-0.0802331
-0.0744577
-0.0680451
-0.0611403
-0.053866
-0.0463473
-0.0387248
-0.0311525
-0.0237895
-0.093059
-0.0922599
-0.0895902
-0.0866158
-0.0834614
-0.0797474
-0.0752697
-0.0700681
-0.0642797
-0.0580349
-0.0514437
-0.0446167
-0.0376784
-0.0307658
-0.0240201
-0.0864296
-0.0857696
-0.083398
-0.0807432
-0.0779136
-0.0745878
-0.0705719
-0.0658943
-0.0606759
-0.0550343
-0.0490679
-0.0428744
-0.036564
-0.0302579
-0.0240824
-0.0802237
-0.0796874
-0.0775857
-0.0752165
-0.0726906
-0.0697179
-0.0661224
-0.0619228
-0.0572246
-0.0521334
-0.0467377
-0.041124
-0.0353887
-0.0296393
-0.0239905
-0.0744138
-0.0739876
-0.0721301
-0.0700211
-0.0677735
-0.0651218
-0.0619075
-0.0581418
-0.0539173
-0.049328
-0.044453
-0.0393689
-0.0341604
-0.0289214
-0.0237484
-0.0689744
-0.0686456
-0.0670087