/*--------------------------------*- C++ -*----------------------------------*\
  =========                 |
  \\      /  F ield         | OpenFOAM: The Open Source CFD Toolbox
   \\    /   O peration     | Website:  https://openfoam.org
    \\  /    A nd           | Version:  7
     \\/     M anipulation  |
\*---------------------------------------------------------------------------*/
FoamFile
{
    version     2.0;
    format      ascii;
    class       volScalarField;
    location    "200";
    object      p;
}
// * * * * * * * * * * * * * * * * * * * * * * * * * * * * * * * * * * * * * //

dimensions      [0 2 -2 0 0 0 0];

internalField   nonuniform List<scalar> 
20050
(
-0.405079
-0.406134
-0.406595
-0.406977
-0.407527
-0.408469
-0.409974
-0.412144
-0.415043
-0.418727
-0.423265
-0.428751
-0.435309
-0.443035
-0.452038
-0.400765
-0.402178
-0.402785
-0.403248
-0.403819
-0.404711
-0.406086
-0.408033
-0.4106
-0.413829
-0.417768
-0.422487
-0.428085
-0.434616
-0.442174
-0.396445
-0.398205
-0.39895
-0.399491
-0.400077
-0.400911
-0.402146
-0.403857
-0.406077
-0.408828
-0.412137
-0.416049
-0.420635
-0.425896
-0.43191
-0.392164
-0.394255
-0.395132
-0.395744
-0.396341
-0.397113
-0.398203
-0.399669
-0.40153
-0.403788
-0.406446
-0.409521
-0.413059
-0.416998
-0.421392
-0.387964
-0.390369
-0.39137
-0.392049
-0.392653
-0.393361
-0.394302
-0.39552
-0.397017
-0.398773
-0.400767
-0.402989
-0.405456
-0.408041
-0.410769
-0.383891
-0.386588
-0.387705
-0.388446
-0.389056
-0.389699
-0.39049
-0.39146
-0.39259
-0.393843
-0.395169
-0.396532
-0.397922
-0.39914
-0.400183
-0.379984
-0.382952
-0.384176
-0.384976
-0.38559
-0.386167
-0.38681
-0.387534
-0.388303
-0.389054
-0.389716
-0.390224
-0.390543
-0.390405
-0.389769
-0.376287
-0.3795
-0.380822
-0.381676
-0.382292
-0.382805
-0.383305
-0.383788
-0.3842
-0.38446
-0.384467
-0.384132
-0.3834
-0.38193
-0.379647
-0.372835
-0.376267
-0.377678
-0.378581
-0.379198
-0.37965
-0.38001
-0.380259
-0.380326
-0.380105
-0.379474
-0.378317
-0.37656
-0.373801
-0.369918
-0.369664
-0.373287
-0.374776
-0.375723
-0.376342
-0.376734
-0.37696
-0.376985
-0.376717
-0.376033
-0.374784
-0.372829
-0.370083
-0.366088
-0.360668
-0.366807
-0.370591
-0.372147
-0.373133
-0.373751
-0.374086
-0.374185
-0.373996
-0.373408
-0.372278
-0.370434
-0.367712
-0.364016
-0.358847
-0.35196
-0.36429
-0.368203
-0.369816
-0.370835
-0.371451
-0.371733
-0.371711
-0.371318
-0.370427
-0.368872
-0.366459
-0.363002
-0.358399
-0.352122
-0.343838
-0.362138
-0.366148
-0.367805
-0.368851
-0.369463
-0.369694
-0.369559
-0.368976
-0.367798
-0.365841
-0.362887
-0.358728
-0.353263
-0.345947
-0.336325
-0.360369
-0.364441
-0.36613
-0.367196
-0.367802
-0.367986
-0.367747
-0.366986
-0.365541
-0.363206
-0.359742
-0.354916
-0.34863
-0.340344
-0.329429
-0.358997
-0.363097
-0.364804
-0.365883
-0.366482
-0.366621
-0.366287
-0.365363
-0.36367
-0.360983
-0.357041
-0.351585
-0.34452
-0.335332
-0.323138
-0.358031
-0.362122
-0.363833
-0.364917
-0.365507
-0.365606
-0.365185
-0.364113
-0.362194
-0.359185
-0.354799
-0.348749
-0.340945
-0.330925
-0.317426
-0.357473
-0.361518
-0.36322
-0.364301
-0.364878
-0.36494
-0.364442
-0.363239
-0.361119
-0.357816
-0.353024
-0.34642
-0.337912
-0.327138
-0.312258
-0.357323
-0.361283
-0.36296
-0.364029
-0.364591
-0.36462
-0.364055
-0.362737
-0.360439
-0.356875
-0.351717
-0.344599
-0.335421
-0.323984
-0.307587
-0.35757
-0.361409
-0.363044
-0.364092
-0.364635
-0.364633
-0.36401
-0.362595
-0.360143
-0.356352
-0.350868
-0.343281
-0.333461
-0.321469
-0.303314
-0.358202
-0.361881
-0.363459
-0.364475
-0.364994
-0.364962
-0.364289
-0.362792
-0.360211
-0.356224
-0.350457
-0.342449
-0.332017
-0.319588
-0.299171
-0.359198
-0.362682
-0.364186
-0.365157
-0.365646
-0.365583
-0.364867
-0.3633
-0.360611
-0.35646
-0.350452
-0.342075
-0.331073
-0.318389
-0.294988
-0.360537
-0.36379
-0.365202
-0.366116
-0.366564
-0.366468
-0.36571
-0.364084
-0.361303
-0.357013
-0.350801
-0.342111
-0.330579
-0.317845
-0.292383
-0.36219
-0.36518
-0.366482
-0.367322
-0.367719
-0.367582
-0.366782
-0.365098
-0.362238
-0.357829
-0.351443
-0.342491
-0.330455
-0.317179
-0.290641
-0.364128
-0.366825
-0.367997
-0.368747
-0.369078
-0.368889
-0.368038
-0.366297
-0.36336
-0.358843
-0.352303
-0.343133
-0.330777
-0.316888
-0.289144
-0.366317
-0.368696
-0.36972
-0.37036
-0.370607
-0.37035
-0.369436
-0.367627
-0.364612
-0.359988
-0.353304
-0.343935
-0.331297
-0.317013
-0.287963
-0.368727
-0.370765
-0.371621
-0.37213
-0.372271
-0.371926
-0.370932
-0.369039
-0.365937
-0.361197
-0.354371
-0.344816
-0.331927
-0.317351
-0.287184
-0.371325
-0.373006
-0.373674
-0.374028
-0.374038
-0.373582
-0.372485
-0.370481
-0.367284
-0.362409
-0.355433
-0.345692
-0.332611
-0.317723
-0.286855
-0.374083
-0.375393
-0.375853
-0.376029
-0.375882
-0.375287
-0.37406
-0.371936
-0.368588
-0.363572
-0.356435
-0.346494
-0.333295
-0.317938
-0.286894
-0.376975
-0.377905
-0.37814
-0.378111
-0.377777
-0.377013
-0.375627
-0.373349
-0.369835
-0.364651
-0.357339
-0.347188
-0.333965
-0.317775
-0.287011
-0.379981
-0.380526
-0.380516
-0.380257
-0.379708
-0.378743
-0.377167
-0.374703
-0.370999
-0.365624
-0.358126
-0.347779
-0.334666
-0.317252
-0.287669
-0.383085
-0.383243
-0.382972
-0.382457
-0.381662
-0.380465
-0.378667
-0.375987
-0.372068
-0.36648
-0.358789
-0.348275
-0.33541
-0.317029
-0.292576
-0.386279
-0.38605
-0.385501
-0.384707
-0.383638
-0.382178
-0.380127
-0.377202
-0.373042
-0.367219
-0.359322
-0.348654
-0.336016
-0.317643
-0.30596
-0.389561
-0.388945
-0.388104
-0.387008
-0.385637
-0.383886
-0.381554
-0.378356
-0.37393
-0.367847
-0.359722
-0.348894
-0.336373
-0.318307
-0.309096
-0.392934
-0.391932
-0.390785
-0.389367
-0.387671
-0.385603
-0.382964
-0.379467
-0.374748
-0.368379
-0.359993
-0.348981
-0.336405
-0.318639
-0.309263
-0.396408
-0.39502
-0.393555
-0.391797
-0.389754
-0.387346
-0.384377
-0.380557
-0.375517
-0.368831
-0.360145
-0.348905
-0.336131
-0.318594
-0.308289
-0.399997
-0.398221
-0.396428
-0.394314
-0.391908
-0.389141
-0.385819
-0.381651
-0.376261
-0.369221
-0.360188
-0.348663
-0.335577
-0.31817
-0.306591
-0.40372
-0.401552
-0.399421
-0.39694
-0.394155
-0.391012
-0.387318
-0.382776
-0.377003
-0.369566
-0.360132
-0.348258
-0.334772
-0.317388
-0.304504
-0.407599
-0.405031
-0.402553
-0.399695
-0.396521
-0.392988
-0.388902
-0.383958
-0.377763
-0.369881
-0.359985
-0.347695
-0.333741
-0.316288
-0.302216
-0.411656
-0.408677
-0.405845
-0.402602
-0.399029
-0.395094
-0.390596
-0.385219
-0.378557
-0.370172
-0.359752
-0.34698
-0.332509
-0.31491
-0.299823
-0.415914
-0.412509
-0.409317
-0.405683
-0.401705
-0.397354
-0.392422
-0.386575
-0.379395
-0.370446
-0.359436
-0.346119
-0.331096
-0.313293
-0.297369
-0.420394
-0.416546
-0.412987
-0.408959
-0.404568
-0.399789
-0.394395
-0.388037
-0.38028
-0.3707
-0.359034
-0.345114
-0.329519
-0.311471
-0.294867
-0.425115
-0.420805
-0.416874
-0.412447
-0.407637
-0.402412
-0.396527
-0.389606
-0.381209
-0.370928
-0.358541
-0.34397
-0.327789
-0.309468
-0.292316
-0.430092
-0.425298
-0.42099
-0.416162
-0.410925
-0.405235
-0.398819
-0.39128
-0.382172
-0.371116
-0.35795
-0.342687
-0.325914
-0.307301
-0.289705
-0.435336
-0.430036
-0.425346
-0.420113
-0.414438
-0.408258
-0.401267
-0.393045
-0.383152
-0.37125
-0.357249
-0.341262
-0.323897
-0.304984
-0.287018
-0.440851
-0.435023
-0.429948
-0.424305
-0.418179
-0.411478
-0.403859
-0.394884
-0.384126
-0.371308
-0.356426
-0.339693
-0.321741
-0.302523
-0.284242
-0.446637
-0.440262
-0.434797
-0.428739
-0.422143
-0.414883
-0.406575
-0.396769
-0.385067
-0.371268
-0.355467
-0.337974
-0.319442
-0.299918
-0.28136
-0.452688
-0.445748
-0.439891
-0.433409
-0.426321
-0.418455
-0.409389
-0.398668
-0.385943
-0.371105
-0.354355
-0.336098
-0.316997
-0.297169
-0.278358
-0.45899
-0.451471
-0.445218
-0.438304
-0.430693
-0.422167
-0.412266
-0.400545
-0.386719
-0.370793
-0.353075
-0.334055
-0.314398
-0.29427
-0.275222
-0.465524
-0.457414
-0.450766
-0.443404
-0.435234
-0.425986
-0.415166
-0.402356
-0.38736
-0.370305
-0.351609
-0.331834
-0.311637
-0.291213
-0.271937
-0.472263
-0.463558
-0.456511
-0.448685
-0.439914
-0.429871
-0.418043
-0.404056
-0.387826
-0.369612
-0.349939
-0.329423
-0.308702
-0.287988
-0.268489
-0.479176
-0.469873
-0.462426
-0.454115
-0.444691
-0.433774
-0.420844
-0.405597
-0.38808
-0.368689
-0.348045
-0.326807
-0.30558
-0.284585
-0.264866
-0.48622
-0.476325
-0.468476
-0.459653
-0.449518
-0.437641
-0.423514
-0.40693
-0.388082
-0.367507
-0.345909
-0.323971
-0.302258
-0.28099
-0.261054
-0.493352
-0.482872
-0.474619
-0.465254
-0.45434
-0.441412
-0.425994
-0.408003
-0.387794
-0.366039
-0.34351
-0.320898
-0.29872
-0.277188
-0.257038
-0.500515
-0.489467
-0.480806
-0.470861
-0.459097
-0.445021
-0.428223
-0.408767
-0.387179
-0.364258
-0.340828
-0.31757
-0.294949
-0.273166
-0.252806
-0.507651
-0.496055
-0.48698
-0.476412
-0.463719
-0.448401
-0.430139
-0.409172
-0.386201
-0.362137
-0.33784
-0.313968
-0.290928
-0.268908
-0.248344
-0.514693
-0.502573
-0.493076
-0.481839
-0.468134
-0.451478
-0.431679
-0.409169
-0.384824
-0.359651
-0.334525
-0.310073
-0.28664
-0.264398
-0.243639
-0.521568
-0.508953
-0.499025
-0.487066
-0.472262
-0.454179
-0.432782
-0.408712
-0.383013
-0.356771
-0.330861
-0.305864
-0.282067
-0.259621
-0.238678
-0.528198
-0.515121
-0.504749
-0.492012
-0.476024
-0.45643
-0.433387
-0.407755
-0.380736
-0.353472
-0.326825
-0.301323
-0.277191
-0.25456
-0.233447
-0.534498
-0.520997
-0.510166
-0.496591
-0.479335
-0.458157
-0.433436
-0.406256
-0.377959
-0.34973
-0.322396
-0.296429
-0.271994
-0.2492
-0.227934
-0.540383
-0.526496
-0.515189
-0.500715
-0.48211
-0.459288
-0.432872
-0.404173
-0.374654
-0.345518
-0.317551
-0.291162
-0.266459
-0.243528
-0.222129
-0.545759
-0.53153
-0.519726
-0.504291
-0.484264
-0.459752
-0.431643
-0.401467
-0.37079
-0.340813
-0.31227
-0.285504
-0.26057
-0.237527
-0.216019
-0.550534
-0.536006
-0.523685
-0.507228
-0.485715
-0.459482
-0.4297
-0.398104
-0.366339
-0.335591
-0.306532
-0.279436
-0.254311
-0.231185
-0.209595
-0.554613
-0.539832
-0.526969
-0.509434
-0.486383
-0.458416
-0.426996
-0.394048
-0.361276
-0.329831
-0.300317
-0.272941
-0.247666
-0.224491
-0.202847
-0.557899
-0.542911
-0.529485
-0.510819
-0.48619
-0.456495
-0.423489
-0.389271
-0.355577
-0.323511
-0.293607
-0.266003
-0.240623
-0.217431
-0.195768
-0.560298
-0.545149
-0.531136
-0.511295
-0.485065
-0.453664
-0.419142
-0.383743
-0.349218
-0.316613
-0.286384
-0.258607
-0.233168
-0.209996
-0.18835
-0.561716
-0.546453
-0.531833
-0.51078
-0.48294
-0.449877
-0.41392
-0.37744
-0.342181
-0.309119
-0.278635
-0.250741
-0.22529
-0.202177
-0.180586
-0.562065
-0.546733
-0.531487
-0.509197
-0.479756
-0.445089
-0.407793
-0.37034
-0.334447
-0.301013
-0.270344
-0.242392
-0.21698
-0.193968
-0.172472
-0.561257
-0.545902
-0.530014
-0.506472
-0.475457
-0.439263
-0.400737
-0.362424
-0.326001
-0.292283
-0.2615
-0.23355
-0.20823
-0.185362
-0.164011
-0.559212
-0.543879
-0.527339
-0.502543
-0.469998
-0.432368
-0.39273
-0.353678
-0.316831
-0.282918
-0.252094
-0.224207
-0.19903
-0.176357
-0.15521
-0.555856
-0.540588
-0.52339
-0.497353
-0.463338
-0.424379
-0.383756
-0.344089
-0.306926
-0.272908
-0.242119
-0.214355
-0.189374
-0.166942
-0.146049
-0.55112
-0.53596
-0.518106
-0.490852
-0.455444
-0.415277
-0.373804
-0.33365
-0.296281
-0.26225
-0.23157
-0.203994
-0.179262
-0.157111
-0.136445
-0.544946
-0.529935
-0.511432
-0.483
-0.446294
-0.405048
-0.362867
-0.322356
-0.284892
-0.250939
-0.220446
-0.193123
-0.168706
-0.146879
-0.126319
-0.537281
-0.522459
-0.503323
-0.473768
-0.435869
-0.393685
-0.350942
-0.310206
-0.272759
-0.238977
-0.208747
-0.181744
-0.157709
-0.136274
-0.11585
-0.528083
-0.51349
-0.493744
-0.463132
-0.42416
-0.381187
-0.338032
-0.297204
-0.259886
-0.226366
-0.196476
-0.169862
-0.146259
-0.125199
-0.105226
-0.517319
-0.502993
-0.482668
-0.451079
-0.411166
-0.36756
-0.324144
-0.283357
-0.246277
-0.213113
-0.183641
-0.157485
-0.134376
-0.113728
-0.0943008
-0.504967
-0.490945
-0.470081
-0.437606
-0.396892
-0.352813
-0.309289
-0.268675
-0.231944
-0.199226
-0.170253
-0.144623
-0.12206
-0.101892
-0.0830404
-0.491012
-0.477332
-0.455977
-0.422718
-0.381351
-0.336964
-0.293484
-0.253173
-0.2169
-0.184721
-0.156321
-0.131284
-0.109324
-0.089697
-0.0714466
-0.475452
-0.46215
-0.440359
-0.406428
-0.364564
-0.320033
-0.27675
-0.236871
-0.201162
-0.16961
-0.14186
-0.117482
-0.0961831
-0.0771503
-0.059534
-0.458295
-0.445405
-0.42324
-0.388758
-0.346558
-0.302049
-0.259112
-0.219791
-0.184752
-0.153914
-0.126887
-0.103234
-0.0826525
-0.0642624
-0.0473195
-0.439557
-0.427115
-0.404645
-0.369738
-0.327364
-0.283045
-0.240598
-0.201959
-0.167691
-0.137653
-0.111424
-0.0885586
-0.0687497
-0.0510479
-0.0348209
-0.419266
-0.407305
-0.384605
-0.349406
-0.307027
-0.263057
-0.221242
-0.183404
-0.150006
-0.120851
-0.0954917
-0.0734773
-0.0544939
-0.0375248
-0.0220576
-0.397458
-0.386009
-0.363162
-0.327811
-0.285593
-0.242117
-0.201083
-0.164161
-0.131728
-0.103537
-0.0791164
-0.0580135
-0.0399068
-0.0237134
-0.00905044
-0.374178
-0.363274
-0.340364
-0.305015
-0.263106
-0.220275
-0.18016
-0.144265
-0.112891
-0.085741
-0.0623257
-0.0421934
-0.0250122
-0.00963667
0.00417698
-0.349477
-0.339153
-0.316276
-0.281074
-0.239585
-0.197603
-0.158521
-0.123759
-0.0935287
-0.0674949
-0.0451499
-0.026045
-0.00983598
0.00468052
0.0175986
-0.323416
-0.313717
-0.290984
-0.255979
-0.21515
-0.174138
-0.136213
-0.102683
-0.0736816
-0.048834
-0.0276211
-0.00959833
0.00559422
0.0192106
0.0311841
-0.29606
-0.287042
-0.26457
-0.229795
-0.189849
-0.149942
-0.11329
-0.0810863
-0.0533904
-0.0297956
-0.00977352
0.00711478
0.021249
0.0339224
0.0448943
-0.267485
-0.259204
-0.236912
-0.20279
-0.163754
-0.125078
-0.0898068
-0.0590159
-0.0326985
-0.0104188
0.00835729
0.0240614
0.0370978
0.0487817
0.0586784
-0.237766
-0.230314
-0.208233
-0.174913
-0.136936
-0.0996102
-0.0658204
-0.0365235
-0.0116517
0.00925586
0.0267342
0.041207
0.0531101
0.0637569
0.0724906
-0.206971
-0.20038
-0.178741
-0.14625
-0.109472
-0.0736091
-0.0413914
-0.0136625
0.00970272
0.029186
0.0453185
0.0585156
0.0692583
0.0788284
0.0863022
-0.175247
-0.169573
-0.148451
-0.116891
-0.0814385
-0.0471445
-0.0165824
0.00951177
0.0313156
0.0493279
0.0640701
0.075953
0.0855248
0.0939765
0.100003
-0.142814
-0.137877
-0.117441
-0.0869311
-0.0529187
-0.0202893
0.00854192
0.0329418
0.0531361
0.0696362
0.0829491
0.0934953
0.101909
0.109124
0.113201
-0.109648
-0.105475
-0.0858123
-0.0564633
-0.0239967
0.00688161
0.0339149
0.0565683
0.0751115
0.0900638
0.101918
0.111132
0.118414
0.124117
0.125445
-0.0758518
-0.0724894
-0.053668
-0.0255842
0.00524081
0.0342912
0.0594683
0.0803304
0.0971868
0.110561
0.120941
0.128845
0.134982
0.138838
0.137425
-0.0415494
-0.0390322
-0.0211164
0.00560772
0.0347053
0.061861
0.085132
0.104165
0.119305
0.131078
0.139976
0.146576
0.15145
0.153217
0.15217
-0.00685917
-0.00521381
0.0117333
0.0370124
0.0643073
0.0895112
0.110835
0.128009
0.141409
0.151563
0.158972
0.164237
0.167761
0.168053
0.167461
0.0280981
0.0288505
0.0447701
0.0685286
0.0939562
0.117161
0.136505
0.151797
0.163439
0.171963
0.177877
0.181776
0.183942
0.183037
0.182231
0.0632007
0.0630439
0.0778821
0.100054
0.123561
0.14473
0.162071
0.175464
0.185337
0.192225
0.196637
0.199154
0.199988
0.198003
0.196652
0.0983265
0.0972486
0.110957
0.131488
0.15303
0.172137
0.187458
0.198945
0.207044
0.212293
0.215202
0.21633
0.215853
0.212814
0.210725
0.133353
0.131346
0.143884
0.162727
0.182273
0.1993
0.212595
0.222174
0.228502
0.232115
0.233522
0.233261
0.231492
0.227395
0.22445
0.168158
0.165218
0.176551
0.193671
0.2112
0.226139
0.23741
0.245087
0.24965
0.251637
0.251548
0.249907
0.246859
0.241699
0.237826
0.202619
0.198747
0.208847
0.224219
0.23972
0.252574
0.26183
0.267618
0.270432
0.270806
0.269235
0.266224
0.26191
0.255686
0.250841
0.236617
0.231815
0.240664
0.254273
0.267745
0.278526
0.285786
0.289706
0.290791
0.289571
0.286535
0.282171
0.276609
0.269326
0.263483
0.270031
0.264307
0.271893
0.283735
0.295189
0.303917
0.309207
0.311286
0.310669
0.307881
0.303403
0.297707
0.290918
0.282587
0.275734
0.302745
0.296111
0.302429
0.31251
0.321965
0.328671
0.332026
0.332299
0.330012
0.325687
0.319796
0.312794
0.304802
0.295442
0.287576
0.334645
0.327115
0.332169
0.340505
0.347992
0.352714
0.354175
0.352683
0.348767
0.342941
0.33567
0.327392
0.318228
0.307862
0.298988
0.365617
0.357211
0.361012
0.367628
0.373187
0.375974
0.375591
0.372382
0.36688
0.359596
0.350984
0.341466
0.331162
0.319818
0.30995
0.395555
0.386294
0.388862
0.393793
0.397473
0.398379
0.396209
0.391338
0.384303
0.375607
0.365696
0.354979
0.343575
0.331285
0.32044
0.424352
0.414263
0.415624
0.418914
0.420773
0.419864
0.41597
0.409497
0.400984
0.390929
0.379769
0.367896
0.355434
0.342234
0.330437
0.451908
0.44102
0.441208
0.442911
0.443016
0.440362
0.434815
0.426807
0.416878
0.405521
0.393163
0.380183
0.36671
0.352639
0.339919
0.478125
0.466472
0.465528
0.465705
0.46413
0.459811
0.452687
0.443216
0.43194
0.419343
0.405844
0.39181
0.377374
0.362474
0.348866
0.502912
0.490529
0.488501
0.487223
0.484051
0.478152
0.469535
0.458679
0.446125
0.432355
0.417777
0.402745
0.3874
0.371716
0.357258
0.526181
0.513108
0.51005
0.507394
0.502716
0.495328
0.485306
0.473148
0.459395
0.444521
0.428928
0.412958
0.39676
0.38034
0.365076
0.547849
0.534129
0.530102
0.526152
0.520065
0.511288
0.499955
0.486582
0.471709
0.455806
0.439267
0.422423
0.40543
0.388325
0.372302
0.56784
0.553519
0.548588
0.543437
0.536044
0.525981
0.513436
0.49894
0.483033
0.466179
0.448766
0.431114
0.413387
0.395649
0.378919
0.586082
0.571208
0.565445
0.559191
0.550601
0.539361
0.525708
0.510186
0.493333
0.47561
0.457397
0.439006
0.42061
0.402292
0.384912
0.60251
0.587134
0.580616
0.573363
0.56369
0.551388
0.536735
0.520286
0.502579
0.484071
0.465136
0.446078
0.427077
0.408238
0.390265
0.617065
0.60124
0.594047
0.585904
0.575269
0.562022
0.54648
0.529208
0.510743
0.491537
0.47196
0.45231
0.432772
0.413469
0.394966
0.629693
0.613475
0.605692
0.596772
0.585299
0.571231
0.554915
0.536925
0.5178
0.497987
0.47785
0.457683
0.437679
0.41797
0.399003
0.640348
0.623793
0.615509
0.605931
0.593748
0.578983
0.562011
0.543414
0.523728
0.503399
0.482788
0.462183
0.441782
0.42173
0.402365
0.648989
0.632156
0.623463
0.613348
0.600585
0.585252
0.567746
0.548652
0.528508
0.507758
0.486759
0.465794
0.445069
0.424736
0.405044
0.655583
0.638532
0.629524
0.618997
0.605789
0.590019
0.5721
0.552623
0.532126
0.511049
0.48975
0.468507
0.447531
0.42698
0.407036
0.660102
0.642894
0.633668
0.622855
0.609338
0.593264
0.575057
0.555313
0.534567
0.513262
0.491751
0.470312
0.449159
0.428456
0.408338
0.662527
0.645224
0.635878
0.624908
0.61122
0.594976
0.576607
0.556711
0.535824
0.514387
0.492754
0.471203
0.449947
0.429157
0.408936
0.662845
0.645509
0.636141
0.625144
0.611424
0.595146
0.576742
0.556811
0.535889
0.51442
0.492755
0.471174
0.449891
0.429076
0.408827
0.661049
0.643743
0.634452
0.623558
0.609946
0.59377
0.575457
0.555608
0.534761
0.513357
0.491752
0.470224
0.44899
0.428213
0.408005
0.65714
0.639926
0.630812
0.620152
0.606787
0.590848
0.572754
0.553105
0.532438
0.511199
0.489744
0.468354
0.447242
0.42657
0.40648
0.651125
0.634065
0.625228
0.61493
0.601952
0.586385
0.568637
0.549304
0.528926
0.50795
0.486735
0.465566
0.444653
0.42415
0.404256
0.643019
0.626175
0.617711
0.607905
0.59545
0.58039
0.563114
0.544214
0.524231
0.503616
0.482731
0.461865
0.441225
0.420958
0.401334
0.632843
0.616276
0.608281
0.599093
0.587298
0.572878
0.556198
0.537845
0.518363
0.498205
0.47774
0.457259
0.436966
0.416998
0.397718
0.620625
0.604394
0.596962
0.588517
0.577515
0.563866
0.547905
0.530213
0.511335
0.491731
0.471772
0.451758
0.431886
0.412279
0.393416
0.606401
0.590564
0.583786
0.576203
0.566127
0.553377
0.538255
0.521335
0.503165
0.484208
0.464842
0.445374
0.425994
0.406812
0.388433
0.590212
0.574825
0.568789
0.562186
0.553163
0.541437
0.527273
0.511234
0.493871
0.475653
0.456965
0.438121
0.419304
0.400607
0.382781
0.572105
0.557224
0.552013
0.546504
0.538656
0.528077
0.514985
0.499934
0.483477
0.466088
0.44816
0.430016
0.411832
0.39368
0.37647
0.552136
0.537812
0.533507
0.529199
0.522647
0.513332
0.501424
0.487464
0.472007
0.455535
0.438447
0.421078
0.403594
0.386044
0.369512
0.530365
0.516648
0.513324
0.51032
0.505177
0.497241
0.486625
0.473855
0.459491
0.44402
0.42785
0.411326
0.394608
0.377718
0.361922
0.506859
0.493796
0.491522
0.48992
0.486296
0.479847
0.470626
0.459143
0.44596
0.431571
0.416393
0.400785
0.384896
0.368719
0.353713
0.48169
0.469326
0.468167
0.468057
0.466054
0.461196
0.453468
0.443364
0.431448
0.418218
0.404105
0.389478
0.37448
0.359068
0.344902
0.454937
0.443313
0.443328
0.444794
0.444507
0.441338
0.435199
0.426561
0.41599
0.403996
0.391015
0.377432
0.363383
0.348787
0.335507
0.426683
0.415838
0.417079
0.420196
0.421716
0.420328
0.415864
0.408775
0.399628
0.388938
0.377154
0.364675
0.351631
0.337898
0.325547
0.397018
0.386986
0.389498
0.394336
0.397744
0.398222
0.395517
0.390054
0.382401
0.373082
0.362556
0.351237
0.339251
0.326426
0.31504
0.366035
0.356847
0.36067
0.367287
0.372658
0.37508
0.37421
0.370446
0.364354
0.356468
0.347255
0.337149
0.32627
0.314395
0.304007
0.333832
0.325518
0.330682
0.33913
0.346528
0.350965
0.352001
0.350001
0.345533
0.339136
0.33129
0.322444
0.312718
0.301832
0.292468
0.300513
0.293095
0.299625
0.309946
0.319429
0.325944
0.328949
0.328774
0.325985
0.321129
0.314697
0.307156
0.298625
0.288763
0.280446
0.266184
0.259684
0.267594
0.279822
0.291437
0.300086
0.305115
0.30682
0.30576
0.302492
0.297518
0.291321
0.284023
0.275215
0.267961
0.230955
0.225389
0.234689
0.248846
0.262632
0.273461
0.280564
0.284195
0.28491
0.283272
0.279792
0.274974
0.268942
0.261216
0.255035
0.194941
0.190322
0.201012
0.21711
0.233096
0.246143
0.255362
0.26096
0.263488
0.263515
0.261563
0.258154
0.253417
0.246795
0.241688
0.158258
0.154595
0.166667
0.18471
0.202913
0.218207
0.229575
0.237175
0.241548
0.243271
0.242874
0.2409
0.237482
0.231979
0.22794
0.121025
0.118323
0.131762
0.151741
0.17217
0.189732
0.203274
0.212902
0.219147
0.22259
0.223771
0.223251
0.221172
0.216798
0.213808
0.0833635
0.0816239
0.0964054
0.118303
0.140955
0.160794
0.176528
0.188204
0.196342
0.201524
0.2043
0.205249
0.204525
0.201282
0.199308
0.0453969
0.0446169
0.0607096
0.0844965
0.109359
0.131476
0.149411
0.163148
0.17319
0.180125
0.184507
0.186937
0.187582
0.185467
0.184453
0.00724951
0.00742227
0.0247871
0.0504237
0.0774716
0.101859
0.121995
0.137797
0.149752
0.158446
0.164441
0.168358
0.170387
0.169391
0.169254
-0.0309535
-0.0298388
-0.0112483
0.0161877
0.0453861
0.0720235
0.0943529
0.112218
0.126086
0.136543
0.144151
0.149556
0.152989
0.153113
0.153716
-0.0690866
-0.067045
-0.0472819
-0.0181075
0.013195
0.0420537
0.0665595
0.0864787
0.102254
0.114471
0.123688
0.130573
0.135436
0.136714
0.137844
-0.107024
-0.104076
-0.083199
-0.0523574
-0.0190084
0.012032
0.0386888
0.0606445
0.0783149
0.0922853
0.103106
0.111449
0.117776
0.120356
0.121657
-0.14464
-0.140811
-0.118885
-0.0864576
-0.0511311
-0.0179584
0.0108149
0.0347826
0.0543297
0.0700409
0.0824568
0.0922258
0.100008
0.104225
0.104988
-0.18181
-0.177131
-0.154225
-0.120304
-0.0830801
-0.0478353
-0.0169887
0.00895901
0.0303576
0.0477914
0.061797
0.072954
0.0820874
0.0886269
0.0889994
-0.218411
-0.212923
-0.189105
-0.153793
-0.114763
-0.0775168
-0.044649
-0.0167607
0.00645784
0.025589
0.0411773
0.0537289
0.0640658
0.0726132
0.0760731
-0.254314
-0.24807
-0.223415
-0.186824
-0.14609
-0.106922
-0.0720943
-0.0423123
-0.0173113
0.00348529
0.0206396
0.0346141
0.0461375
0.0562949
0.0628299
-0.289416
-0.282438
-0.257047
-0.219295
-0.17697
-0.135973
-0.0992546
-0.0676332
-0.0408934
-0.018469
0.000220815
0.0156273
0.0283759
0.0398432
0.0485174
-0.323753
-0.315829
-0.289898
-0.25111
-0.207316
-0.164591
-0.126061
-0.0926625
-0.0642342
-0.0402255
-0.0200413
-0.00322462
0.0107715
0.0234272
0.0336727
-0.357084
-0.348265
-0.321896
-0.282167
-0.237043
-0.192701
-0.152447
-0.117341
-0.0872817
-0.0617376
-0.0401065
-0.0219204
-0.00668468
0.00711764
0.0187287
-0.389247
-0.379586
-0.353017
-0.312365
-0.266072
-0.220232
-0.178348
-0.141612
-0.109985
-0.0829608
-0.0599341
-0.0404262
-0.0239793
-0.00907285
0.00379345
-0.42017
-0.409757
-0.383074
-0.341613
-0.294324
-0.247111
-0.203702
-0.16542
-0.132297
-0.103852
-0.0794845
-0.0587054
-0.0410853
-0.0251271
-0.0111075
-0.449772
-0.438666
-0.411686
-0.370081
-0.321721
-0.273269
-0.228449
-0.188713
-0.154169
-0.124369
-0.0987199
-0.076723
-0.0579721
-0.041013
-0.0259242
-0.477975
-0.466243
-0.439111
-0.397367
-0.348159
-0.298644
-0.25253
-0.211438
-0.175556
-0.144473
-0.117604
-0.0944456
-0.0746088
-0.0566955
-0.0406016
-0.504703
-0.492401
-0.465253
-0.423306
-0.37368
-0.323172
-0.27589
-0.233548
-0.196416
-0.164124
-0.136102
-0.111841
-0.0909657
-0.0721428
-0.0550983
-0.529892
-0.517058
-0.49001
-0.448035
-0.398083
-0.346787
-0.298477
-0.254997
-0.216708
-0.183286
-0.15418
-0.128878
-0.107015
-0.0873268
-0.069383
-0.553482
-0.54015
-0.513304
-0.471488
-0.421317
-0.369445
-0.320242
-0.275743
-0.236394
-0.201925
-0.171808
-0.145528
-0.12273
-0.102222
-0.0834289
-0.575423
-0.561626
-0.535073
-0.49358
-0.443371
-0.391076
-0.341146
-0.295746
-0.25544
-0.220011
-0.188956
-0.161765
-0.138086
-0.116806
-0.0972121
-0.595672
-0.581442
-0.555269
-0.514251
-0.464197
-0.411647
-0.361142
-0.31497
-0.273813
-0.237513
-0.205599
-0.177563
-0.153062
-0.131057
-0.110712
-0.614195
-0.599564
-0.573853
-0.533458
-0.483745
-0.431121
-0.380194
-0.333382
-0.291485
-0.254406
-0.221711
-0.192901
-0.167637
-0.144957
-0.123908
-0.630966
-0.615969
-0.590794
-0.551162
-0.501972
-0.449459
-0.398272
-0.35096
-0.308425
-0.270666
-0.237273
-0.207759
-0.181794
-0.15849
-0.136785
-0.645971
-0.630643
-0.606072
-0.567335
-0.518846
-0.466627
-0.415347
-0.367673
-0.324623
-0.286272
-0.252266
-0.22212
-0.195519
-0.171644
-0.149326
-0.659208
-0.643582
-0.619672
-0.581956
-0.53434
-0.482601
-0.431393
-0.383497
-0.340053
-0.301214
-0.266671
-0.235968
-0.208799
-0.184411
-0.161516
-0.670682
-0.654793
-0.631595
-0.595011
-0.548436
-0.497357
-0.446391
-0.398419
-0.354699
-0.315474
-0.280485
-0.249289
-0.22162
-0.196783
-0.173345
-0.68041
-0.664295
-0.641848
-0.606497
-0.56112
-0.510882
-0.460328
-0.412424
-0.36855
-0.329038
-0.293693
-0.2621
-0.233956
-0.208752
-0.184818
-0.68842
-0.672114
-0.650451
-0.61642
-0.572387
-0.523164
-0.473191
-0.425503
-0.381596
-0.341901
-0.306284
-0.274366
-0.245838
-0.220275
-0.196
-0.694751
-0.678291
-0.657431
-0.624795
-0.582241
-0.534199
-0.484974
-0.43765
-0.393834
-0.354057
-0.318254
-0.286084
-0.25724
-0.231368
-0.207023
-0.69945
-0.682873
-0.66283
-0.631645
-0.590691
-0.543989
-0.495676
-0.448862
-0.405262
-0.365507
-0.329602
-0.297256
-0.268166
-0.242036
-0.217593
-0.702575
-0.68592
-0.666697
-0.637004
-0.597755
-0.552543
-0.505301
-0.459143
-0.415882
-0.37625
-0.340331
-0.307882
-0.278613
-0.252265
-0.22765
-0.704192
-0.687498
-0.66909
-0.640917
-0.603459
-0.559872
-0.513854
-0.468497
-0.425697
-0.386291
-0.350444
-0.317963
-0.288579
-0.262059
-0.237275
-0.704376
-0.687684
-0.670078
-0.643434
-0.607838
-0.565999
-0.52135
-0.476932
-0.434716
-0.395638
-0.359946
-0.327505
-0.298066
-0.271431
-0.246533
-0.703209
-0.686561
-0.669738
-0.644617
-0.610932
-0.570948
-0.527804
-0.484463
-0.44295
-0.404301
-0.368847
-0.336515
-0.307085
-0.280392
-0.25544
-0.70078
-0.684218
-0.668155
-0.644535
-0.612792
-0.574752
-0.533238
-0.491104
-0.450413
-0.412291
-0.377158
-0.345007
-0.315644
-0.288947
-0.263997
-0.697184
-0.680752
-0.665419
-0.643266
-0.613474
-0.577449
-0.537678
-0.496875
-0.45712
-0.419623
-0.384893
-0.35299
-0.323757
-0.297104
-0.272205
-0.692519
-0.676262
-0.661627
-0.640893
-0.613043
-0.579082
-0.541153
-0.501797
-0.46309
-0.426315
-0.392067
-0.36048
-0.331434
-0.304874
-0.280072
-0.686887
-0.67085
-0.65688
-0.637507
-0.611568
-0.579703
-0.543696
-0.505896
-0.468343
-0.432384
-0.398697
-0.367491
-0.33869
-0.312268
-0.28761
-0.680395
-0.664623
-0.651282
-0.633202
-0.609126
-0.579365
-0.545348
-0.509198
-0.472902
-0.437849
-0.404801
-0.37404
-0.345539
-0.319302
-0.294829
-0.673147
-0.657685
-0.644939
-0.628078
-0.605801
-0.578131
-0.546148
-0.511735
-0.47679
-0.442733
-0.410398
-0.380145
-0.351999
-0.325988
-0.301742
-0.665249
-0.650141
-0.637957
-0.622236
-0.601678
-0.576065
-0.546144
-0.513538
-0.480032
-0.447056
-0.415509
-0.385825
-0.358086
-0.332343
-0.308363
-0.656804
-0.642094
-0.630441
-0.615779
-0.596847
-0.573236
-0.545384
-0.514641
-0.482655
-0.450842
-0.420154
-0.391099
-0.363819
-0.338383
-0.314706
-0.647915
-0.633643
-0.622494
-0.608808
-0.591402
-0.56972
-0.543922
-0.515082
-0.484686
-0.454113
-0.424355
-0.395987
-0.369216
-0.344128
-0.320786
-0.63868
-0.624885
-0.614214
-0.601425
-0.585435
-0.565593
-0.541814
-0.5149
-0.486154
-0.456892
-0.428132
-0.40051
-0.374297
-0.349595
-0.326621
-0.629191
-0.615909
-0.605696
-0.593727
-0.57904
-0.560933
-0.539118
-0.514134
-0.487085
-0.459202
-0.431507
-0.404687
-0.379082
-0.354803
-0.332228
-0.619538
-0.606801
-0.597029
-0.585807
-0.57231
-0.555822
-0.535896
-0.512828
-0.48751
-0.461064
-0.434498
-0.408539
-0.383591
-0.359772
-0.337627
-0.609801
-0.597638
-0.588293
-0.577752
-0.565333
-0.55034
-0.532212
-0.511026
-0.487459
-0.462501
-0.437126
-0.412083
-0.387842
-0.364521
-0.342835
-0.600057
-0.588492
-0.579564
-0.569645
-0.558194
-0.544568
-0.528131
-0.508773
-0.48696
-0.463534
-0.439407
-0.415338
-0.391854
-0.36907
-0.347872
-0.590372
-0.579425
-0.570907
-0.561557
-0.550974
-0.538583
-0.523718
-0.506118
-0.486046
-0.464182
-0.441358
-0.41832
-0.395644
-0.373438
-0.352759
-0.580809
-0.570495
-0.562381
-0.553555
-0.543744
-0.53246
-0.51904
-0.503108
-0.484748
-0.464466
-0.442993
-0.421043
-0.39923
-0.377644
-0.357516
-0.57142
-0.56175
-0.554037
-0.545695
-0.536571
-0.526269
-0.51416
-0.499795
-0.483098
-0.464404
-0.444326
-0.423519
-0.402626
-0.381705
-0.362162
-0.56225
-0.55323
-0.545916
-0.538026
-0.529511
-0.520074
-0.50914
-0.496227
-0.481128
-0.464016
-0.445368
-0.42576
-0.405845
-0.385638
-0.36672
-0.553338
-0.544969
-0.538053
-0.530587
-0.522614
-0.513931
-0.504041
-0.492454
-0.478874
-0.46332
-0.446128
-0.427771
-0.408898
-0.389458
-0.37121
-0.544716
-0.536995
-0.530475
-0.52341
-0.51592
-0.507892