/*--------------------------------*- C++ -*----------------------------------*\
  =========                 |
  \\      /  F ield         | OpenFOAM: The Open Source CFD Toolbox
   \\    /   O peration     | Website:  https://openfoam.org
    \\  /    A nd           | Version:  7
     \\/     M anipulation  |
\*---------------------------------------------------------------------------*/
FoamFile
{
    version     2.0;
    format      ascii;
    class       surfaceScalarField;
    location    "200";
    object      phi;
}
// * * * * * * * * * * * * * * * * * * * * * * * * * * * * * * * * * * * * * //

dimensions      [0 3 -1 0 0 0 0];

internalField   nonuniform List<scalar> 
39691
(
-1.41673e-06
-0.000107458
0.000108874
-6.27286e-06
-0.000285667
0.000290523
-1.51411e-05
-0.000437456
0.000446325
-2.82719e-05
-0.00056211
0.000575241
-4.5584e-05
-0.000661337
0.000678649
-6.6734e-05
-0.000739044
0.000760194
-9.1224e-05
-0.000800542
0.000825032
-0.000118514
-0.00085155
0.00087884
-0.00014811
-0.00089716
0.000926756
-0.000179618
-0.000941026
0.000972534
-0.000212748
-0.000984893
0.00101802
-0.000247287
-0.00102844
0.00106298
-0.000283056
-0.00106936
0.00110512
-0.000319835
-0.00110345
0.00114023
-0.00112421
0.0011619
-0.000357526
-2.02735e-06
-0.00010543
-8.34416e-06
-0.00027935
-1.92683e-05
-0.000426532
-3.4842e-05
-0.000546537
-5.48359e-05
-0.000641343
-7.88249e-05
-0.000715055
-0.000106296
-0.000773072
-0.000136752
-0.000821093
-0.000169797
-0.000864115
-0.000205171
-0.000905652
-0.000242749
-0.000947314
-0.000282511
-0.000988679
-0.00032447
-0.0010274
-0.000368587
-0.00105933
-0.00107791
-0.000414888
-2.62325e-06
-0.000102807
-1.03471e-05
-0.000271626
-2.3226e-05
-0.000413653
-4.10902e-05
-0.000528673
-6.35602e-05
-0.000618873
-9.01273e-05
-0.000688488
-0.000120257
-0.000742942
-0.000153487
-0.000787864
-0.000189497
-0.000828105
-0.000228139
-0.00086701
-0.000269432
-0.000906022
-0.000313514
-0.000944597
-0.000360575
-0.000980336
-0.000410734
-0.00100918
-0.00102453
-0.000464115
-3.19773e-06
-9.96094e-05
-1.22616e-05
-0.000262562
-2.69783e-05
-0.000398937
-4.69653e-05
-0.000508686
-7.16932e-05
-0.000594145
-0.000100567
-0.000659613
-0.000133024
-0.000710485
-0.000168621
-0.000752267
-0.000207094
-0.000789633
-0.000248378
-0.000825725
-0.000292601
-0.000861799
-0.000340032
-0.000897166
-0.000391002
-0.000929367
-0.000445768
-0.000954409
-0.000965774
-0.000504521
-3.74479e-06
-9.58646e-05
-1.40696e-05
-0.000252237
-3.04942e-05
-0.000382512
-5.24252e-05
-0.000486755
-7.91845e-05
-0.000567386
-0.000110089
-0.000628709
-0.000144539
-0.000676035
-0.000182094
-0.000714712
-0.00022252
-0.000749207
-0.000265807
-0.000782438
-0.000312152
-0.000815454
-0.000361913
-0.000847404
-0.000415532
-0.000875748
-0.000473377
-0.000896564
-0.000903481
-0.00053567
-4.25906e-06
-9.16056e-05
-1.57556e-05
-0.000240741
-3.37475e-05
-0.00036452
-5.74351e-05
-0.000463067
-8.59949e-05
-0.000538826
-0.000118653
-0.00059605
-0.000154765
-0.000639923
-0.000193874
-0.000675603
-0.000235752
-0.000707328
-0.000280406
-0.000737785
-0.000328061
-0.000767799
-0.000379124
-0.000796341
-0.000434105
-0.000820767
-0.000493451
-0.000837217
-0.000839543
-0.000557389
-4.73585e-06
-8.68697e-05
-1.73064e-05
-0.00022817
-3.67161e-05
-0.00034511
-6.19672e-05
-0.000437816
-9.20948e-05
-0.000508698
-0.000126234
-0.000561911
-0.000163685
-0.000602473
-0.000203959
-0.000635328
-0.000246806
-0.000664482
-0.000292212
-0.000692379
-0.000340388
-0.000719622
-0.000391742
-0.000744988
-0.000446808
-0.000765701
-0.000506084
-0.000777941
-0.000775848
-0.000569779
-5.171e-06
-8.16987e-05
-1.87101e-05
-0.000214631
-3.93814e-05
-0.000324439
-6.59987e-05
-0.000411199
-9.7462e-05
-0.000477235
-0.000132815
-0.000526558
-0.000171294
-0.000563993
-0.000212364
-0.000594258
-0.000255724
-0.000621121
-0.000301305
-0.000646797
-0.000349259
-0.000671669
-0.00039994
-0.000694307
-0.000453866
-0.000711775
-0.000511556
-0.000720251
-0.000714215
-0.000573189
-5.56082e-06
-7.61379e-05
-1.99567e-05
-0.000200235
-4.1727e-05
-0.000302669
-6.95103e-05
-0.000383415
-0.000102078
-0.000444667
-0.000138384
-0.000490252
-0.000177597
-0.00052478
-0.000219117
-0.000552739
-0.00026257
-0.000577668
-0.000307798
-0.00060157
-0.000354846
-0.000624621
-0.000403966
-0.000645186
-0.000455612
-0.000660129
-0.000510296
-0.000665567
-0.000656337
-0.000568174
-5.90195e-06
-7.02359e-05
-2.10368e-05
-0.0001851
-4.37383e-05
-0.000279967
-7.24841e-05
-0.000354669
-0.000105927
-0.000411224
-0.000142933
-0.000453247
-0.000182597
-0.000485116
-0.000224245
-0.000511091
-0.000267411
-0.000534503
-0.000311811
-0.000557169
-0.000357345
-0.000579087
-0.000404112
-0.00059842
-0.000452449
-0.000611792
-0.000502836
-0.00061518
-0.000603744
-0.000555429
-6.19126e-06
-6.40447e-05
-2.19416e-05
-0.00016935
-4.54011e-05
-0.000256508
-7.49027e-05
-0.000325168
-0.000108991
-0.000377136
-0.000146447
-0.000415791
-0.000186292
-0.00044527
-0.000227769
-0.000469614
-0.0002703
-0.000491971
-0.000313457
-0.000514013
-0.000356949
-0.000535595
-0.000400672
-0.000554697
-0.000444795
-0.000567669
-0.000489743
-0.000570232
-0.000557786
-0.0005357
-6.42577e-06
-5.76189e-05
-2.26628e-05
-0.000153113
-4.67013e-05
-0.000232469
-7.67471e-05
-0.000295122
-0.000111247
-0.000342636
-0.000148905
-0.000378133
-0.000188667
-0.000405508
-0.000229687
-0.000428594
-0.000271267
-0.000450391
-0.000312811
-0.000472469
-0.000353809
-0.000494597
-0.0003939
-0.000514606
-0.000433033
-0.000528536
-0.000471546
-0.000531719
-0.000519648
-0.000509684
-6.6026e-06
-5.10163e-05
-2.31921e-05
-0.000136524
-4.76241e-05
-0.000208037
-7.79961e-05
-0.00026475
-0.000112669
-0.000307962
-0.000150275
-0.000340527
-0.000189688
-0.000366095
-0.00022997
-0.000388312
-0.000270299
-0.000410063
-0.000309896
-0.000432872
-0.000348006
-0.000456487
-0.000383968
-0.000478643
-0.000417448
-0.000495056
-0.000448657
-0.00050051
-0.000490387
-0.000477919
-6.71901e-06
-4.42973e-05
-2.35211e-05
-0.000119722
-4.81542e-05
-0.000183404
-7.86261e-05
-0.000234278
-0.000113224
-0.000273364
-0.000150514
-0.000303237
-0.0001893
-0.00032731
-0.000228554
-0.000349057
-0.000267328
-0.000371289
-0.000304656
-0.000395544
-0.00033952
-0.000421623
-0.000370919
-0.000447244
-0.000398167
-0.000467808
-0.0004213
-0.000477377
-0.000470999
-0.000440687
-6.77243e-06
-3.75248e-05
-2.36419e-05
-0.000102852
-4.82762e-05
-0.00015877
-7.86117e-05
-0.000203943
-0.000112873
-0.000239103
-0.000149565
-0.000266545
-0.000187424
-0.00028945
-0.000225337
-0.000311144
-0.000262228
-0.000334398
-0.000296948
-0.000360824
-0.000328208
-0.000390363
-0.000354633
-0.000420819
-0.000375118
-0.000447323
-0.000389448
-0.000463047
-0.000462502
-0.000397945
-6.76069e-06
-3.07642e-05
-2.35477e-05
-8.6065e-05
-4.79753e-05
-0.000134342
-7.79264e-05
-0.000173992
-0.000111572
-0.000205457
-0.000147361
-0.000230756
-0.000183964
-0.000252847
-0.000220181
-0.000274928
-0.000254815
-0.000299764
-0.000286537
-0.000329102
-0.000313791
-0.00036311
-0.000334808
-0.000399801
-0.000347994
-0.000434137
-0.000352795
-0.000458246
-0.000466007
-0.000349291
-6.68214e-06
-2.4082e-05
-2.32325e-05
-6.95147e-05
-4.72386e-05
-0.000110336
-7.65454e-05
-0.000144685
-0.000109278
-0.000172724
-0.000143831
-0.000196203
-0.000178807
-0.000217872
-0.000212918
-0.000240817
-0.000244849
-0.000267833
-0.000273101
-0.000300849
-0.00029586
-0.000340351
-0.000310962
-0.0003847
-0.000316257
-0.000428842
-0.000310753
-0.00046375
-0.00048276
-0.000293999
-6.53598e-06
-1.7546e-05
-2.2693e-05
-5.33576e-05
-4.60565e-05
-8.69728e-05
-7.44475e-05
-0.000116294
-0.000105951
-0.000141221
-0.000138903
-0.000163251
-0.000171835
-0.00018494
-0.000203365
-0.000209287
-0.00023206
-0.000239139
-0.000256257
-0.000276652
-0.000273903
-0.000322705
-0.000282452
-0.000376151
-0.00027916
-0.000432134
-0.000262486
-0.000480424
-0.000514108
-0.000231138
-6.32249e-06
-1.12236e-05
-2.19289e-05
-3.77512e-05
-4.44246e-05
-6.4477e-05
-7.16187e-05
-8.90997e-05
-0.000101557
-0.000111283
-0.000132514
-0.000132293
-0.000162937
-0.000154517
-0.000191342
-0.000180882
-0.000216167
-0.000214315
-0.000235591
-0.000257227
-0.000247343
-0.000310954
-0.000248533
-0.000374961
-0.000235816
-0.000444851
-0.000207006
-0.000509234
-0.000561336
-0.000159778
-6.0433e-06
-5.18026e-06
-2.09435e-05
-2.2851e-05
-4.23457e-05
-4.30748e-05
-6.80551e-05
-6.33904e-05
-9.60775e-05
-8.32604e-05
-0.000124618
-0.000103753
-0.000152024
-0.000127111
-0.000176689
-0.000156216
-0.000196912
-0.000194092
-0.000210709
-0.00024343
-0.000215606
-0.000306057
-0.000208422
-0.000382144
-0.000185248
-0.000468026
-0.000143284
-0.000551198
-0.000625033
-7.95868e-05
-5.70163e-06
5.21379e-07
-1.97451e-05
-8.80751e-06
-3.98309e-05
-2.2989e-05
-6.37658e-05
-3.94555e-05
-8.95122e-05
-5.7514e-05
-0.000115192
-7.80738e-05
-0.000139036
-0.000103267
-0.000159293
-0.000135959
-0.000174097
-0.000179288
-0.000181287
-0.00023624
-0.0001782
-0.000309144
-0.000161414
-0.000398931
-0.00012643
-0.000503009
-6.95935e-05
-0.000608034
-0.0007
5.37366e-06
-5.3025e-06
5.82388e-06
-1.8347e-05
4.23694e-06
-3.69009e-05
-4.43508e-06
-5.8775e-05
-1.75814e-05
-8.18821e-05
-3.4407e-05
-0.000104246
-5.57096e-05
-0.00012396
-8.35528e-05
-0.000139101
-0.000120818
-0.000147608
-0.000170781
-0.000147125
-0.000236723
-0.000134803
-0.000321466
-0.000107055
-0.000426678
-5.8903e-05
-0.000551162
1.72002e-05
-0.000684137
-0.000797752
0.000114952
-4.85228e-06
1.06762e-05
-1.67674e-05
1.6152e-05
-3.35863e-05
1.23839e-05
-5.31233e-05
1.9556e-06
-7.32332e-05
-1.42971e-05
-9.1827e-05
-3.71158e-05
-0.000106836
-6.85437e-05
-0.000116136
-0.000111518
-0.000117443
-0.000169475
-0.000108178
-0.000245988
-8.53105e-05
-0.000344334
-4.51637e-05
-0.000466825
1.67115e-05
-0.000613037
0.000107757
-0.000775182
-0.000919645
0.00022965
-4.35926e-06
1.50354e-05
-1.50297e-05
2.68225e-05
-2.99276e-05
2.72817e-05
-4.68673e-05
1.88953e-05
-6.36357e-05
2.47137e-06
-7.80157e-05
-2.27358e-05
-8.77551e-05
-5.88043e-05
-9.05016e-05
-0.000108771
-8.37167e-05
-0.000176259
-6.45743e-05
-0.000265131
-2.98588e-05
-0.000379049
2.42226e-05
-0.000520906
0.000102424
-0.000691238
0.000210993
-0.000883752
-0.00106258
0.000353928
-3.83294e-06
1.88684e-05
-1.31615e-05
3.61511e-05
-2.59736e-05
4.00938e-05
-4.00772e-05
3.29989e-05
-5.31822e-05
1.55764e-05
-6.29274e-05
-1.29906e-05
-6.68584e-05
-5.48732e-05
-6.2372e-05
-0.000113258
-4.66538e-05
-0.000191978
-1.66093e-05
-0.000295175
3.11638e-05
-0.000426822
0.000100452
-0.000590195
0.00019567
-0.000786456
0.000323611
-0.00101169
-0.00122528
0.000486317
-3.28369e-06
2.21521e-05
-1.11933e-05
4.40607e-05
-2.17794e-05
5.06799e-05
-3.28351e-05
4.40545e-05
-4.19821e-05
2.47234e-05
-4.67033e-05
-8.26941e-06
-4.43268e-05
-5.72497e-05
-3.19808e-05
-0.000125604
-6.56734e-06
-0.000217391
3.5289e-05
-0.000337032
9.71603e-05
-0.000488693
0.000182785
-0.00067582
0.000295948
-0.000899619
0.000443843
-0.00115959
-0.00140586
0.000624417
-2.72224e-06
2.48743e-05
-9.15706e-06
5.04955e-05
-1.74037e-05
5.89265e-05
-2.52289e-05
5.18797e-05
-3.01562e-05
2.96507e-05
-2.95014e-05
-8.92429e-06
-2.03661e-05
-6.6385e-05
3.80805e-07
-0.00014635
3.61769e-05
-0.000253187
9.0607e-05
-0.000391462
0.000167398
-0.000565485
0.000270171
-0.000778593
0.000401905
-0.00103135
0.000569681
-0.00132736
-0.00160147
0.000765296
-2.15909e-06
2.70334e-05
-7.08437e-06
5.54208e-05
-1.2905e-05
6.47471e-05
-1.73479e-05
5.63226e-05
-1.78275e-05
3.01303e-05
-1.14839e-05
-1.52678e-05
4.81447e-06
-8.26835e-05
3.44867e-05
-0.000176023
8.11956e-05
-0.000299896
0.0001488
-0.000459066
0.000241091
-0.000657776
0.000361461
-0.000898963
0.000512013
-0.0011819
0.000698765
-0.00151412
-0.00180859
0.000905882
-1.60385e-06
2.86372e-05
-5.00458e-06
5.88216e-05
-8.33814e-06
6.80807e-05
-9.2761e-06
5.72606e-05
-5.11283e-06
2.59671e-05
7.19391e-06
-2.75746e-05
3.10101e-05
-0.0001065
7.00092e-05
-0.000215022
0.00012811
-0.000357997
0.000209333
-0.000540289
0.000317458
-0.0007659
0.000455513
-0.00103702
0.000624776
-0.00135117
0.000828436
-0.00171778
-0.00202366
0.00104351
-1.06465e-06
2.97019e-05
-2.94283e-06
6.06997e-05
-3.75074e-06
6.88886e-05
-1.08691e-06
5.45968e-05
7.88592e-06
1.69942e-05
2.63968e-05
-4.60854e-05
5.80393e-05
-0.000138142
0.000106727
-0.000263709
0.000176579
-0.00042785
0.000271699
-0.000635409
0.000395735
-0.000889936
0.000551232
-0.00119251
0.000738911
-0.00153885
0.000956368
-0.00193523
-0.0022442
0.00117691
-5.47561e-07
3.02495e-05
-9.18136e-07
6.10703e-05
8.20439e-07
6.715e-05
7.16296e-06
4.82542e-05
2.10891e-05
3.06816e-06
4.60177e-05
-7.10141e-05
8.57606e-05
-0.000177885
0.000144438
-0.000322386
0.0002263
-0.000509713
0.000335412
-0.00074452
0.000475122
-0.00102965
0.000647343
-0.00136474
0.000852661
-0.00174416
0.00108292
-0.00216549
-0.00246985
0.00130856
-5.65077e-08
3.0306e-05
1.05639e-06
5.99574e-05
5.35173e-06
6.28547e-05
1.54364e-05
3.81696e-05
3.44449e-05
-1.59403e-05
6.59866e-05
-0.000102556
0.000114074
-0.000225972
0.000182987
-0.000391299
0.000277011
-0.000603737
0.000400005
-0.000867514
0.000554772
-0.00118441
0.000742223
-0.00155219
0.000962
-0.00196394
0.00120614
-0.00240962
-0.0028
0.00153629
4.08227e-07
2.98977e-05
2.97824e-06
5.73874e-05
9.83509e-06
5.59978e-05
2.37197e-05
2.42849e-05
4.79324e-05
-4.0153e-05
8.62703e-05
-0.000140894
0.000142921
-0.000282623
0.000222257
-0.000470636
0.000328475
-0.000709956
0.000465017
-0.00100406
0.000633829
-0.00135322
0.000834432
-0.00175279
0.00106474
-0.00219425
0.00131584
-0.00266073
-0.0030979
0.00161375
8.48024e-07
2.90497e-05
4.85152e-06
5.33839e-05
1.42774e-05
4.65719e-05
3.20223e-05
6.5401e-06
6.15617e-05
-6.96924e-05
0.000106872
-0.000186204
0.000172278
-0.000348029
0.000262162
-0.000560519
0.000380468
-0.000828262
0.000529978
-0.00115357
0.000711453
-0.0015347
0.000922706
-0.00196404
0.00115917
-0.00243072
0.00141118
-0.00291273
-0.00337351
0.00168679
1.26752e-06
2.77822e-05
6.6884e-06
4.7963e-05
1.87005e-05
3.45598e-05
4.0375e-05
-1.51344e-05
7.53695e-05
-0.000104687
0.000127824
-0.000238659
0.000202148
-0.000422352
0.000302618
-0.000660989
0.00043274
-0.000958385
0.000594367
-0.00131519
0.000786768
-0.0017271
0.00100585
-0.00218313
0.00124461
-0.00266947
0.00149271
-0.00316084
-0.00363033
0.00174953
1.67347e-06
2.61087e-05
8.50825e-06
4.11283e-05
2.31384e-05
1.99297e-05
4.88265e-05
-4.08225e-05
8.94129e-05
-0.000145273
0.000149176
-0.000298422
0.000232534
-0.000505711
0.000343522
-0.000771977
0.000484987
-0.00109985
0.00065758
-0.00148779
0.000858831
-0.00192835
0.00108269
-0.00240699
0.0013201
-0.00290688
0.0015603
-0.00340104
-0.00386894
0.00179892
2.07442e-06
2.40343e-05
1.03356e-05
3.2867e-05
2.76347e-05
2.63064e-06
5.74371e-05
-7.06249e-05
0.00010376
-0.000191596
0.000170977
-0.000365639
0.000263424
-0.000598158
0.000384722
-0.000893275
0.000536822
-0.00125195
0.000718913
-0.00166988
0.000926636
-0.00213607
0.00115209
-0.00263244
0.00138475
-0.00313953
0.00161392
-0.00363022
-0.0040892
0.00183418
2.48e-06
2.15543e-05
1.21983e-05
2.31487e-05
3.22377e-05
-1.74088e-05
6.6272e-05
-0.000104659
0.000118477
-0.000243801
0.000193265
-0.000440428
0.000294767
-0.00069966
0.000425996
-0.0010245
0.000587758
-0.00141371
0.000777573
-0.00185969
0.000989164
-0.00234767
0.00121305
-0.00285633
0.00143792
-0.0033644
0.00165374
-0.00384604
-0.00429092
0.00185546
2.90022e-06
1.86541e-05
1.4125e-05
1.1924e-05
3.69964e-05
-4.02802e-05
7.53932e-05
-0.000143056
0.000133619
-0.000302027
0.000216047
-0.000522856
0.000326455
-0.000810068
0.000467035
-0.00116508
0.000637214
-0.00158389
0.000832708
-0.00205519
0.00104544
-0.00256039
0.00126476
-0.00307565
0.00147929
-0.00357894
0.0016802
-0.00404695
-0.00447427
0.00186355
3.34476e-06
1.53093e-05
1.61429e-05
-8.7416e-07
4.19555e-05
-6.60928e-05
8.48519e-05
-0.000185952
0.000149218
-0.000366393
0.000239285
-0.000612922
0.00035831
-0.000929093
0.000507441
-0.00131422
0.00068453
-0.00176098
0.000883457
-0.00225411
0.0010946
-0.00277154
0.00130668
-0.00328773
0.00150889
-0.00378115
0.001694
-0.00423205
-0.00463981
0.00185954
3.82225e-06
1.14871e-05
1.82758e-05
-1.53277e-05
4.71508e-05
-9.49679e-05
9.46816e-05
-0.000233483
0.000165271
-0.000436983
0.000262887
-0.000710538
0.000390078
-0.00105628
0.000546735
-0.00147087
0.000729
-0.00194324
0.000929006
-0.00245412
0.00113597
-0.0029785
0.00133854
-0.0034903
0.00152705
-0.00396966
0.00169609
-0.0044011
-0.0047885
0.00184478
4.33983e-06
7.14725e-06
2.0542e-05
-3.15299e-05
5.26067e-05
-0.000127033
0.000104893
-0.000285769
0.000181739
-0.00051383
0.000286704
-0.000815503
0.000421434
-0.00119101
0.000584377
-0.00163382
0.000769916
-0.00212878
0.000968645
-0.00265285
0.00116909
-0.00317894
0.00136038
-0.00368159
0.00153438
-0.00414366
0.00168761
-0.00455432
-0.00492154
0.00182065
4.90269e-06
2.24456e-06
2.29535e-05
-4.95807e-05
5.83329e-05
-0.000162412
0.000115471
-0.000342907
0.000198539
-0.000596898
0.00031053
-0.000927494
0.000451994
-0.00133248
0.000619796
-0.00180162
0.00080661
-0.0023156
0.00100181
-0.00284805
0.00119374
-0.00337088
0.0013725
-0.00386035
0.0015317
-0.00430286
0.00166975
-0.00469237
-0.0050403
0.00178851
5.5139e-06
-3.26934e-06
2.55148e-05
-6.95816e-05
6.43236e-05
-0.000201221
0.000126372
-0.000404955
0.000215547
-0.000686073
0.000334106
-0.00104605
0.000481328
-0.0014797
0.000652421
-0.00197271
0.000838502
-0.00250168
0.00102812
-0.00303767
0.00120995
-0.0035527
0.0013754
-0.00402579
0.00151996
-0.00444742
0.00164374
-0.00481616
-0.00514619
0.00174964
6.1744e-06
-9.44374e-06
2.82232e-05
-9.16304e-05
7.05572e-05
-0.000243555
0.000137526
-0.000471924
0.000232602
-0.000781148
0.000357136
-0.00117059
0.000508989
-0.00163155
0.000681718
-0.00214544
0.000865126
-0.00268508
0.00104739
-0.00321994
0.00121794
-0.00372325
0.00136976
-0.00417761
0.00150018
-0.00457784
0.00161077
-0.00492675
-0.00524062
0.0017052
6.88309e-06
-1.63268e-05
3.10687e-05
-0.000115816
7.69974e-05
-0.000289483
0.000148841
-0.000543768
0.000249513
-0.00088182
0.000379294
-0.00130037
0.000534532
-0.00178679
0.000707216
-0.00231813
0.00088616
-0.00286403
0.00105961
-0.00339339
0.00121811
-0.00388175
0.00135636
-0.00431586
0.00147338
-0.00469486
0.00157194
-0.00502531
-0.0053249
0.00165622
7.63707e-06
-2.39639e-05
3.40351e-05
-0.000142214
8.35943e-05
-0.000339043
0.000160201
-0.000620375
0.000266062
-0.000987681
0.000400246
-0.00143455
0.000557541
-0.00194409
0.000728536
-0.00248912
0.000901426
-0.00303692
0.00106494
-0.00355691
0.00121101
-0.00402781
0.00133603
-0.00444088
0.00144055
-0.00479938
0.00152824
-0.00511301
-0.00540021
0.00160355
8.43186e-06
-3.23958e-05
3.71005e-05
-0.000170883
9.0287e-05
-0.000392229
0.000171476
-0.000701564
0.000282022
-0.00109823
0.000419661
-0.00157219
0.000577647
-0.00210207
0.000745401
-0.00265688
0.000910891
-0.00320241
0.00106369
-0.00370971
0.00119725
-0.00416137
0.00130962
-0.00455325
0.00140262
-0.00489238
0.00148056
-0.00519095
-0.00546759
0.00154795
9.26169e-06
-4.16574e-05
4.02383e-05
-0.000201859
9.70055e-05
-0.000448996
0.000182524
-0.000787082
0.000297156
-0.00121286
0.000437229
-0.00171226
0.000594543
-0.00225938
0.000757646
-0.00281998
0.000914653
-0.00335941
0.00105626
-0.00385131
0.00117751
-0.00428263
0.00127796
-0.0046537
0.00136044
-0.00497487
0.00142965
-0.00526016
-0.00552795
0.00149001
1.01197e-05
-5.17772e-05
4.34181e-05
-0.000235158
0.000103673
-0.000509251
0.000193195
-0.000876604
0.000311235
-0.0013309
0.000452672
-0.0018537
0.000608
-0.00241471
0.000765213
-0.00297719
0.000912922
-0.00350712
0.00104313
-0.00398152
0.00115247
-0.00439197
0.00124181
-0.00474304
0.00131475
-0.00504781
0.00137616
-0.00532157
-0.00558202
0.00143023
1.09984e-05
-6.27756e-05
4.66071e-05
-0.000270766
0.000110209
-0.000572853
0.000203342
-0.000969738
0.000324042
-0.0014516
0.000465753
-0.00199541
0.000617865
-0.00256682
0.000768146
-0.00312747
0.000905996
-0.00364497
0.00102485
-0.00410037
0.00112282
-0.00448994
0.00120189
-0.0048221
0.0012662
-0.00511212
0.00132061
-0.00537598
-0.00563041
0.00136901
1.18893e-05
-7.46649e-05
4.977e-05
-0.000308647
0.000116529
-0.000639612
0.000212817
-0.00106603
0.000335378
-0.00157416
0.000476287
-0.00213632
0.000624065
-0.0027146
0.000766576
-0.00326998
0.000894238
-0.00377263
0.00100195
-0.00420808
0.00108919
-0.00457719
0.00115884
-0.00489175
0.00121536
-0.00516864
0.00126346
-0.00542409
-0.00567363
0.00130668
1.27837e-05
-8.74486e-05
5.28705e-05
-0.000348734
0.000122551
-0.000709292
0.000221481
-0.00116496
0.000345074
-0.00169775
0.000484142
-0.00227539
0.000626602
-0.00285706
0.000760707
-0.00340409
0.000878056
-0.00388998
0.000974991
-0.00430501
0.0010522
-0.0046544
0.00111322
-0.00495277
0.00116269
-0.00521811
0.00120507
-0.00546647
-0.00571205
0.00124349
1.36724e-05
-0.000101121
5.58716e-05
-0.000390933
0.000128193
-0.000781614
0.000229208
-0.00126597
0.000352991
-0.00182154
0.00048924
-0.00241164
0.000625546
-0.00299337
0.000750798
-0.00352934
0.000857879
-0.00399706
0.000944503
-0.00439164
0.00101238
-0.00472227
0.00106554
-0.00500593
0.00110861
-0.00526118
0.00114574
-0.0055036
-0.00574597
0.00117966
1.45459e-05
-0.000115667
5.87367e-05
-0.000435124
0.000133378
-0.000856255
0.000235884
-0.00136848
0.000359021
-0.00194467
0.000491557
-0.00254418
0.000621022
-0.00312283
0.00073715
-0.00364547
0.000834145
-0.00409406
0.000910988
-0.00446848
0.000970228
-0.00478151
0.0010162
-0.00505191
0.00105343
-0.0052984
0.0010857
-0.00553587
-0.00577562
0.00111535
1.53947e-05
-0.000131062
6.14298e-05
-0.000481159
0.000138033
-0.000932858
0.000241413
-0.00147186
0.000363094
-0.00206635
0.000491118
-0.0026722
0.000613205
-0.00324492
0.000720086
-0.00375235
0.000807284
-0.00418126
0.000874911
-0.00453611
0.000926177
-0.00483278
0.000965581
-0.00509131
0.000997434
-0.00533026
0.00102515
-0.00556359
-0.00580117
0.0010507
1.6209e-05
-0.000147271
6.39164e-05
-0.000528866
0.000142095
-0.00101104
0.000245721
-0.00157548
0.000365173
-0.00218581
0.00048799
-0.00279502
0.000602302
-0.00335923
0.000699945
-0.00384999
0.000777711
-0.00425902
0.000836696
-0.00459509
0.000880609
-0.00487669
0.000913976
-0.00512468
0.000940845
-0.00535713
0.000964242
-0.00558698
-0.00582274
0.00098581
1.69796e-05
-0.00016425
6.61642e-05
-0.000578051
0.000145506
-0.00109038
0.00024875
-0.00167873
0.000365256
-0.00230231
0.000482277
-0.00291204
0.000588549
-0.0034655
0.000677066
-0.00393851
0.000745814
-0.00432777
0.000796726
-0.004646
0.00083385
-0.00491381
0.000861643
-0.00515247
0.000883846
-0.00537933
0.000903112
-0.00560625
-0.00584041
0.000920786
1.76971e-05
-0.000181947
6.81434e-05
-0.000628497
0.00014822
-0.00117046
0.000250466
-0.00178097
0.00036337
-0.00241522
0.000474115
-0.00302278
0.000572194
-0.00356358
0.000651782
-0.0040181
0.000711957
-0.00438795
0.000755338
-0.00468938
0.000786183
-0.00494466
0.000808796
-0.00517508
0.000826591
-0.00539712
0.000841867
-0.00562153
-0.00585425
0.000855705
1.83529e-05
-0.0002003
6.98277e-05
-0.000679972
0.000150199
-0.00125083
0.000250853
-0.00188163
0.00035957
-0.00252393
0.00046366
-0.00312687
0.000553496
-0.00365342
0.000624413
-0.00408901
0.00067647
-0.00444
0.000712831
-0.00472574
0.000737848
-0.00496968
0.000755612
-0.00519285
0.000769203
-0.00541071
0.000780594
-0.00563292
-0.0058643
0.000790637
1.89388e-05
-0.000219239
7.11944e-05
-0.000732228
0.000151418
-0.00133105
0.000249914
-0.00198012
0.000353932
-0.00262795
0.000451087
-0.00322403
0.00053271
-0.00373504
0.000595259
-0.00415156
0.000639653
-0.0044844
0.000669465
-0.00475556
0.00068905
-0.00498926
0.00070224
-0.00520604
0.000711788
-0.00542026
0.00071937
-0.0056405
-0.00587057
0.000725645
1.94472e-05
-0.000238686
7.22247e-05
-0.000785005
0.00015186
-0.00141069
0.000247673
-0.00207593
0.000346552
-0.00272683
0.000436578
-0.00331405
0.000510089
-0.00380855
0.000564601
-0.00420608
0.000601772
-0.00452157
0.000625467
-0.00477925
0.000639959
-0.00500375
0.000648803
-0.00521488
0.000654433
-0.00542589
0.000658261
-0.00564433
-0.00587309
0.000660784
1.98736e-05
-0.00025856
7.2908e-05
-0.00083804
0.000151526
-0.0014893
0.000244173
-0.00216858
0.000337549
-0.00282021
0.000420333
-0.00339684
0.000485886
-0.00387411
0.000532709
-0.0042529
0.000563076
-0.00455194
0.00058104
-0.00479721
0.000590732
-0.00501345
0.000595414
-0.00521956
0.000597221
-0.0054277
0.000597333
-0.00564444
-0.00587188
0.000596117
2.02087e-05
-0.000278768
7.32272e-05
-0.000891058
0.00015041
-0.00156649
0.000239451
-0.00225762
0.000327029
-0.00290778
0.00040252
-0.00347233
0.000460312
-0.0039319
0.000499797
-0.00429238
0.000523755
-0.00457589
0.000536332
-0.00480979
0.000541472
-0.00501859
0.00054214
-0.00522023
0.000540197
-0.00542575
0.000536621
-0.00564086
-0.00586693
0.000531672
2.04497e-05
-0.000299218
7.31801e-05
-0.000943788
0.00014853
-0.00164184
0.000233577
-0.00234267
0.000315126
-0.00298933
0.000383335
-0.00354054
0.000433592
-0.00398216
0.000466087
-0.00432488
0.000484001
-0.00459381
0.000491495
-0.00481729
0.000492293
-0.00501938
0.000489066
-0.005217
0.000483426
-0.00542011
0.000476179
-0.00563362
-0.00585825
0.000467503
2.0593e-05
-0.000319811
7.27652e-05
-0.000995961
0.000145908
-0.00171498
0.000226619
-0.00242338
0.000301971
-0.00306468
0.000362958
-0.00360152
0.000405926
-0.00402512
0.00043177
-0.00435072
0.000443974
-0.00460601
0.000446651
-0.00481996
0.000443281
-0.00501602
0.000436254
-0.00520998
0.000426957
-0.00541082
0.00041605
-0.00562271
-0.00584586
0.000403654
2.06359e-05
-0.000340447
7.1985e-05
-0.00104731
0.000142573
-0.00178557
0.000218657
-0.00249946
0.000287697
-0.00313372
0.000341559
-0.00365539
0.000377496
-0.00406106
0.000397015
-0.00437024
0.000403814
-0.00461281
0.000401904
-0.00481805
0.000394513
-0.00500862
0.00038376
-0.00519923
0.000370834
-0.00539789
0.000356273
-0.00560815
-0.00582975
0.000340162
2.0577e-05
-0.000361024
7.08459e-05
-0.00109758
0.00013856
-0.00185328
0.000209771
-0.00257068
0.000272434
-0.00319639
0.000319301
-0.00370225
0.00034847
-0.00409023
0.000361971
-0.00438374
0.000363639
-0.00461448
0.000357343
-0.00481176
0.000346051
-0.00499733
0.000331632
-0.00518481
0.000315096
-0.00538135
0.000296887
-0.00558994
-0.00580992
0.000277063
2.04159e-05
-0.00038144
6.93578e-05
-0.00114652
0.000133907
-0.00191783
0.000200047
-0.00263682
0.000256308
-0.00325265
0.000296333
-0.00374228
0.000318999
-0.0041129
0.00032677
-0.00439151
0.000323553
-0.00461126
0.000313045
-0.00480125
0.000297952
-0.00498224
0.000279911
-0.00516677
0.000259777
-0.00536122
0.000237924
-0.00556809
-0.00578639
0.000214388
2.01531e-05
-0.000401593
6.75332e-05
-0.0011939
0.000128659
-0.00197896
0.000189568
-0.00269772
0.000239441
-0.00330252
0.000272795
-0.00377563
0.000289217
-0.00412932
0.000291528
-0.00439382
0.000283646
-0.00460338
0.000269076
-0.00478668
0.000250266
-0.00496343
0.000228637
-0.00514514
0.000204908
-0.00533749
0.000179406
-0.00554258
-0.00575915
0.000152167
1.97901e-05
-0.000421383
6.53875e-05
-0.0012395
0.000122861
-0.00203643
0.000178419
-0.00275328
0.000221949
-0.00334605
0.000248814
-0.0038025
0.000259246
-0.00413975
0.000256344
-0.00439092
0.000243995
-0.00459103
0.000225491
-0.00476818
0.000203036
-0.00494097
0.000177853
-0.00511995
0.000150534
-0.00531017
0.000121351
-0.0055134
-0.00572813
9.03391e-05
1.93293e-05
-0.000440712
6.29382e-05
-0.00128311
0.000116561
-0.00209005
0.000166684
-0.00280341
0.00020394
-0.00338331
0.000224509
-0.00382307
0.000229193
-0.00414443
0.000221307
-0.00438304
0.000204665
-0.00457439
0.00018234
-0.00474585
0.000156302
-0.00491494
0.0001276
-0.00509125
9.67369e-05
-0.00527931
6.38335e-05
-0.0054805
-0.00569279
2.84925e-05
1.87738e-05
-0.000459486
6.02042e-05
-0.00132454
0.000109806
-0.00213966
0.000154442
-0.00284804
0.000185515
-0.00341438
0.000199984
-0.00383754
0.000199152
-0.0041436
0.000186493
-0.00437038
0.000165714
-0.00455361
0.000139665
-0.0047198
0.000110095
-0.00488537
7.78995e-05
-0.00505906
4.3552e-05
-0.00524496
7.35747e-06
-0.0054443
-0.00565344
-3.19977e-05
1.81272e-05
-0.000477613
5.7206e-05
-0.00136362
0.000102646
-0.0021851
0.000141771