/*--------------------------------*- C++ -*----------------------------------*\
  =========                 |
  \\      /  F ield         | OpenFOAM: The Open Source CFD Toolbox
   \\    /   O peration     | Website:  https://openfoam.org
    \\  /    A nd           | Version:  7
     \\/     M anipulation  |
\*---------------------------------------------------------------------------*/
FoamFile
{
    version     2.0;
    format      ascii;
    class       volVectorField;
    location    "200";
    object      U;
}
// * * * * * * * * * * * * * * * * * * * * * * * * * * * * * * * * * * * * * //

dimensions      [0 1 -1 0 0 0 0];

internalField   nonuniform List<vector> 
20050
(
(0.000347491 -0.0470116 5.43466e-21)
(-0.000657596 -0.119173 -9.67724e-22)
(-0.00474499 -0.17399 -1.24192e-20)
(-0.0114145 -0.213142 -1.86237e-20)
(-0.0203598 -0.239059 -1.67885e-21)
(-0.0310685 -0.254649 1.14255e-20)
(-0.0429466 -0.262893 -1.2813e-20)
(-0.0554334 -0.26647 3.341e-21)
(-0.0680606 -0.267463 -9.12686e-21)
(-0.0804814 -0.267221 1.68177e-20)
(-0.092465 -0.266362 1.44877e-20)
(-0.103873 -0.264874 -1.77592e-20)
(-0.114636 -0.262273 -9.14696e-21)
(-0.124655 -0.257738 9.77398e-21)
(-0.13383 -0.250129 -1.04988e-20)
(0.00135431 -0.0462454 8.85523e-21)
(0.00140948 -0.116873 -5.926e-21)
(-0.00262074 -0.170239 -2.63766e-21)
(-0.00981019 -0.208121 1.86424e-20)
(-0.0196521 -0.233039 2.28921e-20)
(-0.0314763 -0.247942 -5.6346e-20)
(-0.0445788 -0.255805 3.4382e-20)
(-0.0583418 -0.259263 3.62064e-20)
(-0.0722839 -0.260336 4.74626e-20)
(-0.0860795 -0.260309 -4.54088e-20)
(-0.0995446 -0.259747 3.04141e-20)
(-0.112603 -0.258604 2.91541e-20)
(-0.125259 -0.256382 1.69519e-20)
(-0.137454 -0.252263 -5.43329e-20)
(-0.149146 -0.245082 4.52894e-20)
(0.00230828 -0.0451966 -3.60805e-20)
(0.00334552 -0.113953 -4.53765e-20)
(-0.000661649 -0.165701 3.45648e-20)
(-0.0083623 -0.202263 4.34487e-20)
(-0.0190497 -0.226206 -2.78867e-20)
(-0.0318985 -0.240482 -5.19266e-20)
(-0.0460986 -0.248031 3.29061e-20)
(-0.0609772 -0.251423 -9.54816e-20)
(-0.076039 -0.252605 -4.61734e-20)
(-0.0909779 -0.252793 -3.73674e-20)
(-0.105652 -0.252497 -5.35498e-20)
(-0.120045 -0.251639 9.64455e-21)
(-0.134231 -0.249714 3.87296e-20)
(-0.148185 -0.24592 1.81368e-19)
(-0.161901 -0.239079 -7.082e-20)
(0.00319174 -0.0438759 4.92772e-21)
(0.00511679 -0.110442 9.05901e-20)
(0.00109759 -0.160424 3.55278e-20)
(-0.00709978 -0.195629 -6.30358e-20)
(-0.018573 -0.218629 1.50159e-20)
(-0.0323473 -0.232344 5.88869e-20)
(-0.0475107 -0.239649 5.40888e-20)
(-0.0633373 -0.243034 3.62915e-20)
(-0.079317 -0.244361 -6.80272e-20)
(-0.0951586 -0.244771 1.91039e-19)
(-0.110757 -0.244718 -8.21266e-20)
(-0.126148 -0.244095 1.15458e-19)
(-0.141474 -0.242394 -4.01061e-20)
(-0.156734 -0.238834 -1.51041e-19)
(-0.171939 -0.232247 5.7867e-20)
(0.00398809 -0.0422972 1.26964e-19)
(0.00669188 -0.106377 -4.95391e-20)
(0.00262472 -0.154461 -3.67047e-21)
(-0.00604969 -0.188285 3.52124e-20)
(-0.018242 -0.210381 2.24586e-20)
(-0.0328357 -0.223604 2.99267e-20)
(-0.0488229 -0.230741 -1.17558e-19)
(-0.0654261 -0.234181 -1.01431e-20)
(-0.0821184 -0.235695 7.55995e-21)
(-0.0986181 -0.236344 -1.8662e-19)
(-0.114848 -0.236525 1.67146e-19)
(-0.13089 -0.2361 -1.16491e-19)
(-0.146949 -0.234562 -5.37436e-20)
(-0.163037 -0.231154 -2.92927e-20)
(-0.179165 -0.224735 -7.14077e-20)
(0.00468208 -0.0404776 -7.52882e-20)
(0.00804234 -0.101801 -3.104e-20)
(0.00389069 -0.147871 -9.74629e-20)
(-0.0052365 -0.180299 -1.73679e-20)
(-0.0180751 -0.201537 -6.81173e-20)
(-0.033377 -0.214341 -5.56895e-20)
(-0.0500451 -0.221385 -6.89671e-20)
(-0.0672524 -0.224949 4.1592e-20)
(-0.084452 -0.226701 4.93095e-20)
(-0.101365 -0.227618 1.85297e-20)
(-0.117934 -0.228038 3.29625e-20)
(-0.134276 -0.227791 5.66146e-20)
(-0.150652 -0.226368 -9.56134e-20)
(-0.16708 -0.223042 -6.1262e-20)
(-0.183547 -0.216711 2.08147e-19)
(0.00526018 -0.0384371 -4.59828e-20)
(0.00914321 -0.0967607 -4.69962e-20)
(0.00487031 -0.140717 2.11683e-19)
(-0.00468122 -0.171743 1.11688e-19)
(-0.0180882 -0.192172 3.26187e-21)
(-0.0339834 -0.204629 3.78139e-20)
(-0.0511879 -0.21166 1.01481e-19)
(-0.0688272 -0.21542 -6.64441e-20)
(-0.086332 -0.217467 4.82508e-20)
(-0.103419 -0.218694 6.21984e-20)
(-0.120039 -0.219377 -1.97515e-19)
(-0.136333 -0.219307 -3.64633e-20)
(-0.152613 -0.217973 -1.65478e-19)
(-0.168894 -0.214671 1.05752e-19)
(-0.185118 -0.208357 -1.27259e-19)
(0.00571074 -0.0361978 5.94704e-20)
(0.00997353 -0.0913067 -4.59936e-20)
(0.00554297 -0.133067 -1.62402e-19)
(-0.00440052 -0.162692 -1.80046e-19)
(-0.0182936 -0.18236 -2.16382e-19)
(-0.034664 -0.194545 5.58364e-20)
(-0.0522599 -0.201641 7.17353e-20)
(-0.0701619 -0.20567 1.46091e-19)
(-0.087775 -0.20808 -7.06034e-20)
(-0.104804 -0.209673 -6.1785e-20)
(-0.121198 -0.210659 1.17456e-19)
(-0.137109 -0.210789 -1.19065e-19)
(-0.15289 -0.20954 1.18351e-19)
(-0.168553 -0.206224 -1.77707e-19)
(-0.183968 -0.199863 1.14523e-19)
(0.00602429 -0.0337841 -9.87427e-21)
(0.0105168 -0.0854935 4.76473e-20)
(0.0058933 -0.124989 2.39349e-19)
(-0.00440581 -0.153219 2.28487e-19)
(-0.0186985 -0.172178 9.49701e-20)
(-0.0354237 -0.18416 -2.92401e-20)
(-0.0532659 -0.191398 -1.17926e-19)
(-0.0712643 -0.195773 5.32168e-20)
(-0.0887957 -0.198617 2.66641e-20)
(-0.105545 -0.200644 -7.74702e-20)
(-0.12145 -0.201995 -2.42786e-19)
(-0.136661 -0.202371 -7.3751e-20)
(-0.151561 -0.201228 2.04289e-19)
(-0.166157 -0.197882 3.30174e-20)
(-0.180229 -0.191421 -2.34635e-19)
(0.00619371 -0.031222 -8.98351e-20)
(0.0107616 -0.0793778 -2.46976e-19)
(0.00591187 -0.116555 -2.74922e-19)
(-0.0047023 -0.143401 -1.68785e-19)
(-0.0193042 -0.161698 1.19095e-19)
(-0.0362608 -0.173544 2.01584e-20)
(-0.0542041 -0.180996 4.4763e-20)
(-0.0721357 -0.185791 -4.29765e-20)
(-0.0894023 -0.189147 4.00638e-19)
(-0.105663 -0.191687 1.32565e-19)
(-0.120832 -0.193481 2.20891e-19)
(-0.135045 -0.194174 3.02209e-19)
(-0.148708 -0.193185 -2.1501e-19)
(-0.161824 -0.189818 3.34803e-19)
(-0.174056 -0.183212 4.79704e-20)
(0.00621442 -0.0285386 8.99241e-20)
(0.0107015 -0.0730187 1.42151e-19)
(0.00559573 -0.107837 1.20605e-19)
(-0.00528815 -0.133312 -1.40816e-19)
(-0.020104 -0.150991 1.14618e-19)
(-0.0371657 -0.16276 1.9044e-20)
(-0.0550636 -0.170493 -3.27676e-19)
(-0.0727667 -0.175781 2.91309e-19)
(-0.0895912 -0.179725 -2.38186e-19)
(-0.105164 -0.182864 -6.77813e-20)
(-0.119367 -0.185197 -2.80035e-21)
(-0.132309 -0.186302 1.75211e-19)
(-0.144404 -0.185543 2.24833e-19)
(-0.155661 -0.182188 -1.94515e-19)
(-0.165598 -0.175404 4.36361e-20)
(0.00608452 -0.0257627 -1.60118e-19)
(0.0103359 -0.0664768 4.8588e-20)
(0.00494896 -0.0989085 -1.09433e-19)
(-0.00615369 -0.123028 -8.58468e-21)
(-0.0210831 -0.140128 1.35724e-19)
(-0.0381186 -0.15187 -1.69043e-19)
(-0.0558217 -0.159942 2.26427e-19)
(-0.0731341 -0.165787 -2.75889e-19)
(-0.0893417 -0.170395 -3.49814e-19)
(-0.104036 -0.174222 1.02233e-19)
(-0.117056 -0.177198 2.08881e-19)
(-0.128471 -0.17883 -2.50864e-19)
(-0.138695 -0.178407 2.04978e-19)
(-0.147751 -0.175123 -3.52821e-19)
(-0.154972 -0.168134 2.45995e-19)
(0.00580493 -0.0229235 4.22008e-19)
(0.00967028 -0.0598137 -2.75408e-19)
(0.00398305 -0.0898444 1.28489e-19)
(-0.00728089 -0.112623 1.87874e-19)
(-0.0222168 -0.129175 -2.20038e-19)
(-0.039089 -0.140932 3.23737e-19)
(-0.0564421 -0.149389 -4.53559e-20)
(-0.0731971 -0.155844 -4.04396e-19)
(-0.0886111 -0.161183 1.17986e-19)
(-0.102236 -0.165785 5.75443e-20)
(-0.113865 -0.169515 -2.8911e-19)
(-0.123512 -0.171803 2.37626e-19)
(-0.131581 -0.171845 -7.57202e-19)
(-0.138121 -0.168722 6.07227e-19)
(-0.142222 -0.161503 -2.08943e-19)
(0.00537953 -0.0200513 -2.98824e-19)
(0.00871586 -0.0530923 4.7631e-20)
(0.00271716 -0.080719 -2.44032e-19)
(-0.00864296 -0.10217 -2.11489e-19)
(-0.0234705 -0.118199 -2.23813e-19)
(-0.0400338 -0.129998 -3.61006e-19)
(-0.056873 -0.138875 4.4831e-19)
(-0.0728949 -0.145981 5.43174e-19)
(-0.0873303 -0.152105 3.86333e-20)
(-0.0996913 -0.157558 -2.64382e-19)
(-0.109717 -0.162148 1.89378e-20)
(-0.117359 -0.165231 2.17685e-19)
(-0.122998 -0.165885 -9.0429e-20)
(-0.126725 -0.163037 -2.7898e-20)
(-0.127295 -0.15557 3.08649e-19)
(0.00481514 -0.0171765 1.84496e-19)
(0.00749022 -0.0463756 2.37896e-19)
(0.00117813 -0.0716069 7.3931e-20)
(-0.0102043 -0.0917443 2.84248e-19)
(-0.0247993 -0.107264 1.22195e-19)
(-0.0408975 -0.119123 2.37602e-19)
(-0.0570464 -0.128435 -2.85991e-20)
(-0.0721453 -0.136215 -2.41297e-19)
(-0.0854014 -0.14316 1.1441e-19)
(-0.0962871 -0.149523 4.03469e-19)
(-0.104485 -0.155068 1.41223e-19)
(-0.109875 -0.159079 -1.75477e-19)
(-0.112801 -0.160506 3.23976e-19)
(-0.113425 -0.158073 -2.08721e-19)
(-0.110012 -0.15034 2.24362e-20)
(0.00412161 -0.0143298 -3.21911e-20)
(0.00601695 -0.0397267 -9.15424e-20)
(-0.000599678 -0.0625826 2.26462e-19)
(-0.0119206 -0.0814186 1.38064e-19)
(-0.0261485 -0.0964361 2.80215e-19)
(-0.0416124 -0.108355 -1.53052e-19)
(-0.0568783 -0.118104 -3.38982e-19)
(-0.0708442 -0.126562 -1.54897e-19)
(-0.0826969 -0.134341 -2.16377e-19)
(-0.0918699 -0.141649 -4.83277e-19)
(-0.0979899 -0.148218 -2.6433e-19)
(-0.100854 -0.153275 -7.13929e-20)
(-0.100758 -0.155635 -3.07104e-19)
(-0.09798 -0.153778 -2.84105e-21)
(-0.0900551 -0.145767 1.52217e-19)
(0.00331169 -0.0115417 -1.31868e-19)
(0.0043255 -0.0332083 -8.1602e-20)
(-0.00257481 -0.0537205 1.13783e-20)
(-0.0137399 -0.0712664 -5.87935e-19)
(-0.0274539 -0.0857796 -5.55121e-19)
(-0.0420994 -0.0977484 -2.16827e-19)
(-0.0562701 -0.107917 4.15412e-19)
(-0.0688677 -0.117035 -1.98798e-19)
(-0.0790613 -0.125635 1.90907e-19)
(-0.0862471 -0.13389 2.56256e-19)
(-0.0899967 -0.141519 9.08687e-20)
(-0.0900203 -0.147708 -1.6279e-19)
(-0.0865495 -0.151143 1.80389e-19)
(-0.0800499 -0.150043 1.43458e-19)
(-0.0669709 -0.14175 -1.98176e-19)
(0.00240089 -0.00884189 -3.38804e-20)
(0.00245073 -0.0268819 1.08235e-19)
(-0.00469942 -0.0450939 -3.16798e-19)
(-0.015603 -0.0613614 7.32156e-19)
(-0.0286438 -0.0753607 5.21914e-19)
(-0.0422701 -0.0873552 8.63874e-20)
(-0.0551108 -0.09791 -2.60618e-19)
(-0.0660748 -0.107648 1.04326e-19)
(-0.0743155 -0.117029 1.32212e-19)
(-0.079193 -0.126199 -3.21963e-19)
(-0.0802266 -0.134878 3.79496e-19)
(-0.0770377 -0.142238 1.45645e-19)
(-0.0697748 -0.146856 -2.3407e-19)
(-0.0592101 -0.146707 1.57636e-19)
(-0.0401929 -0.138145 5.85478e-20)
(0.00140721 -0.00625905 5.39828e-20)
(0.000432312 -0.020807 2.76116e-19)
(-0.00692014 -0.0367752 -1.31841e-20)
(-0.017445 -0.0517772 -4.23358e-19)
(-0.0296401 -0.0652471 -3.05019e-19)
(-0.0420289 -0.077233 3.17438e-19)
(-0.0532806 -0.0881259 4.40671e-19)
(-0.0623132 -0.0984252 -6.48675e-20)
(-0.0682644 -0.108519 -1.90534e-19)
(-0.0704589 -0.118532 4.79358e-19)
(-0.0683678 -0.128201 -3.82122e-19)
(-0.0615261 -0.136709 1.96028e-19)
(-0.0499785 -0.142556 2.49411e-19)
(-0.0349886 -0.143555 -7.40197e-19)
(-0.00910357 -0.134724 9.18992e-20)
(0.000350779 -0.00382007 1.51737e-19)
(-0.00168604 -0.0150405 -1.23073e-19)
(-0.00917926 -0.0288344 -5.12328e-22)
(-0.0191968 -0.042587 9.35102e-20)
(-0.0303606 -0.0555086 1.20444e-19)
(-0.0412761 -0.0674429 -3.5024e-19)
(-0.0506552 -0.0786134 -1.68026e-19)
(-0.0574247 -0.0893973 -3.40037e-19)
(-0.0607054 -0.100111 -3.28147e-19)
(-0.0597863 -0.11086 2.81462e-19)
(-0.054094 -0.121405 -3.10095e-19)
(-0.043085 -0.130967 -3.61944e-20)
(-0.0266751 -0.138007 8.82435e-20)
(-0.00689242 -0.140323 -3.20513e-20)
(0.0267738 -0.130996 2.81678e-19)
(-0.000746689 -0.00154948 -4.78988e-20)
(-0.00385757 -0.00963527 -3.26397e-19)
(-0.0114159 -0.0213387 -2.76485e-19)
(-0.0207864 -0.0338629 -5.78668e-20)
(-0.0307213 -0.046216 5.25745e-20)
(-0.0399108 -0.0580509 -9.91544e-21)
(-0.0471101 -0.0694296 -6.34394e-20)
(-0.0512528 -0.0806085 -4.8635e-20)
(-0.05144 -0.0918304 1.72523e-19)
(-0.046923 -0.103176 -1.26947e-19)
(-0.0370883 -0.114437 3.63457e-19)
(-0.0213258 -0.124889 -3.8367e-19)
(0.00062424 -0.133 -2.73949e-19)
(0.0257138 -0.136772 1.87884e-19)
(0.0674885 -0.126102 -2.13668e-19)
(-0.00186233 0.000531011 -1.236e-19)
(-0.00603355 -0.00463953 4.04868e-20)
(-0.0135676 -0.0143513 2.35061e-19)
(-0.022141 -0.0256753 -1.21919e-19)
(-0.0306379 -0.0374414 1.95319e-19)
(-0.0378337 -0.0491267 -6.39434e-20)
(-0.0425251 -0.0606396 -3.29926e-19)
(-0.043649 -0.0721162 4.30415e-19)
(-0.0402831 -0.083721 1.88898e-19)
(-0.0316397 -0.0955035 -5.266e-19)
(-0.017069 -0.10728 5.23979e-20)
(0.00408059 -0.118398 -1.11197e-20)
(0.0322961 -0.127382 5.55909e-19)
(0.0637703 -0.132782 1.09248e-19)
(0.113465 -0.12029 2.89817e-19)
(-0.00297285 0.00240345 5.42438e-21)
(-0.00816429 -9.52769e-05 2.79791e-19)
(-0.0155711 -0.00792995 -1.33927e-19)
(-0.023188 -0.0180911 1.85499e-19)
(-0.0300282 -0.0292563 3.5029e-19)
(-0.0349497 -0.0407434 4.46854e-19)
(-0.0367878 -0.0523153 1.34151e-19)
(-0.0344782 -0.0639895 -2.92529e-20)
(-0.027072 -0.0758464 5.36089e-19)
(-0.0137419 -0.0878936 5.93291e-19)
(0.00619116 -0.0999599 5.30642e-20)
(0.0333791 -0.111465 5.48557e-19)
(0.0684146 -0.121035 -1.27249e-21)
(0.107339 -0.12795 -4.41874e-19)
(0.166058 -0.113872 -2.83927e-19)
(-0.00405546 0.00405411 1.49923e-19)
(-0.0102006 0.00396253 3.05789e-19)
(-0.0173641 -0.00212578 5.11741e-20)
(-0.0238562 -0.0111726 3.56291e-19)
(-0.0288128 -0.02173 -4.26799e-19)
(-0.0311693 -0.0329742 -5.55913e-20)
(-0.0297953 -0.0445327 -9.0808e-20)
(-0.0236216 -0.0563057 6.48197e-19)
(-0.0116706 -0.0682846 -8.79561e-19)
(0.00692226 -0.0804225 -5.9089e-19)
(0.0328573 -0.0925402 2.2195e-19)
(0.0667697 -0.104113 -2.71584e-19)
(0.109196 -0.113897 -7.27665e-20)
(0.155983 -0.121895 2.08654e-19)
(0.224898 -0.106477 7.01296e-19)
(-0.00508823 0.00547362 1.42463e-19)
(-0.0120947 0.00750696 -5.58092e-19)
(-0.0188859 0.00301815 1.21748e-19)
(-0.0240767 -0.00497548 -5.49018e-19)
(-0.0269154 -0.0149273 2.75621e-19)
(-0.0264084 -0.0258906 -1.83582e-19)
(-0.0214548 -0.0373679 -1.99847e-19)
(-0.0109773 -0.0491457 -4.79749e-19)
(0.0060291 -0.0611213 1.69983e-19)
(0.0304603 -0.073182 2.41575e-19)
(0.0630193 -0.08512 -1.2408e-20)
(0.104299 -0.0964441 2.23761e-19)
(0.154732 -0.106047 -1.14749e-19)
(0.209735 -0.114755 -3.53731e-20)
(0.289098 -0.0976299 -4.33588e-20)
(-0.00605089 0.00665746 -6.2605e-19)
(-0.0138012 0.0105199 2.51782e-20)
(-0.0200785 0.00746825 -5.13646e-20)
(-0.0237832 0.000453297 9.08395e-20)
(-0.0242633 -0.00890578 -4.13174e-19)
(-0.0205881 -0.0195579 5.01195e-19)
(-0.0116819 -0.0308927 -1.47542e-20)
(0.00354244 -0.0425866 -6.13523e-19)
(0.0261114 -0.0544401 -5.62559e-19)
(0.0569406 -0.066266 -4.75514e-19)
(0.0967082 -0.077806 -2.12247e-19)
(0.145922 -0.088569 -1.33976e-19)
(0.204816 -0.0975489 -4.32549e-19)
(0.26848 -0.106639 -2.82853e-19)
(0.357664 -0.0872132 3.15799e-19)
(-0.00692536 0.00760595 3.57707e-19)
(-0.0152778 0.0129924 2.85699e-19)
(-0.0208863 0.0112014 3.37365e-19)
(-0.0229114 0.00507711 -1.00626e-19)
(-0.0207856 -0.00371309 1.81908e-19)
(-0.0136324 -0.0140323 -2.51955e-19)
(-0.000397411 -0.0251685 1.28323e-19)
(0.0200141 -0.036693 7.93835e-19)
(0.0486448 -0.0483147 2.99374e-19)
(0.0864028 -0.0597549 6.32987e-19)
(0.133908 -0.070694 2.36146e-19)
(0.191535 -0.0805999 -4.15121e-20)
(0.259127 -0.0885427 3.81167e-19)
(0.331891 -0.0975398 -3.93191e-19)
(0.42932 -0.0753095 -4.21258e-19)
(-0.00769616 0.00832405 -3.15169e-19)
(-0.0164861 0.014925 -5.09525e-19)
(-0.0212566 0.0142061 1.06717e-19)
(-0.0213986 0.0088716 -2.0269e-19)
(-0.0164119 0.000615781 2.41022e-19)
(-0.005465 -0.00935586 -5.042e-19)
(0.0124781 -0.0202417 1.45963e-19)
(0.0385127 -0.0315161 -2.25615e-19)
(0.0736861 -0.0427941 -2.14152e-19)
(0.11887 -0.053701 -2.85949e-19)
(0.174572 -0.0638484 -4.79915e-19)
(0.240979 -0.0726171 4.68807e-20)
(0.31727 -0.0791971 3.96431e-19)
(0.399485 -0.0873511 3.07456e-19)
(0.502411 -0.0620446 2.03875e-19)
(-0.00835057 0.00882097 2.30962e-19)
(-0.017391 0.0163272 -3.66304e-20)
(-0.0211392 0.0164826 1.70037e-19)
(-0.019182 0.0118262 5.44991e-19)
(-0.0110699 0.00406123 -5.91197e-19)
(0.00399356 -0.00555404 5.2819e-19)
(0.0270267 -0.01614 -4.96194e-19)
(0.0591183 -0.0270811 8.01623e-20)
(0.101294 -0.0378958 2.13109e-19)
(0.154355 -0.0481213 1.98488e-20)
(0.218633 -0.0572897 3.21724e-19)
(0.294057 -0.0646533 3.29534e-19)
(0.378828 -0.0696635 -2.21633e-19)
(0.470618 -0.0757738 -5.05626e-19)
(0.574834 -0.0474266 6.89377e-19)
(-0.00887866 0.00910956 -1.42965e-19)
(-0.0179614 0.0172173 3.66958e-19)
(-0.0204852 0.0180435 -2.2497e-19)
(-0.016198 0.0139456 -1.53125e-19)
(-0.0046828 0.0066213 3.1303e-19)
(0.0148296 -0.00263135 -6.34326e-20)
(0.0433395 -0.0128653 1.94111e-19)
(0.0819154 -0.0233807 1.14616e-18)
(0.131531 -0.0336057 1.4827e-19)
(0.192871 -0.0429902 7.53952e-20)
(0.266007 -0.0509916 -1.37144e-19)
(0.350536 -0.0567063 -1.95952e-19)
(0.443455 -0.0600553 -1.5461e-19)
(0.544628 -0.0623468 2.13074e-19)
(0.644537 -0.0320134 -1.04749e-18)
(-0.00927301 0.00920558 4.49733e-19)
(-0.018169 0.0176211 3.86973e-19)
(-0.0192466 0.0189133 1.27645e-19)
(-0.0123797 0.01525 -2.96507e-20)
(0.00283246 0.00831353 1.9147e-19)
(0.0271395 -0.000568781 -1.46738e-19)
(0.0615191 -0.0103913 -9.00174e-20)
(0.107001 -0.0203765 -1.40247e-19)
(0.164467 -0.0298687 -6.35295e-19)
(0.234415 -0.0382375 1.5122e-19)
(0.316571 -0.0448838 5.81874e-20)
(0.410093 -0.0487585 6.29733e-20)
(0.510816 -0.0504154 4.61283e-19)
(0.620923 -0.0470509 -2.82284e-20)
(0.711928 -0.0194347 1.86501e-19)
(-0.00952834 0.0091268 -7.118e-19)
(-0.0179877 0.0175708 -2.75799e-19)
(-0.0173746 0.019128 -7.1576e-20)
(-0.00765602 0.0157756 -6.11909e-21)
(0.0115676 0.00917611 -3.323e-19)
(0.0410313 0.000678065 1.51238e-19)
(0.0816816 -0.00866143 1.45616e-20)
(0.134481 -0.0179939 4.43771e-19)
(0.200168 -0.0265883 -1.6507e-19)
(0.278966 -0.0337475 -1.50447e-19)
(0.370138 -0.0388494 -1.90815e-20)
(0.472249 -0.0407588 -1.2648e-20)
(0.580203 -0.0406839 -4.27829e-19)
(0.697812 -0.0314028 1.01799e-19)
(0.782579 -0.0156863 -2.67659e-19)
(-0.00964072 0.00889209 5.19555e-19)
(-0.0173924 0.017104 1.58181e-19)
(-0.0148186 0.0187336 -3.22557e-19)
(-0.00195003 0.0155745 1.50404e-19)
(0.0216239 0.00926821 -5.89959e-19)
(0.0566252 0.00117987 1.16094e-19)
(0.103955 -0.00758782 2.03031e-19)
(0.16447 -0.0161222 -4.6219e-19)
(0.238693 -0.0236282 6.17937e-19)
(0.326464 -0.0293629 3.53898e-19)
(0.426446 -0.0327221 2.32001e-19)
(0.536409 -0.0325776 6.5062e-20)
(0.650463 -0.0307417 -4.70694e-21)
(0.771211 -0.0185182 -1.0858e-19)
(0.860285 -0.0144095 4.66529e-19)
(-0.00960685 0.00852051 -5.84952e-19)
(-0.0163581 0.0162616 -5.21292e-19)
(-0.0115251 0.0177853 4.81317e-20)
(0.00482173 0.0147135 1.51859e-19)
(0.0331124 0.00866961 5.50479e-19)
(0.0740523 0.00103334 -1.81574e-19)
(0.128474 -0.00705167 -7.07941e-19)
(0.197076 -0.0146167 -5.49183e-19)
(0.280075 -0.0208177 -3.42252e-19)
(0.376796 -0.0248944 -6.33372e-19)
(0.485145 -0.0263068 2.44411e-19)
(0.601907 -0.0240428 1.35204e-19)
(0.720475 -0.0203551 1.19723e-19)
(0.84135 -0.00676634 2.67226e-19)
(0.932123 -0.00594839 1.32955e-19)
(-0.00942326 0.00803059 3.90098e-19)
(-0.0148579 0.0150868 3.50925e-19)
(-0.00743625 0.016346 1.43676e-19)
(0.0127495 0.013273 -4.20884e-19)
(0.0461524 0.00747928 -2.74839e-19)
(0.0934506 0.000359543 2.00936e-19)
(0.155373 -0.00690621 2.7236e-19)
(0.232394 -0.0133037 5.3421e-19)
(0.324307 -0.0179609 1.59636e-19)
(0.429772 -0.0201373 9.19313e-20)
(0.545783 -0.0194084 -5.41421e-19)
(0.668004 -0.014984 -3.9216e-19)
(0.789174 -0.00937804 5.98898e-20)
(0.907806 0.00489075 -1.22129e-19)
(0.996803 0.0052888 2.90244e-19)
(-0.00908546 0.00743966 1.15522e-19)
(-0.0128626 0.013624 -2.55905e-19)
(-0.00249003 0.0144841 -2.51656e-19)
(0.0219293 0.0113445 5.01088e-20)
(0.0608687 0.00581322 2.25679e-19)
(0.114959 -0.000698978 4.05233e-19)
(0.184779 -0.00698113 -2.3854e-19)
(0.270484 -0.0119879 2.40488e-19)
(0.371317 -0.0148481 9.9563e-20)
(0.485107 -0.0148887 -5.1093e-19)
(0.607798 -0.0118579 1.01376e-19)
(0.733887 -0.00527891 5.35318e-20)
(0.855574 0.00219789 -1.50314e-19)
(0.969866 0.0167515 -2.53464e-19)
(1.05483 0.0177023 -5.37925e-19)
(-0.00858711 0.00676341 7.16626e-20)
(-0.0103395 0.011917 -9.77085e-20)
(0.00338043 0.0122724 2.49577e-19)
(0.032462 0.00902923 -2.22059e-19)
(0.0773878 0.00380167 3.98806e-20)
(0.138711 -0.00198229 -1.05618e-19)
(0.216791 -0.0070886 -1.34891e-19)
(0.311358 -0.0104617 7.9224e-20)
(0.420952 -0.0112695 3.00682e-20)
(0.542407 -0.00896517 4.7347e-19)
(0.670522 -0.00353078 1.97998e-19)
(0.798687 0.00512921 2.1962e-19)
(0.918773 0.0143023 5.74586e-19)
(1.02692 0.0288603 -1.68036e-19)
(1.106 0.0306081 2.98007e-19)
(-0.00791945 0.00601568 -2.17192e-19)
(-0.00725186 0.0100093 4.67265e-19)
(0.010246 0.00978644 1.32801e-19)
(0.0444502 0.00643551 5.90989e-19)
(0.095832 0.00158565 1.38443e-19)
(0.16482 -0.00331801 -5.0236e-19)
(0.251473 -0.0070307 2.18237e-19)
(0.354962 -0.00851545 4.86027e-19)
(0.472959 -0.00702878 -4.41066e-19)
(0.601165 -0.0022173 -1.103e-19)
(0.733202 0.00564248 -9.84831e-21)
(0.861529 0.0162292 -2.43355e-19)
(0.977986 0.0268175 -3.26551e-19)
(1.07851 0.0411338 3.09169e-19)
(1.15038 0.0435571 1.11844e-19)
(-0.00707091 0.00520852 -7.36736e-20)
(-0.00355849 0.00794266 -2.60584e-19)
(0.0181806 0.00710332 3.69233e-19)
(0.0579951 0.00367635 -2.60799e-19)
(0.116313 -0.000686627 6.42338e-20)
(0.193378 -0.00452683 -5.34076e-21)
(0.288838 -0.00660735 3.05496e-19)
(0.401158 -0.00594849 -3.87592e-19)
(0.526981 -0.00195564 1.03115e-18)
(0.660773 0.00545886 2.14351e-19)
(0.795037 0.0156734 -1.97715e-19)
(0.921584 0.0279505 1.7333e-20)
(1.03259 0.0395982 -5.21012e-20)
(1.12439 0.0534335 6.6952e-20)
(1.18819 0.0562527 -4.22504e-19)
(-0.00602689 0.00435242 4.6981e-20)
(0.00078561 0.00575778 -3.04665e-19)
(0.0272595 0.00430068 -2.86521e-19)
(0.073193 0.00086751 -1.75663e-19)
(0.138927 -0.00286344 -3.07173e-19)
(0.224436 -0.00542818 -1.53133e-19)
(0.328836 -0.00562444 -4.42727e-19)
(0.44972 -0.00257936 1.53741e-19)
(0.582558 0.00408341 -7.26241e-19)
(0.720544 0.0141158 -1.41698e-19)
(0.855223 0.0265192 -5.214e-19)
(0.978127 0.0401786 3.70734e-19)
(1.08216 0.05249 2.90686e-19)
(1.16452 0.0656126 1.6932e-21)
(1.21985 0.0685061 6.71827e-19)
(-0.00476997 0.00345674 3.72751e-20)
(0.00582869 0.0034943 3.05914e-19)
(0.0375571 0.0014562 4.50889e-19)
(0.0901307 -0.00187431 5.93986e-20)
(0.163743 -0.00479294 -2.2232e-19)
(0.258003 -0.00584567 1.97102e-19)
(0.371344 -0.00390143 2.08278e-20)
(0.500329 0.00174541 -2.10984e-19)
(0.639142 0.0111783 -1.7585e-19)
(0.779752 0.0237541 -1.74328e-19)
(0.913004 0.0380928 4.37413e-19)
(1.03057 0.0527735 2.82492e-19)
(1.12645 0.0653459 -3.33238e-19)
(1.19903 0.0775425 2.44136e-19)
(1.24587 0.0802092 2.47552e-20)
(-0.00328013 0.00253028 9.58532e-20)
(0.0116211 0.00119144 -6.66937e-19)
(0.0491446 -0.00135252 -4.69059e-19)
(0.108881 -0.00443289 -2.69088e-20)
(0.190803 -0.00632618 1.03322e-19)
(0.294032 -0.00561203 2.61274e-19)
(0.416164 -0.00127793 -9.1323e-20)
(0.55258 0.00714462 1.73707e-19)
(0.69612 0.0193722 4.24897e-19)
(0.837667 0.0343271 1.50643e-19)
(0.967716 0.0502753 1.57453e-19)
(1.07851 0.0655873 -6.9038e-20)
(1.16542 0.078038 -1.7613e-19)
(1.22822 0.0891254 -5.64245e-19)
(1.26687 0.0913156 -2.87045e-20)
(-0.00153541 0.00158189 -3.55535e-19)
(0.0182138 -0.00111119 7.27875e-19)
(0.0620872 -0.00404786 -1.35742e-19)
(0.1295 -0.00669342 -4.32019e-20)
(0.220111 -0.00731962 -1.48721e-19)
(0.33242 -0.00457325 -2.84614e-19)
(0.463025 0.00238115 1.97424e-19)
(0.605993 0.0136986 -3.59094e-19)
(0.752841 0.0286632 -1.42774e-19)
(0.893602 0.0457499 -1.02339e-19)
(1.01882 0.0629305 -3.21836e-19)
(1.1217 0.0784789 6.92679e-20)
(1.19919 0.0904644 2.2037e-19)
(1.25249 0.100298 3.18494e-20)
(1.28346 0.101824 -4.42102e-19)
(0.000487433 0.000621157 9.32735e-20)
(0.0256565 -0.00337266 4.74361e-20)
(0.0764414 -0.00655176 8.93942e-19)
(0.15202 -0.00854321 3.95006e-19)
(0.251632 -0.00763717 1.72729e-19)
(0.373006 -0.00259198 2.95303e-20)
(0.511582 0.00718191 -5.1996e-19)
(0.660034 0.0214479 5.86133e-19)
(0.808656 0.0390086 3.21365e-20)
(0.946944 0.0579105 1.32096e-19)
(1.06591 0.075918 -1.20528e-19)
(1.16006 0.0913242 -3.64989e-19)
(1.22801 0.102552 -5.33519e-19)
(1.27231 0.111029 6.93409e-19)
(1.29627 0.111764 9.41958e-20)
(0.00281212 -0.000341079 -5.9742e-21)
(0.0339961 -0.00554989 -3.47521e-19)
(0.0922521 -0.00878526 -3.35191e-19)
(0.17645 -0.00987205 -2.79869e-19)
(0.28529 -0.00715176 1.90756e-19)
(0.41557 0.000449912 -1.17507e-19)
(0.561433 0.0131995 3.78115e-19)
(0.714138 0.0303954 -2.95512e-19)
(0.862941 0.0503327 1.04206e-19)
(0.997183 0.0706816 -2.18414e-19)
(1.10874 0.0891041 4.71125e-20)
(1.19366 0.104022 -1.52945e-19)
(1.25222 0.114257 1.45453e-19)
(1.28818 0.121316 -3.97886e-19)
(1.30589 0.121188 -1.40907e-19)
(0.005462 -0.00129217 -4.95125e-19)
(0.0432747 -0.00759686 4.41216e-19)
(0.10955 -0.0106681 -5.48581e-20)
(0.202771 -0.0105726 1.98223e-19)
(0.320963 -0.00574681 -3.13743e-19)
(0.459839 0.0046495 2.78915e-19)
(0.612132 0.0204779 -3.19511e-19)
(0.767735 0.0405094 -1.88682e-19)
(0.915135 0.0625358 5.78071e-20)
(1.04393 0.0839313 -1.68774e-19)
(1.1472 0.102369 -2.43101e-19)
(1.22269 0.116497 6.72231e-19)
(1.27224 0.12556 -8.19989e-20)
(1.3006 0.131175 4.25607e-19)
(1.31284 0.130158 -9.69095e-20)
(0.00845919 -0.00221733 9.29768e-20)
(0.0535274 -0.00946403 -7.22052e-20)
(0.12835 -0.0121183 -4.3786e-19)
(0.230934 -0.010541 -6.33094e-20)
(0.358489 -0.0033174 5.41884e-19)
(0.505492 0.0100816 -3.7963e-19)
(0.663202 0.0290306 5.59509e-19)
(0.82027 0.05173 -2.84379e-19)
(0.964753 0.0755034 3.49984e-19)
(1.0869 0.0975319 2.66338e-19)
(1.1813 0.115614 -1.71448e-19)
(1.2474 0.128697 -2.59302e-19)
(1.28848 0.136462 2.88466e-19)
(1.31005 0.140641 -3.13453e-19)
(1.31759 0.138739 -1.64327e-19)
(0.0118238 -0.00309941 3.38833e-19)
(0.0647814 -0.0110981 -5.51044e-20)
(0.148649 -0.0130527 2.37051e-19)
(0.260861 -0.00967713 -2.8891e-19)
(0.397665 0.000228481 -6.62541e-19)
(0.55217 0.0167982 9.78749e-20)
(0.714155 0.0388433 -1.53427e-19)
(0.871231 0.0639751 5.12485e-19)
(1.0114 0.0891143 -1.67086e-19)
(1.12596 0.111366 5.76269e-21)
(1.21116 0.128757 2.28446e-19)
(1.26813 0.140594 1.85692e-19)
(1.30139 0.146982 -4.39019e-19)
(1.31698 0.149755 2.5706e-19)
(1.32053 0.146998 2.95827e-19)
(0.0155734 -0.00391884 -1.4665e-19)
(0.0770534 -0.0124421 -7.2599e-20)
(0.170423 -0.0133865 -2.23423e-19)
(0.292441 -0.00788624 1.48877e-19)
(0.438248 0.00496869 3.03932e-19)
(0.599488 0.0248286 -3.05991e-20)
(0.76451 0.0498772 2.8252e-19)
(0.920161 0.0771471 -2.90847e-19)
(1.0548 0.103248 3.09009e-19)
(1.16105 0.125332 -3.26699e-19)
(1.23696 0.141742 3.58066e-19)
(1.28524 0.152179 -3.35658e-19)
(1.31139 0.157149 -1.1336e-19)
(1.32178 0.158566 1.19966e-19)
(1.32199 0.154996 3.91807e-20)
(0.0197218 -0.00465367 1.11019e-19)
(0.0903491 -0.0134356 -1.2892e-20)
(0.193627 -0.013035 -2.90436e-19)
(0.325534 -0.00507976 2.21092e-19)
(0.479968 0.0109658 8.9735e-20)
(0.647045 0.0341798 8.77305e-20)
(0.813809 0.0620728 -9.13968e-20)
(0.966674 0.0911396 -6.39552e-20)
(1.09473 0.117791 -5.35256e-19)
(1.19221 0.139342 3.27389e-19)
(1.25896 0.154528 -2.09593e-19)
(1.29909 0.163456 -4.34152e-20)
(1.31887 0.167001 6.88888e-19)
(1.3248 0.16712 -5.30782e-19)
(1.32226 0.162788 -3.64679e-19)
(0.0242795 -0.00527981 -1.96353e-20)
(0.104662 -0.0140154 1.66498e-19)
(0.218195 -0.0119142 2.7638e-19)
(0.359971 -0.001177 -3.61684e-20)
(0.522526 0.0182661 -2.03655e-19)
(0.694433 0.044838 2.09724e-19)
(0.861628 0.0753546 -2.1431e-19)
(1.01046 0.105843 -1.20145e-19)
(1.1311 0.132638 3.53247e-19)
(1.21956 0.153329 2.45763e-19)
(1.27743 0.167093 4.23465e-20)
(1.31004 0.174443 1.75555e-19)
(1.32419 0.176578 -3.58862e-19)
(1.32634 0.175464 2.30682e-19)
(1.32155 0.170422 4.11988e-19)
(0.029252 -0.00577132 -6.74006e-20)
(0.119971 -0.0141166 -4.57297e-19)
(0.244039 -0.00994228 -2.89396e-19)
(0.395557 0.00389313 -2.90406e-19)
(0.565605 0.0268988 -1.95314e-19)
(0.741256 0.0567705 1.01026e-19)
(0.907592 0.0896353 3.731e-19)
(1.05127 0.121147 -1.24341e-19)
(1.16388 0.147696 2.13792e-19)
(1.24328 0.16724 -3.63218e-20)
(1.29268 0.179427 5.56161e-20)
(1.31843 0.185162 -9.77645e-20)
(1.32766 0.18592 3.72507e-20)
(1.32663 0.183641 -5.44551e-20)
(1.32002 0.177937 -1.49048e-19)
(0.0346405 -0.00610077 1.08285e-19)
(0.136244 -0.0136735 4.82517e-19)
(0.271049 -0.00704159 -9.93444e-20)
(0.432074 0.0101905 2.33861e-19)
(0.608876 0.0368759 4.6387e-20)
(0.787133 0.0699278 3.4552e-20)
(0.951376 0.10482 -1.79256e-19)
(1.08896 0.13695 2.07681e-19)
(1.1931 0.162887 -3.07829e-19)
(1.26355 0.181036 -1.63865e-19)
(1.30501 0.191533 -5.54419e-20)
(1.32459 0.195644 -3.92897e-20)
(1.32956 0.195067 -1.44945e-19)
(1.32588 0.191687 -2.00621e-20)
(1.31782 0.185365 7.09306e-20)
(0.0404408 -0.00623973 -3.4136e-20)
(0.153431 -0.0126209 2.12306e-20)
(0.299096 -0.00314008 2.74354e-19)
(0.469284 0.0177624 2.65354e-19)
(0.652007 0.0481922 1.10489e-19)
(0.831711 0.0842462 -1.93004e-19)
(0.992715 0.120809 6.26935e-20)
(1.12341 0.153153 1.64252e-19)
(1.21886 0.178144 -2.44854e-20)
(1.28063 0.194693 3.08541e-20)
(1.31471 0.20342 6.36106e-20)
(1.32879 0.205918 1.78358e-20)
(1.33011 0.204055 -1.42121e-19)
(1.32426 0.199633 -5.43344e-21)
(1.31504 0.19273 1.58634e-19)
(0.0466435 -0.00615922 2.22225e-20)
(0.171471 -0.0108955 -9.19927e-20)
(0.32803 0.0018268 -1.56269e-19)
(0.506934 0.026642 -3.13647e-19)
(0.694671 0.0608256 -3.36019e-20)
(0.874668 0.0996506 1.51135e-19)
(1.0314 0.137504 -7.80571e-20)
(1.15461 0.169667 -2.02505e-19)
(1.24128 0.193411 -1.87069e-19)
(1.29475 0.208193 8.74239e-20)
(1.32206 0.215101 -4.8089e-20)
(1.33129 0.216012 -2.2734e-19)
(1.32952 0.212916 2.20401e-19)