/*--------------------------------*- C++ -*----------------------------------*\
  =========                 |
  \\      /  F ield         | OpenFOAM: The Open Source CFD Toolbox
   \\    /   O peration     | Website:  https://openfoam.org
    \\  /    A nd           | Version:  7
     \\/     M anipulation  |
\*---------------------------------------------------------------------------*/
FoamFile
{
    version     2.0;
    format      ascii;
    class       volScalarField;
    location    "120";
    object      p;
}
// * * * * * * * * * * * * * * * * * * * * * * * * * * * * * * * * * * * * * //

dimensions      [0 2 -2 0 0 0 0];

internalField   nonuniform List<scalar> 
4575
(
-0.618883
-0.609649
-0.602708
-0.62622
-0.616646
-0.609481
-0.601725
-0.59309
-0.633491
-0.623591
-0.616206
-0.608148
-0.59907
-0.588654
-0.576473
-0.562277
-0.640658
-0.630449
-0.622845
-0.614473
-0.60492
-0.593832
-0.580782
-0.56556
-0.548215
-0.529051
-0.508548
-0.487259
-0.647682
-0.63718
-0.62936
-0.620659
-0.610598
-0.598793
-0.584824
-0.568532
-0.55005
-0.529764
-0.508226
-0.486035
-0.463729
-0.441736
-0.420348
-0.65452
-0.643745
-0.63571
-0.626664
-0.616061
-0.603493
-0.588558
-0.571161
-0.55152
-0.530113
-0.507559
-0.484492
-0.461461
-0.438882
-0.417027
-0.396047
-0.376006
-0.356898
-0.33871
-0.66113
-0.650102
-0.641853
-0.632445
-0.621264
-0.607889
-0.591945
-0.57341
-0.552599
-0.530079
-0.506531
-0.482619
-0.458896
-0.435763
-0.413469
-0.392144
-0.371833
-0.352512
-0.334172
-0.316822
-0.667465
-0.656206
-0.647743
-0.637954
-0.626163
-0.611936
-0.594943
-0.575246
-0.553261
-0.529641
-0.505125
-0.480403
-0.456023
-0.432369
-0.409666
-0.388021
-0.36746
-0.347946
-0.329469
-0.311971
-0.67348
-0.662012
-0.653336
-0.643147
-0.63071
-0.615591
-0.597516
-0.576639
-0.553481
-0.52878
-0.503329
-0.477832
-0.452832
-0.42869
-0.405607
-0.383668
-0.36288
-0.343192
-0.324595
-0.306963
-0.679128
-0.667475
-0.658583
-0.647976
-0.634858
-0.618811
-0.599624
-0.577556
-0.553233
-0.527478
-0.501126
-0.474894
-0.449312
-0.424716
-0.401283
-0.379075
-0.358082
-0.338242
-0.31954
-0.301791
-0.684359
-0.672546
-0.663439
-0.652392
-0.638562
-0.621553
-0.601231
-0.577967
-0.552496
-0.525717
-0.498504
-0.471578
-0.445452
-0.420437
-0.396685
-0.374235
-0.353059
-0.333087
-0.314299
-0.29645
-0.689127
-0.677179
-0.667854
-0.656348
-0.641776
-0.623774
-0.602302
-0.577846
-0.551249
-0.523481
-0.495449
-0.467873
-0.441243
-0.415845
-0.391803
-0.369137
-0.347802
-0.327719
-0.308863
-0.290932
-0.693384
-0.681325
-0.671781
-0.659797
-0.644455
-0.625436
-0.602803
-0.577166
-0.549471
-0.520755
-0.49195
-0.463767
-0.436675
-0.410929
-0.386628
-0.363774
-0.342304
-0.322133
-0.303226
-0.285233
-0.697081
-0.684937
-0.675171
-0.662691
-0.646553
-0.626499
-0.602703
-0.575902
-0.547143
-0.517525
-0.487994
-0.459251
-0.431738
-0.40568
-0.381153
-0.358137
-0.336557
-0.31632
-0.297382
-0.279346
-0.70017
-0.687968
-0.677978
-0.664984
-0.648029
-0.626927
-0.601973
-0.574031
-0.54425
-0.513777
-0.483572
-0.454316
-0.426423
-0.400091
-0.375369
-0.35222
-0.330555
-0.310275
-0.291326
-0.273266
-0.702606
-0.690371
-0.680155
-0.666633
-0.648843
-0.626685
-0.600584
-0.571534
-0.540774
-0.5095
-0.478672
-0.448952
-0.420723
-0.394153
-0.369269
-0.346015
-0.32429
-0.303991
-0.285052
-0.26699
-0.704345
-0.692102
-0.681659
-0.667593
-0.648956
-0.625741
-0.598512
-0.56839
-0.536703
-0.504682
-0.473286
-0.443151
-0.414629
-0.38786
-0.362846
-0.339517
-0.317758
-0.297463
-0.278555
-0.260512
-0.705342
-0.693118
-0.682444
-0.667825
-0.648332
-0.624066
-0.595734
-0.564584
-0.532024
-0.499314
-0.467405
-0.436906
-0.408135
-0.381204
-0.356094
-0.332718
-0.310952
-0.290686
-0.271831
-0.253829
-0.705558
-0.693376
-0.682472
-0.667289
-0.646937
-0.621633
-0.59223
-0.560101
-0.526726
-0.493388
-0.461023
-0.43021
-0.401235
-0.37418
-0.349007
-0.325615
-0.303869
-0.283656
-0.264877
-0.246937
-0.704952
-0.692838
-0.681702
-0.665951
-0.64474
-0.618416
-0.587981
-0.554927
-0.5208
-0.486896
-0.454133
-0.423058
-0.393922
-0.366783
-0.341581
-0.318202
-0.296503
-0.276368
-0.257689
-0.239837
-0.703488
-0.691466
-0.6801
-0.663777
-0.641715
-0.614396
-0.582973
-0.549053
-0.514239
-0.479833
-0.446731
-0.415444
-0.386193
-0.359008
-0.333812
-0.310477
-0.288851
-0.268817
-0.250266
-0.232525
-0.701132
-0.689225
-0.67763
-0.660737
-0.637836
-0.609553
-0.577193
-0.54247
-0.507036
-0.472193
-0.438811
-0.407366
-0.378045
-0.350853
-0.325696
-0.302436
-0.280909
-0.260999
-0.242598
-0.224977
-0.697854
-0.686085
-0.674264
-0.656804
-0.633082
-0.603873
-0.570631
-0.535172
-0.499187
-0.463975
-0.430373
-0.398821
-0.369475
-0.342316
-0.317233
-0.294078
-0.272677
-0.252915
-0.234678
-0.217135
-0.693625
-0.682016
-0.669974
-0.651954
-0.627434
-0.597342
-0.563279
-0.527154
-0.49069
-0.455175
-0.421413
-0.389807
-0.360481
-0.333394
-0.308422
-0.285403
-0.264156
-0.244573
-0.226517
-0.208946
-0.688422
-0.676994
-0.664735
-0.646168
-0.620878
-0.589951
-0.555132
-0.518413
-0.481545
-0.445794
-0.411932
-0.380324
-0.351064
-0.324089
-0.299261
-0.27641
-0.255347
-0.235979
-0.218145
-0.200531
-0.682222
-0.670996
-0.658529
-0.63943
-0.613402
-0.581694
-0.546187
-0.508951
-0.471751
-0.435834
-0.401931
-0.370373
-0.341224
-0.314401
-0.289753
-0.267101
-0.246253
-0.227117
-0.209473
-0.192108
-0.675009
-0.664004
-0.651338
-0.631725
-0.604999
-0.572567
-0.536445
-0.498768
-0.461311
-0.425295
-0.391413
-0.359956
-0.330963
-0.304331
-0.279898
-0.257478
-0.236875
-0.218005
-0.200555
-0.18352
-0.666768
-0.656005
-0.643149
-0.623045
-0.595664
-0.56257
-0.525907
-0.487869
-0.450231
-0.414184
-0.38038
-0.349077
-0.320285
-0.293882
-0.269701
-0.247546
-0.227217
-0.208633
-0.191421
-0.174717
-0.657489
-0.646985
-0.633953
-0.613385
-0.585394
-0.551706
-0.514579
-0.476258
-0.438515
-0.402504
-0.368838
-0.337739
-0.30919
-0.283058
-0.259167
-0.237306
-0.217281
-0.199008
-0.18207
-0.165693
-0.647166
-0.636939
-0.623745
-0.602742
-0.574193
-0.539978
-0.502468
-0.463945
-0.426171
-0.390263
-0.356793
-0.325947
-0.297685
-0.271871
-0.248297
-0.226762
-0.20707
-0.189134
-0.1725
-0.156452
-0.635796
-0.625863
-0.612522
-0.591117
-0.562064
-0.527396
-0.489582
-0.450939
-0.413208
-0.377469
-0.344252
-0.313708
-0.285785
-0.260316
-0.237098
-0.215922
-0.19659
-0.179018
-0.16271
-0.147002
-0.623379
-0.613757
-0.600288
-0.578516
-0.549018
-0.51397
-0.475934
-0.43725
-0.399638
-0.364133
-0.331224
-0.301036
-0.273488
-0.248404
-0.225577
-0.20479
-0.185845
-0.168663
-0.152704
-0.60992
-0.600624
-0.587046
-0.564948
-0.535064
-0.499713
-0.461538
-0.422894
-0.385472
-0.350265
-0.317721
-0.287935
-0.260805
-0.236145
-0.213741
-0.193373
-0.174844
-0.158076
-0.595428
-0.586474
-0.572808
-0.550423
-0.520218
-0.484641
-0.446409
-0.407884
-0.370724
-0.335878
-0.303754
-0.274416
-0.247746
-0.223547
-0.2016
-0.181681
-0.579915
-0.571316
-0.557585
-0.534958
-0.504496
-0.468772
-0.430566
-0.392239
-0.35541
-0.320986
-0.289334
-0.260491
-0.234322
-0.21062
-0.189163
-0.563396
-0.555166
-0.541394
-0.518571
-0.487919
-0.452127
-0.41403
-0.375977
-0.339546
-0.305605
-0.274477
-0.246173
-0.220545
-0.197376
-0.545891
-0.538042
-0.524255
-0.501282
-0.470508
-0.434728
-0.396822
-0.359114
-0.323153
-0.289751
-0.259196
-0.231477
-0.206428
-0.527422
-0.519966
-0.506189
-0.483116
-0.452289
-0.416606
-0.378961
-0.341674
-0.306249
-0.273441
-0.24351
-0.216417
-0.508014
-0.500962
-0.487223
-0.4641
-0.433294
-0.397787
-0.360466
-0.323684
-0.288854
-0.256696
-0.227434
-0.487696
-0.481057
-0.467385
-0.444267
-0.413559
-0.378267
-0.341386
-0.305165
-0.270991
-0.239536
-0.466497
-0.460284
-0.446707
-0.423654
-0.393117
-0.358086
-0.321733
-0.286145
-0.252685
-0.44445
-0.438677
-0.425225
-0.402292
-0.371929
-0.337343
-0.301542
-0.266649
-0.42159
-0.416273
-0.402979
-0.380199
-0.350103
-0.316016
-0.280845
-0.397953
-0.393115
-0.380009
-0.357394
-0.327691
-0.294144
-0.373578
-0.36924
-0.356321
-0.333978
-0.304706
-0.3485
-0.344703
-0.331979
-0.309976
-0.28119
-0.322754
-0.319556
-0.30705
-0.285423
-0.296413
-0.293843
-0.281578
-0.26963
-0.267525
-0.255602
-0.242361
-0.240715
-0.214643
-0.186537
-0.0839983
-0.109756
-0.13515
-0.133943
-0.160123
-0.158456
-0.148584
-0.184647
-0.182502
-0.172314
-0.208752
-0.205983
-0.195568
-0.17747
-0.232281
-0.228941
-0.218312
-0.199871
-0.175682
-0.255181
-0.251328
-0.240496
-0.221754
-0.197134
-0.169376
-0.277424
-0.273085
-0.262049
-0.2431
-0.218077
-0.189803
-0.298974
-0.294171
-0.282952
-0.263855
-0.23847
-0.209751
-0.180014
-0.319795
-0.314546
-0.303168
-0.283897
-0.258347
-0.229189
-0.198899
-0.169349
-0.339855
-0.334175
-0.322666
-0.303285
-0.277578
-0.248083
-0.217302
-0.187151
-0.158795
-0.359122
-0.353022
-0.341411
-0.321976
-0.296141
-0.266407
-0.235191
-0.204504
-0.175522
-0.14887
-0.377567
-0.371056
-0.35937
-0.339931
-0.314029
-0.2841
-0.25256
-0.221383
-0.19183
-0.164559
-0.139792
-0.395163
-0.388252
-0.376514
-0.357116
-0.331217
-0.301162
-0.269356
-0.237761
-0.207696
-0.179855
-0.154493
-0.131599
-0.411884
-0.404585
-0.392819
-0.373508
-0.347673
-0.317567
-0.285556
-0.253619
-0.223099
-0.194741
-0.168828
-0.145374
-0.12425
-0.42771
-0.420035
-0.408264
-0.389082
-0.363373
-0.333288
-0.301144
-0.268931
-0.238021
-0.209198
-0.18278
-0.158807
-0.137161
-0.117664
-0.44262
-0.434585
-0.42283
-0.403818
-0.378294
-0.348301
-0.316101
-0.28368
-0.252443
-0.223209
-0.196335
-0.171884
-0.149754
-0.129775
-0.111756
-0.456601
-0.448219
-0.436502
-0.417699
-0.392418
-0.362589
-0.330407
-0.297848
-0.266348
-0.236761
-0.209479
-0.184591
-0.162015
-0.141588
-0.123125
-0.106433
-0.469641
-0.460928
-0.449268
-0.43071
-0.405729
-0.376132
-0.344042
-0.31142
-0.279721
-0.249838
-0.222197
-0.196918
-0.173933
-0.153091
-0.134215
-0.117113
-0.101615
-0.0876499
-0.481732
-0.472703
-0.461119
-0.442842
-0.418213
-0.388916
-0.356993
-0.32438
-0.292549
-0.262428
-0.234482
-0.208851
-0.185498
-0.164277
-0.145018
-0.127534
-0.111655
-0.09731
-0.0840541
-0.492869
-0.483543
-0.47205
-0.454085
-0.42986
-0.40093
-0.369247
-0.336714
-0.304819
-0.274521
-0.24632
-0.220387
-0.196699
-0.175135
-0.155525
-0.137688
-0.121453
-0.106751
-0.0931717
-0.0800727
-0.503053
-0.493446
-0.482059
-0.464437
-0.440664
-0.412163
-0.380791
-0.348413
-0.316521
-0.286105
-0.257702
-0.231513
-0.207535
-0.185656
-0.16573
-0.147566
-0.131003
-0.115966
-0.102086
-0.0886617
-0.512284
-0.502416
-0.49115
-0.473895
-0.450618
-0.422609
-0.391619
-0.359467
-0.327646
-0.297174
-0.268621
-0.242221
-0.217994
-0.195842
-0.175623
-0.157165
-0.140297
-0.12495
-0.110795
-0.0970485
-0.520572
-0.510461
-0.499327
-0.482463
-0.459724
-0.432263
-0.401723
-0.369869
-0.338187
-0.30772
-0.279071
-0.252506
-0.22807
-0.205681
-0.185204
-0.166478
-0.149333
-0.133697
-0.1193
-0.105228
-0.527924
-0.517591
-0.506601
-0.490148
-0.467982
-0.441124
-0.4111
-0.379613
-0.348139
-0.317737
-0.289047
-0.262364
-0.237759
-0.215169
-0.194467
-0.175502
-0.158107
-0.142201
-0.127602
-0.113207
-0.534356
-0.523822
-0.512983
-0.496958
-0.475399
-0.449193
-0.419748
-0.388697
-0.357496
-0.327223
-0.298545
-0.271792
-0.247059
-0.224302
-0.203408
-0.184233
-0.166617
-0.150475
-0.13566
-0.121035
-0.539883
-0.52917
-0.518491
-0.502907
-0.481983
-0.456475
-0.427668
-0.397119
-0.366258
-0.336174
-0.307563
-0.280786
-0.255967
-0.23308
-0.212025
-0.192668
-0.174856
-0.158496
-0.143461
-0.128853
-0.544527
-0.533657
-0.523144
-0.508011
-0.487746
-0.462976
-0.434864
-0.40488
-0.374424
-0.34459
-0.316099
-0.289347
-0.264481
-0.2415
-0.220316
-0.200805
-0.182823
-0.166273
-0.151047
-0.136419
-0.548312
-0.537307
-0.526966
-0.512291
-0.492703
-0.468708
-0.441341
-0.411983
-0.381995
-0.35247
-0.324155
-0.297473
-0.272603
-0.249563
-0.228281
-0.208644
-0.190516
-0.173801
-0.158396
-0.143656
-0.551263
-0.540147
-0.529982
-0.515769
-0.496873
-0.473684
-0.447107
-0.418434
-0.388975
-0.359818
-0.331731
-0.305167
-0.280332
-0.257268
-0.235919
-0.216184
-0.197934
-0.181075
-0.165504
-0.150621
-0.55341
-0.542208
-0.532222
-0.518473
-0.500278
-0.477918
-0.452175
-0.424239
-0.395367
-0.366636
-0.33883
-0.312431
-0.287672
-0.264619
-0.243233
-0.223425
-0.205077
-0.188094
-0.172379
-0.157366
-0.554786
-0.543522
-0.533718
-0.52043
-0.502941
-0.481432
-0.456557
-0.429407
-0.401178
-0.372929
-0.345457
-0.319267
-0.294624
-0.271616
-0.250225
-0.230371
-0.211947
-0.194861
-0.179025
-0.163903
-0.555425
-0.544125
-0.534505
-0.521673
-0.504891
-0.484245
-0.46027
-0.433951
-0.406417
-0.378704
-0.351615
-0.325681
-0.301193
-0.278265
-0.256897
-0.237024
-0.218548
-0.201379
-0.185443
-0.170233
-0.555364
-0.544053
-0.534618
-0.522237
-0.506157
-0.486382
-0.463332
-0.437882
-0.411093
-0.383968
-0.357312
-0.331678
-0.307385
-0.28457
-0.263254
-0.243387
-0.224881
-0.207652
-0.191634
-0.176354
-0.554642
-0.543346
-0.534096
-0.522157
-0.506772
-0.48787
-0.465763
-0.441218
-0.415218
-0.388729
-0.362555
-0.337265
-0.313204
-0.290536
-0.269301
-0.249465
-0.230953
-0.213682
-0.197601
-0.18227
-0.553299
-0.542044
-0.532981
-0.521473
-0.506771
-0.48874
-0.467587
-0.443975
-0.418804
-0.392998
-0.367352
-0.342448
-0.318657
-0.296168
-0.275043
-0.255263
-0.236765
-0.219474
-0.203348
-0.187982
-0.551377
-0.540189
-0.531313
-0.520225
-0.50619
-0.489021
-0.46883
-0.446173
-0.421867
-0.396787
-0.371712
-0.347237
-0.323753
-0.301475
-0.280486
-0.260786
-0.242325
-0.225032
-0.208877
-0.193494
-0.548918
-0.537823
-0.529135
-0.518454
-0.505069
-0.488748
-0.469518
-0.447833
-0.424423
-0.400108
-0.375647
-0.35164
-0.328499
-0.306463
-0.285637
-0.266041
-0.247636
-0.23036
-0.214193
-0.198808
-0.545967
-0.53499
-0.526491
-0.516203
-0.503446
-0.487955
-0.469681
-0.448979
-0.42649
-0.402975
-0.379167
-0.355666
-0.332903
-0.31114
-0.290504
-0.271033
-0.252705
-0.235464
-0.219299
-0.203928
-0.542567
-0.531733
-0.523423
-0.513515
-0.501363
-0.486681
-0.46935
-0.449635
-0.428087
-0.405403
-0.382284
-0.359327
-0.336976
-0.315515
-0.295094
-0.275771
-0.257537
-0.240349
-0.2242
-0.208858
-0.538763
-0.528096
-0.519978
-0.510435
-0.498863
-0.484963
-0.468558
-0.449828
-0.429235
-0.407408
-0.385012
-0.362633
-0.340727
-0.319597
-0.299416
-0.280261
-0.262141
-0.245021
-0.228902
-0.2136
-0.534599
-0.524121
-0.516196
-0.507005
-0.495988
-0.482841
-0.46734
-0.449586
-0.429956
-0.409008
-0.387364
-0.365596
-0.344166
-0.323395
-0.303478
-0.284512
-0.266522
-0.249486
-0.233409
-0.21816
-0.530117
-0.519853
-0.512123
-0.503268
-0.49278
-0.480354
-0.465731
-0.448939
-0.430273
-0.410221
-0.389355
-0.368229
-0.347304
-0.326919
-0.30729
-0.288532
-0.270689
-0.253751
-0.237727
-0.222543
-0.52536
-0.515331
-0.507798
-0.499267
-0.489281
-0.477543
-0.463766
-0.447917
-0.430213
-0.411067
-0.391001
-0.370543
-0.350152
-0.330179
-0.31086
-0.292329
-0.274648
-0.257822
-0.241862
-0.226752
-0.520371
-0.510595
-0.503263
-0.495044
-0.485532
-0.474448
-0.461483
-0.446552
-0.429799
-0.411566
-0.392318
-0.372552
-0.352722
-0.333186
-0.314198
-0.295912
-0.278409
-0.261707
-0.245821
-0.230793
-0.515189
-0.505686
-0.498557
-0.490638
-0.481575
-0.471108
-0.458918
-0.444876
-0.42906
-0.411739
-0.393322
-0.37427
-0.355025
-0.335949
-0.317313
-0.29929
-0.281978
-0.265413
-0.249609
-0.509852
-0.500639
-0.493717
-0.486088
-0.477449
-0.467563
-0.45611
-0.442923
-0.428022
-0.411609
-0.394031
-0.375711
-0.357072
-0.33848
-0.320216
-0.504398
-0.495491
-0.488778
-0.48143
-0.473191
-0.463851
-0.453094
-0.440726
-0.426715
-0.411198
-0.394463
-0.498862
-0.490273
-0.483774
-0.476699
-0.468838
-0.460008
-0.449906
-0.438319
-0.493277
-0.485018
-0.478736
-0.471926
-0.464422
-0.487673
-0.479754
-0.473693
-0.26997
-0.27527
-0.280429
-0.285452
-0.290344
-0.295113
-0.247794
-0.252772
-0.257645
-0.262417
-0.267093
-0.271677
-0.227844
-0.232499
-0.237075
-0.241576
-0.246007
-0.25037
-0.209943
-0.214276
-0.21855
-0.22277
-0.226938
-0.231057
-0.1937
-0.197724
-0.201704
-0.205644
-0.209545
-0.21341
-0.17894
-0.182662
-0.186352
-0.190012
-0.193645
-0.197252
-0.165423
-0.16886
-0.172274
-0.175665
-0.179036
-0.182389
-0.153029
-0.156195
-0.159342
-0.162474
-0.16559
-0.168695
-0.141605
-0.144515
-0.147412
-0.150297
-0.153172
-0.156038
-0.131055
-0.133725
-0.136386
-0.139038
-0.141683
-0.144322
-0.12128
-0.123727
-0.126167
-0.128601
-0.13103
-0.133454
-0.112205
-0.114444
-0.116678
-0.118908
-0.121134
-0.123358
-0.10376
-0.105808
-0.107851
-0.109892
-0.11193
-0.113966
-0.0958942
-0.0977639
-0.0996307
-0.101495
-0.103358
-0.10522
-0.088548
-0.0902547
-0.0919591
-0.093662
-0.0953637
-0.0970648
-0.0816878
-0.0832442
-0.0847989
-0.0863524
-0.0879051
-0.0894575
-0.0752726
-0.0766909
-0.078108
-0.0795241
-0.0809397
-0.0823551
-0.069268
-0.0705599
-0.0718509
-0.0731411
-0.0744309
-0.0757207
-0.0636448
-0.0648213
-0.0659969
-0.0671719
-0.0683465
-0.0695211
-0.070696
-0.0583768
-0.0594478
-0.0605179
-0.0615875
-0.0626568
-0.063726
-0.0647955
-0.0534407
-0.0544153
-0.0553891
-0.0563625
-0.0573356
-0.0583085
-0.0592816
-0.0488148
-0.0497015
-0.0505875
-0.0514731
-0.0523583
-0.0532434
-0.0541286
-0.044479
-0.0452857
-0.0460918
-0.0468973
-0.0477026
-0.0485076
-0.0493126
-0.0404159
-0.0411498
-0.041883
-0.0426157
-0.0433481
-0.0440803
-0.0448123
-0.0366088
-0.0372764
-0.0379434
-0.0386099
-0.039276
-0.0399418
-0.0406074
-0.0330424
-0.0336498
-0.0342566
-0.0348629
-0.0354688
-0.0360743
-0.0366795
-0.0297028
-0.0302555
-0.0308076
-0.0313592
-0.0319103
-0.032461
-0.0330113
-0.0265772
-0.0270801
-0.0275825
-0.0280843
-0.0285857
-0.0290866
-0.0295871
-0.023653
-0.0241108
-0.024568
-0.0250246
-0.0254808
-0.0259364
-0.0263916
-0.0209187
-0.0213355
-0.0217517
-0.0221674
-0.0225824
-0.022997
-0.0234111
-0.0183638
-0.0187434
-0.0191223
-0.0195007
-0.0198785
-0.0202558
-0.0206326
-0.015978
-0.0163238
-0.0166689
-0.0170134
-0.0173574
-0.0177008
-0.0180437
-0.0137519
-0.0140669
-0.0143813
-0.0146952
-0.0150084
-0.0153211
-0.0156332
-0.0116765
-0.0119636
-0.0122501
-0.012536
-0.0128213
-0.0131061
-0.0133903
-0.00974329
-0.0100051
-0.0102662
-0.0105268
-0.0107867
-0.0110461
-0.0113049
-0.0079443
-0.00818302
-0.00842114
-0.00865865
-0.00889556
-0.00913189
-0.00936763
-0.00627195
-0.00648972
-0.0067069
-0.00692347
-0.00713944
-0.00735483
-0.00756963
-0.00471909
-0.00491782
-0.00511595
-0.00531349
-0.00551043
-0.00570679
-0.00590255
-0.00327884
-0.00346026
-0.00364108
-0.00382132
-0.00400098
-0.00418004
-0.00435851
-0.00194524
-0.00211087
-0.00227593
-0.0024404
-0.00260429
-0.0027676
-0.00293033
-0.000711465
-0.000862775
-0.00101352
-0.00116369
-0.00131328
-0.0014623
-0.00161075
0.00042769
0.000289421
0.000151711
1.45617e-05
-0.000122024
-0.000258044
-0.000393496
0.0014778
0.00135139
0.00122553
0.00110022
0.000975465
0.000851263
0.000727619
0.00244391
0.0023283
0.00221321
0.00209866
0.00198466
0.0018712
0.00175828
0.00333084
0.00322503
0.00311973
0.00301496
0.00291072
0.00280701
0.00270384
0.00414307
0.00404616
0.00394975
0.00385385
0.00375847
0.00366361
0.00356928
0.00488479
0.00479595
0.0047076
0.00461975
0.0045324
0.00444556
0.00435923
0.00555989
0.00547836
0.0053973
0.00531673
0.00523664
0.00515705
0.00507796
0.00617198
0.00609704
0.00602256
0.00594856
0.00587503
0.00580198
0.00572942
0.00672431
0.00665531
0.00658676
0.00651866
0.00645103
0.00638386
0.00631716
0.00721989
0.0071562
0.00709295
0.00703015
0.00696779
0.00690589
0.00684444
0.0076613
0.00760234
0.00754381
0.00748571
0.00742805
0.00737083
0.00731406
0.00805088
0.0079961
0.00794174
0.0078878
0.00783428
0.00778119
0.00772854
0.00839042
0.00833929
0.00828857
0.00823826
0.00818836
0.00813888
0.00808982
0.00868156
0.00863358
0.00858599
0.0085388
0.00849201
0.00844563
0.00839966
0.00892507
0.00887974
0.00883479
0.00879022
0.00874605
0.00870228
0.00865891
0.00912183
0.00907864
0.00903584
0.00899341
0.00895136
0.00890971
0.00886845
0.00927115
0.00922964
0.0091885
0.00914773
0.00910735
0.00906734
0.00902772
0.00937304
0.00933268
0.00929268
0.00925305
0.00921379
0.00917491
0.00913641
0.00942483
0.00938518
0.0093459
0.00930698
0.00926842
0.00923023
0.00919242
-0.137306
-0.145873
-0.154269
-0.162491
-0.170541
-0.178415
-0.186104
-0.193568
-0.20094
-0.208188
-0.215187
-0.221954
-0.228533
-0.234942
-0.241185
-0.247261
-0.253174
-0.258926
-0.264524
-0.129111
-0.136611
-0.143971
-0.15119
-0.158267
-0.165199
-0.171977
-0.178591
-0.184993
-0.191342
-0.197615
-0.203728
-0.20968
-0.215494
-0.221182
-0.226746
-0.232187
-0.237506
-0.242707
-0.120601
-0.127245
-0.133771
-0.140179
-0.146467
-0.152634
-0.158679
-0.164599
-0.17039
-0.176027
-0.181736
-0.187326
-0.192754
-0.198055
-0.203254
-0.208357
-0.213366
-0.218281
-0.223106
-0.113209
-0.119099
-0.124893
-0.130591
-0.136196
-0.141708
-0.147128
-0.152458
-0.157696
-0.162834
-0.167787
-0.172778
-0.177714
-0.182549
-0.187294
-0.191962
-0.19656
-0.201088
-0.205548
-0.106086
-0.111331
-0.116498
-0.121587
-0.126599
-0.131535
-0.136395
-0.141181
-0.14589
-0.150524
-0.155078
-0.159586
-0.164069
-0.168486
-0.172831
-0.177111
-0.181336
-0.185509
-0.189629
-0.099556
-0.104241
-0.108862
-0.113419
-0.117914
-0.122348
-0.126721
-0.131035
-0.135291
-0.139488
-0.143626
-0.147688
-0.151769
-0.155801
-0.159768
-0.163683
-0.167555
-0.171388
-0.175182
-0.0934029
-0.0975984
-0.101742
-0.105833
-0.109875
-0.113868
-0.117813
-0.121712
-0.125566
-0.129376
-0.133142
-0.136861
-0.140522
-0.144177
-0.147806
-0.151395
-0.154947
-0.158468
-0.161959
-0.0876444
-0.0914104
-0.0951336
-0.0988149
-0.102455
-0.106056
-0.109618
-0.113142
-0.11663
-0.120081
-0.123497
-0.126877
-0.130215
-0.133559
-0.136876
-0.140158
-0.14341
-0.146638
-0.149844
-0.0822166
-0.0856032
-0.0889548
-0.0922724
-0.095557
-0.0988096
-0.102031
-0.105223
-0.108385
-0.11152
-0.114627
-0.117708
-0.12076
-0.123787
-0.126804
-0.129803
-0.132781
-0.13574
-0.13868
-0.0770921
-0.0801424
-0.0831641
-0.0861581
-0.0891252
-0.0920663
-0.0949823
-0.0978742
-0.100743
-0.103589
-0.106414
-0.109218
-0.112002
-0.114757
-0.117511
-0.120252
-0.122974
-0.12568
-0.128373
-0.0722378
-0.0749887
-0.0777161
-0.0804207
-0.0831033
-0.0857646
-0.0884051
-0.0910255
-0.0936264
-0.0962081
-0.0987709
-0.101315
-0.103839
-0.106345
-0.108888
-0.1114
-0.113887
-0.11636
-0.118824
-0.0676302
-0.0701142
-0.0725792
-0.0750257
-0.0774545
-0.0798663
-0.0822619
-0.0846421
-0.0870078
-0.0893601
-0.0917
-0.094029
-0.0963478
-0.0986557
-0.100908
-0.103174
-0.105444
-0.107707
-0.10996
-0.0632455
-0.0654903
-0.0677193
-0.0699332
-0.0721326
-0.0743178
-0.0764897
-0.0786486
-0.0807952
-0.0829299
-0.0850533
-0.0871656
-0.0892671
-0.0913578
-0.0934359
-0.0955133
-0.0975857
-0.0996504
-0.101708
-0.0590658
-0.0610958
-0.0631128
-0.0651174
-0.0671099
-0.0690908
-0.0710607
-0.0730199
-0.0749689
-0.0769083
-0.0788384
-0.0807597
-0.0826724
-0.0845772
-0.0864738
-0.0883723
-0.0902624
-0.0921445
-0.0940212
-0.0550767
-0.0569137
-0.05874
-0.060556
-0.0623621
-0.0641587
-0.0659463
-0.0677252
-0.0694958
-0.0712587
-0.0730142
-0.0747627
-0.0765047
-0.0782404
-0.0799698
-0.0816896
-0.0834083
-0.0851251
-0.0868384
-0.0512654
-0.0529286
-0.0545829
-0.0562287
-0.0578663
-0.0594961
-0.0611184
-0.0627336
-0.0643419
-0.0659438
-0.0675396
-0.0691296
-0.0707143
-0.0722938
-0.0738684
-0.075436
-0.0770026
-0.0785674
-0.0801291
-0.0476218
-0.0491283
-0.0506274
-0.0521196
-0.0536049
-0.0550838
-0.0565565
-0.0580232
-0.0594844
-0.0609401
-0.0623909
-0.0638368
-0.0652783
-0.0667156
-0.068149
-0.069578
-0.0710053
-0.0724302
-0.0738525
-0.0441371
-0.0455023
-0.0468614
-0.0482146
-0.0495623
-0.0509045
-0.0522415
-0.0535736
-0.0549011
-0.056224
-0.0575428
-0.0588576
-0.0601687
-0.0614763
-0.0627806
-0.0640819
-0.0653822
-0.0666798
-0.0679748
-0.0408044
-0.042042
-0.0432746
-0.0445023
-0.0457252
-0.0469437
-0.0481579
-0.0493679
-0.050574
-0.0517764
-0.0529753
-0.0541708
-0.0553631
-0.0565525
-0.0577392
-0.0589233
-0.060107
-0.0612882
-0.0624673
-0.0376177
-0.0387401
-0.0398583
-0.0409724
-0.0420826
-0.0431891
-0.044292
-0.0453914
-0.0464876
-0.0475806
-0.0486707
-0.0497582
-0.050843
-0.0519255
-0.0530058
-0.054084
-0.0551576
-0.0562313
-0.0573046
-0.0345714
-0.0355897
-0.0366045
-0.0376159
-0.0386239
-0.0396288
-0.0406307
-0.0416297
-0.0426258
-0.0436193
-0.0446103
-0.045599
-0.0465854
-0.0475697
-0.048552
-0.0495325
-0.0505109
-0.0514885
-0.0524651
-0.0316613
-0.0325855
-0.0335067
-0.0344251
-0.0353407
-0.0362536
-0.037164
-0.0380718
-0.0389773
-0.0398805
-0.0407816
-0.0416807
-0.0425778
-0.0434731
-0.0443668
-0.0452588
-0.0461493
-0.0470388
-0.0479273
-0.0288833
-0.0297224
-0.030559
-0.0313932
-0.0322251
-0.0330546
-0.033882
-0.0347073
-0.0355305
-0.0363517
-0.0371712
-0.0379888
-0.0388048
-0.0396192
-0.0404321
-0.0412437
-0.042054
-0.0428633
-0.0436716
-0.0262337
-0.0269959
-0.027756
-0.028514
-0.02927
-0.0300241
-0.0307763
-0.0315266
-0.0322752
-0.0330221
-0.0337674
-0.0345112
-0.0352534
-0.0359943
-0.0367339
-0.0374723
-0.0382096
-0.038946
-0.0396814
-0.0237092
-0.0244018
-0.0250926
-0.0257817
-0.026469
-0.0271547
-0.0278387
-0.0285212
-0.0292021
-0.0298815
-0.0305595
-0.0312361
-0.0319115
-0.0325856
-0.0332585
-0.0339303
-0.034601
-0.0352713
-0.0359406
-0.0213065
-0.0219362
-0.0225644
-0.023191
-0.0238162
-0.0244399
-0.0250622
-0.0256831
-0.0263026
-0.0269209
-0.0275378
-0.0281536
-0.0287682
-0.0293817
-0.0299942
-0.0306056
-0.0312161
-0.0318256
-0.0324343
-0.0190226
-0.0195953
-0.0201668
-0.0207369
-0.0213058
-0.0218733
-0.0224396
-0.0230047
-0.0235686
-0.0241313
-0.0246929
-0.0252535
-0.0258129
-0.0263714
-0.0269288
-0.0274854
-0.028041
-0.0285955
-0.0291494
-0.0168542
-0.0173754
-0.0178955
-0.0184145
-0.0189323
-0.019449
-0.0199645
-0.020479
-0.0209924
-0.0215048
-0.0220161
-0.0225265
-0.0230358
-0.0235443
-0.0240518
-0.0245585
-0.0250643
-0.0255692
-0.0260735
-0.0147983
-0.0152729
-0.0157466
-0.0162191
-0.0166907
-0.0171613
-0.0176309
-0.0180995
-0.0185671
-0.0190338
-0.0194995
-0.0199644
-0.0204283
-0.0208913
-0.0213536
-0.021815
-0.0222756
-0.0227354
-0.0231945
-0.0128518
-0.0132842
-0.0137157
-0.0141463
-0.014576
-0.0150048
-0.0154327
-0.0158597
-0.0162858
-0.016711
-0.0171354
-0.0175589
-0.0179816
-0.0184035
-0.0188245
-0.0192448
-0.0196644
-0.0200832
-0.0205013
-0.0110116
-0.0114058
-0.0117991
-0.0121917
-0.0125834
-0.0129743
-0.0133643
-0.0137536
-0.014142
-0.0145297
-0.0149165
-0.0153025
-0.0156878
-0.0160722
-0.016456
-0.0168389
-0.0172212
-0.0176027
-0.0179836
-0.00927449
-0.009634
-0.00999277
-0.0103508
-0.0107081
-0.0110646
-0.0114204
-0.0117754
-0.0121296
-0.0124831
-0.0128359
-0.0131878
-0.0135391
-0.0138896
-0.0142394
-0.0145885
-0.0149369
-0.0152846
-0.0156316
-0.00763719
-0.00796528
-0.0082927
-0.00861943
-0.00894547
-0.00927081
-0.00959544
-0.00991937
-0.0102426
-0.0105651
-0.0108869
-0.011208
-0.0115284
-0.0118481
-0.0121671
-0.0124854
-0.012803
-0.0131199
-0.0134362
-0.00609645
-0.00639605
-0.00669501
-0.00699334
-0.00729103
-0.00758807
-0.00788444
-0.00818015
-0.00847519
-0.00876956
-0.00906325
-0.00935627
-0.00964862
-0.0099403
-0.0102313
-0.0105216
-0.0108113
-0.0111004
-0.0113887
-0.00464896
-0.00492269
-0.00519583
-0.00546838
-0.00574033
-0.00601165
-0.00628236
-0.00655244
-0.00682188
-0.00709068
-0.00735885
-0.00762636
-0.00789323
-0.00815945
-0.00842502
-0.00868995
-0.00895424
-0.00921788
-0.0094809
-0.00329137
-0.00354161
-0.0037913
-0.00404043
-0.00428899
-0.00453696
-0.00478434
-0.00503113
-0.00527731
-0.00552287
-0.00576782
-0.00601215
-0.00625586
-0.00649894
-0.0067414
-0.00698322
-0.00722443
-0.007465
-0.00770496
-0.00202033
-0.00224923
-0.0024776
-0.00270544
-0.00293274
-0.00315948
-0.00338566
-0.00361126
-0.00383629
-0.00406072
-0.00428457
-0.00450782
-0.00473046
-0.0049525
-0.00517393
-0.00539476
-0.00561497
-0.00583457
-0.00605356
-0.000832467
-0.00104196
-0.00125095
-0.00145943