/*--------------------------------*- C++ -*----------------------------------*\
  =========                 |
  \\      /  F ield         | OpenFOAM: The Open Source CFD Toolbox
   \\    /   O peration     | Website:  https://openfoam.org
    \\  /    A nd           | Version:  7
     \\/     M anipulation  |
\*---------------------------------------------------------------------------*/
FoamFile
{
    version     2.0;
    format      ascii;
    class       surfaceScalarField;
    location    "120";
    object      phi;
}
// * * * * * * * * * * * * * * * * * * * * * * * * * * * * * * * * * * * * * //

dimensions      [0 3 -1 0 0 0 0];

internalField   nonuniform List<scalar> 
8882
(
6.66793e-06
-5.69126e-05
2.69671e-05
-0.000216874
-0.000427842
6.97412e-06
-6.38867e-05
2.8007e-05
-0.000237907
6.34852e-05
-0.00046332
0.000113065
-0.00073743
-0.00105344
7.27213e-06
-7.11588e-05
2.89999e-05
-0.000259635
6.53499e-05
-0.00049967
0.000115693
-0.000787773
0.000178261
-0.001116
0.000250034
-0.00147201
0.000326957
-0.00184013
-0.00220354
7.56006e-06
-7.87189e-05
2.99389e-05
-0.000282014
6.70678e-05
-0.000536799
0.00011802
-0.000838725
0.000180694
-0.00117868
0.000251757
-0.00154307
0.000326953
-0.00191533
0.00040171
-0.0022783
0.000471886
-0.00261709
0.000534389
-0.00292135
0.000587508
-0.00318635
-0.00341273
7.83602e-06
-8.65549e-05
3.08174e-05
-0.000304995
6.86261e-05
-0.000574608
0.00012003
-0.000890129
0.000182595
-0.00124124
0.000252703
-0.00161318
0.000325935
-0.00198856
0.000397738
-0.0023501
0.000464169
-0.00268352
0.000522455
-0.00297964
0.000571244
-0.00323514
0.000610503
-0.00345199
0.000641187
-0.00363589
0.000664815
-0.0037945
-0.00393575
8.09818e-06
-9.46531e-05
3.16291e-05
-0.000328526
7.00132e-05
-0.000612992
0.000121706
-0.000941822
0.000183952
-0.00130349
0.000252872
-0.0016821
0.000323926
-0.00205962
0.000392624
-0.0024188
0.000455251
-0.00274615
0.000509365
-0.00303375
0.000553955
-0.00327973
0.000589269
-0.0034873
0.000616439
-0.00366306
0.000637047
-0.0038151
0.00065275
-0.00395145
0.000665017
-0.004079
0.000675002
-0.00420303
0.000683513
-0.00432716
-0.00445345
8.34473e-06
-0.000102998
3.23682e-05
-0.000352549
7.12188e-05
-0.000651843
0.000123038
-0.000993641
0.000184758
-0.00136521
0.000252271
-0.00174961
0.000320957
-0.0021283
0.000386426
-0.00248427
0.000445219
-0.00280494
0.000495227
-0.00308376
0.000535762
-0.00332027
0.00056732
-0.00351886
0.000591177
-0.00368692
0.000608954
-0.00383288
0.000622263
-0.00396476
0.000632487
-0.00408922
0.00064068
-0.00421123
0.000647557
-0.00433404
0.00065356
-0.00445946
-0.00458818
0.000658877
8.57398e-06
-0.000111572
3.30294e-05
-0.000377005
7.22339e-05
-0.000691047
0.000124015
-0.00104542
0.00018501
-0.0014262
0.000250912
-0.00181552
0.000317061
-0.00219445
0.000379207
-0.00254642
0.000434163
-0.0028599
0.000480147
-0.00312974
0.000516776
-0.00335689
0.000544765
-0.00354685
0.000565499
-0.00370765
0.000580614
-0.00384799
0.000591665
-0.00397581
0.000599945
-0.0040975
0.000606408
-0.00421769
0.000611685
-0.00433932
0.000616154
-0.00446392
-0.00459199
0.000619964
8.7843e-06
-0.000120356
3.36076e-05
-0.000401828
7.30509e-05
-0.00073049
0.000124631
-0.001097
0.000184709
-0.00148628
0.000248812
-0.00187962
0.000312281
-0.00225792
0.000371034
-0.00260517
0.000422169
-0.00291103
0.000464229
-0.0031718
0.000497106
-0.00338977
0.000521704
-0.00357145
0.000539493
-0.00372544
0.000552098
-0.0038606
0.000561011
-0.00398472
0.000567428
-0.00410392
0.000572212
-0.00422247
0.000575918
-0.00434302
0.000578864
-0.00446687
-0.00459429
0.000581166
8.97421e-06
-0.00012933
3.40988e-05
-0.000426953
7.3664e-05
-0.000770056
0.000124882
-0.00114822
0.000183861
-0.00154526
0.000245994
-0.00194175
0.00030666
-0.00231858
0.000361974
-0.00266048
0.000409326
-0.00295838
0.000447569
-0.00321005
0.000476849
-0.00341905
0.000498229
-0.00359283
0.000513235
-0.00374045
0.000523469
-0.00387083
0.000530345
-0.0039916
0.00053497
-0.00410854
0.000538116
-0.00422562
0.00054027
-0.00434518
0.0005417
-0.0044683
-0.00459508
0.000542494
9.14232e-06
-0.000138473
3.44992e-05
-0.00045231
7.40686e-05
-0.000809625
0.000124768
-0.00119892
0.000182475
-0.00160297
0.000242485
-0.00200176
0.000300248
-0.00237635
0.000352097
-0.00271233
0.000395719
-0.00300201
0.00043026
-0.00324459
0.000456097
-0.00344489
0.000474422
-0.00361115
0.000486795
-0.00375282
0.000494779
-0.00387882
0.000499708
-0.00399653
0.000502598
-0.00411143
0.00050414
-0.00422716
0.000504757
-0.00434579
0.000504676
-0.00446822
-0.00459437
0.00050396
9.28742e-06
-0.00014776
3.48058e-05
-0.000477828
7.42618e-05
-0.000849081
0.000124291
-0.00124895
0.000180564
-0.00165924
0.000238315
-0.00205951
0.000293095
-0.00243113
0.000341473
-0.00276071
0.00038143
-0.00304196
0.00041239
-0.00327555
0.000434933
-0.00346743
0.000450356
-0.00362657
0.000460233
-0.0037627
0.000466075
-0.00388466
0.000469134
-0.00399959
0.000470337
-0.00411263
0.0004703
-0.00422713
0.000469391
-0.00434489
0.0004678
-0.00446663
-0.00459214
0.000465573
9.40958e-06
-0.00015717
3.50187e-05
-0.000503437
7.42456e-05
-0.000888308
0.000123458
-0.00129816
0.000178149
-0.00171393
0.000233523
-0.00211489
0.000285261
-0.00248287
0.000330177
-0.00280563
0.000366546
-0.00307833
0.000394049
-0.00330305
0.000413444
-0.00348683
0.000426108
-0.00363924
0.000433612
-0.0037702
0.000437407
-0.00388845
0.00043866
-0.00400084
0.000438215
-0.00411219
0.000436619
-0.00422553
0.000434192
-0.00434246
0.000431091
-0.00446353
-0.00458839
0.000427348
9.50576e-06
-0.000166675
3.51316e-05
-0.000529063
7.40134e-05
-0.00092719
0.000122268
-0.00134641
0.000175239
-0.0017669
0.000228132
-0.00216778
0.000276782
-0.00253152
0.000318262
-0.00284711
0.000351126
-0.0031112
0.000375296
-0.00332722
0.000391681
-0.00350321
0.000401719
-0.00364928
0.000406962
-0.00377544
0.000408793
-0.00389029
0.000408297
-0.00400035
0.000406236
-0.00411013
0.000403096
-0.00422239
0.000399155
-0.00433852
0.000394543
-0.00445892
-0.00458313
0.000389281
9.57628e-06
-0.000176252
3.51458e-05
-0.000554632
7.35698e-05
-0.000965614
0.000120734
-0.00139358
0.00017186
-0.00181803
0.000222185
-0.00221811
0.000267721
-0.00257705
0.0003058
-0.00288518
0.00033525
-0.00314065
0.000356209
-0.00334818
0.000369718
-0.00351672
0.000377252
-0.00365681
0.000380333
-0.00377852
0.000380273
-0.00389023
0.000378074
-0.00399815
0.000374423
-0.00410648
0.000369751
-0.00421772
0.000364298
-0.00433306
0.000358173
-0.00445279
-0.00457635
0.000351389
9.62056e-06
-0.000185872
3.50607e-05
-0.000580072
7.29176e-05
-0.00100347
0.000118865
-0.00143953
0.000168034
-0.0018672
0.000215721
-0.00226579
0.000258129
-0.00261946
0.000292854
-0.00291991
0.000318984
-0.00316678
0.000336853
-0.00336605
0.00034761
-0.00352748
0.000352753
-0.00366195
0.000353762
-0.00377953
0.000351874
-0.00388834
0.000348011
-0.00399428
0.000342791
-0.00410126
0.000336595
-0.00421152
0.00032963
-0.0043261
0.000321988
-0.00444515
-0.00456804
0.000313679
9.63818e-06
-0.00019551
3.48768e-05
-0.000605311
7.20607e-05
-0.00104065
0.000116675
-0.00148414
0.000163787
-0.00191431
0.000208777
-0.00231078
0.000248057
-0.00265874
0.000279484
-0.00295134
0.00030239
-0.00318968
0.000317287
-0.00338095
0.00032541
-0.0035356
0.000328265
-0.00366481
0.00032728
-0.00377855
0.000323619
-0.00388468
0.000318125
-0.00398879
0.000311353
-0.00409448
0.000303637
-0.00420381
0.00029516
-0.00431762
0.000285997
-0.00443599
-0.0045582
0.00027616
9.62888e-06
-0.000205139
3.45946e-05
-0.000630277
7.1004e-05
-0.00107706
0.000114177
-0.00152731
0.000159143
-0.00195927
0.000201393
-0.00235303
0.000237556
-0.0026949
0.000265746
-0.00297953
0.000285526
-0.00320946
0.000297564
-0.00339298
0.000303164
-0.0035412
0.000303824
-0.00366547
0.000300916
-0.00377564
0.00029553
-0.00387929
0.000288432
-0.00398169
0.00028012
-0.00408617
0.000270888
-0.00419457
0.000260896
-0.00430763
0.000250207
-0.0044253
-0.00454683
0.00023884
9.59258e-06
-0.000214732
3.42157e-05
-0.0006549
6.97537e-05
-0.0011126
0.000111385
-0.00156894
0.000154129
-0.00200202
0.000193608
-0.00239251
0.000226674
-0.00272797
0.000251695
-0.00300455
0.000268447
-0.00322621
0.000277734
-0.00340227
0.000280913
-0.00354438
0.000279462
-0.00366402
0.000274695
-0.00377087
0.000267624
-0.00387222
0.000258946
-0.00397301
0.000249103
-0.00407633
0.000238357
-0.00418383
0.000226846
-0.00429612
0.000214627
-0.00441308
-0.00453393
0.000201725
9.52934e-06
-0.000224261
3.37418e-05
-0.000679112
6.83165e-05
-0.00114718
0.000108314
-0.00160894
0.000148772
-0.00204248
0.000185459
-0.0024292
0.000215458
-0.00275797
0.000237381
-0.00302647
0.000251201
-0.00324003
0.000257841
-0.00340891
0.000258694
-0.00354523
0.00025521
-0.00366053
0.000248639
-0.0037643
0.000239917
-0.0038635
0.000229678
-0.00396278
0.000218314
-0.00406496
0.000206054
-0.00417157
0.000193019
-0.00428308
0.000179262
-0.00439932
-0.00451949
0.000164818
9.43936e-06
-0.000233701
3.31753e-05
-0.000702848
6.67002e-05
-0.0011807
0.000104982
-0.00164722
0.000143099
-0.00208059
0.000176983
-0.00246308
0.000203951
-0.00278494
0.00022285
-0.00304537
0.000233833
-0.00325102
0.000237925
-0.003413
0.000236539
-0.00354385
0.000231092
-0.00365509
0.000222765
-0.00375597
0.000212425
-0.00385316
0.000200641
-0.00395099
0.000187761
-0.00405208
0.000173985
-0.00415779
0.000159421
-0.00426852
0.000144122
-0.00438402
-0.00450349
0.00012812
9.32301e-06
-0.000243024
3.25188e-05
-0.000726044
6.4913e-05
-0.0012131
0.000101405
-0.00168372
0.000137137
-0.00211633
0.000168217
-0.00249416
0.000192197
-0.00280892
0.000208147
-0.00306132
0.000216386
-0.00325926
0.000218022
-0.00341464
0.000214479
-0.0035403
0.000207131
-0.00364774
0.000197093
-0.00374594
0.00018516
-0.00384123
0.000171845
-0.00393768
0.000157454
-0.00403769
0.000142162
-0.0041425
0.000126061
-0.00425242
0.000109212
-0.00436717
-0.0044859
9.16251e-05
9.18075e-06
-0.000252204
3.17757e-05
-0.000748639
6.29636e-05
-0.00124428
9.76006e-05
-0.00171835
0.000130912
-0.00214964
0.000159195
-0.00252245
0.000180234
-0.00282996
0.000193312
-0.0030744
0.000198896
-0.00326484
0.000198164
-0.00341391
0.000192539
-0.00353468
0.000183347
-0.00363855
0.000171636
-0.00373422
0.000158134
-0.00382772
0.000143301
-0.00392284
0.000127405
-0.0040218
0.000110597
-0.00412569
9.29564e-05
-0.00423478
7.45354e-05
-0.00434875
-0.00446668
5.53203e-05
9.01318e-06
-0.000261218
3.09492e-05
-0.000770575
6.08612e-05
-0.0012742
9.35853e-05
-0.00175108
0.00012445
-0.0021805
0.000149951
-0.00254795
0.0001681
-0.00284811
0.000178383
-0.00308468
0.000181399
-0.00326786
0.000178381
-0.00341089
0.000170742
-0.00352704
0.000159757
-0.00362756
0.000146407
-0.00372087
0.000131358
-0.00381267
0.000115018
-0.0039065
9.76216e-05
-0.0040044
7.93039e-05
-0.00410738
6.01408e-05
-0.00421562
4.01079e-05
-0.00432872
-0.00444562
1.90435e-05
8.82101e-06
-0.000270039
3.0043e-05
-0.000791797
5.86153e-05
-0.00130277
8.93766e-05
-0.00178184
0.000117777
-0.0022089
0.000140516
-0.00257069
0.00015583
-0.00286342
0.000163393
-0.00309224
0.000163924
-0.00326839
0.000158698
-0.00340566
0.000149109
-0.00351745
0.000136378
-0.00361483
0.00012142
-0.00370592
0.000104841
-0.0037961
8.70031e-05
-0.00388866
6.81113e-05
-0.00398551
4.82863e-05
-0.00408755
2.76337e-05
-0.00419496
6.2739e-06
-0.00430736
-0.00442267
-1.66757e-05
8.60501e-06
-0.000278644
2.90612e-05
-0.000812253
5.62355e-05
-0.00132994
8.49918e-05
-0.0018106
0.000110918
-0.00223483
0.00013092
-0.00259069
0.000143457
-0.00287596
0.000148376
-0.00309716
0.000146501
-0.00326651
0.000139139
-0.0033983
0.000127657
-0.00350597
0.000113222
-0.00360039
9.66841e-05
-0.00368938
7.85919e-05
-0.003778
5.92657e-05
-0.00386934
3.88825e-05
-0.00396513
1.75486e-05
-0.00406622
-4.66519e-06
-0.00417275
-2.77143e-05
-0.00428431
-0.00439878
-5.16046e-05
8.36608e-06
-0.00028701
2.80077e-05
-0.000831895
5.37316e-05
-0.00135567
8.04477e-05
-0.00183731
0.000103895
-0.00225828
0.000121192
-0.00260799
0.000131009
-0.00288577
0.000133359
-0.00309951
0.000129154
-0.00326231
0.000119723
-0.00338887
0.000106403
-0.00349265
9.03017e-05
-0.00358429
7.22087e-05
-0.00367129
5.2619e-05
-0.00375841
3.18131e-05
-0.00384853
9.94249e-06
-0.00394326
-1.28929e-05
-0.00404338
-3.66061e-05
-0.00414904
-6.12273e-05
-0.00425969
-0.00437345
-8.65549e-05
8.10517e-06
-0.000295115
2.68869e-05
-0.000850676
5.11134e-05
-0.00137989
7.57608e-05
-0.00186196
9.67314e-05
-0.00227925
0.000111358
-0.00262261
0.000118516
-0.00289293
0.000118368
-0.00309936
0.000111907
-0.00325585
0.00010047
-0.00337743
8.53603e-05
-0.00347754
6.76279e-05
-0.00356656
4.80025e-05
-0.00365166
2.69298e-05
-0.00373734
4.64877e-06
-0.00382625
-1.87003e-05
-0.00391991
-4.30365e-05
-0.00401904
-6.8282e-05
-0.00412379
-9.44074e-05
-0.00423357
-0.00434657
-0.000121287
7.82326e-06
-0.000302938
2.5703e-05
-0.000868556
4.83905e-05
-0.00140258
7.09471e-05
-0.00188452
8.94493e-05
-0.00229775
0.000101444
-0.00263461
0.000106003
-0.00289749
0.000103428
-0.00309679
9.47789e-05
-0.0032472
8.13955e-05
-0.00336405
6.45415e-05
-0.00346069
4.52095e-05
-0.00354723
2.40743e-05
-0.00363053
1.52188e-06
-0.00371479
-2.22123e-05
-0.00380252
-4.70395e-05
-0.00389508
-7.28777e-05
-0.00399321
-9.96495e-05
-0.00409702
-0.000127293
-0.00420592
-0.00431813
-0.000155738
7.52142e-06
-0.000310459
2.44605e-05
-0.000885495
4.55727e-05
-0.00142369
6.60222e-05
-0.00190497
8.20689e-05
-0.0023138
9.14731e-05
-0.00264401
9.34939e-05
-0.00289951
8.85607e-05
-0.00309185
7.77888e-05
-0.00323643
6.2514e-05
-0.00334877
4.39577e-05
-0.00344213
2.30544e-05
-0.00352632
4.09645e-07
-0.00360788
-2.35754e-05
-0.0036908
-4.87688e-05
-0.00377732
-7.50684e-05
-0.00386878
-0.000102406
-0.00396587
-0.000130702
-0.00406872
-0.000159877
-0.00417675
-0.00428812
-0.000189884
7.20074e-06
-0.00031766
2.31638e-05
-0.000901458
4.26694e-05
-0.0014432
6.10011e-05
-0.0019233
7.46097e-05
-0.0023274
8.14665e-05
-0.00265087
8.101e-05
-0.00289906
7.3785e-05
-0.00308463
6.09528e-05
-0.00322359
4.38385e-05
-0.00333166
2.36182e-05
-0.00342191
1.16782e-06
-0.00350387
-2.29254e-05
-0.00358379
-4.83743e-05
-0.00366535
-7.50143e-05
-0.00375068
-0.00010278
-0.00384101
-0.000131614
-0.00393703
-0.000161434
-0.0040389
-0.000192147
-0.00414603
-0.00022371
6.86234e-06
-0.000324523
2.18173e-05
-0.000916413
3.96899e-05
-0.00146107
5.58981e-05
-0.00193951
6.70899e-05
-0.0023386
7.14448e-05
-0.00265522
6.85713e-05
-0.00289618
5.91189e-05
-0.00307518
4.42855e-05
-0.00320876
2.53798e-05
-0.00331275
3.53184e-06
-0.00340006
-2.04278e-05
-0.00347991
-4.59857e-05
-0.00355823
-7.28656e-05
-0.00363847
-0.000100942
-0.00372261
-0.000130166
-0.00381179
-0.000160492
-0.00390671
-0.000191836
-0.00400756
6.50736e-06
-0.00033103
2.04253e-05
-0.000930331
3.66431e-05
-0.00147729
5.07268e-05
-0.00195359
5.95268e-05
-0.0023474
6.14267e-05
-0.00265712
5.61959e-05
-0.00289095
4.45782e-05
-0.00306356
2.77997e-05
-0.00319198
7.14821e-06
-0.0032921
-1.62917e-05
-0.00337662
-4.17465e-05
-0.00345446
-6.87443e-05
-0.00353123
-9.70435e-05
-0.00361018
-0.000126546
-0.00369311
-0.00015722
-0.00378112
-0.000189032
6.13697e-06
-0.000337167
1.89922e-05
-0.000943186
3.35377e-05
-0.00149183
4.55005e-05
-0.00196555
5.19364e-05
-0.00235383
5.14294e-05
-0.00265662
4.39004e-05
-0.00288342
3.01772e-05
-0.00304984
1.15068e-05
-0.00317331
-1.08476e-05
-0.00326975
-3.58492e-05
-0.00335162
-6.27754e-05
-0.00342753
-9.11967e-05
-0.00350281
-0.000120903
-0.00358047
-0.000151819
-0.00366219
5.75233e-06
-0.000342919
1.75224e-05
-0.000954956
3.03823e-05
-0.00150469
4.02314e-05
-0.0019754
4.4334e-05
-0.00235793
4.1469e-05
-0.00265375
3.16998e-05
-0.00287365
1.59286e-05
-0.00303406
-4.58261e-06
-0.0031528
-2.86001e-05
-0.00324573
-5.51338e-05
-0.00332509
-8.35099e-05
-0.00339916
-0.000113338
-0.00347298
-0.000144438
-0.00354937
5.35466e-06
-0.000348274
1.60199e-05
-0.000965622
2.7185e-05
-0.00151586
3.49314e-05
-0.00198315
3.67333e-05
-0.00235974
3.15602e-05
-0.00264858
1.96081e-05
-0.0028617
1.84891e-06
-0.00301631
-2.04596e-05
-0.00313049
-4.61025e-05
-0.00322009
-7.41402e-05
-0.00329705
-0.000103946
-0.00336935
-0.000135166
-0.00344176
4.94523e-06
-0.000353219
1.4489e-05
-0.000975166
2.39536e-05
-0.00152532
2.96117e-05
-0.00198881
2.91479e-05
-0.00235927
2.17166e-05
-0.00264115
7.63816e-06
-0.00284762
-1.20656e-05
-0.0029966
-3.61174e-05
-0.00310644
-6.3349e-05
-0.00319286
-9.28638e-05
-0.00326753
-0.000124079
-0.00333814
4.52541e-06
-0.000357745
1.29337e-05
-0.000983574
2.06957e-05
-0.00153309
2.42826e-05
-0.00199239
2.15908e-05
-0.00235658
1.19499e-05
-0.00263151
-4.19832e-06
-0.00283147
-2.57917e-05
-0.00297501
-5.1548e-05
-0.00308068
-8.03342e-05
-0.00316407
-0.000111301
-0.00323657
4.09677e-06
-0.000361841
1.13582e-05
-0.000990835
1.74185e-05
-0.00153915
1.89543e-05
-0.00199393
1.40735e-05
-0.0023517
2.29229e-06
-0.00261972
-1.58993e-05
-0.00281328
-3.93276e-05
-0.00295158
-6.67455e-05
-0.00305327
-9.70537e-05
-0.00313376
3.66137e-06
-0.000365503
9.76646e-06
-0.00099694
1.4129e-05
-0.00154351
1.36383e-05
-0.00199344
6.60259e-06
-0.00234466
-7.30508e-06
-0.00260582
-2.74481e-05
-0.00279314
-5.26649e-05
-0.00292636
-8.17044e-05
-0.00302423
3.21939e-06
-0.000368722
8.16166e-06
-0.00100188
1.08333e-05
-0.00154618
8.34491e-06
-0.00199095
-7.47025e-07
-0.00233557
-1.6773e-05
-0.00258979
-3.88388e-05
-0.00277107
-6.57977e-05
-0.0028994
2.77151e-06
-0.000371494
6.5471e-06
-0.00100566
7.53845e-06
-0.00154717
3.08027e-06
-0.00198649
-8.15817e-06
-0.00232433
-2.61352e-05
-0.00257181
-5.00636e-05
-0.00274714
2.31922e-06
-0.000373813
4.9269e-06
-0.00100827
4.24815e-06
-0.00154649
-2.15315e-06
-0.00198009
-1.54258e-05
-0.00231106
-3.53711e-05
-0.00255187
1.86304e-06
-0.000375676
3.30503e-06
-0.00100971
9.92574e-07
-0.00154418
-7.38044e-06
-0.00197172
-2.26154e-05
-0.00229583
1.40239e-06
-0.000377078
1.6761e-06
-0.00100998
-2.29785e-06
-0.00154021
-1.25404e-05
-0.00196147
-0.00227865
9.35021e-07
-0.000378013
5.38488e-08
-0.0010091
-5.55814e-06
-0.00153459
-1.76469e-05
-0.00194939
4.42732e-07
-0.000378456
-1.58054e-06
-0.00100708
-8.78602e-06
-0.00152739
-9.5375e-08
-0.000378361
-3.20657e-06
-0.00100397
-0.00151861
-5.07538e-07
-0.000377853
-4.81021e-06
-0.000999663
-9.59461e-07
-0.000376894
-0.000375471
0.000346175
0.000347498
-8.65102e-07
0.000348363
0.000923265
-4.20578e-07
0.000348783
-4.29956e-06
0.000927144
0.00140581
-4.8925e-09
0.000348788
-2.70873e-06
0.000929848
0.00141377
5.29021e-07
0.000348259
-1.09965e-06
0.000931477
-7.4835e-06
0.00142015
0.00180953
9.99626e-07
0.00034726
5.06164e-07
0.00093197
-4.27629e-06
0.00142494
-1.51375e-05
0.00182039
0.0021219
1.45461e-06
0.000345805
2.11053e-06
0.000931314
-1.03052e-06
0.00142808
-1.00432e-05
0.0018294
-2.56561e-05
0.00213751
0.00236364
1.90334e-06
0.000343902
3.70769e-06
0.00092951
2.19076e-06
0.0014296
-4.90822e-06
0.0018365
-1.85377e-05
0.00215114
0.00238373
2.34718e-06
0.000341555
5.29974e-06
0.000926557
5.43115e-06
0.00142946
3.42184e-07
0.00184159
-1.13384e-05
0.00216282
-2.94715e-05
0.00240187
0.00257423
2.78573e-06
0.000338769
6.88413e-06
0.000922459
8.66526e-06
0.00142768
5.46382e-06
0.00184479
-4.07647e-06
0.00217236
-2.01949e-05
0.00241798
-4.21926e-05
0.00259623
0.00272465
3.21782e-06
0.000335551
8.45697e-06
0.00091722
1.1901e-05
0.00142424
1.06868e-05
0.00184601
3.24736e-06
0.0021798
-1.08121e-05
0.00243204
-3.08749e-05
0.00261629
-5.58946e-05
0.00274967
0.00284899
3.64395e-06
0.000331907
1.00159e-05
0.000910848
1.51294e-05
0.00141913
1.59189e-05
0.00184522
1.06083e-05
0.00218511
-1.30212e-06
0.00244395
-1.94054e-05
0.00263439
-4.26132e-05
0.00277288
-6.97603e-05
0.00287614
0.00295843
4.06288e-06
0.000327844
1.1557e-05
0.000903354
1.83414e-05
0.00141234
2.11547e-05
0.0018424
1.80172e-05
0.00218825
8.24438e-06
0.00245373
-7.79914e-06
0.00265044
-2.91417e-05
0.00279422
-5.45962e-05
0.0029016
-8.30792e-05
0.00298691
0.00306103
4.47252e-06
0.000323372
1.30758e-05
0.00089475
2.15295e-05
0.00140389
2.63845e-05
0.00183755
2.54573e-05
0.00218917
1.78945e-05
0.00246129
3.94253e-06
0.00266439
-1.54892e-05
0.00281365
-3.92071e-05
0.00292531
-6.61012e-05
0.00301381
-9.53007e-05
0.00309023
0.00316215
4.8713e-06
0.0003185
1.45684e-05
0.000885053
2.46866e-05
0.00139377
3.15976e-05
0.00183064
3.29157e-05
0.00218785
2.76099e-05
0.0024666
1.57971e-05
0.0026762
-1.66086e-06
0.00283111
-2.36004e-05
0.00294725
-4.88694e-05
0.00303908
-7.6556e-05
0.00311792
-0.000106039
0.00319163
0.00326509
5.25786e-06
0.000313243
1.60304e-05
0.000874281
2.78048e-05
0.00138199
3.67827e-05
0.00182166
4.03784e-05
0.00218426
3.73773e-05
0.0024696
2.77625e-05
0.00268582
1.23213e-05
0.00284655
-7.78556e-06
0.00296736
-3.13907e-05
0.00306268
-5.75353e-05
0.00314406
-8.55523e-05
0.00321965
-0.000115047
0.00329459
0.00337189
5.63093e-06
0.000307612
1.74577e-05
0.000862454
3.08761e-05
0.00136858
4.19281e-05
0.00181061
4.7831e-05
0.00217836
4.71821e-05
0.00247025
3.98213e-05
0.00269318
2.64572e-05
0.00285992
8.22899e-06
0.00298559
-1.36724e-05
0.00308458
-3.82446e-05
0.00316863
-6.4773e-05
0.00324617
-9.28225e-05
0.00332264
-0.000122175
0.00340124
0.00348386
5.98931e-06
0.000301622
1.8846e-05
0.000849597
3.38919e-05
0.00135353
4.70214e-05
0.00179748
5.52585e-05
0.00217012
5.70079e-05
0.0024685
5.19582e-05
0.00269823
4.07291e-05
0.00287114
2.44321e-05
0.00300189
4.27673e-06
0.00310474
-1.86907e-05
0.0031916
-4.37067e-05
0.00327119
-7.02932e-05
0.00334922
-9.8198e-05
0.00342915
-0.000127318
0.00351298
0.00360193
6.33183e-06
0.00029529
2.0191e-05
0.000835738
3.68437e-05
0.00133688
5.20499e-05
0.00178227
6.26448e-05
0.00215952
6.68374e-05
0.0024643
6.41562e-05
0.00270091
5.51223e-05
0.00288018
4.08116e-05
0.0030162
2.24475e-05
0.0031231
1.11626e-06
0.00321293
-2.23595e-05
0.00329467
-4.74646e-05
0.00337433
-7.3907e-05
0.00345559
-0.000101557
0.00354063
-0.000130362
0.00363073
-0.000160277
0.00372664
0.00382856
6.65734e-06
0.000288633
2.14883e-05
0.000820907
3.97225e-05
0.00131864
5.69998e-05
0.00176499
6.99726e-05
0.00214655
7.66516e-05
0.00245763
7.63969e-05
0.00270116
6.96203e-05
0.00288696
5.73537e-05
0.00302846
4.08291e-05
0.00313963
2.11749e-05
0.00323259
-7.47141e-07
0.00331659
-2.43434e-05
0.00339792
-4.93084e-05
0.00348056
-7.54758e-05
0.00356679
-0.000102772
0.00365803
-0.000131138
0.00375501
-0.000160492
0.00385792
0.00396617
6.96473e-06
0.000281668
2.27335e-05
0.000805138
4.25192e-05
0.00129886
6.18569e-05
0.00174566
7.72238e-05
0.00213118
8.64304e-05
0.00244842
8.86601e-05
0.00269893
8.42051e-05
0.00289141
7.40431e-05
0.00303862
5.9409e-05
0.00315426
4.14701e-05
0.00325053
2.11465e-05
0.00333691
-9.43788e-07
0.00342001
-2.44093e-05
0.00350402
-4.90824e-05
0.00359147
-7.48596e-05
0.0036838
-0.000101672
0.00378182
-0.000129438
0.00388568
-0.000158083
0.00399481
0.00410745
-0.000187569
7.25288e-06
0.000274416
2.39223e-05
0.000788469
4.52244e-05
0.00127756
6.66064e-05
0.00172427
8.43791e-05
0.00211341
9.61519e-05
0.00243665
0.000100924
0.00269416
9.88562e-05
0.00289348
9.08627e-05
0.00304662
7.81736e-05
0.00316695
6.19916e-05
0.00326671
4.32903e-05
0.00335561
2.27496e-05
0.00344055
7.76156e-07
0.00352599
-2.23852e-05
0.00361463
-4.66353e-05
0.00370805
-7.1888e-05
0.00380707
-9.80642e-05
0.00391186
-0.000125109
0.00402186
0.00413531
-0.000152964
7.52077e-06
0.000266895
2.50503e-05
0.000770939
4.78286e-05
0.00125478
7.12331e-05
0.00170087
9.14181e-05
0.00209323
0.000105793
0.00242227
0.000113164
0.00268679
0.000113552
0.00289309
0.000107793
0.00305238
9.71072e-05
0.00317764
8.27275e-05
0.00328109
6.56815e-05
0.00337266
4.67052e-05
0.00345953
2.62621e-05
0.00354644
4.60788e-06
0.00363628
-1.81082e-05
0.00373077
-4.17978e-05
0.00383076
-6.63796e-05
0.00393644
-9.18352e-05
0.00404732
0.00416153
-0.000118054
7.76738e-06
0.000259127
2.61132e-05
0.000752593
5.03222e-05
0.00123057
7.5721e-05
0.00167547
9.83193e-05
0.00207063
0.000115328
0.00240526
0.000125355
0.00267676
0.000128267
0.00289018
0.000124814
0.00305583
0.000116192
0.00318626
0.000103664
0.00329362
8.83089e-05
0.00338801
7.09214e-05
0.00347692
5.20159e-05
0.00356534
3.18912e-05
0.00365641
1.07132e-05
0.00375195
-1.14134e-05
0.00385289
-3.43924e-05
0.00395942
-5.82676e-05
0.00407119
0.00418613
-8.2867e-05
7.99176e-06
0.000251136
2.71068e-05
0.000733478
5.26955e-05
0.00120498
8.00539e-05
0.00164811
0.00010506
0.00204562
0.000124731
0.00238559
0.000137469
0.00266402
0.000142975
0.00288467
0.0001419
0.0030569
0.00013541
0.00319275
0.000124786
0.00330424
0.00011116
0.00340164
9.5388e-05
0.00349269
7.80377e-05
0.00358269
5.94504e-05
0.00367499
3.98202e-05
0.00377158
1.92588e-05
0.00387345
-2.17646e-06
0.00398086
-2.43624e-05
0.00409338
0.00420924
-4.74746e-05
8.19303e-06
0.000242943
2.8027e-05
0.000713644
5.49391e-05
0.00117807
8.42152e-05
0.00161884
0.000111618
0.00201822
0.000133973
0.00236324
0.000149475
0.00264852
0.000157646
0.0028765
0.000159026
0.00305552
0.000154737
0.00319704
0.000146075
0.0033129
0.000134222
0.00341349
0.000120094
0.00350682
0.000104317
0.00359847
8.72786e-05
0.00369203
6.92024e-05
0.00378965
5.02193e-05
0.00389243
3.04311e-05
0.00400064
9.87639e-06
0.00411393
0.00423129
-1.21793e-05
8.3704e-06
0.000234572
2.887e-05
0.000693145
5.70433e-05
0.00114989
8.8188e-05
0.00158769
0.000117968
0.00198844
0.000143025
0.00233818
0.00016134
0.00263021
0.000172249
0.00286559
0.000176163
0.00305161
0.00017415
0.00319905
0.000167512
0.00331954
0.000157478
0.00342353
0.000145026
0.00351927
0.000130844
0.00361265
0.000115366
0.00370751
9.88506e-05
0.00380617
8.14452e-05
0.00390984
6.32278e-05
0.00401886
4.4194e-05
0.00413297
0.00425128
2.421e-05
8.52316e-06
0.000226049
2.96322e-05
0.000672036
5.89988e-05
0.00112053
9.19556e-05
0.00155474
0.000124085
0.00195631
0.000151855
0.00231041
0.00017303
0.00260903
0.000186749
0.00285187
0.000193279
0.00304508
0.000193621
0.00319871
0.000189075
0.00332408
0.000180911
0.00343169
0.000170171
0.00353001
0.000157605
0.00362522
0.000143701
0.00372142
0.000128754
0.00382112
0.000112931
0.00392566
9.63191e-05
0.00403547
7.89649e-05
0.00415032
0.0042694
6.08452e-05
8.65072e-06
0.000217398
3.031e-05
0.000650376
6.07967e-05
0.00109004
9.55008e-05
0.00152003
0.000129944
0.00192187
0.00016043
0.00227993
0.000184508
0.00258495
0.000201106
0.00283528
0.000210338
0.00303585
0.00021312
0.00319593
0.000210739
0.00332647
0.000204502
0.00343793
0.000195513
0.003539
0.000184589
0.00363614
0.000172273
0.00373373
0.000158901
0.00383449
0.000144668
0.0039399
0.000129675
0.00405047
0.000113972
0.00416602
0.00428581
9.75618e-05
8.75259e-06
0.000208646
3.09005e-05
0.000628229
6.24285e-05
0.00105851
9.8807e-05
0.00148365
0.000135518
0.00188516
0.000168715
0.00224673
0.000195734
0.00255793
0.000215281
0.00281573
0.000227302
0.00302383
0.000232612
0.00319062
0.000232475
0.0033266
0.000228228
0.00344217
0.000221035
0.00354619
0.00021178
0.0036454
0.000201068
0.00374444
0.00018928
0.00384628
0.000176639
0.00395254
0.000163263
0.00406384
0.000149199
0.00418009
0.00430054
0.000134463
8.82841e-06
0.000199817
3.14009e-05
0.000605656
6.3886e-05
0.00102603
0.000101858
0.00144568
0.000140782
0.00184623
0.000176677
0.00221083
0.000206665
0.00252795
0.00022923
0.00279316
0.000244127
0.00300893
0.00025206
0.00318269
0.000254253
0.00332441
0.000252064
0.00344436
0.000246716
0.00355154
0.000239163
0.00365295
0.000230074
0.00375353
0.000219878
0.00385647
0.00020883
0.00396358
0.000197066
0.00407561
0.000184637
0.00419252
0.00431362
0.000171557
8.87796e-06
0.000190939
3.1809e-05
0.000582725
6.51618e-05
0.000992675
0.000104637
0.00140621
0.000145709
0.00180516
0.000184277
0.00217227
0.000217259
0.00249496
0.000242904
0.00276752
0.000260769
0.00299107
0.000271423
0.00317203
0.000276037
0.00331979
0.000275983
0.00344442
0.000272535
0.00355499
0.000266721
0.00365876
0.000259275
0.00376098
0.00025068
0.00386507
0.000241228
0.00397304
0.000231074
0.00408576
0.000220275
0.00420332
0.00432506
0.000208841
8.90116e-06
0.000182038
3.21229e-05
0.000559503
6.62493e-05
0.000958549
0.000107131
0.00136532
0.000150273
0.00176202
0.00019148
0.00213106
0.000227469
0.00245897
0.000256255
0.00273873
0.000277176
0.00297014
0.000290654
0.00315855
0.000297788
0.00331266
0.000299951
0.00344226
0.000298467
0.00355647
0.000294433
0.0036628
0.000288655
0.00376676
0.000281674
0.00387205
0.00027382
0.00398089
0.000265274
0.00409431
0.000256104
0.00421249
0.00433485
0.000246311
8.8981e-06
0.00017314
3.23413e-05
0.00053606
6.71427e-05
0.000923747
0.000109324
0.00132314
0.000154449
0.00171689
0.000198246
0.00208726
0.000237248
0.00241997
0.000269227
0.00270675
0.000293294
0.00294608
0.000309702
0.00314215
0.000319462
0.0033029
0.000323933
0.00343778
0.000324483
0.00355592
0.000322278
0.003665
0.000318197
0.00377084
0.000312844
0.0038774
0.000306594
0.00398714
0.000299655
0.00410125
0.00029211
0.00422003
0.004343
0.000283961
8.869e-06
0.000164271
3.24634e-05
0.000512466
6.7837e-05
0.000888374
0.000111203
0.00127978
0.000158212
0.00166988
0.000204539
0.00204093
0.000246546
0.00237797
0.000281764
0.00267154
0.000309065
0.00291878
0.000328513
0.0031227
0.00034101
0.0032904
0.00034789
0.0034309
0.000350553
0.00355326
0.000350231
0.00366533
0.000347882
0.00377319
0.000344175
0.00388111
0.000339536
0.00399178
0.000334205
0.00410658
0.000328285
0.00422595
0.00434951
0.000321779
8.81427e-06
0.000155457
3.2489e-05
0.000488791
6.83286e-05
0.000852534
0.000112758
0.00123535
0.000161538
0.0016211
0.000210321
0.00199215
0.000255313
0.00233297
0.000293808
0.00263304
0.000324426
0.00288816
0.000347024
0.0031001
0.000362379
0.00327505
0.000371776
0.00342151
0.000376639
0.0035484
0.000378265
0.0036637
0.000377688
0.00377376
0.00037565
0.00388315
0.000372632
0.0039948
0.000368911
0.0041103
0.000364614
0.00423025
0.00435437
0.000359753
8.73446e-06
0.000146722
3.24186e-05
0.000465107
6.8615e-05
0.000816337
0.000113977
0.00118999
0.000164406
0.00157067
0.000215556
0.001941
0.000263497
0.00228503
0.000305295
0.00259124
0.000339309
0.00285414
0.000365171
0.00307424
0.000383507
0.00325671
0.000395539
0.00340948
0.000402701
0.00354124
0.000406347
0.00366005
0.000407591
0.00377252
0.000407249
0.00388349
0.000405865
0.00399618
0.000403759
0.0041124
0.000401087
0.00423292
0.00435758
0.00039787
8.63031e-06
0.000138092
3.22531e-05
0.000441484
6.8695e-05
0.000779896
0.000114854
0.00114383
0.000166796
0.00151873