/*--------------------------------*- C++ -*----------------------------------*\
  =========                 |
  \\      /  F ield         | OpenFOAM: The Open Source CFD Toolbox
   \\    /   O peration     | Website:  https://openfoam.org
    \\  /    A nd           | Version:  7
     \\/     M anipulation  |
\*---------------------------------------------------------------------------*/
FoamFile
{
    version     2.0;
    format      ascii;
    class       volVectorField;
    location    "220";
    object      U;
}
// * * * * * * * * * * * * * * * * * * * * * * * * * * * * * * * * * * * * * //

dimensions      [0 1 -1 0 0 0 0];

internalField   nonuniform List<vector> 
4575
(
(-0.00605887 -0.168571 1.02478e-21)
(-0.0109516 -0.194715 1.78666e-21)
(-0.017029 -0.213337 -1.30091e-20)
(-0.024089 -0.225727 2.20299e-21)
(-0.0319103 -0.233195 -8.59852e-21)
(-0.0402706 -0.236987 -1.83584e-20)
(-0.048965 -0.238205 1.55524e-20)
(-0.0578181 -0.237756 4.58325e-21)
(-0.0666913 -0.236318 -5.46668e-21)
(-0.0754841 -0.23433 6.67808e-21)
(-0.0841322 -0.232012 9.12602e-21)
(-0.092602 -0.229388 -5.73768e-21)
(-0.100882 -0.22633 -7.71478e-21)
(-0.108978 -0.222586 -1.84932e-20)
(-0.116934 -0.217819 -1.43501e-21)
(-0.124664 -0.211627 -3.14336e-21)
(-0.13199 -0.203517 -6.23881e-21)
(-0.00437034 -0.165742 -1.95378e-20)
(-0.0094989 -0.191208 8.9334e-21)
(-0.0159828 -0.209262 5.38618e-20)
(-0.0235648 -0.221207 -3.28145e-20)
(-0.0319816 -0.228355 5.62237e-21)
(-0.0409815 -0.231942 2.62886e-20)
(-0.0503416 -0.233058 -7.68211e-23)
(-0.059879 -0.232589 1.52462e-20)
(-0.0694566 -0.23119 -2.00579e-20)
(-0.0789826 -0.229281 2.09193e-20)
(-0.0884069 -0.227064 -1.80294e-20)
(-0.0977138 -0.22455 -6.87821e-21)
(-0.106911 -0.221601 3.49654e-20)
(-0.116025 -0.217959 -1.07066e-20)
(-0.125117 -0.213289 1.6732e-21)
(-0.134102 -0.207189 -2.04092e-20)
(-0.142809 -0.199156 -2.10799e-21)
(-0.00276701 -0.162492 4.90826e-20)
(-0.008128 -0.187261 -3.89084e-20)
(-0.015002 -0.20475 -6.00055e-20)
(-0.0230769 -0.216269 5.40106e-20)
(-0.0320478 -0.223122 -1.45374e-20)
(-0.0416342 -0.226532 -7.43225e-21)
(-0.0515955 -0.227569 -3.64052e-20)
(-0.0617413 -0.227095 9.66196e-21)
(-0.0719352 -0.225743 3.54629e-20)
(-0.0820934 -0.223912 -7.4753e-21)
(-0.0921792 -0.221785 2.86291e-20)
(-0.102194 -0.219361 -2.33626e-20)
(-0.112164 -0.216493 -7.48729e-21)
(-0.122136 -0.212922 5.55568e-20)
(-0.13219 -0.208313 -3.46779e-21)
(-0.142239 -0.202273 8.63519e-20)
(-0.152115 -0.194295 -2.03272e-20)
(-0.00126464 -0.158842 -4.55298e-20)
(-0.00685347 -0.182897 2.73148e-20)
(-0.0140991 -0.19983 -4.79209e-21)
(-0.0226354 -0.210943 -8.95479e-20)
(-0.032117 -0.217529 -9.28941e-21)
(-0.0422348 -0.22079 -1.93238e-20)
(-0.0527308 -0.221773 -2.67286e-21)
(-0.0634067 -0.221313 -3.33228e-20)
(-0.0741264 -0.220019 3.70629e-20)
(-0.084813 -0.218267 -5.48464e-20)
(-0.0954417 -0.216223 -1.64405e-21)
(-0.10603 -0.213873 1.49132e-20)
(-0.116622 -0.211062 -1.13572e-19)
(-0.127284 -0.207531 -9.10295e-20)
(-0.138115 -0.202951 4.91954e-20)
(-0.149026 -0.19694 -6.66873e-20)
(-0.159843 -0.188989 2.43128e-21)
(0.00012175 -0.154812 -2.25075e-21)
(-0.00568935 -0.178142 1.37917e-20)
(-0.0132866 -0.194529 2.42495e-21)
(-0.022251 -0.20526 4.55895e-20)
(-0.032198 -0.211608 5.31681e-20)
(-0.0427906 -0.214752 2.22819e-20)
(-0.0537535 -0.215706 7.88259e-20)
(-0.0648801 -0.215282 -8.94249e-20)
(-0.0760338 -0.21406 -1.89759e-20)
(-0.087143 -0.212393 3.9364e-20)
(-0.0981936 -0.21043 -6.71886e-20)
(-0.109217 -0.208142 3.05451e-20)
(-0.120275 -0.205368 7.12365e-20)
(-0.131452 -0.20185 1.80859e-20)
(-0.142868 -0.197268 2.33069e-20)
(-0.15443 -0.191252 -3.77102e-20)
(-0.16595 -0.183302 4.95805e-21)
(0.00137779 -0.150426 3.85323e-20)
(-0.00464912 -0.173024 3.3519e-20)
(-0.0125765 -0.188877 1.54606e-20)
(-0.0219344 -0.199251 2.80803e-20)
(-0.0323001 -0.205394 -1.98633e-20)
(-0.04331 -0.208451 -1.20022e-19)
(-0.0546715 -0.209407 -1.05884e-19)
(-0.0661691 -0.209043 -6.78082e-20)
(-0.0776645 -0.20791 2.57614e-20)
(-0.0890901 -0.206338 -1.46655e-20)
(-0.10044 -0.204456 1.10403e-19)
(-0.11176 -0.202224 -3.95259e-20)
(-0.123124 -0.199473 3.16636e-20)
(-0.134637 -0.195945 4.6637e-20)
(-0.14644 -0.191333 -2.66233e-20)
(-0.158435 -0.18528 2.21993e-19)
(-0.170413 -0.177301 -8.28292e-20)
(0.00249009 -0.145709 -2.42954e-20)
(-0.00374555 -0.16757 1.06795e-20)
(-0.0119804 -0.182905 1.62842e-20)
(-0.021696 -0.19295 5.3851e-20)
(-0.0324332 -0.198918 1.15633e-20)
(-0.0438024 -0.201923 4.63319e-21)
(-0.0554941 -0.202913 1.89792e-19)
(-0.0672835 -0.202634 1.41338e-19)
(-0.0790291 -0.201612 -8.33167e-20)
(-0.0906654 -0.20015 -1.22677e-20)
(-0.102193 -0.198358 -3.29804e-20)
(-0.113668 -0.196181 3.20809e-20)
(-0.12518 -0.193443 -1.67573e-19)
(-0.136848 -0.189888 -3.42047e-20)
(-0.148837 -0.185219 -5.22332e-20)
(-0.161043 -0.1791 -1.25413e-19)
(-0.173232 -0.171061 6.8841e-20)
(0.00344628 -0.140686 -3.15672e-20)
(-0.00299038 -0.161809 -2.81669e-20)
(-0.0115092 -0.176642 4.41981e-20)
(-0.0215459 -0.186386 -7.53329e-20)
(-0.0326068 -0.192215 -1.05745e-20)
(-0.0442775 -0.195201 1.39684e-19)
(-0.0562317 -0.196258 -8.85419e-20)
(-0.0682348 -0.196096 -3.61941e-20)
(-0.0801406 -0.195209 4.28986e-20)
(-0.0918839 -0.193877 -1.11442e-20)
(-0.10347 -0.192188 -5.91069e-21)
(-0.114962 -0.190073 4.61262e-20)
(-0.126462 -0.187347 -1.19811e-19)
(-0.138105 -0.183752 4.31946e-20)
(-0.15008 -0.179007 -3.13842e-20)
(-0.162276 -0.172791 -6.9996e-20)
(-0.174427 -0.164661 2.60686e-20)
(-0.00239427 -0.155769 1.01871e-19)
(-0.0111729 -0.170119 -1.05364e-19)
(-0.0214934 -0.179591 -5.08857e-20)
(-0.03283 -0.185314 -8.79847e-20)
(-0.0447448 -0.188319 -9.56349e-20)
(-0.0568951 -0.189477 -6.2091e-20)
(-0.0690356 -0.189464 -8.30772e-20)
(-0.0810142 -0.188743 1.5079e-19)
(-0.0927637 -0.187566 -1.71553e-20)
(-0.104291 -0.186001 -3.39907e-20)
(-0.115665 -0.183961 -1.7704e-19)
(-0.126998 -0.181252 9.97122e-20)
(-0.138439 -0.177614 2.56466e-20)
(-0.150201 -0.172775 6.03065e-20)
(-0.162169 -0.166438 4.01035e-20)
(-0.174038 -0.158181 -1.06336e-19)
(-0.0019664 -0.14948 8.92568e-20)
(-0.0109798 -0.163367 -6.94303e-20)
(-0.0215465 -0.172596 1.49681e-19)
(-0.0331109 -0.178249 8.68783e-21)
(-0.0452131 -0.181308 1.35574e-19)
(-0.0574945 -0.182604 -7.77821e-20)
(-0.0696985 -0.182775 1.25636e-19)
(-0.0816657 -0.182253 -1.22318e-19)
(-0.0933246 -0.181262 -1.09722e-19)
(-0.104681 -0.179848 9.25345e-20)
(-0.115808 -0.177905 3.24745e-19)
(-0.126823 -0.175227 -1.76419e-19)
(-0.137889 -0.171548 1.44363e-19)
(-0.149246 -0.166608 3.21735e-20)
(-0.160773 -0.160124 -1.21002e-19)
(-0.172126 -0.151708 1.01406e-19)
(-0.00171427 -0.142971 -6.99687e-20)
(-0.0109369 -0.156416 1.60996e-19)
(-0.0217116 -0.165431 -2.91676e-20)
(-0.033456 -0.171047 3.82679e-21)
(-0.0456898 -0.174197 -1.86524e-19)
(-0.0580389 -0.175668 1.17342e-19)
(-0.0702353 -0.176062 2.62755e-20)
(-0.0821105 -0.175775 -3.32973e-20)
(-0.0935868 -0.175006 4.28818e-20)
(-0.104667 -0.173777 -1.68191e-19)
(-0.115422 -0.171963 -9.36819e-20)
(-0.125976 -0.169339 1.93355e-19)
(-0.136503 -0.165632 -1.06567e-19)
(-0.147268 -0.160587 -1.49892e-19)
(-0.158152 -0.153939 2.74745e-19)
(-0.168762 -0.145328 -1.9534e-21)
(-0.00164336 -0.136272 -4.47534e-20)
(-0.0110489 -0.149293 -5.21969e-20)
(-0.0219931 -0.158124 -2.16919e-19)
(-0.0338698 -0.163736 2.67695e-20)
(-0.0461801 -0.167014 -9.02873e-20)
(-0.0585354 -0.168699 3.14103e-19)
(-0.0706556 -0.169353 -1.8102e-19)
(-0.0823623 -0.169341 1.11248e-19)
(-0.0935692 -0.168836 -3.38037e-20)
(-0.104272 -0.167834 1.821e-19)
(-0.11454 -0.166187 1.44532e-20)
(-0.124497 -0.163651 -1.51974e-19)
(-0.134329 -0.159939 -2.60106e-20)
(-0.144326 -0.154796 7.78084e-21)
(-0.154374 -0.147967 -1.35172e-20)
(-0.164032 -0.139126 1.77455e-19)
(-0.00175694 -0.129411 -1.01679e-20)
(-0.0113182 -0.142029 -8.56582e-20)
(-0.0223927 -0.150703 1.90174e-19)
(-0.0343539 -0.156344 -2.08327e-20)
(-0.0466864 -0.159785 2.26412e-19)
(-0.0589878 -0.16172 -2.50494e-19)
(-0.070966 -0.162674 6.57951e-20)
(-0.0824315 -0.162981 7.6335e-20)
(-0.0932875 -0.162784 -2.48593e-21)
(-0.103521 -0.162056 -1.16962e-21)
(-0.113193 -0.160624 -1.40239e-19)
(-0.122428 -0.158221 1.96878e-20)
(-0.131418 -0.154537 1.82337e-19)
(-0.140481 -0.149312 2.29426e-19)
(-0.149513 -0.142295 -2.68495e-19)
(-0.158022 -0.133186 -1.73107e-19)
(-0.00205578 -0.122416 1.62248e-19)
(-0.0117444 -0.134652 1.64108e-19)
(-0.0229092 -0.143194 -6.41381e-20)
(-0.0349066 -0.148895 2.74872e-19)
(-0.047207 -0.152531 -2.76334e-19)
(-0.0593956 -0.154753 1.20885e-19)
(-0.0711683 -0.156047 1.2246e-19)
(-0.0823236 -0.156715 -9.95898e-21)
(-0.0927524 -0.156876 9.73685e-22)
(-0.102429 -0.156475 1.58491e-20)
(-0.111407 -0.155315 -1.07719e-19)
(-0.119804 -0.153098 1.05214e-19)
(-0.127817 -0.149488 -5.41755e-20)
(-0.135791 -0.144208 -1.18888e-19)
(-0.143639 -0.137002 1.49603e-19)
(-0.15082 -0.127587 3.08662e-20)
(-0.00253823 -0.115317 -1.07486e-19)
(-0.0123242 -0.127187 -1.11588e-19)
(-0.023538 -0.135622 1.78686e-19)
(-0.0355225 -0.14141 -9.15221e-20)
(-0.0477363 -0.145273 7.18307e-20)
(-0.0597535 -0.147815 6.84139e-21)
(-0.0712586 -0.149487 -1.88123e-20)
(-0.0820374 -0.150562 4.60678e-20)
(-0.091967 -0.15113 -9.05113e-20)
(-0.101008 -0.151113 4.77845e-20)
(-0.109199 -0.150288 1.48409e-19)
(-0.116651 -0.148323 -2.12403e-19)
(-0.123563 -0.144846 -1.33436e-19)
(-0.130305 -0.139551 1.71712e-19)
(-0.136816 -0.132162 -1.00205e-19)
(-0.142501 -0.122403 -1.47754e-19)
(-0.00319943 -0.108142 -2.57959e-20)
(-0.0130511 -0.119662 -9.39782e-20)
(-0.0242707 -0.128011 -1.76426e-19)
(-0.0361915 -0.13391 -1.32799e-19)
(-0.0482631 -0.138027 -2.62527e-19)
(-0.06005 -0.140922 2.5519e-20)
(-0.0712256 -0.143008 -2.22333e-20)
(-0.0815632 -0.14453 -1.80767e-19)
(-0.0909249 -0.145556 1.52972e-19)
(-0.0992544 -0.145985 1.86196e-19)
(-0.106575 -0.145563 -8.97907e-21)
(-0.112985 -0.143925 1.10707e-19)
(-0.118681 -0.140652 -5.48395e-20)
(-0.124059 -0.135395 7.75157e-21)
(-0.129089 -0.127842 1.44339e-19)
(-0.133125 -0.117698 3.4427e-19)
(-0.0139148 -0.112104 1.28756e-19)
(-0.0250949 -0.120384 -4.60014e-20)
(-0.0368991 -0.126416 -1.32387e-19)
(-0.0487707 -0.13081 2.13811e-19)
(-0.0602665 -0.134083 -5.75128e-20)
(-0.07105 -0.136615 4.12293e-20)
(-0.0808817 -0.138624 2.17643e-19)
(-0.0896079 -0.140157 -2.98844e-19)
(-0.0971543 -0.141091 -8.09788e-20)
(-0.103525 -0.141146 -1.54375e-19)
(-0.108803 -0.139916 3.08594e-19)
(-0.113177 -0.13693 9.40625e-21)
(-0.117069 -0.131781 1.60624e-19)
(-0.120484 -0.124094 -6.0975e-20)
(-0.122724 -0.113529 -3.20634e-19)
(-0.0149015 -0.104536 7.80603e-20)
(-0.0259936 -0.112763 -3.83696e-21)
(-0.0376252 -0.118943 3.40497e-19)
(-0.0492361 -0.123633 1.28974e-19)
(-0.060377 -0.127307 -2.34215e-19)
(-0.0707029 -0.130311 1.14069e-20)
(-0.0799618 -0.132842 -9.1975e-21)
(-0.0879843 -0.134926 3.13032e-19)
(-0.0946763 -0.136423 -3.4421e-19)
(-0.100021 -0.137028 9.41964e-20)
(-0.104081 -0.136295 1.62606e-21)
(-0.107034 -0.13369 -2.28403e-19)
(-0.109322 -0.128731 -2.31128e-19)
(-0.110996 -0.120957 -2.91807e-20)
(-0.111297 -0.109938 3.18293e-19)
(-0.0159937 -0.0969856 -2.93333e-19)
(-0.0269456 -0.10517 -7.97461e-20)
(-0.0383447 -0.111509 -1.78169e-19)
(-0.0496297 -0.116508 -8.29835e-20)
(-0.0603474 -0.120598 1.45801e-19)
(-0.0701454 -0.124095 2.92512e-19)
(-0.0787603 -0.127174 -3.22865e-19)
(-0.0860067 -0.129848 -1.19031e-19)
(-0.0917705 -0.131961 4.23676e-19)
(-0.0960116 -0.133187 -1.49317e-19)
(-0.0987696 -0.133039 -2.11306e-19)
(-0.100205 -0.130917 2.61207e-19)
(-0.100777 -0.126248 5.42271e-20)
(-0.100587 -0.118451 4.80217e-20)
(-0.0987992 -0.106952 -2.02508e-19)
(-0.0171698 -0.0894769 5.25389e-20)
(-0.0279254 -0.0976241 3.41466e-19)
(-0.039027 -0.10413 -2.13023e-19)
(-0.0499153 -0.109445 5.04778e-20)
(-0.0601353 -0.113959 -9.98877e-20)
(-0.0693283 -0.117961 -3.97176e-19)
(-0.0772206 -0.121606 2.37418e-19)
(-0.0836117 -0.124899 1.868e-19)
(-0.088367 -0.127672 -3.26996e-19)
(-0.0914221 -0.129582 7.63528e-20)
(-0.0927908 -0.130106 2.92747e-19)
(-0.0926118 -0.128576 1.09721e-19)
(-0.091354 -0.124308 3.82454e-20)
(-0.0891782 -0.116573 -2.17882e-19)
(-0.0851416 -0.104582 -1.04339e-19)
(-0.0289027 -0.0901481 -4.73982e-20)
(-0.0396361 -0.0968214 3.21808e-20)
(-0.0500503 -0.102452 1.9884e-19)
(-0.05969 -0.107392 2.49063e-19)
(-0.068192 -0.111901 -1.07926e-20)
(-0.0752733 -0.116122 -5.37308e-20)
(-0.080719 -0.12005 -3.08678e-19)
(-0.0843751 -0.123514 2.27137e-19)
(-0.086152 -0.126161 -1.98889e-20)
(-0.0860362 -0.127437 -1.30342e-19)
(-0.0841386 -0.126603 -6.30848e-19)
(-0.0809334 -0.122859 2.15741e-19)
(-0.076647 -0.115292 1.15768e-20)
(-0.0701831 -0.102815 -1.26706e-19)
(-0.0298435 -0.0827631 -2.82801e-19)
(-0.0401315 -0.0895991 1.75201e-19)
(-0.049986 -0.0955397 -2.04585e-20)
(-0.0589533 -0.100897 -3.92301e-19)
(-0.066667 -0.105909 7.47309e-20)
(-0.072836 -0.110702 4.09569e-20)
(-0.0772323 -0.115268 -6.97529e-20)
(-0.0796833 -0.119439 1.8186e-19)
(-0.0800752 -0.122858 3.45592e-19)
(-0.0783657 -0.124949 -2.18737e-19)
(-0.0746343 -0.124912 1.75624e-19)
(-0.0693536 -0.121818 4.04469e-20)
(-0.062828 -0.114546 2.27653e-19)
(-0.0537322 -0.101616 9.84409e-20)
(-0.0307101 -0.0754911 3.21381e-19)
(-0.0404679 -0.0824803 -2.30501e-19)
(-0.0496683 -0.0887178 6.89859e-20)
(-0.0578603 -0.0944785 2.83583e-19)
(-0.0646753 -0.0999751 2.67563e-19)
(-0.0698153 -0.105324 1.0178e-19)
(-0.0730407 -0.110518 4.40799e-19)
(-0.0741615 -0.115393 -5.99522e-20)
(-0.0730412 -0.119597 -4.47935e-19)
(-0.0696099 -0.122548 2.15594e-19)
(-0.063912 -0.123388 -1.10299e-19)
(-0.0564124 -0.121067 -2.52529e-19)
(-0.0475136 -0.114239 -1.72603e-19)
(-0.0355492 -0.10092 -1.68623e-19)
(-0.0314616 -0.0683554 -4.08875e-19)
(-0.0405967 -0.0754832 1.56504e-19)
(-0.0490387 -0.0819987 -1.42449e-19)
(-0.0563404 -0.0881397 -2.37113e-19)
(-0.0621317 -0.0940952 8.0164e-21)
(-0.0661087 -0.0999721 -5.83359e-19)
(-0.068021 -0.105764 -4.44764e-19)
(-0.0676637 -0.111319 1.3736e-19)
(-0.0648798 -0.1163 6.81148e-20)
(-0.0595734 -0.120124 -1.42007e-19)
(-0.0517531 -0.121899 5.34287e-19)
(-0.0418712 -0.120458 -8.07062e-20)
(-0.0304611 -0.114235 2.12579e-19)
(-0.0153576 -0.100621 1.82738e-19)
(-0.0404665 -0.0686279 2.16087e-19)
(-0.0480355 -0.0753969 -1.28211e-20)
(-0.0543191 -0.0818881 9.88634e-20)
(-0.0589461 -0.0882672 2.95097e-19)
(-0.0616069 -0.0946309 6.08635e-19)
(-0.062042 -0.100976 4.78233e-20)
(-0.0600331 -0.107166 -2.59254e-19)
(-0.0554054 -0.112884 4.67673e-20)
(-0.0480411 -0.117565 4.35932e-19)
(-0.0379142 -0.120296 -2.87026e-19)
(-0.0254614 -0.119812 2.79233e-22)
(-0.0114018 -0.114348 2.02831e-19)
(0.00712159 -0.100518 -1.25695e-19)
(-0.0400239 -0.0619368 -5.56371e-20)
(-0.046595 -0.0689298 -1.21623e-19)
(-0.0517197 -0.075735 1.96758e-19)
(-0.0550256 -0.082494 -2.25024e-19)
(-0.0561979 -0.0892929 -7.14938e-20)
(-0.0549683 -0.0961319 -7.81847e-21)
(-0.0511071 -0.10289 1.8126e-19)
(-0.0444254 -0.109279 -1.60146e-19)
(-0.0347878 -0.114761 -2.93975e-19)
(-0.0221367 -0.118426 -8.54594e-20)
(-0.006888 -0.118937 -1.20642e-19)
(0.00998092 -0.114354 -3.55824e-19)
(0.0321318 -0.100257 -1.00374e-19)
(-0.0392147 -0.0554343 -2.59211e-19)
(-0.0446527 -0.0626184 1.47686e-19)
(-0.0484651 -0.0696963 -4.36015e-19)
(-0.0502777 -0.0767848 -2.15862e-19)
(-0.0497698 -0.0839578 3.5179e-21)
(-0.0466654 -0.0912172 1.84756e-19)
(-0.0407251 -0.0984589 -1.18343e-19)
(-0.0317491 -0.105424 2.94688e-19)
(-0.0195897 -0.111618 -7.04521e-20)
(-0.00416241 -0.116151 8.98034e-20)
(0.0141543 -0.11765 3.21486e-19)
(0.0341131 -0.11406 4.14011e-20)
(0.0599944 -0.0995578 1.91623e-19)
(-0.0421453 -0.0564865 -2.89197e-19)
(-0.0444798 -0.0637924 8.3285e-20)
(-0.0446121 -0.0711552 8.02987e-21)
(-0.0422152 -0.0786344 -2.10135e-19)
(-0.0370051 -0.0862308 1.52693e-19)
(-0.0287347 -0.0938547 -1.17607e-19)
(-0.0171972 -0.101279 -2.08961e-19)
(-0.00223891 -0.108058 -2.64954e-19)
(0.0162412 -0.11335 6.36436e-20)
(0.0379103 -0.115799 8.49657e-20)
(0.0613865 -0.113298 -7.64863e-20)
(0.0912212 -0.0984466 3.1132e-19)
(-0.0390107 -0.0505615 -8.19501e-20)
(-0.0396916 -0.0580486 6.78177e-19)
(-0.0379439 -0.0656274 4.88259e-20)
(-0.033434 -0.0733404 -7.30719e-20)
(-0.0258699 -0.0811836 -4.76203e-19)
(-0.0149987 -0.0890777 8.98668e-20)
(-0.000610821 -0.0968255 -2.25305e-19)
(0.0174454 -0.104033 1.45389e-19)
(0.0392712 -0.10993 1.28925e-19)
(0.0645494 -0.113226 -4.69944e-19)
(0.0918882 -0.111785 -1.38825e-19)
(0.126198 -0.0969141 -4.64541e-19)
(-0.0351905 -0.0448733 2.84661e-20)
(-0.0340326 -0.052494 -2.04125e-19)
(-0.0301948 -0.0602296 2.92334e-19)
(-0.0233359 -0.0681023 1.57871e-21)
(-0.0131565 -0.0760989 3.5732e-19)
(0.000600297 -0.084145 2.38056e-19)
(0.0181419 -0.0920676 4.01108e-20)
(0.0396089 -0.0995245 4.74027e-19)
(0.0650899 -0.105829 -4.17234e-19)
(0.0942596 -0.109788 1.88346e-19)
(0.125623 -0.109306 1.40874e-19)
(0.164888 -0.094679 1.15851e-19)
(-0.0274402 -0.0471608 -3.38515e-19)
(-0.0212948 -0.0549944 -2.57329e-19)
(-0.0118429 -0.0629533 1.20334e-19)
(0.00122127 -0.0710103 -3.39352e-19)
(0.018156 -0.0790891 2.31197e-20)
(0.0391608 -0.0870333 1.27813e-19)
(0.0643546 -0.0945471 9.62665e-20)
(0.0937981 -0.101031 2.80078e-19)
(0.127152 -0.105417 5.48046e-20)
(0.162689 -0.105786 -1.95049e-19)
(0.207187 -0.0913879 1.99896e-19)
(-0.0198583 -0.0420832 2.92361e-19)
(-0.011182 -0.0499578 -1.49563e-19)
(0.00111088 -0.0579317 4.62211e-21)
(0.0173321 -0.0659589 8.20649e-20)
(0.0377376 -0.0739545 1.69957e-19)
(0.0625121 -0.0817691 -2.05172e-20)
(0.0917409 -0.0891435 -4.62666e-20)
(0.125438 -0.0955608 -2.25853e-19)
(0.163241 -0.100088 -1.46187e-19)
(0.203092 -0.101149 -1.33282e-19)
(0.252969 -0.0867983 2.02353e-19)
(0.00019605 -0.0451565 1.03901e-19)
(0.0155793 -0.0530776 3.66819e-20)
(0.0352275 -0.0609899 -1.63569e-19)
(0.05939 -0.0687927 -3.72845e-19)
(0.0882291 -0.0763341 1.85466e-19)
(0.121783 -0.0833785 -8.79723e-20)
(0.159999 -0.0894788 -1.9028e-20)
(0.202468 -0.0938314 3.54025e-19)
(0.246747 -0.095344 3.51656e-19)
(0.301999 -0.0807334 -5.16091e-19)
(0.0128859 -0.0406257 1.05325e-20)
(0.031605 -0.0484302 -2.52636e-19)
(0.0549436 -0.0561479 3.33235e-19)
(0.0831373 -0.0636569 2.14564e-19)
(0.116316 -0.0707926 -4.10294e-19)
(0.154457 -0.0773292 -3.3982e-19)
(0.197419 -0.0828703 7.6134e-20)
(0.244711 -0.0867213 4.24513e-19)
(0.293499 -0.0883802 1.86586e-19)
(0.353917 -0.0730668 9.45646e-20)
(0.0269267 -0.0363969 -4.89037e-19)
(0.0492226 -0.0440244 -4.42933e-19)
(0.0765042 -0.0514733 -4.36948e-20)
(0.108986 -0.0585957 -2.35576e-20)
(0.146754 -0.0652061 1.43784e-19)
(0.189708 -0.071075 9.18622e-20)
(0.237598 -0.0758326 1.1505e-19)
(0.289798 -0.0788675 -5.25292e-19)
(0.343154 -0.0803151 -1.36158e-19)
(0.408246 -0.0637399 3.47589e-19)
(0.0684599 -0.0398878 1.95025e-19)
(0.0999229 -0.0469981 -1.79053e-19)
(0.136927 -0.0536489 -2.45085e-19)
(0.179502 -0.0596274 -3.0042e-20)
(0.227453 -0.0646884 2.41085e-19)
(0.280403 -0.0684611 -1.53347e-19)
(0.337511 -0.0704007 5.83177e-20)
(0.3955 -0.0712425 1.23607e-19)
(0.464423 -0.052783 2.94333e-19)
(0.08934 -0.0360383 8.92848e-20)
(0.125206 -0.042743 -1.2086e-19)
(0.166943 -0.0488435 2.84205e-19)
(0.214506 -0.0540957 -2.46286e-20)
(0.267589 -0.0582288 -6.1592e-20)
(0.325672 -0.0608387 -9.575e-20)
(0.38759 -0.0614581 1.44956e-19)
(0.450284 -0.0612391 -3.51328e-19)
(0.521743 -0.0402264 -4.49776e-19)
(0.152355 -0.0387151 4.50351e-19)
(0.199002 -0.0441917 -4.04223e-20)
(0.251695 -0.048635 -8.55103e-20)
(0.309994 -0.0517415 -1.07039e-20)
(0.373227 -0.0530394 2.05211e-19)
(0.43977 -0.0521803 3.49477e-19)
(0.507199 -0.0502327 -9.49382e-20)
(0.579092 -0.0257932 3.30769e-19)
(0.181364 -0.0349066 -1.52527e-19)
(0.233064 -0.0396891 -1.11043e-19)
(0.290977 -0.0432537 -3.57633e-19)
(0.354519 -0.0452635 -9.37121e-20)
(0.422875 -0.045154 7.80746e-21)
(0.49389 -0.0427473 -2.38883e-19)
(0.56616 -0.0379619 1.15642e-19)
(0.635121 -0.00917257 -2.33521e-19)
(0.269073 -0.0353142 -1.79344e-19)
(0.332234 -0.0379441 4.32687e-19)
(0.400969 -0.0388271 2.59024e-19)
(0.474349 -0.0373158 6.19043e-20)
(0.549854 -0.0334284 -2.6169e-19)
(0.62777 -0.024513 -1.58167e-20)
(0.691121 0.00685582 -3.89001e-19)
(0.306952 -0.0310267 -8.42607e-20)
(0.37531 -0.032677 7.82446e-20)
(0.449069 -0.032443 -1.36472e-19)
(0.527194 -0.0296528 -1.53567e-19)
(0.607075 -0.0245533 3.13049e-19)
(0.691663 -0.0114876 -9.50017e-20)
(0.754789 0.0131169 1.00292e-20)
(0.420016 -0.0273972 -1.7083e-19)
(0.498492 -0.0260712 4.76839e-20)
(0.580842 -0.0221688 -6.08801e-20)
(0.664336 -0.0163621 -3.01966e-20)
(0.752619 -0.00245631 7.11173e-20)
(0.821293 0.009296 7.13265e-19)
(0.548889 -0.0196258 6.38754e-21)
(0.63475 -0.014745 -3.15788e-19)
(0.720837 -0.00848222 -8.25506e-20)
(0.8103 0.00513268 3.79119e-19)
(0.880921 0.0102669 -4.12381e-19)
(0.599901 -0.0130031 3.26244e-19)
(0.688446 -0.00722467 1.01217e-19)
(0.776021 -0.000539312 5.57633e-19)
(0.864896 0.0125653 -3.45928e-19)
(0.935048 0.0146906 5.53749e-19)
(0.741496 0.000517927 1.27347e-19)
(0.829455 0.00765156 7.32807e-20)
(0.916401 0.0202137 -5.95449e-19)
(0.984793 0.0210919 -3.24903e-19)
(0.880758 0.0161628 1.01288e-19)
(0.964699 0.0282076 4.65082e-19)
(1.03035 0.0287942 -3.12296e-19)
(0.929584 0.0250002 -3.5773e-19)
(1.00965 0.0365569 2.22709e-19)
(1.07176 0.0373272 9.96363e-20)
(1.05111 0.0452017 -3.51641e-19)
(1.10907 0.0463355 4.8165e-19)
(1.14234 0.0555555 -2.41215e-19)
(1.32342 -0.0198306 -2.6128e-19)
(1.25283 -0.0203296 -8.05333e-19)
(1.30278 -0.0136137 4.645e-19)
(1.14598 -0.0136335 -5.38122e-19)
(1.22236 -0.0152516 4.26737e-19)
(1.27856 -0.00780702 -1.39327e-19)
(1.10484 -0.00927585 -3.08212e-19)
(1.18817 -0.0107956 9.21219e-19)
(1.25048 -0.00261093 -2.11091e-19)
(0.961834 -0.00667527 1.21492e-20)
(1.06031 -0.00570114 -8.41744e-20)
(1.15021 -0.0070808 -8.98868e-19)
(1.21828 0.00169765 -4.79865e-19)
(0.802459 -0.00541911 -4.60525e-20)
(0.910655 -0.00483353 1.34595e-19)
(1.01264 -0.00300979 5.52519e-19)
(1.10849 -0.00420079 -1.92777e-19)
(1.18174 0.00473439 5.64969e-19)
(0.749165 -0.00563824 2.85179e-19)
(0.8578 -0.00399053 -2.84704e-19)
(0.962168 -0.00128174 -5.06946e-19)
(1.0631 -0.00218282 8.64085e-19)
(1.14062 0.00595857 -5.49901e-19)
(0.590089 -0.0103383 -3.9865e-20)
(0.695922 -0.00696092 -5.09874e-19)
(0.803851 -0.00416447 1.91753e-19)
(0.909355 -0.000553181 3.49361e-19)
(1.01418 -0.000893694 8.59006e-21)
(1.09407 0.00429527 7.36928e-19)
(0.444336 -0.0185936 4.77318e-19)
(0.540911 -0.0139393 -1.20639e-19)
(0.643363 -0.00939648 -3.50495e-19)
(0.749465 -0.00534576 -8.73811e-20)
(0.854842 -0.000777635 5.65708e-19)
(0.961755 0.000451849 1.88816e-20)
(1.04147 -0.00271314 -2.52162e-19)
(0.402207 -0.0242676 1.08528e-19)
(0.493788 -0.0186353 3.45491e-19)
(0.592123 -0.0129428 1.8254e-19)
(0.695373 -0.00753006 2.1202e-19)
(0.799515 -0.00189901 -6.42812e-19)
(0.905301 0.00338824 1.44601e-19)
(0.99328 -0.00583068 -5.46494e-19)
(0.285077 -0.037093 2.95483e-20)
(0.362899 -0.0309346 -2.65729e-19)
(0.449171 -0.0244 -1.22229e-19)
(0.542816 -0.0175921 -2.77991e-19)
(0.642348 -0.0107457 -1.20983e-19)
(0.744475 -0.00395149 4.6699e-20)
(0.848148 0.00543577 -2.85152e-19)
(0.946502 -0.00307272 -2.32477e-20)
(0.2543 -0.0452569 4.13066e-19)
(0.326642 -0.0385414 3.91449e-20)
(0.40744 -0.031194 1.86983e-19)
(0.495987 -0.0233336 -2.79213e-19)
(0.591135 -0.0150708 4.39089e-19)
(0.690572 -0.00699434 1.17166e-19)
(0.791511 0.00552106 1.68486e-19)
(0.897559 0.00013456 6.05685e-19)
(0.167858 -0.0603071 3.18821e-19)
(0.226566 -0.0541889 3.1909e-20)
(0.293575 -0.0470192 1.3903e-19)
(0.368874 -0.0389606 1.92479e-19)
(0.452078 -0.0301377 -8.49108e-20)
(0.542346 -0.0205587 -3.43067e-19)
(0.638355 -0.0111162 1.69953e-19)
(0.735842 0.00362917 -2.24433e-19)
(0.845868 0.00168033 -6.43484e-19)
(0.147758 -0.0700386 3.3276e-19)
(0.201832 -0.0638045 -1.06071e-19)
(0.263748 -0.0562816 -1.16419e-19)
(0.333647 -0.0476212 -3.80958e-19)
(0.411408 -0.0379451 5.29501e-19)
(0.496466 -0.0271948 -1.52997e-19)
(0.588342 -0.0163699 -1.01519e-19)
(0.681808 2.12146e-05 1.4925e-19)
(0.792735 0.00148693 4.80081e-19)
(0.0874145 -0.0848716 7.05947e-19)
(0.130186 -0.0802752 -5.2669e-19)
(0.179987 -0.0740056 -4.04144e-19)
(0.237117 -0.0662255 -2.73977e-19)
(0.301819 -0.0570746 5.99312e-19)
(0.374175 -0.046666 -3.4784e-21)
(0.453858 -0.0349053 1.62592e-19)
(0.541052 -0.0227531 -6.17124e-19)
(0.630125 -0.00511323 4.0315e-20)
(0.739541 -0.000363985 3.01989e-19)
(0.0755211 -0.0952851 -5.51796e-20)
(0.114949 -0.0909191 -1.42153e-19)
(0.160858 -0.0846826 2.27165e-19)
(0.213556 -0.0767331 2.96366e-19)
(0.273346 -0.0672002 -7.31623e-19)
(0.340455 -0.0561848 -2.93529e-19)
(0.414755 -0.0435783 2.96074e-19)
(0.496904 -0.0302182 3.68224e-19)
(0.58135 -0.0116579 4.10759e-19)
(0.687506 -0.00411837 2.33904e-20)
(0.0346449 -0.107843 -1.16759e-19)
(0.0653764 -0.105964 -7.71827e-20)
(0.101822 -0.101865 4.07372e-19)
(0.144219 -0.0957175 -4.18867e-19)
(0.192864 -0.0876758 -2.41814e-19)
(0.248086 -0.0778627 1.10373e-19)
(0.310201 -0.066366 1.99098e-19)
(0.379244 -0.0530768 -1.74505e-19)
(0.456171 -0.0386755 2.80791e-19)
(0.535829 -0.0194624 3.9621e-19)
(0.637168 -0.00953511 -3.89638e-19)
(0.0282205 -0.118241 4.55864e-19)
(0.05676 -0.116815 -3.56506e-19)
(0.0905574 -0.113006 4.14908e-19)
(0.12981 -0.106988 -5.31273e-20)
(0.174785 -0.0989194 1.74077e-19)
(0.225812 -0.088918 -1.08975e-19)
(0.283257 -0.0770606 -1.02546e-19)
(0.347275 -0.0632461 6.58775e-20)
(0.418976 -0.0479984 -6.94308e-19)
(0.493796 -0.028368 7.12241e-20)
(0.589382 -0.016555 3.28533e-19)
(0.0228411 -0.128724 -7.3205e-19)
(0.0494498 -0.127743 8.7882e-20)
(0.0809001 -0.124231 -1.74154e-19)
(0.117346 -0.118372 -1.87329e-19)
(0.159021 -0.110329 -7.35594e-20)
(0.206238 -0.100219 5.44533e-19)
(0.259376 -0.0881131 -1.09217e-19)
(0.318679 -0.073922 -1.2286e-19)
(0.385296 -0.0580344 3.93133e-19)
(0.455336 -0.0381965 -1.66202e-19)
(0.544677 -0.0250238 -6.30405e-20)
(-0.00215051 -0.136906 1.28597e-19)
(0.0183293 -0.139209 -7.28212e-20)
(0.0432302 -0.138652 1.69945e-19)
(0.0725945 -0.135434 1.16179e-20)
(0.106537 -0.12975 5.82796e-19)
(0.145254 -0.121773 4.42923e-19)
(0.189033 -0.111624 6.88351e-20)
(0.238245 -0.0993698 6.64705e-20)
(0.293186 -0.0849396 7.09861e-20)
(0.354974 -0.068618 1.456e-19)
(0.420384 -0.0487643 1.71874e-19)
(0.50333 -0.0347139 2.39479e-19)
(-0.00474233 -0.146788 4.05426e-20)
(0.0145217 -0.149617 5.06417e-19)
(0.0378981 -0.149454 4.7418e-19)
(0.0653964 -0.146515 -9.28285e-20)
(0.0970967 -0.141012 -7.50732e-19)
(0.133163 -0.133129 -1.26865e-19)
(0.17385 -0.122998 -3.17335e-19)
(0.219507 -0.110685 4.78452e-19)
(0.270461 -0.0961405 1.19558e-19)
(0.327746 -0.0795802 -6.03458e-19)
(0.388745 -0.0598865 -2.84887e-19)
(0.465419 -0.0453729 -1.14762e-18)
(-0.00689824 -0.156567 -1.89307e-19)
(0.0112701 -0.159872 1.81616e-19)
(0.0332683 -0.160064 -1.52819e-19)
(0.0590799 -0.15738 -3.35754e-19)
(0.0887573 -0.152055 2.49924e-19)
(0.122435 -0.144288 -6.91962e-20)
(0.160338 -0.13422 -2.88894e-19)
(0.202789 -0.121925 -3.84308e-19)
(0.250122 -0.107379 1.97997e-19)
(0.303267 -0.0907573 1.28149e-19)
(0.360123 -0.0713793 -1.88788e-19)
(0.430838 -0.056739 5.6326e-19)
(-0.022227 -0.159004 4.42687e-20)
(-0.00871826 -0.16618 3.04047e-19)
(0.00844459 -0.169902 -7.09074e-19)
(0.0291766 -0.170402 -2.87131e-19)
(0.0534423 -0.167946 1.07574e-19)
(0.0812738 -0.16279 3.78135e-20)
(0.112782 -0.155151 -1.36453e-19)
(0.148168 -0.145184 3.7856e-19)
(0.187724 -0.132976 -2.99505e-20)
(0.231779 -0.118526 2.44805e-19)
(0.281149 -0.101998 1.1496e-19)
(0.334156 -0.0830665 5.26341e-19)
(0.399338 -0.0685501 2.36509e-19)
(-0.0230829 -0.167911 -1.37111e-19)
(-0.010287 -0.175565 7.87474e-20)
(0.00593373 -0.17964 2.43288e-19)
(0.025481 -0.180401 -2.45328e-19)
(0.0483072 -0.17814 -2.70889e-19)
(0.0744309 -0.173139 3.45976e-21)
(0.103947 -0.165636 6.44705e-20)
(0.137036 -0.155803 3.55692e-20)
(0.173964 -0.143738 -2.80427e-19)
(0.215049 -0.129469 -2.74789e-19)
(0.260991 -0.113166 -7.68161e-20)
(0.310447 -0.0947862 -5.42419e-19)
(0.370575 -0.0805645 -1.81739e-19)
(-0.0237895 -0.176608 8.48487e-20)
(-0.0116752 -0.184663 5.42228e-20)
(0.00364423 -0.189026 2.37023e-21)
(0.0220623 -0.189996 5.60875e-19)
(0.0435253 -0.187897 7.02266e-19)
(0.0680449 -0.183038 1.10578e-19)
(0.0957068 -0.175677 -2.50413e-19)
(0.126676 -0.166004 1.00883e-19)
(0.161199 -0.154133 5.3638e-19)
(0.199577 -0.140119 -5.12491e-19)
(0.242406 -0.124147 -7.78497e-20)
(0.288596 -0.106396 2.21363e-19)
(0.344159 -0.0925712 -3.61876e-19)
(-0.0326927 -0.172602 1.76375e-19)
(-0.0243876 -0.185041 1.11142e-19)
(-0.0129402 -0.193421 -1.65097e-19)
(0.0014999 -0.198007 -3.22225e-19)
(0.0188228 -0.199135 -1.74571e-19)
(0.0389737 -0.197165 -7.56394e-19)
(0.0619636 -0.192433 -3.44623e-19)
(0.0878749 -0.18522 3.4777e-20)
(0.116864 -0.175731 1.4266e-20)
(0.149161 -0.164097 -6.81032e-20)
(0.185051 -0.150401 5.48667e-19)
(0.225036 -0.134847 3.06044e-19)
(0.268222 -0.117776 -1.38278e-19)
(0.319681 -0.104397 4.84683e-19)
(-0.0327501 -0.180345 3.67689e-19)
(-0.024909 -0.193162 -2.94171e-19)
(-0.0141275 -0.201788 1.42114e-19)
(-0.000559863 -0.206533 3.1717e-19)
(0.0156845 -0.207772 7.69533e-20)
(0.0345544 -0.2059 3.06225e-19)
(0.0560651 -0.201283 6.42487e-19)
(0.0803005 -0.194222 -5.22752e-20)
(0.107414 -0.18494 -5.26801e-19)
(0.137625 -0.173584 2.36588e-19)
(0.171203 -0.160259 -3.09206e-19)
(0.208569 -0.145189 -4.19567e-19)
(0.24898 -0.12883 -2.84331e-19)
(0.29675 -0.115908 -2.21464e-19)
(-0.0327446 -0.187814 -4.22731e-19)
(-0.0253782 -0.200923 4.84584e-19)
(-0.0152721 -0.209721 -3.75129e-19)