/*--------------------------------*- C++ -*----------------------------------*\
  =========                 |
  \\      /  F ield         | OpenFOAM: The Open Source CFD Toolbox
   \\    /   O peration     | Website:  https://openfoam.org
    \\  /    A nd           | Version:  7
     \\/     M anipulation  |
\*---------------------------------------------------------------------------*/
FoamFile
{
    version     2.0;
    format      ascii;
    class       volScalarField;
    location    "80";
    object      p;
}
// * * * * * * * * * * * * * * * * * * * * * * * * * * * * * * * * * * * * * //

dimensions      [0 2 -2 0 0 0 0];

internalField   nonuniform List<scalar> 
7156
(
0.2405
0.248209
0.255772
0.268171
0.263184
0.275775
0.27044
0.283214
0.277534
0.290482
0.284461
0.304555
0.297572
0.291214
0.311786
0.304479
0.297789
0.31882
0.311196
0.30418
0.325649
0.317717
0.310382
0.340177
0.332267
0.324037
0.316389
0.346908
0.338669
0.33015
0.322197
0.353406
0.344847
0.33605
0.3278
0.359664
0.350798
0.341731
0.333194
0.365676
0.356515
0.34719
0.338374
0.380896
0.371437
0.361993
0.35242
0.343335
0.386686
0.376941
0.367227
0.357417
0.348073
0.392201
0.382183
0.372211
0.362176
0.352585
0.397435
0.387159
0.376942
0.366693
0.356865
0.402384
0.391862
0.381414
0.370963
0.360911
0.407043
0.39629
0.385624
0.374982
0.364718
0.411407
0.400438
0.389568
0.378747
0.368284
0.426736
0.415472
0.404301
0.393241
0.382255
0.371604
0.430693
0.419234
0.407877
0.396641
0.385501
0.374678
0.434328
0.422689
0.411161
0.399764
0.388483
0.3775
0.437637
0.425835
0.414151
0.402607
0.391198
0.38007
0.440617
0.428667
0.416843
0.405168
0.393643
0.382385
0.443264
0.431185
0.419236
0.407444
0.395817
0.384443
0.445577
0.433384
0.421327
0.409433
0.397717
0.386242
0.447553
0.435263
0.423114
0.411133
0.399342
0.38778
0.44919
0.436821
0.424595
0.412543
0.400689
0.389057
0.450487
0.438055
0.42577
0.413661
0.401759
0.39007
0.451443
0.438965
0.426637
0.414487
0.402549
0.390821
0.452057
0.43955
0.427195
0.41502
0.403059
0.391307
0.452328
0.43981
0.427444
0.415258
0.40329
0.391529
0.452256
0.439744
0.427384
0.415204
0.40324
0.391485
0.451843
0.439353
0.427015
0.414856
0.40291
0.391176
0.451087
0.438637
0.426337
0.414214
0.4023
0.390603
0.44999
0.437598
0.425352
0.413281
0.401412
0.389768
0.448554
0.436236
0.424061
0.412057
0.400246
0.38867
0.44678
0.434553
0.422465
0.410542
0.398804
0.387311
0.44467
0.43255
0.420566
0.40874
0.397086
0.385693
0.442226
0.430231
0.418365
0.406652
0.395096
0.383816
0.439452
0.427597
0.415866
0.40428
0.392835
0.381682
0.436349
0.424652
0.413071
0.401626
0.390305
0.379294
0.432922
0.421398
0.409983
0.398694
0.387509
0.376654
0.417839
0.406604
0.395486
0.384451
0.373765
0.413979
0.402939
0.392006
0.381132
0.370629
0.409821
0.398992
0.388257
0.377557
0.367249
0.40537
0.394766
0.384243
0.373728
0.363629
0.400631
0.390265
0.379968
0.369651
0.359772
0.395609
0.385495
0.375436
0.365329
0.355681
0.390308
0.38046
0.370653
0.360766
0.351361
0.375165
0.365622
0.355966
0.346815
0.369615
0.360349
0.350936
0.342047
0.363817
0.354839
0.345678
0.337063
0.357775
0.349097
0.340199
0.331867
0.351495
0.343128
0.334504
0.326462
0.33694
0.328599
0.320855
0.330537
0.322487
0.31505
0.323925
0.316177
0.309052
0.317111
0.309673
0.302867
0.302981
0.2965
0.296108
0.289956
0.289059
0.28324
0.281841
0.276359
0.269318
0.262121
0.254776
0.115671
0.116329
0.117636
0.119494
0.121856
0.124672
0.127903
0.131508
0.135446
0.139673
0.144138
0.148783
0.153535
0.158314
0.163014
0.16752
0.171682
0.175346
0.178301
0.180352
0.181216
0.180676
0.178345
0.174055
0.167226
0.157955
0.145057
0.114889
0.115524
0.116779
0.118562
0.120823
0.123511
0.126582
0.129994
0.133701
0.137653
0.141795
0.146061
0.150374
0.154647
0.158766
0.162615
0.166037
0.168879
0.170932
0.172008
0.171839
0.170227
0.166822
0.161491
0.153725
0.143652
0.130339
0.114061
0.11467
0.115871
0.117575
0.119728
0.12228
0.125185
0.128394
0.131859
0.135528
0.139336
0.143217
0.147087
0.150853
0.1544
0.157608
0.160322
0.162391
0.163614
0.163817
0.16275
0.160249
0.155996
0.149916
0.141569
0.13116
0.118005
0.113182
0.113765
0.114907
0.116527
0.118568
0.120978
0.123708
0.126707
0.129923
0.133298
0.136766
0.140254
0.143674
0.146931
0.149907
0.152481
0.154501
0.155819
0.156246
0.155624
0.153723
0.150409
0.145409
0.138682
0.129888
0.119238
0.106273
0.112253
0.112807
0.113889
0.115423
0.117347
0.11961
0.12216
0.124944
0.127904
0.130982
0.134106
0.137199
0.140172
0.142925
0.145341
0.1473
0.148653
0.149261
0.148946
0.147566
0.14492
0.140894
0.135267
0.128021
0.118909
0.108119
0.0953455
0.111274
0.111798
0.112818
0.114261
0.116066
0.118178
0.120543
0.123108
0.12581
0.128588
0.131366
0.134067
0.136597
0.138858
0.140732
0.142102
0.142826
0.142773
0.141781
0.139725
0.13643
0.131807
0.125683
0.118055
0.108758
0.0979513
0.0854499
0.110244
0.110736
0.111693
0.113043
0.114725
0.116683
0.118861
0.121202
0.123644
0.12612
0.128555
0.130867
0.132963
0.134745
0.136098
0.136909
0.137044
0.136382
0.13478
0.132127
0.128279
0.123167
0.116662
0.108776
0.0994066
0.088696
0.0765504
0.109163
0.109623
0.110515
0.11177
0.113326
0.115126
0.117114
0.11923
0.12141
0.123585
0.125679
0.127609
0.129282
0.130601
0.131457
0.13174
0.131329
0.130112
0.127964
0.124791
0.120479
0.114975
0.108193
0.100152
0.0908025
0.0802752
0.0685404
0.108031
0.108458
0.109283
0.110441
0.111869
0.11351
0.115305
0.117195
0.119113
0.12099
0.122747
0.124303
0.125566
0.126442
0.126826
0.126617
0.125702
0.123984
0.121356
0.117738
0.113043
0.107236
0.100264
0.092157
0.0829039
0.0726245
0.061334
0.106848
0.107241
0.107999
0.109058
0.110356
0.111836
0.113438
0.115102
0.11676
0.118341
0.119769
0.120961
0.12183
0.122284
0.122225
0.121559
0.120186
0.11802
0.114973
0.11098
0.10598
0.0999499
0.0928666
0.0847673
0.0756714
0.0656882
0.0548643
0.105615
0.105974
0.106662
0.107621
0.108789
0.110107
0.111516
0.112955
0.114355
0.115646
0.116753
0.117594
0.118086
0.118141
0.117668
0.116583
0.114797
0.112237
0.108831
0.10453
0.0992925
0.0931109
0.0859838
0.0779547
0.0690646
0.0594134
0.0490699
0.104331
0.104656
0.105275
0.106133
0.107169
0.108325
0.109542
0.110758
0.111905
0.112913
0.113708
0.114213
0.114346
0.114027
0.113173
0.111706
0.109552
0.106649
0.10294
0.0983921
0.092981
0.0867104
0.0795971
0.0716891
0.0630428
0.0537489
0.0438914
0.102999
0.103288
0.103838
0.104595
0.105499
0.106495
0.107521
0.108517
0.109415
0.110149
0.110645
0.110829
0.110624
0.109957
0.108752
0.106942
0.104463
0.101266
0.0973089
0.09257
0.0870413
0.0807363
0.0736853
0.0659395
0.0575658
0.0486455
0.0392727
0.101618
0.101872
0.102352
0.103008
0.103782
0.104617
0.105456
0.106236
0.106894
0.107362
0.107571
0.107451
0.10693
0.105942
0.104419
0.102303
0.0995421
0.0960974
0.0919415
0.0870628
0.0814665
0.075174
0.068226
0.0606748
0.0525944
0.0440571
0.0351623
0.10019
0.100409
0.100819
0.101375
0.102019
0.102697
0.103351
0.103922
0.104346
0.104559
0.104495
0.104089
0.103276
0.101993
0.100184
0.0977988
0.0947969
0.0911491
0.0868399
0.0818674
0.0762473
0.0700073
0.0631954
0.0558642
0.0480911
0.03994
0.0315126
0.098717
0.0989001
0.0992419
0.0996977
0.100214
0.100737
0.101211
0.101578
0.101778
0.101748
0.101427
0.100755
0.0996708
0.0981215
0.0960579
0.0934391
0.0902345
0.0864245
0.0820037
0.0769784
0.0713726
0.0652186
0.0585696
0.0514771
0.04402
0.0362539
0.0282804
0.0971993
0.0973475
0.0976213
0.097979
0.0983701
0.0987422
0.0990416
0.0992124
0.0991968
0.0989368
0.0983748
0.0974548
0.0961243
0.0943357
0.0920486
0.0892303
0.0858596
0.0819251
0.0774304
0.0723884
0.0668297
0.0607897
0.0543246
0.0474844
0.0403473
0.0329611
0.025426
0.0956393
0.095753
0.0959598
0.0962215
0.09649
0.0967154
0.0968461
0.0968288
0.0966089
0.0961321
0.0953454
0.0941983
0.0926446
0.0906438
0.088163
0.0851778
0.0816749
0.0776507
0.0731157
0.0680887
0.0626049
0.0567018
0.0504368
0.0438577
0.0370409
0.0300271
0.0229134
0.0940387
0.0941187
0.0942601
0.094428
0.0945774
0.094661
0.0946298
0.0944332
0.0940204
0.0933409
0.0923467
0.0909928
0.0892393
0.0870525
0.0844069
0.0812852
0.0776817
0.0735991
0.069054
0.0640694
0.0586837
0.0529358
0.0468829
0.0405701
0.034071
0.0274199
0.0207098
0.0923999
0.0924468
0.0925246
0.0926015
0.0926359
0.0925833
0.0923974
0.0920312
0.0914374
0.0905699
0.0893856
0.0878451
0.0859149
0.0835675
0.0807844
0.077555
0.0738798
0.0697671
0.0652383
0.0603196
0.0550515
0.049473
0.0436405
0.037596
0.0314099
0.02511
0.0187854
0.0907252
0.0907401
0.0907561
0.0907452
0.0906691
0.0904863
0.0901539
0.0896281
0.0888657
0.0878252
0.0864684
0.0847615
0.082677
0.0801935
0.0772988
0.0739881
0.0702676
0.0661501
0.0616606
0.0568277
0.051693
0.0462949
0.0406881
0.0349115
0.0290314
0.0230706
0.0171131
0.0890171
0.089001
0.0889577
0.0888625
0.0886809
0.0883745
0.087904
0.0872292
0.0863111
0.0851127
0.083601
0.0817475
0.0795304
0.0769341
0.073952
0.0705846
0.0668426
0.0627427
0.0583125
0.053582
0.0485932
0.0433833
0.038005
0.0324936
0.0269117
0.021277
0.0156686
0.0872783
0.0872325
0.0871324
0.0869568
0.086675
0.0862522
0.0856525
0.0848396
0.0837788
0.0824378
0.0807886
0.0788078
0.0764789
0.0737919
0.070745
0.0673433
0.0636012
0.0595385
0.0551846
0.0505704
0.0457371
0.0407209
0.0355715
0.0303213
0.0250284
0.0197064
0.0144294
0.0855119
0.0854377
0.0852834
0.0850317
0.0846554
0.0841236
0.0834039
0.0824642
0.081274
0.0798056
0.0780359
0.0759464
0.0735258
0.0707687
0.0676778
0.0642621
0.060539
0.0565306
0.0522674
0.0477805
0.0431101
0.0382907
0.0333691
0.0283745
0.023361
0.0183381
0.0133752
0.0837207
0.0836196
0.0834143
0.0830908
0.0826261
0.081993
0.0811629
0.0801077
0.0788014
0.0772206
0.075347
0.0731668
0.0706733
0.0678654
0.0647496
0.0613382
0.057651
0.0537116
0.049551
0.0452002
0.0406979
0.0360766
0.0313801
0.0266348
0.0218903
0.0171531
0.0124877
0.081908
0.0817816
0.0815283
0.0811379
0.0805911
0.0798646
0.0789338
0.0777746
0.0763653
0.0746869
0.0727254
0.0704717
0.0679231
0.0650822
0.061959
0.0585682
0.0549316
0.0510737
0.0470256
0.0428175
0.0384866
0.0340632
0.0295881
0.0250847
0.0205987
0.0161339
0.01175
0.080077
0.0799271
0.0796291
0.0791766
0.0785543
0.0777425
0.0767209
0.0754692
0.0739697
0.0722081
0.0701743
0.0678632
0.065276
0.0624186
0.0593036
0.055948
0.0523747
0.0486088
0.0446811
0.0406207
0.0364628
0.0322358
0.0279773
0.0237081
0.0194701
0.0152645
0.0111468
0.0782313
0.0780594
0.0777203
0.0772108
0.0765195
0.0756308
0.0745281
0.0731952
0.0716184
0.0697873
0.0676959
0.0653428
0.0627323
0.0598734
0.0567808
0.0534731
0.0499741
0.0463089
0.0425076
0.0385982
0.0346138
0.0305806
0.0265333
0.0224901
0.0184894
0.0145302
0.010664
0.0763742
0.0761823
0.0758055
0.0752442
0.0744907
0.0735334
0.0723594
0.0709564
0.0693146
0.0674274
0.0652924
0.0629115
0.0602919
0.057445
0.0543874
0.0511387
0.0477231
0.0441657
0.0404954
0.0367389
0.0329272
0.0290844
0.0252422
0.0214167
0.0176427
0.0139176
0.0102889
0.0745094
0.0742992
0.0738884
0.0732805
0.0724717
0.071454
0.0702183
0.0687561
0.0670613
0.0651306
0.0629651
0.0605697
0.0579539
0.0551313
0.0521197
0.0489396
0.0456152
0.042171
0.0386349
0.035032
0.0313913
0.0277347
0.0240913
0.0204749
0.0169172
0.0134143
0.0100097
0.0726403
0.0724138
0.0719726
0.0713234
0.0704661
0.0693962
0.0681083
0.0665974
0.0648609
0.0628989
0.0607152
0.0583174
0.0557172
0.0529298
0.0499739
0.0468705
0.0436434
0.0403167
0.0369168
0.0334673
0.0299951
0.02652
0.0230685
0.0196527
0.0163011
0.0130088
0.00981575
0.0707708
0.0705298
0.0700619
0.0693767
0.0684774
0.0673634
0.0660325
0.0644831
0.0627158
0.0607336
0.0585431
0.0561542
0.0535802
0.0508375
0.0479457
0.0449258
0.0418011
0.0385949
0.0353321
0.0320349
0.0287279
0.0254292
0.0221628
0.018939
0.0157836
0.0126907
0.00969714
0.0689043
0.0686508
0.0681598
0.0674437
0.0665092
0.0653588
0.0639937
0.0624156
0.0606277
0.058636
0.0564493
0.0540793
0.0515409
0.0488515
0.0460308
0.0430999
0.0400815
0.0369977
0.0338721
0.0307253
0.0275798
0.024452
0.0213636
0.0183233
0.0153544
0.0124505
0.0096449
0.0670445
0.0667803
0.0662698
0.065528
0.0645647
0.0633855
0.0619948
0.060397
0.0585983
0.0566067
0.0544334
0.0520915
0.0495972
0.0469682
0.0442247
0.0413873
0.0384779
0.0355176
0.0325285
0.0295295
0.0265413
0.0235788
0.0206613
0.0177962
0.0150045
0.0122792
0.0096508
0.065195
0.0649219
0.0643954
0.063633
0.062647
0.0614463
0.060038
0.0584293
0.0566287
0.0546464
0.0524951
0.0501895
0.0477465
0.0451843
0.0425229
0.0397823
0.0369838
0.0341473
0.0312931
0.028439
0.0256037
0.0228005
0.0200468
0.0173487
0.0147252
0.0121687
0.00970728
0.0633592
0.0630791
0.0625401
0.0617617
0.0607591
0.0595438
0.0581257
0.0565141
0.0547198
0.052755
0.0506337
0.0483716
0.0459862
0.043496
0.0409205
0.0382795
0.0355929
0.0328795
0.0301585
0.0274458
0.0247586
0.0221087
0.0195117
0.0169727
0.0145086
0.0121117
0.00980746
0.0615406
0.0612552
0.0607069
0.0599173
0.0589038
0.0576805
0.0562596
0.0546527
0.0528725
0.0509325
0.0488482
0.0466359
0.0443135
0.0418996
0.0394132
0.0368733
0.0342989
0.0317077
0.0291172
0.0265422
0.0239981
0.0214955
0.0190483
0.0166606
0.0143475
0.0121013
0.00994503
0.0597426
0.0594535
0.0588991
0.0581026
0.0570836
0.0558585
0.0544415
0.0528463
0.051087
0.0491786
0.0471374
0.0449803
0.0427256
0.0403913
0.0379962
0.0355584
0.033096
0.0306252
0.0281624
0.025721
0.023315
0.0209536
0.0186493
0.0164054
0.0142353
0.0121313
0.0101142
0.0579683
0.0576771
0.0571196
0.0563204
0.055301
0.0540798
0.0526729
0.0510957
0.0493635
0.0474926
0.0454999
0.0434028
0.0412192
0.0389673
0.036665
0.0343297
0.0319782
0.0296259
0.0272876
0.0249756
0.0227024
0.0204763
0.0183081
0.0162008
0.0141659
0.012196
0.0103099
0.0562208
0.0559291
0.0553713
0.0545733
0.0535582
0.0523462
0.050955
0.0494015
0.0477021
0.0458739
0.0439342
0.0419008
0.0397915
0.0376239
0.0354153
0.0331821
0.0309402
0.0287038
0.0264866
0.0242995
0.0221539
0.0200571
0.0180186
0.0160407
0.0141336
0.0122901
0.0105272
0.0545032
0.0542123
0.0536568
0.0528636
0.0518572
0.0506592
0.0492889
0.0477641
0.0461024
0.0443214
0.0424387
0.0404722
0.0384394
0.0363573
0.0342426
0.0321108
0.0299767
0.0278534
0.0257535
0.0236869
0.0216636
0.0196902
0.017775
0.0159197
0.0141335
0.0124091
0.0107618
0.052818
0.0525293
0.0519785
0.0511935
0.0501998
0.0490203
0.0476754
0.0461839
0.0445641
0.0428341
0.0410117
0.0391144
0.0371596
0.0351638
0.0331427
0.031111
0.0290826
0.0270695
0.025083
0.0231322
0.0212261
0.0193703
0.0175722
0.015833
0.0141608
0.0125485
0.0110099
0.0511681
0.0508826
0.0503389
0.049565
0.0485876
0.0474305
0.046115
0.0446608
0.0430866
0.0414107
0.0396511
0.037825
0.0359493
0.0340398
0.0321116
0.0301785
0.0282532
0.0263469
0.0244699
0.0226303
0.0208362
0.0190923
0.0174054
0.015776
0.0142112
0.0127045
0.011268
0.0495557
0.0492747
0.0487399
0.04798
0.047022
0.0458908
0.0446083
0.0431948
0.0416692
0.0400501
0.0383552
0.0366015
0.0348054
0.0329819
0.0311454
0.0293088
0.027484
0.025681
0.0239094
0.0221764
0.0204891
0.0188518
0.0172701
0.0157445
0.0142811
0.0128736
0.011533
0.0479831
0.0477075
0.0471835
0.0464399
0.0455044
0.0444021
0.0431556
0.0417855
0.0403111
0.0387508
0.037122
0.0354415
0.0337248
0.0319867
0.0302404
0.028498
0.0267707
0.0250675
0.0233972
0.0217661
0.0201807
0.0186445
0.0171625
0.0157348
0.0143669
0.0130527
0.0118019
0.0464525
0.0461831
0.0456715
0.0449464
0.0440356
0.0429648
0.0417569
0.0404327
0.0390114
0.0375113
0.0359495
0.0343424
0.0327048
0.0310508
0.0293929
0.0277423
0.0261093
0.0245023
0.022929
0.0213953
0.0199068
0.0184665
0.0170788
0.0157436
0.0144656
0.013239
0.0120725
0.0449655
0.0447031
0.0442053
0.0435005
0.0426167
0.0415796
0.0404123
0.0391358
0.037769
0.0363301
0.0348358
0.0333018
0.0317426
0.0301712
0.0285995
0.027038
0.025496
0.0239814
0.0225011
0.0210602
0.0196638
0.0183144
0.0170158
0.0157677
0.0145742
0.0134299
0.0123424
0.043524
0.0432692
0.0427863
0.0421033
0.0412482
0.0402466
0.0391216
0.0378941
0.0365829
0.0352058
0.0337789
0.0323175
0.0308353
0.0293448
0.027857
0.0263817
0.0249275
0.0235015
0.0221099
0.0207574
0.0194483
0.0181849
0.0169705
0.0158045
0.0146904
0.0136233
0.0126097
0.0421293
0.0418827
0.0414156
0.0407558
0.0399307
0.038966
0.0378846
0.036707
0.035452
0.0341366
0.0327769
0.0313871
0.0299805
0.0285688
0.0271623
0.0257702
0.0244003
0.0230591
0.0217522
0.0204837
0.0192574
0.0180753
0.0169401
0.0158514
0.0148119
0.0138171
0.0128729
0.0407827
0.0405447
0.0400943
0.0394585
0.0386646
0.0377378
0.0367007
0.0355737
0.0343749
0.0331212
0.0318277
0.0305083
0.0291756
0.0278404
0.0265127
0.0252006
0.0239115
0.0226513
0.0214249
0.0202361
0.0190882
0.0179829
0.0169224
0.0159062
0.0149368
0.0140098
0.0131303
0.0394852
0.0392562
0.038823
0.0382121
0.0374501
0.0365618
0.0355696
0.0344932
0.0333506
0.0321578
0.0309296
0.0296791
0.0284181
0.0271572
0.0259052
0.02467
0.0234582
0.0222751
0.0211253
0.0200121
0.0189383
0.0179053
0.0169151
0.0159671
0.0150634
0.0141998
0.0133809
0.0382378
0.0380179
0.0376024
0.0370169
0.0362873
0.0354379
0.0344906
0.0334648
0.0323778
0.031245
0.0300806
0.0288972
0.0277059
0.0265166
0.0253375
0.0241759
0.0230378
0.0219282
0.020851
0.0198092
0.0188053
0.0178405
0.0169164
0.0160324
0.0151901
0.0143858
0.0136236
0.0370411
0.0368306
0.036433
0.0358731
0.0351761
0.0343657
0.0334632
0.0324874
0.0314551
0.0303812
0.0292791
0.0281608
0.0270368
0.0259163
0.0248071
0.0237158
0.022648
0.021608
0.0205996
0.0196253
0.0186873
0.0177866
0.0169245
0.0161004
0.0153157
0.0145669
0.0138574
0.0358958
0.0356946
0.035315
0.0347808
0.0341163
0.0333447
0.0324866
0.0315601
0.0305814
0.0295648
0.0285232
0.0274679
0.0264087
0.0253543
0.0243119
0.0232876
0.0222865
0.0213125
0.0203691
0.0194584
0.0185824
0.0177419
0.016938
0.01617
0.0154391
0.0147421
0.0140819
0.034802
0.0346103
0.0342486
0.0337399
0.0331078
0.0323745
0.03156
0.0306818
0.0297554
0.0287945
0.0278114
0.0268167
0.0258197
0.0248285
0.0238497
0.0228891
0.0219512
0.0210397
0.0201576
0.0193068
0.018489
0.017705
0.0169555
0.01624
0.0155593
0.0149106
0.0142963
0.0337602
0.0335778
0.0332338
0.0327505
0.0321502
0.0314545
0.0306826
0.0298514
0.0289758
0.0280688
0.027142
0.0262055
0.025268
0.024337
0.0234187
0.0225185
0.0216404
0.0207878
0.0199634
0.0191689
0.0184058
0.0176746
0.016976
0.0163095
0.0156757
0.0150719
0.0145004
0.0327704
0.0325972
0.0322707
0.0318121
0.031243
0.030584
0.0298536
0.029068
0.0282414
0.0273863
0.0265135
0.0256326
0.0247518
0.0238781
0.0230172
0.022174
0.0213524
0.0205553
0.019785
0.0190433
0.0183313
0.0176495
0.0169985
0.0163776
0.0157875
0.0152256
0.0146937
0.0318326
0.0316683
0.0313589
0.0309245
0.0303857
0.0297624
0.0290721
0.0283305
0.0275511
0.0267456
0.0259245
0.0250966
0.0242697
0.0234502
0.0226436
0.0218542
0.0210856
0.0203406
0.0196212
0.0189288
0.0182646
0.0176289
0.0170222
0.0164438
0.0158942
0.0153712
0.0148762
0.0309466
0.0307911
0.0304982
0.0300873
0.0295779
0.0289889
0.0283374
0.027638
0.0269037
0.0261456
0.0253736
0.024596
0.0238201
0.0230519
0.0222963
0.0215575
0.0208387
0.0201425
0.0194706
0.0188243
0.0182047
0.0176119
0.0170464
0.0165075
0.0159955
0.0155085
0.0150477
0.0301124
0.0299653
0.0296884
0.0293
0.0288189
0.028263
0.0276484
0.0269893
0.026298
0.025585
0.0248596
0.0241295
0.0234017
0.0226817
0.0219741
0.0212827
0.0206106
0.0199598
0.0193322
0.0187289
0.0181507
0.0175978
0.0170705
0.0165682
0.0160911
0.0156374
0.0152082
0.0293296
0.0291905
0.028929
0.0285623
0.0281082
0.0275838
0.0270045
0.0263837
0.0257331
0.0250627
0.0243812
0.0236959
0.0230133
0.0223385
0.0216758
0.0210287
0.0204
0.0197916
0.0192052
0.0186418
0.018102
0.017586
0.017094
0.0166256
0.0161807
0.0157578
0.0153577
0.0285979
0.0284666
0.0282197
0.0278735
0.0274451
0.0269506
0.0264047
0.0258202
0.025208
0.0245777
0.0239374
0.0232941
0.0226537
0.0220211
0.0214002
0.0207944
0.020206
0.019637
0.0190888
0.0185622
0.0180579
0.017576
0.0171167
0.0166794
0.0162643
0.0158697
0.0154964
0.0279171
0.0277931
0.02756
0.0272333
0.0268292
0.0263629
0.0258484
0.0252979
0.0247218
0.024129
0.0235272
0.0229231
0.022322
0.0217286
0.0211465
0.0205789
0.0200278
0.0194952
0.0189822
0.0184896
0.018018
0.0175675
0.0171382
0.0167296
0.0163417
0.0159731
0.0156244
0.0272868
0.0271697
0.0269496
0.0266412
0.0262598
0.02582
0.0253349
0.0248162
0.0242736
0.0237157
0.0231498
0.0225819
0.0220172
0.0214601
0.0209139
0.0203814
0.0198647
0.0193655
0.0188848
0.0184235
0.0179819
0.0175602
0.0171583
0.0167759
0.0164129
0.0160681
0.0157418
0.0267069
0.0265962
0.0263882
0.0260969
0.0257366
0.0253214
0.0248636
0.0243743
0.0238628
0.0233372
0.0228043
0.0222698
0.0217386
0.0212148
0.0207015
0.0202013
0.0197161
0.0192474
0.0187963
0.0183635
0.0179493
0.0175537
0.0171769
0.0168184
0.016478
0.0161548
0.0158489
0.026177
0.0260722
0.0258754
0.0255999
0.0252592
0.0248666
0.0244339
0.0239717
0.0234888
0.0229928
0.0224901
0.0219862
0.0214856
0.0209922
0.0205088
0.0200379
0.0195814
0.0191405
0.0187163
0.0183092
0.0179198
0.017548
0.0171938
0.0168569
0.016537
0.0162333
0.0159459
0.0256971
0.0255978
0.0254112
0.02515
0.0248272
0.0244553
0.0240456
0.023608
0.0231511
0.0226819
0.0222067
0.0217305
0.0212576
0.0207917
0.0203354
0.019891
0.0194603
0.0190444
0.0186443
0.0182605
0.0178934
0.0175429
0.0172091
0.0168915
0.01659
0.0163038
0.0160329
0.0252672
0.0251728
0.0249955
0.0247473
0.0244406
0.0240874
0.0236983
0.023283
0.0228494
0.0224043
0.0219537
0.0215023
0.0210543
0.0206129
0.0201808
0.0197601
0.0193524
0.0189588
0.0185802
0.0182172
0.0178698
0.0175383
0.0172226
0.0169222
0.0166371
0.0163664
0.0161102
0.0248875
0.0247974
0.0246283
0.0243918
0.0240994
0.0237627
0.023392
0.0229964
0.0225834
0.0221598
0.0217309
0.0213015
0.0208753
0.0204556
0.0200448
0.019645
0.0192575
0.0188836
0.0185239
0.018179
0.0178491
0.0175343
0.0172343
0.0169491
0.0166783
0.0164212
0.0161778
0.0245583
0.0244721
0.0243102
0.0240837
0.0238038
0.0234816
0.0231269
0.0227483
0.0223534
0.0219483
0.0215383
0.0211279
0.0207207
0.0203197
0.0199274
0.0195455
0.0191756
0.0188186
0.0184753
0.0181461
0.0178312
0.0175307
0.0172444
0.0169722
0.0167137
0.0164684
0.0162361
0.0242803
0.0241973
0.0240415
0.0238236
0.0235544
0.0232444
0.0229032
0.0225391
0.0221594
0.02177
0.021376
0.0209816
0.0205904
0.0202053
0.0198285
0.0194618
0.0191066
0.0187639
0.0184343
0.0181183
0.017816
0.0175276
0.0172528
0.0169915
0.0167433
0.0165079
0.0162849
0.0240544
0.023974
0.0238233
0.0236123
0.0233518
0.0230518
0.0227216
0.0223694
0.022002
0.0216253
0.0212443
0.020863
0.0204848
0.0201125
0.0197483
0.019394
0.0190507
0.0187195
0.0184011
0.0180957
0.0178037
0.017525
0.0172595
0.0170071
0.0167673
0.0165398
0.0163243
0.0238819
0.0238036
0.0236566
0.023451
0.0231971
0.0229048
0.022583
0.0222398
0.0218819
0.021515
0.0211439
0.0207725
0.0204043
0.0200418
0.0196872
0.0193422
0.0190081
0.0186857
0.0183758
0.0180785
0.0177943
0.017523
0.0172646
0.0170189
0.0167855
0.016564
0.0163542
0.0237645
0.0236875
0.0235432
0.0233413
0.0230919
0.0228048
0.0224888
0.0221517
0.0218003
0.02144
0.0210756
0.0207111
0.0203496
0.0199937
0.0196457
0.0193071
0.0189791
0.0186627
0.0183585
0.0180668
0.0177879
0.0175216
0.017268
0.0170268
0.0167978
0.0165804
0.0163745
0.0237044
0.0236281
0.0234851
0.0232851
0.0230381
0.0227536
0.0224406
0.0221067
0.0217585
0.0214016
0.0210407
0.0206796
0.0203216
0.0199691
0.0196245
0.0192891
0.0189643
0.018651
0.0183497
0.0180608
0.0177846
0.0175209
0.0172698
0.0170309
0.016804
0.0165888
0.0163848
0.122671
0.123402
0.124892
0.127003
0.129727
0.133016
0.136856
0.141237
0.146153
0.151609
0.157604
0.164158
0.171271
0.178972
0.187263
0.196182
0.205724
0.215942
0.226818
0.238418
0.250706
0.263767
0.277528
0.292104
0.307361
0.323478
0.340172
0.357828
0.375747
0.122642
0.123373
0.124862
0.126972
0.129695
0.132982
0.13682
0.141199
0.146111
0.151564
0.157556
0.164105
0.171213
0.178908
0.187193
0.196104
0.205637
0.215844
0.226708
0.238293
0.250565
0.263606
0.277344
0.291893
0.307119
0.3232
0.339851
0.357456
0.375317
0.122609
0.123339
0.124828
0.126936
0.129657
0.132942
0.136778
0.141154
0.146063
0.151512
0.157499
0.164042
0.171144
0.178831
0.187106
0.196006
0.205527
0.215718
0.226564
0.238128
0.250374
0.263385
0.277088
0.291594
0.30677
0.322793
0.339373
0.356896
0.374659
0.122571
0.1233
0.124788
0.126895
0.129614
0.132897
0.13673
0.141103
0.146008
0.151452
0.157433
0.163969
0.171062
0.17874
0.187003
0.19589
0.205393
0.215565
0.226387
0.237923
0.250135
0.263104
0.276759
0.291207
0.306314
0.322256
0.338739
0.356149
0.373774
0.122529
0.123257
0.124744
0.126849
0.129567
0.132847
0.136677
0.141045
0.145946
0.151384
0.157358
0.163887
0.17097
0.178636
0.186884
0.195754
0.205237
0.215384
0.226176
0.237676
0.249845
0.262764
0.276356
0.290732
0.305751
0.32159
0.337948
0.355215
0.372663
0.122482
0.123209
0.124695
0.126798
0.129513
0.132791
0.136617
0.140981
0.145877
0.151308
0.157275
0.163794
0.170865
0.178517
0.186749
0.195599
0.205057
0.215175
0.225931
0.237389
0.249506
0.262363
0.275881
0.290169
0.30508
0.320795
0.337001
0.354093
0.371325
0.122431
0.123157
0.124641
0.126742
0.129455
0.13273
0.136552
0.140911
0.1458
0.151225
0.157182
0.16369
0.170749
0.178386
0.186598
0.195424
0.204854
0.214938
0.225653
0.237061
0.249118
0.261902
0.275333
0.289518
0.304304
0.319871
0.335899
0.352786
0.369763
0.122375
0.1231
0.124582
0.126681
0.129392
0.132663
0.136481
0.140835
0.145717
0.151134
0.157081
0.163577
0.170621
0.17824
0.186431
0.19523
0.204629
0.214674
0.225341
0.236692
0.24868
0.261382
0.274713
0.288779
0.30342
0.318819
0.334641
0.351292
0.367976
0.122315
0.123038
0.124519
0.126615
0.129323
0.13259
0.136403
0.140752
0.145627
0.151035
0.156971
0.163454
0.170482
0.178081
0.186247
0.195018
0.20438
0.214382
0.224996
0.236283
0.248194
0.260803
0.27402
0.287952
0.302431
0.31764
0.333229
0.349614
0.365967
0.12225
0.122972
0.124451
0.126544
0.12925
0.132513
0.136321
0.140663
0.14553
0.150928
0.156853
0.163321
0.170331
0.177908
0.186048
0.194786
0.204108
0.214062
0.224618
0.235834
0.247658
0.260164
0.273255
0.287039
0.301336
0.316333
0.331663
0.347752
0.363736
0.12218
0.122901
0.124378
0.126469
0.129171
0.13243
0.136232
0.140567
0.145427
0.150814
0.156726
0.163178
0.170169
0.177722
0.185833
0.194535
0.203814
0.213715
0.224206
0.235345
0.247073
0.259465
0.272419
0.286038
0.300136
0.314899
0.329945
0.345708
0.361286
0.122106
0.122825
0.124301
0.126389
0.129087
0.132341
0.136138
0.140466
0.145316
0.150692
0.15659
0.163026
0.169995
0.177523
0.185602
0.194265
0.203497
0.21334
0.223761
0.234815
0.24644
0.258708
0.27151
0.284951
0.298831
0.31334
0.328074
0.343483
0.358618
0.122028
0.122745
0.124219
0.126304
0.128999
0.132248
0.136038
0.140358
0.145199
0.150563
0.156446
0.162863
0.16981
0.17731
0.185354
0.193977
0.203157
0.212938
0.223283
0.234245
0.245758
0.257892
0.27053
0.283778
0.297421
0.311656
0.326053
0.341078
0.355734
0.121945
0.122661
0.124132
0.126214
0.128904
0.132149
0.135932
0.140244
0.145074
0.150426
0.156293
0.162691
0.169613
0.177083
0.185092
0.193669
0.202794
0.212509
0.222772
0.233636
0.245027
0.257018
0.26948
0.282519
0.295908
0.309847
0.323883
0.338495
0.352638
0.121857
0.122572
0.12404
0.126119
0.128805
0.132044
0.135821
0.140124
0.144944
0.150281
0.156132
0.162508
0.169405
0.176844
0.184813
0.193343
0.202409
0.212053
0.222228
0.232986
0.244249
0.256085
0.268358
0.281175
0.294292
0.307915
0.321563
0.335736
0.34933
0.121765
0.122478
0.123944
0.12602
0.12871
0.131934
0.135704
0.139998
0.144806
0.150129
0.155962
0.162317
0.169186
0.176591
0.184519
0.192998
0.202002
0.211569
0.221651
0.232297
0.243422
0.255094
0.267166
0.279746
0.292574
0.30586
0.319097
0.332802
0.345813
0.121669
0.12238
0.123844