/*--------------------------------*- C++ -*----------------------------------*\
  =========                 |
  \\      /  F ield         | OpenFOAM: The Open Source CFD Toolbox
   \\    /   O peration     | Website:  https://openfoam.org
    \\  /    A nd           | Version:  7
     \\/     M anipulation  |
\*---------------------------------------------------------------------------*/
FoamFile
{
    version     2.0;
    format      ascii;
    class       surfaceScalarField;
    location    "300";
    object      phi;
}
// * * * * * * * * * * * * * * * * * * * * * * * * * * * * * * * * * * * * * //

dimensions      [0 3 -1 0 0 0 0];

internalField   nonuniform List<scalar> 
8842
(
-7.39741e-07
3.32396e-05
-3.24999e-05
-2.88949e-06
9.87586e-05
-9.66089e-05
0.000164989
-0.000161408
-5.50669e-07
3.37903e-05
-2.2039e-06
0.000100412
0.000167811
-3.64704e-07
3.4155e-05
-1.52602e-06
0.000101573
0.000169877
-1.83734e-07
3.43387e-05
-8.62638e-07
0.000102252
0.000171195
-1.08629e-08
3.43496e-05
-2.20292e-07
0.000102462
0.000171781
1.56076e-07
3.41935e-05
3.95107e-07
0.000102222
0.000171659
3.11276e-07
3.38822e-05
9.77475e-07
0.000101556
0.000170858
4.55133e-07
3.34271e-05
1.52152e-06
0.00010049
0.000169414
5.8627e-07
3.28408e-05
2.02245e-06
9.90537e-05
4.06806e-06
0.000167368
0.000236336
7.03593e-07
3.21372e-05
2.476e-06
9.72813e-05
5.0759e-06
0.000164768
0.000233136
8.06195e-07
3.1331e-05
2.87845e-06
9.52091e-05
5.98067e-06
0.000161666
0.000229226
8.93321e-07
3.04377e-05
3.22668e-06
9.28757e-05
6.77497e-06
0.000158118
0.000224674
9.64369e-07
2.94734e-05
3.51809e-06
9.0322e-05
7.45264e-06
0.000154183
0.000219553
1.01891e-06
2.84544e-05
3.7507e-06
8.75902e-05
8.00872e-06
0.000149925
0.000213942
1.05667e-06
2.73978e-05
3.92316e-06
8.47237e-05
8.4396e-06
0.000145409
0.000207922
1.07754e-06
2.63202e-05
4.03473e-06
8.17665e-05
8.74303e-06
0.000140701
0.000201579
1.08157e-06
2.52387e-05
4.08531e-06
7.87628e-05
8.9182e-06
0.000135868
1.54982e-05
0.000194999
0.000254592
1.06898e-06
2.41697e-05
4.07544e-06
7.57563e-05
8.96577e-06
0.000130977
1.56959e-05
0.000188269
0.000246061
1.04011e-06
2.31296e-05
4.00634e-06
7.27901e-05
8.88788e-06
0.000126096
1.56819e-05
0.000181475
0.000237356
9.95503e-07
2.21341e-05
3.87986e-06
6.99057e-05
8.68831e-06
0.000121287
1.54617e-05
0.000174702
0.000228579
9.35837e-07
2.11982e-05
3.6986e-06
6.7143e-05
8.37241e-06
0.000116614
1.50443e-05
0.00016803
2.37954e-05
0.000219828
0.00027049
8.62004e-07
2.03362e-05
3.46593e-06
6.4539e-05
7.94736e-06
0.000112132
1.44414e-05
0.000161536
2.30731e-05
0.000211196
0.000259606
7.75109e-07
1.95611e-05
3.18607e-06
6.21281e-05
7.42223e-06
0.000107896
1.36684e-05
0.00015529
2.20949e-05
0.000202769
0.000248844
6.76489e-07
1.88846e-05
2.86412e-06
5.99404e-05
6.80805e-06
0.000103952
1.27441e-05
0.000149354
2.08888e-05
0.000194625
0.000238294
5.67745e-07
1.83169e-05
2.50615e-06
5.8002e-05
6.11792e-06
0.00010034
1.1691e-05
0.000143781
1.94889e-05
0.000186827
2.97508e-05
0.000228032
0.00026602
4.50753e-07
1.78661e-05
2.11919e-06
5.63336e-05
5.36707e-06
9.70924e-05
1.05351e-05
0.000138613
1.79348e-05
0.000179427
2.78485e-05
0.000218118
0.000253332
3.27678e-07
1.75385e-05
1.71132e-06
5.495e-05
4.57282e-06
9.42308e-05
9.30638e-06
0.000133879
1.62718e-05
0.000172462
2.57961e-05
0.000208594
0.000240947
2.00969e-07
1.73375e-05
1.29152e-06
5.38594e-05
3.75451e-06
9.17678e-05
8.03801e-06
0.000129596
1.45509e-05
0.000165949
2.36658e-05
0.000199479
3.57281e-05
0.000228885
0.000252912
7.33449e-08
1.72641e-05
8.6968e-07
5.30631e-05
2.93326e-06
8.97043e-05
6.76627e-06
0.000125763
1.28274e-05
0.000159888
2.15365e-05
0.00019077
3.32856e-05
0.000217136
0.000237743
-5.2252e-08
1.73164e-05
4.56375e-07
5.25545e-05
2.13164e-06
8.8029e-05
5.52994e-06
0.000122364
1.11606e-05
0.000154257
1.94929e-05
0.000182438
3.09689e-05
0.00020566
0.00022269
-1.72675e-07
1.74891e-05
6.30675e-08
5.23187e-05
1.37327e-06
8.67188e-05
4.36945e-06
0.000119368
9.61251e-06
0.000149014
1.76234e-05
0.000174427
2.88984e-05
0.000194385
4.39289e-05
0.00020766
0.000213011
-2.84775e-07
1.77738e-05
-2.99449e-07
5.23334e-05
6.8211e-07
8.57373e-05
3.32594e-06
0.000116724
8.24604e-06
0.000144094
1.6018e-05
0.000166655
2.7197e-05
0.000183206
4.23401e-05
0.000192517
0.00019332
-3.85338e-07
1.81592e-05
-6.19655e-07
5.25677e-05
8.20711e-08
8.50355e-05
2.44009e-06
0.000114366
7.12343e-06
0.000139411
1.47655e-05
0.000159013
2.59856e-05
0.000171986
4.14138e-05
0.000177089
6.17176e-05
0.000173016
0.000158384
-4.71285e-07
1.86305e-05
-8.8671e-07
5.29831e-05
-4.04405e-07
8.45532e-05
1.75078e-06
0.000112211
6.30417e-06
0.000134857
1.39508e-05
0.000151366
2.53796e-05
0.000160557
4.13008e-05
0.000161168
6.24745e-05
0.000151842
0.000131116
-5.39791e-07
1.91703e-05
-1.09071e-06
5.3534e-05
-7.56129e-07
8.42186e-05
1.29389e-06
0.000110161
5.84305e-06
0.000130308
1.36517e-05
0.000143558
2.54841e-05
0.000148724
4.21374e-05
0.000144514
6.44724e-05
0.000129507
0.000102145
-5.88392e-07
1.97586e-05
-1.22298e-06
5.41686e-05
-9.54754e-07
8.39504e-05
1.10091e-06
0.000108105
5.78813e-06
0.000125621
1.39364e-05
0.000135409
2.63904e-05
0.00013627
4.40405e-05
0.000126864
6.78539e-05
0.000105694
9.89036e-05
7.10955e-05
2.12332e-05
-6.1509e-07
2.03737e-05
-1.27639e-06
5.48299e-05
-9.85177e-07
8.36592e-05
1.19782e-06
0.000105922
6.17901e-06
0.00012064
1.48606e-05
0.000126728
2.81721e-05
0.000122959
4.7102e-05
0.000107934
7.27279e-05
8.00679e-05
0.000106241
3.7582e-05
-2.14881e-05
-6.18447e-07
2.09922e-05
-1.24571e-06
5.54572e-05
-8.36074e-07
8.32496e-05
1.60418e-06
0.000103482
7.04549e-06
0.000115198
1.64658e-05
0.000117307
3.08829e-05
0.000108542
5.13864e-05
8.74308e-05
7.91647e-05
5.22896e-05
0.000115525
1.22183e-06
0.000161896
-6.78597e-05
-0.000157187
-5.97635e-07
2.15898e-05
-1.12768e-06
5.59872e-05
-5.00281e-07
8.26222e-05
2.3326e-06
0.000100649
8.40663e-06
0.000109124
1.87778e-05
0.000106936
3.45545e-05
9.2765e-05
5.69279e-05
6.50574e-05
8.71947e-05
2.20227e-05
0.000126769
-3.8352e-05
0.000177171
-0.000118262
-0.000220007
-5.52472e-07
2.21423e-05
-9.21159e-07
5.63559e-05
2.62014e-08
8.16748e-05
3.38845e-06
9.72869e-05
1.02704e-05
0.000102242
2.18066e-05
9.54e-05
3.91965e-05
7.53752e-05
6.37307e-05
4.05231e-05
9.6808e-05
-1.10545e-05
0.000139935
-8.14786e-05
0.000194699
-0.000173026
0.00026271
-0.000288018
-0.000428647
-4.83536e-07
2.26258e-05
-6.27572e-07
5.65e-05
7.38418e-07
8.03088e-05
4.76936e-06
9.3256e-05
1.26339e-05
9.43777e-05
2.55466e-05
8.24873e-05
4.47969e-05
5.61249e-05
7.17705e-05
1.35495e-05
0.000107957
-4.72413e-05
0.000154937
-0.000128459
0.000214335
-0.000232424
0.000287735
-0.000361418
-0.000517457
-3.91548e-07
2.30174e-05
-2.48524e-07
5.63569e-05
1.63514e-06
7.84251e-05
6.46798e-06
8.84232e-05
1.54848e-05
8.53609e-05
2.99785e-05
6.79937e-05
5.13248e-05
3.47785e-05
8.09969e-05
-1.61226e-05
0.000120562
-8.68061e-05
0.000171649
-0.000179546
0.000235884
-0.000296659
0.000314774
-0.000440308
0.000409546
-0.000612229
-0.0008134
-2.78252e-07
2.32956e-05
2.09835e-07
5.58689e-05
2.70618e-06
7.59288e-05
8.47002e-06
8.26593e-05
1.88017e-05
7.50291e-05
3.50701e-05
5.17253e-05
5.87321e-05
1.11166e-05
9.13378e-05
-4.87283e-05
0.000134513
-0.000129981
0.000189909
-0.000234942
0.000259109
-0.00036586
0.000343491
-0.000524689
0.000444031
-0.000712769
0.000561091
-0.00093046
-0.00117677
-1.45676e-07
2.34413e-05
7.42292e-07
5.49809e-05
3.94046e-06
7.27306e-05
1.07571e-05
7.58427e-05
2.25566e-05
6.32297e-05
4.078e-05
3.35019e-05
6.69578e-05
-1.50612e-05
0.000102704
-8.44745e-05
0.000149682
-0.000176959
0.000209531
-0.000294791
0.00028375
-0.000440079
0.000373525
-0.000614464
0.00047952
-0.000818764
0.000601642
-0.00105258
-0.00131397
7.13764e-09
2.34342e-05
1.34365e-06
5.36444e-05
5.32522e-06
6.87491e-05
1.33078e-05
6.78601e-05
2.67165e-05
4.9821e-05
4.70594e-05
1.3159e-05
7.59315e-05
-4.39333e-05
0.000114994
-0.000123537
0.000165923
-0.000227888
0.000230311
-0.000359179
0.000309523
-0.00051929
0.000404498
-0.000709439
0.00051552
-0.000929786
0.00064199
-0.00117905
0.000782249
-0.00145423
-0.00175056
1.71532e-07
2.32626e-05
2.00579e-06
5.18101e-05
6.84653e-06
6.39083e-05
1.60988e-05
5.86078e-05
3.12456e-05
3.46743e-05
5.38558e-05
-9.4512e-06
8.55769e-05
-7.56545e-05
0.0001281
-0.00016606
0.000183084
-0.000282872
0.000252038
-0.000428132
0.00033614
-0.000603392
0.000436026
-0.000809325
0.000551546
-0.00104531
0.000681554
-0.00130906
0.000823781
-0.00159645
0.000974872
-0.00190165
-0.00221728
3.51197e-07
2.29114e-05
2.72234e-06
4.9439e-05
8.49042e-06
5.81403e-05
1.91066e-05
4.79916e-05
3.61073e-05
1.76735e-05
6.11145e-05
-3.44584e-05
9.58153e-05
-0.000110355
0.000141908
-0.000212153
0.000201007
-0.000341971
0.000274491
-0.000501616
0.000363305
-0.000692207
0.000467726
-0.000913746
0.000587124
-0.0011647
0.000719784
-0.00144172
0.000862854
-0.00173952
0.00101247
-0.00205127
-0.00236893
5.42382e-07
2.23691e-05
3.4868e-06
4.64945e-05
1.02436e-05
5.13835e-05
2.2308e-05
3.59272e-05
4.12654e-05
-1.28397e-06
6.87817e-05
-6.19747e-05
0.000106568
-0.000148141
0.000156307
-0.000261892
0.000219532
-0.000405196
0.000297451
-0.000579535
0.000390725
-0.00078548
0.000499221
-0.00102224
0.000621797
-0.00128728
0.00075617
-0.00157609
0.000898958
-0.00188231
0.00104591
-0.00219822
0.00119237
-0.00251539
-0.00282667
7.43493e-07
2.16256e-05
4.29347e-06
4.29446e-05
1.20938e-05
4.35832e-05
2.56817e-05
2.23393e-05
4.66858e-05
-2.22881e-05
7.68051e-05
-9.2094e-05
0.000117757
-0.000189094
0.000171183
-0.000315319
0.000238501
-0.000472513
0.0003207
-0.000661735
0.000418109
-0.000882889
0.000530145
-0.00113428
0.000655134
-0.00141227
0.000790251
-0.00171121
0.000931659
-0.00202372
0.00107486
-0.00234142
0.00121521
-0.00265574
0.00134835
-0.00295981
-0.00324637
9.53272e-07
2.06723e-05
5.13758e-06
3.87603e-05
1.40305e-05
3.46903e-05
2.92085e-05
7.16133e-06
5.23367e-05
-4.54164e-05
8.51353e-05
-0.000124893
0.000129309
-0.000233267
0.000186428
-0.000372438
0.000257756
-0.000543841
0.000344021
-0.000748
0.000445172
-0.00098404
0.000560146
-0.00124925
0.000686735
-0.00153886
0.000821617
-0.00184609
0.000960605
-0.00216271
0.00109909
-0.00247991
0.00123262
-0.00278927
0.0013573
-0.00308449
0.00147053
-0.00335959
-0.0036153
1.17082e-06
1.95015e-05
6.0154e-06
3.39157e-05
1.60449e-05
2.46608e-05
3.28715e-05
-9.66527e-06
5.81893e-05
-7.07343e-05
9.37258e-05
-0.000160429
0.000141151
-0.000280692
0.000201933
-0.00043322
0.000277141
-0.000619049
0.000367199
-0.000838058
0.000471636
-0.00108848
0.000588889
-0.00136651
0.000716235
-0.0016662
0.000849923
-0.00197978
0.000985531
-0.00229832
0.00111849
-0.00261286
0.00124466
-0.00291544
0.00136074
-0.00320058
0.00146485
-0.0034637
-0.00370716
0.00155671
1.39559e-06
1.81059e-05
6.92418e-06
2.83871e-05
1.81297e-05
1.34553e-05
3.66561e-05
-2.81916e-05
6.42173e-05
-9.82955e-05
0.000102532
-0.000198744
0.000153212
-0.000331372
0.000217591
-0.000497599
0.000296502
-0.00069796
0.000390022
-0.000931578
0.000497231
-0.00119569
0.000616059
-0.00148533
0.000743308
-0.00179345
0.000874884
-0.00211136
0.00100626
-0.00242969
0.00113302
-0.00273963
0.00125149
-0.00303391
0.001359
-0.00330809
0.00145436
-0.00355906
-0.00379053
0.00153773
1.62736e-06
1.64785e-05
7.86208e-06
2.21524e-05
2.02794e-05
1.03795e-06
4.05497e-05
-4.84619e-05
7.03963e-05
-0.000128142
0.000111512
-0.00023986
0.000165424
-0.000385283
0.000233295
-0.00056547
0.000315683
-0.000780348
0.000412281
-0.00102818
0.000521697
-0.0013051
0.000641369
-0.00160501
0.000767677
-0.00191976
0.000896289
-0.00223997
0.00102269
-0.00255609
0.00114277
-0.00285971
0.00125336
-0.0031445
0.00135246
-0.00340719
0.00143952
-0.00364612
-0.00386611
0.00151511
1.86616e-06
1.46124e-05
8.82793e-06
1.51906e-05
2.24894e-05
-1.26235e-05
4.4541e-05
-7.05135e-05
7.67034e-05
-0.000160305
0.000120624
-0.00028378
0.000177715
-0.000442375
0.000248935
-0.00063669
0.000334529
-0.000865942
0.00043377
-0.00112742
0.000544789
-0.00141612
0.00066456
-0.00172478
0.000789116
-0.00204432
0.000913993
-0.00236485
0.00103482
-0.00267691
0.00114787
-0.00297277
0.00125056
-0.00324719
0.00134153
-0.00349816
0.00142083
-0.00372541
-0.00393463
0.00148934
2.11218e-06
1.25002e-05
9.82108e-06
7.48171e-06
2.47559e-05
-2.75584e-05
4.86193e-05
-9.43769e-05
8.31155e-05
-0.000194801
0.000129824
-0.000330489
0.000190015
-0.000502565
0.000264403
-0.000711079
0.000352883
-0.000954422
0.000454291
-0.00122882
0.000566281
-0.00152811
0.000685409
-0.00184391
0.000807449
-0.00216636
0.00092792
-0.00248532
0.00104269
-0.00279169
0.00114853
-0.00307861
0.00124343
-0.00334209
0.00132665
-0.00358138
0.00139874
-0.0037975
-0.00399675
0.00146086
2.36573e-06
1.01344e-05
1.08411e-05
-9.93608e-07
2.70753e-05
-4.37926e-05
5.27739e-05
-0.000120076
8.96088e-05
-0.000231636
0.000139069
-0.000379949
0.000202247
-0.000565744
0.000279584
-0.000788415
0.000370591
-0.00104543
0.000473652
-0.00133188
0.000585966
-0.00164043
0.000703731
-0.00196167
0.000822559
-0.00228518
0.00093806
-0.00260082
0.00104645
-0.00290008
0.00114502
-0.00317717
0.00123234
-0.00342941
0.00130825
-0.00365729
0.0013737
-0.00386295
-0.00405312
0.00143008
2.62711e-06
7.50734e-06
1.18873e-05
-1.02538e-05
2.94436e-05
-6.13489e-05
5.69932e-05
-0.000147625
9.61579e-05
-0.0002708
0.00014831
-0.000432101
0.000214336
-0.00063177
0.000294363
-0.000868443
0.0003875
-0.00113857
0.000491673
-0.00143606
0.000603664
-0.00175242
0.000719383
-0.00207739
0.000834381
-0.00240018
0.000944464
-0.0027109
0.00104626
-0.00300188
0.00113761
-0.00326852
0.00121767
-0.00350947
0.00128676
-0.00372638
0.00134615
-0.00392234
-0.00410434
0.00139737
2.89654e-06
4.6108e-06
1.29591e-05
-2.03164e-05
3.18562e-05
-8.02459e-05
6.1264e-05
-0.000177033
0.000102735
-0.000312271
0.000157497
-0.000486863
0.000226199
-0.000700472
0.000308625
-0.000950869
0.000403462
-0.0012334
0.000508192
-0.00154079
0.000619223
-0.00186345
0.000732265
-0.00219043
0.000842905
-0.00251082
0.000947232
-0.00281523
0.00104235
-0.00309699
0.00112665
-0.00335282
0.0011998
-0.00358263
0.00126256
-0.00378913
0.00131645
-0.00397623
-0.00415095
0.00136306
3.17412e-06
1.43668e-06
1.40551e-05
-3.11974e-05
3.43073e-05
-0.000100498
6.55715e-05
-0.000208297
0.000109309
-0.000356008
0.000166577
-0.000544131
0.000237752
-0.000771648
0.000322254
-0.00103537
0.000418336
-0.00132948
0.000523061
-0.00164551
0.000632524
-0.00197291
0.00074232
-0.00230023
0.000848166
-0.00261667
0.000946511
-0.00291357
0.00103496
-0.00318544
0.00111244
-0.0034303
0.00117911
-0.0036493
0.00123604
-0.00384607
0.00128494
-0.00402513
-0.00419344
0.00132743
3.45976e-06
-2.02308e-06
1.51735e-05
-4.29111e-05
3.679e-05
-0.000122115
6.98983e-05
-0.000241405
0.000115846
-0.000401956
0.000175491
-0.000603776
0.00024891
-0.000845067
0.000335135
-0.0011216
0.000431992
-0.00142634
0.000536157
-0.00174968
0.00064348
-0.00208023
0.000749531
-0.00240628
0.000850246
-0.00271738
0.000942484
-0.00300581
0.00102436
-0.00326732
0.00109533
-0.00350126
0.00115594
-0.00370991
0.00120754
-0.00389768
0.00125194
-0.00406953
-0.00423224
0.00129074
3.75314e-06
-5.77622e-06
1.63114e-05
-5.54695e-05
3.92956e-05
-0.000145099
7.4225e-05
-0.000276335
0.00012231
-0.000450041
0.000184179
-0.000665645
0.000259586
-0.000920475
0.000347161
-0.00120917
0.000444313
-0.00152349
0.000547378
-0.00185274
0.000652038
-0.00218489
0.000753923
-0.00250816
0.00084926
-0.00281272
0.000935358
-0.00309191
0.00101085
-0.00334281
0.00107563
-0.00356604
0.00113062
-0.0037649
0.00117737
-0.00394443
0.00121771
-0.00410986
-0.00426772
0.00125319
4.0537e-06
-9.82992e-06
1.74656e-05
-6.88814e-05
4.18141e-05
-0.000169447
7.85296e-05
-0.00031305
0.00012866
-0.000500171
0.00019258
-0.000729565
0.000269695
-0.00099759
0.000358228
-0.0012977
0.000455196
-0.00162046
0.00055665
-0.0019542
0.000658178
-0.00228642
0.000755556
-0.00260554
0.000845355
-0.00290252
0.00092536
-0.00317191
0.000994689
-0.00341214
0.00105366
-0.00362501
0.00110347
-0.00381471
0.0011458
-0.00398675
0.00118247
-0.00414653
-0.00430021
0.00121496
4.36064e-06
-1.41906e-05
1.86318e-05
-8.31526e-05
4.4334e-05
-0.00019515
8.27883e-05
-0.000351505
0.000134856
-0.000552239
0.00020063
-0.00079534
0.000279153
-0.00107611
0.000368245
-0.00138679
0.000464558
-0.00171677
0.000563922
-0.00205356
0.000661912
-0.00238441
0.000754517
-0.00269815
0.000838703
-0.0029867
0.000912728
-0.00324594
0.000976172
-0.00347559
0.00102971
-0.00367855
0.00107476
-0.00385976
0.00111307
-0.00402506
0.00114642
-0.00417989
-0.00432999
0.0011762
4.67296e-06
-1.88635e-05
1.98051e-05
-9.82848e-05
4.68424e-05
-0.000222187
8.69754e-05
-0.000391638
0.000140853
-0.000606117
0.000208268
-0.000862754
0.000287883
-0.00115573
0.000377127
-0.00147604
0.000472333
-0.00181198
0.000569172
-0.0021504
0.00066328
-0.00247852
0.000750923
-0.00278579
0.000829489
-0.00306527
0.000897704
-0.00331415
0.000955565
-0.00353345
0.00100405
-0.00372704
0.00104473
-0.00390044
0.00107939
-0.00405972
0.00110973
-0.00421023
-0.00435727
0.00113702
4.9894e-06
-2.38529e-05
2.09798e-05
-0.000114275
4.93252e-05
-0.000250532
9.1064e-05
-0.000433376
0.00014661
-0.000661662
0.000215431
-0.000931575
0.000295812
-0.00123611
0.000384807
-0.00156503
0.000478475
-0.00190565
0.000572399
-0.00224432
0.000662347
-0.00256847
0.000744909
-0.00286835
0.000817911
-0.00313827
0.000880526
-0.00337677
0.000933124
-0.00358605
0.000976926
-0.00377084
0.00101361
-0.00393713
0.00104495
-0.00409106
0.00107254
-0.00423782
-0.00438226
0.00109753
5.30856e-06
-2.91615e-05
2.21499e-05
-0.000131117
5.17676e-05
-0.00028015
9.50262e-05
-0.000476635
0.000152081
-0.000718717
0.000222063
-0.00100156
0.000302876
-0.00131692
0.000391227
-0.00165338
0.000482958
-0.00199738
0.000573627
-0.00233499
0.0006592
-0.00265404
0.000736626
-0.00294578
0.000804171
-0.00320582
0.000861428
-0.00343403
0.000909089
-0.00363371
0.000948565
-0.00381032
0.000981594
-0.00397016
0.00100989
-0.00411936
0.00103496
-0.00426288
-0.00440511
0.00105781
5.62887e-06
-3.47904e-05
2.33086e-05
-0.000148796
5.4154e-05
-0.000310995
9.8834e-05
-0.000521315
0.000157226
-0.000777109
0.00022811
-0.00107244
0.000309018
-0.00139783
0.000396347
-0.00174071
0.000485774
-0.00208681
0.000572902
-0.00242212
0.000653943
-0.00273508
0.000726235
-0.00301807
0.000788473
-0.00326805
0.000840633
-0.00348619
0.00088368
-0.00367675
0.000919165
-0.0038458
0.000948843
-0.00399984
0.000974359
-0.00414487
0.000997084
-0.0042856
-0.00442595
0.00101793
5.94859e-06
2.44491e-05
5.64684e-05
0.000102459
-0.000567306
0.000162002
-0.000836652
0.000233522
-0.00114396
0.000314193
-0.0014785
0.000400139
-0.00182666
0.000486934
-0.0021736
0.000570286
-0.00250547
0.000646696
-0.00281149
0.000713903
-0.00308528
0.000771015
-0.00332517
0.000818352
-0.00353352
0.000857101
-0.0037155
0.000888907
-0.00387761
0.000915507
-0.00402644
0.000938456
-0.00416782
0.000959002
-0.00430615
-0.00444489
0.000977938
0.000105875
0.000166373
0.000238257
-0.00121585
0.000318365
-0.00155861
0.000402592
-0.00191089
0.000486467
-0.00225748
0.000565857
-0.00258486
0.000637587
-0.00288322
0.0006998
-0.00314749
0.000751991
-0.00337736
0.000794781
-0.00357631
0.000829533
-0.00375025
0.000857945
-0.00390602
0.000881709
-0.0040502
0.000902279
-0.00418839
0.000920777
-0.00432465
-0.004462
0.000937888
0.000242279
0.000321509
0.000403708
0.000484415
-0.00233818
0.000559706
-0.00266015
0.000626752
-0.00295027
0.000684093
-0.00320483
0.000731584
-0.00342485
0.000770102
-0.00361483
0.000801141
-0.00378129
0.000826417
-0.00393129
0.000847558
-0.00407134
0.000865906
-0.00420674
0.000882463
-0.00434121
-0.00447735
0.000897816
0.000480833
0.000551931
0.000614329
0.000666948
0.000709968
-0.00346787
0.000744479
-0.00364934
0.000772069
-0.00380888
0.000794442
-0.00395367
0.000813143
-0.00409004
0.000829402
-0.004223
0.000844105
-0.00435591
-0.004491
0.00085775
0.000687303
0.000718064
0.000742448
0.000762122
-0.00397334
0.000778542
-0.00410646
0.000792823
-0.00423728
0.000805742
-0.00436883
-0.00450297
0.000817717
0.000729547
0.00074382
0.000756214
0.000767405
-0.00451331
0.00077774
0.000737836
0.00437974
0.000702034
0.000690028
0.0038677
0.00070431
0.00399432
0.000716952
0.00411821
0.000728662
0.00424233
0.00436857
0.000739828
0.000610471
0.00318334
0.000647685
0.00338416
0.000677425
0.00355766
0.000701195
0.0037102
0.000720561
0.00384834
0.000736924
0.00397795
0.000751399
0.00410374
0.00076479
0.00422894
0.0043558
0.00077756
0.000451459
0.00231123
0.000518355
0.00261624
0.000577355
0.00289134
0.000627412
0.00313329
0.000668618
0.00334295
0.000701923
0.00352436
0.000728763
0.00368336
0.000750728
0.00382637
0.000769297
0.00395938
0.000785686
0.00408735
0.000800806
0.00421382
0.00434141
0.000815202
0.000228214
0.00124343
0.000302253
0.00157197
0.000379075
0.00190719
0.000454636
0.00223567
0.000525359
0.00254551
0.000588637
0.00282806
0.000643075
0.00307885
0.000688469
0.00329756
0.00072556
0.00348727
0.000755688
0.00365324
0.000780438
0.00380162
0.000801356
0.00393847
0.00081976
0.00406894
0.000836669
0.00419691
0.00432535
0.000852721
0.000100441
0.000611423
0.000157242
0.000877708
0.000224507
0.00117616
0.000299324
0.00149715
0.000377964
0.00182855
0.000456381
0.00215726
0.000530825
0.00247107
0.000598386
0.0027605
0.000657317
0.00301992
0.000707087
0.00324779
0.000748193
0.00344616
0.00078184
0.00361959
0.000809583
0.00377388
0.000833017
0.00391503
0.000853556
0.0040484
0.000872333
0.00417813
0.00430761
0.000890082
5.76371e-06
4.7924e-05
2.34761e-05
0.000179972
5.38916e-05
0.000353293
9.73047e-05
0.00056801
0.000153228
0.000821785
0.000220148
0.00110924
0.000295453
0.00142184
0.00037562
0.00174838
0.000456652
0.00207622
0.000534668
0.00239305
0.000606481
0.00268869
0.00066999
0.00295641
0.000724311
0.00319347
0.000769663
0.00340081
0.000807077
0.00358217
0.000838042
0.00374292
0.000864184
0.00388889
0.000887
0.00402559
0.00090774
0.00415739
0.0042881
0.000927241
5.46808e-06
4.24559e-05
2.24251e-05
0.000163015
5.17639e-05
0.000323954
9.39774e-05
0.000525796
0.000148846
0.000766916
0.000215174
0.00104291
0.000290668
0.00134635
0.000372049
0.001667
0.000455419
0.00199285
0.000536816
0.00231166
0.000612808
0.0026127
0.000680945
0.00288827
0.000739974
0.00313444
0.0007898
0.00335099
0.000831238
0.00354074
0.000865677
0.00370848
0.000894743
0.00385982
0.000920004
0.00400033
0.000942824
0.00413457
0.00426678
0.000964147
5.17172e-06
3.72842e-05
2.13575e-05
0.00014683
4.95714e-05
0.00029574
9.0486e-05
0.000484882
0.000144133
0.000713269
0.000209628
0.000977419
0.000285008
0.00127097
0.00036727
0.00158474
0.000452667
0.00190746
0.000537209
0.00222711
0.000617259
0.00253265
0.000690034
0.0028155
0.000753902
0.00307057
0.000808421
0.00329647
0.000854148
0.00349501
0.000892331
0.00367029
0.000924562
0.00382759
0.000952465
0.00397242
0.000977506
0.00410953
0.00424354
0.00100074
4.87637e-06
3.24078e-05
2.02803e-05
0.000131426
4.73301e-05
0.000268691
8.68582e-05
0.000445354
0.000139129
0.000660998
0.000203558
0.000912989
0.000278519
0.00119601
0.000361316
0.00150194
0.000448397
0.00182038
0.000535803
0.00213971
0.000619738
0.00244871
0.000697115
0.00273812
0.000765919
0.00300176
0.000825333
0.00323705
0.000875616
0.00344473
0.000917829
0.00362808
0.000953493
0.00379193
0.00098426
0.00394166
0.00101169
0.0040821
0.00421828
0.00103695
4.58371e-06
2.78241e-05
1.92004e-05
0.000116809
4.5056e-05
0.000242835
8.31225e-05
0.000407287
0.000133876
0.000610245
0.00019702
0.000849845
0.000271261
0.00112177
0.000354233
0.00141897
0.000442626
0.00173198
0.00053257
0.00204976
0.000620165
0.00236112
0.000702054
0.00265623
0.000775848
0.00292797
0.000840334
0.00317257
0.000895434
0.00338963
0.000941974
0.00358154
0.000981364
0.00375254
0.00101525
0.00390777
0.00104527
0.00405208
0.00419085
0.0010727
4.29538e-06
2.35287e-05
1.81247e-05
0.00010298
4.27651e-05
0.000218195
7.9308e-05
0.000370744
0.000128419
0.000561134
0.000190071
0.000788194
0.0002633
0.00104854
0.000346083
0.00133619
0.000435393
0.00164267
0.000527504
0.00195765
0.000618477
0.00227015
0.000704729
0.00256998
0.000783516
0.00284918
0.000853217
0.00310287
0.00091338
0.00332946
0.000964552
0.00353037
0.00100798
0.00370911
0.00104527
0.00387048
0.00107811
0.00401923
0.00416109
0.00110787
4.01297e-06
1.95158e-05
1.70598e-05
8.99329e-05
4.04732e-05
0.000194781
7.54438e-05
0.000335773
0.000122804
0.000513773
0.000182774
0.000728224
0.00025471
0.000976601
0.000336939
0.00125396
0.000426752
0.00155286
0.000520622
0.00186378
0.000614635
0.00217613
0.000705037
0.00247958
0.000788759
0.00276546
0.000863773
0.00302785
0.000929224
0.00326401
0.000985329
0.00347426
0.00103313
0.00366131
0.00107413
0.00382948
0.00111006
0.0039833
0.00412879
0.00114236
3.73801e-06
1.57777e-05
1.60123e-05
7.76586e-05
3.81958e-05
0.000172598
7.15589e-05
0.00030241
0.000117078
0.000468254
0.000175195
0.000670107
0.000245572
0.000906224
0.000326889
0.00117264
0.000416777
0.00146297
0.000511963
0.0017686
0.000608622
0.00207947
0.000702895
0.0023853
0.000791428
0.00267693
0.000871798
0.00294748
0.000942724
0.00319309
0.00100405
0.00341293
0.00105656
0.00360881
0.00110162
0.00378442
0.00114094
0.00394398
0.00409372
0.00117602
3.47197e-06
1.23058e-05
1.49884e-05
6.61421e-05
3.59481e-05
0.000151638
6.76817e-05
0.000270677
0.000111285
0.000424651
0.000167401
0.000613991
0.000235974
0.000837651
0.000316029
0.00109259
0.000405561
0.00137344
0.000501591
0.00167257
0.000600451
0.00198061
0.000698247
0.00228751
0.000791393
0.00258378
0.000877094
0.00286178
0.000953637
0.00311654
0.00102046
0.00334611
0.00107802
0.00355125
0.0011275
0.00373494
0.00117054
0.00390093
0.00405558
0.00120867
3.21628e-06
9.08949e-06
1.39941e-05
5.53643e-05
3.37444e-05
0.000131888
6.38399e-05
0.000240581
0.000105474
0.000383017
0.000159461
0.000560004
0.000226005
0.000771107
0.000304468
0.00101413
0.000393212
0.0012847
0.000489595
0.00157619
0.000590166
0.00188004
0.000691066
0.00218661
0.000788548
0.0024863
0.00087948
0.00277085
0.000961721
0.0030343
0.00103427
0.00327356
0.00109722
0.0034883
0.00115149
0.00368067
0.00119863
0.0038538
0.00401408
0.00124013
2.97226e-06
6.11723e-06
1.30351e-05
4.53015e-05
3.15984e-05
0.000113324
6.006e-05
0.00021212
9.96869e-05
0.00034339
0.000151441
0.00050825
0.000215758
0.00070679
0.000292319
0.000937566
0.000379855
0.00119716
0.000476086
0.00147995
0.000577838
0.00177829
0.000681361
0.00208308
0.000782819
0.00238484
0.000878797
0.00267487
0.000966744
0.00294635
0.0010452
0.0031951
0.00111385
0.00341965
0.0011733
0.00362122
0.00122493
0.00380217
0.00396884
0.00127017
2.74116e-06
3.37607e-06
1.21164e-05
3.59263e-05
2.95228e-05
9.5918e-05
5.63669e-05
0.000185276
9.39682e-05
0.000305789
0.000143408
0.00045881
0.000205329
0.000644869
0.000279703
0.000863192
0.000365627
0.00111124
0.000461201
0.00138438
0.000563572
0.00167592
0.000669178
0.00197748
0.000774168
0.00227985
0.000874916
0.00257412
0.000968491
0.00285278
0.00105298
0.00311061
0.00112761
0.00334503
0.00119261
0.00355621
0.00124914
0.00374565
0.00391946
0.00129852
2.52407e-06
8.52005e-07
1.12427e-05
2.72077e-05
2.75291e-05
7.96316e-05
5.27831e-05
0.000160022
8.8357e-05
0.000270215
0.000135426
0.000411741
0.000194807
0.000585488
0.000266742
0.000791257
0.000350673
0.0010273
0.00044509
0.00128996
0.000547503
0.00157351
0.000654599
0.00187038
0.000762601
0.00217185
0.000867743
0.00246898
0.000966771
0.00275375
0.00105733
0.00302005
0.00113816
0.00326419
0.00120908
0.00348529
0.00127093
0.0036838
0.00386551
0.00132488
2.32193e-06
-1.46993e-06
1.0418e-05
1.91116e-05
2.56269e-05
6.44227e-05
4.93289e-05
0.00013632
8.28896e-05
0.000236654
0.000127553
0.000367077
0.000184284
0.000528757
0.000253558
0.000721983
0.000335146
0.000945716
0.000427925
0.00119718
0.000529792
0.00147164
0.000637746
0.00176243
0.000748165
0.00206143
0.00085723
0.00235991
0.00096143
0.00264955
0.00105799
0.00292349
0.00114519
0.003177
0.00122235
0.00340813
0.00128995
0.00361619
0.00380653
0.00134893
2.13547e-06
-3.6054e-06
9.64532e-06
1.16017e-05
2.38245e-05
5.02435e-05
4.60211e-05
0.000114123
7.75975e-05
0.000205078
0.000119844
0.000324831
0.00017384
0.000474761
0.000240269
0.000655554
0.0003192
0.000866785
0.000409885
0.0011065
0.000510625
0.0013709
0.000618779
0.00165427
0.000730956
0.00194926
0.000843378
0.00224749
0.000952357
0.00254057
0.00105476
0.00282109
0.00114838
0.00308338
0.00123204
0.00332447
0.0013058
0.00354243
0.00374203
0.00137031
1.96514e-06
-5.57054e-06
8.92677e-06
4.64012e-06
2.21276e-05
3.70426e-05
4.2873e-05
9.33776e-05
7.25068e-05
0.000175444
0.000112343
0.000284994
0.000163551
0.000423553
0.000226987
0.000592119
0.000302987
0.000790785
0.000391157
0.00101833
0.000490206
0.00127185
0.00059789
0.00154659
0.000711117
0.00183603
0.000826241
0.00213237
0.000939491
0.00242732
0.00104745
0.00271313
0.00114745
0.00298337
0.00123781
0.00323411
0.0013181
0.00346214
0.00367152
0.00138861
1.8111e-06
-7.38164e-06
8.26331e-06
-1.81209e-06
2.05397e-05
2.47663e-05
3.98936e-05
7.40237e-05
6.76373e-05
0.000147701
0.00010509
0.000247541
0.000153484
0.00037516
0.000213814
0.000531789
0.00028665
0.000717949
0.000371927
0.000933052
0.000468753
0.00117503
0.000575299
0.00144004
0.000688833
0.00172249
0.00080593
0.00201527
0.000922834
0.00231042
0.00103592
0.00260005
0.00114215
0.00287715
0.0012393
0.00313696
0.00132643
0.00337501
0.00359451
0.00140344
1.67314e-06
-9.05478e-06
7.65463e-06
-7.79359e-06
1.90614e-05
1.33596e-05
3.70873e-05
5.59977e-05
6.30018e-05
0.000121786
9.81129e-05
0.00021243
0.00014369
0.000329583
0.000200838
0.000474641
0.000270324
0.000648462
0.000352378
0.000850998
0.000446487
0.00108092
0.000551247
0.00133528
0.000664331
0.00160941
0.000782609
0.00189699
0.000902446
0.00219058
0.00102012
0.00248238
0.00113227
0.002765
0.0012362
0.00303302
0.00133042
0.00328079
0.00351054
0.00141438
1.55068e-06
-1.06055e-05
7.09907e-06
-1.3342e-05
1.76905e-05
2.76813e-06
3.44534e-05
3.92348e-05
5.86055e-05
9.7634e-05
9.1429e-05
0.000179607
0.00013421
0.000286802
0.000188132
0.000420719
0.000254126
0.000582468
0.000332678
0.000772446
0.000423627
0.000989968
0.000525989
0.00123292
0.000637866
0.00149753
0.000756495
0.00177836
0.000878456
0.00206862
0.00100003
0.0023608
0.00111766
0.00264737
0.00122822
0.00292247
0.00132967
0.00317934
1.44274e-06
-1.20482e-05
6.59354e-06
-1.84928e-05
1.6422e-05
-7.06028e-06