/*--------------------------------*- C++ -*----------------------------------*\
  =========                 |
  \\      /  F ield         | OpenFOAM: The Open Source CFD Toolbox
   \\    /   O peration     | Website:  https://openfoam.org
    \\  /    A nd           | Version:  7
     \\/     M anipulation  |
\*---------------------------------------------------------------------------*/
FoamFile
{
    version     2.0;
    format      ascii;
    class       volVectorField;
    location    "20";
    object      U;
}
// * * * * * * * * * * * * * * * * * * * * * * * * * * * * * * * * * * * * * //

dimensions      [0 1 -1 0 0 0 0];

internalField   nonuniform List<vector> 
4575
(
(0.221325 -0.00271177 5.28425e-23)
(0.278719 -0.00251293 2.29303e-23)
(0.332445 -0.00231858 -4.07928e-23)
(0.382404 -0.0021329 -6.79142e-24)
(0.428629 -0.00195834 3.14214e-23)
(0.47124 -0.00179602 -1.11695e-22)
(0.510423 -0.00164611 -5.36077e-23)
(0.546403 -0.0015081 -3.17038e-24)
(0.579423 -0.00138113 -2.47274e-23)
(0.609731 -0.00126417 1.49115e-23)
(0.637572 -0.00115618 -6.71704e-23)
(0.663178 -0.00105618 -9.38351e-24)
(0.686768 -0.000963322 -1.41028e-23)
(0.708538 -0.000877024 6.95328e-23)
(0.728673 -0.000796831 3.44465e-23)
(0.747337 -0.000722362 2.02573e-24)
(0.764677 -0.000653314 1.79294e-23)
(0.780818 -0.000589695 2.55035e-23)
(0.795882 -0.00053164 -2.47241e-23)
(0.809977 -0.000479114 2.02801e-23)
(0.823202 -0.000431708 -5.97912e-24)
(0.835618 -0.00038919 -6.22537e-24)
(0.847296 -0.000351785 -5.73254e-24)
(0.858302 -0.000319899 6.36432e-24)
(0.223618 -0.00850557 5.99451e-23)
(0.280873 -0.00785508 2.43204e-22)
(0.334461 -0.00720809 -1.14183e-22)
(0.384289 -0.00658238 1.63809e-22)
(0.430387 -0.00598993 -6.30729e-23)
(0.472877 -0.00543786 -1.58019e-22)
(0.511946 -0.00492955 1.00611e-22)
(0.547818 -0.00446554 -7.07254e-23)
(0.580737 -0.00404446 3.79947e-23)
(0.610949 -0.00366383 -5.12762e-23)
(0.638702 -0.00332048 -8.83609e-23)
(0.664225 -0.00301098 4.66053e-23)
(0.687737 -0.00273192 -8.09669e-23)
(0.709434 -0.00248036 7.48169e-23)
(0.729502 -0.00225354 -8.68755e-23)
(0.748104 -0.00204882 -5.85646e-23)
(0.765386 -0.0018637 -3.27987e-23)
(0.781473 -0.00169666 -2.08366e-23)
(0.796488 -0.00154664 7.36529e-23)
(0.810537 -0.00141221 5.40233e-24)
(0.823719 -0.00129101 7.66153e-23)
(0.836096 -0.00118145 -1.24656e-23)
(0.847737 -0.00108358 2.30267e-23)
(0.858708 -0.000998256 5.18465e-23)
(0.228189 -0.0142785 -1.13003e-22)
(0.285162 -0.0131772 -1.24261e-22)
(0.338475 -0.0120786 -3.27779e-23)
(0.388035 -0.011014 -2.03799e-22)
(0.433878 -0.0100048 3.97908e-22)
(0.476126 -0.00906415 -8.67571e-23)
(0.514966 -0.00819859 1.59225e-22)
(0.550622 -0.00740969 9.75964e-23)
(0.583338 -0.00669557 2.75961e-22)
(0.613362 -0.00605226 -1.90562e-22)
(0.640938 -0.0054745 2.24889e-22)
(0.666297 -0.00495637 -3.89424e-23)
(0.689656 -0.00449192 -8.65368e-23)
(0.711211 -0.00407584 1.05985e-22)
(0.731148 -0.00370309 -1.78784e-22)
(0.749627 -0.00336874 9.25284e-23)
(0.766795 -0.00306814 -1.809e-22)
(0.782777 -0.0027982 -9.81865e-23)
(0.797694 -0.0025567 -6.51427e-23)
(0.811653 -0.00234081 -5.09873e-24)
(0.82475 -0.00214623 -1.14392e-22)
(0.83705 -0.00196999 1.21371e-22)
(0.848618 -0.00181198 -2.28599e-23)
(0.859522 -0.00167351 -7.54925e-23)
(0.234974 -0.0200166 2.37261e-22)
(0.291527 -0.018466 -2.44539e-22)
(0.34443 -0.0169176 3.92639e-22)
(0.393595 -0.0154159 5.55545e-22)
(0.439058 -0.0139919 -9.7686e-22)
(0.480946 -0.0126647 6.86157e-22)
(0.519445 -0.0114438 -2.75529e-22)
(0.554781 -0.0103319 -3.28528e-22)
(0.587197 -0.00932649 3.72e-22)
(0.616941 -0.00842219 -5.33004e-22)
(0.644256 -0.00761159 1.18986e-22)
(0.669372 -0.0068863 -2.80661e-22)
(0.692506 -0.0062378 1.28092e-22)
(0.713851 -0.00565843 -4.41905e-22)
(0.733593 -0.0051409 -4.66877e-23)
(0.751891 -0.00467797 1.05515e-22)
(0.768892 -0.00426283 2.17931e-22)
(0.784719 -0.00389086 2.28207e-22)
(0.799491 -0.00355866 3.74016e-23)
(0.813315 -0.00326203 -1.96018e-23)
(0.826289 -0.00299472 4.83897e-23)
(0.838472 -0.0027524 -1.47428e-22)
(0.849933 -0.00253476 1.38579e-23)
(0.860736 -0.00234361 -2.34026e-23)
(0.243878 -0.0257069 -2.19792e-22)
(0.299882 -0.023709 1.03307e-22)
(0.352248 -0.021713 -3.56796e-23)
(0.400895 -0.0197769 -7.15445e-23)
(0.445862 -0.0179408 4.6319e-22)
(0.487277 -0.0162297 -8.91846e-22)
(0.525331 -0.0146562 -2.85903e-22)
(0.560248 -0.0132238 -3.91973e-23)
(0.592271 -0.0119296 -2.66933e-22)
(0.621648 -0.0107667 4.83893e-22)
(0.648622 -0.00972537 2.42618e-23)
(0.67342 -0.00879493 3.15172e-22)
(0.696258 -0.00796424 2.69499e-22)
(0.717329 -0.00722329 4.35836e-22)
(0.736816 -0.00656253 3.66155e-22)
(0.754878 -0.00597245 -4.45828e-22)
(0.771659 -0.00544407 -1.86779e-22)
(0.787281 -0.00497125 -3.51755e-23)
(0.801864 -0.00454944 -4.52481e-23)
(0.815512 -0.00417306 6.03887e-23)
(0.828322 -0.00383392 -1.7823e-22)
(0.840353 -0.00352631 1.15787e-22)
(0.851672 -0.00324977 -8.52028e-23)
(0.862343 -0.00300658 -8.76385e-23)
(0.254781 -0.0313369 2.56496e-22)
(0.310116 -0.0288943 5.43138e-22)
(0.361828 -0.0264538 4.14921e-24)
(0.409842 -0.0240865 -4.15857e-22)
(0.454204 -0.0218417 9.12816e-23)
(0.495044 -0.0197501 1.82426e-22)
(0.532554 -0.0178273 8.02488e-22)
(0.56696 -0.0160777 2.59213e-25)
(0.598504 -0.0144978 -6.3984e-23)
(0.627434 -0.0130791 6.41336e-22)
(0.65399 -0.0118098 -2.99146e-22)
(0.6784 -0.0106768 7.01074e-23)
(0.700876 -0.0096662 -5.33431e-23)
(0.721612 -0.00876581 -5.33512e-22)
(0.740786 -0.00796378 1.69169e-23)
(0.758559 -0.00724835 1.79943e-22)
(0.775071 -0.00660837 8.42906e-23)
(0.790443 -0.00603617 -2.5428e-22)
(0.804794 -0.00552608 2.85543e-25)
(0.818226 -0.00507118 1.26286e-23)
(0.830834 -0.00466135 -6.97056e-23)
(0.842679 -0.00428947 2.62827e-22)
(0.853823 -0.00395491 6.42959e-23)
(0.864331 -0.0036605 2.07362e-22)
(0.26754 -0.0368954 -5.80826e-23)
(0.322096 -0.0340112 -1.0899e-22)
(0.373048 -0.0311298 -2.19797e-22)
(0.420327 -0.0283351 7.1829e-22)
(0.463985 -0.0256856 -1.55173e-21)
(0.504156 -0.0232174 -6.08295e-22)
(0.541032 -0.0209493 -1.65313e-23)
(0.574842 -0.0188864 6.20558e-22)
(0.605829 -0.0170244 -3.08148e-22)
(0.634236 -0.0153534 -5.33114e-22)
(0.660305 -0.0138594 -4.39951e-22)
(0.684262 -0.0125267 7.70267e-23)
(0.706316 -0.011339 3.14114e-22)
(0.72666 -0.0102817 1.99256e-22)
(0.74547 -0.0093407 1.07475e-23)
(0.762903 -0.00850206 3.45051e-22)
(0.7791 -0.00775241 -3.81565e-23)
(0.794179 -0.00708258 1.09364e-22)
(0.808257 -0.0064858 1.97915e-22)
(0.821435 -0.00595386 -8.13036e-23)
(0.833808 -0.00547467 1.54504e-22)
(0.845432 -0.00503972 -2.51038e-22)
(0.856371 -0.00464821 -1.68039e-23)
(0.866687 -0.00430353 -1.9899e-22)
(0.281995 -0.0423723 2.87018e-22)
(0.335675 -0.0390501 2.83918e-22)
(0.385771 -0.0357318 -7.93945e-22)
(0.432224 -0.0325141 -4.33063e-22)
(0.475089 -0.0294644 1.24677e-21)
(0.514507 -0.0266243 -2.58925e-22)
(0.550671 -0.0240154 1.24777e-22)
(0.58381 -0.0216434 -1.38654e-21)
(0.614167 -0.0195035 2.12456e-21)
(0.641986 -0.017584 -3.87193e-22)
(0.667505 -0.015869 7.09137e-22)
(0.69095 -0.01434 -1.04198e-21)
(0.712527 -0.0129783 -6.72855e-23)
(0.732427 -0.011767 -4.26939e-22)
(0.750823 -0.0106897 -1.52391e-22)
(0.767872 -0.00973024 4.29622e-23)
(0.783713 -0.00887312 -9.39643e-23)
(0.798459 -0.00810766 -5.05739e-23)
(0.812226 -0.00742602 -2.19803e-22)
(0.825116 -0.0068187 2.1771e-22)
(0.837219 -0.00627169 1.6752e-22)
(0.848593 -0.00577505 -3.92275e-23)
(0.859298 -0.00532779 3.35291e-22)
(0.869394 -0.00493394 -6.94545e-23)
(0.297972 -0.0477586 -4.85435e-22)
(0.35069 -0.0440024 -2.74875e-22)
(0.399849 -0.0402518 1.40042e-21)
(0.445395 -0.0366161 -1.00591e-22)
(0.487392 -0.0331712 -2.00415e-23)
(0.525983 -0.0299642 5.72017e-22)
(0.561365 -0.0270193 -2.23889e-22)
(0.593768 -0.0243431 2.31761e-22)
(0.623433 -0.0219298 -3.97285e-22)
(0.650605 -0.0197662 1.19575e-21)
(0.67552 -0.0178341 -7.6036e-22)
(0.6984 -0.0161126 2.68552e-23)
(0.719451 -0.0145803 7.75294e-22)
(0.738861 -0.0132181 -2.13047e-22)
(0.756801 -0.0120074 -1.23055e-21)
(0.773425 -0.0109299 6.93175e-23)
(0.78887 -0.00996773 3.87263e-22)
(0.803248 -0.00910884 -4.57761e-22)
(0.816671 -0.00834434 1.58212e-22)
(0.82924 -0.0076635 1.20551e-22)
(0.841044 -0.00705039 -2.32198e-22)
(0.852139 -0.00649358 -4.91015e-23)
(0.862583 -0.00599193 -4.71793e-22)
(0.872434 -0.00555013 9.10959e-23)
(0.31529 -0.0530466 9.13655e-22)
(0.366973 -0.0488609 -1.60822e-22)
(0.415123 -0.0446831 -1.49235e-21)
(0.459696 -0.0406346 5.123e-22)
(0.500759 -0.0367999 -4.55282e-22)
(0.538462 -0.0332315 -2.07492e-22)
(0.573004 -0.029956 4.21029e-23)
(0.604614 -0.0269806 5.2604e-22)
(0.633535 -0.0242989 3.88284e-22)
(0.660009 -0.0218957 -9.73595e-22)
(0.684272 -0.0197508 -2.03734e-22)
(0.706543 -0.0178408 -5.28659e-22)
(0.727027 -0.0161417 8.21956e-22)
(0.745906 -0.014632 -2.82119e-22)
(0.763352 -0.0132911 5.92255e-22)
(0.779516 -0.0120983 -3.04068e-22)
(0.794531 -0.0110337 1.13887e-22)
(0.808508 -0.0100838 -5.92384e-22)
(0.821557 -0.00923863 7.37604e-22)
(0.833776 -0.00848629 2.85755e-22)
(0.845255 -0.00780891 -4.8745e-23)
(0.856046 -0.00719361 5.01044e-23)
(0.866205 -0.00663904 1.46149e-22)
(0.875788 -0.00615062 1.00924e-22)
(0.384351 -0.0536197 -6.63432e-22)
(0.431434 -0.0490201 -2.91265e-22)
(0.474976 -0.0445645 -6.55472e-22)
(0.515054 -0.0403458 1.10913e-21)
(0.551818 -0.0364216 -8.46017e-22)
(0.58547 -0.0328211 9.80578e-22)
(0.616242 -0.029552 -1.01186e-22)
(0.644376 -0.0266069 -3.34669e-22)
(0.670111 -0.023969 3.06645e-22)
(0.693682 -0.0216159 1.77805e-22)
(0.715307 -0.0195216 7.83513e-22)
(0.735187 -0.0176596 -5.04411e-22)
(0.753502 -0.016006 1.0857e-22)
(0.770422 -0.0145381 2.38957e-22)
(0.786094 -0.0132331 6.01369e-22)
(0.800651 -0.012069 9.71702e-23)
(0.8142 -0.0110306 2.11106e-23)
(0.826849 -0.010107 -5.28696e-22)
(0.838693 -0.0092853 -5.24604e-22)
(0.849822 -0.00854564 -3.43184e-23)
(0.860286 -0.00787361 1.92737e-23)
(0.870138 -0.00726768 1.9589e-22)
(0.879433 -0.00673406 -5.33278e-23)
(0.402651 -0.0582736 4.83064e-22)
(0.448619 -0.0532582 -4.50506e-22)
(0.491087 -0.0484015 1.14847e-21)
(0.530135 -0.0438049 9.75299e-23)
(0.56592 -0.0395309 -9.73861e-22)
(0.598646 -0.0356113 -9.12804e-23)
(0.628544 -0.032054 -2.91552e-22)
(0.655855 -0.0288508 -9.30643e-23)
(0.680819 -0.0259833 -1.22438e-21)
(0.703667 -0.0234267 1.70696e-22)
(0.724616 -0.0211525 4.10164e-22)
(0.743863 -0.0191316 1.95602e-22)
(0.761587 -0.0173379 -8.52732e-23)
(0.777953 -0.0157465 5.51834e-22)
(0.793109 -0.0143325 2.37727e-22)
(0.807183 -0.0130717 6.93012e-23)
(0.82028 -0.0119474 8.38315e-22)
(0.832506 -0.0109479 -7.78029e-22)
(0.843955 -0.010059 8.52899e-22)
(0.854714 -0.00925914 2.28485e-22)
(0.864831 -0.00853225 -1.89033e-22)
(0.874358 -0.00787662 1.69725e-22)
(0.883346 -0.00729928 -8.78129e-23)
(0.421704 -0.062819 -2.70878e-22)
(0.466519 -0.0573939 -9.25658e-22)
(0.507878 -0.0521425 -2.15053e-22)
(0.545865 -0.0471743 8.5891e-22)
(0.580642 -0.0425568 -7.26266e-22)
(0.612413 -0.038324 1.43341e-21)
(0.641409 -0.0344844 -9.59682e-22)
(0.667873 -0.0310286 1.38349e-21)
(0.69204 -0.0279366 -2.81627e-22)
(0.714142 -0.0251812 -1.46585e-21)
(0.734391 -0.0227316 1.50835e-21)
(0.752984 -0.0205559 -6.49524e-23)
(0.770095 -0.0186259 6.62357e-22)
(0.785888 -0.0169146 -1.4264e-21)
(0.800507 -0.0153948 4.66018e-23)
(0.814079 -0.0140403 4.10869e-22)
(0.826706 -0.0128328 -3.65377e-22)
(0.838491 -0.0117598 -4.13856e-23)
(0.849526 -0.0108061 3.76234e-23)
(0.859897 -0.00994821 -2.98808e-22)
(0.869651 -0.00916839 2.92764e-22)
(0.878836 -0.00846475 -4.06015e-22)
(0.887502 -0.00784524 2.8725e-23)
(0.441348 -0.0672527 -2.37881e-21)
(0.484982 -0.0614246 5.48669e-22)
(0.525205 -0.0557852 -2.16814e-22)
(0.562109 -0.050452 -4.5852e-22)
(0.595855 -0.0454974 -6.54005e-23)
(0.626652 -0.0409576 1.49663e-21)
(0.654729 -0.0368415 4.6905e-22)
(0.680328 -0.0331387 -2.69568e-22)
(0.703683 -0.0298273 7.24169e-22)
(0.725022 -0.0268781 1.79251e-21)
(0.744556 -0.0242575 -1.19056e-21)
(0.762478 -0.0219313 -5.5713e-22)
(0.778961 -0.0198688 -1.50748e-21)
(0.794166 -0.0180411 5.62917e-22)
(0.808234 -0.0164189 -1.18359e-22)
(0.821289 -0.0149737 -1.79752e-22)
(0.833431 -0.0136858 3.1833e-22)
(0.84476 -0.0125418 -2.19996e-23)
(0.855368 -0.0115257 -1.59487e-22)
(0.865337 -0.0106119 2.82429e-22)
(0.874715 -0.0097811 -2.71889e-22)
(0.883546 -0.00903119 2.21514e-22)
(0.891877 -0.00837107 -3.6159e-23)
(0.461431 -0.0715726 2.8858e-21)
(0.503861 -0.0653486 2.88593e-21)
(0.542931 -0.0593282 -1.83036e-21)
(0.578736 -0.0536368 -8.51737e-22)
(0.61144 -0.0483516 2.15106e-21)
(0.64125 -0.0435111 -2.83639e-21)
(0.668398 -0.0391244 -1.75558e-23)
(0.693122 -0.0351801 -7.64741e-22)
(0.715655 -0.0316547 4.57176e-22)
(0.736222 -0.0285164 -3.29404e-22)
(0.755032 -0.0257295 -2.79386e-22)
(0.772276 -0.0232569 -2.90477e-22)
(0.788121 -0.0210658 7.97862e-22)
(0.802728 -0.0191252 5.81727e-22)
(0.816234 -0.0174039 -8.78314e-22)
(0.828762 -0.015871 -4.97925e-22)
(0.840409 -0.0145055 -9.0611e-23)
(0.851273 -0.0132931 8.91966e-23)
(0.861442 -0.0122168 -8.14241e-22)
(0.871001 -0.0112493 -2.25051e-22)
(0.879991 -0.0103696 1.43394e-22)
(0.888457 -0.0095752 -2.17346e-22)
(0.896443 -0.00887606 1.50704e-22)
(0.48181 -0.0757771 -4.51262e-22)
(0.523022 -0.0691648 -1.54994e-21)
(0.560927 -0.0627707 -1.60027e-21)
(0.595624 -0.0567282 1.60301e-22)
(0.627279 -0.0511192 -1.10355e-21)
(0.6561 -0.0459843 1.54988e-21)
(0.682315 -0.041333 1.32827e-21)
(0.706161 -0.0371528 -1.67325e-21)
(0.72787 -0.0334184 1.78965e-22)
(0.747662 -0.030096 -1.09294e-21)
(0.765745 -0.0271472 1.95398e-21)
(0.782306 -0.0245323 4.08981e-22)
(0.79751 -0.0222164 1.11077e-22)
(0.811514 -0.0201665 -5.59641e-22)
(0.824454 -0.0183494 3.58804e-22)
(0.836449 -0.0167318 6.08458e-22)
(0.847596 -0.0152914 -4.74981e-22)
(0.857987 -0.014013 2.58815e-22)
(0.867712 -0.012879 2.92971e-22)
(0.876852 -0.0118601 3.47269e-22)
(0.885449 -0.0109334 -4.6857e-23)
(0.893542 -0.0100962 2.06922e-22)
(0.901175 -0.00935968 -2.17974e-22)
(0.502356 -0.0798652 1.04599e-21)
(0.542339 -0.0728727 -4.76106e-22)
(0.579074 -0.0661126 4.96856e-22)
(0.612661 -0.0597263 3.16532e-22)
(0.643267 -0.0538003 -2.91783e-22)
(0.671098 -0.0483775 2.11898e-21)
(0.696383 -0.0434675 -2.21344e-22)
(0.719355 -0.039057 -9.02559e-22)
(0.740242 -0.0351188 1.00759e-21)
(0.759264 -0.031617 -2.00337e-21)
(0.776622 -0.0285107 1.74396e-21)
(0.792501 -0.0257577 -1.04882e-21)
(0.807065 -0.0233207 -1.0779e-21)
(0.820466 -0.021165 1.35331e-22)
(0.832839 -0.0192551 -5.49286e-22)
(0.844302 -0.0175559 -1.56107e-23)
(0.854945 -0.0160432 -1.28643e-22)
(0.864862 -0.0147014 4.00728e-22)
(0.874139 -0.0135119 1.46113e-22)
(0.882856 -0.0124437 3.10491e-22)
(0.891054 -0.0114721 2.58557e-22)
(0.898771 -0.010594 -1.34747e-22)
(0.906047 -0.00982153 -3.70948e-22)
(0.522952 -0.0838365 -1.36477e-22)
(0.561701 -0.0764722 2.00355e-21)
(0.597262 -0.0693542 -1.28202e-21)
(0.629741 -0.0626316 -2.16063e-22)
(0.659302 -0.0563956 -2.29134e-21)
(0.686151 -0.0506913 -7.62045e-22)
(0.710514 -0.0455287 1.75432e-21)
(0.73262 -0.0408934 6.49931e-22)
(0.752694 -0.0367565 8.44379e-22)
(0.770951 -0.0330801 5.60281e-22)
(0.787592 -0.0298206 -3.16126e-22)
(0.802797 -0.0269334 7.27652e-22)
(0.816727 -0.0243789 -4.48512e-22)
(0.82953 -0.0221207 1.16499e-21)
(0.841339 -0.0201214 -6.00891e-23)
(0.852271 -0.0183434 5.83912e-23)
(0.862414 -0.0167611 7.13669e-22)
(0.871857 -0.0153582 -5.30028e-22)
(0.880685 -0.0141155 -3.34046e-22)
(0.888978 -0.0130002 9.41718e-23)
(0.896778 -0.0119856 -4.9493e-23)
(0.904116 -0.0110682 -3.04755e-22)
(0.911031 -0.0102614 5.80259e-22)
(0.543495 -0.0876909 1.42232e-21)
(0.581005 -0.0799637 4.28865e-22)
(0.615396 -0.0724961 1.78875e-21)
(0.646771 -0.0654449 -2.38097e-21)
(0.675296 -0.0589061 2.48592e-22)
(0.701173 -0.052927 1.13194e-21)
(0.724625 -0.0475179 -1.52432e-21)
(0.745877 -0.0426633 9.11858e-22)
(0.76515 -0.0383327 -7.83562e-22)
(0.782657 -0.0344862 -2.46707e-21)
(0.798592 -0.0310778 1.05805e-21)
(0.813133 -0.0280602 -1.30845e-21)
(0.826437 -0.0253919 -4.20652e-22)
(0.838651 -0.0230345 3.25312e-22)
(0.849904 -0.0209486 -9.21908e-22)
(0.860311 -0.0190947 -5.18832e-23)
(0.869958 -0.0174453 -1.55978e-22)
(0.878931 -0.0159836 6.23006e-23)
(0.887314 -0.0146899 2.66569e-22)
(0.895186 -0.0135295 1.37789e-22)
(0.902587 -0.0124739 -2.56195e-22)
(0.909547 -0.0115188 -2.95434e-25)
(0.916102 -0.0106792 -6.57903e-23)
(0.563894 -0.0914283 -4.1122e-22)
(0.600165 -0.0833478 -2.60501e-21)
(0.633388 -0.0755394 3.3819e-21)
(0.663668 -0.0681677 -1.65838e-21)
(0.691167 -0.0613334 1.76647e-21)
(0.716086 -0.0550861 -5.54284e-22)
(0.738641 -0.0494364 1.04827e-21)
(0.759056 -0.044368 -2.94291e-21)
(0.777544 -0.0398488 1.49313e-21)
(0.794315 -0.0358366 2.73425e-21)
(0.809559 -0.0322834 2.98219e-22)
(0.823451 -0.0291393 -2.4672e-23)
(0.836143 -0.0263605 -1.20465e-21)
(0.847779 -0.0239069 -4.32827e-22)
(0.858487 -0.0217375 2.31632e-22)
(0.868379 -0.0198102 8.76435e-23)
(0.877538 -0.0180962 6.05344e-22)
(0.886048 -0.016578 -9.92087e-23)
(0.893991 -0.0152353 -4.09173e-22)
(0.901447 -0.014032 -2.00554e-22)
(0.908453 -0.0129371 -1.03282e-22)
(0.915038 -0.011946 -2.09654e-22)
(0.921234 -0.0110749 -2.6754e-23)
(0.58407 -0.0950493 6.63763e-22)
(0.619102 -0.0866252 -9.44352e-22)
(0.651163 -0.0784852 2.13301e-21)
(0.680357 -0.0708013 -1.0569e-21)
(0.706844 -0.0636791 -1.45999e-21)
(0.73082 -0.0571703 -1.92404e-21)
(0.752497 -0.0512862 1.24722e-23)
(0.772092 -0.0460094 2.46881e-21)
(0.789814 -0.0413064 -1.59822e-21)
(0.805868 -0.037133 3.1634e-22)
(0.820439 -0.033439 5.60594e-22)
(0.833698 -0.0301719 -7.47705e-22)
(0.845795 -0.0272859 1.87694e-21)
(0.856868 -0.0247392 1.47959e-21)
(0.867044 -0.0224889 -1.00492e-21)
(0.876432 -0.020491 -4.15711e-22)
(0.885114 -0.0187146 2.36508e-22)
(0.893171 -0.0171419 3.52654e-23)
(0.900683 -0.0157524 6.70324e-22)
(0.907729 -0.0145079 -3.57637e-22)
(0.914347 -0.0133756 2.64448e-22)
(0.920562 -0.01235 -1.0322e-22)
(0.926403 -0.0114489 3.59705e-22)
(0.603955 -0.0985544 -6.00626e-22)
(0.63775 -0.0897972 -6.32247e-22)
(0.668656 -0.0813349 -2.8836e-21)
(0.696776 -0.0733475 -2.35069e-22)
(0.722265 -0.065945 -1.75938e-22)
(0.745315 -0.0591816 2.16185e-21)
(0.766133 -0.0530691 -1.70152e-21)
(0.784928 -0.0475894 -3.243e-22)
(0.801906 -0.0427073 -1.0743e-21)
(0.817262 -0.0383771 -1.27319e-22)
(0.831181 -0.0345461 -1.21665e-22)
(0.843827 -0.0311596 1.02616e-21)
(0.855346 -0.0281695 -7.5436e-22)
(0.865874 -0.0255325 -3.30062e-22)
(0.875534 -0.0232041 1.13736e-21)
(0.884433 -0.0211379 5.75089e-23)
(0.892652 -0.0193014 -7.50034e-22)
(0.900267 -0.0176762 1.54712e-22)
(0.907358 -0.0162416 -1.91262e-22)
(0.914004 -0.0149579 -1.13855e-22)
(0.920241 -0.0137899 -8.14994e-22)
(0.926093 -0.0127313 6.40566e-22)
(0.931585 -0.0118014 3.9485e-23)
(0.623493 -0.101944 4.94585e-22)
(0.656054 -0.0928647 3.95499e-22)
(0.685813 -0.08409 -2.29202e-21)
(0.71287 -0.0758079 3.9601e-21)
(0.737378 -0.0681329 1.07863e-21)
(0.75952 -0.061122 6.09635e-22)
(0.779498 -0.0547873 1.43022e-21)
(0.797516 -0.04911 1.55239e-21)
(0.813771 -0.0440537 -1.21636e-21)
(0.828453 -0.0395709 2.20789e-21)
(0.841741 -0.0356067 -1.38696e-21)
(0.853795 -0.032104 -1.05349e-22)
(0.864757 -0.0290129 -3.21553e-22)
(0.874758 -0.0262884 -5.7645e-22)
(0.88392 -0.0238843 -7.73429e-22)
(0.892347 -0.0217521 1.094e-21)
(0.900117 -0.0198576 1.34744e-22)
(0.907304 -0.0181818 -5.26399e-23)
(0.913986 -0.0167039 2.16191e-22)
(0.920243 -0.0153826 3.37573e-22)
(0.926109 -0.0141805 1.48694e-22)
(0.931607 -0.0130903 -8.535e-23)
(0.936758 -0.0121327 -4.18225e-22)
(0.642635 -0.10522 -1.84173e-22)
(0.673967 -0.0958292 -1.00428e-21)
(0.702588 -0.0867522 7.05752e-22)
(0.728595 -0.0781844 -2.04716e-21)
(0.752137 -0.0702451 -1.50514e-21)
(0.773391 -0.0629936 -6.81284e-22)
(0.79255 -0.0564429 -1.56737e-21)
(0.809812 -0.0505735 1.31599e-21)
(0.825367 -0.0453477 1.00836e-22)
(0.839398 -0.0407163 1.63292e-21)
(0.852078 -0.0366226 -7.32384e-22)
(0.863564 -0.0330071 1.3266e-21)
(0.87399 -0.0298177 1.1134e-22)
(0.883485 -0.0270082 -1.09233e-21)
(0.892167 -0.0245309 1.31859e-21)
(0.90014 -0.0223349 -5.31306e-23)
(0.907478 -0.0203843 -7.30966e-22)
(0.914253 -0.0186596 5.98874e-22)
(0.920541 -0.0171401 -4.53511e-22)
(0.92642 -0.0157829 7.38485e-23)
(0.931928 -0.0145482 -5.49471e-22)
(0.937081 -0.0134276 8.34194e-22)
(0.941901 -0.0124436 -4.7899e-22)
(0.661344 -0.108382 -2.70044e-21)
(0.691451 -0.098692 1.13331e-21)
(0.718942 -0.0893232 2.56293e-21)
(0.743913 -0.0804789 2.18215e-22)
(0.766506 -0.0722835 1.76067e-22)
(0.78689 -0.0647986 1.61242e-21)
(0.805253 -0.0580381 4.06023e-22)
(0.821782 -0.051982 1.39449e-22)
(0.83666 -0.0465913 -1.66629e-21)
(0.850064 -0.0418155 -3.02486e-22)
(0.86216 -0.0375959 -8.50177e-22)
(0.8731 -0.0338706 1.90472e-21)
(0.883013 -0.0305858 -9.8036e-22)
(0.892024 -0.0276937 8.72548e-22)
(0.900247 -0.0251454 -1.3541e-21)
(0.907785 -0.0228876 3.22163e-22)
(0.914709 -0.0208827 -4.23723e-23)
(0.921089 -0.0191108 2.10127e-22)
(0.926997 -0.0175511 -1.6023e-22)
(0.932513 -0.0161596 3.03534e-22)
(0.937674 -0.0148937 6.49324e-22)
(0.942495 -0.013744 -9.77942e-22)
(0.946994 -0.0127345 -4.48549e-22)
(0.679587 -0.111433 -1.7693e-23)
(0.708475 -0.101455 -1.14352e-21)
(0.734847 -0.0918046 1.20613e-21)
(0.758795 -0.0826935 4.71994e-22)
(0.780455 -0.0742503 -1.17868e-21)
(0.799989 -0.0665392 -9.46558e-22)
(0.817576 -0.0595752 3.13108e-22)
(0.833395 -0.0533378 9.46226e-22)
(0.84762 -0.0477869 6.11671e-22)
(0.860421 -0.0428706 1.91809e-21)
(0.871958 -0.0385286 -6.32283e-22)
(0.882375 -0.0346966 -1.57044e-21)
(0.891798 -0.0313189 1.20015e-21)
(0.900347 -0.0283466 -1.24276e-22)
(0.908133 -0.0257293 4.20058e-22)
(0.915256 -0.0234117 4.37431e-22)
(0.921785 -0.0213543 -1.12031e-21)
(0.927786 -0.0195366 -6.58269e-22)
(0.933331 -0.0179382 5.83016e-22)
(0.938499 -0.0165137 -5.73426e-22)
(0.943327 -0.015218 7.30036e-22)
(0.947829 -0.0140403 7.08315e-22)
(0.952018 -0.0130062 4.12231e-22)
(0.697339 -0.114372 5.0033e-22)
(0.725016 -0.104118 -2.15883e-21)
(0.750279 -0.0941984 -1.05943e-22)
(0.773218 -0.0848301 -2.67261e-22)
(0.793962 -0.0761475 1.48963e-21)
(0.812665 -0.0682177 -2.52646e-21)
(0.829497 -0.0610565 2.30457e-22)
(0.844628 -0.0546432 4.62118e-22)
(0.858225 -0.0489367 -5.51583e-22)
(0.870446 -0.0438838 -1.43324e-22)
(0.881447 -0.0394227 -4.09445e-22)
(0.891365 -0.035487 4.86137e-22)
(0.900322 -0.032019 -1.35428e-21)
(0.908431 -0.0289686 2.37197e-22)
(0.915801 -0.0262843 -5.98787e-24)
(0.92253 -0.0239087 7.35648e-23)
(0.928683 -0.0218003 8.68846e-22)
(0.934325 -0.0199382 -2.75886e-22)
(0.939524 -0.0183024 4.60797e-22)
(0.94436 -0.0168462 -2.63096e-22)
(0.94887 -0.0155219 -3.60571e-22)
(0.953066 -0.0143172 -9.24572e-22)
(0.956957 -0.0132594 2.91201e-23)
(0.714581 -0.117203 -2.17833e-21)
(0.741054 -0.106686 4.77294e-21)
(0.76522 -0.0965064 -1.61459e-21)
(0.787164 -0.0868907 2.7674e-21)
(0.807009 -0.0779774 -1.78441e-21)
(0.824901 -0.0698361 3.20371e-21)
(0.840998 -0.0624841 -2.41517e-21)
(0.855464 -0.0559003 -2.05301e-21)
(0.868454 -0.0500427 2.9561e-22)
(0.88012 -0.0448572 -1.13032e-21)
(0.890608 -0.0402803 6.67113e-22)
(0.900052 -0.0362437 -8.16286e-22)
(0.908565 -0.0326878 3.8441e-23)
(0.916257 -0.0295615 1.3634e-21)
(0.923233 -0.026812 -1.76475e-22)
(0.929588 -0.0243802 -9.20764e-22)
(0.935386 -0.0222223 -6.24457e-22)
(0.940687 -0.020317 -8.40247e-23)
(0.945557 -0.0186449 4.20642e-22)
(0.950078 -0.0171582 -8.6453e-23)
(0.954285 -0.0158064 4.85427e-23)
(0.958189 -0.0145758 2.57867e-22)
(0.961797 -0.013495 4.90976e-22)
(0.731299 -0.119926 -1.40387e-21)
(0.756577 -0.109157 1.41106e-21)
(0.779658 -0.0987305 8.71551e-22)
(0.800622 -0.0888775 1.03279e-22)
(0.819584 -0.079742 -1.48979e-21)
(0.836683 -0.0713968 -5.07595e-22)
(0.852068 -0.0638602 1.26e-21)
(0.865889 -0.0571113 6.79521e-22)
(0.878295 -0.0511072 -1.11303e-22)
(0.889429 -0.0457929 1.60025e-21)
(0.899428 -0.0411034 4.23893e-23)
(0.90842 -0.0369687 -7.75557e-22)
(0.916512 -0.0333273 -3.47113e-22)
(0.92381 -0.0301269 3.52462e-22)
(0.930413 -0.0273141 -7.28294e-23)
(0.936415 -0.0248275 -7.88629e-22)
(0.941878 -0.0226215 2.45112e-22)
(0.946856 -0.0206743 2.513e-22)
(0.951416 -0.0189669 -4.07827e-22)
(0.955637 -0.0174508 -2.53933e-22)
(0.959557 -0.0160726 -2.6116e-23)
(0.963185 -0.0148169 4.30009e-22)
(0.966522 -0.0137137 -1.65789e-22)
(0.747483 -0.122542 -3.64277e-23)
(0.771577 -0.111536 -1.85938e-22)
(0.793585 -0.100873 1.06966e-21)
(0.813583 -0.0907924 2.31638e-21)
(0.831681 -0.0814434 -4.95662e-21)
(0.848006 -0.0729018 2.27458e-21)
(0.862696 -0.065187 1.23215e-21)
(0.875896 -0.0582784 -1.01699e-21)
(0.88774 -0.0521323 -7.51725e-22)
(0.898363 -0.0466928 4.18973e-22)
(0.907895 -0.0418941 -5.64201e-22)
(0.916457 -0.0376639 9.87283e-22)
(0.924152 -0.0339392 -8.08798e-25)
(0.931077 -0.0306667 1.3443e-22)
(0.937329 -0.0277922 -1.29073e-22)
(0.942998 -0.0252523 2.86112e-22)
(0.948145 -0.0229995 6.08862e-22)
(0.95282 -0.0210113 -1.37624e-22)
(0.957087 -0.0192696 3.81236e-22)
(0.961026 -0.0177251 -6.34022e-22)
(0.964675 -0.0163216 -3.89722e-22)
(0.96804 -0.0150414 -2.54205e-22)
(0.971122 -0.0139165 4.22004e-22)
(0.763127 -0.125055 -2.45328e-22)
(0.786049 -0.113824 -4.34096e-22)
(0.806998 -0.102935 -3.47307e-21)
(0.826046 -0.0926375 5.60035e-22)
(0.843296 -0.0830839 1.51076e-21)
(0.858864 -0.0743532 -2.51306e-21)
(0.872881 -0.0664666 6.3028e-22)
(0.885478 -0.0594035 -4.39848e-22)
(0.896781 -0.0531199 1.85722e-21)
(0.906915 -0.0475591 -1.7312e-21)
(0.916003 -0.0426541 4.28275e-22)
(0.924158 -0.0383311 -6.84978e-22)
(0.931475 -0.0345252 6.16385e-22)
(0.938048 -0.0311825 4.47258e-22)
(0.94397 -0.0282478 1.54702e-22)
(0.949327 -0.0256561 1.98832e-24)
(0.954177 -0.0233577 -3.80346e-22)
(0.958568 -0.0213295 2.60825e-22)
(0.96256 -0.0195543 4.47041e-22)
(0.966234 -0.0179822 -2.06489e-22)
(0.969627 -0.0165542 3.41446e-24)
(0.972746 -0.0152505 5.77013e-22)
(0.975585 -0.0141043 -1.42964e-22)
(0.778228 -0.127466 -3.1586e-22)
(0.79999 -0.116022 3.53826e-21)
(0.819895 -0.10492 8.21198e-22)
(0.83801 -0.0944151 -5.62324e-22)
(0.854428 -0.0846655 -5.68859e-22)
(0.86926 -0.0757531 -1.33948e-21)
(0.882622 -0.0677011 3.12348e-21)
(0.894636 -0.0604889 -1.33963e-21)
(0.905418 -0.0540721 2.0524e-21)
(0.915084 -0.0483935 -9.38898e-22)
(0.923748 -0.0433854 1.34462e-21)
(0.931516 -0.0389722 -4.8511e-22)
(0.938477 -0.0350872 -6.7164e-22)
(0.944719 -0.0316758 -1.1613e-21)
(0.95033 -0.0286824 -6.37826e-22)
(0.955395 -0.0260403 6.3216e-22)
(0.959967 -0.0236974 4.11673e-22)
(0.964092 -0.0216301 3.65527e-22)
(0.967827 -0.0198222 4.99574e-23)
(0.971251 -0.0182234 4.33395e-22)
(0.974405 -0.0167717 -7.58186e-23)
(0.977292 -0.015445 -1.25499e-22)
(0.979904 -0.0142779 -4.75357e-23)
(0.792786 -0.129778 1.13637e-21)
(0.813404 -0.118134 -4.02228e-22)
(0.832279 -0.106829 -1.71948e-21)
(0.849477 -0.0961272 4.69442e-22)
(0.865082 -0.0861902 2.39254e-22)
(0.879194 -0.0771037 7.85639e-22)
(0.89192 -0.0688923 -1.09948e-21)
(0.903371 -0.0615362 2.0036e-21)
(0.913652 -0.0549907 -1.44048e-21)
(0.92287 -0.049198 7.08753e-22)
(0.931129 -0.0440896 -8.32405e-22)
(0.93853 -0.0395886 5.026e-22)
(0.945155 -0.0356267 3.39611e-22)
(0.951086 -0.0321484 7.5997e-22)
(0.956405 -0.0290977 -1.04004e-21)
(0.961196 -0.0264063 -1.42068e-22)
(0.965509 -0.0240199 2.94893e-23)
(0.969385 -0.0219143 -3.04664e-22)
(0.97288 -0.0200745 -7.78364e-22)
(0.976072 -0.0184496 -1.31909e-23)
(0.979002 -0.016975 6.25786e-22)
(0.981672 -0.0156259 -1.20081e-23)
(0.984071 -0.0144383 1.31429e-22)
(0.806805 -0.131993 3.23344e-21)
(0.826292 -0.120161 -2.77132e-21)
(0.844155 -0.108666 -1.35212e-21)
(0.860453 -0.0977763 2.08817e-21)
(0.875263 -0.0876604 -2.27317e-21)
(0.888673 -0.0784069 -6.93132e-22)
(0.900781 -0.0700424 -1.8228e-21)
(0.911687 -0.0625476 3.17649e-21)
(0.921487 -0.0558775 8.59235e-22)
(0.930275 -0.0499741 -7.81309e-22)
(0.938149 -0.0447685 -1.06609e-21)
(0.945202 -0.0401822 2.11265e-21)
(0.95151 -0.0361452 -4.56859e-22)
(0.957147 -0.0326015 3.26233e-22)
(0.962193 -0.0294949 2.43031e-22)
(0.966728 -0.0267555 -5.73148e-22)
(0.970799 -0.0243266 5.96412e-22)
(0.974444 -0.0221835 -2.89941e-22)
(0.977715 -0.0203122 1.69165e-22)
(0.980691 -0.018662 3.08167e-22)
(0.983412 -0.0171651 -4.79492e-22)
(0.98588 -0.0157941 3.47874e-22)
(0.98808 -0.0145864 3.07124e-23)
(0.820287 -0.134114 -6.95407e-22)
(0.838663 -0.122108 6.56355e-22)
(0.855531 -0.110432 -2.3923e-22)
(0.870946 -0.0993648 2.40337e-21)
(0.884977 -0.0890785 -5.02887e-22)
(0.897705 -0.079665 -2.73085e-21)
(0.909213 -0.0711533 4.08681e-21)
(0.919593 -0.0635248 -4.44399e-21)
(0.928928 -0.0567344 -8.25665e-22)
(0.937305 -0.0507238 2.18899e-21)
(0.944812 -0.0454237 -2.00358e-21)
(0.951534 -0.0407544 -3.23179e-22)
(0.957542 -0.0366444 -1.21716e-22)
(0.962905 -0.0330368 6.51145e-22)
(0.967695 -0.0298755 4.59392e-22)
(0.97199 -0.0270891 -3.34744e-22)
(0.975836 -0.0246187 6.42883e-23)
(0.979267 -0.0224387 -6.39453e-22)
(0.98233 -0.0205366 1.19831e-21)
(0.985104 -0.0188615 -5.84335e-22)
(0.987631 -0.0173431 -4.90454e-22)
(0.989912 -0.0159508 -1.37085e-22)
(0.991926 -0.014723 1.41903e-22)
(0.833241 -0.136139 -1.74761e-21)
(0.850522 -0.123971 -1.27619e-21)
(0.866414 -0.112128 -4.0619e-22)
(0.880964 -0.100894 1.22768e-21)
(0.894237 -0.0904457 1.00764e-22)
(0.906298 -0.0808798 2.86258e-21)
(0.917225 -0.0722271 -5.1522e-22)
(0.927095 -0.06447 -9.8645e-22)
(0.935984 -0.0575634 2.64953e-22)
(0.943966 -0.051449 1.03074e-21)
(0.951123 -0.0460572 6.9557e-22)
(0.957532 -0.0413072 -1.94586e-21)
(0.963257 -0.0371259 -5.51317e-23)
(0.968361 -0.0334559 9.4204e-22)
(0.972912 -0.0302411 3.83018e-22)
(0.976984 -0.0274088 -3.00312e-22)
(0.980621 -0.0248977 3.00184e-23)
(0.983853 -0.0226815 -2.81491e-22)
(0.986723 -0.0207489 -5.12053e-22)
(0.989311 -0.0190495 1.861e-22)
(0.991658 -0.01751 4.84432e-22)
(0.993764 -0.0160968 2.66788e-22)
(0.995607 -0.0148492 -2.63812e-22)
(0.845675 -0.138059 1.15277e-22)
(0.861881 -0.125747 -8.56615e-22)
(0.876815 -0.11375 1.19067e-21)
(0.89052 -0.10236 1.4816e-21)
(0.903051 -0.0917609 -2.27919e-21)
(0.914465 -0.0820509 -1.76647e-21)
(0.924827 -0.073264 2.12224e-21)
(0.934205 -0.0653839 8.0906e-22)
(0.942663 -0.0583657 5.92391e-22)
(0.950268 -0.052151 -3.58551e-22)
(0.957091 -0.0466704 2.65373e-22)
(0.963202 -0.041842 -8.29326e-22)
(0.968661 -0.0375913 -6.54177e-22)
(0.973522 -0.0338603 4.75263e-22)
(0.977849 -0.0305931 -3.87992e-22)