/*--------------------------------*- C++ -*----------------------------------*\
  =========                 |
  \\      /  F ield         | OpenFOAM: The Open Source CFD Toolbox
   \\    /   O peration     | Website:  https://openfoam.org
    \\  /    A nd           | Version:  7
     \\/     M anipulation  |
\*---------------------------------------------------------------------------*/
FoamFile
{
    version     2.0;
    format      ascii;
    class       volScalarField;
    location    "120";
    object      p;
}
// * * * * * * * * * * * * * * * * * * * * * * * * * * * * * * * * * * * * * //

dimensions      [0 2 -2 0 0 0 0];

internalField   nonuniform List<scalar> 
7158
(
-0.0593069
-0.0642953
-0.0671012
-0.0660822
-0.0612131
-0.05473
-0.0484878
-0.0439676
-0.0419033
-0.0423304
-0.0440339
-0.0455269
-0.0447905
-0.0421798
-0.0378723
-0.0337001
-0.0310773
-0.0300855
-0.0308632
-0.0314202
-0.0303839
-0.0269383
-0.022913
-0.0171482
-0.0156197
-0.0127085
-0.0116425
-0.00657412
-0.0044244
-0.060202
-0.0655417
-0.0685692
-0.067594
-0.0625754
-0.0558117
-0.0492172
-0.0443183
-0.0418573
-0.0418907
-0.0432587
-0.0444927
-0.0436655
-0.0410887
-0.0369948
-0.0331091
-0.0308702
-0.0302818
-0.0314013
-0.0322804
-0.0313471
-0.0279742
-0.0237098
-0.0177074
-0.0158056
-0.0125203
-0.0112854
-0.00605606
-0.00412914
-0.0610904
-0.0667861
-0.0700397
-0.0691103
-0.0639404
-0.0568922
-0.0499417
-0.0446626
-0.0418058
-0.0414484
-0.0424848
-0.0434629
-0.0425458
-0.0400009
-0.0361173
-0.0325154
-0.0306592
-0.0304745
-0.0319378
-0.0331405
-0.0323115
-0.029011
-0.0245057
-0.0182653
-0.0159896
-0.0123305
-0.0109285
-0.00553958
-0.00383476
-0.061971
-0.0680274
-0.0715115
-0.07063
-0.0653077
-0.0579712
-0.0506613
-0.0450006
-0.0417493
-0.0410038
-0.0417128
-0.042438
-0.0414319
-0.0389168
-0.03524
-0.0319192
-0.0304442
-0.0306632
-0.0324724
-0.0340002
-0.0332768
-0.0300482
-0.0253007
-0.0188217
-0.0161719
-0.0121392
-0.0105721
-0.00502489
-0.00354133
-0.0628425
-0.0692643
-0.0729835
-0.0721523
-0.0666766
-0.0590485
-0.0513759
-0.0453326
-0.041688
-0.0405575
-0.0409432
-0.0414184
-0.0403241
-0.0378366
-0.0343632
-0.0313204
-0.0302252
-0.0308477
-0.0330049
-0.0348593
-0.0342426
-0.0310856
-0.0260944
-0.0193765
-0.0163524
-0.0119464
-0.0102163
-0.00451214
-0.00324892
-0.0637039
-0.0704956
-0.0744547
-0.0736764
-0.0680467
-0.0601237
-0.0520856
-0.0456587
-0.0416225
-0.0401098
-0.0401763
-0.0404046
-0.0392229
-0.0367608
-0.033487
-0.0307191
-0.030002
-0.0310278
-0.0335349
-0.0357173
-0.0352087
-0.0321228
-0.0268868
-0.0199296
-0.0165313
-0.0117522
-0.00986131
-0.00400154
-0.00295761
-0.064554
-0.07172
-0.0759238
-0.0752014
-0.0694174
-0.0611966
-0.0527902
-0.045979
-0.0415529
-0.0396613
-0.0394128
-0.039397
-0.0381285
-0.0356896
-0.0326117
-0.0301156
-0.0297744
-0.0312033
-0.034062
-0.0365739
-0.0361747
-0.0331594
-0.0276775
-0.0204809
-0.0167084
-0.0115569
-0.00950723
-0.00349327
-0.00266745
-0.0653915
-0.0729363
-0.0773896
-0.0767264
-0.0707881
-0.062267
-0.0534897
-0.0462938
-0.0414797
-0.0392124
-0.0386531
-0.0383961
-0.0370414
-0.0346233
-0.0317375
-0.0295097
-0.0295425
-0.0313738
-0.034586
-0.0374288
-0.0371402
-0.0341953
-0.0284664
-0.0210302
-0.0168839
-0.0113604
-0.00915426
-0.00298749
-0.00237852
-0.0662154
-0.0741431
-0.0788511
-0.0782504
-0.0721583
-0.0633346
-0.0541842
-0.0466032
-0.0414031
-0.0387636
-0.0378976
-0.0374023
-0.035962
-0.0335623
-0.0308645
-0.0289016
-0.029306
-0.0315392
-0.0351066
-0.0382817
-0.0381049
-0.03523
-0.0292532
-0.0215775
-0.0170579
-0.011163
-0.00880256
-0.00248441
-0.00209087
-0.0670244
-0.0753392
-0.0803069
-0.0797726
-0.0735274
-0.0643991
-0.0548736
-0.0469073
-0.0413234
-0.0383151
-0.0371468
-0.036416
-0.0348905
-0.0325068
-0.029993
-0.0282914
-0.0290649
-0.0316993
-0.0356234
-0.0391321
-0.0390685
-0.0362633
-0.0300377
-0.0221225
-0.0172302
-0.0109647
-0.00845227
-0.00198419
-0.00180458
-0.0678173
-0.0765232
-0.0817559
-0.0812919
-0.0748948
-0.0654603
-0.0555579
-0.0472064
-0.041241
-0.0378674
-0.036401
-0.0354376
-0.0338274
-0.0314572
-0.0291232
-0.0276792
-0.0288191
-0.0318537
-0.036136
-0.0399797
-0.0400307
-0.0372947
-0.0308198
-0.0226652
-0.017401
-0.0107657
-0.00810356
-0.00148701
-0.0015197
-0.068593
-0.0776938
-0.0831968
-0.0828074
-0.0762599
-0.066518
-0.0562371
-0.0475005
-0.0411562
-0.037421
-0.0356607
-0.0344674
-0.032773
-0.0304138
-0.0282554
-0.0270649
-0.0285685
-0.0320024
-0.0366443
-0.0408243
-0.040991
-0.0383241
-0.0315992
-0.0232055
-0.0175702
-0.010566
-0.00775659
-0.00099305
-0.00123629
-0.0693503
-0.0788497
-0.0846283
-0.0843181
-0.0776221
-0.0675718
-0.0569111
-0.0477899
-0.0410693
-0.0369761
-0.0349263
-0.0335059
-0.0317276
-0.0293768
-0.0273896
-0.0264488
-0.0283129
-0.0321449
-0.0371478
-0.0416654
-0.0419493
-0.039351
-0.0323756
-0.0237431
-0.017738
-0.0103658
-0.00741149
-0.000502486
-0.000954406
-0.0700879
-0.0799895
-0.0860491
-0.0858228
-0.0789807
-0.0686215
-0.0575799
-0.0480747
-0.0409805
-0.0365331
-0.034198
-0.0325533
-0.0306915
-0.0283466
-0.0265261
-0.0258309
-0.0280524
-0.0322812
-0.0376462
-0.0425027
-0.042905
-0.0403752
-0.0331488
-0.0242781
-0.0179043
-0.0101653
-0.00706843
-1.54896e-05
-0.000674096
-0.0708047
-0.081112
-0.087458
-0.0873207
-0.0803352
-0.0696669
-0.0582436
-0.0483551
-0.0408901
-0.0360924
-0.0334764
-0.0316101
-0.029665
-0.0273234
-0.0256652
-0.0252113
-0.0277867
-0.032411
-0.0381393
-0.0433359
-0.043858
-0.0413963
-0.0339187
-0.0248101
-0.018069
-0.00996445
-0.00672754
0.000467764
-0.000395418
-0.0714996
-0.0822157
-0.0888537
-0.0888107
-0.081685
-0.0707077
-0.0589021
-0.0486312
-0.0407983
-0.0356543
-0.0327617
-0.0306766
-0.0286485
-0.0263075
-0.024807
-0.02459
-0.0275158
-0.032534
-0.0386267
-0.0441646
-0.0448079
-0.0424139
-0.034685
-0.0253392
-0.0182324
-0.00976345
-0.00638897
0.00094711
-0.000118418
-0.0721714
-0.0832993
-0.0902349
-0.0902918
-0.0830292
-0.0717436
-0.0595555
-0.0489031
-0.0407056
-0.0352191
-0.0320542
-0.029753
-0.0276421
-0.0252991
-0.0239516
-0.0239672
-0.0272395
-0.0326501
-0.039108
-0.0449884
-0.0457542
-0.0434279
-0.0354474
-0.0258652
-0.0183942
-0.00956239
-0.00605286
0.00142238
0.000156855
-0.072819
-0.0843617
-0.0916003
-0.091763
-0.0843674
-0.0727744
-0.0602036
-0.049171
-0.040612
-0.034787
-0.0313543
-0.0288396
-0.0266463
-0.0242987
-0.0230994
-0.023343
-0.0269579
-0.0327589
-0.039583
-0.0458071
-0.0466969
-0.0444378
-0.0362057
-0.0263878
-0.0185546
-0.0093614
-0.00571934
0.0018934
0.000430358
-0.0734412
-0.0854013
-0.0929486
-0.0932231
-0.0856988
-0.0737997
-0.0608466
-0.0494351
-0.0405178
-0.0343585
-0.0306622
-0.0279369
-0.0256613
-0.0233063
-0.0222505
-0.0227173
-0.0266708
-0.0328604
-0.0400513
-0.0466203
-0.0476353
-0.0454434
-0.0369598
-0.0269071
-0.0187136
-0.00916058
-0.00538855
0.00236
0.000702043
-0.0740371
-0.086417
-0.0942785
-0.0946711
-0.0870228
-0.0748194
-0.0614843
-0.0496954
-0.0404233
-0.0339338
-0.0299782
-0.0270449
-0.0246874
-0.0223224
-0.0214051
-0.0220905
-0.0263781
-0.0329543
-0.0405127
-0.0474277
-0.0485694
-0.0464443
-0.0377093
-0.0274228
-0.0188711
-0.00896004
-0.00506062
0.00282204
0.000971872
-0.0746056
-0.0874074
-0.0955887
-0.096106
-0.0883386
-0.075833
-0.0621168
-0.0499521
-0.0403286
-0.033513
-0.0293026
-0.026164
-0.0237247
-0.021347
-0.0205634
-0.0214625
-0.0260798
-0.0330403
-0.0409668
-0.0482289
-0.0494987
-0.0474403
-0.0384541
-0.0279347
-0.0190271
-0.0087599
-0.00473567
0.00327934
0.00123981
-0.0751457
-0.0883714
-0.0968779
-0.0975266
-0.0896457
-0.0768404
-0.062744
-0.0502054
-0.040234
-0.0330966
-0.0286356
-0.0252945
-0.0227735
-0.0203806
-0.0197256
-0.0208334
-0.0257758
-0.0331183
-0.0414133
-0.0490236
-0.0504229
-0.0484309
-0.0391939
-0.0284429
-0.0191816
-0.00856026
-0.00441383
0.00373174
0.00150581
-0.0756563
-0.0893077
-0.0981449
-0.0989319
-0.0909432
-0.0778412
-0.063366
-0.0504554
-0.0401396
-0.0326846
-0.0279774
-0.0244365
-0.0218342
-0.0194233
-0.0188919
-0.0202034
-0.025466
-0.0331881
-0.0418519
-0.0498114
-0.0513417
-0.049416
-0.0399285
-0.028947
-0.0193347
-0.00836122
-0.00409521
0.00417909
0.00176984
-0.0761365
-0.0902151
-0.0993885
-0.100321
-0.0922304
-0.0788351
-0.0639828
-0.0507021
-0.0400457
-0.0322773
-0.0273283
-0.0235902
-0.0209068
-0.0184754
-0.0180625
-0.0195725
-0.0251503
-0.0332495
-0.0422823
-0.0505921
-0.0522548
-0.0503951
-0.0406576
-0.029447
-0.0194862
-0.00816289
-0.00377993
0.00462124
0.00203187
-0.0765855
-0.0910924
-0.100607
-0.101692
-0.0935067
-0.0798219
-0.0645942
-0.0509457
-0.0399524
-0.0318749
-0.0266884
-0.022756
-0.0199916
-0.0175371
-0.0172375
-0.0189409
-0.0248287
-0.0333023
-0.0427042
-0.0513652
-0.0531618
-0.051368
-0.0413811
-0.0299426
-0.0196362
-0.00796538
-0.0034681
0.00505802
0.00229187
-0.0770024
-0.0919385
-0.1018
-0.103045
-0.0947713
-0.0808012
-0.0652004
-0.0511863
-0.0398599
-0.0314776
-0.026058
-0.0219339
-0.0190889
-0.0166086
-0.0164172
-0.0183087
-0.0245012
-0.0333462
-0.0431173
-0.0521305
-0.0540625
-0.0523344
-0.0420987
-0.0304338
-0.0197846
-0.00776878
-0.00315983
0.0054893
0.00254981
-0.0773863
-0.0927523
-0.102966
-0.104379
-0.0960236
-0.0817726
-0.0658012
-0.0514241
-0.0397683
-0.0310855
-0.0254371
-0.0211242
-0.0181988
-0.0156902
-0.0156017
-0.017676
-0.0241676
-0.0333812
-0.0435213
-0.0528876
-0.0549565
-0.0532939
-0.0428102
-0.0309204
-0.0199315
-0.0075732
-0.00285522
0.00591491
0.00280565
-0.0777364
-0.0935327
-0.104103
-0.105691
-0.0972626
-0.082736
-0.0663966
-0.0516591
-0.0396779
-0.0306989
-0.024826
-0.020327
-0.0173214
-0.0147821
-0.0147912
-0.0170429
-0.023828
-0.0334071
-0.0439159
-0.0536362
-0.0558435
-0.0542463
-0.0435154
-0.0314021
-0.0200767
-0.00737872
-0.00255437
0.00633472
0.00305938
-0.0780521
-0.0942788
-0.105211
-0.106982
-0.0984878
-0.0836908
-0.0669866
-0.0518914
-0.0395887
-0.0303179
-0.0242247
-0.0195424
-0.0164571
-0.0138844
-0.013986
-0.0164095
-0.0234823
-0.0334236
-0.0443008
-0.054376
-0.0567233
-0.0551913
-0.044214
-0.031879
-0.0202202
-0.00718546
-0.00225738
0.00674858
0.00331096
-0.0783327
-0.0949895
-0.106289
-0.108251
-0.0996983
-0.0846368
-0.0675713
-0.0521211
-0.0395009
-0.0299425
-0.0236334
-0.0187707
-0.0156059
-0.0129975
-0.0131861
-0.0157761
-0.0231304
-0.0334307
-0.0446758
-0.0551066
-0.0575954
-0.0561286
-0.0449058
-0.0323507
-0.0203621
-0.0069935
-0.00196433
0.00715634
0.00356038
-0.0785775
-0.0956639
-0.107334
-0.109495
-0.100893
-0.0855737
-0.0681504
-0.0523484
-0.0394145
-0.0295729
-0.0230523
-0.0180118
-0.014768
-0.0121215
-0.0123918
-0.0151426
-0.0227725
-0.0334281
-0.0450406
-0.0558278
-0.0584597
-0.0570579
-0.0455907
-0.0328172
-0.0205022
-0.00680293
-0.00167532
0.00755788
0.00380761
-0.078786
-0.0963012
-0.108348
-0.110715
-0.102072
-0.086501
-0.068724
-0.0525732
-0.0393298
-0.0292093
-0.0224813
-0.017266
-0.0139435
-0.0112565
-0.0116033
-0.0145093
-0.0224083
-0.0334157
-0.0453948
-0.0565392
-0.0593158
-0.0579788
-0.0462683
-0.0332782
-0.0206404
-0.00661385
-0.00139042
0.00795304
0.00405264
-0.0789576
-0.0969004
-0.109327
-0.111909
-0.103235
-0.0874185
-0.0692921
-0.0527957
-0.0392468
-0.0288516
-0.0219206
-0.0165334
-0.0131326
-0.0104029
-0.0108207
-0.0138763
-0.022038
-0.0333935
-0.0457383
-0.0572405
-0.0601634
-0.0588912
-0.0469385
-0.0337337
-0.0207769
-0.00642633
-0.00110972
0.00834171
0.00429545
-0.0790919
-0.0974609
-0.110272
-0.113076
-0.104379
-0.0883257
-0.0698546
-0.053016
-0.0391656
-0.0285001
-0.0213702
-0.0158139
-0.0123354
-0.00956076
-0.0100442
-0.0132437
-0.0216615
-0.0333612
-0.0460707
-0.0579314
-0.0610022
-0.0597946
-0.0476011
-0.0341834
-0.0209114
-0.00624047
-0.000833284
0.00872375
0.00453602
-0.0791885
-0.0979819
-0.111181
-0.114215
-0.105505
-0.0892222
-0.0704114
-0.0532341
-0.0390863
-0.0281547
-0.0208302
-0.0151078
-0.011552
-0.00873027
-0.00927406
-0.0126116
-0.0212789
-0.0333187
-0.0463918
-0.0586115
-0.0618319
-0.0606889
-0.0482558
-0.0346271
-0.021044
-0.00605635
-0.00056119
0.00909902
0.00477434
-0.0792471
-0.0984628
-0.112053
-0.115326
-0.106612
-0.0901077
-0.0709624
-0.0534501
-0.0390091
-0.0278155
-0.0203006
-0.0144149
-0.0107826
-0.00791163
-0.00851034
-0.0119803
-0.0208901
-0.0332659
-0.0467013
-0.0592806
-0.0626523
-0.0615738
-0.0489024
-0.0350648
-0.0211746
-0.00587404
-0.0002935
0.00946741
0.00501039
-0.0792673
-0.0989029
-0.112888
-0.116407
-0.107699
-0.0909817
-0.0715076
-0.0536641
-0.0389339
-0.0274826
-0.0197814
-0.0137355
-0.0100272
-0.007105
-0.00775327
-0.0113499
-0.0204951
-0.0332027
-0.046999
-0.0599383
-0.0634629
-0.0624489
-0.0495408
-0.0354962
-0.021303
-0.00569362
-3.02747e-05
0.00982879
0.00524417
-0.079249
-0.0993016
-0.113685
-0.117458
-0.108765
-0.0918439
-0.0720469
-0.0538761
-0.0388608
-0.0271559
-0.0192726
-0.0130695
-0.00928592
-0.00631055
-0.00700303
-0.0107205
-0.020094
-0.033129
-0.0472847
-0.0605844
-0.0642637
-0.063314
-0.0501707
-0.0359211
-0.0214293
-0.00551517
0.00022843
0.010183
0.00547566
-0.079192
-0.0996585
-0.114443
-0.118477
-0.10981
-0.0926938
-0.0725802
-0.0540862
-0.03879
-0.0268357
-0.0187742
-0.012417
-0.00855884
-0.00552846
-0.0062598
-0.0100923
-0.0196869
-0.0330448
-0.0475581
-0.0612185
-0.0650542
-0.0641689
-0.050792
-0.0363394
-0.0215534
-0.00533875
0.000482563
0.0105301
0.00570487
-0.0790961
-0.0999731
-0.115162
-0.119465
-0.110833
-0.093531
-0.0731075
-0.0542945
-0.0387215
-0.0265217
-0.0182862
-0.0117779
-0.00784603
-0.00475889
-0.00552377
-0.00946553
-0.0192737
-0.0329498
-0.0478189
-0.0618404
-0.0658341
-0.0650132
-0.0514044
-0.036751
-0.0216752
-0.00516444
0.000732076
0.0108697
0.00593177
-0.0789614
-0.100245
-0.11584
-0.120419
-0.111833
-0.0943551
-0.0736285
-0.0545009
-0.0386553
-0.0262141
-0.0178086
-0.0111522
-0.00714756
-0.00400199
-0.00479511
-0.00884027
-0.0188546
-0.0328441
-0.048067
-0.0624497
-0.0666032
-0.0658467
-0.0520077
-0.0371556
-0.0217947
-0.0049923
0.00097693
0.0112019
0.00615638
-0.0787879
-0.100474
-0.116477
-0.121339
-0.112809
-0.0951656
-0.0741432
-0.0547055
-0.0385914
-0.0259128
-0.0173413
-0.0105401
-0.0064635
-0.00325794
-0.00407403
-0.00821675
-0.0184295
-0.0327276
-0.0483022
-0.0630462
-0.0673613
-0.0666691
-0.0526017
-0.0375531
-0.0219117
-0.00482239
0.00121708
0.0115266
0.00637868
-0.0785755
-0.10066
-0.117073
-0.122225
-0.113761
-0.095962
-0.0746516
-0.0549086
-0.0385302
-0.0256181
-0.0168843
-0.00994143
-0.00579397
-0.00252695
-0.00336075
-0.00759517
-0.0179986
-0.0326003
-0.0485241
-0.0636294
-0.0681079
-0.0674801
-0.0531863
-0.0379433
-0.0220261
-0.00465478
0.00145247
0.0118435
0.00659867
-0.0783245
-0.100802
-0.117626
-0.123075
-0.114688
-0.0967442
-0.0751537
-0.0551101
-0.0384715
-0.0253297
-0.0164376
-0.00935621
-0.00513899
-0.00180919
-0.0026555
-0.00697574
-0.017562
-0.032462
-0.0487326
-0.0641992
-0.0688427
-0.0682796
-0.0537613
-0.038326
-0.0221381
-0.00448951
0.00168311
0.0121528
0.00681636
-0.078035
-0.1009
-0.118137
-0.12389
-0.11559
-0.0975122
-0.075649
-0.0553095
-0.0384146
-0.0250469
-0.0160001
-0.00878345
-0.00449778
-0.00110426
-0.0019582
-0.00635854
-0.0171196
-0.0323127
-0.0489276
-0.0647555
-0.0695659
-0.0690674
-0.0543267
-0.0387011
-0.0222472
-0.00432656
0.00190912
0.0124541
0.00703177
-0.0777086
-0.100957
-0.118608
-0.124671
-0.116467
-0.0982644
-0.0761354
-0.0555046
-0.0383577
-0.0247684
-0.0155706
-0.00822207
-0.0038693
-0.000411353
-0.00126843
-0.00574346
-0.0166717
-0.0321528
-0.0491094
-0.0652984
-0.0702776
-0.0698435
-0.0548821
-0.0390682
-0.022353
-0.00416579
0.00213064
0.0127477
0.00724491
-0.0773451
-0.100971
-0.119034
-0.125411
-0.117311
-0.0989945
-0.0766114
-0.0556976
-0.0383049
-0.0244986
-0.0151547
-0.00767778
-0.0032589
0.000265542
-0.000588647
-0.00513185
-0.0162187
-0.031982
-0.0492771
-0.0658265
-0.0709755
-0.0706058
-0.0554259
-0.0394267
-0.0224563
-0.0040077
0.00234652
0.0130331
0.00745565
-0.0769282
-0.100913
-0.119378
-0.126069
-0.118096
-0.0997001
-0.0770908
-0.0559079
-0.0382751
-0.0242545
-0.0147698
-0.00716862
-0.00268514
0.0009102
7.01301e-05
-0.00452979
-0.0157613
-0.031797
-0.0494238
-0.0663305
-0.0716504
-0.0713493
-0.0559561
-0.0397784
-0.0225607
-0.00385448
0.00255343
0.0133092
0.00766356
-0.0764375
-0.10076
-0.119627
-0.126659
-0.11886
-0.100426
-0.0776067
-0.0561527
-0.0382728
-0.0240312
-0.014403
-0.00667875
-0.00213319
0.00153206
0.000712863
-0.00393476
-0.0152966
-0.0315936
-0.0495459
-0.0668092
-0.0723071
-0.0720816
-0.0564827
-0.0401287
-0.0226674
-0.00370667
0.00275484
0.0135764
0.00786943
-0.0760655
-0.100829
-0.120183
-0.127588
-0.119877
-0.10126
-0.0781095
-0.0563161
-0.038163
-0.0236929
-0.0138952
-0.00603237
-0.00141399
0.00230275
0.00146294
-0.00327443
-0.0148111
-0.0314072
-0.0497185
-0.0673618
-0.0730441
-0.0728615
-0.0570375
-0.040473
-0.0227504
-0.00354791
0.0029849
0.0138447
0.00807921
-0.102603
-0.12323
-0.131232
-0.123058
-0.103371
-0.0790688
-0.0563616
-0.0375812
-0.0226201
-0.0123703
-0.00411952
0.000757267
0.00460327
0.0035998
-0.00149532
-0.013666
-0.0311475
-0.0504162
-0.0689577
-0.0749774
-0.0747087
-0.0583054
-0.0411709
-0.0228462
-0.00317037
0.00356406
0.0144275
0.00853039
-0.103004
-0.124436
-0.132892
-0.124663
-0.104428
-0.079311
-0.055855
-0.0365502
-0.0211992
-0.0106785
-0.00224709
0.00269785
0.00656022
0.00553697
0.000234607
-0.0124559
-0.0307731
-0.0510084
-0.0706323
-0.0770521
-0.0767617
-0.0597225
-0.0418968
-0.0229065
-0.00265352
0.0042617
0.0151672
0.00908831
-0.102764
-0.124929
-0.134017
-0.125874
-0.105163
-0.0793336
-0.0552012
-0.0354361
-0.0197556
-0.00902286
-0.000453269
0.00452015
0.00844094
0.00729626
0.00182811
-0.0112995
-0.0303397
-0.0514385
-0.0721292
-0.0789521
-0.0786606
-0.0610067
-0.0425023
-0.0229233
-0.00213002
0.00490249
0.0158438
0.00959605
-0.102374
-0.125339
-0.134982
-0.126816
-0.105614
-0.079117
-0.0543769
-0.0342185
-0.0182657
-0.00736544
0.00132818
0.00633122
0.0103311
0.00909368
0.0034821
-0.0100625
-0.0298205
-0.0517964
-0.0735674
-0.0807967
-0.0804477
-0.062175
-0.0429858
-0.0228854
-0.00159663
0.00549886
0.0164555
0.0100667
-0.101756
-0.125425
-0.135458
-0.127278
-0.105666
-0.0786125
-0.0533659
-0.0328953
-0.0167357
-0.00572314
0.00305607
0.008062
0.0121435
0.0108545
0.0051389
-0.00877477
-0.0292214
-0.0520601
-0.074885
-0.0825095
-0.0820598
-0.0631908
-0.0433276
-0.0227836
-0.00105867
0.00604492
0.0169892
0.0104936
-0.100729
-0.124961
-0.135332
-0.127191
-0.105279
-0.0778022
-0.0521627
-0.0314672
-0.0151697
-0.00410156
0.00471809
0.00969323
0.0138445
0.0125253
0.00674632
-0.00746751
-0.0285392
-0.0521845
-0.076017
-0.0840352
-0.0834606
-0.0640332
-0.0435167
-0.0226108
-0.000519516
0.00653906
0.0174377
0.0108715
-0.0992149
-0.123901
-0.134587
-0.126523
-0.104427
-0.0766697
-0.0507624
-0.0299358
-0.0135711
-0.00250331
0.00631235
0.0112253
0.0154304
0.0140969
0.00829316
-0.0061452
-0.0277634
-0.052141
-0.0769296
-0.0853439
-0.0846248
-0.0646842
-0.0435438
-0.0223602
1.84597e-05
0.00698163
0.0177957
0.011198
-0.0972119
-0.122242
-0.13319
-0.125238
-0.103081
-0.0751999
-0.0491617
-0.0283037
-0.0119443
-0.000931189
0.00783707
0.0126574
0.0168996
0.0155693
0.00977905
-0.00480543
-0.0268864
-0.0519136
-0.0775965
-0.0864033
-0.085524
-0.0651243
-0.0433998
-0.0220252
0.000552975
0.00737339
0.0180581
0.0114712
-0.0947234
-0.119962
-0.131106
-0.123304
-0.10122
-0.0733814
-0.0473593
-0.0265749
-0.0102946
0.000611527
0.00929001
0.0139881
0.018249
0.0169398
0.0112002
-0.00344947
-0.0259038
-0.0514869
-0.077986
-0.0871749
-0.0861262
-0.0653331
-0.0430765
-0.0216004
0.00108176
0.0077155
0.0182202
0.011689
-0.0917411
-0.117037
-0.128307
-0.120701
-0.0988279
-0.0712069
-0.0453564
-0.0247549
-0.00862816
0.00212104
0.0106692
0.0152166
0.0194754
0.0182039
0.0125498
-0.00208156
-0.0248124
-0.0508429
-0.0780617
-0.0876172
-0.0863986
-0.0652903
-0.0425674
-0.0210813
0.00160254
0.00800963
0.0182782
0.0118497
-0.0882581
-0.113453
-0.124779
-0.117413
-0.0958959
-0.0686739
-0.0431567
-0.0228509
-0.00695222
0.00359302
0.0119728
0.0163434
0.0205765
0.0193575
0.013821
-0.000706826
-0.0236087
-0.0499635
-0.0777872
-0.0876882
-0.0863077
-0.064976
-0.0418673
-0.0204647
0.00211302
0.00825793
0.018229
0.011952
-0.0842787
-0.109208
-0.120516
-0.113441
-0.0924254
-0.0657862
-0.0407671
-0.0208715
-0.00527476
0.00502258
0.0131992
0.0173693
0.0215513
0.0203976
0.0150071
0.000669057
-0.0222905
-0.0488324
-0.0771277
-0.0873463
-0.0858207
-0.0643711
-0.0409733
-0.0197493
0.00261074
0.008463
0.0180707
0.0119951
-0.0798184
-0.10431
-0.115527
-0.108793
-0.0884277
-0.0625541
-0.0381976
-0.0188265
-0.00360455
0.00640431
0.0143467
0.0182961
0.0223994
0.0213218
0.0161021
0.00203942
-0.0208574
-0.0474368
-0.0760511
-0.0865517
-0.0849065
-0.0634579
-0.0398847
-0.0189354
0.00309297
0.00862775
0.0178027
0.0119791
-0.0749026
-0.0987815
-0.109835
-0.103494
-0.0839251
-0.0589951
-0.0354618
-0.0167274
-0.00195092
0.00773228
0.0154138
0.0191258
0.0231216
0.0221286
0.0171
0.0033963
-0.0193113
-0.0457675
-0.0745301
-0.0852689
-0.0835375
-0.0622216
-0.0386034
-0.0180257
0.00355663
0.00875525
0.0174257
0.0119047
-0.0695675
-0.0926592
-0.103476
-0.0975816
-0.0789517
-0.0551348
-0.032577
-0.0145866
-0.000323585
0.00900023
0.0163983
0.0198613
0.0237194
0.0228172
0.0179952
0.00473045
-0.0176568
-0.0438206
-0.0725444
-0.0834692
-0.0816914
-0.0606505
-0.0371344
-0.0170247
0.00399817
0.00884852
0.0169422
0.0117736
-0.0638603
-0.0859936
-0.0965051
-0.0911095
-0.0735538
-0.0510064
-0.0295642
-0.0124177
0.00126769
0.0102017
0.0172982
0.0205054
0.0241953
0.0233873
0.0187828
0.00603138
-0.0159011
-0.0415977
-0.0700824
-0.0811326
-0.0793534
-0.0587378
-0.0354855
-0.0159393
0.00441352
0.00891023
0.0163566
0.0115887
-0.05784
-0.0788512
-0.0889936
-0.0841472
-0.06779
-0.0466513
-0.0264481
-0.0102349
0.00281335
0.0113306
0.018111
0.0210609
0.0245528
0.02384
0.0194584
0.0072875
-0.0140551
-0.0391075
-0.0671437
-0.078251
-0.0765183
-0.0564824
-0.0336679
-0.0147786
0.00479815
0.00894244
0.0156757
0.0113536
-0.0515767
-0.0713143
-0.0810302
-0.0767798
-0.0617299
-0.0421178
-0.0232571
-0.00805326
0.00430434
0.0123809
0.0188339
0.0215305
0.0247967
0.0241769
0.0200186
0.0084863
-0.0121326
-0.0363661
-0.0637408
-0.0748301
-0.073192
-0.0538904
-0.031696
-0.0135538
0.0051471
0.00894628
0.0149088
0.0110729
-0.0451503
-0.0634807
-0.0727201
-0.0691058
-0.0554538
-0.0374609
-0.0200224
-0.00588796
0.00573247
0.0133479
0.0194644
0.0219164
0.0249325
0.0244002
0.0204611
0.00961456
-0.0101514
-0.0333977
-0.0599
-0.0708909
-0.0693936
-0.0509755
-0.0295875
-0.0122777
0.00545524
0.00892183
0.0140681
0.010752
-0.0386493
-0.0554638
-0.0641845
-0.0612355
-0.0490493
-0.0327401
-0.0167776
-0.00375444
0.00709061
0.0142278
0.0200003
0.0222206
0.0249667
0.024513
0.0207849
0.0106589
-0.00813238
-0.0302341
-0.055662
-0.0664713
-0.0651564
-0.0477605
-0.0273633
-0.0109648
0.00571753
0.00886799
0.0131688
0.0103962
-0.0321686
-0.0473876
-0.0555558
-0.0532895
-0.0426104
-0.0280178
-0.0135578
-0.001668
0.00837295
0.0150185
0.0204402
0.0224444
0.0249067
0.0245187
0.0209904
0.0116062
-0.00609952
-0.0269148
-0.0510816
-0.0616253
-0.0605282
-0.0442776
-0.0250471
-0.00963043
0.0059294
0.00878273
0.0122291
0.010011
-0.0258061
-0.0393826
-0.0469755
-0.045396
-0.0362336
-0.0233573
-0.0103982
0.000356423
0.00957511
0.0157198
0.0207841
0.022589
0.0247609
0.0244217
0.0210799
0.0124446
-0.00407908
-0.023486
-0.0462267
-0.0564232
-0.0555713
-0.0405683
-0.0226652
-0.0082907
0.00608715
0.00866345
0.0112696
0.00960109
-0.0196585
-0.0315829
-0.0385904
-0.0376837
-0.0300139
-0.0188197
-0.00733285
0.00230456
0.0106942
0.0163332
0.0210336
0.022656
0.024538
0.0242271
0.0210577
0.0131641
-0.00209882
-0.0199994
-0.0411772
-0.0509495
-0.0503598
-0.0366827
-0.0202462
-0.00696174
0.00618845
0.00850772
0.0103128
0.00917032
-0.0138174
-0.0241199
-0.0305434
-0.0302766
-0.0240406
-0.0144618
-0.00439347
0.0041631
0.0117287
0.0168622
0.0211926
0.0226474
0.0242479
0.0239417
0.0209306
0.0137579
-0.000186687
-0.0165107
-0.0360219
-0.0452993
-0.0449772
-0.0326795
-0.0178199
-0.00565937
0.00623268
0.0083141
0.00938174
0.00872121
-0.00836416
-0.017115
-0.0229674
-0.0232885
-0.0183933
-0.010333
-0.00160779
0.0059201
0.0126783
0.0173119
0.0212672
0.0225673
0.0239009
0.0235741
0.0207084
0.0142235
0.00163042
-0.0130782
-0.0308546
-0.0395764
-0.0394704
-0.028624
-0.0154173
-0.00439864
0.00622129
0.00808303
0.00849853
0.00825505
-0.00336489
-0.0106728
-0.0159778
-0.0168163
-0.0131381
-0.00647374
0.00100141
0.00756533
0.0135441
0.0176887
0.0212659
0.0224213
0.0235079
0.023136
0.0204048
0.0145637
0.00332809
-0.00976006
-0.0257716
-0.0338926
-0.0340492
-0.0245872
-0.0130691
-0.00319348
0.006158
0.00781757
0.00768256
0.00777221
0.0011338
-0.00487445
-0.00966391
-0.0109334
-0.00832336
-0.00291348
0.00341717
0.00909063
0.0143276
0.0179997
0.0211989
0.0222172
0.0230803
0.0226408
0.0200371
0.0147873
0.00488584
-0.00661253
-0.0208681
-0.0283568
-0.0287564
-0.0206388
-0.0108052
-0.00205635
0.0060488
0.00752361
0.0069488
0.00727269
0.00510778
0.000228083
-0.00408454
-0.00568435
-0.0039773
0.000329947
0.00562871
0.0104902
0.0150313
0.0182522
0.0210778
0.0219651
0.0226293
0.0221086
0.0196261
0.0149087
0.00628815
-0.00368758
-0.0162334
-0.023072
-0.0236869
-0.0168472
-0.00865302
-0.000997971
0.0059018
0.00720969
0.00630643
0.00675696
0.00855607
0.00461619
0.000739079
-0.0010841
-0.000108997
0.00324994
0.00763129
0.0117608
0.015658
0.0184537
0.0209144
0.0216763
0.0221665
0.0215578
0.0191941
0.0149473
0.00752492
-0.00102994
-0.0119461
-0.0181303
-0.018928
-0.0132764
-0.00663711
-2.70782e-05
0.00572676
0.00688606
0.00575794
0.00622679
0.0114976
0.00830584
0.0048261
0.00288199
0.00328818
0.00584958
0.00942577
0.0129018
0.0162107
0.0186106
0.0207207
0.0213621
0.021702
0.0210063
0.0187624
0.0149245
0.00859156
0.00132605
-0.00806933
-0.013608
-0.014554
-0.00998173
-0.00477763
0.000849908
0.00553444
0.00656338
0.00529914
0.00568594
0.0139648
0.0113441
0.0082273
0.00625293
0.00623735
0.00814029
0.0110176
0.0139148
0.016693
0.0187287
0.0205074
0.0210333
0.0212445
0.0204702
0.0183489
0.0148611
0.00948889
0.00335944
-0.00464639
-0.0095607
-0.0106201
-0.00700627
-0.00308957
0.00162916
0.00533573
0.00625089
0.00492026
0.00514034
0.0159972
0.0138004
0.0110169
0.00908595
0.00877246
0.0101393
0.0124156
0.0148039
0.0171085
0.0188129
0.0202836
0.0206988
0.0208005
0.0199616
0.0179655
0.0147747
0.0102233
0.00506547
-0.00169718
-0.00602039
-0.0071595
-0.00437741
-0.00158196
0.0023097
0.00514078
0.00595539
0.00460738
0.00459794
0.0176367
0.0157558
0.0132809
0.0114462
0.0109317
0.0118673
0.0136315
0.015575
0.017461
0.0188672
0.0200566
0.0203659
0.0203743
0.0194871
0.0176174
0.014679
0.0108073
0.00645738
0.000783398
-0.00299347
-0.00418221
-0.00210547
-0.000257555
0.00289352
0.00495807
0.00568068
0.00434442
0.00406801
0.0189282
0.0172925
0.0151043
0.0133977
0.0127543
0.0133466
0.0146784
0.0162355
0.0177548
0.0188947
0.0198318
0.0200397
0.019968
0.0190491
0.017304
0.0145837
0.0112604
0.0075657
0.00282413
-0.000461115
-0.00167521
-0.000183813
0.000886752
0.00338542
0.00479384
0.00542751
0.00411541
0.00356031
0.0199193
0.0184858
0.0165627
0.0149987
0.0142782
0.0146002
0.0155705
0.0167937
0.0179943
0.0188983
0.0196124
0.0197236
0.0195823
0.0186464
0.0170213
0.0144961
0.0116074
0.00843417
0.00447263
0.00161653
0.000393772
0.0014102
0.00185925
0.00379273
0.00465198
0.00519403
0.00390663
0.00308408
0.0206591
0.0194008
0.0177186
0.0162998
0.0155397
0.0156512
0.0163224
0.0172589
0.0181842
0.0188804
0.0194002
0.0194199
0.0192169
0.0182759
0.0167639
0.0144211
0.0118754
0.00911241
0.00578769
0.00329325
0.00206962
0.00271179
0.00267295
0.00412463
0.0045341
0.00497676
0.00370815
0.00264723
0.021195
0.0200915
0.0186232
0.0173446
0.0165724
0.0165223
0.0169486
0.0176404
0.0183293
0.0188434
0.0191957
0.0191295
0.0188709
0.017934
0.0165269
0.0143599
0.0120879
0.00964711
0.00683002
0.00462956
0.00340431
0.00356201
0.00334282
0.00439129
0.00443977
0.00477198
0.00351451
0.00225571
0.0215695
0.0206017
0.0193205
0.018172
0.0174064
0.017235
0.0174631
0.0179475
0.0184344
0.0187895
0.0189984
0.0188529
0.0185437
0.0176171
0.0163056
0.0143097
0.0122612
0.0100752
0.00765425
0.00568622
0.00446615
0.00439447
0.00389676
0.0046031
0.00436697
0.00457671
0.00332444
0.00191318
0.0218185
0.0209677
0.0198476
0.0188167
0.0180697
0.0178096
0.0178795
0.018189
0.0185042
0.0187209
0.0188076
0.0185902
0.0182343
0.0173222
0.0160961
0.0142646
0.0124025
0.010421
0.00830489
0.00651804
0.0053055
0.00504722
0.00435041
0.00476945
0.0043125
0.00438934
0.00313967
0.00162082
0.021971
0.0212193
0.0202359
0.0193092
0.0185868
0.0182657
0.0182102
0.0183731
0.018543
0.0186398
0.0186225
0.0183408
0.0179422
0.0170465
0.0158953
0.0142169
0.0125132
0.0106989
0.00881613
0.00717098
0.00596588
0.00555755
0.00471652
0.00489848
0.00427264
0.00420976
0.00296348
0.00137746
0.0220503
0.0213811
0.0205126
0.0196772
0.0189834
0.0186209
0.0184667
0.0185075
0.0185549
0.018548
0.018442
0.018104
0.0176663
0.0167881
0.0157012
0.0141605
0.0125921
0.0109169
0.00921384
0.00768207
0.00648387
0.00595655
0.00501647
0.00499699
0.00424352
0.00403899
0.00279923
0.00117998
0.0220741
0.0214731
0.0207003
0.0199443
0.0192848
0.0188906
0.0186593
0.0185988
0.0185434
0.0184474
0.0182656
0.0178787
0.0174059
0.0165447
0.0155124
0.0140917
0.0126387
0.0110815
0.00951831
0.00808039
0.0068888
0.00626804
0.00525861
0.00507004
0.00422143
0.00387872
0.00264951
0.00102376
0.0220562
0.021511
0.0208175
0.0201295
0.0195035
0.0190881
0.018797
0.0186531
0.0185118
0.0183394
0.0180927
0.0176641
0.0171599
0.016315
0.0153283
0.0140099
0.0126548
0.0111989
0.0097463
0.0083885
0.00720378
0.00650999
0.0054527
0.00512177
0.00420319
0.00373068
0.00251565
0.000903235
0.0220071
0.0215071
0.020879
0.0202488
0.019654
0.019225
0.0188882
0.0186759
0.0184631
0.0182255
0.0179232
0.017459
0.0169274
0.0160976
0.0151486
0.0139163
0.0126442
0.011276
0.00991207
0.00862391
0.0074469
0.00669596
0.00560706
0.00515579
0.00418637
0.00359623
0.00239775
0.000812501
0.0219345
0.0214711
0.0208967
0.0203151
0.0197486
0.0193114
0.0189398
0.0186718
0.0183998
0.0181068
0.0177569
0.0172627
0.0167072
0.0158912
0.0149738
0.0138136
0.0126114
0.0113198
0.0100278
0.00880045
0.00763247
0.00683648
0.00572852
0.00517529
0.00416934
0.00347609
0.00229487
0.000745778
0.0218443
0.0214105
0.0208801
0.0203388
0.0197975
0.0193561
0.0189583
0.018645
0.0183243
0.0179843
0.0175938