/*--------------------------------*- C++ -*----------------------------------*\
  =========                 |
  \\      /  F ield         | OpenFOAM: The Open Source CFD Toolbox
   \\    /   O peration     | Website:  https://openfoam.org
    \\  /    A nd           | Version:  7
     \\/     M anipulation  |
\*---------------------------------------------------------------------------*/
FoamFile
{
    version     2.0;
    format      ascii;
    class       surfaceScalarField;
    location    "220";
    object      phi;
}
// * * * * * * * * * * * * * * * * * * * * * * * * * * * * * * * * * * * * * //

dimensions      [0 3 -1 0 0 0 0];

internalField   nonuniform List<scalar> 
72657
(
-6.12701e-07
-5.84988e-05
5.91115e-05
-2.62508e-06
-0.000158733
0.000160746
-6.22059e-06
-0.000246705
0.0002503
-1.15141e-05
-0.000322231
0.000327524
-1.85442e-05
-0.000385631
0.000392661
-2.72782e-05
-0.000437753
0.000446487
-3.76259e-05
-0.000479893
0.00049024
-4.94576e-05
-0.000513678
0.00052551
-6.26247e-05
-0.000540911
0.000554078
-7.69782e-05
-0.000563385
0.000577738
-9.23842e-05
-0.000582726
0.000598132
-0.000108736
-0.000600246
0.000616598
-0.000125958
-0.000616849
0.000634072
-0.000144011
-0.000632977
0.00065103
-0.000162889
-0.000648593
0.000667471
-0.00018261
-0.000663205
0.000682925
-0.000203213
-0.00067588
0.000696484
-0.00022475
-0.00068529
0.000706827
-0.000247271
-0.000689719
0.00071224
-0.0006869
0.000710491
-0.000270863
-7.93128e-07
-5.77057e-05
-3.26077e-06
-0.000156266
-7.52363e-06
-0.000242442
-1.36416e-05
-0.000316113
-2.16074e-05
-0.000377665
-3.13538e-05
-0.000428007
-4.27669e-05
-0.00046848
-5.57055e-05
-0.00050074
-7.00203e-05
-0.000526596
-8.55718e-05
-0.000547833
-0.000102245
-0.000566053
-0.000119959
-0.000582533
-0.000138671
-0.000598137
-0.00015838
-0.000613268
-0.00017912
-0.000627853
-0.000200953
-0.000641371
-0.000223961
-0.000652872
-0.000248231
-0.00066102
-0.000273836
-0.000664114
-0.000659871
-0.000300865
-9.69892e-07
-5.67358e-05
-3.88046e-06
-0.000153355
-8.78805e-06
-0.000237534
-1.56964e-05
-0.000309204
-2.45518e-05
-0.00036881
-3.52516e-05
-0.000417307
-4.76579e-05
-0.000456073
-6.16169e-05
-0.000486781
-7.6977e-05
-0.000511236
-9.36061e-05
-0.000531204
-0.000111404
-0.000548255
-0.000130312
-0.000563624
-0.000150317
-0.000578133
-0.000171448
-0.000592136
-0.000193777
-0.000605525
-0.000217405
-0.000617743
-0.000242451
-0.000627826
-0.000269036
-0.000634435
-0.000297253
-0.000635896
-0.00062993
-0.000327194
-1.14197e-06
-5.55938e-05
-4.48085e-06
-0.000150016
-1.00076e-05
-0.000232007
-1.76691e-05
-0.000301543
-2.7365e-05
-0.000359114
-3.89566e-05
-0.000405715
-5.22818e-05
-0.000442748
-6.71727e-05
-0.00047189
-8.34738e-05
-0.000494935
-0.000101057
-0.000513621
-0.000119835
-0.000529477
-0.000139765
-0.000543694
-0.000160856
-0.000557041
-0.000183166
-0.000569826
-0.000206796
-0.000581894
-0.000231881
-0.000592658
-0.000258575
-0.000601133
-0.000287027
-0.000605983
-0.000317352
-0.000605571
-0.000597641
-0.000349641
-1.30843e-06
-5.42854e-05
-5.05897e-06
-0.000146266
-1.11768e-05
-0.00022589
-1.95518e-05
-0.000293168
-3.00367e-05
-0.000348629
-4.24569e-05
-0.000393295
-5.66252e-05
-0.00042858
-7.23588e-05
-0.000456156
-8.94959e-05
-0.000477797
-0.00010791
-0.000495207
-0.00012752
-0.000509868
-0.000148297
-0.000522918
-0.000170265
-0.000535073
-0.000193504
-0.000546587
-0.000218138
-0.00055726
-0.00024433
-0.000566466
-0.000272263
-0.0005732
-0.000302113
-0.000576132
-0.000334015
-0.000573668
-0.0005636
-0.000368056
-1.46847e-06
-5.28169e-05
-5.61226e-06
-0.000142122
-1.22909e-05
-0.000219211
-2.13376e-05
-0.000284121
-3.25584e-05
-0.000337408
-4.57431e-05
-0.000380111
-6.06787e-05
-0.000413644
-7.7166e-05
-0.000439669
-9.5035e-05
-0.000459929
-0.000114157
-0.000476085
-0.000134454
-0.000489571
-0.000155903
-0.000501468
-0.000178539
-0.000512436
-0.000202455
-0.000522672
-0.000227791
-0.000531924
-0.000254732
-0.000539525
-0.000283484
-0.000544448
-0.000314249
-0.000545367
-0.000347178
-0.000540739
-0.000528424
-0.000382355
-1.62138e-06
-5.11956e-05
-6.13852e-06
-0.000137605
-1.3346e-05
-0.000212004
-2.3021e-05
-0.000274446
-3.49238e-05
-0.000325505
-4.88084e-05
-0.000366226
-6.44359e-05
-0.000398017
-8.15896e-05
-0.000422515
-0.000100088
-0.00044143
-0.000119798
-0.000456375
-0.00014064
-0.00046873
-0.00016259
-0.000479518
-0.000185688
-0.000489338
-0.00021003
-0.00049833
-0.000235768
-0.000506186
-0.000263098
-0.000512195
-0.000292247
-0.0005153
-0.000323436
-0.000514179
-0.000356833
-0.000507341
-0.000492738
-0.000392519
-1.76653e-06
-4.9429e-05
-6.63586e-06
-0.000132735
-1.43388e-05
-0.000204301
-2.45977e-05
-0.000264187
-3.71279e-05
-0.000312975
-5.16483e-05
-0.000351706
-6.78936e-05
-0.000381771
-8.56283e-05
-0.000404781
-0.000104659
-0.000422399
-0.000124841
-0.000436193
-0.00014609
-0.000447481
-0.000168377
-0.000457231
-0.000191736
-0.000465979
-0.000216261
-0.000473804
-0.000242106
-0.000480342
-0.000269471
-0.000484829
-0.000298596
-0.000486175
-0.000329719
-0.000483055
-0.000363028
-0.000474032
-0.000457168
-0.000398598
-1.90339e-06
-4.75256e-05
-7.10265e-06
-0.000127536
-1.52666e-05
-0.000196137
-2.60641e-05
-0.00025339
-3.91671e-05
-0.000299872
-5.42597e-05
-0.000336613
-7.10505e-05
-0.000364981
-8.92841e-05
-0.000386547
-0.000108752
-0.000402932
-0.000129297
-0.000415647
-0.000150823
-0.000425956
-0.00017329
-0.000434764
-0.000196721
-0.000442548
-0.000221198
-0.000449327
-0.000246865
-0.000454675
-0.000273922
-0.000457772
-0.000302613
-0.000457485
-0.000333193
-0.000452475
-0.000365865
-0.00044136
-0.000422326
-0.000400707
-2.03147e-06
-4.54942e-05
-7.53747e-06
-0.00012203
-1.61269e-05
-0.000187547
-2.74175e-05
-0.000242099
-4.10386e-05
-0.000286251
-5.6641e-05
-0.000321011
-7.3907e-05
-0.000347715
-9.25607e-05
-0.000367893
-0.000112376
-0.000383116
-0.000133182
-0.000394841
-0.000154864
-0.000404273
-0.000177366
-0.000412261
-0.000200692
-0.000419223
-0.000224903
-0.000425116
-0.000250126
-0.000429452
-0.000276548
-0.000431349
-0.000304413
-0.00042962
-0.000333987
-0.000422902
-0.000365494
-0.000409853
-0.000388801
-0.000399018
-2.15034e-06
-4.33438e-05
-7.93907e-06
-0.000116241
-1.69179e-05
-0.000178568
-2.86552e-05
-0.000230362
-4.27402e-05
-0.000272166
-5.8791e-05
-0.00030496
-7.64642e-05
-0.000330042
-9.54628e-05
-0.000348895
-0.000115542
-0.000363037
-0.000136513
-0.000373871
-0.00015824
-0.000382546
-0.000180645
-0.000389856
-0.000203704
-0.000396164
-0.00022745
-0.000401369
-0.000251983
-0.00040492
-0.000277468
-0.000405864
-0.000304138
-0.00040295
-0.000332268
-0.000394772
-0.000362107
-0.000380013
-0.00035715
-0.000393758
-2.25962e-06
-4.10842e-05
-8.30629e-06
-0.000110195
-1.76374e-05
-0.000169237
-2.9775e-05
-0.000218224
-4.42697e-05
-0.000257671
-6.07086e-05
-0.000288521
-7.87231e-05
-0.000312027
-9.79949e-05
-0.000329623
-0.00011826
-0.000342772
-0.000139307
-0.000352823
-0.000160979
-0.000360874
-0.000183168
-0.000367667
-0.000205816
-0.000373515
-0.000228921
-0.000378265
-0.000252542
-0.000381299
-0.000276813
-0.000381593
-0.000301949
-0.000377814
-0.000328229
-0.000368492
-0.000355932
-0.000352311
-0.000327889
-0.000385193
-2.35893e-06
-3.87253e-05
-8.63801e-06
-0.000103916
-1.82837e-05
-0.000159592
-3.07743e-05
-0.000205734
-4.56244e-05
-0.000242821
-6.23919e-05
-0.000271753
-8.06837e-05
-0.000293735
-0.00010016
-0.000310146
-0.000120537
-0.000322396
-0.00014158
-0.00033178
-0.000163106
-0.000339348
-0.000184974
-0.000345799
-0.000207087
-0.000351402
-0.000229396
-0.000355956
-0.000251912
-0.000358783
-0.000274726
-0.000358779
-0.000298023
-0.000354517
-0.000322082
-0.000344433
-0.000347215
-0.000327178
-0.000301492
-0.000373613
-2.44789e-06
-3.62774e-05
-8.93304e-06
-9.74304e-05
-1.88545e-05
-0.00014967
-3.16502e-05
-0.000192938
-4.68014e-05
-0.00022767
-6.38382e-05
-0.000254717
-8.23445e-05
-0.000275229
-0.00010196
-0.00029053
-0.000122379
-0.000301977
-0.000143345
-0.000310814
-0.000164644
-0.000318049
-0.0001861
-0.000324343
-0.00020757
-0.000329932
-0.000228953
-0.000334573
-0.0002502
-0.000337536
-0.000271346
-0.000337633
-0.000292536
-0.000333327
-0.000314042
-0.000322927
-0.000336215
-0.000305004
-0.000278386
-0.000359321
-2.52609e-06
-3.37513e-05
-9.19009e-06
-9.07664e-05
-1.93476e-05
-0.000139513
-3.23996e-05
-0.000179886
-4.77964e-05
-0.000212273
-6.5043e-05
-0.00023747
-8.37014e-05
-0.00025657
-0.000103391
-0.00027084
-0.000123786
-0.000281582
-0.000144605
-0.000289996
-0.000165604
-0.00029705
-0.000186568
-0.000303379
-0.000207306
-0.000309194
-0.000227655
-0.000314224
-0.000247499
-0.000317692
-0.000266804
-0.000318329
-0.000285659
-0.000314471
-0.000304321
-0.000304266
-0.000323182
-0.000286143
-0.000258959
-0.00034261
-2.59307e-06
-3.11582e-05
-9.40773e-06
-8.39517e-05
-1.97604e-05
-0.00012916
-3.30184e-05
-0.000166628
-4.86044e-05
-0.000196687
-6.60002e-05
-0.000220074
-8.47477e-05
-0.000237823
-0.000104447
-0.000251141
-0.000124752
-0.000261277
-0.000145358
-0.00026939
-0.00016599
-0.000276418
-0.000186392
-0.000282976
-0.000206322
-0.000289264
-0.000225551
-0.000294995
-0.000243885
-0.000299357
-0.000261209
-0.000301005
-0.000277542
-0.000298138
-0.000293108
-0.000288699
-0.000308345
-0.000270906
-0.000243559
-0.000323745
-2.64832e-06
-2.85099e-05
-9.58433e-06
-7.70157e-05
-2.00897e-05
-0.000118655
-3.35019e-05
-0.000153216
-4.92187e-05
-0.00018097
-6.67013e-05
-0.000202592
-8.54729e-05
-0.000219051
-0.000105116
-0.000231497
-0.000125265
-0.000241129
-0.000145592
-0.000249064
-0.000165791
-0.000256219
-0.000185568
-0.0002632
-0.000204624
-0.000270207
-0.000222663
-0.000276957
-0.000239405
-0.000282615
-0.00025464
-0.000285771
-0.0002683
-0.000284479
-0.00028056
-0.000276439
-0.000291894
-0.000259572
-0.00023251
-0.000302943
-2.69129e-06
-2.58186e-05
-9.71808e-06
-6.9989e-05
-2.03319e-05
-0.000108041
-3.38444e-05
-0.000139704
-4.96314e-05
-0.000165183
-6.71354e-05
-0.000185088
-8.58634e-05
-0.000200323
-0.000105381
-0.000211979
-0.000125305
-0.000221205
-0.000145283
-0.000229085
-0.000164983
-0.000236519
-0.00018407
-0.000244113
-0.000202193
-0.000252085
-0.000218982
-0.000260167
-0.000234069
-0.000267528
-0.000247134
-0.000272705
-0.000258004
-0.000273609
-0.000266782
-0.000267661
-0.000273965
-0.000252389
-0.000226119
-0.000280356
-2.72137e-06
-2.30973e-05
-9.80699e-06
-6.29033e-05
-2.04832e-05
-9.73644e-05
-3.40396e-05
-0.000126147
-4.9833e-05
-0.00014939
-6.72897e-05
-0.000167631
-8.59018e-05
-0.000181711
-0.00010522
-0.000192661
-0.000124842
-0.000201583
-0.000144398
-0.000209529
-0.000163526
-0.000217391
-0.000181855
-0.000225785
-0.00019898
-0.000234959
-0.000214464
-0.000244684
-0.000227841
-0.000254151
-0.000238676
-0.00026187
-0.000246666
-0.000265619
-0.000251818
-0.000262509
-0.000254626
-0.000249582
-0.000224692
-0.000256053
-2.73796e-06
-2.03593e-05
-9.84907e-06
-5.57922e-05
-2.05395e-05
-8.6674e-05
-3.40805e-05
-0.000112606
-4.98131e-05
-0.000133657
-6.71493e-05
-0.000150295
-8.55676e-05
-0.000163293
-0.000104604
-0.000173624
-0.000123842
-0.000182345
-0.000142891
-0.000190481
-0.000161364
-0.000198918
-0.000178854
-0.000208295
-0.00019491
-0.000218902
-0.000209024
-0.00023057
-0.000220637
-0.000242538
-0.000229189
-0.000253319
-0.00023423
-0.000260577
-0.000235635
-0.000261104
-0.000233862
-0.000251354
-0.000228541
-0.000230013
-2.74046e-06
-1.76188e-05
-9.84228e-06
-4.86904e-05
-2.04964e-05
-7.60199e-05
-3.39601e-05
-9.91425e-05
-4.95608e-05
-0.000118057
-6.6698e-05
-0.000133158
-8.48378e-05
-0.000145153
-0.000103504
-0.000154958
-0.000122263
-0.000163586
-0.000140706
-0.000172038
-0.000158424
-0.0001812
-0.000174979
-0.000191741
-0.000189874
-0.000204007
-0.000202538
-0.000217906
-0.00021232
-0.000232756
-0.000218531
-0.000247108
-0.00022056
-0.000258549
-0.000218114
-0.000263549
-0.00021157
-0.000257898
-0.000237997
-0.000202115
-2.72832e-06
-1.48905e-05
-9.78472e-06
-4.1634e-05
-2.03501e-05
-6.54545e-05
-3.36711e-05
-8.58215e-05
-4.90645e-05
-0.000102663
-6.59185e-05
-0.000116304
-8.36875e-05
-0.000127384
-0.000101882
-0.000136764
-0.000120055
-0.000145413
-0.000137779
-0.000154313
-0.000154624
-0.000164355
-0.000170121
-0.000176243
-0.000183738
-0.00019039
-0.000194843
-0.0002068
-0.0002027
-0.000224899
-0.000206494
-0.000243314
-0.000205439
-0.000259604
-0.000199044
-0.000269944
-0.000187551
-0.000269391
-0.0002534
-0.000172147
-2.70105e-06
-1.21895e-05
-9.67465e-06
-3.46604e-05
-2.00967e-05
-5.50324e-05
-3.32068e-05
-7.27113e-05
-4.83131e-05
-8.75568e-05
-6.47937e-05
-9.9823e-05
-8.20915e-05
-0.000110086
-9.97043e-05
-0.000119151
-0.000117169
-0.000127948
-0.000134041
-0.000137441
-0.000149869
-0.000148528
-0.000164159
-0.000161953
-0.000176343
-0.000178207
-0.00018574
-0.000197403
-0.000191537
-0.000219102
-0.000192801
-0.00024205
-0.000188569
-0.000263836
-0.000178122
-0.000280391
-0.000161509
-0.000286004
-0.000275093
-0.000139816
-2.65827e-06
-9.53121e-06
-9.51071e-06
-2.7808e-05
-1.9733e-05
-4.48102e-05
-3.25611e-05
-5.98833e-05
-4.72963e-05
-7.28216e-05
-6.33072e-05
-8.38121e-05
-8.00252e-05
-9.33684e-05
-9.69336e-05
-0.000102242
-0.000113553
-0.000111329
-0.00012942
-0.000121574
-0.000144062
-0.000133886
-0.00015696
-0.000149055
-0.000167515
-0.000167651
-0.000175007
-0.000189912
-0.000178556
-0.000215552
-0.000177124
-0.000243483
-0.000169577
-0.000271383
-0.000154955
-0.000295013
-0.000133065
-0.000307894
-0.000303375
-0.000104783
-2.59977e-06
-6.93144e-06
-9.292e-06
-2.11157e-05
-1.92568e-05
-3.48454e-05
-3.17293e-05
-4.74107e-05
-4.60057e-05
-5.85453e-05
-6.14451e-05
-6.83726e-05
-7.74661e-05
-7.73474e-05
-9.35364e-05
-8.6172e-05
-0.000109158
-9.57074e-05
-0.000123846
-0.000106885
-0.000137104
-0.000120628
-0.00014839
-0.000137769
-0.000157077
-0.000158964
-0.000162409
-0.00018458
-0.000163457
-0.000214505
-0.000159093
-0.000247847
-0.000148032
-0.000282444
-0.000129069
-0.000313976
-0.000101759
-0.000335204
-0.000338398
-6.67359e-05
-2.52554e-06
-4.4059e-06
-9.01825e-06
-1.4623e-05
-1.86669e-05
-2.51967e-05
-3.07086e-05
-3.53691e-05
-4.44351e-05
-4.48188e-05
-5.91961e-05
-5.36116e-05
-7.43958e-05
-6.21477e-05
-8.94836e-05
-7.10843e-05
-0.000103939
-8.12516e-05
-0.000117254
-9.35704e-05
-0.000128906
-0.000108977
-0.000138324
-0.000128351
-0.000144855
-0.000152433
-0.000147715
-0.00018172
-0.000145936
-0.000216284
-0.000138323
-0.00025546
-0.000123462
-0.000297305
-9.99018e-05
-0.000337536
-6.698e-05
-0.000368126
-0.000379535
-2.58428e-05
-2.43578e-06
-1.97013e-06
-8.68987e-06
-8.36891e-06
-1.79636e-05
-1.59229e-05
-2.94981e-05
-2.38347e-05
-4.25814e-05
-3.17355e-05
-5.6553e-05
-3.964e-05
-7.08005e-05
-4.79001e-05
-8.47521e-05
-5.71327e-05
-9.7862e-05
-6.81417e-05
-0.000109592
-8.18405e-05
-0.000119388
-9.91815e-05
-0.000126649
-0.000121089
-0.000130695
-0.000148387
-0.000130715
-0.0001817
-0.000125714
-0.000221285
-0.000114451
-0.000266723
-9.54102e-05
-0.000316346
-6.68687e-05
-0.000366078
-2.75506e-05
-0.000407444
-0.000427442
2.03559e-05
-2.33095e-06
3.60829e-07
-8.30812e-06
-2.39175e-06
-1.71487e-05
-7.08231e-06
-2.80993e-05
-1.28841e-05
-4.04448e-05
-1.939e-05
-5.35131e-05
-2.65717e-05
-6.66731e-05
-3.47401e-05
-7.93276e-05
-4.44782e-05
-9.09004e-05
-5.65689e-05
-0.000100819
-7.19224e-05
-0.000108491
-9.15093e-05
-0.000113281
-0.000116299
-0.000114474
-0.000147194
-0.000111236
-0.000184938
-0.000102554
-0.000229967
-8.71661e-05
-0.00028211
-6.34919e-05
-0.00034002
-2.95927e-05
-0.000399977
1.66202e-05
-0.000453657
-0.000484313
7.34912e-05
-2.21182e-06
2.57265e-06
-7.8751e-06
3.27153e-06
-1.62256e-05
1.26818e-06
-2.65167e-05
-2.59298e-06
-3.80297e-05
-7.87698e-06
-5.00795e-05
-1.45218e-05
-6.20136e-05
-2.2806e-05
-7.32053e-05
-3.32865e-05
-8.30428e-05
-4.67314e-05
-9.09123e-05
-6.40529e-05
-9.61783e-05
-8.62433e-05
-9.81613e-05
-0.000114316
-9.61086e-05
-0.000149246
-8.91587e-05
-0.000191888
-7.6289e-05
-0.000242837
-5.62403e-05
-0.000302159
-2.74172e-05
-0.000368843
1.2152e-05
-0.000439546
6.44629e-05
-0.000505968
-0.000550439
0.00013059
-2.07937e-06
4.65201e-06
-7.39381e-06
8.58598e-06
-1.51996e-05
9.07392e-06
-2.47574e-05
6.96485e-06
-3.53445e-05
2.7101e-06
-4.6261e-05
-3.60531e-06
-5.68298e-05
-1.22373e-05
-6.63909e-05
-2.37253e-05
-7.42914e-05
-3.8831e-05
-7.98699e-05
-5.84744e-05
-8.24401e-05
-8.36731e-05
-8.12709e-05
-0.000115485
-7.55645e-05
-0.000154953
-6.44286e-05
-0.000203024
-4.68335e-05
-0.000260432
-2.15433e-05
-0.000327449
1.30045e-05
-0.000403391
5.883e-05
-0.000485372
0.000118062
-0.0005652
-0.000625006
0.000192629
-1.9349e-06
6.58691e-06
-6.86814e-06
1.35192e-05
-1.40775e-05
1.62833e-05
-2.28314e-05
1.57187e-05
-3.24018e-05
1.22805e-05
-4.20721e-05
6.06501e-06
-5.11377e-05
-3.17167e-06
-5.89011e-05
-1.59619e-05
-6.46629e-05
-3.30692e-05
-6.77083e-05
-5.5429e-05
-6.72927e-05
-8.40887e-05
-6.26261e-05
-0.000120152
-5.2858e-05
-0.000164721
-3.70593e-05
-0.000218823
-1.41943e-05
-0.000283297
1.69349e-05
-0.000358578
5.78066e-05
-0.000444263
0.000110366
-0.000537931
0.000176895
-0.000631729
-0.000707775
0.000259663
-1.77994e-06
8.36685e-06
-6.30274e-06
1.8042e-05
-1.28681e-05
2.28487e-05
-2.07514e-05
2.3602e-05
-2.92182e-05
2.07473e-05
-3.75331e-05
1.438e-05
-4.49611e-05
4.25626e-06
-5.07632e-05
-1.01597e-05
-5.41887e-05
-2.96436e-05
-5.44639e-05
-5.51538e-05
-5.07796e-05
-8.77731e-05
-4.228e-05
-0.000128652
-2.80549e-05
-0.000178946
-7.13332e-06
-0.000239744
2.15285e-05
-0.000311959
5.90797e-05
-0.00039613
0.000106875
-0.000492058
0.000166683
-0.000597739
0.000240805
-0.00070585
-0.000798461
0.000331492
-1.61621e-06
9.98307e-06
-5.70298e-06
2.21288e-05
-1.15812e-05
2.87269e-05
-1.85323e-05
3.0553e-05
-2.58138e-05
2.80288e-05
-3.26694e-05
2.12355e-05
-3.83306e-05
9.91745e-06
-4.20138e-05
-6.47659e-06
-4.2913e-05
-2.87444e-05
-4.01906e-05
-5.78762e-05
-3.29677e-05
-9.4996e-05
-2.03176e-05
-0.000141302
-1.26584e-06
-0.000197998
2.5206e-05
-0.000266216
6.01505e-05
-0.000346903
0.000104663
-0.000440642
0.000159944
-0.000547339
0.000227491
-0.000665286
0.000309497
-0.000787856
-0.000896656
0.000407691
-1.44561e-06
1.14287e-05
-5.07473e-06
2.57579e-05
-1.0228e-05
3.38802e-05
-1.6191e-05
3.6516e-05
-2.22117e-05
3.40496e-05
-2.75104e-05
2.65343e-05
-3.12829e-05
1.36899e-05
-3.26978e-05
-5.06174e-06
-3.08905e-05
-3.05517e-05
-2.49563e-05
-6.38104e-05
-1.39432e-05
-0.000106009
3.14922e-06
-0.000158394
2.73636e-05
-0.000222212
5.97656e-05
-0.000298618
0.000101419
-0.000388557
0.00015336
-0.000492583
0.000216619
-0.000610599
0.000292338
-0.000741005
0.000382501
-0.00087802
-0.00100178
0.000487627
-1.27009e-06
1.26988e-05
-4.42418e-06
2.8912e-05
-8.82004e-06
3.8276e-05
-1.37455e-05
4.14415e-05
-1.84368e-05
3.87408e-05
-2.20886e-05
3.01862e-05
-2.38587e-05
1.546e-05
-2.28655e-05
-6.05491e-06
-1.8184e-05
-3.52332e-05
-8.83989e-06
-7.31545e-05
6.19323e-06
-0.000121042
2.79905e-05
-0.000180191
5.76605e-05
-0.000251882
9.63167e-05
-0.000337274
0.000145031
-0.000437271
0.000204778
-0.00055233
0.000276408
-0.000682229
0.000360647
-0.000825243
0.000459205
-0.000976578
-0.00111306
0.000570484
-1.09165e-06
1.37904e-05
-3.75762e-06
3.1578e-05
-7.36951e-06
4.18879e-05
-1.12147e-05
4.52867e-05
-1.4515e-05
4.20411e-05
-1.6438e-05
3.21091e-05
-1.6101e-05
1.5123e-05
-1.25708e-05
-9.58504e-06
-4.86036e-06
-4.29437e-05
8.07444e-06
-8.60893e-05
2.73336e-05
-0.000140301
5.40642e-05
-0.000206922
8.94375e-05
-0.000287255
0.000134608
-0.000382445
0.000190652
-0.000493314
0.000258477
-0.000620156
0.000338748
-0.0007625
0.000431752
-0.000918248
0.000538883
-0.00108371
-0.00122949
0.000655313
-9.12202e-07
1.47026e-05
-3.08121e-06
3.3747e-05
-5.88821e-06
4.46949e-05
-8.61687e-06
4.80154e-05
-1.04723e-05
4.38966e-05
-1.05926e-05
3.22294e-05
-8.05314e-06
1.25836e-05
-1.86806e-06
-1.57701e-05
9.01218e-06
-5.38239e-05
2.57001e-05
-0.000102777
4.93663e-05
-0.000163968
8.12243e-05
-0.00023878
0.0001225
-0.000328531
0.000174379
-0.000434325
0.000237931
-0.000556865
0.000313993
-0.000696218
0.000403038
-0.000851545
0.000504932
-0.00102014
0.000620675
-0.00119945
-0.00134995
0.000741134
-7.33543e-07
1.54362e-05
-2.40068e-06
3.54141e-05
-4.38727e-06
4.66815e-05
-5.96962e-06
4.95977e-05
-6.33342e-06
4.42604e-05
-4.58503e-06
3.0481e-05
2.42888e-07
7.75563e-06
9.1904e-06
-2.47176e-05
2.33676e-05
-6.80011e-05
4.39531e-05
-0.000123363
7.21823e-05
-0.000192197
0.000109326
-0.000275924
0.000156652
-0.000375857
0.000215363
-0.000493035
0.000286508
-0.00062801
0.000370852
-0.000780562
0.000468691
-0.000949384
0.000579528
-0.00113098
0.000703551
-0.00132347
-0.00147356
0.000827161
-5.57237e-07
1.59934e-05
-1.72114e-06
3.6578e-05
-2.87666e-06
4.7837e-05
-3.2887e-06
5.00098e-05
-2.12055e-06
4.30922e-05
1.55507e-06
2.68054e-05
8.7499e-06
5.60812e-07
2.05564e-05
-3.65242e-05
3.81449e-05
-8.55896e-05
6.27547e-05
-0.000147972
9.56781e-05
-0.00022512
0.00013823
-0.000318476
0.000191702
-0.000429328
0.00025729
-0.000558623
0.000336005
-0.000706725
0.000428548
-0.000873105
0.000535136
-0.00105597
0.000655195
-0.00125104
0.000786913
-0.00145519
-0.00159948
0.00091283
-3.84572e-07
1.6378e-05
-1.04684e-06
3.72403e-05
-1.36476e-06
4.8155e-05
-5.87448e-07
4.92325e-05
2.14732e-06
4.03575e-05
7.8024e-06
2.11503e-05
1.74344e-05
-9.0712e-06
3.21883e-05
-5.12781e-05
5.32904e-05
-0.000106692
8.20348e-05
-0.000176717
0.000119759
-0.000262845
0.000167805
-0.000366522
0.000227461
-0.000488985
0.000299885
-0.000631047
0.000386015
-0.000792855
0.000486475
-0.000973566
0.000601543
-0.00117104
0.000731341
-0.00138083
0.000872736
-0.00159659
-0.0017231
0.000996359
-2.1659e-07
1.65946e-05
-3.81071e-07
3.74048e-05
1.4194e-07
4.76319e-05
2.12373e-06
4.72507e-05
6.45534e-06
3.60259e-05
1.41371e-05
1.34685e-05
2.6271e-05
-2.12051e-05
4.40527e-05
-6.90599e-05
6.87603e-05
-0.000131399
0.000101734
-0.00020969
0.000144341
-0.000305452
0.000197929
-0.00042011
0.000263749
-0.000554805
0.000342875
-0.000710173
0.00043611
-0.00088609
0.00054393
-0.00108139
0.000666542
-0.00129365
0.000804504
-0.0015188
0.000959726
-0.00175181
-0.00194484
0.00118147
-5.37055e-08
1.66483e-05
2.74316e-07
3.70768e-05
1.6395e-06
4.62668e-05
4.83833e-06
4.40518e-05
1.07938e-05
3.00704e-05
2.05456e-05
3.71672e-06
3.52411e-05
-3.59006e-05
5.61245e-05
-8.99433e-05
8.45195e-05
-0.000159794
0.000121801
-0.000246971
0.000169349
-0.000353
0.000228486
-0.000479247
0.000300388
-0.000626707
0.000385986
-0.000795771
0.00048587
-0.000985973
0.00060024
-0.00119576
0.000728977
-0.00142239
0.000872445
-0.00166227
0.00103127
-0.00191063
-0.00214049
0.00122692
1.03863e-07
1.65444e-05
9.18538e-07
3.62621e-05
3.12619e-06
4.40591e-05
7.55323e-06
3.96248e-05
1.5158e-05
2.24656e-05
2.70211e-05
-8.14638e-06
4.43349e-05
-5.32144e-05
6.83885e-05
-0.000113997
0.000100544
-0.00019195
0.000142196
-0.000288624
0.000194717
-0.000405521
0.00025937
-0.0005439
0.00033721
-0.000704547
0.000428962
-0.000887523
0.000534917
-0.00109193
0.000654879
-0.00131572
0.000788187
-0.0015557
0.000934305
-0.00180838
0.00109195
-0.00206828
-0.00231906
0.00127052
2.56329e-07
1.62881e-05
1.55221e-06
3.49662e-05
4.6028e-06
4.10085e-05
1.02693e-05
3.39583e-05
1.95485e-05
1.31864e-05
3.35632e-05
-2.21612e-05
5.35498e-05
-7.3201e-05
8.08377e-05
-0.000141285
0.000116817
-0.000227929
0.000162887
-0.000334694
0.000220384
-0.000463018
0.000290476
-0.000613992
0.000374044
-0.000788115
0.000471547
-0.000985026
0.000582901
-0.00120328
0.000707423
-0.00144024
0.000843826
-0.0016921
0.000990584
-0.00195514
0.00114523
-0.00222293
-0.00248456
0.00131073
4.04358e-07
1.58837e-05
2.17712e-06
3.31934e-05
6.07254e-06
3.71131e-05
1.29911e-05
2.70397e-05
2.39709e-05
2.20659e-06
4.01781e-05
-3.83683e-05
6.28906e-05
-9.59135e-05
9.34721e-05
-0.000171866
0.000133329
-0.000267786
0.000183845
-0.000385211
0.00024629
-0.000525462
0.000321695
-0.000689397
0.000410716
-0.000877137
0.000513484
-0.00108779
0.00062948
-0.00131928
0.000757491
-0.00156825
0.0008956
-0.00183021
0.00104143
-0.00210097
0.00119177
-0.00237328
-0.00263917
0.00134639
5.48959e-07
1.53347e-05
2.79627e-06
3.09461e-05
7.54087e-06
3.23685e-05
1.57266e-05
1.8854e-05
2.84355e-05
-1.05023e-05
4.68769e-05
-5.68097e-05
7.23675e-05
-0.000121404
0.000106297
-0.000205796
0.000150074
-0.000311562
0.000205041
-0.000440178
0.000272369
-0.000592789
0.000352908
-0.000769936
0.000447035
-0.000971264
0.000554501
-0.00119526
0.000674313
-0.00143909
0.000804712
-0.00169865
0.000943213
-0.00196871
0.00108677
-0.00224453
0.00123182
-0.00251832
-0.00278402
0.00137667
6.91456e-07
1.46433e-05
3.41366e-06
2.82239e-05
9.01509e-06
2.67671e-05
1.84865e-05
9.38257e-06
3.29558e-05
-2.49715e-05
5.36748e-05
-7.75287e-05
8.19943e-05
-0.000149724
0.00011932
-0.000243122
0.000167043
-0.000359286
0.000226442
-0.000499577
0.000298546
-0.000664893
0.00038398
-0.00085537
0.000482794
-0.00107008
0.000594312
-0.00130678
0.000717049
-0.00156183
0.000848724
-0.00183033
0.000986371
-0.00210636
0.00112651
-0.00238467
0.00126547
-0.00265728
-0.00291961
0.00140106
8.33423e-07
1.38099e-05
4.03408e-06
2.50233e-05
1.0504e-05
2.02972e-05
2.12838e-05
-1.39725e-06
3.75481e-05
-4.12358e-05
6.05894e-05
-0.00010057
9.17862e-05
-0.00018092
0.000132547
-0.000283883
0.000184226
-0.000410965
0.000248003
-0.000563353
0.00032473
-0.00074162
0.000414757
-0.000945397
0.000517761
-0.00117308
0.000632614
-0.00142163
0.000757336
-0.00168655
0.000889176
-0.00196217
0.0010248
-0.00224198
0.00116051
-0.00252038
0.00129275
-0.00278952
-0.00304618
0.00141933
9.76603e-07
1.28333e-05
4.66283e-06
2.1337e-05
1.20172e-05
1.29428e-05
2.41324e-05
-1.35124e-05
4.22296e-05
-5.9333e-05
6.76387e-05
-0.000125979
0.000101757
-0.000215039
0.000145981
-0.000328107
0.000201603
-0.000466586
0.000269669
-0.000631419
0.000350811
-0.000822762
0.000445061
-0.00103965
0.000551686
-0.00127971
0.000669091
-0.00153904
0.000794827
-0.00181229
0.000925748
-0.00209309
0.00105829
-0.00237452
0.00118871
-0.0026508
0.00131376
-0.00291456
-0.00316389
0.00143147
1.12283e-06
1.17104e-05
5.30548e-06
1.71544e-05
1.3565e-05
4.68323e-06
2.70468e-05
-2.69942e-05
4.70176e-05
-7.93038e-05
7.48394e-05
-0.000153801
0.000111918
-0.000252117
0.000159618
-0.000375807
0.000219141
-0.000526109
0.000291365
-0.000703643
0.000376658
-0.000908055
0.000474694
-0.00113768
0.000584303
-0.00138932
0.000703426
-0.00165816
0.000829194
-0.00193805
0.000958161
-0.00222205
0.00108666
-0.00250303
0.0012111
-0.00277524
0.00132863
-0.00303209
-0.00327293
0.00143767
1.27392e-06
1.04365e-05
5.96756e-06
1.24607e-05
1.51572e-05
-4.50639e-06
3.00407e-05
-4.18777e-05
5.19275e-05
-0.000101191
8.22046e-05
-0.000184078
0.000122272
-0.000292185
0.000173442
-0.000426976
0.000236793
-0.000589461
0.000312997
-0.000779847
0.000402118
-0.000997176
0.000503436
-0.001239
0.000615334
-0.00150121
0.00073531
-0.00177814
0.000860142
-0.00206289
0.000986194
-0.0023481
0.00110984
-0.00262667
0.00122775
-0.00289316
0.00133759
-0.00314193
-0.00337354
0.0014382
1.43163e-06
9.00489e-06
6.6543e-06
7.23808e-06
1.68029e-05
-1.4655e-05
3.31263e-05
-5.82011e-05
5.6972e-05
-0.000125036
8.97424e-05
-0.000216848
0.000132816
-0.000335258
0.000187426
-0.000481586
0.000254497
-0.000656533
0.000334454
-0.000859804
0.000427019
-0.00108974
0.000531055
-0.00134304
0.000644499
-0.00161466
0.000764452
-0.00189809
0.00088742
-0.00218585
0.00100969
-0.00247038
0.00112781
-0.00274478
0.00123883
-0.00300418
0.00134095
-0.00324404
-0.00346607
0.00143347
1.59754e-06
7.40735e-06
7.37038e-06
1.46524e-06
1.85102e-05
-2.57948e-05
3.63134e-05
-7.60043e-05
6.21594e-05
-0.000150882
9.74543e-05
-0.000252143
0.000143535
-0.000381339
0.000201529
-0.00053958
0.000272172
-0.000727176
0.000355604
-0.000943236
0.000451172
-0.00118531
0.000557309
-0.00144917
0.000671531
-0.00172888
0.000790595
-0.00201715
0.000910834
-0.00230609
0.00102859
-0.00258813
0.00114065
-0.00285685
0.00124456
-0.00310809
0.00133907
-0.00333855
-0.00355093
0.00142393
1.77303e-06
5.63432e-06
8.11972e-06
-4.88145e-06
2.02852e-05
-3.79603e-05
3.96089e-05
-9.5328e-05
6.74934e-05
-0.000178767
0.000105334
-0.000289984
0.000154405
-0.00043041
0.000215697
-0.000600873
0.000289722
-0.0008012
0.000376297
-0.00102981
0.000474376
-0.00128339
0.000581961
-0.00155676
0.000696177
-0.0018431
0.000813521
-0.0021345
0.000930253
-0.00242283
0.00104287
-0.00270074
0.00114852
-0.0029625
0.00124525
-0.00320483
0.00133237
-0.00342566
-0.00362859
0.00141003
1.95919e-06
3.67513e-06
8.90529e-06
-1.18276e-05
2.21322e-05
-5.11872e-05
4.30159e-05
-0.000116212
7.29716e-05
-0.000208723
0.000113367
-0.000330379
0.000165389
-0.000482431
0.000229861
-0.000665345
0.000307033
-0.000878373
0.000396374
-0.00111915
0.000496426
-0.00138344
0.000604777
-0.00166511
0.000718217
-0.00195654
0.000833064
-0.00224934
0.000945612
-0.00253537
0.0010526
-0.00280774
0.00115162
-0.00306152
0.00124125
-0.00329446
0.00132128
-0.00350569
-0.00369958
0.00139227
2.15683e-06
1.5183e-06
9.72904e-06
-1.93998e-05
2.40533e-05
-6.55115e-05
4.65338e-05
-0.000138692
7.85857e-05
-0.000240774
0.00012153
-0.000373323
0.000176439
-0.00053734
0.000243937
-0.000732842
0.00032398
-0.000958416
0.000415665
-0.00121084
0.000517118
-0.00148489
0.000625545
-0.00177354
0.000737466
-0.00206846
0.000849111
-0.00236099
0.00095691
-0.00264317
0.00105794
-0.00290877
0.00115025
-0.00315383
0.00123294
-0.00337715
0.00130627
-0.00357902
-0.00376441
0.0013711
2.36643e-06
-8.48133e-07
1.05918e-05
-2.76251e-05
2.60481e-05
-8.09678e-05
5.01579e-05
-0.000162802
8.43212e-05
-0.000274938
0.000129791
-0.000418793
0.000187497
-0.000595046
0.000257832
-0.000803177
0.00034043
-0.00104101
0.000433997
-0.0013044
0.000536257
-0.00158715
0.000644077
-0.00188136
0.00075378
-0.00217816
0.000861608
-0.00246882
0.000964211
-0.00274577
0.00105906
-0.00300362
0.00114469
-0.00323946
0.00122071
-0.00345317
0.00128778
-0.00364608
-0.00382362
0.00134699
2.58816e-06
-3.4363e-06
1.14933e-05
-3.65303e-05
2.8114e-05
-9.75885e-05
5.38793e-05
-0.000188567
9.01574e-05
-0.000311216
0.00013811
-0.000466745
0.000198495
-0.000655431
0.000271443
-0.000876126
0.000356242
-0.00112581
0.000451202
-0.00139936
0.000553665
-0.00168962
0.000660215
-0.00198791
0.000767064
-0.00228501
0.000870553
-0.0025723
0.000967632
-0.00284285
0.00105621
-0.00309219
0.00113531
-0.00331856
0.00120498
-0.00352285
0.00126622
-0.00370732
-0.00387772
0.00132033
2.8219e-06
-6.25819e-06