/*--------------------------------*- C++ -*----------------------------------*\
  =========                 |
  \\      /  F ield         | OpenFOAM: The Open Source CFD Toolbox
   \\    /   O peration     | Website:  https://openfoam.org
    \\  /    A nd           | Version:  7
     \\/     M anipulation  |
\*---------------------------------------------------------------------------*/
FoamFile
{
    version     2.0;
    format      ascii;
    class       volScalarField;
    location    "20";
    object      p;
}
// * * * * * * * * * * * * * * * * * * * * * * * * * * * * * * * * * * * * * //

dimensions      [0 2 -2 0 0 0 0];

internalField   nonuniform List<scalar> 
4575
(
0.041561
0.0484933
0.0526173
0.0544977
0.0546515
0.053528
0.0515022
0.0488761
0.0458847
0.0427064
0.0394727
0.0362776
0.0331852
0.0302371
0.0274596
0.0248668
0.022463
0.0202453
0.0182092
0.0163485
0.0146546
0.013114
0.0117142
0.0104454
0.0415149
0.0484548
0.0525853
0.0544712
0.0546296
0.0535099
0.0514874
0.0488638
0.0458746
0.0426981
0.0394659
0.036272
0.0331805
0.0302332
0.0274564
0.0248641
0.0224607
0.0202434
0.0182076
0.0163471
0.0146534
0.013113
0.0117133
0.0104446
0.0414227
0.0483779
0.0525214
0.0544183
0.0545858
0.0534738
0.0514576
0.0488394
0.0458545
0.0426815
0.0394522
0.0362607
0.0331712
0.0302255
0.02745
0.0248587
0.0224562
0.0202396
0.0182043
0.0163443
0.014651
0.013111
0.0117115
0.010443
0.0412843
0.0482624
0.0524254
0.0543388
0.0545201
0.0534197
0.051413
0.0488026
0.0458243
0.0426566
0.0394317
0.0362438
0.0331572
0.0302139
0.0274403
0.0248506
0.0224494
0.0202338
0.0181994
0.0163401
0.0146474
0.0131079
0.0117088
0.0104406
0.0410994
0.048108
0.052297
0.0542324
0.0544323
0.0533472
0.0513533
0.0487535
0.0457838
0.0426233
0.0394043
0.0362211
0.0331385
0.0301983
0.0274273
0.0248398
0.0224403
0.0202262
0.0181929
0.0163345
0.0146426
0.0131037
0.0117052
0.0104374
0.0408678
0.0479145
0.0521361
0.054099
0.054322
0.0532562
0.0512784
0.0486918
0.0457331
0.0425815
0.0393698
0.0361927
0.033115
0.0301788
0.027411
0.0248262
0.0224289
0.0202165
0.0181847
0.0163275
0.0146366
0.0130986
0.0117007
0.0104334
0.0405892
0.0476815
0.0519421
0.0539381
0.0541889
0.0531464
0.0511879
0.0486174
0.0456718
0.0425311
0.0393283
0.0361585
0.0330867
0.0301553
0.0273915
0.0248098
0.0224152
0.020205
0.0181748
0.016319
0.0146294
0.0130924
0.0116953
0.0104287
0.0402633
0.0474085
0.0517146
0.0537493
0.0540327
0.0530175
0.0510817
0.04853
0.0456
0.042472
0.0392796
0.0361183
0.0330535
0.0301278
0.0273685
0.0247907
0.0223992
0.0201914
0.0181633
0.0163091
0.0146209
0.0130852
0.0116891
0.0104231
0.0398896
0.0470952
0.0514533
0.0535323
0.0538531
0.0528692
0.0509596
0.0484295
0.0455173
0.042404
0.0392236
0.0360722
0.0330154
0.0300962
0.0273422
0.0247687
0.0223808
0.0201759
0.0181501
0.0162979
0.0146113
0.0130769
0.0116819
0.0104167
0.039468
0.0467412
0.0511577
0.0532866
0.0536497
0.0527012
0.0508211
0.0483155
0.0454236
0.042327
0.0391602
0.03602
0.0329723
0.0300605
0.0273125
0.024744
0.02236
0.0201585
0.0181353
0.0162852
0.0146004
0.0130676
0.0116738
0.0104096
0.0463461
0.0508275
0.0530119
0.053422
0.0525131
0.0506661
0.048188
0.0453188
0.0422408
0.0390894
0.0359616
0.0329241
0.0300206
0.0272794
0.0247163
0.0223369
0.020139
0.0181187
0.016271
0.0145884
0.0130573
0.0116649
0.0104017
0.0459096
0.0504621
0.0527076
0.0531697
0.0523047
0.0504943
0.0480467
0.0452027
0.0421454
0.0390109
0.035897
0.0328709
0.0299766
0.0272428
0.0246858
0.0223115
0.0201176
0.0181006
0.0162555
0.0145751
0.013046
0.0116551
0.010393
0.0454314
0.0500614
0.0523736
0.0528926
0.0520756
0.0503055
0.0478913
0.045075
0.0420405
0.0389247
0.0358261
0.0328124
0.0299283
0.0272027
0.0246525
0.0222836
0.0200942
0.0180807
0.0162386
0.0145607
0.0130337
0.0116444
0.0103836
0.0449114
0.049625
0.0520096
0.0525904
0.0518256
0.0500994
0.0477218
0.0449357
0.0419261
0.0388307
0.0357489
0.0327488
0.0298757
0.0271592
0.0246162
0.0222534
0.0200688
0.0180592
0.0162202
0.0145451
0.0130203
0.0116329
0.0103735
0.0443494
0.0491528
0.0516153
0.0522628
0.0515546
0.0498759
0.0475379
0.0447847
0.0418021
0.0387289
0.0356652
0.03268
0.0298189
0.0271121
0.0245771
0.0222207
0.0200414
0.018036
0.0162005
0.0145282
0.013006
0.0116205
0.0103626
0.0437455
0.0486448
0.0511906
0.0519097
0.0512624
0.0496348
0.0473396
0.0446218
0.0416685
0.0386192
0.0355751
0.0326059
0.0297578
0.0270614
0.024535
0.0221857
0.0200121
0.0180112
0.0161794
0.0145102
0.0129906
0.0116073
0.0103509
0.0430999
0.0481009
0.0507355
0.0515311
0.0509489
0.0493762
0.0471268
0.0444471
0.0415251
0.0385016
0.0354785
0.0325265
0.0296924
0.0270073
0.0244901
0.0221482
0.0199808
0.0179848
0.0161569
0.0144911
0.0129743
0.0115932
0.0103386
0.0424128
0.0475214
0.0502502
0.051127
0.0506141
0.0490999
0.0468995
0.0442605
0.0413721
0.0383761
0.0353755
0.0324419
0.0296226
0.0269497
0.0244422
0.0221085
0.0199475
0.0179567
0.0161331
0.0144708
0.012957
0.0115784
0.0103256
0.0416846
0.0469065
0.0497346
0.0506975
0.0502581
0.0488061
0.0466578
0.044062
0.0412093
0.0382426
0.0352661
0.032352
0.0295487
0.0268885
0.0243915
0.0220663
0.0199123
0.017927
0.0161079
0.0144494
0.0129388
0.0115627
0.0103119
0.0409159
0.0462565
0.0491892
0.0502428
0.0498811
0.0484948
0.0464016
0.0438518
0.041037
0.0381014
0.0351502
0.0322569
0.0294704
0.0268239
0.024338
0.0220218
0.0198752
0.0178958
0.0160813
0.0144268
0.0129196
0.0115462
0.0102975
0.0401073
0.045572
0.0486143
0.0497632
0.0494833
0.0481663
0.0461313
0.0436298
0.040855
0.0379523
0.0350281
0.0321567
0.029388
0.0267559
0.0242817
0.0219751
0.0198361
0.017863
0.0160535
0.0144032
0.0128995
0.011529
0.0102825
0.0392596
0.0448535
0.0480103
0.0492591
0.0490649
0.0478207
0.0458468
0.0433964
0.0406637
0.0377956
0.0348996
0.0320514
0.0293015
0.0266846
0.0242226
0.021926
0.0197953
0.0178286
0.0160245
0.0143784
0.0128785
0.011511
0.0102668
0.0383738
0.0441018
0.0473779
0.0487308
0.0486263
0.0474583
0.0455486
0.0431516
0.0404631
0.0376313
0.0347651
0.0319411
0.0292109
0.0266099
0.0241609
0.0218748
0.0197526
0.0177928
0.0159941
0.0143527
0.0128566
0.0114923
0.0102505
0.0374507
0.0433177
0.0467176
0.048179
0.048168
0.0470795
0.0452368
0.0428957
0.0402534
0.0374596
0.0346245
0.0318259
0.0291163
0.026532
0.0240965
0.0218214
0.0197081
0.0177555
0.0159626
0.0143259
0.0128338
0.0114728
0.0102336
0.0364915
0.042502
0.0460302
0.0476041
0.0476903
0.0466847
0.0449118
0.0426289
0.0400349
0.0372807
0.0344781
0.031706
0.0290179
0.0264509
0.0240295
0.0217659
0.019662
0.0177168
0.0159299
0.0142981
0.0128102
0.0114526
0.0102162
0.0354973
0.0416557
0.0453165
0.0470069
0.047194
0.0462744
0.0445739
0.0423516
0.0398078
0.0370948
0.034326
0.0315814
0.0289157
0.0263668
0.02396
0.0217084
0.0196141
0.0176768
0.0158961
0.0142694
0.0127858
0.0114318
0.0101981
0.0344694
0.0407799
0.0445773
0.0463881
0.0466794
0.0458489
0.0442236
0.0420641
0.0395723
0.0369022
0.0341683
0.0314523
0.0288099
0.0262798
0.0238882
0.0216489
0.0195646
0.0176354
0.0158611
0.0142398
0.0127606
0.0114103
0.0101795
0.0334091
0.0398756
0.0438135
0.0457485
0.0461474
0.0454088
0.0438612
0.0417667
0.0393288
0.0367029
0.0340053
0.031319
0.0287006
0.0261899
0.023814
0.0215874
0.0195136
0.0175927
0.0158252
0.0142093
0.0127347
0.0113882
0.0101604
0.0323177
0.038944
0.0430262
0.0450887
0.0455985
0.0449547
0.0434873
0.0414598
0.0390775
0.0364974
0.0338372
0.0311814
0.0285879
0.0260973
0.0237376
0.0215242
0.0194611
0.0175488
0.0157882
0.0141779
0.012708
0.0113654
0.0101408
0.0311967
0.0379862
0.0422163
0.0444097
0.0450334
0.0444872
0.0431022
0.0411438
0.0388188
0.0362858
0.0336642
0.0310399
0.028472
0.0260021
0.0236591
0.0214593
0.0194072
0.0175038
0.0157502
0.0141457
0.0126807
0.0113421
0.0101207
0.0300475
0.0370036
0.0413848
0.0437123
0.0444528
0.0440068
0.0427066
0.0408192
0.038553
0.0360685
0.0334866
0.0308946
0.028353
0.0259044
0.0235786
0.0213927
0.0193519
0.0174577
0.0157114
0.0141128
0.0126527
0.0113182
0.0101002
0.0288715
0.0359972
0.0405327
0.0429975
0.0438576
0.0435142
0.0423009
0.0404862
0.0382805
0.0358457
0.0333045
0.0307458
0.0282311
0.0258044
0.0234961
0.0213245
0.0192954
0.0174105
0.0156717
0.0140791
0.0126241
0.0112939
0.0100792
0.0276701
0.0349683
0.0396612
0.042266
0.0432484
0.04301
0.0418856
0.0401455
0.0380016
0.0356178
0.0331183
0.0305936
0.0281066
0.0257021
0.0234119
0.0212549
0.0192376
0.0173623
0.0156312
0.0140448
0.0125949
0.011269
0.0100578
0.026444
0.0339177
0.0387708
0.0415185
0.0426258
0.0424947
0.0414612
0.0397973
0.0377167
0.035385
0.0329281
0.0304382
0.0279794
0.0255979
0.0233261
0.0211839
0.0191788
0.0173133
0.01559
0.0140099
0.0125652
0.0112436
0.010036
0.0251953
0.0328469
0.0378629
0.040756
0.0419905
0.0419688
0.0410282
0.039442
0.037426
0.0351475
0.0327342
0.0302797
0.0278499
0.0254916
0.0232386
0.0211116
0.0191188
0.0172633
0.015548
0.0139743
0.0125349
0.0112178
0.0100139
0.0239311
0.0317613
0.0369413
0.0399813
0.0413445
0.0414337
0.0405872
0.0390801
0.0371298
0.0349054
0.0325364
0.0301182
0.0277177
0.0253832
0.0231494
0.0210379
0.0190577
0.0172124
0.0155052
0.013938
0.012504
0.0111915
0.00999128
0.0226554
0.0306643
0.0360093
0.0391972
0.0406903
0.0408916
0.0401404
0.0387133
0.0368296
0.0346601
0.032336
0.0299544
0.0275837
0.0252733
0.0230589
0.0209632
0.0189957
0.0171607
0.0154618
0.0139013
0.0124727
0.0111648
0.00996835
0.0213293
0.029529
0.0350488
0.0383928
0.0400224
0.0403407
0.0396882
0.0383437
0.0365283
0.0344149
0.0321365
0.029792
0.0274513
0.0251652
0.0229702
0.0208901
0.0189352
0.0171104
0.0154197
0.0138656
0.0124424
0.0111388
0.00994611
0.0198872
0.028304
0.0340205
0.0375383
0.0393182
0.0397642
0.0392188
0.0379629
0.0362202
0.0341661
0.0319356
0.0296297
0.0273202
0.0250589
0.0228837
0.0208193
0.0188771
0.0170624
0.0153797
0.013832
0.0124137
0.0111145
0.00992526
0.0185478
0.0271376
0.0330176
0.0366848
0.0385978
0.0391604
0.0387157
0.0375457
0.0358754
0.0338817
0.0317013
0.0294368
0.0271612
0.0249277
0.0227751
0.0207291
0.0188021
0.0169998
0.0153271
0.0137874
0.0123759
0.0110823
0.00989783
0.0254329
0.0314501
0.0352679
0.0373355
0.0380489
0.0377459
0.0367057
0.0351519
0.033261
0.0311704
0.0289836
0.026775
0.0245985
0.0224942
0.0204896
0.018598
0.0168254
0.0151773
0.0136586
0.0122658
0.0109883
0.00981657
0.022354
0.0285434
0.0325829
0.0348981
0.0358669
0.0358142
0.0350107
0.0336751
0.0319813
0.030066
0.0280333
0.025959
0.0238989
0.0218947
0.0199759
0.0181578
0.0164481
0.0148537
0.0133806
0.0120265
0.0107822
0.00963937
0.0192092
0.0255606
0.0298156
0.0323755
0.0335996
0.033799
0.0332357
0.0321227
0.030631
0.0288963
0.0270232
0.0250888
0.0231504
0.0212514
0.019423
0.0176827
0.01604
0.014503
0.0130786
0.0117659
0.0105575
0.00944596
0.0160254
0.0225318
0.0269988
0.0298022
0.0312819
0.0317351
0.0314142
0.0305266
0.0292402
0.0276894
0.0259792
0.0241878
0.0223742
0.0205832
0.0188479
0.0171877
0.0156143
0.0141367
0.0127628
0.0114932
0.0103221
0.00924308
0.0128195
0.019468
0.0241382
0.0271797
0.0289123
0.0296188
0.0295412
0.028881
0.0278027
0.0264392
0.0248953
0.0232506
0.0215651
0.0198856
0.0182464
0.0166694
0.0151677
0.0137519
0.0124308
0.0112062
0.010074
0.00902897
0.00962175
0.0163956
0.0212558
0.0245259
0.026505
0.0274607
0.0276247
0.0271918
0.0263226
0.0251482
0.0237732
0.0222777
0.0207235
0.0191583
0.0176182
0.0161269
0.0146996
0.013348
0.0120818
0.0109041
0.00981242
0.00880298
0.00646165
0.0133413
0.0183756
0.0218614
0.0240774
0.0252755
0.0256767
0.0254686
0.0248077
0.0238228
0.0226178
0.0212734
0.0198524
0.0184038
0.0169652
0.0155619
0.014211
0.0129257
0.0117164
0.0105874
0.00953789
0.00856544
0.00336417
0.0103282
0.015518
0.0192041
0.0216447
0.0230761
0.023708
0.0237205
0.0232654
0.0224689
0.0214339
0.0202414
0.0189549
0.0176246
0.0162892
0.0149758
0.0137033
0.0124862
0.0113355
0.0102568
0.00925086
0.00831671
0.000349517
0.00737516
0.0127
0.0165691
0.0192202
0.0208737
0.0217279
0.021955
0.0217019
0.0210917
0.0202257
0.0191849
0.0180336
0.0168227
0.015592
0.01437
0.0131775
0.01203
0.0109396
0.00991271
0.00895167
0.00805706
-0.00256667
0.00449725
0.00993567
0.013969
0.0168147
0.0186778
0.0197445
0.0201791
0.0201229
0.0196957
0.0189969
0.0181071
0.0170909
0.016
0.0148749
0.0137456
0.0126343
0.0115579
0.0105292
0.00955545
0.00864063
0.00778671
-0.00537281
0.00170604
0.00723609
0.011414
0.0144377
0.0164965
0.017765
0.0183988
0.0185336
0.0182851
0.017751
0.0170107
0.0161291
0.0151583
0.0141394
0.0131036
0.0120746
0.0110705
0.0101047
0.00918543
0.00831802
0.00750589
-0.00806077
-0.000989754
0.00460998
0.00891253
0.0120968
0.0143369
0.0157955
0.0166194
0.0169383
0.0168638
0.016491
0.0158983
0.0151503
0.0142992
0.0133868
0.0124451
0.0114993
0.0105684
0.00966662
0.00880297
0.0079841
0.00721479
-0.0106251
-0.0035838
0.00206408
0.00647132
0.00979859
0.012205
0.0138413
0.0148457
0.0153412
0.0154352
0.0152199
0.0147723
0.0141563
0.0134243
0.0126183
0.0117711
0.0109091
0.0100523
0.00921542
0.00840841
0.00763912
0.00691358
-0.0130624
-0.00607154
-0.00039636
0.00409591
0.00754851
0.010106
0.0119074
0.013082
0.0137461
0.0140026
0.0139404
0.0136349
0.013149
0.012535
0.011835
0.0110826
0.0103048
0.00952261
0.00875149
0.00800206
0.00728331
0.00660245
-0.0153709
-0.0084498
-0.00276725
0.0017909
0.00535134
0.00804454
0.00999817
0.0113323
0.0121567
0.0125691
0.0126553
0.0124883
0.0121304
0.011633
0.0110384
0.0103804
0.00968704
0.00898
0.00827528
0.00758424
0.00691692
0.00628157
-0.0175498
-0.0107164
-0.00504538
-0.000439858
0.00321126
0.00602493
0.00811761
0.00960041
0.0105762
0.0111377
0.011367
0.0113349
0.0111022
0.0107197
0.0102294
0.00966557
0.00905666
0.00842506
0.00778725
0.00715529
0.00654018
0.00595113
-0.0195994
-0.01287
-0.00722827
-0.0025931
0.00113195
0.00405099
0.00626955
0.00788991
0.00900799
0.00971135
0.0100781
0.0101767
0.0100662
0.00979665
0.00940948
0.0089391
0.00841445
0.00785839
0.00728787
0.00671557
0.00615336
0.00561131
-0.0215204
-0.0149099
-0.00931401
-0.00466608
-0.000883283
0.00212625
0.00445757
0.00620425
0.00745531
0.00829293
0.00879131
0.00901603
0.00902444
0.0088654
0.00857982
0.00820204
0.00776125
0.00728068
0.00677768
0.0062655
0.00575678
0.00526236
-0.0233142
-0.016836
-0.0113012
-0.00665648
-0.00283154
0.000253981
0.00268504
0.00454675
0.00592125
0.00688533
0.00750905
0.00785508
0.00797875
0.00792759
0.00774181
0.0074555
0.00709796
0.00669266
0.00625724
0.0058055
0.00535077
0.00490452
-0.0249828
-0.0186485
-0.013189
-0.00856242
-0.00471024
-0.00156286
0.000955114
0.00292057
0.00440887
0.00549136
0.00623392
0.00669612
0.0069311
0.00698491
0.00689686
0.00670065
0.00642553
0.00609508
0.00572717
0.00533606
0.00493569
0.00453808
-0.0265284
-0.0203484
-0.0149768
-0.0103824
-0.0065172
-0.00332157
-0.000729271
0.00132871
0.00292109
0.00411381
0.00496847
0.00554143
0.00588351
0.00603909
0.00604644
0.00593873
0.00574499
0.00548879
0.00518814
0.00485773
0.00451198
0.00416337
-0.0279537
-0.0219369
-0.0166647
-0.0121155
-0.00825056
-0.00501979
-0.00236541
-0.000225989
0.00146074
0.00275537
0.0037152
0.0043933
0.00483799
0.00509189
0.00519206
0.00517101
0.00505741
0.00487466
0.00464089
0.00437108
0.00408009
0.00378075
-0.0292618
-0.0234155
-0.0182531
-0.0137608
-0.00990883
-0.00665541
-0.00395085
-0.00174087
3.05201e-05
0.00141867
0.00247659
0.00325399
0.0037966
0.00414512
0.00433529
0.00439883
0.0043639
0.00425365
0.00408618
0.00387675
0.00364054
0.00339063
-0.030456
-0.0247865
-0.0197427
-0.0153182
-0.0114909
-0.00822667
-0.00548337
-0.00321349
-0.00136702
0.000106245
0.00125507
0.00212575
0.00276136
0.00320058
0.00347773
0.00362357
0.00366565
0.00362675
0.00352485
0.00337543
0.00319388
0.00299347
-0.03154
-0.026052
-0.0211347
-0.0167878
-0.0129959
-0.00973212
-0.00696105
-0.00464161
-0.0027295
-0.0011795
5.29703e-05
0.0010108
0.00173433
0.00226014
0.002621
0.00284665
0.00296388
0.00299499
0.00295779
0.00286784
0.00274072
0.00258975
-0.0325177
-0.0272148
-0.0224306
-0.01817
-0.0144235
-0.0111706
-0.00838222
-0.00602321
-0.0040547
-0.00243627
-0.00112744
-8.86998e-05
0.000717516
0.00132561
0.00176675
0.00206952
0.00225985
0.00235946
0.0023859
0.00235478
0.00228171
0.00218002
-0.0333931
-0.0282779
-0.0236323
-0.0194656
-0.0157735
-0.0125413
-0.00974549
-0.00735651
-0.00534061
-0.00366194
-0.002284
-0.00117065
-0.000287096
0.000398842
0.000916654
0.00129367
0.00155487
0.0017213
0.00181018
0.00183706
0.00181754
0.00176484
-0.0341705
-0.0292444
-0.0247419
-0.0206757
-0.0170463
-0.0138437
-0.0110498
-0.00863998
-0.00658538
-0.0048545
-0.00341467
-0.00223303
-0.00127756
-0.000518352
7.2365e-05
0.000520595
0.000850267
0.00108166
0.00123162
0.00131556
0.00134894
0.00134485
-0.0348544
-0.0301178
-0.0257618
-0.0218018
-0.0182423
-0.0150776
-0.0122942
-0.00987233
-0.00778741
-0.00601213
-0.00451751
-0.00327389
-0.002252
-0.00142418
-0.000764454
-0.000248196
0.000147389
0.000441761
0.000651289
0.00079119
0.000876705
0.000920699
-0.0354493
-0.0309019
-0.0266947
-0.0228457
-0.0193624
-0.0162431
-0.0134783
-0.0110525
-0.00894528
-0.00713318
-0.00559074
-0.00429139
-0.00320859
-0.0023169
-0.00159216
-0.00101119
-0.000552386
-0.000197182
7.02668e-05
0.000264894
0.000401646
0.000493101
-0.0359598
-0.0316002
-0.0275435
-0.0238093
-0.0204078
-0.0173405
-0.0146018
-0.0121797
-0.0100578
-0.00821618
-0.00663271
-0.00528381
-0.00414557
-0.0031948
-0.00240912
-0.00176687
-0.00124768
-0.000833914
-0.000510328
-0.000262341
-7.53771e-05
6.27979e-05
-0.0363907
-0.0322169
-0.0283113
-0.0246949
-0.0213799
-0.0183706
-0.0156646
-0.0132534
-0.011124
-0.00925984
-0.00764192
-0.00624953
-0.0050613
-0.00405623
-0.00321376
-0.00251374
-0.00193709
-0.00146717
-0.00108935
-0.000789494
-0.000553466
-0.000369424
-0.0367467
-0.032756
-0.0290015
-0.0255049
-0.0222803
-0.0193342
-0.016667
-0.0142733
-0.0121431
-0.0102631
-0.00861704
-0.00718706
-0.0059542
-0.00489961
-0.00400453
-0.00325032
-0.00261924
-0.00209565
-0.00166563
-0.00131552
-0.00103169
-0.000802741
-0.0370325
-0.0332215
-0.0296173
-0.026242
-0.0231109
-0.0202325
-0.0176096
-0.0152393
-0.0131146
-0.0112249
-0.00955689
-0.00809503
-0.00682281
-0.00572343
-0.00477991
-0.00397515
-0.00329274
-0.00271809
-0.00223799
-0.00183934
-0.00150908
-0.00123629
-0.0372529
-0.0336178
-0.0301625
-0.0269091
-0.0238739
-0.0210669
-0.018493
-0.0161516
-0.0140382
-0.0121448
-0.0104605
-0.00897223
-0.00766577
-0.00652626
-0.00553847
-0.0046868
-0.00395622
-0.00333317
-0.00280521
-0.00235985
-0.00198465
-0.00166918
-0.0374126
-0.0339492
-0.0306406
-0.0275091
-0.0245714
-0.021839
-0.0193182
-0.0170106
-0.0149137
-0.013022
-0.0113269
-0.00981757
-0.00848183
-0.00730676
-0.00627881
-0.00538391
-0.00460834
-0.00393962
-0.0033661
-0.00287594
-0.00245737
-0.00210048
-0.00179819
-0.0375164
-0.0342198
-0.0310554
-0.0280451
-0.0252061
-0.0225507
-0.0200864
-0.0178168
-0.0157413
-0.0138564
-0.0121556
-0.0106301
-0.00926986
-0.00806367
-0.00699961
-0.00606511
-0.00524777
-0.00453615
-0.00391943
-0.00338646
-0.00292618
-0.00252923
-0.00218875
-0.037569
-0.034434
-0.0314107
-0.0285205
-0.0257805
-0.0232038
-0.020799
-0.0185711
-0.0165213
-0.0146477
-0.0129459
-0.0114091
-0.0100289
-0.00879583
-0.00769964
-0.00672913
-0.0058732
-0.00512149
-0.00446398
-0.00389028
-0.00339002
-0.00295442
-0.00257691
-0.0375749
-0.0345962
-0.0317104
-0.0289384
-0.0262973
-0.0238005
-0.0214575
-0.0192745
-0.017254
-0.015396
-0.0136976
-0.0121538
-0.0107579
-0.0095022
-0.0083777
-0.00737471
-0.00648338
-0.00569438
-0.00499854
-0.00438621
-0.00384779
-0.00337505
-0.00296171
-0.0375387
-0.0347105
-0.0319584
-0.0293025
-0.0267595
-0.0243431
-0.0220637
-0.019928
-0.0179402
-0.0161015
-0.0144105
-0.0128638
-0.0114563
-0.0101818
-0.00903272
-0.00800069
-0.00707708
-0.00625359
-0.00552189
-0.0048731
-0.00429837
-0.00379006
-0.00334219
-0.0374649
-0.0347814
-0.0321586
-0.029616
-0.0271699
-0.0248341
-0.0226193
-0.0205332
-0.0185808
-0.0167646
-0.0150845
-0.0135387
-0.0121234
-0.0108338
-0.00966367
-0.00860593
-0.00765312
-0.00679791
-0.00603282
-0.00534977
-0.00474064
-0.00419838
-0.00371733
-0.037358
-0.0348129
-0.032315
-0.0298825
-0.0275317
-0.025276
-0.0231264
-0.0210913
-0.0191766
-0.0173857
-0.0157198
-0.0141783
-0.0127587
-0.0114574
-0.0102696
-0.00918938
-0.00821035
-0.00732615
-0.00653014
-0.00581502
-0.00517343
-0.0045989
-0.00408611
-0.0372222
-0.0348093
-0.0324313
-0.0301056
-0.0278478
-0.0256713
-0.0235871
-0.0216041
-0.0197288
-0.0179656
-0.0163166
-0.0147824
-0.0133616
-0.012052
-0.0108497
-0.00975004
-0.00874766
-0.00783715
-0.00701266
-0.00626768
-0.0055956
-0.00499051
-0.00444746
-0.0370618
-0.0347747
-0.0325115
-0.0302888
-0.0281215
-0.0260228
-0.0240037
-0.0220733
-0.0202387
-0.018505
-0.0168753
-0.015351
-0.0139321
-0.012617
-0.0114032
-0.010287
-0.00926401
-0.00832977
-0.0074792
-0.00670657
-0.00600597
-0.00537206
-0.00480027
-0.0368811
-0.0347132
-0.0325596
-0.0304357
-0.028356
-0.0263332
-0.0243783
-0.0225006
-0.0207076
-0.0190049
-0.0173964
-0.0158844
-0.0144697
-0.0131519
-0.0119294
-0.0107993
-0.00975838
-0.00880292
-0.00792861
-0.00713049
-0.00640334
-0.00574239
-0.00514342
-0.0366841
-0.0346288
-0.0325792
-0.0305498
-0.0285544
-0.0266053
-0.0247134
-0.022888
-0.0211369
-0.0194663
-0.0178805
-0.0163827
-0.0149745
-0.0136564
-0.0124275
-0.0112862
-0.0102298
-0.00925549
-0.00835973
-0.00753825
-0.00678651
-0.0061003
-0.00547576
-0.0364748
-0.0345254
-0.0325741
-0.0306347
-0.02872
-0.026842
-0.0250114
-0.0232375
-0.0215283
-0.0198902
-0.0183283
-0.0168462
-0.0154464
-0.0141301
-0.0128972
-0.0117468
-0.0106773
-0.00968645
-0.00877142
-0.00792865
-0.00715428
-0.00644458
-0.00579611
-0.0362572
-0.034407
-0.0325482
-0.0306937
-0.0288559
-0.0270461
-0.0252747
-0.023551
-0.0218831
-0.0202778
-0.0187405
-0.0172754
-0.0158855
-0.0145727
-0.0133378
-0.0121805
-0.0111
-0.0100947
-0.00916253
-0.0083005
-0.0075054
-0.006774
-0.00610323
-0.0360351
-0.0342773
-0.032505
-0.0307305
-0.0289652
-0.0272203
-0.0255057
-0.0238306
-0.0222032
-0.0206304
-0.019118
-0.0176706
-0.0162918
-0.014984
-0.0137488
-0.0125865
-0.011497
-0.0104793
-0.00953192
-0.00865258
-0.00783862
-0.00708728
-0.00639588
-0.0358124
-0.03414
-0.0324482
-0.0307483
-0.0290512
-0.0273675
-0.0257069
-0.0240784
-0.0224901
-0.0209492
-0.0194616
-0.0180323
-0.0166654
-0.0153639
-0.0141298
-0.0129642
-0.0118674
-0.0108391
-0.00987843
-0.00898366
-0.00815265
-0.00738313
-0.00667277
-0.0355927
-0.0339989
-0.0323813
-0.0307504
-0.0291168
-0.0274904
-0.0258806
-0.0242963
-0.0227455
-0.0212353
-0.019772
-0.018361
-0.0170065
-0.0157122
-0.0144804
-0.0133127
-0.0122102
-0.0111731
-0.0102009
-0.00929246
-0.00844619
-0.00766022
-0.00693256
-0.0353797
-0.0338574
-0.0323076
-0.0307402
-0.029165
-0.0275917
-0.0260292
-0.0244863
-0.0229708
-0.02149
-0.0200503
-0.0186571
-0.0173153
-0.0160286
-0.0147999
-0.0136315
-0.0125247
-0.0114802
-0.0104981
-0.00957771
-0.00871788
-0.00791715
-0.00717386
-0.0351769
-0.0337191
-0.0322306
-0.0307207
-0.0291988
-0.0276739
-0.026155
-0.0246503
-0.0231677
-0.0217145
-0.020297
-0.0189211
-0.0175917
-0.0163129
-0.0150881
-0.0139198
-0.0128098
-0.0117593
-0.0107688
-0.00983805
-0.00896632
-0.00815249
-0.00739525
-0.034988
-0.0335874
-0.0321535
-0.030695
-0.0292208
-0.0277397
-0.02626
-0.0247901
-0.0233376
-0.0219097
-0.0205129
-0.0191532
-0.0178357
-0.0165648
-0.0153441
-0.0141766
-0.0130645
-0.0120092
-0.0110117
-0.0100721
-0.00919002
-0.00836475
-0.00759521
-0.0348163
-0.0334656
-0.0320794
-0.030666
-0.0292337
-0.0277911
-0.0263463
-0.0249073
-0.0234816
-0.0220765
-0.0206986
-0.0193537
-0.0180472
-0.0167838
-0.0155674
-0.0144012
-0.0132876
-0.0122286
-0.0112253
-0.0102783
-0.00938745
-0.00855235
-0.00777217
-0.0346652
-0.0333569
-0.0320113
-0.0306363
-0.02924
-0.0278304
-0.0264156
-0.0250032
-0.0236009
-0.0222157
-0.0208542
-0.0195225
-0.018226
-0.0169695
-0.0157571
-0.0145924
-0.013478
-0.0124161
-0.0114082
-0.010455
-0.00955694
-0.00871361
-0.00792448
-0.0345381
-0.0332644
-0.0319521
-0.0306086
-0.0292418
-0.0278595
-0.0264694
-0.0250792
-0.0236963
-0.0223277
-0.0209801
-0.0196594
-0.0183714
-0.0171208
-0.0159122
-0.0147489
-0.0136341
-0.0125701
-0.0115586
-0.0106007
-0.00969674
-0.00884676
-0.00805036
-0.0344382
-0.0331911
-0.0319044
-0.0305852
-0.0292412
-0.0278799
-0.026509
-0.025136
-0.0237682
-0.0224126
-0.0210758
-0.019764
-0.0184827
-0.0172369
-0.0160313
-0.0148694
-0.0137545
-0.012689
-0.0116748
-0.0107133
-0.00980493
-0.0089499
-0.00814795
-0.0343686
-0.0331398
-0.0318705
-0.030568
-0.0292397
-0.0278929
-0.0265353
-0.0251741
-0.0238168
-0.0224702
-0.021141
-0.0198352
-0.0185586
-0.0173163
-0.0161128
-0.014952
-0.013837
-0.0127706
-0.0117547
-0.0107908
-0.00987942
-0.00902096
-0.00821522
-0.0343324
-0.0331129
-0.0318527
-0.0305589
-0.0292386
-0.0278993
-0.0265485
-0.0251935
-0.0238416
-0.0224997
-0.0211744
-0.0198718
-0.0185977
-0.0173572
-0.0161549
-0.0149946
-0.0138796
-0.0128127
-0.011796
-0.0108308
-0.00991793
-0.00905771
-0.00825003
-0.0355041
-0.0343322
-0.0331127
-0.0318526
-0.0305587
-0.0292384
-0.0278992
-0.0265484
-0.0251934
-0.0238415
-0.0224996
-0.0211743
-0.0198717
-0.0185976
-0.0173571
-0.0161548
-0.0149945
-0.0138796
-0.0128127
-0.0117959
-0.0108307
-0.00991788
-0.00905767
-0.0355499
-0.0343684
-0.0331396
-0.0318703
-0.0305679
-0.0292395
-0.0278928
-0.0265351
-0.025174
-0.0238167
-0.0224701
-0.0211409
-0.0198351
-0.0185586
-0.0173163
-0.0161128
-0.0149519
-0.013837
-0.0127705
-0.0117547
-0.0107907
-0.00987938
-0.00902092
-0.0356382
-0.034438
-0.0331909
-0.0319042
-0.030585
-0.029241
-0.0278798
-0.0265089
-0.0251359
-0.0237681
-0.0224125
-0.0210757
-0.0197639
-0.0184826
-0.0172369
-0.0160312
-0.0148693
-0.0137544
-0.0126889
-0.0116748
-0.0107132
-0.00980489
-0.00894986
-0.0357655
-0.0345379
-0.0332643
-0.0319519
-0.0306085
-0.0292417
-0.0278593
-0.0264693
-0.0250791
-0.0236962
-0.0223276
-0.02098
-0.0196593
-0.0183713
-0.0171208
-0.0159121
-0.0147489
-0.0136341
-0.0125701
-0.0115586
-0.0106006
-0.0096967
-0.00884672
-0.0359283
-0.034665
-0.0333567
-0.0320112
-0.0306362
-0.0292398
-0.0278303
-0.0264154
-0.0250031
-0.0236008
-0.0222156
-0.0208541
-0.0195224
-0.0182259
-0.0169694
-0.0157571
-0.0145923
-0.0134779
-0.012416
-0.0114081
-0.010455
-0.0095569
-0.00871357
-0.0361231
-0.0348161
-0.0334654
-0.0320792
-0.0306658
-0.0292336
-0.027791
-0.0263462
-0.0249071
-0.0234815
-0.0220764
-0.0206985
-0.0193536
-0.0180471
-0.0167838
-0.0155674
-0.0144011
-0.0132876
-0.0122285
-0.0112253
-0.0102782
-0.00938741
-0.00855231
-0.0363464
-0.0349878
-0.0335872
-0.0321533
-0.0306949
-0.0292207
-0.0277395
-0.0262599
-0.02479
-0.0233375
-0.0219096
-0.0205128
-0.0191531
-0.0178356
-0.0165647
-0.0153441
-0.0141766
-0.0130644
-0.0120091
-0.0110116
-0.010072
-0.00918998
-0.00836471
-0.0365946
-0.0351768
-0.033719
-0.0322305
-0.0307206
-0.0291987
-0.0276738
-0.0261549
-0.0246502
-0.0231676
-0.0217144
-0.0202969
-0.018921
-0.0175916
-0.0163128
-0.015088
-0.0139197
-0.0128097
-0.0117593
-0.0107688
-0.00983801
-0.00896628
-0.00815246
-0.0368643
-0.0353795
-0.0338573
-0.0323075
-0.0307401
-0.0291649
-0.0275916
-0.0260291
-0.0244862
-0.0229707
-0.0214899
-0.0200502
-0.018657
-0.0173152
-0.0160285
-0.0147999
-0.0136315
-0.0125246
-0.0114802
-0.0104981
-0.00957767
-0.00871785
-0.00791711
-0.0371518
-0.0355925
-0.0339987
-0.0323811
-0.0307503
-0.0291167
-0.0274903
-0.0258805
-0.0242962
-0.0227454
-0.0212352
-0.019772
-0.0183609
-0.0170065
-0.0157121
-0.0144803
-0.0133127
-0.0122102
-0.011173
-0.0102009
-0.00929242
-0.00844616
-0.00766018
-0.0374536
-0.0358122
-0.0341399
-0.0324481
-0.0307482
-0.0290511
-0.0273674
-0.0257068
-0.0240783
-0.02249
-0.0209491
-0.0194615
-0.0180322
-0.0166653
-0.0153639
-0.0141298
-0.0129641
-0.0118673
-0.010839
-0.00987839
-0.00898362
-0.00815262
-0.0073831
-0.037766
-0.036035
-0.0342772
-0.0325049
-0.0307304
-0.0289651
-0.0272202
-0.0255056
-0.0238306
-0.0222031
-0.0206303
-0.0191179
-0.0176705
-0.0162917
-0.014984
-0.0137487
-0.0125865
-0.0114969
-0.0104792
-0.00953188
-0.00865254
-0.00783858
-0.00708725
-0.0380853
-0.0362571
-0.0344069
-0.0325481
-0.0306936
-0.0288558
-0.027046
-0.0252746
-0.0235509
-0.0218831
-0.0202777
-0.0187404
-0.0172753
-0.0158854
-0.0145726
-0.0133377
-0.0121804
-0.0110999
-0.0100947
-0.00916249
-0.00830047
-0.00750537
-0.00677397
-0.0384077
-0.0364747
-0.0345254
-0.0325741
-0.0306346
-0.0287199
-0.0268419
-0.0250113
-0.0232374
-0.0215282
-0.0198901
-0.0183282
-0.0168462
-0.0154464
-0.01413
-0.0128971
-0.0117468
-0.0106773
-0.0096864
-0.00877138
-0.00792862
-0.00715425
-0.00644455
-0.0387294
-0.036684
-0.0346287
-0.0325791
-0.0305498
-0.0285544
-0.0266053
-0.0247133
-0.022888
-0.0211369
-0.0194662
-0.0178804
-0.0163826
-0.0149744
-0.0136563
-0.0124275
-0.0112861
-0.0102297
-0.00925545
-0.0083597
-0.00753821
-0.00678649
-0.00610027
-0.0390465
-0.036881
-0.0347131
-0.0325595
-0.0304357
-0.0283559
-0.0263331
-0.0243782
-0.0225005
-0.0207075
-0.0190048
-0.0173963
-0.0158843
-0.0144696
-0.0131519
-0.0119293
-0.0107992
-0.00975834
-0.00880288
-0.00792858
-0.00713046
-0.00640331
-0.00574236
-0.039355
-0.0370618
-0.0347747
-0.0325115
-0.0302888
-0.0281215
-0.0260227
-0.0240036
-0.0220732
-0.0202386
-0.0185049
-0.0168753
-0.015351
-0.013932
-0.0126169
-0.0114031
-0.0102869
-0.00926397
-0.00832973
-0.00747917
-0.00670654
-0.00600594
-0.00537204
-0.0396509
-0.0372222
-0.0348093
-0.0324312
-0.0301056
-0.0278478
-0.0256712
-0.023587
-0.0216041
-0.0197288
-0.0179655
-0.0163166
-0.0147823
-0.0133616
-0.0120519
-0.0108497
-0.00974999
-0.00874762
-0.00783711
-0.00701263
-0.00626766
-0.00559558
-0.00499049
-0.0399298
-0.037358
-0.0348129
-0.0323149
-0.0298825
-0.0275316
-0.0252759
-0.0231263
-0.0210913
-0.0191765
-0.0173856
-0.0157198
-0.0141782
-0.0127586
-0.0114573
-0.0102696
-0.00918933
-0.00821031
-0.00732612
-0.00653011
-0.005815
-0.00517342
-0.00459889
-0.0401877
-0.0374649
-0.0347814
-0.0321586
-0.0296159
-0.0271699
-0.024834
-0.0226192
-0.0205331
-0.0185807
-0.0167645
-0.0150845
-0.0135386
-0.0121234
-0.0108337
-0.00966361
-0.00860588
-0.00765308
-0.00679788
-0.00603279
-0.00534975
-0.00474062
-0.00419836
-0.0404201
-0.0375387
-0.0347105
-0.0319584
-0.0293024
-0.0267594
-0.0243431
-0.0220636
-0.0199279
-0.0179401
-0.0161014
-0.0144104
-0.0128637
-0.0114563
-0.0101817
-0.00903266
-0.00800064
-0.00707705
-0.00625356
-0.00552187
-0.00487309
-0.00429836
-0.00379005
-0.0406224
-0.0375749
-0.0345962
-0.0317104
-0.0289384
-0.0262973