/*--------------------------------*- C++ -*----------------------------------*\
  =========                 |
  \\      /  F ield         | OpenFOAM: The Open Source CFD Toolbox
   \\    /   O peration     | Website:  https://openfoam.org
    \\  /    A nd           | Version:  7
     \\/     M anipulation  |
\*---------------------------------------------------------------------------*/
FoamFile
{
    version     2.0;
    format      ascii;
    class       surfaceScalarField;
    location    "260";
    object      phi;
}
// * * * * * * * * * * * * * * * * * * * * * * * * * * * * * * * * * * * * * //

dimensions      [0 3 -1 0 0 0 0];

internalField   nonuniform List<scalar> 
14036
(
0.00114819
0.00267338
-0.00269713
0.00117488
0.00534991
-0.00537661
0.00119179
0.00735775
-0.00737466
0.00119165
0.0088003
-0.00880016
0.001176
0.00960909
-0.00959344
0.00115187
0.0096585
-0.00963437
0.00112772
0.00863765
-0.00861351
0.0011109
0.00650895
-0.00649213
0.00110663
0.00348681
-0.00348254
0.00111435
-3.32113e-05
2.54899e-05
0.00112712
-0.00335
0.00333723
0.00113503
-0.00635583
0.00634793
0.00113392
-0.00839758
0.00839869
0.00112523
-0.00974849
0.00975718
0.00111319
-0.00956742
0.00957945
0.00110112
-0.00825711
0.00826918
0.00109262
-0.0055796
0.00558811
0.00108888
-0.00185461
0.00185835
0.00108872
0.00174699
-0.00174682
0.00108744
0.00599387
-0.00599259
0.00108514
0.00809107
-0.00808877
0.0010799
0.0103164
-0.0103112
0.00107171
0.00931717
-0.00930898
0.00106064
0.00757539
-0.00756432
0.00104775
0.00450099
-0.00448809
0.00103473
-0.0010954
0.00110842
0.00102521
-0.00300455
0.00301407
0.0010167
-0.00909631
0.00910482
-0.00741699
0.00742457
0.00114913
0.00264811
0.00117692
0.00532213
0.00119457
0.0073401
0.00119497
0.0087999
0.00117961
0.00962445
0.00115538
0.00968273
0.00113062
0.00866241
0.00111278
0.00652679
0.00110733
0.00349226
0.00111405
-3.99288e-05
0.00112608
-0.00336203
0.00113343
-0.00636319
0.00113188
-0.00839604
0.00112299
-0.0097396
0.00111114
-0.00955556
0.0010996
-0.00824557
0.00109182
-0.00557182
0.0010887
-0.0018515
0.00108914
0.00174656
0.00108836
0.00599464
0.0010865
0.00809293
0.00108145
0.0103215
0.00107307
0.00932555
0.00106174
0.00758671
0.00104833
0.0045144
0.00103503
-0.0010821
0.00102509
-0.00299461
0.00101635
-0.00908757
-0.00740969
0.00115003
0.00262135
0.0011789
0.00529326
0.00119731
0.00732168
0.00119827
0.00879895
0.00118322
0.00963949
0.0011589
0.00970706
0.00113354
0.00868778
0.00111466
0.00654567
0.00110803
0.00349889
0.00111373
-4.56346e-05
0.00112502
-0.00337331
0.00113184
-0.00637001
0.00112986
-0.00839405
0.00112077
-0.00973051
0.0011091
-0.0095439
0.00109809
-0.00823456
0.00109102
-0.00556476
0.00108854
-0.00184902
0.00108959
0.00174551
0.00108933
0.0059949
0.00108791
0.00809435
0.00108304
0.0103264
0.00107446
0.00933412
0.00106288
0.00759829
0.00104896
0.00452832
0.0010354
-0.00106854
0.00102505
-0.00298426
0.00101607
-0.00907859
-0.00740267
0.00115087
0.00259311
0.00118082
0.00526331
0.00120001
0.00730248
0.00120154
0.00879742
0.00118684
0.00965419
0.00116243
0.00973146
0.00113647
0.00871374
0.00111656
0.00656558
0.00110872
0.00350673
0.00111341
-5.03207e-05
0.00112396
-0.00338387
0.00113026
-0.0063763
0.00112785
-0.00839164
0.00111856
-0.00972122
0.00110707
-0.00953241
0.00109658
-0.00822406
0.00109024
-0.00555841
0.00108839
-0.00184717
0.00109006
0.00174384
0.00109033
0.00599463
0.00108935
0.00809533
0.00108466
0.0103311
0.0010759
0.00934289
0.00106407
0.00761011
0.00104966
0.00454273
0.00103584
-0.00105472
0.00102509
-0.0029735
0.00101587
-0.00906937
-0.00739593
0.00115164
0.00256342
0.00118267
0.00523228
0.00120266
0.00728249
0.00120479
0.00879529
0.00119044
0.00966854
0.00116598
0.00975593
0.00113941
0.0087403
0.00111846
0.00658653
0.00110942
0.00351577
0.00111308
-5.39784e-05
0.0011229
-0.00339369
0.00112868
-0.00638209
0.00112585
-0.00838882
0.00111637
-0.00971173
0.00110506
-0.00952111
0.00109509
-0.00821409
0.00108946
-0.00555278
0.00108826
-0.00184598
0.00109057
0.00174154
0.00109137
0.00599383
0.00109083
0.00809587
0.00108633
0.0103356
0.00107738
0.00935185
0.00106531
0.00762218
0.00105041
0.00455763
0.00103636
-0.00104067
0.00102521
-0.00296235
0.00101574
-0.0090599
-0.00738946
0.00115235
0.00253229
0.00118446
0.00520017
0.00120526
0.00726169
0.00120802
0.00879253
0.00119405
0.00968252
0.00116953
0.00978044
0.00114238
0.00876745
0.00112039
0.00660852
0.00111012
0.00352604
0.00111274
-5.6599e-05
0.00112183
-0.00340277
0.00112711
-0.00638736
0.00112387
-0.00838558
0.00111419
-0.00970205
0.00110305
-0.00950997
0.0010936
-0.00820463
0.00108869
-0.00554788
0.00108814
-0.00184543
0.0010911
0.00173858
0.00109244
0.00599249
0.00109235
0.00809595
0.00108804
0.0103399
0.00107889
0.00936099
0.00106659
0.00763448
0.00105123
0.00457299
0.00103694
-0.00102638
0.0010254
-0.00295081
0.0010157
-0.0090502
-0.00738328
0.00115299
0.00249975
0.00118618
0.00516698
0.00120781
0.00724007
0.00121122
0.00878912
0.00119765
0.00969609
0.0011731
0.00980499
0.00114536
0.00879519
0.00112232
0.00663156
0.00111083
0.00353753
0.00111241
-5.81728e-05
0.00112076
-0.00341113
0.00112555
-0.00639215
0.00112191
-0.00838195
0.00111203
-0.00969218
0.00110106
-0.00949899
0.00109211
-0.00819568
0.00108792
-0.00554369
0.00108804
-0.00184554
0.00109165
0.00173497
0.00109354
0.0059906
0.00109391
0.00809559
0.00108978
0.010344
0.00108045
0.00937032
0.00106792
0.007647
0.0010521
0.00458882
0.00103759
-0.00101188
0.00102568
-0.0029389
0.00101574
-0.00904025
-0.00737736
0.00115356
0.00246581
0.00118783
0.00513272
0.00121031
0.00721759
0.00121439
0.00878503
0.00120124
0.00970924
0.00117667
0.00982956
0.00114836
0.0088235
0.00112428
0.00665564
0.00111155
0.00355026
0.00111207
-5.86902e-05
0.00111969
-0.00341875
0.00112399
-0.00639645
0.00111997
-0.00837792
0.00110989
-0.0096821
0.00109908
-0.00948818
0.00109064
-0.00818724
0.00108717
-0.00554022
0.00108795
-0.00184632
0.00109223
0.00173069
0.00109468
0.00598814
0.0010955
0.00809476
0.00109156
0.0103479
0.00108204
0.00937984
0.00106929
0.00765975
0.00105302
0.00460508
0.00103832
-0.000997171
0.00102604
-0.00292662
0.00101585
-0.00903006
-0.00737172
0.00115405
0.0024305
0.0011894
0.00509737
0.00121274
0.00719425
0.00121753
0.00878025
0.00120482
0.00972194
0.00118026
0.00985412
0.00115139
0.00885238
0.00112626
0.00668077
0.00111228
0.00356424
0.00111173
-5.81409e-05
0.00111862
-0.00342564
0.00112245
-0.00640028
0.00111804
-0.00837351
0.00110777
-0.00967183
0.00109711
-0.00947752
0.00108916
-0.00817929
0.00108641
-0.00553747
0.00108787
-0.00184778
0.00109283
0.00172573
0.00109585
0.00598512
0.00109713
0.00809348
0.00109337
0.0103517
0.00108367
0.00938954
0.00107071
0.00767271
0.00105401
0.00462179
0.00103912
-0.000982276
0.00102648
-0.00291399
0.00101604
-0.00901962
-0.00736634
0.00115447
0.00239384
0.00119089
0.00506094
0.00121512
0.00717003
0.00122063
0.00877473
0.0012084
0.00973418
0.00118386
0.00987866
0.00115443
0.0088818
0.00112825
0.00670694
0.00111302
0.00357947
0.00111139
-5.65142e-05
0.00111755
-0.0034318
0.00112092
-0.00640364
0.00111614
-0.00836873
0.00110566
-0.00966136
0.00109515
-0.009467
0.00108769
-0.00817184
0.00108566
-0.00553543
0.00108779
-0.00184991
0.00109345
0.00172008
0.00109705
0.00598152
0.00109879
0.00809174
0.00109522
0.0103553
0.00108534
0.00939941
0.00107218
0.00768588
0.00105505
0.00463891
0.00103998
-0.000967204
0.001027
-0.00290101
0.00101632
-0.00900894
-0.00736123
0.00115479
0.00235583
0.0011923
0.00502343
0.00121743
0.0071449
0.00122369
0.00876847
0.00121196
0.00974591
0.00118746
0.00990316
0.00115749
0.00891177
0.00113028
0.00673416
0.00111378
0.00359597
0.00111106
-5.37991e-05
0.00111649
-0.00343722
0.0011194
-0.00640655
0.00111425
-0.00836358
0.00110358
-0.00965068
0.0010932
-0.00945663
0.00108623
-0.00816487
0.00108491
-0.00553411
0.00108773
-0.00185273
0.00109409
0.00171373
0.00109827
0.00597733
0.00110048
0.00808953
0.00109711
0.0103586
0.00108705
0.00940947
0.00107369
0.00769925
0.00105616
0.00465644
0.00104092
-0.000951968
0.00102761
-0.0028877
0.00101667
-0.008998
-0.00735637
0.00115503
0.00231651
0.00119363
0.00498483
0.00121967
0.00711886
0.00122671
0.00876143
0.0012155
0.00975712
0.00119107
0.0099276
0.00116057
0.00894226
0.00113232
0.00676241
0.00111455
0.00361373
0.00111074
-4.99843e-05
0.00111543
-0.00344191
0.00111789
-0.00640902
0.00111238
-0.00835808
0.00110151
-0.0096398
0.00109126
-0.00944638
0.00108477
-0.00815838
0.00108416
-0.00553351
0.00108768
-0.00185625
0.00109474
0.00170666
0.00109953
0.00597254
0.00110221
0.00808685
0.00109903
0.0103618
0.0010888
0.0094197
0.00107524
0.00771281
0.00105732
0.00467436
0.00104193
-0.000936583
0.0010283
-0.00287407
0.00101711
-0.00898681
-0.00735176
0.00115517
0.00227588
0.00119486
0.00494515
0.00122184
0.00709188
0.00122969
0.00875358
0.00121902
0.00976779
0.00119468
0.00995194
0.00116368
0.00897326
0.00113439
0.00679169
0.00111535
0.00363278
0.00111042
-4.50582e-05
0.00111437
-0.00344586
0.00111639
-0.00641104
0.00111054
-0.00835222
0.00109946
-0.00962872
0.00108932
-0.00943624
0.00108331
-0.00815236
0.00108341
-0.00553362
0.00108763
-0.00186046
0.00109542
0.00169888
0.00110081
0.00596715
0.00110396
0.00808369
0.00110098
0.0103648
0.00109058
0.0094301
0.00107684
0.00772655
0.00105853
0.00469266
0.00104301
-0.000921061
0.00102907
-0.00286012
0.00101762
-0.00897536
-0.0073474
0.00115522
0.00223397
0.001196
0.00490437
0.00122394
0.00706394
0.00123261
0.0087449
0.00122253
0.00977787
0.00119829
0.00997618
0.0011668
0.00900476
0.00113649
0.006822
0.00111616
0.00365311
0.00111011
-3.90091e-05
0.00111331
-0.00344906
0.00111491
-0.00641264
0.00110871
-0.00834603
0.00109742
-0.00961743
0.0010874
-0.00942622
0.00108185
-0.00814681
0.00108267
-0.00553444
0.00108759
-0.00186538
0.0010961
0.00169036
0.00110211
0.00596114
0.00110575
0.00808006
0.00110296
0.0103676
0.00109239
0.00944066
0.00107848
0.00774047
0.00105981
0.00471133
0.00104416
-0.000905418
0.00102992
-0.00284588
0.00101822
-0.00896366
-0.00734328
0.00115516
0.00219079
0.00119704
0.00486249
0.00122595
0.00703502
0.00123549
0.00873537
0.00122601
0.00978735
0.00120191
0.0100003
0.00116994
0.00903673
0.00113862
0.00685333
0.001117
0.00367472
0.00110981
-3.18248e-05
0.00111226
-0.0034515
0.00111344
-0.00641381
0.00110691
-0.00833951
0.00109541
-0.00960593
0.00108549
-0.0094163
0.00108039
-0.0081417
0.00108191
-0.00553596
0.00108755
-0.00187101
0.00109681
0.0016811
0.00110344
0.00595451
0.00110755
0.00807594
0.00110497
0.0103702
0.00109425
0.00945139
0.00108016
0.00775455
0.00106114
0.00473035
0.00104539
-0.000889666
0.00103086
-0.00283135
0.0010189
-0.0089517
-0.0073394
0.001155
0.00214637
0.00119798
0.00481952
0.00122789
0.00700511
0.00123831
0.00872495
0.00122946
0.0097962
0.00120553
0.0100242
0.00117311
0.00906915
0.00114077
0.00688567
0.00111786
0.00369763
0.00110953
-2.34934e-05
0.00111122
-0.0034532
0.00111198
-0.00641457
0.00110513
-0.00833266
0.00109342
-0.00959421
0.00108359
-0.00940647
0.00107893
-0.00813704
0.00108116
-0.00553819
0.00108751
-0.00187736
0.00109752
0.00167108
0.00110478
0.00594725
0.00110939
0.00807134
0.00110702
0.0103726
0.00109613
0.00946227
0.00108189
0.0077688
0.00106253
0.00474971
0.00104668
-0.00087382
0.00103188
-0.00281655
0.00101966
-0.00893948
-0.00733575
0.00115474
0.00210071
0.00119881
0.00477545
0.00122974
0.00697418
0.00124107
0.00871362
0.00123289
0.00980438
0.00120914
0.010048
0.00117629
0.009102
0.00114295
0.006919
0.00111875
0.00372184
0.00110926
-1.40024e-05
0.00111019
-0.00345413
0.00111053
-0.00641492
0.00110337
-0.0083255
0.00109144
-0.00958229
0.00108169
-0.00939672
0.00107747
-0.00813282
0.0010804
-0.00554113
0.00108747
-0.00188444
0.00109824
0.00166031
0.00110615
0.00593934
0.00111125
0.00806624
0.00110909
0.0103747
0.00109806
0.00947331
0.00108365
0.0077832
0.00106397
0.0047694
0.00104804
-0.000857895
0.00103299
-0.0028015
0.0010205
-0.00892699
-0.00733231
0.00115435
0.00205383
0.00119953
0.00473028
0.00123149
0.00694222
0.00124377
0.00870135
0.00123627
0.00981187
0.00121275
0.0100715
0.00117948
0.00913526
0.00114517
0.00695332
0.00111966
0.00374735
0.001109
-3.33982e-06
0.00110916
-0.00345429
0.0011091
-0.00641486
0.00110164
-0.00831803
0.00108949
-0.00957014
0.00107981
-0.00938704
0.00107601
-0.00812901
0.00107964
-0.00554476
0.00108744
-0.00189224
0.00109898
0.00164877
0.00110753
0.00593078
0.00111313
0.00806065
0.00111119
0.0103767
0.00110001
0.00948449
0.00108546
0.00779775
0.00106547
0.00478939
0.00104948
-0.000841904
0.00103418
-0.0027862
0.00102143
-0.00891423
-0.0073291
0.00115386
0.00200576
0.00120014
0.00468399
0.00123316
0.0069092
0.00124639
0.00868811
0.00123963
0.00981864
0.00121635
0.0100948
0.0011827
0.00916891
0.00114741
0.00698861
0.0011206
0.00377415
0.00110875
8.50672e-06
0.00110813
-0.00345367
0.00110768
-0.00641441
0.00109992
-0.00831027
0.00108756
-0.00955778
0.00107793
-0.00937742
0.00107454
-0.00812562
0.00107886
-0.00554908
0.0010874
-0.00190077
0.00109972
0.00163645
0.00110893
0.00592157
0.00111503
0.00805455
0.00111332
0.0103784
0.001102
0.0094958
0.00108732
0.00781243
0.00106702
0.00480969
0.00105098
-0.000825863
0.00103545
-0.00277068
0.00102243
-0.00890121
-0.00732608
0.00115324
0.00195651
0.00120063
0.00463659
0.00123472
0.00687511
0.00124895
0.00867388
0.00124294
0.00982465
0.00121994
0.0101178
0.00118593
0.00920292
0.00114968
0.00702486
0.00112157
0.00380226
0.00110853
2.15492e-05
0.00110712
-0.00345226
0.00110627
-0.00641356
0.00109823
-0.00830223
0.00108564
-0.00954519
0.00107606
-0.00936783
0.00107307
-0.00812263
0.00107808
-0.00555409
0.00108735
-0.00191004
0.00110046
0.00162335
0.00111035
0.00591168
0.00111696
0.00804794
0.00111547
0.0103799
0.00110402
0.00950726
0.00108921
0.00782724
0.00106863
0.00483026
0.00105255
-0.000809786
0.00103681
-0.00275494
0.00102352
-0.00888792
-0.00732327
0.00115249
0.00190609
0.001201
0.00458808
0.00123618
0.00683993
0.00125144
0.00865862
0.00124621
0.00982988
0.00122351
0.0101405
0.00118917
0.00923726
0.00115198
0.00706205
0.00112257
0.00383167
0.00110832
3.57995e-05
0.00110612
-0.00345005
0.00110488
-0.00641232
0.00109655
-0.00829391
0.00108375
-0.00953239
0.0010742
-0.00935829
0.0010716
-0.00812003
0.0010773
-0.00555979
0.00108731
-0.00192005
0.00110121
0.00160944
0.00111178
0.00590111
0.0011189
0.00804082
0.00111765
0.0103811
0.00110607
0.00951884
0.00109114
0.00784217
0.00107029
0.00485111
0.00105419
-0.000793687
0.00103826
-0.002739
0.00102469
-0.00887435
-0.00732065
0.00115162
0.00185453
0.00120125
0.00453846
0.00123754
0.00680364
0.00125384
0.00864232
0.00124942
0.00983429
0.00122707
0.0101628
0.00119242
0.00927191
0.00115431
0.00710016
0.0011236
0.00386237
0.00110813
5.12693e-05
0.00110512
-0.00344704
0.00110349
-0.00641069
0.0010949
-0.00828531
0.00108187
-0.00951935
0.00107234
-0.00934876
0.00107012
-0.00811781
0.0010765
-0.00556617
0.00108725
-0.00193081
0.00110196
0.00159474
0.00111321
0.00588986
0.00112085
0.00803318
0.00111985
0.0103821
0.00110815
0.00953054
0.00109311
0.00785722
0.00107201
0.00487221
0.0010559
-0.000777582
0.00103979
-0.00272289
0.00102595
-0.00886051
-0.00731821
0.00115062
0.00180184
0.00120136
0.00448771
0.00123878
0.00676623
0.00125616
0.00862494
0.00125259
0.00983786
0.00123061
0.0101848
0.00119569
0.00930683
0.00115667
0.00713918
0.00112467
0.00389438
0.00110797
6.79698e-05
0.00110413
-0.00344321
0.00110212
-0.00640868
0.00109327
-0.00827647
0.00108001
-0.0095061
0.0010705
-0.00933924
0.00106864
-0.00811595
0.00107569
-0.00557322
0.00108719
-0.00194232
0.00110271
0.00157923
0.00111466
0.00587791
0.00112283
0.00802501
0.00112208
0.0103828
0.00111026
0.00954235
0.00109511
0.00787237
0.00107378
0.00489354
0.00105768
-0.000761484
0.0010414
-0.00270661
0.00102729
-0.0088464
-0.00731594
0.00114947
0.00174805
0.00120134
0.00443584
0.0012399
0.00672767
0.00125838
0.00860646
0.0012557
0.00984055
0.00123412
0.0102064
0.00119896
0.009342
0.00115905
0.00717909
0.00112576
0.00392767
0.00110782
8.5912e-05
0.00110316
-0.00343855
0.00110076
-0.00640628
0.00109166
-0.00826737
0.00107818
-0.00949261
0.00106865
-0.00932972
0.00106715
-0.00811445
0.00107487
-0.00558093
0.00108712
-0.00195458
0.00110346
0.00156289
0.00111612
0.00586525
0.00112482
0.00801631
0.00112433
0.0103833
0.00111241
0.00955427
0.00109716
0.00788762
0.0010756
0.00491511
0.00105952
-0.00074541
0.0010431
-0.00269019
0.00102871
-0.00883201
-0.00731383
0.0011482
0.00169317
0.00120119
0.00438285
0.00124091
0.00668795
0.00126052
0.00858685
0.00125874
0.00984233
0.00123761
0.0102275
0.00120223
0.00937737
0.00116147
0.00721985
0.00112689
0.00396225
0.00110769
0.000105106
0.00110219
-0.00343304
0.00109941
-0.0064035
0.00109007
-0.00825803
0.00107636
-0.0094789
0.00106682
-0.00932018
0.00106565
-0.00811328
0.00107403
-0.00558931
0.00108704
-0.00196759
0.0011042
0.00154573
0.00111758
0.00585188
0.00112682
0.00800707
0.00112659
0.0103836
0.00111458
0.00956629
0.00109924
0.00790296
0.00107747
0.00493688
0.00106143
-0.000729374
0.00104488
-0.00267364
0.00103022
-0.00881734
-0.00731188
0.00114677
0.00163722
0.00120089
0.00432874
0.00124179
0.00664705
0.00126256
0.00856608
0.00126172
0.00984316
0.00124107
0.0102482
0.00120551
0.00941293
0.00116391
0.00726146
0.00112805
0.00399811
0.00110759
0.000125562
0.00110123
-0.00342668
0.00109807
-0.00640034
0.0010885
-0.00824847
0.00107456
-0.00946495
0.00106499
-0.00931061
0.00106415
-0.00811244
0.00107318
-0.00559834
0.00108695
-0.00198136
0.00110494
0.00152774
0.00111904
0.00583778
0.00112883
0.00799729
0.00112888
0.0103835
0.00111678
0.0095784
0.00110136
0.00791837
0.00107939
0.00495885
0.00106341
-0.000713391
0.00104675
-0.00265698
0.0010318
-0.0088024
-0.00731007
0.0011452
0.00158022
0.00120044
0.0042735
0.00124254
0.00660495
0.00126449
0.00854413
0.00126463
0.00984301
0.00124449
0.0102683
0.00120879
0.00944864
0.00116637
0.00730388
0.00112924
0.00403524
0.00110751
0.000147289
0.00110028
-0.00341945
0.00109674
-0.0063968
0.00108695
-0.00823868
0.00107278
-0.00945078
0.00106317
-0.00930099
0.00106263
-0.0081119
0.00107231
-0.00560802
0.00108684
-0.00199589
0.00110567
0.00150891
0.00112051
0.00582294
0.00113085
0.00798695
0.00113119
0.0103832
0.001119
0.00959058
0.00110351
0.00793386
0.00108136
0.004981
0.00106545
-0.000697476
0.0010487
-0.00264024
0.00103348
-0.00878717
-0.0073084
0.00114349
0.0015222
0.00119985
0.00421714
0.00124315
0.00656165
0.00126631
0.00852097
0.00126746
0.00984186
0.00124787
0.0102879
0.00121206
0.00948445
0.00116885
0.00734708
0.00113046
0.00407363
0.00110745
0.000170296
0.00109934
-0.00341134
0.00109541
-0.00639287
0.00108542
-0.00822869
0.00107102
-0.00943638
0.00106135
-0.00929132
0.00106111
-0.00811167
0.00107143
-0.00561834
0.00108672
-0.00201118
0.0011064
0.00148924
0.00112197
0.00580736
0.00113288
0.00797605
0.00113351
0.0103825
0.00112125
0.00960284
0.0011057
0.00794942
0.00108338
0.00500331
0.00106755
-0.000681643
0.00105073
-0.00262342
0.00103523
-0.00877167
-0.00730685
0.00114162
0.00146317
0.0011991
0.00415966
0.00124363
0.00651712
0.00126802
0.00849657
0.00127022
0.00983967
0.00125121
0.0103069
0.00121532
0.00952034
0.00117136
0.00739105
0.00113172
0.00411327
0.00110742
0.000194589
0.00109842
-0.00340234
0.0010941
-0.00638855
0.0010839
-0.00821849
0.00106928
-0.00942176
0.00105954
-0.00928158
0.00105958
-0.00811171
0.00107053
-0.00562929
0.00108658
-0.00202724
0.00110711
0.00146872
0.00112344
0.00579103
0.00113491
0.00796458
0.00113585
0.0103816
0.00112353
0.00961516
0.00110792
0.00796503
0.00108545
0.00502578
0.00106972
-0.000665908
0.00105285
-0.00260655
0.00103707
-0.00875589
-0.00730541
0.0011396
0.00140317
0.0011982
0.00410106
0.00124396
0.00647135
0.00126962
0.00847092
0.00127288
0.0098364
0.0012545
0.0103253
0.00121858
0.00955626
0.00117388
0.00743575
0.001133
0.00415415
0.00110741
0.000220176
0.0010975
-0.00339242
0.00109279
-0.00638385
0.00108241
-0.00820811
0.00106756
-0.00940691
0.00105773
-0.00927176
0.00105804
-0.00811201
0.00106961
-0.00564086
0.00108643
-0.00204406
0.00110781
0.00144734
0.0011249
0.00577394
0.00113695
0.00795253
0.00113821
0.0103803
0.00112584
0.00962754
0.00111018
0.00798069
0.00108757
0.00504839
0.00107195
-0.000650285
0.00105505
-0.00258965
0.00103899
-0.00873983
-0.00730408
0.00113742
0.00134221
0.00119713
0.00404135
0.00124415
0.00642434
0.00127109
0.00844398
0.00127546
0.00983203
0.00125774
0.010343
0.00122182
0.00959218
0.00117642
0.00748114
0.00113432
0.00419625
0.00110743
0.000247063
0.00109659
-0.00338158
0.00109149
-0.00637875
0.00108092
-0.00819754
0.00106585
-0.00939184
0.00105593
-0.00926183
0.00105648
-0.00811256
0.00106867
-0.00565305
0.00108625
-0.00206164
0.00110849
0.0014251
0.00112636
0.00575607
0.00113899
0.00793989
0.00114058
0.0103787
0.00112816
0.00963995
0.00111246
0.00799639
0.00108973
0.00507112
0.00107424
-0.000634789
0.00105733
-0.00257275
0.001041
-0.0087235
-0.00730283
0.00113508
0.00128032
0.0011959
0.00398052
0.00124418
0.00637605
0.00127243
0.00841573
0.00127794
0.00982652
0.00126092
0.01036
0.00122504
0.00962806
0.00117898
0.00752721
0.00113567
0.00423956
0.00110748
0.000275254
0.00109569
-0.0033698
0.0010902
-0.00637325
0.00107945
-0.0081868
0.00106417
-0.00937656
0.00105414
-0.0092518
0.00105492
-0.00811334
0.00106771
-0.00566584
0.00108606
-0.00207999
0.00110916
0.00140199
0.00112781
0.00573742
0.00114104
0.00792667
0.00114296
0.0103768
0.00113051
0.0096524
0.00111478
0.00801212
0.00109194
0.00509396
0.00107659
-0.000619434
0.00105969
-0.00255585
0.00104308
-0.00870689
-0.00730167
0.00113258
0.00121752
0.00119451
0.0039186
0.00124406
0.0063265
0.00127364
0.00838615
0.00128032
0.00981983
0.00126404
0.0103763
0.00122824
0.00966386
0.00118154
0.00757391
0.00113704
0.00428406
0.00110754
0.000304754
0.00109481
-0.00335706
0.00108891
-0.00636735
0.001078
-0.00817589
0.0010625
-0.00936105
0.00105235
-0.00924165
0.00105334
-0.00811433
0.00106673
-0.00567923
0.00108584
-0.0020991
0.00110981
0.00137802
0.00112925
0.00571798
0.00114308
0.00791284
0.00114536
0.0103745
0.00113289
0.00966487
0.00111713
0.00802788
0.0010942
0.00511689
0.001079
-0.000604235
0.00106214
-0.00253899
0.00104526
-0.00869
-0.00730058
0.00112992
0.00115385
0.00119294
0.00385557
0.00124378
0.00627566
0.00127471
0.00835523
0.0012826
0.00981195
0.00126709
0.0103918
0.00123141
0.00969953
0.00118411
0.00762121
0.00113845
0.00432973
0.00110764
0.000335564
0.00109393
-0.00334335
0.00108762
-0.00636104
0.00107656
-0.00816483
0.00106085
-0.00934534
0.00105056
-0.00923136
0.00105175
-0.00811552
0.00106572
-0.0056932
0.0010856
-0.00211898
0.00111044
0.00135317
0.00113069
0.00569774
0.00114513
0.00789839
0.00114776
0.0103719
0.00113528
0.00967735
0.00111951
0.00804365
0.0010965
0.0051399
0.00108147
-0.000589206
0.00106466
-0.00252219
0.00104751
-0.00867285
-0.00729954
0.00112709
0.00108933
0.0011912
0.00379147
0.00124334
0.00622352
0.00127564
0.00832292
0.00128476
0.00980283
0.00127007
0.0104065
0.00123456
0.00973504
0.00118669
0.00766907
0.00113988
0.00437655
0.00110775
0.000367686
0.00109306
-0.00332866
0.00108634
-0.00635431
0.00107513
-0.00815362
0.00105921
-0.00932943
0.00104878
-0.00922093
0.00105014
-0.00811688
0.00106469
-0.00570775
0.00108533
-0.00213962
0.00111105
0.00132745
0.00113211
0.00567669
0.00114717
0.00788333
0.00115018
0.0103689
0.0011377
0.00968982
0.00112192
0.00805943
0.00109884
0.00516298
0.00108399
-0.00057436
0.00106727
-0.00250546
0.00104985
-0.00865543
-0.00729855
0.0011241
0.00102398
0.00118929
0.00372628
0.00124272
0.00617009
0.00127642
0.00828922
0.0012868
0.00979245
0.00127297
0.0104203
0.00123766
0.00977035
0.00118927
0.00771746
0.00114133
0.00442449
0.0011079
0.00040112
0.00109221
-0.00331298
0.00108505
-0.00634716
0.00107371
-0.00814227
0.00105759
-0.00931331
0.001047
-0.00921034
0.00104852
-0.0081184
0.00106364
-0.00572287
0.00108504
-0.00216102
0.00111164
0.00130085
0.00113351
0.00565482
0.00114921
0.00786764
0.0011526
0.0103655
0.00114014
0.00970229
0.00112436
0.00807522
0.00110122
0.00518612
0.00108657
-0.000559712
0.00106995
-0.00248884
0.00105227
-0.00863774
-0.00729759
0.00112095
0.000957845
0.0011872
0.00366004
0.00124193
0.00611535
0.00127705
0.00825411
0.00128873
0.00978077
0.00127579
0.0104333
0.00124073
0.0098054
0.00119186
0.00776634
0.00114281
0.00447353
0.00110807
0.000435865
0.00109136
-0.00329627
0.00108377
-0.00633957
0.00107229
-0.00813079
0.00105599
-0.00929701
0.00104523
-0.00919958
0.00104689
-0.00812006
0.00106256
-0.00573854
0.00108472
-0.00218318
0.00111221
0.00127336
0.0011349
0.00563212
0.00115124
0.0078513
0.00115503
0.0103617
0.0011426
0.00971472
0.00112682
0.00809099
0.00110365
0.00520929
0.00108921
-0.000545274
0.00107271
-0.00247234
0.00105477
-0.0086198
-0.00729665
0.00111763
0.000890941
0.00118493
0.00359274
0.00124097
0.0060593
0.00127752
0.00821757
0.00129052
0.00976776
0.00127852
0.0104453
0.00124376
0.00984016
0.00119443
0.00781566
0.00114431
0.00452365
0.00110826
0.000471919
0.00109053
-0.00327854
0.00108249
-0.00633154
0.00107089
-0.00811919
0.0010544
-0.00928051
0.00104346
-0.00918864
0.00104524
-0.00812184
0.00106145
-0.00575476
0.00108438
-0.00220611
0.00111274
0.001245
0.00113628
0.00560859
0.00115326
0.00783432
0.00115747
0.0103575
0.00114507
0.00972712
0.00112931
0.00810675
0.00110612
0.00523249
0.0010919
-0.000531061
0.00107555
-0.00245599
0.00105735
-0.00860159
-0.00729573
0.00111415
0.000823299
0.00118248
0.00352442
0.00123983
0.00600195
0.00127783
0.00817957
0.00129219
0.0097534
0.00128115
0.0104563
0.00124673
0.00987458
0.001197
0.00786539
0.00114583
0.00457482
0.00110847
0.000509277
0.0010897
-0.00325977
0.00108121
-0.00632306
0.00106949
-0.00810747
0.00105282
-0.00926385
0.00104169
-0.00917751
0.00104357
-0.00812371
0.00106032
-0.00577151
0.001084
-0.00222979
0.00111326
0.00121575
0.00113763
0.00558421
0.00115528
0.00781667
0.00115991
0.0103529
0.00114757
0.00973946
0.00113183
0.00812248
0.00110862
0.00525569
0.00109465
-0.000517084
0.00107847
-0.00243981
0.00106001
-0.00858314
-0.0072948
0.00111051
0.000754946
0.00117985
0.00345508
0.00123851
0.00594329
0.00127797
0.00814012
0.00129371
0.00973766
0.00128369
0.0104663
0.00124965
0.00990862
0.00119956
0.00791549
0.00114737
0.00462701
0.00110871
0.000547936
0.00108888
-0.00323994
0.00107993
-0.00631411
0.0010681
-0.00809563
0.00105126
-0.00924701
0.00103993
-0.00916618
0.00104189
-0.00812566
0.00105916
-0.00578878
0.0010836
-0.00225424
0.00111374
0.00118561
0.00113897
0.00555899
0.00115728
0.00779836
0.00116235
0.0103478
0.00115008
0.00975174
0.00113437
0.00813818
0.00111117
0.0052789
0.00109744
-0.000503357
0.00108146
-0.00242383
0.00106276
-0.00856443
-0.00729387
0.00110671
0.000685904
0.00117704
0.00338475
0.00123701
0.00588332
0.00127794
0.00809918
0.00129509
0.00972051
0.00128612
0.0104753
0.00125251
0.00994223
0.0012021
0.0079659
0.00114893
0.00468018
0.00110897
0.000587887
0.00108807
-0.00321903
0.00107865
-0.00630468
0.00106671
-0.0080837
0.00104972
-0.00923002
0.00103818
-0.00915464
0.00104019
-0.00812767
0.00105796
-0.00580656
0.00108317
-0.00227944
0.00111419
0.00115458
0.00114028
0.0055329
0.00115928
0.00777936
0.0011648
0.0103423
0.0011526
0.00976393
0.00113694
0.00815384
0.00111375
0.00530209
0.00110029
-0.000489891
0.00108452
-0.00240806
0.00106558
-0.00854549
-0.0072929
0.00110276
0.000616197
0.00117405
0.00331346
0.00123532
0.00582206
0.00127774
0.00805676
0.00129633
0.00970192
0.00128845
0.0104832
0.00125531
0.00997537
0.00120462
0.00801659
0.0011505
0.00473431
0.00110926
0.000629124
0.00108727
-0.00319704
0.00107736
-0.00629477
0.00106532
-0.00807166
0.00104818
-0.00921287
0.00103643
-0.00914289
0.00103847
-0.00812972
0.00105674
-0.00582483
0.0010827
-0.0023054
0.00111462
0.00112266
0.00114157
0.00550594
0.00116126
0.00775968
0.00116725
0.0103363
0.00115515
0.00977603
0.00113954
0.00816946
0.00111638
0.00532525
0.00110318
-0.000476699
0.00108766
-0.00239254
0.00106848
-0.00852631
-0.0072919
0.00109865
0.00054584
0.0011709
0.00324121
0.00123345
0.0057595
0.00127736
0.00801285
0.00129741
0.00968187
0.00129066
0.0104899
0.00125804
0.010008
0.00120713
0.0080675
0.00115208
0.00478936
0.00110957
0.000671638
0.00108648
-0.00317396
0.00107607
-0.00628436
0.00106394
-0.00805953
0.00104666
-0.00919559
0.00103468
-0.00913091
0.00103674
-0.00813177
0.00105549
-0.00584358
0.00108221
-0.00233212
0.00111501
0.00108986
0.00114284
0.00547811
0.00116323
0.00773929
0.0011697
0.0103298
0.00115771
0.00978803
0.00114215
0.00818501
0.00111903
0.00534837
0.00110613
-0.000463791
0.00109087
-0.00237729
0.00107147
-0.00850691
-0.00729085
0.00109439
0.000474848
0.00116757
0.00316803
0.00123139
0.00569568
0.00127681
0.00796743
0.00129834
0.00966034
0.00129275
0.0104955
0.0012607
0.01004
0.0012096
0.00811859
0.00115367
0.00484529
0.00110989
0.000715419
0.00108569
-0.00314976
0.00107477
-0.00627343
0.00106255
-0.00804732
0.00104514
-0.00917818
0.00103293
-0.0091187
0.00103498
-0.00813382
0.0010542
-0.0058628
0.00108168
-0.0023596
0.00111538
0.00105616
0.00114409
0.00544941
0.00116518
0.0077182
0.00117214
0.0103228
0.00116028
0.00979989
0.00114479
0.00820049
0.00112173
0.00537143
0.00110912
-0.000451178
0.00109415
-0.00236232
0.00107453
-0.00848728
-0.00728974
0.00108999
0.000403227
0.00116408
0.00309395
0.00122916
0.00563059
0.00127608
0.00792051
0.00129911
0.0096373
0.00129472
0.0104999
0.00126328
0.0100715
0.00121206
0.00816982
0.00115528
0.00490206
0.00111024
0.000760458
0.00108492
-0.00312444
0.00107346
-0.00626198
0.00106116
-0.00803501
0.00104364
-0.00916066
0.00103119
-0.00910626
0.00103322
-0.00813585
0.00105288
-0.00588247
0.00108111
-0.00238783
0.00111571
0.00102156
0.00114531
0.00541981
0.00116712
0.00769639
0.00117459
0.0103154
0.00116286
0.00981162
0.00114745
0.00821591
0.00112446
0.00539442
0.00111215
-0.000438871
0.0010975
-0.00234768
0.00107767
-0.00846744
-0.00728856
0.00108545
0.000330976
0.00116043
0.00301897
0.00122676
0.00556427
0.00127517
0.0078721
0.00129972
0.00961275
0.00129657
0.0105031
0.00126578
0.0101023
0.00121448
0.00822112
0.00115689
0.00495965
0.0011106
0.000806743
0.00108415
-0.00309798
0.00107215
-0.00624998
0.00105977
-0.00802263
0.00104214
-0.00914302
0.00102946
-0.00909358
0.00103143
-0.00813782
0.00105153
-0.00590257
0.00108052
-0.00241681
0.00111602
0.000986058
0.00114651
0.00538932