/*--------------------------------*- C++ -*----------------------------------*\
  =========                 |
  \\      /  F ield         | OpenFOAM: The Open Source CFD Toolbox
   \\    /   O peration     | Website:  https://openfoam.org
    \\  /    A nd           | Version:  7
     \\/     M anipulation  |
\*---------------------------------------------------------------------------*/
FoamFile
{
    version     2.0;
    format      ascii;
    class       volScalarField;
    location    "20";
    object      p;
}
// * * * * * * * * * * * * * * * * * * * * * * * * * * * * * * * * * * * * * //

dimensions      [0 2 -2 0 0 0 0];

internalField   nonuniform List<scalar> 
4575
(
0.00930272
0.00827719
0.00735529
0.00652146
0.00576711
0.00509039
0.00449406
0.00397398
0.00351948
0.00311221
0.00273782
0.0023863
0.00205841
0.00175595
0.00148723
0.00124963
0.00104945
0.000866173
0.000713484
0.000544963
0.00041773
0.000224303
0.000148421
0.009302
0.00827657
0.00735476
0.00652099
0.00576667
0.00508997
0.00449366
0.00397363
0.00351918
0.00311198
0.00273765
0.00238617
0.0020583
0.00175585
0.00148713
0.00124954
0.00104936
0.000866094
0.000713414
0.000544917
0.000417678
0.000224295
0.000148328
0.00930057
0.00827531
0.00735368
0.00652005
0.00576581
0.00508915
0.00449288
0.00397292
0.00351859
0.00311152
0.00273731
0.00238591
0.00205809
0.00175565
0.00148693
0.00124934
0.00104917
0.000865938
0.000713273
0.000544824
0.000417574
0.00022428
0.000148142
0.00929843
0.00827343
0.00735206
0.00651865
0.00576452
0.00508792
0.00449171
0.00397187
0.00351771
0.00311084
0.0027368
0.00238553
0.00205776
0.00175535
0.00148663
0.00124905
0.0010489
0.000865703
0.000713063
0.000544684
0.000417418
0.000224256
0.000147864
0.00929557
0.00827093
0.00734992
0.00651678
0.00576281
0.00508628
0.00449015
0.00397047
0.00351655
0.00310994
0.00273613
0.00238501
0.00205733
0.00175495
0.00148623
0.00124867
0.00104853
0.000865392
0.000712784
0.000544499
0.00041721
0.000224225
0.000147494
0.009292
0.00826781
0.00734723
0.00651444
0.00576068
0.00508425
0.00448822
0.00396872
0.00351509
0.0031088
0.00273528
0.00238436
0.00205678
0.00175444
0.00148573
0.00124819
0.00104807
0.000865005
0.000712437
0.000544269
0.000416951
0.000224187
0.000147033
0.00928773
0.00826407
0.00734402
0.00651164
0.00575812
0.00508181
0.00448591
0.00396664
0.00351334
0.00310744
0.00273426
0.00238358
0.00205613
0.00175384
0.00148513
0.00124762
0.00104753
0.000864545
0.000712024
0.000543994
0.000416641
0.000224141
0.000146483
0.00928276
0.00825971
0.00734028
0.00650839
0.00575516
0.00507899
0.00448322
0.00396421
0.00351131
0.00310586
0.00273307
0.00238267
0.00205537
0.00175314
0.00148444
0.00124696
0.0010469
0.000864014
0.000711545
0.000543676
0.000416281
0.000224088
0.000145844
0.0092771
0.00825475
0.00733601
0.00650468
0.00575178
0.00507578
0.00448018
0.00396146
0.00350899
0.00310404
0.0027317
0.00238162
0.00205449
0.00175234
0.00148366
0.00124621
0.00104619
0.000863413
0.000711003
0.000543316
0.000415872
0.000224028
0.000145118
0.00927074
0.00824918
0.00733123
0.00650052
0.005748
0.00507219
0.00447677
0.00395838
0.00350639
0.003102
0.00273016
0.00238044
0.0020535
0.00175144
0.00148279
0.00124538
0.0010454
0.000862745
0.000710399
0.000542914
0.000415415
0.00022396
0.000144307
0.00926371
0.00824302
0.00732592
0.00649591
0.00574382
0.00506823
0.00447302
0.00395497
0.00350352
0.00309973
0.00272843
0.00237911
0.0020524
0.00175045
0.00148183
0.00124447
0.00104453
0.000862013
0.000709736
0.000542472
0.000414911
0.000223886
0.000143413
0.009256
0.00823626
0.00732011
0.00649086
0.00573924
0.00506391
0.00446892
0.00395125
0.00350037
0.00309723
0.00272653
0.00237764
0.00205118
0.00174935
0.00148078
0.00124348
0.0010436
0.00086122
0.000709015
0.000541992
0.00041436
0.000223806
0.000142438
0.00924762
0.00822892
0.00731378
0.00648538
0.00573428
0.00505923
0.00446449
0.00394723
0.00349694
0.00309451
0.00272444
0.00237603
0.00204985
0.00174817
0.00147964
0.00124242
0.00104259
0.000860368
0.00070824
0.000541475
0.000413764
0.000223719
0.000141384
0.0092386
0.008221
0.00730696
0.00647946
0.00572894
0.00505421
0.00445973
0.0039429
0.00349325
0.00309155
0.00272216
0.00237427
0.0020484
0.00174688
0.00147843
0.00124128
0.00104152
0.000859462
0.000707412
0.000540922
0.000413123
0.000223626
0.000140254
0.00922893
0.00821251
0.00729964
0.00647311
0.00572323
0.00504885
0.00445466
0.00393828
0.00348929
0.00308837
0.0027197
0.00237235
0.00204683
0.0017455
0.00147713
0.00124008
0.00104039
0.000858503
0.000706534
0.000540335
0.00041244
0.000223527
0.00013905
0.00921862
0.00820346
0.00729183
0.00646635
0.00571716
0.00504316
0.00444929
0.00393337
0.00348507
0.00308495
0.00271704
0.00237028
0.00204513
0.00174402
0.00147576
0.00123881
0.0010392
0.000857496
0.000705608
0.000539715
0.000411716
0.000223423
0.000137776
0.0092077
0.00819386
0.00728354
0.00645917
0.00571072
0.00503715
0.00444362
0.00392819
0.00348059
0.00308131
0.00271419
0.00236806
0.00204331
0.00174245
0.00147431
0.00123749
0.00103795
0.000856445
0.000704638
0.000539065
0.000410951
0.000223313
0.000136433
0.00919616
0.00818373
0.00727478
0.00645158
0.00570394
0.00503083
0.00443766
0.00392273
0.00347585
0.00307744
0.00271114
0.00236567
0.00204137
0.00174078
0.00147278
0.0012361
0.00103666
0.000855351
0.000703626
0.000538386
0.000410147
0.000223198
0.000135026
0.00918403
0.00817307
0.00726555
0.00644358
0.00569681
0.00502422
0.00443143
0.00391701
0.00347087
0.00307334
0.00270789
0.00236311
0.00203929
0.00173901
0.00147119
0.00123466
0.00103532
0.000854219
0.000702575
0.000537679
0.000409306
0.000223078
0.000133557
0.00917132
0.00816189
0.00725586
0.0064352
0.00568934
0.00501731
0.00442494
0.00391104
0.00346564
0.003069
0.00270443
0.00236039
0.00203709
0.00173715
0.00146953
0.00123318
0.00103394
0.000853053
0.000701487
0.000536947
0.000408428
0.000222953
0.00013203
0.00915805
0.00815021
0.00724573
0.00642643
0.00568155
0.00501012
0.00441819
0.00390483
0.00346018
0.00306445
0.00270078
0.0023575
0.00203475
0.00173519
0.0014678
0.00123164
0.00103252
0.000851854
0.000700365
0.000536191
0.000407517
0.000222823
0.000130448
0.00914422
0.00813804
0.00723516
0.00641727
0.00567344
0.00500267
0.0044112
0.00389838
0.00345447
0.00305966
0.00269691
0.00235443
0.00203227
0.00173314
0.001466
0.00123006
0.00103106
0.000850627
0.000699211
0.000535412
0.000406572
0.000222689
0.000128815
0.00912986
0.00812539
0.00722416
0.00640775
0.00566502
0.00499495
0.00440397
0.0038917
0.00344854
0.00305464
0.00269283
0.00235118
0.00202965
0.00173098
0.00146413
0.00122843
0.00102957
0.000849374
0.000698028
0.000534613
0.000405595
0.000222551
0.000127134
0.00911499
0.00811228
0.00721275
0.00639786
0.00565629
0.00498698
0.00439652
0.0038848
0.00344239
0.0030494
0.00268854
0.00234775
0.0020269
0.00172873
0.0014622
0.00122677
0.00102805
0.000848098
0.000696819
0.000533794
0.000404588
0.000222408
0.000125409
0.00909961
0.00809873
0.00720093
0.00638761
0.00564727
0.00497876
0.00438886
0.0038777
0.00343601
0.00304394
0.00268404
0.00234413
0.00202399
0.00172637
0.00146021
0.00122507
0.00102651
0.000846801
0.000695584
0.000532957
0.000403552
0.000222261
0.000123644
0.00908376
0.00808475
0.00718872
0.00637702
0.00563795
0.00497031
0.00438099
0.00387039
0.00342942
0.00303825
0.00267932
0.00234032
0.00202094
0.00172391
0.00145816
0.00122333
0.00102494
0.000845486
0.000694328
0.000532104
0.000402488
0.00022211
0.000121843
0.00906744
0.00807035
0.00717614
0.00636609
0.00562836
0.00496163
0.00437292
0.00386289
0.00342263
0.00303235
0.00267438
0.00233632
0.00201774
0.00172135
0.00145604
0.00122155
0.00102335
0.000844156
0.00069305
0.000531236
0.000401399
0.000221956
0.000120009
0.00905068
0.00805556
0.00716318
0.00635484
0.00561849
0.00495273
0.00436467
0.00385521
0.00341564
0.00302622
0.00266923
0.00233213
0.00201439
0.00171868
0.00145385
0.00121975
0.00102174
0.000842811
0.000691755
0.000530354
0.000400284
0.000221797
0.000118146
0.00903349
0.00804038
0.00714987
0.00634327
0.00560836
0.00494362
0.00435624
0.00384735
0.00340845
0.00301989
0.00266386
0.00232775
0.00201088
0.00171591
0.0014516
0.0012179
0.00102011
0.000841454
0.000690442
0.000529459
0.000399147
0.000221634
0.000116258
0.0090159
0.00802485
0.00713623
0.00633139
0.00559796
0.00493431
0.00434765
0.00383933
0.00340107
0.00301334
0.00265827
0.00232316
0.00200721
0.00171303
0.00144929
0.00121603
0.00101847
0.000840086
0.000689113
0.000528552
0.000397987
0.000221467
0.00011435
0.00899792
0.00800897
0.00712226
0.00631921
0.00558732
0.0049248
0.00433889
0.00383114
0.00339351
0.00300658
0.00265247
0.00231838
0.00200338
0.00171003
0.00144691
0.00121412
0.0010168
0.000838709
0.00068777
0.000527634
0.000396805
0.000221296
0.000112424
0.00897958
0.00799277
0.00710799
0.00630675
0.00557644
0.0049151
0.00432997
0.00382281
0.00338578
0.00299963
0.00264646
0.0023134
0.00199939
0.00170692
0.00144447
0.00121218
0.00101513
0.000837322
0.000686414
0.000526706
0.000395604
0.000221121
0.000110485
0.00896091
0.00797627
0.00709342
0.00629401
0.00556532
0.00490522
0.00432092
0.00381433
0.00337788
0.00299247
0.00264023
0.00230821
0.00199524
0.0017037
0.00144196
0.00121021
0.00101343
0.000835928
0.000685046
0.000525769
0.000394384
0.000220941
0.000108536
0.00894191
0.00795948
0.00707858
0.00628102
0.00555399
0.00489517
0.00431172
0.00380572
0.00336982
0.00298513
0.00263379
0.00230283
0.00199093
0.00170036
0.00143937
0.0012082
0.00101172
0.000834527
0.000683666
0.000524823
0.000393147
0.000220757
0.000106581
0.00892261
0.00794241
0.00706348
0.00626778
0.00554243
0.00488494
0.00430239
0.00379698
0.00336161
0.00297759
0.00262715
0.00229725
0.00198644
0.00169691
0.00143672
0.00120616
0.00101
0.000833117
0.000682275
0.000523868
0.000391892
0.000220569
0.000104625
0.00890292
0.00792502
0.00704806
0.00625424
0.00553062
0.00487451
0.0042929
0.0037881
0.00335324
0.00296987
0.0026203
0.00229147
0.0019818
0.00169333
0.00143399
0.00120408
0.00100825
0.000831695
0.000680871
0.000522905
0.000390621
0.000220376
0.000102669
0.00888296
0.00790738
0.0070324
0.00624046
0.00551859
0.00486392
0.00428328
0.00377909
0.00334471
0.00296196
0.00261322
0.00228547
0.00197695
0.00168961
0.00143117
0.00120195
0.00100648
0.000830265
0.000679456
0.000521931
0.000389334
0.000220176
0.000100719
0.00886362
0.00789025
0.00701712
0.00622693
0.00550675
0.00485351
0.00427386
0.00377023
0.00333623
0.00295395
0.00260596
0.00227925
0.00197193
0.00168578
0.00142832
0.00119984
0.00100475
0.000828866
0.000678059
0.000520959
0.000388039
0.000219967
9.87771e-05
0.00884551
0.00787417
0.0070027
0.0062141
0.00549551
0.00484366
0.00426492
0.00376175
0.00332799
0.00294606
0.00259874
0.00227304
0.00196693
0.00168201
0.00142555
0.00119782
0.00100311
0.000827535
0.000676704
0.000520013
0.000386752
0.000219765
9.68494e-05
0.00882174
0.00785331
0.00698441
0.00619829
0.00548189
0.00483169
0.00425403
0.00375163
0.00331865
0.00293774
0.00259163
0.00226722
0.00196228
0.00167838
0.00142266
0.00119552
0.00100113
0.00082596
0.000675167
0.000519035
0.00038542
0.000219618
9.49389e-05
0.00875055
0.00779116
0.0069313
0.00615356
0.00544348
0.00479722
0.00422225
0.00372296
0.00329428
0.00291846
0.00257704
0.00225609
0.0019531
0.00167022
0.00141498
0.00118865
0.000994928
0.000821212
0.00067096
0.000516711
0.000382426
0.000219465
9.1001e-05
0.00859797
0.00765911
0.00681643
0.0060537
0.00535727
0.00472325
0.00415847
0.00366702
0.00324419
0.0028732
0.00253657
0.00222105
0.00192413
0.00164752
0.00139784
0.00117604
0.000985162
0.000813796
0.000664236
0.000512097
0.000377001
0.000218117
8.48222e-05
0.00843135
0.00751472
0.00669052
0.00594402
0.00526262
0.00464229
0.00408891
0.00360595
0.0031891
0.0028229
0.0024912
0.00218163
0.00189155
0.00162212
0.00137883
0.00116224
0.000974661
0.000805831
0.000657075
0.000507057
0.000371293
0.00021644
7.88173e-05
0.00825636
0.00736298
0.00655819
0.00582871
0.00516299
0.00455692
0.00401545
0.00354146
0.00313097
0.00276984
0.00244327
0.00213982
0.0018568
0.00159486
0.00135831
0.00114729
0.000963313
0.000797293
0.000649509
0.000501772
0.000365422
0.000214609
7.3066e-05
0.00807156
0.00720272
0.00641836
0.00570668
0.00505732
0.00446629
0.00393754
0.00347318
0.00306944
0.0027135
0.00239207
0.00209481
0.00181913
0.00156513
0.00133588
0.00113097
0.000951022
0.000788121
0.000641499
0.000496167
0.000359343
0.000212563
6.75794e-05
0.00787636
0.00703338
0.00627049
0.00557741
0.00494518
0.00437002
0.00385486
0.00340083
0.00300422
0.00265358
0.00233728
0.00204632
0.00177829
0.00153273
0.00131137
0.00111313
0.000937666
0.000778204
0.00063296
0.000490156
0.000353028
0.000210256
6.23905e-05
0.00767098
0.00685509
0.0061147
0.00544104
0.00482669
0.00426817
0.0037674
0.00332436
0.0029353
0.00259014
0.00227905
0.00199451
0.00173438
0.00149768
0.00128472
0.00109366
0.000923116
0.000767418
0.00062381
0.000483677
0.000346465
0.000207673
5.7535e-05
0.00745566
0.00666805
0.00595117
0.00529777
0.004702
0.00416083
0.00367514
0.00324375
0.00286273
0.00252331
0.00221757
0.00193955
0.00168752
0.00146
0.00125587
0.00107243
0.000907241
0.000755647
0.000613967
0.000476672
0.000339642
0.000204799
5.3037e-05
0.00723059
0.00647238
0.00578002
0.00514771
0.00457121
0.00404802
0.00357808
0.00315897
0.0027865
0.00245318
0.00215297
0.00188161
0.00163785
0.00141976
0.00122478
0.00104937
0.000889928
0.000742782
0.000603352
0.000469078
0.00033254
0.000201619
4.89087e-05
0.00699591
0.00626815
0.00560131
0.00499093
0.00443439
0.00392979
0.0034762
0.00306999
0.00270662
0.0023798
0.00208539
0.00182085
0.0015855
0.00137701
0.00119145
0.00102439
0.000871077
0.000728721
0.000591891
0.000460836
0.000325137
0.000198115
4.51519e-05
0.00675177
0.00605547
0.00541509
0.0048275
0.00429161
0.00380618
0.0033695
0.00297677
0.00262307
0.00230324
0.00201496
0.00175744
0.0015306
0.00133185
0.0011559
0.000997459
0.00085061
0.000713374
0.000579507
0.000451887
0.00031741
0.000194275
4.17594e-05
0.0064983
0.0058344
0.00522144
0.00465748
0.00414294
0.00367724
0.00325797
0.00287927
0.00253583
0.00222352
0.00194178
0.00169152
0.00147332
0.00128438
0.00111816
0.000968542
0.000828465
0.000696667
0.000566141
0.000442179
0.000309334
0.000190087
3.87155e-05
0.00623563
0.00560503
0.00502039
0.00448092
0.00398843
0.00354298
0.00314161
0.00277747
0.0024449
0.00214069
0.00186594
0.00162324
0.0014138
0.00123471
0.0010783
0.000937641
0.000804605
0.000678541
0.00055174
0.00043167
0.000300884
0.000185544
3.59972e-05
0.00596387
0.00536741
0.00481198
0.00429785
0.00382809
0.00340343
0.00302043
0.00267136
0.00235024
0.00205475
0.00178752
0.00155269
0.00135217
0.00118295
0.00103637
0.000904774
0.000779011
0.000658958
0.000536264
0.000420322
0.000292038
0.000180638
3.35759e-05
0.00568315
0.00512163
0.00459625
0.00410829
0.00366198
0.00325863
0.00289442
0.00256091
0.00225186
0.00196573
0.00170657
0.00148
0.00128854
0.00112921
0.000992446
0.000869974
0.000751682
0.000637892
0.000519683
0.000408108
0.000282775
0.000175367
3.14196e-05
0.0053936
0.00486777
0.00437327
0.00391228
0.0034901
0.00310858
0.0027636
0.00244613
0.00214973
0.00187362
0.00162313
0.00140522
0.00122302
0.0010736
0.000946618
0.000833288
0.000722635
0.000615336
0.000501978
0.000395009
0.000273076
0.000169731
2.94918e-05
0.00509536
0.00460594
0.00414308
0.00370986
0.0033125
0.00295332
0.00262798
0.00232702
0.00204386
0.00177843
0.00153723
0.00132842
0.0011557
0.00101619
0.000898962
0.000794771
0.000691897
0.000591296
0.000483143
0.000381015
0.000262924
0.000163733
2.77563e-05
0.00478861
0.00433625
0.00390577
0.00350108
0.00312919
0.00279287
0.00248758
0.00220358
0.00193425
0.00168018
0.0014489
0.00124965
0.00108664
0.000957081
0.000849558
0.000754486
0.00065951
0.00056579
0.00046318
0.000366122
0.000252306
0.000157376
2.61768e-05
0.00447353
0.00405884
0.00366143
0.00328599
0.00294022
0.00262725
0.00234244
0.00207585
0.00182092
0.00157888
0.00135816
0.00116896
0.0010159
0.000896342
0.000798485
0.000712501
0.000625521
0.000538847
0.000442097
0.000350335
0.000241212
0.000150668
2.47176e-05
0.00415034
0.00377389
0.0034102
0.00306469
0.00274566
0.00245653
0.00219259
0.00194385
0.00170388
0.00147454
0.00126505
0.00108638
0.000943546
0.000834044
0.00074582
0.000668887
0.000589988
0.000510504
0.000419911
0.000333664
0.000229632
0.000143616
2.33446e-05
0.00381931
0.00348159
0.00315221
0.00283727
0.00254557
0.00228075
0.00203808
0.00180762
0.00158319
0.0013672
0.00116958
0.00100194
0.000869621
0.000770252
0.000691636
0.000623717
0.000552969
0.000480803
0.000396647
0.000316124
0.000217562
0.000136229
2.2026e-05
0.00348072
0.00318217
0.00288764
0.00260387
0.00234004
0.00209999
0.00187898
0.00166724
0.00145888
0.0012569
0.00107178
0.000915688
0.000794173
0.000705026
0.000636007
0.000577065
0.000514529
0.000449795
0.00037233
0.000297734
0.000204998
0.000128516
2.07325e-05
0.0031349
0.00287589
0.0026167
0.00236464
0.00212921
0.00191433
0.00171536
0.00152276
0.00133103
0.00114369
0.000971712
0.000827656
0.000717247
0.000638425
0.000579001
0.000529003
0.000474732
0.000417531
0.000346993
0.00027852
0.000191942
0.000120488
1.94378e-05
0.00278222
0.00256305
0.00233962
0.00211977
0.00191319
0.0017239
0.00154733
0.00137428
0.0011997
0.00102763
0.000869408
0.000737885
0.000638888
0.000570505
0.000520687
0.000479607
0.000433647
0.000384067
0.000320672
0.000258506
0.000178395
0.000112155
1.81184e-05
0.00242307
0.00224398
0.00205668
0.00186945
0.00169216
0.00152882
0.00137499
0.0012219
0.00106499
0.000908789
0.00076493
0.000646421
0.000559141
0.000501321
0.00046113
0.000428948
0.000391341
0.000349462
0.000293404
0.000237724
0.000164363
0.000103528
1.67537e-05
0.00205791
0.00191905
0.00176817
0.00161394
0.00146629
0.00132923
0.00119848
0.00106575
0.000927007
0.000787261
0.000658342
0.000553314
0.000478053
0.000430926
0.000400396
0.000377098
0.000347882
0.000313776
0.000265231
0.000216205
0.000149853
9.46182e-05
1.53261e-05
0.00168721
0.00158867
0.00147443
0.0013535
0.00123581
0.00112533
0.00101796
0.000905952
0.000785872
0.000663145
0.000549721
0.000458621
0.000395672
0.000359375
0.000338547
0.000324128
0.000303339
0.000277071
0.000236196
0.000193984
0.000134877
8.54373e-05
1.38211e-05
0.0013115
0.00125327
0.00117582
0.00108844
0.00100096
0.000917299
0.00083359
0.000742677
0.000641724
0.000536552
0.000439149
0.000362403
0.000312051
0.00028672
0.000275645
0.000270109
0.000257781
0.000239409
0.000206346
0.000171097
0.000119448
7.59973e-05
1.22264e-05
0.000931352
0.000913346
0.000872756
0.00081907
0.000761995
0.000705371
0.000645579
0.000576101
0.00049472
0.000407607
0.00032672
0.000264729
0.000227242
0.000213017
0.000211752
0.000215108
0.000211275
0.000200855
0.000175727
0.000147583
0.000103582
6.63109e-05
1.05326e-05
0.000547365
0.000569408
0.00056567
0.000545768
0.000519227
0.000489798
0.000454149
0.000406425
0.000345034
0.000276452
0.000212538
0.000165668
0.000141304
0.000138321
0.000146929
0.000159196
0.000163891
0.000161473
0.000144391
0.000123483
8.7297e-05
5.63915e-05
8.73278e-06
0.000160187
0.000222017
0.000255037
0.000268927
0.000272983
0.000270864
0.000259551
0.000233873
0.000192858
0.000143241
9.67134e-05
6.53028e-05
5.42968e-05
6.26908e-05
8.12396e-05
0.000102442
0.0001157
0.000121331
0.000112389
9.88391e-05
7.06153e-05
4.62534e-05
6.82197e-06
-0.000229495
-0.000128233
-5.86329e-05
-1.10242e-05
2.36256e-05
4.88806e-05
6.20605e-05
5.86916e-05
3.84034e-05
8.13982e-06
-2.06283e-05
-3.62792e-05
-3.37113e-05
-1.38135e-05
1.47472e-05
4.49161e-05
6.67705e-05
8.04952e-05
7.97771e-05
7.36954e-05
5.35611e-05
3.59116e-05
4.79745e-06
-0.000620957
-0.000480706
-0.000374793
-0.00029362
-0.00022845
-0.000175807
-0.000138016
-0.000118848
-0.000118099
-0.000128668
-0.000139352
-0.00013898
-0.000122647
-9.11255e-05
-5.2481e-05
-1.33091e-05
1.71765e-05
3.90361e-05
4.66119e-05
4.80988e-05
3.61614e-05
2.53824e-05
2.65836e-06
-0.00101343
-0.00083473
-0.000692861
-0.000578359
-0.000482811
-0.000402823
-0.000340343
-0.000298452
-0.0002764
-0.000266981
-0.000259318
-0.000242692
-0.000212428
-0.000169174
-0.000120374
-7.21584e-05
-3.30072e-05
-2.97437e-06
1.29535e-05
2.20981e-05
1.84458e-05
1.46834e-05
4.05645e-07
-0.00140612
-0.0011896
-0.00101222
-0.000864705
-0.000738992
-0.000631753
-0.000544554
-0.000479798
-0.000436226
-0.000406582
-0.000380349
-0.000347295
-0.000302963
-0.000247878
-0.000188854
-0.000131553
-8.37024e-05
-4.54616e-05
-2.11353e-05
-4.25527e-06
4.46967e-07
3.83325e-06
-1.95816e-06
-0.00154455
-0.0013322
-0.00115208
-0.000996488
-0.000862152
-0.000750251
-0.000662536
-0.000597284
-0.000547238
-0.000502266
-0.000452656
-0.000394148
-0.00032715
-0.000257837
-0.000191407
-0.000134827
-8.83475e-05
-5.5588e-05
-3.09073e-05
-1.77995e-05
-7.14762e-06
-4.42895e-06
-0.00189882
-0.00165212
-0.00143988
-0.00125476
-0.00109353
-0.000957001
-0.000846289
-0.000759257
-0.000688693
-0.000624877
-0.000558625
-0.000485865
-0.000406888
-0.000327229
-0.00025163
-0.000186292
-0.00013155
-9.03345e-05
-5.7801e-05
-3.62551e-05
-1.82373e-05
-7.00122e-06
-0.00225158
-0.00197123
-0.00172744
-0.00151322
-0.00132538
-0.00116434
-0.00103065
-0.000921802
-0.00083067
-0.000747966
-0.000665034
-0.000577982
-0.000486979
-0.000396928
-0.000312122
-0.000238005
-0.000174981
-0.0001253
-8.48758e-05
-5.48782e-05
-2.9412e-05
-9.66804e-06
-0.00260196
-0.00228878
-0.00201408
-0.00177125
-0.00155713
-0.00137178
-0.00121519
-0.00108455
-0.000972868
-0.000871294
-0.000771696
-0.000670345
-0.000567292
-0.000466814
-0.000372774
-0.000289863
-0.000218548
-0.000160406
-0.000112068
-7.36236e-05
-4.06459e-05
-1.24212e-05
-0.00294909
-0.00260394
-0.00229906
-0.00202818
-0.00178819
-0.00157877
-0.00139943
-0.00124711
-0.00111496
-0.000994601
-0.000878399
-0.000762782
-0.000647679
-0.000536757
-0.000433464
-0.000341756
-0.000262152
-0.000195567
-0.000139308
-9.24426e-05
-5.19114e-05
-1.52511e-05
-0.00329202
-0.00291587
-0.00258161
-0.00228333
-0.00201792
-0.00178474
-0.00158288
-0.00140905
-0.0012566
-0.0011176
-0.00098491
-0.000855097
-0.000727971
-0.000606607
-0.000494058
-0.000393562
-0.000305683
-0.000230691
-0.000166523
-0.000111283
-6.3178e-05
-1.81471e-05
-0.00362979
-0.00322368
-0.00286092
-0.00253592
-0.00224564
-0.0019891
-0.00176501
-0.00156991
-0.0013974
-0.00123997
-0.00109096
-0.000947069
-0.00080798
-0.000676199
-0.000554407
-0.00044515
-0.000349027
-0.00026568
-0.000193636
-0.000130087
-7.44133e-05
-2.1097e-05
-0.0039614
-0.00352644
-0.00313612
-0.00278519
-0.00247063
-0.00219119
-0.00194524
-0.00172921
-0.00153694
-0.00136136
-0.00119627
-0.00103845
-0.000887489
-0.000745345
-0.000614346
-0.000496373
-0.000392055
-0.000300429
-0.00022056
-0.000148796
-8.55817e-05
-2.40875e-05
-0.00428583
-0.00382318
-0.00340631
-0.0030303
-0.00269213
-0.00239032
-0.00212297
-0.00188642
-0.00167478
-0.00148139
-0.0013005
-0.00112896
-0.000966259
-0.000813835
-0.000673691
-0.000547073
-0.000434631
-0.000334822
-0.000247207
-0.000167341
-9.66451e-05
-2.71042e-05
-0.00460199
-0.0041129
-0.00367056
-0.00327037
-0.00290934
-0.00258578
-0.00229755
-0.00204098
-0.00181042
-0.00159965
-0.00140329
-0.00121829
-0.00104402
-0.000881436
-0.00073224
-0.000597074
-0.000476605
-0.000368736
-0.000273477
-0.000185654
-0.000107562
-3.01314e-05
-0.00490878
-0.00439454
-0.00392788
-0.00350448
-0.00312141
-0.00277679
-0.0024683
-0.00219228
-0.00194335
-0.00171568
-0.00150426
-0.00130609
-0.00112047
-0.000947892
-0.000789769
-0.000646184
-0.000517814
-0.000402036
-0.000299267
-0.000203658
-0.000118288
-3.31521e-05
-0.00520506
-0.00466702
-0.00417723
-0.00373167
-0.00332744
-0.00296254
-0.0026345
-0.00233968
-0.002073
-0.00182898
-0.00160296
-0.00139199
-0.0011953
-0.00101292
-0.000846035
-0.000694196
-0.000558082
-0.000434579
-0.000324464
-0.00022127
-0.000128774
-3.6148e-05
-0.00548964
-0.0049292
-0.00441754
-0.00395092
-0.00352651
-0.00314218
-0.00279538
-0.0024825
-0.00219876
-0.00193902
-0.00169893
-0.00147558
-0.00126812
-0.0010762
-0.000900768
-0.00074088
-0.000597219
-0.000466208
-0.000348945
-0.000238404
-0.00013897
-3.90995e-05
-0.0057613
-0.0051799
-0.00464769
-0.00416119
-0.00371763
-0.00331481
-0.00295011
-0.00262001
-0.00231999
-0.00204522
-0.00179165
-0.00155641
-0.00133856
-0.0011374
-0.000953679
-0.00078599
-0.000635017
-0.000496756
-0.000372581
-0.000254964
-0.000148819
-4.19859e-05
-0.00601878
-0.00541791
-0.00486651
-0.00436136
-0.00389977
-0.00347948
-0.00309784
-0.00275144
-0.002436
-0.00214697
-0.00188058
-0.00163398
-0.00140618
-0.00119615
-0.00100445
-0.00082926
-0.000671255
-0.000526041
-0.000395233
-0.000270851
-0.000158262
-4.47848e-05
-0.00626077
-0.00564194
-0.00507277
-0.00455028
-0.00407185
-0.00363519
-0.00323767
-0.00287595
-0.00254603
-0.00224359
-0.00196512
-0.00170778
-0.00147054
-0.00125206
-0.00105275
-0.000870403
-0.000705695
-0.000553872
-0.00041675
-0.000285956
-0.000167235
-4.74729e-05
-0.00648589
-0.00585067
-0.00526521
-0.00472674
-0.00423274
-0.00378092
-0.00336864
-0.00299269
-0.0026493
-0.00233438
-0.00204463
-0.00177724
-0.00153113
-0.00130469
-0.0010982
-0.000909111
-0.000738081
-0.000580041
-0.000436975
-0.000300167
-0.000175672
-5.00254e-05
-0.00669274
-0.00604272
-0.00544249
-0.00488948
-0.00438127
-0.00391556
-0.00348976
-0.00310075
-0.00274497
-0.00241858
-0.00211845
-0.00184177
-0.00158743
-0.0013536
-0.00114042
-0.000945058
-0.000768143
-0.00060433
-0.000455739
-0.000313361
-0.0001835
-5.24163e-05
-0.00687983
-0.00621664
-0.00560322
-0.00503719
-0.00451618
-0.00403796
-0.00359996
-0.00319915
-0.00283217
-0.0024954
-0.00218586
-0.00190074
-0.0016389
-0.00139831
-0.00117901
-0.000977896
-0.000795594
-0.000626508
-0.000472864
-0.000325412
-0.000190643
-5.46185e-05
-0.00704561
-0.00637094
-0.00574596
-0.00516847
-0.0046362
-0.00414692
-0.00369813
-0.00328689
-0.00291001
-0.00256404
-0.00224612
-0.00195348
-0.00168494
-0.00143831
-0.00121352
-0.00100726
-0.000820129
-0.000646331
-0.000488162
-0.000336187
-0.000197024
-5.6604e-05
-0.00718845
-0.00650401
-0.00586919
-0.0052819
-0.00473997
-0.00424119
-0.00378311
-0.0033629
-0.00297752
-0.0026236
-0.00229846
-0.00199931
-0.00172495
-0.00147306
-0.0012435
-0.00103277
-0.000841433
-0.000663543
-0.000501437
-0.000345545
-0.000202558
-5.8344e-05
-0.00730662
-0.0066142
-0.0059713
-0.00537596
-0.00482607
-0.00431946
-0.00385372
-0.00342609
-0.00303367
-0.00267318
-0.00234205
-0.00203749
-0.0017583
-0.00150203
-0.00126848
-0.00105402
-0.000859176
-0.000677878
-0.000512484
-0.00035334
-0.000207159
-5.98104e-05
-0.00739829
-0.00669975
-0.00605063
-0.00544907
-0.00489303
-0.00438036
-0.00390868
-0.0034753
-0.0030774
-0.00271182
-0.00237604
-0.00206729
-0.00178433
-0.00152464
-0.00128798
-0.0010706
-0.000873015
-0.000689062
-0.000521093
-0.000359421
-0.000210736
-6.09772e-05
-0.00746153
-0.00675879
-0.0061054
-0.00549958
-0.00493931
-0.00442245
-0.00394669
-0.00350935
-0.00310768
-0.00273858
-0.00239959
-0.00208793
-0.00180236
-0.00154031
-0.00130149
-0.00108209
-0.000882599
-0.000696811
-0.000527046
-0.000363638
-0.000213186
-6.18216e-05
-0.00749426
-0.00678935
-0.00613377
-0.00552574
-0.00496328
-0.00444427
-0.00396639
-0.003527
-0.00312338
-0.00275246
-0.00241181
-0.00209864
-0.00181172
-0.00154844
-0.0013085
-0.00108806
-0.000887563
-0.000700844
-0.000530113
-0.000365849
-0.000214404
-6.231e-05
-0.00824999
-0.00749422
-0.00678932
-0.00613374
-0.00552572
-0.00496326
-0.00444425
-0.00396637
-0.00352698
-0.00312337
-0.00275245
-0.0024118
-0.00209863
-0.00181171
-0.00154844
-0.00130849
-0.00108806
-0.000887558
-0.000700841
-0.00053011
-0.000365847
-0.000214403
-6.23095e-05
-0.00821519
-0.00746149
-0.00675875
-0.00610537
-0.00549956
-0.00493928
-0.00442243
-0.00394667
-0.00350933
-0.00310766
-0.00273857
-0.00239958
-0.00208792
-0.00180235
-0.0015403
-0.00130148
-0.00108209
-0.000882594
-0.000696807
-0.000527044
-0.000363636
-0.000213185
-6.18212e-05
-0.00814791
-0.00739826
-0.00669971
-0.0060506
-0.00544905
-0.00489301
-0.00438033
-0.00390866
-0.00347528
-0.00307739
-0.00271181
-0.00237603
-0.00206727
-0.00178432
-0.00152463
-0.00128797
-0.0010706
-0.00087301
-0.000689058
-0.000521091
-0.00035942
-0.000210735
-6.09768e-05
-0.00805032
-0.00730658
-0.00661417
-0.00597127
-0.00537594
-0.00482605
-0.00431944
-0.0038537
-0.00342607
-0.00303365
-0.00267316
-0.00234203
-0.00203748
-0.00175829
-0.00150202
-0.00126848
-0.00105401
-0.000859171
-0.000677875
-0.000512482
-0.000353339
-0.000207158
-5.98101e-05
-0.00792444
-0.00718841
-0.00650398
-0.00586916
-0.00528188
-0.00473995
-0.00424117
-0.0037831
-0.00336289
-0.0029775
-0.00262359
-0.00229845
-0.0019993
-0.00172494
-0.00147306
-0.00124349
-0.00103276
-0.000841429
-0.000663539
-0.000501435
-0.000345544
-0.000202557
-5.83439e-05
-0.00777214
-0.00704558
-0.00637091
-0.00574594
-0.00516845
-0.00463618
-0.0041469
-0.00369811
-0.00328687
-0.00291
-0.00256402
-0.00224611
-0.00195347
-0.00168493
-0.0014383
-0.00121351
-0.00100725
-0.000820125
-0.000646327
-0.00048816
-0.000336186
-0.000197023
-5.66039e-05
-0.00759517
-0.0068798
-0.00621662
-0.0056032
-0.00503716
-0.00451616
-0.00403794
-0.00359994
-0.00319914
-0.00283216
-0.00249539
-0.00218585
-0.00190073
-0.00163889
-0.0013983
-0.001179
-0.000977891
-0.000795589
-0.000626505
-0.000472862
-0.000325411
-0.000190643
-5.46185e-05
-0.00739521
-0.00669271
-0.00604269
-0.00544246
-0.00488946
-0.00438125
-0.00391554
-0.00348974
-0.00310073
-0.00274495
-0.00241856
-0.00211844
-0.00184176
-0.00158742
-0.0013536
-0.00114042
-0.000945053
-0.000768139
-0.000604327
-0.000455737
-0.00031336
-0.000183499
-5.24162e-05
-0.00717383
-0.00648586
-0.00585064
-0.00526518
-0.00472672
-0.00423272
-0.0037809
-0.00336863
-0.00299268
-0.00264929
-0.00233437
-0.00204462
-0.00177723
-0.00153112
-0.00130468
-0.00109819
-0.000909106
-0.000738078
-0.000580038
-0.000436973
-0.000300165
-0.000175671
-5.00252e-05
-0.00693253
-0.00626074
-0.00564191
-0.00507275
-0.00455026
-0.00407183
-0.00363517
-0.00323765
-0.00287594
-0.00254602
-0.00224358
-0.00196511
-0.00170777
-0.00147053
-0.00125205
-0.00105274
-0.000870398
-0.000705692
-0.000553869
-0.000416748
-0.000285955
-0.000167235
-4.74726e-05
-0.00667274
-0.00601876
-0.00541788
-0.00486649
-0.00436134
-0.00389975
-0.00347946
-0.00309783
-0.00275142
-0.00243599
-0.00214696
-0.00188057
-0.00163397
-0.00140617
-0.00119615
-0.00100445
-0.000829256
-0.000671252