/*--------------------------------*- C++ -*----------------------------------*\
  =========                 |
  \\      /  F ield         | OpenFOAM: The Open Source CFD Toolbox
   \\    /   O peration     | Website:  https://openfoam.org
    \\  /    A nd           | Version:  7
     \\/     M anipulation  |
\*---------------------------------------------------------------------------*/
FoamFile
{
    version     2.0;
    format      ascii;
    class       volVectorField;
    location    "20";
    object      U;
}
// * * * * * * * * * * * * * * * * * * * * * * * * * * * * * * * * * * * * * //

dimensions      [0 1 -1 0 0 0 0];

internalField   nonuniform List<vector> 
4575
(
(0.868849 -0.000313175 6.01572e-24)
(0.878773 -0.000291428 -4.74358e-24)
(0.888192 -0.000270384 5.61325e-24)
(0.897072 -0.000250217 3.9458e-24)
(0.905448 -0.000232456 7.07353e-24)
(0.913397 -0.000218517 9.37594e-25)
(0.921067 -0.000207906 -2.02259e-24)
(0.928514 -0.000198228 -2.60456e-24)
(0.935726 -0.000186339 9.64168e-25)
(0.942528 -0.000170339 2.08821e-24)
(0.948757 -0.000150416 6.15544e-25)
(0.954231 -0.000129094 -2.31992e-24)
(0.958974 -0.000109704 -3.93915e-25)
(0.963063 -9.57038e-05 1.90037e-24)
(0.96682 -8.79927e-05 -1.56034e-24)
(0.970417 -8.68119e-05 -3.77666e-25)
(0.974232 -8.77151e-05 1.84323e-25)
(0.978066 -9.0452e-05 9.00852e-26)
(0.9823 -8.68235e-05 2.14578e-25)
(0.985967 -8.43375e-05 1.2705e-25)
(0.990158 -6.89704e-05 -1.68943e-26)
(0.992498 -6.40638e-05 3.54684e-25)
(0.996401 -3.98242e-05 -2.64911e-25)
(0.869227 -0.000945689 -3.62641e-24)
(0.879121 -0.000880698 1.45687e-23)
(0.888512 -0.000817315 -2.79727e-24)
(0.897366 -0.000756168 1.07543e-23)
(0.905719 -0.000701967 -3.38892e-24)
(0.913645 -0.000659086 7.84409e-24)
(0.921293 -0.00062615 7.12627e-24)
(0.928719 -0.000596054 9.63797e-24)
(0.935912 -0.000559424 -2.32256e-25)
(0.942696 -0.000510595 -5.14558e-24)
(0.948908 -0.000450152 3.83757e-24)
(0.954367 -0.000385691 2.59648e-24)
(0.959093 -0.000327207 -9.75222e-26)
(0.963169 -0.00028509 -2.9931e-25)
(0.966911 -0.000262018 9.91664e-25)
(0.970496 -0.000258695 1.24433e-24)
(0.974297 -0.000261717 -4.3196e-24)
(0.97812 -0.000270293 1.60404e-24)
(0.982342 -0.000259746 2.50145e-24)
(0.986 -0.00025259 -8.55397e-25)
(0.990181 -0.000206705 1.48844e-24)
(0.992516 -0.000192136 4.3831e-25)
(0.996411 -0.000119523 5.38447e-25)
(0.86998 -0.00157535 2.01464e-23)
(0.879814 -0.00146736 -2.81867e-24)
(0.889151 -0.00136187 -5.1542e-24)
(0.897954 -0.00125992 -2.61019e-23)
(0.906258 -0.00116944 -1.58399e-24)
(0.914138 -0.00109776 -3.74773e-23)
(0.921743 -0.00104264 3.39755e-24)
(0.929128 -0.000992274 -1.67147e-23)
(0.936284 -0.000931041 1.14233e-23)
(0.943032 -0.000849505 5.19144e-24)
(0.94921 -0.000748643 -1.07259e-23)
(0.954636 -0.000641126 -5.75383e-24)
(0.959333 -0.000543624 -4.79631e-24)
(0.963379 -0.000473457 -1.19884e-24)
(0.967093 -0.000435087 -1.50255e-24)
(0.970651 -0.000429674 -2.60479e-24)
(0.974427 -0.000434876 4.52074e-24)
(0.978227 -0.000449351 -1.10621e-24)
(0.982426 -0.00043198 -3.19939e-24)
(0.986065 -0.000420234 -1.12243e-24)
(0.990227 -0.000343971 -1.61788e-24)
(0.992552 -0.000319801 -1.56829e-24)
(0.996431 -0.000198982 -4.33821e-25)
(0.871103 -0.00220029 -2.85865e-23)
(0.88085 -0.00204972 2.91585e-23)
(0.890105 -0.00190247 3.67749e-24)
(0.898831 -0.00176004 4.27018e-24)
(0.907063 -0.00163353 4.68443e-24)
(0.914874 -0.00153328 1.44524e-23)
(0.922414 -0.00145622 -1.03635e-23)
(0.92974 -0.00138583 1.95757e-23)
(0.936838 -0.00130023 -4.06014e-24)
(0.943534 -0.00118618 -1.02502e-23)
(0.949661 -0.00104507 1.50969e-23)
(0.95504 -0.000894634 8.91173e-24)
(0.95969 -0.000758241 1.24108e-24)
(0.963693 -0.000660135 -5.19791e-24)
(0.967366 -0.000606567 4.06225e-24)
(0.970885 -0.000599153 -6.87945e-25)
(0.974622 -0.000606635 -8.77598e-24)
(0.978386 -0.000627109 2.57629e-24)
(0.982552 -0.000603072 -1.43355e-24)
(0.986162 -0.000586868 1.50005e-24)
(0.990296 -0.000480458 1.1707e-24)
(0.992605 -0.00044679 -7.97737e-25)
(0.99646 -0.000278042 1.01138e-25)
(0.872588 -0.00281867 5.35096e-24)
(0.882219 -0.00262608 -4.30951e-23)
(0.891367 -0.0024376 4.3907e-25)
(0.899992 -0.00225511 -1.8932e-23)
(0.908128 -0.00209292 1.95898e-23)
(0.915849 -0.00196442 7.22164e-24)
(0.923304 -0.00186575 -6.88949e-24)
(0.930549 -0.00177568 -1.98816e-23)
(0.937573 -0.00166603 -1.67174e-23)
(0.944198 -0.00151975 3.19012e-23)
(0.950259 -0.00133862 -2.33517e-23)
(0.955574 -0.00114546 -1.25029e-23)
(0.960164 -0.000970352 1.1845e-24)
(0.964109 -0.00084446 -9.19842e-25)
(0.967727 -0.000775837 -1.11101e-23)
(0.971194 -0.00076654 6.576e-24)
(0.974881 -0.000776443 6.96464e-24)
(0.978598 -0.000803055 -5.59078e-24)
(0.982718 -0.000772571 1.17179e-24)
(0.986292 -0.000752095 1.79412e-24)
(0.990388 -0.000615859 -1.20146e-24)
(0.992675 -0.000572836 1.38452e-24)
(0.996499 -0.000356547 1.13188e-24)
(0.874426 -0.00342872 -3.64465e-23)
(0.883915 -0.00319485 5.0521e-23)
(0.892929 -0.00296577 7.59354e-24)
(0.90143 -0.00274376 2.29563e-24)
(0.909448 -0.00254633 -4.93117e-23)
(0.917057 -0.00239 2.75471e-23)
(0.924406 -0.00227014 1.2064e-23)
(0.931553 -0.00216081 7.27061e-24)
(0.938484 -0.00202752 -2.34787e-23)
(0.945023 -0.00184937 -1.59118e-23)
(0.951001 -0.00162851 -2.75942e-24)
(0.956238 -0.00139288 9.65046e-24)
(0.960752 -0.00117927 -1.44633e-23)
(0.964626 -0.00102579 5.04887e-24)
(0.968176 -0.000942283 1.71944e-23)
(0.971578 -0.000931258 -3.0029e-24)
(0.975202 -0.000943758 7.54102e-25)
(0.978862 -0.000976685 1.83224e-24)
(0.982925 -0.000940033 1.925e-24)
(0.986452 -0.000915521 -7.6806e-25)
(0.990502 -0.000749872 -1.25683e-24)
(0.992763 -0.000697676 4.15655e-26)
(0.996548 -0.000434341 -8.62477e-25)
(0.876604 -0.00402876 -5.50299e-23)
(0.885924 -0.00375446 -7.60799e-23)
(0.894782 -0.00348557 -8.93032e-23)
(0.903136 -0.00322467 1.44745e-23)
(0.911015 -0.00299254 3.87635e-23)
(0.918492 -0.00280886 -2.95922e-24)
(0.925715 -0.00266831 -1.50098e-23)
(0.932744 -0.00254024 7.87746e-24)
(0.939566 -0.00238381 2.25463e-23)
(0.946002 -0.00217421 7.47737e-25)
(0.951883 -0.00191398 2.40405e-23)
(0.957027 -0.00163617 -1.2421e-23)
(0.961452 -0.00138433 2.29922e-24)
(0.965241 -0.00120348 5.8331e-24)
(0.96871 -0.00110531 -1.64162e-23)
(0.972035 -0.00109274 7.97417e-24)
(0.975585 -0.00110805 -8.36224e-25)
(0.979176 -0.00114751 -7.65271e-25)
(0.983172 -0.00110502 -3.60374e-24)
(0.986644 -0.00107676 2.02155e-24)
(0.990638 -0.000882198 1.71206e-24)
(0.992867 -0.000821051 1.18481e-24)
(0.996607 -0.000511272 -9.76044e-25)
(0.879107 -0.00461719 7.02139e-23)
(0.888236 -0.00430344 -3.28262e-23)
(0.896914 -0.00399564 3.24348e-23)
(0.905099 -0.0036966 6.96495e-23)
(0.912819 -0.00343038 7.64673e-24)
(0.920144 -0.00321991 -2.51752e-23)
(0.927224 -0.00305924 3.18481e-24)
(0.934118 -0.00291304 -2.62071e-23)
(0.940814 -0.00273404 2.69021e-23)
(0.947132 -0.00249349 8.49087e-24)
(0.952901 -0.00219429 -3.68068e-24)
(0.957938 -0.00187465 2.30851e-23)
(0.962261 -0.00158488 1.05231e-23)
(0.965952 -0.00137693 5.48037e-24)
(0.969327 -0.00126434 7.25504e-25)
(0.972564 -0.00125043 -9.1876e-24)
(0.976028 -0.0012688 -9.74752e-24)
(0.979538 -0.00131503 1.27843e-23)
(0.983457 -0.00126712 7.18741e-24)
(0.986865 -0.00123544 3.26579e-24)
(0.990795 -0.00101255 -3.23306e-24)
(0.992988 -0.000942709 2.11446e-25)
(0.996674 -0.00058719 -1.26816e-24)
(0.881921 -0.00519251 6.95796e-23)
(0.890834 -0.00484044 1.3616e-23)
(0.899311 -0.00449472 -5.69415e-23)
(0.907308 -0.00415837 -8.66225e-23)
(0.914849 -0.00385873 4.86189e-23)
(0.922004 -0.00362209 -5.8084e-23)
(0.928923 -0.00344196 -3.13043e-23)
(0.935666 -0.0032783 1.77568e-23)
(0.942221 -0.00307739 -2.38374e-23)
(0.948407 -0.00280646 -1.17191e-23)
(0.95405 -0.00246877 -3.71899e-24)
(0.958966 -0.00210767 4.54445e-24)
(0.963174 -0.00178031 3.81352e-24)
(0.966756 -0.00154555 -9.62662e-24)
(0.970026 -0.00141881 5.68154e-25)
(0.973162 -0.0014038 1.60136e-23)
(0.976528 -0.00142552 1.71383e-23)
(0.979949 -0.0014788 -8.81732e-24)
(0.98378 -0.0014259 -5.07029e-24)
(0.987116 -0.00139119 -8.51099e-25)
(0.990973 -0.00114064 2.94854e-24)
(0.993125 -0.0010624 1.66963e-24)
(0.99675 -0.000661951 4.73084e-25)
(0.885025 -0.00575334 -1.09992e-23)
(0.893702 -0.00536416 1.24872e-22)
(0.90196 -0.00498163 1.25926e-23)
(0.90975 -0.00460889 4.53387e-24)
(0.917094 -0.00427658 -5.69252e-23)
(0.924062 -0.00401445 8.0004e-23)
(0.930804 -0.00381556 3.394e-23)
(0.937381 -0.0036352 4.86776e-23)
(0.94378 -0.0034131 2.62309e-24)
(0.949819 -0.00311242 2.4734e-23)
(0.955324 -0.00273675 -6.4303e-24)
(0.960107 -0.00233462 -4.96768e-23)
(0.964188 -0.00197003 -1.85903e-23)
(0.967648 -0.00170879 -3.56812e-25)
(0.970801 -0.0015682 -1.62262e-23)
(0.973827 -0.00155235 -1.5369e-23)
(0.977085 -0.00157771 -1.28597e-23)
(0.980406 -0.00163836 -1.56162e-23)
(0.984139 -0.00158098 7.29628e-24)
(0.987395 -0.00154366 1.24326e-24)
(0.991171 -0.0012662 -6.0059e-24)
(0.993277 -0.00117989 -4.17515e-24)
(0.996835 -0.000735412 2.4682e-24)
(0.8884 -0.00629843 -1.27269e-22)
(0.896823 -0.00587346 -1.05375e-23)
(0.904843 -0.00545531 1.07666e-22)
(0.91241 -0.00504716 2.0205e-23)
(0.919542 -0.00468297 1.84863e-23)
(0.926307 -0.00439607 6.10581e-24)
(0.932856 -0.00417919 -3.00459e-23)
(0.939252 -0.00398294 -3.67166e-23)
(0.945482 -0.00374044 2.86187e-23)
(0.951363 -0.0034107 -8.03072e-23)
(0.956717 -0.00299761 2.15458e-23)
(0.961356 -0.00255492 3.97781e-23)
(0.965298 -0.00215349 1.09093e-23)
(0.968626 -0.00186612 -7.30175e-24)
(0.971652 -0.00171199 4.51638e-24)
(0.974556 -0.00169557 -1.25733e-23)
(0.977696 -0.00172491 3.20243e-25)
(0.980906 -0.00179328 1.71354e-23)
(0.984533 -0.00173197 -4.09582e-24)
(0.987701 -0.00169251 -6.27357e-24)
(0.991388 -0.00138896 5.68228e-24)
(0.993444 -0.00129495 4.24098e-24)
(0.996929 -0.000807437 -1.70753e-24)
(0.892026 -0.00682667 -2.20233e-23)
(0.900178 -0.00636729 5.73317e-23)
(0.907944 -0.00591479 -1.1533e-23)
(0.915272 -0.00547227 -5.60472e-23)
(0.922178 -0.00507705 -2.0561e-23)
(0.928726 -0.00476614 -4.36427e-23)
(0.935069 -0.00453208 -6.05738e-23)
(0.941271 -0.0043208 5.32191e-24)
(0.94732 -0.00405876 -2.93632e-23)
(0.95303 -0.00370071 1.83578e-23)
(0.958222 -0.00325081 -2.24837e-23)
(0.962707 -0.00276803 -1.65283e-23)
(0.9665 -0.00233019 2.87671e-23)
(0.969685 -0.00201703 -7.88488e-25)
(0.972573 -0.00184971 7.19289e-24)
(0.975346 -0.00183301 2.00869e-23)
(0.978358 -0.0018667 -9.53948e-24)
(0.98145 -0.00194314 6.97742e-24)
(0.98496 -0.0018785 2.90654e-24)
(0.988034 -0.00183742 1.6642e-24)
(0.991624 -0.00150867 -1.23728e-24)
(0.993626 -0.00140736 -1.94895e-24)
(0.99703 -0.000877895 1.81159e-24)
(0.895881 -0.00733707 1.04821e-22)
(0.903747 -0.00684474 3.65151e-23)
(0.911246 -0.00635922 -5.21273e-23)
(0.918322 -0.00588343 5.38522e-23)
(0.924987 -0.00545804 -1.18088e-23)
(0.931306 -0.00512391 -7.2742e-24)
(0.937431 -0.0048735 1.44492e-22)
(0.943427 -0.00464812 -4.31849e-24)
(0.949283 -0.00436746 6.59917e-23)
(0.954812 -0.00398188 4.21211e-23)
(0.959833 -0.00349582 -1.83115e-23)
(0.964153 -0.00297346 1.10888e-23)
(0.967787 -0.00249965 -2.10845e-23)
(0.970821 -0.00216108 -4.67389e-24)
(0.973562 -0.0019809 2.92175e-23)
(0.976195 -0.00196423 -1.98045e-23)
(0.979069 -0.00200264 5.98227e-24)
(0.982034 -0.00208756 -2.10073e-23)
(0.98542 -0.00202023 2.74235e-24)
(0.988391 -0.00197806 -2.41568e-25)
(0.991878 -0.00162509 -8.01616e-25)
(0.993821 -0.00151689 -9.74376e-25)
(0.997139 -0.00094666 -6.76929e-25)
(0.89994 -0.00782879 -1.80999e-22)
(0.907508 -0.00730501 -6.37712e-23)
(0.914728 -0.00678786 2.27212e-23)
(0.921541 -0.00627993 -3.18109e-23)
(0.927956 -0.00582526 -1.07114e-22)
(0.934034 -0.00546871 9.51242e-23)
(0.939929 -0.00520283 -1.0318e-22)
(0.945709 -0.00496432 1.42932e-24)
(0.951362 -0.00466599 -4.72664e-23)
(0.956702 -0.00425374 -4.07731e-23)
(0.961541 -0.00373219 3.46174e-23)
(0.965688 -0.00317078 9.88656e-24)
(0.969155 -0.00266145 7.25898e-24)
(0.972029 -0.00229784 3.3115e-23)
(0.974614 -0.00210516 -2.30206e-23)
(0.977098 -0.00208882 5.05107e-24)
(0.979826 -0.00213236 -6.71892e-24)
(0.982656 -0.00222615 1.02276e-24)
(0.985909 -0.00215682 7.81684e-25)
(0.988772 -0.00211414 4.82969e-24)
(0.992149 -0.00173799 8.71313e-24)
(0.994029 -0.00162336 3.89503e-25)
(0.997256 -0.00101361 3.20585e-25)
(0.904181 -0.00830116 2.5574e-23)
(0.911441 -0.00774746 6.58999e-23)
(0.918372 -0.00720009 4.05224e-23)
(0.924913 -0.00666118 1.68551e-22)
(0.931067 -0.00617815 1.3952e-23)
(0.936896 -0.00579999 -1.72257e-23)
(0.942551 -0.00551952 1.42145e-22)
(0.948105 -0.00526887 -1.89921e-23)
(0.953548 -0.00495389 -7.09279e-24)
(0.958689 -0.00451583 -2.61236e-23)
(0.96334 -0.00395951 -1.41972e-24)
(0.967306 -0.0033596 -3.06386e-23)
(0.970599 -0.00281519 -1.60845e-23)
(0.973303 -0.00242692 -3.59405e-23)
(0.975725 -0.0022221 2.25435e-23)
(0.978052 -0.00220642 8.9786e-24)
(0.980627 -0.00225548 1.69522e-23)
(0.983313 -0.00235858 -3.23533e-24)
(0.986427 -0.00228797 -1.45688e-23)
(0.989175 -0.0022454 -1.43755e-23)
(0.992435 -0.00184715 -5.28303e-24)
(0.99425 -0.00172658 2.69572e-24)
(0.997379 -0.00107864 1.022e-26)
(0.90858 -0.00875362 -5.7308e-23)
(0.915524 -0.00817155 -2.02867e-22)
(0.922158 -0.00759542 4.12925e-23)
(0.928419 -0.00702672 -8.62105e-23)
(0.934306 -0.00651621 -5.35885e-23)
(0.939876 -0.00611726 -4.504e-23)
(0.945285 -0.0058231 -9.07643e-23)
(0.950605 -0.00556132 -2.75888e-24)
(0.955829 -0.00523073 -2.0231e-23)
(0.960765 -0.0047678 3.65029e-23)
(0.965221 -0.00417742 -3.84707e-23)
(0.969 -0.00353958 4.11661e-23)
(0.97211 -0.00296054 -9.28932e-25)
(0.97464 -0.00254799 2.052e-23)
(0.976891 -0.00233137 -2.19241e-23)
(0.979055 -0.00231666 1.30493e-24)
(0.981468 -0.00237168 -1.63325e-23)
(0.984005 -0.00248453 5.82928e-24)
(0.986971 -0.00241339 1.08669e-23)
(0.989598 -0.00237157 1.47561e-23)
(0.992736 -0.00195238 -1.04691e-23)
(0.994482 -0.00182636 -4.09101e-24)
(0.997508 -0.00114164 -3.31356e-24)
(0.913112 -0.00918578 -1.24545e-23)
(0.919734 -0.0085769 9.39976e-23)
(0.926066 -0.00797346 -1.83367e-22)
(0.932041 -0.00737615 7.17375e-23)
(0.937654 -0.00683909 3.37952e-23)
(0.942961 -0.00642012 1.01656e-23)
(0.948116 -0.00611316 1.15482e-22)
(0.953196 -0.0058413 -1.03579e-22)
(0.958195 -0.00549617 6.0914e-23)
(0.96292 -0.00500932 -2.81373e-23)
(0.967176 -0.00438565 2.40027e-23)
(0.970762 -0.00371042 -1.77972e-23)
(0.973685 -0.0030972 1.40024e-23)
(0.976033 -0.00266073 -1.27167e-23)
(0.978108 -0.00243267 4.63933e-24)
(0.980101 -0.00241924 -9.04351e-24)
(0.982347 -0.00248064 1.77898e-23)
(0.984727 -0.00260369 1.1001e-23)
(0.98754 -0.00253281 -5.24179e-24)
(0.990042 -0.00249241 -1.65288e-23)
(0.993051 -0.00205347 1.56133e-23)
(0.994725 -0.00192254 4.11832e-24)
(0.997644 -0.0012025 -4.2265e-25)
(0.917753 -0.00959737 -1.34925e-22)
(0.924051 -0.00896324 1.63605e-23)
(0.930076 -0.00833396 -1.15752e-23)
(0.935762 -0.00770922 -4.12561e-23)
(0.941097 -0.00714648 8.85408e-23)
(0.946135 -0.00670828 -5.24811e-23)
(0.951031 -0.00638939 -1.32006e-22)
(0.955867 -0.00610849 1.28114e-22)
(0.960636 -0.00574993 -6.11247e-24)
(0.965145 -0.00524014 3.58508e-23)
(0.969196 -0.00458394 4.68334e-23)
(0.972584 -0.0038719 -2.56439e-23)
(0.975316 -0.00322495 -2.92003e-23)
(0.977478 -0.0027649 1.21703e-23)
(0.97937 -0.00252573 -2.99795e-24)
(0.981187 -0.00251388 1.75631e-23)
(0.98326 -0.00258209 4.64262e-24)
(0.985478 -0.00271581 -2.69597e-24)
(0.988132 -0.002646 1.65067e-23)
(0.990502 -0.00260769 7.96294e-24)
(0.993379 -0.00215028 -1.32353e-24)
(0.994977 -0.00201496 -6.51702e-24)
(0.997786 -0.00126114 2.09132e-24)
(0.92248 -0.00998828 -7.74665e-24)
(0.928451 -0.00933041 1.46539e-22)
(0.934169 -0.00867676 1.36004e-22)
(0.939563 -0.00802578 -1.03347e-22)
(0.944618 -0.00743822 -2.78572e-23)
(0.949384 -0.00698152 -3.86625e-24)
(0.954018 -0.00665155 9.70871e-23)
(0.958604 -0.00636268 -6.37563e-23)
(0.96314 -0.0059918 -4.91046e-23)
(0.967431 -0.00546008 2.17941e-23)
(0.971273 -0.00477213 -2.06776e-23)
(0.974461 -0.00402384 1.0288e-23)
(0.976996 -0.00334356 5.19509e-23)
(0.978968 -0.00286028 -1.99966e-23)
(0.980673 -0.00261031 2.50493e-24)
(0.982309 -0.00260034 -1.85581e-23)
(0.984203 -0.00267578 -1.4158e-23)
(0.986254 -0.00282064 1.92307e-24)
(0.988744 -0.00275272 -9.93888e-24)
(0.99098 -0.00271723 3.7828e-24)
(0.993719 -0.00224262 -4.97192e-24)
(0.995239 -0.00210349 7.99832e-24)
(0.997932 -0.00131747 -7.47314e-25)
(0.92727 -0.0103585 3.70556e-23)
(0.932913 -0.0096784 1.97749e-23)
(0.938324 -0.00900181 -3.97973e-23)
(0.943426 -0.00832575 2.48734e-23)
(0.9482 -0.00771421 1.0982e-22)
(0.952693 -0.0072397 -1.29847e-23)
(0.957063 -0.0068995 3.01462e-23)
(0.961398 -0.00660368 2.6652e-23)
(0.965697 -0.00622162 4.2417e-23)
(0.969766 -0.00566899 2.55005e-24)
(0.973398 -0.00495008 -8.63468e-24)
(0.976383 -0.00416609 1.91016e-23)
(0.97872 -0.00345291 -3.02189e-23)
(0.980498 -0.00294669 -4.67494e-24)
(0.982013 -0.00268623 2.40054e-23)
(0.983464 -0.0026784 3.11985e-23)
(0.985174 -0.0027615 -8.01164e-24)
(0.987054 -0.00291796 1.08633e-23)
(0.989375 -0.0028528 -2.62219e-23)
(0.991471 -0.00282084 -4.51552e-24)
(0.994069 -0.00233037 3.39671e-24)
(0.995509 -0.002188 -8.29385e-24)
(0.998083 -0.00137142 -2.33401e-24)
(0.932098 -0.0107082 1.21402e-22)
(0.937418 -0.0100073 -2.06592e-22)
(0.942522 -0.00930919 9.50581e-24)
(0.947334 -0.00860917 1.52753e-22)
(0.951828 -0.00797444 -5.89815e-23)
(0.956048 -0.00748279 1.74505e-22)
(0.960152 -0.00713314 -6.58586e-23)
(0.964234 -0.0068314 -7.57099e-23)
(0.968296 -0.00643932 -4.77918e-25)
(0.972143 -0.0058668 -6.97511e-23)
(0.975564 -0.00511774 -1.01503e-23)
(0.978345 -0.0042986 -2.33329e-24)
(0.980481 -0.00355288 -1.13516e-23)
(0.982063 -0.00302401 1.34748e-23)
(0.983384 -0.00275331 -3.63866e-23)
(0.984647 -0.00274789 -2.07042e-23)
(0.98617 -0.00283907 -1.85639e-24)
(0.987874 -0.0030076 -6.41798e-24)
(0.990023 -0.00294604 -3.2611e-24)
(0.991976 -0.00291837 7.36698e-24)
(0.994428 -0.0024134 2.28033e-24)
(0.995787 -0.00226838 4.07487e-24)
(0.998238 -0.00142291 4.24495e-24)
(0.936945 -0.0110376 -2.52e-22)
(0.941944 -0.0103173 1.31914e-22)
(0.946746 -0.00959903 -1.28426e-22)
(0.95127 -0.00887618 -9.92198e-24)
(0.955486 -0.00821902 -2.65218e-23)
(0.959434 -0.00771082 -1.55141e-22)
(0.963273 -0.00735246 -1.17952e-23)
(0.967103 -0.00704582 7.74238e-23)
(0.970927 -0.00664485 3.91492e-23)
(0.974552 -0.0060535 -3.26398e-24)
(0.97776 -0.00527508 -4.24017e-24)
(0.980337 -0.00442131 -3.18556e-23)
(0.982273 -0.00364343 2.27196e-23)
(0.983657 -0.00309214 2.93829e-23)
(0.984782 -0.00281145 2.99343e-23)
(0.985854 -0.00280866 1.71298e-23)
(0.987187 -0.00290832 4.52596e-23)
(0.988712 -0.0030894 3.72854e-25)
(0.990684 -0.00303232 3.44717e-23)
(0.992493 -0.00300966 -1.78756e-23)
(0.994796 -0.00249159 3.45634e-24)
(0.996071 -0.00234452 -3.18326e-24)
(0.998397 -0.00147189 3.14721e-24)
(0.941789 -0.011347 3.18213e-23)
(0.946473 -0.0106086 2.55503e-23)
(0.950976 -0.0098716 8.33241e-23)
(0.955217 -0.00912698 -2.96837e-23)
(0.959159 -0.00844809 6.55192e-23)
(0.962837 -0.0079239 9.46528e-23)
(0.966414 -0.00755752 -3.09045e-23)
(0.969992 -0.00724695 -9.2455e-23)
(0.973579 -0.00683824 -4.4089e-23)
(0.976982 -0.00622912 1.27996e-23)
(0.979981 -0.00542215 -3.11516e-23)
(0.982353 -0.00453427 5.1277e-23)
(0.984088 -0.00372453 -3.49142e-23)
(0.985275 -0.00315104 -3.42477e-23)
(0.986202 -0.00286057 -2.27342e-23)
(0.987081 -0.00286062 -3.5054e-24)
(0.988221 -0.00296915 -1.72112e-24)
(0.989565 -0.00316322 1.35517e-23)
(0.991358 -0.0031115 1.38294e-24)
(0.993019 -0.00309462 1.47131e-23)
(0.995171 -0.00256486 -5.86282e-24)
(0.99636 -0.00241633 -3.21084e-25)
(0.99856 -0.0015183 -2.9659e-24)
(0.94661 -0.011637 2.0417e-22)
(0.950986 -0.0108817 1.32031e-22)
(0.955197 -0.0101272 -2.22448e-22)
(0.95916 -0.00936187 -1.6472e-22)
(0.962833 -0.0086619 -1.06326e-22)
(0.966246 -0.0081222 4.10886e-23)
(0.969562 -0.00774845 1.22476e-22)
(0.97289 -0.0074349 3.46118e-23)
(0.976243 -0.00701959 6.46786e-23)
(0.979426 -0.00639375 1.13411e-23)
(0.982216 -0.00555902 4.09694e-23)
(0.984387 -0.00463753 -5.71352e-23)
(0.985921 -0.00379623 -1.56104e-23)
(0.98691 -0.00320071 1.79694e-23)
(0.98764 -0.00290062 -9.23588e-24)
(0.988325 -0.00290368 -3.63751e-24)
(0.98927 -0.00302145 -5.00395e-23)
(0.990431 -0.00322896 -3.82647e-23)
(0.992042 -0.00318349 -7.25266e-24)
(0.993553 -0.00317314 -1.11601e-23)
(0.995552 -0.00263312 -1.08021e-23)
(0.996655 -0.00248376 -3.1584e-24)
(0.998725 -0.00156209 -3.70273e-25)
(0.951389 -0.0119079 3.98073e-23)
(0.955466 -0.011137 -8.98328e-23)
(0.959393 -0.0103663 1.12335e-22)
(0.963084 -0.0095812 1.36895e-22)
(0.966493 -0.00886077 -6.23302e-23)
(0.969646 -0.00830597 -3.31671e-23)
(0.972706 -0.00792543 -8.15808e-23)
(0.975788 -0.00760981 -1.52924e-23)
(0.978908 -0.00718901 -6.6163e-23)
(0.981875 -0.00654752 4.08293e-23)
(0.984458 -0.00568582 3.78453e-23)
(0.986429 -0.00473119 9.53605e-24)
(0.987766 -0.0038586 4.75668e-23)
(0.988559 -0.00324117 6.90854e-24)
(0.989091 -0.00293159 2.16546e-23)
(0.98958 -0.00293781 -7.39138e-24)
(0.99033 -0.00306517 2.93586e-23)
(0.991306 -0.00328656 1.20023e-23)
(0.992735 -0.00324821 -1.33179e-23)
(0.994095 -0.00324514 -7.44354e-25)
(0.995938 -0.00269631 7.09742e-24)
(0.996953 -0.00254672 1.00119e-23)
(0.998892 -0.00160322 2.59203e-24)
(0.956111 -0.0121605 -2.74486e-22)
(0.959897 -0.0113751 1.76056e-22)
(0.963547 -0.0105893 8.57794e-24)
(0.966975 -0.0097854 1.32011e-23)
(0.970127 -0.00904506 -2.08967e-23)
(0.973026 -0.00847551 -3.09562e-23)
(0.975835 -0.0080887 1.86461e-23)
(0.978674 -0.00777188 2.52534e-23)
(0.981566 -0.0073467 1.31148e-23)
(0.98432 -0.00669061 -4.1232e-23)
(0.986701 -0.00580273 -1.37101e-23)
(0.988475 -0.00481543 6.95864e-23)
(0.989617 -0.00391176 -1.99877e-23)
(0.990214 -0.0032725 2.417e-23)
(0.990549 -0.00295352 2.30856e-23)
(0.990845 -0.00296301 -1.31861e-23)
(0.991398 -0.00310028 6.18321e-24)
(0.992189 -0.00333596 -1.53516e-23)
(0.993433 -0.00330561 5.02056e-24)
(0.994641 -0.00331058 1.1274e-23)
(0.996327 -0.00275439 -9.0415e-24)
(0.997255 -0.00260519 -3.97278e-24)
(0.999061 -0.00164168 -2.14498e-25)
(0.960759 -0.0123953 1.51926e-22)
(0.964264 -0.0115964 -1.97887e-23)
(0.967647 -0.0107967 2.46489e-23)
(0.97082 -0.00997495 -5.93182e-23)
(0.973723 -0.00921519 1.56759e-22)
(0.976374 -0.00863119 1.08753e-22)
(0.978938 -0.00823854 -1.75836e-23)
(0.981539 -0.00792134 -3.61046e-23)
(0.984208 -0.00749287 6.40956e-23)
(0.986752 -0.00682323 4.02196e-23)
(0.988935 -0.00590996 -2.38258e-23)
(0.990517 -0.00489041 -4.44224e-23)
(0.991467 -0.00395586 1.2367e-23)
(0.991872 -0.00329481 -1.66065e-23)
(0.992012 -0.00296646 -2.18131e-23)
(0.992114 -0.00297929 1.56236e-23)
(0.992471 -0.00312677 -1.90328e-23)
(0.993076 -0.00337714 2.0399e-23)
(0.994135 -0.00335565 -1.69121e-23)
(0.995191 -0.00336941 1.5581e-23)
(0.996719 -0.00280732 -5.93531e-25)
(0.997559 -0.00265913 4.8661e-24)
(0.999231 -0.00167742 -5.02584e-25)
(0.965318 -0.0126131 1.85531e-22)
(0.968553 -0.0118016 -1.18005e-22)
(0.971679 -0.0109891 9.60546e-23)
(0.974606 -0.0101504 -8.50454e-23)
(0.97727 -0.00937166 -1.93552e-22)
(0.979681 -0.00877342 4.80202e-25)
(0.982005 -0.00837531 1.04404e-22)
(0.984375 -0.00805849 3.288e-23)
(0.986825 -0.00762779 -8.71904e-23)
(0.989165 -0.00694565 -8.28663e-23)
(0.991155 -0.00600776 -5.01299e-23)
(0.99255 -0.00495638 -4.25597e-24)
(0.993311 -0.00399108 6.2143e-24)
(0.993527 -0.00330822 -5.96192e-24)
(0.993475 -0.00297052 -4.70098e-24)
(0.993384 -0.00298671 1.95778e-23)
(0.993546 -0.00314467 1.28036e-24)
(0.993966 -0.00341012 -6.01008e-24)
(0.99484 -0.00339834 2.56769e-23)
(0.995742 -0.00342162 -2.25741e-23)
(0.997113 -0.00285509 6.76834e-24)
(0.997864 -0.00270851 -5.25581e-24)
(0.999403 -0.00171044 -5.36596e-25)
(0.969776 -0.0128147 1.47462e-22)
(0.972753 -0.0119915 1.66157e-22)
(0.975631 -0.0111672 -1.81161e-22)
(0.978323 -0.0103123 -7.70992e-23)
(0.980756 -0.00951497 8.88962e-23)
(0.982935 -0.00890264 2.87368e-24)
(0.985029 -0.00849938 -5.88891e-23)
(0.987173 -0.00818365 -8.93242e-24)
(0.989409 -0.00775175 9.07237e-23)
(0.991552 -0.00705816 5.90695e-23)
(0.993354 -0.00609641 -9.20936e-24)
(0.994566 -0.00501359 5.06396e-23)
(0.995144 -0.00401765 -3.15118e-24)
(0.995175 -0.00331293 -2.07784e-23)
(0.994933 -0.00296581 1.42374e-23)
(0.994651 -0.00298535 -8.90561e-24)
(0.99462 -0.00315403 1.48507e-23)
(0.994855 -0.00343491 5.28069e-24)
(0.995545 -0.00343369 -6.52743e-24)
(0.996295 -0.00346721 9.83471e-24)
(0.997508 -0.00289769 -1.33215e-24)
(0.99817 -0.00275332 -2.08503e-24)
(0.999574 -0.00174074 1.01265e-24)
(0.974121 -0.0130008 -2.24555e-22)
(0.976851 -0.0121667 7.6855e-23)
(0.979494 -0.0113315 8.27488e-23)
(0.981961 -0.0104612 1.10125e-23)
(0.984172 -0.00964569 -6.34713e-23)
(0.986129 -0.00901934 4.85549e-24)
(0.987999 -0.00861117 -1.74239e-23)
(0.989924 -0.00829718 -2.85138e-23)
(0.991954 -0.00786509 -6.86156e-23)
(0.993905 -0.00716106 1.86639e-23)
(0.995525 -0.00617623 2.66673e-23)
(0.996561 -0.00506233 -3.6366e-23)
(0.996961 -0.00403582 -5.72828e-24)
(0.996811 -0.00330913 8.43054e-24)
(0.996382 -0.00295248 5.19034e-24)
(0.995913 -0.00297533 -2.07025e-23)
(0.99569 -0.00315493 -1.28843e-23)
(0.995742 -0.00345157 5.68324e-24)
(0.996249 -0.00346173 7.13191e-24)
(0.996847 -0.00350622 -2.36521e-24)
(0.997902 -0.00293513 5.44654e-24)
(0.998476 -0.00279358 4.09361e-24)
(0.999746 -0.0017683 -8.43191e-26)
(0.978343 -0.0131723 3.54229e-23)
(0.980839 -0.0123279 -3.85116e-23)
(0.983257 -0.0114828 7.69014e-23)
(0.985509 -0.0105978 7.63548e-23)
(0.98751 -0.00976438 4.12067e-23)
(0.989254 -0.00912405 -7.18939e-23)
(0.990908 -0.00871112 7.16192e-23)
(0.992623 -0.00839947 -7.28835e-23)
(0.994453 -0.00796816 1.94951e-23)
(0.996218 -0.00725472 -2.58638e-24)
(0.997664 -0.00624753 -1.44117e-24)
(0.998529 -0.00510291 -2.67131e-24)
(0.998757 -0.00404586 -1.93351e-23)
(0.998431 -0.00329705 -2.05148e-23)
(0.99782 -0.00293073 -1.45601e-24)
(0.997166 -0.00295678 2.82327e-23)
(0.996753 -0.00314748 -4.25187e-24)
(0.996625 -0.00346019 -1.1716e-23)
(0.996949 -0.00348252 -1.08592e-23)
(0.997396 -0.00353866 8.12251e-24)
(0.998295 -0.00296745 3.52364e-25)
(0.998781 -0.0028293 -2.18681e-24)
(0.999917 -0.00179314 -2.32601e-24)
(0.982434 -0.0133299 8.88182e-23)
(0.984708 -0.0124759 6.89706e-23)
(0.986913 -0.0116217 -2.13754e-22)
(0.988962 -0.0107227 3.80642e-23)
(0.990762 -0.00987167 6.95905e-23)
(0.992303 -0.00921731 -3.80609e-23)
(0.993751 -0.0087997 1.405e-23)
(0.995262 -0.00849093 8.73381e-23)
(0.996899 -0.00806133 -3.97458e-24)
(0.998486 -0.00733948 -2.5257e-23)
(0.999763 -0.00631069 -1.38009e-25)
(1.00046 -0.00513568 -5.60002e-24)
(1.00053 -0.00404808 3.6788e-24)
(1.00003 -0.00327694 -1.02916e-23)
(0.999241 -0.00290075 -3.71687e-23)
(0.998407 -0.00292988 -2.32625e-23)
(0.997808 -0.0031318 -1.08377e-23)
(0.9975 -0.00346085 -4.68145e-24)
(0.997644 -0.00349614 -4.02349e-24)
(0.997942 -0.0035646 -1.28658e-23)
(0.998686 -0.00299467 4.07089e-24)
(0.999085 -0.0028605 1.04219e-24)
(1.00009 -0.00181527 -5.82685e-25)
(0.986386 -0.0134746 -8.7899e-23)
(0.98845 -0.0126114 7.30426e-23)
(0.990454 -0.0117489 9.90554e-23)
(0.99231 -0.0108366 2.19751e-23)
(0.993921 -0.00996817 -1.45801e-23)
(0.995269 -0.00929969 -1.03555e-22)
(0.996519 -0.00887742 2.4042e-23)
(0.997835 -0.00857199 -9.20715e-23)
(0.999288 -0.00814501 -3.75933e-23)
(1.0007 -0.00741574 -1.1435e-23)
(1.00182 -0.00636608 -1.5582e-23)
(1.00236 -0.00516098 9.37072e-25)
(1.00227 -0.0040428 -5.67058e-24)
(1.00161 -0.00324909 4.13668e-23)
(1.00064 -0.00286278 3.56408e-23)
(0.999633 -0.00289479 2.71168e-23)
(0.99885 -0.00310804 1.10698e-23)
(0.998367 -0.00345367 1.35087e-24)
(0.998333 -0.00350267 1.43662e-25)
(0.998484 -0.00358412 -6.32224e-25)
(0.999073 -0.00301685 -6.21079e-24)
(0.999386 -0.00288722 -1.30009e-24)
(1.00026 -0.0018347 1.4301e-24)
(0.990193 -0.0136071 -1.9889e-23)
(0.99206 -0.0127353 1.76738e-22)
(0.993875 -0.0118652 -1.52529e-22)
(0.99555 -0.0109402 6.03584e-23)
(0.996982 -0.0100545 -5.1619e-23)
(0.998147 -0.00937175 5.49632e-24)
(0.999209 -0.00894478 7.48408e-23)
(1.00034 -0.0086431 -2.05013e-23)
(1.00161 -0.0082196 5.9852e-23)
(1.00286 -0.00748388 6.46554e-23)
(1.00383 -0.00641409 2.97275e-23)
(1.00422 -0.0051792 3.94536e-23)
(1.00397 -0.00403037 -1.29126e-23)
(1.00315 -0.00321379 -2.16822e-23)
(1.00202 -0.00281706 -1.21827e-23)
(1.00084 -0.00285173 6.43442e-24)
(0.999879 -0.00307637 1.39351e-23)
(0.999223 -0.00343881 -4.50945e-24)
(0.999014 -0.00350222 3.2729e-24)
(0.99902 -0.00359729 8.43075e-25)
(0.999457 -0.00303405 4.59803e-24)
(0.999684 -0.00290951 -3.55852e-25)
(1.00043 -0.00185146 -6.59894e-25)
(0.993851 -0.0137282 2.45833e-23)
(0.995533 -0.0128481 -1.38754e-22)
(0.99717 -0.0119711 -1.3949e-23)
(0.998674 -0.0110341 4.801e-23)
(0.999939 -0.0101313 -9.84068e-24)
(1.00093 -0.00943409 7.83529e-23)
(1.00181 -0.00900231 -4.45782e-23)
(1.00277 -0.00870473 7.89753e-23)
(1.00387 -0.00828553 -5.43907e-23)
(1.00497 -0.00754432 -5.81918e-23)
(1.00578 -0.00645511 -1.22068e-23)
(1.00604 -0.00519072 -2.161e-23)
(1.00564 -0.00401114 1.27605e-23)
(1.00467 -0.00317135 1.5871e-24)
(1.00338 -0.00276387 -1.49489e-23)
(1.00203 -0.00280093 -3.02838e-23)
(1.00089 -0.00303697 -3.3484e-24)
(1.00007 -0.0034164 1.40204e-23)
(0.999686 -0.00349493 2.99004e-24)
(0.999548 -0.00360422 2.94988e-24)
(0.999836 -0.00304635 -1.50775e-24)
(0.99998 -0.00292742 -1.24009e-24)
(1.00059 -0.00186558 1.29246e-25)
(0.997355 -0.013839 7.97186e-24)
(0.998865 -0.0129509 3.01182e-23)
(1.00033 -0.0120676 9.98752e-24)
(1.00168 -0.011119 -1.01113e-23)
(1.00279 -0.0101993 -1.88471e-23)