/*--------------------------------*- C++ -*----------------------------------*\
  =========                 |
  \\      /  F ield         | OpenFOAM: The Open Source CFD Toolbox
   \\    /   O peration     | Website:  https://openfoam.org
    \\  /    A nd           | Version:  7
     \\/     M anipulation  |
\*---------------------------------------------------------------------------*/
FoamFile
{
    version     2.0;
    format      ascii;
    class       surfaceScalarField;
    location    "60";
    object      phi;
}
// * * * * * * * * * * * * * * * * * * * * * * * * * * * * * * * * * * * * * //

dimensions      [0 3 -1 0 0 0 0];

internalField   nonuniform List<scalar> 
8921
(
-0.00236023
-0.00102301
-0.00228804
-0.00104191
-0.00221493
-0.00106024
-0.00100398
-0.00208661
-0.00214091
-0.001078
-0.00102026
-0.0020136
-0.00206601
-0.00109517
-0.00103598
-0.00193974
-0.00199024
-0.00111175
-0.00105112
-0.00186507
-0.00191363
-0.00112773
-0.000990218
-0.00174507
-0.00106568
-0.00178961
-0.00183621
-0.0011431
-0.00100342
-0.00167074
-0.00107965
-0.00171338
-0.001758
-0.00115786
-0.00101607
-0.00159569
-0.00109303
-0.00163642
-0.00167905
-0.00117199
-0.00102814
-0.00151995
-0.0011058
-0.00155875
-0.00159937
-0.00118548
-0.00096324
-0.00140876
-0.00103963
-0.00144356
-0.00111798
-0.00148041
-0.001519
-0.00119835
-0.000973531
-0.0013336
-0.00105055
-0.00136654
-0.00112954
-0.00140143
-0.00143796
-0.00121057
-0.000983271
-0.00125785
-0.00106089
-0.00128892
-0.00114048
-0.00132183
-0.00135631
-0.00122214
-0.000992456
-0.00118155
-0.00107064
-0.00121074
-0.00115081
-0.00124166
-0.00127406
-0.00123305
-0.00100108
-0.00110473
-0.00107979
-0.00113203
-0.00116051
-0.00116095
-0.00119125
-0.00124331
-0.000931845
-0.00100354
-0.00100915
-0.00102742
-0.00108836
-0.00105282
-0.00116958
-0.00107973
-0.00110793
-0.00125291
-0.000938896
-0.000927579
-0.00101665
-0.000949665
-0.00109633
-0.000973149
-0.00117802
-0.000998033
-0.00102411
-0.00126184
-0.000945413
-0.00085121
-0.00102359
-0.000871486
-0.00110369
-0.000893048
-0.00118583
-0.000915897
-0.000939845
-0.0012701
-0.000951396
-0.000774463
-0.00102996
-0.000792921
-0.00111046
-0.000812552
-0.001193
-0.000833356
-0.000855164
-0.00127768
-0.000956843
-0.00069737
-0.00103576
-0.000714004
-0.00111662
-0.000731697
-0.00119952
-0.000750447
-0.000770104
-0.00128458
-0.000961751
-0.000619966
-0.00104099
-0.000634769
-0.00112217
-0.000650516
-0.00120541
-0.000667205
-0.000684703
-0.00129081
-0.00096612
-0.000542284
-0.00104564
-0.000555251
-0.00112711
-0.000569046
-0.00121065
-0.000583667
-0.000598998
-0.00129635
-0.000969947
-0.000464359
-0.00104971
-0.000475485
-0.00113144
-0.000487323
-0.00121523
-0.000499869
-0.000513026
-0.00130121
-0.000973231
-0.000386225
-0.00105321
-0.000395505
-0.00113515
-0.000405381
-0.00121917
-0.000415848
-0.000426825
-0.00130537
-0.000975972
-0.000307916
-0.00105613
-0.000315348
-0.00113825
-0.000323257
-0.00122246
-0.00033164
-0.000340432
-0.00130885
-0.000978168
-0.000229467
-0.00105847
-0.000235048
-0.00114074
-0.000240987
-0.0012251
-0.000247282
-0.000253886
-0.00131164
-0.000901265
-0.000147416
-0.00097982
-0.000150913
-0.00106023
-0.00015464
-0.00114261
-0.000158607
-0.00122708
-0.000162812
-0.000167225
-0.00131374
-0.0009023
-7.05316e-05
-0.000980925
-7.22875e-05
-0.0010614
-7.416e-05
-0.00114386
-7.61535e-05
-0.0012284
-7.82672e-05
-8.04864e-05
-0.00131514
-0.000902824
6.38808e-06
-0.000981485
6.3733e-06
-0.001062
6.35627e-06
-0.00114449
6.33725e-06
-0.00122907
6.31619e-06
6.29109e-06
-0.00131585
-0.000902836
8.33087e-05
-0.000981498
8.50351e-05
-0.00106201
8.68735e-05
-0.00114451
8.88289e-05
-0.00122909
9.09005e-05
9.30699e-05
-0.00131587
-0.000902337
0.000160196
-0.000980965
0.000163663
-0.00106145
0.000167356
-0.0011439
0.000171285
-0.00122845
0.000175448
0.000179811
-0.00131519
-0.000901326
-0.000979886
0.000242222
-0.0010603
0.000247769
-0.00114268
0.00025367
-0.00122716
0.000259923
0.000266477
-0.00131382
-0.000978261
0.000320678
-0.00105857
0.000328076
-0.00114084
0.000335946
-0.00122521
0.000344287
0.000353029
-0.00131176
-0.000976091
0.000398996
-0.00105626
0.000408242
-0.00113839
0.000418079
-0.00122261
0.000428503
0.00043943
-0.00130901
-0.000973377
0.000477141
-0.00105337
0.000488232
-0.00113532
0.000500031
-0.00121935
0.000512534
0.000525641
-0.00130556
-0.000970119
0.000555079
-0.0010499
0.00056801
-0.00113163
0.000581767
-0.00121544
0.000596344
0.000611624
-0.00130143
-0.000966318
0.000632775
-0.00104585
0.000647543
-0.00112733
0.000663251
-0.00121089
0.000679896
0.000697342
-0.0012966
-0.000961976
0.000710196
-0.00104123
0.000726794
-0.00112242
0.000744448
-0.00120568
0.000763154
0.000782759
-0.0012911
-0.000957095
0.000787307
-0.00103603
0.00080573
-0.0011169
0.000825321
-0.00119983
0.000846081
0.000867835
-0.00128491
-0.000951675
0.000864075
-0.00103026
0.000884315
-0.00111078
0.000905837
-0.00119334
0.000928641
0.000952535
-0.00127804
-0.000945718
0.000940467
-0.00102392
0.000962517
-0.00110404
0.00098596
-0.0011862
0.0010108
0.00103682
-0.00127049
-0.000939227
0.00101645
-0.00101701
0.0010403
-0.00109671
0.00106566
-0.00117843
0.00109252
0.00112066
-0.00126227
-0.000932204
-0.00100954
0.00111763
-0.00108877
0.00114489
-0.00117002
0.00117377
0.00120401
-0.00125337
-0.0010015
0.00119448
-0.00108024
0.00122363
-0.00116098
0.00125451
0.00128685
-0.00124381
-0.0009929
0.00127081
-0.00107111
0.00130184
-0.00115131
0.00133471
0.00136912
-0.00123359
-0.000983744
0.0013466
-0.00106139
0.00137949
-0.00114102
0.00141433
0.00145081
-0.00122271
-0.000974034
0.0014218
-0.00105109
0.00145655
-0.00113011
0.00149335
0.00153188
-0.00121117
-0.000963772
-0.0010402
0.00153298
-0.00111858
0.00157173
0.00161228
-0.00119899
-0.00102874
0.00160876
-0.00110645
0.00164944
0.001692
-0.00118616
-0.0010167
0.00168385
-0.0010937
0.00172644
0.001771
-0.0011727
-0.00100409
0.00175822
-0.00108036
0.00180271
0.00184925
-0.00115861
-0.000990915
-0.00106643
0.00187822
0.00192672
-0.00114389
-0.0010519
0.00195295
0.00200338
-0.00112856
-0.0010368
0.00202685
0.0020792
-0.00111262
-0.00102111
0.00215416
-0.00109607
0.00222824
-0.00107894
0.00230141
-0.00106122
-0.00104293
0.00559817
6.06471e-05
-5.68402e-05
0.0055875
0.00016966
-0.000158996
0.00557096
0.00026744
-0.000250895
0.00554923
0.000357742
-0.000336013
0.00552276
0.000444173
-0.00041771
0.00549215
0.000528878
-0.000498262
0.00545764
0.000613747
-0.000579239
0.00541987
0.000699745
-0.000661974
0.00537911
0.000788245
-0.000747482
0.00533619
0.000879274
-0.000836361
0.00529155
0.000974153
-0.000929512
0.00524643
0.00107187
-0.00102675
0.00520149
0.00117396
-0.00112902
0.00515864
0.00127788
-0.00123502
0.00511874
0.00138594
-0.00134604
0.00508475
0.00149281
-0.00145883
0.0050573
0.00160334
-0.00157589
0.0050414
0.00170591
-0.00169001
0.00503563
0.001814
-0.00180823
0.00505047
0.00189795
-0.0019128
0.00200327
-0.00202883
0.00573144
6.4368e-05
0.00572096
0.000180141
0.00570469
0.000283708
0.0056834
0.000379034
0.00565752
0.000470052
0.00562775
0.000558645
0.00559436
0.000647135
0.00555814
0.000735967
0.00551937
0.000827012
0.00547912
0.000919529
0.00543781
0.00101547
0.00539698
0.00111269
0.00535725
0.00121369
0.00532093
0.0013142
0.00528862
0.00141825
0.00526388
0.00151755
0.00524663
0.00162058
0.00524265
0.00170989
0.0052495
0.00180714
0.00527733
0.00187013
0.00196076
0.00586787
6.80054e-05
0.00585765
0.000190358
0.0058418
0.000299566
0.00582111
0.00039972
0.00579606
0.000495104
0.0057674
0.000587304
0.00573547
0.000679068
0.00570112
0.000770309
0.00566476
0.000863381
0.00562752
0.000956769
0.00558993
0.00105305
0.00555366
0.00114896
0.00551938
0.00124798
0.0054895
0.00134408
0.00546461
0.00144314
0.00544825
0.00153392
0.00544028
0.00162855
0.00544585
0.00170431
0.00546315
0.00178985
0.00549863
0.00183464
0.00191057
0.00600757
7.15412e-05
0.00599767
0.000200258
0.00598232
0.000314914
0.00596238
0.000419663
0.00593834
0.000519145
0.00591101
0.000614634
0.00588079
0.000709283
0.00584862
0.000802478
0.00581497
0.000897035
0.00578106
0.000990677
0.00574751
0.0010866
0.00571604
0.00118043
0.00568737
0.00127665
0.00566388
0.00136756
0.00564621
0.00146082
0.00563754
0.00154258
0.00563794
0.00162815
0.00565134
0.00169092
0.00567684
0.00176435
0.00571735
0.00179413
0.00185542
0.0061506
7.49575e-05
0.00614107
0.000209791
0.00612631
0.000329666
0.00610723
0.000438745
0.00608436
0.000542022
0.00605854
0.00064045
0.00603026
0.000737564
0.0060005
0.000832239
0.00596981
0.00092772
0.00593948
0.00102101
0.0059102
0.00111588
0.00588368
0.00120695
0.00586071
0.00129961
0.00584353
0.00138474
0.00583283
0.00147153
0.00583128
0.00154413
0.00583921
0.00162021
0.0058592
0.00167094
0.00589124
0.00173231
0.00593594
0.00174942
0.0017966
0.00629705
7.82368e-05
0.00628793
0.00021891
0.00627385
0.000343744
0.00625573
0.000456859
0.00623416
0.0005636
0.00621001
0.000664594
0.00618385
0.000763732
0.00615669
0.000859398
0.00612916
0.000955242
0.00610259
0.00104758
0.00607772
0.00114075
0.00605622
0.00122844
0.00603894
0.0013169
0.00602787
0.0013958
0.00602379
0.00147561
0.00602878
0.00153914
0.00604339
0.0016056
0.00606904
0.0016453
0.00610633
0.00169502
0.00615448
0.00170127
0.00173561
0.00644699
8.1362e-05
0.00643833
0.000227567
0.006425
0.000357072
0.00640796
0.000473906
0.0063878
0.000583757
0.00636547
0.000686924
0.00634157
0.000787634
0.00631716
0.000883802
0.00629295
0.000979453
0.00627025
0.00107029
0.00624986
0.00116114
0.00623336
0.00124493
0.00622164
0.00132862
0.00621642
0.00140102
0.00621853
0.00147351
0.00622944
0.00152822
0.0062499
0.00158514
0.00628038
0.00161482
0.00632181
0.00165359
0.00637248
0.00165059
0.00167365
0.00660051
8.43155e-05
0.00659236
0.000235718
0.00657986
0.000369573
0.00656397
0.000489791
0.00654535
0.000602377
0.00652496
0.000707316
0.00650346
0.000809138
0.00648193
0.000905328
0.00646113
0.00100025
0.00644235
0.00108907
0.00642645
0.00117705
0.00641486
0.00125652
0.00640851
0.00133497
0.0064088
0.00140074
0.0064166
0.00146571
0.00643283
0.00151199
0.00645832
0.00155964
0.00649285
0.0015803
0.00653743
0.00160901
0.00658981
0.00159821
0.00161147
0.00675769
8.70802e-05
0.0067501
0.000243316
0.00673849
0.000381178
0.00672386
0.000504424
0.00670688
0.000619357
0.00668854
0.000725659
0.00666954
0.000828134
0.00665098
0.000923884
0.00663367
0.00101756
0.00661883
0.00110391
0.00660736
0.00118851
0.00660053
0.00126334
0.00659929
0.00133621
0.00660471
0.00139533
0.00661766
0.00145275
0.0066386
0.00149105
0.00666836
0.00152989
0.0067062
0.00154246
0.00675311
0.0015621
0.00680655
0.00154476
0.00154961
0.00691863
8.96396e-05
0.00691162
0.000250319
0.00690099
0.000391818
0.00688769
0.000517723
0.00687244
0.0006346
0.00685624
0.000741859
0.00683985
0.00084453
0.00682432
0.000939407
0.00681053
0.00103136
0.0067996
0.00111484
0.00679246
0.00119565
0.00679021
0.0012656
0.00679377
0.00133265
0.00680391
0.00138519
0.00682148
0.00143519
0.00684653
0.001466
0.00687983
0.00149659
0.00692032
0.00150198
0.00696887
0.00151355
0.00702286
0.00149077
0.00148846
0.0070834
9.19774e-05
0.00707703
0.000256688
0.00706742
0.000401429
0.00705553
0.000529613
0.00704211
0.000648022
0.00702813
0.000755836
0.0070144
0.000858259
0.00700195
0.000951857
0.00699167
0.00104164
0.00698459
0.00112193
0.00698165
0.00119859
0.00698374
0.00126351
0.00699177
0.00132462
0.00700621
0.00137075
0.00702785
0.00141355
0.00705645
0.0014374
0.00709265
0.00146039
0.00713518
0.00145944
0.0071848
0.00146393
0.0072389
0.00143667
0.00142835
0.0072521
9.40786e-05
0.0072464
0.000262386
0.00723787
0.000409954
0.00722746
0.000540027
0.00721593
0.00065955
0.00720424
0.000767528
0.00719323
0.000869272
0.00718386
0.00096122
0.00717706
0.00104844
0.00717374
0.00112525
0.00717482
0.0011975
0.007181
0.00125732
0.00719314
0.00131248
0.00721147
0.00135242
0.00723666
0.00138835
0.00726826
0.0014058
0.00730678
0.00142187
0.00735084
0.00141538
0.00740107
0.00141371
0.0074549
0.00138283
0.0013695
0.00742481
9.59293e-05
0.00741982
0.00026738
0.00741243
0.000417341
0.00740355
0.000548909
0.00739397
0.000669127
0.00738461
0.000776888
0.00737634
0.000877547
0.00737005
0.00096751
0.00736666
0.00105183
0.00736697
0.00112494
0.00737187
0.0011926
0.00738188
0.00124732
0.00739776
0.0012966
0.00741956
0.00133062
0.00744782
0.00136009
0.00748193
0.0013717
0.00752226
0.00138153
0.00756739
0.00137025
0.00761782
0.00136328
0.00767111
0.00132954
0.00131208
0.00760164
9.75172e-05
0.00759738
0.00027164
0.00759118
0.000423548
0.00758387
0.000556211
0.00757629
0.00067671
0.00756929
0.000783889
0.00756375
0.000883084
0.0075605
0.000970761
0.00756044
0.00105189
0.00756424
0.00112114
0.00757273
0.00118411
0.00758628
0.00123377
0.00760554
0.00127733
0.0076304
0.00130577
0.00766128
0.00132921
0.00769744
0.00133554
0.00773915
0.00133982
0.00778496
0.00132444
0.00783527
0.00131296
0.00788779
0.00127702
0.00125621
0.00778268
9.88319e-05
0.00777918
0.000275143
0.00777419
0.00042854
0.0077685
0.000561898
0.00776294
0.000682272
0.00775831
0.00078852
0.00775549
0.000885906
0.00775521
0.000971032
0.00775836
0.00104875
0.00776548
0.00111403
0.00777733
0.00117226
0.00779412
0.00121697
0.00781641
0.00125505
0.00784394
0.00127824
0.00787702
0.00129613
0.00791482
0.00129774
0.00795752
0.00129712
0.00800368
0.00127828
0.00805362
0.00126301
0.00810521
0.00122544
0.00120196
0.00796803
9.98649e-05
0.0079653
0.000277868
0.00796155
0.000432291
0.0079575
0.000565947
0.00795397
0.000685802
0.0079517
0.00079079
0.00795155
0.000886055
0.00795418
0.000968405
0.0079604
0.00104253
0.00797065
0.00110377
0.0079856
0.00115731
0.00800535
0.00119722
0.00803032
0.00123008
0.00806015
0.0012484
0.00809504
0.00126124
0.00813413
0.00125866
0.00817748
0.00125377
0.00822372
0.00123205
0.00827309
0.00121363
0.00832361
0.00117492
0.00114935
0.00815778
0.00010061
0.00815584
0.000279802
0.00815335
0.000434786
0.00815095
0.000568344
0.00814945
0.000687307
0.00814951
0.000790725
0.00815197
0.000883596
0.00815739
0.000962981
0.00816653
0.00103339
0.00817972
0.00109059
0.00819752
0.00113951
0.00821992
0.00117482
0.00824724
0.00120276
0.00827903
0.00121661
0.00831539
0.00122488
0.00835543
0.00121862
0.00839916
0.00121004
0.00844524
0.00118596
0.00849389
0.00116498
0.00854326
0.00112556
0.0010984
0.00835203
0.000101064
0.0083509
0.000280934
0.00834967
0.000436019
0.00834892
0.00056909
0.00834942
0.000686805
0.00835178
0.000788369
0.00835677
0.00087861
0.00836487
0.00095488
0.00837675
0.00102151
0.00839266
0.00107468
0.00841305
0.00111912
0.00843781
0.00115006
0.00846717
0.0011734
0.0085006
0.00118317
0.00853812
0.00118736
0.00857884
0.0011779
0.0086227
0.00116618
0.00866844
0.00114022
0.00871624
0.00111719
0.00876439
0.00107741
0.0010491
0.00855091
0.000101225
0.00855058
0.000281262
0.0085506
0.000435993
0.00855149
0.0005682
0.00855397
0.000684334
0.00855855
0.000783783
0.00856596
0.000871198
0.00857661
0.000944237
0.00859106
0.00100706
0.00860947
0.00105627
0.00863219
0.0010964
0.00865904
0.00112321
0.00869013
0.00114231
0.00872491
0.00114839
0.00876331
0.00114895
0.00880445
0.00113677
0.00884824
0.00112239
0.00889349
0.00109497
0.00894034
0.00107033
0.00898723
0.00103052
0.00100141
0.0087545
0.000101094
0.00875497
0.000280788
0.00875624
0.000434721
0.00875874
0.000565698
0.00876313
0.000679944
0.00876987
0.000777044
0.0087796
0.000861471
0.00879263
0.000931203
0.00880946
0.00099023
0.00883015
0.00103558
0.00885495
0.0010716
0.00888362
0.00109454
0.00891617
0.00110976
0.00895202
0.00111254
0.00899105
0.00110992
0.0090324
0.00109542
0.00907595
0.00107884
0.00912058
0.00105035
0.00916642
0.00102449
0.00921203
0.000984902
0.000955323
0.00896292
0.000100675
0.00896418
0.000279521
0.00896668
0.000432226
0.00897075
0.000561623
0.008977
0.000673698
0.0089858
0.000768244
0.00899771
0.000849558
0.00901298
0.000915938
0.00903199
0.000971218
0.00905473
0.00101284
0.00908137
0.00104496
0.00911159
0.00106433
0.00914534
0.00107601
0.00918202
0.00107586
0.00922146
0.00107047
0.00926283
0.00105405
0.00930599
0.00103568
0.0093499
0.00100644
0.00939467
0.000979721
0.009439
0.000940571
0.000910783
0.00917628
9.99728e-05
0.00917833
0.000277477
0.00918201
0.000428541
0.00918761
0.000556024
0.00919563
0.000665674
0.00920639
0.000757486
0.00922035
0.000835595
0.00923768
0.00089861
0.00925868
0.000950224
0.00928325
0.000988271
0.00931148
0.00101673
0.00934301
0.0010328
0.00937772
0.0010413
0.00941501
0.00103858
0.00945467
0.00103081
0.00949589
0.00101283
0.00953854
0.000993022
0.00958165
0.000963326
0.00962533
0.000936048
0.00966837
0.000897526
0.000867753
0.0093947
9.8996e-05
0.0093975
0.000274676
0.00940234
0.000423706
0.0094094
0.000548964
0.00941912
0.000655959
0.00943171
0.000744887
0.00944758
0.000819729
0.0094668
0.000879395
0.00948957
0.000927447
0.00951576
0.000962087
0.00954535
0.000987127
0.00957796
0.00100019
0.00961342
0.00100584
0.00965111
0.00100089
0.00969081
0.000991109
0.00973175
0.000971885
0.0097738
0.000950978
0.00981604
0.00092108
0.00985859
0.000893499
0.00990036
0.000855759
0.000826191
0.0096183
9.77541e-05
0.00962183
0.000271146
0.00962777
0.000417768
0.00963622
0.000540512
0.00964753
0.00064465
0.00966184
0.000730572
0.00967946
0.000802113
0.00970038
0.000858471
0.00972475
0.000903087
0.00975233
0.000934503
0.00978307
0.000956381
0.00981654
0.000966724
0.00985254
0.000969842
0.00989046
0.000962976
0.00993005
0.000951515
0.00997059
0.000931342
0.0100119
0.000909627
0.0100533
0.000879749
0.0100947
0.000852088
0.0101352
0.000815256
0.000786053
0.0098472
9.62588e-05
0.00985143
0.000266919
0.00985841
0.000410785
0.00986817
0.000530748
0.00988097
0.000631855
0.00989687
0.000714673
0.00991607
0.000782905
0.00993853
0.000836017
0.00996427
0.000877339
0.00999305
0.000905727
0.0100247
0.000924695
0.0100589
0.000932588
0.0100952
0.000933485
0.0101332
0.000925002
0.0101726
0.000912163
0.0102126
0.000891305
0.0102532
0.000869038
0.0102936
0.000839371
0.0103338
0.000811824
0.0103731
0.000776003
0.000747298
0.0100815
9.45237e-05
0.0100864
0.000262032
0.0100944
0.000402818
0.0101054
0.000519761
0.0101195
0.000617686
0.0101369
0.000697329
0.0101575
0.000762267
0.0101813
0.000812215
0.0102083
0.000850396
0.010238
0.000875955
0.0102705
0.000892262
0.0103051
0.000897972
0.0103416
0.000896937
0.0103795
0.00088711
0.0104185
0.00087317
0.010458
0.000851859
0.0104977
0.000829269
0.0105371
0.000799977
0.0105762
0.000772708
0.0106143
0.000737981
0.000709885
0.0103214
9.25637e-05
0.0103269
0.000256527
0.0103358
0.000393936
0.0103479
0.000507643
0.0103633
0.000602262
0.010382
0.000678681
0.0104039
0.00074036
0.0104288
0.00078724
0.0104568
0.000822443
0.0104874
0.000845374
0.0105204
0.000859265
0.0105553
0.000863044
0.0105919
0.000860349
0.0106296
0.000849429
0.0106681
0.000834638
0.0107069
0.000813081
0.0107458
0.000790366
0.0107842
0.000761589
0.0108221
0.000734739
0.010859
0.000701171
0.000673774
0.0105669
9.03949e-05
0.010573
0.000250448
0.0105827
0.00038421
0.0105959
0.000494493
0.0106124
0.000585707
0.0106323
0.000658875
0.0106553
0.000717346
0.0106812
0.000761267
0.01071
0.00079366
0.0107412
0.000814163
0.0107746
0.000825873
0.0108097
0.000827961
0.0108462
0.000823855
0.0108836
0.000812072
0.0109215
0.000796653
0.0109596
0.000775033
0.0109976
0.000752368
0.011035
0.000724224
0.0110718
0.00069791
0.0111074
0.000665552
0.00063893
0.0108183
8.80347e-05
0.0108249
0.000243846
0.0108354
0.000373719
0.0108495
0.000480414
0.010867
0.000568145
0.0108879
0.000638056
0.0109118
0.000693384
0.0109386
0.000734463
0.0109681
0.000764216
0.0109997
0.000782489
0.0110334
0.000792243
0.0110685
0.000792864
0.0111047
0.000787579
0.0111417
0.000775139
0.011179
0.000759293
0.0112163
0.00073777
0.0112534
0.000715304
0.0112897
0.000687892
0.0113254
0.000662214
0.0113598
0.000631103
0.000605316
0.0110756
8.55013e-05
0.0110827
0.00023677
0.0110939
0.00036254
0.0111088
0.00046551
0.0111272
0.000549704
0.0111489
0.000616366
0.0111737
0.00066863
0.0112011
0.000706991
0.0112311
0.000734275
0.0112631
0.000750508
0.0112968
0.000758519
0.0113318
0.000757882
0.0113677
0.00075163
0.0114041
0.000738719
0.0114408
0.000722623
0.0114772
0.000701336
0.0115133
0.000679199
0.0115486
0.000652602
0.0115832
0.000627642
0.0116165
0.000597803
0.000572898
0.011339
8.28135e-05
0.0113465
0.000229272
0.0113583
0.000350755
0.0113739
0.000449887
0.0113931
0.000530508
0.0114156
0.000593947
0.011441
0.000643234
0.0114689
0.000679005
0.0114992
0.000703987
0.0115314
0.000718365
0.0115651
0.000724834
0.0115998
0.000723131
0.0116353
0.000716103
0.0116712
0.000702888
0.0117071
0.000686699
0.0117427
0.000665768
0.0117778
0.00064407
0.011812
0.000618356
0.0118455
0.000594181
0.0118777
0.000565631
0.000541645
0.0116087
7.99905e-05
0.0116166
0.000221407
0.0116289
0.000338446
0.0116451
0.000433651
0.0116649
0.000510682
0.0116879
0.000570937
0.0117138
0.000617342
0.0117422
0.000650652
0.0117727
0.000673496
0.0118048
0.000686192
0.0118384
0.000691307
0.0118728
0.000688716
0.0119078
0.000681086
0.011943
0.000667715
0.0119781
0.00065157
0.0120128
0.000631098
0.0120469
0.000609933
0.0120801
0.000585154
0.0121125
0.000561819
0.0121435
0.000534565
0.000511527
0.0118847
7.70515e-05
0.0118929
0.000213226
0.0119057
0.000325694
0.0119224
0.000416906
0.0119427
0.000490346
0.0119662
0.000547468
0.0119925
0.00059109
0.012021
0.00062207
0.0120516
0.000642934
0.0120837
0.000654114
0.0121169
0.000658047
0.0121509
0.000654729
0.0121854
0.000646652
0.0122198
0.000633256
0.0122541
0.000617275
0.0122879
0.000597348
0.012321
0.000576795
0.0123532
0.000552993
0.0123844
0.000530541
0.0124144
0.000504584
0.000482513
0.0121673
7.40158e-05
0.0121758
0.000204784
0.0121889
0.00031258
0.012206
0.000399754
0.0122268
0.000469618
0.0122506
0.000523667
0.012277
0.000564609
0.0123057
0.000593387
0.0123362
0.000612423
0.0123681
0.000622242
0.012401
0.000625153
0.0124345
0.000621254
0.0124683
0.000612869
0.0125019
0.000599561
0.0125354
0.000583847
0.0125682
0.000564539
0.0126003
0.000544663
0.0126314
0.000521869
0.0126616
0.000500332
0.0126906
0.000475666
0.000454575
0.0124566
7.09022e-05
0.0124652
0.000196133
0.0124786
0.000299181
0.0124961
0.000382292
0.0125171
0.00044861
0.0125411
0.000499652
0.0125677
0.000538022
0.0125964
0.000564723
0.0126267
0.000582075
0.0126583
0.000590676
0.0126907
0.000592711
0.0127236
0.000588361
0.0127567
0.000579792
0.0127896
0.000566672
0.0128221
0.000551313
0.012854
0.000532683
0.0128851
0.000513537
0.0129152
0.000491773
0.0129444
0.000471177
0.0129722
0.000447789
0.000427685
0.0127527
6.77291e-05
0.0127615
0.000187324
0.0127752
0.000285573
0.0127928
0.000364615
0.012814
0.000427427
0.0128381
0.000475538
0.0128647
0.000511441
0.0128932
0.000536186
0.0129233
0.000551989
0.0129545
0.000559506
0.0129864
0.000560799
0.0130187
0.000556115
0.013051
0.00054747
0.013083
0.000534622
0.0131146
0.000519694
0.0131455
0.00050179
0.0131757
0.000483416
0.0132047
0.000462696
0.0132329
0.000443056
0.0132597
0.000420931
0.000401816
0.0130559
6.45141e-05
0.0130648
0.000178405
0.0130786
0.000271828
0.0130964
0.00034681
0.0131176
0.000406168
0.0131417
0.000451427
0.0131682
0.000484969
0.0131965
0.000507877
0.0132262
0.000522258
0.0132569
0.000528813
0.0132883
0.000529482
0.0133198
0.000524568
0.0133513
0.000515942
0.0133825
0.000503439
0.0134132
0.000489004
0.0134431
0.000471865
0.0134722
0.000454295
0.0135003
0.000434626
0.0135274
0.000415952
0.0135533
0.00039507
0.000376939
0.0133662
6.12739e-05
0.0133752
0.000169421
0.013389
0.000258012
0.0134069
0.000328961
0.0134281
0.000384926
0.0134521
0.000427416
0.0134784
0.000458702
0.0135064
0.000479883
0.0135357
0.000492961
0.0135658
0.000498666
0.0135965
0.000498819
0.0136273
0.000493766
0.013658
0.000485241
0.0136883
0.000473143
0.0137181
0.000459253
0.013747
0.000442907
0.0137751
0.000426166
0.0138022
0.000407548
0.0138283
0.000389844
0.0138532
0.000370181
0.000353028
0.013684
5.80242e-05
0.013693
0.000160417
0.0137068
0.000244189
0.0137246
0.000311145
0.0137457
0.000363784
0.0137696
0.000403591
0.0137955
0.000432723
0.0138231
0.000452284
0.0138519
0.000464169
0.0138815
0.000469125
0.0139114
0.000468858
0.0139415
0.000463746
0.0139713
0.000455391
0.0140007
0.000443749
0.0140295
0.000430445
0.0140575
0.000414913
0.0140846
0.000399017
0.0141108
0.000381446
0.0141359
0.00036471
0.0141598
0.000346241
0.000330055
0.0140092
5.47794e-05
0.0140182
0.000151431
0.014032
0.000230416
0.0140497
0.00029343
0.0140706
0.000342818
0.0140942
0.00038003
0.0141198
0.000407108
0.014147
0.000425149
0.0141752
0.000435942
0.0142041
0.00044024
0.0142333
0.000439639
0.0142625
0.000434536
0.0142915
0.000426411
0.01432
0.000415265
0.0143478
0.00040258
0.0143749
0.000387876
0.014401
0.000372835
0.0144262
0.000356301
0.0144504
0.000340527
0.0144734
0.000323223
0.000307991
0.0143422
5.15525e-05
0.0143511
0.000142498
0.0143648
0.000216746
0.0143823
0.00027588
0.014403
0.000322096
0.0144263
0.0003568
0.0144515
0.00038192
0.0144781
0.000398537
0.0145057
0.00040833
0.0145339
0.000412054
0.0145623
0.000411192
0.0145907
0.000406158
0.0146188
0.000398312
0.0146464
0.000387695
0.0146733
0.000375654
0.0146994
0.000361785
0.0147246
0.000347603
0.0147488
0.000332092
0.0147721
0.000317271
0.0147942
0.000301102
0.000286807
0.014683
4.83552e-05
0.0146919
0.000133651
0.0147054
0.000203224
0.0147227
0.00025855
0.0147432
0.000301678
0.014766
0.000333962
0.0147907
0.000357217
0.0148167
0.000372496
0.0148437
0.000381375
0.0148712
0.000384597
0.0148988
0.00038354
0.0149263
0.000378625
0.0149536
0.000371099
0.0149802
0.000361036
0.0150062
0.000349656
0.0150314
0.000336623
0.0150557
0.000323301
0.015079
0.000308796
0.0151013
0.000294914
0.0151226
0.000279848
0.000266473
0.015032
4.5198e-05
0.0150408
0.000124918
0.0150541
0.00018989
0.0150711
0.000241487
0.0150912
0.000281612
0.0151136
0.000311565
0.0151378
0.000333042
0.0151632
0.000347066
0.0151895
0.000355108
0.0152162
0.000357893
0.015243
0.000356698
0.0152697
0.000351943
0.015296
0.000344771
0.0153218
0.000335279
0.0153469
0.000324572
0.0153711
0.000312374
0.0153945
0.000299905
0.0154169
0.000286386
0.0154384
0.000273429
0.0154588
0.000259433
0.000246959
0.0153893
4.20894e-05
0.0153979
0.000116322
0.015411
0.000176779
0.0154277
0.000224731
0.0154474
0.000261942
0.0154693
0.000289647
0.0154929
0.000309431
0.0155177
0.000322277
0.0155433
0.000329551
0.0155692
0.000331957
0.0155952
0.000330673
0.0156211
0.000326112
0.0156465
0.000319321
0.0156714
0.000310412
0.0156956
0.000300385
0.0157189
0.000289013
0.0157415
0.000277389
0.015763
0.000264835
0.0157837
0.000252784
0.0158033
0.000239825
0.00022823
0.015755
3.90368e-05
0.0157635
0.000107883
0.0157763
0.000163918
0.0157927
0.000208313
0.015812
0.000242698
0.0158334
0.00026824
0.0158564
0.000286411
0.0158805
0.000298148
0.0159054
0.000304718
0.0159305
0.000306795
0.0159557
0.000305463
0.0159807
0.000301125
0.0160053
0.000294734
0.0160293
0.000286415
0.0160526
0.000277069
0.0160751
0.000266514
0.0160968
0.000255724
0.0161175
0.000244111
0.0161374
0.000232946
0.0161562
0.000220991
0.000210254
0.0161295
3.60457e-05
0.0161377
9.96163e-05
0.0161503
0.000151328
0.0161664
0.000192259
0.0161852
0.000223905
0.016206
0.000247364
0.0162285
0.000263997
0.0162519
0.00027469
0.016276
0.000280612
0.0163004
0.000282404
0.0163248
0.000281059
0.016349
0.000276967
0.0163727
0.00027099
0.0163959
0.000263265
0.0164183
0.000254599
0.01644
0.000244847
0.0164608
0.000234876
0.0164808
0.00022418
0.0164998
0.000213881
0.0165179
0.000202896
0.000192995
0.0165128
3.31203e-05
0.0165209
9.1532e-05
0.0165332
0.000139025
0.0165489
0.000176584
0.0165672
0.000205579
0.0165875
0.000227032
0.0166093
0.000242197
0.0166321
0.000251905
0.0166555
0.000257229
0.0166791
0.000258775
0.0167027
0.000257446
0.0167261
0.000253616
0.016749
0.000248065
0.0167713
0.000240932
0.016793
0.00023294
0.0168139
0.000223977
0.0168339
0.00021481
0.0168531