/*--------------------------------*- C++ -*----------------------------------*\
  =========                 |
  \\      /  F ield         | OpenFOAM: The Open Source CFD Toolbox
   \\    /   O peration     | Website:  https://openfoam.org
    \\  /    A nd           | Version:  7
     \\/     M anipulation  |
\*---------------------------------------------------------------------------*/
FoamFile
{
    version     2.0;
    format      ascii;
    class       volScalarField;
    location    "100";
    object      p;
}
// * * * * * * * * * * * * * * * * * * * * * * * * * * * * * * * * * * * * * //

dimensions      [0 2 -2 0 0 0 0];

internalField   nonuniform List<scalar> 
7156
(
-0.385674
-0.387235
-0.388151
-0.388911
-0.389084
-0.390624
-0.391537
-0.392305
-0.392553
-0.394064
-0.394971
-0.395744
-0.396079
-0.397552
-0.398447
-0.399223
-0.399654
-0.401081
-0.401961
-0.402735
-0.403272
-0.404646
-0.405506
-0.406274
-0.406928
-0.408241
-0.409075
-0.409834
-0.410615
-0.411857
-0.412662
-0.413408
-0.414323
-0.415489
-0.41626
-0.416988
-0.418047
-0.419128
-0.41986
-0.420567
-0.421777
-0.422766
-0.423456
-0.424138
-0.425505
-0.426397
-0.427039
-0.427692
-0.429224
-0.430011
-0.430603
-0.431223
-0.432923
-0.433601
-0.434138
-0.434722
-0.435396
-0.436594
-0.437159
-0.437638
-0.438182
-0.438832
-0.440228
-0.440676
-0.441094
-0.441595
-0.442217
-0.443818
-0.444146
-0.4445
-0.444953
-0.445543
-0.447354
-0.447561
-0.447848
-0.448251
-0.448805
-0.45083
-0.450913
-0.451132
-0.451482
-0.451996
-0.454237
-0.454197
-0.454346
-0.454641
-0.455111
-0.457569
-0.457406
-0.457484
-0.457721
-0.458144
-0.458798
-0.460819
-0.460535
-0.460541
-0.460718
-0.461091
-0.461705
-0.463982
-0.463579
-0.463513
-0.463628
-0.463948
-0.464518
-0.467053
-0.466534
-0.466396
-0.466447
-0.466711
-0.467232
-0.470026
-0.469396
-0.469186
-0.469174
-0.469378
-0.469846
-0.470613
-0.4729
-0.472163
-0.471883
-0.471805
-0.471948
-0.472358
-0.473073
-0.47567
-0.474832
-0.474483
-0.47434
-0.474419
-0.474768
-0.475424
-0.478336
-0.477403
-0.476988
-0.476778
-0.476791
-0.477075
-0.477667
-0.480897
-0.479876
-0.479396
-0.479121
-0.479066
-0.479281
-0.479803
-0.480665
-0.483352
-0.482251
-0.481708
-0.481368
-0.481244
-0.481388
-0.481834
-0.48262
-0.485702
-0.48453
-0.483928
-0.483523
-0.483329
-0.483397
-0.483764
-0.484467
-0.48795
-0.486715
-0.486057
-0.485588
-0.485323
-0.485312
-0.485595
-0.486209
-0.490099
-0.488809
-0.488098
-0.487567
-0.487229
-0.487138
-0.487332
-0.487851
-0.48873
-0.492153
-0.490816
-0.490056
-0.489465
-0.489054
-0.48888
-0.488981
-0.489399
-0.490172
-0.494116
-0.492742
-0.491936
-0.491285
-0.490802
-0.490542
-0.490547
-0.49086
-0.49152
-0.495995
-0.494592
-0.493744
-0.493035
-0.492479
-0.492132
-0.492038
-0.49224
-0.492782
-0.493695
-0.497795
-0.496372
-0.495486
-0.494721
-0.494091
-0.493657
-0.493459
-0.493548
-0.493966
-0.494749
-0.499525
-0.498091
-0.497169
-0.496349
-0.495647
-0.495122
-0.494821
-0.494792
-0.495082
-0.495729
-0.501194
-0.499754
-0.498801
-0.497928
-0.497153
-0.496538
-0.49613
-0.49598
-0.496139
-0.496646
-0.497531
-0.50281
-0.501372
-0.500389
-0.499465
-0.498618
-0.497912
-0.497395
-0.497123
-0.497147
-0.49751
-0.498245
-0.504382
-0.502953
-0.501943
-0.500968
-0.50005
-0.499252
-0.498626
-0.49823
-0.498116
-0.498333
-0.498914
-0.499878
-0.505923
-0.504506
-0.503472
-0.502448
-0.501458
-0.500569
-0.499833
-0.499311
-0.499059
-0.499126
-0.499551
-0.500353
-0.507443
-0.506042
-0.504985
-0.503912
-0.502852
-0.501871
-0.501024
-0.500376
-0.499985
-0.499902
-0.500168
-0.500807
-0.501826
-0.508952
-0.507571
-0.506491
-0.505371
-0.50424
-0.503167
-0.502211
-0.501436
-0.500905
-0.500672
-0.500779
-0.501253
-0.502102
-0.510464
-0.509103
-0.508001
-0.506833
-0.505632
-0.504468
-0.503402
-0.502502
-0.501832
-0.501449
-0.501397
-0.501704
-0.502381
-0.51199
-0.510648
-0.509525
-0.508309
-0.507037
-0.505782
-0.504608
-0.503582
-0.502774
-0.502242
-0.502032
-0.502174
-0.502679
-0.503535
-0.513542
-0.512219
-0.511072
-0.509808
-0.508466
-0.50712
-0.505837
-0.504689
-0.503744
-0.503065
-0.502698
-0.502674
-0.503006
-0.503682
-0.515132
-0.513824
-0.512652
-0.511339
-0.509926
-0.508491
-0.507101
-0.505831
-0.504752
-0.503926
-0.503404
-0.503217
-0.503376
-0.50387
-0.50466
-0.516771
-0.515474
-0.514276
-0.512911
-0.511428
-0.509903
-0.508408
-0.507018
-0.505806
-0.504837
-0.504161
-0.503811
-0.503798
-0.504108
-0.504701
-0.518472
-0.51718
-0.515952
-0.514534
-0.512979
-0.511365
-0.509766
-0.508258
-0.506916
-0.505807
-0.50498
-0.504468
-0.504281
-0.504406
-0.504798
-0.505384
-0.520246
-0.518951
-0.517689
-0.516217
-0.514588
-0.512886
-0.511183
-0.50956
-0.508091
-0.506843
-0.505867
-0.505194
-0.504834
-0.504771
-0.504956
-0.505314
-0.505735
-0.522102
-0.520796
-0.519496
-0.517966
-0.516264
-0.514473
-0.512668
-0.510931
-0.509338
-0.507953
-0.506829
-0.505997
-0.505463
-0.505207
-0.50518
-0.505301
-0.505456
-0.524051
-0.522724
-0.521381
-0.519791
-0.518013
-0.516133
-0.514228
-0.512379
-0.510662
-0.509144
-0.507874
-0.506882
-0.506172
-0.50572
-0.505473
-0.505346
-0.50522
-0.504953
-0.526101
-0.524742
-0.523352
-0.521697
-0.519842
-0.517873
-0.515868
-0.513909
-0.512072
-0.510421
-0.509006
-0.507853
-0.506964
-0.506311
-0.505836
-0.505448
-0.505026
-0.504426
-0.528261
-0.526859
-0.525414
-0.523692
-0.521757
-0.519698
-0.517594
-0.515526
-0.51357
-0.511788
-0.510228
-0.508914
-0.507842
-0.506981
-0.506267
-0.505605
-0.504871
-0.503916
-0.502583
-0.530537
-0.52908
-0.527576
-0.525781
-0.523764
-0.521614
-0.519411
-0.517235
-0.51516
-0.513249
-0.511543
-0.510065
-0.508806
-0.507729
-0.506765
-0.505814
-0.504748
-0.503417
-0.501667
-0.499341
-0.532936
-0.531411
-0.529841
-0.52797
-0.525867
-0.523626
-0.521323
-0.519039
-0.516847
-0.514805
-0.512953
-0.511307
-0.509854
-0.508552
-0.507326
-0.50607
-0.504652
-0.502924
-0.50073
-0.497922
-0.535463
-0.533858
-0.532214
-0.530262
-0.528072
-0.525736
-0.523333
-0.520942
-0.518632
-0.516458
-0.514457
-0.512639
-0.510985
-0.509448
-0.507945
-0.506367
-0.504578
-0.502429
-0.49977
-0.496456
-0.4924
-0.538123
-0.536424
-0.5347
-0.532662
-0.53038
-0.527948
-0.525445
-0.522945
-0.520516
-0.518209
-0.516055
-0.514059
-0.512197
-0.510412
-0.508617
-0.506698
-0.504518
-0.501928
-0.49878
-0.49494
-0.490324
-0.484775
-0.540918
-0.539113
-0.537302
-0.535173
-0.532795
-0.530266
-0.527659
-0.52505
-0.5225
-0.520058
-0.517747
-0.515566
-0.513484
-0.511438
-0.509336
-0.507057
-0.504465
-0.501412
-0.497759
-0.493377
-0.48819
-0.482058
-0.475278
-0.543852
-0.541927
-0.540022
-0.537797
-0.53532
-0.53269
-0.529979
-0.527258
-0.524585
-0.522003
-0.519529
-0.517155
-0.514842
-0.512521
-0.510094
-0.507437
-0.504412
-0.500878
-0.496702
-0.491767
-0.486006
-0.479296
-0.471902
-0.546925
-0.544868
-0.542863
-0.540536
-0.537956
-0.535222
-0.532404
-0.529569
-0.52677
-0.524043
-0.521399
-0.518822
-0.516267
-0.513655
-0.510884
-0.507828
-0.504352
-0.50032
-0.495607
-0.490112
-0.483777
-0.476503
-0.468527
-0.45884
-0.550139
-0.547938
-0.545826
-0.543392
-0.540705
-0.537864
-0.534936
-0.531983
-0.529053
-0.526176
-0.523354
-0.520564
-0.517751
-0.514832
-0.511698
-0.508225
-0.504279
-0.499732
-0.494473
-0.488414
-0.481512
-0.47369
-0.465166
-0.455066
-0.446649
-0.553493
-0.551137
-0.548912
-0.546365
-0.543567
-0.540616
-0.537574
-0.534499
-0.531434
-0.5284
-0.525391
-0.522374
-0.519289
-0.516044
-0.512529
-0.508618
-0.504185
-0.49911
-0.493297
-0.486675
-0.479216
-0.470865
-0.461828
-0.451351
-0.44234
-0.556988
-0.554466
-0.55212
-0.549457
-0.546544
-0.543478
-0.540318
-0.537118
-0.533911
-0.530711
-0.527504
-0.524248
-0.520873
-0.517284
-0.513367
-0.509
-0.504063
-0.49845
-0.492078
-0.484897
-0.476894
-0.468036
-0.45852
-0.447697
-0.438172
-0.560622
-0.557923
-0.555452
-0.552667
-0.549634
-0.54645
-0.543169
-0.539837
-0.536482
-0.533107
-0.52969
-0.526179
-0.522497
-0.518544
-0.514206
-0.509364
-0.503909
-0.497747
-0.490816
-0.483081
-0.474549
-0.465206
-0.455246
-0.444106
-0.434134
-0.564393
-0.561508
-0.558906
-0.555995
-0.552838
-0.549531
-0.546124
-0.542655
-0.539144
-0.535583
-0.531942
-0.52816
-0.524152
-0.519815
-0.515036
-0.509702
-0.503715
-0.496999
-0.489508
-0.481229
-0.472184
-0.462381
-0.452006
-0.440575
-0.430213
-0.568299
-0.565219
-0.562481
-0.559439
-0.556155
-0.552722
-0.549183
-0.54557
-0.541893
-0.538136
-0.534256
-0.530185
-0.525831
-0.521089
-0.515848
-0.510006
-0.503476
-0.496201
-0.488155
-0.479342
-0.469802
-0.459561
-0.4488
-0.437101
-0.426397
-0.572337
-0.569055
-0.566176
-0.563
-0.559583
-0.55602
-0.552344
-0.54858
-0.544727
-0.54076
-0.536625
-0.532245
-0.527524
-0.522356
-0.516636
-0.510269
-0.503187
-0.495351
-0.486753
-0.477419
-0.467403
-0.456747
-0.445627
-0.43368
-0.422674
-0.576504
-0.573012
-0.569989
-0.566674
-0.563122
-0.559423
-0.555605
-0.551681
-0.547642
-0.54345
-0.539042
-0.534334
-0.529224
-0.523609
-0.517389
-0.510485
-0.502843
-0.494445
-0.485304
-0.475462
-0.464989
-0.453939
-0.442483
-0.430307
-0.419031
-0.580797
-0.577088
-0.573917
-0.570461
-0.56677
-0.56293
-0.558963
-0.55487
-0.550632
-0.5462
-0.5415
-0.536442
-0.530921
-0.524837
-0.5181
-0.510645
-0.502438
-0.49348
-0.483804
-0.47347
-0.462558
-0.451135
-0.439366
-0.426976
-0.415458
-0.585211
-0.58128
-0.577957
-0.574357
-0.570523
-0.566538
-0.562414
-0.558143
-0.553693
-0.549003
-0.543991
-0.53856
-0.532606
-0.526032
-0.518761
-0.510745
-0.501968
-0.492453
-0.482253
-0.471441
-0.46011
-0.448333
-0.436271
-0.423682
-0.411943
-0.589741
-0.585582
-0.582106
-0.578359
-0.574378
-0.570244
-0.565956
-0.561495
-0.556817
-0.551851
-0.546506
-0.540679
-0.534268
-0.527184
-0.519363
-0.510776
-0.501428
-0.491363
-0.480649
-0.469376
-0.457643
-0.445532
-0.433194
-0.420417
-0.408477
-0.594382
-0.589992
-0.586359
-0.582463
-0.578333
-0.574043
-0.569582
-0.56492
-0.559999
-0.554737
-0.549035
-0.542788
-0.535897
-0.528283
-0.519899
-0.510733
-0.500815
-0.490205
-0.47899
-0.467271
-0.455154
-0.442726
-0.430129
-0.417175
-0.40505
-0.599127
-0.594502
-0.590712
-0.586665
-0.582381
-0.57793
-0.573288
-0.568411
-0.563229
-0.55765
-0.551568
-0.544877
-0.537483
-0.529321
-0.52036
-0.510611
-0.500122
-0.488976
-0.477274
-0.465126
-0.452642
-0.439913
-0.427072
-0.41395
-0.401652
-0.603971
-0.599108
-0.595159
-0.590959
-0.586519
-0.581901
-0.577067
-0.571961
-0.5665
-0.560581
-0.554095
-0.546935
-0.539016
-0.530288
-0.520739
-0.510402
-0.499348
-0.487675
-0.475498
-0.462936
-0.450103
-0.437088
-0.424016
-0.410736
-0.398275
-0.608905
-0.603802
-0.599694
-0.59534
-0.59074
-0.585948
-0.580912
-0.575561
-0.569801
-0.56352
-0.556603
-0.548949
-0.540484
-0.531174
-0.521028
-0.510101
-0.498486
-0.486297
-0.47366
-0.460701
-0.447533
-0.434247
-0.420956
-0.407526
-0.394911
-0.613922
-0.608577
-0.60431
-0.5998
-0.595037
-0.590064
-0.584814
-0.579202
-0.573122
-0.566454
-0.559081
-0.55091
-0.541877
-0.53197
-0.521219
-0.509703
-0.497533
-0.484839
-0.471757
-0.458416
-0.444929
-0.431384
-0.417886
-0.404313
-0.391552
-0.619011
-0.613425
-0.608998
-0.604332
-0.599402
-0.59424
-0.588763
-0.582873
-0.57645
-0.56937
-0.561517
-0.552803
-0.543184
-0.532666
-0.521306
-0.509202
-0.496485
-0.483299
-0.469786
-0.456078
-0.442287
-0.428496
-0.4148
-0.40109
-0.388189
-0.624164
-0.618336
-0.613751
-0.608928
-0.603827
-0.598467
-0.59275
-0.586562
-0.579774
-0.572256
-0.563896
-0.554617
-0.544393
-0.533254
-0.52128
-0.508592
-0.495338
-0.481672
-0.467743
-0.453683
-0.439601
-0.425576
-0.411692
-0.397852
-0.384817
-0.629369
-0.6233
-0.618558
-0.613577
-0.6083
-0.602733
-0.596762
-0.590257
-0.58308
-0.575098
-0.566205
-0.556338
-0.545494
-0.533724
-0.521135
-0.507868
-0.494086
-0.479954
-0.465625
-0.451228
-0.436867
-0.422619
-0.408556
-0.394592
-0.381428
-0.634614
-0.628306
-0.623409
-0.618269
-0.612811
-0.607029
-0.600787
-0.593944
-0.586353
-0.577881
-0.56843
-0.557955
-0.546475
-0.534068
-0.520864
-0.507024
-0.492726
-0.478142
-0.463426
-0.448706
-0.434081
-0.41962
-0.405387
-0.391304
-0.378016
-0.639887
-0.633343
-0.628292
-0.622992
-0.617349
-0.611339
-0.604811
-0.597608
-0.589578
-0.580589
-0.570556
-0.559454
-0.547326
-0.534276
-0.520459
-0.506055
-0.491254
-0.476232
-0.461144
-0.446115
-0.431237
-0.416573
-0.402178
-0.387981
-0.374573
-0.645173
-0.638397
-0.633194
-0.627733
-0.621899
-0.615651
-0.608819
-0.601234
-0.592739
-0.583208
-0.572569
-0.560822
-0.548035
-0.53434
-0.519914
-0.504956
-0.489664
-0.474219
-0.458774
-0.443449
-0.428329
-0.413473
-0.398922
-0.384618
-0.371095
-0.650459
-0.643453
-0.638101
-0.63248
-0.626448
-0.619949
-0.612795
-0.604804
-0.595819
-0.58572
-0.574455
-0.562046
-0.548592
-0.534251
-0.519223
-0.50372
-0.487951
-0.472098
-0.456311
-0.440703
-0.425353
-0.410313
-0.395615
-0.381209
-0.367575
-0.643
-0.637215
-0.63098
-0.624218
-0.616721
-0.608302
-0.598801
-0.58811
-0.576198
-0.563114
-0.548987
-0.534001
-0.518377
-0.502343
-0.486111
-0.469865
-0.453749
-0.437871
-0.422303
-0.407088
-0.39225
-0.377747
-0.364007
-0.635479
-0.628439
-0.620582
-0.611709
-0.601666
-0.59036
-0.577782
-0.564013
-0.549208
-0.533581
-0.517372
-0.500818
-0.484139
-0.467514
-0.451085
-0.43495
-0.419173
-0.403792
-0.388822
-0.374226
-0.360385
-0.615007
-0.604398
-0.592454
-0.579194
-0.564729
-0.549246
-0.532983
-0.516199
-0.499141
-0.482029
-0.465042
-0.448312
-0.431932
-0.415957
-0.400419
-0.385325
-0.370642
-0.356704
-0.580419
-0.565251
-0.549091
-0.5322
-0.514852
-0.497304
-0.479776
-0.462442
-0.445426
-0.428813
-0.412651
-0.396964
-0.381752
-0.366989
-0.352959
-0.531223
-0.513326
-0.495304
-0.477376
-0.459709
-0.442421
-0.425588
-0.409249
-0.393421
-0.3781
-0.363262
-0.349145
-0.456838
-0.439292
-0.42225
-0.405744
-0.389785
-0.374361
-0.359454
-0.345256
-0.38605
-0.370532
-0.355561
-0.341288
-0.258851
-0.246749
-0.235123
-0.223966
-0.213407
-0.312867
-0.299419
-0.286249
-0.27344
-0.261043
-0.24909
-0.237589
-0.22653
-0.216076
-0.353306
-0.340355
-0.327174
-0.313942
-0.300814
-0.287913
-0.275328
-0.263118
-0.25132
-0.23995
-0.228994
-0.218649
-0.39649
-0.386792
-0.376228
-0.364886
-0.352903
-0.34045
-0.327713
-0.314868
-0.302071
-0.289448
-0.277096
-0.26508
-0.253443
-0.242209
-0.231361
-0.221129
-0.4165
-0.409628
-0.402078
-0.393747
-0.384577
-0.374568
-0.363784
-0.352339
-0.340388
-0.328101
-0.315651
-0.303193
-0.290858
-0.278746
-0.266931
-0.255462
-0.244369
-0.233633
-0.223517
-0.424251
-0.418554
-0.412493
-0.405944
-0.398786
-0.39091
-0.382246
-0.372776
-0.362538
-0.351626
-0.340176
-0.328344
-0.316297
-0.304186
-0.292146
-0.280283
-0.268676
-0.25738
-0.246434
-0.235814
-0.225817
-0.434961
-0.430119
-0.425079
-0.419797
-0.414296
-0.408479
-0.402233
-0.395443
-0.387997
-0.379816
-0.370864
-0.36116
-0.350774
-0.339822
-0.328449
-0.316809
-0.305054
-0.293318
-0.281711
-0.270318
-0.259201
-0.248406
-0.237906
-0.228032
-0.436103
-0.43008
-0.425388
-0.420495
-0.415375
-0.410062
-0.404474
-0.398512
-0.392066
-0.385026
-0.377303
-0.368849
-0.359662
-0.349792
-0.339335
-0.328421
-0.317194
-0.305801
-0.294375
-0.283032
-0.27186
-0.260928
-0.250289
-0.239913
-0.230165
-0.431028
-0.425244
-0.420704
-0.41596
-0.410998
-0.405865
-0.400494
-0.394797
-0.388672
-0.382012
-0.374723
-0.366744
-0.358056
-0.34869
-0.338723
-0.328267
-0.317456
-0.30643
-0.295322
-0.284249
-0.273306
-0.262564
-0.252086
-0.241837
-0.232216
-0.426007
-0.420464
-0.416078
-0.411483
-0.406677
-0.401718
-0.396551
-0.391101
-0.385276
-0.378971
-0.372091
-0.364563
-0.356355
-0.34748
-0.337994
-0.327994
-0.3176
-0.306947
-0.296163
-0.285367
-0.274658
-0.264111
-0.253798
-0.24368
-0.234191
-0.421053
-0.41575
-0.411521
-0.407075
-0.402424
-0.397632
-0.392658
-0.387439
-0.381893
-0.375919
-0.369421
-0.362321
-0.354572
-0.346171
-0.337156
-0.327607
-0.317632
-0.307354
-0.2969
-0.286387
-0.275918
-0.265573
-0.25543
-0.245446
-0.23609
-0.416174
-0.411113
-0.407041
-0.402746
-0.398247
-0.393616
-0.388826
-0.383824
-0.378536
-0.372869
-0.366729
-0.360031
-0.35272
-0.344775
-0.336219
-0.327115
-0.317556
-0.307656
-0.297536
-0.287313
-0.27709
-0.266952
-0.256984
-0.247137
-0.237918
-0.411381
-0.40656
-0.402647
-0.398502
-0.394154
-0.389681
-0.385065
-0.380265
-0.375217
-0.369836
-0.364028
-0.357707
-0.350809
-0.343302
-0.335191
-0.326523
-0.317377
-0.307856
-0.298074
-0.288146
-0.278176
-0.268249
-0.258461
-0.248754
-0.239675
-0.406681
-0.402099
-0.398345
-0.394351
-0.390153
-0.385834
-0.381384
-0.376774
-0.371949
-0.366831
-0.361331
-0.355362
-0.348854
-0.341763
-0.334081
-0.325838
-0.3171
-0.307958
-0.298518
-0.288889
-0.279177
-0.269468
-0.259864
-0.250301
-0.241366
-0.402081
-0.397735
-0.394141
-0.390298
-0.38625
-0.38208
-0.377791
-0.37336
-0.368741
-0.363866
-0.358651
-0.353009
-0.346866
-0.340169
-0.332898
-0.325068
-0.316731
-0.307965
-0.298868
-0.289543
-0.280095
-0.270609
-0.261195
-0.251779
-0.242993
-0.397588
-0.393475
-0.39004
-0.386349
-0.382449
-0.378427
-0.374291
-0.370029
-0.365603
-0.360952
-0.355998
-0.350658
-0.344855
-0.33853
-0.331651
-0.32422
-0.316275
-0.307882
-0.299127
-0.29011
-0.28093
-0.271674
-0.262455
-0.25319
-0.24456
-0.393205
-0.389323
-0.386046
-0.382507
-0.378755
-0.374879
-0.370891
-0.366789
-0.362542
-0.358098
-0.353384
-0.348322
-0.342834
-0.336856
-0.330348
-0.323301
-0.315737
-0.307711
-0.299299
-0.290591
-0.281685
-0.272664
-0.263647
-0.254536
-0.246069
-0.388938
-0.385282
-0.382164
-0.378776
-0.375171
-0.371438
-0.367595
-0.363645
-0.359566
-0.355311
-0.350818
-0.34601
-0.340813
-0.335158
-0.329
-0.322317
-0.315122
-0.307456
-0.299383
-0.290988
-0.28236
-0.27358
-0.264771
-0.255818
-0.247524
-0.384789
-0.381355
-0.378394
-0.375157
-0.371699
-0.368108
-0.364406
-0.360601
-0.356678
-0.352599
-0.348307
-0.343732
-0.338801
-0.333445
-0.327613
-0.321277
-0.314436
-0.30712
-0.299384
-0.2913
-0.282955
-0.274422
-0.265828
-0.257038
-0.24893
-0.38076
-0.377544
-0.374738
-0.371652
-0.368341
-0.364889
-0.361325
-0.35766
-0.353885
-0.349968
-0.345859
-0.341496
-0.336807
-0.331726
-0.326198
-0.320187
-0.313684
-0.306708
-0.299302
-0.29153
-0.28347
-0.27519
-0.26682
-0.258196
-0.25029
-0.376853
-0.37385
-0.371198
-0.368262
-0.365096
-0.361784
-0.358355
-0.354824
-0.351188
-0.347421
-0.34348
-0.339308
-0.33484
-0.33001
-0.324761
-0.319054
-0.312872
-0.306222
-0.299139
-0.291677
-0.283905
-0.275883
-0.267745
-0.259294
-0.251609
-0.373069
-0.370274
-0.367774
-0.364987
-0.361966
-0.358792
-0.355495
-0.352094
-0.34859
-0.344962
-0.341175
-0.337176
-0.332906
-0.328303
-0.323311
-0.317886
-0.312004
-0.305667
-0.298898
-0.291741
-0.284259
-0.276501
-0.268606
-0.260333
-0.252894
-0.369407
-0.366815
-0.364466
-0.361827
-0.35895
-0.355912
-0.352746
-0.349471
-0.346092
-0.342594
-0.338947
-0.335104
-0.331013
-0.326615
-0.321854
-0.316688
-0.311088
-0.305047
-0.29858
-0.291724
-0.284532
-0.277043
-0.269401
-0.261312
-0.25415
-0.365867
-0.363473
-0.361272
-0.358779
-0.356045
-0.353143
-0.350105
-0.346954
-0.343694
-0.340318
-0.336798
-0.333096
-0.329165
-0.324949
-0.320399
-0.315468
-0.310127
-0.304364
-0.298188
-0.291625
-0.284722
-0.277507
-0.270129
-0.262232
-0.255383
-0.362447
-0.360248
-0.358192
-0.355844
-0.353251
-0.350484
-0.347572
-0.34454
-0.341396
-0.338133
-0.33473
-0.331156
-0.327366
-0.323313
-0.318949
-0.314231
-0.309128
-0.303624
-0.297723
-0.291444
-0.284828
-0.277891
-0.27079
-0.263093
-0.256602
-0.359147
-0.357137
-0.355225
-0.353019
-0.350566
-0.347931
-0.345144
-0.342229
-0.339195
-0.336039
-0.332744
-0.329284
-0.32562
-0.32171
-0.317512
-0.312984
-0.308095
-0.30283
-0.297188
-0.291182
-0.284849
-0.278192
-0.271382
-0.263893
-0.257814
-0.355964
-0.354139
-0.352368
-0.350303
-0.347988
-0.345483
-0.342818
-0.340017
-0.337089
-0.334034
-0.330839
-0.327481
-0.323929
-0.320145
-0.316091
-0.31173
-0.307035
-0.301987
-0.296584
-0.290839
-0.284782
-0.278408
-0.271901
-0.264632
-0.259027
-0.352897
-0.351253
-0.349619
-0.347692
-0.345513
-0.343137
-0.340592
-0.337902
-0.335077
-0.332117
-0.329014
-0.325749
-0.322294
-0.318619
-0.314691
-0.310477
-0.305951
-0.301098
-0.295916
-0.290415
-0.284626
-0.278533
-0.272345
-0.265305
-0.260248
-0.349944
-0.348476
-0.346978
-0.345186
-0.343139
-0.340889
-0.338462
-0.33588
-0.333153
-0.330285
-0.327267
-0.324085
-0.320716
-0.317136
-0.313315
-0.309226
-0.304848
-0.300168
-0.295185
-0.28991
-0.284378
-0.278563
-0.272707
-0.265909
-0.261485
-0.347102
-0.345808
-0.344441
-0.342782
-0.340865
-0.338738
-0.336426
-0.333948
-0.331317
-0.328534
-0.325595
-0.322488
-0.319195
-0.315696
-0.311966
-0.307983
-0.303731
-0.299201
-0.294395
-0.289326
-0.284036
-0.278493
-0.272981
-0.266437
-0.262743
-0.344371
-0.343246
-0.342008
-0.340478
-0.338687
-0.33668
-0.334479
-0.332103
-0.329563
-0.326861
-0.323996
-0.320957
-0.31773
-0.314299
-0.310645
-0.306751
-0.302605
-0.298201
-0.293548
-0.288664
-0.283597
-0.278316
-0.273158
-0.266881
-0.341748
-0.340789
-0.339677
-0.338271
-0.336604
-0.334713
-0.332619
-0.330341
-0.327888
-0.325264
-0.322467
-0.319489
-0.31632
-0.312947
-0.309356
-0.305533
-0.301473
-0.297174
-0.292649
-0.287925
-0.28306
-0.278025
-0.273225
-0.339233
-0.338437
-0.337447
-0.336162
-0.334613
-0.332834
-0.330844
-0.32866
-0.32629
-0.323739
-0.321005
-0.318083
-0.314964
-0.311639
-0.308098
-0.304332
-0.300339
-0.296123
-0.291703
-0.287111
-0.282421
-0.277612
-0.336826
-0.336188
-0.335316
-0.334148
-0.332714
-0.331042
-0.329151
-0.327056
-0.324766
-0.322283
-0.319608
-0.316735
-0.31366
-0.310375
-0.306873
-0.30315
-0.299207
-0.295054
-0.290713
-0.286225
-0.28168
-0.277068
-0.334525
-0.334042
-0.333284
-0.332229
-0.330904
-0.329335
-0.327539
-0.325529
-0.323313
-0.320894
-0.318273
-0.315445
-0.312407
-0.309154
-0.305682
-0.301991
-0.298083
-0.293972
-0.289685
-0.285272
-0.280835
-0.332331
-0.331999
-0.331351
-0.330404
-0.329184
-0.327712
-0.326006
-0.324076
-0.32193
-0.319571
-0.316998
-0.31421
-0.311204
-0.307977
-0.304527
-0.300856
-0.296969
-0.292883
-0.288628
-0.284257
-0.330245
-0.330059
-0.329517
-0.328673
-0.327553
-0.326173
-0.324551
-0.322697
-0.320616
-0.318312
-0.315784
-0.313031
-0.310052
-0.306844
-0.30341
-0.299749
-0.295872
-0.291794
-0.287548
-0.283189
-0.328268
-0.328224
-0.327783
-0.327037
-0.32601
-0.324718
-0.323176
-0.321391
-0.319371
-0.317117
-0.314629
-0.311907
-0.30895
-0.305757
-0.302331
-0.298674
-0.294796
-0.290712
-0.286455
-0.326402
-0.326494
-0.326149
-0.325496
-0.324558
-0.323348
-0.321879
-0.32016
-0.318195
-0.315987
-0.313535
-0.310839
-0.3079
-0.304718
-0.301294
-0.297635
-0.293747
-0.289646
-0.324649
-0.324871
-0.324618
-0.324052
-0.323197
-0.322063
-0.320662
-0.319003
-0.31709
-0.314922
-0.312502
-0.309829
-0.306904
-0.303728
-0.300303
-0.296636
-0.292732
-0.288604
-0.323012
-0.323357
-0.323189
-0.322705
-0.321928
-0.320865
-0.319528
-0.317924
-0.316056
-0.313926
-0.311534
-0.30888
-0.305965
-0.302791
-0.299362
-0.295682
-0.291757
-0.321492
-0.321953
-0.321866
-0.321458
-0.320753
-0.319755
-0.318477
-0.316923
-0.315098
-0.313001
-0.310633
-0.307995
-0.305087
-0.301913
-0.298475
-0.29478
-0.290831
-0.320092
-0.320662
-0.32065
-0.320313
-0.319674
-0.318737
-0.317512
-0.316004
-0.314217
-0.31215
-0.309803
-0.307177
-0.304274
-0.301097
-0.297649
-0.293936
-0.318815
-0.319485
-0.319542
-0.31927
-0.318693
-0.317811
-0.316635
-0.31517
-0.313417
-0.311377
-0.309048
-0.306433
-0.303532
-0.30035
-0.29689
-0.317663
-0.318425
-0.318545
-0.318333
-0.317812
-0.316981
-0.315851
-0.314424
-0.312702
-0.310686
-0.308373
-0.305766
-0.302867
-0.299678
-0.296205
-0.316639
-0.317483
-0.317661
-0.317503
-0.317033
-0.316249
-0.31516
-0.313769
-0.312076
-0.310081
-0.307783
-0.305183
-0.302283
-0.299088
-0.315744
-0.316661
-0.31689
-0.316781
-0.316359
-0.315618
-0.314567
-0.313208
-0.311542
-0.309567
-0.307282
-0.304689
-0.301789
-0.298586
-0.31498
-0.31596
-0.316234
-0.31617
-0.31579
-0.315088
-0.314072
-0.312744
-0.311103
-0.309148
-0.306876
-0.304289
-0.301389
-0.314347
-0.315381
-0.315695
-0.31567
-0.315329
-0.314663
-0.31368
-0.312381
-0.310764
-0.308827
-0.306568
-0.303989
-0.30109
-0.313846
-0.314925
-0.315273
-0.315283
-0.314976
-0.314343
-0.313391
-0.312119
-0.310526
-0.308608
-0.306363
-0.303792
-0.313477
-0.314591
-0.314968
-0.315008
-0.314732
-0.31413
-0.313207
-0.311962
-0.310392
-0.308494
-0.306264
-0.303704
-0.313239
-0.314379
-0.31478
-0.314847
-0.314599
-0.314024
-0.313129
-0.31191
-0.310364
-0.308486
-0.306274
-0.303727
-0.313131
-0.314289
-0.314709
-0.314798
-0.314575
-0.314027
-0.313158
-0.311965
-0.310443
-0.308588
-0.306395
-0.31315
-0.314318
-0.314753
-0.314862
-0.314661
-0.314138
-0.313294
-0.312127
-0.310631
-0.308799
-0.306629
-0.313295
-0.314466
-0.314912
-0.315037
-0.314857
-0.314356
-0.313538
-0.312397
-0.310926
-0.309121
-0.313561
-0.314731
-0.315184
-0.315323
-0.315161
-0.314682
-0.313888
-0.312773
-0.31133
-0.309552
-0.313947
-0.315109
-0.315568
-0.315717
-0.315571
-0.315113
-0.314343
-0.313255
-0.311841
-0.310094
-0.314448
-0.315599
-0.31606
-0.316218
-0.316088
-0.31565
-0.314903
-0.313842
-0.312458
-0.315061
-0.316197
-0.316658
-0.316825
-0.316708
-0.316289
-0.315567
-0.314534
-0.313181
-0.315781
-0.3169
-0.317361
-0.317534
-0.31743
-0.31703
-0.316332
-0.315327
-0.314007
-0.316605
-0.317706
-0.318165
-0.318345
-0.318253
-0.317871
-0.317196
-0.316221
-0.317528
-0.318612
-0.319069
-0.319254
-0.319174
-0.31881
-0.318159
-0.317214
-0.318547
-0.319614
-0.320069
-0.320259
-0.320191
-0.319846
-0.319219
-0.318303
-0.319657
-0.320709
-0.321163
-0.321359
-0.321303
-0.320976
-0.320373
-0.319489
-0.320856
-0.321895
-0.322349
-0.322551
-0.322507
-0.322198
-0.321621
-0.32214
-0.323169
-0.323624
-0.323833
-0.323803
-0.323513
-0.322961
-0.323506
-0.324529
-0.324986
-0.325204
-0.325187
-0.324917
-0.324392
-0.324952
-0.325972
-0.326435
-0.326662
-0.32666
-0.32641
-0.326475
-0.327497
-0.327967
-0.328205
-0.328218
-0.32799
-0.328075
-0.329103
-0.329581
-0.329832
-0.329862
-0.329656
-0.329748
-0.330788
-0.331277
-0.331542
-0.331591
-0.331407
-0.331496
-0.33255
-0.333054
-0.333335
-0.333403
-0.333245
-0.333316
-0.334391
-0.33491
-0.335209
-0.335298
-0.335209
-0.336308
-0.336845
-0.337163
-0.337276
-0.337175
-0.338301
-0.338858
-0.339198
-0.339334
-0.339214
-0.340371
-0.34095
-0.341312
-0.341473
-0.341327
-0.342518
-0.34312
-0.343506
-0.343694
-0.343515
-0.344741
-0.345368
-0.34578
-0.345995
-0.345778
-0.347042
-0.347695
-0.348133
-0.348378
-0.348117
-0.34942
-0.350099
-0.350564
-0.350534
-0.351875
-0.352582
-0.353075
-0.353029
-0.354408
-0.355142
-0.355663
-0.355603
-0.357019
-0.357779
-0.358328
-0.358257
-0.359708
-0.360493
-0.361069
-0.36099
-0.362474
-0.363284
-0.363886
-0.363804
-0.365317
-0.366149
-0.366778
-0.366698
-0.368235
-0.369088
-0.369742
-0.369671
-0.371228
-0.3721
-0.372776
-0.372723
-0.374294
-0.375181
-0.375879
-0.375851
-0.37743
-0.37833
-0.379047
-0.379055
-0.380635
-0.381543
-0.382277
-0.38233
-0.383905
-0.384819
-0.385567
-0.322633
-0.326522
-0.330345
-0.334105
-0.337806
-0.341454
-0.345053
-0.348606
-0.35212
-0.355598
-0.359046
-0.362469
-0.365871
-0.369257
-0.372633
-0.376004
-0.379375
-0.382752
-0.38614
-0.389544
-0.392971
-0.396427
-0.399919
-0.403453
-0.407039
-0.410686
-0.414404
-0.418206
-0.422106
-0.302031
-0.305809
-0.309533
-0.313207
-0.316835
-0.320421
-0.323967
-0.327477
-0.330956
-0.334408
-0.337837
-0.341248
-0.344644
-0.348032
-0.351415
-0.3548
-0.358192
-0.361597
-0.365022
-0.368473
-0.371958
-0.375484
-0.379061
-0.382698
-0.386406
-0.390196
-0.39408
-0.398073
-0.40219
-0.282845
-0.286476
-0.290065
-0.293615
-0.29713
-0.300611
-0.304062
-0.307487
-0.310888
-0.314268
-0.317632
-0.320984
-0.324326
-0.327663
-0.331
-0.33434
-0.337688
-0.34105
-0.34443
-0.347834
-0.351267
-0.354736
-0.358247
-0.361807
-0.365423
-0.369103
-0.372855
-0.376687
-0.380609
-0.265051
-0.268517
-0.271949
-0.275351
-0.278725
-0.282072
-0.285396
-0.288699
-0.291984
-0.295253
-0.298511
-0.301758
-0.305
-0.308238
-0.311477
-0.31472
-0.31797
-0.321232
-0.32451
-0.327808
-0.33113
-0.334481
-0.337867
-0.341292
-0.344763
-0.348286
-0.351867
-0.355514
-0.359235
-0.363039
-0.248495
-0.251785
-0.255049
-0.258288
-0.261505
-0.264701
-0.267879
-0.27104
-0.274187
-0.277323
-0.280449
-0.283568
-0.286683
-0.289796
-0.292911
-0.296029
-0.299156
-0.302293
-0.305443
-0.308612
-0.311801
-0.315016
-0.31826
-0.321538
-0.324855
-0.328216
-0.331625
-0.335089
-0.338614
-0.342206
-0.233058
-0.236168
-0.239257
-0.242326
-0.245377
-0.248411
-0.251431
-0.254438
-0.257435
-0.260422
-0.263401
-0.266376
-0.269348
-0.27232
-0.275293
-0.27827
-0.281253
-0.284246
-0.287251
-0.29027
-0.293308
-0.296366
-0.299449
-0.302559
-0.3057
-0.308877
-0.312093
-0.315352
-0.31866
-0.32202
-0.218638
-0.221567
-0.224479
-0.227375
-0.230256
-0.233124
-0.235981
-0.238827
-0.241665
-0.244496
-0.247321
-0.250143
-0.252963
-0.255782
-0.258603
-0.261428
-0.264259
-0.267098
-0.269947
-0.272808
-0.275684
-0.278577
-0.281491
-0.284427
-0.287389
-0.29038
-0.293402
-0.296461
-0.299558
-0.302698
-0.205149
-0.207899
-0.210635
-0.213358
-0.216069
-0.21877
-0.221462
-0.224145
-0.226822
-0.229493
-0.23216
-0.234824
-0.237488
-0.240151
-0.242816
-0.245484
-0.248158
-0.250838
-0.253527
-0.256227
-0.258939
-0.261666
-0.264409
-0.267171
-0.269955
-0.272762
-0.275596
-0.278458
-0.281353
-0.284282
-0.192515
-0.19509
-0.197653
-0.200206
-0.20275
-0.205285
-0.207813
-0.210334
-0.21285
-0.215362
-0.217871
-0.220377
-0.222883
-0.225389
-0.227897
-0.230409
-0.232924
-0.235446
-0.237975
-0.240513
-0.243061
-0.245622
-0.248197
-0.250788
-0.253396
-0.256024
-0.258674
-0.261348
-0.264048
-0.266776
-0.180668
-0.183074
-0.18547
-0.187859
-0.190239
-0.192612
-0.19498
-0.197342
-0.1997
-0.202055
-0.204407
-0.206758
-0.209109
-0.21146
-0.213813
-0.216169
-0.218528
-0.220893
-0.223265
-0.225644
-0.228032
-0.23043
-0.23284
-0.235264
-0.237703
-0.240158
-0.242631
-0.245124
-0.24764
-0.250179
-0.169549
-0.171793
-0.174029
-0.176258
-0.178481
-0.180698
-0.182911
-0.185119
-0.187324
-0.189526
-0.191726
-0.193925
-0.196124
-0.198324
-0.200526
-0.20273
-0.204938
-0.20715
-0.209368
-0.211592
-0.213824
-0.216065
-0.218316
-0.220579
-0.222854
-0.225143
-0.227448
-0.229769
-0.232109
-0.234469
-0.159105
-0.161195
-0.163278
-0.165355
-0.167427
-0.169494
-0.171557
-0.173617
-0.175674
-0.17773
-0.179783
-0.181836
-0.183889
-0.185943
-0.187999
-0.190056
-0.192117
-0.194182
-0.196252
-0.198327
-0.200409
-0.202499
-0.204597
-0.206706
-0.208825