/*--------------------------------*- C++ -*----------------------------------*\
  =========                 |
  \\      /  F ield         | OpenFOAM: The Open Source CFD Toolbox
   \\    /   O peration     | Website:  https://openfoam.org
    \\  /    A nd           | Version:  7
     \\/     M anipulation  |
\*---------------------------------------------------------------------------*/
FoamFile
{
    version     2.0;
    format      ascii;
    class       surfaceScalarField;
    location    "240";
    object      phi;
}
// * * * * * * * * * * * * * * * * * * * * * * * * * * * * * * * * * * * * * //

dimensions      [0 3 -1 0 0 0 0];

internalField   nonuniform List<scalar> 
8924
(
0.00146213
0.00149475
-0.00157456
0.0015464
0.00520951
-0.00529379
0.00161641
0.0077257
-0.00779571
0.00166468
0.00905164
-0.00909991
0.0016827
0.00962418
-0.00964221
0.00165929
0.0101051
-0.0100817
0.00159526
0.0107721
-0.010708
0.00151296
0.0110632
-0.0109809
0.00144388
0.0100064
-0.00993732
0.00140902
0.00716468
-0.00712982
0.00141454
0.00302776
-0.00303328
0.0014553
-0.00137976
0.001339
0.00151535
-0.00510461
0.00504456
0.001569
-0.00767752
0.00762388
0.00158923
-0.00926937
0.00924914
0.00156334
-0.0103287
0.0103546
0.0015033
-0.0109618
0.0110219
0.00143883
-0.0106397
0.0107042
0.00139851
-0.00874282
0.00878314
0.00139642
-0.00527697
0.00527906
0.00142989
-0.000990852
0.000957385
0.00147786
0.0030684
-0.00311637
0.00150889
0.00640039
-0.00643141
0.00890601
-0.00890211
0.0014566
0.00140988
0.0015457
0.00512041
0.00162002
0.00765137
0.00167177
0.0089999
0.00169232
0.00960363
0.00167084
0.0101266
0.00160843
0.0108345
0.00152703
0.0111446
0.00145711
0.0100763
0.00141919
0.0072026
0.00142016
0.00302679
0.00145607
-0.00141567
0.00151206
-0.0051606
0.00156303
-0.0077285
0.00158181
-0.00928816
0.00155518
-0.0103021
0.00149491
-0.0109016
0.00143106
-0.0105759
0.00139273
-0.00870449
0.00139377
-0.00527802
0.00143039
-0.00102747
0.00148056
0.00301823
0.00151287
0.00636808
0.00890903
0.00145064
0.00132008
0.00154452
0.00502653
0.00162317
0.00757272
0.00167845
0.00894463
0.00170164
0.00958044
0.00168224
0.010146
0.00162161
0.0108951
0.0015412
0.011225
0.0014704
0.0101471
0.00142932
0.00724368
0.00142564
0.00303047
0.00145663
-0.00144665
0.0015085
-0.00521247
0.00155682
-0.00777681
0.00157424
-0.00930558
0.00154698
-0.0102748
0.00148656
-0.0108411
0.00142336
-0.0105127
0.00138695
-0.00866808
0.00139104
-0.00528211
0.00143073
-0.00106716
0.00148308
0.00296587
0.00151672
0.00633445
0.0089111
0.00144423
0.00122549
0.00154285
0.00492791
0.00162585
0.00748972
0.00168471
0.00888577
0.00171065
0.00955449
0.0016935
0.0101631
0.00163481
0.0109538
0.00155546
0.0113043
0.00148374
0.0102188
0.00143942
0.007288
0.001431
0.00303889
0.00145699
-0.00147264
0.00150471
-0.00526019
0.00155038
-0.00782248
0.00156652
-0.00932172
0.00153874
-0.010247
0.00147825
-0.0107806
0.00141571
-0.0104501
0.00138117
-0.00863354
0.00138821
-0.00528914
0.00143089
-0.00110984
0.00148541
0.00291134
0.00152043
0.00629944
0.00891215
0.00143737
0.00112624
0.00154068
0.0048246
0.00162803
0.00740237
0.00169052
0.00882327
0.00171932
0.0095257
0.00170458
0.0101779
0.00164799
0.0110104
0.00156978
0.0113825
0.00149712
0.0102915
0.00144947
0.00733565
0.00143624
0.00305211
0.00145717
-0.00149357
0.00150068
-0.00530369
0.00154371
-0.00786551
0.00155866
-0.00933667
0.00153045
-0.0102188
0.00146998
-0.0107202
0.00140812
-0.0103883
0.00137539
-0.0086008
0.00138527
-0.00529903
0.00143086
-0.00115543
0.00148755
0.00285465
0.00152401
0.00626298
0.00891212
0.00143004
0.0010225
0.00153798
0.00471665
0.00162969
0.00731066
0.00169588
0.00875709
0.00172764
0.00949394
0.00171546
0.0101901
0.00166114
0.0110647
0.00158415
0.0114595
0.00151053
0.0103651
0.00145948
0.0073867
0.00144137
0.00307022
0.00145718
-0.00150937
0.00149643
-0.00534294
0.00153682
-0.00790591
0.00155065
-0.00935049
0.00152213
-0.0101903
0.00146176
-0.0106598
0.00140058
-0.0103271
0.00136959
-0.0085698
0.00138221
-0.00531165
0.00143063
-0.00120385
0.00148948
0.00279581
0.00152743
0.00622502
0.00891094
0.00142222
0.000914417
0.00153475
0.00460413
0.00163082
0.00721459
0.00170075
0.00868716
0.00173558
0.0094591
0.00172613
0.0101995
0.00167424
0.0111166
0.00159855
0.0115352
0.00152395
0.0104397
0.00146945
0.0074412
0.00144639
0.00309327
0.00145702
-0.00152
0.00149197
-0.00537789
0.00152973
-0.00794366
0.0015425
-0.00936326
0.00151376
-0.0101616
0.00145356
-0.0105996
0.00139309
-0.0102666
0.00136376
-0.00854047
0.00137901
-0.0053269
0.0014302
-0.00125503
0.00149119
0.00273481
0.00153071
0.00618551
0.00890854
0.00141391
0.000802143
0.00153096
0.00448708
0.0016314
0.00711415
0.00170512
0.00861344
0.00174313
0.00942109
0.00173657
0.0102061
0.00168725
0.0111659
0.00161296
0.0116095
0.00153737
0.0105153
0.00147936
0.0074992
0.00145131
0.00312132
0.00145672
-0.00152541
0.00148732
-0.00540849
0.00152242
-0.00797877
0.0015342
-0.00937504
0.00150536
-0.0101327
0.00144539
-0.0105396
0.00138563
-0.0102068
0.0013579
-0.00851274
0.00137568
-0.00534468
0.00142954
-0.00130889
0.00149269
0.00267166
0.00153382
0.00614437
0.00890485
0.00140509
0.000685847
0.0015266
0.00436557
0.0016314
0.00700935
0.00170896
0.00853588
0.00175026
0.00937978
0.00174674
0.0102096
0.00170017
0.0112125
0.00162734
0.0116823
0.00155077
0.0105919
0.00148922
0.00756076
0.00145612
0.00315442
0.00145626
-0.00152555
0.00148247
-0.0054347
0.00151492
-0.00801122
0.00152577
-0.0093859
0.00149691
-0.0101039
0.00143725
-0.01048
0.0013782
-0.0101478
0.00135199
-0.00848654
0.00137219
-0.00536488
0.00142866
-0.00136536
0.00149396
0.00260637
0.00153677
0.00610155
0.0088998
0.00139576
0.00152165
0.00423968
0.00163081
0.00690019
0.00171226
0.00845443
0.00175695
0.00933509
0.00175663
0.0102099
0.00171295
0.0112562
0.00164169
0.0117536
0.00156414
0.0106694
0.00149901
0.00762588
0.00146083
0.00319259
0.00145567
-0.00152039
0.00147745
-0.00545648
0.00150722
-0.00804099
0.0015172
-0.00939588
0.00148841
-0.0100751
0.00142912
-0.0104207
0.00137079
-0.0100895
0.00134604
-0.00846179
0.00136854
-0.00538738
0.00142753
-0.00142436
0.00149499
0.00253892
0.00153955
0.00605699
0.00889332
0.0015161
0.00410948
0.00162961
0.00678668
0.00171499
0.00836906
0.00176317
0.00928691
0.0017662
0.0102069
0.00172558
0.0112968
0.00165596
0.0118232
0.00157746
0.0107479
0.00150874
0.00769461
0.00146545
0.00323589
0.00145495
-0.0015099
0.00147226
-0.00547378
0.00149933
-0.00806806
0.00150849
-0.00940504
0.00147986
-0.0100464
0.001421
-0.0103618
0.00136339
-0.0100318
0.00134002
-0.00843842
0.00136471
-0.00541208
0.00142616
-0.00148581
0.00149577
0.00246931
0.00154214
0.00601062
0.00888532
0.00150994
0.00397505
0.00162778
0.00666884
0.00171712
0.00827972
0.00176889
0.00923514
0.00177543
0.0102004
0.00173801
0.0113342
0.00167015
0.0118911
0.00159073
0.0108274
0.00151839
0.00776694
0.00146996
0.00328432
0.00145411
-0.00149405
0.00146691
-0.00548657
0.00149126
-0.00809241
0.00149964
-0.00941342
0.00147126
-0.0100181
0.00141289
-0.0103035
0.00135599
-0.00997494
0.00133393
-0.00841636
0.0013607
-0.00543885
0.00142453
-0.00154963
0.0014963
0.00239755
0.00154454
0.00596237
0.00887575
0.00150315
0.00383648
0.0016253
0.00654668
0.00171864
0.00818639
0.00177409
0.00917969
0.00178429
0.0101902
0.00175023
0.0113682
0.00168422
0.0119571
0.00160391
0.0109077
0.00152797
0.00784289
0.00147438
0.00333791
0.00145316
-0.00147283
0.00146141
-0.00549482
0.001483
-0.00811401
0.00149064
-0.00942106
0.00146259
-0.00999002
0.00140478
-0.0102456
0.00134858
-0.00991875
0.00132776
-0.00839554
0.0013565
-0.0054676
0.00142264
-0.00161577
0.00149656
0.00232362
0.00154675
0.00591219
0.00886451
0.00149571
0.00369386
0.00162215
0.00642024
0.00171952
0.00808902
0.00177875
0.00912046
0.00179274
0.0101762
0.0017622
0.0113988
0.00169814
0.0120212
0.001617
0.0109888
0.00153745
0.00792243
0.0014787
0.00339667
0.00145209
-0.00144622
0.00145576
-0.0054985
0.00147457
-0.00813281
0.00148149
-0.00942798
0.00145386
-0.0099624
0.00139665
-0.0101884
0.00134116
-0.00986326
0.00132149
-0.00837587
0.0013521
-0.0054982
0.00142046
-0.00168413
0.00149655
0.00224752
0.00154874
0.00586
0.00885153
0.00148761
0.0035473
0.00161831
0.00628953
0.00171974
0.0079876
0.00178283
0.00905736
0.00180076
0.0101582
0.00177388
0.0114257
0.00171189
0.0120831
0.00162998
0.0110707
0.00154685
0.00800556
0.00148292
0.0034606
0.00145091
-0.00141422
0.00144998
-0.00549757
0.00146596
-0.00814879
0.00147219
-0.00943421
0.00144506
-0.00993527
0.00138851
-0.0101319
0.00133371
-0.00980846
0.00131513
-0.00835729
0.00134748
-0.00553055
0.001418
-0.00175465
0.00149626
0.00216926
0.00155051
0.00580575
0.00883673
0.00147885
0.0033969
0.00161377
0.00615461
0.00171927
0.0078821
0.00178631
0.00899032
0.00180832
0.0101362
0.00178524
0.0114488
0.00172543
0.012143
0.00164282
0.0111533
0.00155614
0.00809224
0.00148704
0.0035297
0.00144963
-0.00137681
0.00144407
-0.00549201
0.00145718
-0.00816189
0.00146273
-0.00943976
0.00143618
-0.00990872
0.00138034
-0.010076
0.00132622
-0.00975435
0.00130866
-0.00833972
0.00134264
-0.00556454
0.00141524
-0.00182724
0.00149567
0.00208882
0.00155206
0.00574936
0.00882004
0.00146941
0.00324281
0.00160851
0.00601552
0.0017181
0.00777251
0.00178916
0.00891926
0.00181538
0.01011
0.00179626
0.0114679
0.00173875
0.0122005
0.00165553
0.0112366
0.00156533
0.00818244
0.00149106
0.00360397
0.00144825
-0.001334
0.00143805
-0.00548181
0.00144824
-0.00817209
0.00145311
-0.00944464
0.00142722
-0.00988283
0.00137214
-0.0100209
0.00131869
-0.0097009
0.00130206
-0.0083231
0.00133758
-0.00560005
0.00141217
-0.00190183
0.00149478
0.00200621
0.00155336
0.00569079
0.00880136
0.00145929
0.00308514
0.00160251
0.0058723
0.00171619
0.00765883
0.00179135
0.0088441
0.00182191
0.0100794
0.00180688
0.0114829
0.00175181
0.0122555
0.00166806
0.0113203
0.00157439
0.00827611
0.00149497
0.00368339
0.00144677
-0.0012858
0.0014319
-0.00546694
0.00143913
-0.00817932
0.00144333
-0.00944884
0.00141816
-0.00985766
0.0013639
-0.00996668
0.0013111
-0.0096481
0.00129534
-0.00830734
0.00133227
-0.00563698
0.00140879
-0.00197835
0.00149358
0.00192143
0.00155441
0.00562995
0.00878062
0.00144847
0.00292406
0.00159576
0.00572501
0.00171354
0.00754105
0.00179286
0.00876478
0.00182787
0.0100444
0.00181709
0.0114937
0.00176458
0.012308
0.00168041
0.0114045
0.00158333
0.00837319
0.00149878
0.00376794
0.00144519
-0.00123221
0.00142565
-0.00544739
0.00142987
-0.00818355
0.00143339
-0.00945236
0.00140901
-0.00983328
0.00135561
-0.00991329
0.00130345
-0.00959594
0.00128848
-0.00829237
0.00132673
-0.00567523
0.00140509
-0.00205671
0.00149205
0.00183446
0.0015552
0.0055668
0.00875773
0.00143697
0.00275972
0.00158824
0.00557374
0.00171011
0.00741918
0.00179365
0.00868125
0.00183323
0.0100049
0.00182684
0.0115001
0.00177704
0.0123578
0.00169256
0.011489
0.00159214
0.00847362
0.00150248
0.00385759
0.00144352
-0.00117325
0.00141929
-0.00542315
0.00142046
-0.00818472
0.00142326
-0.00945516
0.00139974
-0.00980976
0.00134728
-0.00986083
0.00129572
-0.00954439
0.00128147
-0.00827811
0.00132093
-0.00571469
0.00140106
-0.00213685
0.00149019
0.00174533
0.00155572
0.00550127
0.00873261
0.00142476
0.0025923
0.00157995
0.00541855
0.0017059
0.00729323
0.0017937
0.00859344
0.00183796
0.00996059
0.00183609
0.0115019
0.00178914
0.0124048
0.00170449
0.0115736
0.0016008
0.00857731
0.00150607
0.00395231
0.00144176
-0.00110893
0.00141282
-0.00539422
0.00141089
-0.00818278
0.00141297
-0.00945724
0.00139036
-0.00978715
0.00133887
-0.00980934
0.00128791
-0.00949342
0.0012743
-0.0082645
0.00131487
-0.00575526
0.0013967
-0.00221867
0.00148799
0.00165403
0.00155596
0.00543331
0.00870518
0.00141186
0.002422
0.00157087
0.00525954
0.00170087
0.00716322
0.00179299
0.00850132
0.00184203
0.00991155
0.00184481
0.0114992
0.00180087
0.0124487
0.00171617
0.0116583
0.0016093
0.00868418
0.00150955
0.00405207
0.0014399
-0.00103927
0.00140626
-0.00536059
0.00140117
-0.00817769
0.00140249
-0.00945855
0.00138084
-0.00976551
0.00133041
-0.00975891
0.00128001
-0.00944303
0.00126697
-0.00825146
0.00130855
-0.00579684
0.00139199
-0.00230211
0.00148544
0.00156058
0.00155589
0.00536286
0.00867536
0.00139827
0.00224904
0.00156099
0.00509682
0.00169502
0.00702919
0.00179149
0.00840486
0.00184539
0.00985765
0.00185297
0.0114916
0.00181218
0.0124895
0.00172759
0.0117429
0.00161765
0.00879412
0.00151291
0.00415681
0.00143794
-0.000964308
0.00139961
-0.00532226
0.00139132
-0.00816939
0.00139182
-0.00945906
0.00137119
-0.00974487
0.00132186
-0.00970958
0.00127202
-0.00939319
0.00125946
-0.0082389
0.00130196
-0.00583934
0.00138693
-0.00238708
0.00148253
0.00146498
0.00155552
0.00528986
0.00864305
0.00138399
0.00207364
0.00155031
0.0049305
0.00168832
0.00689118
0.00178916
0.00830402
0.00184803
0.00979878
0.00186052
0.0114791
0.00182306
0.012527
0.00173873
0.0118272
0.00162582
0.00890704
0.00151615
0.00426648
0.00143589
-0.000884054
0.00139287
-0.00527924
0.00138132
-0.00815785
0.00138097
-0.00945871
0.00136139
-0.0097253
0.00131323
-0.00966142
0.00126392
-0.00934387
0.00125176
-0.00822674
0.00129508
-0.00588266
0.00138151
-0.00247351
0.00147924
0.00136725
0.00155483
0.00521426
0.00860817
0.00136904
0.00189607
0.00153883
0.00476072
0.00168077
0.00674923
0.001786
0.00819879
0.00184989
0.00973489
0.00186743
0.0114616
0.00183346
0.012561
0.00174957
0.0119111
0.00163381
0.0090228
0.00151926
0.00438103
0.00143375
-0.000798544
0.00138603
-0.00523152
0.00137119
-0.008143
0.00136993
-0.00945745
0.00135143
-0.0097068
0.00130452
-0.00961451
0.00125571
-0.00929507
0.00124388
-0.0082149
0.00128793
-0.00592671
0.00137574
-0.00256132
0.00147558
0.00126741
0.00155381
0.00513603
0.00857065
0.00135344
0.0017166
0.00152653
0.00458762
0.00167235
0.00660342
0.00178197
0.00808916
0.00185096
0.00966591
0.00187367
0.0114388
0.00184335
0.0125913
0.00176008
0.0119944
0.0016416
0.00914128
0.00152224
0.00450039
0.00143151
-0.000707809
0.00137911
-0.00517912
0.00136092
-0.0081248
0.00135869
-0.00945522
0.00134131
-0.00968942
0.0012957
-0.0095689
0.0012474
-0.00924676
0.00123579
-0.0082033
0.00128048
-0.0059714
0.0013696
-0.00265043
0.00147153
0.00116548
0.00155245
0.0050551
0.0085304
0.00133719
0.00153552
0.00151344
0.00441137
0.00166305
0.00645381
0.00177706
0.00797515
0.0018512
0.00959177
0.0018792
0.0114108
0.00185271
0.0126178
0.00177025
0.0120768
0.00164919
0.00926234
0.0015251
0.00462448
0.00142918
-0.000611883
0.00137211
-0.00512206
0.00135052
-0.00810322
0.00134726
-0.00945196
0.001331
-0.00967317
0.00128678
-0.00952468
0.00123896
-0.00919895
0.00122751
-0.00819184
0.00127274
-0.00601664
0.00136309
-0.00274078
0.00146709
0.00106148
0.00155073
0.00497146
0.00848735
0.00132032
0.00135317
0.00149954
0.00423216
0.00165286
0.00630049
0.00177125
0.00785676
0.00185058
0.00951243
0.00188398
0.0113774
0.00186151
0.0126402
0.00178004
0.0121583
0.00165656
0.00938581
0.00152782
0.00475322
0.00142675
-0.000510805
0.00136502
-0.00506033
0.00134
-0.0080782
0.00133563
-0.00944759
0.00132051
-0.00965805
0.00127774
-0.00948191
0.00123041
-0.00915162
0.00121901
-0.00818044
0.0012647
-0.00606234
0.00135621
-0.00283229
0.00146225
0.000955451
0.00154865
0.00488505
0.0084414
0.00130287
0.00116985
0.00148485
0.00405018
0.00164177
0.00614356
0.00176451
0.00773402
0.00184907
0.00942786
0.00188798
0.0113385
0.0018697
0.0126585
0.00178945
0.0122386
0.00166371
0.00951155
0.00153041
0.00488652
0.00142422
-0.000404615
0.00135784
-0.00499395
0.00132935
-0.0080497
0.0013238
-0.00944204
0.00130982
-0.00964407
0.00126858
-0.00944068
0.00122175
-0.00910478
0.0012103
-0.00816899
0.00125636
-0.00610839
0.00134897
-0.00292489
0.001457
0.000847415
0.0015462
0.00479585
0.0083925
0.00128487
0.000985932
0.00146938
0.00386568
0.00162979
0.00598315
0.00175683
0.00760699
0.00184665
0.00933804
0.00189117
0.011294
0.00187726
0.0126724
0.00179844
0.0123174
0.00167062
0.00963936
0.00153286
0.00502427
0.0014216
-0.000293353
0.00135059
-0.00492294
0.00131858
-0.0080177
0.00131177
-0.00943522
0.00129892
-0.00963122
0.00125929
-0.00940105
0.00121296
-0.00905844
0.00120138
-0.00815741
0.0012477
-0.00615472
0.00134134
-0.00301853
0.00145135
0.000737409
0.00154336
0.00470385
0.00834056
0.00126637
0.000801742
0.00145316
0.00367889
0.00161692
0.00581939
0.0017482
0.0074757
0.00184329
0.00924295
0.00189351
0.0112438
0.00188416
0.0126818
0.00180699
0.0123945
0.00167728
0.00976906
0.00153518
0.00516638
0.00141889
-0.000177064
0.00134325
-0.0048473
0.0013077
-0.00798214
0.00129954
-0.00942707
0.00128781
-0.00961948
0.00124986
-0.0093631
0.00120405
-0.00901263
0.00119224
-0.00814561
0.00123873
-0.00620121
0.00133334
-0.00311315
0.00144529
0.000625467
0.00154012
0.00460901
0.00828551
0.00124741
0.000617622
0.00143621
0.00349009
0.00160316
0.00565243
0.00173861
0.00734026
0.00183896
0.0091426
0.00189496
0.0111878
0.00189036
0.0126864
0.00181508
0.0124698
0.00168369
0.00990046
0.00153736
0.00531271
0.00141609
-5.57935e-05
0.00133584
-0.00476705
0.0012967
-0.007943
0.00128711
-0.00941749
0.00127647
-0.00960884
0.00124028
-0.00932691
0.00119502
-0.00896737
0.00118289
-0.00813348
0.00122944
-0.00624776
0.00132497
-0.00320868
0.00143881
0.000511625
0.00153649
0.00451134
0.00822731
0.00122806
0.000433889
0.00141857
0.00329958
0.00158853
0.00548247
0.00172806
0.00720073
0.00183365
0.00903701
0.00189551
0.0111259
0.00189584
0.0126861
0.00182269
0.012543
0.00168982
0.0100333
0.00153941
0.00546313
0.0014132
7.0413e-05
0.00132834
-0.00468219
0.00128558
-0.00790024
0.00127449
-0.0094064
0.00126489
-0.00959924
0.00123053
-0.00929255
0.00118586
-0.00892271
0.00117332
-0.00812093
0.00121983
-0.00629427
0.00131622
-0.00330507
0.00143193
0.000395913
0.00153245
0.00441082
0.00816587
0.00120838
0.000250821
0.00140031
0.00310764
0.00157307
0.00530972
0.00171654
0.00705726
0.00182733
0.00892622
0.00189512
0.0110581
0.00190056
0.0126806
0.00182979
0.0126137
0.00169569
0.0101674
0.00154133
0.00561748
0.00141023
0.000201519
0.00132076
-0.00459273
0.00127436
-0.00785383
0.00126166
-0.0093937
0.00125308
-0.00959066
0.00122061
-0.00926008
0.00117659
-0.00887868
0.00116355
-0.00810789
0.00120989
-0.00634061
0.00130709
-0.00340228
0.00142464
0.000278362
0.001528
0.00430747
0.00810117
0.00118846
6.86469e-05
0.00138149
0.00291461
0.0015568
0.00513441
0.00170407
0.00691
0.00181999
0.00881029
0.00189376
0.0109844
0.00190449
0.0126699
0.00183635
0.0126819
0.00170127
0.0103025
0.00154314
0.00577561
0.00140717
0.000337492
0.00131311
-0.00449867
0.00126303
-0.00780374
0.00124865
-0.00937933
0.00124103
-0.00958304
0.00121052
-0.00922956
0.00116719
-0.00883536
0.00115357
-0.00809427
0.00119962
-0.00638666
0.00129758
-0.00350024
0.00141696
0.000158991
0.00152314
0.00420129
0.00803314
0.00116836
-0.000112477
0.00136223
0.00272075
0.00153982
0.00495682
0.00169068
0.00675913
0.00181164
0.00868933
0.00189142
0.0109046
0.00190761
0.0126537
0.00184237
0.0127471
0.00170657
0.0104383
0.00154484
0.00593734
0.00140405
0.00047828
0.00130538
-0.0044
0.0012516
-0.00774996
0.00123545
-0.00936318
0.00122873
-0.00957633
0.00120023
-0.00920107
0.00115768
-0.0087928
0.00114341
-0.00808
0.00118903
-0.00643228
0.0012877
-0.00359891
0.00140888
3.78112e-05
0.00151788
0.00409229
0.00796177
0.00114814
-0.000292477
0.00134263
0.00252625
0.00152222
0.00477722
0.00167644
0.00660492
0.00180229
0.00856348
0.00188808
0.0108188
0.00190989
0.0126319
0.00184782
0.0128092
0.00171162
0.0105745
0.00154646
0.0061025
0.00140088
0.000623857
0.00129758
-0.0042967
0.00124006
-0.00769244
0.00122204
-0.00934515
0.00121616
-0.00957044
0.00118973
-0.00917464
0.00114802
-0.00875108
0.00113304
-0.00806502
0.00117809
-0.00647733
0.00127742
-0.00369824
0.00140042
-8.51845e-05
0.00151223
0.00398048
0.00788703
0.00112778
-0.000471439
0.00132281
0.00233123
0.00150416
0.00459587
0.00166145
0.00644763
0.00179198
0.00843295
0.00188375
0.010727
0.00191134
0.0126043
0.00185276
0.0128678
0.00171654
0.0107107
0.00154819
0.00627085
0.00139776
0.00077428
0.00128971
-0.00418865
0.00122836
-0.00763109
0.00120836
-0.00932516
0.00120325
-0.00956534
0.00117897
-0.00915036
0.0011382
-0.00871031
0.00112247
-0.00804929
0.0011668
-0.00652166
0.00126672
-0.00379816
0.00139155
-0.000210021
0.00150618
0.00386584
0.0078089
0.00110745
-0.000649353
0.00130304
0.00213564
0.00148592
0.00441298
0.00164594
0.00628761
0.00178086
0.00829803
0.00187852
0.0106294
0.00191206
0.0125708
0.0018573
0.0129225
0.00172141
0.0108466
0.00154997
0.00644228
0.00139458
0.000929679
0.00128163
-0.00407571
0.0012165
-0.00756595
0.00119451
-0.00930317
0.00119014
-0.00956096
0.00116805
-0.00912828
0.00112831
-0.00867057
0.00111179
-0.00803276
0.00115525
-0.00656512
0.00125564
-0.00389856
0.00138234
-0.000336714
0.00149983
0.00374835
0.00772737
0.00108894
0.0012848
0.00193978
0.00146876
0.00422902
0.00163101
0.00612537
0.00176983
0.00815921
0.00187301
0.0105262
0.00191229
0.0125315
0.00186124
0.0129736
0.00172545
0.0109824
0.0015503
0.00661743
0.00138981
0.00109017
0.00127268
-0.00395858
0.00120449
-0.00749776
0.00118088
-0.00927956
0.00117731
-0.0095574
0.00115745
-0.00910841
0.00111884
-0.00863196
0.00110153
-0.00801545
0.00114399
-0.00660758
0.00124487
-0.00399944
0.0013734
-0.000465243
0.00149365
0.0036281
0.00764262
0.00422726
0.00166443
0.00456326
0.00389302
0.00486081
0.00582782
0.00505992
0.0079601
0.00516166
0.0104245
0.00519519
0.012498
0.00518609
0.0129827
0.00517462
0.0109939
0.00520967
0.00658237
0.0052781
0.00102174
0.00534642
-0.00402691
0.00535651
-0.00750784
0.00532199
-0.00924504
0.00524004
-0.00947544
0.00506898
-0.00893736
0.00482338
-0.00838636
0.00460604
-0.00779812
0.00452288
-0.00652442
0.0045819
-0.00405845
0.00471473
-0.000598073
0.00482872
0.00351411
0.00759137
0.0043546
0.00138513
0.00469594
0.00355168
0.00500165
0.00552211
0.00521699
0.00774476
0.00534475
0.0102967
0.00540397
0.0124387
0.0054106
0.0129761
0.00540284
0.0110016
0.00543571
0.00654951
0.00552679
0.000930658
0.00558679
-0.0040869
0.00557972
-0.00750078
0.00552092
-0.00918624
0.0054227
-0.00937722
0.00524517
-0.00875983
0.00499259
-0.00813378
0.00476242
-0.00756794
0.0046677
-0.00642971
0.00472559
-0.00411635
0.00485959
-0.000732068
0.00498736
0.00338634
0.00752647
0.00449175
0.00111184
0.00483587
0.00320756
0.00514979
0.00520819
0.00538194
0.0075126
0.0055336
0.010145
0.00561651
0.0123558
0.00564099
0.0129516
0.00564671
0.0109959
0.00569502
0.0065012
0.00578475
0.000840929
0.0058423
-0.00414444
0.00581459
-0.00747308
0.00572956
-0.0091012
0.00561339
-0.00926106
0.00542887
-0.00857531
0.00516924
-0.00787414
0.00492541
-0.00732412
0.00481749
-0.00632179
0.00487109
-0.00416994
0.00501327
-0.000874255
0.00515323
0.00324639
0.00744665
0.00463772
0.000845511
0.00498178
0.00286351
0.00530349
0.00488648
0.00555336
0.00726273
0.00572965
0.00996875
0.00583789
0.0122476
0.00588355
0.0129059
0.0059065
0.010973
0.00596814
0.00643956
0.00606406
0.000745007
0.00611198
-0.00419236
0.00606185
-0.00742295
0.00594807
-0.00898742
0.00581152
-0.00912451
0.0056195
-0.00838329
0.00535357
-0.0076082
0.00509553
-0.00706609
0.00497243
-0.00619869
0.00502115
-0.00421866
0.00517119
-0.00102429
0.00532611
0.00309146
0.00734956
0.00478986
0.000589527
0.0051319
0.00252147
0.00546146
0.00455692
0.00573014
0.00699404
0.00593291
0.00976598
0.00606883
0.0121117
0.0061378
0.012837
0.00618112
0.0109296
0.00625968
0.00636099
0.00635903
0.000645657
0.0063954
-0.00422872
0.00632077
-0.00734832
0.00617602
-0.00884267
0.00601676
-0.00896525
0.00581667
-0.0081832
0.00554554
-0.00733707
0.00527335
-0.0067939
0.00513309
-0.00605843
0.00517515
-0.00426071
0.00533307
-0.00118221
0.00550536
0.00291917
0.00723218
0.00494644
0.00034806
0.00528469
0.00218322
0.0056225
0.00421911
0.00591143
0.00670512
0.00614279
0.00953462
0.00630793
0.0119465
0.00640235
0.0127425
0.00647092
0.0108611
0.00656872
0.0062632
0.00666983
0.000544544
0.00669157
-0.00425046
0.00659038
-0.00724713
0.00641287
-0.00866517
0.00622871
-0.00878109
0.00601988
-0.00797438
0.00574495
-0.00706214
0.00545918
-0.00650813
0.00529983
-0.00589908
0.00533297
-0.00429385
0.00549881
-0.00134806
0.0056907
0.00272728
0.00709132
0.00510597
0.000126144
0.00543853
0.00185066
0.00578525
0.00387239
0.00609611
0.00639426
0.00635762
0.00927311
0.00655285
0.0117513
0.00667606
0.0126193
0.00677529
0.0107618
0.0068944
0.00614409
0.00699517
0.000443776
0.00699905
-0.00425434
0.00686936
-0.00711744
0.00665779
-0.0084536
0.00644683
-0.00857012
0.00622854
-0.00775609
0.00595142
-0.00678502
0.00565329
-0.00621
0.00547317
-0.00571896
0.00549478
-0.00431547
0.00566816
-0.00152143
0.00588182
0.00251363
0.00692382
0.00526763
-6.99821e-05
0.00559178
0.00152651
0.00594799
0.00351618
0.00628247
0.00605977
0.00657502
0.00898057
0.00680127
0.011525
0.00695739
0.0124632
0.00709257
0.0106267
0.00723492
0.00600175
0.00733323
0.000345467
0.0073159
-0.00423702
0.00715599
-0.00695753
0.0069097
-0.0082073
0.00667051
-0.00833093
0.00644197
-0.00752755
0.00616443
-0.00650747
0.00585586
-0.00590144
0.00565381
-0.00551691
0.00566097
-0.00432262
0.0058409
-0.00170136
0.00607827
0.00227625
0.00672667
0.00543191
-0.000232796
0.00574324
0.00121519
0.00610884
0.00315058
0.00646831
0.0057003
0.0067923
0.00865658
0.00705056
0.0112668
0.00724388
0.0122699
0.00742026
0.0104503
0.00758766
0.00583435
0.00768145
0.000251678
0.00763967
-0.00419524
0.00744816
-0.00676602
0.00716725
-0.0079264
0.00689901
-0.00806268
0.00665944
-0.00728798
0.00638329
-0.00623132
0.00606697
-0.00558512
0.00584256
-0.00529251
0.00583211
-0.00431217
0.00601694
-0.00188619
0.00627952
0.00201367
0.00649717
0.0056013
-0.000354343
0.0058931
0.000923384
0.00626636
0.00277732
0.00665123
0.00531543
0.00700631
0.0083015
0.00729738
0.0109757
0.00753232
0.012035
0.00775499
0.0102276
0.00794903
0.0056403
0.00803658
0.000164135
0.00796736
-0.00412602
0.00774338
-0.00654205
0.00742885
-0.00761186
0.00713152
-0.00776535
0.00688018
-0.00703665
0.00660718
-0.00595833
0.00628649
-0.00526443
0.00604026
-0.00504627
0.00600913
-0.00428104
0.00619642
-0.00207348
0.00648496
0.00172512
0.00623316
0.0057805
-0.000428329
0.00604372
0.000660157
0.00642006
0.00240098
0.00682866
0.00490684
0.00721326
0.00791689
0.00753775
0.0106512
0.00781884
0.0117539
0.00809268
0.00995375
0.00831467
0.00541832
0.00839441
8.43896e-05
0.00829543
-0.00402704
0.00803887
-0.00628548
0.00769267
-0.00726566
0.00736715
-0.00743983
0.00710346
-0.00677297
0.00683517
-0.00569004
0.00651409
-0.00494334
0.00624773
-0.00477992
0.00619318
-0.00422648
0.00637972
-0.00226002
0.00669395
0.00141089
0.00593318
0.00597539
-0.000452185
0.00619978
0.000435774
0.0065707
0.00203005
0.00699794
0.00447959
0.00740886
0.00750597
0.00776725
0.0102928
0.0080991
0.011422
0.00842846
0.0096244
0.00867955
0.00516723
0.00875012
1.38174e-05
0.00861999
-0.00389691
0.00833162
-0.00599711
0.00795677
-0.00689081
0.00760496
-0.00708802
0.00732859
-0.0064966
0.00706625
-0.0054277
0.00674915
-0.00462624
0.00646567
-0.00449644
0.00638562
-0.00414643
0.00656741
-0.00244181
0.00690578
0.00107252
0.00559666
0.00619163
-0.000429214
0.00636745
0.000259958
0.00672012
0.00167738
0.00715653
0.00404319
0.00758856
0.00707394
0.00798119
0.00990019
0.00836844
0.0110348
0.00875717
0.00923567
0.00903805
0.00488635
0.00909845
-4.65777e-05
0.00893688
-0.00373535
0.00861857
-0.0056788
0.00821913
-0.00649137
0.00784403
-0.00671292
0.00755498
-0.00620755
0.0072994
-0.00517212
0.00699081
-0.00431764
0.00669447
-0.0042001
0.00658785
-0.00403981
0.00676024
-0.0026142
0.00711974
0.000713019
0.00522416
0.00643243
-0.000369203
0.00655287
0.000139524
0.00687087
0.00135937
0.0073021
0.00361196
0.00774781
0.00662823
0.00817498
0.00947303
0.00862239
0.0105874
0.00907366
0.0087844
0.00938435
0.00457565
0.00943407
-9.62952e-05
0.00924198
-0.00354326
0.00889675
-0.00533357
0.0084778
-0.00607243
0.00808342
-0.00631853
0.00778214
-0.00590628
0.00753367
-0.00492365
0.00723795
-0.00402192
0.00693414
-0.00389628
0.00680108
-0.00390675
0.00695901
-0.00277213
0.00733511
0.00033692
0.00481744
0.00669696
-0.000287278
0.00676027
7.62084e-05
0.00702558
0.00109407
0.00743278
0.00320476
0.00788248
0.00617853
0.00834472
0.00901079
0.00885739
0.0100747
0.00937345
0.00826834
0.00971302
0.00423608
0.0097519
-0.00013517
0.00953142
-0.00332279
0.00916351
-0.00496566
0.00873102
-0.00563993
0.00832231
-0.00590982
0.00800976
-0.00559373
0.00776822
-0.00468211
0.0074893
-0.00374301
0.0071842
-0.00359118
0.00702617
-0.00374872
0.00716444
-0.00291041
0.00755114
-4.9779e-05
0.00437967
0.00697971
-0.000200479
0.00699068
6.52377e-05
0.00718683
0.00089792
0.00754769
0.0028439
0.0079896
0.00573662
0.00848805
0.00851234
0.00907156
0.00949119
0.0096536
0.0076863
0.0100197
0.00387002
0.0100475
-0.000163012
0.00980195
-0.00307723
0.00941669
-0.0045804
0.0089773
-0.00520054
0.00855999
-0.00549251
0.00823765
-0.0052714
0.00800238
-0.00444683
0.00774347
-0.00348411
0.00744369
-0.00329139
0.00726339
-0.00356842
0.00737698
-0.003024
0.00776695
-0.000439749
0.00391545
0.00727173
-0.000123152
0.00724133
9.5638e-05
0.00735779
0.000781463
0.00764941
0.00255227
0.00806991
0.00531612
0.00860647
0.00797578
0.009267
0.00883065
0.00991405
0.00703925
0.0103017
0.00348239
0.0103176
-0.0001789
0.0100512
-0.00281082
0.00965483
-0.00418408
0.00921557
-0.00476128
0.00879591
-0.00507285
0.00846584
-0.00494133
0.00823568
-0.00421668
0.00799906
-0.00324748
0.00771123
-0.00300356
0.00751239
-0.00336958
0.00759653
-0.00310813
0.00798124
-0.000824466
0.00343082
0.00756335
-6.30227e-05
0.00750628
0.000152709
0.00754326
0.000744486
0.00774886
0.00234668
0.00813546
0.00492951
0.00871284
0.0073984
0.00945439
0.00808911
0.0101595
0.00633419
0.0105585
0.00308337
0.0105599
-0.000180355
0.0102777
-0.00252856
0.00987731
-0.00378371
0.00944526
-0.00432923
0.00902971
-0.0046573
0.0086945
-0.00460611
0.00846793
-0.00399011
0.0082547
-0.00303426
0.00798511
-0.00273396
0.00777223
-0.0031567
0.00782235
-0.00315826
0.00819205
-0.00119417
0.00293323
0.00784771
-1.99799e-05
0.00777828
0.000222136
0.00774964
0.000773129
0.00786924
0.00222708
0.00821888
0.00457987
0.00883937
0.00677791
0.00965522
0.00727326
0.0103977
0.00559168
0.0107903
0.00269083
0.0107734
-0.000163446
0.0104812
-0.00223643
0.0100844
-0.00338693
0.00966633
-0.00391113
0.0092612
-0.00425217
0.00892397
-0.00426887
0.0086992
-0.00376535