/*--------------------------------*- C++ -*----------------------------------*\
  =========                 |
  \\      /  F ield         | OpenFOAM: The Open Source CFD Toolbox
   \\    /   O peration     | Website:  https://openfoam.org
    \\  /    A nd           | Version:  7
     \\/     M anipulation  |
\*---------------------------------------------------------------------------*/
FoamFile
{
    version     2.0;
    format      ascii;
    class       surfaceScalarField;
    location    "260";
    object      phi;
}
// * * * * * * * * * * * * * * * * * * * * * * * * * * * * * * * * * * * * * //

dimensions      [0 3 -1 0 0 0 0];

internalField   nonuniform List<scalar> 
8923
(
0.000301141
-0.00944398
0.00945913
0.000312239
-0.00934611
0.00933501
0.000407173
-0.00835062
0.00825568
0.000584077
-0.00609023
0.00591332
0.000797325
-0.00282952
0.00261627
0.0010108
0.000784404
-0.000997876
0.00120017
0.00409976
-0.00428913
0.00134835
0.00664212
-0.0067903
0.00144739
0.00826041
-0.00835946
0.00149887
0.00910944
-0.00916091
0.00151406
0.00944276
-0.00945796
0.00150261
0.00946427
-0.00945282
0.00145914
0.0094558
-0.00941233
0.001379
0.00969784
-0.00961771
0.001288
0.00992747
-0.00983647
0.00123538
0.00919559
-0.00914297
0.00125118
0.00671756
-0.00673336
0.00132727
0.00276323
-0.00283932
0.00143444
-0.00155573
0.00144856
0.00153941
-0.00516874
0.00506377
0.00161791
-0.00761795
0.00753944
0.00166442
-0.00898081
0.0089343
-0.00952529
0.0095055
0.000302335
-0.0094176
0.000296531
-0.0093403
0.000374884
-0.00842897
0.000544308
-0.00625965
0.000759447
-0.00304466
0.000979946
0.000563905
0.00117855
0.00390116
0.00133622
0.00648445
0.00144363
0.008153
0.00150189
0.00905118
0.00152244
0.00942221
0.0015147
0.00947201
0.00147342
0.00949708
0.00139519
0.00977608
0.00130659
0.0100161
0.00125549
0.0092467
0.00126984
0.00670321
0.0013415
0.00269158
0.00144286
-0.0016571
0.00154214
-0.00526802
0.00161565
-0.00769146
0.00165795
-0.0090231
-0.00954189
0.000306476
-0.00938112
0.000284505
-0.00931833
0.000345573
-0.00849004
0.000506027
-0.00642011
0.000721978
-0.00326061
0.000948864
0.000337018
0.00115636
0.00369366
0.00132339
0.00631742
0.00143918
0.00803721
0.00150438
0.00898599
0.00153046
0.00939613
0.00152659
0.00947588
0.00148772
0.00953594
0.00141165
0.00985215
0.00132559
0.0101021
0.00127586
0.00929643
0.00128848
0.00669059
0.00135544
0.00262461
0.00145083
-0.00175249
0.00154434
-0.00536152
0.00161289
-0.00776001
0.00165105
-0.00906127
-0.00955537
0.000313392
-0.00933569
0.000276188
-0.00928113
0.00031947
-0.00853332
0.000469461
-0.0065701
0.000685062
-0.00347621
0.000917637
0.000104443
0.00113365
0.00347765
0.00130987
0.0061412
0.00143404
0.00791304
0.0015063
0.00891373
0.00153807
0.00936436
0.00153824
0.00947571
0.00150202
0.00957217
0.00142838
0.00992579
0.00134496
0.0101855
0.00129647
0.00934492
0.00130708
0.00667997
0.00136911
0.00256258
0.00145835
-0.00184172
0.00154601
-0.00544919
0.00160962
-0.00782362
0.00164373
-0.00909537
-0.00956583
0.000322881
-0.00928244
0.000271552
-0.0092298
0.000296776
-0.00855854
0.000434836
-0.00670816
0.000648843
-0.00369021
0.000886349
-0.000133063
0.00111044
0.00325356
0.00129565
0.00595599
0.0014282
0.00778049
0.00150764
0.00883429
0.00154526
0.00932673
0.00154964
0.00947134
0.00151628
0.00960552
0.00144532
0.00999675
0.00136466
0.0102662
0.00131726
0.00939232
0.00132561
0.00667162
0.00138248
0.00250571
0.00146541
-0.00192465
0.00154717
-0.00553095
0.00160589
-0.00788233
0.00163602
-0.00912551
-0.00957337
0.000334716
-0.0092225
0.00027052
-0.0091656
0.000277656
-0.00856568
0.000402381
-0.00683288
0.000613468
-0.0039013
0.000855083
-0.000374678
0.00108678
0.00302186
0.00128075
0.00576202
0.00142162
0.00763962
0.00150836
0.00874755
0.00155199
0.0092831
0.00156073
0.00946259
0.00153048
0.00963577
0.00146245
0.0100648
0.00138464
0.010344
0.0013382
0.00943876
0.00134405
0.00666576
0.00139556
0.00245421
0.00147204
-0.00200113
0.00154784
-0.00560675
0.00160168
-0.00793618
0.00162792
-0.00915175
-0.00957805
0.000348653
-0.00915693
0.000272962
-0.00908991
0.000262242
-0.00855496
0.00037232
-0.00694296
0.000579078
-0.00410806
0.000823927
-0.000619526
0.0010627
0.00278308
0.00126515
0.00555957
0.00141431
0.00749047
0.00150843
0.00865343
0.00155821
0.00923332
0.0015715
0.0094493
0.00154458
0.00966269
0.00147973
0.0101296
0.00140484
0.0104189
0.00135923
0.00948437
0.00136237
0.00666263
0.00140832
0.00240826
0.00147823
-0.00207105
0.00154801
-0.00567653
0.00159703
-0.00798519
0.00161945
-0.00917417
-0.00957998
0.000364431
-0.00908674
0.0002787
-0.00900418
0.00025062
-0.00852688
0.000344876
-0.00703722
0.000545818
-0.004309
0.000792964
-0.000866673
0.00103824
0.00253781
0.00124888
0.00534893
0.00140623
0.00733311
0.00150783
0.00855184
0.0015639
0.00917725
0.00158189
0.0094313
0.00155854
0.00968604
0.0014971
0.0101911
0.00142523
0.0104908
0.00138032
0.00952928
0.00138053
0.00666242
0.00142076
0.00236803
0.00148399
-0.00213428
0.00154771
-0.00574025
0.00159193
-0.00802941
0.00161063
-0.00919287
-0.00957923
0.000381781
-0.00901285
0.000287514
-0.00890991
0.000242834
-0.0084822
0.000320262
-0.00711465
0.000513836
-0.00450258
0.000762278
-0.00111511
0.00101344
0.00228664
0.00123192
0.00513046
0.00139738
0.00716764
0.00150652
0.0084427
0.00156901
0.00911477
0.00159188
0.00940843
0.00157233
0.00970559
0.00151453
0.0102489
0.00144574
0.0105596
0.00140141
0.00957361
0.00139851
0.00666531
0.00143286
0.00233369
0.00148931
-0.00219073
0.00154693
-0.00579787
0.0015864
-0.00806888
0.00160145
-0.00920793
-0.00957589
0.000400431
-0.00893609
0.000299144
-0.00880863
0.000238875
-0.00842193
0.000298678
-0.00717445
0.000483288
-0.00468718
0.000731948
-0.00136377
0.000988329
0.00203026
0.00121428
0.0049045
0.00138774
0.00699419
0.00150447
0.00832597
0.0015735
0.00904575
0.00160141
0.00938052
0.00158588
0.00972112
0.00153194
0.0103028
0.00146631
0.0106252
0.00142246
0.00961746
0.00141628
0.0066715
0.00144462
0.00230534
0.00149421
-0.00224032
0.0015457
-0.00584936
0.00158045
-0.00810363
0.00159195
-0.00921942
-0.00957003
0.000420108
-0.00885719
0.000313298
-0.00870182
0.000238684
-0.00834732
0.000280304
-0.00721607
0.000454334
-0.00486121
0.000702054
-0.0016115
0.000962949
0.00176937
0.00119598
0.00467147
0.00137729
0.00681288
0.00150166
0.0082016
0.00157733
0.00897008
0.00161044
0.00934741
0.00159917
0.00973239
0.0015493
0.0103527
0.00148689
0.0106876
0.00144341
0.00966094
0.0014338
0.00668111
0.00145602
0.00228312
0.00149869
-0.00228299
0.00154402
-0.00589469
0.00157409
-0.0081337
0.00158211
-0.00922744
0.00157382
-0.00956173
-0.00947626
0.000440545
-0.00877675
0.000329659
-0.00859093
0.000242144
-0.00825981
0.000265294
-0.00723922
0.000427144
-0.00502306
0.000672679
-0.00185703
0.000937337
0.00150471
0.00117701
0.0044318
0.00136602
0.00662387
0.00149804
0.00806958
0.00158045
0.00888766
0.00161892
0.00930894
0.00161212
0.00973918
0.00156654
0.0103983
0.00150742
0.0107467
0.00146422
0.00970414
0.00145104
0.00669429
0.00146705
0.00226711
0.00150274
-0.00231868
0.00154189
-0.00593384
0.00156733
-0.00815913
0.00157196
-0.00923208
0.00156131
-0.00955108
-0.00945069
0.000461483
-0.00869529
0.000347892
-0.00847734
0.000249083
-0.008161
0.000253772
-0.00724391
0.000401897
-0.00517119
0.000643907
-0.00209904
0.00091153
0.00123709
0.00115739
0.00418594
0.00135391
0.00642735
0.00149359
0.0079299
0.00158283
0.00879842
0.0016268
0.00926497
0.0016247
0.00974128
0.00158361
0.0104394
0.00152782
0.0108025
0.00148484
0.00974713
0.00146798
0.00671115
0.00147769
0.00225739
0.00150637
-0.00234736
0.00153933
-0.0059668
0.00156016
-0.00817996
0.0015615
-0.00923342
0.00154856
-0.00953814
-0.00942416
0.000482678
-0.00861321
0.000367651
-0.00836231
0.000259274
-0.00805262
0.000245821
-0.00723045
0.000378779
-0.00530415
0.000615831
-0.00233609
0.000885569
0.000967349
0.00113712
0.00393439
0.00134095
0.00622352
0.00148827
0.00778258
0.00158442
0.00870226
0.00163404
0.00921534
0.00163685
0.00973848
0.00160043
0.0104758
0.00154805
0.0108549
0.00150521
0.00978997
0.00148457
0.00673179
0.00148794
0.00225403
0.00150958
-0.00236901
0.00153634
-0.00599356
0.00155261
-0.00819623
0.00155074
-0.00923155
0.00153559
-0.00952299
-0.00939674
0.0005039
-0.00853081
0.000388588
-0.008247
0.000272442
-0.00793647
0.000241481
-0.00719949
0.000357982
-0.00542065
0.000588554
-0.00256666
0.000859497
0.000696406
0.00111622
0.00367767
0.00132713
0.00601261
0.00148205
0.00762766
0.00158517
0.00859914
0.00164058
0.00915992
0.00164851
0.00973055
0.00161694
0.0105073
0.00156804
0.0109038
0.00152529
0.00983272
0.00150079
0.00675629
0.00149777
0.00225705
0.00151237
-0.00238361
0.00153293
-0.00601412
0.00154467
-0.00820798
0.00153967
-0.00922655
0.00152239
-0.0095057
-0.00936851
0.000524938
-0.00844833
0.000410353
-0.00813242
0.000288264
-0.00781438
0.000240743
-0.00715197
0.000339695
-0.0055196
0.00056219
-0.00278916
0.000833362
0.000425234
0.00109471
0.00341632
0.00131244
0.00579488
0.0014749
0.0074652
0.00158503
0.00848901
0.00164638
0.00909858
0.00165961
0.00971732
0.00163309
0.0105339
0.00158773
0.0109492
0.00154503
0.00987542
0.00151662
0.0067847
0.00150717
0.0022665
0.00151473
-0.00239117
0.0015291
-0.00602849
0.00153635
-0.00821523
0.00152831
-0.0092185
0.00150896
-0.00948636
-0.00933952
0.000545601
-0.00836588
0.000432612
-0.00801943
0.000306385
-0.00768816
0.000243541
-0.00708913
0.000324102
-0.00560016
0.000536874
-0.00300193
0.000807226
0.000154882
0.0010726
0.00315094
0.00129688
0.0055706
0.0014668
0.00729528
0.00158397
0.00837184
0.00165136
0.0090312
0.0016701
0.00969858
0.00164879
0.0105552
0.00160705
0.0109909
0.00156439
0.00991809
0.00153201
0.00681708
0.00151613
0.00228237
0.00151667
-0.0023917
0.00152487
-0.00603669
0.00152766
-0.00821803
0.00151666
-0.0092075
0.00149532
-0.00946502
-0.00930983
0.000565718
-0.00828355
0.00045504
-0.00790875
0.00032642
-0.00755954
0.000249752
-0.00701246
0.00031137
-0.00566178
0.000512754
-0.00320332
0.000781149
-0.000113513
0.00104993
0.00288216
0.00128044
0.00534009
0.00145771
0.00711801
0.00158195
0.0082476
0.00165549
0.00895765
0.00167992
0.00967415
0.001664
0.0105711
0.00162594
0.011029
0.00158331
0.00996072
0.00154694
0.00685345
0.00152464
0.00230467
0.00151819
-0.00238525
0.00152022
-0.00603872
0.0015186
-0.0082164
0.00150471
-0.00919361
0.00148145
-0.00944176
-0.0092795
0.000585137
-0.00820134
0.000477336
-0.00780095
0.000347969
-0.00743017
0.000259193
-0.00692368
0.00030164
-0.00570423
0.000490031
-0.00339171
0.000755167
-0.000378649
0.00102672
0.00261061
0.00126313
0.00510368
0.00144762
0.00693353
0.0015789
0.00811632
0.00165871
0.00887784
0.00168901
0.00964386
0.00167863
0.0105815
0.00164435
0.0110632
0.00160175
0.0100033
0.00156139
0.0068938
0.00153269
0.00233337
0.00151928
-0.00237184
0.00151518
-0.00603462
0.00150916
-0.00821038
0.00149248
-0.00917693
0.00146738
-0.00941666
-0.00924855
0.000603727
-0.00811926
0.000499221
-0.00769644
0.000370624
-0.00730157
0.000271621
-0.00682468
0.000295015
-0.00572762
0.000468821
-0.00356551
0.000729423
-0.000639251
0.00100301
0.00233702
0.00124495
0.00486174
0.00143649
0.00674198
0.00157481
0.007978
0.00166097
0.00879167
0.0016973
0.00960753
0.00169262
0.0105862
0.00166221
0.0110936
0.00161967
0.0100459
0.00157533
0.00693814
0.00154026
0.00236844
0.00151995
-0.00235152
0.00150975
-0.00602442
0.00149937
-0.0082
0.00147995
-0.00915751
0.00145308
-0.00938978
-0.00921704
0.000621378
-0.00803724
0.000520444
-0.00759551
0.000393976
-0.00717511
0.00028674
-0.00671744
0.000291554
-0.00573244
0.000449322
-0.00372328
0.000704002
-0.000893932
0.000978838
0.00206219
0.0012259
0.00461467
0.00142431
0.00654357
0.00156962
0.00783269
0.00166222
0.00869907
0.00170473
0.00956502
0.00170591
0.010585
0.00167946
0.0111201
0.00163702
0.0100883
0.00158873
0.00698643
0.00154734
0.00240983
0.00152019
-0.00232437
0.00150392
-0.00600815
0.00148921
-0.00818528
0.00146714
-0.00913545
0.00143857
-0.00936121
-0.009185
0.000637995
-0.00795522
0.000540783
-0.0074983
0.00041763
-0.00705195
0.000304207
-0.00660402
0.000291265
-0.00571949
0.000431751
-0.00386377
0.000679018
-0.0011412
0.000954267
0.00178694
0.00120601
0.00436293
0.00141107
0.00633851
0.0015633
0.00768046
0.0016624
0.00859998
0.00171124
0.00951618
0.00171843
0.0105778
0.00169604
0.0111425
0.00165377
0.0101306
0.00160157
0.00703863
0.00155393
0.00245747
0.00152001
-0.00229045
0.00149771
-0.00598585
0.00147869
-0.00816625
0.00145404
-0.0091108
0.00142383
-0.00933101
-0.00915244
0.0006535
-0.00787315
0.000560048
-0.00740484
0.000441207
-0.00693311
0.000323636
-0.00648645
0.000294103
-0.00568996
0.000416318
-0.00398598
0.000654611
-0.00137949
0.000929355
0.0015122
0.00118528
0.00410701
0.00139674
0.00612705
0.00155581
0.00752139
0.00166146
0.00849433
0.00171676
0.00946088
0.00173012
0.0105644
0.00171191
0.0111607
0.00166988
0.0101726
0.00161383
0.00709468
0.00156002
0.00251129
0.0015194
-0.00224984
0.00149112
-0.00595757
0.00146781
-0.00814294
0.00144064
-0.00908363
0.00140888
-0.00929925
-0.0091194
0.000667831
-0.00779095
0.000578078
-0.00731509
0.000464353
-0.00681939
0.000344618
-0.00636671
0.000299957
-0.0056453
0.000403212
-0.00408924
0.000630941
-0.00160722
0.000904173
0.00123896
0.00116375
0.00384743
0.00138132
0.00590948
0.00154713
0.00735559
0.00165936
0.0083821
0.00172125
0.00939898
0.0017409
0.0105448
0.001727
0.0111746
0.00168531
0.0102143
0.0016255
0.0071545
0.00156559
0.00257119
0.00151837
-0.00220262
0.00148415
-0.00592335
0.00145657
-0.00811537
0.00142695
-0.00905401
0.00139371
-0.00926602
-0.0090859
0.000680937
0.000594744
-0.0072289
0.000486742
-0.00671139
0.000366723
-0.00624669
0.000308657
-0.00558723
0.000392591
-0.00417317
0.000608183
-0.00182281
0.000878801
0.000968345
0.00114143
0.0035848
0.00136481
0.0056861
0.00153721
0.00718318
0.00165604
0.00826327
0.00172464
0.00933039
0.00175073
0.0105187
0.00174127
0.0111841
0.00170002
0.0102555
0.00163654
0.00721798
0.00157065
0.00263708
0.00151692
-0.00214888
0.0014768
-0.00588323
0.00144498
-0.00808355
0.00141296
-0.00902198
0.00137832
-0.00923138
-0.00905196
0.000609944
-0.00714606
0.000508084
-0.00660953
0.000389518
-0.00612813
0.000319969
-0.00551768
0.000384576
-0.00423778
0.000586526
-0.00202476
0.000853334
0.000701538
0.00111837
0.00331976
0.00134719
0.00545728
0.00152604
0.00700433
0.00165147
0.00813784
0.00172687
0.00925499
0.00175954
0.010486
0.00175466
0.0111889
0.00171398
0.0102962
0.00164695
0.00728502
0.0015752
0.00270883
0.00151505
-0.00208873
0.00146909
-0.00583727
0.00143304
-0.0080475
0.00139867
-0.00898761
0.00136269
-0.0091954
-0.00901758
0.000623603
-0.00706635
0.000528125
-0.00651405
0.000412575
-0.00601258
0.000333603
-0.00543871
0.000379237
-0.00428341
0.000566168
-0.00221169
0.000827878
0.000439828
0.00109461
0.00305303
0.00132848
0.00522341
0.00151359
0.00681922
0.00164561
0.00800582
0.00172789
0.00917271
0.00176726
0.0104466
0.00176712
0.0111891
0.00172717
0.0103362
0.00165671
0.00735548
0.00157923
0.00278631
0.00151277
-0.00202227
0.00146101
-0.00578551
0.00142075
-0.00800725
0.00138407
-0.00895093
0.00134684
-0.00915817
-0.00898279
0.000635671
-0.00698949
0.00054665
-0.00642503
0.000435481
-0.00590141
0.00034922
-0.00535245
0.000376596
-0.00431079
0.00054732
-0.00238242
0.000802578
0.000184571
0.00107018
0.00278543
0.00130867
0.00498492
0.00149984
0.00662805
0.00163841
0.00786726
0.00172764
0.00908348
0.00177385
0.0104004
0.0017786
0.0111843
0.00173954
0.0103752
0.00166581
0.00742921
0.00158274
0.00286937
0.00151008
-0.00194961
0.00145257
-0.00572799
0.00140811
-0.00796279
0.00136917
-0.008912
0.00133075
-0.00911974
-0.00894761
0.000646117
-0.00691519
0.000563483
-0.00634239
0.000457846
-0.00579577
0.000366443
-0.00526105
0.000376616
-0.00432096
0.00053016
-0.00253596
0.000777555
-6.28246e-05
0.00104515
0.00251784
0.00128779
0.00474227
0.00148478
0.00643107
0.00162983
0.0077222
0.00172607
0.00898724
0.00177925
0.0103472
0.00178907
0.0111745
0.00175107
0.0104132
0.00167424
0.00750604
0.00158576
0.00295785
0.00150699
-0.00187084
0.00144377
-0.00566477
0.00139512
-0.00791413
0.00135396
-0.00887084
0.00131442
-0.00908021
-0.00891204
0.000654931
-0.00684318
0.000578486
-0.00626595
0.000479314
-0.0056966
0.00038487
-0.0051666
0.000379186
-0.00431528
0.000514968
-0.00267174
0.000752846
-0.000300703
0.00101958
0.0022511
0.00126584
0.00449602
0.00146838
0.00622852
0.00161985
0.00757074
0.00172314
0.00888395
0.0017834
0.010287
0.00179848
0.0111594
0.00176174
0.01045
0.001682
0.00758578
0.00158828
0.00305157
0.00150353
-0.00178609
0.00143462
-0.00559586
0.00138178
-0.00786129
0.00133843
-0.0088275
0.00129785
-0.00903962
-0.00887611
0.000662119
-0.00677317
0.000591559
-0.00619539
0.000499563
-0.0056046
0.000404086
-0.00507113
0.000384145
-0.00429534
0.00050167
-0.00278927
0.000728819
-0.000527852
0.000993554
0.00198637
0.00124285
0.00424672
0.00145066
0.00602072
0.00160843
0.00741296
0.0017188
0.00877359
0.00178625
0.0102195
0.00180678
0.0111389
0.00177152
0.0104852
0.00168908
0.00766821
0.00159033
0.00315032
0.0014997
-0.00169546
0.00142513
-0.0055213
0.0013681
-0.00780426
0.00132259
-0.00878199
0.00128103
-0.00899806
-0.00883982
0.000667691
-0.00670492
0.00060263
-0.00613033
0.000518307
-0.00552028
0.000423673
-0.00497649
0.000391263
-0.00426293
0.000490426
-0.00288843
0.000705561
-0.000742987
0.000967175
0.00172475
0.00121886
0.00399503
0.00143159
0.00580799
0.00159556
0.007249
0.001713
0.00865614
0.00178776
0.0101448
0.00181393
0.0111127
0.00178038
0.0105188
0.0016955
0.00775309
0.00159194
0.00325388
0.00149552
-0.00159904
0.0014153
-0.00544108
0.00135407
-0.00774303
0.00130642
-0.00873433
0.00126395
-0.00895559
-0.00880321
0.000671654
-0.00663819
0.000611651
-0.00607033
0.000535296
-0.00544393
0.000443219
-0.00488442
0.000400265
-0.00421997
0.000481335
-0.0029695
0.000683263
-0.000944916
0.000940567
0.00146745
0.00119392
0.00374168
0.0014112
0.00559071
0.0015812
0.007079
0.00170571
0.00853163
0.00178787
0.0100626
0.0018199
0.0110807
0.0017883
0.0105504
0.00170126
0.00784013
0.00159314
0.003362
0.00149102
-0.00149691
0.00140515
-0.00535521
0.0013397
-0.00767758
0.00128993
-0.00868456
0.00124661
-0.00891227
-0.00876628
0.000674051
-0.00657279
0.00061862
-0.00601489
0.000550334
-0.00537564
0.000462342
-0.00479642
0.000410847
-0.00416848
0.000474408
-0.00303306
0.000662114
-0.00113262
0.000913879
0.00121569
0.0011681
0.00348745
0.00138951
0.0053693
0.00156535
0.00690316
0.0016969
0.00840008
0.00178655
0.00997296
0.00182464
0.0110426
0.00179526
0.0105798
0.00170639
0.007929
0.001594
0.00347439
0.00148624
-0.00138915
0.00139467
-0.00526364
0.00132499
-0.00760791
0.0012731
-0.00863267
0.001229
-0.00886817
-0.00872908
0.000675024
-0.00650851
0.000623631
-0.0059635
0.00056332
-0.00531533
0.000480724
-0.00471383
0.000422702
-0.00411046
0.000469602
-0.00307996
0.000642291
-0.00130531
0.000887294
0.000970685
0.00114151
0.00323324
0.00136655
0.00514426
0.00154801
0.0067217
0.00168652
0.00826157
0.00178375
0.00987573
0.00182812
0.0109983
0.00180124
0.0106066
0.00171093
0.00801932
0.00159458
0.00359074
0.0014812
-0.00127578
0.00138388
-0.00516631
0.00130996
-0.00753399
0.00125597
-0.00857868
0.00121115
-0.00882335
-0.00869161
0.000674671
-0.00644517
0.000626764
-0.00591559
0.000574164
-0.00526273
0.000498054
-0.00463772
0.000435485
-0.00404789
0.000466798
-0.00311127
0.000623941
-0.00146245
0.000861034
0.000733592
0.00111431
0.00297997
0.00134241
0.00491616
0.0015292
0.00653491
0.00167457
0.0081162
0.00177943
0.00977086
0.00183029
0.0109474
0.00180624
0.0106307
0.00171496
0.0081106
0.00159499
0.00371071
0.00147596
-0.00115675
0.0013728
-0.00506315
0.00129462
-0.00745581
0.00123853
-0.00852259
0.00119303
-0.00877785
-0.0086539
0.000672472
0.000627637
-0.00587076
0.000582455
-0.00521755
0.000513789
-0.00456905
0.000448651
-0.00398275
0.000465679
-0.0031283
0.000607069
-0.00160384
0.0008353
0.000505361
0.00108671
0.00272856
0.00131722
0.00468564
0.00150897
0.00634316
0.00166105
0.00796412
0.00177358
0.00965833
0.00183114
0.0108898
0.0018103
0.0106515
0.00171871
0.0082022
0.0015955
0.00383392
0.00147066
-0.00103192
0.00136144
-0.00495393
0.00127889
-0.00737326
0.00122067
-0.00846437
0.00117455
-0.00873173
-0.00861601
0.000625612
-0.00582879
0.000587622
-0.00517956
0.000527315
-0.00450875
0.000461635
-0.00391707
0.000465867
-0.00313253
0.000591516
-0.00172949
0.00081015
0.000286728
0.00105893
0.00247978
0.0012912
0.00445336
0.00148743
0.00614693
0.00164599
0.00780556
0.00176623
0.0095381
0.00183072
0.0108253
0.0018137
0.0106685
0.00172275
0.00829314
0.00159668
0.00395998
0.00146553
-0.000900768
0.00134972
-0.00483811
0.00126256
-0.0072861
0.00120218
-0.00840398
0.00115553
-0.00868508
-0.00857802
0.000622654
-0.00578903
0.000591143
-0.00514805
0.000539652
-0.00445725
0.000475173
-0.00385259
0.000467986
-0.00312535
0.000577743
-0.00183925
0.00078592
7.8551e-05
0.00103146
0.00223425
0.00126474
0.00422008
0.00146484
0.00594683
0.00162953
0.00764086
0.00175748
0.00941015
0.00182926
0.0107536
0.00181696
0.0106808
0.00172767
0.00838243
0.00159855
0.0040891
0.00146027
-0.000762487
0.0013376
-0.00471545
0.00124597
-0.00719448
0.00118354
-0.00834155
0.00113645
-0.00863799
-0.00853997
0.000624566
-0.00574974
0.000597831
-0.00512131
0.000554706
-0.00441413
0.000492624
-0.00379051
0.000475217
-0.00310794
0.000569485
-0.00193352
0.000766084
-0.000118048
0.00100689
0.00199344
0.00123989
0.00398708
0.00144275
0.00574398
0.00161279
0.00747082
0.00174813
0.00927481
0.00182725
0.0106745
0.00182023
0.0106879
0.00173234
0.00847033
0.00159857
0.00422287
0.00145307
-0.000616987
0.00132534
-0.00458772
0.00123068
-0.00709982
0.0011667
-0.00827757
0.00111911
-0.00859039
-0.00850161
0.00454425
-0.00533709
0.00416233
-0.0047394
0.00374919
-0.00400099
0.00325425
-0.00329557
0.00279371
-0.00264739
0.00257309
-0.0017129
0.00267762
-0.000222573
0.0029743
0.00169675
0.00334394
0.00361744
0.00366751
0.00542041
0.00389986
0.00723846
0.00409136
0.00908331
0.0043282
0.0104376
0.00468882
0.0103272
0.00521161
0.00794754
0.0057635
0.00367098
0.00616612
-0.00101961
0.00634218
-0.00476378
0.00631352
-0.00707115
0.00615393
-0.00811799
0.00592292
-0.00835938
0.00566579
-0.00824448
-0.00794701
0.00478856
-0.00493512
0.00442356
-0.0043744
0.00406072
-0.00363814
0.00362627
-0.00286112
0.00316102
-0.00218215
0.00285418
-0.00140606
0.00282918
-0.000197572
0.00306923
0.0014567
0.00341008
0.00327659
0.0037312
0.00509929
0.00399392
0.00697574
0.00424394
0.0088333
0.00454767
0.0101339
0.00497865
0.00989625
0.00554758
0.00737861
0.00612334
0.00309521
0.00652012
-0.00141639
0.00666317
-0.00490683
0.00658658
-0.00699456
0.00638287
-0.00791428
0.00612182
-0.00809833
0.0058438
-0.00796646
-0.00768606
0.00504084
-0.00454294
0.00468493
-0.00401849
0.00435709
-0.00331029
0.00398824
-0.00249227
0.00355348
-0.00174739
0.00318479
-0.00103737
0.00305484
-6.76203e-05
0.00319403
0.00131752
0.00348606
0.00298455
0.00380331
0.00478204
0.00410014
0.00667891
0.00440483
0.0085286
0.00477729
0.00976144
0.00529084
0.0093827
0.00592738
0.00674206
0.00651851
0.00250408
0.00689335
-0.00179123
0.00698626
-0.00499974
0.0068577
-0.006866
0.00661359
-0.00767017
0.00632647
-0.00781121
0.00602978
-0.00766977
-0.00740956
0.00528719
-0.00416669
0.0049435
-0.0036748
0.00464121
-0.003008
0.00433413
-0.00218519
0.00395969
-0.00137296
0.00357629
-0.000653967
0.00334872
0.000159948
0.00337253
0.0012937
0.00359212
0.00276497
0.00389568
0.00447849
0.00422396
0.00635063
0.00458477
0.00816779
0.00503587
0.00931034
0.00564041
0.00877816
0.00633903
0.00604344
0.00693782
0.00190529
0.00727184
-0.00212524
0.00730636
-0.00503426
0.00712447
-0.0066841
0.00684107
-0.00738677
0.0065299
-0.00750004
0.00621736
-0.00735723
-0.00711938
0.00552958
-0.00380908
0.00520146
-0.00334668
0.00491812
-0.00272466
0.00466156
-0.00192863
0.00436184
-0.00107324
0.00400904
-0.000301166
0.0037206
0.000448395
0.00363032
0.00138397
0.00375696
0.00263833
0.00402844
0.00420701
0.00437861
0.00600046
0.00479709
0.00774931
0.00533382
0.00877361
0.00602889
0.00808309
0.00678032
0.00529201
0.00737052
0.00131509
0.00764846
-0.00240319
0.00761803
-0.00500383
0.00738329
-0.00644936
0.00706373
-0.0070672
0.00673178
-0.0071681
0.00640666
-0.00703211
-0.00681759
0.00576899
-0.00347123
0.00545937
-0.00303705
0.00519215
-0.00245745
0.0049717
-0.00170818
0.00474496
-0.000846503
0.00445854
-1.47382e-05
0.004163
0.000743931
0.00398708
0.0015599
0.00401364
0.00261176
0.00423088
0.00398977
0.00458624
0.00564511
0.00505782
0.00727773
0.00568005
0.00815138
0.00646012
0.00730302
0.00724838
0.00450375
0.00780695
0.000756519
0.00801414
-0.00261038
0.00791482
-0.00490451
0.00763062
-0.00616516
0.00727992
-0.0067165
0.00693121
-0.0068194
0.0065971
-0.006698
-0.00650665
0.00600661
-0.00315334
0.00571707
-0.00274751
0.0054662
-0.00220657
0.00526953
-0.00151151
0.00510191
-0.000678889
0.0048984
0.000188776
0.00464968
0.000992649
0.00444192
0.00176766
0.00438718
0.0026665
0.00453681
0.00384013
0.00487651
0.0053054
0.0053881
0.00676614
0.00608832
0.00745116
0.00693857
0.00645277
0.00773503
0.00370729
0.00823498
0.000256563
0.00835891
-0.0027343
0.00819092
-0.00473652
0.00786366
-0.0058379
0.00748849
-0.00634133
0.00712761
-0.00645851
0.00678823
-0.00635862
-0.0061894
0.00624371
-0.00285529
0.00597439
-0.00247819
0.00574124
-0.00197343
0.0055616
-0.00133187
0.00543378
-0.000551063
0.00530913
0.000313421
0.00514283
0.00115895
0.0049658
0.0019447
0.00487731
0.00275499
0.00496977
0.00374767
0.00527985
0.00499533
0.00581401
0.00623198
0.0065739
0.00669128
0.00746216
0.0055645
0.00822558
0.00294388
0.00863957
-0.000157427
0.00867273
-0.00276746
0.00844141
-0.0045052
0.00808042
-0.0054769
0.00768882
-0.00594973
0.00732067
-0.00609036
0.00697963
-0.00601758
-0.00586887
0.00648127
-0.00257692
0.00623148
-0.0022284
0.00601708
-0.00175903
0.00585222
-0.00116701
0.00574876
-0.000447601
0.00568339
0.000378791
0.0056075
0.00123483
0.00550877
0.00204343
0.00544747
0.00281629
0.00552119
0.00367395
0.00580783
0.00470868
0.00635044
0.00568937
0.00713823
0.00590349
0.00801422
0.00468851
0.00869783
0.00226026
0.00900303
-0.000462625
0.00894671
-0.00271114
0.00866314
-0.00422163
0.00828017
-0.00509394
0.00788088
-0.00555044
0.00751042
-0.0057199
0.00717101
-0.00567818
-0.00554825
0.00671991
-0.00231806
0.00648879
-0.00199728
0.00629291
-0.00156315
0.00614329
-0.00101739
0.00605513
-0.000359443
0.00602662
0.000407309
0.00602525
0.0012362
0.00602106
0.00204762
0.00603417
0.00280318
0.00613908
0.00356904
0.00642892
0.00441884
0.00697418
0.00514411
0.00775017
0.0051275
0.00855711
0.00388156
0.00912136
0.00169601
0.00930918
-0.000650442
0.00917511
-0.00257706
0.0088555
-0.00390202
0.00846357
-0.00470201
0.00806528
-0.00515215
0.00769717
-0.00535179
0.00736218
-0.00534318
-0.00523061
0.00695985
-0.00207842
0.00674667
-0.0017841
0.0065684
-0.00138489
0.00643443
-0.000883419
0.00635827
-0.000283288
0.00634988
0.000415707
0.00639713
0.00118894
0.00647404
0.00197072
0.00657613
0.00270109
0.00674655
0.00339862
0.00706876
0.00409664
0.00761581
0.00459706
0.00834371
0.0043996
0.00903875
0.00318652
0.00946638
0.00126839
0.00954757
-0.000731632
0.00935743
-0.00238693
0.00902088
-0.00356547
0.00863261
-0.00431374
0.00824309
-0.00476263
0.00788148
-0.00499017
0.00755307
-0.00501478
-0.00491878
0.00720108
-0.00185753
0.00700526
-0.00158828
0.00684351
-0.00122314
0.0067246
-0.00076451
0.00665999
-0.000218679
0.00666267
0.000413028
0.00673558
0.00111603
0.00686553
0.00184076
0.00704077
0.00252586
0.00728066
0.00315872
0.0076464
0.0037309
0.00819014
0.00405332
0.0088462
0.00374353
0.00941454
0.00261818
0.00971696
0.00096597
0.00971881
-0.000733484
0.00949938
-0.00216749
0.00916432
-0.00323041
0.00879022
-0.00393964
0.00841566
-0.00438807
0.00806399
-0.0046385
0.00774377
-0.00469456
-0.00461508
0.00744348
-0.00165477