/*--------------------------------*- C++ -*----------------------------------*\
  =========                 |
  \\      /  F ield         | OpenFOAM: The Open Source CFD Toolbox
   \\    /   O peration     | Website:  https://openfoam.org
    \\  /    A nd           | Version:  7
     \\/     M anipulation  |
\*---------------------------------------------------------------------------*/
FoamFile
{
    version     2.0;
    format      ascii;
    class       surfaceScalarField;
    location    "140";
    object      phi;
}
// * * * * * * * * * * * * * * * * * * * * * * * * * * * * * * * * * * * * * //

dimensions      [0 3 -1 0 0 0 0];

internalField   nonuniform List<scalar> 
72657
(
-1.40513e-06
-4.8014e-05
4.94191e-05
-5.32253e-06
-0.000122293
0.00012621
-1.15835e-05
-0.000179656
0.000185917
-2.00118e-05
-0.000221378
0.000229807
-3.04311e-05
-0.000249127
0.000259546
-4.26761e-05
-0.000264846
0.000277091
-5.66018e-05
-0.00027061
0.000284536
-7.20889e-05
-0.000268465
0.000283952
-8.90462e-05
-0.000260266
0.000277223
-0.000107411
-0.000247542
0.000265907
-0.000127148
-0.000231392
0.000251129
-0.000148249
-0.00021243
0.000233531
-0.00017073
-0.000190776
0.000213258
-0.000194642
-0.000166083
0.000189995
-0.000220066
-0.000137589
0.000163013
-0.000247122
-0.000104166
0.000131221
-0.000275965
-6.43554e-05
9.31988e-05
-0.000306783
-1.63987e-05
4.72162e-05
-0.000339763
4.17386e-05
-8.75838e-06
0.000112603
-7.72583e-05
-0.000375108
-1.4859e-06
-4.65281e-05
-5.58692e-06
-0.000118192
-1.20903e-05
-0.000173153
-2.0785e-05
-0.000212684
-3.14697e-05
-0.000238442
-4.39634e-05
-0.000252352
-5.81137e-05
-0.00025646
-7.38006e-05
-0.000252778
-9.09376e-05
-0.000243129
-0.00010947
-0.00022901
-0.000129371
-0.000211491
-0.000150641
-0.000191161
-0.000173304
-0.000168113
-0.000197414
-0.000141973
-0.000223053
-0.000111951
-0.000250334
-7.68846e-05
-0.000279401
-3.5288e-05
-0.000310421
1.46213e-05
-0.000343553
7.48706e-05
0.000148
-0.00037895
-1.55474e-06
-4.49733e-05
-5.80928e-06
-0.000113937
-1.25098e-05
-0.000166452
-2.14128e-05
-0.000203781
-3.22924e-05
-0.000227563
-4.49521e-05
-0.000239693
-5.92307e-05
-0.000242181
-7.5006e-05
-0.000237003
-9.21931e-05
-0.000225942
-0.000110741
-0.000210462
-0.000130629
-0.000191603
-0.00015186
-0.000169929
-0.000174462
-0.000145511
-0.000198483
-0.000117952
-0.000223998
-8.6435e-05
-0.000251109
-4.97739e-05
-0.00027994
-6.45755e-06
-0.000310629
4.53108e-05
-0.000343302
0.000107543
0.000182753
-0.000378056
-1.61201e-06
-4.33613e-05
-5.99109e-06
-0.000109558
-1.28456e-05
-0.000159598
-2.19012e-05
-0.000194725
-3.29088e-05
-0.000216555
-4.56556e-05
-0.000226946
-5.9971e-05
-0.000227866
-7.57279e-05
-0.000221246
-9.28404e-05
-0.000208829
-0.000111258
-0.000192044
-0.000130961
-0.000171901
-0.000151951
-0.00014894
-0.00017425
-0.000123212
-0.000197901
-9.4302e-05
-0.000222962
-6.13736e-05
-0.000249515
-2.32211e-05
-0.000277657
2.16844e-05
-0.000307494
7.51484e-05
-0.000339112
0.000139161
0.00021619
-0.000372548
-1.65826e-06
-4.17031e-05
-6.13446e-06
-0.000105082
-1.31021e-05
-0.00015263
-2.22583e-05
-0.000185569
-3.33311e-05
-0.000205482
-4.60915e-05
-0.000214186
-6.03579e-05
-0.000213599
-7.59961e-05
-0.000205607
-9.29161e-05
-0.000191909
-0.000111065
-0.000173895
-0.000130417
-0.000152548
-0.000150971
-0.000128386
-0.000172738
-0.000101444
-0.000195746
-7.12945e-05
-0.000220033
-3.70863e-05
-0.000245654
2.39959e-06
-0.000272672
4.87031e-05
-0.000301157
0.000103633
-0.000331149
0.000169153
0.000247665
-0.000362624
-1.6943e-06
-4.00088e-05
-6.24225e-06
-0.000100534
-1.32856e-05
-0.000145587
-2.24943e-05
-0.00017636
-3.35749e-05
-0.000194402
-4.62815e-05
-0.000201479
-6.04199e-05
-0.000199461
-7.58468e-05
-0.00019018
-9.24648e-05
-0.000175291
-0.000110214
-0.000156146
-0.000129062
-0.0001337
-0.000148996
-0.000108452
-0.000170013
-8.0427e-05
-0.00019212
-4.91875e-05
-0.00021533
-1.38762e-05
-0.000239664
2.67337e-05
-0.000265149
7.41873e-05
-0.000291807
0.000130292
-0.000319637
0.000196982
0.000276578
-0.000348549
-1.72107e-06
-3.82877e-05
-6.31781e-06
-9.5937e-05
-1.34028e-05
-0.000138502
-2.2621e-05
-0.000167142
-3.3658e-05
-0.000183365
-4.62504e-05
-0.000188887
-6.01901e-05
-0.000185521
-7.53221e-05
-0.000175048
-9.15386e-05
-0.000159075
-0.00010877
-0.000138915
-0.000126971
-0.000115498
-0.000146115
-8.93084e-05
-0.00016618
-6.0362e-05
-0.000187147
-2.82204e-05
-0.000208998
7.97503e-06
-0.000231717
4.94519e-05
-0.000255285
9.77553e-05
-0.00027968
0.000154688
-0.000304853
0.000222155
0.000302379
-0.000330655
-1.73959e-06
-3.65481e-05
-6.36489e-06
-9.13117e-05
-1.34619e-05
-0.000131405
-2.26518e-05
-0.000157952
-3.36003e-05
-0.000172416
-4.60262e-05
-0.000176461
-5.97054e-05
-0.000171842
-7.4469e-05
-0.000160285
-9.01962e-05
-0.000143348
-0.000106803
-0.000122308
-0.000124231
-9.80709e-05
-0.000142432
-7.11073e-05
-0.000161361
-4.14322e-05
-0.000180971
-8.61042e-06
-0.000201207
2.8211e-05
-0.00022201
7.02547e-05
-0.000243315
0.000119061
-0.000265053
0.000176425
-0.000287125
0.000244226
0.000324582
-0.000309328
-1.75096e-06
-3.47972e-05
-6.38745e-06
-8.66752e-05
-1.34713e-05
-0.000124321
-2.26013e-05
-0.000148822
-3.34239e-05
-0.000161594
-4.5639e-05
-0.000164246
-5.90056e-05
-0.000158476
-7.33386e-05
-0.000145952
-8.85012e-05
-0.000128185
-0.000104393
-0.000106416
-0.000120936
-8.15281e-05
-0.00013806
-5.39832e-05
-0.000155693
-2.37988e-05
-0.000173754
9.45022e-06
-0.000192148
4.66047e-05
-0.00021077
8.88766e-05
-0.000229506
0.000137797
-0.000248236
0.000195156
-0.000266819
0.000262809
0.000342767
-0.000285004
-1.75638e-06
-3.30408e-05
-6.38988e-06
-8.20418e-05
-1.34403e-05
-0.000117271
-2.24853e-05
-0.000139777
-3.31518e-05
-0.000150927
-4.51209e-05
-0.000152276
-5.81329e-05
-0.000145464
-7.19847e-05
-0.0001321
-8.65213e-05
-0.000113648
-0.000101623
-9.13152e-05
-0.000117188
-6.59625e-05
-0.000133123
-3.80486e-05
-0.000149323
-7.5983e-06
-0.000165671
2.57978e-05
-0.000182028
6.29621e-05
-0.000198242
0.00010509
-0.000214147
0.000153702
-0.000229573
0.000210582
-0.000244339
0.000277576
0.000356584
-0.000258157
-1.75717e-06
-3.12836e-05
-6.37675e-06
-7.74222e-05
-1.33783e-05
-0.000110269
-2.23195e-05
-0.000130836
-3.28076e-05
-0.000140439
-4.45042e-05
-0.00014058
-5.71301e-05
-0.000132838
-7.04626e-05
-0.000118767
-8.43262e-05
-9.97849e-05
-9.85784e-05
-7.7063e-05
-0.000113094
-5.14467e-05
-0.000127749
-2.33934e-05
-0.000142407
7.05942e-06
-0.000156909
4.02994e-05
-0.000171071
7.71243e-05
-0.000184689
0.000118709
-0.000197547
0.000166559
-0.000209426
0.000222461
-0.000220111
0.000288262
0.00036576
-0.000229287
-1.7547e-06
-2.95289e-05
-6.35269e-06
-7.28242e-05
-1.32949e-05
-0.000103327
-2.21194e-05
-0.000122011
-3.24143e-05
-0.000130144
-4.38209e-05
-0.000129173
-5.60399e-05
-0.000120619
-6.88276e-05
-0.00010598
-8.1986e-05
-8.66266e-05
-9.53482e-05
-6.37007e-05
-0.000108762
-3.80329e-05
-0.000122072
-1.00833e-05
-0.000135105
2.00925e-05
-0.00014766
5.28546e-05
-0.000159506
8.897e-05
-0.000170386
0.000129588
-0.000180029
0.000176203
-0.000188173
0.000230604
-0.000194577
0.000294666
0.000370093
-0.000198911
-1.75035e-06
-2.77785e-05
-6.32228e-06
-6.82523e-05
-1.3199e-05
-9.64501e-05
-2.19002e-05
-0.00011331
-3.19941e-05
-0.00012005
-4.3102e-05
-0.000118065
-5.49037e-05
-0.000108817
-6.71333e-05
-9.37501e-05
-7.9569e-05
-7.41909e-05
-9.2018e-05
-5.12517e-05
-0.000104299
-2.5752e-05
-0.000116223
1.84087e-06
-0.000127579
3.14484e-05
-0.000138121
6.33968e-05
-0.000147568
9.84167e-05
-0.000155608
0.000137629
-0.00016192
0.000182514
-0.000166197
0.000234882
-0.000168185
0.000296655
0.000369457
-0.000167548
-1.74536e-06
-2.60332e-05
-6.28976e-06
-6.37079e-05
-1.30994e-05
-8.96406e-05
-2.16755e-05
-0.000104734
-3.15673e-05
-0.000110159
-4.2376e-05
-0.000107257
-5.37598e-05
-9.74332e-05
-6.543e-05
-8.20799e-05
-7.714e-05
-6.24809e-05
-8.86697e-05
-3.9722e-05
-9.98072e-05
-1.46145e-05
-0.000110329
1.2363e-05
-0.000119984
4.11036e-05
-0.000128481
7.18936e-05
-0.000135486
0.000105421
-0.000140632
0.000142775
-0.000143544
0.000185426
-0.000143878
0.000235216
-0.000141376
0.000294152
0.000363792
-0.000135712
-1.74087e-06
-2.42923e-05
-6.25888e-06
-5.91898e-05
-1.30034e-05
-8.2896e-05
-2.14578e-05
-9.62793e-05
-3.11523e-05
-0.000100464
-4.16684e-05
-9.67404e-05
-5.26427e-05
-8.64589e-05
-6.37631e-05
-7.09596e-05
-7.47575e-05
-5.14865e-05
-8.53781e-05
-2.91014e-05
-9.53816e-05
-4.61095e-06
-0.000104509
2.14908e-05
-0.000112469
4.90633e-05
-0.000118922
7.83465e-05
-0.00012348
0.00010998
-0.00012572
0.000145015
-0.000125213
0.000184918
-0.000121579
0.000231583
-0.000114571
0.000287145
0.000353115
-0.000103894
-1.73779e-06
-2.25545e-05
-6.23275e-06
-5.46949e-05
-1.29175e-05
-7.62113e-05
-2.12575e-05
-8.79393e-05
-3.07645e-05
-9.09571e-05
-4.10009e-05
-8.6504e-05
-5.15816e-05
-7.58782e-05
-6.21711e-05
-6.03701e-05
-7.2472e-05
-4.11856e-05
-8.22081e-05
-1.93652e-05
-9.11052e-05
4.28609e-06
-9.88687e-05
2.92544e-05
-0.000105165
5.53597e-05
-0.000109607
8.27886e-05
-0.000111752
0.000112125
-0.000111116
0.000144379
-0.000107214
0.000181016
-9.96361e-05
0.000224005
-8.81611e-05
0.00027567
0.000337518
-7.2564e-05
-1.73683e-06
-2.08177e-05
-6.21373e-06
-5.0218e-05
-1.28464e-05
-6.95787e-05
-2.10826e-05
-7.97031e-05
-3.04158e-05
-8.16239e-05
-4.03903e-05
-7.65295e-05
-5.05994e-05
-6.56691e-05
-6.06845e-05
-5.0285e-05
-7.03232e-05
-3.15469e-05
-7.92119e-05
-1.04765e-05
-8.70453e-05
1.21194e-05
-9.34937e-05
3.57028e-05
-9.81824e-05
6.00484e-05
-0.000100676
8.52821e-05
-0.000100474
0.000111923
-9.70294e-05
0.000140934
-8.97982e-05
0.000173785
-7.83361e-05
0.000212543
-6.24813e-05
0.000259815
0.00031723
-4.21938e-05
-1.73845e-06
-1.90792e-05
-6.20338e-06
-4.5753e-05
-1.27932e-05
-6.29888e-05
-2.09384e-05
-7.15579e-05
-3.01144e-05
-7.24479e-05
-3.98474e-05
-6.67965e-05
-4.97109e-05
-5.58057e-05
-5.93234e-05
-4.06724e-05
-6.83384e-05
-2.25319e-05
-7.64256e-05
-2.38934e-06
-8.32498e-05
1.89436e-05
-8.84474e-05
4.09005e-05
-9.16036e-05
6.32046e-05
-9.22346e-05
8.5913e-05
-8.97816e-05
0.00010947
-8.36289e-05
0.000134781
-7.31634e-05
0.000163319
-5.78857e-05
0.000197265
-3.77227e-05
0.000239652
0.000293052
-1.35451e-05
-1.74291e-06
-1.73363e-05
-6.20241e-06
-4.12935e-05
-1.27595e-05
-5.64318e-05
-2.08271e-05
-6.34903e-05
-2.98636e-05
-6.34114e-05
-3.93772e-05
-5.72829e-05
-4.89224e-05
-4.62605e-05
-5.80966e-05
-3.14982e-05
-6.65299e-05
-1.40987e-05
-7.38666e-05
4.94739e-06
-7.97434e-05
2.48204e-05
-8.37644e-05
4.49215e-05
-8.54765e-05
6.49167e-05
-8.43486e-05
8.47852e-05
-7.97627e-05
0.000104884
-7.10293e-05
0.000126048
-5.74528e-05
0.000149743
-3.84383e-05
0.00017825
-1.36358e-05
0.000214849
0.000263995
1.54214e-05
-1.75017e-06
-1.55862e-05
-6.21063e-06
-3.68331e-05
-1.27445e-05
-4.98979e-05
-2.07477e-05
-5.5487e-05
-2.96613e-05
-5.44978e-05
-3.89768e-05
-4.79675e-05
-4.82307e-05
-3.70065e-05
-5.70004e-05
-2.27285e-05
-6.48938e-05
-6.2052e-06
-7.15318e-05
1.15853e-05
-7.65245e-05
2.98131e-05
-7.94462e-05
4.78431e-05
-7.98079e-05
6.52784e-05
-7.70336e-05
8.20109e-05
-7.04466e-05
9.82967e-05
-5.928e-05
0.000114881
-4.27405e-05
0.000133203
-2.01554e-05
0.000155665
8.75656e-06
0.000185937
0.000229675
4.30769e-05
-1.75992e-06
-1.38263e-05
-6.22687e-06
-3.23661e-05
-1.27457e-05
-4.33791e-05
-2.06955e-05
-4.75372e-05
-2.95009e-05
-4.56924e-05
-3.86364e-05
-3.8832e-05
-4.76224e-05
-2.80205e-05
-5.60174e-05
-1.43336e-05
-6.34086e-05
1.18607e-06
-6.93948e-05
1.75715e-05
-7.35619e-05
3.39803e-05
-7.54568e-05
4.9738e-05
-7.45579e-05
6.43795e-05
-7.02473e-05
7.77003e-05
-6.17915e-05
8.98409e-05
-4.83452e-05
0.000101435
-2.90116e-05
0.00011387
-3.03291e-06
0.000129687
2.99066e-05
0.000152998
0.000190476
6.91054e-05
-1.77157e-06
-1.20547e-05
-6.24891e-06
-2.78888e-05
-1.27583e-05
-3.68697e-05
-2.06624e-05
-3.96331e-05
-2.93696e-05
-3.69852e-05
-3.83386e-05
-2.9863e-05
-4.70739e-05
-1.92852e-05
-5.51165e-05
-6.29091e-06
-6.20344e-05
8.10399e-06
-6.74055e-05
2.29426e-05
-7.07936e-05
3.73684e-05
-7.17207e-05
5.06651e-05
-6.96359e-05
6.22946e-05
-6.38832e-05
7.19477e-05
-5.36759e-05
7.96336e-05
-3.80904e-05
8.58496e-05
-1.61152e-05
9.18946e-05
1.31666e-05
0.000100405
5.01078e-05
0.000116057
0.000146618
9.39659e-05
-1.78421e-06
-1.02705e-05
-6.27357e-06
-2.33994e-05
-1.27757e-05
-3.03676e-05
-2.06369e-05
-3.17719e-05
-2.92501e-05
-2.8372e-05
-3.80585e-05
-2.10547e-05
-4.65513e-05
-1.07924e-05
-5.42531e-05
1.41081e-06
-6.07132e-05
1.45641e-05
-6.54898e-05
2.77192e-05
-6.81261e-05
4.00046e-05
-6.81212e-05
5.06603e-05
-6.4898e-05
5.90714e-05
-5.7767e-05
6.48167e-05
-4.58928e-05
6.77593e-05
-2.82762e-05
6.8233e-05
-3.78824e-06
6.74066e-05
2.86451e-05
6.79715e-05
6.95479e-05
7.51537e-05
9.80788e-05
0.000118087
-1.7967e-06
-8.47378e-06
-6.2968e-06
-1.88993e-05
-1.27893e-05
-2.38751e-05
-2.06046e-05
-2.39567e-05
-2.91204e-05
-1.98561e-05
-3.77646e-05
-1.24104e-05
-4.60115e-05
-2.54556e-06
-5.33693e-05
8.76864e-06
-5.93694e-05
2.05642e-05
-6.35504e-05
3.19003e-05
-6.54351e-05
4.18893e-05
-6.45013e-05
4.97265e-05
-6.0148e-05
5.47181e-05
-5.16562e-05
5.63249e-05
-3.81477e-05
5.42508e-05
-1.85543e-05
4.86396e-05
8.36874e-06
4.04836e-05
4.38778e-05
3.24624e-05
8.87124e-05
3.03192e-05
4.47333e-05
0.000142058
-1.80764e-06
-6.66613e-06
-6.31378e-06
-1.43932e-05
-1.27891e-05
-1.73997e-05
-2.05482e-05
-1.61976e-05
-2.89541e-05
-1.14502e-05
-3.74195e-05
-3.94498e-06
-4.54026e-05
5.43753e-06
-5.23959e-05
1.57619e-05
-5.79119e-05
2.60802e-05
-6.1469e-05
3.54573e-05
-6.25688e-05
4.29891e-05
-6.06675e-05
4.78252e-05
-5.51412e-05
4.91919e-05
-4.52447e-05
4.64284e-05
-3.00635e-05
3.90696e-05
-8.46861e-06
2.70448e-05
2.08923e-05
1.11226e-05
5.94679e-05
-6.11319e-06
0.000108263
-1.84755e-05
-1.36269e-05
0.000166623
-1.8155e-06
-4.85063e-06
-6.31909e-06
-9.88959e-06
-1.27637e-05
-1.09551e-05
-2.04484e-05
-8.51293e-06
-2.87215e-05
-3.17705e-06
-3.69803e-05
4.31381e-06
-4.46662e-05
1.31235e-05
-5.1254e-05
2.23497e-05
-5.62366e-05
3.10628e-05
-5.91098e-05
3.83306e-05
-5.93518e-05
4.32311e-05
-5.63951e-05
4.48684e-05
-4.95921e-05
4.23889e-05
-3.81728e-05
3.5009e-05
-2.11926e-05
2.20894e-05
2.52545e-06
3.32674e-06
3.44304e-05
-2.07823e-05
7.61573e-05
-4.78401e-05
0.000129013
-7.1331e-05
-7.72762e-05
0.000192662
-1.81858e-06
-3.03205e-06
-6.30688e-06
-5.4013e-06
-1.27008e-05
-4.56122e-06
-2.02843e-05
-9.2945e-07
-2.83907e-05
4.92935e-06
-3.6401e-05
1.23241e-05
-4.37383e-05
2.04608e-05
-4.98578e-05
2.84691e-05
-5.42298e-05
3.54347e-05
-5.63243e-05
4.04251e-05
-5.5592e-05
4.24988e-05
-5.14374e-05
4.07138e-05
-4.31857e-05
3.41372e-05
-3.00419e-05
2.18651e-05
-1.10358e-05
3.08337e-06
1.5044e-05
-2.27531e-05
4.97199e-05
-5.54582e-05
9.47947e-05
-9.29148e-05
0.000151894
-0.00012843
-0.000146534
0.000221151
-1.81515e-06
-1.2169e-06
-6.27109e-06
-9.45364e-07
-1.25877e-05
1.7554e-06
-2.00341e-05
6.51691e-06
-2.7928e-05
1.28233e-05
-3.56333e-05
2.00293e-05
-4.25525e-05
2.73801e-05
-4.81174e-05
3.4034e-05
-5.17722e-05
3.90896e-05
-5.29568e-05
4.16097e-05
-5.10879e-05
4.063e-05
-4.55358e-05
3.51617e-05
-3.55928e-05
2.41943e-05
-2.04351e-05
6.70741e-06
9.2977e-07
-1.82815e-05
2.97342e-05
-5.15575e-05
6.75426e-05
-9.32666e-05
0.000116288
-0.00014166
0.000177899
-0.000190041
-0.000221738
0.000253103
-1.80351e-06
5.86614e-07
-6.20575e-06
3.45687e-06
-1.24119e-05
7.96153e-06
-1.96762e-05
1.37812e-05
-2.73003e-05
2.04474e-05
-3.46287e-05
2.73578e-05
-4.10414e-05
3.37927e-05
-4.59423e-05
3.89349e-05
-4.87443e-05
4.18917e-05
-4.88509e-05
4.17163e-05
-4.5638e-05
3.74171e-05
-3.84328e-05
2.79565e-05
-2.64865e-05
1.2248e-05
-8.94063e-06
-1.08385e-05
1.52194e-05
-4.24416e-05
4.72333e-05
-8.35713e-05
8.86718e-05
-0.000134705
0.000141539
-0.000194527
0.000208019
-0.000256522
-0.000303209
0.000289491
-1.78205e-06
2.36866e-06
-6.1052e-06
7.78002e-06
-1.21613e-05
1.40176e-05
-1.91899e-05
2.08098e-05
-2.64753e-05
2.77328e-05
-3.33409e-05
3.42235e-05
-3.91401e-05
3.95918e-05
-4.32448e-05
4.30396e-05
-4.50304e-05
4.36773e-05
-4.38566e-05
4.05425e-05
-3.90498e-05
3.26104e-05
-2.98846e-05
1.87912e-05
-1.55606e-05
-2.07598e-06
4.82334e-06
-3.12224e-05
3.23061e-05
-6.99244e-05
6.81228e-05
-0.000119388
0.000113813
-0.000180395
0.000171374
-0.000252089
0.000243163
-0.00032831
-0.000391216
0.00033117
-1.74933e-06
4.11799e-06
-5.96434e-06
1.1995e-05
-1.1825e-05
1.98782e-05
-1.85562e-05
2.7541e-05
-2.54235e-05
3.46001e-05
-3.17266e-05
4.05265e-05
-3.67887e-05
4.4654e-05
-3.99443e-05
4.61952e-05
-4.05242e-05
4.42571e-05
-3.78366e-05
3.78549e-05
-3.11494e-05
2.59232e-05
-1.96735e-05
7.31533e-06
-2.54669e-06
-1.92028e-05
2.11847e-05
-5.49538e-05
5.25876e-05
-0.000101327
9.28834e-05
-0.000159684
0.000143542
-0.000231053
0.000206469
-0.000315016
0.000284074
-0.000405915
-0.00048593
0.000378787
-1.70418e-06
5.82217e-06
-5.77887e-06
1.60697e-05
-1.13937e-05
2.5493e-05
-1.77587e-05
3.3906e-05
-2.41191e-05
4.09606e-05
-2.97479e-05
4.61554e-05
-3.39342e-05
4.88402e-05
-3.59695e-05
4.82306e-05
-3.51329e-05
4.34205e-05
-3.06729e-05
3.33949e-05
-2.17893e-05
1.70396e-05
-7.61976e-06
-6.85421e-06
1.27708e-05
-3.95934e-05
4.03973e-05
-8.25803e-05
7.63595e-05
-0.00013729
0.000121858
-0.000205182
0.000178259
-0.000287455
0.000247283
-0.00038404
0.000331264
-0.000489896
-0.000587382
0.000432717
-1.64572e-06
7.46789e-06
-5.54551e-06
1.99695e-05
-1.086e-05
3.08075e-05
-1.67841e-05
3.98302e-05
-2.25411e-05
4.67175e-05
-2.7374e-05
5.09882e-05
-3.05332e-05
5.19995e-05
-3.12622e-05
4.89595e-05
-2.87814e-05
4.09397e-05
-2.22712e-05
2.68846e-05
-1.08554e-05
5.62377e-06
6.41074e-06
-2.41203e-05
3.05436e-05
-6.37263e-05
6.26268e-05
-0.000114663
0.000103797
-0.000178459
0.000155227
-0.000256612
0.000218154
-0.000350382
0.000294017
-0.000459903
0.000384959
-0.000580838
-0.000695428
0.000493005
-1.57344e-06
9.04132e-06
-5.26209e-06
2.36582e-05
-1.02189e-05
3.57643e-05
-1.56232e-05
4.52344e-05
-2.0674e-05
5.17684e-05
-2.45815e-05
5.48958e-05
-2.65533e-05
5.39712e-05
-2.57791e-05
4.81853e-05
-2.14145e-05
3.65752e-05
-1.25651e-05
1.80352e-05
1.72882e-06
-8.67017e-06
2.25005e-05
-4.48919e-05
5.08534e-05
-9.20792e-05
8.79437e-05
-0.000151754
0.000134945
-0.000225461
0.000193
-0.000314667
0.000263193
-0.000420575
0.0003466
-0.000543311
0.000445076
-0.000679313
-0.000809708
0.000559356
-1.4872e-06
1.05285e-05
-4.92774e-06
2.70987e-05
-9.46781e-06
4.03044e-05
-1.42704e-05
5.0037e-05
-1.85086e-05
5.60066e-05
-2.13562e-05
5.77434e-05
-2.19739e-05
5.45889e-05
-1.9493e-05
4.57044e-05
-1.29993e-05
3.00814e-05
-1.51762e-06
6.55361e-06
1.59998e-05
-2.61876e-05
4.06782e-05
-6.95704e-05
7.37097e-05
-0.000125111
0.000116323
-0.000194367
0.000169725
-0.000278863
0.00023502
-0.000379963
0.00031313
-0.000498684
0.000404702
-0.000634883
0.000511244
-0.000785855
-0.000929606
0.000631142
-1.38727e-06
1.19158e-05
-4.54283e-06
3.02543e-05
-8.6067e-06
4.43682e-05
-1.27247e-05
5.41549e-05
-1.60418e-05
5.93237e-05
-1.76926e-05
5.93942e-05
-1.67869e-05
5.36832e-05
-1.23938e-05
4.13113e-05
-3.5251e-06
2.12127e-05
1.08782e-05
-7.84965e-06
3.19543e-05
-4.72638e-05
6.09202e-05
-9.85363e-05
9.90532e-05
-0.000163244
0.000147647
-0.000242961
0.000207938
-0.000339153
0.000280982
-0.000453007
0.000367528
-0.00058523
0.000467768
-0.000735124
0.000582837
-0.000900924
-0.00105422
0.000707451
-1.27427e-06
1.31901e-05
-4.10896e-06
3.3089e-05
-7.63805e-06
4.78973e-05
-1.0989e-05
5.75059e-05
-1.32768e-05
6.16115e-05
-1.3594e-05
5.97114e-05
-1.09965e-05
5.10857e-05
-4.48768e-06
3.48025e-05
6.99675e-06
9.72831e-06
2.46006e-05
-2.54535e-05
4.95516e-05
-7.22148e-05
8.31538e-05
-0.000132138
0.000126761
-0.000206851
0.000181722
-0.000297922
0.000249285
-0.000406716
0.000330453
-0.000534176
0.000425792
-0.000680569
0.000535057
-0.000844388
0.000658965
-0.00102483
-0.00118248
0.000787223
-1.14917e-06
1.43392e-05
-3.62886e-06
3.55687e-05
-6.56656e-06
5.0835e-05
-9.0702e-06
6.00096e-05
-1.02226e-05
6.27639e-05
-9.07189e-06
5.85607e-05
-4.61762e-06
4.66315e-05
4.20433e-06
2.59805e-05
1.85353e-05
-4.60262e-06
3.96023e-05
-4.65205e-05
6.87176e-05
-0.00010133
0.000107263
-0.000170684
0.000156656
-0.000256243
0.000218278
-0.000359544
0.000293378
-0.000481816
0.000382899
-0.000623697
0.000487237
-0.000784908
0.000605781
-0.000962931
0.000738457
-0.00115751
-0.00131355
0.000869529
-1.0132e-06
1.53524e-05
-3.10617e-06
3.76616e-05
-5.3989e-06
5.31277e-05
-6.97819e-06
6.15888e-05
-6.89287e-06
6.26786e-05
-4.14469e-06
5.58126e-05
2.32492e-06
4.01618e-05
1.36484e-05
1.46571e-05
3.10427e-05
-2.1997e-05
5.5814e-05
-7.12919e-05
8.93504e-05
-0.000134866
0.000133098
-0.000214431
0.000188513
-0.000311659
0.00025699
-0.000428021
0.000339749
-0.000564574
0.000437678
-0.000721626
0.000551107
-0.000898337
0.000679381
-0.00109121
0.000820498
-0.00129862
-0.00144669
0.000953635
-8.67799e-07
1.62202e-05
-2.54524e-06
3.93391e-05
-4.14315e-06
5.47256e-05
-4.72549e-06
6.21712e-05
-3.3053e-06
6.12584e-05
1.16366e-06
5.13436e-05
9.7989e-06
3.15266e-05
2.38004e-05
6.5554e-07
4.44581e-05
-4.26546e-05
7.31498e-05
-9.99836e-05
0.000111327
-0.000173043
0.000160479
-0.000263583
0.000222075
-0.000373255
0.000297481
-0.000503428
0.00038785
-0.000654943
0.000493999
-0.000827775
0.000616325
-0.00102066
0.000754968
-0.00122985
0.000906837
-0.00145049
-0.00157738
0.00103753
-7.14612e-07
1.69348e-05
-1.95099e-06
4.05754e-05
-2.80853e-06
5.55832e-05
-2.32641e-06
6.16891e-05
5.1977e-07
5.84122e-05
6.82536e-06
4.5038e-05
1.77668e-05
2.05852e-05
3.46097e-05
-1.61874e-05
5.87115e-05
-6.67564e-05
9.15121e-05
-0.000132784
0.000134509
-0.00021604
0.00018921
-0.000318284
0.000257059
-0.000441105
0.000339344
-0.000585713
0.000437084
-0.000752683
0.000550944
-0.000941634
0.000681243
-0.00115096
0.000828606
-0.00137721
0.000994869
-0.00161676
-0.0018125
0.00122998
-5.55016e-07
1.74899e-05
-1.32799e-06
4.13484e-05
-1.40405e-06
5.56592e-05
2.04579e-07
6.00804e-05
4.56123e-06
5.40555e-05
1.2811e-05
3.67882e-05
2.61883e-05
7.20788e-06
4.60212e-05
-3.60203e-05
7.37273e-05
-9.44624e-05
0.000110796
-0.000169853
0.000158749
-0.000263994
0.000219082
-0.000378617
0.000293171
-0.000515193
0.00038216
-0.000674702
0.00048685
-0.000857372
0.000607615
-0.0010624
0.000744433
-0.00128778
0.000897735
-0.00153051
0.00106789
-0.00178691
-0.00202178
0.00127717
-3.90547e-07
1.78804e-05
-6.8114e-07
4.1639e-05
6.12299e-08
5.49169e-05
2.85268e-06
5.7289e-05
8.7976e-06
4.81106e-05
1.90908e-05
2.6495e-05
3.50228e-05
-8.72418e-06
5.79793e-05
-5.89768e-05
8.94288e-05
-0.000125912
0.000130894
-0.000211317
0.000183898
-0.000316998
0.000249886
-0.000444605
0.000330114
-0.000595421
0.000425519
-0.000770108
0.000536589
-0.000968442
0.000663278
-0.00118909
0.000804984
-0.00142949
0.000961159
-0.00168669
0.00113015
-0.0019559
-0.00221395
0.00132232
-2.22447e-07
1.81029e-05
-1.28235e-08
4.14294e-05
1.57854e-06
5.33255e-05
5.60433e-06
5.32632e-05
1.32089e-05
4.0506e-05
2.56365e-05
1.40675e-05
4.42312e-05
-2.73189e-05
7.04298e-05
-8.51754e-05
0.00010574
-0.000161222
0.000151699
-0.000257277
0.000209803
-0.000375102
0.000281407
-0.000516209
0.000367593
-0.000681607
0.000469022
-0.000871536
0.000585787
-0.00108521
0.000717324
-0.00132063
0.000862353
-0.00157452
0.00101925
-0.00184358
0.00118514
-0.00212179
-0.00239261
0.00136379
-5.21617e-08
1.8155e-05
6.68328e-07
4.07089e-05
3.1409e-06
5.08529e-05
8.44794e-06
4.79562e-05
1.77777e-05
3.11763e-05
3.24229e-05
-5.77783e-07
5.37776e-05
-4.86735e-05
8.33217e-05
-0.00011472
0.000122589
-0.00020049
0.000173108
-0.000307796
0.000236317
-0.00043831
0.000313434
-0.000593326
0.000405315
-0.000773488
0.000512278
-0.0009785
0.000633958
-0.00120689
0.000769213
-0.00145588
0.000916085
-0.00172139
0.00107201
-0.00199951
0.00123336
-0.00228313
-0.00255969
0.00140044
1.20012e-07
1.8035e-05
1.36503e-06
3.94639e-05
4.74321e-06
4.74748e-05
1.13743e-05
4.13251e-05
2.24895e-05
2.00611e-05
3.94286e-05
-1.75169e-05
6.36304e-05
-7.28753e-05
9.66086e-05
-0.000147698
0.000139906
-0.000243787
0.000195019
-0.000362909
0.000263288
-0.00050658
0.000345754
-0.000675792
0.000442985
-0.000870718
0.000554902
-0.00109042
0.000680632
-0.00133262
0.000818443
-0.00159369
0.000965746
-0.00186869
0.00111925
-0.00215301
0.00127491
-0.0024388
-0.00271618
0.00143141
2.93528e-07
1.77415e-05
2.07371e-06
3.76837e-05
6.38187e-06
4.31666e-05
1.43769e-05
3.333e-05
2.73337e-05
7.10432e-06
4.66365e-05
-3.68198e-05
7.37628e-05
-0.000100002
0.000110248
-0.000184183
0.000157626
-0.000291164
0.00021733
-0.000422614
0.000290567
-0.000579817
0.000378149
-0.000763373
0.000480304
-0.000972874
0.000596509
-0.00120662
0.000725357
-0.00146147
0.000864542
-0.00173288
0.00101094
-0.00201508
0.00116075
-0.00230282
0.00130982
-0.00258787
-0.00286252
0.00145616
4.68341e-07
1.72731e-05
2.79394e-06
3.53581e-05
8.05526e-06
3.79053e-05
1.74523e-05
2.3933e-05
3.23032e-05
-7.74662e-06
5.40337e-05
-5.85502e-05
8.4152e-05
-0.00013012
0.000124202
-0.000224233
0.000175684
-0.000342646
0.00023994
-0.00048687
0.000317999
-0.000657876
0.000410394
-0.000855769
0.000516969
-0.00107945
0.000636716
-0.00132637
0.000767695
-0.00159244
0.000907072
-0.00187225
0.0010513
-0.00215931
0.00119631
-0.00244783
0.00133808
-0.00272963
-0.00299891
0.00147447
6.44747e-07
1.66284e-05
3.52629e-06
3.24766e-05
9.76369e-06
3.16679e-05
2.05995e-05
1.30972e-05
3.73944e-05
-2.45415e-05
6.16108e-05
-8.27666e-05
9.47785e-05
-0.000163288
0.000138433
-0.000267887
0.000194016
-0.00039823
0.000262743
-0.000555596
0.000345421
-0.000740555
0.000442257
-0.000952605
0.000552668
-0.00118986
0.000675144
-0.00144885
0.000807231
-0.00172453
0.000945645
-0.00201067
0.00108656
-0.00230023
0.00122584
-0.00258711
0.00135975
-0.00286354
-0.0031255
0.00148634
8.2336e-07
1.5805e-05
4.27223e-06
2.90277e-05
1.15091e-05
2.4431e-05
2.382e-05
7.86284e-07
4.26062e-05
-4.33277e-05
6.93611e-05
-0.000109522
0.000105624
-0.000199551
0.000152903
-0.000315166
0.000212555
-0.000457881
0.000285626
-0.000628667
0.000372661
-0.000827589
0.000473495
-0.00105344
0.000587086
-0.00130345
0.000711424
-0.00157318
0.000843583
-0.00185669
0.000979929
-0.00214701
0.0011165
-0.00243679
0.00124928
-0.0027199
0.00137498
-0.00298924
-0.0032425
0.00149197
1.00505e-06
1.48e-05
5.03399e-06
2.49987e-05
1.32948e-05
1.61702e-05
2.7117e-05
-1.30359e-05
4.79394e-05
-6.41502e-05
7.72792e-05
-0.000138861
0.000116672
-0.000238943
0.000167574
-0.000366068
0.000231226
-0.000521533
0.000308468
-0.000705909
0.000399535
-0.000918656
0.000503855
-0.00115776
0.000619909
-0.0014195
0.000745205
-0.00169848
0.000876413
-0.0019879
0.00100967
-0.00228027
0.00114101
-0.00256813
0.00126671
-0.0028456
0.001384
-0.00310654
-0.00335019
0.00149169
1.19086e-06
1.36091e-05
5.81431e-06
2.03753e-05
1.51249e-05
6.85961e-06
3.04945e-05
-2.84055e-05
5.33956e-05
-8.70512e-05
8.5359e-05
-0.000170825
0.0001279
-0.000281484
0.0001824
-0.000420569
0.000249948
-0.00058908
0.000331135
-0.000787097
0.000425848
-0.00101337
0.000533078
-0.00126499
0.000650829
-0.00153726
0.000776165
-0.00182381
0.000905439
-0.00211717
0.00103468
-0.00240951
0.00116007
-0.00269352
0.00127828
-0.00296381
0.00138716
-0.00321541
-0.00344896
0.00148594
1.38195e-06
1.22272e-05
6.61621e-06
1.5141e-05
1.70038e-05
-3.52796e-06
3.39569e-05
-4.53586e-05
5.89754e-05
-0.00011207
9.35927e-05
-0.000205442
0.000139284
-0.000327176
0.000197329
-0.000478614
0.000268626
-0.000660378
0.000353482
-0.000871952
0.000451395
-0.00111128
0.000560905
-0.0013745
0.000679553
-0.0016559
0.000804019
-0.00194828
0.000930442
-0.00224359
0.00105487
-0.00253393
0.00117375
-0.0028124
0.00128426
-0.00307433
0.00138484
-0.00331599
-0.00353931
0.00147518
1.5795e-06
1.06477e-05
7.44273e-06
9.27781e-06
1.89358e-05
-1.5021e-05
3.75077e-05
-6.39305e-05
6.46779e-05
-0.00013924
0.000101969
-0.000242733
0.000150794
-0.000376001
0.000212299
-0.000540118
0.000287158
-0.000735237
0.000375351
-0.000960145
0.000475964
-0.0012119
0.000587079
-0.00148561
0.00070581
-0.00177463
0.00082853
-0.002071
0.000951274
-0.00236634
0.00107023
-0.00265289
0.00118221
-0.00292438
0.00128496
-0.00317707
0.00137749
-0.00340852
-0.00362176
0.00145994
1.78463e-06
8.86304e-06
8.29663e-06
2.76581e-06
2.09246e-05
-2.7649e-05
4.11489e-05
-8.41549e-05
7.04994e-05
-0.00016859
0.000110471
-0.000282704
0.00016239
-0.000427921
0.000227238
-0.000604966
0.000305426
-0.000813425
0.000396575
-0.00105129
0.00049934
-0.00131466
0.000611357
-0.00159763
0.000729363
-0.00189264
0.000849516
-0.00219115
0.000967859
-0.00248468
0.00108083
-0.00276585
0.00118569
-0.00302924
0.00128074
-0.00327213
0.00136559
-0.00349337
-0.00369691
0.00144073
1.99832e-06
6.86471e-06
9.18019e-06
-4.41606e-06
2.29725e-05
-4.14413e-05
4.48804e-05
-0.000106063
7.6432e-05
-0.000200142
0.000119076
-0.000325348
0.000174026
-0.000482871
0.000242065
-0.000673005
0.000323305
-0.000894665
0.000416982
-0.00114497
0.000521312
-0.00141899
0.000633513
-0.00170983
0.000750014
-0.00200914
0.000866854
-0.00230799
0.000980193
-0.00259802
0.00108681
-0.00287247
0.00118446
-0.0031269
0.00127203
-0.00335969
0.00134961
-0.00357095
-0.00376535
0.00141805
2.22137e-06
4.64334e-06
1.0095e-05
-1.22897e-05
2.50805e-05
-5.64268e-05
4.86992e-05
-0.000129682
8.24635e-05
-0.000233906
0.000127754
-0.000370639
0.000185646
-0.000540763
0.000256687
-0.000744045
0.000340661
-0.000978639
0.000436396
-0.00124071
0.000541678
-0.00152427
0.00065335
-0.0018215
0.000767609
-0.0021234
0.00088048
-0.00242087
0.000988339
-0.00270588
0.00108837
-0.0029725
0.00117887
-0.00321739
0.00125924
-0.00344007
0.00133004
-0.00364174
-0.00382769
0.00139237
2.45434e-06
2.189e-06
1.10419e-05
-2.08773e-05
2.72478e-05
-7.26327e-05
5.25991e-05
-0.000155033
8.85765e-05
-0.000269884
0.000136471
-0.000418533
0.000197186
-0.000601479
0.000271004
-0.000817863
0.000357353
-0.00106499
0.000454644
-0.001338
0.000560252
-0.00162988
0.0006707
-0.00193195
0.000782045
-0.00223474
0.000890391
-0.00252921
0.000992419
-0.00280791
0.00108577
-0.00306586
0.00116927
-0.00330089
0.00124281
-0.00351362
0.00130733
-0.00370626
-0.00388449
0.00136413
2.69752e-06
-5.08516e-07
1.20207e-05
-3.02005e-05
2.94715e-05
-9.00835e-05
5.65704e-05
-0.000182132
9.47487e-05
-0.000308062
0.000145182
-0.000468966
0.000208573
-0.00066487
0.000284909
-0.000894199
0.000373239
-0.00115332
0.000471559
-0.00143632
0.000576867
-0.00173519
0.000685435
-0.00204052
0.000793266
-0.00234257
0.00089664