/*--------------------------------*- C++ -*----------------------------------*\
  =========                 |
  \\      /  F ield         | OpenFOAM: The Open Source CFD Toolbox
   \\    /   O peration     | Website:  https://openfoam.org
    \\  /    A nd           | Version:  7
     \\/     M anipulation  |
\*---------------------------------------------------------------------------*/
FoamFile
{
    version     2.0;
    format      ascii;
    class       volVectorField;
    location    "140";
    object      U;
}
// * * * * * * * * * * * * * * * * * * * * * * * * * * * * * * * * * * * * * //

dimensions      [0 1 -1 0 0 0 0];

internalField   nonuniform List<vector> 
36600
(
(-0.000119079 -0.0281871 -1.06506e-21)
(-0.00200274 -0.0693304 -5.56346e-21)
(-0.00652152 -0.0983708 6.82996e-22)
(-0.01281 -0.117103 1.00602e-21)
(-0.0205374 -0.127355 1.75237e-21)
(-0.0293937 -0.130899 -1.27538e-20)
(-0.0390929 -0.12938 2.157e-21)
(-0.0494023 -0.124246 -8.42255e-21)
(-0.0601352 -0.116691 -1.79933e-20)
(-0.0711465 -0.107633 1.52267e-20)
(-0.0823277 -0.0977018 4.48073e-21)
(-0.0936011 -0.0872644 -5.33088e-21)
(-0.104916 -0.0764579 6.5009e-21)
(-0.116244 -0.0652384 8.8628e-21)
(-0.127583 -0.053429 -5.56114e-21)
(-0.138946 -0.0407618 -7.4265e-21)
(-0.150371 -0.0269076 -1.77122e-20)
(-0.16193 -0.011498 -1.36573e-21)
(-0.173566 0.00585881 -2.96844e-21)
(-0.185219 0.0256326 -5.85496e-21)
(0.00038224 -0.0273476 -5.13057e-21)
(-0.000855475 -0.0671221 4.20001e-21)
(-0.00504591 -0.0950548 -4.83516e-21)
(-0.0112205 -0.112906 -1.907e-20)
(-0.0189864 -0.122477 8.71754e-21)
(-0.0279835 -0.125513 5.26624e-20)
(-0.0378868 -0.123627 -3.20789e-20)
(-0.0484357 -0.118239 5.54043e-21)
(-0.0594254 -0.110518 2.56997e-20)
(-0.0707007 -0.101359 -1.10726e-22)
(-0.082149 -0.0913748 1.47999e-20)
(-0.0936933 -0.0809173 -1.9459e-20)
(-0.105286 -0.0701107 2.02257e-20)
(-0.116904 -0.0588997 -1.74609e-20)
(-0.128549 -0.0470967 -6.59986e-21)
(-0.140236 -0.0344241 3.34969e-20)
(-0.152006 -0.020545 -1.00839e-20)
(-0.163932 -0.00508794 1.61444e-21)
(-0.175939 0.0123358 -1.91071e-20)
(-0.187937 0.0321954 -1.91575e-21)
(0.000852177 -0.0264563 -3.9345e-20)
(0.000221989 -0.0648016 4.99943e-21)
(-0.0036507 -0.0915996 7.61654e-21)
(-0.00970324 -0.108566 4.78125e-20)
(-0.0174839 -0.117468 -3.79142e-20)
(-0.026585 -0.120014 -5.85134e-20)
(-0.0366441 -0.117784 5.26413e-20)
(-0.0473737 -0.112163 -1.41202e-20)
(-0.0585508 -0.104294 -7.29172e-21)
(-0.0700097 -0.0950485 -3.53332e-20)
(-0.0816329 -0.0850213 9.2852e-21)
(-0.0933429 -0.0745497 3.44137e-20)
(-0.105094 -0.0637467 -7.35974e-21)
(-0.116866 -0.0525471 2.75511e-20)
(-0.128661 -0.0407542 -2.23188e-20)
(-0.140499 -0.028082 -7.23151e-21)
(-0.152419 -0.014188 5.27492e-20)
(-0.164495 0.00130105 -3.26937e-21)
(-0.176632 0.0187695 8.07371e-20)
(-0.188699 0.0386831 -1.86702e-20)
(0.00128843 -0.0255208 6.40245e-20)
(0.00122429 -0.0623869 -2.76461e-20)
(-0.00234366 -0.0880298 -1.91817e-20)
(-0.00826786 -0.104112 -4.42627e-20)
(-0.0160414 -0.112358 2.65952e-20)
(-0.0252114 -0.114437 -4.55586e-21)
(-0.0353798 -0.111886 -8.69799e-20)
(-0.0462331 -0.106056 -8.97301e-21)
(-0.0575303 -0.0980593 -1.87387e-20)
(-0.0690943 -0.0887432 -2.42687e-21)
(-0.0808022 -0.0786852 -3.22652e-20)
(-0.0925742 -0.068209 3.56999e-20)
(-0.104365 -0.0574173 -5.27159e-20)
(-0.116156 -0.0462362 -1.57536e-21)
(-0.12795 -0.0344614 1.42242e-20)
(-0.139767 -0.0218005 -1.07662e-19)
(-0.151643 -0.00790608 -8.57537e-20)
(-0.163654 0.00759502 4.59285e-20)
(-0.175684 0.025083 -6.23643e-20)
(-0.18755 0.0450177 2.37586e-21)
(0.00168916 -0.0245487 -8.62719e-21)
(0.00214692 -0.0598956 1.08616e-19)
(-0.00113161 -0.0843697 5.00836e-20)
(-0.00692335 -0.0995716 -2.18523e-21)
(-0.0146699 -0.10718 1.33937e-20)
(-0.0238759 -0.108814 2.47225e-21)
(-0.0341098 -0.105968 4.41879e-20)
(-0.0450324 -0.0999534 5.13995e-20)
(-0.0563849 -0.0918511 2.14973e-20)
(-0.0679786 -0.0824837 7.61396e-20)
(-0.0796836 -0.0724107 -8.60004e-20)
(-0.0914172 -0.0619428 -1.82996e-20)
(-0.103133 -0.0511738 3.76959e-20)
(-0.114811 -0.0400228 -6.39322e-20)
(-0.126455 -0.0282791 2.88875e-20)
(-0.138082 -0.0156449 6.74234e-20)
(-0.149726 -0.0017693 1.73238e-20)
(-0.161464 0.0137201 2.146e-20)
(-0.173157 0.0311996 -3.49599e-20)
(-0.18456 0.0511218 4.35542e-21)
(0.00205294 -0.0235472 -4.06936e-20)
(0.00298617 -0.0573445 2.47036e-20)
(-2.08128e-05 -0.0806419 -4.13418e-20)
(-0.00567838 -0.0949721 3.7178e-20)
(-0.0133804 -0.101961 3.23568e-20)
(-0.0225925 -0.103176 1.50333e-20)
(-0.0328508 -0.100062 2.70197e-20)
(-0.0437917 -0.09389 -1.92326e-20)
(-0.0551383 -0.085707 -1.15496e-19)
(-0.0666897 -0.0763103 -1.0153e-19)
(-0.0783083 -0.0662411 -6.47082e-20)
(-0.0899069 -0.0557984 2.46323e-20)
(-0.101436 -0.0450679 -1.4005e-20)
(-0.112876 -0.0339627 1.04912e-19)
(-0.124226 -0.0222677 -3.73884e-20)
(-0.135501 -0.00968053 2.97252e-20)
(-0.14673 0.00415268 4.37789e-20)
(-0.157994 0.019603 -2.48132e-20)
(-0.169131 0.0370437 2.04197e-19)
(-0.179823 0.0569197 -7.53355e-20)
(0.00237872 -0.022523 4.90383e-20)
(0.00373906 -0.0547493 -6.03022e-20)
(0.000983367 -0.0768681 -9.06825e-20)
(-0.00454068 -0.090339 -2.34782e-20)
(-0.012184 -0.0967299 1.0268e-20)
(-0.0213754 -0.097552 1.56528e-20)
(-0.0316207 -0.0941996 5.16777e-20)
(-0.0425325 -0.0878993 1.10015e-20)
(-0.0538161 -0.0796629 4.71497e-21)
(-0.0652575 -0.0702617 1.81845e-19)
(-0.0767108 -0.060219 1.35058e-19)
(-0.088083 -0.0498222 -7.92229e-20)
(-0.099321 -0.0391501 -1.16849e-20)
(-0.110401 -0.0281115 -3.12303e-20)
(-0.12132 -0.0164873 3.01759e-20)
(-0.132088 -0.00397188 -1.56539e-19)
(-0.142731 0.00979113 -3.14617e-20)
(-0.15333 0.0251715 -4.82004e-20)
(-0.163705 0.0425408 -1.1493e-19)
(-0.173453 0.0623375 6.27289e-20)
(0.00266586 -0.0214822 7.85004e-21)
(0.00440337 -0.0521245 -2.85395e-20)
(0.00187621 -0.0730679 8.14262e-20)
(-0.00351826 -0.0856947 -3.03282e-20)
(-0.0110914 -0.0915118 -2.698e-20)
(-0.020239 -0.0919699 4.22159e-20)
(-0.0304378 -0.08841 -7.22984e-20)
(-0.0412775 -0.0820124 -1.02718e-20)
(-0.0524454 -0.0737527 1.33534e-19)
(-0.0637145 -0.0643753 -8.45225e-20)
(-0.0749292 -0.0543854 -3.44668e-20)
(-0.0859896 -0.0440594 4.08976e-20)
(-0.0968376 -0.0334702 -1.06304e-20)
(-0.107445 -0.0225232 -5.598e-21)
(-0.117804 -0.0109967 4.3165e-20)
(-0.12792 0.00141765 -1.10969e-19)
(-0.137814 0.0150786 4.03517e-20)
(-0.147571 0.030355 -2.888e-20)
(-0.156993 0.0476187 -6.37087e-20)
(-0.165584 0.0673041 2.3885e-20)
(0.00291398 -0.0204305 -2.253e-20)
(0.00497747 -0.0494828 1.56923e-19)
(0.00265367 -0.0692593 -3.46607e-20)
(-0.00261802 -0.0810608 -4.12652e-20)
(-0.0101137 -0.0863292 9.75536e-20)
(-0.019198 -0.0864541 -1.00964e-19)
(-0.029321 -0.0827195 -4.85852e-20)
(-0.04005 -0.0762583 -8.39698e-20)
(-0.0510548 -0.0680082 -9.11792e-20)
(-0.0620947 -0.0586862 -5.88719e-20)
(-0.0730036 -0.0487792 -7.85055e-20)
(-0.083674 -0.0385532 1.42485e-19)
(-0.094041 -0.0280759 -1.63339e-20)
(-0.104071 -0.0172503 -3.17126e-20)
(-0.113751 -0.00585309 -1.64918e-19)
(-0.123081 0.00642648 9.26425e-20)
(-0.132077 0.0199497 2.40133e-20)
(-0.140827 0.0350853 5.51e-20)
(-0.149123 0.0522076 3.6307e-20)
(-0.156368 0.0717514 -9.53634e-20)
(0.00312296 -0.0193727 -6.85656e-20)
(0.00546022 -0.046836 8.93575e-20)
(0.00331185 -0.0654572 5.02125e-20)
(-0.00184718 -0.0764553 2.25678e-20)
(-0.00926158 -0.0812029 8.50378e-20)
(-0.0182673 -0.0810266 -6.61486e-20)
(-0.0282893 -0.0771522 1.42673e-19)
(-0.0388738 -0.0706632 8.3574e-21)
(-0.0496734 -0.0624585 1.28615e-19)
(-0.0604333 -0.0532267 -7.34159e-20)
(-0.0709763 -0.0434368 1.18782e-19)
(-0.0811858 -0.0333443 -1.15037e-19)
(-0.0909896 -0.0230126 -1.03078e-19)
(-0.100347 -0.0123429 8.63203e-20)
(-0.10924 -0.00111121 3.01574e-19)
(-0.117662 0.0109954 -1.62708e-19)
(-0.125623 0.0243413 1.32656e-19)
(-0.133219 0.0392964 2.91818e-20)
(-0.140237 0.0562407 -1.09572e-19)
(-0.145966 0.0756151 9.10222e-20)
(0.00329278 -0.0183131 1.23088e-19)
(0.00585051 -0.0441934 -6.98699e-20)
(0.00384753 -0.0616757 2.21026e-20)
(-0.00121247 -0.0718935 8.60382e-20)
(-0.00854534 -0.0761502 -6.68515e-20)
(-0.0174609 -0.0757067 1.53201e-19)
(-0.0273613 -0.0717292 -2.78183e-20)
(-0.0377725 -0.0652504 3.6286e-21)
(-0.0483303 -0.0571295 -1.76722e-19)
(-0.0587658 -0.0480264 1.10973e-19)
(-0.06889 -0.0383915 2.45042e-20)
(-0.0785762 -0.0284704 -3.08274e-20)
(-0.0877438 -0.0183224 3.99443e-20)
(-0.0963446 -0.00784806 -1.56119e-19)
(-0.104354 0.00317721 -8.69219e-20)
(-0.111758 0.0150682 1.77697e-19)
(-0.118565 0.0281934 -9.73081e-20)
(-0.124874 0.042926 -1.3581e-19)
(-0.13048 0.0596545 2.48059e-19)
(-0.134552 0.0788346 -1.8939e-21)
(0.00342348 -0.0172551 1.01021e-19)
(0.00614756 -0.0415633 -1.2529e-19)
(0.00425723 -0.0579252 -1.30148e-19)
(-0.000719925 -0.0673892 -6.16928e-20)
(-0.00797458 -0.0711859 -4.25291e-20)
(-0.0167925 -0.0705107 -4.96743e-20)
(-0.0265547 -0.0664684 -2.0538e-19)
(-0.0367688 -0.06004 2.5446e-20)
(-0.047054 -0.052044 -8.49582e-20)
(-0.0571273 -0.043111 2.95311e-19)
(-0.0667871 -0.0336728 -1.69666e-19)
(-0.0758964 -0.0239651 1.04399e-19)
(-0.0843649 -0.0140437 -3.15216e-20)
(-0.0921357 -0.00380877 1.68811e-19)
(-0.0991764 0.00696427 1.32754e-20)
(-0.105469 0.0185924 -1.39191e-19)
(-0.111014 0.0314496 -2.34491e-20)
(-0.115923 0.045915 7.29627e-21)
(-0.120006 0.0623896 -1.2537e-20)
(-0.122303 0.0813532 1.57734e-19)
(0.00351511 -0.0162013 -1.26433e-19)
(0.00635056 -0.0389519 -1.17246e-19)
(0.00453815 -0.0542149 4.87038e-20)
(-0.000375304 -0.0629523 1.20274e-19)
(-0.00755801 -0.0663221 -9.51216e-21)
(-0.0162743 -0.0654519 -8.09201e-20)
(-0.0258862 -0.0613845 1.79783e-19)
(-0.035884 -0.0550484 -1.95079e-20)
(-0.0458714 -0.0472207 2.1278e-19)
(-0.0555509 -0.0385023 -2.3512e-19)
(-0.0647087 -0.0293059 6.16947e-20)
(-0.0731961 -0.0198577 7.09988e-20)
(-0.0809126 -0.0102101 -2.31078e-21)
(-0.0877919 -0.000263353 -1.02155e-21)
(-0.0937931 0.0102069 -1.28627e-19)
(-0.0988925 0.0215202 1.83269e-20)
(-0.103087 0.0340581 1.65458e-19)
(-0.106498 0.048209 2.06663e-19)
(-0.108966 0.0643908 -2.40985e-19)
(-0.109395 0.0831187 -1.54146e-19)
(0.00356771 -0.0151537 5.16651e-20)
(0.00645881 -0.036364 7.92221e-20)
(0.00468756 -0.0505515 9.33589e-20)
(-0.000183643 -0.0585912 -1.5814e-19)
(-0.00730345 -0.0615675 1.53324e-19)
(-0.0159172 -0.0605403 1.54867e-19)
(-0.0253704 -0.0564888 -6.06346e-20)
(-0.0351373 -0.0502884 2.58196e-19)
(-0.0448066 -0.0426744 -2.58989e-19)
(-0.0540673 -0.0342175 1.12933e-19)
(-0.0626926 -0.0253112 1.14158e-19)
(-0.070522 -0.0161721 -9.50598e-21)
(-0.0774438 -0.00684954 6.89528e-22)
(-0.0833815 0.00275572 1.46607e-20)
(-0.0882853 0.0128677 -9.83664e-20)
(-0.092125 0.0238094 9.53567e-20)
(-0.0948944 0.0359722 -4.91054e-20)
(-0.0967276 0.0497587 -1.07019e-19)
(-0.0975121 0.0656083 1.3398e-19)
(-0.0960023 0.0840834 2.75015e-20)
(0.00358126 -0.0141134 -3.01929e-20)
(0.00647164 -0.0338028 3.67383e-20)
(0.00470313 -0.0469395 -7.81723e-20)
(-0.000149232 -0.0543117 -1.14641e-19)
(-0.0072173 -0.0569294 -1.01343e-19)
(-0.0157307 -0.0557828 -1.05038e-19)
(-0.02502 -0.051789 1.67336e-19)
(-0.034545 -0.0457688 -8.62241e-20)
(-0.0438808 -0.0384153 6.72973e-20)
(-0.052703 -0.0302687 6.00316e-21)
(-0.0607722 -0.0217033 -1.7409e-20)
(-0.0679156 -0.012926 4.2257e-20)
(-0.0740101 -0.00398339 -8.31997e-20)
(-0.0789676 0.00522291 4.42118e-20)
(-0.0827286 0.0149166 1.35213e-19)
(-0.0852562 0.025425 -1.92485e-19)
(-0.0865412 0.0371523 -1.20254e-19)
(-0.0867319 0.0505213 1.54047e-19)
(-0.0857828 0.0659978 -8.97253e-20)
(-0.0822843 0.0842046 -1.30648e-19)
(0.00355566 -0.0130812 1.07302e-19)
(0.00638845 -0.0312702 -1.07768e-19)
(0.004583 -0.0433822 8.75917e-20)
(-0.000275518 -0.0501174 1.38255e-19)
(-0.00730497 -0.0524109 -2.41099e-20)
(-0.0157218 -0.051184 -8.77977e-20)
(-0.0248444 -0.0472894 -1.65581e-19)
(-0.0341198 -0.0414944 -1.24352e-19)
(-0.0431102 -0.0344491 -2.44079e-19)
(-0.051479 -0.0266629 2.33987e-20)
(-0.0589745 -0.018491 -2.01782e-20)
(-0.0654116 -0.0101303 -1.66529e-19)
(-0.0706548 -0.00162545 1.39639e-19)
(-0.0746043 0.00712088 1.69789e-19)
(-0.0771894 0.0163319 -8.00048e-21)
(-0.0783658 0.0263402 1.00153e-19)
(-0.0781209 0.0375667 -4.94213e-20)
(-0.0766185 0.050462 6.78148e-21)
(-0.0739055 0.0655241 1.28443e-19)
(-0.0683849 0.0834531 3.04349e-19)
(0.00349072 -0.0120571 -4.77506e-20)
(0.00620868 -0.0287671 -3.15071e-20)
(0.0043258 -0.0398808 8.91749e-20)
(-0.000564694 -0.0460105 -1.22418e-19)
(-0.00756967 -0.0480147 -6.85103e-20)
(-0.0158954 -0.0467449 1.20744e-19)
(-0.02485 -0.0429913 -4.28588e-20)
(-0.0338697 -0.0374662 -1.23185e-19)
(-0.0425056 -0.0307768 1.98785e-19)
(-0.0504098 -0.0234015 -5.37367e-20)
(-0.0573187 -0.0156761 3.81196e-20)
(-0.0630351 -0.00778845 1.99283e-19)
(-0.067411 0.000219099 -2.72937e-19)
(-0.0703338 0.00844182 -7.37849e-20)
(-0.0717206 0.0171021 -1.39206e-19)
(-0.0715182 0.0265389 2.77504e-19)
(-0.0697097 0.0371939 8.40121e-21)
(-0.0664746 0.0495561 1.42898e-19)
(-0.0619836 0.0641674 -5.46865e-20)
(-0.0544336 0.0818522 -2.83015e-19)
(0.00338617 -0.0110412 -1.07612e-19)
(0.00593184 -0.0262935 1.5038e-19)
(0.00393084 -0.0364358 2.40727e-21)
(-0.00101794 -0.0419904 -1.02157e-21)
(-0.00801284 -0.0437402 1.5216e-19)
(-0.0162531 -0.0424647 7.27558e-20)
(-0.0250387 -0.0388927 -3.31181e-21)
(-0.0337975 -0.0336812 3.15689e-19)
(-0.0420711 -0.0273945 1.19226e-19)
(-0.0495014 -0.0204799 -2.15576e-19)
(-0.0558138 -0.013254 1.06282e-20)
(-0.0607995 -0.00589541 -9.13444e-21)
(-0.0642978 0.00155467 2.84349e-19)
(-0.0661825 0.00918878 -3.11297e-19)
(-0.0663573 0.0172277 8.5148e-20)
(-0.0647578 0.0260169 9.14926e-22)
(-0.0613606 0.0360236 -2.03903e-19)
(-0.0563564 0.0477857 -2.0554e-19)
(-0.0500648 0.0619129 -2.61688e-20)
(-0.0405352 0.0794925 2.80331e-19)
(0.00324166 -0.0100332 3.40684e-20)
(0.00555757 -0.0238492 -1.06624e-19)
(0.00339796 -0.0330464 1.01619e-19)
(-0.0016346 -0.0380567 -1.49969e-19)
(-0.00863345 -0.0395851 1.83172e-19)
(-0.0167928 -0.0383406 -2.7243e-19)
(-0.0254078 -0.0349885 -7.36485e-20)
(-0.0338996 -0.0301328 -1.65232e-19)
(-0.0418027 -0.0242937 -7.66713e-20)
(-0.04875 -0.0178879 1.34235e-19)
(-0.0544572 -0.0112125 2.67639e-19)
(-0.0587041 -0.00443759 -2.93832e-19)
(-0.0613174 0.00239607 -1.07926e-19)
(-0.0621572 0.00937704 3.82211e-19)
(-0.061112 0.016723 -1.33513e-19)
(-0.0581036 0.0247852 -1.88512e-19)
(-0.0530989 0.0340588 2.3211e-19)
(-0.0462876 0.0451366 4.81628e-20)
(-0.0381049 0.0587137 4.22462e-20)
(-0.0266707 0.0763137 -1.78227e-19)
(0.0030568 -0.00903263 1.30262e-20)
(0.0050857 -0.0214336 -5.48678e-20)
(0.00272803 -0.0297118 1.75529e-19)
(-0.00241263 -0.034207 -2.24538e-19)
(-0.00942733 -0.0355467 -1.85889e-19)
(-0.0175085 -0.034367 4.92733e-20)
(-0.0259487 -0.031272 3.15617e-19)
(-0.0341655 -0.026811 -1.9634e-19)
(-0.0416876 -0.0214617 4.60763e-20)
(-0.0481411 -0.0156094 -9.14453e-20)
(-0.0532325 -0.00953229 -3.61538e-19)
(-0.0567314 -0.00339238 2.15545e-19)
(-0.0584524 0.00276917 1.67829e-19)
(-0.0582412 0.00903523 -2.93523e-19)
(-0.05597 0.0156182 6.87772e-20)
(-0.0515441 0.022873 2.60594e-19)
(-0.0449187 0.0313216 9.65706e-20)
(-0.0362806 0.0416171 3.37768e-20)
(-0.0260894 0.0545659 -1.92532e-19)
(-0.0127202 0.0721323 -9.18481e-20)
(0.00283126 -0.00803934 -9.12028e-20)
(0.00451652 -0.0190463 -1.62353e-19)
(0.00192295 -0.026431 -9.43636e-20)
(-0.00334756 -0.0304393 1.23261e-19)
(-0.0103872 -0.0316207 -7.11713e-21)
(-0.0183895 -0.0305381 2.35914e-20)
(-0.0266472 -0.0277332 -4.40582e-20)
(-0.0345768 -0.023703 3.0018e-20)
(-0.0417033 -0.0188814 1.8131e-19)
(-0.0476473 -0.013623 2.2656e-19)
(-0.052108 -0.00818718 -9.44613e-21)
(-0.0548453 -0.00272825 -4.86331e-20)
(-0.0556622 0.00271111 -2.77469e-19)
(-0.05439 0.00820615 2.03346e-19)
(-0.0508837 0.013961 -1.77063e-20)
(-0.0450294 0.0203309 -1.15749e-19)
(-0.0367677 0.0278621 -5.5715e-19)
(-0.0262875 0.0372783 1.89894e-19)
(-0.0140323 0.0495354 1.04593e-20)
(0.00137813 0.0669157 -1.1128e-19)
(0.0025648 -0.00705331 8.28545e-20)
(0.00385089 -0.0166873 2.11044e-19)
(0.000986105 -0.0232032 -1.58781e-19)
(-0.00443265 -0.0267516 -7.56329e-20)
(-0.0115022 -0.0278024 6.3188e-20)
(-0.0194202 -0.0268465 -1.51031e-19)
(-0.0274825 -0.0243616 -2.59563e-19)
(-0.0351068 -0.0207932 1.60345e-19)
(-0.0418165 -0.0165322 -1.9033e-20)
(-0.0472283 -0.0119024 -3.56204e-19)
(-0.0510353 -0.00714441 6.79875e-20)
(-0.0529888 -0.00240514 3.67286e-20)
(-0.0528806 0.0022701 -6.21022e-20)
(-0.050528 0.00694685 1.61855e-19)
(-0.0457682 0.0118174 3.0576e-19)
(-0.0384654 0.0172325 -1.92617e-19)
(-0.0285395 0.0237585 1.55213e-19)
(-0.0161814 0.0321919 3.50205e-20)
(-0.00183737 0.0436752 1.99977e-19)
(0.0157128 0.0607871 8.62579e-20)
(0.0022574 -0.00607492 -9.04202e-20)
(0.00309048 -0.0143573 -1.14207e-20)
(-7.74839e-05 -0.0200287 2.24049e-19)
(-0.00565854 -0.0231421 2.1913e-19)
(-0.0127577 -0.0240881 -4.40823e-20)
(-0.0205801 -0.0232842 -2.803e-20)
(-0.0284272 -0.0211451 2.94043e-19)
(-0.0357202 -0.0180642 -2.10299e-19)
(-0.041983 -0.0143909 6.235e-20)
(-0.0468297 -0.0104174 2.56432e-19)
(-0.0499485 -0.0063656 2.4049e-19)
(-0.051083 -0.0023754 9.02859e-20)
(-0.0500145 0.00150454 3.92214e-19)
(-0.0465464 0.00532797 -5.34748e-20)
(-0.0404975 0.00927136 -3.95535e-19)
(-0.0317093 0.0136746 1.8995e-19)
(-0.0200757 0.0191161 -9.60641e-20)
(-0.00577871 0.0264614 -2.21326e-19)
(0.0107089 0.0370581 -1.51173e-19)
(0.0305041 0.0538743 -1.47701e-19)
(0.00190934 -0.00510507 5.70898e-20)
(0.00223791 -0.0120583 1.15942e-19)
(-0.00126099 -0.0169087 -8.11395e-20)
(-0.00701302 -0.0196103 -1.00086e-19)
(-0.0141351 -0.0204738 -1.01099e-19)
(-0.0218431 -0.0198438 -2.75092e-20)
(-0.0294468 -0.0180711 -3.72597e-19)
(-0.0363729 -0.0154982 1.42356e-19)
(-0.0421473 -0.0124321 -1.28945e-19)
(-0.046383 -0.00913446 -2.13401e-19)
(-0.0487638 -0.00580792 6.93354e-21)
(-0.0490265 -0.00258507 -5.20272e-19)
(-0.0469424 0.000481548 -3.95093e-19)
(-0.0423012 0.00343219 1.20931e-19)
(-0.0349036 0.00642349 6.0141e-20)
(-0.0245671 0.00977696 -1.24176e-19)
(-0.011156 0.0140731 4.66735e-19)
(0.00516531 0.0202374 -7.04669e-20)
(0.0238888 0.0298204 1.85986e-19)
(0.0460852 0.0463027 1.60146e-19)
(0.00152134 -0.00414524 -7.85458e-20)
(0.00129702 -0.00979315 -2.53288e-19)
(-0.00255553 -0.0138456 7.88987e-20)
(-0.00848099 -0.0161569 4.15563e-21)
(-0.015612 -0.0169572 3.32053e-19)
(-0.0231783 -0.0165186 -1.95316e-19)
(-0.0305004 -0.0151278 -1.65562e-19)
(-0.037012 -0.0130759 1.95073e-19)
(-0.0422429 -0.0106297 -1.17035e-20)
(-0.0458055 -0.0080184 8.88204e-20)
(-0.04738 -0.00542554 2.62475e-19)
(-0.0466962 -0.00297575 5.40387e-19)
(-0.0435156 -0.000725256 4.21226e-20)
(-0.0376147 0.00135165 -2.27906e-19)
(-0.0287761 0.00338818 4.12157e-20)
(-0.0167937 0.00567965 3.79755e-19)
(-0.0015 0.00879596 -2.49774e-19)
(0.0169658 0.0137064 2.47789e-22)
(0.0380539 0.0221522 1.76791e-19)
(0.0628713 0.0382398 -1.09874e-19)
(0.0010946 -0.00319761 -7.42252e-20)
(0.000272972 -0.00756626 2.96601e-19)
(-0.00395001 -0.0108439 -2.25081e-19)
(-0.0100442 -0.0127844 -4.56772e-20)
(-0.0171616 -0.0135375 -7.58274e-20)
(-0.0245491 -0.0133028 -1.93369e-19)
(-0.03154 -0.0123042 1.91324e-19)
(-0.0375766 -0.0107802 -5.06934e-20)
(-0.0421932 -0.00895713 -1.09065e-19)
(-0.0450021 -0.00703345 1.75985e-19)
(-0.0456796 -0.00517139 -2.00731e-19)
(-0.0439485 -0.00348679 -6.37658e-20)
(-0.0395602 -0.00203857 -7.00362e-21)
(-0.0322778 -0.000815657 1.58617e-19)
(-0.0218668 0.000289241 -1.39378e-19)
(-0.0080982 0.00153787 -2.55778e-19)
(0.00922724 0.00347464 -7.332e-20)
(0.0300006 0.00708989 -1.04475e-19)
(0.0536206 0.014288 -3.09359e-19)
(0.0813438 0.0299049 -8.79931e-20)
(0.000630959 -0.00226505 1.04438e-19)
(-0.000827511 -0.00538355 -1.30503e-19)
(-0.005431 -0.00790948 -1.60022e-19)
(-0.0116812 -0.00949695 -1.50459e-19)
(-0.0187536 -0.0102155 4.97365e-20)
(-0.0259144 -0.0101931 2.87847e-20)
(-0.032512 -0.0095902 6.7554e-20)
(-0.0379981 -0.00859407 -2.32878e-19)
(-0.041912 -0.00739006 1.32099e-19)
(-0.0438657 -0.00614483 -3.87383e-19)
(-0.0435308 -0.0049991 -1.91272e-19)
(-0.0406224 -0.00405778 2.72793e-21)
(-0.0348806 -0.00338074 1.61576e-19)
(-0.0260555 -0.00297024 -1.02942e-19)
(-0.0138959 -0.00274581 2.55421e-19)
(0.00184754 -0.00248522 -6.10792e-20)
(0.0214036 -0.0016853 7.82071e-20)
(0.0446954 0.00063741 2.77718e-19)
(0.0710532 0.00650309 3.58656e-20)
(0.102029 0.0215691 1.67266e-19)
(0.000132921 -0.00135117 -2.20557e-19)
(-0.00199608 -0.00325242 1.72541e-19)
(-0.0069827 -0.0050505 1.93781e-19)
(-0.0133678 -0.00630124 -1.10558e-19)
(-0.0203534 -0.00699458 1.87266e-19)
(-0.0272283 -0.0071877 1.79392e-19)
(-0.0333571 -0.00697927 -3.25029e-20)
(-0.0382017 -0.00650359 -1.76366e-19)
(-0.0413056 -0.00590556 -2.57998e-19)
(-0.0422801 -0.00532037 7.50046e-20)
(-0.0407909 -0.00486491 7.33344e-21)
(-0.0365435 -0.00463123 -1.84685e-19)
(-0.0292659 -0.00467729 1.32072e-19)
(-0.0186941 -0.00501599 -1.01565e-19)
(-0.00456212 -0.00559249 -1.80883e-19)
(0.0133959 -0.00622767 -2.27865e-19)
(0.0354333 -0.00647363 5.50358e-20)
(0.0615033 -0.00538541 7.26865e-20)
(0.090839 -0.000896163 -6.60012e-20)
(0.125468 0.0135506 2.71092e-19)
(-0.000396241 -0.000460242 -1.72552e-19)
(-0.00322267 -0.00118176 -1.58699e-19)
(-0.00858693 -0.00227692 1.24135e-19)
(-0.0150765 -0.00320603 7.17501e-20)
(-0.0219237 -0.0038806 2.81842e-20)
(-0.0284413 -0.00428818 -5.18803e-20)
(-0.0340117 -0.00446623 -3.69223e-20)
(-0.038107 -0.00449768 8.2236e-20)
(-0.0402742 -0.00448511 -7.24726e-20)
(-0.0401222 -0.00453154 5.9905e-19)
(-0.0373093 -0.00472956 4.28696e-20)
(-0.031529 -0.00515501 -6.31775e-20)
(-0.0224959 -0.00586039 -4.13975e-19)
(-0.00993132 -0.00686509 7.82767e-20)
(0.00644408 -0.00813634 -1.93849e-19)
(0.0269069 -0.00953843 1.25345e-19)
(0.0517256 -0.0106891 1.10539e-19)
(0.0808785 -0.0107134 -4.03358e-19)
(0.113458 -0.00758857 -1.1935e-19)
(0.152174 0.00620538 -4.04624e-19)
(-0.000952479 0.000402844 8.36702e-20)
(-0.00449548 0.000818178 1.6348e-19)
(-0.0102233 0.000399408 -2.91384e-19)
(-0.0167776 -0.000222357 -2.20887e-19)
(-0.0234238 -0.000881964 1.10055e-19)
(-0.0295007 -0.00149873 1.03681e-19)
(-0.0344088 -0.00205059 -2.11607e-19)
(-0.0376302 -0.00256857 -1.8639e-20)
(-0.0387141 -0.00311356 2.53557e-20)
(-0.0372652 -0.00375522 -1.80247e-19)
(-0.0329318 -0.00455987 2.55426e-19)
(-0.0253936 -0.00558459 1.65498e-21)
(-0.0143495 -0.00687194 3.09366e-19)
(0.000493873 -0.00844238 2.05528e-19)
(0.0194266 -0.0102793 3.50071e-20)
(0.0427286 -0.0122869 4.05534e-19)
(0.0706708 -0.0141537 -3.56685e-19)
(0.103246 -0.0151011 1.61461e-19)
(0.139347 -0.0132595 1.21213e-19)
(0.18259 -9.02539e-05 1.00786e-19)
(-0.00153096 0.00123273 3.98456e-19)
(-0.00580103 0.002736 -2.747e-19)
(-0.0118691 0.00296493 6.70902e-20)
(-0.0184387 0.00263654 2.13979e-19)
(-0.0248108 0.00199028 -2.2849e-19)
(-0.0303512 0.00117318 1.14336e-20)
(-0.0344791 0.000265527 1.68871e-19)
(-0.0366854 -0.000713483 3.06187e-19)
(-0.0365201 -0.00178138 3.04209e-19)
(-0.0335814 -0.00297404 -2.96985e-19)
(-0.0275052 -0.00433005 -2.2533e-19)
(-0.0179551 -0.00588471 1.04924e-19)
(-0.00461264 -0.00766585 -2.93273e-19)
(0.0128296 -0.00968864 1.9842e-20)
(0.0346689 -0.0119449 1.09524e-19)
(0.061179 -0.0143711 8.19457e-20)
(0.0926157 -0.0167252 2.3904e-19)
(0.128971 -0.0183417 4.6952e-20)
(0.168871 -0.0176251 -1.6698e-19)
(0.217045 -0.00496083 1.72964e-19)
(-0.0021261 0.0020237 -3.77054e-19)
(-0.00712424 0.00455945 2.73101e-19)
(-0.0135001 0.00540469 6.62399e-20)
(-0.0200259 0.00535548 -2.11047e-19)
(-0.02604 0.00472257 8.80564e-20)
(-0.0309363 0.00371703 -4.1935e-20)
(-0.0341521 0.00247555 -3.21358e-20)
(-0.0351864 0.00106689 -2.58064e-19)
(-0.0335878 -0.000484062 -4.01078e-19)
(-0.0289458 -0.00217728 2.56019e-19)
(-0.0208816 -0.00402253 -1.30796e-19)
(-0.00904055 -0.0060303 4.06627e-21)
(0.00691362 -0.00820927 7.07946e-20)
(0.027301 -0.0105624 1.4534e-19)
(0.0524205 -0.0130808 -1.78274e-20)
(0.0825275 -0.0157225 -3.97103e-20)
(0.117842 -0.0183065 -1.9212e-19)
(0.158335 -0.0202833 -1.24396e-19)
(0.202291 -0.0204555 -1.13582e-19)
(0.255711 -0.0080561 1.74361e-19)
(-0.00273162 0.00276989 3.00937e-19)
(-0.00844862 0.00627571 -7.65701e-20)
(-0.0150902 0.00770268 2.58784e-19)
(-0.0215033 0.00791766 6.22522e-20)
(-0.0270655 0.00729909 -1.35468e-19)
(-0.0311986 0.00611935 2.18687e-20)
(-0.0333576 0.00456956 -2.82104e-19)
(-0.0330481 0.0027665 1.26572e-19)
(-0.0298158 0.000777596 6.6879e-20)
(-0.0232388 -0.00136083 9.68645e-21)
(-0.012922 -0.00362768 9.01803e-20)
(0.00150868 -0.00600674 3.14087e-20)
(0.0204067 -0.00848281 -1.40257e-19)
(0.0441015 -0.0110403 -3.18844e-19)
(0.0728859 -0.0136595 1.57874e-19)
(0.106983 -0.0163074 -7.48873e-20)
(0.146553 -0.018849 -1.60421e-20)
(0.191512 -0.0208392 3.01379e-19)
(0.239748 -0.0215919 3.01032e-19)
(0.298578 -0.00907321 -4.4436e-19)
(-0.00334066 0.00346546 -7.70716e-20)
(-0.00975648 0.00787179 -8.20282e-20)
(-0.0166119 0.00984223 -1.61952e-19)
(-0.0228344 0.0103051 1.17044e-19)
(-0.0278407 0.00970216 2.1104e-19)
(-0.0310808 0.00836412 -2.69363e-19)
(-0.0320264 0.00653415 4.25359e-19)
(-0.0301883 0.00437563 -8.1958e-20)
(-0.0251072 0.00199759 1.1609e-20)
(-0.0163487 -0.000526778 -2.74991e-19)
(-0.00349977 -0.00314401 9.1904e-21)
(0.0138326 -0.00580897 -2.17825e-19)
(0.0360169 -0.0084795 2.85969e-19)
(0.0633864 -0.0111151 1.83058e-19)
(0.0962178 -0.0136761 -3.49129e-19)
(0.134684 -0.0161246 -2.88563e-19)
(0.17886 -0.0183512 6.46577e-20)
(0.228562 -0.0199907 3.60965e-19)
(0.281268 -0.0209537 1.59432e-19)
(0.345433 -0.00777575 8.17625e-20)
(-0.00394587 0.00410479 2.33815e-20)
(-0.0110292 0.00933497 7.9787e-20)
(-0.0180372 0.0118066 9.4724e-20)
(-0.0239816 0.012499 -7.89715e-20)
(-0.028319 0.0119128 1.94959e-19)
(-0.0305266 0.0104332 2.5846e-19)
(-0.0300915 0.00835311 3.86433e-21)
(-0.0265284 0.00588064 -3.24784e-19)
(-0.0193719 0.00316534 -2.55833e-19)
(-0.00817386 0.000317561 2.64013e-19)
(0.00749665 -0.00257632 -4.22756e-19)
(0.0280497 -0.00544044 -3.80724e-19)
(0.0538643 -0.00820284 -3.73693e-20)
(0.0852694 -0.0107936 -2.05142e-20)
(0.122513 -0.0131448 1.22058e-19)
(0.165698 -0.0151998 7.79666e-20)
(0.214789 -0.016851 9.7664e-20)
(0.269437 -0.0177835 -4.46632e-19)
(0.326769 -0.0185383 -1.16507e-19)
(0.395873 -0.00401896 2.98325e-19)
(-0.0045396 0.00468269 -1.4204e-19)
(-0.0122474 0.0106531 1.35268e-19)
(-0.019337 0.0135793 -9.92995e-20)
(-0.0249076 0.0144805 -4.86981e-20)
(-0.0284543 0.0139112 -1.31625e-19)
(-0.0294807 0.0123072 -9.87192e-20)
(-0.0274885 0.0100081 -1.74106e-19)
(-0.0219947 0.00726505 2.84115e-19)
(-0.0125271 0.00426686 1.11138e-19)
(0.00137636 0.00116008 -2.68486e-19)
(0.0201626 -0.00193488 -3.20076e-19)
(0.0442552 -0.00491079 1.6785e-19)
(0.0740366 -0.00766425 -1.52976e-19)
(0.109821 -0.0100925 -2.08588e-19)
(0.151811 -0.0120931 -2.53788e-20)
(0.200019 -0.0135791 2.04562e-19)
(0.254276 -0.0144161 -1.30244e-19)
(0.313981 -0.014319 4.9416e-20)
(0.376088 -0.0144132 1.05696e-19)
(0.44933 0.0022225 2.52405e-19)
(-0.00511402 0.00519456 -1.46909e-20)
(-0.0133916 0.0118152 -3.34055e-19)
(-0.0204825 0.0151449 8.04396e-20)
(-0.0255748 0.0162315 1.77794e-19)
(-0.0282011 0.0156776 -3.24013e-20)
(-0.02789 0.0139661 -2.10484e-19)
(-0.0241563 0.0114798 2.2901e-19)
(-0.0165188 0.0085107 2.58807e-19)
(-0.00449793 0.00528562 9.78412e-20)
(0.0123804 0.00198644 4.77202e-19)
(0.0345763 -0.0012331 -2.17598e-19)
(0.0625204 -0.00423361 7.66453e-20)
(0.0965893 -0.00687991 -1.03369e-19)
(0.137068 -0.00903503 2.42155e-19)
(0.184097 -0.0105578 -2.10021e-20)
(0.237575 -0.0113214 -5.21465e-20)
(0.297179 -0.0111323 -8.14708e-20)
(0.361939 -0.00973976 1.23417e-19)
(0.428973 -0.00866673 -3.00322e-19)
(0.505029 0.0109318 -3.86182e-19)
(-0.0056613 0.00563658 -8.20671e-20)
(-0.0144419 0.0128117 -2.93408e-20)
(-0.0214447 0.0164894 -2.67046e-19)
(-0.0259463 0.0177348 1.61905e-19)
(-0.0275151 0.0171933 -1.63502e-19)
(-0.0257031 0.0153901 -1.64155e-19)
(-0.0200371 0.0127486 -1.48243e-20)
(-0.0100373 0.00959906 -2.61247e-19)
(0.00478214 0.00620451 -4.07781e-19)
(0.0249051 0.00278093 1.09677e-19)
(0.0507992 -0.000485319 1.20925e-19)
(0.0828937 -0.00342356 -4.99045e-20)
(0.121547 -0.00586734 3.85166e-19)
(0.166997 -0.00764632 -3.44961e-20)
(0.219305 -0.00857987 -7.27061e-20)
(0.278233 -0.00849502 -8.94684e-21)
(0.343294 -0.00710254 1.74445e-19)
(0.413002 -0.00422528 2.98268e-19)
(0.485074 -0.0012812 -8.12023e-20)
(0.561743 0.0223603 2.84021e-19)
(-0.00617376 0.00600582 2.56857e-19)
(-0.0153789 0.0136345 -4.03531e-20)
(-0.0221949 0.0176007 2.3547e-19)
(-0.0259857 0.0189753 -2.39113e-19)
(-0.0263531 0.0184409 3.49338e-19)
(-0.0228705 0.0165613 2.89115e-19)
(-0.0150764 0.0137964 -2.34626e-19)
(-0.00249225 0.0105127 -4.3087e-19)
(0.0153722 0.00700746 7.04373e-19)
(0.0390061 0.0035293 1.7081e-19)
(0.0688771 0.000295528 -1.31011e-19)
(0.105401 -0.00249335 -1.26521e-19)
(0.148903 -0.00464195 -1.30584e-19)
(0.199556 -0.00595003 -9.47736e-20)
(0.257318 -0.0062015 -3.04645e-19)
(0.321801 -0.00517805 -7.97764e-20)
(0.392362 -0.00246769 6.78415e-21)
(0.466927 0.0019745 -2.04169e-19)
(0.544237 0.00791057 9.90697e-20)
(0.61797 0.0368036 -2.00557e-19)
(-0.006644 0.00630032 -4.10237e-19)
(-0.0161835 0.014278 2.69127e-19)
(-0.0227051 0.0184693 -3.96999e-19)
(-0.0256576 0.0199404 -2.1406e-19)
(-0.024673 0.019406 7.88755e-20)
(-0.0193449 0.0174638 -3.12135e-19)
(-0.00922256 0.0146074 4.83282e-19)
(0.00617013 0.0112367 8.33481e-21)
(0.0273246 0.00768131 -2.61616e-19)
(0.0547291 0.00422048 -2.25179e-19)
(0.0888412 0.00110056 -3.951e-19)
(0.13005 -0.00145082 -4.77547e-21)
(0.178624 -0.00321335 -5.36064e-20)
(0.234651 -0.0039635 -1.53299e-19)
(0.297962 -0.00346017 3.68923e-19)
(0.368007 -0.00145586 2.20904e-19)
(0.444019 0.00257453 5.31638e-20)
(0.523504 0.00849491 -2.24501e-19)
(0.606981 0.0187201 -1.33518e-20)
(0.674925 0.0514271 -3.38269e-19)
(-0.00706504 0.00651916 1.45725e-19)
(-0.0168374 0.0147384 -2.68784e-19)
(-0.0229482 0.0190883 3.42475e-19)
(-0.024927 0.0206206 4.7679e-19)
(-0.0224337 0.0200772 -1.53502e-19)
(-0.0150801 0.0180856 1.98373e-20)
(-0.00242626 0.0151699 -4.07323e-19)
(0.0159996 0.0117606 -9.99911e-20)
(0.0406856 0.00821766 -3.06989e-19)
(0.0721108 0.00484894 3.94216e-19)
(0.11071 0.00192728 3.5889e-19)
(0.156827 -0.000296189 -6.2653e-20)
(0.210652 -0.00158183 -4.57978e-20)
(0.272155 -0.00169255 -7.22338e-20)
(0.341014 -0.000379174 6.70685e-20)
(0.416489 0.00260146 -1.16552e-19)