/*--------------------------------*- C++ -*----------------------------------*\
  =========                 |
  \\      /  F ield         | OpenFOAM: The Open Source CFD Toolbox
   \\    /   O peration     | Website:  https://openfoam.org
    \\  /    A nd           | Version:  7
     \\/     M anipulation  |
\*---------------------------------------------------------------------------*/
FoamFile
{
    version     2.0;
    format      ascii;
    class       volVectorField;
    location    "100";
    object      U;
}
// * * * * * * * * * * * * * * * * * * * * * * * * * * * * * * * * * * * * * //

dimensions      [0 1 -1 0 0 0 0];

internalField   nonuniform List<vector> 
7158
(
(0.794691 0.264723 -4.29772e-23)
(0.810199 0.331986 -3.61599e-23)
(0.812981 0.373773 -5.8614e-23)
(0.803751 0.392091 -3.06963e-23)
(0.786789 0.375776 3.934e-23)
(0.769332 0.319974 -5.59729e-24)
(0.756094 0.222395 -6.95449e-23)
(0.75237 0.0984344 -4.78547e-23)
(0.758261 -0.0328133 -1.68582e-23)
(0.771128 -0.153249 7.27438e-23)
(0.780979 -0.2469 -4.71368e-23)
(0.784541 -0.317122 2.23964e-23)
(0.77941 -0.343323 2.83774e-23)
(0.772451 -0.336861 6.82682e-23)
(0.762841 -0.272575 2.2826e-24)
(0.757608 -0.181 6.2341e-23)
(0.754078 -0.0556569 6.26318e-23)
(0.757167 0.0738407 1.39174e-23)
(0.757576 0.18223 -9.52371e-24)
(0.759902 0.282276 -3.39224e-23)
(0.756233 0.300517 -2.47171e-23)
(0.756661 0.315876 -1.40736e-23)
(0.748019 0.223457 2.74325e-23)
(0.745071 0.14174 -3.96285e-23)
(0.734716 0.010136 2.47377e-23)
(0.731997 -0.134825 2.60736e-23)
(0.724339 -0.175632 2.29076e-23)
(0.727149 -0.30229 -7.54778e-25)
(0.718313 -0.17852 1.00313e-23)
(0.794277 0.263526 5.30589e-24)
(0.809897 0.331389 -1.79579e-22)
(0.81284 0.373946 6.37444e-23)
(0.80382 0.392864 1.20923e-22)
(0.787058 0.376798 2.86423e-23)
(0.769702 0.320891 -2.34913e-24)
(0.756421 0.222923 1.98837e-22)
(0.752591 0.0984195 2.36214e-22)
(0.758411 -0.0332912 1.73859e-22)
(0.771327 -0.15384 -9.56299e-23)
(0.781222 -0.247239 -1.18073e-22)
(0.784724 -0.317068 1.39416e-22)
(0.779431 -0.343003 -4.04362e-23)
(0.772354 -0.336445 1.9149e-23)
(0.762761 -0.272216 -1.20693e-22)
(0.757582 -0.180806 -8.52838e-23)
(0.754099 -0.0556656 -6.59626e-23)
(0.75714 0.0737358 -5.34384e-23)
(0.757579 0.182148 1.48261e-22)
(0.760071 0.282293 -4.83469e-23)
(0.756573 0.300586 2.56867e-23)
(0.757149 0.316061 1.43311e-22)
(0.748434 0.223727 -8.70229e-23)
(0.745461 0.142037 1.50427e-22)
(0.735044 0.0104321 6.51866e-23)
(0.73205 -0.134599 5.40026e-23)
(0.724437 -0.175523 3.02727e-23)
(0.726699 -0.302168 4.47893e-23)
(0.718375 -0.178344 7.84995e-24)
(0.793926 0.262284 9.11675e-23)
(0.809659 0.33076 1.95961e-22)
(0.812767 0.374095 4.91657e-23)
(0.803962 0.393624 -1.38868e-22)
(0.787403 0.377825 3.04838e-22)
(0.770149 0.321835 1.63594e-22)
(0.756823 0.223494 -8.89881e-23)
(0.752881 0.0984519 -5.32661e-22)
(0.758622 -0.0337291 -2.49296e-22)
(0.771585 -0.154403 -1.11256e-22)
(0.781526 -0.247556 1.66313e-22)
(0.784971 -0.316997 -4.04103e-22)
(0.779514 -0.342674 1.69877e-22)
(0.772313 -0.336035 -1.26212e-22)
(0.762732 -0.271875 3.52411e-22)
(0.757603 -0.180635 -9.26926e-24)
(0.754168 -0.055697 1.45926e-22)
(0.757164 0.0736119 8.11971e-23)
(0.75764 0.182046 -1.32996e-22)
(0.760299 0.282295 -1.78447e-23)
(0.756969 0.300646 -9.39269e-23)
(0.757685 0.316248 -8.65992e-23)
(0.748897 0.224007 1.03904e-22)
(0.745899 0.142342 1.23955e-23)
(0.735426 0.0107438 -1.026e-22)
(0.732163 -0.134364 -8.19403e-23)
(0.724596 -0.1754 -3.57057e-23)
(0.726303 -0.302045 -5.93483e-23)
(0.718487 -0.178179 -2.2924e-23)
(0.793636 0.260997 1.04371e-22)
(0.809482 0.330097 -1.74327e-22)
(0.812762 0.374219 2.30342e-22)
(0.804176 0.394371 1.62395e-22)
(0.787824 0.378856 -4.56377e-22)
(0.770674 0.322805 -8.36877e-23)
(0.757301 0.224109 2.08105e-22)
(0.75324 0.098532 5.86978e-22)
(0.758896 -0.0341266 -7.36603e-23)
(0.771901 -0.154938 1.43157e-22)
(0.781892 -0.24785 1.45563e-22)
(0.785281 -0.316908 1.98478e-22)
(0.779659 -0.342335 6.78022e-23)
(0.772328 -0.335629 7.38876e-23)
(0.762753 -0.271551 -2.42439e-22)
(0.757669 -0.180487 -4.69673e-23)
(0.754283 -0.0557512 1.08355e-22)
(0.75724 0.0734691 -7.6901e-23)
(0.757758 0.181924 6.68299e-23)
(0.760585 0.28228 -1.34102e-22)
(0.757419 0.300698 6.09936e-23)
(0.75827 0.316436 1.41797e-22)
(0.749405 0.224297 1.30842e-22)
(0.746384 0.142657 -4.5951e-22)
(0.735863 0.0110708 -2.03367e-22)
(0.732334 -0.134119 -3.97199e-23)
(0.724815 -0.175265 -2.27266e-23)
(0.725961 -0.30192 -3.68355e-23)
(0.718648 -0.178026 -3.83144e-23)
(0.793407 0.259665 -3.25447e-22)
(0.809368 0.3294 1.01062e-22)
(0.812823 0.374317 -3.52649e-22)
(0.804462 0.395103 2.18286e-22)
(0.788323 0.379891 7.2402e-23)
(0.771277 0.323801 -9.92185e-23)
(0.757855 0.224767 -2.07781e-22)
(0.753671 0.0986607 2.34641e-23)
(0.759233 -0.0344832 1.77605e-22)
(0.772277 -0.155444 -2.48402e-22)
(0.782319 -0.248122 -1.62902e-22)
(0.785655 -0.316802 -1.44479e-22)
(0.779865 -0.341987 9.1472e-24)
(0.772399 -0.335228 -5.39192e-23)
(0.762822 -0.271245 5.01575e-22)
(0.757781 -0.180362 -1.15078e-22)
(0.754445 -0.0558283 6.96388e-24)
(0.757365 0.0733068 1.22555e-22)
(0.757934 0.181781 -2.62249e-22)
(0.760928 0.28225 -3.93366e-23)
(0.757923 0.30074 3.08437e-22)
(0.758904 0.316627 3.36999e-23)
(0.749961 0.224597 1.50161e-22)
(0.746917 0.142981 6.17624e-22)
(0.736354 0.0114129 2.11312e-22)
(0.732565 -0.133866 1.2153e-22)
(0.725095 -0.175117 1.14243e-22)
(0.725675 -0.301792 8.17257e-23)
(0.718859 -0.177884 6.22406e-23)
(0.793238 0.258287 1.16046e-22)
(0.809315 0.328669 4.41048e-22)
(0.81295 0.374388 -3.37332e-23)
(0.804821 0.395819 -4.24332e-22)
(0.788898 0.38093 7.21806e-22)
(0.771959 0.324823 -8.33161e-22)
(0.758487 0.225469 2.50735e-22)
(0.754174 0.0988385 -6.55417e-22)
(0.759636 -0.0347983 -3.85574e-22)
(0.772712 -0.155921 -1.04993e-22)
(0.782808 -0.248373 -2.21548e-22)
(0.786094 -0.316678 -4.25627e-22)
(0.780133 -0.341629 -5.76694e-22)
(0.772524 -0.334832 -2.69067e-22)
(0.762941 -0.270957 -3.94637e-22)
(0.757938 -0.180259 3.65608e-22)
(0.754652 -0.0559283 -3.82842e-22)
(0.757541 0.0731251 -1.14512e-22)
(0.758167 0.181618 2.78221e-22)
(0.761329 0.282204 -4.0855e-23)
(0.758481 0.300774 -3.58217e-22)
(0.759586 0.31682 -1.94074e-23)
(0.750563 0.224907 -4.52235e-22)
(0.747496 0.143313 -3.31765e-22)
(0.736901 0.0117697 -2.46752e-22)
(0.732856 -0.133603 -4.55072e-23)
(0.725436 -0.174955 -1.19332e-22)
(0.725445 -0.301661 6.40184e-25)
(0.719119 -0.177754 -2.10679e-23)
(0.793128 0.256864 -3.1495e-23)
(0.809323 0.327902 -4.89779e-22)
(0.813144 0.37443 -4.91938e-22)
(0.805251 0.396519 6.63113e-22)
(0.789551 0.381972 -1.22249e-21)
(0.772721 0.325872 1.27154e-21)
(0.759198 0.226215 -5.66328e-22)
(0.754751 0.0990661 8.22693e-22)
(0.760104 -0.0350714 -2.73542e-23)
(0.773208 -0.156369 6.31611e-23)
(0.783359 -0.248603 -4.21346e-22)
(0.786597 -0.316537 -8.60544e-23)
(0.780463 -0.341261 -1.03897e-22)
(0.772705 -0.334439 1.50574e-22)
(0.763108 -0.270685 -4.302e-22)
(0.758138 -0.18018 -4.80474e-22)
(0.754904 -0.0560512 1.84883e-22)
(0.757766 0.0729235 3.02827e-23)
(0.758456 0.181434 -1.1358e-22)
(0.761787 0.282143 2.71729e-22)
(0.759092 0.3008 -1.93954e-22)
(0.760316 0.317015 -2.41346e-22)
(0.751212 0.225227 2.16456e-22)
(0.748123 0.143654 2.83138e-22)
(0.737502 0.0121411 6.90692e-22)
(0.733207 -0.133332 -2.23354e-22)
(0.725838 -0.17478 3.2427e-22)
(0.72527 -0.301527 1.61387e-24)
(0.719428 -0.177634 2.09864e-23)
(0.793076 0.255395 -2.35652e-23)
(0.80939 0.327099 1.65434e-22)
(0.813403 0.374444 3.72519e-22)
(0.805754 0.397203 -7.01009e-22)
(0.790281 0.383016 8.83146e-22)
(0.773563 0.326946 -7.02405e-22)
(0.75999 0.227007 3.71263e-22)
(0.755403 0.099344 -7.46661e-22)
(0.760639 -0.0353018 9.2961e-22)
(0.773764 -0.156789 7.64694e-22)
(0.783972 -0.248811 1.21567e-21)
(0.787164 -0.316379 2.74402e-22)
(0.780854 -0.340883 6.66334e-22)
(0.772941 -0.334051 3.60044e-22)
(0.763322 -0.270429 5.87929e-22)
(0.758382 -0.180122 3.91332e-22)
(0.7552 -0.0561972 -1.18764e-22)
(0.758041 0.0727019 1.08845e-22)
(0.7588 0.181229 -3.91343e-23)
(0.762301 0.282066 -5.55859e-22)
(0.759757 0.300817 3.56696e-22)
(0.761094 0.317213 -3.55985e-22)
(0.751908 0.225557 -5.53023e-22)
(0.748797 0.144003 -6.72977e-22)
(0.738159 0.0125265 -5.12497e-22)
(0.733618 -0.133052 3.55231e-22)
(0.726303 -0.174592 -4.69556e-22)
(0.725152 -0.30139 3.96805e-23)
(0.719786 -0.177526 5.47269e-23)
(0.793081 0.253881 -4.06849e-22)
(0.809517 0.326259 -3.41102e-22)
(0.813726 0.374427 -7.6097e-23)
(0.806328 0.397868 2.94359e-22)
(0.791089 0.384061 -1.74233e-22)
(0.774485 0.328046 3.46007e-22)
(0.760861 0.227843 -8.73531e-22)
(0.756131 0.0996729 1.00107e-21)
(0.761241 -0.035489 1.6363e-22)
(0.774381 -0.157179 -4.78141e-22)
(0.784647 -0.248998 -7.87076e-22)
(0.787795 -0.316204 1.43666e-22)
(0.781307 -0.340494 -5.34176e-22)
(0.773231 -0.333665 -2.43319e-22)
(0.763582 -0.27019 -6.61307e-22)
(0.758669 -0.180087 1.08092e-22)
(0.75554 -0.0563663 -5.60615e-23)
(0.758363 0.0724601 1.83236e-23)
(0.7592 0.181002 -2.02383e-22)
(0.762871 0.281973 4.71427e-22)
(0.760474 0.300826 2.19873e-22)
(0.76192 0.317413 4.32185e-23)
(0.752651 0.225898 6.05016e-22)
(0.749518 0.144361 2.67313e-22)
(0.73887 0.0129258 2.42953e-22)
(0.734089 -0.132764 -3.15818e-22)
(0.72683 -0.174391 4.69925e-23)
(0.72509 -0.301249 -1.23075e-22)
(0.720192 -0.177428 -1.0832e-22)
(0.793142 0.252322 -3.62701e-22)
(0.809701 0.325381 -1.21555e-23)
(0.814113 0.37438 2.52655e-22)
(0.806973 0.398514 2.05419e-22)
(0.791973 0.385108 -3.50423e-22)
(0.775489 0.329172 2.16136e-22)
(0.761814 0.228724 1.02609e-21)
(0.756936 0.100053 -6.52235e-22)
(0.761912 -0.0356324 -4.03069e-22)
(0.77506 -0.15754 -2.86526e-22)
(0.785383 -0.249165 8.27027e-22)
(0.788491 -0.316013 -3.05567e-22)
(0.781822 -0.340096 3.7657e-22)
(0.773574 -0.333282 1.02116e-22)
(0.763889 -0.269966 -5.30056e-22)
(0.758997 -0.180074 6.62658e-22)
(0.755922 -0.0565585 2.23289e-22)
(0.758734 0.0721977 -2.98462e-23)
(0.759653 0.180755 2.53681e-22)
(0.763496 0.281865 -2.44876e-22)
(0.761244 0.300827 -5.66079e-22)
(0.762794 0.317616 7.37867e-22)
(0.75344 0.226248 -2.95132e-22)
(0.750285 0.144726 5.6781e-22)
(0.739637 0.0133386 2.98679e-22)
(0.734621 -0.132467 2.48471e-22)
(0.72742 -0.174176 9.1291e-23)
(0.725086 -0.301105 -2.08133e-23)
(0.720647 -0.177341 -4.38473e-24)
(0.793257 0.250717 -4.13266e-22)
(0.809943 0.324464 3.9532e-22)
(0.814564 0.3743 5.68016e-22)
(0.807688 0.39914 1.55374e-22)
(0.792935 0.386156 -7.85975e-22)
(0.776573 0.330322 -2.17938e-22)
(0.76285 0.22965 -1.602e-22)
(0.757819 0.100486 2.7454e-22)
(0.762653 -0.0357312 -7.99491e-22)
(0.7758 -0.157872 1.09104e-21)
(0.786182 -0.249312 2.46052e-22)
(0.78925 -0.315805 1.63876e-21)
(0.782398 -0.339686 5.93196e-22)
(0.773972 -0.332902 9.44198e-23)
(0.764242 -0.269758 4.04466e-22)
(0.759367 -0.180082 -3.83132e-22)
(0.756347 -0.0567739 -6.02588e-22)
(0.759153 0.0719147 1.52101e-22)
(0.760161 0.180486 2.97991e-22)
(0.764176 0.281742 7.33564e-22)
(0.762065 0.300821 3.05124e-23)
(0.763715 0.317822 -5.84117e-22)
(0.754277 0.226607 4.40911e-22)
(0.751099 0.145098 -1.12746e-21)
(0.740459 0.0137645 -5.60188e-22)
(0.735213 -0.132163 1.75202e-22)
(0.728072 -0.173948 -4.13119e-22)
(0.725138 -0.300956 5.80619e-23)
(0.72115 -0.177265 5.89832e-23)
(0.793426 0.249065 6.76243e-22)
(0.810241 0.323509 -6.64037e-22)
(0.815077 0.374187 -2.67105e-22)
(0.808473 0.399746 -9.97836e-22)
(0.793973 0.387203 1.24621e-21)
(0.777739 0.331498 -5.98142e-22)
(0.763968 0.230621 -7.1036e-22)
(0.758781 0.100971 3.87579e-22)
(0.763465 -0.035785 6.92687e-22)
(0.776603 -0.158174 -1.60949e-22)
(0.787042 -0.249438 -4.12366e-22)
(0.790074 -0.315581 -1.60472e-21)
(0.783035 -0.339266 -1.53162e-21)
(0.774422 -0.332523 -5.0364e-22)
(0.76464 -0.269564 -4.02592e-22)
(0.759778 -0.180113 -1.31029e-22)
(0.756814 -0.0570125 -3.76388e-22)
(0.759618 0.0716108 5.29084e-22)
(0.760722 0.180195 1.30791e-23)
(0.764909 0.281603 -1.62115e-22)
(0.762938 0.300806 3.24251e-22)
(0.764683 0.31803 2.43469e-22)
(0.75516 0.226977 7.25353e-23)
(0.75196 0.145479 8.72055e-22)
(0.741336 0.0142032 7.02468e-23)
(0.735866 -0.131851 -6.68732e-24)
(0.728788 -0.173706 4.64483e-22)
(0.725249 -0.300803 -5.31467e-23)
(0.7217 -0.177199 -7.12281e-23)
(0.793646 0.247368 3.48026e-22)
(0.810593 0.322513 -2.19437e-22)
(0.815651 0.37404 9.80486e-22)
(0.809328 0.40033 2.76464e-22)
(0.795087 0.388249 -3.73597e-22)
(0.778986 0.332698 1.4039e-21)
(0.76517 0.231638 2.40338e-21)
(0.759823 0.10151 -4.3395e-22)
(0.764347 -0.0357929 -1.32972e-21)
(0.777468 -0.158446 -7.60927e-22)
(0.787963 -0.249545 -1.04912e-21)
(0.790962 -0.31534 1.35099e-21)
(0.783733 -0.338835 1.46636e-21)
(0.774926 -0.332146 -7.67432e-22)
(0.765082 -0.269385 9.9135e-22)
(0.760228 -0.180164 -1.50809e-22)
(0.757321 -0.0572744 3.70543e-22)
(0.760129 0.0712858 -5.519e-22)
(0.761334 0.179882 -3.71902e-22)
(0.765696 0.281448 -2.32815e-22)
(0.763862 0.300784 -4.97005e-22)
(0.765699 0.318241 -3.98652e-22)
(0.75609 0.227357 -2.31931e-22)
(0.752867 0.145866 -2.9113e-22)
(0.742268 0.0146544 5.43931e-22)
(0.736579 -0.13153 -3.22127e-22)
(0.729567 -0.173451 2.0818e-22)
(0.725417 -0.300645 3.3687e-22)
(0.722298 -0.177143 6.29786e-23)
(0.793918 0.245624 -8.9567e-22)
(0.810999 0.321476 3.15457e-25)
(0.816286 0.373858 -1.11946e-21)
(0.810251 0.400891 -2.49442e-22)
(0.796278 0.389293 6.96746e-22)
(0.780315 0.333921 -2.43455e-21)
(0.766456 0.2327 -2.7595e-21)
(0.760947 0.102102 -2.51373e-22)
(0.765302 -0.0357544 5.66748e-22)
(0.778396 -0.158687 1.17885e-21)
(0.788946 -0.249631 7.24483e-22)
(0.791913 -0.315084 -7.60831e-22)
(0.784492 -0.338392 -3.87709e-23)
(0.775482 -0.33177 1.14676e-21)
(0.765568 -0.26922 -7.6106e-22)
(0.760718 -0.180237 -2.12932e-22)
(0.757868 -0.0575595 1.49211e-22)
(0.760686 0.0709394 6.25074e-22)
(0.761998 0.179548 7.46798e-23)
(0.766536 0.281278 4.37027e-22)
(0.764837 0.300754 8.7498e-23)
(0.766761 0.318455 2.42029e-22)
(0.757067 0.227746 -4.07383e-22)
(0.753819 0.14626 -2.69929e-22)
(0.743254 0.0151177 -8.44381e-22)
(0.737353 -0.131203 5.79701e-22)
(0.730409 -0.173182 -5.97651e-22)
(0.725644 -0.300482 -7.76649e-22)
(0.722943 -0.177097 -1.27106e-22)
(0.794238 0.243835 -4.67566e-22)
(0.811458 0.320397 -5.7348e-22)
(0.81698 0.373639 -1.1822e-21)
(0.811241 0.401428 -2.11956e-22)
(0.797543 0.390334 7.92697e-22)
(0.781724 0.335168 1.51584e-21)
(0.767826 0.233807 4.78071e-22)
(0.762152 0.102748 -1.29677e-22)
(0.76633 -0.0356687 -4.83261e-23)
(0.779387 -0.158898 -1.16263e-21)
(0.78999 -0.249698 -9.7944e-22)
(0.792928 -0.314812 1.04762e-21)
(0.785312 -0.337939 -8.454e-22)
(0.77609 -0.331395 -2.66577e-22)
(0.766097 -0.269068 3.35757e-22)
(0.761247 -0.18033 8.63511e-22)
(0.758455 -0.057868 1.44648e-22)
(0.761288 0.0705716 -7.59465e-22)
(0.762713 0.179192 -9.67468e-23)
(0.767427 0.281093 -2.94807e-22)
(0.765862 0.300717 -2.69465e-22)
(0.767869 0.318671 3.51277e-23)
(0.75809 0.228145 -2.32262e-22)
(0.754818 0.146661 4.3862e-22)
(0.744295 0.0155927 1.02548e-21)
(0.738188 -0.130868 8.33698e-22)
(0.731316 -0.1729 -8.00343e-23)
(0.725929 -0.300314 1.06904e-21)
(0.723635 -0.17706 2.76752e-23)
(0.794606 0.241998 1.52566e-21)
(0.811968 0.319276 8.75544e-22)
(0.817733 0.373383 1.534e-21)
(0.812299 0.40194 9.9203e-22)
(0.798884 0.391372 6.58237e-23)
(0.783215 0.336437 1.05588e-21)
(0.769281 0.234959 -2.02565e-22)
(0.763439 0.103448 1.08588e-22)
(0.767431 -0.0355351 1.91168e-21)
(0.780441 -0.159078 1.92856e-21)
(0.791094 -0.249746 8.12188e-22)
(0.794005 -0.314525 -3.26683e-22)
(0.786193 -0.337473 5.82122e-22)
(0.776751 -0.331019 1.17538e-22)
(0.766669 -0.26893 5.31704e-22)
(0.761813 -0.180444 -3.62226e-22)
(0.75908 -0.0581997 1.87155e-22)
(0.761934 0.0701821 1.14375e-22)
(0.763478 0.178813 -8.1673e-23)
(0.76837 0.280892 2.33456e-22)
(0.766937 0.300672 1.08034e-21)
(0.769024 0.31889 4.795e-22)
(0.75916 0.228554 -6.20203e-22)
(0.755862 0.147069 -8.89244e-22)
(0.745391 0.0160791 -2.6362e-22)
(0.739083 -0.130526 -2.61317e-21)
(0.732286 -0.172604 7.41327e-22)
(0.726273 -0.30014 -9.2693e-22)
(0.724374 -0.177033 1.2689e-22)
(0.795021 0.240115 2.2576e-22)
(0.812528 0.318111 -1.37666e-21)
(0.818542 0.373089 -1.50444e-22)
(0.813422 0.402426 -3.42099e-21)
(0.800299 0.392405 -1.41631e-21)
(0.784787 0.337728 -5.58486e-23)
(0.77082 0.236156 1.21257e-21)
(0.764809 0.104204 -2.18447e-21)
(0.768607 -0.035353 -1.75466e-21)
(0.781559 -0.159226 -7.75224e-23)
(0.792259 -0.249774 -8.36078e-22)
(0.795146 -0.314222 -1.87893e-21)
(0.787133 -0.336996 -3.03615e-22)
(0.777462 -0.330643 4.90496e-22)
(0.767283 -0.268804 -3.69981e-22)
(0.762416 -0.180579 9.78199e-23)
(0.759743 -0.0585548 -3.9473e-22)
(0.762623 0.0697708 5.79732e-22)
(0.764292 0.178412 -1.53537e-22)
(0.769363 0.280676 -7.59609e-22)
(0.768061 0.30062 -9.91731e-23)
(0.770225 0.319112 -4.7441e-22)
(0.760277 0.228972 4.31688e-22)
(0.756952 0.147483 -6.97287e-22)
(0.746541 0.0165765 -2.98004e-22)
(0.740039 -0.130178 1.60623e-21)
(0.733321 -0.172294 -1.21901e-21)
(0.726677 -0.29996 4.44655e-22)
(0.725159 -0.177015 -6.48557e-23)
(0.79548 0.238185 -3.96045e-22)
(0.813136 0.316903 1.60535e-21)
(0.819408 0.372755 8.81847e-23)
(0.81461 0.402885 7.245e-22)
(0.801786 0.393433 8.66936e-22)
(0.78644 0.33904 -2.02737e-21)
(0.772444 0.237398 1.94485e-22)
(0.766264 0.105014 8.88769e-22)
(0.769858 -0.0351217 -1.27452e-21)
(0.782741 -0.159343 -1.94642e-21)
(0.793484 -0.249784 2.27327e-21)
(0.796349 -0.313904 2.50594e-22)
(0.788134 -0.336507 -8.95812e-22)
(0.778224 -0.330266 6.63171e-23)
(0.767938 -0.26869 -5.67383e-22)
(0.763056 -0.180733 -2.80897e-22)
(0.760443 -0.0589331 1.29357e-22)
(0.763355 0.0693374 5.64259e-23)
(0.765155 0.177989 -3.13278e-23)
(0.770407 0.280444 1.11427e-21)
(0.769233 0.300561 7.40675e-23)
(0.771471 0.319337 -3.09654e-22)
(0.76144 0.229399 4.13741e-22)
(0.758087 0.147903 2.00815e-21)
(0.747744 0.0170844 -1.77397e-22)
(0.741055 -0.129823 -2.37103e-22)
(0.734419 -0.171971 3.23826e-22)
(0.727139 -0.299773 -2.83157e-22)
(0.725989 -0.177006 1.83633e-23)
(0.795983 0.236208 -4.29961e-22)
(0.813791 0.315649 -8.32454e-22)
(0.820328 0.37238 3.85605e-22)
(0.815861 0.403315 1.40489e-21)
(0.803347 0.394454 1.49822e-21)
(0.788172 0.340373 -1.26232e-22)
(0.774153 0.238683 2.43384e-21)
(0.767802 0.10588 -7.64345e-22)
(0.771184 -0.0348404 2.16817e-21)
(0.783987 -0.159427 -1.03054e-21)
(0.794768 -0.249774 -3.78687e-22)
(0.797613 -0.313571 -4.68174e-22)
(0.789195 -0.336005 1.61242e-21)
(0.779038 -0.329887 9.20524e-23)
(0.768634 -0.268587 4.78001e-22)
(0.763732 -0.180907 5.31494e-22)
(0.761179 -0.0593347 -3.389e-22)
(0.764128 0.0688818 -2.5537e-22)
(0.766064 0.177544 -3.65684e-22)
(0.771499 0.280197 -2.31216e-22)
(0.770455 0.300495 -1.56382e-21)
(0.772763 0.319564 1.28831e-21)
(0.76265 0.229836 -1.3733e-22)
(0.759266 0.148329 -1.80488e-21)
(0.749001 0.0176026 -1.0279e-21)
(0.742132 -0.129461 -3.94892e-22)
(0.735583 -0.171634 3.85461e-22)
(0.727662 -0.29958 -2.726e-22)
(0.726866 -0.177005 2.30293e-23)
(0.796527 0.234184 1.84239e-22)
(0.814492 0.31435 -3.13973e-22)
(0.821301 0.371964 1.97984e-22)
(0.817175 0.403716 -2.5975e-21)
(0.804978 0.395467 -1.50926e-21)
(0.789984 0.341725 1.24786e-21)
(0.775947 0.240013 -2.59025e-21)
(0.769424 0.106802 8.69883e-22)
(0.772587 -0.0345085 -8.80864e-22)
(0.785298 -0.159478 4.18661e-21)
(0.796112 -0.249745 -1.94042e-21)
(0.798939 -0.313223 1.93231e-21)
(0.790315 -0.335491 -1.48739e-21)
(0.779901 -0.329505 -2.80401e-22)
(0.76937 -0.268495 3.16043e-22)
(0.764443 -0.181101 -1.10316e-22)
(0.76195 -0.0597596 4.48005e-22)
(0.764943 0.0684039 -6.86071e-22)
(0.76702 0.177075 5.33052e-22)
(0.77264 0.279934 -4.48099e-22)
(0.771724 0.300421 1.86764e-21)
(0.7741 0.319794 -2.71307e-22)
(0.763906 0.230283 3.84808e-22)
(0.76049 0.148761 3.23618e-21)
(0.750312 0.0181305 1.59468e-21)
(0.743269 -0.129093 8.89709e-22)
(0.73681 -0.171284 -5.77603e-22)
(0.728244 -0.299379 5.19515e-22)
(0.727787 -0.177013 -3.39276e-23)
(0.797111 0.232112 1.20923e-21)
(0.815236 0.313005 3.67279e-22)
(0.822326 0.371506 -7.63305e-22)
(0.81855 0.404087 1.61486e-21)
(0.806681 0.396471 1.30971e-21)
(0.791874 0.343096 4.22867e-22)
(0.777826 0.241386 5.00597e-22)
(0.771131 0.10778 -6.45077e-22)
(0.774066 -0.0341253 -1.92188e-21)
(0.786673 -0.159495 -3.03238e-21)
(0.797514 -0.249696 2.69559e-22)
(0.800326 -0.31286 4.73115e-22)
(0.791495 -0.334964 -8.35148e-22)
(0.780814 -0.329121 -2.27608e-22)
(0.770145 -0.268413 -6.07163e-22)
(0.765189 -0.181313 -7.11061e-22)
(0.762756 -0.0602077 -1.04712e-21)
(0.765798 0.0679035 6.98215e-22)
(0.768022 0.176585 -8.56081e-22)
(0.773828 0.279655 -3.09297e-22)
(0.773041 0.30034 1.02004e-22)
(0.775482 0.320026 -1.27525e-21)
(0.765208 0.230739 4.51792e-22)
(0.761758 0.149198 -2.90441e-21)
(0.751675 0.0186679 -1.27768e-21)
(0.744465 -0.12872 3.92577e-22)
(0.738102 -0.17092 1.52331e-21)
(0.728886 -0.299171 -7.02399e-22)
(0.728754 -0.177029 7.03589e-23)
(0.797734 0.229994 -5.23785e-22)
(0.816023 0.311612 -4.43889e-22)
(0.823401 0.371003 3.57831e-22)
(0.819985 0.404426 -1.15291e-21)
(0.808452 0.397465 -1.67754e-21)
(0.793843 0.344485 -3.98825e-22)
(0.779788 0.242802 1.08869e-21)
(0.772923 0.108814 -7.5621e-22)
(0.775623 -0.03369 2.3437e-21)
(0.788114 -0.159479 3.48614e-21)
(0.798974 -0.249629 1.11278e-21)
(0.801772 -0.312484 -5.99161e-22)
(0.792734 -0.334424 9.41483e-22)
(0.781777 -0.328733 9.62368e-23)
(0.77096 -0.268341 -2.01299e-22)
(0.765968 -0.181544 5.0107e-22)
(0.763595 -0.0606789 3.01187e-22)
(0.766692 0.0673806 6.72594e-22)
(0.769068 0.176071 6.974e-22)
(0.775063 0.279361 3.37259e-22)
(0.774404 0.300252 -9.98487e-22)
(0.776908 0.320261 1.59756e-21)
(0.766556 0.231204 3.34828e-23)
(0.76307 0.14964 2.02723e-21)
(0.753091 0.0192143 2.86265e-22)
(0.745722 -0.128341 -2.51099e-21)
(0.739459 -0.170543 -8.61863e-22)
(0.729589 -0.298955 1.30001e-21)
(0.729765 -0.177052 -3.53988e-23)
(0.798392 0.227828 9.36298e-22)
(0.816851 0.310171 4.83449e-22)
(0.824524 0.370456 -1.31053e-21)
(0.821477 0.404731 1.19977e-21)
(0.810291 0.398448 2.79491e-22)
(0.795888 0.34589 -2.20301e-21)
(0.781834 0.24426 2.9751e-21)
(0.7748 0.109905 -1.59677e-21)
(0.777257 -0.0332021 -5.18596e-22)
(0.789619 -0.159428 -2.37961e-21)
(0.800492 -0.249543 -2.99904e-21)
(0.803278 -0.312093 2.5789e-22)
(0.794031 -0.333871 4.52078e-23)
(0.782788 -0.328341 7.23846e-22)
(0.771812 -0.268278 1.65212e-22)
(0.766781 -0.181794 -8.73536e-22)
(0.764468 -0.0611733 9.27308e-22)
(0.767625 0.0668349 -2.18046e-22)
(0.770158 0.175534 4.44583e-22)
(0.776344 0.279051 -3.54828e-22)
(0.775814 0.300156 7.50105e-22)
(0.778378 0.320498 -1.53517e-21)
(0.76795 0.231678 -8.37103e-22)
(0.764426 0.150088 -1.85391e-21)
(0.754558 0.0197693 4.85997e-22)
(0.747038 -0.127957 2.31688e-21)
(0.740879 -0.170152 3.34837e-22)
(0.730352 -0.29873 1.088e-22)
(0.73082 -0.177082 1.61277e-23)
(0.799086 0.225614 -1.07245e-21)
(0.817717 0.308683 -1.08861e-21)
(0.825695 0.369863 9.47195e-22)
(0.823027 0.405003 1.10376e-21)
(0.812197 0.399419 4.44854e-22)
(0.79801 0.347311 8.84099e-22)
(0.783963 0.24576 -1.35769e-21)
(0.776762 0.111052 1.60053e-21)
(0.778969 -0.0326609 -4.04338e-23)
(0.79119 -0.159342 9.91823e-22)
(0.802067 -0.249438 1.22429e-21)
(0.804843 -0.311688 -1.11755e-21)
(0.795387 -0.333305 6.99291e-22)
(0.783849 -0.327943 -1.10312e-21)
(0.772703 -0.268224 -2.47098e-22)
(0.767626 -0.182061 1.71002e-21)
(0.765372 -0.0616906 -6.42597e-22)
(0.768595 0.0662663 -5.30347e-22)
(0.771291 0.174975 -6.82203e-22)
(0.77767 0.278725 8.34947e-22)
(0.77727 0.300054 -1.13349e-21)
(0.779893 0.320737 6.26192e-22)
(0.769389 0.232161 -8.11085e-22)
(0.765826 0.150541 1.59148e-21)
(0.756078 0.0203326 -1.00591e-21)
(0.748413 -0.127568 2.54293e-22)
(0.742364 -0.169748 -5.60017e-22)
(0.731177 -0.298497 -1.01233e-21)
(0.731919 -0.17712 -9.84817e-23)
(0.799813 0.223353 1.76721e-21)
(0.818621 0.307144 1.02225e-21)
(0.826911 0.369223 3.68104e-22)
(0.824631 0.405239 1.34091e-21)
(0.814169 0.400375 -1.54382e-21)
(0.800207 0.348746 -2.45038e-21)
(0.786175 0.247302 -1.54712e-22)
(0.778808 0.112255 2.56995e-21)
(0.780759 -0.0320657 2.15236e-21)
(0.792826 -0.15922 -9.9363e-22)
(0.803699 -0.249314 7.56264e-22)
(0.806466 -0.311269 1.43365e-22)
(0.796801 -0.332725 -1.09368e-21)
(0.784958 -0.327541 2.97595e-22)
(0.77363 -0.268177 8.91974e-22)
(0.768503 -0.182346 -1.2468e-21)
(0.766307 -0.0622308 4.98026e-22)
(0.769601 0.0656748 -2.29328e-22)
(0.772466 0.174392 -2.8582e-22)
(0.779041 0.278384 -3.49716e-22)
(0.778772 0.299944 8.55261e-22)
(0.781451 0.320979 5.81423e-22)
(0.770874 0.232653 1.66645e-21)
(0.767268 0.150998 1.51295e-22)
(0.757649 0.0209037 2.17084e-21)
(0.749847 -0.127174 -5.03148e-22)
(0.743914 -0.169331 1.12393e-21)
(0.732062 -0.298254 -4.21933e-22)
(0.733062 -0.177163 2.31408e-23)
(0.800571 0.221045 -4.0392e-22)
(0.81956 0.305557 -4.40776e-22)
(0.828171 0.368535 -4.52909e-22)
(0.826289 0.405438 4.16765e-22)
(0.816204 0.401317 8.887e-22)
(0.802477 0.350195 -9.00982e-22)
(0.788468 0.248883 -3.23079e-21)
(0.78094 0.113514 -2.56506e-21)
(0.782628 -0.031416 -3.29136e-21)
(0.794527 -0.159062 -6.70421e-22)
(0.805387 -0.24917 -1.11477e-21)
(0.808146 -0.310837 2.75253e-22)
(0.798272 -0.332132 2.08889e-21)
(0.786115 -0.327132 6.42942e-22)
(0.774593 -0.268137 -8.76185e-22)
(0.769411 -0.182649 1.73879e-23)
(0.767273 -0.0627937 -4.35407e-22)
(0.770644 0.0650603 8.38594e-22)
(0.773681 0.173787 4.65898e-22)
(0.780455 0.278026 5.0308e-22)
(0.780318 0.299826 5.45113e-22)
(0.783052 0.321223 -1.17792e-21)
(0.772405 0.233155 -1.03845e-22)
(0.768753 0.15146 -2.25871e-21)
(0.75927 0.0214822 -2.69306e-21)
(0.75134 -0.126776 -1.39338e-22)
(0.745527 -0.1689 -2.63586e-22)
(0.733009 -0.298002 9.53498e-22)
(0.734248 -0.177213 7.61704e-24)
(0.801359 0.218689 3.93655e-23)
(0.820532 0.303918 8.65494e-22)
(0.829472 0.367798 9.49578e-22)
(0.827999 0.4056 -9.62353e-23)
(0.818301 0.402243 2.22606e-21)
(0.804821 0.351656 2.08116e-22)
(0.790842 0.250504 4.95731e-21)
(0.783155 0.11483 6.19695e-22)
(0.784576 -0.030711 2.13293e-22)
(0.796294 -0.158866 3.49054e-21)
(0.807131 -0.249007 2.54536e-21)
(0.809883 -0.310391 -5.90113e-22)
(0.7998 -0.331524 -2.54025e-21)
(0.78732 -0.326717 -1.32398e-21)
(0.775592 -0.268104 -5.75873e-22)
(0.770349 -0.182967 -6.06672e-22)
(0.768268 -0.0633793 3.94917e-23)
(0.771721 0.0644227 1.52736e-22)
(0.774937 0.173158 -1.64741e-23)
(0.781912 0.277652 -5.18356e-23)
(0.781909 0.299702 -7.10887e-22)
(0.784696 0.321469 1.00463e-21)
(0.773981 0.233665 1.554e-21)
(0.770281 0.151926 1.33702e-22)
(0.760942 0.0220677 2.17853e-21)
(0.752891 -0.126374 -3.28056e-22)
(0.747204 -0.168456 3.68041e-22)
(0.734017 -0.29774 1.56142e-22)
(0.735476 -0.177269 7.50389e-23)
(0.802174 0.216286 -2.48444e-22)
(0.821537 0.302229 -1.6027e-22)
(0.830813 0.367012 1.90922e-22)
(0.829758 0.405722 4.66118e-22)
(0.82046 0.403151 1.01307e-21)
(0.807235 0.353128 3.95439e-23)
(0.793295 0.252164 -5.38586e-22)
(0.785454 0.116202 1.63435e-21)
(0.786602 -0.0299504 -7.87296e-22)
(0.798127 -0.158633 -3.7431e-21)
(0.808929 -0.248824 -2.5337e-21)
(0.811675 -0.309933 7.35839e-22)
(0.801385 -0.330903 8.34118e-22)
(0.788572 -0.326294 2.87905e-21)
(0.776626 -0.268076 9.83646e-22)
(0.771318 -0.183303 -1.23835e-22)
(0.769292 -0.0639874 -2.28523e-22)
(0.772832 0.0637619 -7.83931e-22)
(0.776231 0.172506 -1.6315e-22)
(0.78341 0.277263 -1.01165e-21)
(0.783544 0.29957 4.24025e-22)
(0.786382 0.321716 6.27568e-22)
(0.775602 0.234183 -1.62334e-21)
(0.771851 0.152397 2.1007e-21)
(0.762663 0.0226598 1.00226e-21)
(0.7545 -0.125968 2.08212e-21)
(0.748945 -0.168 -7.57392e-22)
(0.735088 -0.297468 -5.03884e-22)
(0.736748 -0.17733 4.34239e-23)
(0.803016 0.213835 1.1781e-21)
(0.822571 0.300488 -7.3696e-22)
(0.832192 0.366174 -3.35339e-22)
(0.831566 0.405804 9.04751e-23)
(0.822677 0.40404 -2.07655e-21)
(0.809719 0.35461 3.91434e-22)
(0.795827 0.253862 -3.21037e-21)
(0.787836 0.11763 -7.45232e-22)
(0.788706 -0.0291336 -3.31213e-21)
(0.800026 -0.158361 2.20949e-21)
(0.810782 -0.248621 8.09658e-22)
(0.813521 -0.309461 -1.52585e-21)
(0.803025 -0.330268 -9.48628e-22)
(0.789872 -0.325863 -6.23689e-22)
(0.777695 -0.268054 -3.20312e-22)
(0.772315 -0.183654 -1.93172e-22)
(0.770343 -0.0646179 3.19552e-23)
(0.773976 0.0630779 4.30496e-23)
(0.777563 0.17183 1.77419e-22)
(0.784949 0.276857 1.17949e-21)
(0.785223 0.29943 1.9067e-22)
(0.788111 0.321966 -1.6877e-21)
(0.777269 0.234711 1.28994e-22)
(0.773463 0.152872 -2.52835e-21)
(0.764434 0.0232582 -6.89425e-22)
(0.756167 -0.125559 -2.60063e-21)
(0.750749 -0.16753 -1.22288e-21)
(0.73622 -0.297185 -6.51994e-22)
(0.738061 -0.177396 -6.2997e-23)
(0.803881 0.211338 -9.49555e-22)
(0.823633 0.298696 1.78125e-21)
(0.833607 0.365285 -4.55977e-22)
(0.833419 0.405845 1.38693e-21)
(0.824951 0.404909 -3.26188e-22)
(0.812272 0.3561 1.62775e-21)
(0.798436 0.255597 1.63224e-21)
(0.790301 0.119113 2.47241e-21)
(0.79089 -0.02826 1.34382e-21)
(0.801991 -0.158049 1.54415e-21)
(0.812689 -0.248399 1.73039e-22)
(0.815421 -0.308977 1.92925e-21)
(0.804721 -0.329619 9.38954e-22)
(0.791218 -0.325423 -1.06491e-21)
(0.778797 -0.268036 -3.83137e-22)
(0.773341 -0.18402 3.38212e-22)
(0.771422 -0.0652705 1.35528e-22)
(0.775152 0.0623706 4.25047e-22)
(0.778931 0.171131 -3.90316e-22)
(0.786529 0.276434 -3.29937e-22)
(0.786944 0.299283 -8.97443e-23)
(0.789881 0.322217 1.0263e-21)
(0.77898 0.235247 -4.04544e-22)
(0.775117 0.153351 3.56786e-22)
(0.766253 0.0238624 -3.74028e-21)
(0.757891 -0.125147 -9.19261e-22)
(0.752616 -0.167048 9.91548e-22)
(0.737414 -0.29689 4.83297e-22)
(0.739416 -0.177467 -1.81431e-23)
(0.804769 0.208794 -1.25989e-21)
(0.824722 0.29685 -1.24249e-21)
(0.835057 0.364343 -7.35088e-22)
(0.835316 0.405844 -1.92696e-21)
(0.82728 0.405756 1.17055e-21)
(0.814891 0.357597 -2.13182e-21)
(0.801121 0.257367 4.68148e-22)
(0.792848 0.120652 1.55127e-22)
(0.793152 -0.0273292 6.99553e-22)
(0.804021 -0.157697 -6.20583e-23)
(0.814649 -0.248156 3.95545e-22)
(0.817374 -0.308481 3.56145e-22)
(0.806471 -0.328955 -2.81665e-21)
(0.792612 -0.324974 5.92089e-22)
(0.779932 -0.268021 8.47071e-23)
(0.774395 -0.184401 7.87034e-22)
(0.772527 -0.065945 3.90641e-22)
(0.776359 0.0616401 -1.01824e-22)
(0.780336 0.170409 3.07059e-22)
(0.788147 0.275995 2.62075e-22)
(0.788708 0.299128 -3.50449e-22)
(0.791693 0.322469 -8.44324e-22)
(0.780735 0.235791 5.69694e-22)
(0.776813 0.153834 2.33075e-21)
(0.76812 0.024472 1.49014e-21)