/*--------------------------------*- C++ -*----------------------------------*\
  =========                 |
  \\      /  F ield         | OpenFOAM: The Open Source CFD Toolbox
   \\    /   O peration     | Website:  https://openfoam.org
    \\  /    A nd           | Version:  7
     \\/     M anipulation  |
\*---------------------------------------------------------------------------*/
FoamFile
{
    version     2.0;
    format      ascii;
    class       volScalarField;
    location    "100";
    object      p;
}
// * * * * * * * * * * * * * * * * * * * * * * * * * * * * * * * * * * * * * //

dimensions      [0 2 -2 0 0 0 0];

internalField   nonuniform List<scalar> 
4575
(
-0.3881
-0.390004
-0.391044
-0.392259
-0.394148
-0.395199
-0.396516
-0.398375
-0.39943
-0.400863
-0.402677
-0.403729
-0.405291
-0.407043
-0.408084
-0.409786
-0.411462
-0.412483
-0.414337
-0.41592
-0.416913
-0.418929
-0.420405
-0.421362
-0.423548
-0.424902
-0.425815
-0.426743
-0.428176
-0.429396
-0.430256
-0.431164
-0.432799
-0.433872
-0.434671
-0.435552
-0.437398
-0.438314
-0.439044
-0.439891
-0.441958
-0.442707
-0.443362
-0.444166
-0.446462
-0.447036
-0.44761
-0.448363
-0.450893
-0.451287
-0.451773
-0.452468
-0.455236
-0.455447
-0.45584
-0.45647
-0.459476
-0.459502
-0.459798
-0.460356
-0.461249
-0.463599
-0.463441
-0.463636
-0.464116
-0.464949
-0.467595
-0.467254
-0.467346
-0.467741
-0.468506
-0.471452
-0.470934
-0.47092
-0.471225
-0.471912
-0.475161
-0.474472
-0.474352
-0.474562
-0.475163
-0.47624
-0.478716
-0.477865
-0.477639
-0.47775
-0.478256
-0.479245
-0.482113
-0.48111
-0.480779
-0.480786
-0.48119
-0.482079
-0.485348
-0.484206
-0.483771
-0.483672
-0.483965
-0.484743
-0.488423
-0.487154
-0.486619
-0.486411
-0.486587
-0.487242
-0.48844
-0.491339
-0.489958
-0.489325
-0.489007
-0.489059
-0.489581
-0.49064
-0.494102
-0.492623
-0.491897
-0.491467
-0.491391
-0.49177
-0.492675
-0.496718
-0.495158
-0.494343
-0.4938
-0.49359
-0.493817
-0.494556
-0.495869
-0.499198
-0.497571
-0.496671
-0.496016
-0.495668
-0.495735
-0.496298
-0.497423
-0.501552
-0.499875
-0.498895
-0.498128
-0.497638
-0.497538
-0.497915
-0.498839
-0.503796
-0.502083
-0.501027
-0.500148
-0.499514
-0.499242
-0.499423
-0.500136
-0.501433
-0.505945
-0.504209
-0.503082
-0.502092
-0.501311
-0.500863
-0.500843
-0.501336
-0.5024
-0.508017
-0.50627
-0.505075
-0.503975
-0.503048
-0.502419
-0.502192
-0.502458
-0.503283
-0.504695
-0.510034
-0.508284
-0.507024
-0.505816
-0.50474
-0.503929
-0.503492
-0.503527
-0.504105
-0.505261
-0.512014
-0.510269
-0.508947
-0.50763
-0.506406
-0.505412
-0.504764
-0.504565
-0.504893
-0.505788
-0.513981
-0.512245
-0.510862
-0.509437
-0.508066
-0.506889
-0.506028
-0.505595
-0.505671
-0.506301
-0.507484
-0.515958
-0.514231
-0.512788
-0.511256
-0.509737
-0.508378
-0.507307
-0.50664
-0.506465
-0.506829
-0.507733
-0.517968
-0.516249
-0.514743
-0.513103
-0.511438
-0.5099
-0.50862
-0.507722
-0.507297
-0.507396
-0.508018
-0.509105
-0.520035
-0.518317
-0.516747
-0.514999
-0.513189
-0.511473
-0.509988
-0.508862
-0.50819
-0.508024
-0.508363
-0.509143
-0.52218
-0.520456
-0.518817
-0.51696
-0.515005
-0.513115
-0.51143
-0.51008
-0.509164
-0.508734
-0.508786
-0.509252
-0.509989
-0.524426
-0.522684
-0.520972
-0.519003
-0.516905
-0.514843
-0.512961
-0.511393
-0.510236
-0.509543
-0.509306
-0.509448
-0.509818
-0.526794
-0.525019
-0.523228
-0.521145
-0.518903
-0.516672
-0.514598
-0.512816
-0.511422
-0.510465
-0.509932
-0.50974
-0.509724
-0.509648
-0.529303
-0.527477
-0.5256
-0.523399
-0.521014
-0.518617
-0.516355
-0.514361
-0.512732
-0.51151
-0.510676
-0.510133
-0.509709
-0.509155
-0.508151
-0.531969
-0.530073
-0.528101
-0.525779
-0.52325
-0.520688
-0.518241
-0.51604
-0.514176
-0.512687
-0.51154
-0.51063
-0.509771
-0.508706
-0.50711
-0.534809
-0.532821
-0.530746
-0.528297
-0.525622
-0.522897
-0.520267
-0.51786
-0.515761
-0.513997
-0.512526
-0.511229
-0.509906
-0.508291
-0.506061
-0.502939
-0.537833
-0.535732
-0.533543
-0.530962
-0.52814
-0.525251
-0.52244
-0.519827
-0.517489
-0.515443
-0.513632
-0.511923
-0.510105
-0.507901
-0.504993
-0.501111
-0.495836
-0.541054
-0.538816
-0.536502
-0.533783
-0.53081
-0.527757
-0.524764
-0.521943
-0.519361
-0.517021
-0.514852
-0.512706
-0.510356
-0.507526
-0.503898
-0.499216
-0.493104
-0.544479
-0.542081
-0.539631
-0.536767
-0.533638
-0.53042
-0.527242
-0.52421
-0.521376
-0.518728
-0.516179
-0.513565
-0.51065
-0.507152
-0.502768
-0.497256
-0.490285
-0.482206
-0.548114
-0.545532
-0.542936
-0.539919
-0.53663
-0.533242
-0.529877
-0.526627
-0.52353
-0.520557
-0.517603
-0.514489
-0.510971
-0.506769
-0.501595
-0.49523
-0.487394
-0.478398
-0.466835
-0.551963
-0.549174
-0.54642
-0.543242
-0.539788
-0.536226
-0.532668
-0.529191
-0.525818
-0.522499
-0.519113
-0.515464
-0.511305
-0.506364
-0.500372
-0.493142
-0.484444
-0.474569
-0.46233
-0.451634
-0.556027
-0.553009
-0.550086
-0.546741
-0.543115
-0.539373
-0.535614
-0.5319
-0.528233
-0.524545
-0.520694
-0.516476
-0.51164
-0.505926
-0.499095
-0.490995
-0.481449
-0.470739
-0.457875
-0.446273
-0.560307
-0.55704
-0.553937
-0.550415
-0.546611
-0.542682
-0.538714
-0.534748
-0.530768
-0.526683
-0.522335
-0.517509
-0.511959
-0.505444
-0.497759
-0.48879
-0.478418
-0.466923
-0.453484
-0.441116
-0.564802
-0.561265
-0.557973
-0.554267
-0.550277
-0.546153
-0.541963
-0.53773
-0.533413
-0.528901
-0.524019
-0.518547
-0.512249
-0.504907
-0.496358
-0.48653
-0.475359
-0.46313
-0.449163
-0.436144
-0.569507
-0.565683
-0.562193
-0.558294
-0.554111
-0.549782
-0.545358
-0.540838
-0.536157
-0.531185
-0.525731
-0.519575
-0.512495
-0.504307
-0.494889
-0.484216
-0.472278
-0.459363
-0.444914
-0.43134
-0.574419
-0.570292
-0.566594
-0.562496
-0.558111
-0.553567
-0.548892
-0.544063
-0.53899
-0.53352
-0.527454
-0.520575
-0.512684
-0.503633
-0.493347
-0.48185
-0.469177
-0.455625
-0.440734
-0.426683
-0.579532
-0.575088
-0.571175
-0.56687
-0.562274
-0.557503
-0.552561
-0.547397
-0.541897
-0.53589
-0.529171
-0.521532
-0.512802
-0.502876
-0.49173
-0.47943
-0.466059
-0.451913
-0.436618
-0.422151
-0.584839
-0.580065
-0.575931
-0.571413
-0.566597
-0.561585
-0.556354
-0.550827
-0.544865
-0.538279
-0.530864
-0.522429
-0.512837
-0.50203
-0.490034
-0.476957
-0.462922
-0.448225
-0.432557
-0.417725
-0.590332
-0.585216
-0.580856
-0.576118
-0.571074
-0.565806
-0.560264
-0.554342
-0.547876
-0.540668
-0.532515
-0.52325
-0.512776
-0.501086
-0.488253
-0.474429
-0.459764
-0.444553
-0.428542
-0.413384
-0.596001
-0.590535
-0.585944
-0.580981
-0.575697
-0.570156
-0.564277
-0.557925
-0.550914
-0.543038
-0.534105
-0.523978
-0.512608
-0.500035
-0.486385
-0.471841
-0.456581
-0.440891
-0.424562
-0.409109
-0.601834
-0.596012
-0.591186
-0.585992
-0.580458
-0.574625
-0.56838
-0.56156
-0.553959
-0.545368
-0.535614
-0.524598
-0.512319
-0.498872
-0.484425
-0.469191
-0.453368
-0.437231
-0.420607
-0.404884
-0.607819
-0.601635
-0.596572
-0.591142
-0.585347
-0.579201
-0.572558
-0.565228
-0.556989
-0.547638
-0.537024
-0.525095
-0.5119
-0.497588
-0.482366
-0.466473
-0.450118
-0.433563
-0.416665
-0.400692
-0.613941
-0.607392
-0.602091
-0.596419
-0.590349
-0.583867
-0.576792
-0.568908
-0.559983
-0.549824
-0.538315
-0.525452
-0.51134
-0.496176
-0.480205
-0.463681
-0.446825
-0.429878
-0.412723
-0.396515
-0.620184
-0.613268
-0.607728
-0.601809
-0.595449
-0.588605
-0.581062
-0.572576
-0.562916
-0.551904
-0.539467
-0.525654
-0.510627
-0.494628
-0.477933
-0.46081
-0.44348
-0.426165
-0.408769
-0.39234
-0.626529
-0.619246
-0.613467
-0.607295
-0.600631
-0.593397
-0.585343
-0.576209
-0.565763
-0.553856
-0.540462
-0.525688
-0.509751
-0.492937
-0.475546
-0.457852
-0.440073
-0.422414
-0.404791
-0.388152
-0.632954
-0.625308
-0.619291
-0.612859
-0.605872
-0.598218
-0.589612
-0.579779
-0.568498
-0.555655
-0.541279
-0.525537
-0.508702
-0.491094
-0.473034
-0.454797
-0.436597
-0.418612
-0.400776
-0.383938
-0.639437
-0.631431
-0.625177
-0.61848
-0.611151
-0.603042
-0.593839
-0.583257
-0.571093
-0.557277
-0.5419
-0.525189
-0.507469
-0.489092
-0.47039
-0.451639
-0.43304
-0.41475
-0.396713
-0.379684
-0.645952
-0.637593
-0.631104
-0.624132
-0.616441
-0.607843
-0.597996
-0.586613
-0.57352
-0.5587
-0.542306
-0.524629
-0.506041
-0.48692
-0.467606
-0.448367
-0.429392
-0.410814
-0.39259
-0.375379
-0.652471
-0.643766
-0.637045
-0.62979
-0.621712
-0.612588
-0.602049
-0.589817
-0.575752
-0.559898
-0.542478
-0.523844
-0.504407
-0.48457
-0.464673
-0.444972
-0.425643
-0.406795
-0.388394
-0.371009
-0.635425
-0.626936
-0.617244
-0.605966
-0.592834
-0.577759
-0.560849
-0.542398
-0.522819
-0.502558
-0.482033
-0.46158
-0.441444
-0.421782
-0.402681
-0.384115
-0.366564
-0.621778
-0.609711
-0.595634
-0.579512
-0.561529
-0.54205
-0.52154
-0.500482
-0.479298
-0.458319
-0.437772
-0.417797
-0.398459
-0.37974
-0.362033
-0.580985
-0.561917
-0.541415
-0.519996
-0.498167
-0.476355
-0.454878
-0.433945
-0.413677
-0.39412
-0.375258
-0.357404
-0.495604
-0.473194
-0.451248
-0.429954
-0.409413
-0.389652
-0.37066
-0.352669
-0.425786
-0.404992
-0.385044
-0.365934
-0.347816
-0.342836
-0.21759
-0.279272
-0.263602
-0.248629
-0.234366
-0.220967
-0.347147
-0.330578
-0.313955
-0.297565
-0.281615
-0.266238
-0.2515
-0.237414
-0.224194
-0.390327
-0.376995
-0.362501
-0.347143
-0.331276
-0.315241
-0.299332
-0.283768
-0.268698
-0.254209
-0.240308
-0.227274
-0.417343
-0.408591
-0.398708
-0.387544
-0.375082
-0.361449
-0.346896
-0.33174
-0.31631
-0.300899
-0.285738
-0.270989
-0.25676
-0.243055
-0.230213
-0.426784
-0.419855
-0.412408
-0.404195
-0.394979
-0.384588
-0.372962
-0.360173
-0.34642
-0.331984
-0.317172
-0.302275
-0.287532
-0.273119
-0.25916
-0.24566
-0.233018
-0.440927
-0.433352
-0.427421
-0.421174
-0.414539
-0.407473
-0.399753
-0.391155
-0.381491
-0.370663
-0.358694
-0.345732
-0.332018
-0.317836
-0.303468
-0.289157
-0.275093
-0.261416
-0.24813
-0.235692
-0.434563
-0.42735
-0.421647
-0.415636
-0.40928
-0.402565
-0.3953
-0.387271
-0.378284
-0.368211
-0.357033
-0.344848
-0.331855
-0.31831
-0.304484
-0.290621
-0.276917
-0.263535
-0.250469
-0.238243
-0.42829
-0.421443
-0.415971
-0.410193
-0.404103
-0.397714
-0.390863
-0.383355
-0.374995
-0.365634
-0.355213
-0.343785
-0.331508
-0.318605
-0.305331
-0.291928
-0.278598
-0.26552
-0.252684
-0.240674
-0.422127
-0.415648
-0.41041
-0.404863
-0.399028
-0.392941
-0.38647
-0.379438
-0.371654
-0.362957
-0.353255
-0.342561
-0.330988
-0.318728
-0.306014
-0.293083
-0.280139
-0.267377
-0.25478
-0.242991
-0.416094
-0.409983
-0.404981
-0.399664
-0.394075
-0.38827
-0.382145
-0.375546
-0.368289
-0.360206
-0.351182
-0.341192
-0.330308
-0.318688
-0.306541
-0.294093
-0.281547
-0.269112
-0.256761
-0.245201
-0.410207
-0.404462
-0.399698
-0.394609
-0.389258
-0.383719
-0.377911
-0.371703
-0.364926
-0.357407
-0.349016
-0.339696
-0.329481
-0.318493
-0.306915
-0.29496
-0.282823
-0.270727
-0.258632
-0.247308
-0.40448
-0.399096
-0.394571
-0.38971
-0.384592
-0.379302
-0.373786
-0.367932
-0.361588
-0.354585
-0.34678
-0.338092
-0.328521
-0.318154
-0.307144
-0.295688
-0.283971
-0.272226
-0.260395
-0.249318
-0.398922
-0.393895
-0.389609
-0.384977
-0.380085
-0.375033
-0.369785
-0.364252
-0.358297
-0.35176
-0.344494
-0.336396
-0.32744
-0.317677
-0.307232
-0.29628
-0.284994
-0.273611
-0.262056
-0.251238
-0.393543
-0.388867
-0.38482
-0.380415
-0.375747
-0.370922
-0.365922
-0.360679
-0.355072
-0.348955
-0.342178
-0.334628
-0.326252
-0.317072
-0.307184
-0.296738
-0.285892
-0.274885
-0.263615
-0.253073
-0.388348
-0.384016
-0.380208
-0.376029
-0.371582
-0.366975
-0.362207
-0.357226
-0.351931
-0.346187
-0.339852
-0.332803
-0.32497
-0.316348
-0.307003
-0.297064
-0.286665
-0.276048
-0.265075
-0.254833
-0.383342
-0.379347
-0.375775
-0.371822
-0.367593
-0.363198
-0.358647
-0.353904
-0.348887
-0.343475
-0.337533
-0.330939
-0.323608
-0.315514
-0.306696
-0.297259
-0.287313
-0.277101
-0.266436
-0.256523
-0.378528
-0.37486
-0.371522
-0.367795
-0.363781
-0.359591
-0.355245
-0.350721
-0.345951
-0.340831
-0.335238
-0.329051
-0.322179
-0.31458
-0.306267
-0.297324
-0.287836
-0.278043
-0.267699
-0.258154
-0.373904
-0.370557
-0.36745
-0.363947
-0.360146
-0.356157
-0.352005
-0.347681
-0.343131
-0.338267
-0.332979
-0.327154
-0.320697
-0.313554
-0.305721
-0.297259
-0.28823
-0.278871
-0.268863
-0.259736
-0.369472
-0.366435
-0.363557
-0.360275
-0.356685
-0.352891
-0.348926
-0.344786
-0.340433
-0.335793
-0.33077
-0.325261
-0.319173
-0.312446
-0.305063
-0.297067
-0.288493
-0.279583
-0.269925
-0.261278
-0.365228
-0.362494
-0.35984
-0.356776
-0.353394
-0.349792
-0.346005
-0.342037
-0.33786
-0.333415
-0.328619
-0.323383
-0.317619
-0.311267
-0.304299
-0.296746
-0.288621
-0.280175
-0.270879
-0.262794
-0.361171
-0.358731
-0.356296
-0.353447
-0.350269
-0.346855
-0.343239
-0.339431
-0.335412
-0.331136
-0.326535
-0.32153
-0.316046
-0.310024
-0.303434
-0.296298
-0.28861
-0.280641
-0.27172
-0.264294
-0.357295
-0.355142
-0.352922
-0.350283
-0.347306
-0.344073
-0.340622
-0.336964
-0.333088
-0.328959
-0.324521
-0.319712
-0.314465
-0.308729
-0.302474
-0.295725
-0.288455
-0.280973
-0.272437
-0.265789
-0.353599
-0.351724
-0.349713
-0.34728
-0.344497
-0.341441
-0.338148
-0.334631
-0.330884
-0.326882
-0.322583
-0.317934
-0.312884
-0.30739
-0.301428
-0.295028
-0.288151
-0.281162
-0.273017
-0.267289
-0.350079
-0.348474
-0.346667
-0.344432
-0.341838
-0.338953
-0.335811
-0.332426
-0.328797
-0.324905
-0.32072
-0.316201
-0.31131
-0.306016
-0.300302
-0.29421
-0.287694
-0.281196
-0.273442
-0.268797
-0.346732
-0.34539
-0.343779
-0.341736
-0.339324
-0.336603
-0.333604
-0.330343
-0.326821
-0.323024
-0.318933
-0.314518
-0.309752
-0.304616
-0.299104
-0.293274
-0.287077
-0.281059
-0.273688
-0.343557
-0.34247
-0.341047
-0.339188
-0.33695
-0.334385
-0.331522
-0.328376
-0.32495
-0.321237
-0.317222
-0.312887
-0.308215
-0.303199
-0.297844
-0.292226
-0.286299
-0.280732
-0.340552
-0.339711
-0.338469
-0.336785
-0.334712
-0.332295
-0.32956
-0.32652
-0.323181
-0.319539
-0.315585
-0.31131
-0.306705
-0.301774
-0.296533
-0.291073
-0.285356
-0.337717
-0.337115
-0.336044
-0.334526
-0.332609
-0.33033
-0.327713
-0.324772
-0.32151
-0.317928
-0.314023
-0.30979
-0.305229
-0.300351
-0.295181
-0.289826
-0.284249
-0.335054
-0.33468
-0.333772
-0.33241
-0.330638
-0.328487
-0.32598
-0.323127
-0.319935
-0.316404
-0.312535
-0.308329
-0.303793
-0.298941
-0.293804
-0.288497
-0.332565
-0.332408
-0.331654
-0.330437
-0.3288
-0.326768
-0.32436
-0.321587
-0.318454
-0.314965
-0.311123
-0.306933
-0.302404
-0.297556
-0.292417
-0.330252
-0.330302
-0.329691
-0.328608
-0.327096
-0.325171
-0.322854
-0.320152
-0.317071
-0.313616
-0.309791
-0.305606
-0.301072
-0.296207
-0.29104
-0.328122
-0.328364
-0.327885
-0.326927
-0.325528
-0.323701
-0.321464
-0.318825
-0.315788
-0.312359
-0.308545
-0.304356
-0.299806
-0.294911
-0.326177
-0.326598
-0.326241
-0.325396
-0.324099
-0.322361
-0.320196
-0.317611
-0.314611
-0.311202
-0.307392
-0.303193
-0.298619
-0.324422
-0.325006
-0.32476
-0.324017
-0.322814
-0.321156
-0.319054
-0.316517
-0.313547
-0.310152
-0.306341
-0.302127
-0.297523
-0.322863
-0.323593
-0.323446
-0.322796
-0.321677
-0.320089
-0.318045
-0.315549
-0.312605
-0.30922
-0.305404
-0.30117
-0.321503
-0.322362
-0.322303
-0.321736
-0.320692
-0.319168
-0.317175
-0.314716
-0.311794
-0.308415
-0.304592
-0.300338
-0.320346
-0.321315
-0.321334
-0.32084
-0.319863
-0.318397
-0.31645
-0.314025
-0.311122
-0.30775
-0.303919
-0.319393
-0.320455
-0.320541
-0.320112
-0.319195
-0.317782
-0.315878
-0.313483
-0.3106
-0.307234
-0.303396
-0.318648
-0.319783
-0.319926
-0.319554
-0.318691
-0.317326
-0.315462
-0.313099
-0.310236
-0.306878
-0.318108
-0.3193
-0.31949
-0.319167
-0.318353
-0.317033
-0.315208
-0.312877
-0.310036
-0.30669
-0.317773
-0.319004
-0.319233
-0.318952
-0.318182
-0.316905
-0.31512
-0.312821
-0.310006
-0.31764
-0.318895
-0.319153
-0.318909
-0.31818
-0.316943
-0.315197
-0.312935
-0.31015
-0.317704
-0.318968
-0.31925
-0.319037
-0.318345
-0.317148
-0.315443
-0.313219
-0.310471
-0.317959
-0.319221
-0.31952
-0.319334
-0.318676
-0.317519
-0.315855
-0.313674
-0.318399
-0.319649
-0.319959
-0.319797
-0.319171
-0.318053
-0.316433
-0.314299
-0.319016
-0.320247
-0.320564
-0.320422
-0.319827
-0.318748
-0.317174
-0.31509
-0.319802
-0.321009
-0.32133
-0.321206
-0.320641
-0.319601
-0.318074
-0.320749
-0.321929
-0.322252
-0.322145
-0.321608
-0.320608
-0.319131
-0.321849
-0.323001
-0.323325
-0.323234
-0.322726
-0.321766
-0.320341
-0.323094
-0.324219
-0.324545
-0.32447
-0.32399
-0.323071
-0.324475
-0.325578
-0.325907
-0.325848
-0.325396
-0.32452
-0.325986
-0.327071
-0.327405
-0.327364
-0.326942
-0.326108
-0.327622
-0.328696
-0.329037
-0.329015
-0.328624
-0.327834
-0.329375
-0.330446
-0.330799
-0.330797
-0.330439
-0.331243
-0.33232
-0.332686
-0.332708
-0.332385
-0.333222
-0.334313
-0.334698
-0.334746
-0.33446
-0.33531
-0.336423
-0.336831
-0.33691
-0.336662
-0.337504
-0.33865
-0.339085
-0.339196
-0.339806
-0.340992
-0.341458
-0.341605
-0.342215
-0.343449
-0.34395
-0.344136
-0.344731
-0.346021
-0.34656
-0.346787
-0.347358
-0.348708
-0.349288
-0.34956
-0.350097
-0.35151
-0.352135
-0.352453
-0.35295
-0.35443
-0.3551
-0.355466
-0.35592
-0.357467
-0.358183
-0.3586
-0.359009
-0.360622
-0.361385
-0.362219
-0.363895
-0.364704
-0.365552
-0.367287
-0.368139
-0.369007
-0.370795
-0.371689
-0.372586
-0.374419
-0.375352
-0.376288
-0.378156
-0.379123
-0.38011
-0.382002
-0.382999
-0.384049
-0.385954
-0.386975
-0.319708
-0.324572
-0.329332
-0.333999
-0.338578
-0.34308
-0.347513
-0.351885
-0.356206
-0.360485
-0.364732
-0.368957
-0.37317
-0.377381
-0.381601
-0.385842
-0.390115
-0.394432
-0.398807
-0.403256
-0.407796
-0.412446
-0.417229
-0.422173
-0.294486
-0.299123
-0.303683
-0.308171
-0.312595
-0.31696
-0.321273
-0.325542
-0.329774
-0.333976
-0.338158
-0.342327
-0.346493
-0.350667
-0.354858
-0.359078
-0.363341
-0.36766
-0.372051
-0.376531
-0.38112
-0.38584
-0.390716
-0.395776
-0.271446
-0.275824
-0.280143
-0.28441
-0.288628
-0.292804
-0.296941
-0.301047
-0.305126
-0.309186
-0.313232
-0.317272
-0.321313
-0.325363
-0.32943
-0.333523
-0.33765
-0.341821
-0.346047
-0.350339
-0.354708
-0.359165
-0.363723
-0.368394
-0.25047
-0.254567
-0.258619
-0.26263
-0.266605
-0.270548
-0.274462
-0.278352
-0.282223
-0.286079
-0.289926
-0.293768
-0.297611
-0.301461
-0.305323
-0.309205
-0.313111
-0.31705
-0.321028
-0.325053
-0.329134
-0.333281
-0.337502
-0.341811
-0.231247
-0.235057
-0.238832
-0.242576
-0.246292
-0.249982
-0.253651
-0.257301
-0.260936
-0.264561
-0.268178
-0.271792
-0.275408
-0.279029
-0.28266
-0.286307
-0.289975
-0.293669
-0.297396
-0.301161
-0.304972
-0.308836
-0.312762
-0.316756
-0.213602
-0.217126
-0.220623
-0.224096
-0.227546
-0.230978
-0.234392
-0.237792
-0.241181
-0.244562
-0.247937
-0.25131
-0.254685
-0.258064
-0.261452
-0.264852
-0.268268
-0.271705
-0.275166
-0.278657
-0.282182
-0.285746
-0.289355
-0.293015
-0.197358
-0.200605
-0.203831
-0.207037
-0.210226
-0.213399
-0.21656
-0.219709
-0.22285
-0.225984
-0.229114
-0.232243
-0.235373
-0.238506
-0.241646
-0.244796
-0.247959
-0.251137
-0.254335
-0.257555
-0.260803
-0.264081
-0.267394
-0.270747
-0.182382
-0.185364
-0.188328
-0.191277
-0.194212
-0.197135
-0.200047
-0.202951
-0.205848
-0.20874
-0.211629
-0.214516
-0.217405
-0.220297
-0.223195
-0.2261
-0.229016
-0.231944
-0.234889
-0.237851
-0.240835
-0.243843
-0.246879
-0.249947
-0.168553
-0.171283
-0.173999
-0.176703
-0.179395
-0.182078
-0.184753
-0.187421
-0.190083
-0.192741
-0.195397
-0.198053
-0.200709
-0.203368
-0.206031
-0.208701
-0.21138
-0.214068
-0.21677
-0.219486
-0.222219
-0.224972
-0.227747
-0.230547
-0.155764
-0.158258
-0.160741
-0.163214
-0.165678
-0.168134
-0.170584
-0.173028
-0.175467
-0.177904
-0.180338
-0.182772
-0.185207
-0.187644
-0.190085
-0.192531
-0.194984
-0.197446
-0.199918
-0.202402
-0.2049
-0.207414
-0.209946
-0.212498
-0.143924
-0.146199
-0.148465
-0.150723
-0.152973
-0.155217
-0.157455
-0.159688
-0.161919
-0.164146
-0.166372
-0.168598
-0.170824
-0.173052
-0.175284
-0.177519
-0.179761
-0.182009
-0.184266
-0.186533
-0.188812
-0.191103
-0.19341
-0.195733
-0.132952
-0.135025
-0.137089
-0.139147
-0.141199
-0.143245
-0.145286
-0.147324
-0.149359
-0.151392
-0.153423
-0.155454
-0.157486
-0.159519
-0.161555
-0.163595
-0.165639
-0.167689
-0.169746
-0.171811
-0.173886
-0.175971
-0.178069
-0.18018
-0.122775
-0.124661
-0.12654
-0.128414
-0.130282
-0.132145
-0.134005
-0.135862
-0.137716
-0.139568
-0.141419
-0.14327
-0.145121
-0.146974
-0.148829
-0.150686
-0.152548
-0.154414
-0.156286
-0.158165
-0.160051
-0.161947
-0.163852
-0.165769
-0.113331
-0.115045
-0.116754
-0.118457
-0.120157
-0.121853
-0.123545
-0.125234
-0.126922
-0.128608
-0.130292
-0.131977
-0.133662
-0.135348
-0.137035
-0.138725
-0.140418
-0.142115
-0.143817
-0.145524
-0.147238
-0.148959
-0.150689
-0.152428
-0.104558
-0.106116
-0.107669
-0.109217
-0.110762
-0.112304
-0.113843
-0.115379
-0.116913
-0.118447
-0.119979
-0.121511
-0.123043
-0.124575
-0.12611
-0.127646
-0.129184
-0.130726
-0.132272
-0.133822
-0.135378
-0.13694
-0.138508
-0.140085
-0.0964076
-0.0978222
-0.0992328
-0.10064
-0.102043
-0.103444
-0.104842
-0.106239
-0.107633
-0.109026
-0.110419
-0.111811
-0.113203
-0.114596
-0.11599
-0.117385
-0.118782
-0.120182
-0.121586
-0.122993
-0.124404
-0.12582
-0.127243
-0.128671
-0.0888299
-0.0901145
-0.0913955
-0.0926733
-0.0939483
-0.0952208
-0.0964911
-0.0977595
-0.0990264
-0.100292
-0.101557
-0.102822
-0.104086
-0.105351
-0.106617
-0.107884
-0.109153
-0.110423
-0.111697
-0.112973
-0.114253
-0.115538
-0.116826
-0.118121
-0.0817841
-0.0829503
-0.0841135
-0.0852739
-0.0864317
-0.0875874
-0.0887411
-0.0898931
-0.0910438
-0.0921934
-0.0933423
-0.0944907
-0.0956391
-0.0967877
-0.0979369
-0.099087
-0.100239
-0.101392
-0.102547
-0.103705
-0.104866
-0.10603
-0.107198
-0.10837
-0.0762888
-0.077345
-0.0783988
-0.0794503
-0.0804999
-0.0815477
-0.082594
-0.0836391
-0.0846832
-0.0857266
-0.0867695
-0.0878122
-0.0888551
-0.0898984
-0.0909424
-0.0919875
-0.0930339
-0.094082
-0.0951322
-0.0961849
-0.0972403
-0.0982989
-0.0993611
-0.070094
-0.0710532
-0.0720103
-0.0729653
-0.0739186
-0.0748703
-0.0758207
-0.0767699
-0.0777182
-0.0786658
-0.0796129
-0.0805598
-0.0815067
-0.0824539
-0.0834016
-0.0843501
-0.0852997
-0.0862507
-0.0872033
-0.0881579
-0.0891148
-0.0900744
-0.0910368
-0.0643323
-0.0652036
-0.066073
-0.0669406
-0.0678066
-0.0686712
-0.0695345
-0.0703968
-0.0712583
-0.072119
-0.0729793
-0.0738392
-0.0746992
-0.0755592
-0.0764197
-0.0772807
-0.0781426
-0.0790055
-0.0798698
-0.0807357
-0.0816035
-0.0824734
-0.0833457
-0.0589727
-0.0597645
-0.0605545
-0.0613429
-0.0621299
-0.0629156
-0.0637002
-0.0644837
-0.0652664
-0.0660485
-0.0668301
-0.0676113
-0.0683924
-0.0691735
-0.0699549
-0.0707367
-0.0715192
-0.0723025
-0.0730868
-0.0738724
-0.0746595
-0.0754484
-0.0762393
-0.0770323
-0.0539873
-0.054707
-0.0554252
-0.0561419
-0.0568573
-0.0575715
-0.0582847
-0.0589969
-0.0597084
-0.0604192
-0.0611295
-0.0618394
-0.0625492
-0.0632589
-0.0639687
-0.0646788
-0.0653893
-0.0661005
-0.0668125
-0.0675256
-0.0682398
-0.0689554
-0.0696727
-0.0703917
-0.0493502
-0.0500047
-0.0506578
-0.0513096
-0.0519602
-0.0526097
-0.0532582
-0.0539059
-0.0545527
-0.055199
-0.0558448
-0.0564901
-0.0571352
-0.0577802
-0.0584253
-0.0590705
-0.059716
-0.0603619
-0.0610085
-0.0616559
-0.0623042
-0.0629536
-0.0636043
-0.0642565
-0.0450367
-0.0456322
-0.0462265
-0.0468195
-0.0474115
-0.0480024
-0.0485924
-0.0491816
-0.0497701
-0.0503579
-0.0509452
-0.0515322
-0.0521188
-0.0527052
-0.0532916
-0.0538781
-0.0544647
-0.0550516
-0.055639
-0.056227
-0.0568157
-0.0574053
-0.0579959
-0.0585877
-0.041025
-0.0415671
-0.0421081
-0.0426479
-0.0431868
-0.0437247
-0.0442617
-0.0447979
-0.0453335
-0.0458684
-0.0464028
-0.0469368
-0.0474705
-0.0480039
-0.0485372
-0.0490705
-0.0496038
-0.0501373
-0.0506712
-0.0512054
-0.0517402
-0.0522757
-0.0528119
-0.0533491
-0.0372942
-0.037788
-0.0382807
-0.0387724
-0.0392632
-0.039753
-0.0402421
-0.0407304
-0.041218
-0.041705
-0.0421915
-0.0426776
-0.0431633
-0.0436487
-0.0441339
-0.044619
-0.0451041
-0.0455893
-0.0460746
-0.0465602
-0.0470462
-0.0475327
-0.0480198
-0.0485076
-0.0338252
-0.0342753
-0.0347243
-0.0351724
-0.0356196
-0.036066
-0.0365115
-0.0369564
-0.0374006
-0.0378442
-0.0382873
-0.0387299
-0.0391721
-0.039614
-0.0400556
-0.0404971
-0.0409385
-0.0413799
-0.0418213
-0.0422629
-0.0427047
-0.0431469
-0.0435895
-0.0440326
-0.0306005
-0.0310109
-0.0314203
-0.0318288
-0.0322366
-0.0326435
-0.0330497
-0.0334551
-0.03386
-0.0342642
-0.0346679
-0.0350711
-0.0354739
-0.0358764
-0.0362786
-0.0366805
-0.0370823
-0.0374839
-0.0378856
-0.0382873
-0.0386891
-0.0390911
-0.0394934
-0.039896
-0.0276035
-0.0279779
-0.0283514
-0.0287241
-0.029096
-0.0294671
-0.0298376
-0.0302073
-0.0305764
-0.030945
-0.0313129
-0.0316804
-0.0320475
-0.0324142
-0.0327805
-0.0331466
-0.0335124
-0.0338781
-0.0342437
-0.0346092
-0.0349747
-0.0353403
-0.0357061
-0.036072
-0.0248187
-0.0251605
-0.0255015
-0.0258417
-0.0261811
-0.0265198
-0.0268578
-0.0271951
-0.0275318
-0.0278679
-0.0282035
-0.0285386
-0.0288732
-0.0292074
-0.0295412
-0.0298747
-0.0302079
-0.0305409
-0.0308737
-0.0312064
-0.031539
-0.0318716
-0.0322043
-0.032537
-0.0222324
-0.0225446
-0.0228559
-0.0231666
-0.0234764
-0.0237856
-0.0240941
-0.024402
-0.0247093
-0.0250159
-0.0253221
-0.0256277
-0.0259328
-0.0262375
-0.0265418
-0.0268457
-0.0271493
-0.0274526
-0.0277557
-0.0280586
-0.0283613
-0.028664
-0.0289665
-0.0292691
-0.0198312
-0.0201164
-0.0204009
-0.0206846
-0.0209677
-0.0212501
-0.0215318
-0.0218129
-0.0220933
-0.0223732
-0.0226526
-0.0229314
-0.0232098
-0.0234876
-0.0237651
-0.0240421
-0.0243188
-0.0245951
-0.0248712
-0.025147
-0.0254226
-0.025698
-0.0259732
-0.0262484
-0.0176027
-0.0178634
-0.0181235
-0.0183828
-0.0186414
-0.0188994
-0.0191567
-0.0194135
-0.0196696
-0.0199251
-0.0201801
-0.0204346
-0.0206885
-0.020942
-0.021195
-0.0214476
-0.0216998
-0.0219516
-0.0222031
-0.0224543
-0.0227052
-0.0229558
-0.0232062
-0.0234565
-0.0155357
-0.0157742
-0.0160119
-0.016249
-0.0164854
-0.0167212
-0.0169563
-0.0171909
-0.0174248
-0.0176582
-0.017891
-0.0181232
-0.018355
-0.0185862
-0.018817
-0.0190473
-0.0192772
-0.0195067
-0.0197358
-0.0199646
-0.020193
-0.0204211
-0.020649
-0.0208766
-0.0136196
-0.0138377
-0.0140552
-0.014272
-0.0144882
-0.0147037
-0.0149186
-0.0151329
-0.0153466
-0.0155598
-0.0157724
-0.0159844
-0.0161959
-0.0164069
-0.0166175
-0.0168275
-0.0170371
-0.0172463
-0.017455
-0.0176633
-0.0178713
-0.0180789
-0.0182862
-0.0184932
-0.0118445
-0.0120441
-0.0122431
-0.0124414
-0.0126391
-0.0128361
-0.0130326
-0.0132285
-0.0134238
-0.0136185
-0.0138126
-0.0140062
-0.0141993
-0.0143919
-0.0145839
-0.0147755
-0.0149665
-0.0151572
-0.0153473
-0.0155371
-0.0157264
-0.0159154
-0.016104
-0.0162922
-0.0102013
-0.0103839
-0.010566
-0.0107475
-0.0109283
-0.0111085
-0.0112881
-0.0114672
-0.0116456
-0.0118235
-0.0120009
-0.0121776
-0.0123539
-0.0125296
-0.0127048
-0.0128795
-0.0130537
-0.0132274
-0.0134007
-0.0135735
-0.0137458
-0.0139178
-0.0140893
-0.0142605
-0.00868135
-0.0088486
-0.00901523
-0.00918127
-0.0093467
-0.00951154
-0.0096758
-0.00983947
-0.0100026
-0.0101651
-0.0103271
-0.0104885
-0.0106494
-0.0108097
-0.0109695
-0.0111288
-0.0112876
-0.0114459
-0.0116038
-0.0117611
-0.011918
-0.0120744
-0.0122304
-0.012386
-0.00727685
-0.00742998
-0.00758253
-0.00773448
-0.00788584
-0.00803663
-0.00818684
-0.00833647
-0.00848554
-0.00863404
-0.00878199
-0.00892938
-0.00907623
-0.00922254
-0.00936832
-0.00951358
-0.00965832
-0.00980255
-0.00994629
-0.0100895
-0.0102323
-0.0103746
-0.0105164
-0.0106578
-0.00598039
-0.00612062
-0.00626028
-0.00639936
-0.00653787
-0.00667581
-0.00681318
-0.00694998
-0.00708622