/*--------------------------------*- C++ -*----------------------------------*\
  =========                 |
  \\      /  F ield         | OpenFOAM: The Open Source CFD Toolbox
   \\    /   O peration     | Website:  https://openfoam.org
    \\  /    A nd           | Version:  7
     \\/     M anipulation  |
\*---------------------------------------------------------------------------*/
FoamFile
{
    version     2.0;
    format      ascii;
    class       surfaceScalarField;
    location    "100";
    object      phi;
}
// * * * * * * * * * * * * * * * * * * * * * * * * * * * * * * * * * * * * * //

dimensions      [0 3 -1 0 0 0 0];

internalField   nonuniform List<scalar> 
8842
(
-1.65019e-06
3.42798e-05
-3.26296e-05
-6.10499e-06
8.27897e-05
-7.83349e-05
0.00011545
-0.000108493
-1.62509e-06
3.59049e-05
-6.03896e-06
8.72036e-05
0.000122375
-1.58589e-06
3.74908e-05
-5.9233e-06
9.1541e-05
0.000129217
-1.5323e-06
3.90231e-05
-5.75678e-06
9.57655e-05
0.00013592
-1.46422e-06
4.04873e-05
-5.53879e-06
9.984e-05
0.000142428
-1.38181e-06
4.18691e-05
-5.26959e-06
0.000103728
0.000148686
-1.28541e-06
4.31545e-05
-4.9502e-06
0.000107393
0.000154639
-1.17567e-06
4.43302e-05
-4.58245e-06
0.000110799
0.000160233
-1.05356e-06
4.53838e-05
-4.16922e-06
0.000113915
-9.35244e-06
0.000165416
0.000201526
-9.20298e-07
4.63041e-05
-3.71414e-06
0.000116709
-8.43806e-06
0.00017014
0.000208164
-7.77303e-07
4.70814e-05
-3.22154e-06
0.000119153
-7.44114e-06
0.00017436
0.000214182
-6.26085e-07
4.77075e-05
-2.69643e-06
0.000121223
-6.37096e-06
0.000178034
0.000219522
-4.68259e-07
4.81757e-05
-2.14411e-06
0.000122899
-5.23817e-06
0.000181128
0.000224134
-3.05568e-07
4.84813e-05
-1.57039e-06
0.000124164
-4.05407e-06
0.000183612
0.000227974
-1.39888e-07
4.86212e-05
-9.8154e-07
0.000125006
-2.83103e-06
0.000185461
0.000231006
2.63492e-08
4.85948e-05
-3.84211e-07
0.000125416
-1.58206e-06
0.000186659
0.000233199
1.92562e-07
4.84023e-05
2.14796e-07
0.000125394
-3.209e-07
0.000187195
-1.65453e-06
0.000234533
0.000268486
3.55001e-07
4.80473e-05
8.08218e-07
0.000124941
9.38158e-07
0.000187065
4.7716e-07
0.000234994
0.000269657
5.12336e-07
4.75349e-05
1.38893e-06
0.000124064
2.18077e-06
0.000186273
2.59653e-06
0.000234578
0.000269754
6.6253e-07
4.68724e-05
1.95e-06
0.000122777
3.39259e-06
0.000184831
4.68074e-06
0.00023329
0.000268773
8.03679e-07
4.60687e-05
2.48472e-06
0.000121096
4.5598e-06
0.000182756
6.70676e-06
0.000231143
8.762e-06
0.000266718
0.000290259
9.34012e-07
4.51347e-05
2.98672e-06
0.000119043
5.66915e-06
0.000180073
8.65259e-06
0.000228159
1.17669e-05
0.000263604
0.000287031
1.05191e-06
4.40828e-05
3.45011e-06
0.000116645
6.70815e-06
0.000176815
1.04975e-05
0.00022437
1.46461e-05
0.000259455
0.000282541
1.15596e-06
4.29269e-05
3.86966e-06
0.000113931
7.66557e-06
0.000173019
1.22221e-05
0.000219813
1.73712e-05
0.000254306
0.000276816
1.24496e-06
4.16819e-05
4.24089e-06
0.000110935
8.53174e-06
0.000168728
1.381e-05
0.000214535
1.99171e-05
0.000248199
2.68436e-05
0.000269889
0.000279999
1.318e-06
4.03639e-05
4.56028e-06
0.000107693
9.29878e-06
0.00016399
1.52472e-05
0.000208587
2.22626e-05
0.000241183
3.03469e-05
0.000261805
0.000270701
1.37447e-06
3.89894e-05
4.82531e-06
0.000104242
9.96094e-06
0.000158854
1.65235e-05
0.000202024
2.43914e-05
0.000233315
3.35834e-05
0.000252613
0.000260027
1.41407e-06
3.75753e-05
5.0347e-06
0.000100621
1.05149e-05
0.000153374
1.76323e-05
0.000194907
2.62929e-05
0.000224655
3.65374e-05
0.000242369
4.85433e-05
0.000248021
0.000241691
1.43691e-06
3.61384e-05
5.18843e-06
9.687e-05
1.096e-05
0.000147602
1.85716e-05
0.000187295
2.7963e-05
0.000215263
3.92023e-05
0.000231129
5.24908e-05
0.000234733
0.000226018
1.44346e-06
3.4695e-05
5.28793e-06
9.30255e-05
1.12987e-05
0.000141592
1.93446e-05
0.000179249
2.94052e-05
0.000205203
4.15816e-05
0.000218953
5.61042e-05
0.00022021
0.000208784
1.43463e-06
3.32603e-05
5.33608e-06
8.91241e-05
1.15364e-05
0.000135391
1.99595e-05
0.000170826
3.06304e-05
0.000194532
4.36893e-05
0.000205894
5.94017e-05
0.000204498
7.81664e-05
0.00019002
0.000162114
1.41174e-06
3.18486e-05
5.33729e-06
8.51985e-05
1.16817e-05
0.000129047
2.04298e-05
0.000162078
3.16581e-05
0.000183304
4.55514e-05
0.000192001
6.24162e-05
0.000187633
8.26921e-05
0.000169744
0.000137848
1.37653e-06
3.04721e-05
5.29749e-06
8.12775e-05
1.17465e-05
0.000122598
2.07747e-05
0.00015305
3.25157e-05
0.000171563
4.72048e-05
0.000177312
6.51961e-05
0.000169641
8.69764e-05
0.000147963
0.000113174
0.00011165
5.9935e-05
1.33117e-06
2.91409e-05
5.22404e-06
7.73847e-05
1.17457e-05
0.000116076
2.10185e-05
0.000143777
3.32385e-05
0.000159343
4.86977e-05
0.000161852
6.78043e-05
0.000150535
9.10993e-05
0.000124668
0.000119268
8.34814e-05
2.60585e-05
1.27819e-06
2.78627e-05
5.12565e-06
7.35372e-05
1.1697e-05
0.000109505
2.11903e-05
0.000134284
3.38694e-05
0.000146664
5.00887e-05
0.000145633
7.03173e-05
0.000130306
9.51575e-05
9.98282e-05
0.000125359
5.32803e-05
-1.04031e-05
1.22046e-06
2.66422e-05
5.01215e-06
6.97455e-05
1.16205e-05
0.000102897
2.13233e-05
0.000124581
3.44571e-05
0.00013353
5.14449e-05
0.000128645
7.28229e-05
0.000108928
9.92617e-05
7.33894e-05
0.00013158
2.09616e-05
0.000170749
-4.95714e-05
-0.000139618
1.16109e-06
2.54812e-05
4.89432e-06
6.60123e-05
1.15383e-05
9.62525e-05
2.14542e-05
0.000114665
3.50557e-05
0.000119928
5.28401e-05
0.000110861
7.54172e-05
8.63513e-05
0.000103532
4.52745e-05
0.000138078
-1.35847e-05
0.000180098
-9.15907e-05
-0.000190279
1.10339e-06
2.43778e-05
4.78351e-06
6.23322e-05
1.14738e-05
8.95622e-05
2.16217e-05
0.000104517
3.57223e-05
0.000105828
5.43525e-05
9.22307e-05
7.82013e-05
6.25025e-05
0.000108094
1.53823e-05
0.000145
-5.04915e-05
0.000190033
-0.000136624
0.000244414
-0.00024466
-0.000376327
1.05071e-06
2.33271e-05
4.69137e-06
5.86915e-05
1.14509e-05
8.28027e-05
2.18653e-05
9.41028e-05
3.65151e-05
9.11778e-05
5.60613e-05
7.26846e-05
8.12771e-05
3.72867e-05
0.00011307
-1.64108e-05
0.00015249
-8.99111e-05
0.000200712
-0.000184846
0.000258996
-0.000302944
-0.000445933
1.00641e-06
2.23206e-05
4.62942e-06
5.50685e-05
1.14934e-05
7.59388e-05
2.22245e-05
8.33717e-05
3.74917e-05
7.59105e-05
5.80442e-05
5.21321e-05
8.47428e-05
1.05881e-05
0.000118579
-5.02475e-05
0.000160678
-0.00013201
0.000212268
-0.000236436
0.000274627
-0.000365302
0.000348971
-0.000520278
-0.000702692
9.73536e-07
2.13471e-05
4.60845e-06
5.14336e-05
1.16235e-05
6.89237e-05
2.27362e-05
7.22589e-05
3.87064e-05
5.99403e-05
6.03739e-05
3.04646e-05
8.8689e-05
-1.77269e-05
0.000124726
-8.62849e-05
0.000169678
-0.000176961
0.000224811
-0.000291569
0.000291389
-0.000431881
0.000370547
-0.000599435
-0.000795255
9.55258e-07
2.03919e-05
4.63903e-06
4.77498e-05
1.18627e-05
6.17e-05
2.34353e-05
6.06863e-05
4.0209e-05
4.31667e-05
6.31156e-05
7.55799e-06
9.31941e-05
-4.78054e-05
0.000131598
-0.000124689
0.000179574
-0.000224937
0.000238407
-0.000350402
0.000309314
-0.000502788
0.000393294
-0.000683415
0.00049093
-0.00089289
-0.00113072
9.54001e-07
1.94379e-05
4.72984e-06
4.3974e-05
1.22289e-05
5.4201e-05
2.43513e-05
4.85639e-05
4.20416e-05
2.54765e-05
6.63233e-05
-1.67238e-05
9.83213e-05
-7.98034e-05
0.000139259
-0.000165626
0.000190423
-0.000276101
0.000253087
-0.000413065
0.00032838
-0.000578082
0.000417115
-0.00077215
0.000519568
-0.000995343
0.00063526
-0.00124642
-0.00152247
9.71884e-07
1.8466e-05
4.88829e-06
4.00576e-05
1.27373e-05
4.63519e-05
2.55087e-05
3.57925e-05
4.42382e-05
6.74699e-06
7.00391e-05
-4.25246e-05
0.000104116
-0.00011388
0.00014775
-0.00020926
0.000202247
-0.000330598
0.000268835
-0.000479653
0.000348512
-0.00065776
0.000441849
-0.000865486
0.000548756
-0.00110225
0.000668281
-0.00136594
-0.00165267
1.01052e-06
1.74555e-05
5.12008e-06
3.5948e-05
1.33996e-05
3.80724e-05
2.69258e-05
2.22662e-05
4.68235e-05
-1.31507e-05
7.42908e-05
-6.99919e-05
0.000110603
-0.000150193
0.000157084
-0.000255741
0.000215031
-0.000388545
0.000285591
-0.000550213
0.000369582
-0.000741751
0.000467276
-0.00096318
0.00057817
-0.00121314
0.000700807
-0.00148858
0.000832698
-0.00178456
-0.00209452
1.07098e-06
1.63845e-05
5.42909e-06
3.15899e-05
1.42234e-05
2.92781e-05
2.86145e-05
7.87517e-06
4.98119e-05
-3.43481e-05
7.90917e-05
-9.92716e-05
0.000117788
-0.000188889
0.000167247
-0.0003052
0.000228727
-0.000450026
0.000303254
-0.00062474
0.000391415
-0.000829912
0.000493133
-0.0010649
0.000607451
-0.00132746
0.000732394
-0.00161352
0.00086497
-0.00191713
0.00100137
-0.00223092
-0.00254652
1.1538e-06
1.52307e-05
5.81737e-06
2.69263e-05
1.52129e-05
1.98826e-05
3.05801e-05
-7.49204e-06
5.32076e-05
-5.69757e-05
8.44404e-05
-0.000130504
0.000125656
-0.000230105
0.000178198
-0.000357742
0.000243255
-0.000515082
0.000321684
-0.000703169
0.000413795
-0.000922022
0.000519117
-0.00117022
0.000636214
-0.00144456
0.000762601
-0.00173991
0.000894841
-0.00204937
0.00102883
-0.00236491
-0.00267795
1.25903e-06
1.39716e-05
6.2852e-06
2.19002e-05
1.63682e-05
9.79953e-06
3.28215e-05
-2.39454e-05
5.70054e-05
-8.11595e-05
9.03215e-05
-0.000163821
0.000134173
-0.000273956
0.000189874
-0.000413443
0.000258503
-0.000583712
0.000340709
-0.000785375
0.000436475
-0.00101779
0.000544903
-0.00127865
0.000664066
-0.00156372
0.000791003
-0.00186684
0.000921909
-0.00218028
0.00105251
-0.00249551
0.0011786
-0.00280404
-0.0030993
1.38624e-06
1.25854e-05
6.83127e-06
1.64551e-05
1.76863e-05
-1.05553e-06
3.5332e-05
-4.1591e-05
6.11907e-05
-0.000107018
9.67072e-05
-0.000199337
0.000143288
-0.000320537
0.000202187
-0.000472342
0.000274338
-0.000655862
0.000360131
-0.000871168
0.000459187
-0.00111684
0.000570155
-0.00138962
0.000690624
-0.00168419
0.000817209
-0.00199343
0.000945836
-0.00230891
0.0010722
-0.00262187
0.00119229
-0.00292414
0.0013028
-0.00320981
-0.00347294
1.53463e-06
1.10508e-05
7.45291e-06
1.05368e-05
1.91612e-05
-1.27638e-05
3.80994e-05
-6.05292e-05
6.57414e-05
-0.00013466
0.000103558
-0.000237154
0.000152936
-0.000369915
0.000215036
-0.000534442
0.000290604
-0.00073143
0.000379735
-0.000960299
0.00048165
-0.00121876
0.000594535
-0.0015025
0.000715524
-0.00180518
0.000840875
-0.00211878
0.000966355
-0.00243439
0.00108774
-0.00274326
0.00120138
-0.00303777
0.00130447
-0.00331291
0.00139565
-0.00356412
-0.00379567
1.7031e-06
9.34767e-06
8.14629e-06
4.09365e-06
2.07842e-05
-2.54017e-05
4.11075e-05
-8.08525e-05
7.06286e-05
-0.000164181
0.000110826
-0.000277351
0.000163039
-0.000422127
0.000228302
-0.000599706
0.000307133
-0.000810261
0.000399293
-0.00105246
0.000503581
-0.00132305
0.000617722
-0.00161664
0.000738437
-0.0019259
0.000861715
-0.00224206
0.000983275
-0.00255595
0.0010991
-0.00285908
0.00120596
-0.00314463
0.00130165
-0.00340859
0.0013854
-0.00364787
-0.00386765
0.00145738
1.89037e-06
7.4573e-06
8.90679e-06
-2.92277e-06
2.2545e-05
-3.90399e-05
4.43365e-05
-0.000102644
7.58181e-05
-0.000195663
0.000118455
-0.000319988
0.00017351
-0.000477182
0.000241857
-0.000668052
0.000323747
-0.000892151
0.000418574
-0.00114729
0.000524701
-0.00142917
0.000639412
-0.00173135
0.000759075
-0.00204556
0.000879505
-0.00236249
0.000996483
-0.00267292
0.0011063
-0.0029689
0.00120622
-0.00324455
0.00129463
-0.003497
0.00137132
-0.00372457
-0.00393318
0.00143685
2.09501e-06
5.36229e-06
9.72918e-06
-1.05569e-05
2.44317e-05
-5.37424e-05
4.77641e-05
-0.000125976
8.12716e-05
-0.00022917
0.000126383
-0.0003651
0.000184256
-0.000535055
0.000255565
-0.000739362
0.000340262
-0.000976847
0.000437347
-0.00124437
0.000544745
-0.00153657
0.000659334
-0.00184594
0.0007772
-0.00216342
0.000894084
-0.00247937
0.00100594
-0.00278478
0.00110944
-0.00307241
0.00120239
-0.00333749
0.00128374
-0.00357836
0.00135381
-0.00379463
-0.00399283
0.00141346
2.31554e-06
3.04675e-06
1.06079e-05
-1.88493e-05
2.64315e-05
-6.95661e-05
5.13662e-05
-0.000150911
8.69479e-05
-0.000264752
0.000134545
-0.000412697
0.000195178
-0.000595688
0.000269288
-0.000813472
0.000356494
-0.00106405
0.000455389
-0.00134327
0.000563468
-0.00164465
0.00067725
-0.00195973
0.000792624
-0.0022788
0.000905359
-0.00259211
0.00101167
-0.00289109
0.00110869
-0.00316943
0.00119474
-0.00342354
0.00126935
-0.00365297
0.00133325
-0.00385853
-0.00404713
0.00138756
2.55052e-06
4.96226e-07
1.15372e-05
-2.7836e-05
2.85311e-05
-8.656e-05
5.51173e-05
-0.000177497
9.28035e-05
-0.000302438
0.000142872
-0.000462765
0.000206174
-0.000658991
0.000282886
-0.000890183
0.000372264
-0.00115343
0.000472487
-0.00144349
0.000580647
-0.00175281
0.000692964
-0.00207204
0.000805216
-0.00239105
0.000913297
-0.00270019
0.00101376
-0.00299155
0.00110423
-0.0032599
0.00118358
-0.00350289
0.00125181
-0.00372121
0.00131002
-0.00391674
-0.00409662
0.00135951
2.79853e-06
-2.3023e-06
1.25113e-05
-3.75488e-05
3.07168e-05
-0.000104766
5.89911e-05
-0.000205771
9.87936e-05
-0.000342241
0.000151294
-0.000515265
0.000217142
-0.000724839
0.000296217
-0.000969258
0.000387397
-0.00124461
0.000488446
-0.00154454
0.00059609
-0.00186045
0.000706321
-0.00218227
0.000814896
-0.00249963
0.000917921
-0.00280321
0.00101235
-0.00308599
0.00109632
-0.00334387
0.00116921
-0.00357578
0.00123147
-0.00378346
0.00128446
-0.00396973
-0.00414179
0.00132962
3.05821e-06
-5.36051e-06
1.35246e-05
-4.80152e-05
3.29749e-05
-0.000124216
6.29609e-05
-0.000235757
0.000104873
-0.000384153
0.000159739
-0.000570131
0.000227979
-0.000793079
0.000309146
-0.00105043
0.000401728
-0.00133719
0.00050309
-0.0016459
0.000609638
-0.001967
0.00071721
-0.00228985
0.000821636
-0.00260405
0.000919305
-0.00290088
0.00100762
-0.0031743
0.00108523
-0.00342147
0.00115197
-0.00364252
0.00120867
-0.00384017
0.0012569
-0.00401795
-0.00418306
0.00129818
3.3283e-06
-8.68881e-06
1.45715e-05
-5.92584e-05
3.52913e-05
-0.000144936
6.69997e-05
-0.000267466
0.000110995
-0.000428147
0.000168136
-0.000627272
0.000238583
-0.000863526
0.000321542
-0.00113339
0.000415106
-0.00143076
0.000516264
-0.00174706
0.000621161
-0.0020719
0.000725564
-0.00239425
0.000825451
-0.00270394
0.000917564
-0.002993
0.000999777
-0.00325652
0.00107122
-0.00349291
0.00113217
-0.00370347
0.00118374
-0.00389174
0.00122765
-0.00406186
-0.00422086
0.00126544
3.60756e-06
-1.22964e-05
1.56463e-05
-7.1297e-05
3.76524e-05
-0.000166942
7.10804e-05
-0.000300894
0.000117113
-0.00047418
0.000176414
-0.000686573
0.000248855
-0.000935968
0.000333281
-0.00121781
0.000427391
-0.00152487
0.000527838
-0.00184751
0.000630567
-0.00217463
0.000731353
-0.00249503
0.000826401
-0.00279899
0.000912847
-0.00307944
0.000989042
-0.00333271
0.00105458
-0.00355845
0.0011101
-0.00375899
0.00115696
-0.00393861
0.00119696
-0.00410185
-0.00425552
0.00123162
3.89481e-06
-1.61912e-05
1.67435e-05
-8.41457e-05
4.0044e-05
-0.000190242
7.51754e-05
-0.000336025
0.000123181
-0.000522186
0.000184502
-0.000747895
0.000258701
-0.00101017
0.000344247
-0.00130336
0.000438463
-0.00161908
0.000537707
-0.00194675
0.000637796
-0.00227472
0.000734589
-0.00259183
0.000824579
-0.00288898
0.000905329
-0.00316019
0.000975659
-0.00340304
0.00103558
-0.00361837
0.00108606
-0.00380947
0.00112862
-0.00398116
0.00116507
-0.0041383
-0.00428736
0.00119691
4.18886e-06
-2.038e-05
1.78575e-05
-9.78144e-05
4.24521e-05
-0.000214837
7.92571e-05
-0.00037283
0.000129153
-0.000572082
0.000192333
-0.000811075
0.000268029
-0.00108586
0.000354333
-0.00138966
0.000448216
-0.00171297
0.000545792
-0.00204433
0.00064282
-0.00237174
0.000735314
-0.00268432
0.000820107
-0.00297377
0.000895203
-0.00323529
0.000959873
-0.00346771
0.00101451
-0.00367301
0.00106032
-0.00385527
0.00109894
-0.00401979
0.00113219
-0.00417155
-0.00431665
0.00116147
4.48851e-06
-2.48686e-05
1.89828e-05
-0.000112309
4.48624e-05
-0.000240716
8.32978e-05
-0.000411266
0.000134983
-0.000623767
0.000199839
-0.000875931
0.000276753
-0.00116278
0.000363446
-0.00147635
0.000456566
-0.00180609
0.000552041
-0.0021398
0.000645641
-0.00246534
0.000733602
-0.00277228
0.00081313
-0.0030533
0.000882674
-0.00330483
0.000941926
-0.00352697
0.000991604
-0.00372269
0.00103311
-0.00389678
0.00106815
-0.00405483
0.00109848
-0.00420188
-0.00434361
0.00112544
4.79249e-06
-2.9661e-05
2.01134e-05
-0.00012763
4.72604e-05
-0.000267863
8.72696e-05
-0.000451275
0.000140625
-0.000677123
0.000206957
-0.000942262
0.000284796
-0.00124061
0.000371504
-0.00156306
0.000463446
-0.00189803
0.000556425
-0.00223278
0.00064629
-0.00255521
0.00072955
-0.00285554
0.000803809
-0.00312756
0.000867952
-0.00336897
0.000922055
-0.00358107
0.000967109
-0.00376774
0.00100466
-0.00393433
0.00103643
-0.00408661
0.00106411
-0.00422956
-0.00436842
0.00108893
5.09947e-06
-3.47605e-05
2.12433e-05
-0.000143773
4.96311e-05
-0.000296251
9.11445e-05
-0.000492788
0.000146036
-0.000732015
0.000213625
-0.00100985
0.000292085
-0.00131908
0.000378438
-0.00164942
0.00046881
-0.0019884
0.00055894
-0.00232291
0.00064482
-0.00264109
0.000723273
-0.002934
0.000792315
-0.0031966
0.000851246
-0.0034279
0.000900485
-0.00363031
0.000941244
-0.0038085
0.000975162
-0.00396825
0.00100395
-0.0041154
0.0010292
-0.00425481
-0.00439125
0.00105204
5.40805e-06
-4.01686e-05
2.23662e-05
-0.000160732
5.19596e-05
-0.000325845
9.48949e-05
-0.000535723
0.000151172
-0.000788292
0.000219787
-0.00107847
0.000298559
-0.00139785
0.000384194
-0.00173505
0.000472629
-0.00207683
0.000559604
-0.00240989
0.000641306
-0.00272279
0.000714904
-0.00300759
0.000778827
-0.00326052
0.000832764
-0.00348184
0.000877429
-0.00367497
0.000914209
-0.00384528
0.000944793
-0.00399883
0.000970853
-0.00414146
0.000993863
-0.00427782
-0.00441223
0.00101484
5.7167e-06
-4.58853e-05
2.34758e-05
-0.000178491
5.42307e-05
-0.0003566
9.84934e-05
-0.000579986
0.000155993
-0.000845792
0.000225392
-0.00114786
0.000304163
-0.00147662
0.000388731
-0.00181962
0.000474896
-0.002163
0.000558454
-0.00249344
0.000635838
-0.00280018
0.000704584
-0.00307634
0.000763524
-0.00331946
0.000812702
-0.00353102
0.000853084
-0.00371535
0.000886183
-0.00387838
0.000913704
-0.00402635
0.00093725
-0.004165
0.000958181
-0.00429875
-0.00443144
0.000977396
6.02384e-06
-5.19091e-05
2.45653e-05
-0.000197032
5.6429e-05
-0.000388463
0.000101913
-0.00062547
0.00016046
-0.000904339
0.000230393
-0.0012178
0.000308854
-0.00155508
0.000392023
-0.00190279
0.000475617
-0.00224659
0.000555545
-0.00257337
0.000628522
-0.00287315
0.000692462
-0.00314028
0.000746584
-0.00337358
0.00079125
-0.00357568
0.000827631
-0.00375173
0.000857328
-0.00390808
0.000882028
-0.00405105
0.00090325
-0.00418623
0.000922233
-0.00431773
-0.00444898
0.000939771
6.32783e-06
2.56282e-05
5.85397e-05
0.000105129
-0.000672059
0.000164537
-0.000963747
0.00023475
-0.00128801
0.000312598
-0.00163293
0.000394057
-0.00198425
0.000474816
-0.00232735
0.000550946
-0.0026495
0.000619472
-0.00294168
0.000678689
-0.0031995
0.000728179
-0.00342307
0.000768583
-0.00361609
0.000801235
-0.00378439
0.000827786
-0.00393463
0.000849879
-0.00407315
0.000868938
-0.00420528
0.000886082
-0.00433487
-0.0044649
0.000902006
0.000108116
0.000168192
0.000238429
-0.00135825
0.00031537
-0.00170987
0.000394833
-0.00206371
0.00047253
-0.00240505
0.000544736
-0.00272171
0.000608809
-0.00300575
0.000663416
-0.0032541
0.000708475
-0.00346813
0.000744865
-0.00365248
0.000774046
-0.00381357
0.000797682
-0.00395826
0.000817356
-0.00409282
0.000834388
-0.00422232
0.000849782
-0.00435027
-0.00447926
0.000864137
0.000241403
0.000317157
0.000394365
0.000468809
-0.00247949
0.000537007
-0.00278991
0.000596657
-0.0030654
0.000646791
-0.00330424
0.000687627
-0.00350897
0.000720247
-0.0036851
0.000746195
-0.00383952
0.000767125
-0.00397919
0.000784543
-0.00411024
0.000799663
-0.00423744
0.000813376
-0.00436398
-0.00449208
0.000826197
0.000463713
0.000527853
0.000583143
0.000628957
0.000665784
-0.0035458
0.000694866
-0.00371418
0.000717801
-0.00386245
0.000736209
-0.0039976
0.000751512
-0.00412554
0.000764813
-0.00425074
0.000776902
-0.00437607
-0.00450339
0.000788212
0.00064308
0.000668844
0.000688967
0.000705019
-0.00401365
0.000718325
-0.00413885
0.000729884
-0.0042623
0.00074039
-0.00438657
-0.00451321
0.000750205
0.000673623
0.000685032
0.000694912
0.000703867
-0.00452154
0.000712198
0.000674207
0.00436542
0.000772577
0.000751562
0.00381616
0.000769254
0.00395219
0.000784832
0.00408473
0.000799104
0.00421723
0.004352
0.000812526
0.000650798
0.00307137
0.000694853
0.00328844
0.000730625
0.00347696
0.000759574
0.00364276
0.000783333
0.0037924
0.000803426
0.0039321
0.000821099
0.00406706
0.000837269
0.00420106
0.00433679
0.000852477
0.000467535
0.00215019
0.000542016
0.00246547
0.000609019
0.00275498
0.00066696
0.00301343
0.00071551
0.00323989
0.000755366
0.00343711
0.000787874
0.00361025
0.000814663
0.00376561
0.000837325
0.00390943
0.000857213
0.00404717
0.000875359
0.00418292
0.00431975
0.000892401
0.00022779
0.00108981
0.000305071
0.0014063
0.000386846
0.0017369
0.000468916
0.00206812
0.000547304
0.00238708
0.000618852
0.00268343
0.000681596
0.00295068
0.000734853
0.00318663
0.000779049
0.00339291
0.000815381
0.00357392
0.000845437
0.00373555
0.000870862
0.00388401
0.000893109
0.00402492
0.000913329
0.0041627
0.00430082
0.000932263
9.75512e-05
0.000501314
0.000154424
0.000742738
0.000222973
0.00102126
0.000300665
0.0013286
0.000383954
0.00165361
0.000468713
0.00198336
0.000550843
0.00230495
0.000626899
0.00260738
0.00069454
0.00288304
0.000752701
0.00312847
0.000801499
0.00334411
0.000841935
0.00353349
0.000875523
0.00370197
0.000903933
0.0038556
0.000928708
0.00400015
0.00095112
0.00414029
0.00427992
0.000972022
5.34602e-06
3.03613e-05
2.21407e-05
0.000130121
5.14602e-05
0.000272705
9.39837e-05
0.000458791
0.000149677
0.000687045
0.000217508
0.000953429
0.000295287
0.00125082
0.000379748
0.00156915
0.00046689
0.00189622
0.000552549
0.00221929
0.000633032
0.00252689
0.000705626
0.00281045
0.000768867
0.00306523
0.000822525
0.00329046
0.000867359
0.00348865
0.000904767
0.00366456
0.000936413
0.00382395
0.000963916
0.00397264
0.000988665
0.00411554
0.00425695
0.00101163
5.03565e-06
2.53257e-05
2.10146e-05
0.000114142
4.91317e-05
0.000244588
9.02468e-05
0.000417676
0.000144584
0.000632708
0.000211438
0.000886575
0.000288978
0.00117328
0.000374247
0.00148388
0.00046343
0.00180704
0.000552356
0.00213037
0.000637128
0.00244212
0.000714686
0.00273289
0.000783155
0.00299676
0.000841921
0.00323169
0.000891457
0.00343912
0.000932996
0.00362302
0.00096816
0.00378879
0.000998622
0.00394218
0.00102588
0.00408828
0.00423181
0.00105103
4.72698e-06
2.05987e-05
1.98798e-05
9.89894e-05
4.67542e-05
0.000217714
8.6369e-05
0.000378061
0.000139186
0.000579891
0.000204815
0.000820946
0.000281787
0.00109631
0.000367487
0.00139818
0.000458332
0.00171619
0.00055021
0.00203849
0.000639079
0.00235325
0.000721558
0.00265041
0.000795364
0.00292295
0.00085947
0.00316759
0.000914014
0.00338457
0.000960014
0.00357702
0.00099901
0.00374979
0.0010327
0.0039085
0.00106267
0.0040583
0.00420434
0.00109014
4.42168e-06
1.6177e-05
1.87433e-05
8.46678e-05
4.43436e-05
0.000192114
8.23793e-05
0.000340025
0.000133527
0.000528743
0.000197697
0.000756776
0.000273777
0.00102023
0.000359515
0.00131244
0.000451613
0.0016241
0.000546081
0.00194402
0.000638791
0.00226054
0.000726091
0.00256311
0.000805294
0.00284375
0.000874942
0.00309794
0.000934794
0.00332472
0.000985602
0.00352621
0.00102877
0.00370663
0.00106598
0.00387129
0.00109891
0.00402537
0.00417437
0.00112888
4.12124e-06
1.20558e-05
1.76114e-05
7.11777e-05
4.19152e-05
0.00016781
7.83059e-05
0.000303634
0.000127652
0.000479396
0.000190142
0.000694287
0.000265015
0.000945359
0.000350396
0.00122706
0.000443312
0.00153118
0.000539958
0.00184738
0.000636193
0.00216431
0.000728144
0.00247116
0.000812747
0.00275915
0.000888101
0.00302258
0.000953547
0.00325927
0.00100952
0.00347024
0.00105723
0.00365892
0.0010983
0.00383021
0.00113447
0.00398921
0.00414168
0.00116715
3.82699e-06
8.22879e-06
1.649e-05
5.85146e-05
3.94834e-05
0.000144817
7.41763e-05
0.000268941
0.000121605
0.000431968
0.000182213
0.00063368
0.000255577
0.000871994
0.000340206
0.00114243
0.000433485
0.0014379
0.000531855
0.00174901
0.000631236
0.00206493
0.000727595
0.0023748
0.000817534
0.00266921
0.000898708
0.00294141
0.000970008
0.00318797
0.00103149
0.00340876
0.00108413
0.00360628
0.00112944
0.0037849
0.00116917
0.00394948
0.00410603
0.00120482
3.5401e-06
4.68869e-06
1.53845e-05
4.66702e-05
3.70616e-05
0.000123139
7.00169e-05
0.000235986
0.00011543
0.000386554
0.000173973
0.000575136
0.000245545
0.000800423
0.000329033
0.00105894
0.000422208
0.00134473
0.000521812
0.0016494
0.000623897
0.00196284
0.000724349
0.00227435
0.000819482
0.00257408
0.000906524
0.00285437
0.000983899
0.0031106
0.00105124
0.00334141
0.00110922
0.0035483
0.00115917
0.00373495
0.00120282
0.00390583
0.00406712
0.00124174
3.26151e-06
1.42717e-06
1.42993e-05
3.56325e-05
3.46618e-05
0.000102777
6.58519e-05
0.000204796
0.000109169
0.000343238
0.000165488
0.000518817
0.000235002
0.000730908
0.000316975
0.00097697
0.000409575
0.00125213
0.000509893
0.00154908
0.000614185
0.00185855
0.000718335
0.0021702
0.000818436
0.00247398
0.000911322
0.00276148
0.000994938
0.00302698
0.00106846
0.00326789
0.00113218
0.00348458
0.00118721
0.00367991
0.00123519
0.00385785
0.00402459
0.00127772
2.99195e-06
-1.56478e-06
1.32382e-05
2.53862e-05
3.22945e-05
8.37206e-05
6.17035e-05
0.000175387
0.000102861
0.00030208
0.000156818
0.000464861
0.000224037
0.000663689
0.000304138
0.000896869
0.000395697
0.00116057
0.000496187
0.00144859
0.000602139
0.0017526
0.000709519
0.00206282
0.000814272
0.00236922
0.000912888
0.00266287
0.00100284
0.00293703
0.00108282
0.00318791
0.00115269
0.00341472
0.00121325
0.00361935
0.00126602
0.00380508
0.00397806
0.00131255
2.73189e-06
-4.29666e-06
1.22041e-05
1.59139e-05
2.99682e-05
6.59565e-05
5.75909e-05
0.000147764
9.65423e-05
0.000263129
0.000148022
0.000413381
0.000212734
0.000598977
0.000290633
0.000818971
0.000380696
0.00107051
0.000480809
0.00134848
0.000587834
0.00164557
0.000697901
0.00195275
0.000806898
0.00226023
0.000911034
0.00255873
0.00100734
0.00284072
0.001094
0.00310126
0.00117039
0.00333833
0.00123696
0.00355278
0.00129499
0.00374706
0.00392706
0.00134598
2.48151e-06
-6.77817e-06
1.11991e-05
7.19636e-06
2.76899e-05
4.94657e-05
5.35307e-05
0.000121924
9.02459e-05
0.000226414
0.000139157
0.000364469
0.000201179
0.000536955
0.000276572
0.000743578
0.000364706
0.000982371
0.000463893
0.00124929
0.000571373
0.00153809
0.000683523
0.0018406
0.000796264
0.00214749
0.000905604
0.00244939
0.00100818
0.00273814
0.00110166
0.00300777
0.00118492
0.00325507
0.00125795
0.00347975
0.00132176
0.00368325
0.0038711
0.00137772
2.24075e-06
-9.01893e-06
1.02241e-05
-7.87e-07
2.54644e-05
3.42254e-05
4.95361e-05
9.78518e-05
8.39994e-05
0.000191951
0.000130273
0.000318196
0.000189449
0.000477778
0.000262068
0.000670959
0.000347869
0.000896571
0.00044559
0.00115157
0.000552893
0.00143079
0.000666468
0.00172703
0.000782363
0.00203159
0.000896483
0.00233527
0.00100513
0.00262949
0.00110549
0.00290741
0.00119589
0.00316467
0.00127583
0.00339981
0.00134594
0.00361314
0.00380962
0.00140742
2.0093e-06
-1.10282e-05
9.27936e-06
-8.05707e-06
2.32949e-05
2.02099e-05
4.56172e-05
7.55294e-05
7.78263e-05
0.000159742
0.000121413
0.000274609
0.000177621
0.000421571
0.000247231
0.000601349
0.000330327
0.000813475
0.000426068
0.00105583
0.000532556
0.0013243
0.000646857
0.00161272
0.000765241
0.00191321
0.000883604
0.00221691
0.000998007
0.00251508
0.00110519
0.00280024
0.00120293
0.00306693
0.00129018
0.00331256
0.00136712
0.0035362
0.00374204
0.0014347
1.78659e-06
-1.28148e-05
8.36422e-06
-1.46347e-05
2.11824e-05
7.39166e-06
4.17811e-05
5.49308e-05
7.17451e-05
0.000129778
0.000112617
0.000233737
0.000165759
0.000368429
0.000232164
0.000534944
0.000312224
0.000733415
0.000405502
0.000962554
0.000510548
0.00121926
0.000624853
0.00149842
0.000744991
0.00179307
0.000866957
0.00209494
0.000986664
0.00239538
0.00110048
0.00268642
0.00120565
0.00296175
0.00130055
0.00321766
0.00138484
0.00345191
0.00366773
0.00145915
1.57189e-06
-1.43867e-05
7.47739e-06
-2.05402e-05
1.9127e-05
-4.25799e-06
3.8032e-05
3.60258e-05
6.57705e-05
0.000102039
0.000103917
0.000195591
0.000153925
0.00031842
0.000216964
0.000471905
0.000293701
0.000656678
0.000384071
0.000872183
0.000487073
0.00111626
0.000600654
0.00138484
0.00072176
0.00167196
0.000846591
0.00197011
0.000971025
0.00227094
0.00109114
0.00256631
0.00120372
0.00284918
0.00130651
0.00311487
0.00139862
0.0033598
0.00358606
0.00148028
1.36434e-06
-1.5751e-05
6.61711e-06
-2.5793e-05
1.71274e-05
-1.47682e-05
3.43724e-05
1.87808e-05
5.99131e-05
7.64983e-05
9.53388e-05
0.000160165
0.000142171
0.000271588
0.000201719
0.000412357
0.000274889
0.000583508
0.000361956
0.000785115
0.000462349
0.00101586
0.000574484
0.0012727
0.000695742
0.0015507
0.000822619
0.00184323
0.000951077
0.00214248
0.00107702
0.00244037
0.00119682
0.00272938
0.00130764
0.00300405
0.00140796
0.00325947
0.00349641
0.00149762
1.16301e-06
-1.69141e-05
5.78138e-06
-3.04113e-05
1.51815e-05
-2.41683e-05
3.08028e-05
3.15948e-06
5.4181e-05
5.31201e-05
8.69054e-05
0.000127441
0.000130542
0.000227952
0.00018651
0.000356389
0.000255914
0.000514104
0.000339333
0.000701696
0.000436597
0.0009186
0.000546593
0.00116271
0.000667173
0.00143012
0.000795217
0.00171519
0.000926881
0.00201082
0.00105802
0.00230923
0.00118469
0.00260271
0.00130354
0.00288521
0.00141239
0.00315062
0.00339818
0.00151063
9.67017e-07
-1.78811e-05
4.9682e-06
-3.44125e-05
1.32872e-05
-3.24873e-05
2.73232e-05
-1.08766e-05
4.85801e-05
3.18632e-05
7.86349e-05
9.73861e-05
0.000119077
0.00018751
0.000171407
0.000304059
0.000236892
0.000448619
0.000316372
0.000622217
0.000410042
0.000824929
0.000517247
0.0010555
0.00063633
0.00131104
0.000764617
0.0015869
0.000898574
0.00187686
0.00103413
0.00217367
0.00116717
0.00246967
0.00129387
0.00275851
0.00141144
0.00303305
0.00329082
0.00151879
7.75571e-07
-1.86566e-05
4.17586e-06
-3.78128e-05
1.14428e-05
-3.97542e-05
2.39338e-05
-2.33676e-05
4.31159e-05
1.26811e-05
7.05435e-05
6.99586e-05
0.000107812
0.000150241
0.000156477
0.000255393
0.000217931
0.000387165
0.000293234
0.000546914
0.000382907
0.000735256
0.000486721
0.000951687
0.000603515
0.00119425
0.000731109
0.00145931
0.000866368
0.0017416
0.00100544
0.0020346
0.00114415
0.00233096
0.00127835
0.0026243
0.00140468
0.00290673