/*--------------------------------*- C++ -*----------------------------------*\
  =========                 |
  \\      /  F ield         | OpenFOAM: The Open Source CFD Toolbox
   \\    /   O peration     | Website:  https://openfoam.org
    \\  /    A nd           | Version:  7
     \\/     M anipulation  |
\*---------------------------------------------------------------------------*/
FoamFile
{
    version     2.0;
    format      ascii;
    class       volScalarField;
    location    "80";
    object      p;
}
// * * * * * * * * * * * * * * * * * * * * * * * * * * * * * * * * * * * * * //

dimensions      [0 2 -2 0 0 0 0];

internalField   nonuniform List<scalar> 
7156
(
-0.304346
-0.268045
-0.242648
-0.229643
-0.229763
-0.241031
-0.258119
-0.273052
-0.278192
-0.269103
-0.246352
-0.214829
-0.181192
-0.15098
-0.127226
-0.110823
-0.101473
-0.09841
-0.100871
-0.108774
-0.122858
-0.142895
-0.165271
-0.183213
-0.189921
-0.18273
-0.164591
-0.141534
-0.119123
-0.100526
-0.307408
-0.26924
-0.242063
-0.22727
-0.225606
-0.23528
-0.251224
-0.265646
-0.270912
-0.262486
-0.240774
-0.210427
-0.177918
-0.14869
-0.125758
-0.11005
-0.101315
-0.0988198
-0.101826
-0.110302
-0.125029
-0.145736
-0.168676
-0.186908
-0.193522
-0.185892
-0.167116
-0.143388
-0.120383
-0.101299
-0.310185
-0.270176
-0.241253
-0.224707
-0.221279
-0.229353
-0.244127
-0.258016
-0.263404
-0.255656
-0.235011
-0.205871
-0.174518
-0.146295
-0.124202
-0.1092
-0.101087
-0.0991636
-0.102716
-0.111763
-0.12713
-0.148501
-0.172002
-0.190523
-0.19705
-0.18899
-0.169589
-0.145198
-0.121603
-0.102035
-0.312689
-0.270866
-0.240231
-0.221969
-0.216799
-0.223273
-0.236853
-0.250184
-0.255688
-0.248627
-0.229073
-0.201165
-0.170993
-0.143797
-0.122556
-0.10827
-0.100786
-0.0994375
-0.103537
-0.113154
-0.129155
-0.151184
-0.175241
-0.194052
-0.2005
-0.192021
-0.172007
-0.146962
-0.122784
-0.102736
-0.31493
-0.271324
-0.239012
-0.219072
-0.212185
-0.217063
-0.229428
-0.242175
-0.247784
-0.241414
-0.222968
-0.196316
-0.167346
-0.141194
-0.120819
-0.107258
-0.100409
-0.0996377
-0.104284
-0.114468
-0.131098
-0.153777
-0.178385
-0.197488
-0.203866
-0.194983
-0.174368
-0.14868
-0.123926
-0.103403
-0.316924
-0.271566
-0.237612
-0.216032
-0.207458
-0.210745
-0.221877
-0.234013
-0.239713
-0.234032
-0.216708
-0.191328
-0.16358
-0.138486
-0.118989
-0.106161
-0.0999519
-0.0997605
-0.104953
-0.1157
-0.132951
-0.156273
-0.181427
-0.200826
-0.207145
-0.197872
-0.176672
-0.150352
-0.125029
-0.104036
-0.318684
-0.271609
-0.236049
-0.212868
-0.202638
-0.204344
-0.214228
-0.225723
-0.231495
-0.226497
-0.210303
-0.186209
-0.159697
-0.135676
-0.117065
-0.104978
-0.0994129
-0.0998025
-0.105539
-0.116845
-0.13471
-0.158665
-0.184361
-0.204059
-0.210332
-0.200685
-0.178915
-0.151976
-0.126094
-0.104636
-0.320226
-0.271472
-0.234341
-0.2096
-0.197745
-0.197883
-0.206507
-0.217332
-0.223153
-0.218825
-0.203765
-0.180965
-0.1557
-0.132762
-0.115047
-0.103706
-0.098789
-0.0997602
-0.106039
-0.117899
-0.136369
-0.160947
-0.18718
-0.207181
-0.213421
-0.20342
-0.181098
-0.153553
-0.127121
-0.105205
-0.321566
-0.271174
-0.232509
-0.206245
-0.1928
-0.191384
-0.19874
-0.208864
-0.21471
-0.211033
-0.197106
-0.175603
-0.151594
-0.129748
-0.112934
-0.102345
-0.0980778
-0.0996305
-0.106448
-0.118856
-0.137921
-0.163112
-0.189878
-0.210186
-0.216409
-0.206073
-0.183217
-0.155082
-0.12811
-0.105742
-0.322719
-0.270733
-0.230572
-0.202825
-0.187825
-0.184873
-0.190953
-0.200347
-0.206187
-0.203138
-0.190339
-0.170132
-0.147383
-0.126633
-0.110726
-0.100892
-0.0972772
-0.0994104
-0.106764
-0.119711
-0.139361
-0.165155
-0.192448
-0.213071
-0.219292
-0.208642
-0.185273
-0.156563
-0.129063
-0.10625
-0.323702
-0.27017
-0.228552
-0.19936
-0.182842
-0.17837
-0.183171
-0.191807
-0.197607
-0.195136
-0.183476
-0.164559
-0.143071
-0.123421
-0.108424
-0.0993467
-0.0963852
-0.0990972
-0.106981
-0.120462
-0.140684
-0.167069
-0.194885
-0.215828
-0.222066
-0.211124
-0.187264
-0.157997
-0.129979
-0.106728
-0.324532
-0.269504
-0.226468
-0.19587
-0.17787
-0.1719
-0.175419
-0.183268
-0.188994
-0.187044
-0.17653
-0.158894
-0.138663
-0.120114
-0.106027
-0.0977088
-0.0954
-0.0986884
-0.107098
-0.121102
-0.141885
-0.168849
-0.197183
-0.218454
-0.224741
-0.213518
-0.189189
-0.159382
-0.130859
-0.107179
-0.325222
-0.268754
-0.224341
-0.192376
-0.172931
-0.165483
-0.16772
-0.174757
-0.180371
-0.179518
-0.169518
-0.153144
-0.134164
-0.116713
-0.103538
-0.0959776
-0.0943202
-0.0981815
-0.107111
-0.12163
-0.142959
-0.17049
-0.199336
-0.220943
-0.227286
-0.215821
-0.191046
-0.160718
-0.131705
-0.107603
-0.32579
-0.267939
-0.222193
-0.188897
-0.168045
-0.159143
-0.160098
-0.166296
-0.171752
-0.171342
-0.162446
-0.147319
-0.129581
-0.113223
-0.100956
-0.0941529
-0.0931446
-0.0975747
-0.107018
-0.12204
-0.143902
-0.171988
-0.20134
-0.223291
-0.229712
-0.218031
-0.192835
-0.162007
-0.132516
-0.108002
-0.326249
-0.267078
-0.220042
-0.185454
-0.163231
-0.152899
-0.152574
-0.157911
-0.16316
-0.163178
-0.155331
-0.141427
-0.124918
-0.109646
-0.0982843
-0.092235
-0.0918723
-0.096866
-0.106815
-0.12233
-0.144711
-0.173336
-0.203191
-0.225494
-0.232016
-0.220145
-0.194556
-0.163247
-0.133293
-0.108375
-0.326613
-0.266188
-0.217909
-0.182066
-0.158508
-0.146772
-0.145169
-0.149622
-0.154619
-0.155046
-0.148184
-0.135479
-0.120182
-0.105987
-0.0955237
-0.0902242
-0.0905026
-0.096054
-0.1065
-0.122496
-0.145381
-0.174533
-0.204884
-0.227549
-0.234194
-0.222162
-0.196206
-0.164439
-0.134038
-0.108726
-0.326896
-0.265285
-0.215811
-0.178751
-0.153896
-0.14078
-0.137903
-0.141452
-0.146151
-0.146946
-0.14102
-0.129484
-0.11538
-0.102249
-0.0926767
-0.0881214
-0.0890352
-0.0951375
-0.106073
-0.122537
-0.145909
-0.175573
-0.206415
-0.229451
-0.236243
-0.224081
-0.197786
-0.165583
-0.13475
-0.109054
-0.327111
-0.264385
-0.213766
-0.175527
-0.14941
-0.134942
-0.130794
-0.133421
-0.137775
-0.138891
-0.133852
-0.123452
-0.110518
-0.0984357
-0.0897457
-0.0859276
-0.08747
-0.0941155
-0.10553
-0.122449
-0.146293
-0.176455
-0.207782
-0.231199
-0.238161
-0.225899
-0.199295
-0.166679
-0.135431
-0.109361
-0.327268
-0.263503
-0.21179
-0.172411
-0.145067
-0.129276
-0.123861
-0.125548
-0.129511
-0.130897
-0.126694
-0.117393
-0.105603
-0.0945528
-0.0867336
-0.0836442
-0.0858072
-0.0929874
-0.104871
-0.122232
-0.14653
-0.177174
-0.20898
-0.232788
-0.239946
-0.227616
-0.200732
-0.167727
-0.136081
-0.109649
-0.327379
-0.26265
-0.209899
-0.169417
-0.140882
-0.123797
-0.117121
-0.11785
-0.121378
-0.122978
-0.119558
-0.111317
-0.100642
-0.0906047
-0.0836436
-0.081273
-0.0840474
-0.0917527
-0.104094
-0.121883
-0.146618
-0.177729
-0.210008
-0.234216
-0.241596
-0.229229
-0.202097
-0.168728
-0.136702
-0.109917
-0.327453
-0.26184
-0.208104
-0.166562
-0.136869
-0.118519
-0.11059
-0.110344
-0.113395
-0.115149
-0.112458
-0.105233
-0.0956426
-0.0865965
-0.0804789
-0.0788158
-0.0821914
-0.0904114
-0.103199
-0.1214
-0.146556
-0.178118
-0.210864
-0.235482
-0.243108
-0.230738
-0.203389
-0.169682
-0.137293
-0.110168
-0.327499
-0.261083
-0.20642
-0.163857
-0.133042
-0.113455
-0.104283
-0.103045
-0.105577
-0.107425
-0.105407
-0.0991513
-0.0906121
-0.0825336
-0.0772432
-0.0762749
-0.0802403
-0.0889638
-0.102186
-0.120784
-0.146342
-0.17834
-0.211546
-0.236583
-0.244481
-0.232141
-0.204607
-0.170589
-0.137856
-0.110402
-0.260388
-0.204856
-0.161314
-0.129411
-0.108619
-0.0982124
-0.0959665
-0.0979403
-0.0998216
-0.098415
-0.0930815
-0.085558
-0.0784214
-0.0739406
-0.073653
-0.0781954
-0.0874103
-0.101054
-0.120034
-0.145976
-0.178393
-0.212053
-0.237519
-0.245713
-0.233438
-0.205753
-0.17145
-0.138392
-0.11062
-0.259764
-0.203422
-0.158944
-0.125987
-0.10402
-0.0923918
-0.0891219
-0.0904994
-0.092352
-0.0914853
-0.0870325
-0.0804877
-0.0742658
-0.0705753
-0.0709527
-0.0760586
-0.0857518
-0.0998033
-0.119149
-0.145457
-0.178277
-0.212384
-0.238288
-0.246804
-0.234627
-0.206824
-0.172264
-0.138901
-0.110824
-0.259217
-0.202126
-0.156756
-0.122779
-0.0996672
-0.086832
-0.0825233
-0.0832674
-0.0850299
-0.0846468
-0.0810135
-0.0754088
-0.0700725
-0.0671515
-0.0681773
-0.0738317
-0.0839894
-0.0984348
-0.11813
-0.144785
-0.177993
-0.21254
-0.23889
-0.247752
-0.235708
-0.207821
-0.173032
-0.139384
-0.111015
-0.258753
-0.200974
-0.154756
-0.119795
-0.095569
-0.0815428
-0.0761816
-0.0762561
-0.0778685
-0.0779027
-0.0750336
-0.0703286
-0.0658477
-0.063674
-0.0653301
-0.071517
-0.0821244
-0.0969492
-0.116977
-0.143962
-0.17754
-0.212519
-0.239324
-0.248557
-0.23668
-0.208744
-0.173755
-0.139842
-0.111193
-0.258376
-0.199971
-0.152951
-0.117041
-0.0917317
-0.0765324
-0.070107
-0.0694765
-0.07088
-0.071224
-0.0691028
-0.0652548
-0.0615973
-0.0601476
-0.0624146
-0.0691171
-0.0801586
-0.0953476
-0.115692
-0.142987
-0.176919
-0.212324
-0.239591
-0.249218
-0.237543
-0.209592
-0.174432
-0.140275
-0.11136
-0.258089
-0.199121
-0.151344
-0.114523
-0.0881605
-0.071808
-0.0643087
-0.0629382
-0.0640768
-0.0646716
-0.0632306
-0.0601944
-0.0573276
-0.0565772
-0.0594346
-0.0666345
-0.0780938
-0.0936315
-0.114275
-0.141863
-0.176133
-0.211955
-0.23969
-0.249734
-0.238296
-0.210365
-0.175064
-0.140685
-0.111517
-0.257896
-0.198426
-0.14994
-0.112243
-0.0848595
-0.067375
-0.0587948
-0.0566501
-0.0574704
-0.0582608
-0.0574243
-0.0551549
-0.0530448
-0.0529679
-0.056394
-0.0640724
-0.0759323
-0.0918026
-0.112728
-0.14059
-0.175181
-0.211413
-0.239624
-0.250106
-0.238938
-0.211063
-0.175651
-0.141071
-0.111664
-0.257797
-0.197887
-0.14874
-0.110205
-0.0818315
-0.0632376
-0.0535724
-0.0506202
-0.0510705
-0.0519918
-0.0516913
-0.0501433
-0.048755
-0.0493249
-0.0532971
-0.0614338
-0.0736765
-0.0898628
-0.111052
-0.13917
-0.174068
-0.2107
-0.239392
-0.250333
-0.23947
-0.211686
-0.176194
-0.141435
-0.111802
-0.257792
-0.197505
-0.147744
-0.108409
-0.0790779
-0.0593988
-0.0486475
-0.0448558
-0.0448854
-0.0458693
-0.0460398
-0.0451666
-0.0444644
-0.0456534
-0.0501482
-0.0587224
-0.0713291
-0.0878144
-0.109251
-0.137607
-0.172794
-0.20982
-0.238997
-0.250416
-0.239891
-0.212233
-0.176692
-0.141777
-0.111933
-0.257882
-0.197278
-0.146951
-0.106856
-0.0765994
-0.05586
-0.0440249
-0.0393632
-0.0389228
-0.0399018
-0.0404777
-0.0402315
-0.0401789
-0.0419588
-0.0469516
-0.0559416
-0.0688931
-0.0856599
-0.107326
-0.135902
-0.171363
-0.208773
-0.238441
-0.250356
-0.2402
-0.212704
-0.177147
-0.142098
-0.112056
-0.258064
-0.197204
-0.14636
-0.105544
-0.0743951
-0.0526217
-0.039708
-0.0341484
-0.0331895
-0.0340978
-0.0350134
-0.0353445
-0.0359047
-0.0382462
-0.0437119
-0.0530953
-0.0663716
-0.0834022
-0.10528
-0.134058
-0.169778
-0.207565
-0.237725
-0.250167
-0.240399
-0.213099
-0.177557
-0.142397
-0.112174
-0.0883238
-0.258337
-0.19728
-0.145967
-0.10447
-0.0724635
-0.0496832
-0.0356993
-0.0292163
-0.0276918
-0.0284658
-0.0296538
-0.0305117
-0.0316474
-0.0345209
-0.0404338
-0.0501874
-0.063768
-0.0810441
-0.103116
-0.132078
-0.168042
-0.206197
-0.236852
-0.24982
-0.240485
-0.213418
-0.177924
-0.142676
-0.112286
-0.0882378
-0.258699
-0.197504
-0.145768
-0.103632
-0.0708018
-0.0470428
-0.0319999
-0.0245713
-0.0224352
-0.0230136
-0.0243912
-0.0257391
-0.0274126
-0.0307882
-0.0371219
-0.047222
-0.0610858
-0.0785888
-0.100838
-0.129966
-0.166158
-0.204674
-0.235825
-0.249332
-0.24046
-0.21366
-0.178247
-0.142936
-0.112394
-0.0881558
-0.259145
-0.197871
-0.14576
-0.103024
-0.0694063
-0.0446978
-0.0286099
-0.0202171
-0.0174245
-0.0177478
-0.0192389
-0.0210332
-0.023206
-0.027053
-0.0337811
-0.0442033
-0.0583287
-0.0760399
-0.0984474
-0.127726
-0.164132
-0.202999
-0.234646
-0.248704
-0.240324
-0.213826
-0.178527
-0.143176
-0.112497
-0.0880785
-0.259673
-0.198375
-0.145936
-0.102642
-0.0682724
-0.0426444
-0.0255281
-0.0161563
-0.012664
-0.0126754
-0.0144654
-0.0164007
-0.0190327
-0.0233205
-0.0304159
-0.0411358
-0.0555007
-0.0734008
-0.0959493
-0.12536
-0.161966
-0.201177
-0.233319
-0.247937
-0.240075
-0.213914
-0.178763
-0.143396
-0.112596
-0.0880067
-0.260278
-0.199012
-0.14629
-0.102479
-0.0673947
-0.0408784
-0.0227525
-0.0123908
-0.00815753
-0.00779897
-0.00954819
-0.0118461
-0.0148979
-0.0195953
-0.0270311
-0.0380237
-0.0526059
-0.0706755
-0.0933471
-0.122874
-0.159665
-0.199212
-0.231848
-0.247032
-0.239714
-0.213925
-0.178956
-0.143598
-0.112693
-0.0879409
-0.199775
-0.146817
-0.102528
-0.066767
-0.0393946
-0.0202802
-0.0089217
-0.00390824
-0.00312475
-0.00478525
-0.00737679
-0.0108065
-0.0158823
-0.0236315
-0.0348717
-0.0496483
-0.0678677
-0.0906447
-0.12027
-0.157234
-0.197108
-0.230236
-0.245991
-0.239241
-0.213857
-0.179105
-0.143781
-0.112787
-0.0878819
-0.20066
-0.147508
-0.102782
-0.0663819
-0.038187
-0.0181072
-0.005749
8.10355e-05
0.00134057
-0.00019582
-0.00299688
-0.00676335
-0.0121861
-0.0202216
-0.0316841
-0.0466324
-0.0649818
-0.0878463
-0.117554
-0.154676
-0.194871
-0.228487
-0.244814
-0.238655
-0.21371
-0.17921
-0.143946
-0.112879
-0.08783
-0.201657
-0.148356
-0.103232
-0.066231
-0.0372481
-0.0162283
-0.00287154
0.00380827
0.00559326
0.00422951
0.00128842
-0.00277359
-0.00851106
-0.0168061
-0.0284657
-0.0435626
-0.0620218
-0.0849559
-0.114729
-0.151997
-0.192505
-0.226604
-0.243504
-0.237955
-0.213485
-0.179271
-0.144093
-0.112969
-0.0877857
-0.20276
-0.149353
-0.103869
-0.0663054
-0.0365705
-0.0146381
-0.00028785
0.00727158
0.00963045
0.00849241
0.00547313
0.00115771
-0.00486179
-0.0133896
-0.0252211
-0.0404434
-0.0589923
-0.0819781
-0.111799
-0.149201
-0.190015
-0.224592
-0.24206
-0.237141
-0.213179
-0.179287
-0.144221
-0.113057
-0.0877495
-0.203971
-0.150498
-0.104692
-0.0666022
-0.0361509
-0.0133342
0.0020016
0.0104676
0.0134483
0.0125891
0.00955053
0.00502501
-0.00124294
-0.00997651
-0.0219549
-0.0372795
-0.0558978
-0.0789173
-0.10877
-0.146293
-0.187405
-0.222451
-0.240483
-0.236211
-0.21279
-0.179259
-0.144332
-0.113145
-0.0877236
-0.205298
-0.151797
-0.105702
-0.0671197
-0.0359866
-0.0123142
0.00399695
0.0133941
0.0170439
0.0165144
0.0135129
0.0088219
0.00234015
-0.00657191
-0.018672
-0.0340757
-0.0527429
-0.075778
-0.105646
-0.143277
-0.184679
-0.220185
-0.23877
-0.23516
-0.21232
-0.179188
-0.144428
-0.113237
-0.0877093
-0.206692
-0.153205
-0.106857
-0.0678219
-0.0360471
-0.0115535
0.00571707
0.0160638
0.0204261
0.0202713
0.0173566
0.0125446
0.005883
-0.00318049
-0.0153773
-0.030837
-0.0495325
-0.0725652
-0.102431
-0.140158
-0.181842
-0.217798
-0.236928
-0.233995
-0.21177
-0.179071
-0.144503
-0.11332
-0.0876979
-0.208024
-0.154602
-0.108056
-0.0686223
-0.0362618
-0.0109966
0.00720155
0.018502
0.0236117
0.0238712
0.0211331
0.0161976
0.00938634
0.00019623
-0.0120742
-0.0275675
-0.0462714
-0.0692845
-0.0991315
-0.136945
-0.178906
-0.215308
-0.234981
-0.232734
-0.211141
-0.178892
-0.144532
-0.113375
-0.0876706
-0.209398
-0.156087
-0.109383
-0.0695913
-0.0366901
-0.0106991
0.00839245
0.0206474
0.0265449
0.0272743
0.0248284
0.0197619
0.0128432
0.0035555
-0.00876477
-0.0242703
-0.0429633
-0.06594
-0.0957532
-0.133643
-0.175874
-0.212706
-0.232898
-0.231333
-0.210402
-0.178648
-0.144535
-0.113431
-0.0876613
-0.211639
-0.1584
-0.111478
-0.0712645
-0.0377725
-0.0110198
0.00900036
0.0222701
0.0290431
0.0303198
0.0274668
0.0231214
0.0161782
0.00685229
-0.0054752
-0.020962
-0.0396162
-0.0625243
-0.0922636
-0.130181
-0.172608
-0.209769
-0.230391
-0.229592
-0.209512
-0.178433
-0.144679
-0.113669
-0.0878317
-0.214868
-0.161642
-0.114411
-0.0736802
-0.0395099
-0.0119071
0.00914901
0.0235575
0.031308
0.0331664
0.0306339
0.0262376
0.0193118
0.0100034
-0.0022724
-0.0176897
-0.0362602
-0.0590448
-0.0886287
-0.126463
-0.168949
-0.206336
-0.227384
-0.227563
-0.208604
-0.178374
-0.145044
-0.114118
-0.0881752
-0.161581
-0.114445
-0.0735988
-0.0391253
-0.010986
0.0108671
0.0262284
0.0348118
0.0371377
0.0346789
0.0300133
0.0228231
0.0133325
0.00100677
-0.014366
-0.0328934
-0.055708
-0.0854035
-0.123509
-0.166512
-0.204578
-0.226238
-0.226761
-0.208063
-0.177977
-0.144661
-0.113689
-0.0876771
-0.153463
-0.107238
-0.066956
-0.0327119
-0.00444447
0.0179326
0.0343206
0.0444374
0.0485387
0.0476834
0.0428089
0.0347593
0.0242894
0.0111997
-0.00457187
-0.0235956
-0.0478668
-0.0804375
-0.122625
-0.169932
-0.21085
-0.233299
-0.230755
-0.208874
-0.176629
-0.142111
-0.110675
-0.0846188
-0.143561
-0.0997467
-0.061115
-0.0278047
0.000256073
0.0230986
0.0403994
0.0515497
0.0563977
0.0557546
0.0512195
0.0437333
0.0333014
0.0201668
0.00430386
-0.0150139
-0.0399418
-0.0734177
-0.116265
-0.163222
-0.202677
-0.223442
-0.221071
-0.199783
-0.168361
-0.135086
-0.104961
-0.079999
-0.134455
-0.092888
-0.0558347
-0.0234923
0.00417075
0.0271637
0.0451099
0.0572942
0.063326
0.0637532
0.0596136
0.0520309
0.0414893
0.0282535
0.0122443
-0.0073488
-0.0326133
-0.0662141
-0.108622
-0.154532
-0.193112
-0.213663
-0.211134
-0.190227
-0.159842
-0.127929
-0.0991434
-0.0752713
-0.125936
-0.0866141
-0.051172
-0.019868
0.00725904
0.0301914
0.0485788
0.0617261
0.0690999
0.0708273
0.0675854
0.0604529
0.0500994
0.0369121
0.0208348
0.000984392
-0.0246945
-0.0586621
-0.101091
-0.146617
-0.184494
-0.203857
-0.200506
-0.179883
-0.150634
-0.120272
-0.0930045
-0.070352
-0.118037
-0.0809145
-0.0471067
-0.016921
0.00953304
0.0322029
0.050789
0.064664
0.0732287
0.0763016
0.0743766
0.068199
0.0584508
0.0456034
0.0296182
0.00954723
-0.0166516
-0.0512206
-0.0938971
-0.138872
-0.175198
-0.192716
-0.188713
-0.168609
-0.140813
-0.112248
-0.086645
-0.0652995
-0.110732
-0.0757511
-0.0435855
-0.0145799
0.0110937
0.0333379
0.0518975
0.0662366
0.0757817
0.0801898
0.0796794
0.0747237
0.0658928
0.0536261
0.0378625
0.0176232
-0.00906053
-0.0441022
-0.0866541
-0.130411
-0.164675
-0.18042
-0.175891
-0.156599
-0.130536
-0.103956
-0.0801268
-0.060155
-0.103994
-0.0710834
-0.0405518
-0.0127701
0.0120409
0.0337368
0.0520895
0.0666571
0.0769185
0.0825065
0.0833708
0.0797571
0.0720406
0.060531
0.0451064
0.0248026
-0.00218283
-0.0373288
-0.0791952
-0.121197
-0.153169
-0.167147
-0.162242
-0.144039
-0.119946
-0.0954978
-0.0735198
-0.0549651
-0.0977862
-0.0668685
-0.0379501
-0.0114199
0.0124657
0.0335214
0.0515297
0.0661284
0.0768574
0.0833559
0.0854412
0.0831487
0.0766278
0.0659997
0.0510467
0.0308451
0.00383108
-0.0309929
-0.0716559
-0.111449
-0.140858
-0.153048
-0.147972
-0.13113
-0.109199
-0.0869808
-0.0668939
-0.049775
-0.0920718
-0.063064
-0.0357281
-0.0104628
0.0124512
0.0327969
0.0503566
0.0648271
0.075791
0.0829263
0.0859933
0.0848701
0.0795021
0.0698088
0.0554548
0.0355628
0.00884337
-0.0252058
-0.0641304
-0.101227
-0.127829
-0.138309
-0.133328
-0.118091
-0.0984546
-0.0785092
-0.0603162
-0.0446285
-0.0868109
-0.0596288
-0.0338372
-0.00983784
0.012073
0.0316562
0.0486886
0.0629085
0.0739156
0.0814437
0.0852259
0.0850418
0.0806825
0.0718958
0.0582358
0.0388784
0.0128248
-0.0199372
-0.0565482
-0.0905158
-0.11421
-0.123181
-0.118583
-0.105145
-0.0878666
-0.0701817
-0.0538495
-0.0395664
-0.0819649
-0.0565238
-0.0322329
-0.00949011
0.0113985
0.030181
0.0466289
0.0605099
0.0714071
0.0791322
0.083392
0.083907
0.0803689
0.0724069
0.0595041
0.040914
0.0159347
-0.015
-0.0487774
-0.0793453
-0.100196
-0.107965
-0.104026
-0.0925094
-0.0775779
-0.0620874
-0.0475501
-0.0346258
-0.0774963
-0.0537126
-0.0308743
-0.00937043
0.0104886
0.0284432
0.04426
0.0577467
0.0684154
0.0761946
0.0807477
0.0817633
0.0788777
0.0716572
0.0595687
0.0419784
0.018475
-0.0101525
-0.0407345
-0.0678453
-0.086076
-0.0929921
-0.0899387
-0.0803794
-0.0677119
-0.0543025
-0.0414664
-0.0298393
-0.0733694
-0.0511608
-0.0297238
-0.00943464
0.00939709
0.026507
0.0416487
0.0545217
0.0650616
0.0728008
0.0775173
0.0788946
0.0765465
0.0700224
0.0588207
0.0424492
0.0207596
-0.00522195
-0.0324596
-0.0562599
-0.0722378
-0.0786098
-0.0765752
-0.0689175
-0.0583674
-0.0468884
-0.0356385
-0.0252344
-0.0695505
-0.0488366
-0.0287473
-0.00964296
0.00817171
0.0244318
0.0388909
0.0512891
0.061474
0.0690892
0.0738805
0.0755316
0.0736586
0.0678271
0.0575986
0.0426283
0.0229837
-0.000195919
-0.0241509
-0.0449378
-0.0590494
-0.0651296
-0.0641392
-0.0582438
-0.0496157
-0.0398904
-0.0300974
-0.0208337
-0.066008
-0.0467103
-0.0279135
-0.00995959
0.00685486
0.0222682
0.0360382
0.0479238
0.057732
0.0651696
0.0699758
0.0718455
0.0704158
0.0652916
0.0561104
0.042661
0.0251641
0.00476526
-0.0161268
-0.0342661
-0.0468506
-0.0527857
-0.0527658
-0.0484318
-0.0415007
-0.0333389
-0.0248656
-0.0166546
-0.0627122
-0.0447546
-0.0271939
-0.0103524
0.005484
0.0200598
0.0331384
0.0444896
0.0539062
0.0611303
0.0659098
0.0679595
0.0669503
0.0625392
0.0544408
0.0425513
0.0271812
0.00940888
-0.00872108
-0.0245696
-0.0358789
-0.0417132
-0.0425187
-0.0395113
-0.0340411
-0.0272501
-0.0199581
-0.0127097
-0.0596358
-0.0429445
-0.0265628
-0.0107929
0.00409218
0.0178449
0.0302355
0.0410427
0.050057
0.0570442
0.0617672
0.0639657
0.0633511
0.0596363
0.0526074
0.042239
0.0288805
0.0135046
-0.00218147
-0.0160438
-0.0262449
-0.0319486
-0.0333985
-0.0314758
-0.0272353
-0.0216288
-0.015383
-0.00900744
-0.0567535
-0.0412568
-0.025997
-0.0112556
0.00270832
0.015657
0.0273686
0.0376302
0.0462367
0.0529721
0.0576167
0.0599368
0.0596852
0.0566287
0.0506149
0.0416719
0.030155
0.0169177
0.00337356
-0.00874657
-0.0179399
-0.0234491
-0.0253591
-0.024292
-0.0210665
-0.0164706
-0.0111424
-0.00555235
-0.054042
-0.0396709
-0.0254759
-0.0117184
0.00135753
0.013525
0.0245711
0.0342918
0.0424899
0.0489648
0.0535149
0.0559327
0.0560092
0.0535598
0.0484819
0.0408387
0.0309722
0.0196201
0.00794811
-0.00262735
-0.0108791
-0.0161234
-0.0183254
-0.0179101
-0.0155075
-0.011764
-0.00723404
-0.00234559
-0.0514803
-0.038168
-0.0249814
-0.0121621
6.12137e-05
0.0114734
0.0218714
0.0310608
0.0388538
0.0450644
0.0495082
0.0520026
0.0523722
0.0504736
0.046243
0.0397654
0.0313598
0.0216597
0.0116292
0.00242668
-0.00494258
-0.0098577
-0.0122083
-0.0122713
-0.0105244
-0.00749258
-0.00365144
0.000614528
-0.0490495
-0.0367317
-0.0244978
-0.0125704
-0.00116276
0.00952258
0.019293
0.0279641
0.0353589
0.0413048
0.0456344
0.0481868
0.0488159
0.047412
0.0439406
0.0384987
0.0313784
0.0231226
0.0145314
0.00655157
9.98873e-06
-0.00452973
-0.0069153
-0.0073135
-0.00608
-0.00363619
-0.000385117
0.00333219
-0.0467327
-0.0353477
-0.024012
-0.0129299
-0.00229986
0.00768889
0.0168546
0.0250234
0.0320294
0.0377131
0.0419226
0.044517
0.0453745
0.044412
0.0416167
0.0370907
0.031098
0.0241029
0.0167719
0.00988767
0.00411843
-2.12168e-05
-0.00235645
-0.00297468
-0.00213536
-0.000172372
0.00257691
0.00581363
-0.044515
-0.0340035
-0.0235127
-0.01323
-0.00333855
0.00598496
0.0145706
0.0222551
0.0288837
0.0343097
0.0383954
0.0410173
0.0420743
0.0415036
0.0393082
0.0355897
0.0305853
0.0246907
0.0184628
0.0125533
0.00750364
0.00377493
0.00155224
0.000804795
0.00134858
0.00292281
0.00524849
0.00806682
-0.0423834
-0.0326886
-0.0229913
-0.0134622
-0.00427032
0.0044203
0.0124514
0.019671
0.0259353
0.0311092
0.0350686
0.0377054
0.0389348
0.0387104
0.037045
0.0340375
0.029898
0.0249655
0.0197041
0.0146283
0.0102697
0.00695423
0.00488777
0.00408133
0.00441024
0.00567406
0.00764488
0.0101011
-0.0403267
-0.0313946
-0.0224407
-0.0136207
-0.00508947
0.00300106
0.0105041
0.017279
0.0231928
0.0281213
0.031953
0.0345927
0.0359696
0.0360492
0.0348507
0.0324675
0.029085
0.0249945
0.0205822
0.0162742
0.012517
0.00960225
0.00771964
0.00690748
0.00708676
0.0081063
0.00978224
0.011927
-0.0383353
-0.0301144
-0.0218559
-0.0137014
-0.00579274
0.00173034
0.00873239
0.0150833
0.0206608
0.0253513
0.0290543
0.0316863
0.0331873
0.0335321
0.0327429
0.0309063
0.028186
0.0248312
0.0211634
0.0175378
0.0143272
0.0117936
0.0101102
0.00933181
0.00941363
0.0102443
0.0116773
0.0135558
-0.0364014
-0.0288425
-0.0212333
-0.0137023
-0.00637888
0.000608949
0.00713701
0.0130849
0.0183406
0.0228006
0.0263747
0.0289888
0.0305923
0.0311662
0.0307343
0.0293751
0.0272324
0.0245185
0.0215051
0.0184833
0.0157682
0.0135928
0.0121152
0.0113989
0.0114245
0.0121122
0.0133471
0.0149993
-0.0345181
-0.0275749
-0.0205711
-0.0136229
-0.00684824
-0.000364165
0.0057159
0.0112814
0.0162303
0.0204678
0.0239127
0.0264998
0.0281855
0.0289556
0.0288335
0.0278897
0.0262493
0.024094
0.021656
0.0191644
0.0168969
0.0150559
0.0137841
0.0131496
0.0131509
0.0137334
0.0148084
0.0162696
-0.0326804
-0.0263088
-0.0198683
-0.0134641
-0.007203
-0.0011917
0.00446558
0.0096683
0.0143255
0.0183486
0.0216647
0.0242161
0.0259654
0.0269013
0.0270461
0.026462
0.0252568
0.0235863
0.0216568
0.0196269
0.0177629
0.0162314
0.015161
0.0146208
0.0146224
0.0151305
0.0160781
0.0173791
-0.0308839
-0.0250424
-0.0191256
-0.0132281
-0.0074468
-0.0018786
0.00338088
0.00824008
0.0126206
0.0164369
0.0196245
0.0221324
0.0239281
0.0250021
0.0253748
0.0251006
0.0242714
0.0230173
0.0214864
0.0199075
0.0184088
0.0171618
0.0162848
0.0158461
0.0158662
0.0163248
0.0171722
0.0183399
-0.0291255
-0.0237749
-0.0183441
-0.0129181
-0.00758433
-0.00243092
0.00245554
0.00698995
0.0111085
0.014725
0.0177845
0.020242
0.0220681
0.0232551
0.0238205
0.0238116
0.0233072
0.0224171
0.0212732
0.0200481
0.0188719
0.017884
0.0171901
0.016856
0.0169077
0.0173363
0.0181064
0.0191641
-0.0274028
-0.0225064
-0.0175261
-0.0125381
-0.00762118
-0.00285485
0.00168382
0.00592592
0.00978081
0.0132034
0.0161359
0.0185366
0.020379
0.021656
0.0223826
0.0225994
0.0223737
0.0217985
0.0209863
0.0200748
0.0191837
0.0184301
0.0179074
0.0176776
0.01777
0.0181842
0.0188958
0.0198633
-0.0257142
-0.0212376
-0.0166742
-0.0120926
-0.00756356
-0.00315851
0.00105267
0.00500336
0.00862328
0.0118618
0.0146689
0.0170073
0.0188531
0.0201996
0.0210592
0.0214663
0.0214778
0.0211724
0.0206463
0.0200103
0.0193709
0.0188279
0.0184636
0.0183354
0.0184744
0.0188859
0.0195545
0.0204488
-0.0240588
-0.0199695
-0.0157917
-0.0115868
-0.00741807
-0.00335001
0.000553921
0.00423302
0.00762826
0.01069
0.0133733
0.0156445
0.0174824
0.01888
0.0198473
0.0204131
0.0206256
0.0205506
0.0202696
0.0198742
0.0194562
0.0191016
0.0188824
0.0188516
0.0190401
0.0194578
0.0200959
0.0209314
-0.0224361
-0.0187039
-0.0148823
-0.011026
-0.00719176
-0.00343742
0.000179388
0.0036038
0.00678528
0.00967726
0.0122384
0.0144385
0.0162582
0.0176905
0.0187432
0.0194398
0.0198209
0.0199415
0.0198699
0.0196831
0.0194591
0.0192719
0.0191847
0.0192456
0.0194848
0.019915
0.0205327
0.0213213
-0.020846
-0.0174428
-0.0139497
-0.0104158
-0.00689171
-0.00342918
-8.01061e-05
0.00310563
0.00608402
0.00881193
0.0112531
0.013379
0.0151718
0.0166244
0.0177424
0.0185453
0.0190662
0.0193516
0.0194585
0.0194513
0.0193963
0.0193571
0.0193888
0.0195349
0.0198244
0.0202713
0.0208764
0.0216283
-0.0192888
-0.0161882
-0.0129981
-0.00976194
-0.00652511
-0.00333393
-0.000234508
0.0027283
0.00551332
0.00808304
0.0104065
0.0124558
0.0142142
0.0156744
0.0168403
0.0177275
0.0183635
0.0187865
0.0190443
0.0191907
0.0192821
0.0193727
0.0195108
0.0197352
0.0200731
0.0205396
0.021138
0.0218613
-0.0177651
-0.0149427
-0.0120314
-0.00907015
-0.00609918
-0.00315987
-0.000293346
0.00246042
0.00506342
0.00748254
0.00968897
0.0116591
0.0133764
0.014833
0.0160319
0.0169844
0.0177133
0.0182501
0.0186344
0.0189114
0.0191285
0.0193323
0.0195647
0.0198601
0.0202439
0.0207313
0.0213275
0.0220289
-0.0162754
-0.0137084
-0.0110539
-0.00834601
-0.00562088
-0.00291522
-0.000265774
0.00229173
0.00472343
0.00699913
0.00909161
0.0109803
0.0126506
0.0140947
0.0153124
0.0163137
0.0171161
0.0177454
0.0182346
0.0186215
0.018946
0.0192476
0.0195627
0.0199219
0.0203484
0.0208569
0.0214541
0.0221389
-0.0148207
-0.012488
-0.0100693
-0.007595
-0.00509698
-0.00260797
-0.000160712
0.00221286
0.00448252
0.00662072
0.00860322
0.010411
0.0120296
0.0134519
0.0146773
0.0157123
0.016571
0.0172744
0.0178496
0.018328
0.0187431
0.0191286
0.0195157
0.0199315
0.0203968
0.020926
0.0215264
0.0221986
-0.0134017
-0.0112838
-0.00908171
-0.00682238
-0.00453406
-0.0022458
1.32534e-05
0.0022146
0.00433116
0.00633806
0.0082135
0.00993984
0.0115039
0.0128981
0.014121
0.015177
0.0160772
0.0168384
0.0174828
0.0180364
0.0185272
0.0189838
0.0194329
0.0198982
0.0203984
0.0209471
0.0215519
0.0222148
-0.0120193
-0.0100981
-0.00809481
-0.00603324
-0.00393838
-0.001836
0.000247993
0.0022882
0.00426036
0.00614211
0.00791377
0.00955907
0.0110657
0.0124262
0.0136381
0.0147043
0.0156331
0.016438
0.017137
0.0177514
0.0183046
0.0188206
0.0193223
0.0198303
0.0203614
0.020928
0.0215378
0.0221937
-0.0106745
-0.00893319
-0.00711215
-0.00523234
-0.00331585
-0.00138547
0.000535814
0.00242535
0.00426145
0.00602405
0.00769532
0.00926034
0.0107076
0.0120297
0.0132235
0.0142906
0.015237
0.0160733
0.016814
0.0174765
0.0180802
0.0186452
0.0191909
0.0197352
0.0202929
0.0208755
0.0214902
0.0221407
-0.00936799
-0.00779113
-0.00613704
-0.00442418
-0.00267201
-0.000900666
0.000869463
0.00261823
0.00432627
0.00597556
0.00754999
0.00903589
0.0104225
0.0117025
0.0128724
0.0139324
0.014887
0.0157441
0.0165153
0.0172147
0.0178583
0.0184628
0.0190447
0.0196192
0.0201995
0.0207957
0.021415
0.0220611
-0.00810053
-0.00667387
-0.0051726
-0.00361295
-0.00201205
-0.000387667
0.00124215
0.00285951
0.00444712
0.00598884
0.0074701
0.00887837
0.0102036
0.0114388
0.0125798
0.0136263
0.0145808
0.0154496
0.0162416
0.0169681
0.0176422
0.0182777
0.0188886
0.0194877
0.0200865
0.0206941
0.0213172
0.0219595
-0.00687282
-0.00558319
-0.00422169
-0.00280254
-0.0013408
0.000147889
0.00164757
0.00314235
0.00461685
0.00605659
0.00744841
0.00878086
0.0100446
0.0112328
0.0123412
0.0133685
0.0143162
0.0151889
0.0159932
0.0167383
0.0174347
0.0180937
0.018727
0.0193454
0.0199589
0.0205756
0.0212013
0.02184
-0.00568545
-0.00452074
-0.00328693
-0.00199651
-0.000662688
0.000700792
0.00207985
0.00346041
0.00482878
0.00617199
0.00747817
0.00873688
0.00993943
0.0110792
0.0121519
0.0131556
0.0140909
0.0149607
0.0157702
0.0165265
0.0172379
0.0179137
0.0185635
0.0191965
0.019821
0.0204442
0.0210715
0.0217064
-0.00453889
-0.00348792
-0.0023707
-0.00119814
1.81907e-05
0.00126624
0.00253359
0.0038078
0.0050767
0.00632869
0.00755308
0.00874033
0.0098824
0.010973
0.0120077
0.0129841
0.0139022
0.0147636
0.0155722
0.0163332
0.0170533
0.01774
0.018401
0.0190442
0.0196764
0.0203038
0.0209313
0.0215621
-0.00343343
-0.00248596
-0.00147513
-0.0004104
0.000698107
0.00183981
0.00300381
0.00417911
0.0053549
0.00652083
0.00766726
0.00878553
0.00986819
0.0109093
0.0119043
0.0128508
0.0137477
0.0145961
0.0153985
0.0161588
0.0168822
0.0175745
0.0182422
0.0188914