/*--------------------------------*- C++ -*----------------------------------*\
  =========                 |
  \\      /  F ield         | OpenFOAM: The Open Source CFD Toolbox
   \\    /   O peration     | Website:  https://openfoam.org
    \\  /    A nd           | Version:  7
     \\/     M anipulation  |
\*---------------------------------------------------------------------------*/
FoamFile
{
    version     2.0;
    format      ascii;
    class       volScalarField;
    location    "180";
    object      p;
}
// * * * * * * * * * * * * * * * * * * * * * * * * * * * * * * * * * * * * * //

dimensions      [0 2 -2 0 0 0 0];

internalField   nonuniform List<scalar> 
7156
(
-0.398751
-0.399297
-0.399836
-0.400405
-0.401033
-0.401741
-0.402542
-0.403444
-0.404448
-0.405556
-0.406766
-0.408076
-0.409482
-0.410981
-0.412567
-0.414236
-0.415979
-0.41779
-0.419666
-0.421528
-0.423383
-0.402358
-0.402926
-0.403504
-0.404131
-0.404836
-0.40564
-0.406557
-0.407596
-0.408759
-0.410048
-0.411464
-0.413003
-0.414664
-0.416444
-0.41834
-0.420347
-0.422459
-0.42467
-0.426978
-0.429307
-0.431659
-0.405986
-0.406575
-0.40719
-0.407873
-0.408653
-0.409552
-0.410584
-0.411758
-0.413079
-0.414548
-0.416167
-0.417933
-0.419846
-0.421904
-0.424106
-0.426448
-0.428924
-0.431531
-0.434265
-0.437055
-0.439894
-0.409627
-0.410234
-0.410886
-0.411623
-0.412476
-0.413468
-0.414613
-0.415921
-0.417397
-0.419043
-0.420861
-0.422851
-0.425012
-0.427344
-0.429846
-0.432516
-0.435349
-0.438343
-0.441497
-0.444737
-0.44805
-0.413275
-0.413898
-0.414583
-0.415371
-0.416295
-0.417378
-0.418634
-0.420073
-0.421701
-0.423521
-0.425534
-0.427742
-0.430146
-0.432745
-0.435539
-0.438529
-0.44171
-0.445081
-0.448642
-0.452319
-0.456088
-0.416921
-0.417556
-0.418272
-0.41911
-0.420103
-0.421272
-0.422636
-0.424202
-0.425978
-0.427967
-0.430171
-0.432591
-0.43523
-0.438088
-0.441166
-0.444465
-0.447982
-0.451716
-0.45567
-0.459768
-0.463969
-0.420557
-0.421203
-0.421946
-0.422831
-0.423888
-0.425142
-0.426608
-0.428298
-0.430216
-0.432369
-0.434756
-0.437382
-0.440248
-0.443355
-0.446706
-0.450302
-0.45414
-0.458221
-0.462551
-0.467049
-0.471658
-0.424176
-0.424828
-0.425596
-0.426523
-0.427641
-0.428975
-0.430541
-0.432348
-0.434404
-0.436713
-0.439278
-0.4421
-0.445183
-0.448529
-0.45214
-0.456017
-0.460161
-0.46457
-0.469256
-0.474131
-0.479117
-0.427769
-0.428424
-0.429213
-0.430179
-0.431354
-0.432763
-0.434422
-0.436342
-0.438529
-0.440987
-0.44372
-0.44673
-0.45002
-0.453591
-0.457447
-0.46159
-0.46602
-0.470737
-0.475756
-0.480982
-0.486313
-0.431327
-0.431983
-0.432789
-0.433789
-0.435017
-0.436496
-0.438242
-0.440268
-0.442578
-0.445178
-0.44807
-0.451257
-0.454741
-0.458524
-0.46261
-0.467001
-0.471697
-0.476698
-0.482025
-0.487574
-0.493213
-0.434844
-0.435496
-0.436315
-0.437345
-0.43862
-0.440163
-0.441991
-0.444115
-0.446541
-0.449273
-0.452314
-0.455666
-0.459332
-0.463313
-0.467611
-0.47223
-0.47717
-0.482431
-0.488037
-0.49388
-0.499788
-0.438312
-0.438955
-0.439783
-0.440839
-0.442155
-0.443756
-0.445658
-0.447873
-0.450405
-0.45326
-0.45644
-0.459945
-0.463778
-0.46794
-0.472434
-0.477261
-0.48242
-0.487914
-0.49377
-0.499876
-0.506012
-0.441723
-0.442354
-0.443186
-0.444261
-0.445612
-0.447264
-0.449234
-0.451531
-0.454161
-0.457129
-0.460435
-0.46408
-0.468066
-0.472394
-0.477063
-0.482076
-0.487431
-0.493129
-0.499205
-0.50554
-0.511862
-0.445685
-0.446516
-0.447604
-0.448985
-0.450681
-0.45271
-0.45508
-0.457799
-0.460867
-0.464288
-0.46806
-0.472184
-0.476659
-0.481485
-0.486661
-0.492187
-0.498061
-0.504323
-0.510855
-0.517318
-0.44894
-0.449765
-0.450862
-0.452265
-0.453998
-0.456077
-0.458511
-0.461307
-0.464467
-0.467989
-0.471874
-0.47612
-0.480725
-0.485687
-0.491005
-0.496675
-0.502695
-0.509109
-0.515806
-0.522358
-0.452114
-0.452927
-0.454027
-0.455445
-0.457206
-0.459327
-0.461817
-0.464679
-0.467917
-0.471529
-0.475512
-0.479864
-0.484582
-0.48966
-0.495096
-0.500884
-0.50702
-0.513553
-0.520383
-0.526954
-0.455199
-0.455997
-0.457092
-0.458519
-0.460301
-0.462454
-0.464988
-0.467907
-0.471211
-0.474898
-0.478966
-0.483408
-0.48822
-0.493394
-0.498925
-0.504807
-0.51103
-0.517646
-0.524577
-0.531151
-0.458193
-0.458969
-0.460054
-0.461481
-0.463275
-0.465451
-0.468019
-0.470982
-0.474341
-0.47809
-0.482227
-0.486744
-0.491632
-0.496883
-0.502487
-0.508436
-0.514718
-0.521387
-0.528353
-0.534922
-0.461089
-0.461838
-0.462906
-0.464326
-0.466123
-0.468313
-0.470904
-0.4739
-0.4773
-0.481099
-0.48529
-0.489865
-0.494813
-0.50012
-0.505776
-0.511768
-0.51808
-0.524772
-0.531741
-0.538239
-0.463885
-0.464601
-0.465645
-0.46705
-0.468841
-0.471035
-0.473639
-0.476656
-0.480085
-0.483919
-0.48815
-0.492768
-0.497757
-0.503103
-0.50879
-0.5148
-0.521117
-0.527798
-0.534744
-0.541116
-0.467255
-0.468268
-0.46965
-0.471427
-0.473613
-0.476219
-0.479245
-0.48269
-0.486547
-0.490804
-0.495448
-0.500462
-0.505829
-0.511526
-0.517534
-0.523828
-0.530469
-0.537362
-0.543567
-0.469797
-0.470773
-0.472124
-0.473876
-0.476046
-0.478642
-0.481666
-0.485114
-0.488979
-0.493247
-0.497903
-0.502927
-0.508296
-0.513986
-0.519969
-0.526218
-0.532791
-0.539603
-0.545601
-0.472226
-0.473158
-0.47447
-0.476188
-0.47833
-0.480906
-0.483915
-0.487354
-0.491214
-0.495479
-0.500133
-0.505151
-0.510507
-0.51617
-0.52211
-0.528292
-0.53477
-0.541476
-0.547227
-0.474542
-0.475422
-0.476687
-0.478362
-0.480467
-0.48301
-0.485993
-0.48941
-0.493251
-0.497501
-0.502137
-0.507135
-0.512461
-0.518083
-0.523961
-0.530055
-0.536414
-0.54299
-0.548454
-0.477566
-0.478776
-0.480399
-0.482456
-0.484956
-0.4879
-0.491283
-0.495093
-0.499313
-0.503918
-0.508881
-0.514164
-0.519727
-0.525528
-0.531516
-0.537734
-0.544158
-0.549296
-0.479592
-0.480738
-0.4823
-0.484299
-0.486744
-0.489637
-0.492973
-0.49674
-0.500917
-0.505479
-0.510392
-0.515618
-0.521109
-0.526817
-0.532682
-0.538739
-0.544992
-0.549763
-0.481501
-0.482576
-0.484068
-0.485998
-0.488377
-0.491209
-0.494486
-0.498196
-0.502317
-0.506822
-0.511674
-0.516829
-0.522235
-0.527836
-0.533563
-0.539439
-0.545504
-0.549868
-0.483296
-0.484292
-0.485705
-0.487557
-0.48986
-0.492618
-0.495824
-0.499466
-0.503519
-0.507955
-0.512733
-0.517804
-0.523113
-0.528594
-0.534169
-0.539847
-0.545708
-0.549624
-0.485892
-0.487217
-0.48898
-0.491197
-0.49387
-0.496994
-0.500555
-0.504529
-0.508883
-0.513575
-0.518552
-0.52375
-0.529099
-0.53451
-0.539973
-0.545617
-0.54904
-0.487379
-0.488608
-0.490274
-0.492394
-0.494972
-0.498003
-0.501471
-0.505354
-0.509615
-0.514209
-0.519079
-0.524157
-0.529362
-0.534598
-0.53983
-0.545243
-0.54813
-0.48876
-0.489885
-0.491446
-0.493459
-0.495931
-0.498857
-0.502223
-0.506003
-0.51016
-0.514646
-0.519399
-0.524344
-0.529394
-0.534443
-0.539428
-0.544602
-0.546905
-0.490041
-0.491055
-0.492502
-0.494399
-0.496756
-0.499568
-0.50282
-0.506487
-0.510529
-0.514896
-0.519521
-0.524323
-0.529208
-0.534058
-0.538781
-0.543705
-0.545375
-0.492126
-0.493451
-0.495224
-0.497456
-0.500144
-0.503273
-0.506817
-0.510734
-0.514972
-0.519459
-0.524107
-0.528816
-0.533456
-0.537901
-0.542568
-0.543553
-0.493107
-0.494303
-0.495944
-0.498043
-0.500598
-0.503595
-0.507006
-0.510789
-0.514888
-0.519226
-0.523712
-0.528233
-0.532652
-0.536802
-0.541203
-0.54145
-0.494007
-0.495067
-0.49657
-0.498528
-0.500943
-0.503799
-0.507068
-0.510708
-0.514659
-0.51884
-0.523151
-0.527473
-0.53166
-0.535496
-0.539625
-0.539079
-0.495755
-0.497113
-0.498924
-0.50119
-0.503898
-0.507019
-0.510508
-0.514301
-0.518315
-0.522442
-0.526554
-0.530496
-0.534
-0.537847
-0.536454
-0.496378
-0.497586
-0.499244
-0.501356
-0.503909
-0.506873
-0.510203
-0.513831
-0.517669
-0.521602
-0.525491
-0.529175
-0.532326
-0.535882
-0.533589
-0.496948
-0.498001
-0.499502
-0.501454
-0.503846
-0.506648
-0.509812
-0.513268
-0.51692
-0.520649
-0.524302
-0.527715
-0.530492
-0.533744
-0.530502
-0.498372
-0.499711
-0.5015
-0.503726
-0.506361
-0.509352
-0.512628
-0.516087
-0.5196
-0.523005
-0.52613
-0.528513
-0.531445
-0.52721
-0.498713
-0.499888
-0.501509
-0.503566
-0.506028
-0.508841
-0.511929
-0.515186
-0.518473
-0.521616
-0.524438
-0.526405
-0.528997
-0.523735
-0.500045
-0.501497
-0.503381
-0.505666
-0.508297
-0.511191
-0.514236
-0.517286
-0.520154
-0.522655
-0.524186
-0.526411
-0.520101
-0.500198
-0.501479
-0.503188
-0.505293
-0.507735
-0.510428
-0.513254
-0.516057
-0.518635
-0.520797
-0.521875
-0.523699
-0.516337
-0.50147
-0.503002
-0.504923
-0.507172
-0.509658
-0.512256
-0.514799
-0.517076
-0.51888
-0.519493
-0.520871
-0.512476
-0.501484
-0.502837
-0.504572
-0.506624
-0.508896
-0.511257
-0.513529
-0.515492
-0.516921
-0.517065
-0.51794
-0.50856
-0.501534
-0.502708
-0.504253
-0.506102
-0.508154
-0.510268
-0.51226
-0.513899
-0.514935
-0.51462
-0.514929
-0.504658
-0.502626
-0.503979
-0.50562
-0.507443
-0.509302
-0.511003
-0.51231
-0.512938
-0.512189
-0.511861
-0.500862
-0.502603
-0.503759
-0.505187
-0.506774
-0.508368
-0.509769
-0.510739
-0.510948
-0.509802
-0.508718
-0.497157
-0.503603
-0.50481
-0.506151
-0.507471
-0.508565
-0.509199
-0.508998
-0.507521
-0.50543
-0.493221
-0.503517
-0.504495
-0.505581
-0.506616
-0.507396
-0.507701
-0.507134
-0.505482
-0.502153
-0.48927
-0.504245
-0.505063
-0.505801
-0.506259
-0.50624
-0.50537
-0.503759
-0.49966
-0.489342
-0.504597
-0.505021
-0.505143
-0.504792
-0.50364
-0.502097
-0.498335
-0.500084
-0.504177
-0.50427
-0.504034
-0.503327
-0.501864
-0.500253
-0.496523
-0.500587
-0.503538
-0.502919
-0.501818
-0.499984
-0.498092
-0.494044
-0.497725
-0.502816
-0.501784
-0.500248
-0.497977
-0.49563
-0.491089
-0.493609
-0.500618
-0.498605
-0.495838
-0.492917
-0.48778
-0.488811
-0.496887
-0.493575
-0.490004
-0.484223
-0.483699
-0.495093
-0.491201
-0.486941
-0.480506
-0.478497
-0.488733
-0.48377
-0.476699
-0.473332
-0.48053
-0.472853
-0.468275
-0.469006
-0.463361
-0.465183
-0.458607
-0.454015
-0.261119
-0.264861
-0.262387
-0.271522
-0.265085
-0.263666
-0.271344
-0.265171
-0.264935
-0.275549
-0.270997
-0.265088
-0.266155
-0.279858
-0.274772
-0.27045
-0.264791
-0.267262
-0.278897
-0.273836
-0.26967
-0.264226
-0.268149
-0.28293
-0.277842
-0.272738
-0.26862
-0.263318
-0.268638
-0.286938
-0.281885
-0.276704
-0.271481
-0.267266
-0.26198
-0.268447
-0.285954
-0.280819
-0.275503
-0.270076
-0.265578
-0.260129
-0.267245
-0.289891
-0.284985
-0.279753
-0.274264
-0.268549
-0.263526
-0.257642
-0.264601
-0.289013
-0.284046
-0.278707
-0.273022
-0.266946
-0.261117
-0.254112
-0.257146
-0.292811
-0.288179
-0.283151
-0.277706
-0.271826
-0.265372
-0.258626
-0.249622
-0.233676
-0.296339
-0.292065
-0.287397
-0.282313
-0.276776
-0.270731
-0.26397
-0.256487
-0.247194
-0.227897
-0.295676
-0.291379
-0.286679
-0.281546
-0.275935
-0.269773
-0.26284
-0.255012
-0.246286
-0.228122
-0.299008
-0.295081
-0.290762
-0.286032
-0.280859
-0.275192
-0.268958
-0.261954
-0.254024
-0.245691
-0.228444
-0.298504
-0.294562
-0.290223
-0.285465
-0.280259
-0.274554
-0.268276
-0.261253
-0.253328
-0.245186
-0.228687
-0.301653
-0.298085
-0.294129
-0.28977
-0.284988
-0.279755
-0.274022
-0.267723
-0.260707
-0.252849
-0.244852
-0.229243
-0.301335
-0.29776
-0.29379
-0.289413
-0.284611
-0.279355
-0.273603
-0.267296
-0.260307
-0.252559
-0.244701
-0.230102
-0.304312
-0.301118
-0.297536
-0.293556
-0.289163
-0.284343
-0.279069
-0.273305
-0.267001
-0.260053
-0.252438
-0.244717
-0.231163
-0.304202
-0.301009
-0.297423
-0.293433
-0.289029
-0.284195
-0.278908
-0.273139
-0.266846
-0.25995
-0.25248
-0.2449
-0.232377
-0.304202
-0.301013
-0.297426
-0.293432
-0.289021
-0.284177
-0.278883
-0.273115
-0.266842
-0.260007
-0.252691
-0.24526
-0.233726
-0.307111
-0.304319
-0.301137
-0.297554
-0.293561
-0.289146
-0.284299
-0.279005
-0.273245
-0.267001
-0.260238
-0.253078
-0.24581
-0.235199
-0.307334
-0.304557
-0.301386
-0.297812
-0.293825
-0.289414
-0.284571
-0.279284
-0.273541
-0.267335
-0.260653
-0.253653
-0.246558
-0.236786
-0.310052
-0.307677
-0.304918
-0.301764
-0.298205
-0.29423
-0.289831
-0.285
-0.279729
-0.274013
-0.267856
-0.261264
-0.254423
-0.247508
-0.23848
-0.310492
-0.308141
-0.305406
-0.302275
-0.298736
-0.294781
-0.290402
-0.285592
-0.280347
-0.274669
-0.26857
-0.262077
-0.255394
-0.248659
-0.240273
-0.311052
-0.308729
-0.306022
-0.302919
-0.299408
-0.295481
-0.29113
-0.286351
-0.281143
-0.275513
-0.269484
-0.263096
-0.256568
-0.250008
-0.242161
-0.313652
-0.311731
-0.309441
-0.306767
-0.303698
-0.300222
-0.296331
-0.292018
-0.28728
-0.28212
-0.276549
-0.270598
-0.264322
-0.257943
-0.251548
-0.24414
-0.314418
-0.312531
-0.310277
-0.307641
-0.304612
-0.301178
-0.297331
-0.293066
-0.288379
-0.283277
-0.277777
-0.271913
-0.265751
-0.259516
-0.253271
-0.24621
-0.315301
-0.31345
-0.311236
-0.308644
-0.305661
-0.302276
-0.298482
-0.294272
-0.289648
-0.284615
-0.279194
-0.273425
-0.26738
-0.26128
-0.25517
-0.248373
-0.317764
-0.316299
-0.314488
-0.312318
-0.309773
-0.306842
-0.303514
-0.29978
-0.295636
-0.291083
-0.286128
-0.280796
-0.275129
-0.269202
-0.26323
-0.257237
-0.250636
-0.31884
-0.317411
-0.315643
-0.31352
-0.311029
-0.308155
-0.30489
-0.301224
-0.297154
-0.292681
-0.287814
-0.282579
-0.277019
-0.27121
-0.265358
-0.259468
-0.253005
-0.320026
-0.318637
-0.316914
-0.314842
-0.312408
-0.309598
-0.306402
-0.302811
-0.298823
-0.294438
-0.289668
-0.284536
-0.279089
-0.273398
-0.267659
-0.26186
-0.255491
-0.321323
-0.319975
-0.318299
-0.316282
-0.313909
-0.311167
-0.308047
-0.304539
-0.300639
-0.296351
-0.291684
-0.286663
-0.281331
-0.275759
-0.270129
-0.264412
-0.258104
-0.323729
-0.322729
-0.321424
-0.319798
-0.317838
-0.315531
-0.312862
-0.309822
-0.306402
-0.302599
-0.298414
-0.293858
-0.288953
-0.283742
-0.278289
-0.272766
-0.267124
-0.260855
-0.325207
-0.324244
-0.322982
-0.321409
-0.319509
-0.31727
-0.314679
-0.311725
-0.3084
-0.3047
-0.300625
-0.296185
-0.291403
-0.286316
-0.280984
-0.275568
-0.270001
-0.263755
-0.32679
-0.325864
-0.324648
-0.323129
-0.321293
-0.319127
-0.316618
-0.313755
-0.31053
-0.306938
-0.302979
-0.298662
-0.294008
-0.28905
-0.283843
-0.278535
-0.273048
-0.266814
-0.329093
-0.328478
-0.32759
-0.326422
-0.324959
-0.323189
-0.321099
-0.318676
-0.315908
-0.312789
-0.309311
-0.305474
-0.301286
-0.296765
-0.291942
-0.286864
-0.28167
-0.276272
-0.270043
-0.330852
-0.330268
-0.329421
-0.328301
-0.326897
-0.325196
-0.323185
-0.320851
-0.318184
-0.315175
-0.311817
-0.308109
-0.304056
-0.299674
-0.29499
-0.290048
-0.284974
-0.279688
-0.273451
-0.332713
-0.332161
-0.331355
-0.330286
-0.328943
-0.327313
-0.325384
-0.323144
-0.320582
-0.317688
-0.314455
-0.310881
-0.306968
-0.302732
-0.298195
-0.293394
-0.288455
-0.283346
-0.27701
-0.334673
-0.334155
-0.333392
-0.332375
-0.331094
-0.329538
-0.327695
-0.325553
-0.3231
-0.320326
-0.317224
-0.313789
-0.310024
-0.30594
-0.301555
-0.296902
-0.292119
-0.287308
-0.28065
-0.336733
-0.33625
-0.33553
-0.334567
-0.333351
-0.331873
-0.330119
-0.328078
-0.325738
-0.32309
-0.320124
-0.316835
-0.313224
-0.309298
-0.305072
-0.300574
-0.295925
-0.29107
-0.284913
-0.339114
-0.338892
-0.338444
-0.337769
-0.336862
-0.335714
-0.334315
-0.332653
-0.330718
-0.328497
-0.325979
-0.323155
-0.320018
-0.316567
-0.312807
-0.308749
-0.304416
-0.299914
-0.295123
-0.289303
-0.341341
-0.341148
-0.340736
-0.340108
-0.339259
-0.338181
-0.336864
-0.335299
-0.333473
-0.331375
-0.328993
-0.326317
-0.323339
-0.320057
-0.316471
-0.31259
-0.308432
-0.304092
-0.299415
-0.293848
-0.343663
-0.343499
-0.343126
-0.342546
-0.341757
-0.340751
-0.339521
-0.338056
-0.336344
-0.334373
-0.332133
-0.329611
-0.3268
-0.323693
-0.32029
-0.316596
-0.312626
-0.308463
-0.303931
-0.298593
-0.346078
-0.345944
-0.345612
-0.345082
-0.344355
-0.343426
-0.342285
-0.340923
-0.339329
-0.337492
-0.335399
-0.333038
-0.3304
-0.327477
-0.324268
-0.320773
-0.317003
-0.313034
-0.308676
-0.303577
-0.348585
-0.348484
-0.348192
-0.347716
-0.347054
-0.346202
-0.345154
-0.3439
-0.342429
-0.34073
-0.33879
-0.336597
-0.334141
-0.331412
-0.328407
-0.325122
-0.321567
-0.31781
-0.313654
-0.308811
-0.351183
-0.351115
-0.350867
-0.350445
-0.34985
-0.34908
-0.348129
-0.346987
-0.345644
-0.344088
-0.342308
-0.34029
-0.338023
-0.335497
-0.332707
-0.329646
-0.326321
-0.322794
-0.318864
-0.314297
-0.353871
-0.353837
-0.353634
-0.353268
-0.352744
-0.352059
-0.351207
-0.350181
-0.348971
-0.347565
-0.345951
-0.344115
-0.342047
-0.339734
-0.33717
-0.334346
-0.331267
-0.327988
-0.324308
-0.320038
-0.356467
-0.356646
-0.356648
-0.356491
-0.356185
-0.355733
-0.355136
-0.354388
-0.353483
-0.352411
-0.35116
-0.349718
-0.348073
-0.346211
-0.344121
-0.341795
-0.339222
-0.336406
-0.333392
-0.329985
-0.326035
-0.359299
-0.359506
-0.359545
-0.359437
-0.359192
-0.358816
-0.35831
-0.35767
-0.35689
-0.35596
-0.354871
-0.353608
-0.35216
-0.350514
-0.348658
-0.346581
-0.344274
-0.341735
-0.339007
-0.335896
-0.332288
-0.362214
-0.362449
-0.362526
-0.362468
-0.362287
-0.361989
-0.361578
-0.36105
-0.3604
-0.359618
-0.358695
-0.357619
-0.356376
-0.354955
-0.353342
-0.351527
-0.349498
-0.347254
-0.344829
-0.342037
-0.338792
-0.365208
-0.365472
-0.365589
-0.365583
-0.365467
-0.365251
-0.364938
-0.364526
-0.364009
-0.363381
-0.36263
-0.361746
-0.360717
-0.359529
-0.35817
-0.356628
-0.354892
-0.352957
-0.350854
-0.348403
-0.345544
-0.368279
-0.368573
-0.368731
-0.368778
-0.36873
-0.368598
-0.368386
-0.368093
-0.367715
-0.367244
-0.366672
-0.365987
-0.365178
-0.364232
-0.363136
-0.361879
-0.360448
-0.358839
-0.357075
-0.354987
-0.352535
-0.371424
-0.371748
-0.371947
-0.372049
-0.372072
-0.372026
-0.371918
-0.371748
-0.371512
-0.371204
-0.370816
-0.370336
-0.369754
-0.369058
-0.368235
-0.367274
-0.366161
-0.364892
-0.363484
-0.361779
-0.359754
-0.37464
-0.374994
-0.375235
-0.375393
-0.375488
-0.375531
-0.375531
-0.375487
-0.375397
-0.375256
-0.375056
-0.374787
-0.374439
-0.374
-0.373458
-0.372803
-0.372021
-0.371105
-0.37007
-0.368766
-0.367187
-0.377923
-0.378306
-0.37859
-0.378806
-0.378974
-0.379109
-0.379218
-0.379303
-0.379363
-0.379393
-0.379386
-0.379333
-0.379225
-0.37905
-0.378798
-0.378458
-0.378016
-0.377466
-0.376818
-0.375934
-0.374817
-0.381268
-0.38168
-0.382007
-0.382281
-0.382524
-0.382752
-0.382973
-0.383191
-0.383404
-0.383608
-0.383798
-0.383966
-0.384102
-0.384198
-0.384242
-0.384225
-0.384134
-0.383961
-0.383713
-0.383264
-0.382624
-0.38467
-0.385112
-0.385482
-0.385815
-0.386134
-0.386457
-0.386792
-0.387143
-0.387512
-0.387894
-0.388284
-0.388676
-0.389062
-0.389433
-0.38978
-0.390092
-0.390359
-0.390573
-0.390737
-0.390735
-0.390583
-0.388125
-0.388595
-0.389008
-0.3894
-0.389797
-0.390215
-0.390666
-0.391154
-0.391679
-0.392241
-0.392835
-0.393454
-0.394093
-0.394743
-0.395396
-0.396044
-0.396676
-0.397283
-0.397868
-0.398324
-0.39867
-0.391628
-0.392124
-0.39258
-0.393032
-0.393506
-0.394021
-0.394588
-0.395213
-0.395898
-0.396641
-0.397439
-0.398288
-0.399182
-0.400114
-0.401078
-0.402065
-0.403065
-0.404072
-0.405084
-0.406005
-0.406853
-0.395172
-0.395694
-0.396192
-0.396702
-0.397254
-0.397865
-0.39855
-0.399313
-0.400157
-0.401083
-0.402087
-0.403167
-0.404317
-0.405532
-0.406807
-0.408135
-0.409506
-0.410915
-0.412359
-0.41375
-0.415102
-0.429096
-0.428711
-0.429926
-0.420871
-0.409521
-0.392157
-0.377447
-0.367039
-0.366353
-0.374107
-0.388365
-0.40268
-0.438314
-0.438411
-0.440019
-0.430505
-0.417854
-0.398301
-0.380746
-0.367207
-0.363474
-0.368624
-0.380944
-0.394018
-0.447549
-0.44809
-0.450123
-0.440149
-0.426204
-0.404444
-0.384011
-0.367289
-0.360431
-0.362877
-0.373153
-0.384922
-0.456756
-0.457702
-0.46019
-0.449759
-0.434531
-0.410556
-0.387226
-0.367284
-0.357238
-0.356893
-0.365021
-0.375427
-0.465891
-0.4672
-0.470172
-0.459289
-0.442798
-0.416608
-0.390377
-0.367193
-0.353912
-0.350698
-0.356592
-0.365564
-0.474906
-0.476536
-0.480019
-0.468694
-0.450964
-0.422573
-0.393446
-0.367015
-0.350467
-0.344322
-0.3479
-0.355372
-0.483756
-0.485665
-0.489683
-0.477928
-0.458991
-0.42842
-0.396418
-0.366747
-0.346919
-0.337795
-0.338984
-0.344875
-0.492395
-0.494541
-0.499116
-0.486947
-0.466842
-0.434122
-0.399275
-0.366388
-0.343282
-0.331146
-0.329884
-0.33411
-0.500782
-0.503121
-0.508273
-0.49571
-0.474479
-0.439652
-0.402004
-0.365938
-0.33957
-0.324406
-0.32064
-0.323146
-0.508875
-0.511363
-0.517111
-0.504178
-0.481871
-0.444987
-0.404589
-0.365393
-0.335797
-0.317602
-0.311292
-0.31202
-0.516638
-0.519229
-0.52559
-0.512313
-0.488984
-0.450104
-0.407019
-0.364756
-0.331978
-0.310765
-0.301882
-0.300778
-0.524037
-0.526684
-0.533674
-0.520083
-0.495792
-0.454983
-0.409283
-0.364025
-0.328126
-0.303921
-0.29245
-0.28947
-0.531043
-0.533698
-0.541331
-0.527458
-0.502269
-0.459609
-0.411375
-0.363204
-0.324255
-0.2971
-0.283035
-0.278141
-0.537631
-0.540243
-0.548532
-0.534413
-0.508393
-0.463967
-0.41329
-0.362298
-0.32038
-0.290326
-0.273674
-0.266837
-0.543786
-0.546294
-0.555252
-0.540925
-0.514146
-0.468048
-0.415025
-0.361311
-0.316516
-0.283628
-0.264405
-0.255599
-0.549533
-0.551792
-0.561468
-0.546978
-0.519512
-0.471843
-0.416579
-0.360251
-0.312677
-0.27703
-0.255262
-0.244469
-0.554867
-0.5567
-0.567171
-0.552554
-0.524479
-0.475347
-0.417956
-0.359129
-0.30888
-0.270556
-0.246279
-0.233489
-0.559273
-0.561511
-0.572363
-0.557631
-0.529036
-0.478558
-0.41916
-0.357955
-0.305143
-0.264232
-0.237489
-0.222696
-0.563281
-0.565737
-0.577017
-0.562219
-0.533173
-0.481473
-0.420198
-0.356742
-0.301482
-0.258081
-0.228922
-0.212128
-0.566872
-0.569387
-0.581131
-0.566317
-0.536893
-0.484086
-0.421075
-0.355504
-0.297916
-0.252125
-0.220607
-0.201819
-0.570008
-0.5725
-0.584725
-0.569913
-0.540188
-0.486407
-0.421801
-0.354256
-0.294463
-0.246387
-0.212573
-0.191803
-0.57269
-0.575093
-0.587795
-0.573012
-0.54306
-0.488439
-0.422381
-0.353018
-0.291139
-0.24089
-0.204846
-0.182112
-0.574931
-0.577178
-0.590341
-0.57562
-0.545516
-0.490183
-0.422821
-0.351802
-0.287971
-0.235652
-0.197449
-0.172775
-0.158844
-0.576749
-0.57877
-0.592371
-0.577742
-0.547558
-0.491648
-0.423147
-0.350599
-0.284984
-0.230695
-0.190405
-0.163821
-0.148397
-0.578163
-0.579888
-0.593895
-0.579387
-0.549187
-0.492837
-0.423356
-0.349448
-0.28217
-0.226047
-0.183735
-0.155275
-0.138325
-0.579195
-0.58055
-0.594928
-0.580564
-0.55041
-0.493758
-0.423459
-0.348357
-0.279538
-0.221739
-0.177455
-0.147162
-0.128657
-0.579865
-0.580776
-0.595484
-0.581286
-0.551234
-0.494415
-0.423464
-0.347335
-0.27715
-0.217728
-0.171591
-0.139503
-0.119418
-0.580194
-0.580588
-0.595579
-0.581564
-0.551667
-0.494815
-0.423379
-0.346393
-0.274989
-0.214036
-0.16618
-0.132315
-0.110632
-0.5802
-0.58001
-0.59523
-0.581413
-0.551717
-0.494963
-0.423211
-0.345542
-0.273058
-0.210712
-0.161192
-0.12562
-0.102322
-0.579903
-0.579063
-0.594453
-0.580847
-0.551395
-0.494865
-0.422964
-0.344788
-0.271369
-0.207758
-0.156589
-0.119483
-0.0945092
-0.579319
-0.57777
-0.593265
-0.579881
-0.550711
-0.494528
-0.422644
-0.344136
-0.269929
-0.205167
-0.152367
-0.113929
-0.0872121
-0.57846
-0.576156
-0.591684
-0.578532
-0.549675
-0.493957
-0.422255
-0.343587
-0.268744
-0.202947
-0.1489
-0.108583
-0.0804673
-0.577339
-0.574243
-0.589726
-0.576814
-0.548299
-0.493161
-0.421799
-0.343144
-0.267813
-0.201102
-0.145858
-0.103766
-0.0742884
-0.575963
-0.572053
-0.587408
-0.574743
-0.546597
-0.492145
-0.421279
-0.342804
-0.267134
-0.19963
-0.143255
-0.0996827
-0.0684287
-0.574335
-0.56961
-0.584747
-0.572335
-0.54458
-0.490917
-0.420697
-0.342565
-0.266704
-0.198527
-0.141105
-0.0961253
-0.063068
-0.572457
-0.566934
-0.581758
-0.569606
-0.542263
-0.489485
-0.420056
-0.342423
-0.266514
-0.197784
-0.139404
-0.0930824
-0.0586183
-0.570325
-0.564045
-0.578459
-0.56657
-0.539661
-0.487858
-0.419356
-0.342373
-0.266557
-0.197391
-0.138143
-0.090555
-0.0546976
-0.567929
-0.560962
-0.574864
-0.563244
-0.536787
-0.486045
-0.418601
-0.34241
-0.266822
-0.197337
-0.137312
-0.0885356
-0.051302
-0.565256
-0.557702
-0.570992
-0.559643
-0.533659
-0.484056
-0.41779
-0.342526
-0.267297
-0.197608
-0.136897
-0.0870131
-0.0484446
-0.0214763
-0.562291
-0.55428
-0.56686
-0.555783
-0.530293
-0.481902
-0.416928
-0.342716
-0.267969
-0.198186
-0.136883
-0.0859732
-0.0461205
-0.0176711
-0.55901
-0.550709
-0.562484
-0.551681
-0.526706
-0.479593
-0.416014
-0.34297
-0.268823
-0.199053
-0.137251
-0.0853983
-0.0443173
-0.0144207
-0.55539
-0.546996
-0.557883
-0.547354
-0.522918
-0.477142
-0.41505
-0.343278
-0.269841
-0.20019
-0.137981
-0.0852693
-0.0430201
-0.0117154
-0.551403
-0.543147
-0.553077
-0.54282
-0.518949
-0.474564
-0.414044
-0.343641
-0.271018
-0.201585
-0.139061
-0.0855732
-0.0422185
-0.00954841
-0.54702
-0.539161
-0.548084
-0.538099
-0.514823
-0.471881
-0.41301
-0.344066
-0.272354
-0.203235
-0.140483
-0.0863013
-0.0419043
-0.0079137
-0.542214
-0.535031
-0.542922
-0.533209
-0.510554
-0.469091
-0.41193
-0.344515
-0.2738
-0.205085
-0.142193
-0.0874013
-0.0420323
-0.00677398
-0.536973
-0.530755
-0.537618
-0.528165
-0.506134
-0.466146
-0.410707
-0.344854
-0.275199
-0.206973
-0.144038
-0.0887399
-0.0424913
-0.00604098
-0.531307
-0.526348
-0.532222
-0.52302
-0.501625
-0.463114
-0.409412
-0.345158
-0.276628
-0.208973
-0.146086
-0.0903748
-0.0433348
-0.00576901
-0.525164
-0.52175
-0.526726
-0.517874
-0.497296
-0.460475
-0.40874
-0.34628
-0.279013
-0.212001
-0.14918
-0.0930428
-0.0451852
-0.00646981
-0.518235
-0.516697
-0.520932
-0.512601
-0.493078
-0.458247
-0.408799
-0.348398
-0.28257
-0.216276
-0.153515
-0.0968916
-0.0481193
-0.00812888
-0.510489
-0.511304
-0.514858
-0.506507
-0.487155
-0.453307
-0.405255
-0.346335
-0.28175
-0.216319
-0.153972
-0.0973313
-0.0481198
-0.0072855
0.0244747
-0.495284
-0.502182
-0.50478
-0.495045
-0.473855
-0.439156
-0.391151
-0.333104
-0.269854
-0.205894
-0.144786
-0.0889861
-0.040072
0.00107096
0.0338107
-0.473903
-0.479432
-0.477798
-0.465424
-0.442984
-0.409082
-0.363781
-0.309775
-0.251077
-0.1915
-0.13414
-0.0811671
-0.0340264
0.00637537
0.0392448
-0.453768
-0.45511
-0.449327
-0.435452
-0.412984
-0.380562
-0.338274
-0.288351
-0.2341
-0.178757
-0.125014
-0.0748498
-0.0296384
0.00970214
0.0423428
-0.432787
-0.430313
-0.421105
-0.406396
-0.384487
-0.353779
-0.314455
-0.268439
-0.218465
-0.167243
-0.117103
-0.0698349
-0.026742
0.011256
0.0433394
-0.410605
-0.405573
-0.393828
-0.378656
-0.357618
-0.32878
-0.292364
-0.250074
-0.20417
-0.156913
-0.110308
-0.0659776
-0.0251545
0.0112476
0.0424259
-0.387876
-0.381347
-0.36796
-0.352599
-0.332585
-0.305682
-0.272066
-0.233262
-0.191166
-0.147659
-0.104469
-0.0630579
-0.0245887
0.0100369
0.0400369
-0.365194
-0.357937
-0.343696
-0.328384
-0.309446
-0.28446
-0.253493
-0.217916
-0.179345
-0.139351
-0.0994203
-0.0608663
-0.0247784
0.00796311
0.0366002
-0.343
-0.335529
-0.321049
-0.305999
-0.288139
-0.264997
-0.236513
-0.203911
-0.168587
-0.131864
-0.0950183
-0.0592253
-0.0255002
0.00530759
0.0324646
-0.32159
-0.314222
-0.299948
-0.285338
-0.268538
-0.247144
-0.220978
-0.191113
-0.158774
-0.125084
-0.0911389
-0.057989
-0.0265743
0.00229471
0.0279113
-0.301133
-0.294058
-0.280284
-0.266258
-0.2505
-0.23075
-0.206737
-0.179392
-0.149794
-0.118909
-0.0876796
-0.057041
-0.0278592
-0.000900541
0.0231598
-0.281713
-0.275035
-0.261947
-0.24861
-0.233875
-0.215666
-0.193651
-0.168627
-0.141548
-0.113252
-0.0845563
-0.0562899
-0.0292467
-0.00414557
0.0183708
-0.263356
-0.257131
-0.244832
-0.232255
-0.218522
-0.201757
-0.181592
-0.158707
-0.133944
-0.108039
-0.0817005
-0.0556647
-0.0306553
-0.00734175
0.0136666
-0.246054
-0.240305
-0.228844
-0.217067
-0.204313
-0.188901
-0.17045
-0.149535
-0.126904
-0.103205
-0.0790561
-0.0551103
-0.0320242
-0.010418
0.00913503
-0.229778
-0.224508
-0.213898
-0.202936
-0.191132
-0.176989
-0.160124
-0.141028
-0.12036
-0.0986952
-0.0765773
-0.0545838
-0.0333084
-0.0133228
0.00483854
-0.214487
-0.209689
-0.199917
-0.189767
-0.178881
-0.165926
-0.15053
-0.13311
-0.114251
-0.0944633
-0.0742262
-0.0540517
-0.0344749
-0.0160196
0.000819511
-0.200135
-0.195793
-0.186834
-0.177477
-0.167472
-0.155629
-0.141593
-0.125719
-0.108526
-0.0904686
-0.0719715
-0.0534881
-0.0354991
-0.0184827
-0.0028944
-0.186676
-0.182768
-0.174586
-0.165996
-0.156828
-0.146025
-0.133247
-0.118797
-0.103139
-0.0866769
-0.0697875
-0.0528731
-0.0363643
-0.0206954
-0.00628582
-0.174062
-0.170565
-0.163118
-0.155259
-0.146884
-0.137049
-0.125434
-0.112298
-0.0980516
-0.0830588
-0.0676533
-0.0521918
-0.0370597
-0.0226495
-0.00934391
-0.162244
-0.159133
-0.152377
-0.145209
-0.137581
-0.128647
-0.118105
-0.106177
-0.0932305
-0.0795897
-0.065552
-0.0514337
-0.0375791
-0.0243418
-0.012067
-0.151179
-0.148424
-0.142311
-0.135794
-0.128866
-0.120768
-0.111216
-0.1004
-0.0886471
-0.0762493
-0.0634709
-0.0505924
-0.0379203
-0.025773
-0.0144618
-0.140823
-0.138395
-0.132877
-0.126971
-0.120694
-0.11337
-0.104729
-0.0949339
-0.0842771
-0.0730208
-0.0614004
-0.0496644
-0.0380854
-0.0269487
-0.0165345
-0.131127
-0.129003
-0.124038
-0.118697
-0.113024
-0.106412
-0.0986089
-0.0897512
-0.0800998
-0.0698906
-0.0593337
-0.0486492
-0.038079
-0.0278775
-0.0182963
-0.122055
-0.12021
-0.115753
-0.110933
-0.105818
-0.0998624
-0.0928274
-0.0848284
-0.0760979
-0.0668482
-0.0572667
-0.0475481
-0.0379073
-0.0285709
-0.0197626
-0.113567
-0.111974
-0.107989
-0.103646
-0.0990428
-0.0936891
-0.087358
-0.0801449
-0.072257
-0.0638854
-0.0551974
-0.0463649
-0.0375786
-0.0290419
-0.0209494
-0.105625
-0.104259
-0.100702
-0.0968034
-0.0926685
-0.0878658
-0.0821779
-0.0756829
-0.0685649
-0.0609961
-0.0531255
-0.0451053
-0.0371042
-0.029303
-0.0218724
-0.0981941
-0.0970335
-0.0938668
-0.0903771
-0.0866674
-0.0823695
-0.0772674
-0.071427
-0.0650117
-0.0581758
-0.0510523
-0.0437759
-0.0364945
-0.0293645
-0.02255
-0.0912412
-0.0902643
-0.0874525
-0.0843378
-0.0810343
-0.07718
-0.0726089
-0.0673643
-0.0615891
-0.0554215
-0.0489803
-0.0423841
-0.0357626
-0.029254
-0.0230038
-0.0847349
-0.083922
-0.0814316
-0.078656
-0.0757094
-0.0722751
-0.0681861
-0.0634828
-0.05829
-0.0527312
-0.0469123
-0.0409382
-0.0349202
-0.0289824
-0.023253
-0.0786458
-0.077979
-0.0757789
-0.0733109
-0.0706905
-0.067636
-0.0639864
-0.0597727
-0.0551092
-0.050104
-0.0448515
-0.0394474
-0.0339767
-0.0285648
-0.0233164
-0.0729466
-0.0724093
-0.0704711
-0.0682821
-0.0659576
-0.0632457
-0.0599949
-0.0562281
-0.0520431
-0.0475398
-0.0428006
-0.0379028
-0.0329479
-0.0280178
-0.0232129
-0.0676115
-0.0671886