/*--------------------------------*- C++ -*----------------------------------*\
  =========                 |
  \\      /  F ield         | OpenFOAM: The Open Source CFD Toolbox
   \\    /   O peration     | Website:  https://openfoam.org
    \\  /    A nd           | Version:  7
     \\/     M anipulation  |
\*---------------------------------------------------------------------------*/
FoamFile
{
    version     2.0;
    format      ascii;
    class       volScalarField;
    location    "80";
    object      p;
}
// * * * * * * * * * * * * * * * * * * * * * * * * * * * * * * * * * * * * * //

dimensions      [0 2 -2 0 0 0 0];

internalField   nonuniform List<scalar> 
7156
(
-0.104591
-0.118917
-0.107885
-0.097125
-0.122322
-0.110899
-0.100089
-0.0895408
-0.126085
-0.11391
-0.102747
-0.0921686
-0.0818414
-0.130173
-0.11726
-0.105358
-0.0944649
-0.0841277
-0.0740302
-0.149532
-0.134623
-0.120909
-0.108286
-0.0966679
-0.0860565
-0.0759703
-0.0661109
-0.155368
-0.139483
-0.124892
-0.111489
-0.0991674
-0.0878459
-0.0775267
-0.0677007
-0.0580875
-0.161741
-0.1448
-0.129255
-0.114996
-0.101917
-0.0899108
-0.0788971
-0.0688806
-0.0593237
-0.0499642
-0.168699
-0.150618
-0.134042
-0.118854
-0.104942
-0.0922001
-0.0805215
-0.069827
-0.0601234
-0.0508444
-0.0417458
-0.176286
-0.156986
-0.139296
-0.123102
-0.108286
-0.0947355
-0.0823449
-0.0710059
-0.0606417
-0.051261
-0.0422683
-0.0334373
-0.184536
-0.163947
-0.145064
-0.127783
-0.111988
-0.0975591
-0.0843846
-0.072358
-0.0613706
-0.0513476
-0.0422996
-0.0336013
-0.0250444
-0.193454
-0.171535
-0.151389
-0.132942
-0.116087
-0.100707
-0.086681
-0.0738963
-0.0622464
-0.0516224
-0.0419515
-0.0332457
-0.0248501
-0.0165735
-0.179757
-0.158304
-0.138621
-0.120629
-0.104218
-0.0892682
-0.0756595
-0.0632782
-0.0520177
-0.0417688
-0.0324607
-0.0241066
-0.0160218
-0.00803173
-0.188569
-0.165819
-0.144854
-0.125654
-0.108134
-0.0921837
-0.07768
-0.0645027
-0.0525381
-0.0416794
-0.0318171
-0.0228827
-0.0148899
-0.00712423
0.000572467
-0.197837
-0.173895
-0.151653
-0.131197
-0.112498
-0.0954687
-0.0799941
-0.0659512
-0.053219
-0.041684
-0.0312393
-0.0217751
-0.0132255
-0.00560364
0.00183387
0.00922909
-0.207291
-0.182405
-0.158982
-0.13727
-0.117343
-0.0991645
-0.0826422
-0.0676588
-0.0540907
-0.0418169
-0.030724
-0.0207052
-0.0116508
-0.00349723
0.0037436
0.010843
0.0179262
-0.216456
-0.19109
-0.166724
-0.143845
-0.122685
-0.103306
-0.0856651
-0.0696653
-0.0551877
-0.0421079
-0.030305
-0.0196663
-0.0100852
-0.00145207
0.00629377
0.013143
0.0198927
0.0266497
-0.2246
-0.199491
-0.174629
-0.150809
-0.128497
-0.107911
-0.0890985
-0.0720114
-0.056549
-0.0425908
-0.030012
-0.0186922
-0.00851912
0.000613125
0.00881335
0.0161392
0.0225857
0.0289719
0.0353817
-0.206892
-0.182254
-0.157925
-0.134676
-0.112955
-0.0929607
-0.0747328
-0.0582152
-0.0433044
-0.0298785
-0.0178128
-0.00698723
0.00270931
0.011382
0.0191379
0.0260311
0.0320632
0.0380683
0.044098
-0.212287
-0.188902
-0.164765
-0.140995
-0.118343
-0.0972327
-0.0778497
-0.0602224
-0.044289
-0.029943
-0.0170615
-0.00551984
0.00480097
0.0140109
0.022214
0.0295147
0.0359624
0.0415676
0.0471684
0.0527678
-0.214411
-0.193584
-0.170649
-0.147042
-0.123859
-0.101826
-0.0813467
-0.0625922
-0.0455808
-0.0302453
-0.0164764
-0.00415047
0.00685684
0.0166634
0.0253777
0.0331023
0.0399374
0.0459267
0.051093
0.0562619
0.0613627
-0.195052
-0.174612
-0.152157
-0.129107
-0.106535
-0.085142
-0.0653128
-0.047203
-0.030822
-0.0160969
-0.00291658
0.00884354
0.0193072
0.028591
0.0368018
0.0440402
0.0504006
0.0559189
0.0606371
0.0653475
0.0698574
-0.191921
-0.175418
-0.155393
-0.133445
-0.110979
-0.0890412
-0.068309
-0.0491473
-0.0316974
-0.0159599
-0.00185715
0.0107243
0.0219093
0.0318209
0.0405746
0.0482754
0.0550217
0.0608992
0.065936
0.0702057
0.0744304
0.078181
-0.182985
-0.171695
-0.155535
-0.135951
-0.114538
-0.0926788
-0.0713973
-0.0513448
-0.0328667
-0.0160908
-0.00100899
0.0124607
0.0244337
0.0350351
0.0443875
0.0526046
0.0597904
0.0660406
0.0714294
0.0759814
0.0798194
0.0834999
0.0861404
-0.162235
-0.15122
-0.135427
-0.116309
-0.0954552
-0.0742277
-0.0536226
-0.0342674
-0.0164879
-0.000398818
0.0140161
0.026843
0.0381989
0.0482093
0.0569959
0.0646714
0.0713386
0.0770903
0.0819892
0.0860697
0.0895159
0.0925289
0.0935145
-0.146419
-0.141247
-0.130525
-0.11512
-0.0964918
-0.0762213
-0.0556466
-0.035737
-0.0170951
-2.80443e-05
0.0153626
0.0291005
0.0412758
0.052007
0.0614196
0.0696348
0.0767645
0.0829106
0.088163
0.0925769
0.0962172
0.0993142
0.101508
0.100651
-0.124973
-0.120048
-0.109634
-0.0946384
-0.0765237
-0.0568586
-0.036957
-0.0177603
0.000153469
0.0164957
0.0311773
0.0442292
0.055745
0.0658447
0.0746537
0.0822928
0.0888729
0.0944957
0.0992488
0.103187
0.106415
0.109146
0.110361
0.109606
-0.102362
-0.103336
-0.098666
-0.0885756
-0.0740086
-0.0564289
-0.0373901
-0.0181803
0.00028749
0.0174596
0.0330659
0.0470291
0.0593868
0.0702362
0.0796984
0.0878988
0.0949575
0.100985
0.106083
0.110336
0.113804
0.116619
0.118955
0.119675
0.119439
-0.0802221
-0.0815355
-0.0771278
-0.0673759
-0.0532568
-0.0362322
-0.0178392
0.000661652
0.018386
0.0348046
0.049665
0.0629013
0.074558
0.0847351
0.0935546
0.101142
0.107617
0.113089
0.117659
0.121413
0.124414
0.126805
0.128722
0.12906
0.128931
-0.0579477
-0.0596009
-0.0554623
-0.0460626
-0.0324091
-0.0159585
0.00177082
0.0195471
0.036515
0.0521693
0.0662751
0.0787776
0.0897273
0.0992269
0.1074
0.11437
0.120258
0.125172
0.129214
0.132467
0.135
0.136961
0.138458
0.138448
0.138227
-0.0355682
-0.0375606
-0.0336977
-0.0246633
-0.011492
0.00436706
0.0214165
0.0384541
0.0546539
0.0695348
0.0828786
0.0946413
0.104879
0.113697
0.121219
0.12757
0.132869
0.137224
0.140734
0.143486
0.14555
0.147073
0.148149
0.147795
0.147393
-0.0131129
-0.0154436
-0.0118625
-0.00320554
0.00946803
0.0247195
0.0410742
0.0573606
0.0727824
0.0868819
0.0994576
0.110476
0.119997
0.128131
0.135
0.140729
0.145436
0.14923
0.152209
0.154458
0.156049
0.157131
0.157784
0.157076
0.156437
0.00938886
0.00672102
0.0100147
0.0182828
0.0304445
0.0450738
0.0607205
0.0762448
0.0908799
0.104191
0.115994
0.126264
0.135067
0.142513
0.148727
0.153833
0.157948
0.161179
0.163625
0.16537
0.166488
0.167124
0.167349
0.166278
0.165365
0.0319074
0.0289042
0.0319052
0.039774
0.0514107
0.0654047
0.0803318
0.0950846
0.108926
0.121444
0.13247
0.141989
0.150071
0.156829
0.162388
0.16687
0.170392
0.17306
0.174972
0.176213
0.176854
0.177041
0.176835
0.175391
0.174181
0.0544133
0.0510768
0.0537802
0.0612402
0.0723403
0.0856872
0.0998847
0.113858
0.1269
0.138622
0.148869
0.157635
0.164995
0.171065
0.175967
0.179825
0.182754
0.18486
0.186239
0.186974
0.187138
0.186874
0.186234
0.18441
0.182886
0.076877
0.0732095
0.0756112
0.0826537
0.0932067
0.105896
0.119356
0.132543
0.144782
0.155704
0.165171
0.173184
0.179823
0.185204
0.189451
0.192686
0.195024
0.196567
0.197413
0.197643
0.19733
0.196613
0.195536
0.193329
0.191478
0.0992689
0.0952732
0.0973695
0.103987
0.113984
0.126007
0.138722
0.151119
0.162551
0.172673
0.181359
0.18862
0.19454
0.199234
0.202827
0.205441
0.207187
0.208171
0.208484
0.20821
0.20742
0.206249
0.204735
0.202142
0.199956
0.12156
0.117239
0.119027
0.125212
0.134645
0.145995
0.157959
0.169563
0.180187
0.189509
0.197417
0.203927
0.209129
0.213139
0.21608
0.218075
0.219234
0.219658
0.219443
0.218666
0.2174
0.215775
0.213824
0.210845
0.208316
0.14372
0.139078
0.140554
0.146302
0.155164
0.165836
0.177046
0.187854
0.197671
0.206194
0.213325
0.219089
0.223576
0.226904
0.229198
0.230577
0.23115
0.23102
0.230277
0.228999
0.227259
0.225183
0.222795
0.21943
0.216555
0.165722
0.160761
0.161924
0.16723
0.175516
0.185505
0.195958
0.205971
0.214982
0.22271
0.229067
0.234088
0.237864
0.240516
0.242166
0.242933
0.242926
0.242243
0.240976
0.239202
0.23699
0.234464
0.231642
0.227894
0.224668
0.187535
0.18226
0.183109
0.187969
0.195675
0.204978
0.214674
0.223893
0.232101
0.239037
0.244626
0.248909
0.25198
0.25396
0.254972
0.255132
0.254548
0.253318
0.251532
0.249263
0.246583
0.24361
0.240359
0.236229
0.232652
0.209131
0.203546
0.204081
0.208492
0.215616
0.224232
0.233171
0.241598
0.249008
0.255157
0.259985
0.263535
0.265908
0.267223
0.267601
0.26716
0.266006
0.264234
0.261932
0.259175
0.256031
0.252615
0.248937
0.244431
0.230483
0.224593
0.224812
0.228773
0.235313
0.243242
0.251427
0.259067
0.265684
0.271054
0.275126
0.277952
0.279633
0.28029
0.280043
0.279007
0.277287
0.274979
0.272169
0.268928
0.265325
0.26147
0.257371
0.252492
0.251561
0.245371
0.245276
0.248786
0.254742
0.261987
0.269421
0.276279
0.282111
0.286709
0.290034
0.292144
0.293142
0.293148
0.292282
0.290659
0.288382
0.285545
0.282231
0.278513
0.274456
0.270168
0.265653
0.260408
0.27234
0.265855
0.265446
0.268506
0.273879
0.280442
0.287131
0.293215
0.298269
0.302104
0.304692
0.306095
0.306419
0.305783
0.304308
0.302106
0.299279
0.295919
0.29211
0.28792
0.283416
0.278702
0.273777
0.292791
0.286017
0.285296
0.287907
0.292701
0.298586
0.304537
0.309854
0.31414
0.317223
0.319084
0.319791
0.31945
0.318182
0.316107
0.313335
0.309967
0.306093
0.301795
0.297143
0.292199
0.287064
0.281736
0.312889
0.305831
0.304801
0.306965
0.311183
0.316397
0.321617
0.326178
0.329707
0.332048
0.333194
0.333216
0.332222
0.330333
0.327668
0.324335
0.320435
0.316056
0.311279
0.30617
0.300794
0.295246
0.289523
0.332607
0.325272
0.323935
0.325656
0.329303
0.333853
0.338352
0.342168
0.344951
0.346564
0.347007
0.346356
0.344721
0.342223
0.338978
0.335096
0.330674
0.325799
0.320551
0.314996
0.309195
0.303242
0.297132
0.351919
0.344314
0.342674
0.343956
0.347038
0.350933
0.354722
0.357805
0.359856
0.360755
0.360508
0.359198
0.356934
0.353839
0.350027
0.345606
0.340672
0.335312
0.329603
0.32361
0.317394
0.311044
0.370801
0.362932
0.360993
0.361842
0.364367
0.367617
0.370708
0.373071
0.374405
0.374603
0.373682
0.371726
0.368848
0.365169
0.360802
0.355854
0.35042
0.344586
0.338426
0.332005
0.325383
0.318645
0.389229
0.381102
0.37887
0.379291
0.381269
0.383884
0.38629
0.387949
0.388581
0.388095
0.386515
0.383929
0.380451
0.3762
0.371292
0.36583
0.359908
0.353611
0.347012
0.340174
0.333155
0.326039
0.407178
0.398801
0.396281
0.396282
0.397722
0.399716
0.401451
0.402421
0.402369
0.401215
0.398992
0.395792
0.391729
0.386923
0.381487
0.375524
0.369127
0.362379
0.355351
0.348107
0.340703
0.333219
0.424626
0.416007
0.413204
0.412794
0.413706
0.415092
0.416173
0.416472
0.415752
0.413948
0.4111
0.407302
0.402671
0.397325
0.391376
0.384926
0.378068
0.370881
0.363437
0.355798
0.34802
0.44155
0.432696
0.429618
0.428805
0.429202
0.429995
0.430439
0.430085
0.428716
0.426281
0.422826
0.418449
0.413266
0.407395
0.400949
0.394027
0.38672
0.379108
0.371261
0.363239
0.355098
0.457928
0.448848
0.445501
0.444295
0.444191
0.444408
0.444233
0.443244
0.441247
0.4382
0.434157
0.429218
0.423501
0.417123
0.410195
0.402817
0.395076
0.387053
0.378816
0.370424
0.361931
0.47374
0.464442
0.460834
0.459246
0.458655
0.458312
0.457537
0.455935
0.45333
0.449692
0.445081
0.4396
0.433367
0.426499
0.419106
0.411287
0.403128
0.394708
0.386094
0.377344
0.368512
0.488966
0.479458
0.475597
0.473639
0.472576
0.471691
0.470337
0.468143
0.464951
0.460743
0.455585
0.449582
0.442852
0.435513
0.427672
0.419428
0.410866
0.402064
0.393088
0.383994
0.374836
0.503585
0.493877
0.489772
0.487456
0.485937
0.484531
0.482618
0.479854
0.476098
0.471342
0.465658
0.459154
0.451947
0.444155
0.435884
0.427232
0.418284
0.409115
0.399791
0.390367
0.51758
0.50768
0.50334
0.50068
0.498723
0.496814
0.494365
0.491055
0.486758
0.481478
0.47529
0.468305
0.460642
0.452416
0.443734
0.434692
0.425374
0.415853
0.406196
0.396457
0.530933
0.52085
0.516286
0.513295
0.510917
0.508528
0.505566
0.501733
0.496919
0.491138
0.48447
0.477026
0.468927
0.460288
0.451213
0.441799
0.432128
0.422273
0.412298
0.402257
0.543627
0.533371
0.528591
0.525285
0.522505
0.519658
0.516206
0.511876
0.506571
0.500313
0.493188
0.485308
0.476795
0.467762
0.458314
0.448546
0.438539
0.428366
0.41809
0.407763
0.555645
0.545226
0.540242
0.536635
0.533474
0.53019
0.526275
0.521472
0.515702
0.508992
0.501434
0.493141
0.484236
0.47483
0.46503
0.454927
0.444602
0.434128
0.423566
0.412969
0.566974
0.556401
0.551224
0.547332
0.543809
0.540114
0.535761
0.530512
0.524302
0.517166
0.509199
0.500518
0.491242
0.481486
0.471353
0.460934
0.450311
0.439553
0.428722
0.41787
0.577599
0.566882
0.561523
0.557363
0.5535
0.549417
0.544651
0.538984
0.532361
0.524826
0.516476
0.50743
0.497807
0.487722
0.477276
0.466562
0.455658
0.444634
0.433551
0.42246
0.587505
0.576655
0.571126
0.566715
0.562534
0.558089
0.552938
0.54688
0.539871
0.531963
0.523256
0.513869
0.503923
0.493531
0.482795
0.471805
0.460639
0.449368
0.43805
0.596682
0.585709
0.580021
0.575378
0.5709
0.566119
0.560611
0.55419
0.546824
0.53857
0.529532
0.51983
0.509584
0.498908
0.487903
0.476657
0.46525
0.453749
0.442213
0.605118
0.594032
0.588199
0.58334
0.57859
0.573498
0.567661
0.560906
0.553212
0.54464
0.535297
0.525305
0.514784
0.503847
0.492594
0.481114
0.469484
0.457772
0.446037
0.612802
0.601614
0.595648
0.590592
0.585593
0.580218
0.57408
0.567022
0.559028
0.550166
0.540546
0.530289
0.519518
0.508343
0.496864
0.485171
0.473338
0.461435
0.449518
0.619725
0.608445
0.602359
0.597126
0.591902
0.586272
0.579863
0.572529
0.564265
0.555142
0.545272
0.534778
0.52378
0.512391
0.500709
0.488823
0.476809
0.464733
0.452653
0.625879
0.614518
0.608326
0.602934
0.597509
0.591651
0.585001
0.577423
0.568918
0.559563
0.54947
0.538765
0.527567
0.515987
0.504125
0.492068
0.479892
0.467663
0.455438
0.631256
0.619825
0.613539
0.608009
0.602409
0.596351
0.589489
0.581697
0.572982
0.563424
0.553137
0.542247
0.530873
0.519128
0.507108
0.494903
0.482585
0.470223
0.45787
0.63585
0.62436
0.617995
0.612346
0.606595
0.600366
0.593323
0.585348
0.576453
0.566721
0.556269
0.54522
0.533697
0.521809
0.509656
0.497323
0.484885
0.472409
0.459948
0.639655
0.628117
0.621686
0.615939
0.610062
0.603692
0.596499
0.588372
0.579328
0.569451
0.558861
0.547682
0.536035
0.52403
0.511765
0.499327
0.48679
0.474219
0.46167
0.642668
0.631093
0.624609
0.618784
0.612808
0.606325
0.599012
0.590765
0.581602
0.571612
0.560912
0.54963
0.537885
0.525787
0.513435
0.500914
0.488298
0.475653
0.463034
0.644884
0.633283
0.626762
0.620879
0.614829
0.608262
0.600861
0.592524
0.583274
0.5732
0.56242
0.551062
0.539244
0.527079
0.514662
0.50208
0.489408
0.476708
0.464038
0.646302
0.634686
0.628141
0.62222
0.616124
0.609502
0.602044
0.593649
0.584343
0.574215
0.563383
0.551976
0.540113
0.527904
0.515447
0.502827
0.490118
0.477384
0.464682
0.646919
0.6353
0.628745
0.622808
0.61669
0.610044
0.60256
0.594139
0.584807
0.574655
0.563801
0.552373
0.54049
0.528263
0.515788
0.503152
0.490428
0.477681
0.464965
0.646737
0.635125
0.628575
0.622642
0.616528
0.609887
0.602408
0.593993
0.584667
0.574521
0.563673
0.552251
0.540375
0.528154
0.515686
0.503056
0.490339
0.477597
0.464888
0.645756
0.634163
0.627631
0.621723
0.615639
0.609032
0.601589
0.593212
0.583923
0.573813
0.563
0.551612
0.539768
0.527579
0.515141
0.502539
0.489849
0.477134
0.46445
0.643977
0.632414
0.625914
0.620052
0.614024
0.607481
0.600106
0.591797
0.582576
0.572532
0.561784
0.550457
0.538671
0.526538
0.514153
0.501603
0.488961
0.476292
0.463652
0.641404
0.629881
0.623428
0.617631
0.611686
0.605236
0.597959
0.58975
0.580628
0.57068
0.560024
0.548786
0.537085
0.525032
0.512724
0.500247
0.487675
0.475073
0.462495
0.63804
0.62657
0.620177
0.614466
0.608628
0.602299
0.595152
0.587074
0.578082
0.56826
0.557725
0.546602
0.535012
0.523064
0.510856
0.498474
0.485993
0.473477
0.460981
0.63389
0.622483
0.616164
0.610559
0.604855
0.598676
0.591689
0.583773
0.574941
0.565274
0.554889
0.543909
0.532454
0.520636
0.508551
0.496287
0.483917
0.471506
0.459111
0.628961
0.617628
0.611396
0.605917
0.600371
0.594371
0.587573
0.579851
0.571209
0.561727
0.551519
0.540708
0.529415
0.517751
0.505812
0.493686
0.481448
0.469164
0.456888
0.623259
0.61201
0.605879
0.600546
0.595182
0.58939
0.582812
0.575312
0.56689
0.557622
0.547619
0.537005
0.525899
0.514412
0.502642
0.490677
0.478591
0.466452
0.454314
0.616792
0.605639
0.599622
0.594453
0.589296
0.583738
0.577409
0.570163
0.561991
0.552965
0.543195
0.532803
0.521908
0.510623
0.499045
0.487261
0.475349
0.463373
0.451391
0.609569
0.598522
0.592632
0.587646
0.58272
0.577424
0.571374
0.564409
0.556517
0.547761
0.538251
0.528107
0.517449
0.506388
0.495024
0.483443
0.471724
0.459931
0.448123
0.601601
0.59067
0.584919
0.580135
0.575463
0.570456
0.564712
0.558059
0.550474
0.542017
0.532793
0.522923
0.512526
0.501713
0.490584
0.479228
0.467721
0.45613
0.444514
0.592897
0.582093
0.576494
0.571929
0.567534
0.562842
0.557432
0.551119
0.54387
0.535739
0.526829
0.517258
0.507145
0.496603
0.485731
0.474619
0.463344
0.451974
0.440568
0.429174
0.58347
0.572803
0.567367
0.56304
0.558944
0.554591
0.549543
0.543599
0.536713
0.528935
0.520364
0.511116
0.501312
0.491063
0.48047
0.469622
0.458599
0.447467
0.436287
0.42511
0.573332
0.562812
0.557552
0.553479
0.549703
0.545715
0.541056
0.535507
0.529012
0.521614
0.513406
0.504507
0.495034
0.4851
0.474806
0.464243
0.45349
0.442615
0.431679
0.420732
0.562498
0.552135
0.547062
0.543258
0.539824
0.536225
0.53198
0.526853
0.520776
0.513782
0.505964
0.497437
0.488318
0.478721
0.468747
0.458488
0.448023
0.437422
0.426746
0.416047
0.550982
0.540785
0.53591
0.532392
0.529319
0.526133
0.522327
0.517648
0.512014
0.505451
0.498046
0.489914
0.481171
0.471932
0.462298
0.452362
0.442203
0.431894
0.421495
0.411058
0.538799
0.528779
0.524111
0.520894
0.518202
0.51545
0.512109
0.507903
0.502737
0.496629
0.489662
0.481947
0.473602
0.464741
0.455467
0.445872
0.436038
0.426037
0.41593
0.405772
0.525966
0.516131
0.511681
0.508779
0.506487
0.504191
0.501337
0.497629
0.492956
0.487327
0.48082
0.473545
0.46562
0.457157
0.448261
0.439026
0.429534
0.419857
0.410059
0.400193
0.5125
0.50286
0.498637
0.496064
0.494189
0.49237
0.490026
0.486839
0.482682
0.477555
0.471532
0.464718
0.457232
0.449188
0.440689
0.431831
0.422697
0.413361
0.403886
0.394327
0.384734
0.498419
0.488983
0.484996
0.482765
0.481324
0.480002
0.47819
0.475546
0.471928
0.467326
0.461807
0.455476
0.448449
0.440842
0.432758
0.424295
0.415536
0.406555
0.397419
0.388181
0.378893
0.483743
0.474518
0.470777
0.4689
0.467908
0.467101
0.465842
0.463764
0.460707
0.456651
0.451657
0.445829
0.439281
0.432129
0.424478
0.416426
0.408057
0.399448
0.390663
0.38176
0.37279
0.46849
0.459486
0.455997
0.454486
0.453958
0.453685
0.452998
0.451506
0.449031
0.445542
0.441095
0.435788
0.429737
0.423058
0.415857
0.408232
0.400269
0.392045
0.383627
0.375072
0.366432
0.452682
0.443906
0.440678
0.439542
0.439493
0.439769
0.439673
0.438787
0.436915
0.434013
0.430131
0.425364
0.419829
0.41364
0.406905
0.399722
0.39218
0.384355
0.376317
0.368122
0.359825
0.436339
0.4278
0.424839
0.424088
0.42453
0.425372
0.425884
0.425623
0.424372
0.422076
0.418778
0.41457
0.409567
0.403884
0.397631
0.390906
0.383798
0.376386
0.36874
0.360918
0.352975
0.344984
0.419483
0.411189
0.408501
0.408145
0.409089
0.410511
0.411648
0.412029
0.411418
0.409746
0.407049
0.403417
0.398963
0.393802
0.388045
0.381792
0.375133
0.368147
0.360905
0.353468
0.34589
0.338248
0.402137
0.394095
0.391687
0.391732
0.39319
0.395204
0.396981
0.398021
0.398067
0.397037
0.394958
0.391918
0.388028
0.383405
0.378158
0.372391
0.366192
0.359645
0.352819
0.345778
0.338576
0.331294
0.384325
0.376541
0.374418
0.374872
0.376853
0.379472
0.381903
0.383617
0.384336
0.383963
0.382518
0.380086
0.376775
0.372703
0.367981
0.362711
0.356987
0.350889
0.344491
0.337856
0.33104
0.324128
0.366069
0.358551
0.356717
0.357586
0.360099
0.363333
0.366431
0.368833
0.37024
0.370539
0.369744
0.367934
0.365217
0.361709
0.357524
0.352765
0.347525
0.341888
0.335929
0.32971
0.32329
0.316756
0.310101
0.347395
0.340149
0.338609
0.339898
0.342949
0.346808
0.350584
0.353687
0.355795
0.356782
0.35665
0.355475
0.353364
0.350434
0.346798
0.342561
0.337817
0.332652
0.327141
0.321348
0.315333
0.309186
0.302901
0.328328
0.32136
0.320117
0.32183
0.325425
0.329917
0.334381
0.338198
0.34102
0.342706
0.34325
0.342724
0.341232
0.338891
0.335816
0.332111
0.327874
0.32319
0.318136
0.312779
0.307177
0.301425
0.295519
0.308893
0.30221
0.301266
0.303406
0.30755
0.312682
0.317843
0.322383
0.32593
0.328328
0.329561
0.329694
0.328833
0.327092
0.324588
0.321426
0.317705
0.313511
0.308924
0.304009
0.298829
0.29348
0.28796
0.289116
0.282723
0.282081
0.284651
0.289347
0.295123
0.300989
0.306261
0.310545
0.313665
0.315597
0.316401
0.31618
0.31505
0.313126
0.310517
0.30732
0.303626
0.299513
0.295049
0.290297
0.285358
0.280232
0.274459
0.269024
0.262926
0.262588
0.265588
0.270838
0.277264
0.28384
0.289853
0.294881
0.298733
0.301373
0.302859
0.303288
0.302777
0.301443
0.299394
0.296731
0.293543
0.289912
0.285906
0.28159
0.277067
0.27234
0.266921
0.248643
0.242846
0.242813
0.246243
0.252049
0.259126
0.266418
0.273176
0.278956
0.283549
0.286907
0.289082
0.29017
0.290288
0.289551
0.288071
0.285948
0.283273
0.280131
0.276589
0.272714
0.268613
0.264292
0.259232
0.228002
0.22251
0.222782
0.226641
0.233002
0.240733
0.248742
0.256252
0.262791
0.268131
0.272215
0.275087
0.276842
0.277595
0.277463
0.276558
0.274982
0.272827
0.270179
0.267107
0.263679
0.260005
0.256095
0.251399
0.247286
0.207127
0.201945
0.202521
0.206809
0.213723
0.222106
0.230835
0.239101
0.246403
0.252496
0.257312
0.260888
0.263316
0.264711
0.265191
0.264867
0.263844
0.262215
0.260066
0.25747
0.254492
0.251249
0.247754
0.243426
0.239658
0.186047
0.181179
0.182059
0.186772
0.194236
0.20327
0.212719
0.221742
0.229811
0.236663
0.242216
0.246502
0.249609
0.251652
0.252748
0.253011
0.252546
0.251447
0.249802
0.247685
0.245162
0.242353
0.239278
0.235322
0.231895
0.16479
0.16024
0.161422
0.166556
0.174567
0.184248
0.194416
0.204196
0.213035
0.220649
0.226943
0.231943
0.235734
0.23843
0.240147
0.241002
0.241099
0.240535
0.239397
0.237762
0.235698
0.233326
0.230672
0.22709
0.224003
0.143384
0.139156
0.140639
0.146189
0.15474
0.165064
0.175948
0.186485
0.196094
0.204472
0.211511
0.217229
0.221708
0.225059
0.227402
0.228852
0.229514
0.229488
0.228862
0.227712
0.226107
0.224174
0.221944
0.218737
0.215986
0.121859
0.117955
0.119736
0.125696
0.134781
0.145743
0.157338
0.168629
0.179009
0.188151
0.195937
0.202375
0.207544
0.211555
0.214526
0.216573
0.217804
0.218318
0.218205
0.217542
0.216399
0.214905
0.213099
0.210267
0.207848
0.100243
0.0966658
0.0987412
0.105106
0.114717
0.126307
0.138608
0.15065
0.161798
0.171705
0.180237
0.187397
0.193259
0.197931
0.201532
0.204179
0.205981
0.207037
0.207438
0.207264
0.206583
0.205528
0.204146
0.201687
0.199591
0.0785644
0.0753171
0.0776837
0.0844442
0.0945718
0.106783
0.119782
0.132569
0.144481
0.155151
0.164431
0.172312
0.178867
0.184201
0.188434
0.191682
0.194056
0.195655
0.196572
0.196886
0.196668
0.196051
0.19509
0.193001
0.191217
0.0568529
0.0539375
0.056591
0.063739
0.0743726
0.0871932
0.100882
0.114408
0.12708
0.13851
0.148534
0.157137
0.164384
0.17038
0.175245
0.179095
0.182041
0.184184
0.185617
0.18642
0.186663
0.186482
0.18594
0.184214
0.182726
0.0351373
0.0325556
0.0354914
0.0430174
0.0541452
0.0675638
0.0819315
0.0961875
0.109613
0.121798
0.132565
0.141887
0.149825
0.156484
0.16198
0.166431
0.169949
0.172636
0.174585
0.175876
0.176578
0.17683
0.176704
0.175332
0.174119
0.0134465
0.0112
0.0144128
0.0223066
0.0339155
0.0479187
0.0629533
0.0779297
0.0921018
0.105037
0.116541
0.126579
0.135207
0.142525
0.148651
0.153703
0.157792
0.161022
0.163487
0.165266
0.166425
0.167106
0.167391
0.166363
0.165388
-0.00819057
-0.0101009
-0.00661668
0.0016337
0.0137096
0.0282827
0.0439706
0.059656
0.0745652
0.088243
0.10048
0.11123
0.120543
0.128519
0.135273
0.140924
0.145584
0.149356
0.152334
0.154599
0.156215
0.15732
0.158012
0.157316
0.156526
-0.0297452
-0.0313188
-0.0275691
-0.0189742
-0.00644656
0.00868037
0.0250066
0.0413881
0.057024
0.0714362
0.0843987
0.0958554
0.105851
0.11448
0.121859
0.128107
0.133335
0.137647
0.141139
0.14389
0.145959
0.147483
0.148581
0.148216
0.14752
-0.0511888
-0.0524255
-0.0484168
-0.0394901
-0.0265271
-0.0108639
0.00608416
0.0231474
0.039498
0.054635
0.0683156
0.0804726
0.0911444
0.100423
0.108424
0.115265
0.121059
0.12591
0.129913
0.133149
0.135672
0.137607
0.139109
0.139101
0.138296
-0.0733932
-0.0691322
-0.0598871
-0.0465064
-0.0303256
-0.0127737
0.00495532
0.0220072
0.037858
0.0522476
0.0650976
0.0764395
0.0863626
0.0949802
0.102411
0.108767
0.114155
0.118668
0.122389
0.125369
0.127706
0.12959
0.130035
0.128706
-0.0941938
-0.0896875
-0.0801385
-0.0663586
-0.0496805
-0.0315442
-0.0131668
0.00457153
0.0211237
0.0362121
0.0497464
0.0617512
0.0723123
0.0815416
0.0895571
0.0964729
0.102394
0.107416
0.111623
0.115066
0.117804
0.120044
0.121408
0.119919
-0.110057
-0.100219
-0.0860589
-0.0689047
-0.0502048
-0.0311978
-0.0127893
0.00445053
0.0202262
0.0344351
0.0470946
0.0582866
0.0681214
0.0767168
0.0841876
0.0906394
0.0961687
0.100862
0.104776
0.107945
0.110532
0.112695
0.112973
-0.130214
-0.120101
-0.105582
-0.0879744
-0.0687331
-0.0491168
-0.0300559
-0.0121434
0.0043068
0.0191796
0.0324845
0.0442993
0.0547326
0.0639021
0.0719228
0.0789017
0.084936
0.0901149
0.0945074
0.098137
0.101114
0.103943
0.105824
-0.139761
-0.124904
-0.106866
-0.087107
-0.0669032
-0.0472088
-0.0286401
-0.0115293
0.00399544
0.0179355
0.0303641
0.0413881
0.0511247
0.0596897
0.067191
0.0737274
0.0793906
0.0842602
0.0883635
0.0917668
0.0951371
0.0981006
-0.144
-0.125557
-0.105305
-0.0845363
-0.0642291
-0.0450218
-0.0272655
-0.0111019
0.00346186
0.0164944
0.0281004
0.0383965
0.047499
0.0555172
0.0625512
0.068695
0.0740367
0.0786105
0.0824539
0.0863031
0.0900063
-0.162845
-0.144023
-0.123304
-0.101996
-0.0810979
-0.061271
-0.0428857
-0.0260974
-0.0109221
0.00270353
0.0148818
0.0257289
0.0353612
0.0438895
0.0514153
0.0580344
0.0638405
0.068875
0.0731576
0.0774572
0.0817333
-0.162243
-0.141085
-0.119263
-0.0977967
-0.0773706
-0.0583738
-0.040976
-0.0252026
-0.0109957
0.0017444
0.0131329
0.0232866
0.0323171
0.0403274
0.0474148
0.0536768
0.0591601
0.0638731
0.0685973
0.0733568
-0.158625
-0.136316
-0.114307
-0.0933036
-0.0737141
-0.0557231
-0.0393661
-0.0245906
-0.0113002
0.000619453
0.0112851
0.020809
0.0292955
0.0368428
0.0435511
0.0494712
0.054603
0.059725
0.0649035
-0.153138
-0.130612
-0.109053
-0.0888912
-0.0703246
-0.0533991
-0.0380688
-0.0242403
-0.0118008
-0.000633596
0.00937413
0.0183275
0.0263255
0.0334698
0.0398145
0.0453535
0.0508512
0.0564014
-0.16971
-0.146693
-0.124604
-0.10389
-0.0847663
-0.0672888
-0.0514182
-0.0370648
-0.0241174
-0.0124598
-0.0019787
0.00743147
0.0158702
0.0234398
0.0301972
0.0361324
0.0419892
0.0478803
-0.162534
-0.139939
-0.118696
-0.0990348
-0.0810224
-0.064627
-0.0497627
-0.0363202
-0.0241839
-0.0132407
-0.00338447
0.00548449
0.0134687
0.0206275
0.0269485
0.0331514
0.0393644
-0.155044
-0.133295
-0.113117
-0.0945877
-0.0776837
-0.0623232
-0.0483992
-0.0357969
-0.0244033
-0.0141121
-0.00482379
0.00356422
0.0111136
0.0178106
0.024349
0.0308709
-0.147673
-0.126999
-0.107972
-0.0905771
-0.074736
-0.0603446
-0.0472894
-0.0354577
-0.0247434
-0.0150468
-0.00626564
0.00166373
0.0087275
0.0155922
0.0224138
-0.140669
-0.121165
-0.103296
-0.0869909
-0.072147
-0.0586526
-0.0463957
-0.0352701
-0.0251766
-0.016013
-0.00771382
-0.000292198
0.00689064
0.0140047
-0.134155
-0.115831
-0.099078
-0.083797
-0.0698777
-0.0572088
-0.0456845
-0.0352054
-0.0256703
-0.0170112
-0.00924048
-0.00174719
0.00565336
-0.14693
-0.128171
-0.110988
-0.0952859
-0.0809564
-0.0678891
-0.0559786
-0.0451258
-0.0352298
-0.0262208
-0.0181097
-0.0103134
-0.00263193
-0.140306
-0.122711
-0.106605
-0.0918804
-0.0784288
-0.066145
-0.0549304
-0.0446845
-0.0353356
-0.0268929
-0.018801
-0.0108441
-0.13424
-0.117746
-0.102642
-0.0888202
-0.0761765
-0.0646122
-0.0540273
-0.0443486
-0.0355833
-0.0272033
-0.0189767
-0.1287
-0.113233
-0.0990562
-0.0860659
-0.0741643
-0.0632518
-0.0532535
-0.0441747
-0.0355145
-0.0270243
-0.123647
-0.10913
-0.0958068
-0.0835803
-0.0723516
-0.0620442
-0.0526614
-0.0437288
-0.0349816
-0.105393
-0.0928543
-0.081321
-0.0707152
-0.061038
-0.0518413
-0.0428439
-0.10198
-0.0901544
-0.0792611
-0.0692995
-0.0598472
-0.0506069
-0.0988467
-0.087677
-0.0774413
-0.067742
-0.0582665
-0.0959585
-0.0854589
-0.0755216
-0.0658189
-0.0933485
-0.0831822
-0.0732605
-0.080588
0.0947664
0.0872208
0.0792094
0.0714773
0.063543
0.0553944
0.0471969
0.038999
0.030801
0.0226194
0.0144749
0.00638046
-0.00165608
-0.0096279
-0.0175289
-0.025354
-0.0330989
-0.0407598
-0.0483333
-0.0558162
-0.0632054
-0.0704983
-0.0776921
-0.0847845
-0.0917732
-0.0986562
0.0855429
0.0777009
0.0688905
0.0611363
0.0536424
0.0459732
0.0382783
0.0306731
0.0231464
0.0156801
0.00827939
0.000951323
-0.00630272
-0.0134826
-0.0205874
-0.0276157
-0.0345661
-0.0414373
-0.0482278
-0.0549363
-0.0615613
-0.0681012
-0.0745548
-0.0809207
-0.0871977
-0.0933847
0.0748889
0.0671419
0.058607
0.0513501
0.0445507
0.0376183
0.0306387
0.0237529
0.0169621
0.0102342
0.00356357
-0.00304387
-0.00958588
-0.0160627
-0.0224739
-0.0288181
-0.0350937
-0.0412994
-0.0474338
-0.0534956
-0.0594836
-0.0653967
-0.0712338
-0.076994
-0.0826766
-0.088281
0.0643649
0.0571
0.0493066
0.0427436
0.0366244
0.0303775
0.0240638
0.0178244
0.0116729
0.00558034
-0.000461807
-0.00644769
-0.0123732
-0.0182378
-0.0240411
-0.029782
-0.0354595
-0.0410728
-0.046621
-0.0521037
-0.0575203
-0.0628704
-0.0681537
-0.07337
-0.0785192
-0.0836011
0.0550656
0.048421
0.0413995
0.0354667
0.0299185
0.0242531
0.0185225
0.0128557
0.00727075
0.00174301
-0.00373665
-0.00916388
-0.0145349
-0.0198493
-0.0251072
-0.0303085
-0.0354527
-0.0405396
-0.0455688
-0.0505404
-0.0554542
-0.0603102
-0.0651084
-0.0698489
-0.0745317
-0.079157
0.046997
0.0409164
0.0345798
0.0291927
0.0241342
0.0189768
0.0137667
0.00861571
0.00354071
-0.00147967
-0.00645442
-0.0113807
-0.0162556
-0.0210789
-0.0258513
-0.0305729
-0.0352436
-0.0398635
-0.0444326
-0.0489512
-0.0534193
-0.0578371
-0.062205
-0.066523
-0.0707915
-0.0750108
0.0399382
0.034357
0.0286392
0.0237518
0.0191403
0.0144453
0.00971039
0.00503033
0.000418879
-0.00414249
-0.00866195
-0.0131376
-0.0175672
-0.0219507
-0.0262889
-0.0305821
-0.0348306
-0.0390345
-0.0431941
-0.0473097
-0.0513816
-0.0554101