/*--------------------------------*- C++ -*----------------------------------*\
  =========                 |
  \\      /  F ield         | OpenFOAM: The Open Source CFD Toolbox
   \\    /   O peration     | Website:  https://openfoam.org
    \\  /    A nd           | Version:  7
     \\/     M anipulation  |
\*---------------------------------------------------------------------------*/
FoamFile
{
    version     2.0;
    format      ascii;
    class       surfaceScalarField;
    location    "300";
    object      phi;
}
// * * * * * * * * * * * * * * * * * * * * * * * * * * * * * * * * * * * * * //

dimensions      [0 3 -1 0 0 0 0];

internalField   nonuniform List<scalar> 
14027
(
-0.00177146
-0.000871488
-0.00172346
-0.000882705
-0.001675
-0.000893632
-0.000855375
-0.00159372
-0.00162611
-0.000904267
-0.000865285
-0.00154535
-0.00157679
-0.000914607
-0.000874906
-0.00149658
-0.00152705
-0.000924647
-0.000884236
-0.0014474
-0.0014769
-0.000934385
-0.000843707
-0.00137032
-0.000893273
-0.00139783
-0.00142636
-0.000943818
-0.000852069
-0.00132133
-0.000902013
-0.00134789
-0.00137543
-0.000952943
-0.000860145
-0.00127198
-0.000910455
-0.00129758
-0.00132412
-0.000961759
-0.000867932
-0.00122228
-0.000918597
-0.00124691
-0.00127246
-0.000970261
-0.000825393
-0.00114962
-0.00087543
-0.00117224
-0.000926437
-0.00119591
-0.00122044
-0.000978449
-0.000832275
-0.00110019
-0.000882635
-0.00112188
-0.000933972
-0.00114457
-0.0011681
-0.00098632
-0.000838876
-0.00105046
-0.000889548
-0.00107121
-0.000941201
-0.00109292
-0.00111543
-0.000993872
-0.000845195
-0.00100043
-0.000896165
-0.00102024
-0.000948122
-0.00104096
-0.00106245
-0.0010011
-0.00085123
-0.000950125
-0.000902486
-0.000968986
-0.000954734
-0.000988712
-0.00100917
-0.00100801
-0.000806405
-0.000882455
-0.000856981
-0.00089955
-0.000908509
-0.000917458
-0.000961034
-0.000936187
-0.000955611
-0.00101459
-0.000811615
-0.000832538
-0.000862445
-0.000848719
-0.000914233
-0.00086567
-0.000967022
-0.000883398
-0.000901784
-0.00102085
-0.00081655
-0.000782383
-0.000867622
-0.000797646
-0.000919656
-0.000813637
-0.000972695
-0.000830359
-0.000847703
-0.00102678
-0.00082121
-0.000732002
-0.000872511
-0.000746344
-0.000924778
-0.000761371
-0.000978053
-0.000777084
-0.00079338
-0.00103238
-0.000825594
-0.000681408
-0.000877111
-0.000694827
-0.000929596
-0.000708886
-0.000983094
-0.000723586
-0.000738831
-0.00103764
-0.000829702
-0.000630616
-0.000881421
-0.000643108
-0.000934111
-0.000656196
-0.000987817
-0.000669879
-0.00068407
-0.00104258
-0.000833532
-0.000579638
-0.000885439
-0.000591201
-0.000938321
-0.000603314
-0.000992222
-0.000615978
-0.000629111
-0.00104718
-0.000785933
-0.000518346
-0.000837084
-0.000528487
-0.000889166
-0.000539119
-0.000942225
-0.000550255
-0.000996306
-0.000561896
-0.000573968
-0.00105145
-0.000789047
-0.000467927
-0.000840357
-0.000477178
-0.0008926
-0.000486876
-0.000945822
-0.000497033
-0.00100007
-0.000507649
-0.000518657
-0.00105538
-0.000791896
-0.000417364
-0.00084335
-0.000425723
-0.00089574
-0.000434486
-0.000949112
-0.000443662
-0.00100351
-0.00045325
-0.000463191
-0.00105898
-0.000794478
-0.00036667
-0.000846064
-0.000374137
-0.000898587
-0.000381962
-0.000952094
-0.000390155
-0.00100663
-0.000398713
-0.000407586
-0.00106224
-0.000796793
-0.000315861
-0.000848497
-0.000322434
-0.000901139
-0.00032932
-0.000954767
-0.000336527
-0.00100943
-0.000344054
-0.000351856
-0.00106516
-0.000798841
-0.000264948
-0.000850649
-0.000270626
-0.000903397
-0.000276572
-0.000957131
-0.000282793
-0.0010119
-0.000289286
-0.000296016
-0.00106774
-0.000800622
-0.000213946
-0.00085252
-0.000218728
-0.000905359
-0.000223733
-0.000959186
-0.000228966
-0.00101405
-0.000234425
-0.00024008
-0.00106998
-0.000802135
-0.000162869
-0.000854109
-0.000166753
-0.000907025
-0.000170817
-0.00096093
-0.000175061
-0.00101587
-0.000179484
-0.000184065
-0.00107189
-0.00080338
-0.00011173
-0.000855417
-0.000114717
-0.000908396
-0.000117837
-0.000962365
-0.000121092
-0.00101737
-0.00012448
-0.000127984
-0.00107345
-0.000804357
-6.05419e-05
-0.000856442
-6.26313e-05
-0.00090947
-6.48089e-05
-0.000963488
-6.70745e-05
-0.00101854
-6.94252e-05
-7.18527e-05
-0.00107467
-0.000805066
-9.31959e-06
-0.000857186
-1.05112e-05
-0.000910249
-1.17459e-05
-0.000964301
-1.30218e-05
-0.00101939
-1.43362e-05
-1.56898e-05
-0.00107555
-0.000805507
4.19237e-05
-0.000857647
4.16297e-05
-0.000910731
4.13377e-05
-0.000964804
4.10514e-05
-0.00101991
4.07732e-05
4.04943e-05
-0.0010761
-0.000805679
9.31742e-05
-0.000857827
9.37775e-05
-0.000910917
9.4428e-05
-0.000964997
9.51308e-05
-0.00102011
9.58886e-05
9.66851e-05
-0.0010763
-0.000805584
0.000144418
-0.000857725
0.000145918
-0.000910808
0.000147511
-0.000964879
0.000149202
-0.00101999
0.000150995
0.000152867
-0.00107617
-0.000805221
0.000195642
-0.000857341
0.000198038
-0.000910402
0.000200572
-0.000964451
0.000203251
-0.00101953
0.000206079
0.000209024
-0.00107569
-0.00080459
0.000246832
-0.000856675
0.000250123
-0.000909701
0.000253597
-0.000963712
0.000257263
-0.00101876
0.000261124
0.000265141
-0.00107488
-0.000803692
0.000297975
-0.000855729
0.00030216
-0.000908704
0.000306572
-0.000962664
0.000311223
-0.00101766
0.000316116
0.000321204
-0.00107372
-0.000802527
0.000349056
-0.000854501
0.000354134
-0.000907412
0.000359484
-0.000961307
0.000365118
-0.00101623
0.000371041
0.000377198
-0.00107223
-0.000801095
0.000400063
-0.000852992
0.000406032
-0.000905826
0.000412317
-0.000959641
0.000418933
-0.00101448
0.000425884
0.000433108
-0.00107039
-0.000799396
0.000450982
-0.000851204
0.00045784
-0.000903946
0.000465059
-0.000957667
0.000472655
-0.00101241
0.000480631
0.000488919
-0.00106822
-0.000797432
0.000501799
-0.000849136
0.000509545
-0.000901772
0.000517695
-0.000955385
0.000526268
-0.00101002
0.000535267
0.000544616
-0.00106572
-0.000795202
0.000552501
-0.000846789
0.000561132
-0.000899306
0.000570211
-0.000952796
0.000579758
-0.00100731
0.000589778
0.000600185
-0.00106288
-0.000792708
0.000603074
-0.000844164
0.000612588
-0.000896547
0.000622594
-0.000949901
0.000633112
-0.00100427
0.000644149
0.000655612
-0.0010597
-0.00078995
-0.000841262
0.0006639
-0.000893497
0.00067483
-0.000946701
0.000686316
-0.00100092
0.000698367
0.000710881
-0.00105619
-0.000838082
0.000715054
-0.000890157
0.000726905
-0.000943197
0.000739356
-0.000997247
0.000752416
0.000765978
-0.00105234
-0.000834627
0.000766038
-0.000886527
0.000778805
-0.000939389
0.000792218
-0.000993257
0.000806284
0.000820889
-0.00104817
-0.000830896
0.000816837
-0.000882609
0.000830518
-0.00093528
0.000844888
-0.000988952
0.000859957
0.0008756
-0.00104366
-0.000826892
0.000867438
-0.000878404
0.00088203
-0.000930869
0.000897354
-0.000984331
0.000913419
0.000930097
-0.00103883
-0.000822614
0.000917829
-0.000873911
0.000933328
-0.000926158
0.0009496
-0.000979398
0.000966659
0.000984366
-0.00103367
-0.000818064
0.000967997
-0.000869134
0.000984398
-0.000921149
0.00100162
-0.000974152
0.00101966
0.00103839
-0.00102818
-0.000813243
-0.000864073
0.00103523
-0.000915843
0.00105338
-0.000968596
0.00107241
0.00109216
-0.00102237
-0.000858729
0.00108581
-0.000910241
0.0011049
-0.00096273
0.0011249
0.00114566
-0.00101623
-0.000853105
0.00113612
-0.000904345
0.00115614
-0.000956558
0.00117712
0.00119888
-0.00100978
-0.0008472
0.00118615
-0.000898157
0.00120709
-0.000950081
0.00122904
0.00125181
-0.001003
-0.000841017
0.00123589
-0.000891678
0.00125776
-0.0009433
0.00128066
0.00130442
-0.000995915
-0.000834557
-0.00088491
0.00130811
-0.000936217
0.00133197
0.00135672
-0.000988511
-0.000877855
0.00135814
-0.000928835
0.00138295
0.00140868
-0.000980796
-0.000870514
0.00140784
-0.000921156
0.00143359
0.00146029
-0.000972771
-0.00086289
0.0014572
-0.000913181
0.00148388
0.00151155
-0.000964439
-0.000854984
-0.000904914
0.00153381
0.00156244
-0.000955802
-0.000896356
0.00158337
0.00161295
-0.000946864
-0.00088751
0.00163254
0.00166307
-0.000937628
-0.000878379
0.00168132
0.00171278
-0.000928095
-0.000868965
0.00176209
-0.00091827
0.00181097
-0.000908155
0.00185943
-0.000897755
-0.000887072
0.0044822
2.17834e-05
-2.00173e-05
0.00447716
6.13444e-05
-5.63049e-05
0.00446929
9.91349e-05
-9.12604e-05
0.00445881
0.000136735
-0.000126263
0.004446
0.000175803
-0.000162989
0.00443102
0.000217027
-0.000202049
0.00441404
0.000260848
-0.000243871
0.00439521
0.000307442
-0.000288612
0.00437467
0.000356834
-0.000336287
0.00435256
0.00040903
-0.00038692
0.00432904
0.000463952
-0.000440438
0.00430433
0.000521568
-0.000496853
0.00427864
0.000581786
-0.000556094
0.00425227
0.000644554
-0.000618183
0.00422555
0.000709758
-0.000683039
0.00419892
0.000777275
-0.000750648
0.00417286
0.000846926
-0.000820868
0.004148
0.000918425
-0.000893567
0.00412499
0.000991481
-0.000968469
0.0041047
0.0010655
-0.00104521
0.00408793
0.00114013
-0.00112336
0.00407586
0.00121419
-0.00120213
0.0040693
0.00128763
-0.00128108
0.00407001
0.0013578
-0.00135851
0.00407817
0.0014268
-0.00143497
0.00409744
0.0014865
-0.00150577
0.00155057
-0.00157762
0.00456702
2.35214e-05
0.00456202
6.63411e-05
0.00455423
0.000106933
0.00454387
0.000147095
0.00453121
0.000188457
0.00451646
0.000231779
0.00449979
0.000277517
0.00448138
0.000325857
0.00446137
0.000376835
0.00443997
0.00043043
0.00441736
0.000486562
0.00439379
0.000545142
0.00436951
0.000606062
0.00434489
0.000669181
0.00432028
0.000734363
0.0042962
0.000801358
0.00427316
0.000869969
0.00425185
0.000939733
0.00423294
0.00101039
0.00421735
0.00108108
0.00420585
0.00115164
0.00419967
0.00122037
0.00419944
0.00128787
0.00420697
0.00135027
0.00422211
0.00141166
0.00424836
0.00146025
0.00151534
0.00465344
2.52347e-05
0.00464852
7.12617e-05
0.00464084
0.000114616
0.00463065
0.000157283
0.00461823
0.000200876
0.00460379
0.000246216
0.00458754
0.000293772
0.00456966
0.000343738
0.00455034
0.000396154
0.00452979
0.000450975
0.00450825
0.000508109
0.00448597
0.000567413
0.00446328
0.000628757
0.00444055
0.000691914
0.00441819
0.00075672
0.00439674
0.000822803
0.00437676
0.000889955
0.00435895
0.00095754
0.00434399
0.00102535
0.00433282
0.00109226
0.00432614
0.00115832
0.00432514
0.00122137
0.00433035
0.00128266
0.00434338
0.00133724
0.00436408
0.00139096
0.00439476
0.00142957
0.0014763
0.0047415
2.69179e-05
0.00473668
7.6088e-05
0.00472914
0.000122152
0.00471917
0.000167252
0.00470705
0.000213001
0.004693
0.000260264
0.00467724
0.000309525
0.00466
0.000360982
0.00464148
0.000414678
0.00462192
0.000470537
0.00460157
0.000528457
0.00458074
0.000588239
0.00455977
0.000649728
0.00453907
0.000712614
0.00451908
0.000776706
0.00450037
0.000841519
0.00448349
0.000906834
0.00446917
0.000971862
0.00445807
0.00103645
0.00445108
0.00109925
0.00444887
0.00116053
0.0044525
0.00121773
0.00446245
0.00127271
0.00447999
0.0013197
0.00450502
0.00136593
0.00453879
0.0013958
0.00143446
0.00483123
2.85659e-05
0.00482652
8.08046e-05
0.00481916
0.000129512
0.00480944
0.000176965
0.00479766
0.000224781
0.00478407
0.00027386
0.00476889
0.000324703
0.00475237
0.000377504
0.00473474
0.000432308
0.00471627
0.00048901
0.00469723
0.000547492
0.00467797
0.000607502
0.00465884
0.000668858
0.00464028
0.000731172
0.00462276
0.000794228
0.00460684
0.000857437
0.0045931
0.000920578
0.00458223
0.000982728
0.00457488
0.0010438
0.00457188
0.00110225
0.00457383
0.00115858
0.00458166
0.00120991
0.00459576
0.00125861
0.00461706
0.0012984
0.00464555
0.00133744
0.00468181
0.00135955
0.00139048
0.00492266
3.01735e-05
0.00491807
8.53968e-05
0.00491091
0.000136671
0.00490149
0.000186387
0.0048901
0.00023617
0.00487701
0.000286949
0.00486248
0.000339239
0.00484675
0.000393229
0.0048301
0.000448963
0.0048128
0.000506305
0.00479517
0.000565122
0.00477756
0.000625108
0.00476036
0.000686057
0.00474403
0.00074751
0.00472903
0.000809226
0.00471594
0.000870528
0.00470531
0.0009312
0.00469784
0.000990206
0.0046941
0.00104753
0.00469487
0.00110149
0.00470067
0.00115278
0.00471225
0.00119832
0.00472997
0.00124089
0.00475443
0.00127394
0.0047857
0.00130617
0.00482387
0.00132137
0.00134521
0.00501583
3.17355e-05
0.00501138
8.985e-05
0.00500444
0.000143606
0.00499534
0.000195484
0.00498439
0.000247127
0.00497185
0.000299482
0.00495802
0.000353077
0.00494315
0.000408094
0.00492754
0.000464573
0.0049115
0.000522349
0.00489535
0.000581273
0.00487947
0.000640987
0.00486426
0.000701265
0.00485019
0.00076158
0.00483774
0.000821678
0.00482746
0.000880802
0.00481991
0.00093875
0.00481572
0.000994401
0.00481544
0.00104781
0.00481972
0.00109721
0.00482904
0.00114346
0.00484398
0.00118337
0.00486483
0.00122004
0.00489193
0.00124684
0.00492537
0.00127273
0.0049649
0.00128185
0.00129932
0.00511076
3.32465e-05
0.00510646
9.41498e-05
0.00509977
0.000150291
0.00509103
0.000204226
0.00508055
0.000257613
0.00506862
0.000311412
0.00505553
0.000366164
0.00504158
0.00042204
0.00502708
0.000479077
0.00501235
0.00053708
0.00499774
0.000595884
0.00498364
0.000655086
0.00497046
0.00071444
0.00495868
0.000773361
0.00494877
0.000831587
0.00494128
0.000888297
0.00493671
0.000943313
0.00493567
0.000995449
0.00493863
0.00104485
0.00494617
0.00108967
0.00495869
0.00113095
0.0049766
0.00116546
0.00500012
0.00119651
0.0050294
0.00121756
0.0050645
0.00123763
0.00510492
0.00124143
0.00125324
0.00520749
3.47013e-05
0.00520336
9.82816e-05
0.00519695
0.000156705
0.00518859
0.000212582
0.00517861
0.00026759
0.00516733
0.000322696
0.00515504
0.000378451
0.00514207
0.000435015
0.00512872
0.000492422
0.00511535
0.000550447
0.00510233
0.000608911
0.00509004
0.000667369
0.00507892
0.000725562
0.00506943
0.000782854
0.00506203
0.000838984
0.00505725
0.000893081
0.00505556
0.000944999
0.0050575
0.000993512
0.0050635
0.00103885
0.00507402
0.00107914
0.0050894
0.00111557
0.0051099
0.00114496
0.00513569
0.00117072
0.00516672
0.00118654
0.00520304
0.00120131
0.00524399
0.00120048
0.00120729
0.00530605
3.60945e-05
0.00530211
0.000102231
0.00529599
0.000162823
0.00528805
0.000220522
0.00527862
0.000277021
0.00526802
0.000333292
0.00525658
0.000389894
0.00524462
0.000446974
0.00523248
0.000504563
0.00522052
0.000562408
0.00520911
0.000620319
0.00519866
0.000677816
0.0051896
0.000734628
0.00518237
0.000790082
0.00517743
0.000843921
0.00517527
0.000895244
0.00517633
0.00094394
0.00518107
0.000988773
0.00518987
0.00103004
0.0052031
0.00106592
0.005221
0.00109767
0.00524374
0.00112222
0.00527141
0.00114305
0.00530382
0.00115413
0.005341
0.00116412
0.00538218
0.0011593
0.00116174
0.00540649
3.74211e-05
0.00540273
0.000105985
0.00539693
0.000168623
0.00538944
0.000228017
0.00538059
0.000285873
0.00537072
0.000343163
0.00536016
0.000400451
0.00534926
0.000457875
0.00533836
0.00051546
0.00532784
0.00057293
0.00531807
0.000630087
0.00530947
0.000686419
0.00530244
0.000741652
0.00529744
0.000795083
0.00529489
0.00084647
0.00529524
0.000894895
0.0052989
0.000940288
0.00530624
0.000981424
0.00531761
0.00101867
0.00533326
0.00105027
0.00535339
0.00107754
0.00537803
0.00109759
0.00540722
0.00111386
0.00544068
0.00112067
0.0054784
0.0011264
0.00551956
0.00111815
0.00111679
0.00550882
3.8676e-05
0.00550528
0.000109529
0.00549982
0.000174084
0.00549279
0.00023504
0.00548455
0.000294112
0.00547545
0.000352272
0.00546581
0.000410087
0.005456
0.000467683
0.00544638
0.000525084
0.00543732
0.000581992
0.0054292
0.000638203
0.00542244
0.000693184
0.00541743
0.000746659
0.0054146
0.000797912
0.00541435
0.000846715
0.00541709
0.000892156
0.00542318
0.000934202
0.00543293
0.000971669
0.00544662
0.00100498
0.00546443
0.00103246
0.00548646
0.00105551
0.00551269
0.00107136
0.00554309
0.00108346
0.0055773
0.00108646
0.00561529
0.00108841
0.00565621
0.00107723
0.00107262
0.0056131
3.98545e-05
0.00560977
0.00011285
0.00560467
0.000179186
0.00559815
0.000241565
0.00559055
0.00030171
0.00558223
0.000360588
0.00557355
0.000418769
0.00556487
0.000476369
0.00555654
0.00053341
0.00554895
0.000589578
0.00554249
0.000644667
0.00553755
0.000698127
0.00553451
0.000749691
0.00553379
0.000798636
0.00553575
0.000844757
0.00554074
0.00088716
0.00554909
0.000925855
0.00556105
0.000959712
0.00557682
0.000989209
0.00559651
0.00101278
0.00562018
0.00103184
0.0056477
0.00104384
0.00567902
0.00105213
0.00571372
0.00105175
0.00575175
0.00105038
0.00579224
0.00103674
0.00102934
0.00571934
4.0952e-05
0.00571626
0.000115937
0.00571153
0.00018391
0.00570553
0.000247569
0.0056986
0.000308639
0.00569111
0.000368082
0.00568341
0.00042647
0.00567586
0.00048391
0.00566885
0.000540422
0.00566275
0.000595683
0.00565793
0.000649487
0.00565477
0.000701279
0.00565367
0.000750799
0.00565497
0.000797335
0.00565902
0.000840705
0.00566613
0.00088005
0.00567656
0.000915421
0.00569052
0.000945758
0.00570814
0.000971585
0.00572946
0.000991456
0.0057545
0.0010068
0.00578305
0.00101528
0.00581504
0.00102014
0.00585001
0.00101679
0.00588788
0.00101251
0.0059278
0.000996825
0.000987071
0.0058276
4.19643e-05
0.00582476
0.000118778
0.00582043
0.000188239
0.00581497
0.000253029
0.00580874
0.000314876
0.00580209
0.000374731
0.00579539
0.000433168
0.00578901
0.000490288
0.00578332
0.000546112
0.0057787
0.000600311
0.0057755
0.000652684
0.0057741
0.000702678
0.00577485
0.000750046
0.00577809
0.000794097
0.00578412
0.000834677
0.0057932
0.000870973
0.00580554
0.000903076
0.00582129
0.00093001
0.00584054
0.000952337
0.00586326
0.000968738
0.00588941
0.000980651
0.00591876
0.000985925
0.0059512
0.00098771
0.00598623
0.000981756
0.00602378
0.00097496
0.00606301
0.000957594
0.00094587
0.00593791
4.28876e-05
0.00593533
0.000121363
0.00593141
0.000192156
0.00592651
0.000257927
0.00592099
0.000320398
0.00591521
0.000380514
0.00590953
0.000438847
0.00590432
0.000495493
0.00589996
0.000550478
0.0058968
0.000603474
0.00589519
0.000654286
0.0058955
0.000702372
0.00589804
0.000747503
0.00590312
0.00078902
0.005911
0.000826796
0.00592189
0.000860079
0.00593597
0.000888996
0.00595332
0.000912664
0.00597398
0.000931676
0.00599787
0.000944846
0.00602492
0.0009536
0.00605486
0.000955986
0.00608754
0.000955032
0.00612247
0.000946824
0.00615957
0.000937867
0.00619802
0.000919145
0.000905791
0.00605031
4.37182e-05
0.00604799
0.000123683
0.0060445
0.000195647
0.00604018
0.000262246
0.00603539
0.000325191
0.00603049
0.000385416
0.00602584
0.000443494
0.00602181
0.000499522
0.00601876
0.000553529
0.00601704
0.000605192
0.006017
0.000654329
0.00601895
0.000700418
0.00602321
0.000743251
0.00603002
0.000782206
0.00603962
0.000817191
0.00605218
0.000847519
0.00606782
0.000873355
0.00608658
0.00089391
0.00610845
0.000909804
0.00613331
0.000919983
0.00616106
0.000925854
0.00619139
0.000925652
0.00622415
0.000922278
0.00625884
0.000912134
0.00629536
0.000901341
0.00633296
0.000881549
0.000866865
0.00616484
4.44531e-05
0.00616279
0.000125728
0.00615974
0.000198702
0.00615601
0.000265972
0.00615196
0.000329238
0.00614795
0.000389426
0.00614434
0.000447106
0.00614149
0.000502378
0.00613974
0.000555276
0.00613944
0.000605494
0.00614091
0.00065286
0.00614444
0.000696882
0.00615032
0.000737375
0.00615876
0.000773765
0.00616996
0.000805994
0.00618403
0.000833445
0.00620106
0.000856321
0.00622104
0.000873929
0.00624394
0.000886912
0.00626958
0.000894339
0.00629784
0.000897595
0.0063284
0.000895092
0.00636108
0.000889595
0.00639541
0.000877807
0.00643128
0.00086547
0.00646797
0.000844861
0.000829112
0.00628153
4.50897e-05
0.00627976
0.000127494
0.00627716
0.000201309
0.00627403
0.000269095
0.00627074
0.000332533
0.00626763
0.000392538
0.00626505
0.000449681
0.00626336
0.000504068
0.00626289
0.000555742
0.00626397
0.000604415
0.0062669
0.000649932
0.00627195
0.000691835
0.00627936
0.000729968
0.00628931
0.000763809
0.00630197
0.000793336
0.00631741
0.000818007
0.00633567
0.000838059
0.00635671
0.000852894
0.00638044
0.000863173
0.0064067
0.000868087
0.0064353
0.000868987
0.00646594
0.000864451
0.00649843
0.000857108
0.0065323
0.000843941
0.00656744
0.000830323
0.00660319
0.000809119
0.000792538
0.00640043
4.56259e-05
0.00639895
0.000128973
0.00639679
0.000203462
0.00639428
0.000271607
0.00639175
0.000335067
0.00638953
0.000394751
0.00638799
0.000451227
0.00638745
0.00050461
0.00638824
0.000554955
0.00639065
0.000601997
0.00639498
0.000645604
0.00640146
0.000685355
0.0064103
0.000721126
0.00642166
0.000752453
0.00643565
0.00077935
0.0064523
0.00080135
0.00647164
0.000818724
0.00649356
0.000830967
0.00651799
0.000838753
0.00654469
0.000841383
0.0065735
0.000840175
0.00660409
0.000833859
0.00663627
0.000824926
0.0066696
0.000810618
0.00670396
0.000795956
0.00673873
0.00077435
0.000757139
0.00652157
4.606e-05
0.00652038
0.000130162
0.00651869
0.000205155
0.00651679
0.000273503
0.00651502
0.000336841
0.0065137
0.000396068
0.00651318
0.000451753
0.00651376
0.000504023
0.00651577
0.000552948
0.00651948
0.000598289
0.00652514
0.00063994
0.00653297
0.000677525
0.00654315
0.00071095
0.00655579
0.000739813
0.00657097
0.000764166
0.00658871
0.000783616
0.00660896
0.000798467
0.00663163
0.000808301
0.00665658
0.000813799
0.0066836
0.000814371
0.00671248
0.00081129
0.00674291
0.000803428
0.0067747
0.00079314
0.00680741
0.000777905
0.00684096
0.00076241
0.00687474
0.00074057
0.000722907
0.00664501
4.63909e-05
0.00664411
0.000131058
0.00664288
0.000206385
0.0066416
0.000274782
0.00664059
0.000337856
0.00664016
0.000396498
0.00664063
0.000451277
0.00664232
0.000502337
0.0066455
0.000549762
0.00665045
0.000593347
0.00665737
0.000633012
0.00666647
0.000668429
0.00667788
0.00069954
0.00669169
0.000726005
0.00670794
0.000747912
0.00672662
0.000764943
0.00674765
0.000777429
0.00677092
0.000785037
0.00679627
0.000788451
0.00682346
0.000787177
0.0068523
0.000782444
0.00688248
0.000773253
0.00691379
0.000761825
0.00694584
0.000745858
0.00697854
0.000729715
0.00701132
0.000707787
0.000689827
0.00677078
4.66181e-05
0.00677017
0.00013166
0.00676941
0.000207153
0.00676874
0.000275447
0.00676848
0.000338119
0.00676892
0.000396054
0.00677038
0.000449822
0.00677313
0.000499584
0.00677745
0.000545442
0.00678357
0.000587229
0.00679169
0.000624893
0.00680196
0.000658158
0.0068145
0.000687001
0.00682936
0.000711145
0.00684656
0.000730714
0.00686604
0.000745461
0.00688772
0.000755744
0.00691145
0.000761307
0.00693707
0.000762834
0.00696433
0.000759917
0.00699304
0.00075374
0.00702287
0.00074342
0.00705365
0.000731045
0.00708499
0.000714518
0.00711681
0.000697895
0.00714859
0.000676005
0.00065788
0.00689892
4.67417e-05
0.00689861
0.00013197
0.00689831
0.000207459
0.00689825
0.000275502
0.00689873
0.000337641
0.00690003
0.000394754
0.00690244
0.000447413
0.00690622
0.000495801
0.00691162
0.000540039
0.00691885
0.000579999
0.00692808
0.000615662
0.00693944
0.000646802
0.00695301
0.000673435
0.00696881
0.000695345
0.00698683
0.000712692
0.00700699
0.000725296
0.0070292
0.000733538
0.00705327
0.000737233
0.00707905
0.000737061
0.00710627
0.000732693
0.00713474
0.000725266
0.00716417
0.000714
0.00719436
0.000700855
0.00722495
0.000683921
0.00725588
0.000666964
0.00728667
0.000645219
0.000627046
0.00702949
4.67621e-05
0.00702947
0.000131987
0.00702962
0.00020731
0.00703017
0.000274956
0.00703137
0.000336436
0.0070335
0.00039262
0.00703683
0.000444084
0.0070416
0.000491031
0.00704804
0.000533607
0.00705631
0.000571725
0.00706657
0.000605398
0.00707892
0.000634453
0.00709341
0.000658944
0.00711004
0.000678716
0.00712877
0.000693962
0.0071495
0.000704566
0.00717211
0.000710928
0.00719642
0.000712926
0.00722224
0.000711236
0.00724934
0.000705598
0.0072775
0.000697098
0.00730645
0.000685053
0.00733601
0.000671298
0.00736584
0.000654094
0.00739587
0.000636931
0.00742566
0.000615425
0.000597303
0.00716252
4.66806e-05
0.00716279
0.000131718
0.00716339
0.000206711
0.00716452
0.000273822
0.00716644
0.000334522
0.00716938
0.000389678
0.00717359
0.000439868
0.0071793
0.000485321
0.00718671
0.000526205
0.00719595
0.000562477
0.00720717
0.000594183
0.00722042
0.000621204
0.00723573
0.000643631
0.00725308
0.000661367
0.00727241
0.000674637
0.00729359
0.000683383
0.00731649
0.000688022
0.00734093
0.00068849
0.00736671
0.000685453
0.0073936
0.000678713
0.00742139
0.000669305
0.00744981
0.000656633
0.0074787
0.00064241
0.00750774
0.000625055
0.00753687
0.0006078
0.00756569
0.000586611
0.000568626
0.00729806
4.64988e-05
0.00729862
0.000131165
0.00729965
0.000205673
0.00730136
0.000272113
0.00730396
0.000331921
0.00730768
0.000385959
0.00731274
0.000434807
0.00731934
0.00047872
0.00732766
0.000517895
0.00733781
0.000552326
0.00734989
0.000582099
0.00736395
0.000607146
0.00737998
0.000627595
0.00739795
0.000643402
0.00741776
0.000654822
0.0074393
0.000661852
0.0074624
0.000664921
0.00748687
0.000664017
0.00751253
0.000659794
0.00753913
0.000652108
0.00756649
0.000641944
0.00759434
0.000628782
0.00762253
0.000614219
0.00765077
0.00059682
0.007679
0.000579571
0.00770684
0.000558766
0.00054099
0.00743617
4.6219e-05
0.00743699
0.000130337
0.00743846
0.000204207
0.00744073
0.000269848
0.00744399
0.000328659
0.00744845
0.000381495
0.00745432
0.000428943
0.00746175
0.000471284
0.00747091
0.000508739
0.00748189
0.000541348
0.00749475
0.000569231
0.00750953
0.000592371
0.00752619
0.000610931
0.00754468
0.000624919
0.00756488
0.000634616
0.00758666
0.000640069
0.00760987
0.000641717
0.00763429
0.000639593
0.00765975
0.000634335
0.00768601
0.000625848
0.00771289
0.000615066
0.00774013
0.000601537
0.0077676
0.000586749
0.00779503
0.000569398
0.00782235
0.000552243
0.00784924
0.000531876
0.000514373
0.00757688
4.5844e-05
0.00757797
0.000129242
0.00757985
0.000202327
0.00758265
0.000267047
0.00758655
0.000324763
0.00759172
0.000376324
0.00759834
0.000422323
0.00760656
0.000463066
0.00761649
0.000498804
0.00762822
0.000529617
0.00764179
0.000555661
0.0076572
0.000576968
0.0076744
0.000593733
0.0076933
0.000606014
0.0077138
0.000614116
0.00773574
0.000618128
0.00775896
0.000618496
0.00778326
0.000615294
0.00780846
0.000609142
0.00783432
0.000599988
0.00786067
0.000588714
0.00788728
0.000574929
0.00791401
0.000560018
0.00794061
0.000542796
0.00796705
0.000525808
0.00799299
0.000505926
0.000488749
0.00772024
4.53769e-05
0.0077216
0.000127888
0.00772387
0.000200049
0.00772719
0.000263734
0.00773169
0.000320265
0.00773753
0.000370486
0.00774485
0.000414995
0.00775379
0.000454126
0.00776444
0.000488156
0.00777685
0.000517208
0.00779104
0.000541471
0.00780699
0.000561023
0.00782463
0.000576091
0.00784386
0.000586778
0.00786457
0.000593408
0.00788659
0.000596111
0.00790975
0.000595336
0.00793385
0.000591189
0.00795872
0.000584275
0.00798413
0.000574576
0.00800992
0.000562923
0.00803587
0.000548983
0.00806185
0.000534038
0.00808763
0.000517015
0.00811318
0.000500259
0.0081382
0.000480901
0.000464093
0.00786631
4.48216e-05
0.00786792
0.000126286
0.00787057
0.000197391
0.00787437
0.000259933
0.00787944
0.000315198
0.00788591
0.000364021
0.00789389
0.00040701
0.00790349
0.000444523
0.00791479
0.000476864
0.0079278
0.000504196
0.00794253
0.000526741
0.00795893
0.000544621
0.00797693
0.000558092
0.00799641
0.000567296
0.00801724
0.000572576
0.00803926
0.000574096
0.00806229
0.000572306
0.00808614
0.000567341
0.00811063
0.000559786
0.00813555
0.000549653
0.00816075
0.000537725
0.00818601
0.000523718
0.00821123
0.000508818
0.00823619
0.000492056
0.00826086
0.000475587
0.00828498
0.000456784
0.000440383
0.00801514
4.4182e-05
0.00801698
0.000124449
0.00802
0.000194371
0.00802426
0.000255672
0.00802986
0.000309597
0.00803691
0.000356975
0.00804549
0.000398421
0.0080557
0.000434317
0.00806757
0.000464995
0.00808111
0.000490654
0.0080963
0.00051155
0.00811308
0.000527843
0.00813136
0.000539816
0.008151
0.000547648
0.00817188
0.000551697
0.00819382
0.000552155
0.00821666
0.000549471
0.00824019
0.000543806
0.00826426
0.00053572
0.00828866
0.000525255
0.00831324
0.000513146
0.0083378
0.00049915
0.00836226
0.000484366
0.0083864
0.000467916
0.0084102
0.000451782
0.00843343
0.000433557
0.000417594
0.00816678
4.34628e-05
0.00816884
0.00012239
0.0081722
0.000191013
0.00817689
0.00025098
0.00818299
0.0003035
0.00819057
0.000349394
0.00819971
0.000389281
0.00821045
0.00042357
0.00822283
0.000452616
0.00823683
0.000476656
0.00825241
0.000495974
0.00826948
0.000510767
0.00828796
0.000521342
0.00830769
0.00052791
0.00832855
0.000530842
0.00835035
0.000530352
0.00837294
0.000526889
0.00839611
0.000520631
0.00841971
0.000512119
0.00844355
0.000501414
0.00846749
0.000489206
0.00849135
0.000475291
0.00851503
0.000460683
0.00853836
0.00044459
0.00856131
0.00042883
0.00858367
0.000411203
0.000395702
0.00832128
4.26688e-05
0.00832354
0.000120121
0.00832722
0.000187337
0.00833231
0.000245889
0.00833887
0.000296946
0.00834694
0.000341323
0.00835657
0.000379645
0.0083678
0.000412343
0.00838062
0.000439795
0.00839501
0.000462273
0.00841089
0.000480086
0.00842819
0.000493467
0.00844679
0.000502743
0.00846655
0.000508152
0.00848732
0.000510075
0.00850892
0.000508747
0.0085312
0.000504611
0.00855397
0.000497861
0.00857707
0.000489016
0.00860033
0.000478154
0.00862362
0.000465922
0.00864676
0.000452149
0.00866967
0.000437771
0.00869219
0.000422072
0.0087143
0.00040672
0.0087358
0.000389704
0.000374685
0.00847869
4.18051e-05
0.00848115
0.000117659
0.00848512
0.000183367
0.00849058
0.000240429
0.00849755
0.000289974
0.00850606
0.00033281
0.00851614
0.000369567
0.00852779
0.000400695
0.00854099
0.000426596
0.00855569
0.000447572
0.00857182
0.000463957
0.00858927
0.000476014
0.00860793
0.000484087
0.00862764
0.00048844
0.00864826
0.000489457
0.00866961
0.000487394
0.00869154
0.000482684
0.00871386
0.000475535
0.00873644
0.000466441
0.0087591
0.000455497
0.00878171
0.000443308
0.00880413
0.00042973
0.00882627
0.000415627
0.00884799
0.000400354
0.00886927
0.000385437
0.00888994
0.000369042
0.00035452
0.00863907
4.08771e-05
0.00864171
0.000115017
0.00864595
0.000179127
0.00865175
0.000234633
0.00865909
0.000282626
0.008668
0.000323905
0.00867847
0.000359102
0.00869047
0.000388688
0.00870398
0.000413084
0.00871894
0.000432622
0.00873524
0.000447655
0.00875278
0.000458474
0.00877143
0.000465438
0.00879103
0.000468832
0.00881145
0.000469043
0.0088325
0.00046634
0.00885404
0.000461148
0.00887589
0.000453684
0.00889791
0.00044442
0.00891995
0.000433461
0.00894188
0.000421372
0.00896358
0.000408036
0.00898495
0.000394247
0.00900588
0.000379426
0.00902635
0.000364966
0.0090462
0.000349198