/*--------------------------------*- C++ -*----------------------------------*\
  =========                 |
  \\      /  F ield         | OpenFOAM: The Open Source CFD Toolbox
   \\    /   O peration     | Website:  https://openfoam.org
    \\  /    A nd           | Version:  7
     \\/     M anipulation  |
\*---------------------------------------------------------------------------*/
FoamFile
{
    version     2.0;
    format      ascii;
    class       volVectorField;
    location    "300";
    object      U;
}
// * * * * * * * * * * * * * * * * * * * * * * * * * * * * * * * * * * * * * //

dimensions      [0 1 -1 0 0 0 0];

internalField   nonuniform List<vector> 
7156
(
(0.804101 0.272965 1.42244e-19)
(0.797133 0.2671 -1.54911e-19)
(0.790311 0.261032 7.90459e-20)
(0.771892 0.267074 -2.33339e-19)
(0.783641 0.254767 -6.37504e-21)
(0.765053 0.26031 -2.1751e-19)
(0.777126 0.248308 2.36581e-19)
(0.758379 0.253349 3.57372e-19)
(0.770772 0.241657 1.75761e-19)
(0.751876 0.246192 1.95276e-19)
(0.764585 0.23482 -4.47018e-19)
(0.731777 0.250471 -3.02984e-19)
(0.74555 0.238845 -1.91965e-19)
(0.75857 0.2278 3.15249e-19)
(0.72531 0.242589 6.50575e-19)
(0.739407 0.231313 -5.51169e-20)
(0.752731 0.220603 -9.08728e-20)
(0.71904 0.234515 -1.6214e-19)
(0.733453 0.223599 -1.43253e-19)
(0.747074 0.213233 1.91758e-19)
(0.712974 0.226257 -2.25204e-19)
(0.727692 0.21571 -3.19167e-20)
(0.741604 0.205694 -4.40888e-19)
(0.691628 0.228454 3.99538e-19)
(0.707117 0.217818 7.86311e-20)
(0.722131 0.207649 1.80943e-19)
(0.736325 0.197993 5.22115e-20)
(0.685667 0.219444 -1.69324e-20)
(0.701474 0.209205 8.89065e-20)
(0.716774 0.199423 -2.18091e-19)
(0.731243 0.190134 8.25857e-20)
(0.679937 0.210256 -1.7365e-19)
(0.696051 0.200424 -1.03682e-19)
(0.711627 0.191037 -5.67151e-20)
(0.726362 0.182123 2.22834e-19)
(0.674444 0.200896 -4.70045e-20)
(0.690854 0.19148 -6.57198e-21)
(0.706694 0.182498 2.69268e-20)
(0.721687 0.173966 -7.12938e-20)
(0.669194 0.191371 1.74549e-19)
(0.685887 0.182381 2.15836e-19)
(0.701981 0.173811 1.36391e-19)
(0.717221 0.165669 1.81482e-19)
(0.646439 0.190714 -1.58278e-19)
(0.664192 0.181688 -1.54778e-19)
(0.681156 0.173132 6.39003e-20)
(0.697491 0.164982 -1.96739e-19)
(0.71297 0.157237 -1.49337e-19)
(0.641417 0.180413 2.54246e-19)
(0.659442 0.171854 9.25334e-20)
(0.676665 0.163742 -4.13095e-20)
(0.69323 0.156018 4.08065e-20)
(0.708936 0.148677 1.40444e-19)
(0.636666 0.169961 -3.02723e-19)
(0.65495 0.161877 -6.46714e-20)
(0.672418 0.154215 -6.05188e-20)
(0.689202 0.146926 -8.32084e-20)
(0.705125 0.139996 -2.3829e-19)
(0.632191 0.159364 -6.81003e-20)
(0.650721 0.151763 -5.51818e-21)
(0.66842 0.144561 2.05704e-19)
(0.685411 0.137712 -2.17259e-20)
(0.701539 0.131199 -4.29394e-22)
(0.627997 0.148631 4.36708e-19)
(0.646757 0.141521 1.61548e-19)
(0.664675 0.134785 -2.5594e-19)
(0.68186 0.128383 2.66895e-19)
(0.698182 0.122294 3.80171e-20)
(0.624089 0.13777 -2.42017e-19)
(0.643065 0.131159 -1.17088e-19)
(0.661186 0.124896 1.70067e-19)
(0.678553 0.118947 -6.04128e-20)
(0.695058 0.113288 6.41418e-20)
(0.62047 0.12679 6.90233e-20)
(0.639647 0.120684 1.5793e-19)
(0.657958 0.114901 -1.70996e-19)
(0.675495 0.109411 -7.56812e-20)
(0.69217 0.104186 3.1515e-20)
(0.596852 0.121607 -4.47613e-20)
(0.617144 0.115699 -1.00033e-19)
(0.636507 0.110104 -9.43298e-20)
(0.654994 0.104807 7.15277e-20)
(0.672687 0.0997808 -1.31497e-19)
(0.68952 0.0949965 -4.3245e-20)
(0.593643 0.109868 -1.27735e-19)
(0.614115 0.104506 7.94853e-20)
(0.633649 0.0994292 9.06635e-21)
(0.652297 0.0946234 5.60914e-20)
(0.670133 0.0900653 4.60023e-20)
(0.687111 0.0857262 1.76544e-20)
(0.590751 0.0980307 1.41763e-20)
(0.611386 0.0932198 1.49978e-19)
(0.631076 0.0886664 6.31038e-20)
(0.64987 0.084357 -1.60102e-19)
(0.667836 0.0802718 4.77899e-21)
(0.684946 0.0763824 8.83441e-21)
(0.588178 0.0861037 8.77219e-20)
(0.608961 0.0818496 -1.42454e-20)
(0.62879 0.0778244 1.77466e-20)
(0.647716 0.0740162 -1.54156e-20)
(0.665798 0.0704079 -4.36032e-20)
(0.683027 0.0669723 -1.68119e-20)
(0.585928 0.0740969 -6.36411e-21)
(0.606842 0.0704044 -7.41007e-20)
(0.626794 0.066912 -5.43826e-20)
(0.645836 0.0636091 4.4811e-20)
(0.664021 0.0604813 5.60892e-20)
(0.681356 0.0575033 4.06935e-20)
(0.584004 0.0620201 -1.14688e-19)
(0.605031 0.0588934 1.49194e-20)
(0.625091 0.0559378 -2.39819e-20)
(0.644234 0.0531439 1.19264e-19)
(0.662508 0.0504999 -3.46186e-20)
(0.679935 0.0479829 -2.1315e-20)
(0.582407 0.0498831 9.78432e-21)
(0.603531 0.047326 -1.25473e-19)
(0.623682 0.0449106 1.24095e-20)
(0.64291 0.0426291 -8.70497e-20)
(0.661261 0.0404716 4.99511e-20)
(0.678765 0.0384185 4.56171e-20)
(0.58114 0.0376958 6.89574e-20)
(0.602343 0.0357114 7.5663e-20)
(0.622569 0.0338393 -3.18787e-20)
(0.641868 0.0320729 -4.89759e-20)
(0.660281 0.0304044 -3.46647e-20)
(0.677848 0.0288176 8.14964e-20)
(0.580205 0.0254683 -3.08411e-21)
(0.60147 0.0240593 -2.70703e-20)
(0.621754 0.0227329 4.06545e-20)
(0.641107 0.0214839 2.43399e-21)
(0.659568 0.0203063 -2.10003e-20)
(0.677186 0.0191878 1.52371e-20)
(0.579602 0.0132106 -6.74809e-20)
(0.600911 0.012379 -5.65956e-21)
(0.621237 0.0116003 1.40709e-21)
(0.640629 0.0108705 2.79947e-20)
(0.659125 0.0101854 1.96255e-20)
(0.676778 0.0095366 -1.12917e-20)
(0.579333 0.000932839 2.6499e-20)
(0.60067 0.000680147 -6.98101e-21)
(0.621021 0.000450537 3.7085e-20)
(0.640436 0.000241398 -2.84166e-20)
(0.658952 5.00563e-05 -9.42874e-21)
(0.676625 -0.000126934 -2.70598e-21)
(0.579399 -0.0113549 -1.5396e-21)
(0.600745 -0.0110277 -6.68992e-21)
(0.621104 -0.0107073 -1.27863e-20)
(0.640527 -0.010395 -3.15017e-21)
(0.65905 -0.0100917 2.14638e-21)
(0.676729 -0.00979556 -7.5184e-21)
(0.5798 -0.0236425 -2.36648e-21)
(0.601137 -0.022735 -5.46505e-21)
(0.621489 -0.0218642 -1.14531e-20)
(0.640903 -0.0210301 -3.4079e-21)
(0.659419 -0.0202319 8.27522e-22)
(0.677091 -0.0194631 -3.62935e-21)
(0.580535 -0.0359198 2.53428e-20)
(0.601847 -0.0344322 3.3678e-21)
(0.622174 -0.0330111 2.80112e-20)
(0.641564 -0.0316554 -2.48566e-20)
(0.660059 -0.0303624 -8.03144e-21)
(0.677709 -0.0291213 -1.09085e-20)
(0.581605 -0.0481766 -3.9701e-20)
(0.602874 -0.0461096 1.31088e-20)
(0.623159 -0.044139 -5.2497e-20)
(0.642509 -0.0422623 6.17338e-20)
(0.660969 -0.0404751 1.27545e-20)
(0.678583 -0.0387622 -7.47406e-21)
(0.58301 -0.0604027 2.93295e-20)
(0.604218 -0.0577576 -2.65897e-20)
(0.624444 -0.0552387 1.87311e-20)
(0.643739 -0.0528422 1.73658e-20)
(0.66215 -0.0505616 -1.01776e-20)
(0.679713 -0.0483779 -2.04164e-20)
(0.584747 -0.0725881 4.12788e-20)
(0.605877 -0.0693667 8.13574e-20)
(0.626029 -0.0663012 -5.81006e-20)
(0.645252 -0.0633865 6.8293e-21)
(0.6636 -0.060614 -1.43927e-20)
(0.681098 -0.0579608 -1.49707e-20)
(0.586816 -0.0847227 -3.09206e-20)
(0.607851 -0.0809274 -6.85446e-20)
(0.627911 -0.0773176 -1.61498e-21)
(0.647047 -0.0738868 -8.69736e-20)
(0.665318 -0.0706241 5.57279e-20)
(0.682738 -0.0675034 7.99726e-20)
(0.589215 -0.0967964 -1.36261e-19)
(0.610137 -0.0924302 4.82659e-20)
(0.63009 -0.0882789 1.71464e-20)
(0.649123 -0.0843346 1.02362e-19)
(0.667304 -0.0805838 -6.81593e-20)
(0.68463 -0.0769978 -3.38396e-20)
(0.591943 -0.108799 1.76102e-20)
(0.612735 -0.103866 -8.60426e-20)
(0.632563 -0.0991761 -1.84398e-20)
(0.651479 -0.0947214 7.05987e-21)
(0.669555 -0.0904851 9.06324e-20)
(0.686774 -0.0864367 3.32891e-20)
(0.594997 -0.120722 1.47547e-19)
(0.615642 -0.115225 -6.5317e-20)
(0.635329 -0.11 7.631e-20)
(0.654112 -0.105039 -7.65464e-20)
(0.67207 -0.10032 4.64255e-21)
(0.689168 -0.0958123 -4.49164e-20)
(0.598374 -0.132553 5.82756e-20)
(0.618855 -0.126497 6.83745e-20)
(0.638386 -0.120743 1.07006e-20)
(0.65702 -0.115279 2.58351e-21)
(0.674847 -0.110081 -6.7203e-20)
(0.691811 -0.105117 -1.70247e-20)
(0.602072 -0.144285 -1.30333e-19)
(0.622372 -0.137675 -4.60385e-20)
(0.641731 -0.131396 3.91586e-20)
(0.660202 -0.125433 5.90183e-20)
(0.677883 -0.11976 1.01741e-19)
(0.6947 -0.114344 2.92282e-20)
(0.606088 -0.155906 1.76244e-19)
(0.626191 -0.148749 -1.05674e-19)
(0.645362 -0.141949 -1.29751e-19)
(0.663654 -0.135493 -9.94254e-21)
(0.681177 -0.129349 -1.00426e-19)
(0.697833 -0.123486 -4.4302e-20)
(0.630307 -0.159709 9.3177e-20)
(0.649274 -0.152396 9.89338e-20)
(0.667373 -0.145452 -2.27808e-19)
(0.684724 -0.138841 -9.08569e-21)
(0.701207 -0.132535 4.12088e-21)
(0.634717 -0.170548 -2.33585e-19)
(0.653466 -0.162726 -8.10336e-20)
(0.671356 -0.1553 1.51177e-19)
(0.688523 -0.148228 -1.7449e-20)
(0.70482 -0.141484 -7.32552e-20)
(0.639418 -0.181255 3.0464e-19)
(0.657933 -0.172933 1.29706e-19)
(0.675601 -0.165031 -1.6489e-19)
(0.69257 -0.157502 1.66736e-19)
(0.708669 -0.150326 8.05647e-20)
(0.644404 -0.191824 -5.22486e-20)
(0.662671 -0.183007 -5.70781e-21)
(0.680103 -0.174637 1.73827e-19)
(0.696862 -0.166658 -5.47e-20)
(0.712751 -0.159054 -1.28381e-19)
(0.649673 -0.202245 -2.39822e-19)
(0.667676 -0.192942 -8.79523e-20)
(0.684859 -0.18411 -2.93387e-20)
(0.701395 -0.175686 -1.182e-19)
(0.717063 -0.167662 6.21263e-21)
(0.655219 -0.21251 2.88926e-19)
(0.672945 -0.202729 1.29622e-19)
(0.689864 -0.193443 -4.27899e-20)
(0.706165 -0.184581 9.98165e-20)
(0.7216 -0.176142 1.14135e-19)
(0.661037 -0.222611 -8.2561e-20)
(0.678472 -0.212361 -1.38317e-19)
(0.695114 -0.202628 4.7071e-20)
(0.711168 -0.193336 -2.17224e-19)
(0.72636 -0.184488 -1.75089e-19)
(0.684253 -0.22183 2.01657e-19)
(0.700605 -0.211659 1.18063e-19)
(0.7164 -0.201943 2.00003e-19)
(0.731339 -0.192694 1.94428e-19)
(0.690283 -0.231129 -1.30765e-19)
(0.706332 -0.220529 1.36888e-19)
(0.721857 -0.210397 -5.68747e-20)
(0.736532 -0.200754 -1.20592e-19)
(0.696556 -0.24025 -3.28818e-19)
(0.71229 -0.229231 -1.33809e-19)
(0.727533 -0.21869 3.93385e-20)
(0.741935 -0.20866 1.25207e-19)
(0.703067 -0.249188 2.59582e-20)
(0.718474 -0.237759 -1.91924e-19)
(0.733425 -0.226818 -4.38208e-20)
(0.747544 -0.216407 2.8632e-20)
(0.709811 -0.257935 1.17842e-20)
(0.72488 -0.246106 2.96153e-20)
(0.739526 -0.234773 3.81245e-19)
(0.753355 -0.22399 -6.24005e-20)
(0.7315 -0.254266 -1.8368e-20)
(0.745832 -0.24255 -1.87977e-20)
(0.759363 -0.231403 -2.72094e-19)
(0.738331 -0.262234 -2.81128e-19)
(0.752339 -0.250144 -7.45892e-20)
(0.765563 -0.238639 1.86497e-19)
(0.745365 -0.270004 5.20623e-19)
(0.759039 -0.257549 -7.61226e-20)
(0.77195 -0.245695 -4.9924e-20)
(0.752598 -0.27757 -2.07498e-19)
(0.765929 -0.264761 -1.79942e-19)
(0.778519 -0.252565 2.00088e-19)
(0.773001 -0.271773 9.51836e-20)
(0.785266 -0.259243 -3.15004e-19)
(0.780251 -0.278582 1.99849e-19)
(0.792185 -0.265726 1.09412e-19)
(0.787674 -0.285184 -3.55292e-20)
(0.799271 -0.272009 9.58673e-20)
(0.795262 -0.291574 1.49424e-20)
(0.806518 -0.278087 -7.48619e-20)
(0.813923 -0.283958 -5.48349e-20)
(0.821478 -0.289617 -1.24943e-19)
(0.82918 -0.29506 3.84107e-21)
(0.999985 0.0010045 0)
(0.999228 0.00296897 0)
(0.997772 0.00504896 0)
(0.99572 0.00732792 0)
(0.993116 0.00991975 0)
(0.990015 0.0128948 0)
(0.986447 0.0163213 0)
(0.982454 0.0202576 0)
(0.978058 0.0247585 0)
(0.973302 0.0298833 0)
(0.968207 0.0356891 0)
(0.962829 0.0422438 0)
(0.957195 0.0496133 0)
(0.951387 0.057876 0)
(0.945445 0.0671069 0)
(0.939492 0.0773919 0)
(0.933579 0.0888086 0)
(0.927897 0.10144 0)
(0.922496 0.115354 0)
(0.917671 0.13061 0)
(0.913427 0.147252 0)
(0.910254 0.165278 0)
(0.907963 0.184709 0)
(0.907481 0.205385 0)
(0.908006 0.227438 0)
(0.911618 0.250123 0)
(0.915655 0.274768 0)
(0.999985 0.00108618 0)
(0.99925 0.00321657 0)
(0.997835 0.00545424 0)
(0.99584 0.0078929 0)
(0.993313 0.010643 0)
(0.990311 0.0137783 0)
(0.986867 0.0173666 0)
(0.983026 0.0214664 0)
(0.978816 0.0261319 0)
(0.974285 0.0314197 0)
(0.969459 0.0373852 0)
(0.964404 0.0440897 0)
(0.959153 0.0515953 0)
(0.953798 0.0599691 0)
(0.948386 0.069279 0)
(0.943053 0.0795923 0)
(0.937856 0.0909774 0)
(0.933 0.103487 0)
(0.928531 0.117182 0)
(0.924769 0.132072 0)
(0.921685 0.148208 0)
(0.919815 0.165495 0)
(0.918876 0.184024 0)
(0.9199 0.203405 0)
(0.921834 0.224097 0)
(0.927081 0.244569 0)
(0.932183 0.267517 -1.65468e-28)
(0.999986 0.00116803 0)
(0.999274 0.00346465 0)
(0.997907 0.00586158 0)
(0.995979 0.00846178 0)
(0.993542 0.0113729 0)
(0.990654 0.0146714 0)
(0.987351 0.0184249 0)
(0.983682 0.0226915 0)
(0.979679 0.027525 0)
(0.975396 0.0329787 0)
(0.970864 0.0391059 0)
(0.966155 0.0459612 0)
(0.961308 0.053602 0)
(0.956424 0.0620833 0)
(0.951554 0.0714656 0)
(0.946843 0.0817962 0)
(0.942349 0.0931339 0)
(0.938289 0.1055 0)
(0.934696 0.118947 0)
(0.931907 0.133433 0)
(0.929858 0.14902 0)
(0.929113 0.165515 0)
(0.929306 0.183088 0)
(0.931529 0.201123 0)
(0.93455 0.220386 0)
(0.940879 0.238732 0)
(0.946715 0.259721 0)
(0.999986 0.00124936 0)
(0.999301 0.0037102 0)
(0.997985 0.00626477 0)
(0.996131 0.00902332 0)
(0.993792 0.0120918 0)
(0.991029 0.0155485 0)
(0.98788 0.0194611 0)
(0.984398 0.023887 0)
(0.980619 0.0288792 0)
(0.976601 0.0344876 0)
(0.972382 0.0407632 0)
(0.968037 0.0477537 0)
(0.963612 0.0555117 0)
(0.959214 0.0640807 0)
(0.954895 0.0735134 0)
(0.950809 0.0838389 0)
(0.94701 0.0951062 0)
(0.94372 0.107309 0)
(0.940963 0.120491 0)
(0.939078 0.134568 0)
(0.937972 0.14961 0)
(0.938212 0.165346 0)
(0.939381 0.18201 0)
(0.942553 0.198824 0)
(0.946453 0.21676 0)
(0.953456 0.233358 0)
(0.959933 0.252566 0)
(0.999987 0.0013292 0)
(0.999328 0.00395067 0)
(0.998067 0.00665929 0)
(0.996291 0.00957114 0)
(0.994058 0.012791 0)
(0.991427 0.0163983 0)
(0.988442 0.0204604 0)
(0.985158 0.0250335 0)
(0.981615 0.0301693 0)
(0.977876 0.0359143 0)
(0.973981 0.0423161 0)
(0.970013 0.0494155 0)
(0.966021 0.0572595 0)
(0.962115 0.0658801 0)
(0.958351 0.075322 0)
(0.954885 0.0855967 0)
(0.951767 0.0967434 0)
(0.949221 0.10873 0)
(0.947258 0.121594 0)
(0.946211 0.135212 0)
(0.945969 0.149663 0)
(0.94707 0.164613 0)
(0.949089 0.18035 0)
(0.953014 0.195983 0)
(0.957633 0.212622 0)
(0.965063 0.227667 0)
(0.972061 0.245221 0)
(0.999987 0.00140719 0)
(0.999357 0.00418507 0)
(0.998153 0.00704352 0)
(0.996459 0.0101032 0)
(0.994336 0.0134679 0)
(0.991844 0.0172175 0)
(0.98903 0.0214189 0)
(0.985952 0.0261266 0)
(0.982653 0.0313905 0)
(0.9792 0.037253 0)
(0.975639 0.043758 0)
(0.972054 0.050939 0)
(0.968498 0.0588368 0)
(0.965085 0.067472 0)
(0.96187 0.0768808 0)
(0.959011 0.0870576 0)
(0.956554 0.0980325 0)
(0.954717 0.109749 0)
(0.953503 0.122241 0)
(0.953224 0.135349 0)
(0.953766 0.149161 0)
(0.955615 0.163295 0)
(0.958365 0.17808 0)
(0.962886 0.192555 0)
(0.968079 0.207918 0)
(0.97577 0.221522 0)
(0.983123 0.237491 0)
(0.999988 0.0014831 0)
(0.999387 0.00441278 0)
(0.998242 0.0074164 0)
(0.996634 0.010618 0)
(0.994624 0.0141207 0)
(0.992277 0.018004 0)
(0.989638 0.0223341 0)
(0.986772 0.0271633 0)
(0.983723 0.0325395 0)
(0.980562 0.0385004 0)
(0.977338 0.0450859 0)
(0.974138 0.0523219 0)
(0.971017 0.0602429 0)
(0.968091 0.0688579 0)
(0.965415 0.0781946 0)
(0.963143 0.0882316 0)
(0.961319 0.0989903 0)
(0.960147 0.110393 0)
(0.95963 0.122468 0)
(0.960048 0.135029 0)
(0.961292 0.148173 0)
(0.963784 0.161481 0)
(0.967154 0.175313 0)
(0.972142 0.188673 0)
(0.977776 0.202802 0)
(0.9856 0.215075 0)
(0.993164 0.229548 0)
(0.999989 0.00155669 0)
(0.999419 0.00463313 0)
(0.998334 0.00777675 0)
(0.996815 0.011114 0)
(0.994922 0.0147472 0)
(0.992723 0.018755 0)
(0.990265 0.0232026 0)
(0.987614 0.0281398 0)
(0.984818 0.0336119 0)
(0.981952 0.039652 0)
(0.979065 0.0462953 0)
(0.976248 0.0535602 0)
(0.973557 0.0614745 0)
(0.971106 0.0700361 0)
(0.968953 0.0792649 0)
(0.967242 0.0891243 0)
(0.966017 0.0996282 0)
(0.965466 0.11068 0)
(0.965589 0.122305 0)
(0.966633 0.134295 0)
(0.968495 0.146755 0)
(0.971536 0.159241 0)
(0.975419 0.172136 0)
(0.980766 0.184436 0)
(0.986724 0.197391 0)
(0.994584 0.208449 0)
(1.00225 0.221538 0)
(0.999989 0.00162771 0)
(0.999451 0.00484538 0)
(0.998429 0.00812332 0)
(0.997001 0.0115894 0)
(0.995229 0.015345 0)
(0.99318 0.0194677 0)
(0.990906 0.0240211 0)
(0.988473 0.0290522 0)
(0.985933 0.0346037 0)
(0.98336 0.0407033 0)
(0.98081 0.0473818 0)
(0.97837 0.0546498 0)
(0.9761 0.0625286 0)
(0.97411 0.0710056 0)
(0.972458 0.0800929 0)
(0.971279 0.0897405 0)
(0.970616 0.0999558 0)
(0.970636 0.110626 0)
(0.97134 0.121776 0)
(0.972939 0.133179 0)
(0.97534 0.144947 0)
(0.978839 0.156626 0)
(0.98314 0.168611 0)
(0.98875 0.17991 0)
(0.994934 0.19176 2.29233e-28)
(1.00275 0.201712 -2.40359e-28)
(1.01043 0.213534 0)
(0.99999 0.00169591 0)
(0.999484 0.00504881 0)
(0.998527 0.00845486 0)
(0.997191 0.0120424 0)
(0.995543 0.015912 0)
(0.993647 0.0201393 0)
(0.991559 0.0247865 0)
(0.989346 0.0298973 0)
(0.987061 0.0355112 0)
(0.984781 0.0416509 0)
(0.982562 0.0483423 0)
(0.980492 0.0555884 0)
(0.978631 0.0634042 0)
(0.977084 0.0717671 0)
(0.975909 0.0806823 0)
(0.975229 0.0900879 0)
(0.975087 0.0999857 0)
(0.975627 0.110251 0)
(0.976852 0.120905 0)
(0.978938 0.131714 0)
(0.981799 0.142792 0)
(0.985674 0.153686 0)
(0.990305 0.164792 0)
(0.996097 0.175151 0)
(1.00242 0.185968 0)
(1.01014 0.194915 0)
(1.01777 0.205581 0)
(0.999991 0.00176104 0)
(0.999519 0.00524271 0)
(0.998626 0.00877017 0)
(0.997386 0.0124716 0)
(0.995862 0.0164461 0)
(0.994122 0.0207676 0)
(0.992221 0.0254961 0)
(0.990227 0.030672 0)
(0.988197 0.0363315 0)
(0.986206 0.0424919 0)
(0.984313 0.0491745 0)
(0.982603 0.0563747 0)
(0.981136 0.0641017 0)
(0.980011 0.0723235 0)
(0.979286 0.0810391 0)
(0.979071 0.0901766 0)
(0.979407 0.0997327 0)
(0.980417 0.109574 0)
(0.982104 0.11972 0)
(0.984609 0.129934 0)
(0.987857 0.14033 0)
(0.992034 0.150465 0)
(0.996916 0.160731 0)
(1.00282 0.170211 0)
(1.00921 0.180067 0)
(1.01679 0.188103 0)
(1.02431 0.197717 0)
(0.999991 0.00182285 0)
(0.999553 0.00542639 0)
(0.998728 0.00906809 0)
(0.997584 0.0128751 0)
(0.996186 0.0169453 0)
(0.994602 0.0213501 0)
(0.992889 0.0261473 0)
(0.991114 0.0313737 0)
(0.989336 0.0370621 0)
(0.98763 0.0432244 0)
(0.986054 0.0498772 0)
(0.984691 0.0570088 0)
(0.983602 0.0646228 0)
(0.982877 0.072679 0)
(0.982573 0.0811708 0)
(0.982787 0.0900181 0)
(0.983557 0.0992136 0)
(0.984987 0.108618 0)
(0.987077 0.11825 0)
(0.98994 0.127873 0)
(0.993506 0.137602 0)
(0.997917 0.147009 0)
(1.00298 0.156477 0)
(1.00893 0.165137 0)
(1.01534 0.174104 0)
(1.02272 0.181315 0)
(1.0301 0.189974 0)
(0.999992 0.00188111 0)
(0.999589 0.00559919 0)
(0.998831 0.00934753 0)
(0.997784 0.0132518 0)
(0.996514 0.0174079 0)
(0.995086 0.0218849 0)
(0.99356 0.0267381 0)
(0.992002 0.0320003 0)
(0.990473 0.037701 0)
(0.989044 0.0438469 0)
(0.987776 0.0504498 0)
(0.986747 0.0574917 0)
(0.986017 0.0649706 0)
(0.985668 0.0728394 0)
(0.985755 0.0810864 0)
(0.986362 0.0896256 0)
(0.987523 0.0984461 0)
(0.989324 0.107406 0)
(0.991762 0.116523 0)
(0.994923 0.125565 0)
(0.998746 0.134646 0)
(1.00333 0.143357 0)
(1.00851 0.152073 0)
(1.01446 0.159972 1.01604e-28)
(1.02083 0.168119 -1.06556e-28)
(1.028 0.174583 9.20114e-29)
(1.03519 0.182378 -9.64554e-29)
(0.999993 0.0019356 0)
(0.999625 0.00576047 0)
(0.998935 0.00960744 0)
(0.997986 0.0136 0)
(0.996843 0.0178322 0)
(0.995572 0.0223702 0)
(0.994231 0.0272663 0)
(0.992887 0.0325501 0)
(0.991601 0.0382469 0)
(0.990442 0.0443588 0)
(0.989471 0.0508928 0)
(0.988761 0.0578251 0)
(0.98837 0.0651489 0)
(0.988373 0.0728113 0)
(0.98882 0.0807959 0)
(0.989783 0.0890129 0)
(0.991293 0.0974483 0)
(0.993417 0.105961 0)
(0.996152 0.114566 0)
(0.999557 0.123042 0)
(1.00358 0.131498 0)
(1.00828 0.139549 0)
(1.01353 0.147556 0)
(1.01944 0.154751 0)
(1.02572 0.162144 0)
(1.03266 0.167934 0)
(1.03965 0.174948 0)
(0.999994 0.0019861 0)
(0.999661 0.00590965 0)
(0.999039 0.00984687 0)
(0.998188 0.0139186 0)
(0.997173 0.0182168 0)
(0.996056 0.0228042 0)
(0.994899 0.0277306 0)
(0.993765 0.0330215 0)
(0.992716 0.0386989 0)
(0.991818 0.0447599 0)
(0.991131 0.0512072 0)
(0.990724 0.058012 0)
(0.990651 0.0651629 0)
(0.99098 0.0726023 0)
(0.991756 0.0803103 0)
(0.993039 0.0881946 0)
(0.994858 0.0962391 0)
(0.997259 0.104305 0)
(1.00024 0.112407 0)
(1.00384 0.120332 0)
(1.00801 0.128189 0)
(1.01279 0.135617 0)
(1.01806 0.142961 0)
(1.02389 0.149507 0)
(1.03006 0.156208 0)
(1.03675 0.161391 0)
(1.04351 0.167699 -1.00053e-28)
(0.999994 0.00203243 0)
(0.999697 0.00604619 0)
(0.999143 0.0100649 0)
(0.99839 0.0142065 0)
(0.997501 0.0185602 0)
(0.996538 0.0231856 0)
(0.99556 0.0281296 0)
(0.994632 0.0334138 0)
(0.993813 0.0390566 0)
(0.993166 0.0450508 0)
(0.99275 0.051395 0)
(0.992627 0.058056 0)
(0.992851 0.0650183 0)
(0.993479 0.072221 0)
(0.994554 0.0796412 0)
(0.996122 0.0871857 0)
(0.998209 0.094837 0)
(1.00085 0.10246 0)
(1.00403 0.11007 0)
(1.00778 0.117465 0)
(1.01206 0.124751 0)
(1.01686 0.131592 0)
(1.02212 0.138318 0)
(1.02784 0.144266 0)
(1.03387 0.150335 0)
(1.0403 0.15497 0)
(1.04683 0.160642 0)
(0.999995 0.00207441 0)
(0.999733 0.00616958 0)
(0.999247 0.0102608 0)
(0.998591 0.0144627 0)
(0.997827 0.0188613 0)
(0.997014 0.0235134 0)
(0.996213 0.0284624 0)
(0.995484 0.0337264 0)
(0.994886 0.0393202 -1.11365e-27)
(0.994479 0.0452327 1.16968e-27)
(0.994319 0.0514587 0)
(0.994464 0.0579614 0)
(0.994962 0.0647217 0)
(0.995863 0.0716766 0)
(0.997206 0.0788006 0)
(0.999026 0.0860015 0)
(1.00134 0.0932607 0)
(1.00418 0.100449 0)
(1.00752 0.107581 0)
(1.01138 0.114467 0)
(1.01572 0.121212 0)
(1.02053 0.127502 0)
(1.02573 0.133653 0)
(1.03132 0.139052 0)
(1.03719 0.144543 0)
(1.04336 0.148685 0)
(1.04964 0.153783 0)
(0.999996 0.00211187 0)
(0.999769 0.00627938 0)
(0.99935 0.0104339 0)
(0.99879 0.0146862 0)
(0.998148 0.0191194 0)
(0.997483 0.0237868 0)
(0.996853 0.0287285 0)
(0.996317 0.0339593 0)
(0.995931 0.0394905 0)
(0.995752 0.0453076 0)
(0.995833 0.0514017 0)
(0.996226 0.0577334 0)
(0.996976 0.0642804 0)
(0.998125 0.0709787 0)
(0.999705 0.0778011 0)
(1.00174 0.0846572 0)
(1.00426 0.0915281 0)
(1.00725 0.098291 0)
(1.01072 0.104961 0)
(1.01465 0.111362 0)
(1.01902 0.117594 0)
(1.02379 0.12337 0)
(1.02892 0.128989 0)
(1.03437 0.133884 0)
(1.04006 0.138848 0)
(1.04596 0.142547 0)
(1.052 0.147127 0)
(0.999997 0.00214469 0)
(0.999804 0.00637523 0)
(0.999451 0.0105836 0)
(0.998986 0.0148765 0)
(0.998464 0.0193337 0)
(0.997943 0.0240051 0)
(0.997479 0.0289277 0)
(0.997127 0.0341129 0)
(0.996943 0.0395687 0)
(0.99698 0.0452777 0)
(0.997286 0.0512278 0)
(0.997908 0.0573775 0)
(0.998888 0.0637021 0)
(1.00026 0.0701375 0)
(1.00205 0.0766552 0)
(1.00427 0.083168 0)
(1.00695 0.089657 0)
(1.01007 0.0960067 0)
(1.01363 0.102232 0)
(1.0176 0.108172 0)
(1.02197 0.113922 0)
(1.02669 0.119218 0)
(1.03172 0.124344 0)
(1.037 0.128778 0)
(1.04251 0.133262 0)
(1.04815 0.136562 0)
(1.05394 0.140675 0)
(0.999997 0.00217275 0)
(0.999839 0.00645681 0)
(0.999551 0.0107094 0)
(0.999178 0.015033 0)
(0.998773 0.0195038 0)
(0.998391 0.0241683 0)
(0.998086 0.0290602 0)
(0.997911 0.0341881 0)
(0.997919 0.0395567 0)
(0.998157 0.045146 0)
(0.998673 0.0509414 0)
(0.999505 0.0568999 0)
(1.00069 0.062995 0)
(1.00226 0.0691634 0)
(1.00423 0.0753758 0)
(1.00661 0.0815488 0)
(1.00942 0.0876643 0)
(1.01264 0.0936144 0)
(1.01626 0.0994152 0)
(1.02024 0.104917 0)
(1.02459 0.110214 0)
(1.02922 0.115064 0)
(1.03414 0.119736 0)
(1.03925 0.123748 0)
(1.04457 0.127795 0)
(1.04994 0.130736 0)
(1.05549 0.134428 0)
(0.999998 0.00219596 0)
(0.999873 0.00652388 0)
(0.999649 0.010811 0)
(0.999365 0.0151553 0)
(0.999073 0.0196294 0)
(0.998825 0.0242764 0)
(0.998673 0.0291267 0)
(0.998667 0.0341861 0)
(0.998854 0.0394565 0)
(0.999281 0.0449159 5.99465e-28)
(0.999989 0.0505474 -6.29594e-28)
(1.00101 0.0563073 0)
(1.00238 0.0621678 0)
(1.00412 0.0680668 0)
(1.00625 0.0739753 0)
(1.00876 0.0798141 0)
(1.01167 0.0855662 0)
(1.01496 0.0911317 0)
(1.01861 0.0965272 0)
(1.02259 0.101616 0)
(1.02688 0.10649 0)
(1.03142 0.110925 0)
(1.03621 0.115178 0)
(1.04114 0.118805 0)
(1.04626 0.122455 -7.8505e-29)
(1.05139 0.125073 8.23138e-29)
(1.05669 0.128385 0)
(0.999999 0.00221425 0)
(0.999906 0.00657627 0)
(0.999743 0.0108882 0)
(0.999546 0.0152434 0)
(0.999364 0.0197106 0)
(0.999245 0.0243297 0)
(0.999238 0.0291279 0)
(0.99939 0.0341085 0)
(0.999746 0.0392708 0)
(1.00035 0.0445913 0)
(1.00123 0.0500512 0)
(1.00243 0.0556066 0)
(1.00396 0.061229 0)
(1.00585 0.0668584 0)
(1.0081 0.0724663 0)
(1.01072 0.0779781 0)
(1.01371 0.0833782 0)
(1.01704 0.0885749 0)
(1.0207 0.0935854 0)
(1.02465 0.0982856 0)
(1.02888 0.102763 0)
(1.03331 0.106815 0)
(1.03796 0.110682 0)
(1.04271 0.113958 0)
(1.04762 0.117246 0)
(1.0525 0.119574 0)
(1.05756 0.122543 0)
(0.999999 0.00222759 0)
(0.999938 0.00661389 0)
(0.999835 0.0109409 0)
(0.999722 0.0152973 0)
(0.999644 0.0197477 0)
(0.999647 0.0243289 0)
(0.999778 0.0290651 0)
(1.00008 0.0339574 0)
(1.00059 0.0390028 0)
(1.00135 0.0441766 0)
(1.00239 0.0494585 0)
(1.00374 0.0548051 0)
(1.00542 0.0601877 0)
(1.00743 0.0655488 0)
(1.0098 0.0708608 0)
(1.0125 0.0760542 0)
(1.01554 0.0811149 0)
(1.01889 0.0859592 0)
(1.02254 0.090605 0)
(1.02644 0.0949402 0)
(1.03058 0.0990483 0)
(1.0349 0.102746 0)
(1.0394 0.106259 0)
(1.04396 0.109214 0)
(1.04868 0.112173 0)
(1.05331 0.114241 6.45942e-29)
(1.05814 0.1169 -6.77127e-29)
(1 0.00223597 0)
(0.999969 0.00663672 0)
(0.999923 0.0109692 0)
(0.99989 0.015317 0)
(0.999912 0.0197411 0)
(1.00003 0.024275 0)
(1.00029 0.02894 0)
(1.00073 0.0337353 0)
(1.00139 0.0386558 0)
(1.00229 0.0436762 0)
(1.00348 0.0487751 0)
(1.00496 0.0539102 0)
(1.00676 0.0590529 -7.8985e-28)
(1.00888 0.0641484 8.29407e-28)
(1.01133 0.0691706 0)
(1.01409 0.0740552 0)
(1.01716 0.07879 0)
(1.02051 0.0832987 0)
(1.02413 0.0876002 0)
(1.02797 0.0915933 0)
(1.03202 0.0953582 0)
(1.0362 0.0987287 0)
(1.04055 0.101916 0)
(1.04493 0.104579 -3.47867e-29)
(1.04945 0.10724 3.64816e-29)
(1.05385 0.109073 0)
(1.05845 0.111453 0)
(1 0.0022394 0)
(0.999999 0.00664485 0)
(1.00001 0.0109732 0)
(1.00005 0.0153032 0)
(1.00017 0.0196916 0)
(1.0004 0.0241692 0)
(1.00078 0.0287544 0)
(1.00134 0.0334448 0)
(1.00213 0.0382336 0)
(1.00317 0.0430951 0)
(1.00448 0.0480075 0)
(1.00608 0.0529295 0)
(1.00798 0.0578334 0)
(1.01019 0.0626675 0)
(1.0127 0.0674072 0)
(1.01551 0.0719936 0)
(1.01859 0.0764162 0)
(1.02192 0.0806065 0)
(1.0255 0.0845836 0)
(1.02926 0.0882568 0)
(1.0332 0.0917029 0)
(1.03725 0.0947716 0)
(1.04144 0.09766 0)
(1.04564 0.100057 0)
(1.04996 0.102447 0)
(1.05414 0.10407 0)
(1.05852 0.106196 -7.78382e-29)
(1 0.00223792 0)
(1.00003 0.0066384 0)
(1.00009 0.0109532 0)
(1.0002 0.0152562 0)
(1.00041 0.0196002 0)
(1.00074 0.024013 0)
(1.00123 0.0285106 0)
(1.00191 0.033089 0)
(1.00282 0.0377401 0)
(1.00398 0.0424384 0)
(1.0054 0.0471618 0)
(1.0071 0.0518707 0)
(1.00909 0.0565381 0)
(1.01136 0.061116 0)
(1.01392 0.0655815 0)
(1.01675 0.0698809 0)
(1.01983 0.0740056 0)
(1.02313 0.0778943 0)
(1.02664 0.0815666 0)
(1.03031 0.0849414 0)
(1.03415 0.088092 0)
(1.03806 0.0908826 0)
(1.04209 0.0934974 0)
(1.0461 0.0956521 0)
(1.05023 0.097796 0)
(1.05419 0.099229 0)
(1.05836 0.101127 0)
(1 0.0022316 0)
(1.00005 0.0066176 0)
(1.00016 0.0109098 0)
(1.00035 0.0151769 0)
(1.00063 0.019468 0)
(1.00106 0.0238081 0)
(1.00165 0.0282108 0)
(1.00244 0.0326711 0)
(1.00346 0.0371798 0)
(1.00472 0.0417116 0)
(1.00623 0.0462446 0)
(1.00802 0.0507412 0)
(1.01008 0.0551757 0)
(1.0124 0.0595035 0)
(1.01499 0.0637038 0)
(1.01782 0.067728 0)
(1.02088 0.0715693 0)
(1.02414 0.0751731 0)
(1.02758 0.0785596 0)
(1.03116 0.0816564 0)
(1.03487 0.0845333 0)
(1.03864 0.0870681 0)
(1.04251 0.0894324 0)
(1.04635 0.0913668 0)
(1.05028 0.093287 0)
(1.05404 0.0945497 0)
(1.058 0.0962408 0)
(1 0.00222053 0)
(1.00008 0.00658276 0)
(1.00023 0.0108433 0)
(1.00048 0.0150662 0)
(1.00085 0.0192964 0)
(1.00136 0.0235565 0)
(1.00205 0.0278579 0)
(1.00293 0.0321947 0)
(1.00404 0.036557 0)
(1.00539 0.0409201 0)
(1.00699 0.0452625 0)
(1.00884 0.0495488 0)
(1.01095 0.0537547 0)
(1.01331 0.0578394 0)
(1.01591 0.0617841 -8.05503e-28)
(1.01873 0.065545 8.45721e-28)
(1.02176 0.0691174 0)
(1.02496 0.0724529 0)
(1.02833 0.0755717 0)
(1.0318 0.0784101 0)
(1.03539 0.081034 0)
(1.03902 0.0833335 0)
(1.04273 0.0854686 0)
(1.04638 0.0872026 0)
(1.05013 0.0889199 0)
(1.05369 0.0900293 0)
(1.05745 0.0915335 0)
(1 0.00220485 0)
(1.0001 0.00653424 0)
(1.0003 0.0107546 0)
(1.0006 0.0149251 0)
(1.00104 0.019087 0)
(1.00163 0.0232603 0)
(1.00241 0.0274547 0)
(1.00338 0.0316635 0)
(1.00457 0.0358764 0)
(1.00599 0.0400694 0)
(1.00766 0.044222 0)
(1.00957 0.0483008 0)
(1.01172 0.0522835 0)
(1.0141 0.0561327 0)
(1.0167 0.0598316 0)
(1.0195 0.0633416 0)
(1.02248 0.0666594 0)
(1.02562 0.0697424 0)
(1.02889 0.0726114 0)
(1.03226 0.0752096 0)
(1.03572 0.0775999 0)
(1.0392 0.0796834 0)
(1.04275 0.0816089 0)
(1.04624 0.0831608 0)
(1.0498 0.0846939 0)
(1.05317 0.0856657 0)
(1.05674 0.0870008 0)
(1 0.00218468 0)
(1.00012 0.00647249 0)
(1.00036 0.0106445 0)
(1.00072 0.0147549 0)
(1.00122 0.0188415 0)
(1.00188 0.022922 0)
(1.00273 0.0270043 0)
(1.00378 0.0310814 0)
(1.00504 0.0351426 0)
(1.00653 0.0391652 0)
(1.00825 0.0431294 0)
(1.0102 0.0470046 0)
(1.01237 0.0507699 0)
(1.01476 0.0543916 0)
(1.01735 0.0578553 0)
(1.02011 0.0611265 0)
(1.02304 0.0642038 0)
(1.0261 0.06705 0)
(1.02929 0.0696858 0)
(1.03254 0.0720615 0)
(1.03587 0.0742362 0)
(1.03921 0.0761216 0)
(1.0426 0.0778555 0)
(1.04592 0.0792419 0)
(1.04931 0.080608 4.83881e-29)
(1.0525 0.0814562 -5.0735e-29)
(1.05588 0.0826384 0)
(1 0.0021602 0)
(1.00014 0.00639802 0)
(1.00042 0.0105137 0)
(1.00082 0.0145569 0)
(1.00138 0.0185617 0)
(1.00211 0.0225439 0)
(1.00303 0.0265099 0)
(1.00414 0.0304523 0)
(1.00546 0.0343606 0)
(1.007 0.0382131 0)
(1.00876 0.0419914 0)
(1.01074 0.0456671 0)
(1.01293 0.0492215 0)
(1.01531 0.0526243 0)
(1.01787 0.0558631 0)
(1.02059 0.0589078 0)
(1.02346 0.0617585 0)
(1.02644 0.0643829 0)
(1.02952 0.0668016 0)
(1.03266 0.068971 0)
(1.03586 0.0709472 0)
(1.03906 0.0726509 0)
(1.04229 0.0742099 0)
(1.04545 0.0754461 0)
(1.04867 0.0766608 0)
(1.05168 0.0773981 0)
(1.05489 0.0784421 0)
(1 0.00213159 0)
(1.00016 0.0063114 0)
(1.00047 0.0103633 0)
(1.00092 0.0143325 0)
(1.00153 0.0182497 0)
(1.00232 0.0221288 0)
(1.00329 0.0259748 0)
(1.00445 0.0297804 0)
(1.00583 0.033535 0)
(1.00741 0.0372187 0)
(1.0092 0.040814 0)
(1.01119 0.0442953 0)
(1.01338 0.0476457 0)
(1.01574 0.0508384 0)
(1.01827 0.0538629 0)
(1.02094 0.0566932 0)
(1.02374 0.0593306 0)
(1.02664 0.0617475 0)
(1.02961 0.0639643 0)
(1.03263 0.0659431 0)
(1.0357 0.0677365 0)
(1.03876 0.0692737 0)
(1.04185 0.0706733 0)
(1.04484 0.0717732 0)
(1.0479 0.0728507 0)
(1.05074 0.0734885 6.69384e-29)
(1.05378 0.0744078 -7.0169e-29)
(1 0.00209907 0)