/*--------------------------------*- C++ -*----------------------------------*\
  =========                 |
  \\      /  F ield         | OpenFOAM: The Open Source CFD Toolbox
   \\    /   O peration     | Website:  https://openfoam.org
    \\  /    A nd           | Version:  7
     \\/     M anipulation  |
\*---------------------------------------------------------------------------*/
FoamFile
{
    version     2.0;
    format      ascii;
    class       volScalarField;
    location    "60";
    object      p;
}
// * * * * * * * * * * * * * * * * * * * * * * * * * * * * * * * * * * * * * //

dimensions      [0 2 -2 0 0 0 0];

internalField   nonuniform List<scalar> 
4575
(
-0.266693
-0.265143
-0.264609
-0.265571
-0.268819
-0.274459
-0.282086
-0.290225
-0.296633
-0.29866
-0.294165
-0.282653
-0.264925
-0.243209
-0.22058
-0.200408
-0.186559
-0.181894
-0.186688
-0.198398
-0.210902
-0.218285
-0.215957
-0.264602
-0.263657
-0.264014
-0.266136
-0.270761
-0.277903
-0.28703
-0.296496
-0.30387
-0.306348
-0.301712
-0.289517
-0.270668
-0.247519
-0.223247
-0.201297
-0.185543
-0.178956
-0.181996
-0.192463
-0.204441
-0.212026
-0.210431
-0.26254
-0.262185
-0.263413
-0.266669
-0.272641
-0.281256
-0.291853
-0.302617
-0.310931
-0.313836
-0.30904
-0.296154
-0.276179
-0.251614
-0.225723
-0.20203
-0.18441
-0.175935
-0.177225
-0.186429
-0.197863
-0.205642
-0.204782
-0.260505
-0.260725
-0.262801
-0.267162
-0.274447
-0.284502
-0.296537
-0.308568
-0.317796
-0.321108
-0.316138
-0.302548
-0.281462
-0.255492
-0.22801
-0.20261
-0.183168
-0.17284
-0.172389
-0.180309
-0.191177
-0.199141
-0.199013
-0.258499
-0.259274
-0.262171
-0.267605
-0.276169
-0.287627
-0.301065
-0.314333
-0.324448
-0.328149
-0.322996
-0.308696
-0.286513
-0.259157
-0.230113
-0.203044
-0.181823
-0.169679
-0.167504
-0.174115
-0.184396
-0.192528
-0.19313
-0.25652
-0.257831
-0.26152
-0.267991
-0.277795
-0.290616
-0.30542
-0.319892
-0.33087
-0.334952
-0.329589
-0.314607
-0.291332
-0.262613
-0.232039
-0.203339
-0.180383
-0.16646
-0.162587
-0.167861
-0.177531
-0.185812
-0.187136
-0.254569
-0.256393
-0.260843
-0.268314
-0.279315
-0.293457
-0.309586
-0.32523
-0.33705
-0.341505
-0.335912
-0.320271
-0.295921
-0.265865
-0.233794
-0.203503
-0.178856
-0.163189
-0.157655
-0.161561
-0.170594
-0.179001
-0.181035
-0.252644
-0.254958
-0.260136
-0.268566
-0.28072
-0.296137
-0.31355
-0.330333
-0.342975
-0.347748
-0.342012
-0.325685
-0.300283
-0.26892
-0.235388
-0.203546
-0.177253
-0.159875
-0.15272
-0.15523
-0.163599
-0.172101
-0.174833
-0.250745
-0.253523
-0.259395
-0.268742
-0.282001
-0.298645
-0.317299
-0.335189
-0.348622
-0.353725
-0.347841
-0.330848
-0.304422
-0.271786
-0.236829
-0.203478
-0.175585
-0.156531
-0.147792
-0.148888
-0.15656
-0.165122
-0.168535
-0.248873
-0.252089
-0.258618
-0.268836
-0.28315
-0.300972
-0.320822
-0.339782
-0.35398
-0.359432
-0.353393
-0.335762
-0.308344
-0.274471
-0.238129
-0.203311
-0.173863
-0.153171
-0.142874
-0.142553
-0.149491
-0.158073
-0.162144
-0.247027
-0.250652
-0.2578
-0.268844
-0.284161
-0.303109
-0.324109
-0.344087
-0.359065
-0.364847
-0.358669
-0.340429
-0.312055
-0.276984
-0.239299
-0.203056
-0.172099
-0.149808
-0.137967
-0.136251
-0.142408
-0.150963
-0.155666
-0.154325
-0.245208
-0.249214
-0.25694
-0.268761
-0.285029
-0.305048
-0.327133
-0.348131
-0.363851
-0.369966
-0.363667
-0.34485
-0.315559
-0.279335
-0.240351
-0.202727
-0.170307
-0.146458
-0.13307
-0.130011
-0.135326
-0.143802
-0.149108
-0.148828
-0.243414
-0.247772
-0.256037
-0.268585
-0.285749
-0.306772
-0.329919
-0.351884
-0.368328
-0.374784
-0.368386
-0.349029
-0.318865
-0.281533
-0.241297
-0.202336
-0.168499
-0.143134
-0.128204
-0.123839
-0.12826
-0.136601
-0.142472
-0.143233
-0.241647
-0.246326
-0.255089
-0.268314
-0.286312
-0.308296
-0.332445
-0.355338
-0.372495
-0.379299
-0.372827
-0.352968
-0.321978
-0.283589
-0.242149
-0.201897
-0.166687
-0.13985
-0.123387
-0.11775
-0.121225
-0.129372
-0.135765
-0.137543
-0.239906
-0.244877
-0.254096
-0.267947
-0.286723
-0.309606
-0.334703
-0.35849
-0.376348
-0.383508
-0.376989
-0.35667
-0.324905
-0.285513
-0.242919
-0.201423
-0.164887
-0.136619
-0.118645
-0.111744
-0.114237
-0.122128
-0.128995
-0.131761
-0.238193
-0.243425
-0.253059
-0.267481
-0.286978
-0.310699
-0.336692
-0.361338
-0.379884
-0.387409
-0.380872
-0.36014
-0.327653
-0.287313
-0.24362
-0.200928
-0.16311
-0.133455
-0.114001
-0.105828
-0.10731
-0.114881
-0.122172
-0.125891
-0.236506
-0.241975
-0.251975
-0.26692
-0.287077
-0.311574
-0.33841
-0.363879
-0.383099
-0.391001
-0.384478
-0.363381
-0.330229
-0.289
-0.244262
-0.200423
-0.16137
-0.130372
-0.10947
-0.100014
-0.100461
-0.107645
-0.115302
-0.119935
-0.234853
-0.240524
-0.250847
-0.266263
-0.28702
-0.312232
-0.339857
-0.366113
-0.385995
-0.394284
-0.387808
-0.366397
-0.332638
-0.290583
-0.244858
-0.199923
-0.159679
-0.127381
-0.105069
-0.0943173
-0.0937031
-0.100436
-0.108394
-0.113898
-0.233242
-0.239068
-0.249679
-0.265513
-0.28681
-0.312675
-0.341034
-0.368039
-0.38857
-0.397258
-0.390864
-0.369191
-0.334889
-0.292069
-0.245417
-0.199438
-0.158051
-0.124496
-0.100809
-0.0887525
-0.0870534
-0.0932671
-0.101457
-0.107785
-0.231655
-0.237618
-0.248472
-0.264671
-0.286448
-0.312904
-0.341942
-0.369659
-0.390826
-0.399923
-0.393649
-0.371768
-0.336985
-0.293468
-0.245949
-0.198981
-0.156497
-0.121728
-0.0967032
-0.0833358
-0.0805267
-0.086155
-0.0945034
-0.1016
-0.23011
-0.236175
-0.24723
-0.263741
-0.285939
-0.312925
-0.342586
-0.370976
-0.392766
-0.402283
-0.396164
-0.374132
-0.338934
-0.294786
-0.246465
-0.198561
-0.155027
-0.119087
-0.0927627
-0.0780825
-0.0741381
-0.0791152
-0.0875439
-0.0953506
-0.228607
-0.23474
-0.245954
-0.262728
-0.285288
-0.312741
-0.34297
-0.371994
-0.394393
-0.40434
-0.398413
-0.376286
-0.340741
-0.296031
-0.246971
-0.198189
-0.153654
-0.116584
-0.0889977
-0.0730073
-0.0679027
-0.072164
-0.0805917
-0.0890435
-0.227143
-0.233315
-0.24465
-0.261636
-0.2845
-0.31236
-0.343101
-0.372718
-0.395711
-0.406096
-0.400399
-0.378235
-0.342411
-0.297209
-0.247476
-0.197874
-0.152385
-0.114229
-0.085418
-0.068124
-0.0618354
-0.0653177
-0.073661
-0.0826871
-0.22572
-0.231905
-0.243321
-0.26047
-0.283581
-0.311788
-0.342984
-0.373155
-0.396726
-0.407556
-0.402126
-0.379982
-0.343948
-0.298327
-0.247987
-0.197622
-0.151231
-0.11203
-0.0820322
-0.0634453
-0.0559513
-0.058593
-0.0667667
-0.0762906
-0.224341
-0.230512
-0.241972
-0.259237
-0.282539
-0.311033
-0.342629
-0.373312
-0.397443
-0.408724
-0.403596
-0.381532
-0.345358
-0.299388
-0.248509
-0.197441
-0.150198
-0.109996
-0.0788483
-0.0589826
-0.0502646
-0.0520066
-0.0599245
-0.0698651
-0.229139
-0.240607
-0.257941
-0.281382
-0.310103
-0.342044
-0.373196
-0.39787
-0.409605
-0.404815
-0.382888
-0.346645
-0.300399
-0.249049
-0.197337
-0.149293
-0.108132
-0.0758732
-0.0547463
-0.0447892
-0.0455749
-0.0531509
-0.0634236
-0.227791
-0.239231
-0.256591
-0.280116
-0.309008
-0.341238
-0.372816
-0.398013
-0.410203
-0.405786
-0.384055
-0.347812
-0.301363
-0.249609
-0.197314
-0.148522
-0.106446
-0.0731131
-0.0507454
-0.0395378
-0.0393142
-0.0464631
-0.056978
-0.226471
-0.23785
-0.255192
-0.278751
-0.307758
-0.340221
-0.372181
-0.397881
-0.410525
-0.406513
-0.385037
-0.348865
-0.302283
-0.250194
-0.197377
-0.147889
-0.104942
-0.0705731
-0.0469877
-0.0345224
-0.0332404
-0.0398784
-0.0505324
-0.225184
-0.236469
-0.253751
-0.277295
-0.306362
-0.339004
-0.371301
-0.397482
-0.410578
-0.407003
-0.385837
-0.349805
-0.303164
-0.250807
-0.197529
-0.147397
-0.103624
-0.0682575
-0.0434798
-0.0297537
-0.0273686
-0.0334139
-0.0441014
-0.223934
-0.235093
-0.252276
-0.275756
-0.30483
-0.337598
-0.370185
-0.396826
-0.410366
-0.407259
-0.386459
-0.350637
-0.304007
-0.25145
-0.19777
-0.147049
-0.102495
-0.0661693
-0.0402267
-0.025241
-0.0217131
-0.0270872
-0.0377113
-0.222724
-0.233728
-0.250773
-0.274145
-0.303174
-0.336014
-0.368845
-0.395921
-0.409898
-0.407286
-0.386908
-0.351363
-0.304815
-0.252124
-0.198102
-0.146844
-0.101557
-0.0643104
-0.0372324
-0.0209924
-0.0162869
-0.0209156
-0.0313757
-0.22156
-0.232379
-0.249251
-0.272471
-0.301404
-0.334263
-0.367289
-0.394777
-0.409179
-0.40709
-0.387188
-0.351986
-0.305589
-0.25283
-0.198525
-0.146784
-0.100809
-0.0626822
-0.0344999
-0.0170147
-0.0111024
-0.0149164
-0.0251297
-0.220446
-0.231053
-0.247716
-0.270741
-0.299531
-0.332355
-0.365528
-0.393402
-0.408217
-0.406676
-0.387302
-0.35251
-0.306333
-0.253571
-0.199043
-0.146871
-0.100255
-0.0612883
-0.0320336
-0.0133153
-0.00617191
-0.00910716
-0.0189931
-0.219386
-0.229755
-0.246175
-0.268964
-0.297563
-0.3303
-0.363569
-0.391806
-0.407017
-0.406049
-0.387256
-0.352941
-0.307052
-0.254353
-0.19966
-0.147111
-0.0998995
-0.0601312
-0.0298361
-0.0098988
-0.00150433
-0.0035023
-0.0129748
-0.218385
-0.228492
-0.244637
-0.26715
-0.295511
-0.32811
-0.361421
-0.389995
-0.405589
-0.405216
-0.387055
-0.353277
-0.307739
-0.255161
-0.200357
-0.147478
-0.0997195
-0.0591926
-0.0278926
-0.00675593
0.00290197
0.00189171
-0.00708641
-0.217447
-0.227272
-0.243114
-0.265317
-0.293398
-0.325808
-0.359111
-0.387992
-0.403959
-0.404193
-0.386695
-0.353493
-0.308347
-0.255935
-0.201067
-0.147911
-0.0996601
-0.0584285
-0.0261718
-0.00386874
0.00705161
0.00706913
-0.00133986
-0.216578
-0.226102
-0.241616
-0.263475
-0.291235
-0.323409
-0.356651
-0.38582
-0.40212
-0.402972
-0.386173
-0.353593
-0.308894
-0.256708
-0.201837
-0.148463
-0.0997752
-0.0578916
-0.0247264
-0.00129161
0.0108894
0.0119757
0.00421739
-0.22495
-0.240083
-0.26154
-0.288912
-0.320778
-0.353884
-0.383334
-0.399928
-0.40149
-0.385543
-0.353768
-0.309696
-0.257885
-0.20311
-0.149564
-0.100451
-0.0579068
-0.0238144
0.000782432
0.0142767
0.0165021
0.00948151
-0.223796
-0.238478
-0.259446
-0.286335
-0.317784
-0.350648
-0.380353
-0.397338
-0.399762
-0.384904
-0.354187
-0.310962
-0.259676
-0.205066
-0.151351
-0.10177
-0.0584959
-0.0233843
0.0024797
0.0173934
0.0208382
0.0145867
-0.222986
-0.237404
-0.258058
-0.284607
-0.315736
-0.348391
-0.378336
-0.395476
-0.398276
-0.383942
-0.35372
-0.310855
-0.259755
-0.205157
-0.151292
-0.101392
-0.0576037
-0.0216952
0.00521916
0.0213699
0.0259408
0.02041
-0.221927
-0.236563
-0.257468
-0.284283
-0.315671
-0.348663
-0.379763
-0.395229
-0.397031
-0.38167
-0.350433
-0.306672
-0.254894
-0.199877
-0.145783
-0.0956772
-0.0515659
-0.0149966
0.0130415
0.0310487
0.0380072
0.0347739
0.0237215
-0.222829
-0.237519
-0.258088
-0.284061
-0.313872
-0.344113
-0.36808
-0.385713
-0.386234
-0.369996
-0.338527
-0.295115
-0.244168
-0.190257
-0.137286
-0.0880622
-0.0443582
-0.00744791
0.0216355
0.0413609
0.050344
0.0487939
0.0384132
-0.224051
-0.238685
-0.25869
-0.283437
-0.311235
-0.33885
-0.361299
-0.375187
-0.373908
-0.356824
-0.325387
-0.282758
-0.233124
-0.180759
-0.129265
-0.0812013
-0.0381664
-0.00125193
0.0285367
0.0497399
0.0607846
0.0612982
0.0522576
-0.224972
-0.239331
-0.258517
-0.281784
-0.307403
-0.33234
-0.35213
-0.362925
-0.359881
-0.342083
-0.310945
-0.269485
-0.221609
-0.17123
-0.121607
-0.0750472
-0.0330064
0.00355691
0.0337013
0.0560638
0.0690095
0.0716644
0.0643057
-0.22531
-0.239156
-0.257246
-0.278763
-0.301963
-0.323874
-0.340771
-0.348771
-0.344102
-0.32588
-0.295448
-0.255612
-0.209921
-0.161891
-0.114442
-0.0696556
-0.0288804
0.00700454
0.0371382
0.0602578
0.0747341
0.079306
0.0737126
-0.224762
-0.237871
-0.254618
-0.274144
-0.294764
-0.313596
-0.32752
-0.332983
-0.326955
-0.308665
-0.279336
-0.241499
-0.198311
-0.152889
-0.107834
-0.0650306
-0.0257424
0.00918448
0.0389592
0.0624208
0.0780012
0.0841603
0.0801865
-0.223117
-0.235294
-0.2505
-0.267874
-0.285928
-0.301678
-0.312778
-0.316026
-0.30897
-0.290956
-0.263053
-0.227481
-0.187
-0.144342
-0.101819
-0.0611451
-0.0235147
0.0102294
0.0393384
0.0627553
0.0789904
0.0863344
0.0837104
-0.220333
-0.231437
-0.244982
-0.26013
-0.27583
-0.288543
-0.297088
-0.298479
-0.290726
-0.273271
-0.247014
-0.213854
-0.176167
-0.136331
-0.0964015
-0.0579451
-0.0220971
0.010292
0.0384845
0.0615247
0.0779243
0.086061
0.0844848
-0.216521
-0.226483
-0.238339
-0.251239
-0.263544
-0.274666
-0.281045
-0.280932
-0.272766
-0.256066
-0.23156
-0.200842
-0.165936
-0.128901
-0.0915615
-0.0553595
-0.0213769
0.00953053
0.0366182
0.0590155
0.075218
0.0837108
0.0828738
-0.211875
-0.220693
-0.230929
-0.241808
-0.252076
-0.260712
-0.26519
-0.263883
-0.255519
-0.239678
-0.216932
-0.188596
-0.15638
-0.122062
-0.0872628
-0.0533101
-0.0212384
0.00809904
0.033948
0.0555097
0.0712096
0.0797236
0.079349
-0.206596
-0.21432
-0.223059
-0.232132
-0.240495
-0.247046
-0.249915
-0.247671
-0.23926
-0.224313
-0.203264
-0.17719
-0.147525
-0.115803
-0.0834594
-0.0517191
-0.0215709
0.00614126
0.0306595
0.0512774
0.0662366
0.0745376
0.0744217
-0.200858
-0.207569
-0.214962
-0.222435
-0.229101
-0.233919
-0.23545
-0.23248
-0.224126
-0.21006
-0.190608
-0.166642
-0.139364
-0.110093
-0.0801013
-0.0505137
-0.0222747
0.00378625
0.0269078
0.0465545
0.0605872
0.0685458
0.0685732
-0.194795
-0.200591
-0.206793
-0.212872
-0.218066
-0.221453
-0.221894
-0.218369
-0.210142
-0.196922
-0.17895
-0.156931
-0.131868
-0.104895
-0.0771388
-0.0496286
-0.0232626
0.00114772
0.0228091
0.0406357
0.0544876
0.0620729
0.0622021
-0.188508
-0.19349
-0.198653
-0.203533
-0.207478
-0.209692
-0.209254
-0.205317
-0.197268
-0.184851
-0.168242
-0.148011
-0.124994
-0.100167
-0.0745245
-0.0490058
-0.0244599
-0.00167262
0.0185761
0.0353745
0.0482211
0.0553747
0.0556061
-0.182073
-0.186339
-0.190606
-0.194468
-0.197365
-0.198624
-0.197488
-0.193261
-0.185429
-0.173772
-0.158418
-0.139826
-0.118696
-0.095866
-0.0722145
-0.0485949
-0.0258037
-0.0045948
0.0142831
0.0300121
0.0419224
0.0486373
0.0489899
-0.17555
-0.179194
-0.182695
-0.185697
-0.187728
-0.188215
-0.186537
-0.182121
-0.174539
-0.163601
-0.149403
-0.132315
-0.112925
-0.0919509
-0.0701687
-0.0483514
-0.0272412
-0.00755414
0.00999692
0.0246562
0.0356992
0.0419941
0.0424886
-0.16899
-0.172096
-0.174945
-0.177231
-0.178549
-0.178421
-0.176335
-0.171815
-0.164509
-0.154256
-0.141125
-0.12542
-0.107633
-0.0883818
-0.06835
-0.0482364
-0.0287278
-0.0104978
0.00577792
0.0193946
0.0296333
0.0355392
0.0361906
-0.162435
-0.165078
-0.167379
-0.169071
-0.169813
-0.169203
-0.166818
-0.162267
-0.155259
-0.145657
-0.133516
-0.119083
-0.102774
-0.0851211
-0.066725
-0.0482155
-0.0302252
-0.0133828
0.00167607
0.014294
0.0237879
0.0293394
0.0301557
-0.155922
-0.15817
-0.160012
-0.161218
-0.161498
-0.160519
-0.157929
-0.153407
-0.146713
-0.137733
-0.126511
-0.113252
-0.0983069
-0.0821339
-0.0652625
-0.0482584
-0.0317008
-0.016173
-0.00226749
0.00940478
0.0182101
0.0234417
0.0244249
-0.149482
-0.151396
-0.152858
-0.153669
-0.153587
-0.152333
-0.149616
-0.145172
-0.138804
-0.130419
-0.120053
-0.107878
-0.0941905
-0.0793876
-0.0639347
-0.0483386
-0.033127
-0.018838
-0.0060196
0.00476425
0.0129345
0.0178786
0.0190259
-0.143144
-0.144777
-0.145927
-0.146423
-0.146062
-0.144611
-0.141832
-0.137506
-0.131472
-0.123656
-0.114089
-0.102915
-0.0903883
-0.0768523
-0.0627162
-0.0484329
-0.034481
-0.0213534
-0.00955455
0.000399502
0.00798532
0.0126709
0.013976
-0.136932
-0.138329
-0.139226
-0.139475
-0.138905
-0.137324
-0.134535
-0.130358
-0.124664
-0.117391
-0.108569
-0.0983219
-0.0868665
-0.0745006
-0.0615842
-0.0485213
-0.0357438
-0.0237011
-0.0128535
-0.00367061
0.00337802
0.00783081
0.00928441
-0.130865
-0.132067
-0.132761
-0.132821
-0.132102
-0.130444
-0.127688
-0.123685
-0.11833
-0.111577
-0.103452
-0.0940615
-0.0835939
-0.0723075
-0.0605189
-0.0485871
-0.0369009
-0.0258672
-0.0159037
-0.00743483
-0.0008794
0.00336267
0.00495317
-0.12496
-0.126002
-0.126535
-0.126454
-0.125635
-0.123946
-0.121256
-0.117445
-0.112429
-0.10617
-0.098696
-0.0900993
-0.0805425
-0.0702509
-0.0595027
-0.0486166
-0.0379409
-0.0278423
-0.0186977
-0.0108883
-0.00478535
-0.000735163
0.000978825
-0.11923
-0.120142
-0.120551
-0.120368
-0.119489
-0.117806
-0.11521
-0.111604
-0.10692
-0.101133
-0.0942669
-0.0864044
-0.0776869
-0.0683109
-0.0585207
-0.048599
-0.0388561
-0.0296213
-0.0212331
-0.0140314
-0.00834338
-0.00446936
-0.00264676
-0.113686
-0.114493
-0.114809
-0.114557
-0.113651
-0.112003
-0.10952
-0.106127
-0.10177
-0.0964301
-0.0901321
-0.0829489
-0.0750043
-0.0664699
-0.0575606
-0.0485259
-0.0396421
-0.0312031
-0.0235112
-0.0168682
-0.0115614
-0.00785061
-0.00593521
-0.108336
-0.10906
-0.109308
-0.109015
-0.108109
-0.106515
-0.104161
-0.100986
-0.0969468
-0.0920311
-0.0862631
-0.079708
-0.0724745
-0.064713
-0.056612
-0.0483917
-0.040297
-0.0325893
-0.0255371
-0.0194069
-0.0144506
-0.0108928
-0.00890082
-0.103186
-0.103844
-0.104045
-0.103733
-0.102848
-0.101325
-0.0991111
-0.096155
-0.0924232
-0.0879083
-0.0826342
-0.0766596
-0.0700799
-0.0630272
-0.0556669
-0.0481928
-0.0408212
-0.033784
-0.0273185
-0.0216592
-0.0170255
-0.0136121
-0.0115598
-0.0982392
-0.0988461
-0.0990168
-0.0987034
-0.0978536
-0.0964167
-0.0943496
-0.0916106
-0.088174
-0.084037
-0.0792227
-0.0737839
-0.0678049
-0.0614016
-0.0547189
-0.0479274
-0.0412174
-0.0347937
-0.0288657
-0.0236385
-0.0193024
-0.0160265
-0.0139298
-0.0934982
-0.0940661
-0.0942198
-0.0939178
-0.0931164
-0.0917746
-0.0898573
-0.0873307
-0.0841767
-0.0803953
-0.0760085
-0.0710639
-0.0656362
-0.0598271
-0.0537637
-0.0475956
-0.0414899
-0.0356267
-0.0301904
-0.0253596
-0.0212986
-0.018155
-0.0160291
-0.0889634
-0.0895021
-0.0896494
-0.0893693
-0.0886261
-0.087384
-0.0856159
-0.083296
-0.0804117
-0.076964
-0.0729739
-0.0684846
-0.0635625
-0.0582965
-0.0527983
-0.0471988
-0.0416442
-0.0362927
-0.0313056
-0.0268386
-0.0230325
-0.0200171
-0.0178765
-0.0846342
-0.0851515
-0.0853004
-0.0850502
-0.0843708
-0.0832327
-0.081611
-0.0794913
-0.0768618
-0.0737257
-0.0701032
-0.0660331
-0.061574
-0.0568042
-0.0518213
-0.0467397
-0.0416873
-0.0368023
-0.0322252
-0.0280915
-0.0245231
-0.0216327
-0.0194909
-0.0805089
-0.0810108
-0.0811673
-0.0809522
-0.0803393
-0.0793045
-0.0778285
-0.0758999
-0.0735105
-0.0706653
-0.067383
-0.0636982
-0.0596629
-0.0553458
-0.0508322
-0.0462221
-0.0416268
-0.0371666
-0.0329632
-0.029128
-0.0257896
-0.0230216
-0.0208909
-0.0765846
-0.0770757
-0.0772442
-0.0770672
-0.0765229
-0.0755916
-0.074255
-0.0725072
-0.070344
-0.0677699
-0.0648016
-0.0614705
-0.0578226
-0.0539182
-0.0498318
-0.0456505
-0.041471
-0.0373977
-0.033537
-0.029989
-0.0268541
-0.0242037
-0.0220944
-0.072858
-0.0733416
-0.0735249
-0.073388
-0.0729123
-0.0720811
-0.0708802
-0.0693031
-0.067351
-0.0650277
-0.0623487
-0.059342
-0.0560479
-0.0525195
-0.0488217
-0.04503
-0.0412287
-0.0375079
-0.0339605
-0.030676
-0.0277328
-0.0251975
-0.0231191
-0.0693249
-0.0698035
-0.0700033
-0.069907
-0.0694984
-0.0687637
-0.0676921
-0.0662759
-0.06452
-0.0624287
-0.0600159
-0.0573061
-0.0543349
-0.0511487
-0.0478039
-0.0443661
-0.0409087
-0.0375093
-0.034248
-0.0312039
-0.0284425
-0.0260215
-0.0239824
-0.0659807
-0.066456
-0.0666731
-0.0666168
-0.0662732
-0.0656308
-0.0646807
-0.0634175
-0.0618423
-0.0599645
-0.0577958
-0.0553575
-0.0526805
-0.0498054
-0.0467812
-0.0436649
-0.0405198
-0.0374131
-0.0344136
-0.031589
-0.0289993
-0.0266916
-0.0247004
-0.0628206
-0.0632936
-0.063528
-0.0635104
-0.0632288
-0.0626735
-0.0618371
-0.0607157
-0.0593089
-0.0576272
-0.0556822
-0.0534917
-0.0510825
-0.0484901
-0.045757
-0.0429324
-0.0400711
-0.0372309
-0.0344713
-0.0318498
-0.029419
-0.0272208
-0.0252852
-0.0598394
-0.0603105
-0.0605617
-0.060581
-0.060358
-0.0598842
-0.0591537
-0.0581633
-0.0569135
-0.055411
-0.05367
-0.051705
-0.0495394
-0.0472037
-0.0447346
-0.0421748
-0.0395712
-0.0369739
-0.0344339
-0.0320008
-0.0297194
-0.0276272
-0.0257498
-0.0570316
-0.057501
-0.057768
-0.057822
-0.0576537
-0.0572558
-0.0566233
-0.0557537
-0.0546483
-0.0533117
-0.0517549
-0.0499948
-0.0480505
-0.0459476
-0.0437179
-0.0413982
-0.0390288
-0.0366528
-0.0343141
-0.0320552
-0.0299149
-0.0279254
-0.02611
-0.054392
-0.0548595
-0.0551411
-0.0552271
-0.0551094
-0.0547816
-0.0542393
-0.0534806
-0.0525064
-0.0513211
-0.0499338
-0.0483595
-0.0466156
-0.0447237
-0.0427108
-0.0406087
-0.038452
-0.0362777
-0.0341235
-0.0320259
-0.0300183
-0.0281288
-0.0263781
-0.051915
-0.0523802
-0.0526749
-0.0527903
-0.052719
-0.0524555
-0.0519958
-0.0513383
-0.0504838
-0.0494365
-0.0482041
-0.0467978
-0.0452352
-0.0435339
-0.0417173
-0.0398124
-0.0378488
-0.0358583
-0.0338733
-0.0319249
-0.0300422
-0.0282495
-0.0265654
-0.0495952
-0.0500577
-0.0503639
-0.0505059
-0.0504769
-0.050272
-0.0498876
-0.0493222
-0.0485765
-0.0476542
-0.0465618
-0.0453095
-0.0439098
-0.0423807
-0.0407415
-0.0390151
-0.0372267
-0.0354037
-0.0335737
-0.0317635
-0.0299981
-0.028299
-0.0266824
-0.0474274
-0.0478867
-0.0482028
-0.0483685
-0.0483777
-0.0482259
-0.0479097
-0.0474278
-0.0467807
-0.0459713
-0.0450053
-0.0438911
-0.0426399
-0.0412663
-0.0397873
-0.0382223
-0.036593
-0.0349225
-0.0332345
-0.0315522
-0.029897
-0.0282877
-0.0267389
-0.0454066
-0.045862
-0.0461864
-0.0463731
-0.0464166
-0.0463126
-0.046058
-0.0456514
-0.0450932
-0.0443857
-0.0435335
-0.0425439
-0.0414263
-0.040193
-0.0388586
-0.0374395
-0.0359543
-0.0344226
-0.0328648
-0.0313006
-0.0297486
-0.0282254
-0.0267439
-0.0435279
-0.0439789
-0.04431
-0.0445151
-0.044589
-0.0445277
-0.0443284
-0.0439896
-0.0435112
-0.0428953
-0.0421455
-0.0412679
-0.0402704
-0.0391635
-0.0379593
-0.036672
-0.0353172
-0.0339118
-0.0324729
-0.0310177
-0.0295623
-0.0281211
-0.0267058
-0.0417866
-0.0422328
-0.0425692
-0.0427902
-0.0428909
-0.0428677
-0.0427177
-0.0424394
-0.0420326
-0.0414987
-0.0408407
-0.0400635
-0.0391738
-0.0381802
-0.0370933
-0.0359247
-0.0346878
-0.0333969
-0.0320668
-0.030712
-0.0293465
-0.0279832
-0.0266322
-0.0401787
-0.0406196
-0.0409599
-0.0411944
-0.0413186
-0.041329
-0.0412228
-0.0409984
-0.0406555
-0.0401948
-0.0396187
-0.0389313
-0.038138
-0.0372461
-0.0362641
-0.0352023
-0.0340718
-0.0328847
-0.0316536
-0.030391
-0.0291092
-0.0278193
-0.0265306
-0.0387001
-0.0391354
-0.0394784
-0.0397243
-0.0398689
-0.0399088
-0.0398413
-0.0396647
-0.0393784
-0.0389827
-0.0384796
-0.0378722
-0.0371648
-0.0363636
-0.0354757
-0.0345096
-0.0334747
-0.0323814
-0.0312402
-0.0300621
-0.0288576
-0.0276366
-0.0264073
-0.0373475
-0.0377769
-0.0381216
-0.038377
-0.0385391
-0.0386047
-0.0385712
-0.0384366
-0.0382003
-0.0378622
-0.0374237
-0.0368872
-0.0362562
-0.0355356
-0.0347315
-0.0338509
-0.0329018
-0.0318927
-0.030833
-0.0297319
-0.0285985
-0.0274416
-0.0262688
-0.0361178
-0.0365412
-0.0368867
-0.0371498
-0.0373269
-0.0374148
-0.0374108
-0.0373131
-0.0371207
-0.0368332
-0.0364516
-0.0359776
-0.0354141
-0.0347649
-0.0340351
-0.0332305
-0.0323578
-0.0314243
-0.0304378
-0.0294065
-0.0283382
-0.0272406
-0.0261207
-0.0350087
-0.0354261
-0.0357716
-0.036041
-0.0362307
-0.0363376
-0.0363592
-0.0362935
-0.0361393
-0.0358961
-0.0355643
-0.0351451
-0.0346408
-0.0340545
-0.0333901
-0.0326526
-0.0318477
-0.0309814
-0.0300604
-0.0290918
-0.0280825
-0.0270393
-0.0259684
-0.0340182
-0.0344298
-0.0347747
-0.0350491
-0.0352493
-0.0353724
-0.0354159
-0.0353778
-0.0352566
-0.0350517
-0.0347631
-0.0343915
-0.0339388
-0.0334072
-0.0328001
-0.0321215
-0.031376
-0.030569
-0.0297061
-0.0287934
-0.027837
-0.0268429
-0.0258169
-0.0331452
-0.0335513
-0.0338953
-0.0341734
-0.0343823
-0.034519
-0.0345811
-0.0345663
-0.0344734
-0.0343012
-0.0340496
-0.0337191
-0.0333107
-0.0328264
-0.0322687
-0.031641
-0.0309473
-0.0301919
-0.0293798
-0.0285163
-0.0276067
-0.0266565
-0.0256709
-0.0323893
-0.0327904
-0.0331331
-0.0334141
-0.03363
-0.0337779
-0.0338554
-0.0338603
-0.0337911
-0.0336465
-0.0334263
-0.0331303
-0.0327596
-0.0323153
-0.0317997
-0.0312155
-0.0305659
-0.0298548
-0.0290865
-0.0282654
-0.0273965
-0.0264847
-0.0255347
-0.031751
-0.0321476
-0.032489
-0.032772
-0.0329935
-0.0331505
-0.0332406
-0.0332616
-0.0332118
-0.0330901
-0.0328956
-0.0326284
-0.0322887
-0.0318778
-0.0313971
-0.0308491
-0.0302364
-0.0295624
-0.0288308
-0.0280455
-0.0272111
-0.026332
-0.0254126
-0.0312319
-0.0316246
-0.0319648
-0.0322493
-0.032475
-0.0326391
-0.0327391
-0.0327729
-0.0327386
-0.0326349
-0.0324611
-0.0322167
-0.031902
-0.0315177
-0.0310651
-0.0305462
-0.0299633
-0.0293192
-0.0286172
-0.0278611
-0.0270548
-0.0262025
-0.0253082
-0.0308347
-0.0312242
-0.0315633
-0.0318488
-0.0320776
-0.032247
-0.0323544
-0.0323977
-0.0323751
-0.032285
-0.0321267
-0.0318996
-0.0316037
-0.0312396
-0.0308083
-0.0303114
-0.029751
-0.0291297
-0.0284504
-0.0277166
-0.0269318
-0.0261001
-0.0252253
-0.0305634
-0.0309508
-0.0312891
-0.0315752
-0.0318061
-0.0319789
-0.0320913
-0.032141
-0.0321262
-0.0320453
-0.0318975
-0.031682
-0.0313988
-0.0310483
-0.0306314
-0.0301495
-0.0296044
-0.0289986
-0.0283348
-0.0276161
-0.0268461
-0.0260285
-0.0251671
-0.0304239
-0.0308102
-0.031148
-0.0314344
-0.0316663
-0.0318409
-0.0319558
-0.0320087
-0.0319979
-0.0319218
-0.0317793
-0.0315698
-0.0312931
-0.0309496
-0.03054
-0.0300657
-0.0295285
-0.0289307
-0.0282748
-0.0275639
-0.0268015
-0.0259912
-0.0251367
-0.0308156
-0.0312097
-0.0315588
-0.0318598
-0.0321097
-0.0323055
-0.0324445
-0.0325241
-0.0325417
-0.0324952
-0.0323827
-0.0322027
-0.0319537
-0.031635
-0.0312462
-0.0307874
-0.0302591
-0.0296626
-0.0289995
-0.0282723
-0.0274838
-0.026638
-0.0309469
-0.0313423
-0.0316922
-0.0319936
-0.0322432
-0.0324383
-0.0325759
-0.0326535
-0.0326686
-0.0326191
-0.032503
-0.0323188
-0.0320651
-0.0317412
-0.0313467
-0.0308816
-0.0303466
-0.0297429
-0.0290722
-0.0283369
-0.02754
-0.0266854
-0.0312018
-0.0315998
-0.0319513
-0.0322532
-0.0325023
-0.0326958
-0.0328307
-0.0329045
-0.0329147
-0.0328593
-0.0327362
-0.0325439
-0.0322811
-0.0319471
-0.0315414
-0.0310642
-0.0305161
-0.0298984
-0.0292129
-0.0284619
-0.0276487
-0.0267772
-0.0315745
-0.0319763
-0.0323301
-0.0326326
-0.0328808
-0.0330718
-0.0332027
-0.0332708
-0.0332739
-0.0332096
-0.0330762
-0.0328721
-0.032596
-0.0322471
-0.0318251
-0.0313301
-0.030763
-0.0301249
-0.0294177
-0.0286439
-0.0278067
-0.0269104
-0.0320607
-0.0324671
-0.0328236
-0.0331268
-0.0333736
-0.0335612
-0.0336866
-0.0337472
-0.0337408
-0.033665
-0.033518
-0.0332984
-0.0330048
-0.0326366
-0.0321933
-0.0316753
-0.0310834
-0.0304187
-0.0296832
-0.0288796
-0.0280113
-0.0270826
-0.032657
-0.0330688
-0.0334282
-0.0337319
-0.0339768
-0.0341599
-0.0342783
-0.0343295
-0.0343111
-0.034221
-0.0340573
-0.0338186
-0.0335036
-0.0331116
-0.0326424
-0.0320962
-0.0314738
-0.0307765
-0.0300065
-0.0291663
-0.0282598
-0.0272914
-0.0333611
-0.0337788
-0.0341412
-0.0344451
-0.0346872
-0.0348645
-0.0349744
-0.0350141
-0.0349813
-0.0348741
-0.0346905
-0.0344291
-0.0340888
-0.0336689
-0.0331691
-0.0325897
-0.0319314
-0.0311958
-0.030385
-0.0295018
-0.0285501
-0.0275348
-0.0341715
-0.0345954
-0.0349607
-0.0352641
-0.0355024
-0.0356726
-0.035772
-0.0357981
-0.0357484
-0.0356212
-0.0354144
-0.0351269
-0.0347574
-0.0343053
-0.0337704
-0.033153
-0.0324538
-0.0316742
-0.0308166
-0.029884
-0.0288804
-0.0278109
-0.0350874
-0.0355175
-0.0358853
-0.0361875
-0.0364207
-0.0365821
-0.0366691
-0.0366791
-0.0366099
-0.0364597
-0.0362266
-0.0359093
-0.0355068
-0.0350185
-0.0344441
-0.033784
-0.0330388
-0.0322099
-0.0312997
-0.0303114
-0.0292491
-0.0281184
-0.0361086
-0.0365447
-0.0369143
-0.0372139
-0.0374406
-0.0375913
-0.0376636
-0.0376551
-0.0375636
-0.0373873
-0.0371246
-0.0367741
-0.0363349
-0.0358064
-0.0351882
-0.0344808
-0.0336848
-0.0328014
-0.0318329
-0.0307827
-0.0296551
-0.0284561
-0.0372354
-0.0376768
-0.0380471
-0.0383429
-0.038561
-0.0386989
-0.038754
-0.0387242
-0.0386074
-0.0384019
-0.0381063
-0.0377192
-0.0372396
-0.036667
-0.0360011
-0.0352421
-0.0343904
-0.0334474
-0.0324151
-0.031297
-0.0300976
-0.028823
-0.0384684
-0.0389142
-0.0392838
-0.0395738
-0.0397813
-0.0399037
-0.0399389
-0.0398847
-0.0397395
-0.0395016
-0.0391697
-0.0387426
-0.038219
-0.0375986
-0.0368812
-0.0360666
-0.0351549
-0.0341473
-0.0330459
-0.0318539
-0.0305761
-0.0292187
-0.0398087
-0.0402574
-0.0406244
-0.0409063
-0.0411005
-0.0412047
-0.0412168
-0.0411351
-0.0409581
-0.0406843
-0.0403127
-0.0398422
-0.0392715
-0.0386
-0.0378274
-0.0369532
-0.0359773
-0.0349005
-0.0337248
-0.0324533
-0.0310905
-0.0296431
-0.0412574
-0.0417073
-0.0420693
-0.0423404
-0.0425183
-0.0426008
-0.0425864
-0.0424736
-0.0422612
-0.0419482
-0.0415334
-0.041016
-0.0403953
-0.0396695
-0.0388383
-0.037901
-0.0368572
-0.0357071
-0.0344523
-0.0330955
-0.0316413
-0.0300966
-0.0428161
-0.0432646
-0.0436188
-0.0438759
-0.0440338
-0.0440909
-0.0440461
-0.0438984
-0.043647
-0.043291
-0.0428298
-0.0422624
-0.0415881
-0.0408053
-0.0399128
-0.0389095
-0.0377945
-0.0365673
-0.0352288
-0.0337814
-0.0322295
-0.0305799
-0.0444864
-0.0449306
-0.0452735
-0.0455126
-0.0456463
-0.0456738
-0.0455943
-0.0454075
-0.045113
-0.0447105
-0.0441994
-0.0435792
-0.0428485
-0.042006
-0.0410501
-0.0399785
-0.0387894
-0.0374818
-0.0360555
-0.0345125
-0.0328565
-0.0310944
-0.0462701
-0.0467063
-0.0470336
-0.0472501
-0.047355
-0.0473479
-0.0472289
-0.0469984
-0.0466566
-0.0462038
-0.0456398
-0.0449638
-0.0441746
-0.0432706
-0.0422495
-0.0411078
-0.0398426
-0.0384518
-0.0369342
-0.0352906
-0.0335243
-0.0316423
-0.048169
-0.0485927
-0.0488995
-0.0490882
-0.0491586
-0.0491114
-0.0489476
-0.0486684
-0.0482749
-0.0477679
-0.0471477
-0.0464137
-0.0455644
-0.0445977
-0.0435102
-0.0422974
-0.0409548
-0.0394789
-0.0378669
-0.0361184
-0.0342359
-0.032226
-0.0501851
-0.050591
-0.0508714
-0.0510259
-0.0510556
-0.0509621
-0.0507475
-0.0504142
-0.0499642
-0.0493992
-0.0487199
-0.0479258
-0.0470153
-0.0459855
-0.0448316
-0.0435477
-0.0421275
-0.0405654
-0.0388567
-0.0369994
-0.0349948
-0.032849
-0.0523201
-0.052702
-0.0529492
-0.0530625
-0.0530441
-0.0528972
-0.0526251
-0.0522318
-0.0517203
-0.0510934
-0.0503523
-0.0494968
-0.0485247
-0.0474322
-0.046213
-0.0448593
-0.0433623
-0.041714
-0.0399072
-0.0379377
-0.0358053
-0.0335157
-0.0545762
-0.0549266
-0.0551327
-0.0551965
-0.0551218
-0.0549134
-0.0545765
-0.0541166
-0.0535384
-0.0528456
-0.0520404
-0.0511225
-0.0500893
-0.0489359
-0.0476539
-0.046233
-0.0446615
-0.0429282
-0.0410227
-0.0389383
-0.0366729
-0.0342313
-0.056955
-0.0572656
-0.0574213
-0.0574261
-0.0572857
-0.0570068
-0.0565969
-0.0560633
-0.0554126
-0.0546501
-0.0537786
-0.0527982
-0.0517058
-0.0504945
-0.0491537
-0.0476699
-0.0460278
-0.0442121
-0.0422088
-0.0400075
-0.0376039
-0.0350018
-0.0594586
-0.0597193
-0.0598142
-0.0597492
-0.0595323
-0.0591727
-0.0586805