/*--------------------------------*- C++ -*----------------------------------*\
  =========                 |
  \\      /  F ield         | OpenFOAM: The Open Source CFD Toolbox
   \\    /   O peration     | Website:  https://openfoam.org
    \\  /    A nd           | Version:  7
     \\/     M anipulation  |
\*---------------------------------------------------------------------------*/
FoamFile
{
    version     2.0;
    format      ascii;
    class       surfaceScalarField;
    location    "60";
    object      phi;
}
// * * * * * * * * * * * * * * * * * * * * * * * * * * * * * * * * * * * * * //

dimensions      [0 3 -1 0 0 0 0];

internalField   nonuniform List<scalar> 
8923
(
-0.000398528
0.00185225
-0.00184741
-0.000398557
0.00235328
-0.00235325
-0.000393987
0.00282036
-0.00282493
-0.000385208
0.00319595
-0.00320472
-0.000372071
0.00341596
-0.0034291
-0.000353415
0.0034122
-0.00343086
-0.000326886
0.00311908
-0.00314561
-0.000289793
0.00248509
-0.00252218
-0.000240708
0.00149384
-0.00154293
-0.00018121
0.000182835
-0.000242334
-0.000116524
-0.00135209
0.0012874
-5.48162e-05
-0.00298238
0.00292067
-4.88971e-06
-0.00458071
0.00453078
2.59226e-05
-0.00604947
0.00601866
3.49127e-05
-0.00732338
0.00731439
2.8286e-05
-0.00834749
0.00835412
2.48222e-05
-0.00902086
0.00902432
5.25899e-05
-0.00913809
0.00911032
0.000131507
-0.00842684
0.00834792
0.000254019
-0.00676368
0.00664117
0.000396418
-0.00432344
0.00418105
0.000541515
-0.00143486
0.00128976
0.00158891
-0.00172745
-0.000385304
0.00185468
-0.000382924
0.0023509
-0.000376018
0.00281346
-0.000365015
0.00318494
-0.000349797
0.00340075
-0.00032926
0.00339167
-0.000301179
0.003091
-0.000263073
0.00244698
-0.000213722
0.00144449
-0.000154801
0.000123914
-9.14935e-05
-0.0014154
-3.18416e-05
-0.00304203
1.54495e-05
-0.004628
4.28406e-05
-0.00607686
4.72797e-05
-0.00732782
3.41199e-05
-0.00833433
2.17229e-05
-0.00900846
3.92637e-05
-0.00915563
0.000110016
-0.00849759
0.000229338
-0.006883
0.000372841
-0.00446695
0.000520903
-0.00158292
0.0014468
-0.000370143
0.00185464
-0.000365311
0.00234607
-0.000356024
0.00280417
-0.000342751
0.00317167
-0.000325417
0.00338341
-0.000302996
0.00336925
-0.000273424
0.00306143
-0.000234439
0.002408
-0.000185009
0.00139506
-0.000126858
6.57637e-05
-6.50748e-05
-0.00147718
-7.48796e-06
-0.00309962
3.70633e-05
-0.00467255
6.13058e-05
-0.0061011
6.15291e-05
-0.00732805
4.22405e-05
-0.00831505
2.11482e-05
-0.00898737
2.82456e-05
-0.00916273
9.009e-05
-0.00855943
0.000205377
-0.00699829
0.000349512
-0.00461108
0.000500363
-0.00173377
0.0013012
-0.000353148
0.00185209
-0.00034582
0.00233874
-0.000334106
0.00279246
-0.000318519
0.00315608
-0.000299037
0.00336393
-0.000274741
0.00334495
-0.000243749
0.00303044
-0.000204028
0.00236828
-0.000154707
0.00134574
-9.75148e-05
8.5714e-06
-3.7387e-05
-0.00153731
1.79941e-05
-0.003155
5.99172e-05
-0.00471448
8.11742e-05
-0.00612236
7.75348e-05
-0.00732441
5.2561e-05
-0.00829007
2.30979e-05
-0.00895791
1.96222e-05
-0.00915925
7.1878e-05
-0.00861169
0.000182246
-0.00710866
0.000326472
-0.00475531
0.000479907
-0.00188721
0.00115221
-0.000334425
0.00184698
-0.000324559
0.00232888
-0.000310373
0.00277827
-0.00029243
0.00313814
-0.000270776
0.00334228
-0.000244621
0.0033188
-0.000212289
0.00299811
-0.000171979
0.00232797
-0.000122956
0.00129672
-6.6899e-05
-4.74852e-05
-8.44015e-06
-0.00159577
4.4415e-05
-0.00320785
8.38538e-05
-0.00475391
0.000102302
-0.00614081
9.51551e-05
-0.00731726
6.49764e-05
-0.00825989
2.75484e-05
-0.00892048
1.34538e-05
-0.00914516
5.55256e-05
-0.00865376
0.000160062
-0.0072132
0.000303767
-0.00489901
0.000459545
-0.00204299
0.000999942
-0.000314088
0.00183928
-0.000301642
0.00231643
-0.000284943
0.00276157
-0.000264605
0.0031178
-0.00024076
0.00331843
-0.000212771
0.00329081
-0.000179189
0.00296452
-0.000138439
0.00228722
-8.98915e-05
0.00124817
-3.51177e-05
-0.000102259
2.12969e-05
-0.00165218
7.18037e-05
-0.00325836
0.000108737
-0.00479085
0.000124542
-0.00615661
0.000114241
-0.00730696
7.93632e-05
-0.00822502
3.44486e-05
-0.00887557
9.80676e-06
-0.00912051
4.11705e-05
-0.00868513
0.000138954
-0.00731098
0.000281451
-0.00504151
0.00043929
-0.00220083
0.000844494
-0.000292251
0.00182895
-0.000277189
0.00230137
-0.000257939
0.00274232
-0.000235173
0.00309504
-0.000209127
0.00329238
-0.000179337
0.00326102
-0.000144595
0.00292978
-0.000103552
0.00224617
-5.56413e-05
0.00120026
-1.84461e-06
-0.000156056
5.18186e-05
-0.00170585
9.99978e-05
-0.00330654
0.000134435
-0.00482528
0.00014775
-0.00616993
0.000134635
-0.00729384
9.55822e-05
-0.00818596
4.37274e-05
-0.00882371
8.79232e-06
-0.00908558
2.8936e-05
-0.00870527
0.000119058
-0.0074011
0.000259587
-0.00518204
0.000419157
-0.0023604
0.000685995
-0.000269038
0.00181597
-0.000251328
0.00228366
-0.000229492
0.00272048
-0.000204273
0.00306982
-0.000176021
0.00326413
-0.000144469
0.00322946
-0.00010866
0.00289397
-6.74582e-05
0.00220497
-2.0267e-05
0.00115307
3.12729e-05
-0.000207596
8.31529e-05
-0.00175773
0.000128876
-0.00335226
0.000160825
-0.00485723
0.000171784
-0.00618089
0.000156179
-0.00727824
0.000113481
-0.00814326
5.52874e-05
-0.00876552
1.04474e-05
-0.00904074
1.8924e-05
-0.00871375
0.000100517
-0.00748269
0.00023825
-0.00531977
0.000399162
-0.00252131
0.000524584
-0.000244573
0.00180031
-0.000224189
0.00226328
-0.00019974
0.00269604
-0.000172048
0.00304212
-0.000141595
0.00323368
-0.000108323
0.00319619
-7.15354e-05
0.00285719
-3.0265e-05
0.0021637
1.59788e-05
0.00110682
6.54995e-05
-0.000257116
0.000115138
-0.00180737
0.000158326
-0.00339545
0.000187786
-0.00488669
0.000196504
-0.0061896
0.000178711
-0.00726045
0.000132896
-0.00809745
6.90076e-05
-0.00870163
1.47692e-05
-0.0089865
1.12056e-05
-0.00871018
8.34778e-05
-0.00755497
0.000217527
-0.00545382
0.000379328
-0.00268311
0.000360427
-0.000218985
0.00178196
-0.000195909
0.0022402
-0.000168828
0.00266895
-0.000138651
0.00301195
-0.000106007
0.00320104
-7.1058e-05
0.00316124
-3.33488e-05
0.00281948
8.06002e-06
0.00212229
5.26234e-05
0.00106226
0.000100408
-0.000304901
0.000147656
-0.00185461
0.000188242
-0.00343604
0.000215206
-0.00491366
0.000221777
-0.00619618
0.000202071
-0.00724074
0.000153656
-0.00804903
8.47489e-05
-0.00863272
2.16976e-05
-0.00892345
5.83033e-06
-0.00869431
6.80893e-05
-0.00761723
0.000197517
-0.00558325
0.000359684
-0.00284528
0.000193716
-0.000192409
0.00176092
-0.00016663
0.00221442
-0.000136904
0.00263923
-0.000104239
0.00297928
-6.94172e-05
0.00316621
-3.28177e-05
0.00312464
5.95848e-06
0.0027807
4.64508e-05
0.0020818
9.00478e-05
0.00101866
0.000135844
-0.000350698
0.000180602
-0.00189937
0.000218525
-0.00347396
0.000242978
-0.00493811
0.000247476
-0.00620067
0.0002261
-0.00721936
0.00017558
-0.00799851
0.000102357
-0.0085595
3.10974e-05
-0.00885219
2.96877e-06
-0.00866619
5.45023e-05
-0.00766876
0.000178332
-0.00570708
0.000340266
-0.00300721
0.000509304
2.4678e-05
0.00301768
-0.000164979
0.00173718
-0.000136495
0.00218594
-0.000104122
0.00260686
-6.89729e-05
0.00294413
-3.19837e-05
0.00312922
6.35398e-06
0.00308631
4.5304e-05
0.00274175
8.5724e-05
0.00204138
0.000127994
0.000976393
0.000171687
-0.00039439
0.000213876
-0.00194156
0.00024908
-0.00350916
0.000271001
-0.00496003
0.000273481
-0.00620315
0.000250644
-0.00719653
0.000198489
-0.00794636
0.00012166
-0.00848267
4.2886e-05
-0.00877342
3.02314e-06
-0.00862632
4.28637e-05
-0.0077086
0.000160095
-0.00582431
0.00032112
-0.00316824
0.000492217
-0.000146418
0.00285698
-0.000136831
0.00171078
-0.000105651
0.00215476
-7.06383e-05
0.00257184
-3.30151e-05
0.00290651
6.17883e-06
0.00309003
4.57379e-05
0.00304675
8.54811e-05
0.00270201
0.000125487
0.00200137
0.000166318
0.000935561
0.000207826
-0.000435898
0.000247383
-0.00198112
0.000279816
-0.0035416
0.00029918
-0.0049794
0.000299676
-0.00620365
0.000275557
-0.00717241
0.000222198
-0.007893
0.000142477
-0.00840295
5.69474e-05
-0.00868789
5.98562e-06
-0.00857536
3.33106e-05
-0.00773592
0.000142942
-0.00593394
0.000302305
-0.0033276
0.000475139
-0.000319252
0.00269333
-0.000108102
0.00168172
-7.42476e-05
0.0021209
-3.66096e-05
0.00253421
3.48079e-06
0.00286642
4.46498e-05
0.00304886
8.57531e-05
0.00300564
0.000126071
0.00266169
0.000165573
0.00196187
0.000204894
0.00089624
0.000244159
-0.000475163
0.000281032
-0.00201799
0.000310646
-0.00357121
0.000327422
-0.00499617
0.000325955
-0.00620218
0.000300697
-0.00714715
0.000246526
-0.00783883
0.000164612
-0.00832103
7.31395e-05
-0.00859641
1.16721e-05
-0.00851389
2.59722e-05
-0.00775022
0.000127015
-0.00603498
0.000283887
-0.00348447
0.000458087
-0.000493452
0.00252687
-7.89266e-05
0.00165007
-4.24344e-05
0.00208441
-2.25447e-06
0.00249403
4.02999e-05
0.00282387
8.3536e-05
0.00300563
0.000126067
0.00296311
0.000166898
0.00262086
0.000205838
0.00192293
0.000243601
0.000858477
0.000280585
-0.000512148
0.000314734
-0.00205214
0.000341487
-0.00359797
0.000355642
-0.00501033
0.000352217
-0.00619876
0.000325931
-0.00712086
0.000271297
-0.0077842
0.000187866
-0.0082376
9.13012e-05
-0.00849985
1.98967e-05
-0.00844249
2.09769e-05
-0.0077513
0.000112467
-0.00612647
0.00026595
-0.00363795
0.000441081
-0.000668584
0.00235778
-4.94415e-05
0.00161589
-1.04078e-05
0.00204538
3.24535e-05
0.00245116
7.73356e-05
0.00277898
0.000122588
0.00296037
0.000166503
0.0029192
0.000207805
0.00257956
0.000246146
0.00188459
0.000282324
0.000822299
0.000317006
-0.00054683
0.000348404
-0.00208354
0.000372257
-0.00362182
0.000383757
-0.00502183
0.000378368
-0.00619337
0.000351136
-0.00709363
0.000296337
-0.0077294
0.000212031
-0.0081533
0.000111254
-0.00839907
3.05667e-05
-0.0083618
1.8454e-05
-0.00773919
9.94531e-05
-0.00620747
0.000248592
-0.00378709
0.000424151
-0.000844143
0.00218624
-1.98037e-05
0.00157927
2.18626e-05
0.00200371
6.71846e-05
0.00240584
0.000114407
0.00273176
0.000161636
0.00291314
0.000206898
0.00287394
0.00024864
0.00253781
0.000286365
0.00184687
0.000320953
0.000787711
0.00035333
-0.000579207
0.000381959
-0.00211216
0.000402878
-0.00364274
0.000411686
-0.00503064
0.000404319
-0.006186
0.000376194
-0.00706551
0.000321483
-0.00767469
0.000236902
-0.00806872
0.000132803
-0.00829497
4.35992e-05
-0.0082726
1.85138e-05
-0.00771411
8.81292e-05
-0.00627709
0.000231924
-0.00393089
0.000407336
-0.00101955
0.00201251
9.92159e-06
0.00154028
5.41047e-05
0.00195953
0.000101848
0.0023581
0.000151359
0.00268225
0.000200519
0.00286398
0.000247095
0.00282736
0.000289261
0.00249565
0.000326367
0.00180976
0.000359379
0.000754699
0.000389463
-0.000609291
0.000415315
-0.00213802
0.00043327
-0.00366069
0.000439353
-0.00503672
0.000429986
-0.00617663
0.000400999
-0.00703652
0.000346579
-0.00762027
0.000262271
-0.00798441
0.000155741
-0.00818844
5.88804e-05
-0.00817574
2.12106e-05
-0.00767644
7.86493e-05
-0.00633453
0.000216071
-0.00406831
0.000390687
-0.00119417
0.00183684
3.97342e-05
0.00149848
8.62042e-05
0.00191306
0.000136303
0.002308
0.000188039
0.00263051
0.000239084
0.00281294
0.000286945
0.0027795
0.000329525
0.00245307
0.00036603
0.00177326
0.000397499
0.00072323
0.000425318
-0.000637111
0.000448393
-0.00216109
0.000463358
-0.00367566
0.000466681
-0.00504004
0.000455288
-0.00616524
0.00042545
-0.00700668
0.00037148
-0.0075663
0.000287937
-0.00790087
0.00017985
-0.00808035
7.62668e-05
-0.00807216
2.65287e-05
-0.0076267
7.11596e-05
-0.00637916
0.000201168
-0.00419832
0.000374267
-0.00136727
0.00165956
6.93609e-05
0.00145505
0.000118056
0.00186436
0.00017042
0.00225564
0.000224306
0.00257663
0.000277184
0.00276006
0.000326303
0.00273038
0.0003693
0.00241007
0.000405236
0.00173732
0.000435213
0.000693253
0.00046081
-0.000662707
0.000481115
-0.0021814
0.000493067
-0.00368761
0.000493597
-0.00504057
0.000480151
-0.00615179
0.000449457
-0.00697599
0.000396049
-0.00751289
0.000313704
-0.00781852
0.000204904
-0.00797155
9.55893e-05
-0.00796284
3.44048e-05
-0.00756551
6.57927e-05
-0.00641055
0.000187363
-0.00431989
0.000358154
-0.00153806
0.00148102
9.87716e-05
0.00140972
0.000149562
0.00181357
0.000204078
0.00220112
0.000260029
0.00252068
0.000314681
0.00270541
0.000365033
0.00268003
0.00040846
0.00236664
0.000443875
0.00170191
0.000472428
0.000664701
0.000495855
-0.000686134
0.000513404
-0.00219895
0.000522322
-0.00369653
0.000520029
-0.00503828
0.0005045
-0.00613627
0.000472934
-0.00694442
0.000420164
-0.00746012
0.000339383
-0.00773774
0.000230675
-0.00786285
0.000116656
-0.00784882
4.47507e-05
-0.00749361
6.26624e-05
-0.00642846
0.000174805
-0.00443203
0.000342437
-0.00170569
0.00130165
0.000127915
0.00136268
0.000180635
0.00176085
0.00023717
0.00214459
0.000295086
0.00246276
0.000351448
0.00264905
0.000403009
0.00262847
0.000446887
0.00232276
0.000481843
0.00166695
0.000509053
0.000637491
0.000530374
-0.000707455
0.000545184
-0.00221376
0.000551051
-0.00370239
0.000545906
-0.00503313
0.000528265
-0.00611862
0.000495802
-0.00691196
0.00044371
-0.00740803
0.000364799
-0.00765883
0.000256933
-0.00775498
0.000139258
-0.00773115
5.7458e-05
-0.00741181
6.1857e-05
-0.00643286
0.00016365
-0.00453382
0.000327219
-0.00186926
0.00112191
0.000156753
0.00131416
0.000211206
0.0017064
0.000269607
0.00208619
0.000329373
0.002403
0.000387372
0.00259105
0.000440116
0.00257573
0.000484471
0.00227841
0.000519043
0.00163238
0.000545005
0.000611529
0.000564291
-0.000726742
0.000576383
-0.00222585
0.000579181
-0.00370519
0.000571158
-0.00502511
0.000551381
-0.00609885
0.000517989
-0.00687857
0.000466584
-0.00735662
0.000389784
-0.00758203
0.000283451
-0.00764865
0.000163169
-0.00761086
7.2396e-05
-0.00732104
6.34337e-05
-0.00642389
0.00015405
-0.00462444
0.000312616
-0.00202783
0.000942339
0.000185268
0.00126443
0.000241229
0.00165044
0.000301317
0.0020261
0.000362799
0.00234151
0.000422352
0.00253149
0.000476252
0.00252183
0.000521115
0.00223355
0.000555387
0.00159811
0.000580207
0.000586709
0.000597536
-0.000744071
0.00060693
-0.00223524
0.000606642
-0.0037049
0.000595718
-0.00501419
0.00057378
-0.00607691
0.000539428
-0.00684422
0.000488696
-0.00730589
0.000414186
-0.00750752
0.000310009
-0.00754447
0.000188156
-0.00748901
8.94108e-05
-0.00722229
6.7414e-05
-0.0064019
0.00014615
-0.00470318
0.000298753
-0.00218043
0.000763519
0.000213472
0.000270683
0.00159323
0.00033225
0.00196453
0.000395295
0.00227847
0.000456306
0.00247048
0.000511327
0.00246681
0.000556733
0.00218814
0.000590798
0.00156404
0.00061459
0.000562916
0.000630041
-0.000759522
0.000636755
-0.00224196
0.000633366
-0.00370151
0.000619519
-0.00500034
0.000595401
-0.00605279
0.000560056
-0.00680887
0.000509961
-0.00725579
0.000437864
-0.00743542
0.000336392
-0.007443
0.000213978
-0.0073666
0.000108325
-0.00711664
7.37819e-05
-0.00636735
0.000140082
-0.00476948
0.000285766
-0.00232612
0.000586094
0.000299569
0.00153506
0.00036238
0.00190172
0.000426812
0.00221404
0.000489167
0.00240813
0.00054527
0.0024107
0.000591254
0.00214216
0.000625211
0.00153008
0.000648093
0.000540034
0.000661744
-0.000773173
0.000665793
-0.002246
0.000659286
-0.00369501
0.000642499
-0.00498355
0.000616184
-0.00602648
0.000579813
-0.0067725
0.000530308
-0.00720629
0.000460692
-0.00736581
0.000362399
-0.00734471
0.00024039
-0.00724459
0.00012894
-0.00700519
8.24842e-05
-0.0063209
0.000135958
-0.00482295
0.000273795
-0.00246395
0.000410761
0.000327922
0.00147627
0.000391708
0.00183793
0.000457324
0.00214842
0.000520895
0.00234456
0.000578028
0.00235357
0.00062462
0.00209556
0.000658572
0.00149613
0.000680664
0.000517943
0.000692587
-0.000785097
0.00069398
-0.0022474
0.000684337
-0.00368536
0.000664594
-0.00496381
0.00063607
-0.00599795
0.000598646
-0.00673508
0.000549671
-0.00715731
0.000482559
-0.00729869
0.000387838
-0.00724998
0.000267148
-0.0071239
0.000151042
-0.00688908
9.34334e-05
-0.00626329
0.00013387
-0.00486339
0.000262982
-0.00259306
0.00023826
0.000355804
0.00141721
0.000420262
0.00177347
0.000486834
0.00208185
0.000551468
0.00227992
0.000609567
0.00229547
0.000656795
0.00204833
0.000690843
0.00146208
0.000712259
0.000496527
0.000722519
-0.000795357
0.000721255
-0.00224613
0.000708455
-0.00367256
0.000685747
-0.0049411
0.000655006
-0.00596721
0.000616504
-0.00669657
0.000567994
-0.0071088
0.000503365
-0.00723406
0.000412531
-0.00715915
0.000294014
-0.00700538
0.0001744
-0.00676947
0.00010651
-0.0061954
0.000133877
-0.00489075
0.000253469
-0.00271266
6.93636e-05
0.000383306
0.00135828
0.000448104
0.00170868
0.000515371
0.00201458
0.000580895
0.0022144
0.000639879
0.00223649
0.000687761
0.00200045
0.000722001
0.00142784
0.000742848
0.000475679
0.000751493
-0.000804002
0.000747561
-0.0022422
0.000731582
-0.00365659
0.000705901
-0.00491542
0.00067294
-0.00593425
0.000633338
-0.00665697
0.000585227
-0.00706069
0.000523026
-0.00717186
0.000436318
-0.00707244
0.000320754
-0.00688982
0.000198777
-0.00664749
0.000121565
-0.00611819
0.00013601
-0.0049052
0.000245384
-0.00282203
-9.51344e-05
0.000410553
0.0012999
0.000475326
0.0016439
0.000542999
0.00194691
0.000609212
0.00214819
0.000668982
0.00217672
0.000717524
0.00195191
0.000752043
0.00139333
0.000772411
0.000455311
0.000779469
-0.00081106
0.000772843
-0.00223557
0.000753659
-0.0036374
0.000725002
-0.00488676
0.000689824
-0.00589907
0.000649107
-0.00661625
0.000601326
-0.00701291
0.000541469
-0.00711201
0.000459049
-0.00699002
0.000347144
-0.00677791
0.000223928
-0.00652427
0.000138428
-0.00603269
0.00014026
-0.00490703
0.000238861
-0.00292063
-0.000254413
0.000437693
0.0012425
0.000502051
0.00157954
0.000569812
0.00187915
0.000636489
0.00208151
0.000696924
0.00211628
0.000746115
0.00190272
0.000780983
0.00135846
0.000800938
0.000435357
0.000806409
-0.000816531
0.000797047
-0.00222621
0.000774632
-0.00361499
0.000743001
-0.00485513
0.000705614
-0.00586169
0.000663769
-0.00657441
0.000616255
-0.0069654
0.000558636
-0.00705439
0.000480596
-0.00691198
0.00037297
-0.00667029
0.000249609
-0.00640091
0.000156902
-0.00593998
0.000146585
-0.00489671
0.000233972
-0.00300802
-0.000407724
0.000464904
0.00118653
0.000528437
0.00151601
0.000595943
0.00181164
0.00066283
0.00201462
0.000723786
0.00205533
0.000773596
0.00185291
0.000808861
0.00132319
0.000828433
0.000415785
0.000832284
-0.000820381
0.000820124
-0.00221405
0.000794449
-0.00358931
0.000759852
-0.00482054
0.000720268
-0.0058221
0.000677286
-0.00653143
0.000629979
-0.00691809
0.000574475
-0.00699888
0.000500843
-0.00683835
0.000398031
-0.00656747
0.000275575
-0.00627846
0.000176779
-0.00584119
0.000154905
-0.00487484
0.000230803
-0.00308391
-0.00055434
0.000492379
0.00113243
0.00055467
0.00145372
0.000621559
0.00174475
0.000688381
0.0019478
0.000749689
0.00199402
0.000800062
0.00180254
0.000835738
0.00128752
0.000854915
0.000396608
0.000857068
-0.000822534
0.000842025
-0.00219901
0.000813059
-0.00356035
0.00077551
-0.00478299
0.000733745
-0.00578034
0.000689622
-0.0064873
0.000642465
-0.00687094
0.000588942
-0.00694536
0.000519687
-0.0067691
0.000422137
-0.00646992
0.000301584
-0.0061579
0.000197836
-0.00573744
0.000165108
-0.00484211
0.000229406
-0.00314821
-0.000693604
0.000520327
0.00108061
0.000580964
0.00139308
0.000646866
0.00167885
0.000713327
0.00188134
0.000774795
0.00193255
0.000825646
0.00175168
0.000861704
0.00125146
0.000880412
0.0003779
0.000880737
-0.000822859
0.000862705
-0.00218098
0.000830416
-0.00352806
0.000789935
-0.00474251
0.000746012
-0.00573641
0.000700747
-0.00644204
0.000653692
-0.00682388
0.000602013
-0.00689368
0.00053705
-0.00670413
0.00044512
-0.00637799
0.000327407
-0.00604019
0.000219847
-0.00562988
0.000177053
-0.00479932
0.000229791
-0.00320095
-0.000824957
0.000548961
0.00103144
0.000607555
0.00133449
0.000672103
0.0016143
0.000737898
0.00181554
0.000799308
0.00187114
0.000850514
0.00170048
0.000886868
0.0012151
0.000904958
0.00035981
0.000903264
-0.000821165
0.000882117
-0.00215983
0.000846485
-0.00349242
0.000803113
-0.00469913
0.000757074
-0.00569037
0.000710677
-0.00639564
0.00066368
-0.00677688
0.000613704
-0.00684371
0.000552898
-0.00664333
0.000466851
-0.00629195
0.00035284
-0.00592618
0.000242596
-0.00551963
0.000190584
-0.00474731
0.000231941
-0.00324231
-0.000947954
0.000578485
0.000985238
0.000634691
0.00127828
0.000697541
0.00155145
0.000762362
0.00175072
0.000823477
0.00181002
0.000874867
0.00164909
0.000911352
0.00117862
0.000928585
0.000342576
0.000924617
-0.000817197
0.00090022
-0.00213543
0.000861245
-0.00345345
0.000815043
-0.00465293
0.000766939
-0.00564227
0.000719422
-0.00634812
0.000672445
-0.00672991
0.000624025
-0.00679529
0.000567197
-0.0065865
0.0004872
-0.00621195
0.000377673
-0.00581665
0.00026585
-0.00540781
0.000205511
-0.00468697
0.000235789
-0.00327259
-0.00106229
0.000609104
0.000662659
0.00122473
0.000723523
0.00149059
0.000787091
0.00168715
0.000847667
0.00174945
0.000899025
0.00159773
0.000935373
0.00114227
0.000951395
0.000326555
0.000944827
-0.000810629
0.000916985
-0.00210759
0.000874616
-0.00341108
0.000825589
-0.00460391
0.000775417
-0.0055921
0.000726756
-0.00629946
0.000679746
-0.0066829
0.000632753
-0.00674829
0.000579718
-0.00653346
0.000505888
-0.00613812
0.000401577
-0.00571234
0.000289284
-0.00529552
0.000221559
-0.00461924
0.000241177
-0.0032922
-0.00116782
0.00069181
0.00117395
0.000750524
0.00143188
0.000812647
0.00162503
0.000872473
0.00168962
0.000923548
0.00154666
0.00095938
0.00110644
0.00097365
0.000312285
0.000963997
-0.000800976
0.000932364
-0.00207596
0.000886404
-0.00336512
0.000834426
-0.00455193
0.000782089
-0.00553976
0.000732215
-0.00624959
0.000685135
-0.00663582
0.000639491
-0.00670265
0.000590111
-0.00648408
0.000522561
-0.00607057
0.000424198
-0.00561398
0.000312587
-0.00518391
0.000238477
-0.00454513
0.00024793
-0.00330166
-0.00126453
0.000722299
0.001126
0.000778753
0.00137542
0.000839264
0.00156452
0.000898097
0.00163079
0.000948516
0.00149624
0.000983272
0.00107168
0.000995095
0.000300462
0.000981817
-0.000787698
0.000946228
-0.00204037
0.000896756
-0.00331565
0.000841995
-0.00449717
0.000787655
-0.00548542
0.000736677
-0.00619861
0.000689561
-0.0065887
0.000645175
-0.00665826
0.000599217
-0.00643813
0.000537895
-0.00600925
0.000446033
-0.00552212
0.000336133
-0.00507401
0.000256568
-0.00446557
0.000256322
-0.00330141
-0.00135242
0.000753892
0.00108112
0.000807751
0.00132156
0.000866206
0.00150607
0.000923479
0.00157352
0.000972494
0.00144722
0.00100527
0.00103891
0.00101406
0.000291667
0.000997393
-0.000771027
0.000958731
-0.00200171
0.000906962
-0.00326388
0.000850599
-0.0044408
0.000795166
-0.00542999
0.000743613
-0.00614706
0.000696611
-0.0065417
0.000653282
-0.00661493
0.000610252
-0.0063951
0.000554748
-0.00595374
0.000469564
-0.00543693
0.000362165
-0.00496661
0.000277985
-0.00438139
0.000268526
-0.00329195
-0.00143154
0.00285358
0.00100376
0.00298433
0.00119081
0.00316843
0.00132196
0.00340286
0.00133909
0.00367922
0.00117086
0.00397892
0.000739204
0.00425754
1.30484e-05
0.0044946
-0.00100809
0.00466175
-0.00216886
0.00475943
-0.00336156
0.00478873
-0.0044701
0.00474739
-0.00538865
0.00463461
-0.00603427
0.00445467
-0.00636176
0.00421564
-0.0063759
0.00392792
-0.00610738
0.00357916
-0.00560498
0.00312852
-0.00498629
0.00257376
-0.00441184
0.00201397
-0.0038216
0.00159335
-0.00287134
0.00139527
-0.00123346
0.00109373
0.00353931
0.000952553
0.00364808
0.00108204
0.0038146
0.00115544
0.00403378
0.0011199
0.0042928
0.000911844
0.0045684
0.000463608
0.00483402
-0.000252572
0.00504599
-0.00122006
0.00519694
-0.00231981
0.00527908
-0.00344369
0.00528698
-0.004478
0.00521653
-0.0053182
0.00507055
-0.00588829
0.00485966
-0.00615087
0.00459623
-0.00611247
0.00429376
-0.00580491
0.00395033
-0.00526156
0.00352729
-0.00456324
0.00299418
-0.00387874
0.00241373
-0.00324115
0.00192632
-0.00238393
0.0016358
-0.000942939
0.00117419
0.00431404
0.000930395
0.00439467
0.00100141
0.00453454
0.00101557
0.00472831
0.000926131
0.00496283
0.000677327
0.0052138
0.000212638
0.00545194
-0.000490708
0.00564153
-0.00140965
0.00576853
-0.00244681
0.00582164
-0.0034968
0.00579369
-0.00445006
0.00568387
-0.00520838
0.00550039
-0.00570481
0.00525871
-0.00590919
0.00497352
-0.00582728
0.00465814
-0.00548953
0.00431799
-0.00492141
0.0039235
-0.00416875
0.00342692
-0.00338216
0.00285164
-0.00266587
0.00231777
-0.00185006
0.00195517
-0.000580342
0.00132267
0.0051501
0.000932019
0.00520385
0.000947664
0.00531455
0.000904869
0.00547762
0.000763064
0.00567986
0.000475089
0.00589742
-4.92539e-06
0.0061006
-0.000693884
0.00625687
-0.00156593
0.00634766
-0.00253759
0.00636
-0.00350915
0.00628817
-0.00437822
0.0061357
-0.00505591
0.00591504
-0.00548416
0.00564456
-0.00563871
0.00534073
-0.00552345
0.00501573
-0.00516453
0.00467873
-0.00458441
0.00431235
-0.00380237
0.00386308
-0.00293289
0.00331797
-0.00212076
0.00276698
-0.00129907
0.00234784
-0.000161193
0.00153156
0.00599768
0.000945676
0.00603251
0.00091284
0.00611782
0.000819559
0.00624958
0.0006313
0.0064151
0.000309573
0.0065927
-0.000182531
0.0067529
-0.000854078
0.0068655
-0.00167853
0.00691025
-0.00258235
0.00687476
-0.00347365
0.00675606
-0.00425953
0.00656168
-0.00486152
0.00630704
-0.00522951
0.00601179
-0.00534347
0.00569345
-0.00520511
0.00536315
-0.00483422
0.00503053
-0.0042518
0.00469013
-0.00346197
0.00429385
-0.00253661
0.00380093
-0.00162783
0.00326302
-0.000761169
0.00281028
0.000291546
0.00179008
0.00679728
0.000957565
0.00682453
0.000885591
0.00689247
0.000751623
0.00699723
0.000526539
0.00712689
0.000179908
0.00726203
-0.000317668
0.00737497
-0.000967017
0.00743834
-0.00174191
0.00743282
-0.00257682
0.00734822
-0.00338906
0.00718484
-0.00409614
0.00695321
-0.0046299
0.00667054
-0.00494684
0.00635645
-0.00502938
0.00602859
-0.00487725
0.00569765
-0.00450329
0.00537192
-0.00392607
0.00505473
-0.00314478
0.00471153
-0.00219341
0.00428676
-0.00120306
0.00379156
-0.000265967
0.00333426
0.000748845
0.00208232
0.0074987
0.000957024
0.00752851
0.000855771
0.00758793
0.000692211
0.00767275
0.000441713
0.00777156
8.11012e-05
0.00786684
-0.000412949
0.00793396
-0.00103413
0.00794915
-0.0017571
0.00789584
-0.00252351
0.00776699
-0.00326021
0.00756591
-0.00389506
0.0073051
-0.00436909
0.0070024
-0.00464414
0.00667659
-0.00470357
0.00634467
-0.00454533
0.00601755
-0.00417617
0.00570193
-0.00361045
0.00540566
-0.00284851
0.00511086
-0.0018986
0.0047623
-0.000854501
0.00433532
0.00016101
0.00390586
0.00117831
0.00238631
0.00807571
0.000939425
0.00811383
0.000817651
0.0081712
0.000634842
0.00824274
0.000370178
0.00831768
6.15917e-06
0.00837938
-0.000474654
0.00840714
-0.00106189
0.0083811
-0.00173106
0.00828822
-0.00243063
0.00812472
-0.0030967
0.00789628
-0.00366662
0.00761635
-0.00408916
0.00730251
-0.0043303
0.00697242
-0.00437348
0.00664193
-0.00421484
0.00632247
-0.0038567
0.00602009
-0.00330807
0.00574363
-0.00257205
0.00548995
-0.00164492
0.00521594
-0.000580493
0.00487602
0.000500929
0.00450578
0.00154854
0.00267458
0.00852882
0.000905834
0.00857603
0.000770441
0.0086341
0.000576769
0.00869676
0.000307523
0.00875441
-5.14875e-05
0.00879015
-0.0005104
0.00878763
-0.00105937
0.00873062
-0.00167405
0.00860947
-0.00230948
0.00842312
-0.00291035
0.00817879
-0.00342229
0.00789004
-0.00380041
0.00757365
-0.00401392
0.00724612
-0.00404595
0.00692208
-0.0038908
0.00661336
-0.00354798
0.00632661
-0.00302132
0.00606989
-0.00231533
0.00584973
-0.00142476
0.00564161
-0.000372372
0.00539541
0.00074713
0.00511047
0.00183349
0.00291663
0.00887762
0.000860708
0.00893132
0.000716738
0.00898975
0.00051834
0.00904597
0.000251302
0.00909006
-9.55768e-05
0.00910736
-0.000527703
0.00908374
-0.00103575
0.00900636
-0.00159666
0.00886836
-0.00217148
0.00867052
-0.00271251
0.00842079
-0.00317256
0.00813228
-0.0035119
0.00782064
-0.00370228
0.00750129
-0.00372659
0.00718786
-0.00357737
0.00689224
-0.00325236
0.00662243
-0.00275151
0.00638577
-0.00207868
0.00619322
-0.00123221
0.00603793
-0.000217084
0.00588003
0.000905036
0.00569513
0.00201838
0.00308414
0.0091497
0.000809419
0.009206
0.000660444
0.00926278
0.000461557
0.00931284