/*--------------------------------*- C++ -*----------------------------------*\
  =========                 |
  \\      /  F ield         | OpenFOAM: The Open Source CFD Toolbox
   \\    /   O peration     | Website:  https://openfoam.org
    \\  /    A nd           | Version:  7
     \\/     M anipulation  |
\*---------------------------------------------------------------------------*/
FoamFile
{
    version     2.0;
    format      ascii;
    class       volVectorField;
    location    "60";
    object      U;
}
// * * * * * * * * * * * * * * * * * * * * * * * * * * * * * * * * * * * * * //

dimensions      [0 1 -1 0 0 0 0];

internalField   nonuniform List<vector> 
4575
(
(-0.204919 0.141756 4.86635e-22)
(-0.206772 0.177185 -2.08949e-22)
(-0.205836 0.208819 -2.42055e-22)
(-0.202793 0.232634 2.47461e-22)
(-0.197407 0.244454 -2.6901e-22)
(-0.189598 0.24013 -3.31269e-22)
(-0.178219 0.21601 7.79779e-23)
(-0.161868 0.169647 4.30131e-22)
(-0.139146 0.101092 2.81988e-22)
(-0.109971 0.013898 -9.40748e-22)
(-0.076145 -0.0848544 5.79457e-22)
(-0.0414815 -0.186453 -2.37814e-22)
(-0.0107385 -0.28278 -1.4398e-22)
(0.0115661 -0.36802 2.19633e-22)
(0.0223124 -0.438619 1.76863e-22)
(0.0217494 -0.491768 -4.20882e-23)
(0.0159247 -0.522102 -2.00394e-22)
(0.0182097 -0.518801 9.73639e-24)
(0.0443187 -0.468582 -3.60268e-22)
(0.0991924 -0.367886 3.58803e-22)
(0.170388 -0.229302 -1.12902e-22)
(0.245793 -0.0721602 1.03436e-22)
(0.320104 0.0863651 -4.26964e-22)
(-0.201494 0.142051 2.17039e-21)
(-0.202707 0.177114 -8.72222e-23)
(-0.201068 0.208416 -1.37034e-21)
(-0.197217 0.231943 1.10608e-21)
(-0.190859 0.243475 -2.11804e-21)
(-0.181863 0.238793 2.12624e-21)
(-0.169065 0.214165 4.39689e-23)
(-0.151122 0.167133 -3.61511e-22)
(-0.126776 0.0978373 -1.76267e-21)
(-0.0961153 0.0100306 2.3946e-21)
(-0.0610916 -0.0889798 -1.77812e-21)
(-0.0256268 -0.190314 1.76848e-21)
(0.00545299 -0.285836 -2.28153e-22)
(0.0275584 -0.369836 -2.36959e-21)
(0.0373915 -0.439058 1.83707e-21)
(0.0348076 -0.491211 -9.7766e-22)
(0.0253441 -0.521655 8.66478e-22)
(0.0222323 -0.52009 -4.01323e-23)
(0.0421358 -0.472756 -2.00833e-22)
(0.0922589 -0.374517 8.32575e-22)
(0.161097 -0.237013 -1.39021e-21)
(0.235393 -0.0799485 1.40966e-21)
(0.30909 0.0790132 -1.45139e-21)
(-0.197156 0.142156 3.87866e-21)
(-0.197691 0.17686 -3.43215e-21)
(-0.195313 0.20784 -7.87227e-22)
(-0.190617 0.231089 2.20686e-23)
(-0.183253 0.242348 4.49905e-21)
(-0.173039 0.237325 -1.1221e-23)
(-0.158812 0.212218 -1.54791e-21)
(-0.1393 0.164556 1.01114e-21)
(-0.113386 0.0945717 -1.04941e-21)
(-0.0813161 0.00620689 8.34665e-24)
(-0.0451726 -0.0930126 2.56185e-23)
(-0.00896838 -0.194047 -4.94401e-22)
(0.0224181 -0.288726 -2.00466e-22)
(0.0443458 -0.371454 -2.40747e-22)
(0.0533616 -0.439235 2.05012e-21)
(0.0489312 -0.490281 -1.62904e-21)
(0.0360267 -0.520696 -4.52954e-23)
(0.0276154 -0.520787 -9.70913e-22)
(0.0411456 -0.47645 8.19e-22)
(0.0860991 -0.380946 -4.71481e-23)
(0.152276 -0.244768 5.88673e-22)
(0.225358 -0.0878853 -1.95296e-22)
(0.298394 0.0714804 3.28377e-22)
(-0.191938 0.142068 3.33279e-21)
(-0.191757 0.176418 -3.47323e-21)
(-0.188604 0.207084 2.58552e-21)
(-0.183027 0.230069 -4.90426e-21)
(-0.174621 0.241069 2.31451e-21)
(-0.163164 0.235727 -1.15875e-21)
(-0.147505 0.210171 1.87553e-21)
(-0.126452 0.161925 -3.36721e-21)
(-0.0990327 0.0913071 1.97935e-21)
(-0.0656326 0.00243931 1.37673e-21)
(-0.0284473 -0.0969459 1.27173e-21)
(0.00843561 -0.197646 1.28288e-21)
(0.0400958 -0.29145 -2.79042e-21)
(0.0618614 -0.372885 -1.56288e-21)
(0.0701524 -0.439171 2.89439e-22)
(0.0640548 -0.489003 1.87798e-21)
(0.0479299 -0.519242 2.14019e-21)
(0.0343599 -0.520885 -3.23642e-22)
(0.0414017 -0.479623 1.97257e-22)
(0.0807749 -0.387126 -1.00402e-21)
(0.14395 -0.252538 3.62799e-22)
(0.215695 -0.0959603 1.01878e-22)
(0.288019 0.0637719 -2.78208e-21)
(-0.185874 0.141783 2.70208e-21)
(-0.184939 0.175784 -1.70911e-21)
(-0.180976 0.206147 2.82851e-21)
(-0.174481 0.228878 -1.04886e-21)
(-0.165 0.239635 9.59649e-22)
(-0.152279 0.233997 -4.36198e-21)
(-0.135191 0.208029 5.77059e-21)
(-0.112634 0.159249 3.70545e-22)
(-0.0837738 0.0880557 -1.99295e-21)
(-0.0491234 -0.0012601 -4.7945e-21)
(-0.010972 -0.100776 9.59437e-22)
(0.0265295 -0.201097 -1.73017e-21)
(0.0584274 -0.294018 2.08058e-21)
(0.0800402 -0.374141 -4.33085e-22)
(0.0876925 -0.438887 -5.66651e-22)
(0.0801084 -0.487404 3.85434e-22)
(0.0610033 -0.517314 1.23773e-21)
(0.0424566 -0.520376 4.83639e-22)
(0.0429507 -0.482241 1.03464e-23)
(0.0763519 -0.393006 1.41352e-21)
(0.13615 -0.260292 -5.9483e-22)
(0.20641 -0.104161 -2.22429e-21)
(0.277966 0.0558931 1.10588e-21)
(-0.178998 0.141298 -5.26446e-21)
(-0.177274 0.174955 2.18336e-21)
(-0.172464 0.205023 -3.84307e-23)
(-0.165015 0.227514 -6.14458e-21)
(-0.154429 0.238045 5.19517e-21)
(-0.140429 0.232138 -9.38261e-22)
(-0.121921 0.205797 -3.11271e-22)
(-0.0979002 0.156538 7.55425e-21)
(-0.0676677 0.0848296 -5.70675e-21)
(-0.0318463 -0.00488472 5.31627e-21)
(0.00719973 -0.104485 -1.83244e-21)
(0.0452605 -0.204395 -3.38759e-21)
(0.0773562 -0.296433 4.33992e-21)
(0.0988204 -0.375232 -2.60971e-21)
(0.105911 -0.438404 -1.70756e-21)
(0.0970189 -0.485514 -5.91267e-22)
(0.0751887 -0.514938 -2.81905e-21)
(0.0518855 -0.519264 1.20285e-21)
(0.0458307 -0.484272 -2.30987e-21)
(0.0728981 -0.398536 -9.60757e-22)
(0.128911 -0.267995 2.30004e-21)
(0.197512 -0.112475 1.3756e-21)
(0.268237 0.0478499 1.47799e-21)
(-0.171345 0.14061 -7.08892e-21)
(-0.168796 0.173928 4.04721e-21)
(-0.163104 0.203709 -6.62945e-21)
(-0.154668 0.225972 -1.607e-21)
(-0.142952 0.236297 2.29171e-21)
(-0.127661 0.23015 -2.68934e-21)
(-0.107747 0.203482 -2.2915e-21)
(-0.0823088 0.153801 -2.26847e-21)
(-0.0507727 0.0816386 3.69953e-21)
(-0.013856 -0.00843619 4.96428e-21)
(0.0260168 -0.108042 6.3491e-21)
(0.0645779 -0.207548 -6.75683e-21)
(0.09683 -0.298695 7.27175e-21)
(0.118143 -0.376168 -3.71716e-21)
(0.124739 -0.437743 -2.9118e-21)
(0.114711 -0.483363 4.37433e-21)
(0.0904216 -0.512145 2.13503e-21)
(0.0626164 -0.517558 -5.33388e-21)
(0.0500703 -0.485688 1.4762e-21)
(0.070483 -0.403665 1.13187e-21)
(0.122275 -0.275608 -9.36103e-22)
(0.18901 -0.120884 1.75767e-21)
(0.258832 0.0396488 -1.53961e-21)
(-0.162951 0.139715 -1.75376e-23)
(-0.159543 0.172699 1.88469e-21)
(-0.152937 0.202203 5.29434e-21)
(-0.143483 0.224251 -3.6731e-21)
(-0.130613 0.234389 6.06948e-22)
(-0.114025 0.228035 1.17153e-22)
(-0.0927263 0.201088 -3.93082e-21)
(-0.0659178 0.151048 -3.51725e-21)
(-0.0331482 0.0784891 9.47205e-21)
(0.00479722 -0.0118827 -4.60163e-22)
(0.0454322 -0.111455 -4.05947e-21)
(0.0844325 -0.210551 -4.67447e-21)
(0.1168 -0.300803 7.66776e-21)
(0.137952 -0.376958 -5.33149e-21)
(0.144109 -0.436923 9.95539e-22)
(0.133107 -0.480982 -1.64731e-21)
(0.106631 -0.508967 4.46203e-21)
(0.0746089 -0.515276 -3.53446e-21)
(0.0556874 -0.486461 1.25727e-21)
(0.0691744 -0.408347 2.47779e-21)
(0.11629 -0.283088 -4.05975e-21)
(0.180918 -0.129369 -1.23175e-21)
(0.249753 0.031297 2.7498e-21)
(-0.153851 0.138613 3.05092e-21)
(-0.149553 0.171267 1.35274e-21)
(-0.142003 0.2005 -2.14201e-21)
(-0.131503 0.222347 2.71585e-21)
(-0.117461 0.232322 6.53434e-21)
(-0.0995742 0.225795 -1.13781e-20)
(-0.0769144 0.198622 2.51583e-21)
(-0.0487863 0.148282 6.32703e-21)
(-0.0148481 0.0753956 -3.50239e-21)
(0.0240607 -0.0151911 1.13059e-20)
(0.0653968 -0.11474 -1.38995e-20)
(0.104782 -0.213399 5.52267e-21)
(0.137222 -0.302758 -7.58442e-21)
(0.158195 -0.377608 6.78164e-22)
(0.163956 -0.435965 -1.19856e-21)
(0.152131 -0.478402 3.76285e-21)
(0.123742 -0.50544 -2.03573e-21)
(0.0878139 -0.512444 -2.00048e-21)
(0.0626885 -0.486568 -7.36793e-22)
(0.0690374 -0.412537 4.34771e-21)
(0.111011 -0.290389 2.42778e-21)
(0.17325 -0.137908 7.47155e-22)
(0.241 0.0228027 -1.81153e-21)
(-0.144082 0.1373 4.13346e-21)
(-0.138866 0.169628 6.41747e-21)
(-0.130344 0.198601 -5.57823e-21)
(-0.118775 0.22026 -1.49201e-20)
(-0.103546 0.230094 -2.47475e-21)
(-0.0843639 0.223434 1.26766e-21)
(-0.0603702 0.196086 2.00156e-20)
(-0.0309725 0.14551 -1.46629e-20)
(0.00407468 0.0723869 7.14232e-21)
(0.043885 -0.0183764 -1.17289e-20)
(0.0858657 -0.117879 7.43886e-21)
(0.125586 -0.216086 -3.45279e-21)
(0.158054 -0.304558 3.00137e-21)
(0.178825 -0.378124 -4.66552e-21)
(0.184221 -0.434883 4.81555e-22)
(0.171708 -0.475654 -2.60928e-21)
(0.141675 -0.501604 4.6105e-21)
(0.102174 -0.509094 -2.77675e-21)
(0.0710685 -0.485991 1.85582e-21)
(0.0701314 -0.416192 -3.70237e-21)
(0.106499 -0.297462 9.49422e-22)
(0.166027 -0.146476 -5.27742e-21)
(0.232576 0.0141753 3.06505e-21)
(-0.13368 0.135778 -5.93841e-22)
(-0.127521 0.167782 8.7673e-21)
(-0.118004 0.196501 -1.03477e-20)
(-0.105345 0.217988 1.93539e-21)
(-0.0889207 0.227706 -8.97521e-21)
(-0.0684506 0.220951 1.35607e-20)
(-0.0431531 0.19348 1.01476e-20)
(-0.0125314 0.142759 1.76032e-21)
(0.0235668 0.0694643 -1.53613e-20)
(0.0642206 -0.0214421 3.09297e-21)
(0.106799 -0.120862 1.58575e-20)
(0.146807 -0.218607 -3.12571e-21)
(0.179257 -0.306204 -9.85781e-21)
(0.199797 -0.378512 -1.1988e-21)
(0.204846 -0.433694 1.57977e-20)
(0.191763 -0.472768 -8.21147e-22)
(0.160346 -0.497498 -2.55095e-21)
(0.117625 -0.505259 7.29491e-22)
(0.0808096 -0.484727 -1.2045e-21)
(0.0725084 -0.419274 4.51089e-21)
(0.10282 -0.304254 -2.10197e-21)
(0.159275 -0.155042 6.65261e-21)
(0.224483 0.00542707 -3.42162e-21)
(0.289522 0.157869 4.46297e-21)
(-0.122685 0.134044 1.75857e-21)
(-0.115561 0.165728 -8.32608e-21)
(-0.105027 0.194202 -1.69261e-21)
(-0.0912634 0.215531 1.83341e-20)
(-0.0736389 0.225158 -9.1715e-21)
(-0.0518927 0.218346 -1.96712e-20)
(-0.0253191 0.190826 1.91163e-20)
(0.00647978 0.14004 2.3073e-21)
(0.0435725 0.0666176 -1.69283e-20)
(0.0850229 -0.0243771 -7.75735e-21)
(0.128157 -0.123683 5.21195e-21)
(0.16841 -0.220958 1.00249e-20)
(0.200796 -0.307693 -1.76902e-20)
(0.221071 -0.378774 4.42427e-21)
(0.225778 -0.432411 2.72876e-21)
(0.212225 -0.469771 -1.20215e-20)
(0.179674 -0.493163 -2.39552e-21)
(0.134095 -0.500978 1.80647e-21)
(0.0918821 -0.48279 1.09323e-20)
(0.0762116 -0.421738 -4.04501e-21)
(0.100046 -0.310713 3.05202e-21)
(0.153026 -0.163572 -1.07282e-20)
(0.216727 -0.00342662 1.90554e-21)
(0.281075 0.149686 5.88887e-22)
(-0.111132 0.132101 -9.03678e-21)
(-0.103026 0.163467 2.26861e-21)
(-0.0914618 0.191703 2.98508e-21)
(-0.0765814 0.212889 -1.25935e-20)
(-0.057756 0.22245 2.30846e-20)
(-0.0347461 0.215632 -1.81247e-20)
(-0.00692738 0.188135 1.62467e-20)
(0.0260015 0.137337 -2.64395e-20)
(0.0640414 0.0638574 2.56473e-20)
(0.106249 -0.027173 7.26248e-21)
(0.149904 -0.126338 7.54076e-21)
(0.19036 -0.223136 -2.24452e-20)
(0.222636 -0.309023 7.96061e-21)
(0.242608 -0.378913 -3.75158e-21)
(0.246969 -0.431044 1.64246e-21)
(0.233026 -0.46669 1.05694e-20)
(0.199572 -0.48864 -2.17283e-21)
(0.151506 -0.49629 2.00617e-21)
(0.104245 -0.480214 1.96453e-21)
(0.0812741 -0.423535 -2.7278e-21)
(0.0982517 -0.316784 2.63305e-21)
(0.147317 -0.172029 -4.3684e-21)
(0.209317 -0.0123767 3.78562e-21)
(0.272893 0.141353 9.95157e-23)
(-0.0990588 0.12995 1.4522e-21)
(-0.0899602 0.160999 -1.25452e-20)
(-0.0773533 0.189004 1.52114e-20)
(-0.0613505 0.210062 -1.03675e-20)
(-0.0413268 0.219588 -1.11876e-20)
(-0.0170694 0.212817 7.29431e-22)
(0.0119613 0.185396 4.92968e-21)
(0.0459779 0.134659 -1.0677e-20)
(0.0849245 0.0611931 1.36297e-20)
(0.127859 -0.0298248 1.36808e-20)
(0.172005 -0.128822 -2.74591e-20)
(0.212626 -0.225136 8.16294e-21)
(0.244745 -0.310191 1.31918e-20)
(0.264374 -0.378929 -1.84313e-20)
(0.268376 -0.429603 2.01703e-20)
(0.254105 -0.463548 3.44896e-21)
(0.219958 -0.483969 -4.81794e-21)
(0.169774 -0.491242 -2.94104e-21)
(0.117847 -0.477034 2.8075e-21)
(0.0877181 -0.424628 -4.38609e-21)
(0.0975091 -0.322414 4.10669e-21)
(0.142193 -0.180371 3.2222e-21)
(0.202265 -0.0214063 9.70013e-23)
(0.264976 0.132878 1.48886e-21)
(-0.086501 0.127594 -5.36422e-21)
(-0.0764035 0.158326 -2.62508e-21)
(-0.0627489 0.18611 -5.76558e-22)
(-0.0456221 0.207052 5.47589e-21)
(-0.0244072 0.216576 -7.71197e-21)
(0.00107803 0.209894 -2.71408e-21)
(0.0312889 0.182613 2.86247e-22)
(0.066355 0.132013 1.86178e-20)
(0.106174 0.058629 -4.9965e-21)
(0.149811 -0.0323295 -3.97062e-21)
(0.194427 -0.131131 -2.94725e-20)
(0.235177 -0.226955 -3.84607e-21)
(0.267095 -0.311196 1.40897e-20)
(0.286337 -0.378823 1.42426e-21)
(0.289957 -0.428094 6.64907e-22)
(0.275401 -0.460367 2.85059e-21)
(0.24075 -0.47919 -3.88302e-21)
(0.188809 -0.48588 -3.64506e-21)
(0.13263 -0.473283 -1.90151e-21)
(0.095553 -0.424998 3.16809e-21)
(0.0978901 -0.327552 -4.89274e-21)
(0.137707 -0.188551 -2.59055e-22)
(0.195585 -0.0304881 1.16078e-21)
(0.257324 0.124269 -7.1996e-21)
(-0.0734924 0.125038 5.10084e-21)
(-0.0623968 0.155455 -8.07405e-21)
(-0.0476954 0.183017 1.98813e-21)
(-0.0294482 0.203862 7.75194e-21)
(-0.00705299 0.213414 3.68368e-21)
(0.0196383 0.206866 -5.69164e-23)
(0.0509983 0.17979 4.87678e-21)
(0.0870797 0.129404 -1.93317e-20)
(0.127745 0.0561673 1.38985e-20)
(0.172069 -0.0346848 -8.21097e-22)
(0.217137 -0.133265 1.7914e-20)
(0.257984 -0.228591 -7.67494e-21)
(0.289655 -0.312033 -6.42278e-21)
(0.308467 -0.378594 8.24282e-22)
(0.311675 -0.426522 -1.12239e-20)
(0.29686 -0.457165 6.93013e-21)
(0.261869 -0.47434 -3.34132e-21)
(0.208521 -0.480253 3.16813e-21)
(0.148524 -0.468995 -4.18812e-22)
(0.104774 -0.424639 -3.42662e-21)
(0.0994621 -0.332146 1.21123e-21)
(0.133918 -0.196522 -1.65788e-21)
(0.189301 -0.0395988 6.72896e-21)
(0.249939 0.115536 -4.71729e-21)
(-0.0600641 0.122289 9.22942e-21)
(-0.0479798 0.152385 8.96019e-21)
(-0.0322382 0.17973 1.34657e-22)
(-0.012879 0.200497 9.06275e-21)
(0.0106808 0.210103 3.05834e-21)
(0.0385547 0.203737 -1.05836e-20)
(0.0710338 0.176933 -1.90286e-21)
(0.108101 0.126832 8.00848e-21)
(0.149593 0.053809 1.73041e-20)
(0.194597 -0.0368895 -3.03136e-20)
(0.240105 -0.135219 1.08255e-20)
(0.281017 -0.230039 -7.81258e-21)
(0.312397 -0.312701 2.09767e-20)
(0.330733 -0.378239 -6.64273e-23)
(0.333498 -0.424891 7.99708e-21)
(0.318434 -0.453957 -5.72002e-21)
(0.28324 -0.469455 -2.86694e-21)
(0.228817 -0.474411 2.75513e-21)
(0.165454 -0.464211 -2.56909e-21)
(0.115362 -0.423559 6.62357e-21)
(0.102286 -0.336146 -3.75479e-21)
(0.130892 -0.204232 4.22603e-21)
(0.183439 -0.0487106 2.29534e-21)
(0.242828 0.106689 -2.72928e-21)
(-0.0462439 0.119351 7.27911e-21)
(-0.033189 0.149117 2.1083e-21)
(-0.0164205 0.176258 -5.58281e-21)
(0.00403592 0.19696 3.34693e-21)
(0.0287406 0.206648 4.80567e-21)
(0.057772 0.20051 5.98897e-21)
(0.0913415 0.174041 -7.25848e-21)
(0.129368 0.124299 1.57264e-20)
(0.171675 0.051554 -3.26409e-20)
(0.21736 -0.0389437 -7.31622e-22)
(0.2633 -0.136993 3.00245e-20)
(0.304248 -0.231298 -2.60625e-20)
(0.335292 -0.313196 -6.87167e-21)
(0.353109 -0.377758 -3.23554e-21)
(0.355393 -0.423202 2.89894e-21)
(0.340077 -0.450756 -1.15829e-21)
(0.304793 -0.464568 -4.57709e-21)
(0.249605 -0.468405 8.78046e-22)
(0.183334 -0.458975 4.62766e-21)
(0.127284 -0.421777 -3.928e-22)
(0.106413 -0.339508 -3.18835e-21)
(0.128702 -0.211626 -3.47302e-21)
(0.178032 -0.0577919 7.60405e-22)
(0.236 0.0977416 4.61634e-21)
(-0.0320556 0.116212 -5.36124e-21)
(-0.0180567 0.145664 -6.33363e-21)
(-0.000282834 0.172605 -7.58694e-21)
(0.0212493 0.193254 1.49707e-20)
(0.047075 0.203052 -9.55107e-21)
(0.077237 0.197187 1.53584e-20)
(0.111869 0.171116 -2.79346e-21)
(0.150836 0.121805 -1.07118e-20)
(0.193953 0.0494013 5.18793e-22)
(0.240326 -0.0408482 -2.26763e-20)
(0.286694 -0.138586 1.3852e-23)
(0.327648 -0.232364 2.22937e-20)
(0.358313 -0.313515 1.33065e-20)
(0.375566 -0.377148 -1.68152e-20)
(0.377333 -0.421455 -9.28472e-22)
(0.36175 -0.447571 1.31909e-21)
(0.326461 -0.459707 1.06575e-21)
(0.270795 -0.462284 -6.42548e-21)
(0.202075 -0.453338 3.56871e-21)
(0.140494 -0.419319 -1.2817e-21)
(0.111882 -0.342193 -1.8532e-21)
(0.127421 -0.21865 4.09547e-22)
(0.173121 -0.066807 -3.44397e-21)
(0.229468 0.0887095 -4.10085e-23)
(-0.0175181 0.112897 -2.67609e-20)
(-0.0026087 0.142039 3.10267e-20)
(0.0161373 0.168778 -2.16513e-20)
(0.0387171 0.189385 5.88732e-22)
(0.0656354 0.199318 1.24988e-20)
(0.0968991 0.19377 -8.77246e-21)
(0.132568 0.168158 -1.21963e-20)
(0.172458 0.119347 1.85884e-20)
(0.216388 0.0473482 8.92122e-21)
(0.263463 -0.0426047 -2.22178e-20)
(0.310257 -0.139998 1.37884e-20)
(0.351189 -0.233236 -4.51167e-22)
(0.381432 -0.313655 -3.3997e-21)
(0.398079 -0.376406 1.60057e-20)
(0.39929 -0.419649 8.23721e-21)
(0.383417 -0.44441 1.78708e-21)
(0.348183 -0.454898 -1.12003e-20)
(0.292296 -0.456097 4.20711e-21)
(0.22158 -0.447352 1.98116e-21)
(0.154935 -0.416215 -1.08034e-21)
(0.11872 -0.344173 1.98656e-21)
(0.127127 -0.22525 -1.33025e-22)
(0.168753 -0.0757169 -2.92529e-21)
(0.223252 0.0796098 1.87927e-21)
(-0.0026376 0.109446 -2.21866e-20)
(0.0131312 0.138249 1.63926e-20)
(0.0328075 0.164785 1.40366e-20)
(0.056399 0.185358 -1.07176e-20)
(0.0843766 0.195451 -2.81017e-20)
(0.116711 0.190261 1.82774e-20)
(0.153392 0.165168 -4.31916e-21)
(0.194193 0.116923 -1.79819e-20)
(0.238947 0.0453912 4.62148e-22)
(0.286742 -0.044216 7.86018e-21)
(0.333964 -0.141228 -1.12594e-21)
(0.374843 -0.233911 9.09642e-21)
(0.404619 -0.313613 8.50385e-21)
(0.420619 -0.37553 -1.74718e-20)
(0.421238 -0.417784 2.04227e-21)
(0.405046 -0.441276 1.87042e-21)
(0.369906 -0.450163 -8.20743e-22)
(0.314023 -0.449888 4.05385e-21)
(0.241753 -0.441074 3.70127e-21)
(0.170535 -0.412503 -4.25039e-21)
(0.126935 -0.345429 2.41666e-22)
(0.127896 -0.231373 5.75288e-22)
(0.164983 -0.0844789 4.64992e-21)
(0.217375 0.0704626 -1.96819e-21)
(0.0125866 0.105859 -1.4217e-20)
(0.0291477 0.134306 2.36204e-21)
(0.0497013 0.160634 -1.80319e-20)
(0.0742601 0.181182 3.30342e-20)
(0.103258 0.191455 -2.56034e-20)
(0.13663 0.186662 1.25283e-20)
(0.174298 0.162143 -3.12945e-20)
(0.216003 0.114531 5.96824e-20)
(0.261596 0.0435258 -4.45022e-20)
(0.310138 -0.0456853 2.87976e-20)
(0.357787 -0.142278 9.52228e-21)
(0.39858 -0.234387 -2.46046e-20)
(0.427846 -0.313387 -2.14256e-21)
(0.44316 -0.374516 -1.05476e-20)
(0.443153 -0.415855 8.1395e-21)
(0.426607 -0.438173 1.64008e-21)
(0.391578 -0.445522 -7.50835e-21)
(0.335895 -0.443703 3.95119e-21)
(0.262493 -0.434561 3.91412e-22)
(0.187215 -0.408225 -2.41425e-21)
(0.136521 -0.345956 2.55868e-22)
(0.129798 -0.236968 -1.77285e-21)
(0.161871 -0.0930475 7.3983e-22)
(0.211867 0.0612906 -9.84621e-22)
(0.0281649 0.102148 1.35707e-20)
(0.0454352 0.130223 -1.61025e-21)
(0.0668 0.156338 -6.53588e-21)
(0.0922716 0.176865 2.24819e-21)
(0.122244 0.187337 -3.46714e-21)
(0.156617 0.182976 5.53685e-21)
(0.195248 0.159083 -8.38244e-21)
(0.237855 0.112165 2.84249e-20)
(0.28431 0.0417466 5.00584e-21)
(0.333626 -0.0470166 1.42145e-20)
(0.381701 -0.143146 -3.75195e-20)
(0.422373 -0.234662 2.57639e-20)
(0.451084 -0.312974 3.33292e-21)
(0.465675 -0.373362 -5.66098e-21)
(0.465009 -0.413862 -7.89493e-21)
(0.448077 -0.4351 7.20828e-21)
(0.413157 -0.440988 -3.52709e-21)
(0.357835 -0.43758 2.92607e-22)
(0.283702 -0.427872 6.15113e-21)
(0.204887 -0.40343 -8.48269e-22)
(0.147457 -0.345757 -3.50778e-22)
(0.132899 -0.241989 4.7068e-21)
(0.159485 -0.101375 -5.2034e-22)
(0.206764 0.0521195 -9.98475e-23)
(0.0441202 0.0983313 -1.54776e-20)
(0.061999 0.126017 -8.71309e-22)
(0.0840937 0.151908 -7.9178e-21)
(0.110412 0.172416 2.92071e-20)
(0.141306 0.183102 -9.36256e-21)
(0.176639 0.179204 3.00654e-21)
(0.21621 0.155987 1.76325e-21)
(0.259718 0.109821 -5.58476e-20)
(0.307063 0.0400474 7.87906e-21)
(0.357184 -0.048214 3.84071e-20)
(0.40568 -0.143835 1.09621e-20)
(0.446192 -0.234735 -1.6952e-20)
(0.474303 -0.312371 -9.8764e-22)
(0.488136 -0.372066 -1.32461e-21)
(0.486784 -0.4118 2.3994e-21)
(0.46943 -0.432056 -9.27141e-21)
(0.434604 -0.436572 -1.25024e-20)
(0.37977 -0.431557 3.86937e-21)
(0.305281 -0.421064 -1.35762e-21)
(0.223457 -0.39817 -3.31501e-21)
(0.159705 -0.344846 1.90781e-21)
(0.137254 -0.246397 5.26975e-22)
(0.157896 -0.109412 8.11695e-22)
(0.202108 0.0429777 -9.42285e-22)
(0.0604897 0.0944339 1.63525e-20)
(0.0788567 0.121707 1.56443e-20)
(0.101584 0.147361 -2.00042e-20)
(0.12867 0.167846 1.99245e-20)
(0.160424 0.178758 -8.13424e-21)
(0.196672 0.175351 -4.7382e-21)
(0.237157 0.152853 3.67622e-20)
(0.28157 0.107494 -4.6944e-21)
(0.329837 0.0384215 -2.04158e-21)
(0.380793 -0.0492823 -6.62632e-21)
(0.4297 -0.144344 -1.64976e-20)
(0.470008 -0.234603 3.28275e-20)
(0.497474 -0.311577 -1.42995e-20)
(0.510518 -0.370626 1.38041e-20)
(0.508454 -0.409667 -2.37485e-20)
(0.490645 -0.429039 -8.26842e-21)
(0.455884 -0.432282 1.54545e-20)
(0.401636 -0.425664 -3.62819e-21)
(0.327134 -0.414192 -4.7017e-22)
(0.242826 -0.3925 3.03702e-21)
(0.173211 -0.343244 -2.26198e-21)
(0.142904 -0.250157 -2.40597e-22)
(0.157179 -0.117108 -1.04192e-21)
(0.197946 0.0338968 2.86333e-21)
(0.09604 0.117315 -2.2645e-20)
(0.119283 0.142713 -8.02863e-21)
(0.147045 0.163168 4.71226e-21)
(0.179586 0.174312 1.91929e-20)
(0.216697 0.171418 1.51076e-20)
(0.25807 0.149679 1.53338e-20)
(0.303394 0.105178 -3.58626e-20)
(0.352619 0.0368618 2.83577e-21)
(0.404439 -0.0502259 8.70698e-21)
(0.453739 -0.144674 2.77518e-21)
(0.493792 -0.234265 -1.07071e-20)
(0.520567 -0.310588 -5.01615e-21)
(0.532792 -0.369038 -1.42714e-20)
(0.529995 -0.40746 3.63771e-21)
(0.511702 -0.426045 6.04323e-21)
(0.476971 -0.428123 7.10661e-21)
(0.423373 -0.419931 -2.78572e-21)
(0.349169 -0.407312 -3.92562e-21)
(0.262892 -0.386481 1.61652e-21)
(0.18791 -0.340983 3.58985e-23)
(0.149874 -0.253245 -3.09903e-22)
(0.157409 -0.124416 2.71332e-21)
(0.194333 0.0249106 1.40626e-21)
(0.113596 0.112864 -2.01748e-21)
(0.137219 0.137984 4.73683e-21)
(0.165546 0.158396 -2.07819e-20)
(0.198791 0.169774 -1.36011e-21)
(0.236708 0.167411 2.74368e-20)
(0.27894 0.146463 -4.4432e-20)
(0.325182 0.102865 3.00531e-21)
(0.375402 0.035361 7.10741e-21)
(0.428109 -0.0510492 2.21235e-20)
(0.477774 -0.144825 -3.93804e-20)
(0.517514 -0.233718 3.9395e-21)
(0.543552 -0.309404 4.53494e-20)
(0.554932 -0.367303 -1.60947e-20)
(0.551384 -0.405177 2.88299e-21)
(0.532581 -0.42307 1.56914e-23)
(0.497838 -0.424095 -1.27052e-20)
(0.444928 -0.41438 9.01438e-21)
(0.371296 -0.400475 -5.56654e-21)
(0.283553 -0.380173 3.44656e-21)
(0.203726 -0.338099 -2.44937e-21)
(0.158174 -0.255646 -3.37061e-21)
(0.15866 -0.131288 5.95568e-22)
(0.191327 0.0160544 1.32473e-21)
(0.131589 0.108381 1.07589e-20)
(0.155436 0.133195 -9.69786e-21)
(0.184202 0.153548 9.4345e-21)
(0.218053 0.165155 5.96936e-21)
(0.256708 0.163333 8.50592e-21)
(0.299767 0.143205 -2.25941e-20)
(0.346934 0.100551 1.45847e-21)
(0.398186 0.033912 2.98527e-20)
(0.451795 -0.0517561 6.18502e-21)
(0.501784 -0.144797 8.2116e-21)
(0.541144 -0.232962 -3.30492e-20)
(0.566398 -0.308023 2.06036e-20)
(0.576911 -0.365418 -7.09173e-21)
(0.572598 -0.402814 2.14312e-21)
(0.553265 -0.420109 -1.64435e-20)
(0.518465 -0.420198 2.06338e-20)
(0.466254 -0.40903 -1.32833e-21)
(0.393433 -0.393728 -7.55013e-21)
(0.304705 -0.373639 4.33842e-21)
(0.220573 -0.334637 6.07125e-22)
(0.167793 -0.257353 4.98285e-22)
(0.161 -0.137681 -3.20066e-21)
(0.188993 0.00737477 -4.18273e-23)
(0.1501 0.103895 2.71243e-20)
(0.173995 0.12837 -1.08538e-20)
(0.203054 0.148641 -1.49523e-20)
(0.237399 0.160467 -8.06449e-22)
(0.276716 0.159191 2.34648e-20)
(0.320563 0.139903 -1.66757e-20)
(0.368663 0.0982297 2.98718e-20)
(0.42098 0.032508 -9.30254e-21)
(0.475493 -0.0523497 8.94234e-21)
(0.525748 -0.144588 -2.33448e-20)
(0.564653 -0.231993 -2.6e-21)
(0.589075 -0.306443 -3.26073e-20)
(0.598702 -0.363381 1.50802e-20)
(0.593615 -0.40037 -2.55381e-21)
(0.573735 -0.417158 -7.29042e-21)
(0.538835 -0.416429 1.18051e-20)
(0.48731 -0.403896 -7.89183e-21)
(0.415501 -0.387117 6.20382e-21)
(0.326247 -0.36694 -2.2047e-21)
(0.238357 -0.330646 -1.05434e-22)
(0.178705 -0.25837 -8.61667e-22)
(0.164489 -0.143555 -8.66539e-22)
(0.1874 -0.00105341 -1.30192e-21)
(0.169229 0.0994383 7.15779e-21)
(0.192975 0.123537 -1.75301e-20)
(0.222162 0.143697 2.23995e-20)
(0.256875 0.155724 -3.19521e-20)
(0.296764 0.154992 5.99177e-20)
(0.341356 0.136557 -6.24712e-20)
(0.390392 0.0958946 8.25401e-21)
(0.4438 0.0311432 -1.69763e-20)
(0.499202 -0.0528319 2.95861e-20)
(0.549644 -0.144197 -1.26809e-20)
(0.58801 -0.230809 5.13196e-20)
(0.611553 -0.304663 -3.69268e-20)
(0.62028 -0.361193 3.75854e-20)
(0.614414 -0.397842 -1.99622e-20)
(0.593975 -0.414211 5.4963e-21)
(0.558931 -0.412781 4.938e-21)
(0.508063 -0.398987 -9.27931e-21)
(0.437428 -0.380681 4.48197e-22)
(0.34808 -0.360138 5.53531e-21)
(0.256983 -0.326179 -7.56991e-22)
(0.190864 -0.258709 8.39616e-22)
(0.169178 -0.148878 -2.98424e-22)
(0.186619 -0.00926972 -7.58263e-22)
(0.189093 0.0950429 5.12297e-21)
(0.212477 0.118723 -5.20861e-20)
(0.24161 0.138737 2.87393e-21)
(0.276545 0.150943 -8.75298e-21)
(0.316906 0.150745 2.96982e-20)
(0.362191 0.133169 -3.43143e-20)
(0.412162 0.0935415 5.21769e-20)
(0.466675 0.029813 -3.23515e-20)
(0.522925 -0.0532032 -1.38716e-20)
(0.573453 -0.143621 4.318e-20)
(0.611185 -0.229409 -2.62507e-20)
(0.633804 -0.302683 1.68747e-20)
(0.641619 -0.358853 1.38674e-20)
(0.634972 -0.395229 8.84596e-21)
(0.613967 -0.411263 -2.05394e-20)
(0.578742 -0.409249 -7.58242e-21)
(0.528483 -0.39431 6.31019e-21)
(0.459146 -0.374455 1.51891e-21)
(0.370108 -0.353292 -2.55353e-21)
(0.276348 -0.321292 3.21058e-22)
(0.20421 -0.25839 -9.24655e-22)
(0.17509 -0.153626 8.85778e-22)
(0.186722 -0.017241 2.24263e-21)
(0.209823 0.0907432 -8.46329e-21)
(0.23262 0.11396 6.14267e-21)
(0.2615 0.133788 1.72662e-20)
(0.296497 0.146142 -1.07429e-20)
(0.337217 0.146459 -1.417e-20)
(0.383133 0.12974 -2.44862e-21)
(0.434028 0.091167 3.04344e-20)
(0.48964 0.0285147 2.43063e-21)
(0.546668 -0.0534621 -4.55591e-20)
(0.597152 -0.142855 3.27106e-20)
(0.634145 -0.227789 -5.12882e-21)
(0.655796 -0.300501 -2.26861e-20)
(0.662696 -0.35636 -7.46906e-21)
(0.65527 -0.392528 8.83669e-21)
(0.633696 -0.408309 6.75394e-22)
(0.598255 -0.405823 -7.75336e-21)
(0.548548 -0.389865 1.17469e-20)
(0.480597 -0.36847 -6.23431e-21)
(0.39224 -0.346459 5.2985e-21)
(0.296353 -0.316043 -1.23743e-21)
(0.21867 -0.257441 -5.70828e-22)
(0.182241 -0.15778 -2.06666e-22)
(0.187779 -0.0248491 -1.82496e-21)
(0.231568 0.0865734 2.13277e-20)
(0.253545 0.109279 -2.07425e-20)
(0.28196 0.128876 7.64112e-21)
(0.316846 0.141339 1.66411e-20)
(0.357796 0.142146 3.30063e-21)
(0.404271 0.126274 -4.84516e-21)
(0.456067 0.0887694 3.23475e-21)
(0.512746 0.0272481 -5.00539e-21)
(0.570438 -0.0536043 1.51802e-20)
(0.62072 -0.141896 2.21056e-20)
(0.656858 -0.225947 -3.23853e-20)
(0.677502 -0.298119 -4.87668e-21)
(0.683486 -0.353714 -1.33569e-20)
(0.675288 -0.389741 4.33199e-20)
(0.653144 -0.405348 -1.90996e-20)
(0.617461 -0.402498 5.13027e-21)
(0.56824 -0.385654 2.07168e-21)
(0.501728 -0.362754 -6.14533e-21)
(0.414388 -0.339695 -1.81362e-21)
(0.316897 -0.310495 7.73453e-22)
(0.234161 -0.255899 3.8042e-22)
(0.190624 -0.161329 -5.63988e-22)
(0.189856 -0.0320855 -1.75248e-21)
(0.254485 0.0825666 1.21502e-20)
(0.275411 0.104712 -1.3756e-20)
(0.303146 0.124028 1.66331e-20)
(0.337735 0.136559 2.86828e-20)
(0.378775 0.137821 -4.1914e-20)
(0.425724 0.122778 4.72253e-22)
(0.478377 0.0863519 9.5821e-21)
(0.536052 0.0260177 3.92909e-20)
(0.594245 -0.05362 -2.35988e-20)
(0.64413 -0.140733 -1.59643e-20)
(0.679292 -0.223881 -1.66453e-20)
(0.698893 -0.29554 2.88639e-20)
(0.703968 -0.350924 -2.24334e-20)
(0.695008 -0.386874 2.12459e-20)
(0.672298 -0.402384 -1.40673e-20)
(0.63635 -0.399274 -5.4531e-21)
(0.587545 -0.38168 1.91689e-21)
(0.52249 -0.357334 3.91259e-21)
(0.436468 -0.333058 -3.70308e-21)
(0.337882 -0.30471 1.19471e-21)
(0.250593 -0.253802 3.1351e-22)
(0.200209 -0.164274 -7.62743e-22)
(0.193007 -0.0389282 2.93698e-22)
(0.278739 0.0787541 -2.58484e-20)
(0.298397 0.10029 1.36033e-20)
(0.325239 0.119275 5.00155e-21)
(0.359342 0.131824 7.04642e-21)
(0.400322 0.133503 2.89182e-21)
(0.447644 0.119263 -4.32151e-20)
(0.501083 0.0839222 2.02488e-20)
(0.559629 0.0248355 1.77326e-20)
(0.618097 -0.0534979 1.85927e-20)
(0.667355 -0.139361 3.06574e-21)
(0.701413 -0.221592 -4.13779e-20)
(0.719942 -0.292767 2.97474e-20)
(0.72412 -0.347991 2.13766e-21)
(0.714412 -0.383924 -3.77742e-21)
(0.691143 -0.399409 -5.88485e-21)
(0.654914 -0.396134 1.07606e-20)
(0.606454 -0.377928 -3.67257e-21)
(0.542847 -0.352218 2.7141e-21)
(0.458405 -0.326586 -1.6053e-21)
(0.359214 -0.298741 2.2296e-23)
(0.267874 -0.251189 -1.39682e-22)
(0.210948 -0.166614 1.02859e-22)
(0.197271 -0.0453465 -2.38223e-22)
(0.304498 0.075162 -2.59047e-21)
(0.322697 0.0960389 2.70824e-20)
(0.34845 0.114636 1.52866e-21)
(0.381882 0.127149 1.51265e-20)
(0.422648 0.129195 -2.49012e-20)
(0.470225 0.115725 -9.48432e-21)
(0.52434 0.0814722 -1.33994e-20)
(0.58356 0.0237043 5.87164e-20)
(0.642001 -0.0532437 -4.21041e-20)
(0.690362 -0.137782 -1.22633e-20)
(0.723185 -0.219071 2.75962e-20)
(0.740622 -0.289777 -5.13041e-20)
(0.743923 -0.344871 1.53402e-20)
(0.733485 -0.380834 2.73625e-20)
(0.709665 -0.396355 -2.28131e-20)
(0.673146 -0.393008 7.72038e-21)
(0.624961 -0.374331 -1.50854e-22)
(0.562763 -0.347371 1.8645e-21)
(0.480126 -0.320287 -1.02465e-21)
(0.380801 -0.292618 -2.89032e-22)
(0.285909 -0.248083 -3.01405e-22)
(0.222775 -0.168346 4.33454e-22)
(0.202668 -0.0513064 -3.45582e-23)
(0.331928 0.0718081 -2.49727e-20)
(0.348522 0.0919717 -6.63368e-22)
(0.373021 0.110119 -8.10634e-22)
(0.405619 0.122531 -2.00905e-21)
(0.446016 0.124882 6.61291e-21)
(0.493709 0.112138 4.43402e-21)
(0.548332 0.0789721 1.05074e-20)
(0.607934 0.0225999 -1.0982e-20)
(0.665955 -0.0528622 -3.90603e-22)
(0.713116 -0.135987 -9.41352e-21)
(0.744576 -0.2163 -1.23584e-20)
(0.760912 -0.286539 3.88974e-20)
(0.76336 -0.341525 -2.66711e-20)
(0.752214 -0.377561 3.64456e-20)
(0.727853 -0.393183 -2.81956e-20)
(0.691038 -0.389859 1.16084e-20)
(0.643061 -0.37086 -3.49169e-21)
(0.58221 -0.342787 1.04998e-21)
(0.501562 -0.314201 6.30107e-22)
(0.402553 -0.286413 3.99422e-23)
(0.304604 -0.244554 1.6303e-22)
(0.235611 -0.169511 4.41058e-22)
(0.209192 -0.0568074 -3.0365e-22)
(0.376091 0.0881389 1.33474e-20)
(0.39923 0.1058 -1.80196e-20)
(0.430864 0.118067 -6.85707e-21)
(0.470749 0.120681 3.04422e-20)
(0.518392 0.108634 -2.38037e-20)
(0.573281 0.0765711 -1.47202e-20)
(0.63285 0.0216445 5.8877e-20)
(0.689955 -0.0521882 -4.60707e-20)
(0.735578 -0.13389 2.17755e-20)
(0.765554 -0.213299 -3.40927e-21)
(0.78079 -0.283184 -5.94877e-21)
(0.782418 -0.338186 4.11949e-20)