/*--------------------------------*- C++ -*----------------------------------*\
  =========                 |
  \\      /  F ield         | OpenFOAM: The Open Source CFD Toolbox
   \\    /   O peration     | Website:  https://openfoam.org
    \\  /    A nd           | Version:  7
     \\/     M anipulation  |
\*---------------------------------------------------------------------------*/
FoamFile
{
    version     2.0;
    format      ascii;
    class       surfaceScalarField;
    location    "60";
    object      phi;
}
// * * * * * * * * * * * * * * * * * * * * * * * * * * * * * * * * * * * * * //

dimensions      [0 3 -1 0 0 0 0];

internalField   nonuniform List<scalar> 
72657
(
-7.79409e-07
-4.26692e-06
5.04633e-06
-2.94439e-06
-1.16986e-05
1.38636e-05
-6.38563e-06
-1.83928e-05
2.18341e-05
-1.09921e-05
-2.43609e-05
2.89674e-05
-1.66528e-05
-2.96335e-05
3.52942e-05
-2.32588e-05
-3.4262e-05
4.08681e-05
-3.07059e-05
-3.83156e-05
4.57627e-05
-3.88969e-05
-4.18789e-05
5.00699e-05
-4.77448e-05
-4.50477e-05
5.38956e-05
-5.71759e-05
-4.79225e-05
5.73536e-05
-6.71332e-05
-5.0603e-05
6.05602e-05
-7.75798e-05
-5.31808e-05
6.36274e-05
-8.85025e-05
-5.57348e-05
6.66575e-05
-9.99148e-05
-5.83267e-05
6.97389e-05
-0.000111859
-6.09994e-05
7.29432e-05
-0.000124406
-6.37767e-05
7.63237e-05
-0.000137655
-6.66654e-05
7.99146e-05
-0.000151728
-6.9658e-05
8.37314e-05
-0.00016676
-7.27387e-05
8.77701e-05
-7.58633e-05
9.19949e-05
-0.000182891
-7.92228e-07
-3.47469e-06
-2.99004e-06
-9.5008e-06
-6.47997e-06
-1.49029e-05
-1.11473e-05
-1.96936e-05
-1.68777e-05
-2.39031e-05
-2.35595e-05
-2.75802e-05
-3.10861e-05
-3.0789e-05
-3.93583e-05
-3.36067e-05
-4.82877e-05
-3.61183e-05
-5.77992e-05
-3.8411e-05
-6.78349e-05
-4.05672e-05
-7.83573e-05
-4.26583e-05
-8.93529e-05
-4.47392e-05
-0.000100835
-4.68446e-05
-0.000112846
-4.89883e-05
-0.000125458
-5.11647e-05
-0.000138771
-5.33525e-05
-0.000152908
-5.55213e-05
-0.000168002
-5.76447e-05
-5.9671e-05
-0.000184194
-8.03085e-07
-2.67161e-06
-3.0284e-06
-7.27549e-06
-6.55855e-06
-1.13727e-05
-1.12751e-05
-1.4977e-05
-1.70605e-05
-1.81178e-05
-2.38001e-05
-2.08406e-05
-3.13844e-05
-2.32046e-05
-3.97121e-05
-2.5279e-05
-4.86924e-05
-2.71381e-05
-5.82483e-05
-2.88551e-05
-6.832e-05
-3.04955e-05
-7.88683e-05
-3.211e-05
-8.98781e-05
-3.37293e-05
-0.000101362
-3.5361e-05
-0.000113361
-3.69893e-05
-0.000125947
-3.8578e-05
-0.000139222
-4.00774e-05
-0.00015331
-4.14337e-05
-0.000168345
-4.26093e-05
-4.35468e-05
-0.00018447
-8.11956e-07
-1.85965e-06
-3.05938e-06
-5.02806e-06
-6.62117e-06
-7.81095e-06
-1.13753e-05
-1.02228e-05
-1.72009e-05
-1.22922e-05
-2.39801e-05
-1.40615e-05
-3.16005e-05
-1.55842e-05
-3.99579e-05
-1.69216e-05
-4.89587e-05
-1.81372e-05
-5.85232e-05
-1.92906e-05
-6.85888e-05
-2.043e-05
-7.91133e-05
-2.15854e-05
-9.00792e-05
-2.27635e-05
-0.000101496
-2.39441e-05
-0.000113404
-2.5081e-05
-0.000125875
-2.61069e-05
-0.000139011
-2.69419e-05
-0.000152937
-2.75072e-05
-0.000167793
-2.77536e-05
-2.76186e-05
-0.000183721
-8.18838e-07
-1.04081e-06
-3.08298e-06
-2.76392e-06
-6.66781e-06
-4.22612e-06
-1.14479e-05
-5.44272e-06
-1.72989e-05
-6.44124e-06
-2.40996e-05
-7.26073e-06
-3.17346e-05
-7.94922e-06
-4.00962e-05
-8.55997e-06
-4.90875e-05
-9.14593e-06
-5.86253e-05
-9.75292e-06
-6.8643e-05
-1.04123e-05
-7.90948e-05
-1.11337e-05
-8.99589e-05
-1.18993e-05
-0.000101242
-1.26613e-05
-0.000112981
-1.33421e-05
-0.000125246
-1.38415e-05
-0.00013814
-1.40476e-05
-0.000151793
-1.38543e-05
-0.000166348
-1.31987e-05
-1.20137e-05
-0.000181953
-8.23751e-07
-2.17063e-07
-3.09924e-06
-4.88435e-07
-6.69858e-06
-6.26773e-07
-1.1493e-05
-6.48311e-07
-1.73547e-05
-5.79534e-07
-2.41592e-05
-4.56229e-07
-3.17874e-05
-3.20999e-07
-4.01281e-05
-2.19297e-07
-4.90803e-05
-1.93677e-07
-5.85565e-05
-2.76725e-07
-6.84855e-05
-4.83281e-07
-7.88163e-05
-8.0289e-07
-8.95219e-05
-1.19372e-06
-0.000100604
-1.57939e-06
-0.000112096
-1.85039e-06
-0.000124065
-1.87165e-06
-0.000136617
-1.49632e-06
-0.000149883
-5.8781e-07
-0.000164015
9.33253e-07
3.13992e-06
-0.000179169
-8.26732e-07
6.09669e-07
-3.10828e-06
1.79311e-06
-6.71371e-06
2.97866e-06
-1.1511e-05
4.14897e-06
-1.7369e-05
5.27845e-06
-2.41596e-05
6.33444e-06
-3.17602e-05
7.27954e-06
-4.00553e-05
8.07578e-06
-4.89395e-05
8.69056e-06
-5.83202e-05
9.10396e-06
-6.81205e-05
9.317e-06
-7.8283e-05
9.35966e-06
-8.87743e-05
9.29759e-06
-9.95894e-05
9.2357e-06
-0.000110757
9.31679e-06
-0.000122341
9.71293e-06
-0.000134447
1.06094e-05
-0.000147213
1.21779e-05
-0.000160798
1.45189e-05
1.77134e-05
-0.000175372
-8.27835e-07
1.4375e-06
-3.11027e-06
4.07554e-06
-6.71352e-06
6.58191e-06
-1.15024e-05
8.93788e-06
-1.73425e-05
1.11185e-05
-2.41021e-05
1.3094e-05
-3.16544e-05
1.48319e-05
-3.98798e-05
1.63012e-05
-4.86679e-05
1.74786e-05
-5.792e-05
1.83561e-05
-6.75526e-05
1.89496e-05
-7.75009e-05
1.9308e-05
-8.77233e-05
1.952e-05
-9.82069e-05
1.97193e-05
-0.000108973
2.00829e-05
-0.000120083
2.08226e-05
-0.00013164
2.21664e-05
-0.000143789
2.43271e-05
-0.000156702
2.74324e-05
3.15759e-05
-0.000170565
-8.27124e-07
2.26463e-06
-3.10542e-06
6.35384e-06
-6.69843e-06
1.01749e-05
-1.1468e-05
1.37074e-05
-1.72762e-05
1.69268e-05
-2.39879e-05
1.98057e-05
-3.1472e-05
2.23161e-05
-3.96043e-05
2.44334e-05
-4.82686e-05
2.61429e-05
-5.736e-05
2.74475e-05
-6.67873e-05
2.83769e-05
-7.64767e-05
2.89974e-05
-8.63771e-05
2.94204e-05
-9.64657e-05
2.98079e-05
-0.000106755
3.03723e-05
-0.0001173
3.13679e-05
-0.000128204
3.30704e-05
-0.000139619
3.57414e-05
-0.00015173
3.95439e-05
4.45925e-05
-0.000164747
-8.2467e-07
3.0893e-06
-3.09395e-06
8.62312e-06
-6.66887e-06
1.37498e-05
-1.14083e-05
1.84469e-05
-1.71712e-05
2.26896e-05
-2.38184e-05
2.64529e-05
-3.12149e-05
2.97125e-05
-3.92311e-05
3.24496e-05
-4.77451e-05
3.4657e-05
-5.66447e-05
3.63471e-05
-6.58301e-05
3.75622e-05
-7.52174e-05
3.83847e-05
-8.47442e-05
3.89472e-05
-9.43758e-05
3.94394e-05
-0.000104114
4.01103e-05
-0.000114005
4.12594e-05
-0.000124151
4.32162e-05
-0.00013471
4.62997e-05
-0.000145885
5.07196e-05
5.6616e-05
-0.000157909
-8.20547e-07
3.90984e-06
-3.0761e-06
1.08787e-05
-6.6253e-06
1.7299e-05
-1.13242e-05
2.31457e-05
-1.70284e-05
2.83938e-05
-2.35951e-05
3.30196e-05
-3.08848e-05
3.70022e-05
-3.87627e-05
4.03276e-05
-4.71006e-05
4.29949e-05
-5.57783e-05
4.50248e-05
-6.46865e-05
4.64704e-05
-7.37299e-05
4.74282e-05
-8.28331e-05
4.80504e-05
-9.19473e-05
4.85536e-05
-0.000101061
4.92236e-05
-0.000110209
5.04082e-05
-0.00011949
5.24972e-05
-0.000129068
5.58777e-05
-0.000139169
6.08202e-05
6.75049e-05
-0.000150058
-8.14832e-07
4.72468e-06
-3.05211e-06
1.3116e-05
-6.56816e-06
2.08151e-05
-1.12163e-05
2.77938e-05
-1.68488e-05
3.40263e-05
-2.33192e-05
3.949e-05
-3.04834e-05
4.41665e-05
-3.82013e-05
4.80455e-05
-4.63378e-05
5.11313e-05
-5.47644e-05
5.34514e-05
-6.33613e-05
5.50672e-05
-7.20206e-05
5.60875e-05
-8.06518e-05
5.66816e-05
-8.91898e-05
5.70916e-05
-9.76061e-05
5.76398e-05
-0.000105923
5.87254e-05
-0.000114231
6.08051e-05
-0.000122701
6.4347e-05
-0.00013158
6.96997e-05
7.71016e-05
-0.000141177
-8.07597e-07
5.53227e-06
-3.02219e-06
1.53305e-05
-6.49787e-06
2.42907e-05
-1.10852e-05
3.23811e-05
-1.66332e-05
3.95744e-05
-2.29917e-05
4.58485e-05
-3.00121e-05
5.11868e-05
-3.75485e-05
5.55819e-05
-4.54589e-05
5.90417e-05
-5.36058e-05
6.15983e-05
-6.18582e-05
6.33196e-05
-7.00943e-05
6.43236e-05
-7.82069e-05
6.47942e-05
-8.61116e-05
6.49964e-05
-9.37602e-05
6.52884e-05
-0.000101158
6.61228e-05
-0.000108383
6.80304e-05
-0.000115611
7.15745e-05
-0.000123114
7.72035e-05
8.52354e-05
-0.000131248
-7.9891e-07
6.33118e-06
-2.98655e-06
1.75182e-05
-6.41476e-06
2.7719e-05
-1.09314e-05
3.68977e-05
-1.63823e-05
4.50254e-05
-2.26135e-05
5.20797e-05
-2.94716e-05
5.80449e-05
-3.68052e-05
6.29155e-05
-4.44649e-05
6.67014e-05
-5.2304e-05
6.94374e-05
-6.01795e-05
7.11951e-05
-6.79544e-05
7.20986e-05
-7.55029e-05
7.23427e-05
-8.27189e-05
7.22124e-05
-8.95304e-05
7.21e-05
-9.59202e-05
7.25126e-05
-0.000101952
7.40622e-05
-0.0001078
7.74229e-05
-0.000113765
8.3168e-05
9.17216e-05
-0.000120251
-7.88828e-07
7.12001e-06
-2.94534e-06
1.96747e-05
-6.31909e-06
3.10927e-05
-1.07552e-05
4.13338e-05
-1.60963e-05
5.03665e-05
-2.21845e-05
5.81679e-05
-2.8862e-05
6.47224e-05
-3.59713e-05
7.00248e-05
-4.33557e-05
7.40859e-05
-5.08588e-05
7.69406e-05
-5.83251e-05
7.86613e-05
-6.56014e-05
7.93748e-05
-7.25413e-05
7.92826e-05
-7.90144e-05
7.86855e-05
-8.4921e-05
7.80066e-05
-9.02162e-05
7.78078e-05
-9.49424e-05
7.87884e-05
-9.92694e-05
8.17499e-05
-0.000103522
8.74203e-05
9.636e-05
-0.00010816
-7.77395e-07
7.89741e-06
-2.89867e-06
2.1796e-05
-6.21101e-06
3.4405e-05
-1.05567e-05
4.56795e-05
-1.57752e-05
5.5585e-05
-2.17047e-05
6.40973e-05
-2.81825e-05
7.12002e-05
-3.50455e-05
7.68879e-05
-4.21294e-05
8.11697e-05
-4.92679e-05
8.4079e-05
-5.62923e-05
8.56857e-05
-6.30324e-05
8.61149e-05
-6.93198e-05
8.55701e-05
-7.49967e-05
8.43623e-05
-7.99314e-05
8.29413e-05
-8.40457e-05
8.19221e-05
-8.73533e-05
8.2096e-05
-9.00126e-05
8.44092e-05
-9.23709e-05
8.97786e-05
9.89323e-05
-9.49431e-05
-7.64642e-07
8.66205e-06
-2.8466e-06
2.38779e-05
-6.09055e-06
3.7649e-05
-1.03358e-05
4.99248e-05
-1.54186e-05
6.06678e-05
-2.11729e-05
6.98517e-05
-2.74315e-05
7.74588e-05
-3.40253e-05
8.34817e-05
-4.07824e-05
8.79268e-05
-4.75263e-05
9.0823e-05
-5.40751e-05
9.22345e-05
-6.02405e-05
9.22804e-05
-6.58309e-05
9.11605e-05
-7.06583e-05
8.91897e-05
-7.45549e-05
8.68379e-05
-7.74024e-05
8.47697e-05
-7.91777e-05
8.38712e-05
-8.0019e-05
8.52505e-05
-8.02927e-05
9.00522e-05
9.92015e-05
-8.05619e-05
-7.50578e-07
9.41263e-06
-2.78912e-06
2.59165e-05
-5.95757e-06
4.08174e-05
-1.00921e-05
5.40593e-05
-1.50254e-05
6.56011e-05
-2.05875e-05
7.54138e-05
-2.66063e-05
8.34776e-05
-3.29065e-05
8.97819e-05
-3.93086e-05
9.43289e-05
-4.56261e-05
9.71404e-05
-5.16633e-05
9.82717e-05
-5.72138e-05
9.78308e-05
-6.2061e-05
9.60077e-05
-6.59846e-05
9.31133e-05
-6.87764e-05
8.96297e-05
-7.02713e-05
8.62646e-05
-7.03997e-05
8.39995e-05
-6.92694e-05
8.41202e-05
-6.72597e-05
8.80426e-05
9.69144e-05
-6.49726e-05
-7.35202e-07
1.01478e-05
-2.72616e-06
2.79074e-05
-5.81179e-06
4.39031e-05
-9.82498e-06
5.80725e-05
-1.45945e-05
7.03706e-05
-1.99462e-05
8.07655e-05
-2.57028e-05
8.92342e-05
-3.16832e-05
9.57623e-05
-3.76999e-05
0.000100346
-4.35561e-05
0.000102997
-4.90427e-05
0.000103758
-5.39344e-05
0.000102722
-5.7989e-05
0.000100062
-6.09521e-05
9.60763e-05
-6.25707e-05
9.12483e-05
-6.2626e-05
8.632e-05
-6.09916e-05
8.23652e-05
-5.7733e-05
8.08616e-05
-5.32356e-05
8.35451e-05
9.18108e-05
-4.81319e-05
-7.18492e-07
1.08663e-05
-2.65758e-06
2.98465e-05
-5.65282e-06
4.68983e-05
-9.53337e-06
6.19531e-05
-1.41239e-05
7.49611e-05
-1.92457e-05
8.58872e-05
-2.47162e-05
9.47048e-05
-3.03479e-05
0.000101394
-3.59454e-05
0.000105943
-4.13017e-05
0.000108353
-4.61939e-05
0.000108651
-5.0378e-05
0.000106907
-5.35857e-05
0.00010327
-5.55267e-05
9.80173e-05
-5.59e-05
9.16216e-05
-5.44259e-05
8.48458e-05
-5.09099e-05
7.88492e-05
-4.53612e-05
7.53129e-05
-3.81712e-05
7.6355e-05
8.36535e-05
-3.00139e-05
-7.00417e-07
1.15667e-05
-2.58321e-06
3.17293e-05
-5.48012e-06
4.97952e-05
-9.21615e-06
6.56891e-05
-1.36115e-05
7.93564e-05
-1.84822e-05
9.0758e-05
-2.36403e-05
9.98628e-05
-2.88913e-05
0.000106645
-3.40318e-05
0.000111083
-3.88444e-05
0.000113166
-4.30925e-05
0.000112899
-4.65133e-05
0.000110327
-4.88125e-05
0.000105569
-4.96629e-05
9.88677e-05
-4.87124e-05
9.06711e-05
-4.56136e-05
8.17471e-05
-4.00909e-05
7.33265e-05
-3.2071e-05
6.7293e-05
-2.19658e-05
6.62498e-05
7.245e-05
-1.07623e-05
-6.80936e-07
1.22477e-05
-2.50281e-06
3.35512e-05
-5.29304e-06
5.25854e-05
-8.87191e-06
6.9268e-05
-1.30544e-05
8.3539e-05
-1.76512e-05
9.53548e-05
-2.24677e-05
0.000104679
-2.73024e-05
0.00011148
-3.19432e-05
0.000115724
-3.61622e-05
0.000117385
-3.97088e-05
0.000116445
-4.23017e-05
0.00011292
-4.36208e-05
0.000106888
-4.33019e-05
9.85487e-05
-4.094e-05
8.83092e-05
-3.61142e-05
7.69213e-05
-2.84547e-05
6.5667e-05
-1.7756e-05
5.65942e-05
-4.12862e-06
5.26224e-05
5.7933e-05
1.03884e-05
-6.60001e-07
1.29077e-05
-2.41614e-06
3.53073e-05
-5.09086e-06
5.52602e-05
-8.49904e-06
7.26762e-05
-1.24498e-05
8.74897e-05
-1.67474e-05
9.96523e-05
-2.11901e-05
0.000109122
-2.55686e-05
0.000115858
-2.96613e-05
0.000119817
-3.32292e-05
0.000120953
-3.60077e-05
0.000119224
-3.76971e-05
0.00011461
-3.79519e-05
0.000107143
-3.63714e-05
9.69683e-05
-3.24978e-05
8.44356e-05
-2.58326e-05
7.02561e-05
-1.59006e-05
5.57351e-05
-2.40582e-06
4.30994e-05
1.45537e-05
3.56629e-05
3.86761e-05
3.38106e-05
-6.37561e-07
1.35452e-05
-2.32292e-06
3.69927e-05
-4.87279e-06
5.781e-05
-8.0958e-06
7.58992e-05
-1.17943e-05
9.11883e-05
-1.57652e-05
0.000103623
-1.97986e-05
0.000113156
-2.36761e-05
0.000119736
-2.71659e-05
0.000123307
-3.00167e-05
0.000123804
-3.19495e-05
0.000121157
-3.26462e-05
0.000115306
-3.17366e-05
0.000106234
-2.8785e-05
9.40167e-05
-2.32816e-05
7.89321e-05
-1.46498e-05
6.16243e-05
-2.29751e-06
4.33828e-05
1.42304e-05
2.65715e-05
3.48938e-05
1.49995e-05
1.47736e-05
5.87963e-05
-6.13568e-07
1.41588e-05
-2.22288e-06
3.8602e-05
-4.63801e-06
6.02252e-05
-7.66037e-06
7.89215e-05
-1.10845e-05
9.46124e-05
-1.46985e-05
0.000107237
-1.82833e-05
0.00011674
-2.16099e-05
0.000123062
-2.44346e-05
0.000126131
-2.6493e-05
0.000125862
-2.74902e-05
0.000122154
-2.70895e-05
0.000114905
-2.48964e-05
0.000104041
-2.04425e-05
8.95628e-05
-1.31685e-05
7.16581e-05
-2.42178e-06
5.08776e-05
1.25075e-05
2.84535e-05
3.22417e-05
6.83731e-06
5.69291e-05
-9.68793e-06
-1.40458e-05
8.57485e-05
-5.87982e-07
1.47468e-05
-2.11573e-06
4.01298e-05
-4.38569e-06
6.24951e-05
-7.19089e-06
8.17267e-05
-1.03166e-05
9.77381e-05
-1.35411e-05
0.000110462
-1.66341e-05
0.000119833
-1.93542e-05
0.000125782
-2.14442e-05
0.000128221
-2.26242e-05
0.000127042
-2.25824e-05
0.000122112
-2.09619e-05
0.000113285
-1.73447e-05
0.000100423
-1.12313e-05
8.34493e-05
-2.01786e-06
6.24447e-05
1.10183e-05
3.78414e-05
2.8703e-05
1.07689e-05
5.18365e-05
-1.62963e-05
8.07903e-05
-3.86417e-05
-4.81297e-05
0.000114874
-5.60771e-07
1.53076e-05
-2.00124e-06
4.15702e-05
-4.11505e-06
6.46089e-05
-6.6855e-06
8.42972e-05
-9.48724e-06
0.00010054
-1.22866e-05
0.000113261
-1.48405e-05
0.000122387
-1.68928e-05
0.000127835
-1.81703e-05
0.000129499
-1.83753e-05
0.000127247
-1.71762e-05
0.000120913
-1.41946e-05
0.000110303
-8.9884e-06
9.52172e-05
-1.02882e-06
7.54898e-05
1.0327e-05
5.10889e-05
2.58628e-05
2.23056e-05
4.65094e-05
-9.87766e-06
7.32463e-05
-4.30332e-05
0.000106698
-7.20933e-05
-8.78215e-05
0.00014639
-5.31915e-07
1.58395e-05
-1.87918e-06
4.29175e-05
-3.82532e-06
6.65551e-05
-6.14238e-06
8.66142e-05
-8.59264e-06
0.00010299
-1.09287e-05
0.000115597
-1.2892e-05
0.00012435
-1.42094e-05
0.000129152
-1.45886e-05
0.000129878
-1.37107e-05
0.000126369
-1.12211e-05
0.000118423
-6.71714e-06
0.000105799
2.69109e-07
8.82309e-05
1.02943e-05
6.54646e-05
2.40344e-05
3.73488e-05
4.23225e-05
4.01749e-06
6.61766e-05
-3.37318e-05
9.67433e-05
-7.35998e-05
0.000134917
-0.000110267
-0.000133439
0.000180535
-5.01409e-07
1.63409e-05
-1.74937e-06
4.41655e-05
-3.51578e-06
6.83215e-05
-5.55978e-06
8.86582e-05
-7.62932e-06
0.00010506
-9.46103e-06
0.000117429
-1.07783e-05
0.000125668
-1.1288e-05
0.000129662
-1.06748e-05
0.000129265
-8.59493e-06
0.000124289
-4.66667e-06
0.000114495
1.54116e-06
9.95916e-05
1.05251e-05
7.92469e-05
2.28696e-05
5.31201e-05
3.92789e-05
2.09394e-05
6.06211e-05
-1.73247e-05
8.79777e-05
-6.10884e-05
0.000122635
-0.000108257
0.000165755
-0.000153388
-0.000185254
0.000217571
-4.69258e-07
1.68101e-05
-1.61164e-06
4.53078e-05
-3.18575e-06
6.98956e-05
-4.936e-06
9.04085e-05
-6.59385e-06
0.000106718
-7.87748e-06
0.000118712
-8.48944e-06
0.00012628
-8.11274e-06
0.000129285
-6.40549e-06
0.000127558
-2.99401e-06
0.000120878
2.53569e-06
0.000108965
1.06484e-05
9.14789e-05
2.18739e-05
6.80215e-05
3.68261e-05
3.8168e-05
5.62337e-05
1.53181e-06
8.09859e-05
-4.20769e-05
0.000112198
-9.23006e-05
0.000151252
-0.000147311
0.000199553
-0.000201689
-0.000243472
0.000257771
-4.35473e-07
1.72456e-05
-1.46583e-06
4.63382e-05
-2.83459e-06
7.12643e-05
-4.26935e-06
9.18433e-05
-5.48284e-06
0.000107931
-6.17207e-06
0.000119402
-6.01549e-06
0.000126123
-4.6686e-06
0.000127938
-1.75819e-06
0.000124647
3.1245e-06
0.000115995
1.04318e-05
0.000101658
2.06685e-05
8.12421e-05
3.44034e-05
5.42866e-05
5.22843e-05
2.0287e-05
7.50628e-05
-2.12467e-05
0.000103636
-7.06504e-05
0.000139122
-0.000127786
0.000182939
-0.000191128
0.000236676
-0.000255427
-0.000308213
0.000301417
-4.0007e-07
1.76457e-05
-1.31179e-06
4.72499e-05
-2.46161e-06
7.24142e-05
-3.55815e-06
9.29398e-05
-4.29291e-06
0.000108666
-4.33886e-06
0.000119448
-3.34694e-06
0.000125131
-9.41003e-07
0.000125532
3.28837e-06
0.000120418
9.79082e-06
0.000109493
1.90636e-05
9.23853e-05
3.16591e-05
6.86466e-05
4.81926e-05
3.77531e-05
6.93518e-05
-8.72111e-07
9.59126e-05
-4.78075e-05
0.000128771
-0.000103509
0.000169015
-0.00016803
0.000218027
-0.00024014
0.000277499
-0.000314899
-0.000379497
0.000348783
-3.63054e-07
1.80087e-05
-1.14934e-06
4.80362e-05
-2.06607e-06
7.33309e-05
-2.80059e-06
9.36743e-05
-3.02057e-06
0.000108886
-2.37188e-06
0.000118799
-4.74333e-07
0.000123234
3.08416e-06
0.000121974
8.75435e-06
0.000114748
1.70329e-05
0.000101214
2.84691e-05
8.0949e-05
4.36709e-05
5.34448e-05
6.33087e-05
1.81153e-05
8.81181e-05
-2.56815e-05
0.000118904
-7.85937e-05
0.000156558
-0.000141163
0.000202106
-0.000213578
0.000256819
-0.000294853
0.000322387
-0.000380468
-0.000457229
0.00040012
-3.24415e-07
1.83332e-05
-9.78205e-07
4.869e-05
-1.64708e-06
7.39998e-05
-1.99467e-06
9.40219e-05
-1.66206e-06
0.000108553
-2.64872e-07
0.000117402
2.61191e-06
0.000120357
7.42076e-06
0.000117165
1.4659e-05
0.00010751
2.48765e-05
9.09966e-05
3.86818e-05
6.71438e-05
5.67465e-05
3.53801e-05
7.98055e-05
-4.94366e-06
0.000108652
-5.4528e-05
0.000144128
-0.00011407
0.000187118
-0.000184153
0.000238572
-0.000265032
0.000299566
-0.000355847
0.000371677
-0.000452578
-0.000541187
0.000455635
-2.84113e-07
1.86173e-05
-7.98035e-07
4.92039e-05
-1.20356e-06
7.44053e-05
-1.13804e-06
9.39564e-05
-2.13171e-07
0.000107628
1.98885e-06
0.0001152
5.92178e-06
0.000116424
1.20828e-05
0.000111004
2.10212e-05
9.85712e-05
3.33456e-05
7.86721e-05
4.97311e-05
5.07583e-05
7.09209e-05
1.41903e-05
9.77231e-05
-3.17459e-05
0.000130998
-8.78033e-05
0.000171636
-0.000154708
0.000220524
-0.00023304
0.000278522
-0.00032303
0.000346447
-0.000423773
0.000425661
-0.000531792
-0.000630999
0.000515473
-2.42065e-07
1.88593e-05
-6.0832e-07
4.95702e-05
-7.34112e-07
7.45311e-05
-2.27914e-07
9.34502e-05
1.33083e-06
0.000106069
4.39678e-06
0.000112134
9.46604e-06
0.000111355
1.7085e-05
0.000103385
2.78595e-05
8.77967e-05
4.24631e-05
6.40685e-05
6.16431e-05
3.15783e-05
8.62211e-05
-1.03877e-05
0.000117087
-6.26115e-05
0.000155178
-0.000125894
0.000201443
-0.000200973
0.000256782
-0.00028838
0.000321977
-0.000388224
0.000397548
-0.000499343
0.000484565
-0.000618809
-0.000726121
0.000579687
-1.98131e-07
1.90575e-05
-4.08365e-07
4.97804e-05
-2.3699e-07
7.43597e-05
7.39044e-07
9.24742e-05
2.97559e-06
0.000103833
6.96732e-06
0.000108142
1.32565e-05
0.000105065
2.24428e-05
9.41985e-05
3.51933e-05
7.50462e-05
5.2251e-05
4.70107e-05
7.44405e-05
9.38886e-06
0.000102667
-3.86144e-05
0.000137908
-9.78519e-05
0.000181184
-0.000169171
0.000233516
-0.000253305
0.000295837
-0.000350701
0.000368864
-0.000461251
0.000452829
-0.000583309
0.000548478
-0.000714458
-0.000825924
0.000648281
-1.52098e-07
1.92096e-05
-1.97258e-07
4.98256e-05
2.89976e-07
7.38725e-05
1.76692e-06
9.09972e-05
4.72764e-06
0.000100872
9.71012e-06
0.00010316
1.73063e-05
9.74692e-05
2.81731e-05
8.33317e-05
4.30426e-05
6.01767e-05
6.27311e-05
2.73222e-05
8.81436e-05
-1.60236e-05
0.000120272
-7.07425e-05
0.000160181
-0.000137761
0.000208982
-0.000217972
0.000267777
-0.000312099
0.000337557
-0.000420481
0.000419026
-0.00054272
0.00051219
-0.000676473
0.000617234
-0.000819502
-0.000930095
0.000721405
-1.03677e-07
1.93132e-05
2.65499e-08
4.96953e-05
8.49477e-07
7.30496e-05
2.86054e-06
8.89861e-05
6.59461e-06
9.71382e-05
1.26362e-05
9.7118e-05
2.16303e-05
8.84751e-05
3.42944e-05
7.06676e-05
5.14288e-05
4.30423e-05
7.39253e-05
4.82573e-06
0.00010277
-4.48686e-05
0.00013904
-0.000107013
0.000183887
-0.000182608
0.000238506
-0.000272591
0.000304086
-0.000377679
0.000381715
-0.00049811
0.000472223
-0.000633228
0.000575709
-0.00077996
0.000690956
-0.000934748
-0.00103848
0.000799342
-5.25997e-08
1.93658e-05
2.63294e-07
4.93794e-05
1.44463e-06
7.18682e-05
4.02554e-06
8.64052e-05
8.58526e-06
9.25785e-05
1.57579e-05
8.99454e-05
2.62447e-05
7.79883e-05
4.08265e-05
5.60859e-05
6.0374e-05
2.34948e-05
8.5855e-05
-2.06552e-05
0.000118335
-7.73488e-05
0.000158971
-0.000147648
0.000208988
-0.000232625
0.000269653
-0.000333257
0.000342228
-0.000450254
0.000427916
-0.000583798
0.000527861
-0.000733172
0.000643163
-0.000895262
0.000772289
-0.00106387
-0.00114702
0.000880828
1.82922e-09
1.9364e-05
5.15777e-07
4.88655e-05
2.079e-06
7.0305e-05
5.26815e-06
8.32161e-05
1.07092e-05
8.71374e-05
1.90889e-05
8.15658e-05
3.11673e-05
6.59098e-05
4.77908e-05
3.94623e-05
6.99014e-05
1.38428e-06
9.85413e-05
-4.92952e-05
0.00013485
-0.000113658
0.000180052
-0.00019285
0.00023543
-0.000288003
0.000302288
-0.000400115
0.000381917
-0.000529883
0.000475577
-0.000677458
0.00058462
-0.000842215
0.000711051
-0.00102169
0.000860102
-0.00121293
-0.00136766
0.00108074
5.96855e-08
1.93043e-05
7.85833e-07
4.81393e-05
2.75734e-06
6.83335e-05
6.59618e-06
7.93772e-05
1.2978e-05
8.07556e-05
2.26445e-05
7.18992e-05
3.64174e-05
5.2137e-05
5.52097e-05
2.06701e-05
8.00339e-05
-2.344e-05
0.000112003
-8.12644e-05
0.000152322
-0.000153977
0.000202265
-0.000242793
0.000263142
-0.00034888
0.000336252
-0.000473224
0.000422835
-0.000616466
0.00052407
-0.000778692
0.000641198
-0.000959343
0.000776337
-0.00115683
0.000933015
-0.0013696
-0.00156729
0.00113265
1.22095e-07
1.91822e-05
1.07554e-06
4.71859e-05
3.48404e-06
6.5925e-05
8.01727e-06
7.4844e-05
1.5403e-05
7.33698e-05
2.64406e-05
6.08616e-05
4.20145e-05
3.6563e-05
6.31052e-05
-4.20597e-07
9.07934e-05
-5.11282e-05
0.000126256
-0.000116727
0.00017075
-0.000198471
0.000225579
-0.000297621
0.000292042
-0.000415343
0.000371374
-0.000552557
0.00046468
-0.000709773
0.000572902
-0.000886914
0.000696854
-0.0010833
0.000837804
-0.00129778
0.000996597
-0.0015284
-0.00175442
0.00118373
1.89511e-07
1.89927e-05
1.38732e-06
4.59881e-05
4.26419e-06
6.30481e-05
9.53987e-06
6.95683e-05
1.79966e-05
6.49131e-05
3.04933e-05
4.8365e-05
4.79784e-05
1.90779e-05
7.14987e-05
-2.39408e-05
0.000102199
-8.18285e-05
0.000141311
-0.000155839
0.000190126
-0.000247286
0.000249948
-0.000357443
0.000322025
-0.000487421
0.000407468
-0.000637999
0.000507157
-0.000809462
0.000621674
-0.00100143
0.000751242
-0.00121286
0.000896069
-0.00144261
0.00105523
-0.00168756
-0.00193215
0.00123296
2.6268e-07
1.873e-05
1.72374e-06
4.4527e-05
5.10311e-06
5.96688e-05
1.11727e-05
6.34987e-05
2.07714e-05
5.53144e-05
3.48189e-05
3.43174e-05
5.4328e-05
-4.31179e-07
8.04091e-05
-5.00219e-05
0.000114265
-0.000115684
0.000157169
-0.000198744
0.000210427
-0.000300543
0.000275309
-0.000422325
0.000352967
-0.000565078
0.000444323
-0.000729355
0.000549955
-0.000915095
0.000670002
-0.00112148
0.00080403
-0.00134689
0.000951229
-0.00158981
0.00110947
-0.0018458
-0.00210218
0.0012795
3.4238e-07
1.83877e-05
2.08749e-06
4.27819e-05
6.00623e-06
5.575e-05
1.29247e-05
5.65803e-05
2.37397e-05
4.44994e-05
3.94329e-05
1.86242e-05
6.10801e-05
-2.20784e-05
8.98515e-05
-7.87934e-05
0.000126999
-0.000152831
0.000173821
-0.000245567
0.000231613
-0.000358334
0.000301575
-0.000492287
0.00038471
-0.000648214
0.000481694
-0.000826339
0.000592736
-0.00102614
0.000717467
-0.00124621
0.000854799
-0.00148422
0.00100302
-0.00173803
0.00115917
-0.00200195
-0.0022652
0.0013222
4.2941e-07
1.79582e-05
2.48127e-06
4.07301e-05
6.97898e-06
5.12523e-05
1.48042e-05
4.87551e-05
2.69131e-05
3.23905e-05
4.43491e-05
1.18831e-06
6.82486e-05
-4.59779e-05
9.98359e-05
-0.000110381
0.000140399
-0.000193395
0.000191245
-0.000296412
0.000253625
-0.000420714
0.00032863
-0.000567293
0.000417065
-0.000736649
0.000519298
-0.000928572
0.000635116
-0.00114195
0.000763613
-0.00137471
0.000903075
-0.00162369
0.00105103
-0.00188598
0.00120402
-0.00215494
-0.00242125
0.00136006
5.24559e-07
1.74337e-05
2.90772e-06
3.83469e-05
8.02655e-06
4.61335e-05
1.68194e-05
3.99622e-05
3.03023e-05
1.89076e-05
4.9579e-05
-1.80885e-05
7.58434e-05
-7.22423e-05
0.000110365
-0.000144902
0.000154454
-0.000237484
0.0002094
-0.000351359
0.00027638
-0.000487693
0.00035633
-0.000647243
0.000449805
-0.000830124
0.000556813
-0.00103558
0.000676679
-0.00126182
0.000807952
-0.00150598
0.000948349
-0.00176408
0.00109481
-0.00203244
0.0012436
-0.00230374
-0.00257001
0.00139236
6.28594e-07
1.68051e-05
3.36937e-06
3.56061e-05
9.15377e-06
4.03491e-05
1.89775e-05
3.01385e-05
3.39159e-05
3.96922e-06
5.51314e-05
-3.9304e-05
8.38691e-05
-0.00010098
0.000121433
-0.000182466
0.000169138
-0.000285189
0.000228229
-0.00041045
0.00029977
-0.000559234
0.000384498
-0.000731972
0.000482666
-0.000928292
0.00059388
-0.00114679
0.000716979
-0.00138492
0.000849982
-0.00163898
0.000990118
-0.00190422
0.00113391
-0.00217623
0.00127756
-0.00244739
-0.00271107
0.00141862
7.42237e-07
1.60629e-05
3.86852e-06
3.24798e-05
1.03649e-05
3.38526e-05
2.12845e-05
1.92189e-05
3.77607e-05
-1.2507e-05
6.10109e-05
-6.25542e-05
9.2324e-05
-0.000132293
0.000133025
-0.000223167
0.000184411
-0.000336575
0.000247653
-0.000473691
0.00032366
-0.000635242
0.000412926
-0.000821238
0.000515354
-0.00103072
0.000630115
-0.00126155
0.000755555
-0.00151036
0.000889209
-0.00177263
0.00102791
-0.00204292
0.00116795
-0.00231626
0.00130562
-0.00258506
-0.00284404
0.00143858
8.66144e-07
1.51967e-05
4.40721e-06
2.89388e-05
1.16637e-05
2.65962e-05
2.3745e-05
7.13764e-06
4.18407e-05
-3.06028e-05
6.72179e-05
-8.79314e-05
0.000101199
-0.000166274
0.000145115
-0.000267082
0.000200218
-0.000391679
0.000267572
-0.000541045
0.000347892
-0.000715561
0.000441378
-0.000914724
0.000547548
-0.00113689
0.000665116
-0.00137912
0.000791953
-0.0016372
0.00092517
-0.00190585
0.00106133
-0.00217908
0.00119663
-0.00245157
0.00132763
-0.00271605
-0.00296863
0.00145223
1.00089e-06
1.41958e-05
4.98714e-06
2.49525e-05
1.30527e-05
1.85306e-05
2.6362e-05
-6.17163e-06
4.61571e-05
-5.03979e-05
7.37478e-05
-0.000115522
0.000110478
-0.000203005
0.000157664
-0.000314268
0.000216488
-0.000450503
0.000287867
-0.000612424
0.00037228
-0.000799974
0.000469593
-0.00101204
0.000578908
-0.0012462
0.000698478
-0.00149869
0.000825738
-0.00176446
0.000957456
-0.00203757
0.00109004
-0.00231166
0.00121978
-0.00258131
0.00134358
-0.00283985
-0.00308474
0.00145969
1.14696e-06
1.30489e-05
5.60962e-06
2.04899e-05
1.45338e-05
9.60643e-06
2.91365e-05
-2.07743e-05
5.07074e-05
-7.19689e-05
8.05903e-05
-0.000145405
0.000120136
-0.000242551
0.000170623
-0.000364755
0.000233133
-0.000513013
0.000308398
-0.000687689
0.000396619
-0.000888195
0.000497292
-0.00111271
0.000609087
-0.001358
0.00072981
-0.00161942
0.000856513
-0.00189116
0.000985725
-0.00216678
0.00111383
-0.00243976
0.00123733
-0.00270481
0.00135359
-0.00295611
-0.00319239
0.00146124
1.30473e-06
1.17441e-05
6.2755e-06
1.55191e-05
1.61078e-05
-2.25919e-07
3.20676e-05
-3.6734e-05
5.54859e-05
-9.53872e-05
8.77296e-05
-0.000177649
0.000130139
-0.000284961
0.00018393
-0.000418545
0.00025005
-0.000579133
0.000329008
-0.000766646
0.000420687
-0.000979874
0.000524188
-0.00121621
0.000637742
-0.00147155
0.000758744
-0.00174042
0.000883936
-0.00201635
0.00100972
-0.00229257
0.00113257
-0.00256262
0.00124934
-0.00282158
0.00135787
-0.00306465
-0.00329177
0.00145726
1.47445e-06
1.02697e-05
6.98519e-06
1.00084e-05
1.77743e-05
-1.10151e-05
3.5152e-05
-5.41116e-05
6.04829e-05
-0.000120718
9.51438e-05
-0.00021231
0.000140445
-0.000330262
0.000197512
-0.000475612
0.000267122
-0.000648743
0.000349523
-0.000849048
0.000444249