/*--------------------------------*- C++ -*----------------------------------*\
  =========                 |
  \\      /  F ield         | OpenFOAM: The Open Source CFD Toolbox
   \\    /   O peration     | Website:  https://openfoam.org
    \\  /    A nd           | Version:  7
     \\/     M anipulation  |
\*---------------------------------------------------------------------------*/
FoamFile
{
    version     2.0;
    format      ascii;
    class       volVectorField;
    location    "60";
    object      U;
}
// * * * * * * * * * * * * * * * * * * * * * * * * * * * * * * * * * * * * * //

dimensions      [0 1 -1 0 0 0 0];

internalField   nonuniform List<vector> 
36600
(
(-0.000190542 -0.00269684 -7.09776e-22)
(-0.00141912 -0.00714564 -3.70454e-21)
(-0.00403332 -0.0108602 4.48582e-22)
(-0.00755091 -0.0139043 6.64162e-22)
(-0.0117908 -0.0163503 1.16543e-21)
(-0.0165819 -0.0182746 -8.49472e-21)
(-0.0217623 -0.0197558 1.443e-21)
(-0.0271943 -0.0208721 -5.62147e-21)
(-0.0327618 -0.0216991 -1.19604e-20)
(-0.0383702 -0.0223069 1.01133e-20)
(-0.0439465 -0.0227578 2.97491e-21)
(-0.0494392 -0.0231045 -3.53085e-21)
(-0.0548173 -0.023389 4.29093e-21)
(-0.0600704 -0.0236428 5.81118e-21)
(-0.0652064 -0.023887 -3.63382e-21)
(-0.0702493 -0.0241338 -4.85505e-21)
(-0.0752367 -0.0243881 -1.15282e-20)
(-0.080226 -0.0246489 -8.84593e-22)
(-0.0852331 -0.0249108 -1.9206e-21)
(-0.090206 -0.0251595 -3.7671e-21)
(-0.000154848 -0.00224566 -3.46342e-21)
(-0.00133845 -0.00595632 2.81417e-21)
(-0.00393727 -0.00907568 -3.26601e-21)
(-0.00745877 -0.0116493 -1.28323e-20)
(-0.0117169 -0.0137365 5.88164e-21)
(-0.0165362 -0.015401 3.53649e-20)
(-0.0217509 -0.0167082 -2.15541e-20)
(-0.0272203 -0.0177233 3.63137e-21)
(-0.0328258 -0.0185091 1.72147e-20)
(-0.0384708 -0.0191228 -1.13571e-23)
(-0.0440811 -0.0196143 9.98429e-21)
(-0.049604 -0.0200243 -1.30991e-20)
(-0.0550083 -0.0203831 1.35754e-20)
(-0.0602833 -0.0207112 -1.15799e-20)
(-0.0654373 -0.0210199 -4.44939e-21)
(-0.0704949 -0.0213133 2.21942e-20)
(-0.0754945 -0.02159 -6.87485e-21)
(-0.0804946 -0.0218461 1.06097e-21)
(-0.0855109 -0.0220765 -1.26796e-20)
(-0.0904876 -0.022267 -1.35366e-21)
(-0.000136713 -0.00178742 -2.67921e-20)
(-0.00130212 -0.00475006 3.38232e-21)
(-0.00390378 -0.00726795 5.13454e-21)
(-0.00744045 -0.00936741 3.23969e-20)
(-0.0117218 -0.0110946 -2.57069e-20)
(-0.0165685 -0.0124997 -3.96228e-20)
(-0.0218116 -0.0136344 3.56959e-20)
(-0.0273077 -0.0145508 -9.64849e-21)
(-0.032936 -0.0152982 -4.81002e-21)
(-0.0385983 -0.0159212 -2.40221e-20)
(-0.044219 -0.0164568 6.48538e-21)
(-0.0497448 -0.0169333 2.30958e-20)
(-0.055144 -0.0173695 -4.70901e-21)
(-0.060406 -0.0177746 1.85486e-20)
(-0.0655397 -0.0181501 -1.51418e-20)
(-0.0705706 -0.0184915 -4.56958e-21)
(-0.0755384 -0.0187916 3.52957e-20)
(-0.0805042 -0.0190431 -2.17272e-21)
(-0.0854836 -0.0192417 5.41752e-20)
(-0.0904149 -0.0193734 -1.27757e-20)
(-0.000136445 -0.00132378 4.38095e-20)
(-0.00131085 -0.00353109 -1.90471e-20)
(-0.00393375 -0.00544314 -1.31204e-20)
(-0.00749691 -0.00706648 -3.02002e-20)
(-0.0118063 -0.00843349 1.80762e-20)
(-0.0166796 -0.00958043 -3.34804e-21)
(-0.0219451 -0.0105451 -5.9619e-20)
(-0.027457 -0.0113658 -6.23681e-21)
(-0.0330928 -0.0120786 -1.28198e-20)
(-0.0387529 -0.0127146 -1.97873e-21)
(-0.0443605 -0.0132984 -2.19545e-20)
(-0.0498617 -0.0138455 2.45775e-20)
(-0.0552246 -0.0143628 -3.60107e-20)
(-0.0604386 -0.0148484 -1.08753e-21)
(-0.0655134 -0.0152935 9.62372e-21)
(-0.0704759 -0.0156851 -7.3805e-20)
(-0.075368 -0.0160092 -5.88588e-20)
(-0.080254 -0.0162558 3.15581e-20)
(-0.0851503 -0.016421 -4.19741e-20)
(-0.0899875 -0.0164911 1.08585e-21)
(-0.000154259 -0.000856415 -5.86487e-21)
(-0.00136511 -0.00230365 7.52002e-20)
(-0.0040278 -0.00360749 3.48554e-20)
(-0.00762878 -0.00475423 -1.49893e-21)
(-0.0119712 -0.00576212 9.18415e-21)
(-0.0168701 -0.00665314 1.41191e-21)
(-0.0221517 -0.00745086 3.04948e-20)
(-0.0276684 -0.00817965 3.56976e-20)
(-0.0332963 -0.00886193 1.50005e-20)
(-0.0389346 -0.00951565 5.25525e-20)
(-0.0445056 -0.0101521 -5.98289e-20)
(-0.0499547 -0.0107746 -1.25047e-20)
(-0.0552498 -0.0113777 2.60099e-20)
(-0.0603807 -0.011948 -4.47602e-20)
(-0.065358 -0.0124662 2.01999e-20)
(-0.0702103 -0.0129102 4.63919e-20)
(-0.0749821 -0.0132593 1.10969e-20)
(-0.0797425 -0.0135 1.55553e-20)
(-0.0845095 -0.0136286 -2.47089e-20)
(-0.0892036 -0.0136319 2.70932e-21)
(-0.000190271 -0.000386992 -2.85486e-20)
(-0.00146515 -0.00107202 1.76655e-20)
(-0.00418624 -0.00176723 -2.85634e-20)
(-0.00783635 -0.00243841 2.60997e-20)
(-0.0122165 -0.0030894 2.26767e-20)
(-0.0171401 -0.00372763 1.02682e-20)
(-0.0224315 -0.00436223 1.91107e-20)
(-0.027942 -0.00500346 -1.33001e-20)
(-0.0335464 -0.00566002 -8.11223e-20)
(-0.0391432 -0.00633646 -7.17583e-20)
(-0.0446539 -0.00703107 -4.60847e-20)
(-0.0500233 -0.00773436 1.72928e-20)
(-0.0552191 -0.00842862 -9.77203e-21)
(-0.0602316 -0.00908867 7.36369e-20)
(-0.0650724 -0.00968421 -2.62159e-20)
(-0.0697723 -0.0101835 2.11488e-20)
(-0.0743789 -0.0105584 3.04881e-20)
(-0.0789673 -0.0107914 -1.69679e-20)
(-0.0835579 -0.0108791 1.46045e-19)
(-0.0880596 -0.0108077 -5.44346e-20)
(-0.000244504 8.28325e-05 3.4608e-20)
(-0.001611 0.000159582 -4.23802e-20)
(-0.00440906 7.14344e-05 -6.42039e-20)
(-0.00811955 -0.000126742 -1.63767e-20)
(-0.0125422 -0.000424177 7.29741e-21)
(-0.0174892 -0.000813637 1.11391e-20)
(-0.022784 -0.00128962 3.68809e-20)
(-0.028277 -0.00184823 8.06053e-21)
(-0.0338425 -0.00248436 2.75181e-21)
(-0.039378 -0.00318914 1.28831e-19)
(-0.0448046 -0.00394777 9.5767e-20)
(-0.0500667 -0.00473801 -5.67426e-20)
(-0.0551318 -0.00552962 -8.28504e-21)
(-0.0599903 -0.0062853 -2.21106e-20)
(-0.0646553 -0.00696325 2.15999e-20)
(-0.0691599 -0.00752139 -1.12996e-19)
(-0.0735555 -0.00792306 -2.33114e-20)
(-0.0779246 -0.00814631 -3.46878e-20)
(-0.082291 -0.00818694 -8.2983e-20)
(-0.0865503 -0.0080303 4.50371e-20)
(-0.000316887 0.000551434 5.75356e-21)
(-0.00180247 0.00138698 -2.05906e-20)
(-0.00469595 0.0019024 5.79103e-20)
(-0.00847794 0.00217319 -2.16673e-20)
(-0.0129476 0.00222482 -1.9502e-20)
(-0.0179167 0.00207928 3.07164e-20)
(-0.0232083 0.00175674 -5.16069e-20)
(-0.0286726 0.0012753 -7.01529e-21)
(-0.0341834 0.000653827 9.5798e-20)
(-0.0396379 -8.54131e-05 -6.06454e-20)
(-0.0449567 -0.000914579 -2.46936e-20)
(-0.0500837 -0.00179859 2.8884e-20)
(-0.0549862 -0.00269457 -7.54095e-21)
(-0.0596551 -0.00355272 -3.8737e-21)
(-0.0641045 -0.0043191 3.14926e-20)
(-0.0683702 -0.00494032 -8.2676e-20)
(-0.0725081 -0.00537022 2.86638e-20)
(-0.0766091 -0.0055811 -2.14663e-20)
(-0.0807022 -0.00556714 -4.76446e-20)
(-0.0846679 -0.0053113 1.71695e-20)
(-0.000407259 0.00101723 -1.6173e-20)
(-0.00203911 0.00260609 1.13244e-19)
(-0.00504628 0.00371966 -2.4914e-20)
(-0.00891071 0.00445392 -2.95513e-20)
(-0.0134318 0.00484902 7.0499e-20)
(-0.0184214 0.00494173 -7.26724e-20)
(-0.0237032 0.00476686 -3.53636e-20)
(-0.0291273 0.00435664 -6.09435e-20)
(-0.0345675 0.00374363 -6.60797e-20)
(-0.0399211 0.00296335 -4.31176e-20)
(-0.0451081 0.00205662 -5.77198e-20)
(-0.0500722 0.00107131 1.04034e-19)
(-0.0547804 6.30949e-05 -1.14459e-20)
(-0.0592235 -0.000905351 -2.37334e-20)
(-0.063417 -0.00176725 -1.22867e-19)
(-0.0673992 -0.00245682 6.82647e-20)
(-0.0712313 -0.00291692 1.6848e-20)
(-0.0750139 -0.00311264 4.16826e-20)
(-0.0787828 -0.00303508 2.7939e-20)
(-0.0824012 -0.00266244 -7.44181e-20)
(-0.000515373 0.00147868 -5.01139e-20)
(-0.00232029 0.00381296 6.59422e-20)
(-0.00545908 0.00551739 3.68333e-20)
(-0.00941659 0.00670816 1.65747e-20)
(-0.0139931 0.00744007 6.27111e-20)
(-0.0190016 0.00776458 -4.86325e-20)
(-0.0242665 0.00773103 1.04346e-19)
(-0.0296387 0.00738564 5.82885e-21)
(-0.0349925 0.00677451 9.47535e-20)
(-0.040225 0.00594625 -5.46926e-20)
(-0.0452563 0.00495443 8.73272e-20)
(-0.0500295 0.00385966 -8.55756e-20)
(-0.0545111 0.0027305 -7.63752e-20)
(-0.0586919 0.00164284 6.45155e-20)
(-0.0625885 0.000677103 2.26549e-19)
(-0.0662418 -8.72891e-05 -1.23755e-19)
(-0.0697183 -0.000580436 1.00809e-19)
(-0.0731302 -0.000758292 2.29602e-20)
(-0.0765212 -0.000606888 -8.5463e-20)
(-0.0797351 -9.73362e-05 7.13557e-20)
(-0.000640898 0.00193433 9.09399e-20)
(-0.00264512 0.00500374 -5.07603e-20)
(-0.00593307 0.00728989 1.69719e-20)
(-0.00999391 0.00892884 6.36507e-20)
(-0.0146297 0.00998985 -4.87302e-20)
(-0.019655 0.0105389 1.13145e-19)
(-0.0248956 0.0106398 -2.03887e-20)
(-0.030204 0.0103525 2.54011e-21)
(-0.035455 0.00973642 -1.30861e-19)
(-0.0405461 0.00885289 8.20295e-20)
(-0.0453975 0.00776807 1.86898e-20)
(-0.0499515 0.0065551 -2.43427e-20)
(-0.054174 0.00529542 3.03604e-20)
(-0.0580556 0.00407852 -1.18941e-19)
(-0.0616133 0.00299924 -6.57381e-20)
(-0.0648909 0.0021521 1.37026e-19)
(-0.0679603 0.00162185 -7.58316e-20)
(-0.0709466 0.00146413 -1.07253e-19)
(-0.0739041 0.00170064 1.97219e-19)
(-0.0766553 0.00237036 -3.42991e-22)
(-0.000783426 0.00238275 7.59968e-20)
(-0.00301253 0.00617472 -9.30918e-20)
(-0.00646659 0.00903169 -9.64626e-20)
(-0.0106406 0.0111091 -4.56765e-20)
(-0.0153389 0.0124905 -3.16653e-20)
(-0.0203784 0.0132562 -3.67836e-20)
(-0.0255872 0.0134842 -1.53932e-19)
(-0.0308193 0.013248 1.87992e-20)
(-0.0359508 0.0126198 -6.42112e-20)
(-0.04088 0.0116735 2.2301e-19)
(-0.0455267 0.0104875 -1.28473e-19)
(-0.0498329 0.00914703 7.82805e-20)
(-0.0537634 0.00774649 -2.37251e-20)
(-0.0573081 0.00638916 1.29277e-19)
(-0.0604842 0.00518512 1.05179e-20)
(-0.0633378 0.00424557 -1.0883e-19)
(-0.0659464 0.00367254 -1.9289e-20)
(-0.0684494 0.00353639 4.7485e-21)
(-0.0709139 0.00387011 -8.23994e-21)
(-0.0731389 0.00472828 1.32511e-19)
(-0.000942473 0.00282259 -9.46964e-20)
(-0.00342121 0.00732236 -8.87375e-20)
(-0.0070577 0.0107375 3.6605e-20)
(-0.011354 0.0132423 9.0682e-20)
(-0.0161175 0.0149344 -7.51967e-21)
(-0.0211682 0.0159082 -6.13789e-20)
(-0.0263369 0.0162555 1.35467e-19)
(-0.0314798 0.016063 -1.50722e-20)
(-0.0364747 0.0154155 1.61794e-19)
(-0.0412207 0.014399 -1.78481e-19)
(-0.0456377 0.0131033 4.66764e-20)
(-0.0496668 0.0116258 5.47233e-20)
(-0.0532718 0.0100733 -1.64511e-21)
(-0.0564411 0.00856326 -8.95003e-22)
(-0.0591916 0.00722164 -1.01317e-19)
(-0.0615711 0.00617799 1.37005e-20)
(-0.0636628 0.00555446 1.33083e-19)
(-0.0656213 0.00543984 1.69457e-19)
(-0.0675293 0.00588307 -1.99245e-19)
(-0.0691589 0.00696114 -1.27451e-19)
(-0.00111749 0.00325258 3.95426e-20)
(-0.00386967 0.00844322 5.93355e-20)
(-0.00770407 0.0124022 7.14025e-20)
(-0.0121311 0.015322 -1.19817e-19)
(-0.0169618 0.0173142 1.16533e-19)
(-0.0220199 0.0184869 1.1777e-19)
(-0.0271395 0.0189454 -4.56855e-20)
(-0.0321796 0.0187893 1.9785e-19)
(-0.03702 0.0181153 -1.98678e-19)
(-0.0415608 0.0170209 8.72858e-20)
(-0.0457221 0.0156072 8.80937e-20)
(-0.0494442 0.0139828 -6.83641e-21)
(-0.0526892 0.0122669 1.06821e-21)
(-0.0554436 0.0105906 1.12498e-20)
(-0.0577232 0.00909694 -7.92388e-20)
(-0.0595768 0.00793528 7.76991e-20)
(-0.0610926 0.00725097 -3.96856e-20)
(-0.0624415 0.00715571 -8.81988e-20)
(-0.0637252 0.00772005 1.12812e-19)
(-0.0646832 0.00905218 2.34954e-20)
(-0.00130785 0.00367149 -2.28345e-20)
(-0.00435619 0.00953405 2.78716e-20)
(-0.00840305 0.0140208 -5.97417e-20)
(-0.0129683 0.0173421 -8.83246e-20)
(-0.0178674 0.0196229 -7.76787e-20)
(-0.0229282 0.0209847 -8.06559e-20)
(-0.0279888 0.0215461 1.30026e-19)
(-0.0329115 0.0214187 -6.54879e-20)
(-0.0375785 0.0207112 5.17421e-20)
(-0.0418912 0.0195316 5.56633e-21)
(-0.0457699 0.0179917 -1.37961e-20)
(-0.0491539 0.0162107 3.40753e-20)
(-0.0520033 0.0143193 -6.59143e-20)
(-0.0543021 0.0124627 3.42467e-20)
(-0.0560637 0.0108008 1.09118e-19)
(-0.0573372 0.00950479 -1.57833e-19)
(-0.0582151 0.00874642 -9.99024e-20)
(-0.0588851 0.00866545 1.29966e-19)
(-0.0594714 0.00936094 -7.54789e-20)
(-0.0596739 0.0109835 -1.16155e-19)
(-0.00151286 0.00407817 8.38282e-20)
(-0.00487885 0.0105917 -8.36092e-20)
(-0.00915159 0.0155888 6.72593e-20)
(-0.0138615 0.0192967 1.06851e-19)
(-0.018829 0.0218536 -1.89477e-20)
(-0.0238868 0.0233944 -6.8976e-20)
(-0.0288774 0.0240499 -1.27915e-19)
(-0.0336669 0.023944 -9.63941e-20)
(-0.0381402 0.023196 -1.92022e-19)
(-0.0422006 0.0219245 1.92504e-20)
(-0.0457684 0.0202506 -1.67343e-20)
(-0.0487819 0.0183034 -1.32426e-19)
(-0.0511986 0.0162247 1.13449e-19)
(-0.0529991 0.0141728 1.37738e-19)
(-0.0541938 0.0123252 -6.8679e-21)
(-0.0548306 0.0108759 8.26179e-20)
(-0.0550049 0.0100268 -4.1386e-20)
(-0.0549219 0.00995143 6.51824e-21)
(-0.0547328 0.0107854 1.13736e-19)
(-0.0540869 0.0127358 2.71851e-19)
(-0.00173177 0.00447152 -3.65282e-20)
(-0.00543552 0.0116132 -2.48137e-20)
(-0.00994631 0.0171015 6.92117e-20)
(-0.0148062 0.0211801 -9.55426e-20)
(-0.0198408 0.024 -5.36372e-20)
(-0.0248884 0.0257087 9.37917e-20)
(-0.0297966 0.0264497 -3.38984e-20)
(-0.0344355 0.0263579 -9.71878e-20)
(-0.0386935 0.0255632 1.56352e-19)
(-0.0424755 0.0241934 -4.16275e-20)
(-0.0457022 0.0223785 3.00438e-20)
(-0.0483107 0.0202564 1.61239e-19)
(-0.0502556 0.0179788 -2.21717e-19)
(-0.0515132 0.0157166 -6.00444e-20)
(-0.0520897 0.0136645 -1.16747e-19)
(-0.05203 0.0120408 2.34516e-19)
(-0.0514312 0.0110806 7.26275e-21)
(-0.0505158 0.0109977 1.26328e-19)
(-0.0494681 0.0119738 -4.548e-20)
(-0.0478698 0.0142887 -2.57163e-19)
(-0.00196377 0.00485048 -8.45033e-20)
(-0.00602386 0.0125957 1.18807e-19)
(-0.0107834 0.0185545 1.63564e-21)
(-0.0157969 0.0229866 -1.09805e-21)
(-0.0208961 0.0260555 1.20289e-19)
(-0.0259248 0.0279211 5.75723e-20)
(-0.0307364 0.0287387 -3.15248e-21)
(-0.0352057 0.028654 2.51506e-19)
(-0.0392245 0.0278068 9.53688e-20)
(-0.0426998 0.0263332 -1.73492e-19)
(-0.045553 0.0243713 8.15687e-21)
(-0.0477196 0.0220667 -5.93639e-21)
(-0.0491509 0.0195796 2.34493e-19)
(-0.0498181 0.0170924 -2.59481e-19)
(-0.0497217 0.0148163 7.08766e-20)
(-0.0489024 0.0129949 2.48982e-21)
(-0.0474566 0.0118994 -1.771e-19)
(-0.0456231 0.0117912 -1.81752e-19)
(-0.0436285 0.0129074 -2.17819e-20)
(-0.0409617 0.0156206 2.60664e-19)
(-0.00220795 0.00521404 2.72974e-20)
(-0.00664131 0.0135363 -8.45316e-20)
(-0.0116587 0.0199438 8.08145e-20)
(-0.016828 0.0247111 -1.19631e-19)
(-0.0219872 0.0280142 1.4695e-19)
(-0.0269865 0.030025 -2.17748e-19)
(-0.0316854 0.0309102 -5.95106e-20)
(-0.0359636 0.0308261 -1.31507e-19)
(-0.0397169 0.0299212 -6.13364e-20)
(-0.0428547 0.0283396 1.08137e-19)
(-0.0452989 0.0262262 2.1813e-19)
(-0.0469835 0.0237329 -2.41818e-19)
(-0.0478559 0.0210271 -8.94242e-20)
(-0.0478817 0.0183013 3.20847e-19)
(-0.0470542 0.015782 -1.1501e-19)
(-0.0454076 0.0137379 -1.63809e-19)
(-0.0430355 0.0124798 2.05334e-19)
(-0.0401919 0.0123234 4.2799e-20)
(-0.037158 0.0135714 4.02501e-20)
(-0.0332921 0.0167105 -1.67569e-19)
(-0.00246337 0.00556124 1.06434e-20)
(-0.00728508 0.0144324 -4.40101e-20)
(-0.0125676 0.021265 1.41461e-19)
(-0.0178929 0.0263483 -1.81057e-19)
(-0.0231057 0.02987 -1.48265e-19)
(-0.028063 0.0320141 3.84084e-20)
(-0.0326305 0.0329581 2.54413e-19)
(-0.0366936 0.0328682 -1.58866e-19)
(-0.0401522 0.0319015 3.79316e-20)
(-0.0429181 0.030209 -7.47173e-20)
(-0.0449141 0.0279412 -2.98236e-19)
(-0.0460725 0.0252552 1.78611e-19)
(-0.0463367 0.0223238 1.42436e-19)
(-0.0456656 0.0193476 -2.49768e-19)
(-0.0440437 0.016567 5.79182e-20)
(-0.0414971 0.0142747 2.27978e-19)
(-0.0381132 0.0128235 8.83172e-20)
(-0.0341592 0.0125919 3.07417e-20)
(-0.029991 0.0139585 -1.7796e-19)
(-0.024786 0.0175569 -8.62919e-20)
(-0.00272901 0.00589114 -7.3774e-20)
(-0.00795217 0.0152813 -1.31737e-19)
(-0.013505 0.0225144 -7.53262e-20)
(-0.0189846 0.0278931 9.85988e-20)
(-0.0242424 0.0316171 -5.70256e-21)
(-0.0291424 0.033882 1.99835e-20)
(-0.0335573 0.0348761 -3.50286e-20)
(-0.0373781 0.0347748 2.3684e-20)
(-0.040509 0.033743 1.49718e-19)
(-0.0428648 0.0319382 1.87513e-19)
(-0.0443689 0.0295154 -8.54237e-21)
(-0.0449521 0.0266353 -4.06031e-20)
(-0.0445532 0.0234745 -2.35177e-19)
(-0.0431238 0.0202391 1.74294e-19)
(-0.0406384 0.017181 -1.52988e-20)
(-0.0371125 0.0146156 -1.01913e-19)
(-0.0326235 0.0129388 -5.03868e-19)
(-0.027447 0.012599 1.76331e-19)
(-0.0220388 0.0140637 9.27766e-21)
(-0.0153707 0.0182091 -1.07105e-19)
(-0.00300377 0.00620282 6.79651e-20)
(-0.00863933 0.0160806 1.72035e-19)
(-0.0144657 0.0236879 -1.2952e-19)
(-0.0200952 0.0293405 -6.20422e-20)
(-0.0253868 0.0332499 5.13336e-20)
(-0.0302117 0.0356229 -1.22692e-19)
(-0.0344494 0.0366582 -2.12655e-19)
(-0.037997 0.0365403 1.31822e-19)
(-0.0407632 0.0354414 -1.50135e-20)
(-0.0426659 0.0335246 -2.9616e-19)
(-0.0436291 0.0309486 5.62183e-20)
(-0.0435819 0.0278763 3.12678e-20)
(-0.0424586 0.0244859 -5.37784e-20)
(-0.0402027 0.0209868 1.40533e-19)
(-0.0367775 0.0176389 2.70518e-19)
(-0.0321851 0.0147773 -1.74024e-19)
(-0.0264896 0.0128404 1.39817e-19)
(-0.0199642 0.0123487 3.3633e-20)
(-0.0131548 0.0138618 1.90638e-19)
(-0.00493234 0.0187031 8.52287e-20)
(-0.00328648 0.00649543 -7.45054e-20)
(-0.00934311 0.0168278 -8.55183e-21)
(-0.0154436 0.0247818 1.83458e-19)
(-0.0212165 0.0306857 1.80011e-19)
(-0.0265279 0.0347627 -3.64775e-20)
(-0.0312564 0.0372306 -2.28603e-20)
(-0.0352889 0.0382984 2.42502e-19)
(-0.0385283 0.0381593 -1.73945e-19)
(-0.0408881 0.0369925 5.24085e-20)
(-0.042289 0.0349659 2.14959e-19)
(-0.0426558 0.0322413 2.03797e-19)
(-0.041916 0.0289824 7.84829e-20)
(-0.039999 0.0253671 3.39688e-19)
(-0.0368398 0.021605 -4.62587e-20)
(-0.0323896 0.0179605 -3.51652e-19)
(-0.0266351 0.0147837 1.71002e-19)
(-0.0196247 0.0125523 -9.01616e-20)
(-0.0116295 0.0118582 -2.07539e-19)
(-0.00320265 0.0133828 -1.45348e-19)
(0.0067467 0.0189288 -1.45646e-19)
(-0.00357592 0.0067681 4.76082e-20)
(-0.0100598 0.0175205 9.6921e-20)
(-0.0164326 0.0257923 -6.68203e-20)
(-0.0223393 0.031924 -8.22336e-20)
(-0.0276534 0.03615 -8.43401e-20)
(-0.0322609 0.0386992 -2.25832e-20)
(-0.036056 0.0397907 -3.09696e-19)
(-0.0389475 0.0396263 1.18539e-19)
(-0.0408536 0.0383919 -1.07994e-19)
(-0.0416977 0.0362599 -1.80433e-19)
(-0.0414055 0.0333943 6.31667e-21)
(-0.0399024 0.0299585 -4.47504e-19)
(-0.0371131 0.0261285 -3.43338e-19)
(-0.0329639 0.0221111 1.07302e-19)
(-0.0273929 0.0181706 5.36604e-20)
(-0.0203698 0.0146668 -1.13809e-19)
(-0.0119238 0.0121106 4.35981e-19)
(-0.00232606 0.0111662 -6.75798e-20)
(0.00788154 0.0126705 1.81779e-19)
(0.0198198 0.0188066 1.62469e-19)
(-0.00387079 0.00702003 -6.53516e-20)
(-0.0107855 0.0181564 -2.10725e-19)
(-0.0174259 0.0267159 6.62092e-20)
(-0.0234539 0.0330505 3.64379e-21)
(-0.0287501 0.0374061 2.76029e-19)
(-0.0332082 0.0400227 -1.62947e-19)
(-0.0367293 0.0411292 -1.38234e-19)
(-0.0392281 0.0409359 1.64512e-19)
(-0.0406271 0.0396354 -9.70329e-21)
(-0.0408523 0.0374043 7.53515e-20)
(-0.0398298 0.0344084 2.26481e-19)
(-0.0374831 0.0308101 4.68548e-19)
(-0.0337319 0.0267817 3.71859e-20)
(-0.0284939 0.0225245 -2.02959e-19)
(-0.0216941 0.0182983 3.6508e-20)
(-0.0132839 0.0144655 3.50626e-19)
(-0.00326965 0.0115616 -2.35107e-19)
(0.00808247 0.0103174 9.38679e-22)
(0.0202225 0.0117412 1.76704e-19)
(0.0343955 0.0184141 -1.09477e-19)
(-0.0041697 0.00725044 -6.25403e-20)
(-0.011516 0.0187332 2.48906e-19)
(-0.0184163 0.0275491 -1.88101e-19)
(-0.0245498 0.0340607 -3.80654e-20)
(-0.029804 0.0385257 -6.35046e-20)
(-0.0340799 0.041195 -1.63191e-19)
(-0.0372854 0.0423077 1.60885e-19)
(-0.0393408 0.0420824 -4.21121e-20)
(-0.0401726 0.0407183 -9.28573e-20)
(-0.0397087 0.0383965 1.50373e-19)
(-0.0378755 0.0352842 -1.72503e-19)
(-0.0345941 0.0315426 -5.49915e-20)
(-0.0297791 0.0273389 -6.05973e-21)
(-0.0233399 0.0228667 1.42449e-19)
(-0.0151885 0.0183766 -1.27382e-19)
(-0.00525842 0.0142261 -2.3776e-19)
(0.00646901 0.0109643 -7.19282e-20)
(0.0197394 0.00937733 -1.02871e-19)
(0.0339767 0.0106384 -3.10282e-19)
(0.0506242 0.0178211 -9.21695e-20)
(-0.00447125 0.00745862 8.8689e-20)
(-0.0122469 0.0192488 -1.09286e-19)
(-0.0193964 0.0282883 -1.3543e-19)
(-0.0256159 0.0349501 -1.26763e-19)
(-0.0308 0.0395033 4.17543e-20)
(-0.0348564 0.0422103 2.32667e-20)
(-0.0376995 0.04332 5.73803e-20)
(-0.0392546 0.0430599 -1.97912e-19)
(-0.0394515 0.0416358 1.12913e-19)
(-0.0382197 0.0392335 -3.34412e-19)
(-0.035485 0.0360218 -1.66016e-19)
(-0.0311656 0.0321606 2.71985e-21)
(-0.025171 0.0278118 1.43837e-19)
(-0.0174025 0.0231594 -9.32054e-20)
(-0.00776043 0.0184408 2.35043e-19)
(0.00383892 0.0140005 -5.68978e-20)
(0.0174392 0.0103886 7.31782e-20)
(0.0328031 0.0084304 2.7263e-19)
(0.0493128 0.00944338 3.54991e-20)
(0.0686883 0.0170963 1.71757e-19)
(-0.00477392 0.00764389 -1.87371e-19)
(-0.0129737 0.0197012 1.46893e-19)
(-0.0203581 0.0289304 1.63406e-19)
(-0.0266406 0.0357142 -9.39886e-20)
(-0.0317219 0.0403337 1.58957e-19)
(-0.0355165 0.0430626 1.51833e-19)
(-0.0379446 0.04416 -2.72128e-20)
(-0.0389357 0.0438624 -1.507e-19)
(-0.0384222 0.0423828 -2.21375e-19)
(-0.0363343 0.0399117 6.35221e-20)
(-0.032596 0.0366206 6.11308e-21)
(-0.0271223 0.0326681 -1.62511e-19)
(-0.0198173 0.0282114 1.19652e-19)
(-0.0105745 0.0234238 -9.28029e-20)
(0.000716163 0.0185268 -1.66754e-19)
(0.0141528 0.0138445 -2.15164e-19)
(0.0298025 0.00991385 5.21317e-20)
(0.0474481 0.00757841 7.1651e-20)
(0.0664125 0.00826641 -6.7643e-20)
(0.0887851 0.0163343 2.83745e-19)
(-0.00507619 0.00780565 -1.47915e-19)
(-0.0136915 0.0200886 -1.35188e-19)
(-0.0212931 0.0294724 1.0575e-19)
(-0.0276112 0.036349 6.08879e-20)
(-0.0325528 0.0410118 2.45582e-20)
(-0.036038 0.0437462 -4.45516e-20)
(-0.0379922 0.0448217 -3.11585e-20)
(-0.0383485 0.0444841 7.04308e-20)
(-0.0370406 0.0429538 -6.29323e-20)
(-0.0339981 0.0404272 5.21223e-19)
(-0.0291425 0.037079 3.76005e-20)
(-0.0223843 0.0330679 -5.71107e-20)
(-0.0136217 0.0285468 -3.7221e-19)
(-0.00274125 0.0236794 7.10104e-20)
(0.0103759 0.0186692 -1.79849e-19)
(0.0258387 0.0138144 1.17594e-19)
(0.0437332 0.00962485 1.06567e-19)
(0.063863 0.00693786 -4.0044e-19)
(0.0854694 0.0072429 -1.23009e-19)
(0.111119 0.0156656 -4.24051e-19)
(-0.00537647 0.00794336 7.15366e-20)
(-0.0143954 0.0204092 1.399e-19)
(-0.0221924 0.0299112 -2.49383e-19)
(-0.0285147 0.0368505 -1.89019e-19)
(-0.0332744 0.0415329 9.48369e-20)
(-0.0363969 0.0442556 8.83991e-20)
(-0.0378119 0.0452993 -1.81385e-19)
(-0.0374549 0.044919 -1.61475e-20)
(-0.0352596 0.0433436 2.18189e-20)
(-0.0311537 0.0407758 -1.56953e-19)
(-0.0250545 0.0373949 2.25691e-19)
(-0.0168671 0.0333612 1.26468e-21)
(-0.00648311 0.0288254 2.79232e-19)
(0.00621754 0.0239427 1.87393e-19)
(0.0213602 0.0188994 3.11403e-20)
(0.0390597 0.013964 3.86031e-19)
(0.0594145 0.00960764 -3.46264e-19)
(0.0822463 0.00663516 1.58615e-19)
(0.106685 0.00653111 1.22355e-19)
(0.135893 0.0152594 1.05091e-19)
(-0.00567312 0.00805658 3.44336e-19)
(-0.01508 0.0206614 -2.36513e-19)
(-0.0230467 0.0302444 5.69224e-20)
(-0.029337 0.037215 1.83463e-19)
(-0.0338676 0.0418924 -1.95742e-19)
(-0.0365681 0.0445858 9.57196e-21)
(-0.0373716 0.0455871 1.4579e-19)
(-0.0362146 0.0451616 2.65307e-19)
(-0.0330297 0.0435468 2.65794e-19)
(-0.0277406 0.0409532 -2.6045e-19)
(-0.020259 0.0375657 -1.98732e-19)
(-0.0104828 0.0335484 9.33048e-20)
(0.00170341 0.0290522 -2.65437e-19)
(0.0164262 0.0242269 1.79401e-20)
(0.0338147 0.019244 1.01138e-19)
(0.0539838 0.0143418 7.67979e-20)
(0.0770351 0.0099442 2.33406e-19)
(0.102801 0.00679992 4.82549e-20)
(0.130264 0.00630688 -1.71802e-19)
(0.163301 0.0153256 1.83383e-19)
(-0.00596448 0.00814495 -3.26478e-19)
(-0.0157399 0.0208441 2.35544e-19)
(-0.0238464 0.0304696 5.66675e-20)
(-0.0300637 0.0374395 -1.81835e-19)
(-0.0343121 0.0420864 7.60395e-20)
(-0.0365249 0.0447323 -3.63471e-20)
(-0.0366372 0.0456806 -2.71363e-20)
(-0.0345853 0.0452071 -2.23916e-19)
(-0.0302986 0.0435591 -3.49743e-19)
(-0.0236954 0.0409555 2.251e-19)
(-0.0146797 0.0375888 -1.15281e-19)
(-0.00314065 0.033629 3.57047e-21)
(0.0110455 0.0292303 6.3943e-20)
(0.028011 0.0245414 1.34204e-19)
(0.0478864 0.0197234 -1.61078e-20)
(0.0707798 0.0149874 -3.69554e-20)
(0.0967836 0.0107071 -1.87934e-19)
(0.125729 0.00755669 -1.24432e-19)
(0.156408 0.00675539 -1.16257e-19)
(0.193513 0.0161137 1.85352e-19)
(-0.00624884 0.00820818 2.61796e-19)
(-0.0163694 0.020956 -6.64196e-20)
(-0.0245812 0.0305848 2.23822e-19)
(-0.030679 0.0375212 5.37286e-20)
(-0.0345863 0.0421116 -1.17209e-19)
(-0.0362389 0.0446914 1.88086e-20)
(-0.0355728 0.0455758 -2.44856e-19)
(-0.0325221 0.0450518 1.10238e-19)
(-0.0270117 0.043377 5.90852e-20)
(-0.0189521 0.0407799 8.83087e-21)
(-0.00823773 0.0374622 8.03107e-20)
(0.0052527 0.0336025 2.84268e-20)
(0.0216523 0.0293618 -1.27929e-19)
(0.0410989 0.0248924 -2.94602e-19)
(0.0637212 0.0203516 1.47723e-19)
(0.0896129 0.0159302 -7.27704e-20)
(0.118843 0.0119547 -1.75636e-20)
(0.151221 0.00901603 3.0093e-19)
(0.18531 0.00806088 3.10346e-19)
(0.226661 0.0179091 -4.72894e-19)
(-0.00652446 0.00824609 -6.68109e-20)
(-0.0169627 0.0209963 -7.15276e-20)
(-0.0252401 0.0305886 -1.40255e-19)
(-0.0311665 0.0374579 1.01711e-19)
(-0.0346675 0.0419655 1.82734e-19)
(-0.0356802 0.0444603 -2.34009e-19)
(-0.03414 0.04527 3.70043e-19)
(-0.0299778 0.0446932 -7.16056e-20)
(-0.0231114 0.0429985 1.039e-20)
(-0.0134418 0.0404252 -2.43162e-19)
(-0.000851827 0.0371858 8.13594e-21)
(0.0147921 0.0334697 -1.96197e-19)
(0.0336334 0.0294486 2.60331e-19)
(0.0558148 0.0252839 1.694e-19)
(0.0814602 0.021137 -3.2727e-19)
(0.110641 0.0171881 -2.7538e-19)
(0.143388 0.0137277 6.27783e-20)
(0.179457 0.0112656 3.60851e-19)
(0.217154 0.0103954 1.63955e-19)
(0.26282 0.0210256 8.76276e-20)
(-0.00678953 0.00825858 2.07724e-20)
(-0.0175134 0.0209644 6.93747e-20)
(-0.0258119 0.0304798 8.2665e-20)
(-0.0315089 0.0372483 -6.84058e-20)
(-0.0345315 0.0416465 1.69558e-19)
(-0.0348168 0.0440377 2.24899e-19)
(-0.0322987 0.0447623 3.50628e-21)
(-0.0269026 0.0441311 -2.84557e-19)
(-0.0185376 0.0424243 -2.25134e-19)
(-0.00709322 0.039893 2.33322e-19)
(0.00756142 0.0367619 -3.775e-19)
(0.0255735 0.0332337 -3.43773e-19)
(0.0470975 0.0294943 -3.40268e-20)
(0.0722803 0.0257195 -1.75798e-20)
(0.101237 0.0220836 1.1565e-19)
(0.134009 0.0187685 7.49793e-20)
(0.170574 0.0160472 9.6109e-20)
(0.21059 0.0143615 -4.46192e-19)
(0.252117 0.013904 -1.21317e-19)
(0.301997 0.0257824 3.16568e-19)
(-0.0070422 0.00824562 -1.24174e-19)
(-0.018015 0.0208598 1.18241e-19)
(-0.0262842 0.0302577 -8.63463e-20)
(-0.0316875 0.0368915 -4.2428e-20)
(-0.0341523 0.0411541 -1.14441e-19)
(-0.0336151 0.0434236 -8.58358e-20)
(-0.0300062 0.0440535 -1.52044e-19)
(-0.023244 0.0433674 2.48678e-19)
(-0.0132274 0.0416576 9.78617e-20)
(0.00016777 0.039188 -2.37729e-19)
(0.0170874 0.0361967 -2.85652e-19)
(0.0376935 0.0329015 1.51312e-19)
(0.0621515 0.0295055 -1.39937e-19)
(0.0906112 0.0262042 -1.93978e-19)
(0.123176 0.0231929 -2.45875e-20)
(0.159847 0.0206692 1.94953e-19)
(0.200538 0.0189143 -1.28361e-19)
(0.244748 0.0183201 4.84913e-20)
(0.290377 0.018687 1.0743e-19)
(0.344135 0.0324621 2.67737e-19)
(-0.00728053 0.00820725 -1.27224e-20)
(-0.0184607 0.0206824 -2.92069e-19)
(-0.0266443 0.0299221 7.04256e-20)
(-0.0316827 0.0363876 1.55026e-19)
(-0.0335027 0.040489 -2.81604e-20)
(-0.0320389 0.0426196 -1.83821e-19)
(-0.0272171 0.0431468 2.00596e-19)
(-0.0189469 0.0424069 2.27358e-19)
(-0.00711499 0.0407054 8.6069e-20)
(0.00841764 0.0383192 4.229e-19)
(0.0278131 0.035501 -1.94594e-19)
(0.0512482 0.0324851 6.93794e-20)
(0.0788987 0.0294941 -9.41939e-20)
(0.110915 0.0267467 2.2405e-19)
(0.147384 0.0244665 -1.9498e-20)
(0.188261 0.0228809 -5.04233e-20)
(0.233384 0.022313 -7.95428e-20)
(0.282012 0.0231158 1.23401e-19)
(0.332086 0.0248129 -3.06727e-19)
(0.389044 0.041346 -4.10625e-19)
(-0.00750245 0.00814353 -7.20515e-20)
(-0.0188429 0.0204323 -2.59514e-20)
(-0.0268783 0.0294735 -2.33502e-19)
(-0.0314732 0.0357377 1.41467e-19)
(-0.0325534 0.0396533 -1.42908e-19)
(-0.0300502 0.0416295 -1.43651e-19)
(-0.0238836 0.0420478 -1.28134e-20)
(-0.0139531 0.041258 -2.29295e-19)
(-0.00013178 0.0395788 -3.60007e-19)
(0.0177352 0.0373008 9.74348e-20)
(0.0398263 0.0346918 1.08011e-19)
(0.0663322 0.0320035 -4.52266e-20)
(0.0974368 0.0294786 3.51429e-19)
(0.133287 0.0273611 -3.1646e-20)
(0.17395 0.0259076 -6.87665e-20)
(0.21933 0.0253878 -9.4086e-21)
(0.269184 0.0262058 1.69028e-19)
(0.322428 0.0286749 2.96242e-19)
(0.377335 0.0324207 -8.21086e-20)
(0.436092 0.0530107 2.98591e-19)
(-0.00770577 0.00805455 2.25916e-19)
(-0.0191537 0.0201095 -3.5616e-20)
(-0.0269716 0.0289126 2.062e-19)
(-0.0310366 0.0349438 -2.09221e-19)
(-0.0312731 0.0386506 3.05618e-19)
(-0.0276084 0.040459 2.53101e-19)
(-0.0199551 0.0407651 -2.05766e-19)
(-0.00820162 0.0399325 -3.78985e-19)
(0.00779343 0.0382933 6.21544e-19)
(0.028201 0.0361523 1.51866e-19)
(0.053215 0.0337927 -1.17034e-19)
(0.0830374 0.0314829 -1.14393e-19)
(0.117856 0.0294855 -1.18863e-19)
(0.157808 0.0280691 -8.72383e-20)
(0.202936 0.0275226 -2.8533e-19)
(0.253094 0.0281642 -7.67071e-20)
(0.307981 0.0305117 6.3093e-21)
(0.366105 0.0348348 -2.03347e-19)
(0.426418 0.0417771 9.97638e-20)
(0.484199 0.0682497 -2.11326e-19)
(-0.00788815 0.00794041 -3.60953e-19)
(-0.0193847 0.0197147 2.36132e-19)
(-0.0269081 0.0282409 -3.47989e-19)
(-0.0303487 0.0340087 -1.87581e-19)
(-0.0296286 0.037486 6.91744e-20)
(-0.0246704 0.0391162 -2.73464e-19)
(-0.0153784 0.0393104 4.24096e-19)
(-0.0016289 0.0384461 7.26728e-21)
(0.0167342 0.0368696 -2.31116e-19)
(0.039897 0.0348997 -1.99719e-19)
(0.0680662 0.0328345 -3.52716e-19)
(0.10145 0.0309583 -4.24467e-21)
(0.140233 0.0295513 -4.91011e-20)
(0.184535 0.0289015 -1.41394e-19)
(0.234365 0.0293236 3.44267e-19)
(0.289526 0.0311737 2.10085e-19)
(0.349717 0.0350809 5.16489e-20)
(0.413202 0.0412685 -2.19999e-19)
(0.480447 0.05276 -1.19808e-20)