/*--------------------------------*- C++ -*----------------------------------*\
  =========                 |
  \\      /  F ield         | OpenFOAM: The Open Source CFD Toolbox
   \\    /   O peration     | Website:  https://openfoam.org
    \\  /    A nd           | Version:  7
     \\/     M anipulation  |
\*---------------------------------------------------------------------------*/
FoamFile
{
    version     2.0;
    format      ascii;
    class       volVectorField;
    location    "180";
    object      U;
}
// * * * * * * * * * * * * * * * * * * * * * * * * * * * * * * * * * * * * * //

dimensions      [0 1 -1 0 0 0 0];

internalField   nonuniform List<vector> 
7156
(
(0.0273216 -0.00527314 1.86949e-20)
(0.0959622 -0.0136656 1.06017e-20)
(0.0298691 -0.00532847 -1.67555e-19)
(0.103416 -0.0134242 6.27586e-20)
(0.191539 -0.0150209 1.93506e-19)
(0.292253 -0.0117612 -1.34484e-19)
(0.0325099 -0.00532239 4.0066e-20)
(0.111089 -0.0129998 1.34311e-19)
(0.203995 -0.0137151 1.30156e-20)
(0.30912 -0.00926192 -1.28512e-20)
(0.423972 4.93853e-05 -1.59181e-19)
(0.545353 0.0136714 -1.50025e-20)
(0.669494 0.0307728 2.03443e-19)
(0.035241 -0.00525046 -1.23251e-19)
(0.11897 -0.0123818 -1.14287e-19)
(0.21671 -0.012099 -1.66511e-19)
(0.326234 -0.00635204 -8.08948e-20)
(0.44486 0.00443783 1.00551e-19)
(0.569189 0.0196014 1.22042e-19)
(0.695266 0.0381811 -1.34935e-19)
(0.818867 0.0590438 -1.2234e-19)
(0.935858 0.0809394 -8.32389e-20)
(1.04259 0.102608 3.29228e-20)
(0.0380587 -0.00510833 6.73427e-20)
(0.127047 -0.01156 8.76341e-20)
(0.229662 -0.0101601 6.35956e-20)
(0.343557 -0.00301966 3.23672e-20)
(0.465862 0.00932205 -5.9136e-21)
(0.592977 0.0260682 -1.41651e-19)
(0.720776 0.0461319 7.53289e-20)
(0.844933 0.0682647 9.96593e-21)
(0.961308 0.0911291 -1.23308e-20)
(1.06636 0.113416 1.99264e-19)
(1.15747 0.133974 -5.19362e-21)
(1.23316 0.151908 -2.91391e-20)
(1.29314 0.166647 5.86946e-20)
(0.0409589 -0.00489174 1.59693e-20)
(0.135304 -0.010525 -1.35581e-19)
(0.242825 -0.00788694 -1.58656e-20)
(0.361051 0.000745572 1.50045e-19)
(0.486925 0.0147085 -3.09276e-20)
(0.616656 0.0330721 7.3732e-20)
(0.745961 0.0546182 -7.78161e-20)
(0.870433 0.0779853 2.07558e-20)
(0.985958 0.101755 -2.80754e-20)
(1.08913 0.124579 3.50624e-21)
(1.17756 0.14531 -4.98153e-20)
(1.25007 0.1631 -1.3703e-19)
(1.30665 0.177445 7.07541e-20)
(1.34831 0.188185 -2.1146e-20)
(1.3768 0.195451 1.24462e-19)
(1.39429 0.199586 -7.96231e-21)
(1.40306 0.201061 -1.92189e-19)
(0.0439371 -0.00459661 4.39285e-20)
(0.143727 -0.00926743 6.79127e-20)
(0.256171 -0.00526889 -1.71646e-20)
(0.378676 0.00495254 -6.67125e-20)
(0.508 0.0206017 -1.28457e-20)
(0.640168 0.0406114 1.34461e-19)
(0.770758 0.0636312 5.63185e-20)
(0.895309 0.0881901 -1.31762e-20)
(1.00976 0.112796 6.1689e-20)
(1.11087 0.136073 -6.15778e-20)
(1.1965 0.156891 5.70886e-20)
(1.26577 0.174455 5.15004e-21)
(1.31898 0.188339 -6.20943e-20)
(1.35739 0.19847 -8.67893e-20)
(1.38294 0.205059 -1.21269e-19)
(1.39792 0.208515 -8.7492e-20)
(1.40467 0.209354 1.27098e-19)
(1.40534 0.208119 -2.63187e-20)
(1.40178 0.205316 -7.17705e-20)
(1.39545 0.201385 -4.30877e-20)
(1.38746 0.196678 -6.43179e-20)
(0.0469882 -0.00421901 -5.54825e-20)
(0.152299 -0.00777905 2.48119e-20)
(0.269671 -0.00229663 7.04478e-20)
(0.396391 0.00960847 3.06924e-20)
(0.529035 0.0270042 7.98808e-20)
(0.663454 0.0486822 -1.20582e-19)
(0.795108 0.0731601 -2.85666e-20)
(0.919506 0.098862 2.43577e-20)
(1.03267 0.124232 3.76926e-20)
(1.13155 0.147876 1.29771e-19)
(1.21429 0.168694 -4.0825e-20)
(1.28029 0.185953 6.70511e-20)
(1.33016 0.199314 -3.72618e-20)
(1.36541 0.208791 -3.42471e-20)
(1.38815 0.214674 6.15992e-20)
(1.40078 0.217437 9.29026e-20)
(1.40564 0.217637 -8.15895e-20)
(1.40489 0.215837 -2.60363e-20)
(1.40029 0.212554 1.69346e-20)
(1.39326 0.20822 1.10677e-19)
(1.38479 0.203177 1.75814e-19)
(1.37559 0.197678 8.11041e-20)
(1.36606 0.191911 1.97287e-20)
(1.35639 0.186002 1.03078e-19)
(1.3466 0.179768 -1.97001e-20)
(0.0501068 -0.00375525 1.34284e-19)
(0.161003 -0.0060521 -5.90314e-20)
(0.283296 0.001038 -4.83252e-20)
(0.414154 0.0147189 4.58975e-20)
(0.549978 0.0339164 -2.17339e-19)
(0.686457 0.0572785 3.13398e-20)
(0.818953 0.083192 5.42183e-20)
(0.942975 0.109982 8.83901e-21)
(1.05466 0.136039 -5.4859e-20)
(1.15117 0.159964 -1.31265e-19)
(1.23092 0.180696 -1.59426e-21)
(1.29365 0.197576 -5.31283e-20)
(1.34023 0.210355 5.97761e-21)
(1.37242 0.219136 1.29242e-19)
(1.39248 0.22429 4.39938e-20)
(1.40289 0.226349 -4.56014e-20)
(1.40602 0.225907 1.51818e-19)
(1.40396 0.223547 -2.00039e-20)
(1.39844 0.219787 7.92194e-20)
(1.39078 0.215054 -1.3632e-19)
(1.38191 0.209677 -4.7826e-20)
(1.37246 0.203897 -1.0648e-19)
(1.36278 0.197888 1.06703e-19)
(1.35303 0.191756 -3.04836e-20)
(1.3432 0.185372 -3.95424e-20)
(0.053287 -0.00320186 -4.11634e-20)
(0.16982 -0.00407962 2.39646e-20)
(0.297015 0.00474183 1.08397e-20)
(0.431923 0.0202876 -1.25218e-19)
(0.570777 0.0413368 1.17337e-20)
(0.70912 0.0663921 -3.09372e-20)
(0.842238 0.0937122 -5.97356e-21)
(0.965668 0.121531 5.62952e-20)
(1.07569 0.148195 2.56777e-20)
(1.16969 0.172313 7.95748e-20)
(1.2464 0.192875 4.28098e-20)
(1.30585 0.209305 2.24663e-21)
(1.34922 0.221447 -2.22578e-23)
(1.37845 0.229496 -4.76199e-20)
(1.39598 0.233901 5.40751e-20)
(1.40431 0.235247 -5.56897e-21)
(1.40583 0.234163 -5.23073e-20)
(1.40259 0.231247 -1.27548e-19)
(1.39624 0.227016 -2.04326e-20)
(1.38803 0.221887 -6.24133e-21)
(1.37881 0.216179 -5.29566e-20)
(1.36915 0.210116 9.52225e-20)
(1.35936 0.203863 -7.74388e-20)
(1.34954 0.197504 -2.69157e-20)
(1.3397 0.190967 6.151e-20)
(0.0565224 -0.00255566 2.202e-20)
(0.178732 -0.00185551 -3.68715e-20)
(0.310795 0.00882032 6.32138e-20)
(0.449655 0.0263166 9.56021e-20)
(0.591382 0.0492619 1.89438e-20)
(0.73139 0.0760128 4.50703e-20)
(0.864913 0.104704 -9.55457e-20)
(0.987543 0.133488 -3.97617e-20)
(1.09572 0.160676 1.65227e-20)
(1.18711 0.1849 2.23801e-22)
(1.26073 0.205211 -9.05643e-21)
(1.31694 0.221122 4.14529e-20)
(1.35716 0.232577 3.53204e-20)
(1.38356 0.239863 5.52649e-20)
(1.39868 0.2435 -7.50612e-20)
(1.40507 0.244128 -2.13002e-20)
(1.40512 0.242404 -2.07295e-21)
(1.40081 0.238936 8.14441e-20)
(1.39372 0.234238 -4.7436e-20)
(1.38503 0.228718 4.38234e-20)
(1.37551 0.222678 -5.11498e-20)
(1.36568 0.216334 -4.16922e-20)
(1.35579 0.209833 -2.94683e-20)
(1.34594 0.203245 4.04291e-20)
(1.33608 0.196549 2.39776e-21)
(0.0598065 -0.00181373 -3.14628e-20)
(0.187718 0.000625457 -2.90903e-20)
(0.324606 0.0132776 -9.04973e-20)
(0.467307 0.0328059 5.58614e-20)
(0.611743 0.0576859 5.46054e-20)
(0.753213 0.0861286 -3.72643e-20)
(0.886928 0.11615 7.5252e-20)
(1.00856 0.145829 -1.33721e-21)
(1.11475 0.173459 2.95349e-21)
(1.20343 0.197701 -2.77938e-20)
(1.27393 0.217682 2.32265e-20)
(1.32693 0.233011 -2.14369e-20)
(1.36409 0.243733 -5.62098e-20)
(1.38778 0.250226 -1.15e-20)
(1.40062 0.253083 8.09965e-21)
(1.40522 0.252989 2.95584e-20)
(1.40391 0.250628 2.5012e-20)
(1.39864 0.246612 -1.23773e-20)
(1.39089 0.241451 -2.54284e-20)
(1.38178 0.235542 1.87056e-20)
(1.37201 0.229174 3.51543e-20)
(1.36204 0.222546 3.55532e-20)
(1.35208 0.215795 2.30201e-21)
(1.3422 0.208975 3.96514e-20)
(1.33234 0.202115 -8.76366e-21)
(0.063132 -0.000973489 1.27689e-20)
(0.196759 0.00336759 2.49345e-20)
(0.338413 0.0181161 2.4635e-20)
(0.484836 0.039754 -1.03467e-20)
(0.631808 0.0666012 -1.99734e-20)
(0.77454 0.0967253 2.37918e-20)
(0.908238 0.128031 -1.48377e-20)
(1.02869 0.158532 1.51111e-20)
(1.13275 0.186518 -4.65531e-20)
(1.21863 0.210693 2.0292e-20)
(1.28601 0.230268 1.28981e-20)
(1.33584 0.244955 3.94863e-20)
(1.37005 0.254903 2.87014e-20)
(1.39114 0.260579 -1.14974e-20)
(1.40185 0.262645 -1.13794e-20)
(1.40478 0.261827 3.25751e-21)
(1.40224 0.258831 -1.58722e-20)
(1.39609 0.254272 6.55984e-21)
(1.38777 0.248654 1.75469e-20)
(1.3783 0.24236 -2.11646e-20)
(1.36832 0.235662 9.39362e-21)
(1.35824 0.228749 -2.55937e-20)
(1.34823 0.221745 2.37919e-20)
(1.33834 0.21469 -2.99621e-20)
(1.32849 0.207661 1.17119e-20)
(0.0664917 -3.26776e-05 -2.03489e-20)
(0.205831 0.00637423 2.1855e-21)
(0.352184 0.0233372 1.44462e-20)
(0.502198 0.0471573 -2.45439e-20)
(0.651531 0.0759984 -5.05622e-21)
(0.795321 0.107787 -2.7456e-20)
(0.928801 0.140325 -3.01003e-20)
(1.0479 0.171574 -8.96137e-21)
(1.1497 0.199828 4.2071e-21)
(1.23273 0.223853 7.69201e-21)
(1.29699 0.24295 -2.76393e-20)
(1.34372 0.25694 -6.90347e-21)
(1.37506 0.266075 -2.7629e-20)
(1.39369 0.270914 -1.62657e-20)
(1.40239 0.272179 1.18715e-20)
(1.40378 0.270638 -1.02742e-20)
(1.40011 0.267011 -1.99495e-20)
(1.39319 0.261916 -1.8558e-20)
(1.38437 0.255844 -1.78052e-21)
(1.37459 0.249165 -2.66824e-20)
(1.36444 0.242139 1.01148e-21)
(1.35428 0.23494 3.13405e-20)
(1.34424 0.22768 4.22922e-22)
(1.33435 0.220386 -8.00138e-21)
(1.32451 0.213185 8.25828e-21)
(0.069878 0.0010106 9.74835e-21)
(0.214915 0.00964769 3.74155e-21)
(0.365884 0.0289403 -4.40902e-21)
(0.519352 0.0550105 4.17222e-21)
(0.670864 0.0858659 -1.84073e-21)
(0.815511 0.119297 7.82637e-21)
(0.948579 0.15301 -2.16494e-21)
(1.06616 0.184928 1.7634e-21)
(1.16559 0.213367 -6.12229e-21)
(1.24573 0.237159 -7.13235e-21)
(1.30688 0.255708 -3.90495e-21)
(1.35057 0.268949 1.23626e-20)
(1.37917 0.277239 5.77074e-21)
(1.39546 0.281223 -6.72222e-21)
(1.40229 0.281682 5.9614e-21)
(1.40226 0.279419 -7.35607e-22)
(1.39757 0.275166 1.11778e-20)
(1.38996 0.269538 4.96265e-21)
(1.3807 0.263017 1.68153e-21)
(1.37065 0.255957 1.57446e-20)
(1.36037 0.248602 -2.96962e-21)
(1.35015 0.241115 -1.29613e-20)
(1.3401 0.233595 -6.51425e-22)
(1.33022 0.22606 2.01003e-21)
(1.32042 0.218682 -5.96512e-21)
(0.073283 0.00215787 5.27412e-21)
(0.223988 0.0131893 6.32742e-21)
(0.379481 0.0349236 -7.10465e-21)
(0.536255 0.0633064 1.02194e-20)
(0.689763 0.0961905 -3.34731e-21)
(0.835068 0.131236 3.28262e-21)
(0.967537 0.166063 -6.70301e-22)
(1.08345 0.198571 1.77006e-21)
(1.18042 0.227107 -3.97273e-21)
(1.25764 0.250588 -1.05427e-20)
(1.31571 0.268524 -6.70419e-22)
(1.35645 0.280969 1.07333e-20)
(1.3824 0.288384 7.7967e-21)
(1.39649 0.291498 -7.45177e-21)
(1.40157 0.291148 5.25583e-21)
(1.40024 0.288165 1.22064e-21)
(1.39463 0.283291 7.16372e-21)
(1.3864 0.277137 5.29549e-21)
(1.37676 0.27017 3.3307e-21)
(1.36651 0.26273 1.36927e-20)
(1.35612 0.255046 -1.45216e-22)
(1.34587 0.247269 -1.32355e-20)
(1.33582 0.239487 -3.75333e-21)
(1.32597 0.231708 3.6986e-21)
(1.3162 0.224148 -2.7656e-21)
(0.0766988 0.00341032 -1.31132e-20)
(0.233029 0.0169993 -5.76842e-21)
(0.39294 0.0412837 5.92172e-21)
(0.552867 0.0720363 -1.4402e-20)
(0.708183 0.106957 8.22716e-22)
(0.853951 0.143583 -4.39847e-20)
(0.985642 0.17946 -2.65419e-20)
(1.09975 0.212476 -7.99305e-21)
(1.19419 0.241026 1.38648e-20)
(1.26846 0.264117 -1.12148e-20)
(1.3235 0.28138 -2.09293e-20)
(1.36136 0.292985 -1.27716e-20)
(1.3848 0.2995 -1.30361e-20)
(1.3968 0.301733 -1.11507e-20)
(1.40026 0.300571 6.11539e-21)
(1.39773 0.296873 -1.20526e-20)
(1.3913 0.291384 -2.41095e-20)
(1.38254 0.284708 -6.96656e-21)
(1.37257 0.277298 -1.1905e-20)
(1.36214 0.269479 -2.04047e-20)
(1.35169 0.261466 -3.9675e-21)
(1.34142 0.253398 2.31725e-20)
(1.33139 0.24535 3.62437e-21)
(1.32158 0.237324 -6.12293e-21)
(1.31186 0.229579 2.14109e-20)
(0.0801168 0.00476867 8.83213e-21)
(0.242013 0.021077 -1.12408e-20)
(0.406229 0.0480157 4.32297e-20)
(0.569146 0.0811894 -2.4163e-20)
(0.726082 0.118149 -8.16117e-21)
(0.872122 0.156317 3.22898e-20)
(1.00287 0.193176 -1.14259e-20)
(1.11504 0.226618 6.09377e-21)
(1.20688 0.255097 -1.75421e-20)
(1.2782 0.277726 -6.54014e-21)
(1.33026 0.294258 4.31122e-21)
(1.36535 0.304984 3.90383e-20)
(1.38638 0.310577 2.41006e-20)
(1.39642 0.311919 9.80316e-21)
(1.39838 0.309947 -1.41776e-20)
(1.39477 0.305537 -5.59663e-21)
(1.3876 0.299439 3.81693e-21)
(1.37837 0.292246 1.9097e-21)
(1.36814 0.284398 5.90338e-21)
(1.35757 0.276202 -1.06629e-20)
(1.34707 0.267859 -2.62012e-21)
(1.3368 0.259496 -1.75055e-20)
(1.32682 0.25118 2.89378e-21)
(1.31706 0.242905 -2.12151e-20)
(1.30739 0.234972 4.1225e-21)
(0.0835286 0.00623324 -4.03402e-20)
(0.25092 0.0254205 -3.08026e-20)
(0.419313 0.0551131 -4.85447e-20)
(0.585055 0.0907534 2.16587e-20)
(0.743421 0.129749 3.78707e-20)
(0.889546 0.169414 -5.46327e-21)
(1.01919 0.207185 6.19361e-20)
(1.12932 0.240969 1.44514e-20)
(1.2185 0.269297 -3.17414e-20)
(1.28689 0.291393 -1.6205e-20)
(1.33602 0.30714 2.42666e-20)
(1.36844 0.316953 -2.87181e-20)
(1.38718 0.321605 -6.2133e-20)
(1.39539 0.322051 1.44373e-20)
(1.39597 0.319269 -1.37577e-20)
(1.39138 0.314153 6.69057e-20)
(1.38355 0.307453 2.76037e-21)
(1.37391 0.299748 1.37625e-20)
(1.36345 0.291464 -2.48753e-20)
(1.35279 0.282891 4.69616e-21)
(1.34226 0.274217 3.17121e-20)
(1.33203 0.26556 1.49264e-20)
(1.32209 0.256972 1.34693e-20)
(1.3124 0.248446 2.38456e-20)
(1.30279 0.24032 3.70578e-21)
(0.0869255 0.00780393 4.85127e-20)
(0.259726 0.0300267 -3.62266e-20)
(0.432162 0.0625679 1.08061e-19)
(0.600554 0.100714 3.5684e-20)
(0.760162 0.141736 7.6643e-20)
(0.906191 0.18285 -7.03923e-21)
(1.03458 0.22146 -4.2142e-20)
(1.14258 0.255504 -6.65583e-20)
(1.22906 0.283601 1.56358e-20)
(1.29453 0.305097 -3.62457e-20)
(1.34082 0.32001 3.79223e-21)
(1.37066 0.328878 2.85772e-20)
(1.38723 0.332574 6.21793e-20)
(1.39373 0.33212 4.47607e-20)
(1.39304 0.328531 -9.00875e-20)
(1.38756 0.322716 -1.76098e-20)
(1.37915 0.315419 2.01322e-20)
(1.36917 0.307208 4.70929e-20)
(1.35853 0.298491 -3.65067e-20)
(1.3478 0.289542 5.1126e-20)
(1.33728 0.280537 -4.02223e-20)
(1.32709 0.271582 -3.404e-20)
(1.31722 0.262721 -6.30952e-21)
(1.3076 0.253942 9.44257e-21)
(1.29806 0.245621 -2.95251e-20)
(0.0902991 0.00948022 -9.01624e-20)
(0.268409 0.0348916 3.7408e-20)
(0.444742 0.0703708 -2.14745e-20)
(0.615609 0.111057 -8.22317e-20)
(0.77627 0.154089 -9.81049e-21)
(0.922028 0.1966 -1.31873e-20)
(1.04902 0.235974 -2.19721e-20)
(1.1548 0.270196 1.08216e-19)
(1.23857 0.297984 3.49305e-20)
(1.30115 0.318817 2.58348e-20)
(1.34466 0.332851 2.30939e-20)
(1.37203 0.340747 -2.00575e-20)
(1.38656 0.343475 7.69985e-20)
(1.39147 0.342119 -9.41925e-20)
(1.38961 0.337728 6.47595e-20)
(1.38333 0.331221 9.97618e-21)
(1.37442 0.323334 -7.0616e-20)
(1.36416 0.314621 -1.19714e-19)
(1.35338 0.305472 1.01754e-20)
(1.34261 0.296149 -1.1968e-20)
(1.33211 0.286812 -3.34623e-21)
(1.32198 0.277559 2.18052e-20)
(1.3122 0.268422 -6.60952e-20)
(1.30267 0.259388 2.09103e-20)
(1.29321 0.250868 3.85535e-20)
(0.0936407 0.0112611 1.37253e-19)
(0.276948 0.0400101 -6.00997e-20)
(0.457024 0.078511 -7.12024e-20)
(0.630184 0.121764 -2.86007e-20)
(0.791712 0.166786 -8.19096e-20)
(0.93703 0.210638 4.65167e-21)
(1.0625 0.2507 5.03952e-20)
(1.16598 0.285017 -1.67791e-20)
(1.24702 0.312422 -8.75453e-20)
(1.30676 0.332533 -1.15661e-19)
(1.34758 0.345647 -2.21787e-20)
(1.37259 0.352548 -1.71946e-20)
(1.3852 0.354298 -2.15093e-20)
(1.38863 0.35204 1.24771e-19)
(1.38571 0.346853 7.30225e-20)
(1.37872 0.33966 -6.1463e-20)
(1.36937 0.33119 1.12306e-19)
(1.35887 0.32198 6.28191e-20)
(1.34799 0.312404 2.58361e-20)
(1.33721 0.302706 -8.55179e-20)
(1.32676 0.293037 -8.92537e-20)
(1.31671 0.283484 -3.39826e-20)
(1.30702 0.274068 7.73061e-20)
(1.29759 0.264779 -5.05581e-20)
(1.28822 0.256058 -6.85088e-21)
(0.0969416 0.0131453 -6.58684e-20)
(0.28532 0.0453761 4.29014e-20)
(0.468977 0.0869763 2.78788e-20)
(0.644246 0.132818 9.74389e-20)
(0.806458 0.179803 2.4341e-20)
(0.951175 0.224937 -1.07381e-19)
(1.07501 0.265609 -2.95213e-20)
(1.17613 0.299942 3.1977e-21)
(1.25444 0.326892 2.91752e-20)
(1.31138 0.346226 1.48057e-19)
(1.34959 0.358382 -5.64058e-20)
(1.37236 0.364267 7.26682e-20)
(1.38316 0.365033 5.7896e-21)
(1.38522 0.361876 -6.28837e-20)
(1.38134 0.3559 -1.82649e-20)
(1.37373 0.348029 9.69374e-20)
(1.36401 0.338981 -7.2235e-20)
(1.35331 0.329279 5.62641e-20)
(1.34237 0.319278 -5.84921e-20)
(1.33161 0.309207 1.36381e-19)
(1.32123 0.299205 1.343e-19)
(1.31127 0.28935 7.75871e-20)
(1.30169 0.279656 -5.81195e-20)
(1.29237 0.270108 -4.90035e-20)
(1.2831 0.261186 -2.91892e-20)
(0.100193 0.0151309 4.76379e-20)
(0.293504 0.0509824 1.02793e-19)
(0.480572 0.0957533 -7.63951e-20)
(0.657765 0.144197 -3.16767e-20)
(0.820478 0.193116 1.01335e-20)
(0.964442 0.239469 7.0679e-20)
(1.08653 0.280673 6.72611e-20)
(1.18525 0.314943 -1.40867e-20)
(1.26083 0.341371 1.11556e-19)
(1.31503 0.359875 -8.19431e-20)
(1.35073 0.37104 4.70065e-20)
(1.37137 0.375894 -2.17738e-20)
(1.38047 0.37567 -1.0069e-19)
(1.38128 0.371618 -2.93474e-20)
(1.37654 0.36486 -4.48716e-20)
(1.36837 0.356319 -1.11567e-19)
(1.35834 0.346702 9.48336e-20)
(1.3475 0.336512 7.20513e-21)
(1.33653 0.326088 1.22323e-19)
(1.32581 0.315645 -3.5586e-20)
(1.31551 0.30531 -2.6359e-20)
(1.30566 0.295153 3.40402e-20)
(1.2962 0.285177 4.78971e-20)
(1.28701 0.275372 4.5151e-21)
(1.27785 0.266246 3.8336e-20)
(0.103387 0.0172156 -1.59815e-20)
(0.30148 0.0568209 -2.88697e-20)
(0.491782 0.104827 1.48187e-20)
(0.670709 0.155883 7.28238e-20)
(0.833747 0.206699 6.11842e-20)
(0.976813 0.254206 2.20954e-20)
(1.09707 0.295865 -1.05265e-19)
(1.19334 0.329995 3.80737e-20)
(1.2662 0.355834 -1.77997e-20)
(1.31774 0.373461 -3.31759e-20)
(1.35102 0.383606 -6.21429e-20)
(1.36964 0.387415 -5.35471e-20)
(1.37716 0.386201 6.30883e-20)
(1.37682 0.381259 1.5413e-20)
(1.3713 0.373727 -2.18393e-20)
(1.36265 0.364525 8.00294e-20)
(1.35236 0.354345 -1.44304e-20)
(1.34143 0.343673 7.53954e-20)
(1.33046 0.332829 4.71664e-20)
(1.3198 0.322014 4.1885e-20)
(1.30961 0.311345 5.08879e-20)
(1.29989 0.300886 -8.08536e-20)
(1.29056 0.290628 -3.71449e-20)
(1.2815 0.280563 -8.50405e-21)
(1.27246 0.271233 2.12239e-20)
(0.106515 0.019397 1.44316e-19)
(0.309227 0.0628823 2.90727e-20)
(0.50258 0.114182 -1.58819e-20)
(0.683053 0.167852 6.86463e-20)
(0.846242 0.220525 7.4015e-20)
(0.988272 0.269119 -1.55643e-19)
(1.1066 0.311154 1.04724e-19)
(1.2004 0.345069 -2.63353e-20)
(1.27058 0.370259 -1.5754e-20)
(1.31951 0.386965 2.3515e-19)
(1.35048 0.396065 -2.69206e-20)
(1.36719 0.398818 9.45268e-20)
(1.37324 0.396615 -4.80207e-20)
(1.37186 0.39079 -5.51931e-20)
(1.36565 0.382493 3.24379e-20)
(1.35659 0.37264 -6.61147e-20)
(1.3461 0.361904 1.89304e-20)
(1.3351 0.350753 -1.51139e-19)
(1.32416 0.339492 -2.2233e-19)
(1.31359 0.328307 2.46884e-20)
(1.30352 0.317305 -1.30307e-19)
(1.29394 0.306542 2.94199e-20)
(1.28476 0.296002 4.3307e-20)
(1.27585 0.285677 1.0895e-19)
(1.26695 0.276142 5.31923e-20)
(0.109569 0.0216718 -1.41615e-19)
(0.316727 0.0691568 -2.31826e-19)
(0.51294 0.123802 -6.02159e-20)
(0.694771 0.180082 -1.65747e-19)
(0.857941 0.234568 1.26836e-19)
(0.998808 0.28418 1.35499e-19)
(1.11513 0.326513 -2.11823e-19)
(1.20644 0.360142 2.11811e-20)
(1.27398 0.384624 7.88653e-21)
(1.32038 0.400369 -1.77981e-19)
(1.34914 0.408402 1.13969e-19)
(1.36405 0.410092 -1.84648e-19)
(1.36875 0.406902 -1.86034e-20)
(1.36641 0.400202 5.90139e-20)
(1.35959 0.391151 7.58309e-20)
(1.35019 0.380654 7.23234e-20)
(1.33955 0.369369 -7.93611e-20)
(1.32852 0.357745 1.30745e-19)
(1.31764 0.34607 3.73565e-20)
(1.30718 0.334517 4.57397e-20)
(1.29725 0.323182 -1.24801e-19)
(1.28783 0.312116 -9.2493e-20)
(1.27881 0.301293 3.27446e-20)
(1.27006 0.290706 -6.8797e-20)
(1.26131 0.280967 1.92337e-21)
(0.112541 0.0240366 -3.17736e-20)
(0.323959 0.0756334 1.34552e-19)
(0.52284 0.133667 -2.91058e-20)
(0.705839 0.192549 6.07825e-21)
(0.868828 0.248799 -1.22555e-19)
(1.00841 0.299358 -2.79256e-21)
(1.12267 0.341913 7.89834e-20)
(1.21148 0.375185 2.26496e-20)
(1.27641 0.398906 -1.24448e-19)
(1.32037 0.413655 -3.5647e-20)
(1.34702 0.420602 -3.00127e-19)
(1.36024 0.421225 3.05342e-20)
(1.36369 0.417053 2.16671e-19)
(1.3605 0.409487 -2.084e-19)
(1.35315 0.399692 -1.29747e-19)
(1.34347 0.388561 -1.12613e-19)
(1.33272 0.376735 4.34872e-20)
(1.3217 0.364643 -1.66279e-19)
(1.3109 0.352556 8.23176e-20)
(1.30057 0.340636 -8.6104e-20)
(1.2908 0.32897 9.1993e-20)
(1.28154 0.317601 7.12833e-20)
(1.2727 0.306494 2.7261e-20)
(1.26413 0.295641 -4.03282e-20)
(1.25553 0.285702 2.49121e-21)
(0.115423 0.0264876 -1.93418e-19)
(0.330908 0.0823003 6.02245e-20)
(0.532257 0.143759 2.24472e-21)
(0.716236 0.205227 9.31957e-20)
(0.878884 0.263189 7.45854e-21)
(1.01707 0.314623 1.02318e-19)
(1.12921 0.357325 -4.99952e-20)
(1.21552 0.390175 2.20076e-19)
(1.2779 0.413083 -1.50372e-19)
(1.3195 0.426803 2.4046e-19)
(1.34414 0.43265 1.99305e-19)
(1.35578 0.432204 2.32819e-19)
(1.35808 0.427056 -1.68674e-19)
(1.35413 0.418635 1.74472e-19)
(1.34632 0.408107 9.87158e-21)
(1.33642 0.396353 -1.4474e-19)
(1.3256 0.383993 1.70687e-20)
(1.31463 0.371438 8.33108e-20)
(1.30394 0.358943 -4.98936e-20)
(1.29376 0.346658 -7.3783e-20)
(1.28416 0.334662 -1.28578e-19)
(1.27508 0.322991 1.0199e-19)
(1.26642 0.311599 -4.42395e-20)
(1.25804 0.300479 -1.06329e-20)
(1.24959 0.290348 -1.67534e-19)
(0.118207 0.0290207 2.86471e-19)
(0.337555 0.0891451 -7.18479e-20)
(0.54117 0.154059 5.96749e-20)
(0.725941 0.218092 -1.77435e-19)
(0.888097 0.277711 -4.17656e-20)
(1.02478 0.329947 -4.49795e-20)
(1.13475 0.372722 -9.93522e-20)
(1.21857 0.405084 -4.00595e-19)
(1.27846 0.427134 1.75039e-19)
(1.31778 0.439797 -8.1537e-20)
(1.34052 0.444532 -1.99441e-19)
(1.3507 0.443017 -5.47953e-20)
(1.35195 0.436902 5.54702e-20)
(1.34732 0.427638 -1.54739e-19)
(1.33913 0.416388 9.54973e-20)
(1.32906 0.40402 8.19315e-21)
(1.31822 0.391134 4.85029e-21)
(1.30732 0.378122 -1.62894e-20)
(1.29677 0.365223 1.6786e-19)
(1.28675 0.352576 -1.07712e-21)
(1.27733 0.340251 3.305e-19)
(1.26846 0.328281 -1.08752e-19)
(1.26 0.316606 -1.10763e-19)
(1.2518 0.305225 1.41678e-19)
(1.24346 0.294899 1.40104e-19)
(0.120886 0.0316312 -4.50512e-21)
(0.343885 0.0961544 1.73152e-19)
(0.54956 0.164545 -1.88582e-20)
(0.734939 0.231116 1.43531e-19)
(0.896456 0.292334 -2.4127e-20)
(1.03155 0.3453 -8.91557e-20)
(1.13931 0.388074 4.44238e-21)
(1.22066 0.419889 2.91659e-19)
(1.2781 0.441036 -2.1713e-20)
(1.31525 0.452619 -1.5994e-19)
(1.33619 0.456233 1.41436e-19)
(1.34501 0.453653 -5.96225e-20)
(1.34531 0.446581 5.57744e-20)
(1.34008 0.436486 2.0756e-19)
(1.33158 0.424527 -5.90537e-20)
(1.32139 0.411556 4.70014e-20)
(1.31057 0.398151 -6.62873e-20)
(1.29977 0.384687 -1.64981e-19)
(1.28937 0.371388 1.67693e-20)
(1.27954 0.358381 -7.39391e-20)
(1.27033 0.34573 -5.7025e-20)
(1.26166 0.333462 -5.10568e-21)
(1.25342 0.321511 2.53474e-19)
(1.24542 0.309896 -5.78911e-21)
(1.23721 0.299342 3.21224e-20)
(0.123454 0.0343143 -2.28822e-19)
(0.349882 0.103314 -2.35261e-20)
(0.557409 0.175196 1.0216e-19)
(0.743214 0.244274 -1.40928e-19)
(0.903951 0.307028 3.19957e-20)
(1.03736 0.36065 8.95462e-20)
(1.14289 0.403354 4.7425e-21)
(1.22179 0.434565 -2.73924e-19)
(1.27686 0.454771 1.08841e-19)
(1.31192 0.465252 -8.86533e-20)
(1.33117 0.46774 1.69579e-19)
(1.33873 0.4641 3.56126e-20)
(1.33818 0.456082 1.91063e-19)
(1.33244 0.445169 -9.84937e-20)
(1.32368 0.432514 1.63668e-20)
(1.31342 0.41895 3.61191e-20)
(1.30265 0.405036 -3.30764e-20)
(1.29199 0.391126 4.80972e-20)
(1.28176 0.377431 9.64662e-20)
(1.27214 0.364067 2.92773e-19)
(1.26314 0.351092 -1.6347e-19)
(1.2547 0.338529 -6.03261e-20)
(1.24668 0.326303 -1.55415e-19)
(1.2389 0.314457 -7.55226e-20)
(1.23089 0.303691 -1.09134e-19)
(0.125904 0.0370648 1.61073e-19)
(0.355533 0.11061 3.0353e-20)
(0.564701 0.18599 -1.5443e-19)
(0.750752 0.257537 1.81211e-20)
(0.910576 0.321765 -8.63764e-20)
(1.04223 0.375969 3.88006e-22)
(1.1455 0.418535 6.65223e-20)
(1.22198 0.449086 1.5938e-19)
(1.27476 0.468315 -8.48753e-20)
(1.30782 0.477678 6.77948e-20)
(1.32549 0.479037 -1.60564e-19)
(1.33188 0.474345 -2.32956e-19)
(1.33057 0.465394 -2.94664e-19)
(1.32439 0.453678 -1.27874e-19)
(1.31543 0.44034 4.94644e-20)
(1.30515 0.426194 2.24901e-20)
(1.29448 0.411778 3.28806e-19)
(1.28397 0.397429 -6.19738e-20)
(1.27394 0.383342 1.42247e-20)
(1.26454 0.369625 -1.09325e-19)
(1.25577 0.35633 1.22464e-19)
(1.24757 0.343474 5.14145e-20)
(1.23979 0.330976 1.03819e-19)
(1.23224 0.318898 -2.3708e-20)
(1.22445 0.307925 -3.8067e-20)
(0.12823 0.0398772 -1.53859e-19)
(0.360824 0.118027 -4.50205e-20)
(0.571422 0.196904 1.26195e-19)
(0.757543 0.270879 -3.95385e-19)
(0.916326 0.336513 -9.06388e-20)
(1.04615 0.391228 3.14418e-20)
(1.14715 0.433588 -5.52582e-20)
(1.22125 0.46343 1.24256e-19)
(1.2718 0.481651 2.57611e-20)
(1.30296 0.48988 1.26969e-19)
(1.31915 0.490112 2.21716e-19)
(1.32449 0.484378 3.3959e-19)
(1.3225 0.474508 1.47181e-19)
(1.31595 0.462003 -8.34186e-20)
(1.30686 0.447996 3.30813e-20)
(1.2966 0.433279 -3.16115e-20)
(1.28605 0.418371 -1.93904e-19)
(1.27573 0.403589 1.87822e-19)
(1.26591 0.389115 -3.38227e-19)
(1.25674 0.375048 3.30303e-20)
(1.24822 0.361435 -4.28376e-20)
(1.24027 0.34829 8.15482e-20)
(1.23275 0.335524 -9.72602e-20)
(1.22545 0.323214 -1.61543e-20)
(1.21788 0.312038 1.05947e-19)
(0.130425 0.0427457 -2.25863e-19)
(0.365743 0.12555 1.66995e-20)
(0.577559 0.207915 5.35483e-20)
(0.763577 0.284271 2.46327e-19)
(0.921198 0.351244 2.99641e-19)
(1.04912 0.406396 1.61793e-19)
(1.14785 0.448487 -1.51621e-19)
(1.21962 0.477573 -2.52726e-19)
(1.26802 0.494757 -2.11742e-19)
(1.29738 0.501844 1.9885e-20)
(1.31218 0.500951 -2.12735e-19)
(1.31656 0.494185 -5.8911e-20)
(1.31398 0.483411 -9.06656e-20)
(1.30713 0.470134 1.7867e-19)
(1.29796 0.455472 7.50142e-20)
(1.28777 0.440196 -2.75699e-19)
(1.27737 0.424805 1.28002e-19)
(1.26725 0.409596 6.26602e-20)
(1.25768 0.394741 2.30552e-19)
(1.24875 0.380329 1.33085e-19)
(1.24049 0.366403 -1.48859e-19)
(1.23281 0.352971 -1.68458e-19)
(1.22556 0.339939 1.05224e-19)
(1.21851 0.3274 1.20983e-19)
(1.21118 0.316025 -4.01575e-20)
(0.132484 0.0456644 1.61977e-19)
(0.37028 0.133161 6.48646e-21)
(0.583101 0.219 -2.87013e-19)
(0.768847 0.297685 -4.39701e-21)
(0.925191 0.365927 -4.29848e-19)
(1.05117 0.421444 1.11038e-20)
(1.14763 0.463206 -6.87493e-20)
(1.21711 0.491491 1.53724e-19)
(1.26343 0.507615 2.2392e-19)
(1.29109 0.513551 5.56406e-20)
(1.30461 0.511539 4.53066e-20)
(1.30812 0.503755 -1.03227e-19)
(1.30502 0.492094 1.20125e-20)
(1.29795 0.478061 1.19346e-19)
(1.28875 0.462758 -1.16074e-19)
(1.27866 0.446936 1.43248e-19)
(1.26845 0.431071 -1.19777e-19)
(1.25856 0.415444 -1.1598e-19)
(1.24923 0.400213 -1.26183e-19)
(1.24058 0.38546 -1.44372e-19)
(1.23259 0.371224 1.22472e-19)
(1.22519 0.35751 1.56807e-19)
(1.21822 0.344217 -3.56497e-20)
(1.21144 0.331452 -3.08752e-20)
(1.20435 0.319882 -1.82502e-20)
(0.134403 0.048627 -2.88759e-19)
(0.374426 0.140845 1.67131e-19)
(0.588039 0.230135 2.6748e-19)
(0.773349 0.311092 2.61873e-19)
(0.928309 0.380533 1.67781e-19)
(1.05229 0.436345 -1.98088e-19)
(1.14648 0.477718 1.64206e-19)
(1.21373 0.505163 5.63477e-21)
(1.25806 0.520205 -1.80381e-19)
(1.28411 0.524987 -2.07425e-19)
(1.29645 0.521863 2.66929e-19)
(1.29918 0.513077 -7.8752e-20)
(1.29565 0.500546 -1.48772e-19)
(1.28841 0.485774 -1.0036e-19)
(1.27923 0.469846 -7.67559e-21)
(1.26928 0.45349 8.8834e-20)
(1.25928 0.43716 1.12269e-19)
(1.24964 0.421122 -5.07147e-20)
(1.24059 0.405522 1.96195e-19)
(1.23221 0.390433 2.17426e-20)
(1.22451 0.375891 1.49982e-20)
(1.2174 0.361899 -9.89963e-20)
(1.21073 0.34835 -1.32969e-19)
(1.20424 0.335364 2.25706e-20)
(1.19739 0.323605 -1.12743e-19)
(0.136176 0.051627 2.49079e-19)
(0.37817 0.148585 1.1839e-20)
(0.592365 0.241295 -3.22382e-19)
(0.777078 0.324465 4.93645e-21)
(0.930553 0.395032 -1.27296e-19)
(1.0525 0.451068 1.60662e-19)
(1.14444 0.491998 1.83975e-19)
(1.2095 0.518565 -1.31746e-19)
(1.25194 0.532509 -1.31461e-19)
(1.27647 0.536136 1.07949e-19)
(1.28772 0.531911 -1.82502e-19)
(1.28976 0.522138 2.67308e-19)
(1.28587 0.508757 6.20865e-20)
(1.27852 0.493264 -2.50416e-20)
(1.26941 0.476726 3.07057e-19)
(1.25964 0.459848 -7.78666e-20)
(1.24988 0.443064 -8.43214e-20)
(1.24051 0.426623 4.44366e-20)
(1.23175 0.41066 -9.5911e-21)
(1.22366 0.395241 -1.62836e-19)
(1.21626 0.380399 -8.5801e-20)
(1.20945 0.366133 -8.37548e-20)
(1.2031 0.352332 1.59461e-19)
(1.1969 0.339131 -2.31989e-20)
(1.19031 0.327188 1.92199e-19)
(0.1378 0.0546578 1.30393e-19)
(0.381506 0.156364 -5.13282e-19)
(0.596073 0.252456 6.73638e-20)
(0.780034 0.337776 -2.49374e-19)
(0.931928 0.409394 4.59767e-19)
(1.05181 0.465588 -2.03082e-19)
(1.14151 0.50602 1.20528e-19)
(1.20445 0.531678 -4.85221e-20)
(1.24507 0.544509 1.35197e-19)
(1.26819 0.546982 -1.01831e-19)
(1.27845 0.541668 4.14694e-20)
(1.27988 0.530927 7.23108e-20)
(1.2757 0.516714 1.18571e-19)
(1.2683 0.500519 -3.15245e-19)
(1.2593 0.483388 1.33775e-19)
(1.24974 0.466002 8.18526e-20)
(1.24025 0.448775 -3.60812e-20)
(1.23118 0.431939 -5.8395e-20)
(1.22271 0.41562 -2.84719e-20)
(1.21493 0.399877 5.42422e-20)
(1.20784 0.384739 2.93159e-20)
(1.20135 0.370205 2.16167e-19)
(1.19532 0.356158 -8.78653e-20)
(1.18943 0.342747 -1.75248e-20)
(1.18312 0.330626 -1.54963e-19)
(0.13927 0.0577127 -1.11861e-19)
(0.384428 0.164164 8.68535e-21)
(0.599158 0.263595 2.05728e-19)
(0.782216 0.350995 -1.56679e-19)
(0.932443 0.423591 1.09848e-19)
(1.05022 0.479875 1.02675e-19)
(1.13772 0.519761 -2.03064e-19)
(1.1986 0.544478 3.3956e-20)
(1.23749 0.556186 6.15897e-21)
(1.25928 0.55751 2.85768e-19)
(1.26864 0.551123 1.78097e-20)
(1.26955 0.539433 -2.7132e-19)
(1.26516 0.524409 -2.39835e-19)
(1.25776 0.50753 2.36562e-19)
(1.24891 0.489822 -3.01435e-19)
(1.23959 0.471941 5.59008e-20)
(1.23039 0.454282 -1.49325e-20)
(1.22163 0.437062 3.99155e-20)
(1.21348 0.420394 1.03836e-19)
(1.20602 0.404333 -9.25489e-20)
(1.19926 0.388906 1.47991e-19)