/*--------------------------------*- C++ -*----------------------------------*\
  =========                 |
  \\      /  F ield         | OpenFOAM: The Open Source CFD Toolbox
   \\    /   O peration     | Website:  https://openfoam.org
    \\  /    A nd           | Version:  7
     \\/     M anipulation  |
\*---------------------------------------------------------------------------*/
FoamFile
{
    version     2.0;
    format      ascii;
    class       volVectorField;
    location    "180";
    object      U;
}
// * * * * * * * * * * * * * * * * * * * * * * * * * * * * * * * * * * * * * //

dimensions      [0 1 -1 0 0 0 0];

internalField   nonuniform List<vector> 
4575
(
(0.735241 0.479242 -6.86847e-23)
(0.719366 0.320131 -2.96237e-23)
(0.730079 0.1027 5.09521e-23)
(0.760862 -0.11329 7.04777e-24)
(0.799834 -0.280351 -2.76839e-23)
(0.837008 -0.380831 9.87626e-23)
(0.866149 -0.42631 3.91855e-23)
(0.879292 -0.447293 3.37461e-24)
(0.868343 -0.467918 1.66703e-23)
(0.833791 -0.481199 -1.05878e-23)
(0.788996 -0.453844 5.43106e-23)
(0.753206 -0.359388 9.53039e-24)
(0.737903 -0.204178 1.80671e-23)
(0.745512 -0.0238082 -9.19678e-23)
(0.77205 0.139681 -4.54212e-23)
(0.807705 0.25909 -2.33384e-24)
(0.8353 0.334396 -2.11233e-23)
(0.840175 0.382461 -3.00075e-23)
(0.81987 0.408703 3.08019e-23)
(0.787412 0.397172 -2.90136e-23)
(0.75952 0.326611 8.96462e-24)
(0.749041 0.201623 1.2232e-23)
(0.758433 0.0489538 1.28433e-23)
(0.782855 -0.0935515 -1.42138e-23)
(0.737516 0.482122 -8.45302e-23)
(0.722819 0.320643 -3.18094e-22)
(0.734333 0.101045 1.41849e-22)
(0.765496 -0.116272 -1.96661e-22)
(0.804212 -0.283645 6.83815e-23)
(0.840429 -0.383689 1.34935e-22)
(0.868357 -0.428103 -7.6285e-23)
(0.880513 -0.447347 4.75154e-23)
(0.868916 -0.46597 -2.62932e-23)
(0.833825 -0.477907 3.09968e-23)
(0.788259 -0.450599 7.07894e-23)
(0.751641 -0.357435 -4.5195e-23)
(0.73593 -0.204012 9.7834e-23)
(0.743666 -0.0252797 -9.33191e-23)
(0.770693 0.13719 1.14201e-22)
(0.806838 0.256641 7.21685e-23)
(0.834705 0.333147 3.88265e-23)
(0.839731 0.382964 2.46959e-23)
(0.819601 0.410524 -9.10062e-23)
(0.787401 0.399261 -5.38216e-24)
(0.759665 0.327976 -1.29228e-22)
(0.749082 0.201764 2.66129e-23)
(0.758255 0.0479615 -5.34437e-23)
(0.782746 -0.0949323 -1.20603e-22)
(0.739986 0.485051 1.45726e-22)
(0.726433 0.321337 1.62678e-22)
(0.738721 0.0996389 4.52326e-23)
(0.770246 -0.119002 2.51217e-22)
(0.8087 -0.286713 -4.06053e-22)
(0.843953 -0.386362 9.40845e-23)
(0.870658 -0.429766 -1.21438e-22)
(0.881833 -0.447315 -6.74468e-23)
(0.869609 -0.463962 -1.81729e-22)
(0.834018 -0.474575 1.27344e-22)
(0.787718 -0.447355 -1.87599e-22)
(0.750268 -0.355555 2.17534e-23)
(0.734124 -0.203992 9.22304e-23)
(0.741965 -0.0269291 -1.33991e-22)
(0.769454 0.134539 2.21918e-22)
(0.806068 0.254081 -1.12553e-22)
(0.834207 0.331831 2.08671e-22)
(0.839398 0.383423 1.12324e-22)
(0.819461 0.412323 7.79451e-23)
(0.787535 0.401364 4.25462e-25)
(0.759954 0.329409 1.99007e-22)
(0.749249 0.202008 -2.54044e-22)
(0.758175 0.0470682 4.96078e-23)
(0.782718 -0.0962494 1.75012e-22)
(0.742642 0.488035 -3.28074e-22)
(0.730206 0.322221 3.31927e-22)
(0.743242 0.0984888 -5.22851e-22)
(0.775108 -0.121477 -6.75842e-22)
(0.813296 -0.289554 1.04192e-21)
(0.847581 -0.388852 -6.33935e-22)
(0.873053 -0.431302 2.2224e-22)
(0.883254 -0.447202 2.23042e-22)
(0.870424 -0.461901 -2.42102e-22)
(0.834371 -0.471208 3.59701e-22)
(0.787375 -0.444111 -9.72649e-23)
(0.749091 -0.353744 2.54342e-22)
(0.732487 -0.204112 -1.50056e-22)
(0.740406 -0.0287516 5.41615e-22)
(0.768333 0.131732 5.1354e-23)
(0.805395 0.251411 -1.23713e-22)
(0.833806 0.330445 -2.45532e-22)
(0.839174 0.383835 -2.62436e-22)
(0.81945 0.414097 -4.35902e-23)
(0.787815 0.403483 3.43425e-23)
(0.760387 0.330911 -8.62435e-23)
(0.749545 0.20236 3.2079e-22)
(0.758198 0.0462766 -3.2741e-23)
(0.782769 -0.0975023 5.76023e-23)
(0.745478 0.491079 3.25091e-22)
(0.734132 0.323302 -1.45967e-22)
(0.747891 0.0976015 4.62485e-23)
(0.78008 -0.123693 8.81974e-23)
(0.817999 -0.292166 -4.75898e-22)
(0.851312 -0.391159 8.36178e-22)
(0.875544 -0.432712 2.17538e-22)
(0.884777 -0.447015 2.36396e-23)
(0.87136 -0.459793 1.67917e-22)
(0.834881 -0.467812 -3.32547e-22)
(0.787232 -0.440869 -3.1638e-23)
(0.748113 -0.351998 -2.87564e-22)
(0.731022 -0.204367 -3.01496e-22)
(0.738989 -0.030742 -5.2571e-22)
(0.767326 0.128773 -4.35222e-22)
(0.804816 0.248632 5.04553e-22)
(0.8335 0.328986 2.06913e-22)
(0.83906 0.384196 4.25251e-23)
(0.819568 0.415842 6.70611e-23)
(0.78824 0.405615 -8.47227e-23)
(0.760968 0.332482 3.32549e-22)
(0.749972 0.202821 -2.42932e-22)
(0.758326 0.0455894 2.05583e-22)
(0.782903 -0.09869 2.21253e-22)
(0.748486 0.494189 -3.61973e-22)
(0.738205 0.324587 -7.77461e-22)
(0.752665 0.0969836 -5.92131e-24)
(0.785158 -0.125646 5.66687e-22)
(0.822807 -0.29455 -5.08134e-23)
(0.855149 -0.393283 -1.35542e-22)
(0.878131 -0.433999 -6.0643e-22)
(0.886401 -0.446757 1.53949e-23)
(0.872418 -0.457644 4.11859e-23)
(0.835549 -0.464391 -4.16812e-22)
(0.787287 -0.437629 2.14989e-22)
(0.747338 -0.350312 -7.04667e-23)
(0.729729 -0.20475 4.87594e-23)
(0.737714 -0.0328951 6.21256e-22)
(0.766431 0.125665 -1.50535e-23)
(0.80433 0.245743 -2.05213e-22)
(0.833288 0.327451 -9.47245e-23)
(0.839054 0.384503 2.90285e-22)
(0.819817 0.417556 5.41799e-24)
(0.788813 0.407759 -7.78804e-24)
(0.761696 0.334125 1.57908e-22)
(0.750533 0.203395 -5.94406e-22)
(0.758561 0.0450094 -1.69846e-22)
(0.78312 -0.0998116 -5.3141e-22)
(0.751658 0.497367 1.05128e-22)
(0.742422 0.326084 1.63989e-22)
(0.75756 0.0966415 3.66694e-22)
(0.79034 -0.127331 -8.45103e-22)
(0.827718 -0.296703 1.80031e-21)
(0.859091 -0.395224 5.11188e-22)
(0.880815 -0.435166 -3.91574e-23)
(0.888127 -0.446434 -4.58003e-22)
(0.873598 -0.455461 1.89239e-22)
(0.836371 -0.460952 3.37697e-22)
(0.787542 -0.434393 3.02495e-22)
(0.746769 -0.348682 -6.46308e-23)
(0.72861 -0.205255 -3.21328e-22)
(0.736579 -0.0352049 -2.2613e-22)
(0.765646 0.12241 -1.1217e-23)
(0.803935 0.242744 -3.71329e-22)
(0.833169 0.325838 3.89026e-23)
(0.839156 0.384751 -1.1754e-22)
(0.820195 0.419235 -2.30031e-22)
(0.789533 0.409915 1.52672e-22)
(0.762574 0.33584 -2.83571e-22)
(0.75123 0.204084 5.84625e-22)
(0.758908 0.0445392 4.67905e-23)
(0.78342 -0.100866 5.21884e-22)
(0.754988 0.500618 -4.33065e-22)
(0.746775 0.327796 -4.24158e-22)
(0.76257 0.0965809 1.15343e-21)
(0.795621 -0.128745 5.00655e-22)
(0.832729 -0.298625 -1.4358e-21)
(0.863139 -0.396982 3.13153e-22)
(0.883596 -0.436215 -6.14255e-23)
(0.889955 -0.44605 9.79627e-22)
(0.874899 -0.453251 -1.36345e-21)
(0.837346 -0.4575 2.37268e-22)
(0.787995 -0.431161 -5.24602e-22)
(0.746406 -0.347104 8.79566e-22)
(0.727667 -0.205875 6.3469e-23)
(0.735583 -0.0376656 4.5421e-22)
(0.764968 0.119013 1.69421e-22)
(0.803629 0.239635 -4.09106e-23)
(0.833141 0.324144 9.17499e-23)
(0.839364 0.384937 6.10068e-23)
(0.820703 0.420876 2.80736e-22)
(0.790401 0.412081 -3.25471e-22)
(0.763603 0.337627 -3.00513e-22)
(0.752066 0.204889 1.23218e-22)
(0.759367 0.0441817 -9.02977e-22)
(0.783806 -0.101852 1.95039e-22)
(0.758466 0.503943 7.70636e-22)
(0.751259 0.32973 4.03711e-22)
(0.767691 0.0968076 -2.12017e-21)
(0.800998 -0.129885 9.62089e-23)
(0.837838 -0.300316 -5.04824e-23)
(0.867292 -0.398559 -6.10772e-22)
(0.886476 -0.437146 1.45085e-22)
(0.891883 -0.445611 -1.97087e-22)
(0.87632 -0.451019 2.42141e-22)
(0.838472 -0.454039 -7.46448e-22)
(0.788643 -0.427935 5.41973e-22)
(0.746252 -0.345573 1.13658e-23)
(0.7269 -0.206603 -7.53247e-22)
(0.734724 -0.040271 2.10323e-22)
(0.764394 0.115477 1.28988e-21)
(0.803409 0.236417 -7.08872e-23)
(0.8332 0.322365 -3.97152e-22)
(0.839677 0.385055 5.12634e-22)
(0.821339 0.422476 -1.8488e-22)
(0.791416 0.414254 -2.02271e-22)
(0.764782 0.339487 4.58042e-22)
(0.753043 0.205814 1.28406e-22)
(0.759943 0.0439398 1.29396e-21)
(0.784278 -0.102768 -2.4761e-22)
(0.762085 0.507344 -1.43036e-21)
(0.755866 0.33189 2.44081e-22)
(0.772917 0.0973269 2.24761e-21)
(0.806466 -0.130747 -7.8714e-22)
(0.843041 -0.301774 5.49002e-22)
(0.87155 -0.399954 1.925e-22)
(0.889455 -0.437963 -9.57407e-23)
(0.89391 -0.445121 -4.04931e-22)
(0.877861 -0.44877 -2.29793e-22)
(0.839745 -0.450575 5.91594e-22)
(0.789483 -0.424716 1.22849e-22)
(0.746307 -0.344084 4.35279e-22)
(0.726311 -0.207431 -7.43119e-22)
(0.734001 -0.043015 2.79098e-22)
(0.763922 0.111805 -6.11377e-22)
(0.803273 0.233088 2.9462e-22)
(0.833346 0.320499 -1.09925e-22)
(0.840092 0.385103 6.47553e-22)
(0.822103 0.42403 -8.85467e-22)
(0.792577 0.416434 -4.58394e-22)
(0.766113 0.34142 6.71377e-23)
(0.754162 0.206859 -1.33253e-22)
(0.760638 0.0438162 -3.93487e-22)
(0.784837 -0.103613 -2.93482e-22)
(0.760589 0.334279 1.05888e-21)
(0.778242 0.0981437 4.71605e-22)
(0.81202 -0.131327 9.71868e-22)
(0.848335 -0.302999 -1.34425e-21)
(0.875911 -0.401168 8.05059e-22)
(0.892532 -0.438666 -8.64323e-22)
(0.896035 -0.444584 8.46075e-23)
(0.87952 -0.446512 2.19311e-22)
(0.841164 -0.447112 -1.80189e-22)
(0.790513 -0.421505 -9.66588e-23)
(0.746572 -0.342634 -6.25526e-22)
(0.725901 -0.208352 4.43076e-22)
(0.733413 -0.0458909 -1.05051e-22)
(0.763549 0.108001 -2.35261e-22)
(0.803218 0.229649 -5.801e-22)
(0.833576 0.318543 -8.39123e-23)
(0.840609 0.385076 -2.0151e-23)
(0.822994 0.425536 7.01582e-22)
(0.793884 0.418618 8.73594e-22)
(0.767595 0.343425 6.38941e-23)
(0.755426 0.208028 -5.74898e-23)
(0.761453 0.0438137 -5.58725e-22)
(0.785485 -0.104384 1.4156e-22)
(0.76542 0.336899 -7.88145e-22)
(0.78366 0.0992625 7.40261e-22)
(0.817656 -0.131622 -1.65216e-21)
(0.853715 -0.30399 -6.75704e-23)
(0.880375 -0.402202 9.5149e-22)
(0.895708 -0.439257 -4.81658e-24)
(0.898256 -0.444004 1.90746e-22)
(0.881296 -0.444249 5.14081e-23)
(0.842725 -0.443655 7.45653e-22)
(0.791728 -0.418303 -8.41774e-23)
(0.747047 -0.341217 -3.07109e-22)
(0.725671 -0.209358 -1.55445e-22)
(0.732957 -0.0488914 8.40682e-23)
(0.763272 0.104069 -5.12369e-22)
(0.80324 0.226099 -2.1224e-22)
(0.833886 0.316494 -6.05128e-23)
(0.841225 0.384969 -8.99308e-22)
(0.82401 0.42699 9.5821e-22)
(0.795335 0.420805 -1.38926e-21)
(0.769228 0.345504 -5.11833e-22)
(0.756835 0.20932 4.86497e-22)
(0.762393 0.0439351 -5.21258e-22)
(0.786223 -0.10508 2.49403e-22)
(0.770351 0.339754 4.51148e-22)
(0.789162 0.100687 1.40281e-21)
(0.823368 -0.131629 1.4182e-22)
(0.859179 -0.304747 -1.04471e-21)
(0.884939 -0.403056 8.57713e-22)
(0.898982 -0.439736 -1.21394e-21)
(0.900572 -0.443384 6.94341e-22)
(0.883185 -0.441986 -8.8582e-22)
(0.844425 -0.44021 1.50819e-22)
(0.793122 -0.415113 9.25795e-22)
(0.74773 -0.33983 -1.07869e-21)
(0.72562 -0.210441 6.75564e-23)
(0.732633 -0.0520097 -5.96753e-22)
(0.763089 0.100012 1.31247e-21)
(0.803338 0.22244 -3.0795e-23)
(0.834274 0.314348 -3.87239e-22)
(0.841937 0.384779 3.51016e-22)
(0.825148 0.428388 7.30529e-23)
(0.796928 0.422991 -4.18373e-23)
(0.77101 0.347654 6.43252e-22)
(0.75839 0.210737 -8.04942e-22)
(0.763457 0.0441833 1.20528e-21)
(0.787052 -0.105698 -8.32961e-23)
(0.775372 0.342844 4.09271e-21)
(0.794741 0.102422 -9.53475e-22)
(0.82915 -0.131345 2.12479e-22)
(0.864722 -0.305269 2.73025e-22)
(0.889601 -0.403731 -3.1624e-22)
(0.902356 -0.440105 -1.42123e-21)
(0.902981 -0.442728 -2.72539e-22)
(0.885186 -0.43973 1.8464e-22)
(0.846261 -0.436779 -4.36874e-22)
(0.79469 -0.411935 -1.11129e-21)
(0.748619 -0.33847 8.38027e-22)
(0.72575 -0.211593 4.87739e-22)
(0.732438 -0.0552383 1.33229e-21)
(0.762996 0.0958345 -5.11964e-22)
(0.803508 0.21867 1.11028e-22)
(0.834737 0.312103 1.68506e-22)
(0.842744 0.384501 -3.32924e-22)
(0.826408 0.429725 2.54799e-23)
(0.798662 0.425174 3.07771e-22)
(0.772942 0.349875 -5.49089e-22)
(0.760092 0.212281 8.27343e-22)
(0.76465 0.0445608 -6.74989e-22)
(0.787973 -0.106237 1.13719e-22)
(0.780473 0.346171 -5.11406e-21)
(0.80039 0.10447 -4.82778e-21)
(0.834998 -0.130766 2.96332e-21)
(0.870339 -0.305556 1.06184e-21)
(0.894359 -0.404227 -2.1892e-21)
(0.905828 -0.440365 2.57013e-21)
(0.90548 -0.442039 -6.20489e-23)
(0.887295 -0.437485 4.73055e-22)
(0.84823 -0.433369 -2.67591e-22)
(0.796427 -0.408771 2.15932e-22)
(0.749712 -0.337131 1.91694e-22)
(0.726062 -0.212807 2.117e-22)
(0.732373 -0.0585697 -6.91234e-22)
(0.76299 0.0915401 -4.99067e-22)
(0.803746 0.21479 7.49657e-22)
(0.835271 0.309757 4.53548e-22)
(0.843641 0.384131 1.33438e-22)
(0.827785 0.430998 -1.23678e-22)
(0.800534 0.427352 1.33526e-21)
(0.775021 0.352166 5.6195e-22)
(0.761941 0.213952 -3.39468e-22)
(0.765971 0.0450702 7.19422e-22)
(0.788987 -0.106694 -4.81055e-22)
(0.785644 0.349734 8.46687e-22)
(0.806099 0.106834 2.77652e-21)
(0.840906 -0.12989 2.5456e-21)
(0.876025 -0.305607 -3.18665e-22)
(0.89921 -0.404546 1.0119e-21)
(0.909398 -0.440516 -1.4586e-21)
(0.908068 -0.441319 -9.40889e-22)
(0.889509 -0.435256 1.00502e-21)
(0.85033 -0.429982 -1.17889e-22)
(0.798325 -0.405623 6.5863e-22)
(0.751004 -0.335812 -1.31601e-21)
(0.726555 -0.214073 -3.66253e-22)
(0.732436 -0.061996 -8.99044e-23)
(0.76307 0.0871334 4.57203e-22)
(0.804049 0.2108 -2.92137e-22)
(0.835873 0.307305 -5.24247e-22)
(0.844627 0.383665 4.75367e-22)
(0.829278 0.432204 -3.24364e-22)
(0.802542 0.429522 -5.24437e-22)
(0.777246 0.354526 -8.25577e-22)
(0.763937 0.215751 1.32508e-22)
(0.767423 0.0457142 -7.07386e-22)
(0.790095 -0.107067 7.14178e-22)
(0.790876 0.353533 -1.87966e-21)
(0.811858 0.109516 9.01332e-22)
(0.846866 -0.128714 -8.64216e-22)
(0.881776 -0.305422 -4.72177e-22)
(0.90415 -0.404688 2.08007e-22)
(0.913065 -0.440558 -2.04091e-21)
(0.910743 -0.440572 1.47425e-22)
(0.891824 -0.433048 5.69465e-22)
(0.852557 -0.426623 -5.75242e-22)
(0.800379 -0.402493 1.14274e-21)
(0.75249 -0.334508 -1.11136e-21)
(0.727229 -0.215385 7.40536e-22)
(0.732626 -0.0655094 8.55895e-22)
(0.763231 0.0826186 -1.1769e-22)
(0.804413 0.2067 4.38443e-22)
(0.83654 0.304746 -1.31165e-23)
(0.845698 0.383099 8.73248e-23)
(0.830883 0.433337 -5.03475e-22)
(0.804681 0.43168 -1.94335e-22)
(0.779615 0.356952 -7.25153e-22)
(0.766079 0.217678 -8.22348e-22)
(0.769008 0.0464954 4.41899e-22)
(0.7913 -0.107352 1.26387e-21)
(0.796157 0.357566 2.2512e-22)
(0.81766 0.112518 -3.61749e-21)
(0.852873 -0.127236 2.49832e-21)
(0.887587 -0.305001 5.41113e-22)
(0.909177 -0.404654 2.46883e-21)
(0.916829 -0.440491 4.69115e-22)
(0.913504 -0.439798 -1.33677e-21)
(0.894236 -0.430865 -3.8443e-22)
(0.854907 -0.423296 -4.74195e-22)
(0.802581 -0.399382 -3.10856e-22)
(0.754165 -0.333218 2.12907e-22)
(0.728083 -0.216735 -5.23832e-22)
(0.732942 -0.0691018 3.26744e-22)
(0.763472 0.0780005 -8.86964e-22)
(0.804835 0.202491 5.0795e-23)
(0.837266 0.302076 -3.42464e-23)
(0.84685 0.382427 -7.1033e-22)
(0.832597 0.434394 5.92869e-22)
(0.80695 0.433824 5.98887e-22)
(0.782125 0.359443 -2.09955e-22)
(0.768366 0.219733 1.31105e-22)
(0.770725 0.0474159 1.06327e-21)
(0.792601 -0.107547 -2.01586e-21)
(0.801475 0.361831 -2.78396e-21)
(0.823493 0.115841 -8.42442e-22)
(0.85892 -0.125453 -2.86186e-21)
(0.893452 -0.304342 3.43662e-21)
(0.914285 -0.404444 -4.69521e-22)
(0.920687 -0.440317 -1.06485e-21)
(0.916347 -0.438999 1.11254e-21)
(0.896741 -0.428711 -5.53995e-22)
(0.857377 -0.420004 4.5543e-22)
(0.804926 -0.396291 1.35533e-21)
(0.756021 -0.331938 -6.38863e-22)
(0.729118 -0.218114 8.57072e-22)
(0.733384 -0.0727649 3.06078e-22)
(0.763789 0.0732839 -2.2586e-22)
(0.80531 0.198174 6.83286e-22)
(0.838049 0.299294 7.78514e-23)
(0.848079 0.381648 1.80863e-22)
(0.834415 0.435371 3.08338e-23)
(0.809345 0.43595 -2.82192e-22)
(0.784773 0.361997 -2.91579e-22)
(0.770798 0.221915 7.40704e-22)
(0.772576 0.0484778 -8.66942e-24)
(0.794 -0.107649 2.24808e-22)
(0.80682 0.366325 8.71791e-22)
(0.829347 0.119485 4.90417e-21)
(0.865 -0.123363 -5.88005e-21)
(0.899366 -0.303445 2.52744e-21)
(0.919472 -0.404059 -1.94416e-21)
(0.924639 -0.440034 7.50069e-22)
(0.919272 -0.438177 -6.10316e-22)
(0.899334 -0.426591 1.8607e-21)
(0.859964 -0.416752 -8.38893e-22)
(0.807408 -0.393222 -1.468e-21)
(0.758051 -0.330666 -2.3606e-22)
(0.73033 -0.219517 -2.73798e-23)
(0.733951 -0.0764902 8.12338e-22)
(0.76418 0.0684738 2.94207e-22)
(0.805835 0.193749 -1.45882e-22)
(0.838885 0.296396 -9.13346e-23)
(0.849383 0.380756 -5.89674e-22)
(0.836335 0.436264 5.78032e-23)
(0.811861 0.438055 5.8458e-22)
(0.787557 0.36461 4.28099e-22)
(0.773372 0.224224 3.23576e-22)
(0.774561 0.0496831 7.34384e-22)
(0.795499 -0.107655 9.88257e-23)
(0.81218 0.371045 -1.33078e-21)
(0.835213 0.123451 1.89646e-21)
(0.871106 -0.120965 -3.68054e-21)
(0.905325 -0.302309 1.86503e-21)
(0.924732 -0.403501 1.81402e-21)
(0.928684 -0.439644 1.5936e-21)
(0.922276 -0.437332 -2.07687e-22)
(0.90201 -0.424508 -1.53626e-21)
(0.862662 -0.413543 8.86625e-22)
(0.81002 -0.390177 -1.53189e-22)
(0.760245 -0.329401 -2.85316e-22)
(0.731717 -0.220936 5.00439e-22)
(0.734644 -0.0802692 -1.24743e-21)
(0.764643 0.0635757 -1.00102e-21)
(0.806407 0.189217 6.77103e-22)
(0.839768 0.293381 3.32862e-22)
(0.850756 0.379747 -1.67502e-22)
(0.838351 0.437068 -4.11427e-23)
(0.814494 0.440135 -1.27982e-21)
(0.790472 0.367282 7.58483e-22)
(0.776087 0.22666 -8.61778e-22)
(0.77668 0.0510339 3.69475e-22)
(0.797097 -0.107562 -1.34171e-21)
(0.817544 0.375986 1.27884e-21)
(0.841079 0.127739 1.36965e-21)
(0.877233 -0.118256 5.16285e-21)
(0.911322 -0.300934 1.71666e-22)
(0.93006 -0.40277 -2.00765e-23)
(0.932818 -0.439146 -2.11733e-21)
(0.925359 -0.436465 1.38467e-21)
(0.904764 -0.422466 2.14843e-22)
(0.865469 -0.410382 5.81417e-22)
(0.812757 -0.387156 5.75074e-23)
(0.762594 -0.328141 5.23167e-23)
(0.733277 -0.222365 -6.31863e-22)
(0.735462 -0.0840937 4.95139e-22)
(0.765175 0.0585951 2.04606e-22)
(0.80702 0.18458 -7.49569e-22)
(0.840695 0.290246 -8.13225e-23)
(0.852194 0.378617 6.69721e-22)
(0.84046 0.43778 -2.338e-22)
(0.817241 0.442187 2.20502e-22)
(0.793515 0.370008 1.50879e-22)
(0.77894 0.229221 2.63212e-21)
(0.778933 0.0525317 -2.35532e-21)
(0.798797 -0.107367 -1.8762e-22)
(0.822898 0.381144 -9.92039e-22)
(0.846936 0.132346 -7.85386e-22)
(0.883372 -0.115235 4.02757e-21)
(0.917352 -0.299318 -6.51148e-21)
(0.935452 -0.401867 -1.37617e-21)
(0.937039 -0.438539 -5.65826e-22)
(0.928518 -0.435575 -1.14343e-21)
(0.907593 -0.420467 -9.8502e-22)
(0.868377 -0.40727 6.44092e-22)
(0.815616 -0.38416 -1.1129e-21)
(0.765088 -0.326883 7.24479e-22)
(0.735004 -0.223798 6.7723e-23)
(0.736405 -0.0879552 2.02974e-22)
(0.765776 0.0535379 3.48396e-22)
(0.807672 0.179838 4.88936e-22)
(0.841662 0.28699 -7.73144e-22)
(0.853693 0.377364 -1.57466e-22)
(0.842656 0.438395 7.06352e-23)
(0.820096 0.444206 -4.04047e-22)
(0.796682 0.372786 -8.79637e-22)
(0.781928 0.231905 -4.55627e-22)
(0.78132 0.0541781 3.2894e-22)
(0.800598 -0.107067 1.60454e-21)
(0.828233 0.386512 3.48978e-22)
(0.852773 0.137271 2.01619e-21)
(0.889517 -0.111901 -1.4953e-21)
(0.92341 -0.297461 3.20377e-21)
(0.940902 -0.400793 1.83031e-21)
(0.941346 -0.437824 5.22762e-22)
(0.931752 -0.434663 1.03044e-21)
(0.91049 -0.418515 -9.74551e-22)
(0.871383 -0.404213 -1.26647e-22)
(0.81859 -0.381191 -8.01774e-22)
(0.767717 -0.325627 3.78874e-22)
(0.736892 -0.22523 -7.50083e-22)
(0.737475 -0.0918454 -7.34402e-23)
(0.766444 0.0484101 6.35421e-22)
(0.808359 0.174995 -7.81588e-22)
(0.842664 0.283611 8.05595e-24)
(0.855248 0.375983 6.11427e-22)
(0.844934 0.438909 -6.77155e-22)
(0.823054 0.446188 8.86074e-22)
(0.799968 0.375611 -2.28979e-22)
(0.785048 0.234712 1.81288e-21)
(0.783839 0.055974 -3.24547e-21)
(0.802502 -0.106659 1.86394e-21)
(0.833536 0.392083 6.18305e-21)
(0.858579 0.142513 -2.69278e-21)
(0.895663 -0.108253 -4.94503e-21)
(0.929491 -0.295362 -1.74524e-22)
(0.946405 -0.399548 -3.24888e-22)
(0.945734 -0.437001 -1.71888e-21)
(0.93506 -0.433728 -2.92794e-22)
(0.913451 -0.416612 -1.15466e-23)
(0.874481 -0.401213 9.08189e-22)
(0.821677 -0.37825 1.24982e-22)
(0.770471 -0.32437 4.32516e-22)
(0.738935 -0.226655 -1.00708e-21)
(0.73867 -0.0957563 5.45228e-22)
(0.767177 0.0432183 -4.89156e-22)
(0.809078 0.170051 7.7408e-22)
(0.843696 0.280106 -1.97668e-22)
(0.856853 0.37447 1.09407e-22)
(0.84729 0.439318 -1.30548e-22)
(0.826111 0.44813 3.92705e-22)
(0.80337 0.378482 -5.95812e-22)
(0.788297 0.237638 -2.11389e-21)
(0.786491 0.0579205 3.86288e-21)
(0.80451 -0.106138 1.81103e-21)
(0.838797 0.397852 8.93472e-23)
(0.864346 0.148066 2.43808e-21)
(0.901802 -0.10429 -2.52198e-21)
(0.935589 -0.293019 -7.38443e-22)
(0.951956 -0.398132 1.47514e-21)
(0.950202 -0.43607 7.66521e-22)
(0.93844 -0.432768 -3.49825e-22)
(0.916472 -0.41476 -6.48782e-22)
(0.877664 -0.398275 -2.85361e-22)
(0.824873 -0.375337 -8.80653e-22)
(0.77334 -0.323112 2.84808e-22)
(0.741122 -0.228069 8.05343e-22)
(0.739991 -0.0996802 -6.35128e-22)
(0.767976 0.0379688 6.33501e-23)
(0.809825 0.165009 -2.14176e-22)
(0.844754 0.276476 -2.99864e-22)
(0.858505 0.372823 9.03823e-22)
(0.849718 0.439618 8.9633e-22)
(0.829262 0.450027 -1.03189e-21)
(0.806881 0.381393 1.50504e-21)
(0.791671 0.240683 -2.42975e-21)
(0.789273 0.0600184 -2.80774e-21)
(0.806621 -0.105503 -1.65985e-21)
(0.844004 0.403808 -1.19125e-21)
(0.870064 0.153929 4.90612e-21)
(0.907929 -0.100012 1.05373e-22)
(0.941699 -0.29043 3.61955e-22)
(0.957547 -0.396547 -1.85228e-21)
(0.954744 -0.435031 2.71361e-21)
(0.94189 -0.431784 -3.21832e-22)
(0.919549 -0.41296 -3.60601e-22)
(0.880926 -0.395402 2.46726e-22)
(0.828173 -0.372454 6.82634e-23)
(0.776315 -0.321851 1.90236e-22)
(0.743444 -0.229468 -2.42908e-22)
(0.741437 -0.10361 6.9586e-22)
(0.768842 0.0326687 -1.29083e-22)
(0.810598 0.159873 1.43428e-23)
(0.845834 0.272718 -9.5713e-24)
(0.860198 0.371038 -6.43111e-22)
(0.852212 0.439805 4.14476e-22)
(0.8325 0.451876 -7.75409e-22)
(0.810497 0.384341 6.81948e-22)
(0.795165 0.243842 1.24704e-21)
(0.792184 0.0622682 3.78956e-21)
(0.808836 -0.10475 -6.36819e-23)
(0.849147 0.409944 5.19242e-21)
(0.875724 0.160095 -1.12635e-20)
(0.91404 -0.0954194 3.49676e-21)
(0.947815 -0.287595 -4.70604e-21)
(0.963174 -0.394792 2.59785e-21)
(0.959359 -0.433883 -3.19675e-21)
(0.945409 -0.430772 2.14197e-21)
(0.922677 -0.411214 1.30583e-21)
(0.884261 -0.392597 -2.11948e-22)
(0.831574 -0.369602 4.71975e-22)
(0.77939 -0.320584 -3.11884e-22)
(0.745889 -0.230849 3.63873e-22)
(0.743006 -0.107538 -2.08222e-23)
(0.769776 0.0273247 -6.53514e-22)
(0.811395 0.154644 8.75546e-23)
(0.846931 0.268833 5.18399e-22)
(0.861927 0.369113 4.40306e-22)
(0.854768 0.439875 -6.4011e-23)
(0.835821 0.45367 -9.43287e-22)
(0.814212 0.387321 1.14862e-22)
(0.798777 0.247114 -2.82064e-22)
(0.795222 0.0646699 -1.13128e-21)
(0.811157 -0.103876 -2.08693e-21)
(0.854215 0.416249 3.44279e-21)
(0.88132 0.16656 -3.52458e-21)
(0.920131 -0.0905118 -1.74898e-21)
(0.953934 -0.284512 3.43776e-22)
(0.96883 -0.392869 2.40811e-21)
(0.96404 -0.432627 4.51321e-22)
(0.948996 -0.429733 -1.01188e-21)
(0.925854 -0.409522 -3.73739e-22)
(0.887661 -0.389864 1.11197e-22)
(0.835072 -0.366782 -6.91638e-22)
(0.782557 -0.31931 -2.12964e-23)
(0.748443 -0.232207 3.50134e-22)
(0.744697 -0.111458 1.67204e-22)
(0.77078 0.021944 -1.48336e-22)
(0.812215 0.149327 6.70319e-24)
(0.848041 0.264819 4.07758e-22)
(0.863686 0.367045 -1.36753e-22)
(0.857379 0.439824 -2.75377e-22)
(0.839218 0.455407 5.50549e-22)
(0.818022 0.39033 5.44203e-22)
(0.802501 0.250495 2.1289e-22)
(0.798386 0.0672235 -1.75275e-21)
(0.813582 -0.102879 7.27617e-22)
(0.859199 0.422714 3.10793e-23)
(0.886846 0.173318 2.34846e-22)
(0.926199 -0.0852897 -2.50551e-21)
(0.96005 -0.281178 -3.86769e-21)
(0.974509 -0.390776 6.88836e-21)
(0.968785 -0.431263 -3.08104e-21)
(0.952648 -0.428663 -1.10595e-21)
(0.929075 -0.407884 7.25495e-22)
(0.891119 -0.387206 4.03721e-22)
(0.838663 -0.363995 -1.58199e-22)
(0.785812 -0.318027 2.42359e-22)
(0.751094 -0.23354 -4.12203e-22)
(0.746503 -0.115366 -7.40939e-24)
(0.771857 0.0165336 -6.48348e-23)
(0.813058 0.143925 6.15403e-23)
(0.849161 0.260677 -1.50695e-22)
(0.865471 0.36483 -5.0055e-22)
(0.860039 0.439649 1.17352e-22)
(0.842685 0.457081 -7.52364e-22)
(0.821919 0.393362 1.637e-21)
(0.806333 0.253982 1.45225e-21)
(0.801673 0.0699285 1.13503e-21)
(0.816113 -0.101754 -1.86452e-21)
(0.86409 0.429326 1.27232e-21)
(0.892298 0.180362 1.50269e-21)
(0.932243 -0.0797539 7.74031e-21)
(0.966158 -0.277592 -1.56868e-21)
(0.980204 -0.388513 -2.15391e-21)
(0.973587 -0.429791 2.88482e-21)
(0.956365 -0.427561 -6.1913e-22)
(0.932337 -0.406301 2.12337e-22)
(0.89463 -0.384628 -9.8128e-22)
(0.842342 -0.361243 7.40087e-22)
(0.789151 -0.316733 -1.79491e-22)
(0.753826 -0.234843 2.88347e-22)
(0.748419 -0.119255 -2.56092e-22)
(0.773012 0.0110998 -1.80793e-22)
(0.813925 0.138444 -4.97502e-23)
(0.850288 0.256408 1.10738e-23)
(0.867275 0.362468 2.79198e-22)
(0.862742 0.439345 -3.02558e-22)
(0.846218 0.458689 -8.75778e-22)
(0.825899 0.396414 5.7653e-22)
(0.810268 0.257572 6.418e-23)
(0.805082 0.0727844 -2.56978e-21)
(0.818749 -0.100499 6.66563e-22)
(0.868879 0.436073 4.0586e-22)
(0.897677 0.187682 -9.18498e-21)
(0.938264 -0.0739054 -1.15689e-21)
(0.972255 -0.27375 1.73815e-21)
(0.985909 -0.386081 9.98181e-22)
(0.978444 -0.428211 1.16237e-21)
(0.960144 -0.426425 -2.78705e-21)
(0.935639 -0.40477 9.3483e-22)
(0.898187 -0.38213 -1.00844e-21)
(0.846103 -0.358528 4.06278e-22)
(0.792571 -0.315425 -5.15416e-22)
(0.756628 -0.236115 1.89305e-22)
(0.750436 -0.123121 2.69814e-22)
(0.774248 0.00565254 4.43703e-22)
(0.81482 0.132887 2.79775e-22)
(0.85142 0.252012 -2.20249e-22)
(0.869095 0.359955 -1.30008e-22)
(0.865484 0.438908 -2.96772e-22)
(0.849809 0.460225 -2.12803e-23)
(0.829955 0.39948 -1.11181e-21)
(0.814303 0.261259 3.5932e-22)
(0.80861 0.07579 5.94628e-22)
(0.82149 -0.0991123 2.03428e-22)
(0.873559 0.442942 -3.93683e-21)
(0.902986 0.195272 8.67815e-22)
(0.944267 -0.0677449 3.35293e-21)
(0.978336 -0.26965 -1.75615e-21)
(0.991617 -0.383478 -9.12572e-22)
(0.983348 -0.426523 -1.24012e-21)
(0.963983 -0.425254 6.59986e-22)
(0.938976 -0.403293 -1.45904e-21)
(0.901782 -0.379718 7.03275e-22)
(0.849941 -0.355852 -2.90277e-22)
(0.796071 -0.314102 3.189e-22)
(0.759486 -0.237352 -1.99326e-22)
(0.75254 -0.126961 -1.32417e-22)
(0.775571 0.000226718 -2.83817e-22)
(0.815749 0.127259 3.72066e-22)
(0.852556 0.247491 3.81821e-23)
(0.870926 0.357291 -5.30041e-23)
(0.868257 0.438337 4.21849e-22)
(0.853453 0.461686 1.66776e-21)
(0.834082 0.402555 3.1419e-22)
(0.818433 0.26504 -2.29362e-21)
(0.812257 0.0789442 7.7621e-23)
(0.824336 -0.0975901 -6.05382e-22)
(0.878123 0.449917 -9.84448e-21)
(0.908237 0.203121 8.11839e-21)
(0.950259 -0.0612709 3.09757e-21)
(0.984397 -0.265287 -4.08646e-21)
(0.99732 -0.380705 3.62513e-21)
(0.988295 -0.424732 6.47672e-22)
(0.967881 -0.424047 1.29103e-21)
(0.942346 -0.401868 -2.25568e-21)
(0.905411 -0.377395 -2.63263e-22)
(0.85385 -0.35322 3.86941e-22)
(0.799648 -0.312762 3.95016e-22)
(0.762391 -0.238551 -7.67337e-22)
(0.75472 -0.130772 1.70155e-22)
(0.776984 -0.00522428 -1.07598e-22)
(0.81672 0.121566 -1.14824e-22)
(0.853699 0.242846 2.45358e-22)
(0.872765 0.354473 -4.3167e-22)
(0.871058 0.437626 2.13529e-22)
(0.857144 0.463066 -2.58496e-22)
(0.838273 0.405634 -8.79056e-22)
(0.822654 0.268911 1.83987e-21)
(0.81602 0.0822461 -1.61347e-21)
(0.827286 -0.09593 -1.49715e-22)
(0.882569 0.456985 1.92237e-21)
(0.913452 0.211221 -2.14915e-21)
(0.956254 -0.0544829 2.39975e-22)
(0.990436 -0.26066 -5.03185e-21)
(1.00301 -0.377762 1.13716e-21)
(0.993279 -0.422833 3.15579e-21)
(0.971836 -0.4228 -3.60991e-21)
(0.945748 -0.40049 2.9827e-21)
(0.909067 -0.375159 8.98039e-23)
(0.857823 -0.350631 -9.5268e-22)
(0.803303 -0.3114 7.10804e-22)
(0.765334 -0.239705 1.15363e-22)
(0.756954 -0.134551 3.5347e-23)
(0.778488 -0.0107201 -2.15395e-22)
(0.817751 0.115813 -1.6482e-22)
(0.854857 0.238081 1.36276e-22)
(0.874609 0.351502 -3.32944e-23)
(0.87388 0.436773 7.91771e-22)
(0.860876 0.464361 -2.19635e-21)
(0.842525 0.408712 1.36603e-21)
(0.826966 0.272867 1.89596e-21)
(0.819901 0.0856931 7.15292e-22)
(0.83034 -0.0941307 -6.7926e-22)
(0.886904 0.464122 6.02347e-21)
(0.918669 0.219543 3.13988e-21)
(0.962271 -0.0474004 -5.87577e-23)
(0.99645 -0.255772 -3.20942e-21)
(1.00869 -0.374636 -3.46796e-22)
(0.998294 -0.42081 -3.31072e-21)
(0.975844 -0.421491 9.00044e-22)
(0.949179 -0.399144 8.84847e-22)
(0.912744 -0.373002 -6.85418e-23)
(0.861854 -0.348082 -3.56113e-22)
(0.807033 -0.310009 -2.01308e-22)
(0.768311 -0.240803 6.49121e-22)
(0.759222 -0.138286 1.04367e-23)
(0.780083 -0.0161997 -2.90102e-22)
(0.818858 0.110011 -1.26867e-22)
(0.856042 0.233201 9.47951e-23)
(0.876463 0.348379 -8.70577e-23)
(0.876721 0.435777 2.67934e-22)
(0.864645 0.465566 1.116e-21)
(0.846832 0.411783 -2.14931e-22)
(0.831369 0.276898 -1.7671e-21)
(0.823898 0.0892773 -1.28918e-21)
(0.833498 -0.0921938 1.30432e-21)
(0.891153 0.471281 1.23796e-22)
(0.923957 0.228037 2.70793e-21)
(0.968341 -0.0400587 -3.02641e-21)
(1.00244 -0.250604 -2.62067e-21)
(1.01434 -0.371306 3.95758e-21)
(1.00334 -0.418653 1.60843e-21)
(0.979905 -0.420118 -2.39471e-21)
(0.952637 -0.397828 -6.28962e-22)
(0.916437 -0.370932 -2.41379e-22)
(0.865936 -0.345582 1.95769e-22)
(0.810838 -0.308598 -7.81129e-23)
(0.77132 -0.241849 2.68467e-22)
(0.761504 -0.14198 1.91057e-22)
(0.781762 -0.0216565 -1.38253e-22)
(0.820065 0.10417 1.19581e-22)
(0.857276 0.228217 -8.79347e-23)
(0.878336 0.345108 3.86676e-22)
(0.879583 0.434634 -5.79133e-22)
(0.868449 0.466674 -4.58967e-22)
(0.851197 0.414832 8.84002e-22)
(0.835866 0.280993 -1.22133e-21)
(0.828014 0.0929939 1.14519e-21)
(0.836759 -0.0901127 -4.57477e-23)
(0.89539 0.478465 4.62336e-21)
(0.929434 0.236811 -7.07274e-21)
(0.974504 -0.0323202 2.47898e-21)
(1.00839 -0.245078 -4.0481e-21)
(1.01995 -0.367817 5.60591e-21)