/*--------------------------------*- C++ -*----------------------------------*\
  =========                 |
  \\      /  F ield         | OpenFOAM: The Open Source CFD Toolbox
   \\    /   O peration     | Website:  https://openfoam.org
    \\  /    A nd           | Version:  7
     \\/     M anipulation  |
\*---------------------------------------------------------------------------*/
FoamFile
{
    version     2.0;
    format      ascii;
    class       surfaceScalarField;
    location    "20";
    object      phi;
}
// * * * * * * * * * * * * * * * * * * * * * * * * * * * * * * * * * * * * * //

dimensions      [0 3 -1 0 0 0 0];

internalField   nonuniform List<scalar> 
14027
(
-0.00178573
-0.000843863
-0.00173862
-0.000855338
-0.00169104
-0.000866512
-0.000829355
-0.00160976
-0.00164302
-0.000877381
-0.000839476
-0.00156228
-0.00159455
-0.000887943
-0.000849296
-0.00151438
-0.00154565
-0.000898194
-0.000858815
-0.00146606
-0.00149633
-0.000908131
-0.000819314
-0.00138916
-0.000868027
-0.00141735
-0.00144661
-0.000917751
-0.000827832
-0.00134104
-0.000876932
-0.00136825
-0.00139649
-0.00092705
-0.000836052
-0.00129255
-0.000885527
-0.00131878
-0.00134599
-0.000936028
-0.000843972
-0.00124371
-0.00089381
-0.00126894
-0.00129512
-0.00094468
-0.000802404
-0.00117137
-0.00085159
-0.00119452
-0.000901778
-0.00121875
-0.0012439
-0.000953005
-0.000809389
-0.00112282
-0.000858905
-0.00114501
-0.00090943
-0.00116822
-0.00119233
-0.000961
-0.000816081
-0.00107396
-0.000865915
-0.00109517
-0.000916763
-0.00111738
-0.00114043
-0.000968663
-0.00082248
-0.00102479
-0.000872618
-0.00104503
-0.000923776
-0.00106622
-0.00108821
-0.000975991
-0.000828583
-0.000975345
-0.000879012
-0.000994604
-0.000930466
-0.00101476
-0.00103569
-0.000982984
-0.000784668
-0.000908196
-0.00083439
-0.000925624
-0.000885096
-0.000943898
-0.000936833
-0.000963028
-0.000982889
-0.000989638
-0.000789919
-0.000859161
-0.000839899
-0.000875644
-0.000890869
-0.000892928
-0.000942874
-0.000911023
-0.00092981
-0.000995953
-0.000794883
-0.000809885
-0.000845109
-0.000825418
-0.000896328
-0.000841708
-0.000948588
-0.000858763
-0.000876471
-0.00100193
-0.000799561
-0.000760381
-0.000850018
-0.000774961
-0.000901474
-0.000790253
-0.000953973
-0.000806264
-0.000822888
-0.00100756
-0.000803952
-0.000710663
-0.000854627
-0.000724287
-0.000906303
-0.000738577
-0.000959028
-0.000753539
-0.000769075
-0.00101284
-0.000808054
-0.000660744
-0.000858933
-0.000673409
-0.000910816
-0.000686693
-0.000963752
-0.000700603
-0.000715047
-0.00101778
-0.000811867
-0.000610639
-0.000862935
-0.000622341
-0.000915011
-0.000634617
-0.000968144
-0.000647471
-0.000660818
-0.00102237
-0.000765113
-0.000550136
-0.00081539
-0.000560362
-0.000866633
-0.000571098
-0.000918888
-0.000582362
-0.000972202
-0.000594157
-0.000606405
-0.00102662
-0.000768187
-0.000500623
-0.000818622
-0.000509926
-0.000870026
-0.000519695
-0.000922444
-0.000529944
-0.000975925
-0.000540676
-0.000551821
-0.00103051
-0.000770983
-0.000450967
-0.000821563
-0.000459346
-0.000873113
-0.000468145
-0.00092568
-0.000477376
-0.000979313
-0.000487043
-0.000497082
-0.00103405
-0.000773501
-0.000401183
-0.000824211
-0.000408636
-0.000875893
-0.000416462
-0.000928595
-0.000424674
-0.000982365
-0.000433274
-0.000442204
-0.00103724
-0.000775741
-0.000351286
-0.000826567
-0.000357811
-0.000878366
-0.000364663
-0.000931188
-0.000371853
-0.000985079
-0.000379382
-0.000387201
-0.00104008
-0.000777702
-0.000301288
-0.000828629
-0.000306884
-0.000880531
-0.00031276
-0.000933458
-0.000318926
-0.000987456
-0.000325384
-0.00033209
-0.00104257
-0.000779383
-0.000251205
-0.000830397
-0.00025587
-0.000882388
-0.000260769
-0.000935404
-0.00026591
-0.000989494
-0.000271294
-0.000276885
-0.0010447
-0.000780785
-0.000201051
-0.000831871
-0.000204784
-0.000883936
-0.000208704
-0.000937027
-0.000212819
-0.000991193
-0.000217128
-0.000221602
-0.00104648
-0.000781907
-0.000150839
-0.000833051
-0.00015364
-0.000885175
-0.000156581
-0.000938326
-0.000159668
-0.000992553
-0.0001629
-0.000166257
-0.0010479
-0.000782748
-0.000100584
-0.000833936
-0.000102452
-0.000886104
-0.000104413
-0.0009393
-0.000106471
-0.000993574
-0.000108627
-0.000110866
-0.00104897
-0.000783309
-5.03009e-05
-0.000834526
-5.12348e-05
-0.000886724
-5.22157e-05
-0.00093995
-5.3245e-05
-0.000994254
-5.4323e-05
-5.54425e-05
-0.00104968
-0.00078359
-3.35043e-09
-0.000834821
-3.44039e-09
-0.000887033
-3.53287e-09
-0.000940275
-3.62753e-09
-0.000994594
-3.72409e-09
-3.8224e-09
-0.00105003
-0.00078359
5.02943e-05
-0.000834821
5.1228e-05
-0.000887033
5.22086e-05
-0.000940275
5.32377e-05
-0.000994594
5.43155e-05
5.54349e-05
-0.00105003
-0.000783309
0.000100578
-0.000834526
0.000102445
-0.000886724
0.000104406
-0.00093995
0.000106464
-0.000994254
0.000108619
0.000110858
-0.00104968
-0.000782748
0.000150832
-0.000833936
0.000153633
-0.000886104
0.000156574
-0.0009393
0.00015966
-0.000993574
0.000162893
0.00016625
-0.00104897
-0.000781907
0.000201044
-0.000833051
0.000204777
-0.000885175
0.000208697
-0.000938326
0.000212812
-0.000992553
0.00021712
0.000221595
-0.0010479
-0.000780785
0.000251199
-0.000831871
0.000255863
-0.000883936
0.000260762
-0.000937027
0.000265903
-0.000991194
0.000271286
0.000276878
-0.00104648
-0.000779384
0.000301282
-0.000830397
0.000306877
-0.000882388
0.000312753
-0.000935405
0.000318919
-0.000989494
0.000325376
0.000332082
-0.0010447
-0.000777702
0.000351279
-0.000828629
0.000357804
-0.000880532
0.000364656
-0.000933458
0.000371845
-0.000987456
0.000379375
0.000387194
-0.00104257
-0.000775741
0.000401177
-0.000826567
0.000408629
-0.000878367
0.000416455
-0.000931188
0.000424667
-0.00098508
0.000433266
0.000442196
-0.00104008
-0.000773502
0.00045096
-0.000824212
0.000459339
-0.000875894
0.000468138
-0.000928596
0.000477369
-0.000982365
0.000487036
0.000497075
-0.00103724
-0.000770983
0.000500616
-0.000821563
0.000509919
-0.000873114
0.000519688
-0.000925681
0.000529937
-0.000979314
0.000540669
0.000551813
-0.00103405
-0.000768187
0.000550129
-0.000818623
0.000560355
-0.000870027
0.000571091
-0.000922445
0.000582355
-0.000975926
0.000594149
0.000606397
-0.00103051
-0.000765114
-0.000815391
0.000610632
-0.000866634
0.000622334
-0.000918889
0.00063461
-0.000972203
0.000647463
0.000660811
-0.00102662
-0.000811868
0.000660737
-0.000862936
0.000673402
-0.000915012
0.000686686
-0.000968145
0.000700596
0.000715039
-0.00102237
-0.000808055
0.000710656
-0.000858933
0.00072428
-0.000910817
0.00073857
-0.000963753
0.000753532
0.000769068
-0.00101778
-0.000803953
0.000760374
-0.000854628
0.000774955
-0.000906304
0.000790246
-0.000959029
0.000806257
0.000822881
-0.00101284
-0.000799562
0.000809878
-0.000850019
0.000825412
-0.000901474
0.000841701
-0.000953974
0.000858756
0.000876464
-0.00100756
-0.000794884
0.000859155
-0.00084511
0.000875637
-0.000896329
0.000892921
-0.000948589
0.000911015
0.000929802
-0.00100193
-0.00078992
0.000908189
-0.0008399
0.000925617
-0.00089087
0.000943891
-0.000942875
0.00096302
0.000982881
-0.000995954
-0.00078467
-0.000834391
0.000975339
-0.000885097
0.000994597
-0.000936834
0.00101476
0.00103569
-0.000989639
-0.000828584
0.00102479
-0.000879013
0.00104503
-0.000930468
0.00106621
0.0010882
-0.000982985
-0.000822481
0.00107395
-0.000872619
0.00109516
-0.000923777
0.00111737
0.00114042
-0.000975993
-0.000816082
0.00112281
-0.000865916
0.001145
-0.000916764
0.00116822
0.00119232
-0.000968664
-0.00080939
0.00117137
-0.000858907
0.00119452
-0.000909431
0.00121874
0.00124389
-0.000961001
-0.000802406
-0.000851592
0.0012437
-0.00090178
0.00126893
0.00129512
-0.000953006
-0.000843973
0.00129254
-0.000893812
0.00131877
0.00134599
-0.000944682
-0.000836053
0.00134103
-0.000885529
0.00136824
0.00139649
-0.000936029
-0.000827833
0.00138915
-0.000876934
0.00141734
0.0014466
-0.000927052
-0.000819316
-0.000868029
0.00146606
0.00149633
-0.000917752
-0.000858816
0.00151437
0.00154564
-0.000908133
-0.000849298
0.00156228
0.00159454
-0.000898196
-0.000839478
0.00160976
0.00164301
-0.000887945
-0.000829357
0.00169104
-0.000877384
0.00173861
-0.000866514
0.00178573
-0.00085534
-0.000843865
0.004482
3.95806e-05
-3.76127e-05
0.00447639
0.000111651
-0.000106039
0.00446764
0.000176941
-0.000168193
0.00445601
0.000236921
-0.000225297
0.00444181
0.000293618
-0.000279411
0.00442521
0.000348168
-0.000331573
0.00440642
0.000401598
-0.000382805
0.0043856
0.000454676
-0.000433853
0.00436291
0.000507998
-0.000485309
0.00433853
0.000562087
-0.000537709
0.00431265
0.000617304
-0.000591424
0.00428549
0.000674001
-0.000646844
0.00425731
0.000732373
-0.000704189
0.00422841
0.000792619
-0.000763726
0.00419916
0.000854784
-0.000825534
0.00417001
0.0009189
-0.000889743
0.00414144
0.000984842
-0.000956269
0.00411408
0.00105242
-0.00102506
0.00408858
0.00112134
-0.00109584
0.00406579
0.00119109
-0.0011683
0.00404652
0.00126122
-0.00124195
0.00403188
0.00133072
-0.00131608
0.00402272
0.0013993
-0.00139015
0.00402065
0.00146473
-0.00146266
0.00402599
0.00152847
-0.00153381
0.00404202
0.00158356
-0.00159959
0.00164164
-0.00166558
0.00456683
4.15101e-05
0.00456128
0.0001172
0.00455264
0.000185585
0.00454116
0.000248397
0.00452715
0.000307626
0.00451082
0.000364496
0.00449238
0.00042004
0.00447202
0.000475041
0.00444992
0.000530099
0.00442629
0.000585715
0.00440135
0.000642242
0.00437537
0.000699981
0.00434864
0.000759106
0.00432152
0.00081974
0.0042944
0.000881895
0.00426781
0.000945494
0.00424226
0.00101039
0.00421845
0.00107624
0.00419705
0.00114275
0.00417894
0.00120919
0.0041649
0.00127526
0.00415608
0.00133953
0.00415315
0.00140224
0.00415777
0.00146011
0.00416993
0.00151632
0.00419278
0.00156071
0.00160993
0.00465326
4.34077e-05
0.00464781
0.000122649
0.00463931
0.000194079
0.00462805
0.000259659
0.00461432
0.000321354
0.00459836
0.00038046
0.00458038
0.000438018
0.0045606
0.000494823
0.00453923
0.000551472
0.0045165
0.000608444
0.00449266
0.000666079
0.00446802
0.000724626
0.00444289
0.000784235
0.00441768
0.000844949
0.00439282
0.00090675
0.00436886
0.000969453
0.00434636
0.00103289
0.00432603
0.00109657
0.00430854
0.00116024
0.00429479
0.00122294
0.0042855
0.00128455
0.00428179
0.00134324
0.00428421
0.00139982
0.00429425
0.00145008
0.00431181
0.00149875
0.00433904
0.00153348
0.00157457
0.00474133
4.52678e-05
0.004736
0.000127979
0.00472769
0.000202389
0.00471669
0.000270656
0.00470331
0.000334735
0.00468779
0.000395978
0.00467037
0.000455437
0.00465128
0.000513911
0.00463076
0.000571995
0.00460906
0.000630142
0.00458647
0.000688674
0.0045633
0.000747791
0.00453992
0.000807614
0.00451676
0.00086811
0.00449428
0.000929232
0.00447304
0.000990694
0.00445362
0.00105231
0.00443673
0.00111346
0.00442304
0.00117392
0.00441341
0.00123257
0.00440851
0.00128945
0.00440935
0.0013424
0.00441641
0.00139276
0.00443087
0.00143562
0.00445266
0.00147697
0.00448294
0.0015032
0.00153651
0.00483106
4.70843e-05
0.00482587
0.000133173
0.00481777
0.000210485
0.00480708
0.000281346
0.00479411
0.000347713
0.0047791
0.000410981
0.00476232
0.000472216
0.00474402
0.000532212
0.00472445
0.000591563
0.0047039
0.000650694
0.00468267
0.000709907
0.00466111
0.000769352
0.0046396
0.00082912
0.0046186
0.00088911
0.00459859
0.000949244
0.00458014
0.00100915
0.00456383
0.00106862
0.00455035
0.00112694
0.00454036
0.00118392
0.00453464
0.00123829
0.00453382
0.00129027
0.00453877
0.00133746
0.00454987
0.00138165
0.00456801
0.00141748
0.00459317
0.00145181
0.00462589
0.00147048
0.00149634
0.0049225
4.88518e-05
0.00491746
0.000138215
0.00490961
0.00021834
0.00489926
0.000291691
0.00488674
0.00036024
0.00487231
0.000425411
0.00485624
0.000488284
0.0048388
0.000549647
0.00482028
0.000610089
0.00480097
0.000670005
0.0047812
0.000729677
0.00476134
0.000789207
0.0047418
0.000848658
0.00472305
0.000907863
0.00470557
0.000966719
0.00468995
0.00102477
0.00467674
0.00108182
0.00466662
0.00113706
0.00466019
0.00119034
0.00465818
0.0012403
0.00466113
0.00128732
0.00466976
0.00132883
0.00468439
0.00136701
0.00470562
0.00139625
0.00473348
0.00142396
0.00476808
0.00143587
0.0014549
0.00501568
5.05644e-05
0.0050108
0.00014309
0.00500322
0.000225927
0.00499325
0.000301657
0.00498122
0.00037227
0.00496742
0.000439214
0.00495212
0.000503579
0.00493562
0.000566146
0.00491822
0.000627495
0.00490023
0.000687993
0.004882
0.000747903
0.00486393
0.000807278
0.00484644
0.000866156
0.00482999
0.000924313
0.00481508
0.000981625
0.00480228
0.00103757
0.00479214
0.00109197
0.00478528
0.00114391
0.00478226
0.00119336
0.00478373
0.00123883
0.00479014
0.00128091
0.00480206
0.00131691
0.00481975
0.00134931
0.00484357
0.00137243
0.00487355
0.00139398
0.00490949
0.00139994
0.00141284
0.00511062
5.22163e-05
0.00510593
0.000147781
0.00509863
0.000233219
0.00508908
0.00031121
0.00507759
0.00038376
0.00506447
0.000452339
0.00505
0.000518043
0.0050345
0.000581645
0.00501828
0.000643716
0.00500168
0.000704592
0.00498507
0.000764518
0.00496884
0.000823504
0.00495343
0.000881566
0.00493932
0.000938429
0.00492699
0.000993955
0.00491699
0.00104757
0.00490984
0.00109911
0.00490612
0.00114763
0.00490634
0.00119315
0.00491103
0.00123414
0.00492059
0.00127135
0.00493545
0.00130206
0.00495578
0.00132898
0.00498174
0.00134647
0.00501337
0.00136236
0.0050502
0.0013631
0.00137055
0.00520736
5.38017e-05
0.00520287
0.000152274
0.00519589
0.000240193
0.00518679
0.000320315
0.00517588
0.00039467
0.00516348
0.000464739
0.0051499
0.000531625
0.00513545
0.000596088
0.00512048
0.000658692
0.00510533
0.000719744
0.00509037
0.00077947
0.00507603
0.000837843
0.00506274
0.00089486
0.00505097
0.000950202
0.00504119
0.00100373
0.00503393
0.00105483
0.00502969
0.00110336
0.00502897
0.00114835
0.00503222
0.0011899
0.00503989
0.00122647
0.0050523
0.00125894
0.00506973
0.00128463
0.00509232
0.00130639
0.00512004
0.00131874
0.0051529
0.00132949
0.00519031
0.00132569
0.00132833
0.00530594
5.53147e-05
0.00530166
0.000156553
0.00529503
0.000246822
0.0052864
0.000328941
0.00527611
0.000404961
0.00526448
0.000476369
0.00525183
0.000544274
0.00523849
0.000609424
0.00522481
0.000672373
0.00521115
0.000733402
0.0051979
0.000792721
0.00518548
0.000850267
0.00517431
0.000906027
0.00516487
0.000959646
0.00515761
0.00101099
0.00515302
0.00105942
0.00515155
0.00110483
0.00515366
0.00114624
0.00515973
0.00118382
0.00517013
0.00121607
0.00518509
0.00124398
0.00520477
0.00126494
0.00522926
0.0012819
0.0052584
0.00128961
0.00529217
0.00129573
0.00532987
0.00128799
0.00128641
0.00540638
5.67498e-05
0.00540233
0.000160602
0.00539607
0.000253082
0.00538795
0.000337057
0.00537832
0.000414595
0.0053675
0.000487188
0.00535583
0.000555948
0.00534364
0.000621609
0.0053313
0.000684717
0.00531917
0.000745529
0.00530765
0.000804241
0.00529716
0.000860762
0.00528811
0.000915072
0.00528097
0.000966792
0.00527616
0.0010158
0.00527414
0.00106144
0.00527531
0.00110365
0.00528008
0.00114147
0.00528876
0.00117514
0.00530162
0.00120322
0.00531883
0.00122676
0.00534046
0.00124331
0.00536653
0.00125583
0.00539678
0.00125936
0.00543117
0.00126134
0.00546895
0.00125021
0.00124498
0.00550873
5.81015e-05
0.00550492
0.000164408
0.00549905
0.000258951
0.00549148
0.000344632
0.00548253
0.000423537
0.00547257
0.000497157
0.00546191
0.000566605
0.00545092
0.000632603
0.00543995
0.000695688
0.00542938
0.000756095
0.00541961
0.000814013
0.00541104
0.000869326
0.0054041
0.000922014
0.00539921
0.000971683
0.00539678
0.00101823
0.00539722
0.001061
0.00540089
0.00109998
0.00540812
0.00113424
0.00541918
0.00116408
0.00543425
0.00118815
0.00545345
0.00120757
0.00547674
0.00122002
0.00550409
0.00122847
0.00553519
0.00122826
0.00556995
0.00122657
0.00560762
0.00121254
0.00120417
0.00561301
5.93644e-05
0.00560946
0.000167956
0.00560401
0.000264406
0.005597
0.000351638
0.00558879
0.000431753
0.0055797
0.000506239
0.0055701
0.000576209
0.00556033
0.000642371
0.00555076
0.000705257
0.00554177
0.000765083
0.00553376
0.00082203
0.00552711
0.000875971
0.00552224
0.000926886
0.00551954
0.000974379
0.0055194
0.00101837
0.00552218
0.00105822
0.00552819
0.00109397
0.00553771
0.00112472
0.00555093
0.00115087
0.00556796
0.00117111
0.00558887
0.00118666
0.00561355
0.00119534
0.00564194
0.00120009
0.00567364
0.00119656
0.00570858
0.00119163
0.00574597
0.00117515
0.00116409
0.00571927
6.05337e-05
0.005716
0.000171232
0.00571098
0.000269425
0.00570456
0.00035805
0.0056971
0.000439215
0.00568894
0.000514405
0.00568042
0.000584729
0.0056719
0.000650887
0.00566376
0.000713403
0.00565636
0.000772479
0.00565009
0.000828297
0.00564535
0.000880717
0.0056425
0.000929732
0.00564193
0.00097495
0.00564398
0.00101632
0.00564897
0.00105324
0.00565716
0.00108578
0.00566876
0.00111312
0.00568393
0.0011357
0.0057027
0.00115234
0.00572508
0.00116428
0.00575091
0.00116951
0.00578009
0.00117092
0.00581219
0.00116445
0.00584713
0.0011567
0.00588412
0.00113816
0.00112483
0.00582755
6.16047e-05
0.00582455
0.000174225
0.00581999
0.000273991
0.00581419
0.000363843
0.00580751
0.000445896
0.00580029
0.000521625
0.00579288
0.00059214
0.00578564
0.000658128
0.00577893
0.000720112
0.00577313
0.000778283
0.0057686
0.000832824
0.00576572
0.000883596
0.00576485
0.000930604
0.00576632
0.000973474
0.00577046
0.00101218
0.00577752
0.00104618
0.00578773
0.00107557
0.00580124
0.00109961
0.00581814
0.0011188
0.00583842
0.00113206
0.00586205
0.00114065
0.00588881
0.00114274
0.00591858
0.00114115
0.00595091
0.00113211
0.0059857
0.00112191
0.00602219
0.00110166
0.00108643
0.00593787
6.25729e-05
0.00593517
0.000176922
0.00593108
0.000278086
0.00592592
0.000368997
0.00592005
0.000451771
0.0059138
0.000527877
0.00590752
0.000598421
0.00590156
0.000664081
0.0058963
0.000725379
0.00589208
0.000782501
0.00588927
0.000835636
0.00588821
0.000884649
0.00588925
0.000929567
0.00589269
0.00097004
0.00589879
0.00100608
0.00590779
0.00103718
0.00591985
0.0010635
0.00593508
0.00108438
0.00595352
0.00110036
0.00597512
0.00111047
0.00599978
0.00111599
0.00602728
0.00111524
0.00605746
0.00111098
0.00608987
0.0010997
0.00612439
0.00108739
0.0061603
0.00106575
0.00104894
0.00605028
6.34347e-05
0.00604789
0.000179315
0.00604428
0.000281693
0.00603979
0.000373491
0.00603474
0.000456821
0.00602947
0.000533142
0.00602434
0.000603556
0.00601968
0.000668737
0.00601585
0.000729204
0.00601321
0.000785147
0.00601208
0.000836761
0.00601281
0.000883926
0.00601568
0.000926692
0.00602098
0.00096474
0.00602894
0.000998121
0.00603973
0.00102638
0.0060535
0.00104974
0.00607027
0.00106761
0.00609006
0.00108056
0.00611278
0.00108775
0.0061383
0.00109047
0.00616636
0.00108718
0.00619679
0.00108055
0.00622915
0.00106734
0.00626331
0.00105323
0.00629858
0.00103048
0.00101237
0.00616482
6.41863e-05
0.00616274
0.000181392
0.00615963
0.0002848
0.00615581
0.000377311
0.00615161
0.00046103
0.00614734
0.000537406
0.00614336
0.000607538
0.00614
0.000672094
0.00613761
0.000731598
0.00613651
0.000786243
0.00613704
0.000836238
0.00613948
0.000881484
0.00614411
0.000922055
0.00615118
0.000957674
0.00616087
0.000988429
0.00617332
0.00101393
0.00618862
0.00103444
0.00620677
0.00104945
0.00622775
0.00105959
0.00625141
0.0010641
0.00627761
0.00106426
0.00630608
0.00105871
0.00633664
0.00105
0.00636883
0.00103514
0.00640255
0.00101951
0.00643714
0.000995898
0.000976742
0.00628153
6.4825e-05
0.00627977
0.000183148
0.00627717
0.000287396
0.00627404
0.000380444
0.00627069
0.000464385
0.00626743
0.00054066
0.00626461
0.000610362
0.00626255
0.000674157
0.00626157
0.000732575
0.00626199
0.000785819
0.00626411
0.000834115
0.00626821
0.000877388
0.00627453
0.000915742
0.00628325
0.000948944
0.00629456
0.000977126
0.00630853
0.000999962
0.00632521
0.00101776
0.00634459
0.00103008
0.00636658
0.0010376
0.00639102
0.00103965
0.00641776
0.00103752
0.00644651
0.00102996
0.00647707
0.00101944
0.00650902
0.0010032
0.00654223
0.000986297
0.0065761
0.000962031
0.000942055
0.00640044
6.53481e-05
0.00639901
0.000184575
0.00639694
0.000289471
0.0063945
0.00038288
0.00639201
0.00046688
0.00638977
0.0005429
0.0063881
0.00061203
0.00638732
0.000674937
0.00638773
0.00073216
0.00638964
0.000783913
0.00639331
0.000830443
0.00639899
0.000871707
0.0064069
0.000907839
0.00641718
0.000938657
0.00642998
0.000964333
0.00644533
0.000984608
0.00646326
0.000999826
0.0064837
0.00100965
0.00650655
0.00101474
0.00653164
0.00101457
0.00655878
0.00101038
0.00658768
0.00100106
0.00661815
0.000988971
0.00664978
0.000971568
0.00668245
0.000953631
0.00671557
0.000928903
0.000908301
0.0065216
6.57539e-05
0.00652051
0.000185668
0.00651896
0.000291019
0.00651723
0.000384613
0.0065156
0.000468509
0.00651437
0.000544127
0.00651385
0.000612551
0.00651433
0.000674453
0.00651611
0.00073038
0.00651946
0.000780567
0.00652462
0.000825282
0.00653181
0.000864516
0.00654121
0.000898439
0.00655295
0.00092692
0.00656711
0.000950172
0.00658372
0.000968002
0.00660275
0.000980794
0.00662411
0.000988281
0.0066477
0.000991162
0.00667329
0.000988974
0.00670072
0.000982951
0.00672967
0.0009721
0.00675997
0.000958674
0.00679122
0.000940323
0.0068233
0.00092155
0.00685567
0.000896526
0.000875468
0.00664505
6.60407e-05
0.0066443
0.000186424
0.00664328
0.000292035
0.00664225
0.00038564
0.00664149
0.000469274
0.00664127
0.000544346
0.00664188
0.000611938
0.00664361
0.000672728
0.00664671
0.000727273
0.00665145
0.000775831
0.00665804
0.000818695
0.00666666
0.000855894
0.00667746
0.000887635
0.00669054
0.000913839
0.00670595
0.000934761
0.00672368
0.000950271
0.00674369
0.000960789
0.00676585
0.000966122
0.00679003
0.000966982
0.00681601
0.000962988
0.00684362
0.000955349
0.00687254
0.000943176
0.00690259
0.000928619
0.00693341
0.000909508
0.00696488
0.000890081
0.0069965
0.000864906
0.00084354
0.00677084
6.6208e-05
0.00677042
0.000186841
0.00676994
0.000292519
0.00676961
0.000385961
0.00676971
0.000469179
0.00677049
0.000543569
0.00677221
0.000610211
0.00677515
0.00066979
0.00677954
0.000722878
0.00678562
0.000769759
0.00679356
0.000810751
0.00680353
0.000845925
0.00681564
0.000875524
0.00682996
0.000899523
0.0068465
0.000918217
0.00686523
0.000931537
0.00688609
0.000939938
0.00690892
0.00094329
0.00693358
0.00094232
0.00695985
0.000936718
0.00698753
0.000927663
0.00701635
0.000914363
0.0070461
0.000898864
0.00707645
0.000879163
0.00710729
0.000859243
0.00713815
0.000834042
0.000812498
0.006899
6.62554e-05
0.00689892
0.000186919
0.00689897
0.000292473
0.00689935
0.000385582
0.00690029
0.000468233
0.00690205
0.000541811
0.00690487
0.000607393
0.00690898
0.000665675
0.00691462
0.000717244
0.00692197
0.00076241
0.00693119
0.000801522
0.00694243
0.000834693
0.00695575
0.000862202
0.00697119
0.000884078
0.00698876
0.000900653
0.00700838
0.000911919
0.00702996
0.000918357
0.00705335
0.000919901
0.00707838
0.000917283
0.00710484
0.000910259
0.00713253
0.000899976
0.00716117
0.000885728
0.00719057
0.000869458
0.00722042
0.000849319
0.00725061
0.000829049
0.00728072
0.00080393
0.000782322
0.00702958
6.61833e-05
0.00702984
0.000186661
0.00703041
0.000291898
0.00703149
0.000384509
0.00703327
0.000466449
0.00703599
0.000539093
0.00703987
0.000603514
0.00704512
0.000660422
0.00705195
0.000710419
0.00706051
0.000753848
0.00707095
0.000791083
0.00708336
0.000822284
0.00709779
0.000847765
0.00711426
0.000867607
0.00713274
0.000882178
0.00715313
0.000891526
0.00717533
0.000896157
0.00719917
0.000896059
0.00722449
0.000891967
0.00725105
0.000883697
0.00727867
0.000872359
0.00730707
0.000857327
0.00733608
0.000840442
0.0073654
0.00082
0.00739495
0.000799506
0.00742431
0.000774565
0.000752989
0.00716263
6.59928e-05
0.00716322
0.000186068
0.00716432
0.000290803
0.00716607
0.000382754
0.00716868
0.000463845
0.00717233
0.000535438
0.00717724
0.000598607
0.00718359
0.000654074
0.00719154
0.000702461
0.00720125
0.000744138
0.00721283
0.000779512
0.00722632
0.000808786
0.00724178
0.000832309
0.00725917
0.000850213
0.00727845
0.000862899
0.00729951
0.000870465
0.00732223
0.000873439
0.00734643
0.00087186
0.00737194
0.00086646
0.00739853
0.000857108
0.00742601
0.000844877
0.00745412
0.00082921
0.00748272
0.00081185
0.00751149
0.000791224
0.00754038
0.000770618
0.00756901
0.000745937
0.000724479
0.00729819
6.56853e-05
0.00729911
0.000185147
0.00730072
0.000289196
0.00730314
0.00038033
0.00730655
0.000460439
0.00731111
0.000530876
0.00731701
0.000592711
0.0073244
0.000646681
0.00733343
0.000693426
0.00734422
0.000733349
0.00735685
0.000766888
0.00737135
0.000794286
0.00738773
0.000815928
0.00740595
0.000831995
0.00742593
0.000842915
0.00744756
0.000848836
0.0074707
0.000850301
0.00749516
0.000847394
0.00752078
0.000840843
0.00754733
0.000830562
0.00757462
0.000817584
0.00760241
0.000801418
0.00763055
0.000783709
0.00765877
0.000763007
0.007687
0.000742387
0.0077149
0.000718036
0.000696769
0.00743631
6.5263e-05
0.00743755
0.000183902
0.00743966
0.000287088
0.00744274
0.000377255
0.00744692
0.000456259
0.00745235
0.000525439
0.0074592
0.000585866
0.00746759
0.000638293
0.00747764
0.000683376
0.00748943
0.000721553
0.00750303
0.000753289
0.00751845
0.000778871
0.00753566
0.000798716
0.00755461
0.000813047
0.0075752
0.000822322
0.0075973
0.000826731
0.00762077
0.00082683
0.00764543
0.000822742
0.00767108
0.000815186
0.00769753
0.000804118
0.00772458
0.00079053
0.00775201
0.000773987
0.00777968
0.000756043
0.00780733
0.000735358
0.0078349
0.000714811
0.00786209
0.000690849
0.000669837
0.00757704
6.47287e-05
0.0075786
0.000182344
0.00758119
0.000284494
0.0075849
0.000373549
0.00758982
0.00045133
0.0075961
0.000519163
0.00760385
0.000578119
0.00761318
0.000628964
0.00762418
0.000672376
0.00763691
0.000708822
0.0076514
0.000738797
0.00766764
0.000762628
0.0076856
0.000780761
0.00770518
0.000793462
0.00772629
0.000801212
0.00774878
0.000804239
0.00777251
0.000803108
0.00779727
0.000797978
0.0078229
0.000789555
0.00784919
0.00077783
0.00787596
0.000763756
0.007903
0.000746947
0.00793018
0.000728869
0.00795725
0.000708285
0.00798417
0.000687886
0.00801066
0.000664366
0.000643662
0.00772042
6.40855e-05
0.00772228
0.00018048
0.00772535
0.000281428
0.00772966
0.000369236
0.00773531
0.000445684
0.00774238
0.000512088
0.00775098
0.000569517
0.0077612
0.000618753
0.00777308
0.00066049
0.00778667
0.000695229
0.00780198
0.000723491
0.00781897
0.000745641
0.00783758
0.000762152
0.00785771
0.000773329
0.00787925
0.000779671
0.00790205
0.000781442
0.00792595
0.000779212
0.00795075
0.00077317
0.0079763
0.000764008
0.00800238
0.000751747
0.00802884
0.000737299
0.00805546
0.000720324
0.00808213
0.000702203
0.00810862
0.000681792
0.0081349
0.000661609
0.00816069
0.000638572
0.000618224
0.00786651
6.33372e-05
0.00786867
0.000178322
0.00787218
0.00027791
0.00787708
0.00036434
0.00788341
0.000439354
0.00789124
0.000504255
0.00790065
0.000560111
0.00791168
0.000607717
0.00792439
0.000647787
0.00793877
0.000680848
0.00795481
0.000707451
0.00797246
0.000727992
0.00799164
0.000742973
0.00801224
0.000752729
0.00803413
0.00075778
0.00805715
0.000758416
0.00808115
0.000755212
0.00810594
0.00074838
0.00813135
0.000738597
0.00815719
0.000725912
0.0081833
0.000711192
0.00820948
0.000694141
0.00823563
0.000676056
0.00826153
0.000655884
0.00828717
0.000635972
0.00831229
0.000613457
0.000593504
0.00801535
6.2488e-05
0.00801779
0.000175881
0.00802174
0.00027396
0.00802719
0.00035889
0.00803417
0.000432377
0.00804272
0.00049571
0.00805287
0.000549953
0.00806467
0.000595917
0.00807813
0.000634332
0.00809322
0.000665753
0.00810992
0.000690753
0.00812815
0.000709763
0.00814782
0.000723304
0.0081688
0.000731745
0.00819097
0.000735615
0.00821415
0.000735232
0.00823819
0.000731171
0.00826291
0.000723664
0.00828813
0.00071337
0.00831368
0.00070036
0.00833941
0.000685462
0.00836514
0.000668416
0.00839076
0.000650439
0.00841608
0.00063056
0.00844108
0.000610971
0.00846553
0.000589007
0.000569482
0.008167
6.15425e-05
0.00816971
0.000173173
0.00817408
0.000269598
0.00818005
0.000352916
0.00818764
0.000424791