/*--------------------------------*- C++ -*----------------------------------*\
  =========                 |
  \\      /  F ield         | OpenFOAM: The Open Source CFD Toolbox
   \\    /   O peration     | Website:  https://openfoam.org
    \\  /    A nd           | Version:  7
     \\/     M anipulation  |
\*---------------------------------------------------------------------------*/
FoamFile
{
    version     2.0;
    format      ascii;
    class       volVectorField;
    location    "20";
    object      U;
}
// * * * * * * * * * * * * * * * * * * * * * * * * * * * * * * * * * * * * * //

dimensions      [0 1 -1 0 0 0 0];

internalField   nonuniform List<vector> 
7156
(
(0.791665 0.286281 1.41017e-19)
(0.784794 0.280417 -1.53654e-19)
(0.778056 0.274357 7.8464e-20)
(0.759695 0.280247 -2.31735e-19)
(0.771456 0.268105 -6.37292e-21)
(0.752924 0.273521 -2.16312e-19)
(0.765001 0.261663 2.35226e-19)
(0.746306 0.266601 3.55354e-19)
(0.758695 0.255035 1.75049e-19)
(0.739847 0.259491 1.94496e-19)
(0.752542 0.248225 -4.45171e-19)
(0.719861 0.263716 -3.01691e-19)
(0.733551 0.252195 -1.91197e-19)
(0.746549 0.241237 3.142e-19)
(0.713417 0.255911 6.48038e-19)
(0.727425 0.244718 -5.49705e-20)
(0.740719 0.234075 -9.05945e-20)
(0.707157 0.247918 -1.61461e-19)
(0.721475 0.237063 -1.43024e-19)
(0.735059 0.226744 1.91548e-19)
(0.701087 0.239744 -2.24587e-19)
(0.715705 0.229236 -3.19999e-20)
(0.729573 0.219248 -4.40664e-19)
(0.679881 0.242004 3.98484e-19)
(0.695212 0.231393 7.85574e-20)
(0.710121 0.22124 1.8084e-19)
(0.724265 0.211591 5.20163e-20)
(0.673893 0.233108 -1.68275e-20)
(0.689538 0.22287 8.88328e-20)
(0.704728 0.213083 -2.18085e-19)
(0.719141 0.20378 8.25253e-20)
(0.668123 0.224037 -1.73466e-19)
(0.684069 0.214182 -1.03756e-19)
(0.69953 0.204767 -5.67831e-20)
(0.714205 0.195819 2.2326e-19)
(0.662574 0.214796 -4.71002e-20)
(0.678812 0.205334 -6.70237e-21)
(0.694534 0.1963 2.69307e-20)
(0.709461 0.187713 -7.15535e-20)
(0.657253 0.205392 1.74604e-19)
(0.673771 0.196332 2.16254e-19)
(0.689743 0.187687 1.36878e-19)
(0.704913 0.179469 1.82162e-19)
(0.634635 0.204952 -1.58371e-19)
(0.652165 0.195832 -1.55049e-19)
(0.668951 0.187182 6.41871e-20)
(0.685162 0.178934 -1.97459e-19)
(0.700566 0.171091 -1.50013e-19)
(0.629515 0.194802 2.54605e-19)
(0.647315 0.186122 9.27485e-20)
(0.664356 0.177891 -4.12904e-20)
(0.680796 0.170047 4.1016e-20)
(0.696424 0.162586 1.4124e-19)
(0.62465 0.184501 -3.03333e-19)
(0.642707 0.17627 -6.49707e-20)
(0.659991 0.168465 -6.07695e-20)
(0.676648 0.161032 -8.3721e-20)
(0.69249 0.15396 -2.39998e-19)
(0.620046 0.174056 -6.84692e-20)
(0.638346 0.166283 -5.64025e-21)
(0.655861 0.158912 2.0697e-19)
(0.672723 0.151896 -2.19242e-20)
(0.688768 0.145219 -5.35767e-22)
(0.615707 0.163476 4.3837e-19)
(0.634237 0.156167 1.62416e-19)
(0.651968 0.149238 -2.57522e-19)
(0.669024 0.142645 2.69037e-19)
(0.685262 0.136369 3.83143e-20)
(0.611638 0.152768 -2.43068e-19)
(0.630382 0.145931 -1.17796e-19)
(0.648318 0.13945 1.71423e-19)
(0.665555 0.133286 -6.08326e-20)
(0.681975 0.127417 6.47653e-20)
(0.607841 0.14194 6.94146e-20)
(0.626787 0.135582 1.59055e-19)
(0.644913 0.129555 -1.72394e-19)
(0.662319 0.123826 -7.63176e-20)
(0.678909 0.118369 3.18447e-20)
(0.584311 0.137194 -4.49731e-20)
(0.604322 0.131001 -1.00736e-19)
(0.623454 0.125128 -9.51388e-20)
(0.641757 0.119561 7.21801e-20)
(0.65932 0.114272 -1.32956e-19)
(0.676068 0.109232 -4.38032e-20)
(0.580891 0.125634 -1.28573e-19)
(0.601083 0.119958 8.01432e-20)
(0.620388 0.114577 9.1841e-21)
(0.638853 0.109476 5.67869e-20)
(0.65656 0.104631 4.65398e-20)
(0.673454 0.100013 1.78298e-20)
(0.577771 0.113975 1.42222e-20)
(0.598129 0.108822 1.51397e-19)
(0.61759 0.103937 6.3815e-20)
(0.636204 0.099306 -1.61966e-19)
(0.654042 0.0949095 4.79717e-21)
(0.67107 0.0907179 8.92955e-21)
(0.574953 0.102224 8.85104e-20)
(0.595461 0.0975995 -1.42859e-20)
(0.615064 0.0932152 1.79955e-20)
(0.633812 0.0890598 -1.56664e-20)
(0.651769 0.0851157 -4.42902e-20)
(0.668917 0.0813543 -1.71545e-20)
(0.572442 0.0903913 -6.30693e-21)
(0.593083 0.0863 -7.48875e-20)
(0.612812 0.0824212 -5.50197e-20)
(0.63168 0.078745 4.53934e-20)
(0.649743 0.0752567 5.69484e-20)
(0.666999 0.0719293 4.13001e-20)
(0.570238 0.0784864 -1.15886e-19)
(0.590996 0.0749323 1.51296e-20)
(0.610837 0.0715628 -2.43194e-20)
(0.629809 0.0683695 1.21116e-19)
(0.647966 0.06534 -3.52207e-20)
(0.665317 0.0624497 -2.17549e-20)
(0.568346 0.0665187 9.89225e-21)
(0.589204 0.0635053 -1.27171e-19)
(0.609141 0.0606485 1.26277e-20)
(0.628203 0.0579411 -8.84482e-20)
(0.646439 0.0553731 5.08689e-20)
(0.663872 0.0529227 4.64606e-20)
(0.566766 0.0544976 6.98637e-20)
(0.587708 0.0520279 7.67843e-20)
(0.607724 0.0496866 -3.23992e-20)
(0.626862 0.0474679 -4.98839e-20)
(0.645165 0.0453637 -3.53581e-20)
(0.662665 0.0433556 8.32226e-20)
(0.565499 0.0424328 -3.09007e-21)
(0.586509 0.0405093 -2.7498e-20)
(0.606589 0.0386859 4.137e-20)
(0.625787 0.036958 2.45631e-21)
(0.644144 0.0353195 -2.14587e-20)
(0.661699 0.0337555 1.56297e-20)
(0.564549 0.0303339 -6.8557e-20)
(0.585609 0.0289586 -5.76971e-21)
(0.605737 0.0276549 1.42182e-21)
(0.62498 0.0264194 2.85952e-20)
(0.643377 0.025248 2.00495e-20)
(0.660973 0.0241298 -1.15301e-20)
(0.563914 0.0182107 2.69464e-20)
(0.585008 0.0173849 -7.11401e-21)
(0.605168 0.0166022 3.78405e-20)
(0.624442 0.0158604 -2.9032e-20)
(0.642865 0.0151571 -9.65651e-21)
(0.660489 0.0144858 -2.75623e-21)
(0.563597 0.00607277 -1.56303e-21)
(0.584708 0.00579744 -6.82283e-21)
(0.604884 0.00553642 -1.30622e-20)
(0.624173 0.00528908 -3.22617e-21)
(0.642609 0.0050546 2.19596e-21)
(0.660247 0.00483074 -7.7127e-21)
(0.563597 -0.00606998 -2.41597e-21)
(0.584708 -0.00579465 -5.58785e-21)
(0.604884 -0.00553364 -1.17353e-20)
(0.624173 -0.00528631 -3.49704e-21)
(0.642609 -0.00505183 8.48654e-22)
(0.660247 -0.00482798 -3.73994e-21)
(0.563914 -0.0182079 2.59207e-20)
(0.585008 -0.0173821 3.4467e-21)
(0.605168 -0.0165994 2.87364e-20)
(0.624442 -0.0158576 -2.55504e-20)
(0.642865 -0.0151544 -8.25974e-21)
(0.660489 -0.014483 -1.12565e-20)
(0.564549 -0.0303311 -4.06545e-20)
(0.585609 -0.0289558 1.34516e-20)
(0.605737 -0.0276521 -5.39041e-20)
(0.62498 -0.0264166 6.34902e-20)
(0.643377 -0.0252453 1.31501e-20)
(0.660973 -0.0241271 -7.7593e-21)
(0.565499 -0.04243 3.00268e-20)
(0.586509 -0.0405066 -2.73312e-20)
(0.606589 -0.0386831 1.92869e-20)
(0.625787 -0.0369552 1.79293e-20)
(0.644144 -0.0353167 -1.0484e-20)
(0.661699 -0.0337528 -2.1168e-20)
(0.566766 -0.0544948 4.24294e-20)
(0.587708 -0.0520251 8.37325e-20)
(0.607724 -0.0496839 -5.98891e-20)
(0.626862 -0.0474651 7.08099e-21)
(0.645165 -0.045361 -1.48725e-20)
(0.662665 -0.0433528 -1.55334e-20)
(0.568346 -0.0665159 -3.17926e-20)
(0.589204 -0.0635025 -7.06831e-20)
(0.609141 -0.0606457 -1.70887e-21)
(0.628203 -0.0579383 -9.00445e-20)
(0.646439 -0.0553704 5.77312e-20)
(0.663872 -0.0529199 8.30282e-20)
(0.570238 -0.0784836 -1.40591e-19)
(0.590996 -0.0749295 4.97845e-20)
(0.610837 -0.07156 1.7698e-20)
(0.629809 -0.0683667 1.06059e-19)
(0.647966 -0.0653372 -7.07349e-20)
(0.665317 -0.0624469 -3.5087e-20)
(0.572442 -0.0903885 1.79864e-20)
(0.593083 -0.0862972 -8.91335e-20)
(0.612812 -0.0824184 -1.92204e-20)
(0.63168 -0.0787423 7.42622e-21)
(0.649743 -0.0752539 9.43104e-20)
(0.666999 -0.0719265 3.47998e-20)
(0.574953 -0.102221 1.52702e-19)
(0.595461 -0.0975967 -6.79484e-20)
(0.615064 -0.0932125 7.91864e-20)
(0.633812 -0.0890571 -7.95721e-20)
(0.651769 -0.0851129 4.93749e-21)
(0.668917 -0.0813516 -4.675e-20)
(0.577771 -0.113972 6.05856e-20)
(0.598129 -0.108819 7.09225e-20)
(0.61759 -0.103934 1.10772e-20)
(0.636204 -0.0993032 2.6157e-21)
(0.654042 -0.0949067 -7.01384e-20)
(0.67107 -0.0907151 -1.77329e-20)
(0.580891 -0.125632 -1.35543e-19)
(0.601083 -0.119956 -4.80016e-20)
(0.620388 -0.114574 4.08554e-20)
(0.638853 -0.109473 6.15404e-20)
(0.65656 -0.104628 1.06605e-19)
(0.673454 -0.10001 3.07642e-20)
(0.584311 -0.137191 1.83806e-19)
(0.604322 -0.130998 -1.104e-19)
(0.623454 -0.125125 -1.35723e-19)
(0.641757 -0.119558 -1.03942e-20)
(0.65932 -0.114269 -1.05457e-19)
(0.676068 -0.109229 -4.64829e-20)
(0.607841 -0.141937 9.74599e-20)
(0.626787 -0.135579 1.03691e-19)
(0.644913 -0.129552 -2.39495e-19)
(0.662319 -0.123824 -9.82769e-21)
(0.678909 -0.118366 4.40129e-21)
(0.611638 -0.152765 -2.45452e-19)
(0.630382 -0.145928 -8.52795e-20)
(0.648318 -0.139447 1.59051e-19)
(0.665555 -0.133284 -1.87508e-20)
(0.681975 -0.127414 -7.73154e-20)
(0.615707 -0.163473 3.20738e-19)
(0.634237 -0.156164 1.36749e-19)
(0.651968 -0.149235 -1.74469e-19)
(0.669024 -0.142643 1.76322e-19)
(0.685262 -0.136366 8.55078e-20)
(0.620046 -0.174053 -5.46722e-20)
(0.638346 -0.16628 -5.78509e-21)
(0.655861 -0.158909 1.83833e-19)
(0.672722 -0.151894 -5.78318e-20)
(0.688768 -0.145216 -1.36359e-19)
(0.62465 -0.184498 -2.54063e-19)
(0.642707 -0.176268 -9.31693e-20)
(0.659991 -0.168463 -3.14177e-20)
(0.676648 -0.16103 -1.25797e-19)
(0.69249 -0.153957 6.47748e-21)
(0.629515 -0.194799 3.06922e-19)
(0.647315 -0.18612 1.38167e-19)
(0.664356 -0.177888 -4.6053e-20)
(0.680796 -0.170045 1.06652e-19)
(0.696424 -0.162583 1.22087e-19)
(0.634635 -0.20495 -8.7666e-20)
(0.652165 -0.195829 -1.47633e-19)
(0.668951 -0.187179 4.99133e-20)
(0.685162 -0.178932 -2.33033e-19)
(0.700566 -0.171088 -1.87964e-19)
(0.657253 -0.205389 2.16406e-19)
(0.673771 -0.196329 1.26722e-19)
(0.689743 -0.187685 2.14857e-19)
(0.704913 -0.179466 2.09396e-19)
(0.662574 -0.214793 -1.4031e-19)
(0.678812 -0.205331 1.48029e-19)
(0.694534 -0.196298 -6.13252e-20)
(0.709461 -0.18771 -1.30183e-19)
(0.668122 -0.224034 -3.5562e-19)
(0.684069 -0.214179 -1.44512e-19)
(0.69953 -0.204765 4.26201e-20)
(0.714205 -0.195816 1.36169e-19)
(0.673893 -0.233105 2.73533e-20)
(0.689538 -0.222867 -2.08668e-19)
(0.704728 -0.21308 -4.81067e-20)
(0.719141 -0.203777 3.19166e-20)
(0.679881 -0.242001 1.21976e-20)
(0.695212 -0.23139 3.22211e-20)
(0.710121 -0.221238 4.17089e-19)
(0.724265 -0.211588 -6.74484e-20)
(0.701087 -0.239741 -2.04704e-20)
(0.715705 -0.229233 -1.99486e-20)
(0.729573 -0.219245 -2.99503e-19)
(0.707157 -0.247916 -3.1135e-19)
(0.721475 -0.23706 -8.19725e-20)
(0.735059 -0.226741 2.05609e-19)
(0.713417 -0.255908 5.7733e-19)
(0.727426 -0.244715 -8.4441e-20)
(0.740719 -0.234073 -5.59447e-20)
(0.719861 -0.263714 -2.30935e-19)
(0.733551 -0.252193 -2.01702e-19)
(0.746549 -0.241235 2.23939e-19)
(0.739847 -0.259488 1.0619e-19)
(0.752542 -0.248223 -3.54785e-19)
(0.746306 -0.266598 2.26962e-19)
(0.758695 -0.255032 1.22836e-19)
(0.752924 -0.273518 -3.92547e-20)
(0.765001 -0.26166 1.09364e-19)
(0.759695 -0.280244 1.80236e-20)
(0.771456 -0.268102 -8.55314e-20)
(0.778056 -0.274354 -6.30061e-20)
(0.784794 -0.280414 -1.46385e-19)
(0.791665 -0.286278 4.4236e-21)
(0.999983 0.00185438 0)
(0.999139 0.00549324 0)
(0.997521 0.00915184 0)
(0.995242 0.0128776 0)
(0.992353 0.0167749 0)
(0.988916 0.020909 0)
(0.984965 0.0253545 0)
(0.980547 0.030181 0)
(0.97569 0.0354577 0)
(0.970441 0.0412599 0)
(0.964828 0.0476597 0)
(0.958912 0.0547401 0)
(0.952728 0.0625788 0)
(0.946359 0.0712657 0)
(0.939854 0.0808823 0)
(0.933333 0.0915216 0)
(0.92686 0.103262 0)
(0.920615 0.116189 0)
(0.91466 0.130367 0)
(0.909276 0.145856 0)
(0.90448 0.162688 0)
(0.900736 0.180868 0)
(0.897878 0.200393 0)
(0.896786 0.221132 0)
(0.896697 0.243149 0)
(0.899629 0.26582 0)
(0.902944 0.290222 0)
(0.999984 0.00194402 0)
(0.999167 0.00576512 0)
(0.997598 0.00959554 0)
(0.995388 0.0134963 0)
(0.99259 0.0175674 0)
(0.989267 0.0218785 0)
(0.985456 0.0265032 0)
(0.981207 0.0315112 0)
(0.976553 0.0369707 0)
(0.971547 0.0429541 0)
(0.966223 0.0495314 0)
(0.960647 0.056779 0)
(0.954864 0.0647702 0)
(0.948965 0.0735841 0)
(0.943006 0.0832947 0)
(0.937122 0.0939776 0)
(0.931377 0.105701 0)
(0.925971 0.118524 0)
(0.920958 0.132499 0)
(0.916642 0.147645 0)
(0.91301 0.163995 0)
(0.910566 0.181473 0)
(0.909054 0.200128 0)
(0.909453 0.219634 0)
(0.910757 0.240328 0)
(0.915289 0.260899 0)
(0.919654 0.283636 -1.61073e-28)
(0.999984 0.00203431 0)
(0.999197 0.00603845 0)
(0.997685 0.0100436 0)
(0.995553 0.0141223 0)
(0.99286 0.018371 0)
(0.989667 0.0228628 0)
(0.986015 0.0276706 0)
(0.981956 0.0328639 0)
(0.977528 0.0385096 0)
(0.972788 0.044677 0)
(0.967776 0.0514333 0)
(0.962564 0.0588484 0)
(0.957201 0.0669901 0)
(0.951788 0.0759263 0)
(0.946384 0.0857224 0)
(0.941132 0.0964356 0)
(0.9361 0.108123 0)
(0.931494 0.120816 0)
(0.927361 0.134556 0)
(0.924018 0.149316 0)
(0.92142 0.165133 0)
(0.920096 0.181849 0)
(0.91971 0.199574 0)
(0.921298 0.217786 0)
(0.92368 0.23709 0)
(0.929283 0.25562 0)
(0.934375 0.276464 0)
(0.999985 0.00212424 0)
(0.999228 0.00630991 0)
(0.997777 0.0104888 0)
(0.995732 0.0147425 0)
(0.993153 0.0191652 0)
(0.990102 0.0238325 0)
(0.986622 0.028817 0)
(0.98277 0.0341873 0)
(0.978585 0.0400093 0)
(0.97413 0.0463489 0)
(0.969449 0.0532703 0)
(0.964619 0.0608369 0)
(0.959694 0.0691113 0)
(0.95478 0.07815 0)
(0.949939 0.0880104 0)
(0.945322 0.0987326 0)
(0.94099 0.110363 0)
(0.937159 0.122907 0)
(0.933861 0.136398 0)
(0.93142 0.150769 0)
(0.92976 0.166061 0)
(0.929413 0.182048 0)
(0.929994 0.198894 0)
(0.932525 0.215933 0)
(0.935774 0.233955 0)
(0.942053 0.250807 0)
(0.947779 0.269946 0)
(0.999985 0.00221238 0)
(0.99926 0.00657523 0)
(0.997873 0.0109236 0)
(0.995919 0.0153465 0)
(0.993461 0.0199367 0)
(0.990561 0.0247712 0)
(0.987264 0.0299222 0)
(0.98363 0.0354571 0)
(0.979702 0.0414402 0)
(0.975546 0.0479337 0)
(0.971209 0.0549983 0)
(0.966775 0.0626905 0)
(0.962299 0.071067 0)
(0.957892 0.0801733 0)
(0.953618 0.0900581 0)
(0.94963 0.100745 0)
(0.945986 0.112271 0)
(0.942902 0.124616 0)
(0.940399 0.137807 0)
(0.938793 0.151742 0)
(0.93799 0.166467 0)
(0.938499 0.181702 0)
(0.939918 0.197654 0)
(0.943198 0.21356 0)
(0.947157 0.230337 0)
(0.953866 0.245698 0)
(0.96011 0.263263 0)
(0.999986 0.00229825 0)
(0.999294 0.00683301 0)
(0.997973 0.0113458 0)
(0.996115 0.0159314 0)
(0.993782 0.0206819 0)
(0.991039 0.0256749 0)
(0.987933 0.0309818 0)
(0.984526 0.0366685 0)
(0.980863 0.042797 0)
(0.977015 0.0494255 0)
(0.973032 0.0566106 0)
(0.969 0.0644018 0)
(0.964979 0.0728488 0)
(0.961081 0.0819867 0)
(0.957371 0.0918549 0)
(0.954 0.102462 0)
(0.951025 0.113832 0)
(0.948654 0.125928 0)
(0.9469 0.138766 0)
(0.946063 0.152215 0)
(0.946038 0.166329 0)
(0.947292 0.180781 0)
(0.949434 0.195818 0)
(0.953309 0.210613 0)
(0.957834 0.226166 0)
(0.964812 0.240142 0)
(0.971412 0.2562 0)
(0.999987 0.0023816 0)
(0.999329 0.00708265 0)
(0.998076 0.0117543 0)
(0.996317 0.0164961 0)
(0.994114 0.0213992 0)
(0.991533 0.0265414 0)
(0.988624 0.0319934 0)
(0.985449 0.0378184 0)
(0.982059 0.0440765 0)
(0.978524 0.050821 0)
(0.974899 0.0581043 0)
(0.971273 0.0659682 0)
(0.967706 0.0744558 0)
(0.964312 0.0835913 0)
(0.961155 0.0934051 0)
(0.958384 0.103891 0)
(0.956052 0.115064 0)
(0.954354 0.126867 0)
(0.953301 0.13931 0)
(0.953164 0.15224 0)
(0.953839 0.165713 0)
(0.955737 0.179372 0)
(0.958495 0.193496 0)
(0.96284 0.207218 0)
(0.967804 0.221591 0)
(0.974928 0.234287 0)
(0.98174 0.248922 0)
(0.999987 0.00246217 0)
(0.999365 0.00732346 0)
(0.998183 0.0121479 0)
(0.996525 0.0170387 0)
(0.994456 0.0220863 0)
(0.992041 0.027368 0)
(0.989333 0.0329533 0)
(0.986395 0.0389029 0)
(0.98328 0.045274 0)
(0.980062 0.0521153 0)
(0.976796 0.0594741 0)
(0.973574 0.0673849 0)
(0.970457 0.075884 0)
(0.967558 0.0849847 0)
(0.96494 0.0947092 0)
(0.962745 0.105037 0)
(0.961024 0.115976 0)
(0.959957 0.12745 0)
(0.959551 0.139468 0)
(0.960046 0.151854 0)
(0.961343 0.164672 0)
(0.963795 0.177545 0)
(0.967068 0.190771 0)
(0.971779 0.203475 0)
(0.97707 0.216727 0)
(0.984248 0.228253 0)
(0.991167 0.241573 0)
(0.999988 0.00253969 0)
(0.999403 0.00755466 0)
(0.998293 0.0125254 0)
(0.996738 0.0175574 0)
(0.994806 0.0227407 0)
(0.992561 0.0281516 0)
(0.990056 0.0338579 0)
(0.987358 0.0399178 0)
(0.984521 0.046385 0)
(0.981619 0.0533034 0)
(0.978713 0.0607151 0)
(0.97589 0.0686474 0)
(0.973215 0.0771295 0)
(0.970796 0.0861648 0)
(0.968697 0.0957673 0)
(0.967051 0.105904 0)
(0.965905 0.116576 0)
(0.965423 0.127693 0)
(0.965608 0.13926 0)
(0.966669 0.151088 0)
(0.968512 0.163247 0)
(0.971433 0.175347 0)
(0.97513 0.187702 0)
(0.980119 0.199445 0)
(0.985645 0.211643 2.10231e-28)
(0.992807 0.222106 -2.20434e-28)
(0.999754 0.234223 0)
(0.999989 0.00261388 0)
(0.999441 0.00777546 0)
(0.998405 0.0128852 0)
(0.996957 0.0180504 0)
(0.995163 0.0233601 0)
(0.99309 0.0288893 0)
(0.990791 0.034704 0)
(0.988334 0.0408593 0)
(0.985775 0.0474055 0)
(0.98319 0.0543813 0)
(0.980637 0.0618238 0)
(0.978207 0.0697526 0)
(0.975962 0.0781907 0)
(0.974007 0.0871315 0)
(0.972404 0.0965822 0)
(0.971276 0.106498 0)
(0.970667 0.116876 0)
(0.970721 0.127611 0)
(0.971441 0.13871 0)
(0.973003 0.149972 0)
(0.975318 0.161473 0)
(0.978631 0.172822 0)
(0.982671 0.184338 0)
(0.987862 0.195179 0)
(0.993544 0.206392 0)
(1.00064 0.21589 0)
(1.00755 0.226911 0)
(0.999989 0.00268448 0)
(0.99948 0.00798509 0)
(0.998519 0.0132262 0)
(0.997179 0.0185158 0)
(0.995526 0.0239421 0)
(0.993627 0.0295784 0)
(0.991535 0.0354885 0)
(0.98932 0.0417242 0)
(0.987038 0.0483322 0)
(0.984765 0.0553459 0)
(0.982561 0.0627973 0)
(0.980513 0.0706989 0)
(0.978685 0.0790671 0)
(0.977174 0.0878868 0)
(0.976042 0.0971587 0)
(0.975398 0.106829 0)
(0.975285 0.116888 0)
(0.975828 0.127225 0)
(0.977026 0.137843 0)
(0.979025 0.148538 0)
(0.981743 0.15939 0)
(0.985378 0.170012 0)
(0.989686 0.180728 0)
(0.995013 0.190725 0)
(1.00079 0.201023 0)
(1.00776 0.209645 0)
(1.0146 0.219669 0)
(0.99999 0.0027512 0)
(0.99952 0.0081828 0)
(0.998634 0.0135471 0)
(0.997404 0.018952 0)
(0.995894 0.0244848 0)
(0.994169 0.0302164 0)
(0.992285 0.0362087 0)
(0.990311 0.0425096 0)
(0.988303 0.0491623 0)
(0.986338 0.0561947 0)
(0.984475 0.063634 0)
(0.982798 0.0714855 0)
(0.98137 0.0797601 0)
(0.980282 0.0884343 0)
(0.979592 0.0975035 0)
(0.979399 0.106906 0)
(0.979741 0.116628 0)
(0.980724 0.126553 0)
(0.982345 0.136684 0)
(0.984723 0.146817 0)
(0.987779 0.157033 0)
(0.991671 0.166959 0)
(0.996183 0.176914 0)
(1.00159 0.186126 0)
(1.0074 0.195577 0)
(1.01423 0.203404 0)
(1.02094 0.212524 0)
(0.999991 0.00281379 0)
(0.99956 0.00836786 0)
(0.998752 0.0138466 0)
(0.997632 0.0193573 0)
(0.996264 0.024986 0)
(0.994714 0.0308011 0)
(0.993038 0.0368621 0)
(0.991302 0.0432131 0)
(0.989566 0.0498935 0)
(0.987902 0.056926 0)
(0.98637 0.0643328 0)
(0.985052 0.072113 0)
(0.984006 0.0802717 0)
(0.983318 0.0887788 0)
(0.983041 0.0976245 0)
(0.983264 0.106741 0)
(0.984019 0.116111 0)
(0.985395 0.125617 0)
(0.987386 0.13526 0)
(0.990086 0.14484 0)
(0.993422 0.154439 0)
(0.997514 0.1637 0)
(1.00217 0.172936 0)
(1.00761 0.181418 8.74829e-29)
(1.01341 0.190089 -9.17464e-29)
(1.02006 0.197197 7.61206e-29)
(1.02663 0.205498 -7.9797e-29)
(0.999992 0.00287202 0)
(0.999601 0.0085396 0)
(0.998869 0.0141237 0)
(0.99786 0.0197303 0)
(0.996636 0.0254439 0)
(0.995261 0.0313305 0)
(0.99379 0.0374465 0)
(0.992291 0.0438325 0)
(0.99082 0.050524 0)
(0.98945 0.0575386 0)
(0.988239 0.0648938 0)
(0.987263 0.0725826 0)
(0.98658 0.0806054 0)
(0.986268 0.088926 0)
(0.986376 0.0975306 0)
(0.986979 0.106347 0)
(0.988106 0.115356 0)
(0.98983 0.124438 0)
(0.992141 0.133597 0)
(0.995112 0.142636 0)
(0.998673 0.15164 0)
(1.00291 0.160269 0)
(1.00767 0.16883 0)
(1.0131 0.176636 0)
(1.01885 0.184588 0)
(1.02531 0.191047 0)
(1.03171 0.198607 0)
(0.999993 0.00292564 0)
(0.999642 0.00869735 0)
(0.998988 0.0143772 0)
(0.998089 0.0200696 0)
(0.997008 0.0258569 0)
(0.995806 0.0318026 0)
(0.994539 0.0379602 0)
(0.993271 0.0443663 0)
(0.992061 0.0510527 0)
(0.990975 0.058032 0)
(0.990073 0.0653174 0)
(0.989424 0.0728966 0)
(0.989084 0.0807655 0)
(0.989123 0.0888829 0)
(0.989584 0.0972318 0)
(0.990533 0.105737 0)
(0.991993 0.114379 0)
(0.994021 0.123038 0)
(0.996607 0.131718 0)
(0.9998 0.140233 0)
(1.00354 0.148666 0)
(1.00788 0.156698 0)
(1.01269 0.164626 0)
(1.01808 0.171808 0)
(1.02375 0.179101 0)
(1.03001 0.184972 0)
(1.03623 0.191863 -7.38306e-29)
(0.999993 0.00297445 0)
(0.999683 0.00884053 0)
(0.999106 0.0146063 0)
(0.998318 0.0203738 0)
(0.997378 0.0262236 0)
(0.996348 0.032216 0)
(0.995281 0.0384016 0)
(0.99424 0.0448132 0)
(0.993282 0.0514787 0)
(0.992471 0.0584064 0)
(0.991864 0.0656052 0)
(0.991526 0.073058 0)
(0.991508 0.0807568 0)
(0.991871 0.088657 0)
(0.992656 0.0967387 0)
(0.993917 0.104925 0)
(0.995672 0.113196 0)
(0.997964 0.121436 0)
(1.00078 0.129648 0)
(1.00415 0.137657 0)
(1.00803 0.145546 0)
(1.01244 0.153014 0)
(1.01726 0.160352 0)
(1.02258 0.166958 0)
(1.02815 0.173647 0)
(1.03419 0.178987 0)
(1.04022 0.185274 0)
(0.999994 0.00301825 0)
(0.999724 0.00896858 0)
(0.999224 0.0148099 0)
(0.998545 0.0206419 0)
(0.997746 0.0265426 0)
(0.996884 0.0325694 0)
(0.996013 0.0387696 0)
(0.995193 0.0451724 0)
(0.994479 0.051802 -9.82278e-28)
(0.993932 0.0586626 1.03169e-27)
(0.993606 0.065759 0)
(0.99356 0.0730704 0)
(0.993842 0.0805855 0)
(0.994505 0.0882567 0)
(0.995585 0.0960622 0)
(0.997124 0.103925 0)
(0.999137 0.111826 0)
(1.00165 0.119652 0)
(1.00466 0.12741 0)
(1.00818 0.134932 0)
(1.01215 0.142303 0)
(1.01659 0.149243 0)
(1.0214 0.156031 0)
(1.02662 0.162107 0)
(1.03208 0.168244 0)
(1.0379 0.173105 0)
(1.04373 0.178845 0)
(0.999995 0.00305685 0)
(0.999765 0.00908102 0)
(0.99934 0.0149875 0)
(0.99877 0.0208729 0)
(0.998108 0.0268129 0)
(0.997411 0.0328616 0)
(0.996732 0.0390634 0)
(0.996126 0.0454435 0)
(0.995647 0.052023 0)
(0.995352 0.0588019 0)
(0.995292 0.0657818 0)
(0.99552 0.0729385 0)
(0.99608 0.0802578 0)
(0.997017 0.0876906 0)
(0.998362 0.0952139 0)
(1.00015 0.102752 0)
(1.00239 0.110285 0)
(1.00509 0.117706 0)
(1.00826 0.125024 0)
(1.01188 0.132081 0)
(1.01591 0.138962 0)
(1.02035 0.145407 0)
(1.02513 0.151684 0)
(1.03024 0.157273 0)
(1.03556 0.162905 0)
(1.04116 0.167332 0)
(1.04679 0.172578 0)
(0.999996 0.00309012 0)
(0.999805 0.00917741 0)
(0.999455 0.0151382 0)
(0.998991 0.0210661 0)
(0.998465 0.0270337 0)
(0.997929 0.0330922 0)
(0.997435 0.0392825 0)
(0.997035 0.0456268 0)
(0.996781 0.0521424 0)
(0.996725 0.0588263 0)
(0.996915 0.0656768 0)
(0.997399 0.0726671 0)
(0.998214 0.0797808 0)
(0.999401 0.0869682 0)
(1.00098 0.0942053 0)
(1.00299 0.101418 0)
(1.00542 0.108589 0)
(1.00828 0.115616 0)
(1.01156 0.12251 0)
(1.01526 0.129124 0)
(1.01933 0.135543 0)
(1.02375 0.141525 0)
(1.02847 0.147329 0)
(1.03346 0.15247 0)
(1.03864 0.15764 0)
(1.04401 0.161676 0)
(1.04944 0.166475 0)
(0.999997 0.00311791 0)
(0.999844 0.00925741 0)
(0.999568 0.0152616 0)
(0.999208 0.0212207 0)
(0.998814 0.0272044 0)
(0.998434 0.0332605 0)
(0.998119 0.039427 0)
(0.997917 0.0457227 0)
(0.997877 0.0521618 0)
(0.998048 0.0587383 0)
(0.998471 0.0654479 0)
(0.999191 0.0722618 0)
(1.00024 0.0791621 0)
(1.00165 0.0860988 0)
(1.00344 0.0930481 0)
(1.00563 0.0999389 0)
(1.00823 0.106755 0)
(1.01122 0.1134 0)
(1.0146 0.119886 0)
(1.01834 0.12608 0)
(1.02242 0.132064 0)
(1.0268 0.137615 0)
(1.03144 0.14298 0)
(1.0363 0.14771 0)
(1.04132 0.152459 0)
(1.04648 0.156141 0)
(1.0517 0.160534 0)
(0.999998 0.00314012 0)
(0.999883 0.00932073 0)
(0.999678 0.0153573 0)
(0.99942 0.0213364 0)
(0.999153 0.0273246 0)
(0.998925 0.0333666 0)
(0.998782 0.0394973 0)
(0.998769 0.0457322 0)
(0.998931 0.052083 0)
(0.999314 0.0585409 5.03807e-28)
(0.999955 0.0650995 -5.29128e-28)
(1.00089 0.0717287 0)
(1.00215 0.0784093 0)
(1.00376 0.0850923 0)
(1.00574 0.0917539 0)
(1.00809 0.0983268 0)
(1.01082 0.104796 0)
(1.01391 0.111072 0)
(1.01736 0.11717 0)
(1.02112 0.122966 0)
(1.02519 0.128541 0)
(1.02952 0.13369 0)
(1.03406 0.13865 0)
(1.03879 0.143004 0)
(1.04365 0.147368 -4.70928e-29)
(1.04859 0.15073 4.93775e-29)
(1.05362 0.154755 0)
(0.999998 0.00315667 0)
(0.999921 0.00936716 0)
(0.999785 0.015425 0)
(0.999626 0.0214129 0)
(0.999483 0.0273943 0)
(0.9994 0.0334107 0)
(0.99942 0.0394939 0)
(0.999587 0.0456568 0)
(0.99994 0.0519082 0)
(1.00052 0.0582377 0)
(1.00136 0.0646365 0)
(1.0025 0.0710741 0)
(1.00395 0.0775307 0)
(1.00574 0.0839583 0)
(1.00787 0.0903343 0)
(1.01036 0.0965951 0)
(1.0132 0.102727 0)
(1.01637 0.108649 0)
(1.01985 0.114377 0)
(1.02363 0.119796 0)
(1.02766 0.124989 0)
(1.03192 0.129765 0)
(1.03636 0.134351 0)
(1.04094 0.138359 0)
(1.04565 0.142371 0)
(1.05038 0.145443 0)
(1.05521 0.149135 0)
(0.999999 0.00316752 0)
(0.999957 0.00939657 0)
(0.999889 0.0154646 0)
(0.999824 0.0214502 0)
(0.9998 0.0274136 0)
(0.999856 0.0333932 0)
(1.00003 0.0394179 0)
(1.00037 0.0454982 0)
(1.0009 0.0516404 0)
(1.00166 0.0578323 0)
(1.00269 0.064064 0)
(1.004 0.0703047 0)
(1.00563 0.0765343 0)
(1.00757 0.0827068 0)
(1.00984 0.0888007 0)
(1.01244 0.0947564 0)
(1.01536 0.100563 0)
(1.01859 0.106145 0)
(1.02209 0.111521 0)
(1.02585 0.116586 0)
(1.02984 0.12142 0)
(1.03401 0.12585 0)
(1.03835 0.13009 0)
(1.04278 0.133782 0)
(1.04733 0.137472 0)
(1.05186 0.140282 2.95055e-29)
(1.0565 0.143671 -3.09299e-29)
(1 0.00317263 0)
(0.999992 0.00940894 0)
(0.99999 0.015476 0)
(1.00002 0.0214484 0)
(1.0001 0.0273829 0)
(1.00029 0.0333151 0)
(1.00062 0.0392709 0)
(1.00111 0.0452586 0)
(1.00181 0.0512825 0)
(1.00274 0.0573292 0)
(1.00393 0.0633877 0)
(1.00541 0.0694274 0)
(1.00718 0.0754287 -6.18723e-28)
(1.00926 0.0813475 6.4971e-28)
(1.01165 0.0871639 0)
(1.01434 0.0928228 0)
(1.01732 0.0983152 0)
(1.02058 0.103573 0)
(1.02409 0.108615 0)
(1.02782 0.113347 0)
(1.03175 0.117846 0)
(1.03583 0.121955 0)
(1.04006 0.125876 0)
(1.04434 0.129278 -1.84685e-29)
(1.04872 0.132673 1.93683e-29)
(1.05306 0.135245 0)
(1.05751 0.138358 0)
(1 0.00317201 0)
(1.00003 0.00940428 0)
(1.00009 0.0154593 0)
(1.0002 0.0214078 0)
(1.0004 0.0273029 0)
(1.00071 0.0331773 0)
(1.00117 0.0390544 0)
(1.00181 0.0449404 0)
(1.00266 0.050838 0)
(1.00375 0.0567329 0)
(1.00509 0.0626133 0)
(1.00671 0.0684494 0)
(1.00862 0.0742221 0)
(1.01081 0.07989 0)
(1.01329 0.0854348 0)
(1.01605 0.0908057 0)
(1.01908 0.0959963 0)
(1.02235 0.100945 0)
(1.02585 0.105671 0)
(1.02954 0.11009 0)
(1.0334 0.114278 0)
(1.03738 0.118088 0)
(1.04149 0.121714 0)
(1.04562 0.12485 0)
(1.04985 0.127977 0)
(1.05399 0.130333 0)
(1.05826 0.133194 -2.15284e-29)
(1 0.0031657 0)
(1.00006 0.00938273 0)
(1.00018 0.015415 0)
(1.00037 0.0213289 0)
(1.00067 0.0271743 0)
(1.0011 0.0329812 0)
(1.00169 0.0387705 0)
(1.00247 0.0445467 0)
(1.00346 0.0503108 0)
(1.00469 0.0560482 0)
(1.00617 0.0617468 0)
(1.00791 0.0673778 0)
(1.00993 0.072923 0)
(1.01222 0.0783436 0)
(1.01477 0.0836235 0)
(1.01759 0.0887162 0)
(1.02064 0.0936175 0)
(1.02392 0.0982715 0)
(1.02739 0.1027 0)
(1.03103 0.106826 0)
(1.03481 0.110722 0)
(1.03869 0.114256 0)
(1.04267 0.117611 0)
(1.04665 0.120503 0)
(1.05072 0.123383 0)
(1.05468 0.125543 0)
(1.05878 0.128175 0)
(1 0.00315375 0)
(1.00009 0.00934449 0)
(1.00026 0.0153433 0)
(1.00054 0.0212125 0)
(1.00093 0.0269985 0)
(1.00147 0.0327286 0)
(1.00218 0.0384215 0)
(1.00309 0.0440803 0)
(1.00421 0.0497048 0)
(1.00556 0.0552802 0)
(1.00716 0.0607944 0)
(1.00901 0.0662198 0)
(1.01112 0.0715395 0)
(1.01349 0.0767177 0)
(1.0161 0.08174 0)
(1.01895 0.0865645 0)
(1.02202 0.0911892 0)
(1.02528 0.095564 0)
(1.02872 0.0997116 0)
(1.03229 0.103563 0)
(1.03599 0.107188 0)
(1.03976 0.110466 0)
(1.04361 0.113571 0)
(1.04745 0.116239 0)
(1.05136 0.118893 0)
(1.05515 0.120874 0)
(1.05908 0.123297 0)
(1 0.00313626 0)
(1.00012 0.00928985 0)
(1.00035 0.0152448 0)
(1.00069 0.0210593 0)
(1.00118 0.0267765 0)
(1.00182 0.0324212 0)
(1.00264 0.03801 0)
(1.00366 0.0435448 0)
(1.00489 0.0490244 0)
(1.00635 0.0544342 0)
(1.00806 0.0597623 0)
(1.01 0.0649827 0)
(1.01219 0.0700799 0)
(1.01462 0.0750209 0)
(1.01728 0.0797936 -5.4835e-28)
(1.02015 0.0843604 5.75729e-28)
(1.02321 0.0887212 0)
(1.02645 0.0928314 0)
(1.02984 0.0967146 0)
(1.03334 0.100308 0)
(1.03695 0.103682 0)
(1.0406 0.106723 0)
(1.04433 0.109597 0)
(1.04803 0.112059 0)
(1.05179 0.114506 0)
(1.05541 0.116324 0)
(1.05917 0.118556 0)
(1 0.00311334 0)
(1.00015 0.00921918 0)
(1.00042 0.0151203 0)
(1.00084 0.0208706 0)
(1.0014 0.0265101 0)
(1.00214 0.0320612 0)
(1.00306 0.0375389 0)
(1.00418 0.0429437 0)
(1.00552 0.0482741 0)
(1.00708 0.0535155 0)
(1.00887 0.0586568 0)
(1.01089 0.0636736 0)
(1.01315 0.068552 0)
(1.01562 0.0732619 0)
(1.01831 0.0777934 0)
(1.02118 0.0821131 0)
(1.02424 0.0862225 0)
(1.02744 0.0900825 0)
(1.03077 0.0937171 0)
(1.03419 0.0970705 0)
(1.03771 0.100209 0)
(1.04125 0.103031 0)
(1.04485 0.105691 0)
(1.04841 0.107965 0)
(1.05202 0.110222 0)
(1.05548 0.111892 0)
(1.05908 0.113948 0)
(1 0.00308514 0)
(1.00017 0.00913292 0)
(1.00049 0.0149703 0)
(1.00097 0.0206474 0)
(1.00161 0.0262008 0)
(1.00243 0.031651 0)
(1.00344 0.037011 0)
(1.00466 0.0422808 0)
(1.00608 0.0474583 0)
(1.00773 0.0525296 0)
(1.0096 0.0574842 0)
(1.01169 0.0622996 0)
(1.01399 0.0669635 0)
(1.0165 0.0714489 0)
(1.0192 0.0757479 0)
(1.02207 0.0798309 0)
(1.0251 0.0837015 0)
(1.02825 0.0873251 0)
(1.03152 0.0907262 0)
(1.03486 0.0938549 0)
(1.03827 0.0967751 0)
(1.0417 0.0993939 0)
(1.04518 0.101857 0)
(1.0486 0.103957 0)
(1.05207 0.10604 9.9934e-30)
(1.05537 0.107575 -1.04781e-29)
(1.05882 0.109469 0)
(1 0.00305181 0)
(1.00019 0.00903158 0)
(1.00056 0.014796 0)
(1.00109 0.0203911 0)
(1.0018 0.0258506 0)
(1.0027 0.031193 0)
(1.00379 0.0364296 0)
(1.00509 0.0415601 0)