/*--------------------------------*- C++ -*----------------------------------*\
  =========                 |
  \\      /  F ield         | OpenFOAM: The Open Source CFD Toolbox
   \\    /   O peration     | Website:  https://openfoam.org
    \\  /    A nd           | Version:  7
     \\/     M anipulation  |
\*---------------------------------------------------------------------------*/
FoamFile
{
    version     2.0;
    format      ascii;
    class       volVectorField;
    location    "120";
    object      U;
}
// * * * * * * * * * * * * * * * * * * * * * * * * * * * * * * * * * * * * * //

dimensions      [0 1 -1 0 0 0 0];

internalField   nonuniform List<vector> 
4575
(
(0.773005 0.287979 -6.70653e-23)
(0.772561 0.159106 6.17938e-23)
(0.786074 0.0164759 -7.85071e-23)
(0.804381 -0.120105 -5.7844e-23)
(0.811157 -0.233103 -1.05753e-22)
(0.806028 -0.30902 -1.47279e-23)
(0.795633 -0.343425 3.40268e-23)
(0.790983 -0.299032 4.87198e-23)
(0.790214 -0.215216 -2.02275e-23)
(0.794504 -0.0725505 -4.77593e-23)
(0.794266 0.0683049 -1.43369e-23)
(0.792227 0.197747 5.78262e-23)
(0.78548 0.297717 1.06378e-23)
(0.785334 0.291061 -5.86699e-23)
(0.783553 0.265287 5.68539e-23)
(0.784217 0.114195 1.65312e-23)
(0.775317 -0.0175694 -8.03008e-24)
(0.77083 -0.156531 -3.90783e-24)
(0.760188 -0.289221 -9.71894e-24)
(0.763107 -0.228039 -6.6137e-24)
(0.755979 -0.236774 8.8678e-25)
(0.75254 -0.0357381 -2.71422e-23)
(0.733481 0.12502 1.00742e-23)
(0.772809 0.288574 4.38369e-23)
(0.772256 0.158787 -1.91889e-22)
(0.785871 0.0155852 4.00128e-23)
(0.804524 -0.120795 -1.61857e-22)
(0.81157 -0.233118 5.10437e-23)
(0.806388 -0.308556 -1.24401e-22)
(0.795757 -0.343008 -1.18315e-22)
(0.791079 -0.298904 -1.76305e-22)
(0.790298 -0.215348 5.4589e-24)
(0.794518 -0.0726952 1.14462e-22)
(0.794135 0.068322 -8.62512e-23)
(0.792202 0.197933 -6.48349e-23)
(0.785807 0.297868 1.77665e-24)
(0.78585 0.291108 9.55395e-24)
(0.784212 0.265327 -3.40885e-23)
(0.784703 0.114416 -5.53958e-23)
(0.77565 -0.017242 1.97195e-22)
(0.77084 -0.156169 -7.35331e-23)
(0.759542 -0.28904 -1.17412e-22)
(0.762564 -0.227949 4.44941e-23)
(0.755151 -0.236562 -7.60538e-23)
(0.752399 -0.0352944 -2.87446e-23)
(0.734069 0.125398 -1.91935e-23)
(0.77271 0.289233 -2.36185e-22)
(0.772031 0.158542 3.65316e-23)
(0.785735 0.0147516 7.27552e-23)
(0.804738 -0.121445 3.97745e-22)
(0.812069 -0.233099 2.48747e-23)
(0.806835 -0.308062 5.97995e-22)
(0.795953 -0.342585 -5.37796e-23)
(0.791226 -0.298799 3.06594e-22)
(0.790425 -0.215515 -2.2218e-22)
(0.794584 -0.0728789 -1.11553e-22)
(0.794073 0.0683014 2.38749e-22)
(0.792255 0.198077 1.33045e-22)
(0.786206 0.297994 1.22287e-22)
(0.786426 0.291151 3.72298e-23)
(0.784927 0.265383 5.97341e-23)
(0.785252 0.114668 1.22212e-22)
(0.776054 -0.0168856 -2.07943e-22)
(0.770931 -0.155768 4.91672e-23)
(0.758971 -0.288842 1.50763e-22)
(0.76209 -0.227858 5.88241e-23)
(0.754393 -0.236363 8.22731e-23)
(0.752336 -0.0348861 1.05768e-22)
(0.734734 0.12576 1.3716e-23)
(0.77271 0.289956 3.27665e-22)
(0.771889 0.158373 -4.17409e-22)
(0.785668 0.0139758 -6.19176e-23)
(0.805024 -0.122055 -6.79479e-23)
(0.812653 -0.233047 -7.27392e-23)
(0.807373 -0.307538 -2.3121e-22)
(0.796219 -0.342155 1.71848e-22)
(0.791422 -0.298713 -3.53312e-22)
(0.790595 -0.215718 8.36257e-23)
(0.794701 -0.0731021 2.12081e-22)
(0.794078 0.0682426 -3.24969e-22)
(0.792387 0.198179 -2.06403e-22)
(0.786677 0.298096 -3.08722e-23)
(0.787064 0.29119 1.65098e-22)
(0.785697 0.265455 -1.53855e-22)
(0.785862 0.11495 3.80726e-23)
(0.77653 -0.0165008 4.33689e-22)
(0.771103 -0.15533 -1.31815e-22)
(0.758473 -0.288627 7.19431e-23)
(0.761687 -0.227765 -7.85914e-23)
(0.753705 -0.236175 -5.60763e-23)
(0.75235 -0.0345134 4.1845e-23)
(0.735475 0.126104 -3.11012e-24)
(0.772813 0.290744 -7.75194e-23)
(0.771831 0.158281 6.14276e-22)
(0.78567 0.0132584 1.9518e-25)
(0.80538 -0.122628 3.0754e-22)
(0.813322 -0.232963 -3.18221e-22)
(0.807999 -0.306982 -1.17165e-22)
(0.796558 -0.341716 1.15337e-22)
(0.791668 -0.298648 3.53812e-22)
(0.790806 -0.215955 3.15065e-22)
(0.79487 -0.0733655 -6.43481e-22)
(0.79415 0.0681448 4.82726e-22)
(0.792596 0.198239 2.75831e-22)
(0.787218 0.298175 -3.2464e-23)
(0.78776 0.291226 2.92001e-23)
(0.78652 0.265544 4.36008e-22)
(0.786534 0.115262 -3.23152e-22)
(0.777077 -0.016088 -3.43553e-22)
(0.771358 -0.154854 2.85934e-22)
(0.75805 -0.288396 -5.66306e-23)
(0.761354 -0.22767 -9.39857e-23)
(0.753088 -0.236 5.70827e-23)
(0.752441 -0.0341764 -8.18735e-23)
(0.736292 0.126433 -2.1776e-23)
(0.773019 0.2916 4.68007e-22)
(0.771861 0.158269 -7.55638e-22)
(0.785744 0.0126004 -1.33079e-22)
(0.805808 -0.123163 -3.10565e-23)
(0.814076 -0.232847 8.12598e-22)
(0.808714 -0.306396 -4.56689e-22)
(0.796967 -0.341268 -2.01765e-22)
(0.791963 -0.298601 -1.31338e-22)
(0.791059 -0.216228 4.19969e-22)
(0.795089 -0.0736697 3.16392e-22)
(0.79429 0.0680072 4.50332e-23)
(0.792881 0.198258 -2.09592e-22)
(0.787829 0.298231 3.61768e-22)
(0.788516 0.291258 -1.55702e-22)
(0.787398 0.265648 -6.82065e-22)
(0.787267 0.115603 1.50632e-22)
(0.777695 -0.015648 -3.90642e-23)
(0.771696 -0.154341 -9.67674e-23)
(0.757702 -0.288147 -9.91941e-23)
(0.761091 -0.227574 4.03259e-23)
(0.75254 -0.235837 5.56226e-23)
(0.752608 -0.0338752 -3.13064e-24)
(0.737184 0.126744 1.74446e-23)
(0.773332 0.292524 7.21994e-22)
(0.771981 0.158338 1.13345e-21)
(0.78589 0.0120024 1.46299e-21)
(0.806306 -0.12366 -2.39824e-22)
(0.814914 -0.232702 -6.45002e-22)
(0.809519 -0.305778 4.32513e-23)
(0.797448 -0.340809 2.5038e-22)
(0.792307 -0.298572 -1.34631e-22)
(0.791354 -0.216535 -4.14043e-22)
(0.795359 -0.0740153 -1.21956e-23)
(0.794496 0.0678291 -4.64473e-22)
(0.793243 0.198235 2.56033e-22)
(0.788509 0.298264 -5.75048e-23)
(0.789329 0.291288 -1.85122e-22)
(0.788328 0.265768 6.62098e-22)
(0.78806 0.115973 -4.12404e-22)
(0.778384 -0.0151812 4.74452e-23)
(0.772117 -0.15379 4.28977e-23)
(0.757429 -0.28788 1.92264e-22)
(0.7609 -0.227476 -1.06681e-22)
(0.752063 -0.235687 -7.53481e-23)
(0.752849 -0.03361 -4.80877e-23)
(0.73815 0.12704 1.06891e-23)
(0.773753 0.293518 -8.70957e-22)
(0.772193 0.158489 5.47148e-22)
(0.78611 0.0114656 -5.0419e-22)
(0.806875 -0.124122 -1.21257e-21)
(0.815835 -0.232527 -1.3294e-22)
(0.810414 -0.30513 4.19284e-22)
(0.798001 -0.340338 -5.26517e-23)
(0.7927 -0.298559 4.45103e-22)
(0.791688 -0.216877 -4.715e-22)
(0.795679 -0.074403 -1.49989e-22)
(0.794768 0.06761 7.62643e-23)
(0.793678 0.19817 -4.68268e-22)
(0.789257 0.298275 -2.58018e-22)
(0.790199 0.291315 -1.76978e-22)
(0.789311 0.265904 -3.34358e-23)
(0.788914 0.116371 4.82706e-22)
(0.779144 -0.0146884 5.62945e-22)
(0.772622 -0.153202 -7.59621e-22)
(0.757233 -0.287596 -3.92271e-22)
(0.760779 -0.227375 -1.72795e-22)
(0.751657 -0.23555 1.33383e-22)
(0.753165 -0.0333808 -7.34111e-25)
(0.73919 0.127318 2.64792e-24)
(0.774285 0.294582 -9.1591e-22)
(0.772499 0.158725 -1.83577e-22)
(0.786405 0.0109911 9.99232e-22)
(0.807513 -0.124547 1.53626e-21)
(0.816839 -0.232325 -8.5618e-22)
(0.811397 -0.30445 9.96586e-22)
(0.798626 -0.339854 5.22176e-22)
(0.793141 -0.298561 -3.04208e-22)
(0.792063 -0.217254 4.05233e-22)
(0.796048 -0.0748332 2.11925e-22)
(0.795106 0.0673492 7.15979e-23)
(0.794188 0.198063 -7.86779e-23)
(0.790073 0.298264 -9.062e-23)
(0.791126 0.29134 3.06903e-22)
(0.790345 0.266055 -2.62816e-23)
(0.789828 0.116796 -9.07902e-22)
(0.779975 -0.0141702 -9.89815e-22)
(0.773212 -0.152576 5.19504e-22)
(0.757113 -0.287294 2.79546e-22)
(0.760729 -0.227273 4.42353e-23)
(0.751321 -0.235425 -1.21619e-22)
(0.753553 -0.0331877 -3.89072e-23)
(0.740302 0.127581 -9.67083e-24)
(0.774929 0.295717 1.1666e-22)
(0.772902 0.159047 -2.01165e-21)
(0.786776 0.0105803 -2.04738e-22)
(0.808221 -0.124937 -6.83422e-23)
(0.817925 -0.232096 1.0065e-21)
(0.81247 -0.30374 -1.37407e-21)
(0.799322 -0.339354 -5.62434e-22)
(0.793629 -0.298577 -8.05099e-22)
(0.792478 -0.217664 -4.53963e-23)
(0.796466 -0.0753064 -4.06552e-22)
(0.795508 0.0670461 1.06513e-22)
(0.79477 0.197914 9.23918e-22)
(0.790954 0.298231 4.35194e-22)
(0.792107 0.291364 9.47088e-24)
(0.791429 0.266221 7.01282e-22)
(0.790801 0.117248 8.67853e-22)
(0.780876 -0.0136274 7.71617e-22)
(0.773885 -0.151914 9.96975e-22)
(0.757069 -0.286973 -4.22047e-22)
(0.760751 -0.227169 -6.68402e-23)
(0.751057 -0.235313 2.28021e-22)
(0.754013 -0.0330306 1.08695e-22)
(0.741486 0.127826 4.61788e-24)
(0.775686 0.296925 1.74117e-21)
(0.773403 0.159457 2.34977e-22)
(0.787225 0.0102339 -1.93622e-21)
(0.808998 -0.125292 -3.64856e-22)
(0.819091 -0.231842 -3.2799e-22)
(0.813631 -0.302998 -1.13616e-22)
(0.800091 -0.338839 4.97627e-22)
(0.794166 -0.298606 6.01657e-22)
(0.792931 -0.218108 -4.58365e-22)
(0.796933 -0.0758233 1.29696e-21)
(0.795974 0.0667002 -3.55024e-22)
(0.795423 0.197722 -7.29953e-22)
(0.7919 0.298178 -2.63867e-22)
(0.793143 0.291385 2.28625e-22)
(0.792564 0.266402 -1.82372e-22)
(0.791834 0.117726 7.35197e-22)
(0.781847 -0.0130605 -8.94509e-24)
(0.774644 -0.151216 -1.10887e-21)
(0.757102 -0.286633 2.338e-22)
(0.760844 -0.227062 3.34701e-22)
(0.750863 -0.235214 -2.14468e-22)
(0.754544 -0.0329097 -7.31144e-23)
(0.742742 0.128056 -1.16572e-23)
(0.776559 0.298205 2.91429e-22)
(0.774005 0.159956 -9.43502e-22)
(0.787752 0.00995312 1.79503e-22)
(0.809843 -0.125612 1.0644e-21)
(0.820337 -0.231563 3.82888e-22)
(0.81488 -0.302225 7.67168e-22)
(0.800932 -0.338305 1.01228e-21)
(0.794751 -0.298645 -8.67745e-23)
(0.793423 -0.218585 4.6056e-22)
(0.797446 -0.0763842 -3.12001e-22)
(0.796504 0.0663109 3.5233e-22)
(0.796147 0.197489 2.83868e-22)
(0.792911 0.298104 -6.6749e-22)
(0.794232 0.291406 1.57055e-24)
(0.793747 0.266597 -3.14587e-22)
(0.792924 0.11823 -1.19821e-21)
(0.782888 -0.0124705 6.24525e-22)
(0.775488 -0.150481 -4.90958e-22)
(0.757212 -0.286274 -1.80189e-22)
(0.761007 -0.226953 -9.13107e-23)
(0.75074 -0.235127 3.95548e-23)
(0.755145 -0.0328248 3.58482e-23)
(0.744067 0.128268 2.23893e-23)
(0.777549 0.299558 -1.44681e-21)
(0.77471 0.160545 -6.63925e-22)
(0.788359 0.00973979 9.73166e-22)
(0.810757 -0.125897 -1.03677e-21)
(0.821661 -0.231262 2.36494e-22)
(0.816217 -0.301422 1.26739e-22)
(0.801845 -0.337753 -2.40758e-21)
(0.795383 -0.298694 6.99088e-23)
(0.793953 -0.219095 -1.00122e-21)
(0.798007 -0.0769895 -6.31713e-22)
(0.797096 0.0658779 2.65005e-22)
(0.796939 0.197213 -1.78128e-22)
(0.793984 0.29801 4.88283e-22)
(0.795373 0.291425 1.85904e-22)
(0.794978 0.266807 -1.29136e-21)
(0.794072 0.118759 1.21767e-21)
(0.783998 -0.011858 -3.73225e-22)
(0.776416 -0.14971 1.46713e-21)
(0.7574 -0.285896 -1.79285e-22)
(0.761242 -0.226841 1.19829e-23)
(0.750688 -0.235054 2.53335e-23)
(0.755815 -0.0327758 9.84781e-24)
(0.745462 0.128464 -8.49288e-24)
(0.778656 0.300984 2.69501e-21)
(0.775519 0.161228 1.15042e-21)
(0.789048 0.00959553 -4.41737e-22)
(0.811737 -0.126148 6.47873e-22)
(0.823061 -0.230938 2.06199e-21)
(0.817641 -0.300588 -1.73428e-21)
(0.802831 -0.337181 1.7181e-21)
(0.796062 -0.298751 -1.41626e-23)
(0.794521 -0.219637 7.12521e-22)
(0.798613 -0.0776397 5.79946e-22)
(0.79775 0.0654006 -4.9738e-22)
(0.7978 0.196896 -1.55846e-22)
(0.795119 0.297895 -1.56689e-22)
(0.796566 0.291444 -1.08225e-21)
(0.796256 0.26703 1.03313e-21)
(0.795277 0.119311 -2.96993e-22)
(0.785177 -0.0112239 4.72875e-22)
(0.777429 -0.148904 -5.55814e-23)
(0.757666 -0.285498 -6.20896e-23)
(0.761548 -0.226726 -2.56997e-22)
(0.750708 -0.234992 -2.76171e-22)
(0.756552 -0.0327628 2.31114e-24)
(0.746926 0.128644 1.01287e-23)
(0.779881 0.302484 -4.5909e-22)
(0.776434 0.162004 -1.21946e-21)
(0.789819 0.00952177 -8.08998e-22)
(0.812785 -0.126363 -3.40031e-21)
(0.824537 -0.230593 -2.45909e-22)
(0.819152 -0.299724 2.89323e-22)
(0.80389 -0.336586 -2.36862e-21)
(0.796789 -0.298815 3.01803e-22)
(0.795125 -0.220212 1.0128e-22)
(0.799264 -0.078335 3.3627e-22)
(0.798464 0.0648786 2.5782e-23)
(0.798726 0.196537 4.59212e-22)
(0.796315 0.297762 3.43072e-22)
(0.79781 0.291462 1.17191e-21)
(0.797579 0.267267 -1.06068e-21)
(0.796539 0.119887 -5.91265e-22)
(0.786423 -0.010569 -1.16411e-21)
(0.778528 -0.148063 2.61166e-22)
(0.758009 -0.28508 9.33194e-22)
(0.761924 -0.226608 7.73501e-22)
(0.750798 -0.234944 1.6694e-22)
(0.757355 -0.0327856 2.13802e-23)
(0.748458 0.128807 3.69255e-24)
(0.781226 0.304057 7.19805e-22)
(0.777457 0.162875 3.68085e-21)
(0.790674 0.00952014 -8.80985e-22)
(0.813899 -0.126544 1.78164e-21)
(0.826087 -0.230228 1.07552e-21)
(0.820748 -0.29883 8.14961e-22)
(0.805022 -0.335969 1.51755e-21)
(0.797563 -0.298884 5.55854e-23)
(0.795766 -0.220817 2.77786e-22)
(0.799959 -0.0790758 -4.99848e-22)
(0.799237 0.0643115 4.79779e-22)
(0.799719 0.196136 -5.97282e-22)
(0.79757 0.297608 5.2254e-24)
(0.799103 0.291479 -6.61327e-22)
(0.798948 0.267517 1.03757e-21)
(0.797855 0.120485 -1.02796e-22)
(0.787738 -0.00989416 1.17479e-21)
(0.779711 -0.147187 -4.34762e-22)
(0.758431 -0.284642 -7.1912e-22)
(0.762371 -0.226487 -7.9531e-22)
(0.750959 -0.234907 3.01702e-22)
(0.758224 -0.032844 -3.98632e-23)
(0.750056 0.128954 -1.10485e-22)
(0.78269 0.305703 1.90805e-22)
(0.778589 0.163843 -1.68098e-21)
(0.791614 0.00959233 3.76402e-21)
(0.815079 -0.12669 -1.50787e-21)
(0.827709 -0.229845 -6.78129e-22)
(0.822429 -0.297906 -2.1907e-22)
(0.806228 -0.335328 -1.93328e-21)
(0.798384 -0.298957 1.56066e-21)
(0.796442 -0.221452 -8.2858e-22)
(0.800697 -0.0798623 3.41579e-22)
(0.800069 0.0636989 -3.0586e-22)
(0.800775 0.195693 2.39889e-22)
(0.798884 0.297436 -2.97195e-22)
(0.800445 0.291497 4.12671e-22)
(0.80036 0.26778 -2.17372e-22)
(0.799226 0.121105 6.07785e-22)
(0.789119 -0.00920025 -1.30095e-21)
(0.780979 -0.146276 -8.73127e-22)
(0.758931 -0.284183 3.52251e-22)
(0.762888 -0.226363 8.90007e-22)
(0.751191 -0.234882 -4.39483e-22)
(0.759156 -0.0329379 7.87821e-23)
(0.75172 0.129084 -2.98473e-23)
(0.784275 0.307421 2.10164e-21)
(0.779831 0.164908 -2.31213e-22)
(0.79264 0.00974035 2.6185e-22)
(0.816324 -0.1268 8.76588e-22)
(0.829401 -0.229444 -1.82523e-21)
(0.824194 -0.296953 9.95937e-22)
(0.807506 -0.334661 2.20387e-21)
(0.799252 -0.299031 -1.92325e-21)
(0.797154 -0.222118 8.86689e-23)
(0.801477 -0.0806947 -4.33132e-22)
(0.800958 0.0630407 -5.26304e-22)
(0.801893 0.195208 3.42892e-22)
(0.800255 0.297245 6.11345e-22)
(0.801835 0.291514 -3.81777e-22)
(0.801815 0.268056 1.76797e-22)
(0.80065 0.121746 -1.17484e-21)
(0.790566 -0.00848817 -3.65015e-22)
(0.782331 -0.145332 2.1129e-22)
(0.75951 -0.283703 -1.14239e-21)
(0.763476 -0.226235 -4.31878e-22)
(0.751493 -0.23487 4.23097e-23)
(0.760151 -0.0330671 -1.51878e-22)
(0.753448 0.129197 7.86489e-23)
(0.785978 0.309212 1.66542e-22)
(0.781184 0.166072 -2.86829e-21)
(0.793753 0.00996632 -2.93987e-21)
(0.817634 -0.126875 2.29632e-21)
(0.831162 -0.229027 5.68769e-22)
(0.826041 -0.295972 7.4898e-23)
(0.808859 -0.333967 -1.62043e-21)
(0.800167 -0.299105 9.54436e-22)
(0.797901 -0.222812 6.25808e-22)
(0.802298 -0.0815731 -2.38245e-22)
(0.801902 0.0623363 2.29871e-22)
(0.803073 0.194682 -1.25179e-22)
(0.801683 0.297036 -1.00819e-21)
(0.803271 0.291532 6.70646e-22)
(0.803311 0.268343 -6.43227e-23)
(0.802126 0.122407 1.33879e-21)
(0.792078 -0.00775881 1.08915e-21)
(0.783767 -0.144354 -1.69724e-22)
(0.760168 -0.283202 6.76963e-22)
(0.764133 -0.226104 -2.07071e-22)
(0.751866 -0.234869 1.27165e-22)
(0.761208 -0.0332314 2.37805e-22)
(0.755241 0.129293 -4.25416e-23)
(0.787802 0.311074 -5.08083e-22)
(0.78265 0.167336 -4.40778e-22)
(0.794955 0.0102713 8.4436e-22)
(0.819008 -0.126912 -5.18306e-22)
(0.83299 -0.228594 -2.33592e-21)
(0.827968 -0.294963 2.86681e-22)
(0.810285 -0.333246 -4.53899e-22)
(0.801129 -0.299178 -3.57825e-22)
(0.798683 -0.223535 -5.16756e-22)
(0.803158 -0.0824976 9.01511e-24)
(0.802901 0.0615856 8.29966e-23)
(0.804312 0.194114 -2.3859e-22)
(0.803165 0.296808 5.77572e-22)
(0.804754 0.29155 1.6452e-22)
(0.804848 0.268643 -1.1807e-21)
(0.803654 0.123087 -2.20952e-21)
(0.793654 -0.00701313 6.37707e-22)
(0.785287 -0.143343 -9.62139e-22)
(0.760905 -0.282679 1.87334e-21)
(0.764859 -0.225968 2.41413e-22)
(0.752309 -0.23488 -7.31031e-23)
(0.762325 -0.0334305 -2.80973e-22)
(0.757096 0.129373 -1.39749e-22)
(0.789744 0.313006 -1.91584e-21)
(0.784229 0.1687 4.29183e-21)
(0.796246 0.0106564 -2.5597e-22)
(0.820447 -0.126912 -3.44462e-21)
(0.834882 -0.228146 1.23008e-21)
(0.829975 -0.293927 -3.38165e-21)
(0.811786 -0.332495 1.09999e-21)
(0.802137 -0.299247 1.0643e-21)
(0.799498 -0.224284 -2.35763e-23)
(0.804058 -0.0834682 6.89043e-22)
(0.803954 0.0607884 8.97093e-23)
(0.805609 0.193504 3.53916e-23)
(0.804701 0.296563 2.17819e-22)
(0.806281 0.291569 -4.32062e-22)
(0.806424 0.268953 1.81347e-21)
(0.805233 0.123786 1.48682e-21)
(0.795294 -0.00625205 1.75105e-22)
(0.786889 -0.1423 5.30574e-22)
(0.761722 -0.282134 2.68826e-22)
(0.765654 -0.225828 -3.95023e-22)
(0.752823 -0.234901 -4.04402e-23)
(0.7635 -0.0336642 1.60562e-22)
(0.759013 0.129437 2.38296e-22)
(0.791804 0.315007 4.0921e-21)
(0.785922 0.170166 -2.73722e-21)
(0.797628 0.0111243 2.92441e-21)
(0.821949 -0.126873 1.83258e-22)
(0.836838 -0.227685 5.55522e-22)
(0.83206 -0.292864 3.04532e-21)
(0.813361 -0.331715 2.00774e-22)
(0.803191 -0.299311 -1.07214e-21)
(0.800347 -0.22506 -4.29453e-22)
(0.804995 -0.0844849 1.67043e-23)
(0.805058 0.0599444 2.73754e-23)
(0.806963 0.192854 3.19593e-22)
(0.806289 0.296299 -4.08706e-22)
(0.807853 0.291589 -9.39647e-22)
(0.808038 0.269275 -1.53193e-21)
(0.806861 0.124502 -1.29408e-21)
(0.796996 -0.00547654 -3.72074e-21)
(0.788574 -0.141225 -4.53082e-23)
(0.762618 -0.281568 -2.54867e-21)
(0.766518 -0.225683 9.73992e-22)
(0.753406 -0.234934 -5.96221e-23)
(0.764733 -0.0339322 -1.53944e-22)
(0.760991 0.129483 2.13057e-22)
(0.793981 0.317076 -2.30404e-22)
(0.787728 0.171734 -3.91081e-22)
(0.799102 0.011678 -1.99611e-21)
(0.823514 -0.126795 6.59016e-22)
(0.838854 -0.227211 -1.46184e-21)
(0.834221 -0.291776 -1.86217e-21)
(0.81501 -0.330903 5.35254e-22)
(0.804292 -0.299368 1.27156e-21)
(0.801228 -0.225861 4.92446e-22)
(0.805968 -0.0855476 -1.09064e-22)
(0.806212 0.0590535 2.29733e-22)
(0.808373 0.192162 -5.02407e-22)
(0.807928 0.296018 6.7119e-22)
(0.809469 0.291609 1.19785e-21)
(0.809688 0.269607 1.19294e-21)
(0.808537 0.125236 2.49559e-22)
(0.79876 -0.00468757 9.14721e-23)
(0.79034 -0.140119 -1.2868e-21)
(0.763594 -0.280978 -1.29531e-22)
(0.767449 -0.225534 -8.11471e-22)
(0.754059 -0.234977 1.11625e-22)
(0.766023 -0.0342342 -3.42674e-23)
(0.763028 0.129513 -1.96695e-22)
(0.796274 0.319211 -3.63342e-21)
(0.789648 0.173403 -2.80579e-21)
(0.800667 0.0123194 5.24171e-21)
(0.825142 -0.126677 3.94149e-21)
(0.840929 -0.226725 2.3414e-21)
(0.836456 -0.290664 -8.80405e-22)
(0.816734 -0.330059 -2.10144e-21)
(0.805439 -0.299415 -4.83083e-22)
(0.802142 -0.226686 -7.15491e-22)
(0.806978 -0.0866561 -1.10077e-22)
(0.807415 0.0581155 -3.08146e-22)
(0.809836 0.191429 5.17836e-22)
(0.809618 0.295719 3.04271e-22)
(0.811126 0.291631 -5.65182e-22)
(0.811374 0.269949 4.94718e-22)
(0.81026 0.125985 2.69141e-22)
(0.800585 -0.00388613 4.28568e-21)
(0.792188 -0.138983 3.61944e-21)
(0.764651 -0.280366 5.41477e-22)
(0.768448 -0.225379 6.17336e-22)
(0.754781 -0.23503 1.91355e-22)
(0.767367 -0.0345697 -2.1607e-22)
(0.765124 0.129526 -2.67232e-23)
(0.79868 0.32141 -8.44537e-22)
(0.791683 0.175176 1.67169e-21)
(0.802327 0.0130488 -2.76941e-21)
(0.826833 -0.126516 -3.35774e-21)
(0.843061 -0.226228 1.41752e-21)
(0.838764 -0.289528 6.72288e-22)
(0.818533 -0.329182 1.40978e-21)
(0.806633 -0.299453 2.40653e-22)
(0.803088 -0.227533 7.3482e-22)
(0.808021 -0.0878102 -2.85337e-22)
(0.808666 0.0571304 -2.38329e-22)
(0.811352 0.190655 -8.57e-23)
(0.811357 0.295403 -7.84508e-22)
(0.812826 0.291654 -2.25648e-22)
(0.813095 0.270301 -1.15972e-21)
(0.812029 0.126749 5.44653e-22)
(0.802468 -0.0030732 -2.57525e-21)
(0.794115 -0.137817 -1.14136e-21)
(0.765788 -0.279731 1.04903e-21)
(0.769512 -0.225219 5.22364e-23)
(0.755572 -0.235093 -1.21211e-22)
(0.768764 -0.0349385 6.25445e-22)
(0.767277 0.129522 2.21598e-22)
(0.801199 0.323672 4.98139e-21)
(0.79383 0.177051 -3.84089e-21)
(0.80408 0.013868 -2.35755e-22)
(0.828586 -0.126313 -3.7904e-22)
(0.845249 -0.22572 4.93635e-22)
(0.841142 -0.28837 6.4803e-22)
(0.820406 -0.328272 -2.90524e-22)
(0.807872 -0.299477 -3.64119e-22)
(0.804065 -0.228403 -1.52933e-22)
(0.809099 -0.0890097 3.05472e-22)
(0.809964 0.0560981 1.17918e-22)
(0.812919 0.18984 -5.34893e-22)
(0.813143 0.29507 3.23506e-22)
(0.814567 0.291678 -7.53148e-22)
(0.814849 0.270663 -1.25424e-21)
(0.813843 0.127527 1.0361e-21)
(0.80441 -0.00224981 -5.70083e-22)
(0.796122 -0.136622 1.55065e-21)
(0.767005 -0.279072 -3.88144e-22)
(0.770642 -0.225053 -6.20672e-22)
(0.756431 -0.235166 1.40265e-22)
(0.770214 -0.0353402 -2.69002e-22)
(0.769486 0.129502 -3.86839e-24)
(0.803828 0.325994 -2.33322e-21)
(0.796091 0.179028 4.2164e-22)
(0.805928 0.0147805 -6.86849e-22)
(0.830402 -0.126065 1.5065e-21)
(0.847489 -0.225201 -3.55472e-21)
(0.843587 -0.28719 -2.18611e-21)
(0.822353 -0.327327 3.42347e-22)
(0.809158 -0.299487 5.09939e-22)
(0.805073 -0.229293 -6.15818e-22)
(0.810209 -0.0902541 -2.32273e-22)
(0.811306 0.0550185 1.52642e-22)
(0.814535 0.188985 3.33234e-22)
(0.814975 0.29472 -1.94562e-22)
(0.816347 0.291703 5.16655e-22)
(0.816635 0.271034 1.19338e-21)
(0.8157 0.128319 -1.23805e-21)
(0.806408 -0.00141694 1.72745e-21)
(0.798207 -0.135399 -2.04907e-21)
(0.768304 -0.27839 1.3811e-21)
(0.771837 -0.224881 -8.52887e-22)
(0.757357 -0.235247 6.07379e-24)
(0.771715 -0.0357744 3.78551e-22)
(0.77175 0.129464 -3.36074e-23)
(0.806565 0.328373 -3.24152e-21)
(0.798465 0.181108 2.70933e-21)
(0.807871 0.0157871 -2.53022e-21)
(0.832279 -0.125771 2.1608e-21)
(0.84978 -0.224673 4.47476e-21)
(0.846099 -0.285991 -1.18775e-22)
(0.824374 -0.326348 -1.79189e-21)
(0.81049 -0.29948 -4.18854e-22)
(0.806109 -0.230202 8.44417e-22)
(0.811351 -0.0915432 5.00719e-22)
(0.812692 0.0538918 2.36837e-22)
(0.8162 0.188089 -1.76554e-23)
(0.816853 0.294352 -1.81438e-22)
(0.818168 0.29173 1.72434e-22)
(0.818451 0.271413 3.43027e-22)
(0.8176 0.129123 -1.57994e-21)
(0.808462 -0.000575578 -1.27527e-22)
(0.800369 -0.134148 6.10441e-22)
(0.769683 -0.277683 -2.11551e-21)
(0.773095 -0.224702 1.26339e-21)
(0.758351 -0.235337 -1.044e-22)
(0.773265 -0.0362406 -4.09585e-22)
(0.774068 0.12941 -4.2756e-23)
(0.809407 0.330808 -2.7369e-21)
(0.80095 0.183289 -3.89181e-21)
(0.80991 0.0168891 4.64775e-21)
(0.834218 -0.125428 2.02084e-21)
(0.852119 -0.224136 -2.08104e-21)
(0.848674 -0.284772 -4.9511e-23)
(0.826469 -0.325333 1.02655e-21)
(0.811868 -0.299455 1.26876e-22)
(0.807175 -0.231128 -8.62946e-22)
(0.812523 -0.0928764 -3.2954e-22)
(0.81412 0.0527178 3.38389e-23)
(0.817911 0.187152 -2.7796e-22)
(0.818775 0.293968 -6.68156e-24)
(0.820027 0.291759 6.5962e-22)
(0.820298 0.271801 -7.24502e-22)
(0.819542 0.129939 7.30011e-22)
(0.810571 0.00027326 -1.41972e-21)
(0.802608 -0.132871 -5.61996e-22)
(0.771144 -0.276953 5.29258e-22)
(0.774416 -0.224516 -5.64735e-22)
(0.759412 -0.235436 8.72103e-24)
(0.774862 -0.0367384 -1.95373e-22)
(0.776439 0.129338 1.23744e-22)
(0.812351 0.333296 4.30106e-21)
(0.803547 0.185571 -1.64313e-21)
(0.812047 0.0180891 -2.11186e-21)
(0.836219 -0.125037 -2.63774e-22)
(0.854506 -0.22359 1.50671e-21)
(0.851311 -0.283537 -1.9435e-22)
(0.828636 -0.324282 2.25497e-22)
(0.813294 -0.299409 3.32422e-22)
(0.808268 -0.232071 5.89822e-22)
(0.813725 -0.0942533 -1.18262e-22)
(0.815589 0.0514968 -9.71882e-23)
(0.819668 0.186176 1.83715e-22)
(0.82074 0.293567 7.76961e-23)
(0.821923 0.29179 -3.3874e-22)
(0.822173 0.272197 -3.63295e-22)
(0.821523 0.130765 1.73735e-21)
(0.812732 0.00112842 1.22905e-21)
(0.804922 -0.131568 -6.09656e-22)
(0.772686 -0.276198 -6.20384e-22)
(0.775799 -0.224323 1.252e-22)
(0.760539 -0.235542 -6.44946e-23)
(0.776507 -0.0372673 3.68484e-22)
(0.778861 0.12925 8.98485e-24)
(0.815394 0.335833 -1.96615e-22)
(0.806253 0.187953 1.12365e-21)
(0.81428 0.0193882 -2.03471e-21)
(0.838281 -0.124593 -2.02163e-21)
(0.856937 -0.223035 -9.48544e-22)
(0.854006 -0.282285 1.51265e-21)
(0.830875 -0.323195 -1.21393e-21)
(0.814766 -0.299341 1.00267e-21)
(0.809387 -0.233028 -1.6457e-22)
(0.814956 -0.0956734 -2.3402e-23)
(0.817099 0.0502288 -8.52755e-24)
(0.821469 0.185159 8.02475e-24)
(0.822746 0.293149 3.2213e-22)
(0.823858 0.291822 6.72167e-22)
(0.824076 0.272601 1.28858e-23)
(0.823544 0.131602 -2.43319e-21)
(0.814945 0.00198891 4.12127e-22)
(0.807311 -0.130241 1.27421e-21)
(0.774308 -0.275418 9.32917e-22)
(0.777242 -0.224123 -4.60457e-22)
(0.76173 -0.235656 6.93734e-24)
(0.778196 -0.0378269 -1.98145e-22)
(0.781333 0.129144 -2.77592e-22)
(0.818533 0.338417 -1.70732e-21)
(0.809069 0.190435 -1.78951e-21)
(0.816612 0.0207878 5.69157e-21)
(0.840404 -0.124096 -1.06772e-21)
(0.85941 -0.222471 -1.66248e-21)
(0.856758 -0.281019 9.20109e-22)
(0.833184 -0.322072 -1.85097e-22)
(0.816287 -0.299249 -1.05865e-21)
(0.810532 -0.233998 4.47623e-23)
(0.816215 -0.0971362 9.15132e-23)
(0.818649 0.0489139 -7.21293e-24)
(0.823314 0.184103 3.06207e-23)
(0.824794 0.292714 -1.14587e-23)
(0.825828 0.291857 3.95801e-22)
(0.826006 0.273012 2.1859e-21)
(0.825603 0.132448 2.05686e-21)
(0.817207 0.00285379 1.07433e-21)
(0.809773 -0.128889 5.35497e-22)
(0.776012 -0.274613 3.65748e-22)
(0.778744 -0.223914 7.21526e-22)
(0.762987 -0.235776 -3.33107e-23)
(0.779929 -0.0384166 1.02455e-22)
(0.783854 0.129022 -7.91954e-23)
(0.821766 0.341044 2.01542e-21)
(0.811993 0.193013 -1.63897e-21)
(0.819042 0.0222894 -2.81168e-21)
(0.842589 -0.123544 -5.53381e-22)
(0.861924 -0.221898 4.64445e-22)
(0.859564 -0.279739 2.17505e-21)
(0.835564 -0.320913 -4.44219e-22)
(0.817855 -0.299131 1.19264e-21)
(0.811701 -0.23498 2.65383e-22)
(0.817501 -0.0986411 -5.3434e-24)
(0.820238 0.0475524 1.79197e-23)
(0.825201 0.183006 -3.29941e-23)
(0.826881 0.292262 7.96887e-25)
(0.827836 0.291893 -1.32544e-21)
(0.827961 0.273431 -1.93843e-21)
(0.827699 0.133302 -2.37908e-21)
(0.819518 0.00372204 -1.12411e-21)
(0.812307 -0.127515 -1.40632e-22)
(0.777796 -0.273783 -4.3435e-24)
(0.780304 -0.223696 3.0848e-23)
(0.764307 -0.235904 5.03449e-23)
(0.781705 -0.039036 -1.4874e-22)
(0.786423 0.128882 1.97384e-22)
(0.825089 0.343711 7.47091e-22)
(0.815026 0.195689 -4.10307e-21)
(0.821572 0.0238949 4.25492e-21)
(0.844836 -0.122933 -1.65657e-21)
(0.864476 -0.221317 1.38153e-21)
(0.862422 -0.278448 -1.32117e-22)
(0.838011 -0.319717 -1.33372e-21)
(0.819472 -0.298985 1.98814e-22)
(0.812894 -0.235972 -5.49236e-22)
(0.818813 -0.100188 -2.18863e-22)
(0.821866 0.0461442 -3.42154e-23)
(0.82713 0.181871 -1.03163e-22)
(0.829007 0.291793 1.79286e-22)
(0.829879 0.291932 7.63887e-22)
(0.829942 0.273856 7.19405e-22)
(0.829832 0.134164 -5.82799e-22)
(0.821876 0.00459273 -1.44723e-21)
(0.814912 -0.126119 5.25157e-22)
(0.77966 -0.272927 -2.93096e-22)
(0.78192 -0.223469 -4.4631e-23)
(0.765691 -0.236037 -3.09656e-23)
(0.78352 -0.0396845 -5.05289e-23)
(0.789038 0.128725 -9.10957e-23)
(0.8285 0.346414 -5.74601e-22)
(0.818168 0.198458 3.23866e-21)
(0.824203 0.0256048 4.45575e-22)
(0.847144 -0.122264 -1.38516e-21)
(0.867064 -0.220726 1.50366e-22)
(0.865329 -0.277147 -1.74386e-21)
(0.840526 -0.318486 8.62651e-22)
(0.821138 -0.298809 -8.78351e-22)
(0.81411 -0.236971 4.88915e-22)
(0.820148 -0.101775 1.32142e-22)
(0.823534 0.0446899 -2.00442e-23)
(0.829102 0.180696 -1.12652e-23)
(0.831172 0.291307 -1.91208e-22)
(0.831958 0.291973 -8.75667e-23)
(0.831948 0.274288 8.69461e-22)
(0.832001 0.135033 2.80572e-21)
(0.824279 0.00546469 3.40698e-22)
(0.817588 -0.124703 -1.65296e-21)
(0.781604 -0.272046 -2.91982e-22)
(0.783593 -0.223233 -1.77411e-22)
(0.767136 -0.236175 3.50528e-24)
(0.785376 -0.0403616 -1.49784e-22)
(0.791699 0.128551 2.16622e-23)
(0.831997 0.349147 -1.10452e-22)
(0.82142 0.201316 -9.37614e-22)
(0.826935 0.027415 -3.86631e-22)
(0.849513 -0.121534 3.13156e-22)
(0.869686 -0.220126 5.95606e-22)
(0.868283 -0.275836 3.99788e-22)
(0.843106 -0.317217 4.02747e-22)
(0.822853 -0.298598 2.10873e-22)
(0.815347 -0.237973 1.89844e-22)
(0.821507 -0.103399 -1.18977e-23)
(0.825241 0.0431916 -1.96015e-23)
(0.831118 0.179483 3.37816e-23)
(0.833376 0.290804 3.51687e-23)
(0.834073 0.292016 -1.71208e-22)
(0.833979 0.274725 -9.45591e-22)
(0.834205 0.135907 -1.74065e-21)
(0.826726 0.00633593 2.01487e-21)
(0.820333 -0.123267 9.46694e-22)
(0.783628 -0.271139 1.98992e-22)
(0.78532 -0.222985 -4.18711e-23)
(0.768644 -0.236318 -2.21456e-23)
(0.787269 -0.0410664 5.2378e-22)
(0.794403 0.12836 1.1132e-22)
(0.835582 0.351901 -1.06408e-21)
(0.824786 0.204257 -7.70809e-22)
(0.829772 0.0293262 1.85217e-21)
(0.851943 -0.120738 -1.44166e-21)
(0.87234 -0.219511 2.10343e-21)
(0.87128 -0.274513 -2.89282e-22)
(0.84575 -0.31591 -1.01752e-21)
(0.824618 -0.298353 3.66647e-22)
(0.816606 -0.238979 -4.73864e-22)
(0.822886 -0.105062 -1.58023e-23)
(0.826989 0.0416487 1.54049e-23)
(0.83318 0.178233 1.1124e-23)
(0.835621 0.290285 2.56329e-22)
(0.836225 0.29206 -5.13781e-23)
(0.836035 0.275167 1.86786e-22)
(0.836444 0.136785 2.75175e-22)
(0.829214 0.00720552 -8.48186e-22)
(0.823146 -0.121812 -7.80891e-22)
(0.78573 -0.270204 -1.93424e-22)
(0.7871 -0.222727 -1.18159e-22)
(0.770212 -0.236466 3.43484e-23)
(0.789198 -0.0417985 -4.01969e-22)
(0.797149 0.128152 -1.38576e-22)
(0.839261 0.354693 -2.34027e-21)
(0.828272 0.207315 4.81338e-21)
(0.832715 0.031386 -3.00955e-21)
(0.854435 -0.119851 -6.63967e-22)
(0.875025 -0.21888 1.26739e-21)
(0.874319 -0.27319 -7.28817e-22)
(0.848456 -0.31458 6.84851e-22)
(0.826433 -0.298089 3.28739e-22)
(0.817885 -0.24001 -1.34462e-23)
(0.824283 -0.106787 1.16503e-22)