/*--------------------------------*- C++ -*----------------------------------*\
  =========                 |
  \\      /  F ield         | OpenFOAM: The Open Source CFD Toolbox
   \\    /   O peration     | Website:  https://openfoam.org
    \\  /    A nd           | Version:  7
     \\/     M anipulation  |
\*---------------------------------------------------------------------------*/
FoamFile
{
    version     2.0;
    format      ascii;
    class       surfaceScalarField;
    location    "100";
    object      phi;
}
// * * * * * * * * * * * * * * * * * * * * * * * * * * * * * * * * * * * * * //

dimensions      [0 3 -1 0 0 0 0];

internalField   nonuniform List<scalar> 
8899
(
-1.70565e-05
9.79942e-05
-9.09349e-05
-2.57141e-05
0.000137665
-0.000129008
-3.58535e-05
0.00017988
-0.00016974
-4.73678e-05
0.000223564
-0.00021205
-6.0148e-05
0.000267989
-0.000255209
-7.40761e-05
0.00031282
-0.000298891
-8.90245e-05
0.000358115
-0.000343167
-0.000104861
0.000404282
-0.000388446
-0.000121457
0.00045199
-0.000435394
-0.0001387
0.000502077
-0.000484834
-0.000156505
0.000555464
-0.000537659
-0.000174812
0.000613082
-0.000594775
-0.000193592
0.000675842
-0.000657062
-0.00021283
0.000744613
-0.000725376
-0.000232513
0.000820228
-0.000800545
-0.000252607
0.000903424
-0.000883331
0.000994924
-0.00097449
-0.000273041
-1.53503e-05
0.000104355
-2.31647e-05
0.00014548
-3.23333e-05
0.000189049
-4.27627e-05
0.000233994
-5.43534e-05
0.00027958
-6.69911e-05
0.000325457
-8.05455e-05
0.00037167
-9.48729e-05
0.000418609
-0.000109825
0.000466942
-0.000125261
0.000517513
-0.000141053
0.000571255
-0.000157094
0.000629123
-0.000173294
0.000692042
-0.000189573
0.000760893
-0.00020585
0.000836505
-0.000222023
0.000919598
0.00101085
-0.000237954
-1.35955e-05
0.000109996
-2.05358e-05
0.00015242
-2.86928e-05
0.000197206
-3.79859e-05
0.000243287
-4.83237e-05
0.000289917
-5.95953e-05
0.000336729
-7.16665e-05
0.000383741
-8.43819e-05
0.000431325
-9.75725e-05
0.000480133
-0.000111065
0.000531006
-0.000124691
0.000584882
-0.000138292
0.000642724
-0.000151718
0.000705468
-0.000164822
0.000773997
-0.000177454
0.000849136
-0.00018945
0.000931594
0.001022
-0.000200596
-1.18135e-05
0.000114901
-1.78583e-05
0.000158465
-2.49734e-05
0.000204321
-3.30893e-05
0.000251403
-4.21223e-05
0.00029895
-5.19636e-05
0.00034657
-6.24749e-05
0.000394252
-7.34886e-05
0.000442339
-8.48141e-05
0.000491458
-9.62463e-05
0.000542438
-0.000107575
0.00059621
-0.000118588
0.000653737
-0.000129076
0.000715956
-0.000138825
0.000783746
-0.000147618
0.000857929
-0.000155232
0.000939208
0.00102814
-0.000161375
-1.00259e-05
0.000119067
-1.51635e-05
0.000163602
-2.12168e-05
0.000210374
-2.81263e-05
0.000258312
-3.58143e-05
0.000306638
-4.41738e-05
0.00035493
-5.30618e-05
0.00040314
-6.22985e-05
0.000451575
-7.16716e-05
0.000500832
-8.09444e-05
0.000551711
-8.9864e-05
0.000605129
-9.81674e-05
0.00066204
-0.000105585
0.000723373
-0.000111837
0.000789998
-0.000116641
0.000862733
-0.000119723
0.000942291
0.00102913
-0.000120707
-8.25398e-06
0.000122495
-1.24825e-05
0.000167831
-1.74653e-05
0.000215357
-2.31508e-05
0.000263998
-2.94663e-05
0.000312954
-3.63057e-05
0.000361769
-4.35211e-05
0.000410355
-5.09205e-05
0.000458975
-5.82708e-05
0.000508182
-6.53043e-05
0.000558744
-7.17266e-05
0.000611552
-7.72241e-05
0.000667538
-8.14681e-05
0.000727617
-8.41173e-05
0.000792648
-8.4827e-05
0.000863443
-8.32831e-05
0.000940747
0.00102487
-7.90273e-05
-6.51873e-06
0.000125197
-9.84619e-06
0.000171158
-1.37609e-05
0.000219272
-1.82171e-05
0.000268454
-2.31457e-05
0.000317882
-2.84404e-05
0.000367064
-3.39487e-05
0.000415864
-3.94666e-05
0.000464493
-4.47412e-05
0.000513456
-4.94748e-05
0.000563478
-5.33338e-05
0.000615411
-5.5955e-05
0.000670159
-5.69535e-05
0.000728616
-5.59281e-05
0.000791622
-5.24729e-05
0.000859987
-4.626e-05
0.000934534
0.00101544
-3.68317e-05
-4.84047e-06
-7.28474e-06
0.000173603
-1.0145e-05
0.000222132
-1.3379e-05
0.000271688
-1.69196e-05
0.000321423
-2.06598e-05
0.000370804
-2.44417e-05
0.000419645
-2.80505e-05
0.000468101
-3.12142e-05
0.00051662
-3.36077e-05
0.000565871
-3.48595e-05
0.000616662
-3.456e-05
0.00066986
-3.22701e-05
0.000726326
-2.75322e-05
0.000786884
-1.98719e-05
0.000852327
-8.77795e-06
0.00092344
0.0010014
5.26078e-06
-4.82727e-06
0.000175191
-6.65775e-06
0.000223962
-8.68924e-06
0.000273719
-1.08546e-05
0.000323588
-1.3045e-05
0.000372994
-1.50972e-05
0.000421698
-1.67862e-05
0.00046979
-1.78227e-05
0.000517657
-1.78559e-05
0.000565904
-1.64794e-05
0.000615286
-1.32401e-05
0.00066662
-7.64727e-06
0.000720733
8.11563e-07
0.000778426
1.26494e-05
0.000840489
2.8323e-05
0.000907766
0.000981519
4.82079e-05
-2.50148e-06
0.000175961
-3.33793e-06
0.000224799
-4.19886e-06
0.00027458
-5.01544e-06
0.000324405
-5.67581e-06
0.000373655
-6.01138e-06
0.000422033
-5.78742e-06
0.000469567
-4.69895e-06
0.000516568
-2.3718e-06
0.000563577
1.63137e-06
0.000611283
7.80446e-06
0.000660447
1.66852e-05
0.000711852
2.88395e-05
0.000766271
4.48298e-05
0.000824499
6.51541e-05
0.000887442
0.000956456
9.02164e-05
-3.33176e-07
0.000175958
-2.2171e-07
0.000224687
4.36028e-08
0.000274315
5.3563e-07
0.000323913
1.37038e-06
0.00037282
2.72214e-06
0.000420682
4.83457e-06
0.000467454
8.02653e-06
0.000513376
1.26926e-05
0.000558911
1.92992e-05
0.000604676
2.8376e-05
0.00065137
4.05043e-05
0.000699724
5.62982e-05
0.000750477
7.63686e-05
0.000804428
0.000101242
0.000862569
0.000926408
0.00013129
1.65377e-06
0.000175236
2.65658e-06
0.000223684
3.99246e-06
0.000272979
5.73973e-06
0.000322166
8.01988e-06
0.00037054
1.10134e-05
0.000417688
1.49721e-05
0.000463495
2.02271e-05
0.000508121
2.71911e-05
0.000551947
3.63551e-05
0.000595512
4.82815e-05
0.000639444
6.35906e-05
0.000684415
8.29398e-05
0.000731128
0.000106982
0.000780386
0.000136264
0.000833287
0.000891567
0.000171106
3.43847e-06
0.000173856
5.26711e-06
0.000221856
7.60644e-06
0.00027064
1.05426e-05
0.00031923
1.4204e-05
0.000366879
1.87775e-05
0.000413115
2.45228e-05
0.00045775
3.17817e-05
0.000500862
4.09819e-05
0.000542747
5.26361e-05
0.000583858
6.73349e-05
0.000624745
8.57335e-05
0.000666016
0.000108528
0.000708333
0.000136408
0.000752507
0.000169936
0.000799758
0.000852141
0.000209362
5.00258e-06
0.000171888
7.58297e-06
0.000219275
1.08486e-05
0.000267374
1.48954e-05
0.000315183
1.986e-05
0.000361914
2.59365e-05
0.000407038
3.33918e-05
0.000450295
4.25768e-05
0.000491677
5.3932e-05
0.000531392
6.79882e-05
0.000569802
8.53603e-05
0.000607373
0.000106735
0.000644642
0.000132842
0.000682226
0.000164403
0.000720946
0.000201995
0.000762166
0.000808352
0.000245784
6.33091e-06
0.000169405
9.5817e-06
0.000216025
1.36873e-05
0.000263269
1.87557e-05
0.000310114
2.4933e-05
0.000355737
3.2421e-05
0.00039955
4.14937e-05
0.000441222
5.25096e-05
0.000480661
6.59198e-05
0.000517982
8.22699e-05
0.000553452
0.000102196
0.000587447
0.000126411
0.000620427
0.000155678
0.00065296
0.000190747
0.000685876
0.000232207
0.000720707
0.000760423
0.000280135
7.41177e-06
1.12455e-05
0.000212191
1.60972e-05
0.000258417
2.20886e-05
0.000304123
2.93767e-05
0.000348449
3.81717e-05
0.000390755
4.87545e-05
0.000430639
6.14902e-05
0.000467926
7.6838e-05
0.000502634
9.53557e-05
0.000534934
0.000117697
0.000565106
0.000144599
0.000593525
0.000176856
0.000620703
0.000215248
0.000647484
0.000260372
0.000675582
0.000708577
0.000312219
1.2562e-05
0.000207866
1.80597e-05
0.000252919
2.48678e-05
0.000297315
3.31554e-05
0.000340161
4.31419e-05
0.000380768
5.51148e-05
0.000418666
6.94448e-05
0.000453596
8.65978e-05
0.000485481
0.000107141
0.000514391
0.000131743
0.000540504
0.000161163
0.000564104
0.000196226
0.00058564
0.000237745
0.000605966
0.000286332
0.000626995
0.000653019
0.00034189
1.35243e-05
0.000203145
1.95638e-05
0.00024688
2.70766e-05
0.000289802
3.62453e-05
0.000330992
4.7299e-05
0.000369715
6.05319e-05
0.000405434
7.63196e-05
0.000437808
9.51329e-05
0.000466668
0.000117546
0.000491978
0.000144241
0.00051381
0.000175999
0.000532346
0.000213675
0.000547964
0.000258123
0.000561518
0.000309979
0.000575139
0.00059393
0.000369067
1.41318e-05
0.000198124
2.0607e-05
0.000240404
2.87093e-05
0.0002817
3.86361e-05
0.000321066
5.06269e-05
0.000357724
6.49829e-05
0.000391078
8.20841e-05
0.000420707
0.000102405
0.000446347
0.000126525
0.000467857
0.000155138
0.000485197
0.000189045
0.000498438
0.000229139
0.00050787
0.00027632
0.000514337
0.000331266
0.000520193
0.000531452
0.000393744
1.43908e-05
2.11957e-05
0.0002336
2.97719e-05
0.000273123
4.03324e-05
0.000310505
5.31282e-05
0.000344928
6.84677e-05
0.000375738
8.67349e-05
0.000402439
0.000108407
0.000424675
0.000134069
0.000442195
0.000164423
0.000454843
0.000200295
0.000462566
0.000242614
0.000465551
0.000292345
0.000464607
0.000350227
0.00046231
0.000465672
0.000416007
2.13462e-05
0.000226568
3.02832e-05
0.000264186
4.13555e-05
0.000299433
5.48262e-05
0.000331457
7.10117e-05
0.000359553
9.03006e-05
0.000383151
0.000113173
0.000401802
0.000140217
0.000415152
0.000172145
0.000422915
0.000209805
0.000424906
0.000254174
0.000421182
0.000306292
0.000412489
0.000366993
0.000401609
0.000396612
0.000436054
2.10851e-05
0.000219407
3.02759e-05
0.000254996
4.17442e-05
0.000287965
5.57668e-05
0.000317435
7.2669e-05
0.00034265
9.28448e-05
0.000362975
0.000116778
0.00037787
0.00014506
0.000386869
0.000178414
0.00038956
0.000217713
0.000385607
0.000263985
0.00037491
0.000318365
0.000358109
0.000381814
0.00033816
0.000324214
0.000454212
2.04497e-05
0.000212206
2.97969e-05
0.000245648
4.15566e-05
0.000276205
5.60203e-05
0.000302971
7.35245e-05
0.000325146
9.44704e-05
0.000342029
0.000119346
0.000352994
0.00014875
0.000357465
0.000183417
0.000354893
0.000224246
0.000344779
0.000272322
0.000326833
0.000328892
0.000301539
0.000395079
0.000271973
0.000248334
0.000470959
1.94888e-05
2.89085e-05
0.000236229
4.08702e-05
0.000264243
5.56828e-05
0.000288158
7.36961e-05
0.000307133
9.53217e-05
0.000320403
0.000121056
0.000327259
0.000151507
0.000327015
0.000187423
0.000318978
0.000229732
0.00030247
0.000279582
0.000276983
0.000338342
0.000242779
0.000407335
0.00020298
0.000168733
0.000486936
2.76879e-05
0.000226803
3.97829e-05
0.000252148
5.48762e-05
0.000273065
7.33351e-05
0.000288674
9.55863e-05
0.000298152
0.00012214
0.000300706
0.000153617
0.000295537
0.000190786
0.000281809
0.000234607
0.000258649
0.000286291
0.000225299
0.000347337
0.000181733
0.000419291
0.000131025
8.50804e-05
0.000502944
2.6227e-05
0.000217415
3.8412e-05
0.000239963
5.37486e-05
0.000257729
7.26267e-05
0.000269796
9.54943e-05
0.000275284
0.000122883
0.000273318
0.000155435
0.000262985
0.000193945
0.000243299
0.000239408
0.000213185
0.000293099
0.000171609
0.000356642
0.00011819
0.000431817
5.58499e-05
-3.03582e-06
0.000519933
2.46319e-05
3.68938e-05
0.000227701
5.24723e-05
0.00024215
7.17871e-05
0.000250481
9.53161e-05
0.000251755
0.000123621
0.000245013
0.000157378
0.000229229
0.000197415
0.000203262
0.000244769
0.000165831
0.000300768
0.000115609
0.00036715
5.18089e-05
0.000445915
-2.2915e-05
-9.60877e-05
0.000538966
3.53808e-05
0.000215342
5.12414e-05
0.000226289
7.10605e-05
0.000230662
9.53567e-05
0.000227459
0.000124735
0.000215634
0.000159916
0.000194048
0.000201773
0.000161404
0.000251389
0.000116215
0.000310139
5.6859e-05
0.000379839
-1.78911e-05
0.000462673
-0.000105749
-0.000194574
0.00056116
3.40393e-05
0.000202825
5.02672e-05
0.000210062
7.07129e-05
0.000210217
9.59477e-05
0.000202224
0.000126634
0.000184948
0.000163551
0.00015713
0.000207633
0.000117323
0.000260008
6.38398e-05
0.000322087
-5.21989e-06
0.000395718
-9.15221e-05
0.000483202
-0.000193233
-0.000298975
0.000587603
3.30447e-05
4.97731e-05
0.000193333
7.10242e-05
0.000188965
9.74362e-05
0.000175812
0.000129743
0.000152641
0.000168801
0.000118072
0.000215612
7.05122e-05
0.000271359
8.09358e-06
0.000337464
-7.13251e-05
0.000415748
-0.000169806
0.000508542
-0.000286027
-0.0004097
0.000619266
4.9987e-05
0.000175923
7.22789e-05
0.000166674
0.000100172
0.000147919
0.000134487
0.000118325
0.000176171
7.6389e-05
0.000226304
2.03788e-05
0.000286121
-5.17232e-05
0.000357037
-0.000142241
0.000440767
-0.000253536
0.000539576
-0.000384836
-0.00052702
0.000656896
5.11339e-05
7.47548e-05
0.000143053
0.000104491
0.000118183
0.000141265
8.15508e-05
0.000186124
3.15307e-05
0.000240234
-3.37317e-05
0.000304875
-0.000116364
0.000381426
-0.000218792
0.000471412
-0.000343521
0.000576942
-0.000490366
-0.00065101
0.000700931
7.87117e-05
0.000117768
0.000110703
8.61922e-05
0.000150435
4.18189e-05
0.00019906
-1.70947e-05
0.000257832
-9.2504e-05
0.000328061
-0.000186593
0.000411058
-0.00030179
0.000508062
-0.000440525
0.000620961
-0.000603265
-0.00078148
0.000751431
8.43796e-05
9.04464e-05
0.000119073
5.14989e-05
0.000162289
-1.39777e-06
0.000215289
-7.00947e-05
0.000279402
-0.000156617
0.000355946
-0.000263137
0.000446128
-0.000391971
0.000550805
-0.000545202
0.000671608
-0.000724067
-0.000917923
0.000808051
9.19483e-05
0.00012981
1.36372e-05
0.000177045
-4.86331e-05
0.000235013
-0.000128062
0.0003051
-0.000226703
0.000388604
-0.000346641
0.000486583
-0.000489951
0.000599436
-0.000658055
0.000728506
-0.000853138
-0.00105946
0.000870045
0.000143057
-2.78607e-05
0.000194828
-0.000100404
0.000258312
-0.000191547
0.000334927
-0.000303318
0.000425911
-0.000437625
0.000532126
-0.000596166
0.000653467
-0.000779396
0.00079096
-0.000990631
-0.00120483
0.000936329
0.000158883
0.000215665
-0.000157186
0.000285142
-0.000261023
0.000368724
-0.0003869
0.00046755
-0.000536451
0.000582231
-0.000710847
0.000712165
-0.00090933
0.000857941
-0.00113641
-0.00135253
0.00100564
0.000239488
-0.000219394
0.000315332
-0.000336868
0.000406179
-0.000477747
0.000513028
-0.000643299
0.000636204
-0.000834023
0.000774683
-0.00104781
0.000928098
-0.00128982
-0.00150124
0.00107681
0.000266132
0.000348597
-0.000419333
0.000446833
-0.000575984
0.000561671
-0.000758138
0.000693199
-0.000965551
0.000840297
-0.00119491
0.00100034
-0.00144986
-0.00164974
0.00114885
0.000384542
-0.000508526
0.000490088
-0.000681529
0.000612603
-0.000880653
0.000752014
-0.00110496
0.000907848
-0.00135074
0.00107567
-0.00161768
-0.00179385
0.00121978
0.000422698
0.000535255
-0.000794087
0.000664802
-0.0010102
0.000810957
-0.00125112
0.000973438
-0.00151322
0.00115093
-0.00179517
-0.00203124
0.00138831
0.000581603
0.000717247
-0.00114584
0.000868585
-0.00140245
0.0010349
-0.00167953
0.00121357
-0.00197385
-0.00224317
0.00142551
0.000769039
-0.00128647
0.000923836
-0.00155725
0.00109101
-0.0018467
0.00126665
-0.00214949
-0.00243717
0.00146064
0.000819386
0.000975973
-0.00171384
0.00114191
-0.00201264
0.00131265
-0.00232023
-0.00261641
0.0014919
0.00102438
0.00118741
-0.00217567
0.00135183
-0.00248465
-0.00278267
0.00151808
0.00122724
-0.00233438
0.00138426
-0.00264167
-0.00293691
0.0015385
0.00126116
0.00141
-0.00279051
-0.0030797
0.00155279
0.00142913
-0.00321147
0.0015609
0.00156299
0.00343069
0.00144907
0.00134806
0.00306465
0.00332798
0.00145077
0.00121627
0.00265909
0.00133632
0.0029446
0.00321672
0.00144759
0.00119202
0.00252683
0.0013191
0.00281752
0.00309643
0.00143939
0.00102598
0.00209321
0.00116258
0.00239023
0.00129624
0.00268386
0.00296647
0.0014262
0.000851653
0.0016717
0.000988125
0.00195673
0.00112803
0.00225032
0.00126756
0.00254434
0.00282573
0.0014083
0.000810516
0.00154411
0.000946491
0.00182076
0.00108844
0.00210837
0.00123279
0.00239999
0.00267227
0.00138625
0.000643107
0.00117122
0.000767287
0.00141993
0.000901401
0.00168665
0.00104381
0.00196596
0.00119137
0.00225243
0.00250237
0.00136127
0.000495219
0.000849984
0.000602611
0.00106383
0.000722385
0.00130015
0.000853231
0.0015558
0.000993918
0.00182528
0.00114143
0.00210492
0.00230876
0.00133504
0.000459998
0.000761244
0.000561749
0.000962081
0.000676253
0.00118565
0.000802523
0.00142953
0.00093932
0.00168848
0.00108077
0.00196346
0.00218348
0.00120606
0.000342197
0.000513528
0.000425088
0.000678352
0.000520808
0.000866361
0.000629375
0.00107708
0.000750036
0.00130887
0.000881217
0.0015573
0.00101949
0.00182519
0.00205314
0.00114983
0.000313626
0.000448332
0.000390578
0.0006014
0.000480013
0.000776925
0.000582192
0.000974901
0.000696679
0.00119438
0.000822035
0.00143194
0.000957311
0.00168992
0.00192177
0.00108868
0.000225681
0.000267215
0.000285511
0.000388502
0.000356505
0.000530406
0.000439521
0.000693909
0.000535032
0.000879391
0.000642951
0.00108646
0.00076219
0.0013127
0.000892978
0.00155913
0.00179061
0.00102413
0.000203245
0.00022208
0.000257794
0.000333953
0.000322867
0.000465332
0.000399415
0.000617361
0.000488087
0.000790719
0.000589107
0.000985443
0.000701795
0.00120002
0.000826938
0.00143399
0.00166083
0.000956724
0.00014041
9.53211e-05
0.000181039
0.000181451
0.000230408
0.000284584
0.000289634
0.000406106
0.000359728
0.000547268
0.000441478
0.000708968
0.000535359
0.000891562
0.000641141
0.00109423
0.000759942
0.00131519
0.00153377
0.000886999
0.000122768
6.60638e-05
0.000158995
0.000145225
0.000203293
0.000240286
0.000256769
0.00035263
0.000320468
0.000483569
0.000395287
0.00063415
0.000481905
0.000804944
0.000580542
0.000995596
0.000692552
0.00120318
0.00141071
0.000815615
7.95742e-05
-1.87185e-05
0.000105139
4.04994e-05
0.000137063
0.000113301
0.000176404
0.000200944
0.000224245
0.000304789
0.000281645
0.000426169
0.000349582
0.000566213
0.00042891
0.000725616
0.000520261
0.000904245
0.000625191
0.00109825
0.00129269
0.000743208
6.55546e-05
-3.5841e-05
8.75024e-05
1.85516e-05
0.000115223
8.55801e-05
0.000149725
0.000166442
0.000192056
0.000262457
0.00024328
0.000374945
0.000304434
0.000505059
0.000376522
0.000653528
0.000460539
0.000820228
0.000558223
0.00100056
0.00118058
0.000670339
5.14618e-05
-4.99316e-05
6.98692e-05
1.44105e-07
9.34856e-05
6.19637e-05
0.000123268
0.00013666
0.00016023
0.000225496
0.000205424
0.000329752
0.000259935
0.000450547
0.000324898
0.000588565
0.000401612
0.000743514
0.000491966
0.000910209
0.00107505
0.000597491
2.62137e-05
-9.72324e-05
3.7329e-05
-6.10469e-05
5.22758e-05
-1.48026e-05
7.18922e-05
4.23472e-05
9.70849e-05
0.000111467
0.000128827
0.000193754
0.000168161
0.000290418
0.000216207
0.000402501
0.000274211
0.000530561
0.000343715
0.000674011
0.00042671
0.000827213
0.000976678
0.000525081
1.50071e-05
-0.000102786
2.32106e-05
-6.92504e-05
3.4784e-05
-2.6376e-05
5.05134e-05
2.66179e-05
7.1256e-05
9.07244e-05
9.79466e-05
0.000167063
0.000131612
0.000256753
0.000173401
0.000360712
0.000224652
0.000479309
0.00028708
0.000611583
0.000362709
0.000751585
0.00088592
0.000453467
3.81313e-06
-0.000105894
9.17874e-06
-7.4616e-05
1.7477e-05
-3.46742e-05
2.9444e-05
1.46509e-05
4.5891e-05
7.42774e-05
6.77148e-05
0.000145239
9.59262e-05
0.000228541
0.000131693
0.000324945
0.000176423
0.000434579
0.000231932
0.000556074
0.000300188
0.000683329
0.000803157
0.000382952
-8.01865e-06
-0.000128356
-7.29431e-06
-0.000106619
-4.68107e-06
-7.72292e-05
4.50478e-07
-3.98058e-05
8.79678e-06
6.30457e-06
2.11188e-05
6.19554e-05
3.82793e-05
0.000128079
6.1271e-05
0.00020555
9.12708e-05
0.000294945
0.000129725
0.000396125
0.000178477
0.000507322
0.000239345
0.000622461
0.00072871
0.000313793
-1.66529e-05
-0.000125772
-1.82347e-05
-0.000105037
-1.82735e-05
-7.71904e-05
-1.61785e-05
-4.19008e-05
-1.13025e-05
1.42861e-06
-2.91994e-06
5.35728e-05
9.79648e-06
0.000115362
2.78202e-05
0.000187526
5.23208e-05
0.000270444
8.47457e-05
0.0003637
0.000126898
0.000465169
0.000180359
0.000569
0.000662859
0.00024621
-2.51246e-05
-0.000121261
-2.89227e-05
-0.000101239
-3.15004e-05
-7.46128e-05
-3.23046e-05
-4.10966e-05
-3.07272e-05
-1.48872e-07
-2.60815e-05
4.89271e-05
-1.75736e-05
0.000106854
-4.25798e-06
0.00017421
1.50174e-05
0.000251169
4.16519e-05
0.000337066
7.73566e-05
0.000429464
0.000123401
0.000522956
0.000605858
0.000180401
-2.70048e-05
-0.000128281
-3.33607e-05
-0.000114905
-3.92723e-05
-9.53269e-05
-4.42624e-05
-6.96227e-05
-4.78127e-05
-3.75463e-05
-4.93515e-05
1.38991e-06
-4.82294e-05
4.7805e-05
-4.3687e-05
0.000102312
-3.48112e-05
0.000165334
-2.04863e-05
0.000236844
6.51246e-07
0.000315928
2.99544e-05
0.000400161
6.87034e-05
0.000484207
0.00055802
0.000116542
-3.3182e-05
-0.000120395
-4.12893e-05
-0.000106798
-4.91997e-05
-8.74166e-05
-5.64638e-05
-6.23587e-05
-6.25956e-05
-3.14145e-05
-6.70579e-05
5.85229e-06
-6.92377e-05
4.99848e-05
-6.84124e-05
0.000101487
-6.37119e-05
0.000160634
-5.40858e-05
0.000227218
-3.83337e-05
0.000300176
-1.51199e-05
0.000376947
1.70323e-05
0.000452054
0.000520423
5.46293e-05
-3.90875e-05
-0.000111067
-4.88419e-05
-9.70435e-05
-5.86256e-05
-7.76328e-05
-6.80152e-05
-5.2969e-05
-7.6555e-05
-2.28748e-05
-8.37409e-05
1.30382e-05
-8.89962e-05
5.52401e-05
-9.16398e-05
0.00010413
-9.08551e-05
0.000159849
-8.56732e-05
0.000222036
-7.50131e-05
0.000289516
-5.77949e-05
0.000359729
-3.37492e-05
0.000428009
0.000492467
-5.79376e-06
-4.46668e-05
-0.000100394
-5.59544e-05
-8.5756e-05
-6.74772e-05
-6.611e-05
-7.8836e-05
-4.16102e-05
-8.96036e-05
-1.21071e-05
-9.93087e-05
2.27433e-05
-0.000107412
6.33436e-05
-0.00011328
0.000109998
-0.00011616
0.000162729
-0.000115181
0.000221057
-0.000109414
0.000283749
-9.80664e-05
0.000348382
-8.11795e-05
0.000411122
0.000470463
-5.91753e-05
-3.79538e-05
-9.87057e-05
-4.987e-05
-8.84775e-05
-6.25689e-05
-7.30571e-05
-7.56893e-05
-5.29895e-05
-8.8855e-05
-2.84446e-05
-0.000101666
7.04102e-07
-0.000113684
3.47615e-05
-0.000124411
7.407e-05
-0.000133264
0.000118851
-0.000139567
0.000169032
-0.000142561
0.000224052
-0.000141483
0.000282671
-0.000135782
0.00034268
-0.000125669
0.000401009
0.00045642
-0.000111626
-4.16045e-05
-8.69256e-05
-5.46526e-05
-7.54294e-05
-6.86343e-05
-5.90754e-05
-8.32054e-05
-3.84184e-05
-9.80115e-05
-1.36384e-05
-0.00011268
1.53725e-05
-0.000126806
4.88871e-05
-0.000139933
8.7197e-05
-0.000151538
0.000130457
-0.00016103
0.000178524
-0.000167775
0.000230797
-0.000171185
0.000286081
-0.000170939
0.000342434
-0.000167432
0.000397502
0.000450348
-0.00016136
-4.49125e-05
-7.42541e-05
-5.89756e-05
-6.13663e-05
-7.41065e-05
-4.39445e-05
-8.99775e-05
-2.25475e-05
-0.000106255
2.63921e-06
-0.000122594
3.17111e-05
-0.000138622
6.49158e-05
-0.000153931
0.000102506
-0.000168062
0.000144588
-0.000180514
0.000190976
-0.000190785
0.000241068
-0.000198466
0.000293761
-0.00020345
0.000347418
-0.00020628
0.000400332
0.000451911
-0.000207843
-4.78495e-05
-6.07972e-05
-6.2806e-05
-4.64099e-05
-7.89489e-05
-2.78016e-05
-9.59661e-05
-5.53028e-06
-0.000113545
2.02183e-05
-0.000131367
4.95331e-05
-0.000149097
8.26453e-05
-0.000166372
0.000119781
-0.000182803
0.000161018
-0.000197984
0.000206157
-0.000211546
0.000254629
-0.00022325
0.000305465
-0.000233178
0.000357346
-0.000241982
0.000409136
0.000460592
-0.000250663
-3.62599e-05
-5.77534e-05
-5.03922e-05
-4.66649e-05
-6.6117e-05
-3.06851e-05
-8.31319e-05
-1.07867e-05
-0.00010114
1.24782e-05
-0.000119851
3.89285e-05
-0.00013897
6.86528e-05
-0.0001582
0.000101875
-0.000177228
0.000138809
-0.000195732
0.000179523
-0.000213406
0.000223831
-0.000230005
0.000271229
-0.000245448
0.000320908
-0.000259971
0.000371869
-0.000274297
0.000423462
0.000475762
-0.000289467
-3.78276e-05
-4.50301e-05
-5.2522e-05
-3.19705e-05
-6.88876e-05
-1.43195e-05
-8.6633e-05
6.95866e-06
-0.000105477
3.13223e-05
-0.000125148
5.85997e-05
-0.000145381
8.88854e-05
-0.000165911
0.000122405
-0.000186478
0.000159375
-0.000206827
0.000199873
-0.000226746
0.000243749
-0.000246107
0.00029059
-0.000264964
0.000339765
-0.000283673
0.000390578
-0.000302994
0.000442783
0.000496717
-0.00032395
-3.90843e-05
-3.19182e-05
-5.42253e-05
-1.68294e-05
-7.11026e-05
2.55784e-06
-8.94363e-05
2.52923e-05
-0.000108961
5.08465e-05
-0.000129423
7.90626e-05
-0.000150585
0.000110047
-0.000172218
0.000144038
-0.000194107
0.000181265
-0.000216067
0.000221833
-0.000237969
0.000265651
-0.000259793
0.000312414
-0.0002817
0.000361673
-0.000304135
0.000413012
-0.000327864
0.000466513
0.000522712
-0.000353858
-4.0022e-05
-1.85201e-05
-5.54932e-05
-1.35822e-06
-7.27526e-05
1.98173e-05
-9.15323e-05
4.4072e-05
-0.000111582
7.08959e-05
-0.000132668
0.000100149
-0.000154576
0.000131956
-0.000177112
0.000166573
-0.000200107
0.00020426
-0.000223436
0.000245162
-0.000247047
0.000289262
-0.000271007
0.000336374
-0.000295567
0.000386233
-0.000321224
0.00043867
-0.000348732
0.000494021
0.000552969
-0.000378989
-4.06365e-05
-4.93884e-06
-5.63211e-05
1.43263e-05
-7.38334e-05
3.73296e-05
-9.29177e-05
6.31563e-05
-0.000113338
9.13166e-05
-0.000134881
0.000121691
-0.000157354
0.000154428
-0.000180593
0.000189813
-0.000204472
0.000228139
-0.000228921
0.000269611
-0.000253951
0.000314292
-0.000279703
0.000362125
-0.000306489
0.000413018
-0.000334836
0.000467017
-0.000365465
0.000524649
0.000586697
-0.000399193
-4.09273e-05
8.72274e-06
-5.67091e-05
3.01081e-05
-7.43459e-05
5.49665e-05
-9.35947e-05
8.24051e-05
-0.000114234
0.000111956
-0.000136067
0.000143524
-0.000158923
0.000177284
-0.000182666
0.000213556
-0.000207206
0.000252679
-0.000232517
0.000294922
-0.000258666
0.000340441
-0.000285846
0.000389305
-0.00031441
0.000441582
-0.000344893
0.000497501
-0.00037797
0.000557725
0.000623105
-0.000414378
-4.0897e-05
2.2363e-05
-5.66614e-05
4.58724e-05
-7.42962e-05
7.26013e-05
-9.35712e-05
0.00010168
-0.000114279
0.000132664
-0.000136238
0.000165483
-0.000159297
0.000200343
-0.000183343
0.000237602
-0.000208317
0.000277652
-0.000234228
0.000320834
-0.000261185
0.000367398
-0.000289416
0.000417536
-0.000319297
0.000471463
-0.000351353
0.000529557
-0.000386203
0.000592576
0.000661407
-0.000424504
-4.05518e-05
3.58823e-05
-5.61863e-05
6.15069e-05
-7.36949e-05
9.01099e-05
-9.28603e-05
0.000120846
-0.000113488
0.000153292
-0.000135412
0.000187406
-0.000158494
0.000223426
-0.000182643
0.000261751
-0.000207821
0.00030283
-0.000234066
0.000347079
-0.000261513
0.000394845
-0.000290412
0.000446435
-0.000321143
0.000502194
-0.000354205
0.000562619
-0.00039016
0.00062853
0.000700833
-0.000429586
-2.65993e-05
2.54478e-05
-3.99009e-05
4.91839e-05
-5.52961e-05
7.69022e-05
-7.25573e-05
0.000107371
-9.14802e-05
0.000139768
-0.000111883
0.000173695
-0.000133611
0.000209134
-0.00015654
0.000246354
-0.000180591
0.000285802
-0.000205744
0.000327984
-0.000232055
0.00037339
-0.000259672
0.000422462
-0.000288853
0.000475616
-0.000319966
0.000533307
-0.000353477
0.00059613
-0.000389883
0.000664937
0.000740637
-0.000429687
-2.5966e-05
3.61382e-05
-3.89567e-05
6.21746e-05
-5.4007e-05
9.19525e-05
-7.09033e-05
0.000124267
-8.94545e-05
0.00015832
-0.00010949
0.000193731
-0.000130865
0.000230509
-0.000153466
0.000268955
-0.000177222
0.000309558
-0.000202123
0.000352884
-0.000228231
0.000399498
-0.000255699
0.00044993
-0.000284779
0.000504695
-0.000315815
0.000564344
-0.000349229
0.000629544
-0.000385455
0.000701162
0.0007801
-0.000424919
-2.51434e-05
4.64912e-05
-3.77344e-05
7.47655e-05
-5.23384e-05
0.000106556
-6.87568e-05
0.000140686
-8.68112e-05
0.000176374
-0.000106342
0.000213262
-0.000127212
0.000251379
-0.000149313
0.000291056
-0.000172579
0.000332824
-0.000197002
0.000377307
-0.000222643
0.00042514
-0.000249648
0.000476936
-0.00027825
0.000533297
-0.000308763
0.000594856
-0.000341556
0.000662337
-0.000376996
0.000736603
0.000818542
-0.000415437
-2.41442e-05
5.64366e-05
-3.62517e-05
8.6873e-05
-5.03133e-05
0.000120618
-6.61458e-05
0.000156518
-8.35833e-05
0.000193812
-0.000102476
0.000232155
-0.000122692
0.000271595
-0.000144126
0.00031249
-0.000166713
0.000355411
-0.000190437
0.000401032
-0.000215353
0.000450056
-0.00024159
0.000503172
-0.000269351
0.000561059
-0.000298911
0.000624416
-0.000330581
0.000694007
-0.000364664
0.000770685
0.000855318
-0.000401439
-2.29828e-05
6.59095e-05
-3.45287e-05
9.8419e-05
-4.79578e-05
0.000134047
-6.31022e-05
0.000171663
-7.98087e-05
0.000210518
-9.79354e-05
0.000250282
-0.000117355
0.000291014
-0.000137961
0.000333097
-0.000159683
0.000377133
-0.000182497
0.000423845
-0.000206439
0.000473997
-0.000231611
0.000528345
-0.000258185
0.000587632
-0.000286384
0.000652615