/*--------------------------------*- C++ -*----------------------------------*\
  =========                 |
  \\      /  F ield         | OpenFOAM: The Open Source CFD Toolbox
   \\    /   O peration     | Website:  https://openfoam.org
    \\  /    A nd           | Version:  7
     \\/     M anipulation  |
\*---------------------------------------------------------------------------*/
FoamFile
{
    version     2.0;
    format      ascii;
    class       volVectorField;
    location    "160";
    object      U;
}
// * * * * * * * * * * * * * * * * * * * * * * * * * * * * * * * * * * * * * //

dimensions      [0 1 -1 0 0 0 0];

internalField   nonuniform List<vector> 
4575
(
(-0.0100882 0.104129 9.51903e-22)
(-0.0156474 0.12985 1.66692e-21)
(-0.0220868 0.152935 -1.21444e-20)
(-0.0292446 0.173278 2.06076e-21)
(-0.0369479 0.191003 -8.02308e-21)
(-0.0450112 0.206427 -1.70763e-20)
(-0.0532434 0.219993 1.44418e-20)
(-0.0614593 0.232202 4.25e-21)
(-0.0694919 0.243544 -5.05264e-21)
(-0.0772025 0.254444 6.15255e-21)
(-0.0844862 0.265235 8.36224e-21)
(-0.0912719 0.276146 -5.24185e-21)
(-0.0975143 0.287307 -7.036e-21)
(-0.103186 0.298763 -1.67998e-20)
(-0.108291 0.310488 -1.29831e-21)
(-0.112719 0.322387 -2.84097e-21)
(-0.116206 0.334322 -5.62533e-21)
(-0.010542 0.106633 -1.83671e-20)
(-0.0157594 0.132886 8.40694e-21)
(-0.0217231 0.156428 5.05071e-20)
(-0.028302 0.177141 -3.07583e-20)
(-0.0353493 0.195139 5.19588e-21)
(-0.0427002 0.210731 2.45479e-20)
(-0.0501786 0.224356 -2.84461e-23)
(-0.0576075 0.236522 1.42343e-20)
(-0.0648206 0.247729 -1.86936e-20)
(-0.0716729 0.25842 1.94286e-20)
(-0.0780465 0.268947 -1.66265e-20)
(-0.0838523 0.279556 -6.39327e-21)
(-0.0890232 0.290391 3.21377e-20)
(-0.0935085 0.301504 -1.00105e-20)
(-0.0972929 0.312871 1.52902e-21)
(-0.100251 0.324399 -1.87868e-20)
(-0.102048 0.335956 -2.0416e-21)
(-0.0110738 0.108662 4.63448e-20)
(-0.015958 0.135395 -3.672e-20)
(-0.0214447 0.159365 -5.65317e-20)
(-0.0274328 0.18044 5.08723e-20)
(-0.0338008 0.198716 -1.37212e-20)
(-0.0404052 0.214486 -6.87358e-21)
(-0.0470854 0.228186 -3.41794e-20)
(-0.0536732 0.240321 9.18983e-21)
(-0.0600042 0.2514 3.29874e-20)
(-0.0659277 0.26188 -6.77884e-21)
(-0.0713136 0.27213 2.66026e-20)
(-0.0760553 0.282412 -2.17831e-20)
(-0.0800647 0.292885 -6.68535e-21)
(-0.0832681 0.303608 5.13518e-20)
(-0.0856327 0.314564 -3.19298e-21)
(-0.0870209 0.325667 8.01179e-20)
(-0.0870138 0.336794 -1.92009e-20)
(-0.0116725 0.110211 -4.31818e-20)
(-0.0162361 0.137368 2.58126e-20)
(-0.0212503 0.161734 -4.74814e-21)
(-0.0266421 0.183156 -8.48469e-20)
(-0.0323147 0.201709 -8.84776e-21)
(-0.0381455 0.217669 -1.82182e-20)
(-0.0439897 0.231456 -2.73725e-21)
(-0.0496891 0.243571 -3.12529e-20)
(-0.0550819 0.254528 3.49385e-20)
(-0.060013 0.264795 -5.14048e-20)
(-0.0643412 0.274755 -1.5473e-21)
(-0.0679432 0.284688 1.38804e-20)
(-0.070711 0.294763 -1.06532e-19)
(-0.072549 0.305053 -8.55149e-20)
(-0.0734081 0.315548 4.63521e-20)
(-0.0731457 0.326174 -6.1972e-20)
(-0.0712383 0.33682 1.68398e-21)
(-0.0123266 0.111281 -2.13953e-21)
(-0.0165864 0.1388 1.31049e-20)
(-0.0211382 0.163524 2.05408e-21)
(-0.0259349 0.185275 4.33418e-20)
(-0.030903 0.204101 5.06456e-20)
(-0.0359402 0.220254 2.12491e-20)
(-0.040918 0.234138 7.45855e-20)
(-0.0456886 0.246245 -8.48324e-20)
(-0.0500942 0.257087 -1.78082e-20)
(-0.0539765 0.267139 3.70855e-20)
(-0.0571846 0.276798 -6.37734e-20)
(-0.05958 0.286358 2.89749e-20)
(-0.0610363 0.296003 6.69684e-20)
(-0.0614368 0.305817 1.62543e-20)
(-0.0607176 0.315804 2.27824e-20)
(-0.0587434 0.325908 -3.62573e-20)
(-0.0548601 0.336035 4.59924e-21)
(-0.0130246 0.111877 3.72318e-20)
(-0.017001 0.139691 3.22748e-20)
(-0.021106 0.16473 1.46489e-20)
(-0.0253153 0.186785 2.7071e-20)
(-0.029577 0.205875 -1.88878e-20)
(-0.0338081 0.222224 -1.1478e-19)
(-0.0378963 0.236212 -1.0139e-19)
(-0.0417051 0.248317 -6.50675e-20)
(-0.0450818 0.259049 2.4519e-20)
(-0.0478666 0.268886 -1.3905e-20)
(-0.0499003 0.278234 1.04921e-19)
(-0.0510311 0.287401 -3.75532e-20)
(-0.0511158 0.296585 3.03633e-20)
(-0.0500182 0.305885 4.42036e-20)
(-0.0476605 0.31532 -2.50555e-20)
(-0.0439251 0.324856 2.15852e-19)
(-0.0380213 0.334497 -8.14077e-20)
(-0.0137556 0.112007 -2.33486e-20)
(-0.0174723 0.140047 1.03629e-20)
(-0.0211511 0.165352 1.57719e-20)
(-0.0247872 0.187681 5.21413e-20)
(-0.0283476 0.20702 1.13143e-20)
(-0.0317677 0.223559 4.0575e-21)
(-0.0349508 0.237655 1.81943e-19)
(-0.0377724 0.249766 1.35311e-19)
(-0.0400861 0.260393 -8.00936e-20)
(-0.0417322 0.270013 -1.17223e-20)
(-0.0425455 0.279042 -3.14976e-20)
(-0.0423625 0.287796 3.08425e-20)
(-0.0410253 0.296491 -1.6213e-19)
(-0.0383808 0.305242 -3.38077e-20)
(-0.034337 0.314083 -5.0849e-20)
(-0.0287729 0.323012 -1.22963e-19)
(-0.0208283 0.332153 6.72002e-20)
(-0.014509 0.111685 -3.08294e-20)
(-0.0179928 0.139877 -2.76786e-20)
(-0.0212708 0.165393 4.33121e-20)
(-0.0243539 0.18796 -7.29581e-20)
(-0.0272252 0.207526 -9.99374e-21)
(-0.0298367 0.224247 1.34962e-19)
(-0.0321071 0.238449 -8.54219e-20)
(-0.033924 0.25057 -3.48221e-20)
(-0.0351485 0.261094 4.09531e-20)
(-0.0356228 0.270498 -1.0668e-20)
(-0.0351778 0.2792 -5.58584e-21)
(-0.0336408 0.287527 4.48012e-20)
(-0.0308411 0.295709 -1.18109e-19)
(-0.0266111 0.303878 4.14552e-20)
(-0.0208475 0.312088 -3.11033e-20)
(-0.0134267 0.320371 -7.04215e-20)
(-0.0034133 0.328933 2.51316e-20)
(-0.0185557 0.139197 9.98204e-20)
(-0.0214627 0.164864 -1.02783e-19)
(-0.0240186 0.187625 -4.98282e-20)
(-0.0262197 0.20739 -8.57405e-20)
(-0.0280325 0.224278 -9.28951e-20)
(-0.0293902 0.238581 -6.04544e-20)
(-0.0301927 0.250711 -8.08905e-20)
(-0.0303098 0.261135 1.46266e-19)
(-0.0295875 0.270321 -1.63312e-20)
(-0.0278548 0.27869 -3.33626e-20)
(-0.0249323 0.286577 -1.73749e-19)
(-0.0206392 0.294224 9.76142e-20)
(-0.0147955 0.301782 2.44287e-20)
(-0.00728966 0.309329 6.07005e-20)
(0.00199434 0.316933 4.11944e-20)
(0.0140836 0.32489 -1.10743e-19)
(-0.019155 0.138023 8.85016e-20)
(-0.0217244 0.163777 -6.84846e-20)
(-0.0237841 0.186683 1.46765e-19)
(-0.0253401 0.206613 8.24759e-21)
(-0.0263713 0.223646 1.32659e-19)
(-0.026824 0.238039 -7.63279e-20)
(-0.0266106 0.250173 1.22365e-19)
(-0.0256104 0.260496 -1.19653e-19)
(-0.0236748 0.269464 -1.07111e-19)
(-0.0206333 0.277495 9.08074e-20)
(-0.0163026 0.284931 3.20265e-19)
(-0.0104942 0.292026 -1.75791e-19)
(-0.0030189 0.298949 1.44447e-19)
(0.00624143 0.305803 3.32007e-20)
(0.0173845 0.3127 -1.25018e-19)
(0.0315361 0.320047 1.05081e-19)
(-0.0197853 0.136381 -6.88924e-20)
(-0.0220539 0.162153 1.59135e-19)
(-0.023653 0.185147 -2.87158e-20)
(-0.0245949 0.205199 3.54752e-21)
(-0.0248682 0.22235 -1.82999e-19)
(-0.0244313 0.236816 1.14731e-19)
(-0.0232084 0.248946 2.59474e-20)
(-0.0210892 0.259164 -3.33988e-20)
(-0.0179319 0.267912 4.23174e-20)
(-0.013569 0.275601 -1.66517e-19)
(-0.00781572 0.282578 -9.2605e-20)
(-0.000479127 0.289107 1.94097e-19)
(0.00863669 0.295374 -1.08351e-19)
(0.0196542 0.301511 -1.55224e-19)
(0.0326439 0.307677 2.87496e-19)
(0.0488294 0.314416 -8.94562e-22)
(-0.020442 0.134298 -4.45543e-20)
(-0.0224495 0.160012 -5.18002e-20)
(-0.0236275 0.183034 -2.15229e-19)
(-0.0239915 0.203161 2.6377e-20)
(-0.0235372 0.220392 -8.92361e-20)
(-0.0222331 0.234908 3.0993e-19)
(-0.020015 0.24702 -1.78506e-19)
(-0.0167831 0.257126 1.09204e-19)
(-0.0124041 0.26565 -3.32661e-20)
(-0.00671548 0.272993 1.80712e-19)
(0.000466418 0.279505 1.45326e-20)
(0.00933608 0.285457 -1.53681e-19)
(0.020093 0.291054 -2.73164e-20)
(0.032862 0.296454 7.16961e-21)
(0.047679 0.301869 -1.23821e-20)
(0.0658583 0.308004 1.9435e-19)
(-0.0211218 0.131805 -1.0437e-20)
(-0.0229095 0.157385 -8.57369e-20)
(-0.0237094 0.180366 1.89097e-19)
(-0.0235363 0.200511 -2.08191e-20)
(-0.0223903 0.217782 2.24442e-19)
(-0.0202484 0.232316 -2.47637e-19)
(-0.0170566 0.244392 6.48883e-20)
(-0.0127264 0.254375 7.57122e-20)
(-0.00713383 0.262668 -2.44442e-21)
(-0.000123295 0.269662 -1.22963e-21)
(0.00848522 0.275703 -1.41481e-19)
(0.0188851 0.281071 1.9213e-20)
(0.0312763 0.285985 1.88507e-19)
(0.0457844 0.290635 2.42524e-19)
(0.0624042 0.295283 -2.88279e-19)
(0.082529 0.300824 -1.86849e-19)
(-0.0218224 0.128938 1.63084e-19)
(-0.0234329 0.154302 1.64245e-19)
(-0.0239002 0.177169 -6.37996e-20)
(-0.0232346 0.197271 2.74169e-19)
(-0.0214379 0.214531 -2.74784e-19)
(-0.0184933 0.229047 1.20333e-19)
(-0.0143566 0.24106 1.21612e-19)
(-0.00894988 0.250905 -9.64824e-21)
(-0.00215974 0.258959 1.19575e-21)
(0.00616099 0.265599 1.58536e-20)
(0.0161865 0.271165 -1.09183e-19)
(0.0281066 0.275943 1.08735e-19)
(0.0421192 0.280167 -5.6314e-20)
(0.0583487 0.284055 -1.25791e-19)
(0.0767438 0.287927 1.6214e-19)
(0.0987609 0.292883 3.39199e-20)
(-0.0225429 0.125733 -1.08466e-19)
(-0.0240194 0.150799 -1.12229e-19)
(-0.0242009 0.173476 1.79656e-19)
(-0.0230903 0.193466 -9.1071e-20)
(-0.0206879 0.210658 7.15192e-20)
(-0.0169812 0.225112 7.17789e-21)
(-0.0119344 0.237031 -1.88198e-20)
(-0.00547999 0.246716 4.62796e-20)
(0.00248443 0.254519 -9.09191e-20)
(0.0120962 0.260798 4.77622e-20)
(0.0235219 0.265886 1.51307e-19)
(0.0369458 0.270069 -2.1901e-19)
(0.0525615 0.273597 -1.40264e-19)
(0.0704911 0.276717 1.8378e-19)
(0.0906343 0.279805 -1.08705e-19)
(0.11449 0.284192 -1.6767e-19)
(-0.0232836 0.122232 -2.61571e-20)
(-0.0246688 0.146914 -9.51206e-20)
(-0.0246123 0.16932 -1.77193e-19)
(-0.0231056 0.189126 -1.33116e-19)
(-0.0201454 0.206187 -2.63066e-19)
(-0.0157215 0.220528 2.58598e-20)
(-0.00980465 0.232315 -2.24382e-20)
(-0.00233753 0.241814 -1.80987e-19)
(0.00677121 0.249348 1.54448e-19)
(0.0176482 0.255257 1.88572e-19)
(0.0304508 0.259862 -9.58126e-21)
(0.0453565 0.263448 1.14817e-19)
(0.0625531 0.266277 -5.71085e-20)
(0.0821599 0.268623 8.40493e-21)
(0.104026 0.270921 1.60351e-19)
(0.12967 0.274755 3.90018e-19)
(-0.0253817 0.14269 1.29926e-19)
(-0.0251341 0.164742 -4.6578e-20)
(-0.023281 0.184284 -1.33225e-19)
(-0.0198127 0.201146 2.14207e-19)
(-0.0147191 0.215317 -5.73936e-20)
(-0.00797643 0.226927 4.11841e-20)
(0.000463537 0.236208 2.18769e-19)
(0.0106811 0.243454 -3.01266e-19)
(0.0227917 0.248981 -8.21489e-20)
(0.0369428 0.253097 -1.58995e-19)
(0.053304 0.256082 3.21438e-19)
(0.0720568 0.258207 9.59434e-21)
(0.0933182 0.259776 1.75472e-19)
(0.116888 0.261281 -6.50904e-20)
(0.144282 0.264578 -3.67066e-19)
(-0.0261588 0.138171 7.92039e-20)
(-0.0257653 0.159782 -3.98549e-21)
(-0.0236145 0.178981 3.43258e-19)
(-0.0196879 0.195569 1.29697e-19)
(-0.0139736 0.209508 -2.35088e-19)
(-0.00645184 0.22089 1.14285e-20)
(0.00291764 0.229916 -8.95627e-21)
(0.0142046 0.236848 3.16638e-19)
(0.027513 0.241978 -3.50275e-19)
(0.0429804 0.245596 9.6657e-20)
(0.0607683 0.247977 2.7111e-21)
(0.0810521 0.249395 -2.43048e-19)
(0.103949 0.250181 -2.52538e-19)
(0.129212 0.250887 -3.16937e-20)
(0.158335 0.253661 3.69877e-19)
(-0.0270005 0.133401 -2.98383e-19)
(-0.0265036 0.154488 -8.09116e-20)
(-0.0241012 0.173258 -1.79538e-19)
(-0.0197647 0.189496 -8.33887e-20)
(-0.0134784 0.203133 1.46437e-19)
(-0.00522483 0.214234 2.9388e-19)
(0.00502937 0.222962 -3.25118e-19)
(0.0173442 0.22955 -1.20751e-19)
(0.0318128 0.234263 4.31443e-19)
(0.0485628 0.237374 -1.54456e-19)
(0.0677484 0.239145 -2.21645e-19)
(0.089541 0.239852 2.79752e-19)
(0.11406 0.239849 5.92283e-20)
(0.14102 0.239747 5.44821e-20)
(0.171878 0.242006 -2.38104e-19)
(-0.0279066 0.128428 5.32304e-20)
(-0.0273442 0.148905 3.4623e-19)
(-0.0247328 0.167162 -2.15309e-19)
(-0.0200314 0.182969 5.08115e-20)
(-0.0132192 0.196235 -1.00444e-19)
(-0.00427956 0.206992 -3.9936e-19)
(0.0068156 0.215375 2.39041e-19)
(0.0201175 0.221586 1.89213e-19)
(0.0357096 0.225862 -3.33611e-19)
(0.0537104 0.228452 7.81737e-20)
(0.0742685 0.229607 3.06574e-19)
(0.0975539 0.229598 1.17688e-19)
(0.123695 0.228797 4.17709e-20)
(0.152371 0.227874 -2.45821e-19)
(0.185006 0.229618 -1.21158e-19)
(-0.0282803 0.143083 -4.79754e-20)
(-0.0254964 0.160743 3.25813e-20)
(-0.0204699 0.176037 2.00288e-19)
(-0.0131732 0.188857 2.5033e-19)
(-0.0035887 0.199209 -1.07667e-20)
(0.00830773 0.207197 -5.41343e-20)
(0.0225603 0.212993 -3.12663e-19)
(0.0392438 0.216806 2.31947e-19)
(0.0584699 0.218864 -1.98181e-20)
(0.0803839 0.219395 -1.36304e-19)
(0.105158 0.218664 -6.77894e-19)
(0.132938 0.217055 2.38992e-19)
(0.163374 0.215292 1.42961e-20)
(0.197877 0.21651 -1.494e-19)
(-0.0293012 0.137072 -2.87064e-19)
(-0.0263742 0.154051 1.77175e-19)
(-0.0210546 0.168753 -2.05585e-20)
(-0.0133071 0.181051 -3.94341e-19)
(-0.00311149 0.190933 7.51513e-20)
(0.00955433 0.198473 4.11068e-20)
(0.0247294 0.203816 -7.0586e-20)
(0.0424824 0.207143 1.85108e-19)
(0.0629202 0.208653 3.56403e-19)
(0.0861882 0.208555 -2.30172e-19)
(0.112467 0.207098 1.8788e-19)
(0.141926 0.20467 4.33466e-20)
(0.174198 0.202041 2.59649e-19)
(0.210719 0.202712 1.1675e-19)
(-0.0303924 0.130922 3.26186e-19)
(-0.0273418 0.147142 -2.32937e-19)
(-0.0217511 0.161171 6.93696e-20)
(-0.0135759 0.172875 2.84766e-19)
(-0.00279166 0.182221 2.68507e-19)
(0.0106238 0.189261 1.01999e-19)
(0.026707 0.194112 4.44626e-19)
(0.0455232 0.196926 -6.1185e-20)
(0.067178 0.197877 -4.62135e-19)
(0.0918213 0.197148 2.25849e-19)
(0.119647 0.194965 -1.17939e-19)
(0.150863 0.191711 -2.77988e-19)
(0.185082 0.188187 -1.96336e-19)
(0.223845 0.188279 -1.98635e-19)
(-0.0315339 0.124684 -4.14685e-19)
(-0.0283676 0.140069 1.58254e-19)
(-0.0225149 0.153351 -1.43198e-19)
(-0.0139211 0.164389 -2.37693e-19)
(-0.00255539 0.173137 7.96681e-21)
(0.0116071 0.179626 -5.84908e-19)
(0.0286035 0.183947 -4.48468e-19)
(0.0484995 0.186227 1.39094e-19)
(0.0714038 0.186611 7.06605e-20)
(0.097476 0.185254 -1.48514e-19)
(0.12693 0.182352 5.74719e-19)
(0.160024 0.178273 -8.99897e-20)
(0.196346 0.173827 2.45427e-19)
(0.237658 0.173301 2.21936e-19)
(-0.0294114 0.13289 2.17688e-19)
(-0.0232901 0.145354 -1.30146e-20)
(-0.0142691 0.15566 9.90706e-20)
(-0.00230935 0.163751 2.9444e-19)
(0.0126201 0.169641 6.09071e-19)
(0.0305609 0.173399 4.8073e-20)
(0.0515841 0.175127 -2.62898e-19)
(0.0758065 0.174942 4.74997e-20)
(0.103403 0.17297 4.54895e-19)
(0.134615 0.16937 -3.07647e-19)
(0.169763 0.164485 1.58124e-21)
(0.208395 0.159094 2.36975e-19)
(0.25265 0.157917 -1.47118e-19)
(-0.030424 0.12566 -5.63016e-20)
(-0.0240084 0.137245 -1.21827e-19)
(-0.0145302 0.146758 1.96633e-19)
(-0.00193916 0.154139 -2.25119e-19)
(0.0138055 0.159388 -7.19742e-20)
(0.0327551 0.162556 -8.03956e-21)
(0.0549913 0.163722 1.83438e-19)
(0.0806458 0.162976 -1.6374e-19)
(0.109915 0.160414 -3.0862e-19)
(0.143071 0.156156 -9.25573e-20)
(0.180512 0.150503 -1.35223e-19)
(0.221714 0.144163 -4.13598e-19)
(0.269396 0.142317 -1.24435e-19)
(-0.0313454 0.118434 -2.60523e-19)
(-0.024588 0.129085 1.47801e-19)
(-0.0145973 0.137756 -4.33981e-19)
(-0.00130842 0.144382 -2.14876e-19)
(0.0153338 0.148957 2.89822e-21)
(0.0353962 0.151516 1.83907e-19)
(0.0589777 0.152118 -1.19023e-19)
(0.0862314 0.150832 3.00567e-19)
(0.117382 0.147723 -7.32771e-20)
(0.152735 0.142865 9.56008e-20)
(0.192774 0.136517 3.55789e-19)
(0.236856 0.129252 4.75217e-20)
(0.288524 0.126753 2.28992e-19)
(-0.0249334 0.120942 -2.88858e-19)
(-0.0143458 0.128728 8.36865e-20)
(-0.000258649 0.134565 8.19542e-21)
(0.017403 0.138442 -2.0855e-19)
(0.0387277 0.140383 1.51184e-19)
(0.0638393 0.140434 -1.17362e-19)
(0.0929192 0.138642 -2.12844e-19)
(0.126224 0.135046 -2.74145e-19)
(0.164094 0.129676 6.73373e-20)
(0.207103 0.122741 9.15917e-20)
(0.254417 0.114609 -8.90008e-20)
(0.31068 0.111529 3.75582e-19)
(-0.0249355 0.112877 -8.13197e-20)
(-0.0136339 0.119749 6.72216e-19)
(0.00138955 0.124774 4.81305e-20)
(0.0202361 0.127941 -7.2078e-20)
(0.0430231 0.129269 -4.72993e-19)
(0.0699062 0.128794 9.09134e-20)
(0.101101 0.126547 -2.27521e-19)
(0.1369 0.122544 1.50133e-19)
(0.177669 0.116774 1.36084e-19)
(0.224073 0.109404 -5.16959e-19)
(0.274998 0.100508 -1.60591e-19)
(0.336478 0.0969942 -5.61016e-19)
(-0.0244717 0.104951 2.8414e-20)
(-0.0123045 0.110894 -2.02325e-19)
(0.00383406 0.115098 2.87595e-19)
(0.0240775 0.117557 1.97756e-21)
(0.0485789 0.11829 3.53023e-19)
(0.0775323 0.117327 2.36745e-19)
(0.111192 0.114691 3.97121e-20)
(0.149883 0.110383 4.88552e-19)
(0.193987 0.104352 -4.40726e-19)
(0.244246 0.0967377 2.03662e-19)
(0.299162 0.0872266 1.59712e-19)
(0.366432 0.0835242 1.38701e-19)
(-0.0101874 0.102234 -3.33523e-19)
(0.00728717 0.105622 -2.53829e-19)
(0.0291867 0.10739 1.18679e-19)
(0.0557066 0.10756 -3.34964e-19)
(0.0870833 0.106164 2.23879e-20)
(0.12361 0.103222 1.26867e-19)
(0.165639 0.0987251 9.57859e-20)
(0.213546 0.0925946 2.96749e-19)
(0.268124 0.0849631 6.2607e-20)
(0.327391 0.0750298 -2.22563e-19)
(0.400902 0.0714929 2.40688e-19)
(-0.00710325 0.0938362 2.87662e-19)
(0.0119699 0.096428 -1.47037e-19)
(0.0358308 0.0975353 4.55265e-21)
(0.0647207 0.0971904 8.04615e-20)
(0.0989204 0.0954297 1.67858e-19)
(0.138758 0.0922781 -2.04842e-20)
(0.184598 0.087726 -4.66276e-20)
(0.236782 0.0816733 -2.37749e-19)
(0.296111 0.0742773 -1.58401e-19)
(0.360035 0.06415 -1.49311e-19)
(0.440036 0.0612469 2.41573e-19)
(0.0181063 0.0875913 1.01681e-19)
(0.0442744 0.0880841 3.5478e-20)
(0.0759262 0.0872852 -1.60102e-19)
(0.113383 0.0852421 -3.68573e-19)
(0.156997 0.0819894 1.84351e-19)
(0.207125 0.0775246 -9.19611e-20)
(0.264037 0.071737 -2.26725e-20)
(0.328474 0.0648415 3.83297e-19)
(0.397291 0.0547755 4.02271e-19)
(0.483725 0.0530798 -6.1592e-19)
(0.0259142 0.079179 1.0354e-20)
(0.0547702 0.0791171 -2.46698e-19)
(0.0896047 0.0779385 3.26046e-19)
(0.130772 0.0757061 2.11419e-19)
(0.178631 0.0724694 -4.08488e-19)
(0.233497 0.0682398 -3.4467e-19)
(0.295535 0.0629076 7.90742e-20)
(0.36532 0.0567726 4.58808e-19)
(0.439179 0.0470448 2.11978e-19)
(0.531587 0.0472117 1.14455e-19)
(0.0355998 0.0712479 -4.76324e-19)
(0.0675477 0.0707034 -4.31187e-19)
(0.106001 0.0692306 -4.24709e-20)
(0.151333 0.0669106 -2.20721e-20)
(0.203883 0.0638122 1.44345e-19)
(0.263885 0.0599651 9.40022e-20)
(0.331359 0.0552756 1.21405e-19)
(0.406583 0.0501369 -5.67075e-19)
(0.48555 0.0410469 -1.57424e-19)
(0.582977 0.0437648 4.10894e-19)
(0.0828042 0.0628989 1.89918e-19)
(0.125313 0.0612263 -1.74789e-19)
(0.175242 0.0589263 -2.41847e-19)
(0.232881 0.0560898 -3.07034e-20)
(0.298339 0.0527667 2.43729e-19)
(0.371448 0.0488995 -1.62304e-19)
(0.452026 0.0449483 6.10383e-20)
(0.536095 0.0368278 1.38398e-19)
(0.637021 0.0427424 3.48218e-19)
(0.100697 0.0557451 8.68994e-20)
(0.147679 0.0539739 -1.17955e-19)
(0.202599 0.0518043 2.79523e-19)
(0.265657 0.0493501 -2.44155e-20)
(0.336783 0.0466816 -6.30757e-20)
(0.415593 0.0438053 -1.00519e-19)
(0.501255 0.0411702 1.57171e-19)
(0.590334 0.0344278 -3.95602e-19)
(0.692591 0.0440963 -5.34667e-19)
(0.173176 0.0475054 4.39533e-19)
(0.233419 0.0455766 -3.94678e-20)
(0.302134 0.0436177 -8.61056e-20)
(0.379024 0.0417167 -1.18131e-20)
(0.463456 0.0399797 2.12897e-19)
(0.553771 0.0387106 3.77382e-19)
(0.64763 0.0339642 -1.05563e-19)
(0.748173 0.0479476 3.89732e-19)
(0.201816 0.0418389 -1.48956e-19)
(0.267635 0.0402579 -1.0914e-19)
(0.342135 0.0388951 -3.57451e-19)
(0.424751 0.0378481 -9.65762e-20)
(0.514585 0.037349 8.04743e-21)
(0.609085 0.0373954 -2.59719e-19)
(0.707443 0.035633 1.28367e-19)
(0.80219 0.0543035 -2.75646e-19)
(0.305097 0.0358503 -1.77541e-19)
(0.385385 0.0351687 4.31571e-19)
(0.473534 0.0350264 2.64435e-19)
(0.568381 0.0357698 6.56988e-20)
(0.666675 0.0369711 -2.79674e-19)
(0.769567 0.0393203 -1.44318e-20)
(0.855411 0.060596 -4.54384e-19)
(0.345582 0.0323486 -8.40191e-20)
(0.431517 0.0324184 7.80386e-20)
(0.524835 0.0331974 -1.38495e-19)
(0.624064 0.0350825 -1.59439e-19)
(0.725589 0.0372013 3.36954e-19)
(0.832697 0.0437126 -1.08388e-19)
(0.913093 0.0594793 1.49704e-20)
(0.480103 0.0306272 -1.7252e-19)
(0.578045 0.0323275 4.88797e-20)
(0.680798 0.0352152 -6.18747e-20)
(0.78451 0.0379673 -3.44919e-20)
(0.892212 0.0456719 7.58859e-20)
(0.975711 0.0503732 8.17496e-19)
(0.632532 0.0324026 6.88305e-21)
(0.737785 0.0361675 -3.32028e-19)
(0.842407 0.0394265 -8.83462e-20)
(0.948357 0.0471807 4.22371e-19)
(1.03174 0.046957 -4.71681e-19)
(0.687664 0.0334147 3.35612e-19)
(0.794309 0.0379684 1.05496e-19)
(0.89851 0.0417283 6.01701e-19)
(1.00112 0.0492601 -3.84508e-19)
(1.08194 0.0470158 6.27571e-19)
(0.849727 0.0406241 1.32094e-19)
(0.952231 0.0448854 7.7914e-20)
(1.0503 0.0521101 -6.60525e-19)
(1.12726 0.0491491 -3.67904e-19)
(1.0031 0.0488431 1.10751e-19)
(1.0957 0.0557392 5.17149e-19)
(1.16785 0.052733 -3.53362e-19)
(1.05075 0.0535163 -3.85077e-19)
(1.13719 0.0600763 2.46799e-19)
(1.20384 0.0573248 1.14647e-19)
(1.1747 0.0650098 -3.89869e-19)
(1.23541 0.0625964 5.42159e-19)
(1.26277 0.0683081 -2.71461e-19)
(1.21532 -0.00728296 -2.4158e-19)
(1.14191 -0.00165479 -7.55612e-19)
(1.18956 0.00225481 4.29435e-19)
(1.03647 0.0124485 -5.13069e-19)
(1.10785 0.00694293 4.00426e-19)
(1.16024 0.0116354 -1.26978e-19)
(0.994107 0.0207194 -2.94481e-19)
(1.07045 0.0152189 8.66024e-19)
(1.12722 0.0206434 -1.96203e-19)
(0.863064 0.0294599 1.02485e-20)
(0.949063 0.0285704 -8.25829e-20)
(1.02976 0.0230957 -8.43761e-19)
(1.09038 0.0289812 -4.432e-19)
(0.722363 0.0356368 -4.49328e-20)
(0.814229 0.0359627 1.3118e-19)
(0.901609 0.0359716 5.29929e-19)
(0.985859 0.030547 -1.80445e-19)
(1.04958 0.0362383 5.21793e-19)
(0.673519 0.0404605 2.85e-19)
(0.764333 0.0420228 -2.79135e-19)
(0.852067 0.042941 -4.85975e-19)
(0.938823 0.0376515 8.11534e-19)
(1.00462 0.041824 -5.07345e-19)
(0.537606 0.0400504 -4.14383e-20)
(0.624911 0.0448605 -5.06955e-19)
(0.713791 0.0477257 1.89328e-19)
(0.800823 0.0495758 3.33638e-19)
(0.888702 0.0447033 4.86525e-21)
(0.954629 0.0445299 6.75329e-19)
(0.413652 0.0353347 4.86909e-19)
(0.493235 0.0427672 -1.22939e-19)
(0.576895 0.0489367 -3.49414e-19)
(0.66304 0.0531927 -8.51558e-20)
(0.748368 0.056098 5.43306e-19)
(0.835387 0.052684 1.5682e-20)
(0.898748 0.0423386 -2.34176e-19)
(0.375208 0.036647 1.10952e-19)
(0.450221 0.0452881 3.49914e-19)
(0.529797 0.0527969 1.83314e-19)
(0.612545 0.0585384 2.09115e-19)
(0.695368 0.0627447 -6.15805e-19)
(0.77878 0.0634908 1.38037e-19)
(0.846242 0.0452706 -4.95351e-19)
(0.273992 0.0275651 3.03582e-20)
(0.338427 0.0379537 -2.72043e-19)
(0.408714 0.0477269 -1.24491e-19)
(0.483895 0.0565381 -2.79758e-19)
(0.562771 0.0638218 -1.19246e-19)
(0.642742 0.0694431 4.28003e-20)
(0.722622 0.0742962 -2.67851e-19)
(0.797495 0.0563001 -2.05202e-20)
(0.243683 0.0281104 4.25783e-19)
(0.303322 0.0393704 4.02886e-20)
(0.368808 0.0501921 1.89206e-19)
(0.439399 0.0602397 -2.81045e-19)
(0.514093 0.0690325 4.31277e-19)
(0.590953 0.0761136 1.1342e-19)
(0.66742 0.083872 1.58392e-19)
(0.747193 0.0686187 5.46711e-19)
(0.166022 0.0169485 3.28793e-19)
(0.214951 0.0289569 3.27032e-20)
(0.269868 0.0410052 1.42824e-19)
(0.330547 0.0527859 1.95764e-19)
(0.396436 0.0639791 -8.56628e-20)
(0.466725 0.074172 -3.36133e-19)
(0.540083 0.0827009 1.66348e-19)
(0.612893 0.0923204 -2.09125e-19)
(0.694323 0.0798199 -5.83175e-19)
(0.143152 0.0176097 3.42402e-19)
(0.187719 0.030196 -1.09703e-19)
(0.238017 0.0429548 -1.20311e-19)
(0.29393 0.0556039 -3.87839e-19)
(0.355068 0.0678398 5.29889e-19)
(0.420793 0.0792898 -1.52724e-19)
(0.490239 0.0891978 -9.95234e-20)
(0.559183 0.100051 1.39169e-19)
(0.639977 0.0900333 4.33532e-19)
(0.0865187 0.00620251 7.25107e-19)
(0.121549 0.0187944 -5.42295e-19)
(0.161906 0.0319038 -4.15475e-19)
(0.20771 0.0453021 -2.79014e-19)
(0.258934 0.0587315 6.08645e-19)
(0.31532 0.0719038 -3.21452e-21)
(0.376389 0.084461 1.60877e-19)
(0.441598 0.0956255 -5.90261e-19)
(0.50656 0.107314 3.54341e-20)
(0.585119 0.0995055 2.67864e-19)
(0.0698163 0.00756293 -5.65757e-20)
(0.101132 0.0205544 -1.45447e-19)
(0.137434 0.0341395 2.32605e-19)
(0.178883 0.0481129 3.02872e-19)
(0.225521 0.0622385 -7.39496e-19)
(0.2772 0.0762403 -2.91938e-19)
(0.333578 0.0897545 2.88518e-19)
(0.394324 0.102006 3.52552e-19)
(0.455216 0.114209 3.81363e-19)
(0.530358 0.108251 1.94957e-20)
(0.0307157 -0.00296965 -1.18545e-19)
(0.0540766 0.00956004 -7.90787e-20)
(0.0818327 0.0229243 4.17162e-19)
(0.114236 0.0369434 -4.28573e-19)
(0.15148 0.0514329 -2.45975e-19)
(0.193657 0.0661745 1.11603e-19)
(0.240705 0.0808981 1.96836e-19)
(0.292408 0.0952173 -1.7405e-19)
(0.348549 0.108352 2.65542e-19)
(0.405286 0.120786 3.65892e-19)
(0.476166 0.116262 -3.46496e-19)
(0.0189543 -0.000643082 4.60218e-19)
(0.0392482 0.0122085 -3.61845e-19)
(0.0635965 0.0259217 4.22217e-19)
(0.0922609 0.0403367 -5.40433e-20)
(0.125455 0.0552868 1.77279e-19)
(0.163311 0.0705661 -1.08078e-19)
(0.205835 0.0859021 -9.93874e-20)
(0.252916 0.100871 6.2692e-20)
(0.304391 0.114663 -6.5782e-19)
(0.356901 0.127079 6.40848e-20)
(0.422955 0.123586 2.91614e-19)
(0.00792838 0.00234639 -7.37965e-19)
(0.0252929 0.0155084 9.0745e-20)
(0.0463845 0.0295475 -1.77302e-19)
(0.0714701 0.0443214 -1.8889e-19)
(0.100777 0.0596776 -7.38939e-20)
(0.134467 0.0754161 5.42399e-19)
(0.172599 0.0912522 -1.0832e-19)
(0.215145 0.106711 -1.17869e-19)
(0.261957 0.120927 3.72476e-19)
(0.310194 0.13311 -1.53896e-19)
(0.371083 0.130306 -5.56891e-20)
(-0.0138212 -0.00644338 1.28115e-19)
(-0.00238622 0.00598702 -7.13703e-20)
(0.0121848 0.0194466 1.72791e-19)
(0.0301714 0.033787 1.07189e-20)
(0.0518417 0.0488819 5.86952e-19)
(0.0774315 0.0645882 4.4252e-19)
(0.107123 0.0807048 6.59236e-20)
(0.141014 0.0969248 6.65018e-20)
(0.179144 0.112711 6.79111e-20)
(0.221356 0.127123 1.31657e-19)
(0.2653 0.1389 1.51763e-19)
(0.320852 0.136523 2.0705e-19)
(-0.0210777 -0.00247844 4.00193e-20)
(-0.0120062 0.0102571 5.04761e-19)
(-9.11753e-05 0.0239976 4.74332e-19)
(0.0149439 0.0386122 -9.37832e-20)
(0.0333664 0.0539872 -7.49906e-19)
(0.0554158 0.069984 -1.27838e-19)
(0.0812881 0.0863937 -3.11642e-19)
(0.111111 0.102878 4.63954e-19)
(0.144969 0.11883 1.13305e-19)
(0.182688 0.133225 -5.61718e-19)
(0.222347 0.144477 -2.59695e-19)
(0.272509 0.14235 -9.97534e-19)
(-0.0277703 0.00209605 -1.86192e-19)
(-0.0209408 0.0151254 1.77499e-19)
(-0.0115428 0.0291263 -1.52325e-19)
(0.000697469 0.0439835 -3.3337e-19)
(0.016044 0.0595935 2.51062e-19)
(0.0347374 0.075817 -6.99511e-20)
(0.0569817 0.0924305 -2.81533e-19)
(0.0829236 0.109057 -3.71765e-19)
(0.112678 0.12502 1.85257e-19)
(0.146051 0.139212 1.184e-19)
(0.181457 0.149884 -1.70189e-19)
(0.226259 0.14791 4.88476e-19)
(-0.0365678 -0.00497673 4.37963e-20)
(-0.0339059 0.00724657 2.98856e-19)
(-0.0291955 0.0205537 -6.98408e-19)
(-0.0221725 0.0347894 -2.82596e-19)
(-0.0125673 0.0498532 1.07674e-19)
(-0.000119889 0.0656481 3.86608e-20)
(0.0154084 0.0820301 -1.33754e-19)
(0.034225 0.0987552 3.67983e-19)
(0.0564868 0.115404 -2.80693e-20)
(0.0823233 0.131236 2.25923e-19)
(0.111531 0.145078 1.06132e-19)
(0.142732 0.155181 4.6478e-19)
(0.182268 0.15334 2.00042e-19)
(-0.0403967 0.000384452 -1.31559e-19)
(-0.0394908 0.0129347 7.67485e-20)
(-0.0367734 0.0264982 2.38298e-19)
(-0.0319809 0.0409384 -2.37477e-19)
(-0.0248475 0.0561677 -2.6333e-19)
(-0.0151186 0.0720933 3.81684e-21)
(-0.00255925 0.0885624 6.26605e-20)
(0.0130363 0.105307 3.35556e-20)
(0.0318282 0.121865 -2.64815e-19)
(0.0539501 0.137444 -2.59229e-19)
(0.079196 0.150837 -7.19135e-20)
(0.106231 0.160392 -4.79895e-19)
(0.140721 0.158849 -1.58132e-19)
(-0.0437903 0.00625765 8.24963e-20)
(-0.0445302 0.0191171 5.22843e-20)
(-0.0436775 0.032911 1.36902e-21)
(-0.0409685 0.0475209 5.47234e-19)
(-0.0361415 0.0628711 6.82427e-19)
(-0.0289479 0.07887 1.07346e-19)
(-0.0191586 0.0953536 -2.40817e-19)
(-0.00657375 0.112028 9.48863e-20)
(0.00896374 0.128394 5.03989e-19)
(0.0275813 0.143622 -4.70951e-19)
(0.0490422 0.156488 -6.86092e-20)
(0.0719669 0.165403 1.96646e-19)
(0.101931 0.164852 -3.01455e-19)
(-0.0433451 0.000500019 1.68681e-19)
(-0.0467571 0.0126012 1.06483e-19)
(-0.0490306 0.0257483 -1.57753e-19)
(-0.0499124 0.0397424 -3.10208e-19)
(-0.0491384 0.0544837 -1.67766e-19)
(-0.0464512 0.0699072 -7.29024e-19)
(-0.0416087 0.0859209 -3.29347e-19)
(-0.0343904 0.102349 3.42128e-20)
(-0.0246059 0.118872 1.26924e-20)
(-0.0121085 0.134962 -6.37666e-20)
(0.00320099 0.149778 5.00322e-19)
(0.0210083 0.162137 2.71616e-19)
(0.0402971 0.170436 -1.19515e-19)
(0.0659809 0.171079 4.09103e-19)
(-0.0446662 0.00689031 3.47209e-19)
(-0.0493076 0.0193717 -2.78989e-19)
(-0.0530005 0.0327804 1.36268e-19)
(-0.0554851 0.0469416 3.0327e-19)
(-0.0564972 0.0617739 7.38472e-20)
(-0.0557835 0.0772221 2.948e-19)
(-0.0531095 0.0931932 6.13258e-19)
(-0.0482651 0.109499 -4.84176e-20)
(-0.0410737 0.125803 -4.91738e-19)
(-0.0314045 0.141555 2.16139e-19)
(-0.0191931 0.155926 -2.81025e-19)
(-0.00479507 0.167822 -3.67176e-19)
(0.0111563 0.175792 -2.41204e-19)
(0.0323884 0.177196 -1.83808e-19)
(-0.0456821 0.0136825 -3.97098e-19)
(-0.0514537 0.0265232 4.57515e-19)
(-0.0564505 0.0401653 -3.54148e-19)
(-0.0604062 0.0544585 -2.89815e-19)
(-0.0630562 0.0693404 7.9825e-20)
(-0.0641514 0.0847655 4.82303e-20)
(-0.0634664 0.10064 -1.73286e-19)
(-0.0608034 0.116767 2.98571e-19)
(-0.0560031 0.132795 4.1163e-19)
(-0.0489564 0.14817 -1.60788e-19)
(-0.039637 0.162092 1.53922e-19)
(-0.0284282 0.173577 2.02949e-19)
(-0.0157274 0.181372 1.72567e-19)
(0.00117237 0.183475 -1.65336e-20)
(-0.0464081 0.0208322 5.91072e-20)
(-0.0532095 0.0340094 -2.71853e-20)
(-0.0593945 0.047855 4.32147e-20)
(-0.06469 0.0622446 3.50751e-19)
(-0.0688314 0.0771354 8.03191e-21)
(-0.0715745 0.0924919 5.96858e-20)
(-0.0727035 0.108222 -3.55759e-19)
(-0.0720355 0.124122 1.1005e-19)
(-0.0694317 0.139835 3.05289e-20)
(-0.0648093 0.154817 -1.98039e-19)
(-0.0581834 0.168315 -5.90545e-19)
(-0.0499608 0.179467 6.45527e-20)
(-0.0404035 0.187243 6.89976e-20)
(-0.0275545 0.190184 -1.24654e-19)
(-0.0389343 0.0155857 5.22389e-19)
(-0.0468617 0.0282942 2.34403e-19)
(-0.0545916 0.0417834 -2.33516e-19)
(-0.061849 0.0558021 8.05969e-20)
(-0.0683546 0.0702533 -2.22154e-19)
(-0.0738437 0.0851142 -1.02713e-19)
(-0.0780779 0.100361 6.00767e-20)
(-0.0808519 0.115904 2.43554e-19)
(-0.0819995 0.131541 -2.97288e-19)
(-0.0814051 0.146918 7.28846e-20)
(-0.0790157 0.161511 3.39039e-19)
(-0.0748886 0.174634 1.2766e-19)
(-0.0694475 0.185553 3.88485e-20)
(-0.0628771 0.193468 -6.07168e-19)
(-0.0537663 0.197369 4.00634e-19)
(-0.0384504 0.0228489 -3.88633e-19)
(-0.0470614 0.0360222 -6.69447e-20)
(-0.0556184 0.0497987 -1.61437e-19)
(-0.0638334 0.0639609 -1.23192e-19)
(-0.0714215 0.0784404 3.49768e-19)
(-0.0781183 0.0932359 1.8776e-19)
(-0.0836916 0.108337 -3.50872e-19)
(-0.0879479 0.123661 1.78104e-20)