/*--------------------------------*- C++ -*----------------------------------*\
  =========                 |
  \\      /  F ield         | OpenFOAM: The Open Source CFD Toolbox
   \\    /   O peration     | Website:  https://openfoam.org
    \\  /    A nd           | Version:  7
     \\/     M anipulation  |
\*---------------------------------------------------------------------------*/
FoamFile
{
    version     2.0;
    format      ascii;
    class       volScalarField;
    location    "140";
    object      p;
}
// * * * * * * * * * * * * * * * * * * * * * * * * * * * * * * * * * * * * * //

dimensions      [0 2 -2 0 0 0 0];

internalField   nonuniform List<scalar> 
4575
(
-0.386237
-0.386959
-0.387585
-0.388172
-0.388754
-0.389355
-0.389984
-0.390644
-0.391332
-0.39204
-0.392758
-0.393475
-0.394181
-0.394872
-0.395555
-0.396149
-0.396715
-0.390193
-0.390985
-0.391704
-0.39241
-0.39314
-0.393915
-0.394748
-0.395641
-0.396589
-0.397585
-0.398618
-0.399675
-0.400745
-0.401822
-0.402909
-0.403926
-0.404922
-0.39424
-0.395098
-0.395908
-0.396734
-0.397611
-0.398563
-0.399602
-0.400728
-0.401939
-0.403225
-0.404574
-0.405975
-0.407414
-0.408881
-0.410377
-0.411822
-0.413253
-0.398371
-0.39929
-0.40019
-0.401133
-0.402158
-0.403286
-0.40453
-0.405892
-0.407365
-0.408941
-0.410608
-0.412352
-0.414159
-0.416017
-0.417924
-0.419799
-0.42166
-0.402575
-0.403553
-0.404539
-0.405598
-0.406767
-0.408071
-0.40952
-0.411115
-0.412849
-0.414714
-0.416696
-0.418781
-0.420951
-0.423196
-0.425511
-0.42781
-0.430093
-0.406845
-0.407875
-0.408944
-0.410114
-0.411427
-0.412904
-0.414554
-0.416379
-0.418372
-0.420522
-0.422814
-0.425232
-0.427759
-0.430382
-0.433096
-0.435809
-0.438495
-0.411168
-0.412245
-0.413391
-0.41467
-0.416121
-0.417767
-0.419615
-0.421666
-0.423912
-0.42634
-0.428934
-0.431676
-0.434549
-0.437535
-0.440635
-0.443742
-0.446808
-0.415531
-0.416649
-0.417867
-0.419249
-0.420835
-0.422644
-0.424685
-0.426955
-0.429446
-0.432143
-0.435029
-0.438083
-0.441284
-0.444616
-0.44808
-0.451558
-0.45497
-0.421075
-0.422358
-0.423837
-0.42555
-0.427517
-0.429743
-0.432225
-0.434952
-0.437907
-0.44107
-0.444419
-0.44793
-0.451583
-0.455386
-0.459204
-0.462918
-0.425506
-0.426848
-0.428417
-0.43025
-0.432366
-0.434769
-0.437453
-0.440404
-0.443604
-0.447029
-0.450653
-0.45445
-0.458397
-0.462505
-0.466628
-0.470592
-0.429929
-0.431321
-0.432972
-0.434917
-0.437173
-0.439742
-0.442616
-0.445779
-0.449208
-0.452877
-0.456754
-0.46081
-0.465017
-0.469394
-0.473779
-0.477931
-0.434327
-0.435761
-0.437485
-0.439532
-0.441917
-0.444641
-0.447693
-0.451053
-0.454694
-0.458585
-0.462691
-0.466975
-0.471407
-0.476009
-0.480613
-0.48488
-0.438684
-0.440152
-0.441938
-0.444077
-0.44658
-0.449445
-0.45266
-0.4562
-0.460035
-0.464127
-0.468435
-0.472916
-0.477532
-0.482313
-0.487089
-0.491387
-0.442986
-0.444476
-0.446315
-0.448532
-0.45114
-0.454134
-0.457495
-0.461198
-0.465206
-0.469476
-0.473959
-0.478603
-0.483362
-0.48827
-0.493172
-0.497409
-0.447216
-0.448719
-0.450597
-0.452881
-0.45558
-0.458686
-0.462178
-0.466025
-0.470185
-0.474608
-0.479236
-0.48401
-0.48887
-0.493851
-0.498833
-0.502905
-0.451361
-0.452864
-0.45477
-0.457107
-0.459881
-0.463082
-0.466687
-0.470658
-0.474949
-0.4795
-0.484246
-0.489115
-0.494033
-0.499029
-0.504052
-0.507812
-0.456897
-0.458818
-0.461192
-0.464025
-0.467305
-0.471003
-0.475078
-0.479476
-0.484131
-0.488966
-0.493898
-0.498833
-0.503792
-0.508834
-0.512064
-0.460806
-0.462726
-0.465122
-0.467997
-0.471337
-0.475108
-0.479266
-0.483749
-0.488482
-0.493378
-0.498341
-0.503257
-0.508132
-0.513152
-0.515937
-0.464577
-0.466482
-0.468884
-0.471783
-0.475162
-0.478987
-0.483205
-0.48775
-0.492537
-0.497467
-0.50243
-0.507297
-0.512056
-0.516855
-0.519368
-0.468201
-0.470076
-0.472465
-0.475369
-0.478768
-0.482624
-0.486881
-0.491464
-0.49628
-0.501218
-0.506154
-0.510939
-0.515547
-0.520083
-0.522175
-0.473498
-0.475857
-0.478746
-0.482144
-0.486008
-0.49028
-0.494877
-0.499698
-0.50462
-0.5095
-0.514173
-0.518589
-0.522851
-0.524362
-0.476742
-0.479052
-0.481905
-0.485279
-0.48913
-0.493392
-0.49798
-0.502781
-0.507661
-0.512462
-0.516994
-0.521178
-0.525147
-0.525968
-0.479802
-0.482045
-0.484841
-0.488169
-0.491982
-0.496211
-0.500764
-0.505521
-0.510335
-0.515031
-0.519399
-0.523315
-0.526975
-0.527005
-0.482677
-0.484833
-0.487552
-0.490811
-0.494562
-0.498733
-0.503226
-0.507914
-0.512637
-0.517206
-0.521386
-0.525003
-0.528343
-0.527486
-0.487417
-0.490037
-0.493203
-0.496869
-0.500957
-0.505366
-0.50996
-0.514567
-0.518985
-0.522957
-0.526245
-0.529259
-0.527421
-0.489801
-0.4923
-0.495352
-0.498906
-0.502887
-0.507186
-0.511661
-0.516129
-0.520372
-0.524115
-0.527047
-0.529733
-0.526828
-0.491991
-0.494348
-0.497262
-0.500683
-0.504531
-0.508695
-0.513025
-0.517329
-0.521373
-0.524867
-0.527415
-0.529775
-0.525721
-0.496191
-0.498945
-0.502209
-0.505901
-0.509906
-0.514067
-0.518181
-0.522002
-0.525225
-0.527361
-0.529395
-0.524121
-0.497841
-0.500415
-0.5035
-0.507014
-0.510834
-0.514802
-0.518703
-0.522275
-0.525205
-0.526901
-0.528605
-0.522054
-0.499316
-0.50169
-0.504575
-0.507889
-0.511503
-0.515254
-0.518917
-0.522214
-0.524828
-0.526056
-0.527421
-0.51955
-0.50279
-0.505456
-0.508545
-0.511936
-0.515449
-0.51885
-0.521848
-0.524118
-0.524851
-0.525857
-0.516649
-0.503737
-0.506168
-0.50902
-0.512164
-0.515417
-0.518534
-0.521207
-0.523106
-0.523319
-0.523931
-0.513397
-0.506739
-0.509336
-0.512217
-0.51519
-0.518
-0.520325
-0.521821
-0.521497
-0.521658
-0.509849
-0.507196
-0.509526
-0.512127
-0.514802
-0.517284
-0.519237
-0.520297
-0.519429
-0.519059
-0.506072
-0.507571
-0.50962
-0.511927
-0.514288
-0.516421
-0.517979
-0.518568
-0.51716
-0.516158
-0.50216
-0.509651
-0.511651
-0.51368
-0.515444
-0.516585
-0.516666
-0.514736
-0.51298
-0.498218
-0.509649
-0.511329
-0.513009
-0.514384
-0.515089
-0.514623
-0.512198
-0.509498
-0.494215
-0.510989
-0.512304
-0.51327
-0.513521
-0.512484
-0.509614
-0.505618
-0.489794
-0.510656
-0.511589
-0.512126
-0.511908
-0.510311
-0.50711
-0.501443
-0.485165
-0.51088
-0.510967
-0.510265
-0.508142
-0.504754
-0.497684
-0.484194
-0.510192
-0.509802
-0.508589
-0.505944
-0.502337
-0.494934
-0.492917
-0.508631
-0.506869
-0.503674
-0.4997
-0.492017
-0.491824
-0.505094
-0.501295
-0.496756
-0.488601
-0.487673
-0.503256
-0.498791
-0.493534
-0.484776
-0.482344
-0.496162
-0.490083
-0.480641
-0.47643
-0.486456
-0.47629
-0.470317
-0.482703
-0.47181
-0.46422
-0.467266
-0.458255
-0.452478
-0.272835
-0.275985
-0.274408
-0.281955
-0.27582
-0.275925
-0.281178
-0.275359
-0.277299
-0.284117
-0.280138
-0.274544
-0.278378
-0.287595
-0.282649
-0.278811
-0.273311
-0.278903
-0.286071
-0.281061
-0.277178
-0.271601
-0.278522
-0.289484
-0.28454
-0.279388
-0.275216
-0.26934
-0.276876
-0.292991
-0.288093
-0.283039
-0.277682
-0.272927
-0.266279
-0.27117
-0.29176
-0.286793
-0.281616
-0.276034
-0.270543
-0.262626
-0.249434
-0.295426
-0.290647
-0.285612
-0.280323
-0.274554
-0.268401
-0.26058
-0.243478
-0.294502
-0.289672
-0.284575
-0.279199
-0.273337
-0.266851
-0.259801
-0.243282
-0.298317
-0.293731
-0.288854
-0.283703
-0.278266
-0.272378
-0.265791
-0.259295
-0.243428
-0.297749
-0.293129
-0.28821
-0.283012
-0.277531
-0.271642
-0.265063
-0.258865
-0.243701
-0.301662
-0.297361
-0.292712
-0.287756
-0.282518
-0.277004
-0.271123
-0.264614
-0.25861
-0.244462
-0.301474
-0.297162
-0.292491
-0.287506
-0.282237
-0.276699
-0.270833
-0.264436
-0.258585
-0.245692
-0.305377
-0.301475
-0.297161
-0.292478
-0.287473
-0.282183
-0.276633
-0.270791
-0.26453
-0.258811
-0.24727
-0.305554
-0.30167
-0.297364
-0.292682
-0.287669
-0.28237
-0.27682
-0.271014
-0.264904
-0.259314
-0.249116
-0.305916
-0.30206
-0.297775
-0.293106
-0.288101
-0.282808
-0.277274
-0.271518
-0.265566
-0.260117
-0.251178
-0.30981
-0.306462
-0.302645
-0.298395
-0.293755
-0.288773
-0.283504
-0.278003
-0.272314
-0.266527
-0.261234
-0.253415
-0.310484
-0.307189
-0.303423
-0.299221
-0.294625
-0.289686
-0.284459
-0.279011
-0.273407
-0.267788
-0.262662
-0.255793
-0.311325
-0.308092
-0.304389
-0.300249
-0.295714
-0.290835
-0.28567
-0.280295
-0.274793
-0.269343
-0.264389
-0.258286
-0.315006
-0.312329
-0.309166
-0.305536
-0.301472
-0.297015
-0.292213
-0.287131
-0.281848
-0.276462
-0.27118
-0.266394
-0.260878
-0.316094
-0.313489
-0.310404
-0.30686
-0.302884
-0.298519
-0.293813
-0.28883
-0.283656
-0.2784
-0.273282
-0.268653
-0.263565
-0.317328
-0.314799
-0.311801
-0.308351
-0.304476
-0.300217
-0.295622
-0.290755
-0.285705
-0.280587
-0.275628
-0.271144
-0.266348
-0.320684
-0.318702
-0.316255
-0.31335
-0.310003
-0.30624
-0.302099
-0.297628
-0.292892
-0.287978
-0.283004
-0.278199
-0.273843
-0.269237
-0.322121
-0.320211
-0.317851
-0.315045
-0.311808
-0.308166
-0.304154
-0.29982
-0.295225
-0.290457
-0.285633
-0.280975
-0.276734
-0.272243
-0.323686
-0.321851
-0.319581
-0.316879
-0.31376
-0.310248
-0.306374
-0.302185
-0.297742
-0.293128
-0.288455
-0.283941
-0.279804
-0.27538
-0.325376
-0.323619
-0.321443
-0.31885
-0.315854
-0.312477
-0.30875
-0.304715
-0.30043
-0.295975
-0.291457
-0.287082
-0.283042
-0.278659
-0.328466
-0.327188
-0.325511
-0.323432
-0.320952
-0.318084
-0.314849
-0.311275
-0.3074
-0.30328
-0.298989
-0.294626
-0.290391
-0.286445
-0.282093
-0.330332
-0.32912
-0.327526
-0.325546
-0.323182
-0.320448
-0.317359
-0.313942
-0.310234
-0.306283
-0.30216
-0.297956
-0.29386
-0.290009
-0.285691
-0.332314
-0.33117
-0.329661
-0.327783
-0.325539
-0.322941
-0.320003
-0.316749
-0.313211
-0.309435
-0.305483
-0.30144
-0.297486
-0.293736
-0.289461
-0.334411
-0.333337
-0.331915
-0.330142
-0.328021
-0.325562
-0.322779
-0.319692
-0.31633
-0.312732
-0.308956
-0.305078
-0.301268
-0.297629
-0.29341
-0.337297
-0.336622
-0.335621
-0.334288
-0.332623
-0.330628
-0.328312
-0.325688
-0.322772
-0.319589
-0.316174
-0.312578
-0.308869
-0.305209
-0.301695
-0.297544
-0.339561
-0.338947
-0.338021
-0.33678
-0.335225
-0.333359
-0.33119
-0.328728
-0.325987
-0.322989
-0.319762
-0.316351
-0.312816
-0.309309
-0.305945
-0.301871
-0.341935
-0.341384
-0.340537
-0.339391
-0.33795
-0.336216
-0.334198
-0.331902
-0.329341
-0.326531
-0.323499
-0.32028
-0.316925
-0.313564
-0.310403
-0.306384
-0.34442
-0.343936
-0.343169
-0.342122
-0.340798
-0.3392
-0.337336
-0.335211
-0.332835
-0.330221
-0.327389
-0.324371
-0.321203
-0.317962
-0.315109
-0.31104
-0.347016
-0.346602
-0.34592
-0.344974
-0.34377
-0.342313
-0.340607
-0.338659
-0.336473
-0.33406
-0.331438
-0.328632
-0.325677
-0.32269
-0.319856
-0.315866
-0.349723
-0.349383
-0.348788
-0.347948
-0.346869
-0.345556
-0.344014
-0.342247
-0.340258
-0.338055
-0.335651
-0.333067
-0.330339
-0.327584
-0.324852
-0.321332
-0.352544
-0.352279
-0.351776
-0.351045
-0.350095
-0.348931
-0.347558
-0.345978
-0.344193
-0.342208
-0.340032
-0.337683
-0.335194
-0.332674
-0.330103
-0.326979
-0.355477
-0.355292
-0.354884
-0.354266
-0.35345
-0.352441
-0.351242
-0.349856
-0.348283
-0.346524
-0.344586
-0.342484
-0.340247
-0.337973
-0.335602
-0.332817
-0.358394
-0.358525
-0.358422
-0.358112
-0.357612
-0.356934
-0.356085
-0.355068
-0.353883
-0.352529
-0.351006
-0.349318
-0.347475
-0.345503
-0.343489
-0.34135
-0.338892
-0.361484
-0.361687
-0.361669
-0.361461
-0.361084
-0.360549
-0.359865
-0.359035
-0.358059
-0.356933
-0.355656
-0.354229
-0.352659
-0.350967
-0.34923
-0.347349
-0.345223
-0.364687
-0.364964
-0.365034
-0.364931
-0.36468
-0.364293
-0.363781
-0.363145
-0.362385
-0.361497
-0.360476
-0.359322
-0.358038
-0.356642
-0.355198
-0.353602
-0.351818
-0.368004
-0.368355
-0.368514
-0.368521
-0.368399
-0.368167
-0.367832
-0.367397
-0.366861
-0.366218
-0.365464
-0.364595
-0.363611
-0.362527
-0.361394
-0.36011
-0.358681
-0.371432
-0.371859
-0.37211
-0.372228
-0.372241
-0.372167
-0.372015
-0.371788
-0.371483
-0.371096
-0.370618
-0.370046
-0.369376
-0.36862
-0.367817
-0.366867
-0.365808
-0.374973
-0.375475
-0.375819
-0.376051
-0.376202
-0.376291
-0.376327
-0.376314
-0.376249
-0.376124
-0.375933
-0.375669
-0.375327
-0.374913
-0.374458
-0.373865
-0.373192
-0.378622
-0.379199
-0.379637
-0.379986
-0.380279
-0.380534
-0.380764
-0.380971
-0.381151
-0.381297
-0.381402
-0.381456
-0.381453
-0.381396
-0.381306
-0.381092
-0.380819
-0.382379
-0.383029
-0.383561
-0.384028
-0.384465
-0.384891
-0.385319
-0.38575
-0.386182
-0.386607
-0.387015
-0.387397
-0.387744
-0.388055
-0.388345
-0.388528
-0.388669
-0.400221
-0.395434
-0.39738
-0.394494
-0.402192
-0.414945
-0.4373
-0.457233
-0.46625
-0.448997
-0.408978
-0.403537
-0.403877
-0.397847
-0.401313
-0.409754
-0.42847
-0.445849
-0.453594
-0.436456
-0.417991
-0.411854
-0.410609
-0.401334
-0.400387
-0.404263
-0.419082
-0.43372
-0.440177
-0.423215
-0.427215
-0.420349
-0.417557
-0.404963
-0.399451
-0.398533
-0.409211
-0.420905
-0.426069
-0.409324
-0.436596
-0.428974
-0.424691
-0.408729
-0.398538
-0.392626
-0.398937
-0.407589
-0.411244
-0.394842
-0.446071
-0.437677
-0.431972
-0.412626
-0.397676
-0.386603
-0.388343
-0.393788
-0.395864
-0.379832
-0.455569
-0.446397
-0.439353
-0.416633
-0.396886
-0.380522
-0.377516
-0.379589
-0.380002
-0.364367
-0.465017
-0.455067
-0.44678
-0.420727
-0.396182
-0.374439
-0.36654
-0.36509
-0.36372
-0.348469
-0.474336
-0.463618
-0.454195
-0.424875
-0.395572
-0.368405
-0.3555
-0.350392
-0.347179
-0.332098
-0.483446
-0.471977
-0.461531
-0.429039
-0.395056
-0.362465
-0.344478
-0.335592
-0.330429
-0.315555
-0.492269
-0.48007
-0.468724
-0.433176
-0.394629
-0.356658
-0.333551
-0.320788
-0.313554
-0.298593
-0.500728
-0.487825
-0.475706
-0.437244
-0.394278
-0.351018
-0.322791
-0.306073
-0.296658
-0.281613
-0.508756
-0.495175
-0.482412
-0.441195
-0.393991
-0.345573
-0.312267
-0.29154
-0.27984
-0.264685
-0.516288
-0.502057
-0.488779
-0.444988
-0.39375
-0.340345
-0.302042
-0.277272
-0.263189
-0.247806
-0.523272
-0.508416
-0.494751
-0.44858
-0.393536
-0.335351
-0.292171
-0.263349
-0.246788
-0.231009
-0.529678
-0.514202
-0.500275
-0.451934
-0.393333
-0.330607
-0.282707
-0.249845
-0.230718
-0.214527
-0.535501
-0.519349
-0.505302
-0.45502
-0.393124
-0.326124
-0.273697
-0.236829
-0.215053
-0.198272
-0.540626
-0.523826
-0.5098
-0.457811
-0.392896
-0.321913
-0.265182
-0.224364
-0.199869
-0.182288
-0.54484
-0.527861
-0.513758
-0.460284
-0.392637
-0.317982
-0.2572
-0.212509
-0.185236
-0.166647
-0.548422
-0.531256
-0.517144
-0.462414
-0.39234
-0.314339
-0.249786
-0.20132
-0.171218
-0.15142
-0.551415
-0.533972
-0.519913
-0.464212
-0.392014
-0.310993
-0.242968
-0.190846
-0.157876
-0.136707
-0.553807
-0.536022
-0.522075
-0.465657
-0.391663
-0.307964
-0.23677
-0.18113
-0.145266
-0.122592
-0.555602
-0.537429
-0.523651
-0.466741
-0.391262
-0.305257
-0.231225
-0.17221
-0.133442
-0.109134
-0.556817
-0.53822
-0.524638
-0.467466
-0.390864
-0.302766
-0.22641
-0.164113
-0.122454
-0.0963813
-0.557474
-0.538421
-0.525039
-0.467841
-0.39044
-0.300496
-0.222351
-0.15687
-0.112348
-0.08438
-0.557591
-0.538061
-0.524867
-0.467874
-0.38999
-0.299076
-0.2184
-0.150537
-0.103163
-0.0731771
-0.0547574
-0.557184
-0.537175
-0.524137
-0.467573
-0.389514
-0.297944
-0.215118
-0.145092
-0.0949474
-0.0628193
-0.0432421
-0.556263
-0.535797
-0.522867
-0.466944
-0.389013
-0.297104
-0.212553
-0.140454
-0.0877489
-0.0533571
-0.0324125
-0.554835
-0.533962
-0.521079
-0.465995
-0.388488
-0.296568
-0.210655
-0.136697
-0.0814947
-0.0448407
-0.0223117
-0.552899
-0.531704
-0.518798
-0.464736
-0.387938
-0.296328
-0.209403
-0.133871
-0.0761304
-0.0372582
-0.0130499
-0.55045
-0.529055
-0.516049
-0.463177
-0.387359
-0.296374
-0.208777
-0.131867
-0.0719103
-0.030465
-0.00469596
-0.547481
-0.526046
-0.512862
-0.46133
-0.386749
-0.296685
-0.208739
-0.130655
-0.0687142
-0.0248359
0.00294119
-0.543977
-0.522701
-0.509268
-0.459211
-0.386105
-0.297245
-0.209254
-0.130213
-0.0664474
-0.0202581
0.00964957
-0.539927
-0.519046
-0.505305
-0.456842
-0.385439
-0.298046
-0.210298
-0.130516
-0.0650923
-0.0166821
0.0153839
-0.535322
-0.515094
-0.501004
-0.454239
-0.384743
-0.299055
-0.211814
-0.131507
-0.064601
-0.0140744
0.0201671
-0.53016
-0.51085
-0.496379
-0.451368
-0.383921
-0.30012
-0.213619
-0.133004
-0.0648156
-0.0123187
0.0240698
-0.524469
-0.506352
-0.491497
-0.448261
-0.382963
-0.301193
-0.215645
-0.13494
-0.0656817
-0.0113846
0.0270848
-0.5183
-0.501719
-0.48662
-0.445373
-0.382545
-0.303108
-0.218768
-0.138129
-0.0678969
-0.0118395
0.0287535
0.0523627
-0.511456
-0.496799
-0.481704
-0.442872
-0.383058
-0.306419
-0.223591
-0.143127
-0.0718938
-0.0139504
0.028948
0.0550298
-0.503212
-0.490588
-0.47496
-0.43754
-0.37975
-0.30538
-0.224112
-0.14431
-0.072692
-0.0134496
0.0312477
0.0593496
-0.484892
-0.477926
-0.460039
-0.421666
-0.363628
-0.290588
-0.211184
-0.133207
-0.0623735
-0.00256771
0.0439322
0.0750581
-0.455492
-0.445896
-0.423356
-0.38537
-0.331581
-0.264983
-0.192271
-0.120158
-0.0538021
0.00331456
0.0485233
0.0793296
-0.426828
-0.413986
-0.38844
-0.351988
-0.302972
-0.242726
-0.176542
-0.110257
-0.0483824
0.00587898
0.049904
0.0813798
-0.397973
-0.382749
-0.355674
-0.321154
-0.276807
-0.222692
-0.162924
-0.102522
-0.0454452
0.00537365
0.0474353
0.0785689
-0.368912
-0.352782
-0.325462
-0.293111
-0.253204
-0.204883
-0.151235
-0.0965687
-0.044399
0.00258604
0.0420714
0.0720573
-0.340547
-0.32459
-0.298007
-0.267941
-0.232108
-0.189101
-0.141145
-0.0919254
-0.0445745
-0.00152603
0.0351153
0.0633433
-0.313476
-0.298362
-0.273174
-0.245425
-0.213272
-0.175059
-0.132324
-0.0881878
-0.0454395
-0.00627074
0.0274053
0.0536247
-0.288012
-0.274102
-0.250691
-0.225246
-0.196413
-0.162494
-0.124505
-0.0850533
-0.0466199
-0.0111779
0.0195211
0.0436939
-0.264289
-0.251727
-0.230273
-0.207092
-0.181264
-0.151179
-0.117473
-0.0823049
-0.0478632
-0.0159243
0.0119095
0.0340599
-0.242311
-0.231113
-0.211669
-0.19068
-0.167582
-0.14092
-0.111065
-0.0797879
-0.049008
-0.020321
0.00482599
0.02504
-0.222013
-0.212136
-0.194664
-0.17577
-0.155159
-0.131556
-0.105152
-0.0773945
-0.0499535
-0.0242594
-0.0015969
0.0168098
-0.203369
-0.194676
-0.179081
-0.16216
-0.143819
-0.122952
-0.0996364
-0.0750493
-0.0506377
-0.0276768
-0.00728776
0.00944531
-0.186155
-0.178602
-0.164765
-0.149686
-0.133413
-0.114998
-0.09444
-0.0727006
-0.0510264
-0.0305523
-0.0122293
0.00296417
-0.170329
-0.163799
-0.151588
-0.138211
-0.12382
-0.1076
-0.0895033
-0.0703141
-0.0511023
-0.0328912
-0.0164293
-0.00264839
-0.155784
-0.15022
-0.139451
-0.127625
-0.114938
-0.100683
-0.0847801
-0.0678688
-0.0508571
-0.0345828
-0.0199067
-0.00742764
-0.142409
-0.137679
-0.128248
-0.117831
-0.106683
-0.0941852
-0.0802358
-0.0653574
-0.0503261
-0.0358771
-0.022724
-0.011425
-0.130113
-0.126128
-0.117929
-0.108751
-0.0989895
-0.0880581
-0.0758449
-0.0627767
-0.0495211
-0.0366964
-0.0249234
-0.0146975
-0.11881
-0.115482
-0.108379
-0.100404
-0.0918085
-0.0822663
-0.0715903
-0.0601277
-0.0484333
-0.0370792
-0.026555
-0.0173061
-0.108417
-0.105664
-0.0995258
-0.0925744
-0.0851232
-0.0767834
-0.0674623
-0.0574232
-0.0471315
-0.0370729
-0.0276729
-0.0193137
-0.0988601
-0.0966055
-0.0913204
-0.0852852
-0.0788118
-0.071573
-0.0634536
-0.054672
-0.0456237
-0.0367215
-0.0283327
-0.0207831
-0.0900688
-0.0882461
-0.0837134
-0.0784913
-0.0728851
-0.0666151
-0.0595584
-0.0518888
-0.0439417
-0.0360701
-0.0285886
-0.0217755
-0.0819797
-0.0805292
-0.0766574
-0.0721541
-0.0673139
-0.0618956
-0.0557749
-0.0490872
-0.0421153
-0.0351607
-0.0284932
-0.0223497
-0.0745343
-0.0734026
-0.0701094
-0.0662392
-0.062073
-0.0574022
-0.0521042
-0.046282
-0.0401727
-0.0340336
-0.0280958
-0.0225609
-0.0676788
-0.0668189
-0.0640303
-0.0607158
-0.0571409
-0.053125
-0.0485485
-0.0434879
-0.0381407
-0.0327263
-0.0274423
-0.0224604
-0.0613641
-0.0607345
-0.0583848
-0.0555564
-0.0524988
-0.0490552
-0.0451105
-0.0407189
-0.0360443
-0.0312734
-0.0265751
-0.0220955
-0.0555453
-0.0551097
-0.0531404
-0.0507361
-0.0481297
-0.0451853
-0.0417927
-0.037988
-0.0339065
-0.0297067
-0.0255328
-0.0215089
-0.0501815
-0.0499082
-0.0482677
-0.0462323
-0.0440187
-0.0415086
-0.0385975
-0.035307
-0.0317479
-0.0280546
-0.0243501
-0.0207395
-0.0452354
-0.0450968
-0.0437397
-0.0420245
-0.0401517
-0.0380189
-0.035527
-0.0326864
-0.029587
-0.0263425
-0.0230578
-0.0198224
-0.040673
-0.0406454
-0.0395318
-0.0380937
-0.0365161
-0.03471
-0.0325827
-0.030135
-0.0274398
-0.0245928
-0.0216833
-0.0187878
-0.0364635
-0.0365262
-0.0356213
-0.0344225
-0.0330998
-0.0315763
-0.0297653
-0.0276605
-0.0253202
-0.022825
-0.0202507
-0.0176625
-0.0325787
-0.032714
-0.0319875
-0.0309948
-0.0298918
-0.0286121
-0.027075
-0.0252689
-0.0232402
-0.0210561
-0.0187812
-0.0164708
-0.028993
-0.0291857
-0.0286112
-0.0277955
-0.0268815
-0.0258117
-0.0245114
-0.0229653
-0.0212096
-0.0193005
-0.0172927
-0.0152333
-0.025683
-0.0259203
-0.0254747
-0.0248108
-0.0240588
-0.0231693
-0.0220734
-0.0207532
-0.0192366
-0.0175703
-0.0158006
-0.0139675
-0.0226274
-0.0228983
-0.0225618
-0.0220277
-0.0214144
-0.0206793
-0.0197596
-0.0186353
-0.0173277
-0.0158756
-0.0143179
-0.0126886
-0.0198068
-0.0201021
-0.0198575
-0.019434
-0.018939
-0.018336
-0.0175676
-0.0166131
-0.0154881
-0.0142246
-0.0128556
-0.0114095
-0.0172036
-0.0175154
-0.0173479
-0.0170184
-0.016624
-0.0161337
-0.0154952
-0.0146875
-0.0137217
-0.0126243
-0.0114228
-0.0101412
-0.0148016
-0.0151234
-0.0150202
-0.0147703
-0.0144613
-0.0140667
-0.0135394
-0.0128585
-0.0120314
-0.0110798
-0.0100269
-0.00889271
-0.0125859
-0.0129124
-0.0128624
-0.0126797
-0.0124429
-0.0121295
-0.0116972
-0.0111254
-0.010419
-0.00959547
-0.00867413
-0.0076716
-0.010543
-0.0108699
-0.0108637
-0.0107374
-0.0105614
-0.0103166
-0.00996508
-0.00948724
-0.00888561
-0.00817436
-0.00736952
-0.00648496
-0.0086607
-0.00898424
-0.00901373
-0.00893472
-0.00880968
-0.00862259
-0.00833968
-0.00794244
-0.00743165
-0.00681866
-0.00611679
-0.0053377
-0.00692757
-0.00724493
-0.00730322
-0.00726343
-0.00718092
-0.00704222
-0.00681739
-0.00648913
-0.00605694
-0.00552979
-0.00491865
-0.00423315
-0.00533328
-0.0056422
-0.0057234
-0.005716
-0.00566876
-0.00557042
-0.00539456
-0.0051252
-0.00476085
-0.00430856
-0.00377729
-0.00317491
-0.00386834
-0.0041671
-0.00426621
-0.00428533
-0.00426715
-0.00420229
-0.00406756
-0.00384832
-0.00354243
-0.00315529
-0.00269417
-0.00216547
-0.00252407
-0.00281141
-0.00292421
-0.00296483
-0.00297041
-0.00293315
-0.0028328
-0.0026561
-0.00240044
-0.00206991
-0.00167031
-0.00120679
-0.00129255
-0.00156758
-0.00169052
-0.00174837
-0.00177319
-0.00175851
-0.00168677
-0.00154602
-0.00133344
-0.001052
-0.000706318
-0.000300327
-0.00016651
-0.00042871
-0.000558818
-0.000630273
-0.000670501
-0.000674139
-0.000626045
-0.000515585
-0.000339825
-0.000100901
0.000197415
0.000551407
0.000860633
0.00061152
0.00047669
0.000394689
0.000342296
0.00032395
0.000352631
0.000437732
0.000582196
0.00078462
0.00104221
0.00135246
0.00179487
0.00155884
0.00142129
0.00133131
0.00126947
0.00123947
0.00125233
0.0013163
0.00143425
0.00160537
0.00182763
0.00209921
0.0026416
0.00241845
0.00227979
0.00218396
0.00211494
0.00207581
0.0020759
0.00212235
0.00221792
0.00236225
0.00255391
0.00279159
0.00340567
0.00319499
0.00305649
0.00295655
0.00288222
0.00283608
0.00282595
0.00285797
0.00293471
0.0030562
0.00322148
0.00342965
0.00409136
0.0038926
0.0037552
0.00365258
0.00357446
0.00352304
0.00350481
0.00352501
0.00358602
0.00368812
0.00383078
0.00401344
0.0047024
0.00451484
0.00437925
0.00427505
0.00419436
0.00413907
0.00411452
0.00412512
0.00417306
0.00425882
0.00438219
0.00454293
0.00524196
0.00506479
0.00493145
0.00482653
0.00474422
0.00468617
0.00465675
0.00465963
0.0046968
0.00476888
0.00487595
0.005018
0.00571262
0.00554489
0.00541405
0.00530905
0.00522584
0.00516591
0.0051328
0.00512954
0.00515791
0.00521866
0.00531208
0.00543835
0.00611638
0.00595703
0.00582876
0.00572409
0.0056405
0.00557936
0.0055435
0.00553543
0.00555672
0.00560821
0.00569036
0.0058035
0.00645452
0.00630242
0.00617659
0.00607251
0.00598889
0.00592702
0.00588918
0.0058774
0.0058931
0.00593717
0.0060102
0.00611266
0.00672762
0.00658153
0.00645789
0.00635449
0.00627104
0.00620878
0.00616954
0.00615498
0.0061664
0.0062047
0.00627059
0.00636463
0.00693544
0.00679401
0.00667217
0.00656943
0.00648622
0.00642378
0.0063836
0.00636707
0.00637537
0.00640944
0.00647003
0.00655779
0.00707671
0.00693852
0.00681798
0.00671574
0.00663275
0.00657024
0.00652947
0.00651167
0.00651792
0.00654917
0.00660623
0.00668978
0.00714933
0.00701273
0.00689289
0.00679093
0.00670808
0.00664554
0.00660448
0.00658604
0.00659126
0.00662108
0.00667635
0.00675776
-0.421578
-0.426863
-0.432439
-0.438381
-0.444795
-0.451838
-0.459723
-0.468869
-0.479267
-0.493557
-0.394814
-0.400224
-0.405917
-0.41193
-0.418299
-0.425059
-0.432183
-0.439827
-0.447301
-0.457648
-0.366586
-0.371386
-0.376333
-0.381444
-0.38674
-0.392262
-0.398019
-0.404246
-0.410502
-0.419065
-0.339379
-0.343759
-0.348266
-0.352919
-0.357739
-0.362757
-0.367967
-0.373494
-0.379012
-0.385872
-0.313855
-0.317868
-0.321969
-0.326168
-0.330473
-0.334898
-0.339438
-0.344171
-0.348945
-0.354565
-0.289705
-0.293339
-0.297036
-0.300805
-0.304652
-0.308591
-0.312624
-0.316797
-0.321043
-0.325804
-0.267128
-0.270437
-0.273795
-0.277208
-0.28068
-0.28422
-0.287829
-0.291531
-0.295307
-0.299404
-0.246087
-0.249098
-0.252145
-0.255233
-0.258366
-0.26155
-0.264787
-0.268093
-0.271466
-0.275057
-0.226502
-0.229239
-0.232006
-0.234804
-0.237638
-0.240511
-0.243427
-0.246394
-0.249418
-0.2526
-0.208314
-0.210803
-0.213314
-0.215851
-0.218416
-0.221011
-0.223641
-0.22631
-0.229025
-0.231862
-0.191448
-0.193708
-0.195986
-0.198285
-0.200607
-0.202953
-0.205326
-0.20773
-0.210171
-0.212708
-0.175825
-0.177877
-0.179943
-0.182026
-0.184128
-0.18625
-0.188395
-0.190565
-0.192765
-0.195043
-0.161368
-0.163229
-0.165102
-0.166988
-0.16889
-0.170807
-0.172743
-0.1747
-0.17668
-0.178721
-0.148001
-0.149688
-0.151384
-0.153092
-0.154812
-0.156546
-0.158294
-0.160059
-0.161843
-0.163673
-0.135649
-0.137177
-0.138714
-0.140261
-0.141817
-0.143384
-0.144963
-0.146556
-0.148164
-0.149807
-0.124239
-0.125625
-0.127017
-0.128417
-0.129825
-0.131242
-0.132669
-0.134107
-0.135557
-0.137032
-0.113704
-0.11496
-0.116221
-0.117488
-0.118762
-0.120044
-0.121334
-0.122633
-0.123942
-0.125267
-0.103977
-0.105115
-0.106258
-0.107406
-0.108559
-0.109719
-0.110886
-0.112059
-0.113242
-0.114433
-0.0949978
-0.0960297
-0.0970654
-0.0981053
-0.0991499
-0.1002
-0.101255
-0.102316
-0.103385
-0.104457
-0.0867081
-0.0876439
-0.0885829
-0.0895255
-0.0904719
-0.0914226
-0.0923779
-0.0933383
-0.0943047
-0.0952698
-0.0790547
-0.0799038
-0.0807555
-0.08161
-0.0824679
-0.0833293
-0.0841946
-0.085064
-0.0859385
-0.0868082
-0.0727588
-0.0735316
-0.0743068
-0.0750847
-0.0758656
-0.0766497
-0.0774372
-0.078229
-0.0790133
-0.0661623
-0.0668638
-0.0675673
-0.068273
-0.0689813
-0.0696922
-0.0704059
-0.0711233
-0.0718311
-0.0600711
-0.0607082
-0.0613469
-0.0619875
-0.0626301
-0.063275
-0.0639222
-0.0645725
-0.0652118
-0.0544457
-0.0550245
-0.0556046
-0.0561863
-0.0567697
-0.0573549
-0.057942
-0.0585317
-0.0591096
-0.0492494
-0.0497754
-0.0503026
-0.050831
-0.0513608
-0.0518921
-0.0524248
-0.0529599
-0.0534826
-0.0444487
-0.044927
-0.0454062
-0.0458864
-0.0463676
-0.0468501
-0.0473338
-0.0478194
-0.0482925
-0.0400128
-0.0404479
-0.0408836
-0.0413201
-0.0417574
-0.0421957
-0.042635
-0.0430758
-0.0435043
-0.0359136
-0.0363093
-0.0367056
-0.0371025
-0.0375
-0.0378983
-0.0382973
-0.0386975
-0.0390858
-0.0321249
-0.0324851
-0.0328456
-0.0332065
-0.0335679
-0.0339298
-0.0342923
-0.0346558
-0.0350078
-0.0286232
-0.028951
-0.029279
-0.0296073
-0.0299359
-0.0302648
-0.0305942
-0.0309243
-0.0312436
-0.0253867
-0.0256851
-0.0259835
-0.0262821
-0.0265809