/*--------------------------------*- C++ -*----------------------------------*\
  =========                 |
  \\      /  F ield         | OpenFOAM: The Open Source CFD Toolbox
   \\    /   O peration     | Website:  https://openfoam.org
    \\  /    A nd           | Version:  7
     \\/     M anipulation  |
\*---------------------------------------------------------------------------*/
FoamFile
{
    version     2.0;
    format      ascii;
    class       surfaceScalarField;
    location    "140";
    object      phi;
}
// * * * * * * * * * * * * * * * * * * * * * * * * * * * * * * * * * * * * * //

dimensions      [0 3 -1 0 0 0 0];

internalField   nonuniform List<scalar> 
8899
(
-2.29436e-05
8.62152e-05
-7.67946e-05
-3.43745e-05
8.14642e-05
-7.00332e-05
-4.76253e-05
6.77818e-05
-5.45311e-05
-6.25487e-05
4.71168e-05
-3.21935e-05
-7.90317e-05
2.11487e-05
-4.66563e-06
-9.69872e-05
-8.82913e-06
2.67846e-05
-0.000116347
-4.19799e-05
6.13397e-05
-0.00013706
-7.79397e-05
9.86529e-05
-0.000159095
-0.000116782
0.000138817
-0.000182445
-0.000158949
0.000182299
-0.000207137
-0.000205166
0.000229858
-0.000233238
-0.000256373
0.000282474
-0.000260855
-0.000313682
0.000341299
-0.000290132
-0.000378367
0.000407644
-0.000321235
-0.000451875
0.000482978
-0.000354313
-0.000535819
0.000568897
-0.000632112
0.000667293
-0.000389494
-2.32758e-05
9.58016e-05
-3.49366e-05
9.3125e-05
-4.84794e-05
8.13246e-05
-6.37516e-05
6.23891e-05
-8.06336e-05
3.80307e-05
-9.90315e-05
9.56874e-06
-0.000118872
-2.2139e-05
-0.000140104
-5.67082e-05
-0.000162697
-9.41888e-05
-0.000186656
-0.000134991
-0.000212023
-0.000179799
-0.00023889
-0.000229506
-0.000267398
-0.000285173
-0.000297738
-0.000348027
-0.00033013
-0.000419483
-0.000364789
-0.00050116
-0.000594979
-0.000401923
-2.34346e-05
0.000105485
-3.52431e-05
0.000104933
-4.89824e-05
9.50639e-05
-6.44942e-05
7.79009e-05
-8.16507e-05
5.51872e-05
-0.000100349
2.82671e-05
-0.000120509
-1.97912e-06
-0.000142073
-3.51445e-05
-0.00016501
-7.12512e-05
-0.000189328
-0.000110673
-0.000215078
-0.000154049
-0.000242369
-0.000202216
-0.000271367
-0.000256175
-0.0003023
-0.000317095
-0.000335438
-0.000386344
-0.000371055
-0.000465542
-0.000556599
-0.000409435
-2.34103e-05
0.000115193
-3.52798e-05
0.000116803
-4.91154e-05
0.0001089
-6.47527e-05
9.35381e-05
-8.20542e-05
7.24887e-05
-0.000100907
4.71196e-05
-0.000121219
1.83332e-05
-0.000142925
-1.3439e-05
-0.000165987
-4.81889e-05
-0.000190409
-8.62509e-05
-0.000216244
-0.000128214
-0.000243606
-0.000174854
-0.00027268
-0.000227101
-0.000303719
-0.000286056
-0.000337035
-0.000353028
-0.000372957
-0.00042962
-0.000517718
-0.000411839
-2.31956e-05
0.00012485
-3.50359e-05
0.000128643
-4.88639e-05
0.000122728
-6.45088e-05
0.000109183
-8.18227e-05
8.98027e-05
-0.00010068
6.59766e-05
-0.000120975
3.86288e-05
-0.00014263
8.21575e-06
-0.000165596
-2.52233e-05
-0.000189865
-6.19819e-05
-0.000215483
-0.000102596
-0.000242562
-0.000147774
-0.00027129
-0.000198373
-0.000301938
-0.000255408
-0.000334849
-0.000320117
-0.000370403
-0.000394066
-0.000479105
-0.000409015
-2.27859e-05
0.000134378
-3.45043e-05
0.000140362
-4.82183e-05
0.000136441
-6.37504e-05
0.000124715
-8.09418e-05
0.000106994
-9.96521e-05
8.46868e-05
-0.000119761
5.87377e-05
-0.000141172
2.96269e-05
-0.00016382
-2.57538e-06
-0.00018768
-3.81216e-05
-0.000212782
-7.74938e-05
-0.000239224
-0.000121333
-0.000267185
-0.000170411
-0.000296942
-0.000225652
-0.000328859
-0.000288199
-0.000363359
-0.000359566
-0.000441547
-0.000400918
-2.21791e-05
0.000143698
-3.36818e-05
0.000151864
-4.71737e-05
0.000149933
-6.24715e-05
0.000140013
-7.94046e-05
0.000123927
-9.78168e-05
0.000103099
-0.000117569
7.84904e-05
-0.000138546
5.06034e-05
-0.000160659
1.95373e-05
-0.000183859
-1.49212e-05
-0.000208151
-5.32019e-05
-0.000233607
-9.58767e-05
-0.000260388
-0.00014363
-0.000288759
-0.000197281
-0.000319096
-0.000257862
-0.000351858
-0.000326805
-0.000405831
-0.000387574
-2.13759e-05
-3.25686e-05
0.000163057
-4.57302e-05
0.000163095
-6.06719e-05
0.000154955
-7.72111e-05
0.000140466
-9.51748e-05
0.000121063
-0.000114404
9.77196e-05
-0.000134758
7.09579e-05
-0.000156124
4.09025e-05
-0.00017842
7.37541e-06
-0.000201618
-3.00041e-05
-0.000225754
-7.1741e-05
-0.000250954
-0.00011843
-0.000277459
-0.000170776
-0.000305643
-0.000229678
-0.000335993
-0.000296455
-0.000372735
-0.000369088
-3.11688e-05
0.000173846
-4.38925e-05
0.000175819
-5.83573e-05
0.000169419
-7.43684e-05
0.000156477
-9.17355e-05
0.00013843
-0.000110277
0.000116261
-0.000129827
9.05079e-05
-0.00015024
6.13151e-05
-0.000171399
2.85349e-05
-0.000193233
-8.17065e-06
-0.00021573
-4.92441e-05
-0.000238969
-9.51912e-05
-0.000263151
-0.000146594
-0.000288631
-0.000204197
-0.000315918
-0.000269168
-0.000343018
-0.000345634
-2.94901e-05
0.00018414
-4.167e-05
0.000187999
-5.55389e-05
0.000183288
-7.08903e-05
0.000171829
-8.75157e-05
0.000155055
-0.000105211
0.000133956
-0.00012378
0.000109077
-0.000143044
8.05789e-05
-0.000162845
4.83358e-05
-0.00018306
1.20445e-05
-0.000203621
-2.86826e-05
-0.000224546
-7.42664e-05
-0.000245978
-0.000125163
-0.000268238
-0.000181937
-0.000291843
-0.000245563
-0.000317405
-0.000317456
-2.75438e-05
0.00019385
-3.90769e-05
0.000199532
-5.22338e-05
0.000196445
-6.67969e-05
0.000186392
-8.25397e-05
0.000170798
-9.92335e-05
0.00015065
-0.000116653
0.000126497
-0.000134582
9.85076e-05
-0.000152817
6.65705e-05
-0.000171179
3.04066e-05
-0.000189533
-1.03283e-05
-0.000207822
-5.59773e-05
-0.000226115
-0.000106869
-0.00024468
-0.000163372
-0.000264032
-0.000226212
-0.000296579
-0.000284858
-2.53448e-05
0.00020289
-3.61316e-05
0.000210318
-4.84643e-05
0.000208778
-6.21148e-05
0.000200042
-7.68386e-05
0.000185522
-9.23829e-05
0.000166194
-0.000108492
0.000142606
-0.000124909
0.000114925
-0.000141385
8.3046e-05
-0.000157679
4.67005e-05
-0.000173582
5.5746e-06
-0.00018895
-4.06094e-05
-0.000203761
-9.20582e-05
-0.000218208
-0.000148925
-0.000232788
-0.000211631
-0.000281169
-0.000248198
-2.29114e-05
0.000211179
-3.28572e-05
0.000220264
-4.4258e-05
0.000220179
-5.68762e-05
0.000212661
-7.045e-05
0.000199096
-8.47027e-05
0.000180447
-9.93471e-05
0.00015725
-0.000114089
0.000129667
-0.000128626
9.75835e-05
-0.000142657
6.07315e-05
-0.000155893
1.88101e-05
-0.000168092
-2.841e-05
-0.000179126
-8.10239e-05
-0.000189091
-0.00013896
-0.000198452
-0.00020227
-0.000271741
-0.00020788
-2.02652e-05
0.000218643
-2.92807e-05
0.00022928
-3.96474e-05
0.000230545
-5.11191e-05
0.000224132
-6.34179e-05
0.000211394
-7.62432e-05
0.000193272
-8.92775e-05
0.000170285
-0.000102187
0.000142577
-0.000114622
0.000110018
-0.000126215
7.23242e-05
-0.000136594
2.91892e-05
-0.000145416
-1.95884e-05
-0.00015243
-7.40097e-05
-0.000157614
-0.000133777
-0.000161383
-0.000198501
-0.000268781
-0.000164343
-1.74305e-05
0.000225213
-2.5433e-05
0.000237282
-3.46696e-05
0.000239782
-4.4887e-05
0.00023435
-5.57917e-05
0.000222299
-6.70606e-05
0.000204541
-7.83468e-05
0.000181571
-8.92789e-05
0.000153509
-9.94579e-05
0.000120197
-0.000108454
8.13202e-05
-0.000115812
3.65478e-05
-0.000121082
-1.43184e-05
-0.000123883
-7.12089e-05
-0.000124054
-0.000133606
-0.000121941
-0.000200614
-0.00027266
-0.000118062
-1.44346e-05
-2.13485e-05
0.000244196
-2.93663e-05
0.0002478
-3.82283e-05
0.000243212
-4.76266e-05
0.000231697
-5.72169e-05
0.000214131
-6.66237e-05
0.000190978
-7.544e-05
0.000162325
-8.32205e-05
0.000127978
-8.94753e-05
8.7575e-05
-9.36693e-05
4.07417e-05
-9.52438e-05
-1.27438e-05
-9.36816e-05
-7.27711e-05
-8.86685e-05
-0.000138619
-8.04729e-05
-0.00020881
-0.000283576
-6.95571e-05
-1.70651e-05
0.000249954
-2.37832e-05
0.000254518
-3.11963e-05
0.000250625
-3.89833e-05
0.000239484
-4.67794e-05
0.000221928
-5.41826e-05
0.000198381
-6.07518e-05
0.000168894
-6.59991e-05
0.000133225
-6.93784e-05
9.09543e-05
-7.02786e-05
4.16418e-05
-6.80363e-05
-1.49861e-05
-6.19941e-05
-7.88133e-05
-5.16476e-05
-0.000148965
-3.71915e-05
-0.000223266
-0.000301109
-1.9658e-05
-1.26234e-05
0.000254499
-1.79698e-05
0.000259864
-2.38488e-05
0.000256504
-2.99271e-05
0.000245562
-3.58208e-05
0.000227821
-4.11025e-05
0.000203662
-4.52995e-05
0.000173092
-4.78844e-05
0.00013581
-4.82603e-05
9.13302e-05
-4.57467e-05
3.91282e-05
-3.95818e-05
-2.1151e-05
-2.89759e-05
-8.94192e-05
-1.3193e-05
-0.000164748
8.4665e-06
-0.000244925
-0.000325272
3.26291e-05
-8.06668e-06
0.00025778
-1.19787e-05
0.000263776
-1.62477e-05
0.000260773
-2.05284e-05
0.000249843
-2.44189e-05
0.000231712
-2.74676e-05
0.000206711
-2.91724e-05
0.000174796
-2.89697e-05
0.000135607
-2.62174e-05
8.85779e-05
-2.01737e-05
3.30845e-05
-9.98778e-06
-3.13369e-05
5.27853e-06
-0.000104686
2.64684e-05
-0.000185938
5.3992e-05
-0.000272449
-0.00035839
8.711e-05
-3.44001e-06
-5.86556e-06
0.000266202
-8.45829e-06
0.000263366
-1.08618e-05
0.000252247
-1.26564e-05
0.000233506
-1.33674e-05
0.000207422
-1.24647e-05
0.000173894
-9.35179e-06
0.000132494
-3.34664e-06
8.25727e-05
6.34331e-06
2.33946e-05
2.06492e-05
-4.56428e-05
4.06186e-05
-0.000124655
6.73385e-05
-0.000212658
0.000101375
-0.000306485
-0.000399455
0.00014244
3.1216e-07
0.0002671
-5.48721e-07
0.000264226
-1.00524e-06
0.000252703
-6.20304e-07
0.000233121
1.10321e-06
0.000205699
4.72388e-06
0.000170273
1.08682e-05
0.00012635
2.02534e-05
7.31875e-05
3.37174e-05
9.93053e-06
5.22485e-05
-6.41739e-05
7.70066e-05
-0.000149413
0.000109257
-0.000244908
0.000149849
-0.000347078
-0.000448343
0.000198737
6.49635e-06
0.00026644
7.41143e-06
0.000263311
8.96107e-06
0.000251154
1.16001e-05
0.000230482
1.58489e-05
0.00020145
2.22914e-05
0.00016383
3.15849e-05
0.000117057
4.44788e-05
6.02936e-05
6.18467e-05
-7.43736e-06
8.47259e-05
-8.70532e-05
0.000114357
-0.000179044
0.000152166
-0.000282718
0.000199278
-0.000394189
-0.000504985
0.00025592
1.26283e-05
0.000264206
1.53518e-05
0.000260588
1.89555e-05
0.00024755
2.39124e-05
0.000225526
3.07664e-05
0.000194596
4.01294e-05
0.000154467
5.2688e-05
0.000104498
6.92218e-05
4.37598e-05
9.06345e-05
-2.88501e-05
0.000117998
-0.000114417
0.000152608
-0.000213654
0.000196018
-0.000326128
0.000249604
-0.000447775
-0.000569306
0.000313925
1.86512e-05
2.32037e-05
0.000256035
2.88976e-05
0.000241856
3.62255e-05
0.000218198
4.57563e-05
0.000185065
5.81307e-05
0.000142093
7.40662e-05
8.85625e-05
9.43723e-05
2.34537e-05
0.000119979
-5.44566e-05
0.000151981
-0.000146419
0.000191702
-0.000253375
0.000240783
-0.000375209
0.000300812
-0.000507803
-0.000641223
0.000372729
3.09012e-05
0.000249645
3.87102e-05
0.000234047
4.84515e-05
0.000208456
6.07208e-05
0.000172796
7.61902e-05
0.000126624
9.56099e-05
6.91428e-05
0.000119821
-7.57078e-07
0.000149777
-8.4413e-05
0.000186588
-0.00018323
0.000231582
-0.000298369
0.000286439
-0.000430066
0.000352905
-0.00057427
-0.000720648
0.000432329
3.83846e-05
0.00024142
4.83222e-05
0.000224109
6.05091e-05
0.000196269
7.55699e-05
0.000157735
9.42103e-05
0.000107983
0.000117217
4.61361e-05
0.000145464
-2.90044e-05
0.000179932
-0.00011888
0.000221736
-0.000225034
0.00027219
-0.000348823
0.000332963
-0.00049084
0.000405899
-0.000647205
-0.000807479
0.00049273
4.56014e-05
5.7672e-05
0.000212039
7.23277e-05
0.000181614
9.0225e-05
0.000139838
0.000112107
8.61015e-05
0.000138799
1.94436e-05
0.000171214
-6.14192e-05
0.000210357
-0.000158024
0.00025735
-0.000272027
0.000313472
-0.000404945
0.000380335
-0.000557702
0.000459806
-0.000726676
-0.000901599
0.000553926
6.67103e-05
0.000197839
8.38515e-05
0.000164473
0.000104625
0.000119064
0.000129815
6.09118e-05
0.000160291
-1.1032e-05
0.000197005
-9.81333e-05
0.000240992
-0.000202011
0.000293375
-0.00032441
0.000355387
-0.000466957
0.000428529
-0.000630844
0.00051463
-0.000812777
-0.00100286
0.000615891
7.5404e-05
0.000181518
9.50434e-05
0.000144833
0.000118731
9.5376e-05
0.000147295
3.23476e-05
0.000181653
-4.53899e-05
0.000222801
-0.000139281
0.000271804
-0.000251013
0.000329781
-0.000382388
0.000397908
-0.000535084
0.000477525
-0.000710462
0.00057036
-0.000905612
-0.00111106
0.000678561
8.37387e-05
0.00010589
0.000122682
0.000132532
6.87337e-05
0.000164541
3.38311e-07
0.000202886
-8.37349e-05
0.000248608
-0.000185003
0.000302801
-0.000305206
0.000366576
-0.000446163
0.000441035
-0.000609543
0.000527305
-0.000796732
0.000626965
-0.00100527
-0.00122592
0.000741822
0.000116402
9.80019e-05
0.000146045
3.90906e-05
0.000181581
-3.51967e-05
0.000224027
-0.000126181
0.000274472
-0.000235449
0.000334034
-0.000364767
0.000403803
-0.000515932
0.00048479
-0.00069053
0.000577851
-0.000889794
0.000684386
-0.00111181
-0.00134703
0.000805498
0.000126622
0.000159325
6.3874e-06
0.000198478
-7.43498e-05
0.000245154
-0.000172857
0.000300482
-0.000290777
0.000365593
-0.000429878
0.000441538
-0.000591876
0.000529211
-0.000778203
0.000629138
-0.000989721
0.00074252
-0.00122519
-0.00147384
0.000869326
0.000172454
-2.94504e-05
0.000215335
-0.000117231
0.000266385
-0.000223907
0.000326764
-0.000351157
0.000397601
-0.000500715
0.000479878
-0.000674154
0.00057434
-0.000872665
0.000681116
-0.0010965
0.000801202
-0.00134527
-0.00160559
0.000932952
0.000185549
-6.85166e-05
0.000232287
-0.000163969
0.000287867
-0.000279487
0.00035347
-0.00041676
0.000430196
-0.000577441
0.000518923
-0.000762881
0.000620195
-0.000973936
0.000733693
-0.00120999
0.000860185
-0.00147177
-0.0017413
0.000995902
0.00019875
0.000249491
-0.00021471
0.000309769
-0.000339765
0.000380764
-0.000487756
0.000463514
-0.00066019
0.000558747
-0.000858114
0.000666746
-0.00108194
0.000786711
-0.00132996
0.000919119
-0.00160417
-0.00187977
0.00105758
0.000267121
-0.000269613
0.000332265
-0.000404909
0.000408802
-0.000564292
0.000497663
-0.000749052
0.000599376
-0.000959826
0.000713888
-0.00119645
0.000839923
-0.00145599
0.000977529
-0.00174178
-0.00201953
0.00111729
0.000285351
0.00035552
-0.000475078
0.00043771
-0.000646482
0.000532703
-0.000844044
0.000640762
-0.00106789
0.000761422
-0.00131711
0.000892975
-0.00158755
0.00103475
-0.00188356
-0.00215905
0.00117427
0.000379667
-0.000550402
0.000467568
-0.000734383
0.000568619
-0.000945095
0.000682771
-0.00118204
0.000809078
-0.00144341
0.00094548
-0.00172395
0.00108992
-0.00202799
-0.00229702
0.00122789
0.000404797
0.000498385
-0.000827971
0.000605304
-0.00105201
0.000725148
-0.00130188
0.000856511
-0.00157478
0.000997162
-0.0018646
0.00114244
-0.00217327
-0.00243207
0.00127749
0.000530093
-0.000927122
0.000642545
-0.00116447
0.000767491
-0.00142683
0.000903145
-0.00171043
0.00104746
-0.00200892
0.00119314
-0.00231894
-0.00256054
0.00132161
0.00056254
0.00068003
-0.00128196
0.000809278
-0.00155608
0.000948068
-0.00184922
0.0010942
-0.00215505
0.00124255
-0.0024673
-0.00274504
0.00142706
0.000717373
0.00084994
-0.00168864
0.000990512
-0.00198979
0.00113641
-0.00230095
0.00128299
-0.00261387
-0.00290692
0.00144487
0.000888939
-0.00182344
0.00102987
-0.00213072
0.00117358
-0.00244466
0.00131558
-0.00275587
-0.00305251
0.00146116
0.000925764
0.00106568
-0.00227064
0.00120578
-0.00258475
0.00134172
-0.00289182
-0.00318527
0.00147449
0.0010976
0.00123297
-0.00272012
0.00136197
-0.00302082
-0.00330704
0.00148373
0.00125508
-0.00284987
0.00137663
-0.00314236
-0.00341891
0.0014885
0.00127211
0.00138592
-0.00325618
-0.00352163
0.00148865
0.00139008
-0.0036158
0.00148425
0.00147553
0.00309102
0.00153316
0.00138998
0.00267076
0.00295495
0.00152604
0.00121488
0.00222111
0.00136585
0.00251979
0.00280819
0.00151262
0.00117658
0.00206312
0.00133502
0.00236135
0.00265042
0.00149279
0.000971051
0.00161707
0.00113241
0.00190175
0.00129745
0.00219631
0.00248116
0.00146671
0.000767088
0.00120969
0.000919351
0.0014648
0.00108262
0.00173848
0.00125311
0.00202583
0.00229944
0.00143483
0.000714376
0.00107506
0.000863998
0.00131518
0.00102747
0.00157501
0.00120193
0.00185136
0.00210345
0.00139792
0.000531117
0.000745304
0.000660202
0.000945973
0.000805552
0.00116983
0.000967072
0.00141349
0.0011436
0.00167484
0.00188988
0.00135717
0.000377189
0.000479981
0.000482805
0.000639689
0.000605297
0.000823482
0.000744684
0.00103044
0.000901179
0.001257
0.0010751
0.00150092
0.00165069
0.00131429
0.000337112
0.000397521
0.000435476
0.000541325
0.00055051
0.000708447
0.000682422
0.000898532
0.000831052
0.00110837
0.000992624
0.00133935
0.00151216
0.00113115
0.000223366
0.000214663
0.000298971
0.000321916
0.000389828
0.000450468
0.000496843
0.000601432
0.000620257
0.000775117
0.000759159
0.000969464
0.000911248
0.00118726
0.00137032
0.00105309
0.000194368
0.0001589
0.000263231
0.000253053
0.000346539
0.000367159
0.000445304
0.000502667
0.000559913
0.000660509
0.000689518
0.000839859
0.000833885
0.00104289
0.0012294
0.000974807
0.000117742
4.34557e-05
0.000167933
0.000108709
0.0002303
0.000190686
0.00030621
0.00029125
0.000396765
0.000412112
0.000502572
0.000554701
0.000623183
0.000719249
0.000759206
0.000906868
0.00109034
0.000898259
9.92593e-05
8.2803e-06
0.000144268
6.37002e-05
0.000200505
0.000134449
0.000269327
0.000222428
0.00035191
0.000329529
0.000449069
0.000457542
0.000560828
0.00060749
0.000688215
0.000779481
0.000954219
0.00082434
5.19142e-05
-5.72212e-05
8.32214e-05
-2.30269e-05
0.000123502
2.34196e-05
0.000174072
8.38786e-05
0.000236255
0.000160246
0.000311271
0.000254512
0.000400117
0.000368697
0.000503299
0.000504308
0.000622199
0.000660581
0.000822287
0.00075413
4.17337e-05
-7.80928e-05
6.96245e-05
-5.09178e-05
0.000105678
-1.26341e-05
0.000151121
3.8436e-05
0.000207222
0.000104145
0.000275228
0.000186506
0.000356285
0.00028764
0.000451347
0.000409246
0.000562127
0.000549801
0.000695597
0.000688817
1.49063e-05
-0.000108793
3.346e-05
-9.66464e-05
5.83948e-05
-7.58526e-05
9.07486e-05
-4.49879e-05
0.000131653
-2.4679e-06
0.000182314
5.34831e-05
0.000243983
0.000124837
0.000317931
0.000213692
0.000405486
0.000321692
0.000508657
0.00044663
0.000574855
0.0006294
1.03454e-05
-0.000120438
2.69595e-05
-0.000113261
4.93894e-05
-9.82825e-05
7.85734e-05
-7.41719e-05
0.00011555
-3.94445e-05
0.00016146
7.57312e-06
0.000217545
6.87519e-05
0.000285171
0.000146065
0.000365954
0.000240909
0.000462133
0.000350451
0.000460448
0.00057654
7.02721e-06
-0.000130899
2.20519e-05
-0.000128285
4.24024e-05
-0.000118633
6.89275e-05
-0.000100697
0.000102581
-7.30976e-05
0.000144438
-3.42843e-05
0.000195724
1.74663e-05
0.000257872
8.39173e-05
0.00033269
0.000166091
0.000422551
0.00026059
0.000352494
0.000530504
-4.75428e-06
-0.000133562
4.77215e-06
-0.000140426
1.85181e-05
-0.000142031
3.71736e-05
-0.000137288
6.15105e-05
-0.000125034
9.24085e-05
-0.000103996
0.000130885
-7.27611e-05
0.000178142
-2.97903e-05
0.00023565
2.64092e-05
0.000305322
9.64185e-05
0.000389552
0.000176361
0.000250894
0.000491152
-5.41942e-06
-0.000139007
3.38006e-06
-0.000149225
1.61103e-05
-0.000154761
3.34015e-05
-0.00015458
5.59628e-05
-0.000147595
8.46128e-05
-0.000132646
0.000120319
-0.000108467
0.000164257
-7.37278e-05
0.000217906
-2.72401e-05
0.000283203
3.11216e-05
0.000362452
9.71114e-05
0.000155383
0.000457964
-5.59638e-06
-0.000144087
2.6387e-06
-0.00015746
1.45625e-05
-0.000166685
3.07577e-05
-0.000170775
5.18842e-05
-0.000168722
7.87124e-05
-0.000159474
0.000112169
-0.000141924
0.000153399
-0.000114958
0.000203866
-7.77079e-05
0.000265462
-3.04741e-05
0.000340314
2.226e-05
6.55893e-05
0.000430107
-1.02544e-05
-0.000129831
-5.45378e-06
-0.000148887
2.33253e-06
-0.000165247
1.36027e-05
-0.000177955
2.89029e-05
-0.000186075
4.88554e-05
-0.000188674
7.41941e-05
-0.000184813
0.000105811
-0.000173541
0.000144823
-0.000153969
0.000192651
-0.000125536
0.00025109
-8.8913e-05
0.00032203
-4.86796e-05
-1.891e-05
0.000406529
-9.7273e-06
-0.000132014
-5.1561e-06
-0.000153459
2.25075e-06
-0.000172654
1.29639e-05
-0.000188669
2.75016e-05
-0.000200613
4.64583e-05
-0.000207631
7.05407e-05
-0.000208895
0.000100613
-0.000203614
0.000137758
-0.000191114
0.000183339
-0.000171117
0.00023902
-0.000144594
0.000306425
-0.000116085
-9.85426e-05
0.000386058
-9.21388e-06
-0.000134096
-4.8584e-06
-0.000157814
2.19479e-06
-0.000179707
1.23943e-05
-0.000198868
2.62367e-05
-0.000214455
4.42961e-05
-0.00022569
6.72583e-05
-0.000231857
9.59638e-05
-0.000232319
0.000131458
-0.000226607
0.000175035
-0.000214695
0.000228212
-0.00019777
0.000292349
-0.000180222
-0.000173699
0.000367505
-1.07845e-05
-0.000109717
-8.82301e-06
-0.000136058
-4.70165e-06
-0.000161935
1.98439e-06
-0.000186393
1.16653e-05
-0.000208549
2.48207e-05
-0.000227611
4.20085e-05
-0.000242878
6.38979e-05
-0.000253747
9.13071e-05
-0.000259728
0.000125243
-0.000260543
0.000166924
-0.000256376
0.000217716
-0.000248562
0.000278742
-0.000241249
-0.000244706
0.000349749
-1.04472e-05
-0.000109851
-8.65036e-06
-0.000137855
-4.80936e-06
-0.000165776
1.46239e-06
-0.000192665
1.05787e-05
-0.000217665
2.30045e-05
-0.000240037
3.92843e-05
-0.000259158
6.00723e-05
-0.000274535
8.61647e-05
-0.000285821
0.000118528
-0.000292907
0.000158305
-0.000296153
0.00020672
-0.000296977
0.000264699
-0.000299228
-0.000311804
0.000331797
-1.03464e-05
-0.00010986
-8.77673e-06
-0.000139424
-5.28497e-06
-0.000169268
4.97928e-07
-0.000198447
8.97023e-06
-0.000226137
2.05833e-05
-0.00025165
3.58688e-05
-0.000274444
5.54662e-05
-0.000294132
8.01493e-05
-0.000310504
0.000110844
-0.000323602
0.000148619
-0.000333927
0.000194576
-0.000342934
0.000249487
-0.000354139
-0.000375147
0.00031283
-1.05318e-05
-0.000109676
-9.26667e-06
-0.000140689
-6.21046e-06
-0.000172324
-1.01156e-06
-0.000203646
6.71231e-06
-0.000233861
1.73992e-05
-0.000262337
3.15674e-05
-0.000288612
4.98408e-05
-0.000312405
7.29695e-05
-0.000333632
0.00010184
-0.000352472
0.000137452
-0.000369539
0.000180805
-0.000386287
0.000232562
-0.000405897
-0.000434797
0.000292212
-1.05868e-05
-7.88754e-05
-1.10408e-05
-0.000109222
-1.01681e-05
-0.000141562
-7.64588e-06
-0.000174847
-3.14036e-06
-0.000208152
3.71409e-06
-0.000240716
1.33415e-05
-0.000271964
2.62455e-05
-0.000301516
4.30329e-05
-0.000329193
6.44293e-05
-0.000355029
9.1282e-05
-0.000379325
0.000124529
-0.000402786
0.000165089
-0.000426847
0.000213557
-0.000454364
-0.000490735
0.000269495
-1.10905e-05
-7.71822e-05
-1.18984e-05
-0.000108414
-1.15123e-05
-0.000141948
-9.62953e-06
-0.000176729
-5.93515e-06
-0.000211846
-7.92902e-08
-0.000246572
8.34495e-06
-0.000280388
1.98258e-05
-0.000312997
3.4951e-05
-0.000344318
5.44204e-05
-0.000374498
7.90435e-05
-0.000403948
0.000109705
-0.000433448
0.000147259
-0.000464401
0.000192263
-0.000499369
-0.000542876
0.000244403
-1.18695e-05
-7.51716e-05
-1.31172e-05
-0.000107166
-1.33144e-05
-0.000141751
-1.21787e-05
-0.000177865
-9.41426e-06
-0.000214611
-4.68925e-06
-0.000251297
2.38645e-06
-0.000287464
1.22831e-05
-0.000322893
2.55679e-05
-0.000357603
4.29134e-05
-0.000391844
6.50924e-05
-0.000426127
9.29423e-05
-0.000461298
0.000127269
-0.000498727
0.000168612
-0.000540712
-0.000591074
0.000216811
-1.29255e-05
-7.2768e-05
-1.46986e-05
-0.000105393
-1.55744e-05
-0.000140875
-1.52913e-05
-0.000178148
-1.3573e-05
-0.000216329
-1.01062e-05
-0.000254763
-4.51902e-06
-0.000293051
3.63899e-06
-0.000331051
1.49127e-05
-0.000368876
2.99462e-05
-0.000406877
4.94759e-05
-0.000445657
7.42965e-05
-0.000486118
0.000105175
-0.000529606
0.000142648
-0.000578185
-0.000635147
0.000186721
-1.13822e-05
-4.10956e-05
-1.42521e-05
-6.98981e-05
-1.66328e-05
-0.000103013
-1.82783e-05
-0.00013923
-1.89475e-05
-0.000177479
-1.83838e-05
-0.000216893
-1.62934e-05
-0.000256854
-1.23237e-05
-0.000297021
-6.04483e-06
-0.00033733
3.06205e-06
-0.000377983
1.56123e-05
-0.000419428
3.23055e-05
-0.00046235
5.38961e-05
-0.000507709
8.11184e-05
-0.000556828
0.000114507
-0.000611574
-0.00067488
0.000154239
-1.24303e-05
-3.75968e-05
-1.58354e-05
-6.64929e-05
-1.89004e-05
-9.99476e-05
-2.13996e-05
-0.000136731
-2.31117e-05
-0.000175767
-2.38e-05
-0.000216204
-2.31906e-05
-0.000257463
-2.09514e-05
-0.00029926
-1.66753e-05
-0.000341606
-9.86875e-06
-0.00038479
5.05659e-08
-0.000429347
1.37443e-05
-0.000476044
3.19275e-05
-0.000525892
5.5304e-05
-0.000580204
8.44028e-05
-0.000640673
-0.000710032
0.000119555
-1.3652e-05
-3.3637e-05
-1.76551e-05
-6.24898e-05
-2.14734e-05
-9.61293e-05
-2.49003e-05
-0.000133304
-2.77343e-05
-0.000172933
-2.9758e-05
-0.000214181
-3.07176e-05
-0.000256504
-3.03024e-05
-0.000299675
-2.81293e-05
-0.000343779
-2.37333e-05
-0.000389186
-1.65659e-05
-0.000436514
-6.00398e-06
-0.000486606
8.62125e-06
-0.000540517
2.7993e-05
-0.000599576
5.26077e-05
-0.000665288
-0.000740346
8.29215e-05
-1.50288e-05
-2.9167e-05
-1.96848e-05
-5.78338e-05
-2.43157e-05
-9.14983e-05
-2.87332e-05
-0.000128886
-3.27542e-05
-0.000168912
-3.61805e-05
-0.000210754
-3.87782e-05
-0.000253906
-4.02588e-05
-0.000298195
-4.02647e-05
-0.000343773
-3.83612e-05
-0.000391089
-3.40362e-05
-0.000440839
-2.67096e-05
-0.000493932
-1.57618e-05
-0.000551465
-6.12388e-07
-0.000614726
1.95052e-05
-0.000685405
-0.000765467
4.46266e-05
-1.65384e-05
-2.4145e-05
-2.18932e-05
-5.2479e-05
-2.73853e-05
-8.60062e-05
-3.2843e-05
-0.000123428
-3.81006e-05
-0.000163654
-4.29787e-05
-0.000205876
-4.72631e-05
-0.000249622
-5.0688e-05
-0.00029477
-5.29226e-05
-0.000341539
-5.35648e-05
-0.000390447
-5.21409e-05
-0.000442263
-4.81149e-05
-0.000497958
-4.09096e-05
-0.00055867
-2.99024e-05
-0.000625733
-1.45201e-05
-0.000700787
-0.000784438
4.45058e-06
-1.81556e-05
-1.85378e-05
-2.42449e-05
-4.63897e-05
-3.06345e-05
-7.96166e-05
-3.71678e-05
-0.000116895
-4.36955e-05
-0.000157127
-5.00555e-05
-0.000199516
-5.60536e-05
-0.000243623
-6.14471e-05
-0.000289376
-6.59333e-05
-0.000337053
-6.91443e-05
-0.000387236
-7.06478e-05
-0.00044076
-6.99545e-05
-0.000498651
-6.65331e-05
-0.000562092
-5.98306e-05
-0.000632435
-4.94269e-05
-0.000711191
-0.000799083
-3.47823e-05
-1.98526e-05
-1.23212e-05
-2.6701e-05
-3.95414e-05
-3.40114e-05
-7.23061e-05
-4.16409e-05
-0.000109266
-4.94547e-05
-0.000149313
-5.73076e-05
-0.000191663
-6.50245e-05
-0.000235907
-7.23862e-05
-0.000282014
-7.91193e-05
-0.000330319
-8.48924e-05
-0.000381463
-8.93167e-05
-0.000436335
-9.19526e-05
-0.000496016
-9.23194e-05
-0.000561725
-8.9917e-05
-0.000634838
-8.43027e-05
-0.000716805
-0.000808602
-7.4783e-05
-2.15994e-05
-5.48097e-06
-2.922e-05
-3.19208e-05
-3.74613e-05
-6.40648e-05
-4.6192e-05
-0.000100535
-5.52908e-05
-0.000140214
-6.46276e-05
-0.000182327
-7.40463e-05
-0.000226488
-8.33514e-05
-0.000272709
-9.22998e-05
-0.000321371
-0.000100598
-0.000373165
-0.000107903
-0.00042903
-0.000113829
-0.00049009
-0.00011795
-0.000557604
-0.000119818
-0.000632969
-0.000119007
-0.000717617
-0.000812732
-0.000114877
-1.58969e-05
2.00694e-05
-2.33648e-05
1.98692e-06
-3.17587e-05
-2.35269e-05
-4.09273e-05
-5.48961e-05
-5.0749e-05
-9.07132e-05
-6.11141e-05
-0.000129849
-7.19067e-05
-0.000171534
-8.29886e-05
-0.000215406
-9.41881e-05
-0.00026151
-0.000105293
-0.000310266
-0.00011605
-0.000362408
-0.000126163
-0.000418916
-0.000135303
-0.00048095
-0.000143104
-0.000549803
-0.000149179
-0.000626894
-0.00015314
-0.000713656
-0.00081144
-0.000154433
-1.70273e-05
2.69008e-05
-2.51165e-05
1.00761e-05
-3.42729e-05
-1.43705e-05
-4.43516e-05
-4.48174e-05
-5.52389e-05
-7.9826e-05
-6.68347e-05
-0.000118253
-7.90357e-05
-0.000159333
-9.17212e-05
-0.00020272
-0.000104743
-0.000248488
-0.00011792
-0.000297089
-0.000131038
-0.00034929
-0.000143854
-0.0004061
-0.000156095
-0.000468709
-0.000167459
-0.000538438
-0.000177627
-0.000616727
-0.000186263
-0.000705019
-0.0008048
-0.000192904
-1.81282e-05
3.42047e-05
-2.68221e-05
1.877e-05
-3.67183e-05
-4.47422e-06
-4.76767e-05
-3.3859e-05
-5.95891e-05
-6.79136e-05
-7.23634e-05
-0.000105479
-8.59076e-05
-0.000145789
-0.000100117
-0.000188511
-0.000114866
-0.00023374
-0.000130004
-0.000281951
-0.00014536
-0.000333934
-0.000160739
-0.000390721
-0.000175928
-0.00045352
-0.000190695
-0.000523671
-0.000204789
-0.000602633
-0.000217936
-0.000691872
-0.000792975
-0.00022976
-1.91779e-05
4.19603e-05
-2.84494e-05
2.80415e-05
-3.90514e-05
6.12771e-06
-5.08459e-05
-2.20645e-05
-6.37288e-05
-5.50306e-05
-7.7614e-05
-9.15936e-05
-9.24189e-05
-0.000130984
-0.000108053
-0.000172877
-0.000124413
-0.00021738
-0.000141379
-0.000264985