/*--------------------------------*- C++ -*----------------------------------*\
  =========                 |
  \\      /  F ield         | OpenFOAM: The Open Source CFD Toolbox
   \\    /   O peration     | Website:  https://openfoam.org
    \\  /    A nd           | Version:  7
     \\/     M anipulation  |
\*---------------------------------------------------------------------------*/
FoamFile
{
    version     2.0;
    format      ascii;
    class       volScalarField;
    location    "220";
    object      p;
}
// * * * * * * * * * * * * * * * * * * * * * * * * * * * * * * * * * * * * * //

dimensions      [0 2 -2 0 0 0 0];

internalField   nonuniform List<scalar> 
36600
(
-0.407219
-0.408038
-0.408497
-0.408845
-0.409167
-0.409552
-0.410099
-0.410881
-0.411953
-0.413351
-0.4151
-0.41722
-0.419733
-0.422664
-0.426045
-0.429915
-0.43432
-0.439323
-0.44487
-0.450991
-0.403649
-0.404664
-0.405218
-0.40563
-0.405989
-0.406383
-0.406907
-0.407636
-0.408618
-0.409888
-0.411464
-0.413365
-0.415605
-0.418205
-0.421191
-0.424592
-0.428447
-0.432814
-0.437616
-0.442891
-0.40007
-0.401276
-0.401922
-0.402395
-0.402789
-0.403188
-0.403688
-0.404359
-0.405248
-0.406383
-0.407782
-0.409454
-0.411412
-0.413669
-0.416243
-0.419157
-0.422441
-0.426144
-0.43017
-0.434556
-0.396501
-0.397892
-0.398626
-0.399158
-0.399583
-0.399986
-0.400459
-0.40107
-0.401862
-0.40286
-0.404075
-0.405514
-0.407181
-0.409085
-0.411236
-0.413648
-0.416344
-0.419365
-0.422589
-0.426054
-0.39296
-0.394529
-0.395347
-0.395935
-0.39639
-0.396794
-0.397239
-0.397788
-0.398481
-0.399338
-0.400367
-0.401568
-0.40294
-0.404484
-0.406204
-0.408104
-0.4102
-0.412524
-0.41493
-0.417451
-0.389464
-0.391203
-0.392102
-0.392743
-0.393226
-0.39363
-0.394046
-0.394532
-0.395125
-0.39584
-0.396681
-0.397641
-0.398715
-0.399895
-0.401179
-0.402562
-0.404051
-0.405671
-0.407249
-0.408812
-0.386031
-0.387933
-0.388908
-0.389598
-0.390108
-0.390512
-0.390897
-0.39132
-0.391813
-0.392386
-0.393038
-0.393757
-0.394532
-0.395348
-0.396193
-0.397056
-0.397936
-0.398852
-0.3996
-0.400202
-0.38268
-0.384734
-0.385782
-0.386519
-0.387053
-0.387455
-0.387809
-0.38817
-0.388563
-0.388995
-0.389459
-0.389939
-0.390415
-0.390867
-0.391276
-0.391621
-0.391893
-0.39211
-0.392034
-0.39168
-0.379426
-0.381624
-0.382739
-0.38352
-0.384077
-0.384476
-0.384801
-0.385099
-0.385393
-0.385686
-0.385964
-0.386207
-0.386387
-0.386479
-0.386455
-0.386287
-0.385959
-0.385485
-0.384598
-0.383303
-0.376286
-0.378618
-0.379796
-0.380618
-0.381196
-0.381592
-0.381886
-0.382123
-0.382321
-0.382477
-0.382573
-0.382581
-0.38247
-0.382206
-0.381756
-0.381082
-0.380164
-0.379014
-0.377335
-0.375119
-0.373276
-0.375732
-0.376968
-0.377828
-0.378425
-0.378817
-0.379082
-0.379259
-0.379362
-0.379384
-0.3793
-0.379079
-0.378683
-0.37807
-0.377201
-0.376032
-0.374536
-0.372728
-0.370281
-0.367175
-0.370411
-0.372981
-0.374269
-0.375164
-0.375778
-0.376166
-0.376401
-0.37652
-0.376531
-0.376422
-0.376164
-0.375719
-0.375043
-0.37409
-0.372811
-0.371159
-0.369102
-0.366656
-0.36347
-0.359507
-0.367705
-0.370377
-0.371713
-0.372639
-0.373269
-0.373652
-0.373858
-0.37392
-0.373842
-0.373605
-0.373178
-0.372515
-0.371567
-0.370282
-0.368605
-0.366483
-0.363881
-0.360821
-0.356928
-0.352147
-0.365171
-0.367934
-0.369312
-0.370266
-0.370909
-0.371286
-0.371465
-0.371472
-0.371306
-0.370947
-0.370355
-0.369481
-0.36827
-0.366662
-0.364599
-0.362022
-0.358893
-0.355242
-0.350677
-0.345117
-0.362821
-0.365663
-0.367078
-0.368056
-0.36871
-0.369081
-0.369232
-0.369186
-0.368937
-0.368459
-0.367708
-0.36663
-0.365164
-0.363244
-0.360808
-0.357789
-0.354153
-0.349935
-0.344732
-0.338437
-0.360667
-0.363576
-0.365021
-0.36602
-0.366683
-0.367046
-0.36717
-0.367072
-0.366743
-0.366151
-0.365248
-0.363974
-0.362262
-0.360041
-0.357243
-0.353799
-0.349673
-0.344912
-0.339105
-0.332116
-0.358718
-0.361681
-0.363151
-0.364166
-0.364835
-0.365191
-0.365288
-0.36514
-0.364734
-0.364033
-0.362984
-0.361521
-0.359573
-0.357063
-0.353917
-0.350063
-0.345464
-0.340183
-0.333805
-0.32616
-0.356983
-0.359987
-0.361476
-0.362503
-0.363175
-0.363522
-0.363593
-0.363398
-0.362918
-0.362113
-0.360925
-0.359283
-0.357109
-0.354321
-0.35084
-0.346591
-0.341536
-0.335755
-0.328837
-0.320568
-0.355469
-0.3585
-0.360001
-0.361036
-0.36171
-0.362046
-0.362091
-0.36185
-0.361301
-0.360398
-0.359078
-0.357266
-0.354878
-0.351825
-0.348022
-0.343392
-0.337897
-0.331634
-0.324203
-0.315335
-0.354183
-0.357227
-0.358733
-0.359771
-0.360442
-0.360767
-0.360787
-0.360504
-0.359889
-0.358893
-0.35745
-0.355478
-0.352886
-0.349581
-0.345472
-0.340476
-0.334555
-0.327825
-0.319905
-0.31045
-0.353128
-0.35617
-0.357675
-0.35871
-0.359377
-0.35969
-0.359685
-0.359361
-0.358685
-0.357604
-0.356045
-0.353923
-0.351141
-0.347599
-0.343198
-0.337851
-0.331518
-0.324333
-0.315945
-0.305899
-0.352308
-0.355333
-0.356828
-0.357857
-0.358515
-0.358814
-0.358786
-0.358423
-0.357691
-0.356531
-0.354866
-0.352606
-0.349648
-0.345883
-0.341207
-0.335525
-0.328792
-0.321162
-0.312323
-0.301665
-0.351723
-0.354715
-0.356193
-0.35721
-0.357856
-0.35814
-0.358089
-0.357691
-0.356908
-0.355676
-0.353915
-0.351529
-0.348408
-0.344438
-0.339504
-0.333505
-0.326385
-0.318317
-0.309045
-0.297729
-0.351374
-0.354316
-0.355769
-0.356768
-0.357399
-0.357667
-0.357593
-0.357163
-0.356333
-0.355037
-0.353189
-0.35069
-0.347422
-0.343264
-0.338092
-0.331794
-0.324302
-0.315801
-0.306114
-0.294059
-0.351257
-0.354132
-0.355552
-0.356528
-0.357141
-0.35739
-0.357294
-0.356834
-0.355962
-0.354609
-0.352686
-0.350085
-0.346687
-0.342359
-0.33697
-0.330394
-0.322546
-0.313616
-0.303527
-0.290571
-0.351368
-0.354161
-0.35554
-0.356485
-0.357075
-0.357304
-0.357186
-0.356698
-0.355789
-0.354386
-0.352396
-0.349709
-0.346196
-0.341718
-0.336133
-0.329303
-0.321118
-0.311766
-0.301296
-0.287165
-0.351702
-0.354395
-0.355724
-0.356634
-0.357196
-0.357402
-0.357262
-0.356747
-0.355805
-0.354359
-0.352312
-0.349549
-0.345937
-0.341329
-0.33557
-0.328511
-0.320015
-0.310263
-0.299476
-0.284063
-0.352251
-0.354828
-0.356098
-0.356965
-0.357494
-0.357675
-0.357511
-0.356971
-0.355999
-0.354515
-0.352419
-0.349592
-0.345895
-0.341175
-0.335266
-0.328005
-0.319228
-0.309096
-0.297987
-0.281658
-0.353005
-0.355451
-0.356654
-0.357471
-0.357962
-0.358112
-0.357923
-0.357358
-0.356357
-0.35484
-0.352701
-0.349819
-0.346051
-0.341235
-0.335197
-0.327758
-0.318733
-0.308239
-0.296611
-0.279692
-0.353955
-0.356254
-0.357381
-0.358141
-0.358587
-0.358703
-0.358484
-0.357893
-0.356865
-0.355316
-0.35314
-0.35021
-0.34638
-0.341482
-0.335334
-0.327743
-0.318501
-0.307693
-0.295611
-0.277884
-0.355089
-0.357227
-0.358269
-0.358964
-0.359359
-0.359435
-0.359183
-0.358561
-0.357504
-0.355925
-0.353713
-0.350741
-0.346857
-0.341888
-0.335645
-0.327924
-0.318493
-0.307397
-0.294973
-0.276265
-0.356394
-0.358359
-0.359308
-0.359929
-0.360264
-0.360294
-0.360003
-0.359347
-0.358258
-0.356646
-0.3544
-0.351386
-0.347452
-0.34242
-0.336093
-0.32826
-0.318667
-0.307308
-0.294625
-0.274858
-0.357858
-0.359638
-0.360484
-0.361024
-0.361292
-0.361267
-0.36093
-0.360234
-0.359109
-0.35746
-0.355176
-0.35212
-0.348137
-0.343045
-0.336642
-0.328711
-0.318978
-0.307385
-0.294506
-0.273663
-0.359467
-0.361052
-0.361788
-0.362237
-0.362429
-0.36234
-0.361949
-0.361206
-0.360037
-0.358347
-0.35602
-0.352919
-0.348884
-0.343733
-0.337259
-0.32924
-0.319387
-0.307588
-0.294556
-0.272679
-0.361208
-0.36259
-0.363208
-0.363558
-0.363663
-0.363501
-0.363047
-0.362247
-0.361026
-0.359286
-0.35691
-0.353758
-0.349668
-0.344456
-0.337913
-0.329815
-0.319859
-0.307893
-0.294725
-0.271936
-0.36307
-0.364242
-0.364734
-0.364975
-0.364984
-0.364738
-0.36421
-0.363343
-0.36206
-0.360261
-0.357826
-0.354616
-0.350467
-0.345191
-0.338581
-0.330413
-0.320369
-0.308287
-0.294978
-0.271503
-0.365039
-0.365997
-0.366356
-0.366479
-0.366381
-0.36604
-0.365425
-0.36448
-0.363124
-0.361256
-0.358754
-0.355477
-0.351261
-0.34592
-0.339246
-0.33102
-0.320906
-0.308774
-0.295242
-0.271326
-0.367107
-0.367846
-0.368066
-0.368061
-0.367846
-0.367398
-0.366685
-0.365649
-0.364208
-0.362259
-0.359679
-0.356327
-0.352038
-0.34663
-0.339898
-0.331636
-0.321486
-0.30941
-0.29538
-0.270942
-0.369264
-0.369782
-0.369856
-0.369715
-0.369371
-0.368804
-0.36798
-0.36684
-0.365301
-0.36326
-0.360593
-0.357156
-0.352789
-0.347312
-0.340534
-0.332268
-0.322167
-0.310366
-0.295549
-0.27053
-0.371503
-0.371799
-0.371721
-0.371435
-0.370951
-0.370253
-0.369305
-0.368048
-0.3664
-0.364255
-0.361489
-0.357959
-0.353507
-0.347962
-0.341148
-0.332916
-0.322978
-0.311789
-0.296844
-0.275625
-0.373819
-0.373893
-0.373658
-0.373218
-0.372584
-0.371742
-0.370657
-0.369271
-0.3675
-0.36524
-0.362364
-0.358732
-0.354189
-0.348575
-0.341732
-0.33356
-0.323848
-0.313406
-0.299891
-0.29634
-0.376208
-0.376061
-0.375664
-0.375062
-0.374267
-0.373269
-0.372036
-0.370508
-0.368603
-0.366215
-0.36322
-0.359477
-0.354837
-0.349147
-0.342275
-0.334164
-0.324677
-0.314896
-0.302402
-0.302504
-0.37867
-0.378303
-0.377738
-0.376967
-0.376001
-0.374838
-0.373444
-0.371762
-0.369711
-0.367185
-0.36406
-0.360198
-0.35545
-0.349679
-0.342767
-0.334699
-0.325389
-0.31603
-0.304104
-0.304284
-0.381205
-0.380619
-0.379883
-0.378934
-0.37779
-0.376449
-0.374884
-0.373038
-0.37083
-0.368156
-0.364891
-0.360898
-0.356034
-0.350168
-0.3432
-0.335143
-0.325942
-0.316785
-0.305177
-0.304472
-0.383818
-0.383012
-0.382101
-0.380969
-0.379636
-0.37811
-0.376363
-0.374343
-0.371968
-0.369136
-0.365721
-0.361586
-0.356593
-0.350616
-0.343569
-0.335481
-0.326315
-0.317183
-0.305701
-0.303598
-0.386511
-0.385487
-0.384396
-0.383074
-0.381546
-0.379826
-0.377889
-0.375685
-0.373135
-0.370134
-0.366558
-0.36227
-0.357132
-0.351025
-0.343869
-0.335703
-0.3265
-0.317253
-0.305758
-0.30208
-0.389293
-0.388049
-0.386774
-0.385257
-0.383527
-0.381605
-0.379471
-0.377075
-0.374341
-0.371162
-0.367414
-0.362958
-0.357657
-0.351395
-0.344098
-0.335807
-0.326498
-0.317035
-0.305436
-0.300214
-0.39217
-0.390704
-0.389242
-0.387525
-0.385587
-0.383457
-0.381119
-0.378525
-0.375597
-0.37223
-0.368297
-0.363656
-0.358171
-0.351728
-0.344255
-0.335792
-0.326317
-0.31657
-0.304811
-0.298179
-0.395152
-0.393459
-0.391807
-0.389885
-0.387735
-0.385392
-0.382844
-0.380044
-0.376915
-0.373349
-0.369216
-0.364373
-0.35868
-0.352025
-0.34434
-0.335659
-0.325969
-0.315894
-0.303946
-0.296078
-0.398246
-0.396324
-0.394477
-0.392346
-0.389979
-0.38742
-0.384656
-0.381644
-0.378306
-0.374529
-0.37018
-0.365113
-0.359186
-0.352287
-0.344353
-0.335414
-0.325467
-0.315042
-0.30289
-0.293967
-0.401464
-0.399305
-0.397259
-0.394916
-0.39233
-0.38955
-0.386566
-0.383336
-0.379778
-0.375778
-0.371195
-0.36588
-0.359689
-0.352513
-0.344293
-0.33506
-0.324823
-0.31404
-0.30168
-0.291875
-0.404813
-0.402411
-0.400162
-0.397604
-0.394795
-0.391791
-0.388584
-0.385129
-0.381342
-0.377102
-0.372264
-0.366674
-0.360189
-0.352701
-0.34416
-0.334602
-0.324051
-0.31291
-0.300344
-0.289812
-0.408303
-0.405648
-0.403193
-0.400418
-0.397383
-0.394153
-0.390719
-0.387031
-0.383003
-0.378506
-0.37339
-0.367496
-0.360683
-0.352849
-0.343953
-0.334043
-0.32316
-0.311669
-0.298903
-0.287777
-0.411941
-0.409025
-0.40636
-0.403364
-0.400102
-0.396644
-0.392976
-0.389048
-0.384765
-0.379991
-0.374571
-0.368343
-0.361167
-0.352953
-0.343672
-0.333386
-0.32216
-0.31033
-0.297371
-0.285762
-0.415735
-0.412547
-0.409667
-0.406448
-0.402959
-0.399269
-0.395363
-0.391185
-0.38663
-0.381558
-0.375805
-0.369208
-0.361635
-0.353007
-0.343315
-0.332635
-0.321057
-0.308901
-0.295758
-0.283757
-0.419689
-0.416219
-0.41312
-0.409677
-0.405957
-0.402032
-0.397882
-0.393442
-0.388599
-0.383203
-0.377085
-0.370085
-0.362079
-0.353006
-0.342877
-0.331791
-0.319858
-0.307389
-0.294069
-0.281749
-0.423806
-0.420043
-0.416723
-0.413054
-0.409102
-0.404938
-0.400536
-0.39582
-0.390668
-0.384919
-0.378404
-0.370965
-0.362491
-0.352943
-0.342358
-0.330853
-0.318566
-0.305797
-0.292309
-0.279725
-0.42809
-0.424023
-0.420478
-0.41658
-0.412394
-0.407988
-0.403324
-0.398316
-0.392831
-0.3867
-0.379751
-0.371835
-0.362861
-0.352812
-0.341752
-0.329823
-0.317184
-0.304127
-0.290476
-0.277673
-0.432539
-0.428158
-0.424384
-0.420258
-0.415834
-0.41118
-0.406243
-0.400925
-0.395079
-0.388533
-0.381113
-0.372685
-0.363177
-0.352603
-0.341055
-0.328699
-0.315711
-0.302379
-0.288572
-0.27558
-0.437151
-0.432446
-0.428442
-0.424084
-0.419421
-0.414511
-0.409288
-0.403638
-0.397403
-0.390405
-0.382476
-0.373499
-0.363428
-0.352309
-0.340263
-0.327479
-0.314148
-0.300551
-0.286592
-0.273436
-0.441922
-0.436885
-0.432648
-0.428058
-0.423151
-0.417976
-0.41245
-0.406444
-0.399788
-0.3923
-0.383824
-0.374262
-0.363602
-0.35192
-0.339371
-0.32616
-0.312493
-0.29864
-0.284535
-0.271231
-0.446845
-0.441467
-0.436997
-0.432173
-0.427018
-0.421567
-0.415721
-0.409331
-0.402218
-0.394202
-0.385139
-0.37496
-0.363686
-0.351429
-0.338372
-0.324739
-0.310744
-0.296644
-0.282395
-0.268954
-0.451911
-0.446187
-0.441483
-0.436423
-0.431013
-0.425275
-0.419086
-0.412282
-0.404675
-0.396089
-0.386402
-0.375574
-0.363666
-0.350825
-0.337261
-0.323211
-0.308895
-0.294557
-0.280168
-0.266597
-0.457108
-0.451034
-0.446095
-0.440798
-0.435127
-0.429086
-0.422531
-0.415279
-0.407138
-0.397942
-0.387593
-0.376089
-0.363531
-0.3501
-0.336031
-0.321572
-0.306944
-0.292376
-0.277849
-0.264153
-0.462423
-0.455996
-0.450823
-0.445286
-0.439346
-0.432986
-0.426036
-0.4183
-0.409584
-0.399737
-0.388692
-0.376488
-0.363266
-0.349243
-0.334675
-0.319816
-0.304885
-0.290093
-0.275433
-0.261614
-0.467839
-0.461058
-0.455652
-0.449874
-0.443654
-0.436955
-0.429581
-0.421323
-0.41199
-0.401451
-0.389678
-0.376753
-0.362859
-0.348246
-0.333186
-0.317936
-0.302712
-0.287704
-0.272912
-0.258973
-0.473337
-0.466204
-0.460567
-0.454545
-0.448035
-0.440974
-0.433143
-0.424322
-0.414329
-0.403061
-0.39053
-0.376867
-0.362297
-0.347098
-0.331556
-0.315927
-0.300418
-0.285202
-0.270281
-0.256223
-0.478897
-0.471414
-0.465549
-0.459278
-0.452465
-0.445018
-0.436695
-0.42727
-0.416574
-0.40454
-0.391226
-0.376813
-0.361567
-0.345789
-0.329776
-0.31378
-0.297998
-0.282579
-0.267534
-0.253357
-0.484494
-0.476668
-0.470577
-0.464054
-0.456921
-0.449062
-0.440209
-0.430137
-0.418697
-0.405863
-0.391746
-0.376575
-0.360655
-0.34431
-0.327839
-0.311489
-0.295442
-0.279829
-0.264663
-0.250369
-0.490104
-0.481941
-0.475628
-0.468846
-0.461378
-0.453076
-0.443655
-0.432892
-0.420668
-0.407005
-0.392068
-0.376137
-0.35955
-0.34265
-0.325736
-0.309044
-0.292744
-0.276945
-0.261662
-0.247253
-0.495698
-0.487207
-0.480675
-0.47363
-0.465807
-0.457031
-0.447002
-0.435505
-0.422461
-0.407942
-0.392173
-0.375482
-0.358239
-0.340798
-0.323457
-0.306439
-0.289896
-0.273919
-0.258524
-0.244003
-0.501245
-0.492438
-0.485691
-0.478375
-0.470178
-0.460894
-0.450215
-0.437944
-0.424044
-0.408648
-0.39204
-0.374595
-0.356709
-0.338745
-0.320994
-0.303663
-0.28689
-0.270743
-0.255242
-0.240613
-0.506713
-0.497603
-0.490644
-0.483049
-0.474454
-0.46463
-0.453259
-0.440174
-0.425388
-0.4091
-0.391651
-0.373461
-0.354949
-0.33648
-0.318336
-0.300709
-0.283716
-0.267411
-0.25181
-0.237076
-0.512066
-0.502667
-0.495501
-0.487618
-0.478602
-0.4682
-0.456098
-0.442162
-0.426465
-0.409272
-0.390985
-0.372064
-0.352945
-0.333993
-0.315476
-0.297567
-0.280368
-0.263913
-0.24822
-0.233388
-0.517267
-0.507597
-0.500226
-0.492045
-0.482583
-0.471569
-0.458696
-0.443875
-0.427245
-0.409142
-0.390026
-0.370391
-0.350687
-0.331273
-0.312402
-0.294229
-0.276837
-0.260244
-0.244465
-0.229542
-0.522278
-0.512355
-0.504783
-0.496292
-0.486359
-0.474695
-0.461014
-0.445279
-0.427701
-0.408688
-0.388754
-0.368426
-0.348161
-0.328309
-0.309105
-0.290686
-0.273114
-0.256395
-0.24054
-0.225532
-0.527059
-0.516902
-0.509132
-0.500319
-0.489888
-0.47754
-0.463017
-0.446343
-0.427806
-0.407888
-0.387155
-0.366157
-0.345357
-0.325091
-0.305576
-0.286928
-0.269192
-0.252358
-0.236438
-0.221354
-0.531568
-0.521198
-0.513233
-0.504085
-0.493129
-0.480064
-0.464667
-0.447034
-0.427535
-0.406721
-0.38521
-0.363571
-0.342263
-0.32161
-0.301805
-0.282947
-0.265062
-0.248129
-0.232152
-0.217002
-0.535762
-0.525202
-0.517044
-0.507547
-0.496039
-0.482225
-0.465928
-0.447322
-0.426861
-0.405169
-0.382905
-0.360654
-0.338869
-0.317854
-0.297784
-0.278735
-0.260718
-0.243698
-0.227677
-0.212472
-0.539599
-0.528871
-0.520522
-0.510662
-0.498577
-0.483985
-0.466765
-0.447176
-0.425762
-0.403213
-0.380225
-0.357394
-0.335163
-0.313815
-0.293503
-0.274283
-0.25615
-0.23906
-0.223008
-0.207759
-0.543035
-0.532163
-0.523625
-0.513388
-0.500701
-0.485303
-0.467143
-0.446569
-0.424215
-0.400834
-0.377156
-0.35378
-0.331135
-0.309482
-0.288953
-0.269584
-0.251354
-0.234209
-0.218137
-0.202858
-0.546024
-0.535033
-0.526307
-0.515679
-0.502367
-0.486142
-0.467029
-0.445475
-0.422199
-0.398018
-0.373685
-0.349801
-0.326775
-0.304848
-0.284127
-0.26463
-0.246321
-0.229138
-0.213062
-0.197766
-0.548524
-0.537439
-0.528526
-0.517493
-0.503534
-0.486464
-0.466392
-0.443867
-0.419695
-0.394748
-0.3698
-0.345445
-0.322075
-0.299903
-0.279016
-0.259414
-0.241045
-0.223844
-0.207776
-0.192479
-0.55049
-0.539336
-0.530238
-0.518787
-0.504164
-0.486234
-0.465203
-0.441722
-0.416685
-0.391011
-0.365489
-0.340704
-0.317024
-0.29464
-0.273614
-0.253929
-0.235522
-0.218319
-0.202277
-0.186994
-0.55188
-0.540683
-0.5314
-0.51952
-0.504216
-0.485418
-0.463433
-0.43902
-0.413153
-0.386794
-0.360743
-0.335569
-0.311617
-0.289051
-0.267913
-0.24817
-0.229745
-0.212561
-0.19656
-0.181308
-0.552652
-0.541437
-0.53197
-0.51965
-0.503654
-0.483985
-0.461058
-0.43574
-0.409083
-0.382086
-0.355551
-0.330031
-0.305844
-0.283129
-0.261908
-0.242131
-0.22371
-0.206564
-0.190621
-0.175418
-0.552766
-0.541558
-0.531909
-0.51914
-0.502443
-0.481904
-0.458054
-0.431866
-0.404462
-0.376876
-0.349905
-0.324082
-0.299699
-0.276868
-0.255592
-0.235807
-0.217412
-0.200325
-0.184459
-0.169322
-0.552182
-0.541007
-0.531176
-0.517952
-0.50055
-0.47915
-0.4544
-0.42738
-0.39928
-0.371155
-0.343799
-0.317718
-0.293176
-0.270264
-0.248962
-0.229193
-0.210849
-0.193842
-0.178069
-0.163018
-0.550863
-0.539746
-0.529737
-0.516052
-0.497946
-0.475697
-0.450078
-0.422271
-0.393526
-0.364916
-0.337224
-0.310931
-0.286271
-0.263311
-0.242013
-0.222288
-0.204016
-0.18711
-0.171452
-0.156506
-0.548776
-0.53774
-0.527555
-0.513408
-0.494602
-0.471524
-0.445071
-0.416525
-0.387191
-0.358153
-0.330177
-0.303717
-0.278979
-0.256005
-0.234742
-0.215086
-0.196912
-0.180128
-0.164605
-0.149789
-0.545886
-0.534957
-0.524599
-0.509991
-0.490494
-0.466611
-0.439366
-0.410135
-0.38027
-0.350861
-0.322654
-0.296073
-0.271297
-0.248345
-0.227147
-0.207588
-0.189534
-0.172894
-0.157527
-0.142859
-0.542166
-0.531366
-0.520839
-0.505774
-0.485601
-0.460943
-0.432952
-0.403093
-0.372757
-0.343036
-0.314651
-0.287997
-0.263223
-0.240328
-0.219226
-0.199791
-0.181881
-0.165407
-0.150212
-0.13568
-0.537588
-0.52694
-0.51625
-0.500735
-0.479903
-0.454506
-0.42582
-0.395393
-0.36465
-0.334676
-0.306167
-0.279487
-0.254757
-0.231954
-0.210979
-0.191696
-0.173956
-0.157671
-0.142657
-0.128201
-0.532128
-0.521654
-0.510808
-0.494852
-0.473385
-0.44729
-0.417964
-0.387033
-0.355947
-0.325781
-0.297203
-0.270543
-0.245897
-0.223223
-0.202406
-0.183303
-0.165759
-0.149688
-0.134874
-0.120475
-0.525765
-0.515487
-0.504493
-0.488109
-0.466036
-0.439287
-0.409381
-0.378011
-0.346648
-0.316351
-0.287758
-0.261166
-0.236646
-0.214136
-0.19351
-0.174615
-0.157291
-0.141454
-0.126856
-0.112695
-0.518483
-0.508421
-0.497288
-0.480493
-0.457846
-0.430493
-0.400069
-0.368329
-0.336756
-0.30639
-0.277835
-0.251358
-0.227004
-0.204696
-0.184292
-0.165634
-0.148558
-0.132986
-0.118607
-0.104741
-0.510268
-0.500442
-0.48918
-0.471994
-0.448809
-0.420907
-0.39003
-0.357989
-0.326274
-0.2959
-0.267439
-0.241124
-0.216977
-0.194905
-0.174755
-0.156364
-0.139563
-0.124277
-0.11015
-0.0965836
-0.501109
-0.491539
-0.48016
-0.462606
-0.438924
-0.410529
-0.379268
-0.346998
-0.315209
-0.284888
-0.256573
-0.230466
-0.206564
-0.184771
-0.164906
-0.146808
-0.130308
-0.115331
-0.101482
-0.0882207
-0.490999
-0.481704
-0.470222
-0.452325
-0.428191
-0.399364
-0.367788
-0.335362
-0.303566
-0.27336
-0.245244
-0.21939
-0.195767
-0.174305
-0.154748
-0.136972
-0.1208
-0.106154
-0.0926068
-0.0796587
-0.479936
-0.470933
-0.459363
-0.441153
-0.416613
-0.387418
-0.3556
-0.323089
-0.291355
-0.261324
-0.23346
-0.207904
-0.184625
-0.163484
-0.144285
-0.126861
-0.111042
-0.0967519
-0.0835256
-0.0709044
-0.467921
-0.459226
-0.447584
-0.429093
-0.404199
-0.374702
-0.342715
-0.310192
-0.278587
-0.24879
-0.22123
-0.196023
-0.17311
-0.152341
-0.133526
-0.116482
-0.101041
-0.0871299
-0.0742437
-0.0619645
-0.454956
-0.446587
-0.434892
-0.416153
-0.390959
-0.361226
-0.329144
-0.296683
-0.265273
-0.235769
-0.208565
-0.183749
-0.161242
-0.140882
-0.122479
-0.105843
-0.0908058
-0.077295
-0.0647672
-0.0528461
-0.44105
-0.433023
-0.421293
-0.402344
-0.376905
-0.347007
-0.314904
-0.282576
-0.251427
-0.222274
-0.195475
-0.171093
-0.14903
-0.129115
-0.111155
-0.0949533
-0.0803435
-0.0672551
-0.0551036
-0.0435566
-0.426215
-0.418543
-0.406799
-0.38768
-0.362054
-0.332061
-0.300012
-0.267888
-0.237064
-0.208318
-0.181974
-0.158068
-0.136486
-0.11705
-0.0995615
-0.0838214
-0.0696636
-0.0570188
-0.0452611
-0.0341041
-0.410465
-0.403164
-0.391427
-0.372177
-0.346424
-0.316407
-0.284486
-0.252637
-0.222199
-0.193917
-0.168074
-0.144686
-0.123623
-0.104698
-0.087711
-0.0724584
-0.0587762
-0.0465957
-0.0352491
-0.0244974
-0.393818
-0.3869
-0.375195
-0.355857
-0.330037
-0.300068
-0.268349
-0.236841
-0.206854
-0.179086
-0.153792
-0.130961
-0.110453
-0.0920722
-0.0756149
-0.0608755
-0.0476924
-0.0359966
-0.0250778
-0.0147467
-0.376296
-0.369774
-0.358123
-0.338742
-0.312918
-0.28307
-0.251618
-0.220523
-0.191046
-0.163845
-0.139143
-0.11691
-0.0969906
-0.0791851
-0.0632858
-0.0490851
-0.0364241
-0.0252328
-0.0147589
-0.0048633
-0.357924
-0.35181
-0.340237
-0.320858
-0.295095
-0.265441
-0.234317
-0.203705
-0.174795
-0.148211
-0.124145
-0.102547
-0.0832508
-0.0660509
-0.0507371
-0.0371001
-0.024984
-0.014317
-0.00430483
0.00513975
-0.338728
-0.333033
-0.321564
-0.302235
-0.276596
-0.247188
-0.216489
-0.186411
-0.158125
-0.132205
-0.108816
-0.0878897
-0.0692493
-0.0526846
-0.037983
-0.0249342
-0.0133856
-0.00326257
0.00627023
0.0152471
-0.318739
-0.313475
-0.302136
-0.282909
-0.257438
-0.22836
-0.198147
-0.168668
-0.141057
-0.115848
-0.0931764
-0.0729562
-0.0550027
-0.0391015
-0.0250381
-0.0126017
-0.00164333
0.00791614
0.016951
0.0254408
-0.297989
-0.293168
-0.281987
-0.262919
-0.237649
-0.208987
-0.179322
-0.150502
-0.123617
-0.0991626
-0.0772457
-0.0577652
-0.0405283
-0.0253177
-0.0119177
-0.000117278
0.0102282
0.0192042
0.0277207
0.0357002
-0.276513
-0.272149
-0.261151
-0.24225
-0.217315
-0.189103
-0.160046
-0.131941
-0.105831
-0.0821716
-0.0610453
-0.0423359
-0.0258439
-0.0113497
0.00136301
0.0125042
0.0222141
0.0305865
0.0385614
0.0459994
-0.254346
-0.250455
-0.239665
-0.220983
-0.196432
-0.168739
-0.14035
-0.113013
-0.0877238
-0.0648993
-0.0445973
-0.0266885
-0.0109681
0.00278547
0.0147882
0.025248
0.0342994
0.0420476
0.049453
0.0563038
-0.231525
-0.228129
-0.217556
-0.199168
-0.175042
-0.147932
-0.120269
-0.0937506
-0.0693243
-0.0473709
-0.0279245
-0.010844
0.00408032
0.0170707
0.0283424
0.0380994
0.0464702
0.0535735
0.0603742
0.0665725
-0.208083
-0.205226
-0.194886
-0.176831
-0.153186
-0.126719
-0.0998359
-0.0741835
-0.0506606
-0.0296122
-0.0110507
0.00517606
0.0192817
0.0314884
0.0420101
0.0510448
0.0587133
0.0651521
0.071309
0.0767726
-0.184068
-0.181792
-0.171699
-0.154017
-0.130907
-0.105139
-0.0790864
-0.0543443
-0.0317621
-0.0116502
0.00599971
0.0213496
0.0346159
0.0460207
0.0557757
0.0640702
0.0710163
0.0767762
0.0822535
0.0868749
-0.159605
-0.157813
-0.148037
-0.130769
-0.108246
-0.0832298
-0.0580566
-0.0342659
-0.0126589
0.0064878
0.0232017
0.0376536
0.0500625
0.0606498
0.0696241
0.0771625
0.0833696
0.0884472
0.0932027
0.0967764
-0.134695
-0.133365
-0.123945
-0.107134
-0.0852463
-0.0610329
-0.0367837
-0.0139824
0.00661808
0.0247734
0.0405292
0.0540645
0.0656002
0.075357
0.0835396
0.0903101
0.0957731
0.100184
0.104119
0.10621
-0.109365
-0.108516
-0.0994718
-0.0831572
-0.0619534
-0.0385891
-0.0153055
0.00647181
0.0260372
0.0431776
0.0579559
0.070558
0.0812069
0.0901228
0.0975057
0.103504
0.108241
0.112027
0.114961
0.114943
-0.0836707
-0.0833161
-0.0746675
-0.058888
-0.0384122
-0.0159405
0.00633964
0.0270615
0.0455662
0.0616709
0.0754543
0.0871091
0.0968597
0.104926
0.111504
0.116735
0.120786
0.123989
0.125771
0.123631
-0.0576683
-0.0578166
-0.0495828
-0.0343748
-0.0146688
0.00687048
0.0281126
0.0477508
0.0651724
0.0802232
0.0929967
0.103692
0.112534
0.119744
0.125512
0.129984
0.133378
0.135966
0.136497
0.13496
-0.0314106
-0.0320679
-0.0242687
-0.00966666
0.0092307
0.0298008
0.0499739
0.0685036
0.0848224
0.0988036
0.110555
0.12028
0.128206
0.134553
0.139508
0.143225
0.145949
0.147871
0.147685
0.146868
-0.00495335
-0.00612387
0.00122183
0.0151859
0.033239
0.052807
0.0718837
0.0892833
0.104483
0.117381
0.1281
0.136846
0.14385
0.149327
0.153468
0.156429
0.158464
0.159701
0.15894
0.1582
0.0216475
0.0199612
0.0268357
0.0401322
0.0573087
0.0758452
0.0938017
0.110053
0.124119
0.135925
0.145602
0.153364
0.159439
0.164045
0.167367
0.169569
0.170904
0.171461
0.170168
0.16921
0.0483358
0.0461326
0.0525193
0.0651213
0.0813922
0.0988716
0.115688
0.130776
0.143698
0.154403
0.163034
0.169806
0.17495
0.17868
0.181181
0.182622
0.183247
0.183128
0.181296
0.179981
0.0750554
0.0723351
0.0782188
0.0901021
0.105442
0.121842
0.137501
0.151415
0.163186
0.172784
0.180364
0.186145
0.190355
0.193208
0.194889
0.195564
0.195474
0.194677
0.192288
0.190536
0.10175
0.0985133
0.10388
0.115023
0.12941
0.144713
0.159202
0.171933
0.182547
0.191037
0.197565
0.202354
0.20563
0.207606
0.208465
0.208374
0.207566
0.206089
0.203127
0.20089
0.128362
0.124612
0.12945
0.139834
0.153249
0.16744
0.180749
0.192292
0.201748
0.20913
0.214607
0.218405
0.22075
0.221851
0.22189
0.221032
0.219504
0.217345
0.2138
0.211048
0.154836
0.150574
0.154874
0.164483
0.176911
0.189979
0.202104
0.212457
0.220756
0.227031
0.231462
0.234272
0.235689
0.235919
0.23514
0.233517
0.23127
0.22843
0.224295
0.22101
0.181115
0.176347
0.180099
0.18892
0.20035
0.212288
0.223225
0.232391
0.239536
0.244711
0.248099
0.249929
0.250423
0.249787
0.248195
0.245811
0.242848
0.239328
0.234602
0.230771
0.207143
0.201873
0.205072
0.213095
0.223518
0.234324
0.244075
0.252057
0.258055
0.262137
0.264492
0.265349
0.264928
0.263432
0.261035
0.257896
0.25422
0.250025
0.24471
0.240325
0.232866
0.227099
0.22974
0.236958
0.246371
0.256044
0.264613
0.271419
0.276281
0.27928
0.280612
0.280506
0.27918
0.276834
0.273639
0.269752
0.26537
0.260506
0.254608
0.249665
0.258227
0.251972
0.254051
0.26046
0.268862
0.277405
0.284801
0.290443
0.29418
0.29611
0.296432
0.295375
0.293155
0.289971
0.285988
0.281362
0.276283
0.270759
0.264283
0.258782
0.283174
0.276437
0.277954
0.283553
0.290946
0.298368
0.304602
0.309094
0.311722
0.312597
0.311924
0.30993
0.306831
0.30282
0.298062
0.292708
0.286942
0.280768
0.273725
0.267666
0.307652
0.300442
0.301399
0.30619
0.312581
0.318892
0.323979
0.327337
0.328874
0.328712
0.327061
0.324147
0.320184
0.315362
0.309842
0.303773
0.297332
0.29052
0.282921
0.276307