/*--------------------------------*- C++ -*----------------------------------*\
  =========                 |
  \\      /  F ield         | OpenFOAM: The Open Source CFD Toolbox
   \\    /   O peration     | Website:  https://openfoam.org
    \\  /    A nd           | Version:  7
     \\/     M anipulation  |
\*---------------------------------------------------------------------------*/
FoamFile
{
    version     2.0;
    format      ascii;
    class       volScalarField;
    location    "60";
    object      p;
}
// * * * * * * * * * * * * * * * * * * * * * * * * * * * * * * * * * * * * * //

dimensions      [0 2 -2 0 0 0 0];

internalField   nonuniform List<scalar> 
4575
(
-0.235831
-0.235071
-0.234347
-0.233394
-0.232361
-0.23108
-0.229554
-0.227634
-0.225216
-0.222211
-0.218539
-0.214178
-0.209201
-0.203745
-0.198
-0.192147
-0.186303
-0.180447
-0.17441
-0.167851
-0.160399
-0.151647
-0.141559
-0.23583
-0.235224
-0.234693
-0.23397
-0.233191
-0.232171
-0.230892
-0.229176
-0.226896
-0.223927
-0.22017
-0.215585
-0.210242
-0.204288
-0.197935
-0.191405
-0.184866
-0.17836
-0.171778
-0.16484
-0.157214
-0.148506
-0.138708
-0.235836
-0.235382
-0.235044
-0.234549
-0.234022
-0.233264
-0.232233
-0.230722
-0.22858
-0.225648
-0.221807
-0.217
-0.211292
-0.204841
-0.197883
-0.190678
-0.183445
-0.176285
-0.169154
-0.161831
-0.154023
-0.14535
-0.135839
-0.235847
-0.235544
-0.235396
-0.235128
-0.234853
-0.234356
-0.233571
-0.232266
-0.230264
-0.227371
-0.223447
-0.218421
-0.212352
-0.205407
-0.197847
-0.18997
-0.182043
-0.174231
-0.166548
-0.158834
-0.150836
-0.142188
-0.132959
-0.235862
-0.235707
-0.235748
-0.235705
-0.23568
-0.235442
-0.234903
-0.233805
-0.231943
-0.229091
-0.225088
-0.219845
-0.213418
-0.205984
-0.197828
-0.189283
-0.180667
-0.172203
-0.163966
-0.155855
-0.147663
-0.139029
-0.130077
-0.235878
-0.235871
-0.236097
-0.236276
-0.236499
-0.236519
-0.236226
-0.235334
-0.233613
-0.230804
-0.226724
-0.22127
-0.21449
-0.206574
-0.197827
-0.18862
-0.179321
-0.170207
-0.161416
-0.152905
-0.144511
-0.135882
-0.127202
-0.235896
-0.236032
-0.236441
-0.23684
-0.237308
-0.237583
-0.237534
-0.23685
-0.235271
-0.232506
-0.228354
-0.222692
-0.215567
-0.207175
-0.197845
-0.187986
-0.178009
-0.168251
-0.158906
-0.149993
-0.141392
-0.132757
-0.124342
-0.235914
-0.23619
-0.236778
-0.237393
-0.238102
-0.238631
-0.238825
-0.238347
-0.236911
-0.234195
-0.229974
-0.22411
-0.216646
-0.207787
-0.197885
-0.187381
-0.176736
-0.166339
-0.156444
-0.147125
-0.138314
-0.129653
-0.121507
-0.23593
-0.236343
-0.237105
-0.237933
-0.23888
-0.239659
-0.240094
-0.239822
-0.238531
-0.235865
-0.23158
-0.225521
-0.217726
-0.20841
-0.197946
-0.18681
-0.175506
-0.164478
-0.154035
-0.144312
-0.135285
-0.126579
-0.118705
-0.235944
-0.23649
-0.237421
-0.238457
-0.239638
-0.240664
-0.241338
-0.241271
-0.240124
-0.237512
-0.233169
-0.226922
-0.218805
-0.209043
-0.19803
-0.186274
-0.174323
-0.162672
-0.151688
-0.141559
-0.132315
-0.124177
-0.115946
-0.235953
-0.236628
-0.237724
-0.238962
-0.240372
-0.241642
-0.242552
-0.242689
-0.241689
-0.239134
-0.234737
-0.22831
-0.219882
-0.209686
-0.198138
-0.185776
-0.173191
-0.160928
-0.149408
-0.138876
-0.129407
-0.12117
-0.113232
-0.106386
-0.235958
-0.236756
-0.238012
-0.239447
-0.241081
-0.24259
-0.243733
-0.244073
-0.24322
-0.240726
-0.236281
-0.229682
-0.220954
-0.210338
-0.198269
-0.185318
-0.172112
-0.15925
-0.147201
-0.136268
-0.12657
-0.118243
-0.110572
-0.104132
-0.235956
-0.236873
-0.238283
-0.23991
-0.241762
-0.243506
-0.244878
-0.24542
-0.244714
-0.242284
-0.237798
-0.231036
-0.222021
-0.210998
-0.198425
-0.1849
-0.171091
-0.157642
-0.145074
-0.133742
-0.123813
-0.115415
-0.107972
-0.101928
-0.235947
-0.236978
-0.238536
-0.240347
-0.242412
-0.244385
-0.245983
-0.246725
-0.246167
-0.243805
-0.239284
-0.23237
-0.223079
-0.211666
-0.198606
-0.184526
-0.170129
-0.156108
-0.143031
-0.131305
-0.121143
-0.112679
-0.10544
-0.099778
-0.235931
-0.237069
-0.238768
-0.240758
-0.243028
-0.245225
-0.247046
-0.247985
-0.247575
-0.245286
-0.240737
-0.23368
-0.224128
-0.21234
-0.198811
-0.184196
-0.16923
-0.154653
-0.141076
-0.128962
-0.118565
-0.110038
-0.102982
-0.0976884
-0.235906
-0.237146
-0.238979
-0.241141
-0.24361
-0.246024
-0.248062
-0.249197
-0.248935
-0.246723
-0.242153
-0.234964
-0.225166
-0.21302
-0.199042
-0.18391
-0.168395
-0.153278
-0.139215
-0.126718
-0.116086
-0.107492
-0.100603
-0.0956634
-0.235871
-0.237207
-0.239167
-0.241493
-0.244154
-0.246779
-0.24903
-0.250358
-0.250244
-0.248113
-0.243529
-0.23622
-0.22619
-0.213705
-0.199298
-0.183671
-0.167626
-0.151987
-0.137451
-0.124577
-0.11371
-0.105047
-0.0983089
-0.093707
-0.235826
-0.237252
-0.239332
-0.241814
-0.244658
-0.247489
-0.249947
-0.251464
-0.251499
-0.249453
-0.244862
-0.237444
-0.227199
-0.214393
-0.199578
-0.183479
-0.166925
-0.150782
-0.135786
-0.122544
-0.111442
-0.102705
-0.0961032
-0.0918225
-0.235772
-0.237281
-0.239472
-0.242103
-0.245123
-0.24815
-0.25081
-0.252515
-0.252687
-0.25074
-0.24615
-0.238636
-0.228191
-0.215083
-0.199882
-0.183334
-0.166293
-0.149666
-0.134224
-0.120622
-0.109286
-0.100471
-0.0939901
-0.0900113
-0.235706
-0.237292
-0.239588
-0.242359
-0.245545
-0.248762
-0.251618
-0.253506
-0.25383
-0.251972
-0.247391
-0.239791
-0.229165
-0.215774
-0.20021
-0.183236
-0.165732
-0.14864
-0.132767
-0.118813
-0.107244
-0.0983482
-0.091972
-0.088276
-0.23563
-0.237285
-0.239678
-0.24258
-0.245925
-0.249324
-0.252368
-0.254438
-0.254916
-0.253146
-0.248581
-0.240908
-0.230119
-0.216466
-0.200562
-0.183186
-0.16524
-0.147704
-0.131417
-0.117121
-0.10532
-0.0963382
-0.0900487
-0.0866278
-0.235543
-0.237261
-0.239742
-0.242767
-0.246262
-0.249833
-0.25306
-0.255306
-0.255937
-0.25426
-0.249719
-0.241987
-0.231049
-0.217155
-0.200935
-0.183183
-0.16482
-0.146861
-0.130176
-0.115545
-0.103515
-0.0944392
-0.0882261
-0.0850635
-0.235445
-0.23722
-0.239781
-0.242918
-0.246553
-0.250289
-0.253692
-0.25611
-0.256891
-0.255312
-0.250804
-0.243026
-0.231953
-0.217842
-0.201331
-0.183226
-0.16447
-0.14611
-0.129042
-0.114088
-0.10183
-0.0926512
-0.0865363
-0.0835588
-0.235336
-0.23716
-0.239793
-0.243035
-0.2468
-0.250691
-0.254261
-0.256846
-0.257776
-0.256298
-0.251831
-0.244021
-0.232836
-0.218529
-0.201748
-0.183315
-0.164189
-0.145452
-0.128018
-0.112749
-0.100269
-0.0910027
-0.0849236
-0.0821405
-0.235216
-0.237083
-0.23978
-0.243116
-0.247002
-0.25104
-0.254769
-0.257516
-0.258591
-0.25722
-0.252802
-0.244973
-0.233689
-0.219211
-0.202186
-0.183452
-0.163986
-0.144885
-0.127104
-0.111535
-0.0988331
-0.0894494
-0.0834211
-0.080808
-0.23699
-0.239742
-0.243163
-0.247159
-0.251334
-0.255215
-0.258117
-0.259337
-0.258075
-0.253714
-0.24588
-0.234514
-0.219887
-0.202643
-0.183633
-0.163852
-0.144412
-0.126301
-0.11044
-0.0975179
-0.0880144
-0.0820295
-0.0795581
-0.236879
-0.239679
-0.243176
-0.247272
-0.251573
-0.255598
-0.25865
-0.260013
-0.258861
-0.254565
-0.246739
-0.235311
-0.220557
-0.203119
-0.183859
-0.163787
-0.14403
-0.125607
-0.109463
-0.0963256
-0.0866996
-0.0807455
-0.0783897
-0.236753
-0.239592
-0.243155
-0.247341
-0.251759
-0.255917
-0.259113
-0.260619
-0.259579
-0.255355
-0.24755
-0.236078
-0.22122
-0.203612
-0.184127
-0.163789
-0.143738
-0.12502
-0.108606
-0.0952556
-0.0855017
-0.0795629
-0.0773021
-0.236611
-0.239481
-0.243101
-0.247367
-0.25189
-0.256174
-0.259506
-0.261157
-0.260228
-0.256083
-0.248311
-0.236815
-0.221874
-0.204122
-0.184438
-0.163859
-0.143535
-0.124539
-0.107866
-0.0943065
-0.0844183
-0.0784813
-0.0762951
-0.236455
-0.239348
-0.243014
-0.247349
-0.251968
-0.256368
-0.25983
-0.261632
-0.260806
-0.256747
-0.249023
-0.237521
-0.222519
-0.204647
-0.18479
-0.163994
-0.143419
-0.124163
-0.107242
-0.0934767
-0.0834482
-0.0774547
-0.0753677
-0.236284
-0.239192
-0.242896
-0.24729
-0.251994
-0.256499
-0.260085
-0.262049
-0.261312
-0.257348
-0.249684
-0.238195
-0.223154
-0.205187
-0.185181
-0.164192
-0.143389
-0.123889
-0.106732
-0.0927645
-0.0825906
-0.076485
-0.0745196
-0.2361
-0.239016
-0.242748
-0.24719
-0.251968
-0.25657
-0.260271
-0.262377
-0.261747
-0.257884
-0.250294
-0.238836
-0.223777
-0.20574
-0.185611
-0.164452
-0.143443
-0.123716
-0.106333
-0.0921677
-0.0818448
-0.0756581
-0.0737502
-0.235902
-0.238819
-0.24257
-0.24705
-0.251891
-0.256579
-0.260388
-0.262552
-0.262107
-0.258356
-0.250852
-0.239444
-0.22439
-0.206306
-0.186077
-0.164773
-0.143577
-0.123641
-0.106044
-0.0916842
-0.0812103
-0.0749525
-0.0730568
-0.235692
-0.238602
-0.242363
-0.24687
-0.251764
-0.256529
-0.260437
-0.262693
-0.262395
-0.258764
-0.251359
-0.240018
-0.22499
-0.206883
-0.18658
-0.165153
-0.143791
-0.123662
-0.105862
-0.0913121
-0.0806847
-0.0743458
-0.0724376
-0.23547
-0.238366
-0.242129
-0.246653
-0.251589
-0.256419
-0.260419
-0.262772
-0.262612
-0.259108
-0.251815
-0.240559
-0.225578
-0.207471
-0.187117
-0.165589
-0.144081
-0.123776
-0.105783
-0.0910475
-0.0802644
-0.0738316
-0.0718911
-0.235236
-0.238114
-0.24187
-0.246402
-0.251368
-0.256255
-0.260339
-0.262786
-0.262761
-0.259389
-0.252218
-0.241062
-0.226146
-0.208059
-0.187675
-0.166067
-0.144434
-0.123967
-0.105794
-0.0908801
-0.079941
-0.073405
-0.0714144
-0.234995
-0.237848
-0.241589
-0.246119
-0.251106
-0.256039
-0.260198
-0.26274
-0.262841
-0.259605
-0.252565
-0.241523
-0.22669
-0.208644
-0.18825
-0.166583
-0.144844
-0.124234
-0.105894
-0.0908073
-0.0797121
-0.0730632
-0.0710066
-0.237553
-0.241267
-0.245781
-0.250775
-0.255741
-0.259966
-0.262614
-0.262832
-0.25975
-0.252868
-0.241973
-0.22726
-0.209291
-0.188923
-0.167226
-0.1454
-0.124659
-0.106153
-0.0908868
-0.0796198
-0.0728327
-0.0706819
-0.237205
-0.240878
-0.24536
-0.250344
-0.255333
-0.259619
-0.262358
-0.262735
-0.259841
-0.253161
-0.242466
-0.227926
-0.210084
-0.189781
-0.168081
-0.146184
-0.125312
-0.106631
-0.0911649
-0.079698
-0.0727375
-0.0704508
-0.236921
-0.240589
-0.245068
-0.250065
-0.255085
-0.259435
-0.262186
-0.262725
-0.259935
-0.253365
-0.242772
-0.228313
-0.210518
-0.190224
-0.168492
-0.146526
-0.125554
-0.106752
-0.0911586
-0.0795755
-0.0725291
-0.0701881
-0.23677
-0.240555
-0.245163
-0.250305
-0.255481
-0.259996
-0.26302
-0.263311
-0.260381
-0.253606
-0.242754
-0.228005
-0.20991
-0.18933
-0.167349
-0.145184
-0.124072
-0.105181
-0.0895603
-0.0780317
-0.0711397
-0.0689939
-0.0719072
-0.23641
-0.240238
-0.244808
-0.249804
-0.254694
-0.258766
-0.261188
-0.261306
-0.258078
-0.251036
-0.240001
-0.225168
-0.207094
-0.186632
-0.164855
-0.142964
-0.122183
-0.103692
-0.0885197
-0.0774777
-0.0710935
-0.0695437
-0.0725375
-0.235722
-0.239549
-0.244017
-0.24881
-0.253417
-0.257157
-0.259236
-0.258853
-0.25524
-0.247919
-0.236733
-0.22189
-0.203944
-0.183738
-0.162326
-0.140881
-0.1206
-0.102628
-0.087967
-0.0774053
-0.0714391
-0.0700558
-0.0734831
-0.234508
-0.238303
-0.242632
-0.247181
-0.251456
-0.25479
-0.256433
-0.255629
-0.251686
-0.244161
-0.232929
-0.218207
-0.200544
-0.180763
-0.159884
-0.13904
-0.119389
-0.10203
-0.0879327
-0.0778577
-0.0722946
-0.0715563
-0.074723
-0.232615
-0.236347
-0.240495
-0.244752
-0.248642
-0.251533
-0.252731
-0.251536
-0.24732
-0.239685
-0.228532
-0.214085
-0.196878
-0.1777
-0.157529
-0.137445
-0.118553
-0.101904
-0.0884235
-0.0788423
-0.0736287
-0.072965
-0.0761746
-0.229944
-0.233581
-0.237514
-0.241444
-0.244923
-0.247372
-0.248145
-0.246599
-0.242183
-0.234543
-0.2236
-0.209579
-0.19299
-0.174581
-0.155272
-0.136085
-0.118061
-0.102196
-0.0893675
-0.0802667
-0.07533
-0.0746657
-0.0777486
-0.226472
-0.229987
-0.233678
-0.237264
-0.24033
-0.242353
-0.242742
-0.240909
-0.236378
-0.22884
-0.218233
-0.204775
-0.188943
-0.171437
-0.153116
-0.134931
-0.117857
-0.102826
-0.0906628
-0.0820155
-0.0772864
-0.0765491
-0.0793565
-0.222271
-0.225639
-0.229072
-0.23231
-0.234976
-0.2366
-0.236656
-0.234609
-0.23005
-0.222712
-0.212548
-0.199762
-0.184797
-0.168296
-0.151051
-0.13394
-0.117867
-0.103697
-0.0921973
-0.0839716
-0.0793892
-0.0785048
-0.0809332
-0.217484
-0.220683
-0.223851
-0.226749
-0.229037
-0.2303
-0.230074
-0.227881
-0.223371
-0.216312
-0.206671
-0.194636
-0.180608
-0.165174
-0.149056
-0.133057
-0.118007
-0.104704
-0.0938553
-0.0860189
-0.081532
-0.080437
-0.0823879
-0.212271
-0.215291
-0.218197
-0.220771
-0.222711
-0.223653
-0.223203
-0.220921
-0.216518
-0.209794
-0.200725
-0.189482
-0.176425
-0.162081
-0.147104
-0.132222
-0.118193
-0.105745
-0.0955274
-0.0880502
-0.08362
-0.0822716
-0.083696
-0.206781
-0.209622
-0.212278
-0.214554
-0.216184
-0.216844
-0.21618
-0.213895
-0.209645
-0.203289
-0.194813
-0.184371
-0.172284
-0.159021
-0.145168
-0.131383
-0.11835
-0.106733
-0.0971199
-0.0899756
-0.0855772
-0.0839544
-0.0848316
-0.201128
-0.203798
-0.206226
-0.208236
-0.209597
-0.210027
-0.209233
-0.206937
-0.202867
-0.196893
-0.189011
-0.179356
-0.168211
-0.155994
-0.143226
-0.130496
-0.118421
-0.107598
-0.0985607
-0.0917276
-0.0873482
-0.0854488
-0.0857846
-0.195391
-0.197908
-0.200133
-0.201913
-0.203048
-0.203295
-0.202402
-0.200129
-0.196258
-0.19067
-0.183366
-0.174466
-0.164221
-0.152997
-0.141259
-0.12953
-0.118363
-0.108293
-0.0998008
-0.0932612
-0.0888978
-0.0867344
-0.0865557
-0.189626
-0.192007
-0.194058
-0.195646
-0.196595
-0.196701
-0.195745
-0.193523
-0.18986
-0.184653
-0.177904
-0.16972
-0.16032
-0.150029
-0.139256
-0.128466
-0.118152
-0.108791
-0.100812
-0.0945511
-0.0902078
-0.087804
-0.0871515
-0.183868
-0.186132
-0.188038
-0.189468
-0.190271
-0.190272
-0.189285
-0.187139
-0.183691
-0.178855
-0.172632
-0.165119
-0.156509
-0.147086
-0.137211
-0.127296
-0.117776
-0.109078
-0.101582
-0.0955884
-0.0912737
-0.0886593
-0.0875817
-0.178141
-0.180308
-0.182095
-0.183399
-0.184091
-0.184022
-0.183034
-0.180983
-0.177752
-0.173273
-0.167548
-0.160661
-0.152784
-0.144165
-0.135121
-0.126016
-0.117235
-0.109154
-0.102112
-0.096375
-0.0921
-0.0893075
-0.0878566
-0.172464
-0.174552
-0.176243
-0.177451
-0.178063
-0.177952
-0.176989
-0.175048
-0.172033
-0.167899
-0.162643
-0.15634
-0.14914
-0.141263
-0.132986
-0.124629
-0.116531
-0.109025
-0.10241
-0.0969201
-0.0926966
-0.0897589
-0.0879865
-0.166854
-0.168876
-0.170493
-0.171629
-0.172187
-0.172061
-0.171141
-0.169321
-0.166523
-0.162722
-0.157906
-0.152145
-0.145572
-0.138379
-0.130808
-0.123141
-0.115674
-0.108702
-0.102487
-0.0972367
-0.0930764
-0.0900254
-0.0879813
-0.161323
-0.163293
-0.164854
-0.165938
-0.166466
-0.166345
-0.165484
-0.163795
-0.161209
-0.157729
-0.153327
-0.14807
-0.142075
-0.135511
-0.12859
-0.121557
-0.114673
-0.108196
-0.102357
-0.0973396
-0.0932537
-0.0901191
-0.08785
-0.155885
-0.157814
-0.159332
-0.160383
-0.160898
-0.160801
-0.160013
-0.158462
-0.156073
-0.152911
-0.148895
-0.144105
-0.138644
-0.132658
-0.126334
-0.119885
-0.11354
-0.107522
-0.102037
-0.0972446
-0.0932433
-0.0900527
-0.0876013
-0.150551
-0.152446
-0.153934
-0.154966
-0.155484
-0.155423
-0.15472
-0.15332
-0.151203
-0.148261
-0.144601
-0.140244
-0.135275
-0.129821
-0.124046
-0.118133
-0.112284
-0.106694
-0.101541
-0.0969675
-0.09306
-0.0898383
-0.0872436
-0.145331
-0.147199
-0.148666
-0.149691
-0.150223
-0.15021
-0.149597
-0.14834
-0.146408
-0.143757
-0.140436
-0.13648
-0.131964
-0.127
-0.121728
-0.116309
-0.110918
-0.105725
-0.100885
-0.0965238
-0.0927182
-0.0894878
-0.086785
-0.140233
-0.142079
-0.143534
-0.14456
-0.145116
-0.145156
-0.144638
-0.143522
-0.141781
-0.139395
-0.136392
-0.132808
-0.128711
-0.124196
-0.119386
-0.114421
-0.109452
-0.104628
-0.100084
-0.0959288
-0.0922321
-0.0890131
-0.0862336
-0.135266
-0.137093
-0.13854
-0.139575
-0.140161
-0.140261
-0.139839
-0.138862
-0.13731
-0.135169
-0.132463
-0.129224
-0.125512
-0.12141
-0.117025
-0.112478
-0.107899
-0.103417
-0.0991517
-0.0951972
-0.0916154
-0.0884253
-0.0855973
-0.130436
-0.132247
-0.13369
-0.134737
-0.135358
-0.135521
-0.135195
-0.134355
-0.132984
-0.131076
-0.128644
-0.125724
-0.122367
-0.118645
-0.11465
-0.110486
-0.106268
-0.102106
-0.0981029
-0.0943432
-0.0908812
-0.0877356
-0.0848838
-0.125749
-0.127544
-0.128985
-0.130049
-0.130707
-0.130934
-0.130704
-0.129997
-0.128798
-0.127105
-0.124931
-0.122307
-0.119276
-0.115903
-0.112266
-0.108456
-0.10457
-0.100705
-0.0969511
-0.0933805
-0.0900422
-0.0869544
-0.0841006
-0.121208
-0.122988
-0.124429
-0.12551
-0.126207
-0.126498
-0.126362
-0.125782
-0.124747
-0.123256
-0.121321
-0.118969
-0.116239
-0.113186
-0.109878
-0.106393
-0.102815
-0.099228
-0.0957091
-0.092322
-0.0891104
-0.086092
-0.0832551
-0.116818
-0.118583
-0.120024
-0.121122
-0.121858
-0.122212
-0.122166
-0.121707
-0.120826
-0.119524
-0.117811
-0.11571
-0.113257
-0.110498
-0.107493
-0.104307
-0.101014
-0.0976857
-0.0943892
-0.0911802
-0.0880973
-0.0851579
-0.0823544
-0.112582
-0.114329
-0.115769
-0.116885
-0.117658
-0.118072
-0.118113
-0.117769
-0.117033
-0.115906
-0.114398
-0.112529
-0.110331
-0.107842
-0.105114
-0.102205
-0.0991754
-0.0960889
-0.0930031
-0.0899666
-0.0870139
-0.0841615
-0.0814054
-0.1085
-0.110229
-0.111667
-0.112798
-0.113607
-0.114079
-0.114201
-0.113964
-0.113363
-0.112399
-0.111081
-0.109426
-0.107461
-0.105221
-0.102749
-0.100093
-0.0973087
-0.0944482
-0.0915619
-0.0886924
-0.0858703
-0.0831116
-0.0804147
-0.104574
-0.106283
-0.107717
-0.108862
-0.109703
-0.110229
-0.110427
-0.110291
-0.109816
-0.109003
-0.107859
-0.106401
-0.104651
-0.102638
-0.100401
-0.0979803
-0.0954224
-0.0927732
-0.0900761
-0.087368
-0.0846764
-0.0820163
-0.0793886
-0.100805
-0.102491
-0.103919
-0.105075
-0.105946
-0.106521
-0.10679
-0.106747
-0.106388
-0.105714
-0.104732
-0.103454
-0.101901
-0.100098
-0.0980761
-0.0958721
-0.0935245
-0.0910732
-0.0885553
-0.0860031
-0.0834411
-0.0808836
-0.0783332
-0.0971909
-0.0988533
-0.100273
-0.101437
-0.102334
-0.102954
-0.103288
-0.103331
-0.103079
-0.102532
-0.101698
-0.100586
-0.0992131
-0.0976023
-0.0957794
-0.0937752
-0.091623
-0.0893568
-0.0870087
-0.0846069
-0.0821732
-0.079721
-0.0772542
-0.0937322
-0.0953682
-0.0967767
-0.0979459
-0.0988653
-0.0995257
-0.0999191
-0.10004
-0.0998856
-0.0994564
-0.0987571
-0.097797
-0.0965899
-0.0951556
-0.0935154
-0.0916957
-0.089725
-0.0876322
-0.085445
-0.083188
-0.0808805
-0.0785354
-0.0761573
-0.0904271
-0.0920348
-0.0934298
-0.0946011
-0.095539
-0.0962349
-0.0966815
-0.0968735
-0.0968082
-0.0964859
-0.0959103
-0.095089
-0.094033
-0.0927609
-0.0912888
-0.0896396
-0.0878373
-0.0859069
-0.0838721
-0.0817543
-0.0795707
-0.0773333
-0.0750475
-0.087274
-0.0888513
-0.0902303
-0.0914008
-0.0923533
-0.0930799
-0.0935737
-0.0938298
-0.0938454
-0.0936203
-0.0931575
-0.0924633
-0.0915477
-0.0904218
-0.089104
-0.0876122
-0.0859665
-0.0841881
-0.0822975
-0.0803133
-0.0782508
-0.0761211
-0.0739301
-0.0842705
-0.0858157
-0.0871765
-0.088343
-0.0893064
-0.090059
-0.0905944
-0.0909078
-0.0909963
-0.0908593
-0.0904989
-0.0899201
-0.0891307
-0.088141
-0.0869653
-0.0856188
-0.0841186
-0.0824825
-0.0807282
-0.078872
-0.0769273
-0.0749045
-0.0728097
-0.0814143
-0.0829259
-0.0842663
-0.0854259
-0.0863965
-0.0871706
-0.0877422
-0.0881064
-0.0882602
-0.0882027
-0.0879351
-0.0874612
-0.0867872
-0.0859219
-0.0848767
-0.0836643
-0.0822991
-0.0807962
-0.0791707
-0.0774368
-0.0756064
-0.0736891
-0.071691
-0.0787027
-0.0801794
-0.0814973
-0.0826475
-0.0836218
-0.0844131
-0.0850156
-0.0854245
-0.0856366
-0.0856505
-0.0854667
-0.0850879
-0.0845191
-0.0837673
-0.0828419
-0.0817533
-0.0805134
-0.079135
-0.0776311
-0.0760139
-0.0742939
-0.07248
-0.0705784
-0.0761328
-0.0775736
-0.0788674
-0.0800056
-0.0809803
-0.0817849
-0.0824135
-0.0828613
-0.0831249
-0.0832026
-0.0830943
-0.0828017
-0.0823284
-0.0816802
-0.0808645
-0.0798899
-0.0787663
-0.0775044
-0.076115
-0.0746089
-0.0729953
-0.0712823
-0.069476
-0.0737018
-0.0751058
-0.076374
-0.077498
-0.0784703
-0.0792844
-0.0799345
-0.0804158
-0.0807248
-0.0808593
-0.0808186
-0.0806037
-0.0802173
-0.0796634
-0.0789481
-0.0780785
-0.0770626
-0.0759093
-0.0746277
-0.0732271
-0.0717156
-0.0701006
-0.068388
-0.0714066
-0.0727734
-0.0740147
-0.0751226
-0.0760898
-0.0769099
-0.0775773
-0.0780871
-0.0784357
-0.0786205
-0.0786403
-0.0784955
-0.0781875
-0.0777196
-0.0770961
-0.0763229
-0.0754067
-0.0743546
-0.0731742
-0.0718735
-0.0704596
-0.0689394
-0.0673181
-0.0692441
-0.0705735
-0.0717871
-0.0728772
-0.073837
-0.07466
-0.0753408
-0.0758746
-0.0762574
-0.0764865
-0.0765602
-0.0764781
-0.076241
-0.075851
-0.0753115
-0.074627
-0.0738028
-0.0728447
-0.0717592
-0.0705528
-0.069232
-0.0678028
-0.0662704
-0.0672114
-0.0685034
-0.0696886
-0.0707596
-0.0717099
-0.0725331
-0.0732239
-0.0737774
-0.0741897
-0.0744575
-0.0745789
-0.0745529
-0.0743796
-0.0740603
-0.0735973
-0.0729941
-0.0722548
-0.071384
-0.070387
-0.0692696
-0.0680372
-0.0666951
-0.0652483
-0.0653056
-0.0665605
-0.0677169
-0.0687679
-0.0697069
-0.0705279
-0.0712256
-0.0717951
-0.0722323
-0.0725338
-0.0726973
-0.0727213
-0.0726054
-0.0723499
-0.0719565
-0.0714276
-0.0707663
-0.0699764
-0.069062
-0.068028
-0.0668792
-0.0656201
-0.0642555
-0.0635239
-0.0647422
-0.0658698
-0.0669
-0.0678263
-0.0686431
-0.069345
-0.0699271
-0.0703852
-0.0707158
-0.0709163
-0.0709847
-0.07092
-0.0707221
-0.0703918
-0.0699307
-0.0693411
-0.0686258
-0.0677882
-0.0668323
-0.0657621
-0.0645818
-0.0632956
-0.0618637
-0.0630462
-0.0641452
-0.0651541
-0.0660668
-0.0668776
-0.0675812
-0.0681729
-0.0686484
-0.069004
-0.0692367
-0.0693443
-0.0693254
-0.0691792
-0.0689059
-0.0685066
-0.0679825
-0.0673359
-0.0665694
-0.0656862
-0.0646898
-0.0635839
-0.0623721
-0.0603225
-0.0614704
-0.0625412
-0.0635287
-0.0644269
-0.0652304
-0.0659338
-0.0665325
-0.0670222
-0.0673989
-0.0676597
-0.0678018
-0.0678235
-0.0677236
-0.0675017
-0.0671583
-0.066694
-0.0661104
-0.0654095
-0.0645938
-0.0636662
-0.06263
-0.0614884
-0.0588982
-0.0600128
-0.0610562
-0.0620224
-0.0629057
-0.0637007
-0.0644024
-0.0650058
-0.0655068
-0.0659014
-0.0661863
-0.0663587
-0.0664163
-0.0663578
-0.0661821
-0.0658889
-0.0654789
-0.0649529
-0.0643122
-0.0635588
-0.0626951
-0.0617239
-0.0606481
-0.0575891
-0.0586719
-0.0596888
-0.0606342
-0.0615024
-0.0622882
-0.0629867
-0.0635931
-0.064103
-0.0645125
-0.064818
-0.0650167
-0.065106
-0.065084
-0.0649495
-0.0647018
-0.0643408
-0.063867
-0.0632813
-0.0625851
-0.0617803
-0.0608693
-0.0598547
-0.0563936
-0.0574464
-0.0584381
-0.0593632
-0.0602165
-0.0609928
-0.0616871
-0.0622948
-0.0628115
-0.0632332
-0.0635563
-0.0637777
-0.0638947
-0.063905
-0.0638071
-0.0635999
-0.063283
-0.0628564
-0.0623205
-0.0616764
-0.0609256
-0.0600699
-0.0591118
-0.0553107
-0.0563354
-0.0573034
-0.0582093
-0.0590481
-0.0598146
-0.060504
-0.0611118
-0.0616336
-0.0620653
-0.0624032
-0.0626441
-0.062785
-0.0628236
-0.062758
-0.0625868
-0.0623092
-0.0619248
-0.0614338
-0.0608368
-0.0601348
-0.0593295
-0.058423
-0.0543399
-0.0553388
-0.0562847
-0.0571726
-0.0579974
-0.0587543
-0.0594385
-0.0600455
-0.0605708
-0.0610105
-0.0613608
-0.0616182
-0.0617799
-0.061843
-0.0618056
-0.061666
-0.0614231
-0.0610761
-0.0606251
-0.0600701
-0.059412
-0.0586522
-0.0577923
-0.0534811
-0.0544566
-0.0553825
-0.0562538
-0.0570657
-0.0578133
-0.0584921
-0.0590976
-0.0596254
-0.0600714
-0.0604318
-0.0607032
-0.0608824
-0.0609666
-0.0609536
-0.0608414
-0.0606287
-0.0603146
-0.0598986
-0.0593807
-0.0587615
-0.058042
-0.0572236
-0.0527352
-0.05369
-0.0545979
-0.0554543
-0.0562543
-0.0569935
-0.057667
-0.0582706
-0.0587999
-0.0592508
-0.0596194
-0.0599023
-0.0600962
-0.0601983
-0.0602059
-0.0601171
-0.0599304
-0.0596445
-0.0592587
-0.058773
-0.0581876
-0.0575031
-0.056721
-0.0521036
-0.0530404
-0.0539328
-0.0547762
-0.0555659
-0.0562974
-0.056966
-0.0575676
-0.0580977
-0.0585523
-0.0589275
-0.0592197
-0.0594257
-0.0595424
-0.0595672
-0.0594979
-0.0593328
-0.0590706
-0.0587105
-0.0582519
-0.057695
-0.0570404
-0.0562891
-0.0515887
-0.0525107
-0.0533902
-0.0542227
-0.0550036
-0.0557286
-0.056393
-0.0569926
-0.0575231
-0.0579804
-0.0583606
-0.0586602
-0.0588757
-0.059004
-0.0590426
-0.058989
-0.0588414
-0.0585984
-0.0582589
-0.0578224
-0.0572888
-0.0566585
-0.0559324
-0.0511938
-0.0521043
-0.0529738
-0.0537978
-0.0545719
-0.0552916
-0.0559526
-0.0565505
-0.0570811
-0.0575403
-0.0579242
-0.0582292
-0.0584518
-0.058589
-0.058638
-0.0585963
-0.058462
-0.0582336
-0.0579099
-0.0574903
-0.0569745
-0.0563629
-0.0556562
-0.0509239
-0.0518264
-0.0526889
-0.0535071
-0.0542764
-0.0549925
-0.055651
-0.0562477
-0.0567782
-0.0572386
-0.0576249
-0.0579335
-0.058161
-0.0583041
-0.0583601
-0.0583265
-0.0582012
-0.0579827
-0.0576698
-0.0572617
-0.0567581
-0.0561593
-0.0554659
-0.0507848
-0.0516833
-0.0525422
-0.0533573
-0.0541241
-0.0548383
-0.0554956
-0.0560915
-0.056622
-0.057083
-0.0574706
-0.057781
-0.0580109
-0.058157
-0.0582166
-0.0581871
-0.0580665
-0.0578531
-0.0575457
-0.0571436
-0.0566463
-0.056054
-0.0553675
-0.0510766
-0.0519917
-0.0528677
-0.0536999
-0.0544838
-0.0552148
-0.0558883
-0.0564995
-0.0570441
-0.0575176
-0.0579155
-0.058234
-0.0584691
-0.0586171
-0.0586749
-0.0586397
-0.0585091
-0.0582813
-0.0579551
-0.0575295
-0.0570045
-0.0563805
-0.0512152
-0.0521348
-0.0530148
-0.0538505
-0.0546374
-0.0553708
-0.0560461
-0.0566587
-0.0572038
-0.0576773
-0.0580746
-0.0583917
-0.0586248
-0.0587702
-0.0588246
-0.0587854
-0.0586501
-0.0584171
-0.058085
-0.0576529
-0.0571209
-0.0564894
-0.0514843
-0.0524126
-0.0533003
-0.0541428
-0.0549354
-0.0556735
-0.0563524
-0.0569673
-0.0575136
-0.057987
-0.058383
-0.0586975
-0.0589267
-0.0590669
-0.0591148
-0.0590678
-0.0589234
-0.0586801
-0.0583365
-0.0578919
-0.0573462
-0.0567002
-0.0518777
-0.0528185
-0.0537175
-0.0545698
-0.0553707
-0.0561156
-0.0567995
-0.0574177
-0.0579657
-0.0584389
-0.0588329
-0.0591435
-0.0593669
-0.0594993
-0.0595377
-0.0594792
-0.0593216
-0.0590631
-0.0587026
-0.0582395
-0.0576738
-0.0570065
-0.0523904
-0.0533474
-0.0542608
-0.0551258
-0.0559374
-0.0566908
-0.0573811
-0.0580037
-0.0585536
-0.0590264
-0.0594176
-0.059723
-0.0599386
-0.0600609
-0.0600867
-0.0600131
-0.059838
-0.0595598
-0.0591772
-0.0586899
-0.058098
-0.0574028
-0.0530187
-0.0539954
-0.0549263
-0.0558064
-0.0566308
-0.0573945
-0.0580925
-0.0587199
-0.059272
-0.0597441
-0.0601317
-0.0604304
-0.0606364
-0.0607461
-0.0607561
-0.0606639
-0.0604673
-0.0601646
-0.0597548
-0.0592376
-0.0586136
-0.057884
-0.05376
-0.0547595
-0.0557107
-0.0566083
-0.0574474
-0.0582229
-0.0589295
-0.0595625
-0.0601168
-0.0605877
-0.0609706
-0.0612613
-0.0614557
-0.0615501
-0.0615414
-0.061427
-0.0612046
-0.0608728
-0.0604307
-0.0598782
-0.059216
-0.0584457
-0.0546125
-0.0556377
-0.0566117
-0.0575291
-0.0583846
-0.059173
-0.0598892
-0.060528
-0.0610843
-0.0615535
-0.0619307
-0.0622117
-0.0623924
-0.0624691
-0.0624385
-0.0622982
-0.062046
-0.0616805
-0.061201
-0.0606075
-0.0599011
-0.0590837
-0.0555749
-0.0566287
-0.0576278
-0.0585668
-0.0594402
-0.0602428
-0.060969
-0.0616138
-0.062172
-0.0626387
-0.063009
-0.0632787
-0.0634434
-0.0634996
-0.0634441
-0.0632742
-0.062988
-0.0625841
-0.0620619
-0.0614219
-0.0606652
-0.0597943
-0.0566468
-0.0577316
-0.058758
-0.0597203
-0.060613
-0.0614305
-0.0621673
-0.0628181
-0.0633777
-0.0638409
-0.064203
-0.0644595
-0.0646061
-0.0646391
-0.0645552
-0.064352
-0.0640275
-0.0635805
-0.0630105
-0.0623182
-0.0615051
-0.0605742
-0.0578282
-0.0589463
-0.0600018
-0.0609889
-0.0619019
-0.0627349
-0.0634825
-0.0641392
-0.0646995
-0.0651583
-0.0655107
-0.0657521
-0.0658781
-0.065885
-0.0657695
-0.0655292
-0.0651621
-0.0646671
-0.064044
-0.0632936
-0.0624179
-0.0614203
-0.0591195
-0.0602729
-0.0613592
-0.0623723
-0.0633063
-0.0641554
-0.0649138
-0.0655759
-0.0661362
-0.0665894
-0.0669305
-0.0671547
-0.0672577
-0.0672357
-0.0670851
-0.0668037
-0.0663896
-0.0658418
-0.06516
-0.0643457
-0.063401
-0.0623299
-0.0605214
-0.0617119
-0.0628303
-0.0638704
-0.0648261
-0.0656914
-0.0664604
-0.0671273
-0.0676866
-0.0681329