/*--------------------------------*- C++ -*----------------------------------*\
  =========                 |
  \\      /  F ield         | OpenFOAM: The Open Source CFD Toolbox
   \\    /   O peration     | Website:  https://openfoam.org
    \\  /    A nd           | Version:  7
     \\/     M anipulation  |
\*---------------------------------------------------------------------------*/
FoamFile
{
    version     2.0;
    format      ascii;
    class       volScalarField;
    location    "200";
    object      p;
}
// * * * * * * * * * * * * * * * * * * * * * * * * * * * * * * * * * * * * * //

dimensions      [0 2 -2 0 0 0 0];

internalField   nonuniform List<scalar> 
7156
(
-0.560831
-0.554275
-0.565301
-0.558527
-0.553354
-0.547897
-0.569742
-0.562756
-0.557442
-0.551827
-0.545741
-0.539111
-0.531749
-0.574139
-0.566947
-0.561495
-0.555721
-0.549432
-0.542538
-0.534837
-0.526159
-0.516376
-0.505421
-0.578475
-0.571082
-0.565495
-0.559562
-0.553063
-0.545893
-0.537836
-0.528718
-0.51842
-0.506891
-0.494164
-0.480355
-0.465641
-0.58273
-0.575145
-0.569427
-0.563333
-0.556618
-0.549159
-0.540728
-0.53115
-0.520316
-0.508196
-0.49485
-0.480422
-0.465119
-0.449183
-0.432865
-0.416397
-0.399979
-0.586887
-0.579118
-0.573272
-0.567017
-0.560078
-0.552316
-0.543493
-0.533436
-0.522047
-0.50932
-0.495345
-0.480296
-0.464406
-0.447938
-0.431154
-0.41429
-0.397546
-0.381073
-0.364978
-0.349331
-0.33417
-0.590926
-0.582981
-0.577012
-0.570593
-0.563423
-0.555345
-0.546113
-0.535555
-0.523593
-0.510246
-0.495634
-0.479963
-0.463491
-0.446501
-0.429263
-0.412019
-0.394962
-0.378237
-0.361945
-0.346145
-0.330869
-0.316128
-0.301914
-0.28822
-0.275155
-0.594827
-0.586717
-0.580627
-0.574043
-0.566633
-0.558226
-0.548566
-0.53749
-0.524939
-0.510959
-0.495704
-0.479412
-0.462365
-0.444864
-0.427187
-0.409576
-0.39222
-0.375257
-0.358778
-0.342834
-0.327451
-0.312632
-0.298364
-0.284644
-0.271539
-0.598569
-0.590304
-0.584097
-0.577346
-0.569689
-0.560937
-0.550833
-0.539221
-0.526064
-0.511442
-0.495542
-0.478631
-0.461019
-0.443019
-0.424918
-0.406955
-0.389315
-0.372126
-0.355472
-0.339394
-0.323911
-0.309021
-0.294706
-0.280963
-0.267824
-0.602131
-0.593721
-0.587402
-0.580481
-0.572568
-0.563459
-0.552892
-0.540728
-0.526953
-0.51168
-0.495133
-0.47761
-0.459443
-0.44096
-0.42245
-0.404151
-0.386241
-0.36884
-0.352021
-0.33582
-0.320246
-0.305292
-0.290935
-0.277174
-0.264006
-0.60549
-0.596949
-0.590521
-0.583428
-0.57525
-0.565769
-0.554724
-0.541991
-0.527586
-0.511659
-0.494467
-0.476339
-0.45763
-0.438678
-0.419776
-0.401158
-0.382993
-0.365393
-0.348422
-0.332106
-0.316449
-0.301438
-0.287048
-0.273274
-0.260081
-0.608626
-0.599964
-0.593431
-0.586165
-0.577712
-0.567846
-0.556307
-0.542992
-0.527948
-0.511362
-0.493529
-0.474807
-0.45557
-0.436166
-0.41689
-0.397969
-0.379566
-0.36178
-0.344668
-0.328249
-0.312518
-0.297458
-0.28304
-0.269259
-0.256047
-0.611516
-0.602746
-0.596112
-0.588669
-0.579933
-0.569668
-0.557622
-0.543712
-0.528022
-0.510777
-0.492309
-0.473004
-0.453256
-0.433418
-0.413786
-0.39458
-0.375953
-0.357996
-0.340756
-0.324242
-0.308447
-0.293346
-0.278907
-0.265126
-0.251901
-0.614137
-0.605272
-0.598541
-0.590918
-0.581891
-0.571215
-0.558647
-0.544133
-0.527791
-0.509889
-0.490795
-0.470922
-0.450679
-0.430427
-0.410458
-0.390985
-0.37215
-0.354036
-0.336679
-0.320083
-0.304232
-0.289098
-0.274648
-0.260871
-0.24764
-0.616467
-0.607521
-0.600697
-0.592891
-0.583563
-0.572464
-0.559363
-0.544235
-0.527241
-0.508686
-0.488977
-0.468552
-0.447834
-0.427187
-0.4069
-0.387178
-0.368152
-0.349896
-0.332435
-0.315767
-0.29987
-0.284712
-0.270257
-0.256493
-0.243261
-0.618483
-0.609469
-0.602555
-0.594563
-0.584928
-0.573394
-0.55975
-0.544003
-0.526355
-0.507155
-0.486844
-0.465884
-0.444712
-0.423692
-0.403107
-0.383155
-0.363955
-0.345569
-0.328018
-0.311289
-0.295357
-0.280184
-0.265733
-0.251987
-0.238763
-0.620163
-0.611095
-0.604095
-0.595915
-0.585963
-0.573985
-0.559789
-0.543419
-0.52512
-0.505285
-0.484387
-0.462913
-0.441307
-0.419936
-0.399075
-0.37891
-0.359552
-0.341054
-0.323424
-0.306646
-0.290689
-0.27551
-0.261072
-0.247352
-0.234142
-0.621484
-0.612376
-0.605293
-0.596922
-0.586647
-0.574217
-0.559462
-0.542467
-0.523522
-0.503063
-0.481597
-0.459629
-0.437613
-0.415913
-0.394797
-0.374439
-0.354941
-0.336344
-0.31865
-0.301835
-0.285863
-0.270688
-0.256271
-0.242585
-0.229397
-0.622425
-0.613291
-0.60613
-0.597565
-0.58696
-0.574069
-0.558751
-0.541132
-0.521549
-0.500481
-0.478466
-0.456028
-0.433625
-0.411619
-0.390269
-0.369739
-0.350117
-0.331437
-0.313691
-0.296852
-0.280876
-0.265715
-0.251329
-0.237685
-0.224526
-0.622964
-0.613818
-0.606582
-0.597821
-0.586881
-0.573524
-0.557639
-0.539399
-0.519189
-0.497529
-0.474985
-0.452101
-0.429337
-0.407049
-0.385487
-0.364804
-0.345077
-0.326328
-0.308546
-0.291693
-0.275725
-0.260588
-0.246242
-0.232648
-0.219528
-0.62308
-0.613937
-0.606629
-0.59767
-0.58639
-0.572561
-0.556111
-0.537255
-0.51643
-0.494196
-0.471149
-0.447844
-0.424743
-0.402199
-0.380447
-0.359631
-0.339816
-0.321015
-0.303209
-0.286357
-0.270407
-0.255305
-0.241009
-0.227473
-0.2144
-0.622753
-0.613627
-0.606251
-0.597093
-0.585468
-0.571166
-0.55415
-0.534688
-0.513263
-0.490477
-0.466951
-0.443251
-0.419841
-0.397064
-0.375146
-0.354216
-0.334331
-0.315495
-0.29768
-0.28084
-0.264921
-0.249863
-0.235628
-0.222159
-0.209142
-0.621964
-0.612868
-0.605428
-0.59607
-0.584097
-0.56932
-0.551744
-0.531685
-0.509679
-0.486363
-0.462384
-0.438318
-0.414625
-0.391641
-0.369579
-0.348557
-0.32862
-0.309764
-0.291954
-0.27514
-0.259263
-0.244262
-0.230098
-0.216705
-0.203752
-0.620693
-0.611643
-0.604142
-0.594582
-0.58226
-0.56701
-0.548878
-0.528237
-0.505668
-0.481848
-0.457444
-0.43304
-0.409093
-0.385927
-0.363744
-0.342651
-0.32268
-0.30382
-0.28603
-0.269255
-0.253433
-0.2385
-0.224416
-0.211108
-0.198229
-0.618924
-0.609932
-0.602374
-0.592613
-0.579942
-0.564219
-0.545541
-0.524332
-0.501224
-0.476926
-0.452127
-0.427415
-0.403241
-0.379919
-0.35764
-0.336494
-0.316509
-0.297662
-0.279907
-0.263184
-0.247429
-0.232574
-0.218583
-0.205369
-0.192574
-0.616638
-0.607718
-0.600107
-0.590145
-0.577126
-0.560937
-0.541723
-0.519964
-0.496339
-0.471593
-0.446429
-0.421438
-0.397067
-0.373616
-0.351262
-0.330087
-0.310104
-0.291287
-0.273581
-0.256925
-0.24125
-0.226485
-0.212595
-0.199487
-0.186787
-0.61382
-0.604986
-0.597326
-0.587164
-0.573799
-0.557149
-0.537412
-0.515124
-0.49101
-0.465844
-0.440347
-0.415109
-0.390568
-0.367014
-0.34461
-0.323426
-0.303465
-0.284694
-0.267054
-0.250477
-0.234894
-0.220231
-0.206454
-0.193463
-0.180869
-0.610455
-0.601721
-0.594015
-0.583656
-0.569948
-0.552846
-0.532602
-0.509806
-0.48523
-0.459677
-0.433878
-0.408424
-0.383744
-0.360114
-0.337683
-0.31651
-0.296591
-0.277882
-0.260322
-0.24384
-0.228361
-0.21381
-0.200156
-0.187293
-0.174807
-0.60653
-0.597908
-0.590162
-0.579608
-0.565562
-0.548018
-0.527284
-0.504005
-0.478996
-0.453088
-0.427021
-0.401383
-0.376593
-0.352913
-0.330479
-0.30934
-0.28948
-0.270851
-0.253387
-0.237012
-0.221651
-0.207225
-0.193704
-0.180971
-0.168559
-0.602033
-0.593535
-0.585752
-0.575008
-0.560631
-0.542658
-0.521453
-0.497717
-0.472306
-0.446076
-0.419775
-0.393986
-0.369115
-0.345412
-0.322999
-0.301913
-0.282132
-0.263601
-0.246248
-0.229996
-0.214765
-0.200475
-0.1871
-0.174497
-0.162112
-0.596952
-0.58859
-0.580776
-0.569846
-0.555146
-0.536757
-0.515103
-0.490938
-0.465158
-0.438641
-0.41214
-0.386232
-0.36131
-0.33761
-0.315243
-0.294232
-0.274548
-0.256132
-0.238905
-0.22279
-0.207702
-0.193562
-0.180347
-0.167893
-0.155649
-0.591277
-0.583065
-0.575224
-0.564112
-0.549099
-0.530311
-0.50823
-0.483666
-0.457552
-0.430783
-0.404117
-0.378122
-0.353179
-0.32951
-0.30721
-0.286296
-0.266729
-0.248443
-0.23136
-0.215395
-0.200465
-0.186487
-0.173442
-0.161134
-0.149085
-0.585001
-0.576949
-0.569087
-0.5578
-0.542484
-0.523315
-0.500833
-0.475901
-0.449486
-0.422502
-0.395706
-0.369657
-0.344723
-0.32111
-0.298903
-0.278106
-0.258675
-0.240538
-0.223613
-0.207813
-0.193054
-0.179251
-0.166386
-0.154242
-0.142382
-0.578117
-0.570236
-0.562358
-0.550904
-0.535298
-0.515766
-0.492911
-0.467643
-0.440964
-0.4138
-0.386909
-0.360839
-0.335944
-0.312414
-0.290322
-0.269664
-0.250387
-0.232416
-0.215665
-0.200046
-0.18547
-0.171855
-0.159183
-0.147215
-0.135543
-0.570618
-0.56292
-0.555032
-0.543418
-0.527536
-0.507663
-0.484462
-0.458892
-0.431985
-0.40468
-0.37773
-0.351672
-0.326844
-0.303424
-0.281471
-0.260972
-0.241868
-0.22408
-0.207519
-0.192094
-0.177716
-0.164301
-0.151832
-0.140053
-0.12857
-0.562502
-0.554996
-0.547104
-0.53534
-0.519196
-0.499005
-0.475488
-0.449652
-0.422555
-0.395145
-0.368171
-0.342157
-0.317426
-0.294141
-0.272351
-0.252032
-0.23312
-0.215533
-0.199176
-0.18396
-0.169793
-0.15659
-0.144337
-0.132756
-0.121469
-0.553764
-0.546462
-0.538572
-0.526667
-0.510279
-0.489794
-0.465993
-0.439925
-0.412675
-0.385198
-0.358236
-0.332299
-0.307694
-0.28457
-0.262965
-0.242846
-0.224147
-0.206776
-0.19064
-0.175647
-0.161703
-0.148725
-0.136699
-0.125327
-0.114241
-0.544405
-0.537316
-0.529435
-0.5174
-0.500786
-0.480032
-0.455978
-0.429715
-0.402352
-0.374846
-0.34793
-0.322102
-0.297652
-0.274715
-0.253317
-0.233421
-0.21495
-0.197812
-0.181913
-0.167157
-0.15345
-0.140708
-0.128921
-0.117766
-0.10689
-0.534425
-0.527558
-0.519693
-0.50754
-0.490718
-0.469722
-0.445449
-0.419029
-0.39159
-0.364092
-0.337258
-0.311571
-0.287304
-0.264579
-0.243412
-0.223757
-0.205533
-0.188647
-0.172999
-0.158494
-0.145037
-0.132543
-0.121005
-0.110077
-0.523825
-0.517189
-0.509347
-0.497088
-0.480079
-0.45887
-0.434411
-0.407872
-0.380397
-0.352945
-0.326227
-0.300711
-0.276655
-0.254168
-0.233253
-0.21386
-0.195902
-0.179282
-0.163901
-0.149662
-0.136466
-0.124233
-0.512609
-0.506213
-0.498402
-0.486051
-0.468875
-0.447481
-0.422872
-0.396252
-0.368779
-0.341409
-0.314843
-0.289529
-0.265712
-0.243486
-0.222847
-0.203734
-0.18606
-0.169724
-0.154624
-0.140663
-0.127743
-0.500782
-0.494633
-0.486861
-0.474432
-0.457112
-0.435563
-0.410839
-0.384177
-0.356744
-0.329494
-0.303113
-0.278032
-0.254481
-0.23254
-0.212197
-0.193386
-0.176013
-0.159975
-0.145172
-0.131503
-0.48835
-0.482456
-0.474731
-0.462238
-0.444797
-0.423124
-0.398321
-0.371655
-0.344302
-0.317208
-0.291044
-0.266227
-0.242968
-0.221337
-0.201311
-0.182819
-0.165765
-0.150043
-0.13555
-0.47532
-0.469689
-0.462019
-0.449478
-0.43194
-0.410173
-0.385328
-0.358697
-0.331462
-0.30456
-0.278647
-0.254122
-0.231181
-0.209882
-0.190195
-0.172042
-0.155323
-0.461701
-0.45634
-0.448734
-0.436162
-0.41855
-0.396722
-0.371872
-0.345314
-0.318234
-0.291559
-0.265929
-0.241725
-0.219128
-0.198184
-0.178855
-0.161059
-0.447504
-0.442419
-0.434887
-0.422299
-0.40464
-0.382782
-0.357963
-0.331517
-0.304629
-0.278216
-0.2529
-0.229045
-0.206816
-0.18625
-0.1673
-0.432741
-0.427939
-0.420489
-0.407902
-0.39022
-0.368366
-0.343615
-0.317318
-0.290658
-0.264542
-0.239571
-0.216091
-0.194256
-0.174089
-0.417424
-0.41291
-0.405552
-0.392984
-0.375306
-0.353488
-0.328842
-0.30273
-0.276336
-0.250549
-0.225952
-0.202875
-0.181456
-0.401568
-0.397348
-0.390091
-0.377559
-0.359912
-0.338163
-0.313657
-0.287767
-0.261674
-0.236248
-0.212055
-0.189406
-0.385187
-0.381267
-0.374121
-0.361643
-0.344052
-0.322407
-0.298075
-0.272446
-0.246687
-0.221653
-0.197891
-0.3683
-0.364682
-0.357657
-0.345253
-0.327748
-0.306231
-0.282113
-0.256779
-0.231387
-0.206776
-0.183473
-0.350922
-0.347613
-0.340718
-0.328407
-0.311019
-0.289649
-0.265787
-0.240782
-0.215791
-0.191633
-0.333073
-0.330076
-0.323321
-0.311121
-0.293861
-0.272703
-0.249114
-0.224473
-0.199914
-0.314771
-0.312093
-0.305487
-0.293416
-0.276314
-0.255391
-0.232114
-0.207868
-0.296036
-0.293683
-0.287235
-0.27531
-0.258399
-0.237736
-0.214804
-0.276889
-0.274867
-0.268584
-0.256827
-0.24013
-0.219758
-0.257346
-0.255673
-0.24956
-0.237989
-0.221531
-0.201478
-0.237424
-0.236133
-0.230184
-0.218816
-0.202623
-0.21718
-0.216245
-0.210482
-0.199334
-0.19665
-0.196022
-0.190477
-0.179566
-0.175825
-0.175513
-0.170193
-0.15473
-0.154745
-0.133397
-0.133743
-0.111852
-0.0901256
-0.130036
-0.151936
-0.173618
-0.173598
-0.195052
-0.1947
-0.216205
-0.215531
-0.209565
-0.237051
-0.236066
-0.229877
-0.217886
-0.257592
-0.256256
-0.249872
-0.237654
-0.277805
-0.276076
-0.269527
-0.257098
-0.239407
-0.297624
-0.295535
-0.288818
-0.276194
-0.258253
-0.236364
-0.31703
-0.3146
-0.307719
-0.294917
-0.276753
-0.254558
-0.229942
-0.336004
-0.333242
-0.326199
-0.313253
-0.294886
-0.272416
-0.247433
-0.354526
-0.351438
-0.344244
-0.331169
-0.31263
-0.289917
-0.2646
-0.238195
-0.372574
-0.369166
-0.361831
-0.348643
-0.329966
-0.307042
-0.281424
-0.254636
-0.2279
-0.390129
-0.386405
-0.378939
-0.365657
-0.346867
-0.323774
-0.297883
-0.270751
-0.243593
-0.217309
-0.407171
-0.403135
-0.395549
-0.382194
-0.363317
-0.340099
-0.313954
-0.286522
-0.258975
-0.232248
-0.206919
-0.423681
-0.419338
-0.41164
-0.398232
-0.379295
-0.355954
-0.329658
-0.301934
-0.274031
-0.246892
-0.221114
-0.197015
-0.439641
-0.434995
-0.427197
-0.413755
-0.394789
-0.371369
-0.344934
-0.316967
-0.288746
-0.261228
-0.235028
-0.210487
-0.455035
-0.450091
-0.442202
-0.428746
-0.409779
-0.386321
-0.359772
-0.331607
-0.303105
-0.275242
-0.248651
-0.223693
-0.200517
-0.469846
-0.46461
-0.45664
-0.443188
-0.424249
-0.400787
-0.374163
-0.345838
-0.317095
-0.28892
-0.26197
-0.236622
-0.213042
-0.191257
-0.484061
-0.478539
-0.470497
-0.457067
-0.438182
-0.414752
-0.388093
-0.359648
-0.330702
-0.302251
-0.274974
-0.249265
-0.225306
-0.203135
-0.182705
-0.497667
-0.491864
-0.48376
-0.47037
-0.451566
-0.428202
-0.401548
-0.373024
-0.343912
-0.315223
-0.287651
-0.26161
-0.237298
-0.214765
-0.19397
-0.174826
-0.510651
-0.504574
-0.496418
-0.483085
-0.464389
-0.441124
-0.414515
-0.385951
-0.356715
-0.327824
-0.29999
-0.273648
-0.24901
-0.226138
-0.205001
-0.185515
-0.167575
-0.151068
-0.523003
-0.516659
-0.508459
-0.4952
-0.476637
-0.453507
-0.42698
-0.39842
-0.369098
-0.340043
-0.311983
-0.28537
-0.260433
-0.237247
-0.215789
-0.195982
-0.177724
-0.160902
-0.145406
-0.534715
-0.528112
-0.519876
-0.506706
-0.488302
-0.465339
-0.438934
-0.410417
-0.381052
-0.351871
-0.32362
-0.296767
-0.27156
-0.248085
-0.226329
-0.206221
-0.187662
-0.170543
-0.154754
-0.140191
-0.545779
-0.538924
-0.530661
-0.517596
-0.499374
-0.476611
-0.450366
-0.421935
-0.392566
-0.363299
-0.334892
-0.307832
-0.282382
-0.258644
-0.236613
-0.216225
-0.197384
-0.179985
-0.163919
-0.149083
-0.135371
-0.556189
-0.549089
-0.540807
-0.527862
-0.509846
-0.487314
-0.461267
-0.432962
-0.403632
-0.374317
-0.345791
-0.318556
-0.292894
-0.268918
-0.246635
-0.225988
-0.206885
-0.189224
-0.172897
-0.157802
-0.143834
-0.130906
-0.565941
-0.558605
-0.550311
-0.537499
-0.51971
-0.49744
-0.471629
-0.44349
-0.41424
-0.384919
-0.35631
-0.328934
-0.303088
-0.278901
-0.25639
-0.235505
-0.21616
-0.198254
-0.181682
-0.166343
-0.152134
-0.138966
-0.126827
-0.115361
-0.57503
-0.567469
-0.55917
-0.546503
-0.528963
-0.506984
-0.481445
-0.453514
-0.424385
-0.395096
-0.366441
-0.338958
-0.312958
-0.288587
-0.265873
-0.244772
-0.225204
-0.207071
-0.190271
-0.174703
-0.160267
-0.146872
-0.134504
-0.122832
-0.111467
-0.583457
-0.575678
-0.567381
-0.554871
-0.5376
-0.515941
-0.490708
-0.463025
-0.434059
-0.404843
-0.37618
-0.348623
-0.322501
-0.297973
-0.275078
-0.253783
-0.234012
-0.215671
-0.19866
-0.182879
-0.168229
-0.15462
-0.142037
-0.130169
-0.118615
-0.591221
-0.583234
-0.574946
-0.562604
-0.54562
-0.524307
-0.499415
-0.472018
-0.443256
-0.414154
-0.38552
-0.357924
-0.33171
-0.307052
-0.284003
-0.262536
-0.242582
-0.224052
-0.206846
-0.190867
-0.176018
-0.162209
-0.149422
-0.137369
-0.125635
-0.598324
-0.590139
-0.581866
-0.569702
-0.553021
-0.53208
-0.507562
-0.48049
-0.451972
-0.423023
-0.394458
-0.366856
-0.340582
-0.315823
-0.292643
-0.271027
-0.250911
-0.232208
-0.214825
-0.198664
-0.183631
-0.169635
-0.156657
-0.144431
-0.132524
-0.604769
-0.596397
-0.588143
-0.576166
-0.559805
-0.539259
-0.515147
-0.488437
-0.460203
-0.431447
-0.402988
-0.375416
-0.349113
-0.32428
-0.300996
-0.279252
-0.258994
-0.240139
-0.222595
-0.206269
-0.191065
-0.176896
-0.16374
-0.151353
-0.139278
-0.610561
-0.602012
-0.593784
-0.582002
-0.565974
-0.545845
-0.522169
-0.495856
-0.467946
-0.439423
-0.411107
-0.383601
-0.3573
-0.332422
-0.309058
-0.28721
-0.266831
-0.247842
-0.230154
-0.213678
-0.198319
-0.18399
-0.17067
-0.158138
-0.145893
-0.615705
-0.606992
-0.598795
-0.587213
-0.57153
-0.551839
-0.528627
-0.502747
-0.475198
-0.446948
-0.418813
-0.391408
-0.365141
-0.340246
-0.316828
-0.294899
-0.274418
-0.255314
-0.237501
-0.22089
-0.205391
-0.190916
-0.177442
-0.164788
-0.152365
-0.620211
-0.611344
-0.603182
-0.591807
-0.576481
-0.557246
-0.534524
-0.509109
-0.481959
-0.45402
-0.426105
-0.398835
-0.372634
-0.347751
-0.324304
-0.302317
-0.281756
-0.262555
-0.244633
-0.227904
-0.21228
-0.197672
-0.184056
-0.171306
-0.158697
-0.624086
-0.615078
-0.606956
-0.595793
-0.580832
-0.562069
-0.539862
-0.514944
-0.488229
-0.460639
-0.43298
-0.40588
-0.379777
-0.354935
-0.331485
-0.309462
-0.288842
-0.269563
-0.25155
-0.234719
-0.218985
-0.204259
-0.190508
-0.177611
-0.165002
-0.627343
-0.618206
-0.610128
-0.59918
-0.584593
-0.566316
-0.544645
-0.520254
-0.494009
-0.466804
-0.439438
-0.412544
-0.386571
-0.361798
-0.338371
-0.316335
-0.295676
-0.276339
-0.258252
-0.241334
-0.225504
-0.210676
-0.196811
-0.183801
-0.17118
-0.629993
-0.62074
-0.61271
-0.60198
-0.587771
-0.569993
-0.548879
-0.525042
-0.4993
-0.472517
-0.44548
-0.418826
-0.393015
-0.36834
-0.344961
-0.322936
-0.302258
-0.282881
-0.264737
-0.247749
-0.231837
-0.216922
-0.20296
-0.189851
-0.177164
-0.63205
-0.622694
-0.614715
-0.604205
-0.590379
-0.573109
-0.55257
-0.529313
-0.504105
-0.477779
-0.451107
-0.424727
-0.399109
-0.374561
-0.351255
-0.329264
-0.308588
-0.28919
-0.271007
-0.253964
-0.237986
-0.222994
-0.208948
-0.195747
-0.182979
-0.633528
-0.624083
-0.616159
-0.60587
-0.59243
-0.575676
-0.555727
-0.533072
-0.508428
-0.482592
-0.45632
-0.430248
-0.404854
-0.380462
-0.357255
-0.33532
-0.314668
-0.295267
-0.277061
-0.259979
-0.243948
-0.228893
-0.214772
-0.201492
-0.188652
-0.634445
-0.624923
-0.617059
-0.60699
-0.593937
-0.577705
-0.558359
-0.536328
-0.512275
-0.48696
-0.461121
-0.43539
-0.410253
-0.386044
-0.362962
-0.341106
-0.320497
-0.301113
-0.2829
-0.265794
-0.249726
-0.234621
-0.220436
-0.207088
-0.194191
-0.634817
-0.625233
-0.61743
-0.607583
-0.594915
-0.579208
-0.560475
-0.539086
-0.515651
-0.490888
-0.465514
-0.440157
-0.415306
-0.391309
-0.368378
-0.346623
-0.326079
-0.306728
-0.288526
-0.271412
-0.255319
-0.240177
-0.225942
-0.212538
-0.199597
-0.634663
-0.625032
-0.617294
-0.607665
-0.595381
-0.580201
-0.562089
-0.541358
-0.518562
-0.49438
-0.469503
-0.444551
-0.420017
-0.39626
-0.373504
-0.351874
-0.331413
-0.312115
-0.29394
-0.276833
-0.26073
-0.245564
-0.23129
-0.217842
-0.204867
-0.634003
-0.624338
-0.616668
-0.607256
-0.595353
-0.580698
-0.563213
-0.543153
-0.521018
-0.497442
-0.473092
-0.448576
-0.424389
-0.400898
-0.378344
-0.35686
-0.336503
-0.317275
-0.299144
-0.282059
-0.26596
-0.250782
-0.236482
-0.223
-0.210003
-0.632857
-0.623173
-0.615574
-0.606376
-0.594849
-0.580718
-0.563862
-0.544483
-0.523026
-0.500082
-0.476287
-0.452236
-0.428425
-0.405229
-0.382899
-0.361585
-0.341352
-0.322212
-0.30414
-0.287092
-0.27101
-0.255834
-0.241519
-0.228015
-0.215006
-0.631246
-0.621559
-0.614033
-0.605047
-0.59389
-0.580276
-0.56405
-0.54536
-0.524597
-0.502307
-0.479093
-0.455535
-0.432129
-0.409254
-0.387174
-0.36605
-0.345961
-0.326927
-0.308931
-0.291934
-0.275884
-0.260722
-0.246403
-0.232887
-0.219877
-0.629194
-0.619517
-0.612069
-0.60329
-0.592496
-0.579394
-0.563794
-0.545798
-0.525742
-0.504125
-0.481517
-0.458481
-0.435506
-0.412978
-0.391173
-0.370261
-0.350335
-0.331424
-0.31352
-0.296588
-0.280582
-0.265446
-0.251137
-0.237618
-0.224618
-0.626722
-0.617072
-0.609703
-0.601128
-0.590689
-0.57809
-0.563113
-0.545811
-0.526472
-0.505545
-0.483567
-0.461077
-0.43856
-0.416406
-0.394898
-0.37422
-0.354476
-0.335706
-0.317909
-0.301057
-0.285108
-0.270011
-0.255721
-0.242211
-0.229231
-0.623855
-0.614245
-0.606959
-0.598584
-0.588492
-0.576385
-0.562023
-0.545417
-0.526801
-0.506579
-0.48525
-0.463331
-0.441298
-0.419542
-0.398354
-0.377932
-0.358389
-0.339777
-0.322102
-0.305343
-0.289464
-0.274418
-0.26016
-0.246667
-0.233716
-0.620616
-0.611062
-0.603862
-0.595683
-0.585927
-0.574302
-0.560545
-0.54463
-0.526742
-0.507237
-0.486575
-0.46525
-0.443724
-0.42239
-0.401547
-0.381401
-0.362078
-0.343639
-0.326102
-0.309451
-0.293654
-0.27867
-0.264454
-0.250989
-0.238077
-0.61703
-0.607546
-0.600435
-0.592448
-0.583019
-0.571862
-0.558699
-0.543469
-0.52631
-0.507531
-0.487552
-0.466841
-0.445846
-0.424957
-0.40448
-0.384631
-0.365546
-0.347299
-0.329913
-0.313383
-0.297681
-0.28277
-0.268607
-0.255178
-0.242315
-0.613121
-0.603721
-0.596704
-0.588904
-0.57979
-0.569088
-0.556506
-0.541951
-0.525519
-0.507472
-0.488191
-0.468112
-0.447669
-0.427249
-0.407159
-0.387627
-0.368799
-0.350758
-0.333539
-0.317143
-0.301548
-0.286721
-0.272622
-0.259239
-0.246434
-0.608916
-0.599614
-0.592692
-0.585076
-0.576267
-0.566003
-0.553987
-0.540096
-0.524387
-0.507076
-0.488502
-0.469071
-0.449201
-0.42927
-0.409589
-0.390393
-0.37184
-0.354022
-0.336985
-0.320735
-0.305259
-0.290527
-0.276502
-0.263173
-0.250435
-0.604437
-0.595247
-0.588426
-0.580988
-0.572473
-0.562633
-0.551165
-0.537925
-0.52293
-0.506355
-0.488496
-0.469729
-0.45045
-0.431028
-0.411776
-0.392936
-0.374674
-0.357096
-0.340254
-0.324163
-0.308817
-0.294191
-0.280249
-0.266984
-0.25432
-0.59971
-0.590646
-0.583929
-0.576666
-0.568433
-0.558999
-0.548062
-0.535457
-0.521167
-0.505324
-0.488186
-0.470094
-0.451422
-0.432529
-0.413726
-0.395259
-0.377307
-0.359983
-0.34335
-0.327432
-0.312226
-0.297716
-0.283868
-0.270675
-0.258094
-0.594761
-0.585835
-0.579225
-0.572133
-0.564172
-0.555127
-0.544701
-0.532712
-0.519114
-0.503999
-0.487585
-0.470177
-0.452126
-0.433779
-0.415443
-0.397369
-0.379744
-0.362689
-0.346279
-0.330544
-0.315491
-0.301107
-0.287362
-0.274249
-0.261759
-0.589612
-0.580837
-0.574338
-0.567414
-0.559713
-0.551041
-0.541105
-0.529713
-0.516792
-0.502396
-0.486704
-0.469988
-0.452571
-0.434786
-0.416935
-0.399271
-0.381988
-0.365218
-0.349044
-0.333506
-0.318616
-0.304367
-0.290734
-0.277709
-0.265318
-0.584287
-0.575676
-0.569292
-0.562533
-0.555081
-0.546764
-0.537297
-0.526481
-0.514218
-0.500531
-0.485558
-0.469538
-0.452766
-0.435556
-0.418207
-0.40097
-0.384046
-0.367576
-0.35165
-0.33632
-0.321604
-0.3075
-0.293989
-0.281059
-0.268775
-0.578812
-0.570374
-0.56411
-0.557512
-0.5503
-0.54232
-0.533301
-0.523038
-0.511414
-0.49842
-0.484161
-0.468838
-0.452719
-0.436099
-0.419265
-0.402472
-0.385922
-0.369766
-0.354103
-0.338992
-0.324459
-0.31051
-0.297129
-0.284302
-0.272132
-0.573207
-0.564954
-0.558814
-0.552375
-0.545392
-0.537733
-0.529139
-0.519405
-0.508399
-0.496083
-0.482528
-0.4679
-0.45244
-0.43642
-0.420117
-0.403782
-0.387622
-0.371793
-0.356406
-0.341526
-0.567496
-0.559438
-0.553425
-0.547144
-0.54038
-0.533025
-0.524834
-0.515605
-0.505192
-0.493536
-0.480673
-0.466738
-0.451938
-0.436527
-0.420768
-0.404906
-0.561699
-0.553846
-0.547964
-0.541839
-0.535286
-0.528218
-0.520408
-0.511658
-0.501815
-0.490797
-0.478612
-0.465362
-0.451225
-0.555838
-0.548198
-0.542451
-0.53648
-0.53013
-0.523334
-0.515883
-0.507587
-0.498288
-0.549932
-0.542513
-0.536905
-0.531087
-0.524932
-0.518392
-0.544
-0.536808
-0.531342
-0.525677
-0.53806
-0.231824
-0.235898
-0.239871
-0.243747
-0.247526
-0.251212
-0.254807
-0.258313
-0.214558
-0.218397
-0.222153
-0.225829
-0.229426
-0.232945
-0.236389
-0.23976
-0.198759
-0.20236
-0.205894
-0.209361
-0.212762
-0.2161
-0.219374
-0.222588
-0.184295
-0.187669
-0.190985
-0.194245
-0.197451
-0.200604
-0.203704
-0.206753
-0.171
-0.174154
-0.17726
-0.180319
-0.183333
-0.186301
-0.189226
-0.192108
-0.15874
-0.161685
-0.164589
-0.167455
-0.170281
-0.17307
-0.175822
-0.178537
-0.147407
-0.150153
-0.152866
-0.155545
-0.158191
-0.160806
-0.163389
-0.165942
-0.136907
-0.139466
-0.141996
-0.144498
-0.146973
-0.14942
-0.151841
-0.154235
-0.12716
-0.129543
-0.131901
-0.134236
-0.136547
-0.138835
-0.1411
-0.143343
-0.118097
-0.120314
-0.122511
-0.124688
-0.126844
-0.128981
-0.131098
-0.133197
-0.109659
-0.111721
-0.113766
-0.115794
-0.117805
-0.119799
-0.121776
-0.123738
-0.101788
-0.103706
-0.10561
-0.107498
-0.109372
-0.111232
-0.113078
-0.11491
-0.0944389
-0.0962231
-0.0979944
-0.099753
-0.101499
-0.103233
-0.104955
-0.106665
-0.0875717
-0.0892306
-0.0908784
-0.0925155
-0.094142
-0.0957581
-0.0973639
-0.0989598
-0.0811425
-0.0826857
-0.0842194
-0.0857437
-0.087259
-0.0887654
-0.0902629
-0.0917519
-0.0751235
-0.0765588
-0.077986
-0.0794053
-0.0808167
-0.0822206
-0.083617
-0.0850061
-0.0694808
-0.0708162
-0.0721447
-0.0734663
-0.0747813
-0.0760898
-0.077392
-0.0786878
-0.0641867
-0.0654297
-0.0666667
-0.0678978
-0.0691233
-0.0703431
-0.0715575
-0.0727666
-0.0592179
-0.060375
-0.061527
-0.062674
-0.0638162
-0.0649536
-0.0660863
-0.0672145
-0.0545502
-0.0556279
-0.0567011
-0.0577701
-0.058835
-0.0598957
-0.0609526
-0.0620055
-0.0501632
-0.0511672
-0.0521674
-0.053164
-0.0541571
-0.0551467
-0.0561329
-0.0571159
-0.0460368
-0.0469727
-0.0479053
-0.0488349
-0.0497614
-0.0506849
-0.0516056
-0.0525235
-0.0421551
-0.0430277
-0.0438976
-0.0447648
-0.0456295
-0.0464916
-0.0473513
-0.0482087
-0.0385011
-0.0393151
-0.0401268
-0.0409362
-0.0417434
-0.0425485
-0.0433516
-0.0441527
-0.0350597
-0.0358194
-0.0365771
-0.0373329
-0.0380869
-0.038839
-0.0395894
-0.0403381
-0.0318179
-0.0325273
-0.0332349
-0.0339409
-0.0346453
-0.0353482
-0.0360496
-0.0367495
-0.0287621
-0.0294248
-0.030086
-0.0307457
-0.0314042
-0.0320613
-0.0327172
-0.0333719
-0.0258818
-0.0265011
-0.0271191
-0.0277359
-0.0283515
-0.0289661
-0.0295795
-0.030192
-0.0231655
-0.0237444
-0.0243223
-0.0248992
-0.025475
-0.02605
-0.026624
-0.0271972
-0.0206032
-0.0211447
-0.0216853
-0.022225
-0.0227639
-0.0233019
-0.0238392
-0.0243758
-0.0181858
-0.0186925
-0.0191984
-0.0197035
-0.020208
-0.0207117
-0.0212148
-0.0217172
-0.0159047
-0.016379
-0.0168526
-0.0173255
-0.0177978
-0.0182696
-0.0187407
-0.0192113
-0.0137516
-0.0141957
-0.0146392
-0.0150822
-0.0155246
-0.0159665
-0.0164079
-0.0168489
-0.0117194
-0.0121354
-0.0125509
-0.0129659
-0.0133804
-0.0137945
-0.0142082
-0.0146214
-0.00980095
-0.0101908
-0.0105802
-0.0109691
-0.0113576
-0.0117457
-0.0121334
-0.0125208
-0.00798991
-0.00835532
-0.00872031
-0.00908491
-0.00944913
-0.00981299
-0.0101765
-0.0105397
-0.00628022
-0.00662283
-0.00696506
-0.00730694
-0.00764847
-0.00798968
-0.00833057
-0.00867116
-0.00466629
-0.0049876
-0.00530858
-0.00562923
-0.00594956
-0.00626959
-0.00658933
-0.00690879
-0.00314295
-0.00344436
-0.00374546
-0.00404626
-0.00434677
-0.00464699
-0.00494694
-0.00524662
-0.00170491
-0.00198776
-0.00227031
-0.00255257
-0.00283455
-0.00311627
-0.00339772
-0.00367892
-0.000348208
-0.000613656
-0.000878824
-0.00114372
-0.00140834
-0.00167271
-0.00193683
-0.0022007
0.000931803
0.00068263
0.000433724
0.000185081
-6.3305e-05
-0.000311439
-0.000559326
-0.000806974
0.00213912
0.00190518
0.0016715
0.00143807
0.00120489
0.00097196
0.000739272
0.000506822
0.00327743
0.00305775
0.00283833
0.00261915
0.00240022
0.00218153
0.00196309