/*--------------------------------*- C++ -*----------------------------------*\
  =========                 |
  \\      /  F ield         | OpenFOAM: The Open Source CFD Toolbox
   \\    /   O peration     | Website:  https://openfoam.org
    \\  /    A nd           | Version:  7
     \\/     M anipulation  |
\*---------------------------------------------------------------------------*/
FoamFile
{
    version     2.0;
    format      ascii;
    class       volVectorField;
    location    "200";
    object      U;
}
// * * * * * * * * * * * * * * * * * * * * * * * * * * * * * * * * * * * * * //

dimensions      [0 1 -1 0 0 0 0];

internalField   nonuniform List<vector> 
7156
(
(0.0248344 -0.00482304 1.58433e-20)
(0.0861908 -0.012334 9.01365e-21)
(0.0271074 -0.00486217 -1.42199e-19)
(0.092889 -0.012094 5.32259e-20)
(0.171206 -0.0132879 1.63995e-19)
(0.260624 -0.00987859 -1.13921e-19)
(0.0294709 -0.00484767 3.39987e-20)
(0.0998065 -0.0116921 1.13856e-19)
(0.182514 -0.0120705 1.09988e-20)
(0.27606 -0.00755114 -1.08874e-20)
(0.378613 0.00163574 -1.34682e-19)
(0.48773 0.0150534 -1.26921e-20)
(0.600428 0.0320095 1.71891e-19)
(0.0319226 -0.00477528 -1.04542e-19)
(0.106934 -0.0111182 -9.6889e-20)
(0.194096 -0.0105743 -1.41055e-19)
(0.291778 -0.00485082 -6.84505e-20)
(0.397987 0.00572756 8.50697e-20)
(0.510097 0.0206179 1.03149e-19)
(0.624947 0.0390136 -1.14001e-19)
(0.739038 0.0599306 -1.03294e-19)
(0.848794 0.0822444 -7.02382e-20)
(0.950877 0.104775 2.77842e-20)
(0.03446 -0.00464086 5.71447e-20)
(0.114262 -0.0103622 7.42831e-20)
(0.205934 -0.00878662 5.38522e-20)
(0.307744 -0.00176528 2.73976e-20)
(0.417538 0.010276 -4.99835e-21)
(0.532508 0.0266818 -1.19702e-19)
(0.649323 0.0465273 6.36261e-20)
(0.764358 0.068718 8.4297e-21)
(0.873989 0.0920382 -1.03934e-20)
(0.974924 0.115248 1.68059e-19)
(1.06452 0.137198 -4.36841e-21)
(1.14101 0.156933 -2.45729e-20)
(1.2036 0.173768 4.94289e-20)
(0.0370799 -0.00444037 1.35337e-20)
(0.121778 -0.00941482 -1.14905e-19)
(0.218003 -0.00669584 -1.34219e-20)
(0.323924 0.0017166 1.26966e-19)
(0.437221 0.0152889 -2.61453e-20)
(0.554907 0.0332474 6.23057e-20)
(0.673492 0.0545459 -6.57078e-20)
(0.789244 0.0779798 1.75211e-20)
(0.898514 0.102247 -2.36726e-20)
(0.998085 0.126058 2.94078e-21)
(1.08548 0.14825 -4.19956e-20)
(1.15916 0.167897 -1.15416e-19)
(1.21861 0.184374 5.95495e-20)
(1.26426 0.197374 -1.77531e-20)
(1.29729 0.206893 1.04477e-19)
(1.31939 0.21316 -6.67775e-21)
(1.33251 0.216573 -1.60565e-19)
(0.0397785 -0.00416984 3.72576e-20)
(0.129468 -0.00826703 5.75453e-20)
(0.230281 -0.00429119 -1.45299e-20)
(0.340282 0.00560448 -5.64378e-20)
(0.456987 0.0207721 -1.0855e-20)
(0.577237 0.0403147 1.13573e-19)
(0.697391 0.0630627 4.75389e-20)
(0.813633 0.0877026 -1.11187e-20)
(0.922314 0.112853 5.20334e-20)
(1.02032 0.137181 -5.19147e-20)
(1.10536 0.159526 4.81095e-20)
(1.17615 0.179 4.34123e-21)
(1.23244 0.195044 -5.22743e-20)
(1.27492 0.207435 -7.29334e-20)
(1.30498 0.216247 -1.01699e-19)
(1.32446 0.221785 -7.32185e-20)
(1.3354 0.224498 1.06122e-19)
(1.33978 0.224901 -2.19944e-20)
(1.33939 0.22351 -5.9621e-20)
(1.33574 0.220791 -3.5633e-20)
(1.33 0.217139 -5.30066e-20)
(0.0425518 -0.0038254 -4.70483e-20)
(0.13732 -0.00691027 2.10251e-20)
(0.242742 -0.00156279 5.96417e-20)
(0.35678 0.00990663 2.59682e-20)
(0.476789 0.0267297 6.75163e-20)
(0.599439 0.047882 -1.0185e-19)
(0.720958 0.0720687 -2.41123e-20)
(0.837464 0.0978711 2.05542e-20)
(0.945339 0.123834 3.17812e-20)
(1.04159 0.148594 1.09389e-19)
(1.12414 0.171002 -3.43964e-20)
(1.19197 0.19022 5.64561e-20)
(1.24511 0.205763 -3.13248e-20)
(1.28448 0.217493 -2.87341e-20)
(1.31168 0.225567 5.16405e-20)
(1.32868 0.230359 7.76777e-20)
(1.33756 0.232368 -6.8144e-20)
(1.34034 0.232141 -2.16873e-20)
(1.33876 0.230205 1.4021e-20)
(1.33426 0.227027 9.14158e-20)
(1.32795 0.222991 1.44699e-19)
(1.3206 0.218394 6.65068e-20)
(1.31273 0.213458 1.61874e-20)
(1.30462 0.20834 8.37423e-20)
(1.29637 0.202901 -1.59055e-20)
(0.0453951 -0.00340334 1.13881e-19)
(0.145318 -0.00533654 -5.00072e-20)
(0.255359 0.00149821 -4.09016e-20)
(0.373381 0.0146298 3.87992e-20)
(0.496576 0.0331641 -1.83672e-19)
(0.621457 0.0559452 2.64766e-20)
(0.744135 0.0815533 4.5765e-20)
(0.860684 0.108468 7.46151e-21)
(0.967542 0.135171 -4.62659e-20)
(1.06187 0.160276 -1.10653e-19)
(1.14182 0.182658 -1.34646e-21)
(1.20664 0.201539 -4.47277e-20)
(1.25663 0.216515 5.0227e-21)
(1.29297 0.227538 1.08506e-19)
(1.31742 0.234846 3.68707e-20)
(1.33207 0.23888 -3.81412e-20)
(1.33905 0.240185 1.26598e-19)
(1.34036 0.239333 -1.66477e-20)
(1.3377 0.236862 6.56741e-20)
(1.33245 0.233234 -1.1256e-19)
(1.32563 0.228823 -3.93831e-20)
(1.31797 0.22391 -8.71841e-20)
(1.30991 0.218704 8.70426e-20)
(1.3017 0.213342 -2.47074e-20)
(1.2934 0.207728 -3.18568e-20)
(0.0483033 -0.00290015 -3.49109e-20)
(0.153445 -0.00353851 2.02949e-20)
(0.268104 0.00489952 9.17217e-21)
(0.390044 0.0197793 -1.05892e-19)
(0.5163 0.0400755 9.92228e-21)
(0.643235 0.0644983 -2.61247e-20)
(0.766862 0.0915038 -5.04355e-21)
(0.883238 0.119476 4.74906e-20)
(0.988882 0.14684 2.166e-20)
(1.08113 0.172202 6.70688e-20)
(1.15838 0.194471 3.60639e-20)
(1.22017 0.212939 1.89199e-21)
(1.26705 0.227288 -1.08509e-23)
(1.30044 0.237562 -3.99625e-20)
(1.32226 0.244081 4.52755e-20)
(1.33469 0.247348 -4.63217e-21)
(1.33991 0.24795 -4.36156e-20)
(1.33987 0.246481 -1.05998e-19)
(1.33624 0.243483 -1.69626e-20)
(1.33032 0.239414 -5.10653e-21)
(1.32308 0.234633 -4.3482e-20)
(1.31515 0.22941 7.79608e-20)
(1.30694 0.223937 -6.31268e-20)
(1.29865 0.218329 -2.17686e-20)
(1.29031 0.212538 4.96806e-20)
(0.0512709 -0.00231251 1.86735e-20)
(0.161684 -0.00150955 -3.12338e-20)
(0.280949 0.00864765 5.3506e-20)
(0.406729 0.0253585 8.08451e-20)
(0.53591 0.0474624 1.60109e-20)
(0.664718 0.0735333 3.8057e-20)
(0.789086 0.101906 -8.06274e-20)
(0.905079 0.130875 -3.35351e-20)
(1.00932 0.158819 1.39304e-20)
(1.09935 0.184349 1.82232e-22)
(1.17383 0.206421 -7.63284e-21)
(1.23256 0.224401 3.4876e-20)
(1.27639 0.238069 2.96678e-20)
(1.30692 0.247557 4.6368e-20)
(1.32624 0.253267 -6.28806e-20)
(1.33659 0.255761 -1.78026e-20)
(1.34017 0.255663 -1.75535e-21)
(1.33891 0.253585 6.76198e-20)
(1.33441 0.250071 -3.93132e-20)
(1.32791 0.245568 3.61101e-20)
(1.32029 0.240424 -4.19857e-20)
(1.31214 0.234893 -3.4071e-20)
(1.30381 0.229153 -2.39323e-20)
(1.29545 0.2233 3.27671e-20)
(1.28709 0.21733 1.89097e-21)
(0.0542919 -0.0016374 -2.66847e-20)
(0.170018 0.000756181 -2.46462e-20)
(0.293862 0.0127478 -7.65804e-20)
(0.423394 0.0313694 4.72355e-20)
(0.555356 0.0553211 4.61298e-20)
(0.685852 0.0830402 -3.14647e-20)
(0.810754 0.112743 6.35003e-20)
(0.926162 0.142643 -1.12723e-21)
(1.02883 0.171086 2.4864e-21)
(1.11653 0.196695 -2.34251e-20)
(1.18817 0.218485 1.95518e-20)
(1.24386 0.23591 -1.80313e-20)
(1.28468 0.248844 -4.72395e-20)
(1.31246 0.257516 -9.66225e-21)
(1.32939 0.262402 6.76949e-21)
(1.3378 0.264119 2.46803e-20)
(1.33988 0.263326 2.08195e-20)
(1.33751 0.260648 -1.02545e-20)
(1.33223 0.256625 -2.09878e-20)
(1.32522 0.251696 1.54088e-20)
(1.31728 0.246195 2.88557e-20)
(1.30895 0.240358 2.90302e-20)
(1.30052 0.234352 1.88e-21)
(1.29212 0.228254 3.20323e-20)
(1.28375 0.222101 -7.04133e-21)
(0.0573602 -0.000872029 1.08324e-20)
(0.178427 0.00326369 2.11191e-20)
(0.306812 0.0172039 2.08422e-20)
(0.439999 0.037812 -8.75242e-21)
(0.57459 0.0636462 -1.68774e-20)
(0.706584 0.0930073 2.00854e-20)
(0.831817 0.123998 -1.25199e-20)
(0.946446 0.15476 1.27439e-20)
(1.04739 0.183615 -3.9242e-20)
(1.13263 0.209216 1.7098e-20)
(1.2014 0.230645 1.08521e-20)
(1.25406 0.24745 3.32098e-20)
(1.29196 0.259605 2.40976e-20)
(1.31709 0.267431 -9.64744e-21)
(1.33177 0.27148 -9.4982e-21)
(1.33837 0.272421 2.71884e-21)
(1.33906 0.270939 -1.32043e-20)
(1.33568 0.267669 5.45226e-21)
(1.32972 0.263146 1.45017e-20)
(1.32226 0.257799 -1.74205e-20)
(1.31406 0.251944 7.69561e-21)
(1.30558 0.245805 -2.08617e-20)
(1.29708 0.239531 1.93014e-20)
(1.28866 0.233187 -2.42414e-20)
(1.28028 0.22685 9.38955e-21)
(0.060469 -1.39367e-05 -1.7255e-20)
(0.186892 0.00601708 1.85442e-21)
(0.31977 0.0220184 1.22235e-20)
(0.456501 0.0446847 -2.07519e-20)
(0.593564 0.0724302 -4.27021e-21)
(0.726865 0.103421 -2.31785e-20)
(0.852228 0.135652 -2.53986e-20)
(0.965894 0.167203 -7.55815e-21)
(1.06496 0.196385 3.5479e-21)
(1.14767 0.221891 6.47867e-21)
(1.21354 0.242882 -2.3268e-20)
(1.26321 0.259005 -5.8066e-21)
(1.29826 0.270339 -2.31928e-20)
(1.32085 0.277297 -1.36277e-20)
(1.33341 0.280501 9.93278e-21)
(1.33832 0.280666 -8.56124e-21)
(1.33774 0.278502 -1.65811e-20)
(1.33347 0.274649 -1.53651e-20)
(1.3269 0.269635 -1.46472e-21)
(1.31906 0.263876 -2.19222e-20)
(1.31063 0.257671 8.22665e-22)
(1.30203 0.25123 2.55114e-20)
(1.29349 0.244689 3.2559e-22)
(1.28505 0.238097 -6.46394e-21)
(1.27669 0.231573 6.6247e-21)
(0.0636114 0.000939027 8.26801e-21)
(0.195393 0.00901956 3.16833e-21)
(0.332701 0.0271923 -3.73197e-21)
(0.472859 0.051984 3.52686e-21)
(0.612229 0.0816639 -1.55522e-21)
(0.746646 0.114266 6.60648e-21)
(0.871944 0.147685 -1.82643e-21)
(0.984474 0.179947 1.48799e-21)
(1.08153 0.20937 -5.16088e-21)
(1.16164 0.234696 -6.00878e-21)
(1.22459 0.255175 -3.28578e-21)
(1.27131 0.270561 1.03893e-20)
(1.30361 0.281037 4.84178e-21)
(1.32378 0.287107 -5.63131e-21)
(1.33435 0.28946 4.97454e-21)
(1.3377 0.288852 -6.1155e-22)
(1.33597 0.286015 9.28323e-21)
(1.33088 0.281587 4.10364e-21)
(1.32378 0.276091 1.38903e-21)
(1.31561 0.269924 1.29264e-20)
(1.307 0.263373 -2.43304e-21)
(1.29832 0.256632 -1.0545e-20)
(1.28975 0.249823 -5.24809e-22)
(1.28132 0.242981 1.6196e-21)
(1.27297 0.236268 -4.78373e-21)
(0.0667803 0.00198868 4.47476e-21)
(0.203909 0.0122733 5.35951e-21)
(0.345575 0.0327252 -6.01206e-21)
(0.489032 0.0597047 8.63836e-21)
(0.63054 0.091336 -2.82966e-21)
(0.765882 0.125524 2.77037e-21)
(0.890926 0.160073 -5.64715e-22)
(1.00216 0.19297 1.49397e-21)
(1.0971 0.222546 -3.34804e-21)
(1.17454 0.247609 -8.87801e-21)
(1.23458 0.267508 -5.63393e-22)
(1.27841 0.282105 9.01315e-21)
(1.30804 0.29169 6.53295e-21)
(1.32592 0.296856 -6.23579e-21)
(1.33461 0.298354 4.37789e-21)
(1.33653 0.296979 1.0096e-21)
(1.33375 0.293475 5.9383e-21)
(1.32794 0.288482 4.3734e-21)
(1.32038 0.282511 2.74102e-21)
(1.31193 0.275943 1.12145e-20)
(1.30318 0.269048 -1.22694e-22)
(1.29444 0.262007 -1.07425e-20)
(1.28586 0.254928 -3.02413e-21)
(1.27744 0.247836 2.97617e-21)
(1.26913 0.240931 -2.21135e-21)
(0.0699682 0.0031365 -1.11248e-20)
(0.212419 0.0157797 -4.88921e-21)
(0.358359 0.0386154 5.01102e-21)
(0.504979 0.06784 -1.21747e-20)
(0.648451 0.101434 6.91968e-22)
(0.784529 0.137179 -3.71285e-20)
(0.909136 0.172796 -2.23899e-20)
(1.01892 0.206246 -6.73837e-21)
(1.11164 0.235889 1.1683e-20)
(1.18638 0.26061 -9.43689e-21)
(1.24352 0.279862 -1.75913e-20)
(1.28453 0.293623 -1.07195e-20)
(1.31159 0.302289 -1.09214e-20)
(1.3273 0.306538 -9.3199e-21)
(1.33424 0.30718 5.08581e-21)
(1.33484 0.305043 -1.00202e-20)
(1.33111 0.300883 -1.99642e-20)
(1.32467 0.295334 -5.75011e-21)
(1.3167 0.288893 -9.7879e-21)
(1.30803 0.281929 -1.66948e-20)
(1.29917 0.274693 -3.2254e-21)
(1.29039 0.267351 1.87853e-20)
(1.28181 0.260002 2.9393e-21)
(1.27343 0.252659 -4.89424e-21)
(1.26515 0.245559 1.70569e-20)
(0.0731671 0.00438356 7.48694e-21)
(0.220902 0.0195389 -9.52007e-21)
(0.37102 0.0448594 3.65803e-20)
(0.520659 0.0763812 -2.04206e-20)
(0.66592 0.111943 -6.88937e-21)
(0.802545 0.149209 2.7256e-20)
(0.926542 0.18583 -9.63767e-21)
(1.03473 0.219751 5.13603e-21)
(1.12514 0.249376 -1.47825e-20)
(1.19715 0.273677 -5.50765e-21)
(1.25143 0.292221 3.63421e-21)
(1.28969 0.305103 3.2763e-20)
(1.3143 0.312826 2.02001e-20)
(1.32795 0.316148 8.20595e-21)
(1.33327 0.315935 -1.18198e-20)
(1.33265 0.313044 -4.63256e-21)
(1.32807 0.308235 3.16651e-21)
(1.32107 0.302138 1.55828e-21)
(1.31276 0.295236 4.83137e-21)
(1.30391 0.287879 -8.69239e-21)
(1.29497 0.280303 -2.13078e-21)
(1.28618 0.272663 -1.41684e-20)
(1.27762 0.265041 2.33034e-21)
(1.26929 0.257445 -1.69106e-20)
(1.26105 0.250148 3.28597e-21)
(0.076369 0.00573055 -3.42106e-20)
(0.229335 0.0235501 -2.60791e-20)
(0.383525 0.0514525 -4.10736e-20)
(0.536034 0.0853179 1.83031e-20)
(0.682905 0.122846 3.1989e-20)
(0.819893 0.161593 -4.608e-21)
(0.943113 0.199149 5.22419e-20)
(1.04959 0.233459 1.21803e-20)
(1.13762 0.262982 -2.6725e-20)
(1.20688 0.28679 -1.36211e-20)
(1.25833 0.304567 2.03979e-20)
(1.29392 0.316532 -2.40911e-20)
(1.31619 0.323291 -5.19628e-20)
(1.3279 0.32568 1.20805e-20)
(1.33171 0.324616 -1.14388e-20)
(1.32999 0.320977 5.54766e-20)
(1.32465 0.31553 2.28225e-21)
(1.31716 0.308894 1.13101e-20)
(1.30857 0.301536 -2.04151e-20)
(1.29957 0.29379 3.83245e-21)
(1.29058 0.285876 2.56946e-20)
(1.2818 0.277936 1.2039e-20)
(1.27328 0.270041 1.07918e-20)
(1.265 0.262191 1.90687e-20)
(1.25682 0.254695 2.92271e-21)
(0.0795659 0.00717775 4.11464e-20)
(0.237698 0.0278114 -3.06757e-20)
(0.395843 0.0583882 9.14091e-20)
(0.551064 0.0946381 3.01531e-20)
(0.699366 0.134127 6.47219e-20)
(0.836537 0.174309 -5.94266e-21)
(0.958823 0.212729 -3.55442e-20)
(1.06347 0.247344 -5.60975e-20)
(1.14906 0.276683 1.31692e-20)
(1.21557 0.299927 -3.04665e-20)
(1.26425 0.316885 3.19707e-21)
(1.29726 0.327899 2.39499e-20)
(1.31729 0.333676 5.20235e-20)
(1.32718 0.335129 3.73221e-20)
(1.32961 0.333217 -7.483e-20)
(1.32688 0.328841 -1.458e-20)
(1.32086 0.322765 1.6619e-20)
(1.31295 0.315597 3.86502e-20)
(1.30412 0.30779 -2.9767e-20)
(1.29502 0.299657 4.16231e-20)
(1.286 0.291407 -3.25814e-20)
(1.27725 0.283167 -2.74232e-20)
(1.26879 0.274997 -5.10714e-21)
(1.26058 0.266893 7.46692e-21)
(1.25246 0.259195 -2.33133e-20)
(0.0827495 0.00872502 -7.64607e-20)
(0.245968 0.0323198 3.16845e-20)
(0.407941 0.0656589 -1.81636e-20)
(0.565712 0.104328 -6.94942e-20)
(0.715265 0.145765 -8.2933e-21)
(0.852444 0.187334 -1.11265e-20)
(0.973647 0.226543 -1.85222e-20)
(1.07636 0.26138 9.11755e-20)
(1.15946 0.290456 2.93819e-20)
(1.22323 0.313069 2.17112e-20)
(1.2692 0.32916 1.93876e-20)
(1.29972 0.339191 -1.67867e-20)
(1.31764 0.343974 6.4315e-20)
(1.32583 0.344488 -7.84765e-20)
(1.32698 0.341736 5.38221e-20)
(1.32334 0.33663 8.2142e-21)
(1.31673 0.329935 -5.81371e-20)
(1.30845 0.322244 -9.81838e-20)
(1.29944 0.313992 8.39295e-21)
(1.29026 0.305477 -9.78977e-21)
(1.28124 0.296891 -2.72065e-21)
(1.27254 0.288351 1.74558e-20)
(1.26415 0.279905 -5.27034e-20)
(1.25601 0.271546 1.65222e-20)
(1.24796 0.263644 3.02766e-20)
(0.0859115 0.0103718 1.16392e-19)
(0.254124 0.0370714 -5.0887e-20)
(0.41979 0.0732554 -6.02281e-20)
(0.579944 0.114373 -2.41496e-20)
(0.730567 0.15774 -6.91543e-20)
(0.867583 0.200642 3.91288e-21)
(0.987567 0.240566 4.24829e-20)
(1.08826 0.275543 -1.41464e-20)
(1.16884 0.304278 -7.36473e-20)
(1.22989 0.326196 -9.71467e-20)
(1.27321 0.341375 -1.86018e-20)
(1.30135 0.350399 -1.43763e-20)
(1.31725 0.354176 -1.7956e-20)
(1.32386 0.353753 1.0384e-19)
(1.32384 0.350167 6.05493e-20)
(1.31939 0.344343 -5.07534e-20)
(1.31225 0.337037 9.24098e-20)
(1.30368 0.32883 5.14753e-20)
(1.29451 0.320139 2.10553e-20)
(1.28529 0.311244 -6.92961e-20)
(1.2763 0.302323 -7.18226e-20)
(1.26766 0.293483 -2.72629e-20)
(1.25935 0.28476 6.15483e-20)
(1.25131 0.276145 -4.00448e-20)
(1.24334 0.268038 -5.49555e-21)
(0.0890436 0.0121172 -5.58627e-20)
(0.262145 0.0420612 3.63151e-20)
(0.431358 0.0811671 2.35689e-20)
(0.593723 0.124756 8.23204e-20)
(0.745239 0.170031 2.05464e-20)
(0.881929 0.214208 -9.05714e-20)
(1.00056 0.25477 -2.48839e-20)
(1.09916 0.289804 2.68247e-21)
(1.17719 0.318125 2.45653e-20)
(1.23556 0.339289 1.24367e-19)
(1.2763 0.353515 -4.72834e-20)
(1.30215 0.361509 6.07474e-20)
(1.31617 0.364274 4.78454e-21)
(1.32131 0.362917 -5.23511e-20)
(1.32021 0.358506 -1.51306e-20)
(1.31504 0.351972 8.00178e-20)
(1.30745 0.344066 -5.92481e-20)
(1.29862 0.335351 4.60182e-20)
(1.28935 0.326225 -4.75023e-20)
(1.28012 0.316953 1.10362e-19)
(1.27118 0.307699 1.08046e-19)
(1.26262 0.298558 6.19765e-20)
(1.25441 0.289558 -4.619e-20)
(1.24646 0.280686 -3.85958e-20)
(1.23858 0.272373 -2.28414e-20)
(0.0921375 0.0139597 4.03843e-20)
(0.270009 0.0472832 8.70065e-20)
(0.442616 0.0893821 -6.46016e-20)
(0.607019 0.13546 -2.67574e-20)
(0.75925 0.182614 8.5494e-21)
(0.895456 0.228005 5.96238e-20)
(1.01262 0.269128 5.66877e-20)
(1.10905 0.30414 -1.18586e-20)
(1.18453 0.331974 9.37746e-20)
(1.24026 0.35233 -6.87767e-20)
(1.2785 0.365567 3.93567e-20)
(1.30217 0.372513 -1.8221e-20)
(1.31441 0.37426 -8.37626e-20)
(1.31819 0.371973 -2.4272e-20)
(1.31612 0.366747 -3.70806e-20)
(1.31031 0.359515 -9.189e-20)
(1.30233 0.351018 7.76356e-20)
(1.29331 0.341802 5.87472e-21)
(1.28396 0.332246 9.92109e-20)
(1.27475 0.322599 -2.87565e-20)
(1.26587 0.313012 -2.11497e-20)
(1.25741 0.303571 2.70065e-20)
(1.2493 0.294292 3.79898e-20)
(1.24147 0.285163 3.6695e-21)
(1.23369 0.276643 2.98603e-20)
(0.0951847 0.0158976 -1.35292e-20)
(0.277695 0.0527302 -2.44037e-20)
(0.453536 0.0978873 1.25107e-20)
(0.619798 0.146464 6.14894e-20)
(0.77257 0.195464 5.16271e-20)
(0.908143 0.242008 1.8614e-20)
(1.02374 0.283613 -8.86634e-20)
(1.11794 0.318524 3.20211e-20)
(1.19087 0.345803 -1.49754e-20)
(1.244 0.365299 -2.77793e-20)
(1.27983 0.377515 -5.20158e-20)
(1.30143 0.383397 -4.46882e-20)
(1.31199 0.384126 5.24666e-20)
(1.31453 0.380916 1.27101e-20)
(1.31159 0.374884 -1.8005e-20)
(1.30521 0.366965 6.57174e-20)
(1.2969 0.357887 -1.18856e-20)
(1.28772 0.348176 6.12685e-20)
(1.27835 0.338195 3.79971e-20)
(1.26917 0.328176 3.35695e-20)
(1.26038 0.318257 4.05518e-20)
(1.25203 0.308516 -6.41993e-20)
(1.24405 0.298958 -2.91077e-20)
(1.23634 0.289572 -6.42234e-21)
(1.22867 0.280845 1.63398e-20)
(0.0981771 0.0179287 1.22255e-19)
(0.285184 0.0583944 2.45748e-20)
(0.464091 0.106668 -1.34129e-20)
(0.632033 0.15775 5.79526e-20)
(0.785175 0.208558 6.24356e-20)
(0.919972 0.256188 -1.31182e-19)
(1.03389 0.298196 8.81609e-20)
(1.12583 0.332929 -2.21949e-20)
(1.19622 0.359589 -1.32668e-20)
(1.24681 0.378179 1.97014e-19)
(1.28031 0.389345 -2.25588e-20)
(1.29994 0.394153 7.87816e-20)
(1.30896 0.393863 -3.98179e-20)
(1.31034 0.389738 -4.575e-20)
(1.30662 0.382912 2.67913e-20)
(1.29975 0.374317 -5.41517e-20)
(1.29118 0.364667 1.53686e-20)
(1.28189 0.354469 -1.22663e-19)
(1.27251 0.344067 -1.79385e-19)
(1.26339 0.333677 1.96827e-20)
(1.25471 0.323428 -1.0387e-19)
(1.24649 0.313387 2.33937e-20)
(1.23864 0.30355 3.42434e-20)
(1.23107 0.293908 8.51545e-20)
(1.22352 0.284974 4.11171e-20)
(0.101107 0.0200503 -1.20024e-19)
(0.292456 0.0642667 -1.96069e-19)
(0.474254 0.11571 -5.08671e-20)
(0.643695 0.169294 -1.39944e-19)
(0.797039 0.221869 1.06934e-19)
(0.930925 0.270517 1.14173e-19)
(1.04309 0.312851 -1.78229e-19)
(1.13273 0.347332 1.7792e-20)
(1.20059 0.373311 6.57453e-21)
(1.2487 0.390952 -1.49061e-19)
(1.27998 0.401044 9.5054e-20)
(1.29775 0.404769 -1.53735e-19)
(1.30531 0.403463 -1.52984e-20)
(1.30565 0.398432 4.87189e-20)
(1.30123 0.390824 6.23268e-20)
(1.29394 0.381565 5.91404e-20)
(1.28516 0.371351 -6.45537e-20)
(1.2758 0.360673 1.05893e-19)
(1.26644 0.349854 3.0306e-20)
(1.25742 0.339098 3.63409e-20)
(1.24886 0.328519 -9.90462e-20)
(1.24078 0.318179 -7.27579e-20)
(1.23308 0.308064 2.57464e-20)
(1.22566 0.298164 -5.32959e-20)
(1.21824 0.289024 1.32168e-21)
(0.103965 0.0222595 -2.69198e-20)
(0.299491 0.0703373 1.13803e-19)
(0.484001 0.124994 -2.45352e-20)
(0.65476 0.181075 5.13728e-21)
(0.808143 0.235371 -1.03323e-19)
(0.94099 0.284966 -2.33503e-21)
(1.05131 0.327549 6.64929e-20)
(1.13863 0.361705 1.89807e-20)
(1.204 0.386947 -1.04304e-19)
(1.2497 0.4036 -2.96797e-20)
(1.27885 0.412598 -2.50323e-19)
(1.29486 0.415234 2.55701e-20)
(1.30109 0.412917 1.79401e-19)
(1.30048 0.406992 -1.71758e-19)
(1.29544 0.398614 -1.06352e-19)
(1.2878 0.388702 -9.20323e-20)
(1.27885 0.377935 3.53634e-20)
(1.26946 0.366782 -1.34047e-19)
(1.26016 0.355551 6.62685e-20)
(1.25125 0.34443 -6.85924e-20)
(1.24283 0.333523 7.28847e-20)
(1.2349 0.322885 5.60167e-20)
(1.22737 0.312492 2.10395e-20)
(1.22011 0.302335 -3.09659e-20)
(1.21283 0.29299 1.86021e-21)
(0.106745 0.0245527 -1.63728e-19)
(0.306272 0.0765954 5.08903e-20)
(0.493307 0.134505 1.93655e-21)
(0.665203 0.193069 7.85856e-20)
(0.818466 0.249035 6.27316e-21)
(0.950155 0.299508 8.60874e-20)
(1.05857 0.342262 -4.19999e-20)
(1.14356 0.376025 1.84517e-19)
(1.20646 0.400475 -1.25954e-19)
(1.24983 0.416105 2.00907e-19)
(1.27694 0.423993 1.66037e-19)
(1.29131 0.425537 1.93132e-19)
(1.2963 0.422217 -1.39447e-19)
(1.29484 0.415409 1.43473e-19)
(1.28926 0.406274 8.24265e-21)
(1.28133 0.395721 -1.17721e-19)
(1.27226 0.384409 1.38592e-20)
(1.26288 0.37279 6.70293e-20)
(1.25366 0.361151 -3.95606e-20)
(1.24488 0.349668 -5.82285e-20)
(1.23662 0.338435 -1.00967e-19)
(1.22886 0.3275 7.94417e-20)
(1.2215 0.316829 -3.44177e-20)
(1.21441 0.306414 -7.87319e-21)
(1.20729 0.296867 -1.27257e-19)
(0.109439 0.0269263 2.42398e-19)
(0.312781 0.0830296 -6.07049e-20)
(0.502152 0.144223 5.03375e-20)
(0.675004 0.205252 -1.49636e-19)
(0.827992 0.262835 -3.52049e-20)
(0.958413 0.314113 -3.78939e-20)
(1.06487 0.356963 -8.33708e-20)
(1.14751 0.390267 -3.35855e-19)
(1.208 0.413876 1.46626e-19)
(1.24911 0.428452 -6.80302e-20)
(1.27428 0.435215 -1.65693e-19)
(1.28711 0.435669 -4.54131e-20)
(1.29097 0.431354 4.58721e-20)
(1.28874 0.423675 -1.27015e-19)
(1.2827 0.413797 7.81294e-20)
(1.27454 0.402615 6.91381e-21)
(1.2654 0.390769 3.85486e-21)
(1.25606 0.378689 -1.32104e-20)
(1.24695 0.366647 1.3361e-19)
(1.23831 0.354805 -5.55698e-22)
(1.23022 0.343249 2.59112e-19)
(1.22265 0.332018 -8.49386e-20)
(1.21548 0.32107 -8.50709e-20)
(1.20857 0.310394 1.08208e-19)
(1.20159 0.300652 1.0599e-19)
(0.112039 0.029376 -3.88128e-21)
(0.319 0.0896274 1.46184e-19)
(0.510513 0.154128 -1.5892e-20)
(0.684142 0.217599 1.20892e-19)
(0.836707 0.276742 -2.03332e-20)
(0.965757 0.328751 -7.49e-20)
(1.0702 0.371624 3.86122e-21)
(1.15051 0.404405 2.44317e-19)
(1.20863 0.427127 -1.81817e-20)
(1.24756 0.440623 -1.33217e-19)
(1.2709 0.446252 1.17607e-19)
(1.2823 0.445617 -4.93274e-20)
(1.28512 0.440319 4.59435e-20)
(1.28221 0.431783 1.69886e-19)
(1.27578 0.421176 -4.79878e-20)
(1.26744 0.409377 3.8624e-20)
(1.25828 0.397005 -5.29729e-20)
(1.249 0.384472 -1.31536e-19)
(1.24002 0.372032 1.31377e-20)
(1.23155 0.359834 -5.78475e-20)
(1.22365 0.347957 -4.50567e-20)
(1.21627 0.336434 -4.25956e-21)
(1.2093 0.32521 1.94091e-19)
(1.20259 0.31428 -4.78924e-21)
(1.19573 0.304341 2.35025e-20)
(0.114538 0.0318974 -1.93465e-19)
(0.324916 0.0963759 -1.99498e-20)
(0.518373 0.164201 8.60735e-20)
(0.6926 0.230084 -1.1867e-19)
(0.8446 0.290727 2.68753e-20)
(0.972184 0.343395 7.51909e-20)
(1.07457 0.386218 4.00451e-21)
(1.15256 0.418417 -2.29192e-19)
(1.20836 0.44021 9.07206e-20)
(1.24521 0.452601 -7.35925e-20)
(1.26681 0.45709 1.40461e-19)
(1.27687 0.455372 2.93367e-20)
(1.27876 0.449101 1.56653e-19)
(1.27526 0.439725 -8.07097e-20)
(1.2685 0.428403 1.32832e-20)
(1.26003 0.415999 2.95498e-20)
(1.25089 0.403112 -2.61798e-20)
(1.24171 0.390131 3.86703e-20)
(1.23289 0.377298 7.58467e-20)
(1.2246 0.364748 2.29083e-19)
(1.2169 0.352553 -1.26813e-19)
(1.20973 0.34074 -4.65306e-20)
(1.20298 0.329247 -1.18413e-19)
(1.19646 0.318084 -5.69818e-20)
(1.18974 0.307926 -8.1482e-20)
(0.11693 0.0344856 1.35986e-19)
(0.330511 0.103261 2.54975e-20)
(0.525714 0.17442 -1.30066e-19)
(0.700362 0.24268 1.52406e-20)
(0.851661 0.304761 -7.24812e-20)
(0.977691 0.358014 3.90436e-22)
(1.07799 0.400718 5.57635e-20)
(1.15367 0.432277 1.33368e-19)
(1.20723 0.453103 -7.07824e-20)
(1.24208 0.464372 5.63836e-20)
(1.26204 0.467716 -1.32714e-19)
(1.27087 0.464923 -1.91728e-19)
(1.27192 0.457693 -2.41429e-19)
(1.26789 0.447491 -1.04189e-19)
(1.26088 0.435469 3.98794e-20)
(1.25234 0.422473 1.82472e-20)
(1.24324 0.40908 2.6228e-19)
(1.23419 0.39566 -4.89248e-20)
(1.22554 0.382439 1.06963e-20)
(1.21745 0.369541 -8.56194e-20)
(1.20997 0.35703 9.44153e-20)
(1.20303 0.34493 3.923e-20)
(1.1965 0.33317 7.87349e-20)
(1.1902 0.321782 -1.73139e-20)
(1.18367 0.311416 -2.78075e-20)
(0.119209 0.0371355 -1.29871e-19)
(0.335774 0.110269 -3.79487e-20)
(0.532519 0.184764 1.06176e-19)
(0.707416 0.255361 -3.32179e-19)
(0.857882 0.318816 -7.59323e-20)
(0.982281 0.37258 2.64113e-20)
(1.08047 0.415097 -4.62008e-20)
(1.15388 0.445963 1.03663e-19)
(1.20524 0.465788 2.14014e-20)
(1.23818 0.475918 1.05238e-19)
(1.25661 0.478117 1.83082e-19)
(1.26431 0.474258 2.79141e-19)
(1.2646 0.466085 1.20665e-19)
(1.26013 0.455073 -6.73634e-20)
(1.25292 0.442366 2.65168e-20)
(1.24435 0.428791 -2.5554e-20)
(1.23534 0.414902 -1.54298e-19)
(1.22644 0.40105 1.47899e-19)
(1.21799 0.387446 -2.63978e-19)
(1.21012 0.374204 2.5561e-20)
(1.20287 0.361382 -3.2912e-20)
(1.19617 0.348998 6.14314e-20)
(1.18988 0.336974 -7.28617e-20)
(1.18381 0.32536 -1.13221e-20)
(1.17748 0.314793 7.75791e-20)
(0.121367 0.0398418 -1.90276e-19)
(0.34069 0.117385 1.41698e-20)
(0.538775 0.195209 4.49721e-20)
(0.713751 0.2681 2.06996e-19)
(0.863258 0.332861 2.51266e-19)
(0.985956 0.387064 1.35432e-19)
(1.08202 0.429327 -1.26598e-19)
(1.15318 0.459452 -2.10488e-19)
(1.20243 0.478245 -1.75691e-19)
(1.23354 0.487224 1.62836e-20)
(1.25054 0.48828 -1.75209e-19)
(1.2572 0.483367 -4.85264e-20)
(1.25682 0.474267 -7.40037e-20)
(1.25199 0.462462 1.44583e-19)
(1.24464 0.449087 6.01016e-20)
(1.23608 0.434944 -2.19242e-19)
(1.22719 0.420569 1.01133e-19)
(1.21847 0.406294 4.88055e-20)
(1.21023 0.392312 1.79495e-19)
(1.2026 0.378731 1.01744e-19)
(1.1956 0.365601 -1.13089e-19)
(1.18914 0.352937 -1.26795e-19)
(1.18311 0.340653 7.83893e-20)
(1.17728 0.328814 8.90788e-20)
(1.17117 0.318052 -2.93751e-20)
(0.1234 0.0425986 1.36453e-19)
(0.345249 0.124593 5.39365e-21)
(0.544468 0.205735 -2.4091e-19)
(0.719356 0.280869 -3.6033e-21)
(0.867787 0.346868 -3.5987e-19)
(0.98872 0.401437 9.16544e-21)
(1.08265 0.443385 -5.70563e-20)
(1.1516 0.472721 1.27977e-19)
(1.19881 0.490456 1.85513e-19)
(1.22819 0.498275 4.56595e-20)
(1.24385 0.498193 3.7112e-20)
(1.24958 0.492238 -8.40727e-20)
(1.24861 0.482229 1.00109e-20)
(1.24348 0.46965 9.59612e-20)
(1.23603 0.455621 -9.24831e-20)
(1.22754 0.440926 1.13971e-19)
(1.2188 0.426075 -9.44903e-20)
(1.21029 0.411383 -9.06459e-20)
(1.20228 0.39703 -9.71662e-20)
(1.19489 0.383114 -1.10812e-19)
(1.18815 0.36968 9.27491e-20)
(1.18196 0.35674 1.16775e-19)
(1.1762 0.344201 -2.68866e-20)
(1.17062 0.332141 -2.21164e-20)
(1.16474 0.321186 -1.29957e-20)
(0.125301 0.0454001 -2.42642e-19)
(0.349439 0.131877 1.40136e-19)
(0.549589 0.216317 2.24424e-19)
(0.724224 0.293641 2.19269e-19)
(0.871468 0.360807 1.40582e-19)
(0.99058 0.415671 -1.65264e-19)
(1.08237 0.457242 1.36817e-19)
(1.14916 0.485748 4.64375e-21)
(1.19439 0.502401 -1.49206e-19)
(1.22215 0.509055 -1.70508e-19)
(1.23656 0.507843 2.18332e-19)
(1.24144 0.500863 -6.40069e-20)
(1.23997 0.489962 -1.19905e-19)
(1.2346 0.476627 -8.10112e-20)
(1.22713 0.461961 -5.21215e-21)
(1.21873 0.446726 7.02485e-20)
(1.21017 0.43141 8.76327e-20)
(1.20188 0.416309 -3.89311e-20)
(1.19413 0.401592 1.50572e-19)
(1.18701 0.387346 1.63083e-20)
(1.18053 0.373614 1.11123e-20)
(1.17462 0.360402 -7.29619e-20)
(1.16914 0.347612 -9.63142e-20)
(1.16383 0.335335 1.61888e-20)
(1.15818 0.324193 -7.89703e-20)
(0.127067 0.0482402 2.09412e-19)
(0.353251 0.139222 9.57601e-21)
(0.554127 0.226932 -2.69822e-19)
(0.728351 0.306389 3.9657e-21)
(0.874302 0.374649 -1.05904e-19)
(0.991545 0.429738 1.34063e-19)
(1.08121 0.470875 1.52846e-19)
(1.14588 0.498512 -1.08962e-19)
(1.18922 0.514064 -1.08468e-19)
(1.21543 0.51955 8.85174e-20)
(1.2287 0.517217 -1.49123e-19)
(1.23282 0.509228 2.16395e-19)
(1.23091 0.497455 5.00128e-20)
(1.22538 0.483383 -2.0768e-20)
(1.21792 0.468097 2.43419e-19)
(1.20966 0.452336 -6.11535e-20)
(1.20131 0.436566 -6.59666e-20)
(1.19327 0.421066 3.43249e-20)
(1.18578 0.405991 -7.47354e-21)
(1.17894 0.391421 -1.22219e-19)
(1.17275 0.377394 -6.32282e-20)
(1.16713 0.363915 -6.03922e-20)
(1.16194 0.350879 1.14941e-19)
(1.15691 0.33839 -1.5881e-20)
(1.15151 0.327067 1.33391e-19)
(0.128692 0.0511123 1.09343e-19)
(0.356676 0.14661 -4.29784e-19)
(0.558074 0.237556 5.6655e-20)
(0.731732 0.319083 -2.08297e-19)
(0.876291 0.388366 3.83317e-19)
(0.991623 0.443611 -1.68651e-19)
(1.07917 0.484259 9.96246e-20)
(1.14177 0.510991 -3.95662e-20)
(1.1833 0.525426 1.11529e-19)
(1.20806 0.529746 -8.2984e-20)
(1.22028 0.526304 3.36949e-20)
(1.22372 0.517324 5.75648e-20)
(1.22147 0.5047 9.49022e-20)
(1.21582 0.48991 -2.50737e-19)
(1.20842 0.474021 1.04859e-19)
(1.20033 0.457748 6.39645e-20)
(1.19222 0.441535 -2.78099e-20)
(1.18445 0.425644 -4.43839e-20)
(1.17724 0.410219 -2.12781e-20)
(1.17069 0.395331 4.06541e-20)
(1.1648 0.381015 2.20313e-20)
(1.15948 0.367273 1.56423e-19)
(1.1546 0.353997 -6.25692e-20)
(1.14987 0.341303 -1.0977e-20)
(1.14472 0.329804 -1.05645e-19)
(0.130173 0.0540101 -9.36165e-20)
(0.359708 0.154024 7.39987e-21)
(0.561425 0.248166 1.71912e-19)
(0.734367 0.331697 -1.30532e-19)
(0.877441 0.401929 9.11314e-20)
(0.990828 0.457261 8.54843e-20)
(1.07627 0.497369 -1.6816e-19)
(1.13686 0.523164 2.8189e-20)
(1.17666 0.536471 5.21504e-21)
(1.20006 0.539626 2.32948e-19)
(1.21132 0.53509 1.44907e-20)
(1.21418 0.52514 -2.18079e-19)
(1.21163 0.511686 -1.90486e-19)
(1.20594 0.496199 1.86616e-19)
(1.19865 0.479724 -2.36059e-19)
(1.19076 0.462953 4.28989e-20)
(1.18291 0.446309 -1.17878e-20)
(1.17543 0.430037 2.994e-20)
(1.16852 0.414268 7.71888e-20)
(1.16227 0.399069 -6.76947e-20)
(1.15669 0.38447 1.06864e-19)
(1.15168 0.370471 -5.67249e-21)
(1.14712 0.356959 -4.26129e-20)
(1.14269 0.344066 3.09324e-20)
(0.131505 0.0569267 2.10606e-19)
(0.362339 0.161449 1.78461e-19)
(0.564176 0.258737 3.44118e-19)
(0.736255 0.344203 1.27648e-19)
(0.877758 0.415309 -2.77654e-19)
(0.989171 0.470664 4.03877e-20)
(1.07253 0.510183 -7.55302e-20)
(1.13117 0.535012 6.88014e-20)
(1.16932 0.547181 1.27233e-19)
(1.19145 0.549179 -3.47179e-19)
(1.20185 0.543565 4.28004e-20)
(1.20419 0.532665 -1.37065e-19)
(1.20143 0.518404 1.5683e-19)
(1.19574 0.502239 -1.31809e-19)
(1.1886 0.485197 3.14814e-20)
(1.18095 0.467943 5.035e-20)
(1.17338 0.45088 3.32704e-20)
(1.16621 0.434236 -3.83276e-20)
(1.15962 0.418132 -4.76918e-20)
(1.15368 0.402628 -5.44337e-21)
(1.14842 0.387751 -1.19254e-19)
(1.14373 0.373501 4.04062e-20)
(0.132686 0.0598554 -2.92819e-19)
(0.364566 0.168865 -2.15235e-19)
(0.566322 0.269245 -3.39267e-19)