/*--------------------------------*- C++ -*----------------------------------*\
  =========                 |
  \\      /  F ield         | OpenFOAM: The Open Source CFD Toolbox
   \\    /   O peration     | Website:  https://openfoam.org
    \\  /    A nd           | Version:  7
     \\/     M anipulation  |
\*---------------------------------------------------------------------------*/
FoamFile
{
    version     2.0;
    format      ascii;
    class       volScalarField;
    location    "20";
    object      p;
}
// * * * * * * * * * * * * * * * * * * * * * * * * * * * * * * * * * * * * * //

dimensions      [0 2 -2 0 0 0 0];

internalField   nonuniform List<scalar> 
36600
(
-0.250896
-0.2519
-0.252509
-0.253034
-0.253494
-0.253892
-0.254242
-0.254558
-0.254848
-0.255119
-0.255376
-0.255623
-0.255862
-0.256098
-0.256333
-0.25657
-0.256815
-0.25708
-0.257335
-0.257578
-0.250938
-0.25194
-0.252547
-0.25307
-0.253529
-0.253925
-0.254274
-0.254589
-0.254877
-0.255146
-0.255402
-0.255647
-0.255885
-0.256118
-0.256351
-0.256587
-0.25683
-0.257093
-0.257347
-0.257587
-0.251023
-0.252019
-0.252623
-0.253143
-0.253599
-0.253992
-0.254338
-0.25465
-0.254935
-0.255201
-0.255453
-0.255695
-0.255929
-0.256159
-0.256389
-0.25662
-0.25686
-0.257121
-0.257372
-0.257606
-0.25115
-0.252138
-0.252737
-0.253252
-0.253704
-0.254092
-0.254434
-0.254741
-0.255022
-0.255283
-0.25553
-0.255767
-0.255996
-0.25622
-0.256444
-0.25667
-0.256905
-0.257161
-0.257407
-0.257633
-0.251319
-0.252296
-0.252888
-0.253398
-0.253843
-0.254225
-0.254561
-0.254862
-0.255137
-0.255392
-0.255632
-0.255862
-0.256084
-0.256301
-0.256517
-0.256736
-0.256963
-0.257214
-0.257454
-0.257668
-0.251528
-0.252492
-0.253076
-0.253578
-0.254016
-0.254391
-0.254719
-0.255013
-0.255279
-0.255526
-0.255758
-0.255979
-0.256192
-0.2564
-0.256606
-0.256815
-0.257033
-0.257277
-0.257509
-0.257708
-0.251778
-0.252726
-0.253301
-0.253793
-0.254222
-0.254588
-0.254908
-0.255192
-0.255449
-0.255686
-0.255908
-0.256118
-0.256319
-0.256516
-0.25671
-0.256907
-0.257114
-0.257349
-0.257571
-0.257753
-0.252066
-0.252998
-0.253561
-0.254043
-0.254461
-0.254817
-0.255126
-0.255399
-0.255645
-0.255871
-0.25608
-0.256277
-0.256465
-0.256648
-0.256828
-0.257011
-0.257204
-0.257427
-0.257638
-0.257799
-0.252394
-0.253305
-0.253856
-0.254326
-0.254733
-0.255077
-0.255373
-0.255634
-0.255867
-0.256078
-0.256273
-0.256456
-0.256628
-0.256794
-0.256957
-0.257123
-0.2573
-0.25751
-0.257709
-0.257845
-0.252758
-0.253648
-0.254185
-0.254642
-0.255035
-0.255366
-0.255649
-0.255895
-0.256113
-0.256309
-0.256487
-0.256652
-0.256806
-0.256953
-0.257097
-0.257243
-0.2574
-0.257596
-0.257779
-0.257887
-0.253158
-0.254026
-0.254548
-0.25499
-0.255368
-0.255684
-0.255951
-0.256181
-0.256382
-0.25656
-0.25672
-0.256865
-0.256999
-0.257124
-0.257245
-0.257368
-0.257503
-0.25768
-0.257845
-0.257921
-0.253593
-0.254437
-0.254943
-0.255369
-0.255731
-0.25603
-0.25628
-0.256492
-0.256674
-0.256832
-0.256971
-0.257094
-0.257204
-0.257304
-0.257399
-0.257495
-0.257604
-0.25776
-0.257906
-0.257944
-0.254062
-0.25488
-0.255369
-0.255779
-0.256123
-0.256403
-0.256634
-0.256826
-0.256987
-0.257123
-0.257239
-0.257337
-0.25742
-0.257491
-0.257557
-0.257623
-0.257702
-0.257833
-0.257957
-0.257952
-0.254564
-0.255356
-0.255826
-0.256218
-0.256543
-0.256803
-0.257014
-0.257183
-0.257321
-0.257433
-0.257522
-0.257593
-0.257646
-0.257686
-0.257718
-0.257749
-0.257794
-0.257896
-0.257995
-0.257939
-0.255098
-0.255862
-0.256314
-0.256685
-0.25699
-0.257229
-0.257417
-0.257563
-0.257675
-0.25776
-0.25782
-0.25786
-0.25788
-0.257885
-0.257879
-0.257872
-0.257877
-0.257946
-0.258016
-0.257899
-0.255662
-0.256399
-0.25683
-0.257181
-0.257464
-0.25768
-0.257843
-0.257963
-0.258047
-0.258103
-0.258132
-0.258138
-0.258123
-0.258088
-0.25804
-0.257989
-0.257949
-0.257978
-0.258017
-0.257827
-0.256257
-0.256965
-0.257375
-0.257704
-0.257964
-0.258155
-0.258291
-0.258383
-0.258438
-0.258462
-0.258457
-0.258427
-0.258371
-0.258294
-0.258199
-0.258098
-0.258007
-0.25799
-0.257996
-0.257716
-0.25688
-0.25756
-0.257949
-0.258255
-0.258489
-0.258653
-0.258761
-0.258823
-0.258846
-0.258836
-0.258795
-0.258724
-0.258626
-0.258501
-0.258356
-0.2582
-0.25805
-0.257979
-0.257951
-0.257552
-0.257533
-0.258183
-0.25855
-0.258831
-0.259039
-0.259175
-0.259253
-0.259282
-0.259271
-0.259224
-0.259144
-0.259031
-0.258887
-0.258711
-0.258509
-0.258292
-0.258076
-0.257943
-0.257878
-0.257285
-0.258214
-0.258835
-0.259178
-0.259434
-0.259614
-0.25972
-0.259765
-0.25976
-0.259712
-0.259626
-0.259505
-0.259347
-0.259153
-0.258923
-0.25866
-0.258375
-0.258086
-0.257883
-0.257778
-0.256886
-0.258924
-0.259515
-0.259834
-0.260063
-0.260213
-0.260287
-0.260298
-0.260256
-0.26017
-0.260043
-0.259877
-0.259672
-0.259426
-0.259137
-0.258808
-0.25845
-0.258079
-0.257794
-0.257632
-0.256731
-0.259661
-0.260223
-0.260516
-0.260718
-0.260836
-0.260877
-0.260851
-0.260771
-0.260643
-0.260473
-0.260261
-0.260006
-0.259705
-0.259354
-0.258955
-0.258517
-0.258057
-0.257679
-0.257406
-0.256473
-0.260428
-0.260959
-0.261227
-0.261398
-0.261484
-0.261488
-0.261424
-0.261303
-0.261132
-0.260917
-0.260657
-0.26035
-0.259991
-0.259576
-0.259103
-0.258578
-0.25802
-0.25754
-0.257147
-0.256092
-0.261224
-0.261725
-0.261965
-0.262105
-0.262156
-0.262122
-0.262018
-0.261853
-0.261637
-0.261374
-0.261064
-0.260703
-0.260286
-0.259803
-0.259253
-0.258636
-0.25797
-0.257375
-0.256857
-0.255619
-0.26205
-0.262519
-0.262732
-0.262839
-0.262853
-0.262779
-0.262631
-0.262421
-0.262158
-0.261846
-0.261484
-0.261068
-0.26059
-0.260039
-0.259407
-0.258695
-0.257913
-0.257187
-0.256531
-0.25506
-0.262907
-0.263345
-0.263528
-0.263601
-0.263575
-0.263458
-0.263265
-0.263007
-0.262695
-0.262331
-0.261916
-0.261444
-0.260904
-0.260283
-0.25957
-0.258757
-0.257851
-0.25698
-0.25617
-0.254407
-0.263797
-0.264202
-0.264354
-0.26439
-0.264323
-0.264161
-0.263919
-0.263612
-0.263247
-0.262831
-0.262361
-0.261831
-0.261229
-0.260538
-0.259742
-0.258827
-0.257789
-0.256759
-0.255778
-0.253657
-0.264721
-0.265092
-0.265211
-0.265209
-0.265098
-0.264888
-0.264595
-0.264235
-0.263816
-0.263344
-0.262819
-0.262231
-0.261567
-0.260806
-0.259926
-0.258908
-0.257734
-0.256531
-0.255363
-0.252806
-0.26568
-0.266017
-0.266102
-0.266058
-0.2659
-0.265639
-0.265293
-0.264876
-0.264401
-0.263872
-0.263289
-0.262642
-0.261916
-0.261086
-0.260124
-0.259002
-0.25769
-0.256302
-0.254932
-0.251853
-0.266678
-0.266979
-0.267027
-0.266939
-0.266732
-0.266416
-0.266013
-0.265537
-0.265003
-0.264415
-0.263772
-0.263066
-0.262277
-0.261379
-0.260337
-0.259114
-0.257661
-0.256078
-0.254495
-0.250798
-0.267717
-0.26798
-0.267988
-0.267854
-0.267594
-0.26722
-0.266756
-0.266219
-0.265622
-0.264972
-0.264268
-0.2635
-0.262649
-0.261684
-0.260564
-0.259242
-0.257652
-0.255866
-0.254062
-0.249645
-0.268799
-0.269022
-0.268989
-0.268805
-0.268488
-0.268053
-0.267524
-0.266921
-0.266258
-0.265543
-0.264776
-0.263946
-0.263033
-0.262002
-0.260806
-0.259389
-0.257663
-0.255671
-0.253641
-0.248402
-0.269928
-0.270108
-0.270031
-0.269794
-0.269416
-0.268916
-0.268318
-0.267645
-0.266913
-0.26613
-0.265296
-0.264403
-0.263426
-0.26233
-0.261062
-0.259554
-0.257697
-0.255498
-0.253238
-0.247083
-0.271107
-0.271242
-0.271118
-0.270823
-0.27038
-0.269811
-0.26914
-0.268393
-0.267587
-0.266732
-0.26583
-0.26487
-0.263829
-0.262668
-0.26133
-0.259737
-0.257757
-0.255356
-0.25286
-0.245715
-0.27234
-0.272427
-0.272252
-0.271896
-0.271384
-0.27074
-0.269992
-0.269167
-0.268283
-0.267352
-0.266377
-0.265348
-0.264242
-0.263016
-0.26161
-0.25994
-0.257845
-0.255258
-0.252516
-0.244356
-0.273632
-0.273667
-0.273437
-0.273016
-0.27243
-0.271706
-0.270876
-0.269967
-0.269001
-0.267991
-0.26694
-0.265839
-0.264665
-0.263375
-0.261906
-0.260165
-0.257968
-0.255226
-0.252226
-0.243119
-0.274987
-0.274966
-0.274677
-0.274186
-0.273521
-0.272713
-0.271796
-0.270798
-0.269745
-0.268651
-0.267519
-0.266344
-0.2651
-0.263747
-0.262219
-0.26042
-0.258139
-0.255293
-0.251982
-0.242062
-0.27641
-0.276328
-0.275977
-0.27541
-0.274661
-0.273763
-0.272753
-0.271663
-0.270518
-0.269335
-0.26812
-0.266866
-0.265551
-0.264136
-0.262557
-0.260719
-0.258388
-0.255525
-0.251706
-0.240889
-0.277907
-0.277759
-0.27734
-0.276693
-0.275854
-0.274861
-0.273753
-0.272565
-0.271323
-0.270047
-0.268744
-0.267409
-0.266023
-0.264548
-0.262926
-0.261079
-0.258771
-0.256096
-0.251563
-0.239739
-0.279484
-0.279264
-0.278771
-0.278038
-0.277104
-0.276011
-0.2748
-0.273508
-0.272166
-0.270793
-0.269398
-0.267979
-0.266519
-0.264986
-0.263334
-0.26151
-0.25933
-0.257179
-0.25261
-0.244019
-0.281147
-0.280848
-0.280276
-0.279451
-0.278416
-0.277217
-0.275898
-0.274498
-0.27305
-0.271576
-0.270086
-0.26858
-0.267045
-0.265455
-0.263778
-0.262001
-0.260002
-0.258532
-0.255441
-0.265101
-0.282903
-0.282517
-0.28186
-0.280938
-0.279796
-0.278485
-0.277052
-0.275539
-0.273982
-0.272403
-0.270815
-0.269219
-0.267606
-0.265958
-0.264256
-0.262523
-0.26069
-0.259809
-0.257408
-0.270103
-0.284757
-0.284277
-0.283529
-0.282502
-0.281247
-0.279819
-0.278268
-0.276638
-0.274967
-0.27328
-0.271591
-0.269902
-0.268209
-0.266498
-0.264764
-0.263058
-0.261333
-0.260787
-0.258548
-0.270845
-0.286718
-0.286134
-0.285288
-0.284151
-0.282776
-0.281226
-0.279551
-0.277801
-0.276013
-0.274214
-0.27242
-0.270636
-0.268858
-0.267078
-0.2653
-0.263593
-0.261913
-0.261485
-0.259254
-0.270532
-0.288791
-0.288095
-0.287144
-0.285889
-0.284389
-0.282711
-0.280909
-0.279033
-0.277125
-0.275212
-0.27331
-0.271427
-0.269558
-0.267701
-0.265861
-0.264119
-0.26242
-0.261942
-0.259604
-0.269377
-0.290986
-0.290165
-0.289101
-0.287722
-0.286092
-0.28428
-0.282346
-0.280342
-0.27831
-0.27628
-0.274268
-0.27228
-0.270314
-0.268367
-0.266446
-0.264629
-0.262848
-0.262179
-0.259639
-0.267629
-0.293307
-0.292351
-0.291168
-0.289658
-0.28789
-0.28594
-0.28387
-0.281734
-0.279576
-0.277425
-0.275298
-0.273201
-0.271129
-0.269078
-0.267051
-0.265117
-0.263195
-0.262225
-0.259416
-0.265546
-0.295763
-0.29466
-0.293349
-0.291701
-0.28979
-0.287697
-0.285487
-0.283216
-0.280928
-0.278654
-0.276408
-0.274193
-0.272004
-0.269831
-0.267671
-0.265579
-0.263458
-0.262106
-0.258988
-0.263303
-0.298359
-0.297097
-0.29565
-0.293858
-0.291798
-0.289558
-0.287204
-0.284795
-0.282374
-0.279972
-0.277601
-0.275261
-0.27294
-0.270626
-0.268304
-0.266012
-0.263642
-0.26185
-0.258394
-0.26101
-0.301104
-0.299669
-0.298078
-0.296134
-0.29392
-0.291528
-0.289027
-0.286476
-0.28392
-0.281385
-0.278882
-0.276405
-0.273937
-0.271458
-0.268943
-0.266411
-0.263747
-0.261479
-0.257666
-0.258736
-0.304002
-0.302381
-0.300638
-0.298536
-0.296162
-0.293613
-0.290962
-0.288266
-0.28557
-0.282897
-0.280253
-0.277626
-0.274993
-0.272323
-0.269583
-0.266774
-0.263778
-0.261012
-0.256831
-0.256522
-0.307059
-0.305239
-0.303336
-0.301069
-0.298529
-0.295821
-0.293015
-0.290171
-0.28733
-0.284512
-0.281716
-0.278925
-0.276104
-0.273217
-0.270218
-0.267096
-0.263735
-0.260462
-0.255906
-0.254387
-0.310281
-0.308247
-0.306176
-0.303738
-0.301028
-0.298155
-0.295192
-0.292196
-0.289205
-0.286232
-0.283272
-0.280297
-0.277266
-0.274131
-0.270841
-0.267373
-0.26362
-0.259839
-0.254905
-0.252335
-0.313671
-0.311411
-0.309163
-0.306548
-0.303663
-0.300622
-0.297498
-0.294345
-0.291196
-0.288059
-0.284919
-0.28174
-0.278471
-0.275057
-0.271444
-0.2676
-0.263434
-0.259149
-0.253838
-0.250362
-0.317234
-0.314732
-0.312302
-0.309503
-0.306439
-0.303227
-0.299937
-0.296621
-0.293307
-0.289993
-0.286654
-0.283247
-0.279711
-0.275987
-0.272018
-0.267773
-0.263175
-0.258397
-0.252711
-0.248455
-0.320973
-0.318216
-0.315595
-0.312608
-0.30936
-0.305973
-0.302513
-0.299028
-0.295537
-0.292031
-0.288473
-0.284811
-0.280977
-0.27691
-0.272554
-0.267884
-0.262843
-0.257581
-0.251527
-0.2466
-0.324889
-0.321864
-0.319046
-0.315865
-0.31243
-0.308863
-0.305228
-0.301566
-0.297887
-0.294169
-0.290369
-0.286422
-0.282258
-0.277815
-0.273044
-0.267928
-0.262435
-0.256702
-0.250285
-0.244779
-0.328984
-0.325678
-0.322656
-0.319278
-0.315651
-0.311901
-0.308085
-0.304236
-0.300352
-0.296404
-0.292333
-0.28807
-0.283542
-0.27869
-0.273476
-0.267899
-0.261947
-0.255757
-0.248985
-0.242975
-0.333257
-0.329657
-0.326426
-0.322847
-0.319025
-0.315087
-0.311083
-0.307035
-0.30293
-0.298726
-0.294355
-0.289741
-0.284814
-0.279522
-0.273841
-0.267788
-0.261376
-0.254742
-0.247624
-0.24117
-0.337707
-0.333802
-0.330357
-0.326573
-0.322553
-0.318422
-0.314221
-0.309959
-0.305613
-0.301126
-0.296422
-0.291422
-0.28606
-0.280298
-0.27413
-0.26759
-0.260717
-0.253652
-0.246197
-0.239348
-0.34233
-0.33811
-0.334448
-0.330456
-0.326233
-0.321903
-0.317495
-0.313004
-0.308393
-0.303592
-0.298519
-0.293096
-0.287266
-0.281005
-0.27433
-0.267297
-0.259966
-0.252483
-0.2447
-0.237494
-0.347123
-0.342578
-0.338695
-0.334492
-0.330064
-0.325529
-0.3209
-0.316161
-0.311258
-0.30611
-0.300631
-0.294747
-0.288414
-0.28163
-0.274434
-0.266903
-0.259118
-0.251229
-0.243127
-0.235593
-0.352079
-0.347201
-0.343094
-0.33868
-0.334042
-0.329292
-0.32443
-0.31942
-0.314194
-0.308663
-0.30274
-0.296357
-0.28949
-0.28216
-0.27443
-0.2664
-0.258168
-0.249885
-0.241473
-0.233634
-0.357191
-0.351973
-0.347641
-0.343012
-0.338161
-0.333187
-0.328073
-0.322767
-0.317186
-0.311234
-0.304825
-0.297907
-0.290477
-0.282581
-0.27431
-0.265781
-0.257109
-0.248444
-0.23973
-0.231604
-0.362448
-0.356885
-0.352327
-0.347483
-0.342412
-0.337203
-0.331819
-0.326188
-0.320216
-0.313801
-0.306866
-0.299378
-0.291358
-0.282882
-0.274064
-0.26504
-0.255936
-0.2469
-0.237894
-0.229493
-0.367839
-0.361927
-0.357144
-0.352082
-0.346786
-0.341329
-0.335651
-0.329664
-0.323262
-0.316343
-0.308843
-0.300751
-0.292118
-0.283049
-0.273683
-0.264169
-0.254643
-0.245247
-0.235958
-0.227293
-0.373349
-0.367087
-0.362079
-0.356799
-0.35127
-0.345549
-0.339553
-0.333176
-0.326302
-0.318837
-0.310732
-0.302006
-0.29274
-0.283071
-0.273157
-0.263161
-0.253224
-0.243479
-0.233914
-0.224995
-0.378963
-0.37235
-0.367119
-0.361619
-0.355849
-0.349846
-0.343504
-0.336699
-0.329312
-0.321258
-0.312511
-0.303123
-0.29321
-0.282936
-0.272478
-0.26201
-0.251672
-0.24159
-0.231758
-0.222591
-0.384663
-0.3777
-0.372248
-0.366527
-0.360505
-0.354201
-0.347481
-0.340209
-0.332265
-0.32358
-0.314157
-0.304085
-0.293513
-0.282632
-0.271638
-0.260707
-0.249981
-0.239572
-0.229482
-0.220074
-0.390426
-0.383118
-0.377448
-0.371502
-0.365219
-0.35859
-0.351459
-0.343679
-0.335134
-0.325777
-0.315648
-0.304871
-0.293633
-0.282148
-0.270626
-0.259245
-0.248142
-0.237418
-0.227079
-0.217437
-0.39623
-0.388582
-0.382699
-0.376525
-0.369966
-0.362988
-0.35541
-0.347078
-0.337889
-0.327823
-0.31696
-0.305464
-0.293557
-0.281474
-0.269435
-0.257617
-0.24615
-0.235122
-0.224543
-0.214673
-0.40205
-0.394069
-0.387976
-0.381571
-0.374722
-0.367366
-0.359304
-0.350378
-0.340502
-0.329692
-0.318071
-0.305846
-0.29327
-0.280599
-0.268055
-0.255814
-0.243998
-0.232678
-0.221868
-0.211776
-0.407857
-0.399553
-0.393254
-0.386614
-0.379457
-0.371695
-0.363109
-0.353544
-0.342941
-0.331356
-0.318959
-0.306
-0.292761
-0.279511
-0.266479
-0.25383
-0.241676
-0.230077
-0.219046
-0.208739
-0.413622
-0.405006
-0.398506
-0.391624
-0.384141
-0.375941
-0.36679
-0.356545
-0.345177
-0.33279
-0.319604
-0.305909
-0.292014
-0.278202
-0.264696
-0.251655
-0.239179
-0.227313
-0.216072
-0.205557
-0.419311
-0.410397
-0.4037
-0.39657
-0.388741
-0.380069
-0.370314
-0.359346
-0.347179
-0.333968
-0.319984
-0.305557
-0.291019
-0.276659
-0.262698
-0.249282
-0.236499
-0.224378
-0.212937
-0.202225
-0.42489
-0.415694
-0.408804
-0.401419
-0.39322
-0.384044
-0.373643
-0.361914
-0.348917
-0.334865
-0.320079
-0.304928
-0.289763
-0.274874
-0.260476
-0.246702
-0.233627
-0.221267
-0.209637
-0.198735
-0.430323
-0.420861
-0.413783
-0.406133
-0.397543
-0.387826
-0.37674
-0.364213
-0.350362
-0.335456
-0.319871
-0.304008
-0.288233
-0.272836
-0.258021
-0.243909
-0.230558
-0.217971
-0.206165
-0.195083
-0.435572
-0.425862
-0.418601
-0.410676
-0.40167
-0.391378
-0.379568
-0.366212
-0.351484
-0.33572
-0.319342
-0.302783
-0.286418
-0.270536
-0.255325
-0.240892
-0.227282
-0.214484
-0.202514
-0.191263
-0.440596
-0.430659
-0.423218
-0.415007
-0.405559
-0.394658
-0.382089
-0.367875
-0.352257
-0.335632
-0.318474
-0.301238
-0.284308
-0.267963
-0.252379
-0.237646
-0.223793
-0.2108
-0.198678
-0.187271
-0.445355
-0.435212
-0.427594
-0.419086
-0.409172
-0.397627
-0.384266
-0.369171
-0.352653
-0.335173
-0.31725
-0.299361
-0.281891
-0.265108
-0.249173
-0.234161
-0.220084
-0.206912
-0.194653
-0.183101
-0.449808
-0.43948
-0.431689
-0.422872
-0.412464
-0.400244
-0.386063
-0.370068
-0.352646
-0.334322
-0.315655
-0.297138
-0.279156
-0.261963
-0.245702
-0.23043
-0.216147
-0.202814
-0.190431
-0.178749
-0.453909
-0.443421
-0.43546
-0.426319
-0.415394
-0.402469
-0.387443
-0.370536
-0.352213
-0.333061
-0.313674
-0.29456
-0.276094
-0.258518
-0.241955
-0.226446
-0.211977
-0.1985
-0.186009
-0.174211
-0.457617
-0.446993
-0.438863
-0.429387
-0.41792
-0.404263
-0.388372
-0.370546
-0.35133
-0.33137
-0.311293
-0.291613
-0.272696
-0.254765
-0.237925
-0.222202
-0.207567
-0.193965
-0.181381
-0.169481
-0.460887
-0.450151
-0.441856
-0.43203
-0.419999
-0.405587
-0.388816
-0.370071
-0.349977
-0.329235
-0.3085
-0.288288
-0.268952
-0.250695
-0.233606
-0.217692
-0.202911
-0.189202
-0.176543
-0.164558
-0.463676
-0.452854
-0.444395
-0.434207
-0.42159
-0.406404
-0.388743
-0.369086
-0.348133
-0.32664
-0.305282
-0.284574
-0.264853
-0.246302
-0.22899
-0.212908
-0.198004
-0.184209
-0.17149
-0.159437
-0.465941
-0.455059
-0.446438
-0.435875
-0.422654
-0.406678
-0.388125
-0.367566
-0.345781
-0.323572
-0.30163
-0.280463
-0.260392
-0.241578
-0.22407
-0.207846
-0.19284
-0.17898
-0.166219
-0.154116
-0.467639
-0.456723
-0.447941
-0.436993
-0.423152
-0.406376
-0.386933
-0.36549
-0.342903
-0.320017
-0.297532
-0.275947
-0.255562
-0.236517
-0.218842
-0.202501
-0.187415
-0.17351
-0.160727
-0.148592
-0.46873
-0.457805
-0.448864
-0.437521
-0.423047
-0.405465
-0.385141
-0.362839
-0.339486
-0.315964
-0.29298
-0.271017
-0.250356
-0.231113
-0.2133
-0.196867
-0.181726
-0.167798
-0.15501
-0.142862
-0.469174
-0.458266
-0.449167
-0.437419
-0.422305
-0.403917
-0.382727
-0.359595
-0.335517
-0.311404
-0.287966
-0.265668
-0.244768
-0.22536
-0.207439
-0.190941
-0.175768
-0.161839
-0.149066
-0.136925
-0.468931
-0.458066
-0.448812
-0.436653
-0.420893
-0.401705
-0.379669
-0.355742
-0.330983
-0.306329
-0.282483
-0.259894
-0.238794
-0.219255
-0.201256
-0.184719
-0.169538
-0.155631
-0.142893
-0.130779
-0.467967
-0.457169
-0.447762
-0.435188
-0.418781
-0.398804
-0.375948
-0.351267
-0.325876
-0.300731
-0.276527
-0.253691
-0.232429
-0.212794
-0.194747
-0.178199
-0.163035
-0.149172
-0.13649
-0.124425
-0.466247
-0.455541
-0.445984
-0.432993
-0.415942
-0.395192
-0.37155
-0.346159
-0.320187
-0.294604
-0.270092
-0.247054
-0.225671
-0.205974
-0.18791
-0.171378
-0.156256
-0.142459
-0.129856
-0.117865
-0.463739
-0.45315
-0.443446
-0.430038
-0.412351
-0.390851
-0.36646
-0.340409
-0.313911
-0.287945
-0.263175
-0.239981
-0.218517
-0.198794
-0.180744
-0.164256
-0.149199
-0.135491
-0.122989
-0.111091
-0.460415
-0.449966
-0.44012
-0.426299
-0.407988
-0.385766
-0.360667
-0.334009
-0.307044
-0.28075
-0.255775
-0.23247
-0.210966
-0.191253
-0.173248
-0.156831
-0.141866
-0.128268
-0.115884
-0.104063
-0.456248
-0.445962
-0.43598
-0.421751
-0.402835
-0.379922
-0.354164
-0.326956
-0.299582
-0.273019
-0.247892
-0.224522
-0.203018
-0.18335
-0.165422
-0.149106
-0.134257
-0.120796
-0.108541
-0.0967298
-0.451217
-0.441115
-0.431003
-0.416377
-0.396876
-0.37331
-0.346945
-0.319247
-0.291526
-0.264752
-0.239524
-0.216138
-0.194674
-0.175087
-0.157269
-0.141082
-0.126376
-0.113078
-0.100972
-0.0891555
-0.4453
-0.435405
-0.425171
-0.410159
-0.390099
-0.365923
-0.339006
-0.310881
-0.282876
-0.25595
-0.230676
-0.207318
-0.185936
-0.166467
-0.148791
-0.132762
-0.118226
-0.105113
-0.0931621
-0.0815377
-0.438482
-0.428815
-0.418468
-0.403086
-0.382497
-0.357757
-0.330347
-0.301859
-0.273636
-0.246617
-0.221349
-0.198067
-0.176808
-0.157492
-0.13999
-0.124149
-0.109811
-0.0969103
-0.0851277
-0.0737484
-0.430751
-0.421331
-0.41088
-0.395147
-0.374065
-0.348812
-0.320971
-0.292187
-0.263809
-0.236758
-0.211548
-0.188389
-0.167293
-0.148166
-0.130872
-0.115247
-0.101135
-0.0884688
-0.0768875
-0.0657581
-0.422096
-0.412942
-0.402401
-0.386338
-0.3648
-0.339088
-0.310882
-0.281869
-0.253402
-0.226378
-0.20128
-0.178288
-0.157396
-0.138494
-0.121442
-0.106062
-0.0922018
-0.0797941
-0.0684414
-0.0575659
-0.412513
-0.403644
-0.393024
-0.376656
-0.354705
-0.328591
-0.300085
-0.270914
-0.242424
-0.215485
-0.190551
-0.167773
-0.147125
-0.128486
-0.111703
-0.0965984
-0.0830167
-0.0708918
-0.0597906
-0.0491782
-0.401998
-0.393432
-0.382749
-0.366103
-0.343784
-0.317329
-0.288592
-0.259331
-0.230882
-0.204089
-0.17937
-0.156851
-0.136487
-0.118146
-0.101664
-0.0868636
-0.0735863
-0.0617679
-0.0509387
-0.0406023
-0.390555
-0.382308
-0.371577
-0.354684
-0.332045
-0.305311
-0.276413
-0.247131
-0.21879
-0.1922
-0.167746
-0.145532
-0.125491
-0.107481
-0.091333
-0.0768651
-0.0639179
-0.0524293
-0.0418912
-0.0318457
-0.378188
-0.370276
-0.359514
-0.342407
-0.319498
-0.29255
-0.263561
-0.23433
-0.20616
-0.179829
-0.155692
-0.133825
-0.114146
-0.0965027
-0.0807193
-0.0666114
-0.0540197
-0.0428834
-0.0326552
-0.0229163
-0.364906
-0.357344
-0.34657
-0.329283
-0.306159
-0.279061
-0.250054
-0.220941
-0.193006
-0.16699
-0.143218
-0.121742
-0.102463
-0.0852199
-0.0698322
-0.0561119
-0.0439007
-0.0331391
-0.0232389
-0.0138227
-0.350721
-0.343524
-0.332757
-0.315329
-0.292043
-0.264864
-0.235907
-0.206982
-0.179343
-0.153698
-0.130339
-0.109295
-0.0904533
-0.0736443
-0.0586825
-0.045377
-0.0335711
-0.0232058
-0.0136517
-0.00457435
-0.335649
-0.328831
-0.318092
-0.30056
-0.27717
-0.249977
-0.221143
-0.192471
-0.16519
-0.139969
-0.11707
-0.0964982
-0.0781302
-0.0617879
-0.0472816
-0.0344178
-0.0230418
-0.0130943
-0.00390428
0.00481786
-0.31971
-0.313283
-0.302594
-0.284999
-0.261562
-0.234424
-0.205784
-0.177427
-0.150565
-0.12582
-0.103425
-0.0833662
-0.0655073
-0.0496636
-0.0356419
-0.0232463
-0.0123245
-0.00281616
0.00599153
0.0143415
-0.302926
-0.296903
-0.286286
-0.268669
-0.245245
-0.21823
-0.189846
-0.161878
-0.135488
-0.111269
-0.0894218
-0.0699145
-0.0525989
-0.037285
-0.0237763
-0.0118752
-0.00143195
0.00761602
0.0160226
0.0239818
-0.285322
-0.279714
-0.269193
-0.251598
-0.228248
-0.201417
-0.17336
-0.145842
-0.119981
-0.0963352
-0.0750785
-0.0561596
-0.0394206
-0.0246666
-0.0116986
-0.000317712
0.00962265
0.0181888
0.0261743
0.0337217
-0.266928
-0.261744
-0.251343
-0.233817
-0.210602
-0.184008
-0.156354
-0.129345
-0.104066
-0.0810403
-0.0604139
-0.0421188
-0.0259882
-0.0118231
0.000577239
0.0114125
0.0208254
0.0288882
0.036431
0.0435412
-0.247773
-0.243025
-0.232768
-0.215356
-0.192316
-0.166055
-0.138856
-0.112413
-0.087767
-0.0654056
-0.0454479
-0.0278104
-0.0123185
0.00122975
0.0130367
0.0233013
0.0321623
0.0396997
0.0467756
0.0534152
-0.227891
-0.223591
-0.213504
-0.196247
-0.173442
-0.147575
-0.120894
-0.095073
-0.0711095
-0.049454
-0.0302012
-0.0132533
0.00157107
0.0144762
0.025665
0.035335
0.0436195
0.050609
0.0571888
0.0633103
-0.207317
-0.203479
-0.193586
-0.176512
-0.154026
-0.128603
-0.1025
-0.0773546
-0.0541193
-0.0332092
-0.0146954
0.00153276
0.0156626
0.0279
0.0384477
0.0474998
0.0551835
0.0616026
0.0676508
0.0731871
-0.186087
-0.182726
-0.173041
-0.156214
-0.134092
-0.109174
-0.0837073
-0.0592872
-0.0368233
-0.0166957
0.00104687
0.0165273
0.0299375
0.0414844
0.0513698
0.0597827
0.0668422
0.0726695
0.0781466
0.0830139
-0.164235
-0.161381
-0.15192
-0.135387
-0.113681
-0.0893255
-0.0645483
-0.0409014
-0.0192497
6.07236e-05
0.0170024
0.031709
0.0443767
0.0552126
0.0644169
0.0721707
0.0785838
0.0838029
0.088673
0.0927619
-0.141796
-0.139498
-0.130271
-0.114069
-0.0928323
-0.0690942
-0.045058
-0.022229
-0.00142742
0.0170338
0.0331471
0.0470562
0.0589605
0.0690673
0.0775743
0.0846512
0.0903992
0.0950044
0.0992252
0.102329
-0.118851
-0.117097
-0.108137
-0.0923041
-0.0715873
-0.0485191
-0.025272
-0.00330259
0.0166138
0.0341962
0.049456
0.0625459
0.0736685
0.0830307
0.0908271
0.0972134
0.102289
0.106293
0.109767
0.111456
-0.0954895
-0.09419
-0.0855605
-0.0701374
-0.0499885
-0.0276399
-0.00522681
0.0158445
0.0348435
0.05152
0.0659035
0.0781549
0.0884793
0.097084
0.10416
0.109849
0.114267
0.117709
0.120265
0.119929
-0.0716988
-0.0708655
-0.0625893
-0.0476145
-0.0280797
-0.00649703
0.0150403
0.0351781
0.0532302
0.0689765
0.0824632
0.0938588
0.103371
0.111207
0.117554
0.122547
0.126345
0.129268
0.130766
0.128396
-0.0475274
-0.0471781
-0.0392718
-0.0247822
-0.00590539
0.0148682
0.0354913
0.0546634
0.0717423
0.0865365
0.099108
0.109632
0.118319
0.125377
0.130988
0.135292
0.138495
0.140868
0.141215
0.139443
-0.0230302
-0.0231745
-0.0156567
-0.00168804
0.0164896
0.036414
0.0560878
0.0742652
0.0903471
0.10417
0.11581
0.12545
0.133301
0.139571
0.144441
0.148056
0.15065
0.152421
0.152118
0.151071
0.00173784
0.00109391
0.00820483
0.0216191
0.0390594
0.0580978
0.0767907
0.0939476
0.109012
0.121847
0.132542
0.141286
0.148291
0.153765
0.157888
0.160812
0.162778
0.163925
0.1631
0.162158
0.0267222
0.0255749
0.0322612
0.04509
0.0617574
0.0798767
0.0975606
0.113674
0.127703
0.139536
0.149275
0.157113
0.163264
0.167936
0.171307
0.173534
0.174857
0.175382
0.174071
0.172948
0.0518683
0.0502154
0.0564602
0.0686746
0.0845372
0.101708
0.118358
0.133409
0.146388
0.157207
0.16598
0.172905
0.178196
0.182059
0.184673
0.186198
0.186868
0.186771
0.184964
0.183523
0.0771211
0.0749619
0.0807493
0.092323
0.107352
0.123547
0.139143
0.153116
0.165033
0.174828
0.182629
0.188634
0.19306
0.196111
0.197965
0.198781
0.198792
0.198068
0.195745
0.193907
0.102425
0.09976
0.105076
0.115985
0.130154
0.145352
0.159875
0.172757
0.183603
0.192369
0.199192
0.204275
0.207833
0.210069
0.211159
0.211263
0.210608
0.209253
0.206397
0.204115
0.127725
0.124555
0.129386
0.13961
0.152897
0.167079
0.180516
0.192297
0.202066
0.209799
0.215641
0.2198
0.222489
0.223908
0.224234
0.223624
0.222299
0.220309
0.216908
0.214152
0.152965
0.149294
0.153628
0.163147
0.175534
0.188684
0.201024
0.211699
0.220387
0.227086
0.231948
0.235183
0.237003
0.237607
0.237168
0.235844
0.233847
0.23122
0.227267
0.224018
0.17809
0.17392
0.177748
0.186547
0.198019
0.210125
0.221361
0.230926
0.238534
0.244199
0.248084
0.250397
0.251351
0.251143
0.249942
0.247904
0.245236
0.241972
0.237463
0.233708
0.203044
0.19838
0.201695
0.20976
0.220304
0.231359
0.241487
0.249943
0.256473
0.261109
0.264021
0.265417
0.26551
0.264493
0.262533
0.259785
0.256448
0.252549
0.247485
0.243216
0.227773
0.22262
0.225414
0.232737
0.242344
0.252343
0.261365
0.268714
0.274172
0.277785
0.27973
0.280217
0.279455
0.277636
0.274924
0.27147
0.267468
0.262938
0.257323
0.252534
0.252222
0.246587
0.248856
0.255428
0.264094
0.273036
0.280954
0.287204
0.291597
0.294198
0.295185
0.294771
0.293163
0.29055
0.287092
0.28294
0.278279
0.273126
0.266965
0.261653
0.276337
0.270227
0.271969
0.277787
0.285509
0.293397
0.300218
0.305378
0.308718
0.310316
0.310358
0.309054
0.306611
0.303214
0.299021
0.294179
0.288867
0.283097
0.276398
0.270563
0.300066
0.293488
0.294702
0.299764
0.306546
0.313386
0.31912
0.323202
0.325503
0.326113
0.325223
0.323043
0.319777
0.315607
0.310689
0.305168
0.299215
0.292839
0.285611
0.279254
0.323356
0.31632
0.317007
0.321314
0.32716
0.332962
0.337622
0.340643
0.34192
0.341559
0.339753
0.336712
0.332637
0.327709
0.32208
0.315891
0.309308
0.302338
0.294591
0.287715
0.346156
0.338672
0.338836
0.342392
0.347311
0.352087
0.35569
0.357667
0.35794
0.356627
0.353923
0.350038
0.345172
0.3395
0.333174
0.326332
0.319132
0.311581
0.303325
0.295937
0.368416
0.360496
0.36014
0.362953
0.366956
0.370724
0.373288
0.374243
0.373534
0.371289
0.367707
0.362998
0.357358
0.350961
0.343954
0.336473
0.328671
0.320553
0.311803
0.303908
0.390087
0.381742
0.380874
0.382954
0.386056
0.388834
0.390384
0.39034
0.388672
0.38552
0.381083
0.37557
0.369177
0.362072
0.354403
0.3463
0.337911
0.329241
0.320011
0.311618
0.411123
0.402365
0.400994
0.402353
0.404572
0.406383
0.406943
0.405927
0.403327
0.399292
0.394024
0.387732
0.380607
0.372816
0.364503
0.355796
0.346837
0.337634
0.327938
0.319057
0.431476
0.422319
0.420455
0.421109
0.422466
0.423336
0.422934
0.420975
0.417472
0.412582
0.40651
0.399462
0.391628
0.383173
0.374237
0.364947
0.355437
0.345717
0.335572
0.326215
0.451103
0.441561
0.439217
0.439183
0.439703
0.43966
0.438326
0.435455
0.431081
0.425366
0.418517
0.410741
0.402224
0.393128
0.383591
0.373737
0.363696
0.353479
0.342901
0.333081
0.469961
0.460049
0.457238
0.456538
0.456246
0.455321
0.45309
0.449342
0.444128
0.437619
0.430024
0.421548
0.412374
0.402662
0.392548
0.382154
0.371602
0.360908
0.349915
0.339647
0.488008
0.477742
0.474481
0.473136
0.472063
0.47029
0.467197
0.462607
0.456589
0.44932
0.441011
0.431864
0.422061
0.41176
0.401094
0.390182
0.379142
0.367992
0.356602
0.345902
0.505206
0.494603
0.490908
0.488945
0.487122
0.484537
0.48062
0.475227
0.468442
0.460449
0.451458
0.441672
0.43127
0.420407
0.409215
0.397809
0.386304
0.374721
0.362953
0.351837
0.521517
0.510594
0.506485
0.50393
0.501392
0.498034
0.493334
0.487178
0.479664
0.470983
0.461346
0.450954
0.439983
0.428588
0.416896
0.405023
0.393076
0.381082
0.368957
0.357446
0.536906
0.525681
0.521178
0.51806
0.514844
0.510754
0.505314
0.498437
0.490235
0.480905
0.470658
0.459693
0.448186
0.436288
0.424126
0.411811
0.399448
0.387068
0.374605
0.362718
0.551339
0.53983
0.534956
0.531307
0.527452
0.522673
0.516537
0.508982
0.500135
0.490196
0.479376
0.467875
0.455865
0.443496
0.430892
0.418163
0.40541
0.392667
0.379888
0.367647
0.564785
0.553012
0.547789
0.543643
0.539189
0.533767
0.526981
0.518795
0.509346
0.498839
0.487486
0.475484
0.463006
0.450197
0.437182
0.424068
0.410952
0.397871
0.384798
0.372225
0.577214
0.565198
0.559651
0.555042
0.550033
0.544015
0.536627
0.527856
0.517851
0.506819
0.494972
0.482508
0.469596
0.456382
0.442987
0.429516
0.416064
0.402671
0.389328
0.376446
0.588601
0.576362
0.570515
0.565481
0.559962
0.553396
0.545456