/*--------------------------------*- C++ -*----------------------------------*\
  =========                 |
  \\      /  F ield         | OpenFOAM: The Open Source CFD Toolbox
   \\    /   O peration     | Website:  https://openfoam.org
    \\  /    A nd           | Version:  7
     \\/     M anipulation  |
\*---------------------------------------------------------------------------*/
FoamFile
{
    version     2.0;
    format      ascii;
    class       volScalarField;
    location    "120";
    object      p;
}
// * * * * * * * * * * * * * * * * * * * * * * * * * * * * * * * * * * * * * //

dimensions      [0 2 -2 0 0 0 0];

internalField   nonuniform List<scalar> 
4575
(
-0.258082
-0.228659
-0.219354
-0.230111
-0.253956
-0.27511
-0.276645
-0.253722
-0.215101
-0.174068
-0.139982
-0.116273
-0.103069
-0.0989136
-0.102186
-0.113472
-0.134004
-0.158928
-0.176877
-0.177549
-0.160967
-0.135848
-0.111204
-0.256423
-0.229315
-0.222413
-0.235598
-0.2614
-0.283287
-0.284209
-0.259871
-0.219604
-0.177086
-0.141811
-0.117154
-0.103114
-0.0981812
-0.100706
-0.111135
-0.130712
-0.154817
-0.172429
-0.173462
-0.157715
-0.133522
-0.109687
-0.254333
-0.229575
-0.225117
-0.240745
-0.268482
-0.291066
-0.291398
-0.26571
-0.223871
-0.179931
-0.143509
-0.117931
-0.103074
-0.0973762
-0.0991595
-0.108737
-0.127354
-0.150639
-0.167916
-0.169317
-0.154409
-0.131143
-0.108118
-0.251786
-0.229413
-0.227436
-0.245518
-0.275162
-0.298412
-0.298189
-0.271225
-0.227897
-0.182602
-0.145078
-0.118608
-0.102956
-0.0965057
-0.097556
-0.106286
-0.123941
-0.146405
-0.163348
-0.165121
-0.151054
-0.128712
-0.106496
-0.248765
-0.228807
-0.229345
-0.249884
-0.2814
-0.305294
-0.304562
-0.276406
-0.231679
-0.185102
-0.146523
-0.119191
-0.102765
-0.0955769
-0.0959033
-0.103794
-0.120486
-0.142128
-0.158736
-0.160881
-0.147652
-0.126231
-0.104821
-0.245254
-0.22774
-0.230819
-0.253814
-0.287162
-0.311685
-0.310499
-0.281246
-0.235214
-0.187432
-0.147848
-0.119687
-0.102509
-0.0945971
-0.0942093
-0.101269
-0.117
-0.13782
-0.15409
-0.156604
-0.144209
-0.123701
-0.103095
-0.241243
-0.226201
-0.231841
-0.257282
-0.292417
-0.317561
-0.315986
-0.285736
-0.238501
-0.189595
-0.149059
-0.1201
-0.102193
-0.0935735
-0.0924818
-0.0987204
-0.113493
-0.133491
-0.149421
-0.152297
-0.140728
-0.121127
-0.101318
-0.236729
-0.224182
-0.232397
-0.260266
-0.297138
-0.322902
-0.321011
-0.289871
-0.24154
-0.191592
-0.15016
-0.120436
-0.101825
-0.0925131
-0.0907286
-0.0961583
-0.109976
-0.129154
-0.144738
-0.147967
-0.137213
-0.118508
-0.0994899
-0.231713
-0.221681
-0.232478
-0.262748
-0.301303
-0.327692
-0.325564
-0.293648
-0.244331
-0.193429
-0.151156
-0.120703
-0.101411
-0.0914228
-0.088957
-0.093591
-0.106461
-0.124819
-0.14005
-0.143635
-0.133669
-0.115848
-0.0976131
-0.226203
-0.218704
-0.232081
-0.264713
-0.304894
-0.331919
-0.329638
-0.297064
-0.246876
-0.195107
-0.152053
-0.120905
-0.100957
-0.0903095
-0.0871744
-0.0910269
-0.102956
-0.120495
-0.135367
-0.139276
-0.1301
-0.11315
-0.0956883
-0.220213
-0.215259
-0.231205
-0.266152
-0.3079
-0.335576
-0.33323
-0.30012
-0.249176
-0.196633
-0.152857
-0.121049
-0.100469
-0.0891796
-0.0853876
-0.0884739
-0.0994711
-0.116192
-0.130698
-0.134909
-0.126509
-0.110416
-0.0937172
-0.0819591
-0.213765
-0.211364
-0.229857
-0.267059
-0.310312
-0.338658
-0.336338
-0.302815
-0.251235
-0.198009
-0.153571
-0.121141
-0.0999527
-0.0880398
-0.0836035
-0.0859396
-0.0960157
-0.11192
-0.126051
-0.130543
-0.122902
-0.10765
-0.0917015
-0.0806047
-0.206885
-0.207038
-0.228049
-0.267436
-0.31213
-0.341164
-0.338962
-0.305153
-0.253057
-0.19924
-0.154203
-0.121186
-0.0994149
-0.0868959
-0.0818285
-0.083431
-0.0925982
-0.107687
-0.121435
-0.126186
-0.119282
-0.104853
-0.089643
-0.0791967
-0.199608
-0.202309
-0.225794
-0.267285
-0.313354
-0.343098
-0.341107
-0.307137
-0.254645
-0.200332
-0.154757
-0.121191
-0.0988609
-0.085754
-0.0800687
-0.0809548
-0.0892265
-0.103501
-0.116857
-0.121845
-0.115654
-0.102029
-0.0875439
-0.0777362
-0.191973
-0.197208
-0.223112
-0.266615
-0.313992
-0.344469
-0.342778
-0.308772
-0.256005
-0.20129
-0.15524
-0.121161
-0.0982961
-0.0846197
-0.0783299
-0.078517
-0.0859082
-0.0993696
-0.112324
-0.117525
-0.112021
-0.0991824
-0.0854065
-0.0762243
-0.184026
-0.191771
-0.220026
-0.265439
-0.314054
-0.34529
-0.343982
-0.310063
-0.257141
-0.202118
-0.155655
-0.1211
-0.0977256
-0.0834981
-0.0766177
-0.0761235
-0.0826504
-0.0953004
-0.107844
-0.113233
-0.108389
-0.0963153
-0.0832334
-0.0746623
-0.175816
-0.186036
-0.216562
-0.263773
-0.313555
-0.345579
-0.344732
-0.311018
-0.25806
-0.202822
-0.156009
-0.121015
-0.0971544
-0.0823943
-0.0749371
-0.0737794
-0.0794594
-0.0912999
-0.103423
-0.108973
-0.10476
-0.0934315
-0.0810272
-0.073052
-0.1674
-0.180047
-0.212748
-0.261639
-0.312513
-0.345359
-0.345037
-0.311643
-0.258767
-0.203407
-0.156305
-0.120911
-0.0965872
-0.081313
-0.0732931
-0.0714896
-0.0763412
-0.0873747
-0.0990675
-0.104751
-0.10114
-0.0905344
-0.0787909
-0.0713953
-0.158836
-0.173847
-0.208615
-0.259059
-0.31095
-0.344644
-0.344911
-0.311948
-0.259268
-0.203878
-0.15655
-0.120791
-0.0960283
-0.0802585
-0.0716902
-0.0692585
-0.0733011
-0.0835304
-0.0947831
-0.100572
-0.0975312
-0.0876277
-0.0765274
-0.0696942
-0.150183
-0.167481
-0.204197
-0.256059
-0.308888
-0.343448
-0.344365
-0.311942
-0.259571
-0.204241
-0.156748
-0.120662
-0.095482
-0.0792347
-0.0701325
-0.06709
-0.0703438
-0.0797727
-0.0905751
-0.0964415
-0.0939387
-0.084715
-0.07424
-0.0679512
-0.141502
-0.160994
-0.199526
-0.252668
-0.306355
-0.341789
-0.343415
-0.311632
-0.259681
-0.204501
-0.156902
-0.120525
-0.0949521
-0.0782453
-0.0686239
-0.0649879
-0.0674737
-0.0761067
-0.0864485
-0.0923646
-0.0903663
-0.0818
-0.071932
-0.0661687
-0.132853
-0.154432
-0.194636
-0.248915
-0.303378
-0.339709
-0.342076
-0.311031
-0.259606
-0.204662
-0.157018
-0.120386
-0.0944421
-0.0772935
-0.0671677
-0.0629552
-0.0646945
-0.072537
-0.082408
-0.0883466
-0.0868183
-0.0788863
-0.0696068
-0.0643495
-0.124292
-0.147837
-0.189563
-0.244831
-0.299984
-0.337262
-0.340368
-0.310146
-0.259352
-0.204729
-0.157098
-0.120249
-0.0939554
-0.0763825
-0.0657672
-0.0609948
-0.0620094
-0.0690679
-0.0784579
-0.0843929
-0.083299
-0.0759779
-0.067268
-0.0624967
-0.115873
-0.14125
-0.184339
-0.240449
-0.296201
-0.334482
-0.338304
-0.30899
-0.258925
-0.204708
-0.157148
-0.120116
-0.093495
-0.0755147
-0.0644252
-0.0591092
-0.059421
-0.0657032
-0.0746021
-0.0805083
-0.0798127
-0.0730784
-0.0649191
-0.0606133
-0.107648
-0.13471
-0.178997
-0.235801
-0.292059
-0.331379
-0.335893
-0.307571
-0.258334
-0.204603
-0.157169
-0.11999
-0.0930636
-0.0746925
-0.063144
-0.0573006
-0.0569316
-0.0624462
-0.0708444
-0.0766977
-0.0763641
-0.0701918
-0.0625641
-0.0587028
-0.128251
-0.173568
-0.230919
-0.287587
-0.327926
-0.333148
-0.305901
-0.257584
-0.204418
-0.157165
-0.119875
-0.0926637
-0.073918
-0.0619257
-0.0555708
-0.0545431
-0.0592999
-0.067188
-0.0729657
-0.0729578
-0.067322
-0.0602065
-0.0567684
-0.121904
-0.168081
-0.225835
-0.282809
-0.323599
-0.330077
-0.303988
-0.256681
-0.204158
-0.157139
-0.119772
-0.0922975
-0.0731929
-0.060772
-0.0539215
-0.052257
-0.0562665
-0.0636359
-0.0693169
-0.069599
-0.0644729
-0.0578502
-0.054814
-0.115695
-0.162565
-0.220581
-0.277762
-0.317542
-0.326695
-0.301845
-0.255633
-0.203826
-0.157094
-0.119684
-0.091967
-0.0725187
-0.0596844
-0.0523538
-0.0500742
-0.0533481
-0.060191
-0.0657554
-0.0662725
-0.0616487
-0.0554991
-0.0528432
-0.109649
-0.157044
-0.215187
-0.27251
-0.312751
-0.323036
-0.299481
-0.254446
-0.203426
-0.157031
-0.119613
-0.091674
-0.0718966
-0.0586639
-0.0508688
-0.0479956
-0.050546
-0.0568553
-0.0622848
-0.0629879
-0.0588538
-0.053157
-0.0508597
-0.103783
-0.15154
-0.209683
-0.267081
-0.30786
-0.319116
-0.29691
-0.253126
-0.202962
-0.156954
-0.119559
-0.0914198
-0.0713275
-0.0577111
-0.049467
-0.0460216
-0.0478615
-0.0536306
-0.0589096
-0.06038
-0.056093
-0.0508279
-0.0488677
-0.0981124
-0.146075
-0.204095
-0.261486
-0.302755
-0.314965
-0.294141
-0.251679
-0.202437
-0.156862
-0.119524
-0.0912048
-0.0708117
-0.056826
-0.0481488
-0.044152
-0.045295
-0.0505183
-0.0556257
-0.0571942
-0.0533694
-0.0485156
-0.0468709
-0.0926489
-0.140666
-0.198446
-0.255748
-0.297465
-0.310596
-0.291186
-0.25011
-0.201852
-0.156758
-0.119509
-0.0910306
-0.0703502
-0.0560093
-0.0469146
-0.0423872
-0.0428472
-0.0475194
-0.0524371
-0.0540866
-0.0506897
-0.0462239
-0.0448735
-0.0874004
-0.135329
-0.192759
-0.249887
-0.291998
-0.306023
-0.288053
-0.248428
-0.201216
-0.156649
-0.11952
-0.0909026
-0.0699469
-0.0552631
-0.0457662
-0.0407281
-0.0405191
-0.0446352
-0.0493502
-0.0510874
-0.0480569
-0.0439568
-0.0428796
-0.0823718
-0.130075
-0.187049
-0.243919
-0.28636
-0.301255
-0.284753
-0.246641
-0.200538
-0.156542
-0.119563
-0.090824
-0.0696037
-0.0545879
-0.0447035
-0.039174
-0.03831
-0.0418649
-0.0463676
-0.048187
-0.0454762
-0.0417191
-0.0408935
-0.0775675
-0.124916
-0.181333
-0.237859
-0.280557
-0.296308
-0.281296
-0.244745
-0.199796
-0.15641
-0.119609
-0.0907729
-0.0693032
-0.0539696
-0.0437156
-0.0377158
-0.0362125
-0.0392018
-0.043484
-0.0453803
-0.042951
-0.0395151
-0.0389196
-0.0730002
-0.119874
-0.175644
-0.231748
-0.274633
-0.291228
-0.277695
-0.242709
-0.198934
-0.156189
-0.119605
-0.0907062
-0.0690141
-0.0533853
-0.042786
-0.036343
-0.0342222
-0.0366424
-0.0406924
-0.0426554
-0.0404776
-0.0373448
-0.0369604
-0.0686654
-0.114954
-0.169991
-0.225599
-0.268641
-0.286003
-0.273953
-0.240566
-0.198018
-0.155964
-0.119634
-0.0906979
-0.0687982
-0.0528855
-0.0419569
-0.0350931
-0.0323757
-0.034224
-0.0380296
-0.0400369
-0.0380704
-0.0352142
-0.0350184
-0.109974
-0.164137
-0.219103
-0.262305
-0.280379
-0.270058
-0.238567
-0.197461
-0.156186
-0.120099
-0.0910749
-0.0689058
-0.0526568
-0.0413698
-0.0340699
-0.0307427
-0.0320092
-0.0355917
-0.0376498
-0.0358381
-0.0331864
-0.0331247
-0.104818
-0.157864
-0.211958
-0.255054
-0.274239
-0.266014
-0.236775
-0.197317
-0.156869
-0.120981
-0.091793
-0.069272
-0.0526185
-0.0409333
-0.0331603
-0.0291754
-0.0298233
-0.0332297
-0.0354467
-0.0338313
-0.0313369
-0.031346
-0.101584
-0.153674
-0.207004
-0.249059
-0.269268
-0.261847
-0.233724
-0.195272
-0.155528
-0.120035
-0.0909925
-0.0684221
-0.0516102
-0.0397101
-0.0316099
-0.0270754
-0.0270561
-0.0300943
-0.0323965
-0.0311535
-0.0291626
-0.0294631
-0.101314
-0.153847
-0.207463
-0.249465
-0.265451
-0.255342
-0.225861
-0.187421
-0.148559
-0.114163
-0.0860418
-0.0640866
-0.04753
-0.0355853
-0.0272957
-0.0221625
-0.0206163
-0.0216277
-0.0224538
-0.0210494
-0.0210408
-0.0229082
-0.0291547
-0.100946
-0.148468
-0.195331
-0.229711
-0.243922
-0.233718
-0.206517
-0.171733
-0.136652
-0.105377
-0.07944
-0.0587614
-0.0428423
-0.0310852
-0.0225286
-0.0166967
-0.0142032
-0.0146608
-0.0156461
-0.0159342
-0.014952
-0.0172355
-0.0239365
-0.100952
-0.142855
-0.183253
-0.212361
-0.222936
-0.212795
-0.188202
-0.157089
-0.125545
-0.0970667
-0.0730691
-0.0535814
-0.0382663
-0.0266914
-0.0180027
-0.011716
-0.00839615
-0.00810748
-0.00891276
-0.00934023
-0.00928487
-0.0122074
-0.0194589
-0.100423
-0.136757
-0.170832
-0.194488
-0.201881
-0.192039
-0.170105
-0.142627
-0.114581
-0.0888829
-0.0668362
-0.0485745
-0.0339025
-0.0225589
-0.013829
-0.00721976
-0.00320933
-0.0021451
-0.00260575
-0.00308958
-0.00374561
-0.00718619
-0.0148076
-0.0986519
-0.129287
-0.15718
-0.175976
-0.181007
-0.171925
-0.152821
-0.128889
-0.104139
-0.0810342
-0.0608217
-0.0437536
-0.0297412
-0.0186673
-0.00997976
-0.0031802
0.00135938
0.00309338
0.00293769
0.00235922
0.0013081
-0.00240808
-0.0101014
-0.0954893
-0.120649
-0.143065
-0.157766
-0.161169
-0.153124
-0.13673
-0.116026
-0.0942647
-0.0735458
-0.0550554
-0.0391474
-0.0258127
-0.0150439
-0.00646233
0.000413801
0.00532467
0.00761841
0.00776312
0.00711037
0.00578367
0.00197326
-0.00557291
-0.0913895
-0.111563
-0.129328
-0.140699
-0.142969
-0.135983
-0.122005
-0.104145
-0.0850391
-0.0664809
-0.0495833
-0.034783
-0.0221345
-0.0117024
-0.00327403
0.0035853
0.00872833
0.0114803
0.0119332
0.0112401
0.00972728
0.00595261
-0.00130689
-0.0869257
-0.102768
-0.116582
-0.125271
-0.126696
-0.120638
-0.108712
-0.0932854
-0.0764924
-0.0598661
-0.0444302
-0.0306777
-0.0187166
-0.00865057
-0.000409201
0.00636277
0.0116208
0.0147296
0.0154968
0.0148222
0.0132138
0.00957902
0.00271239
-0.0824673
-0.0946225
-0.105166
-0.111665
-0.112389
-0.107065
-0.0968182
-0.0834314
-0.0686286
-0.0537152
-0.0396134
-0.0268441
-0.0155627
-0.00588938
0.00214032
0.0087765
0.0140551
0.0174224
0.0185048
0.0179272
0.0163168
0.0129135
0.00653188
-0.0782061
-0.0872988
-0.0951491
-0.0998239
-0.0999242
-0.0951399
-0.0862324
-0.0745362
-0.0614331
-0.0480293
-0.0351408
-0.023289
-0.0126716
-0.00341296
0.00438459
0.0108567
0.0160849
0.0196217
0.0210072
0.0206116
0.0190986
0.0160108
0.0101931
-0.074228
-0.0807892
-0.086419
-0.0895686
-0.0891008
-0.0846907
-0.0768392
-0.0665358
-0.0548791
-0.0428006
-0.0310124
-0.0200142
-0.0100378
-0.00120975
0.00633634
0.0126315
0.0177619
0.0213933
0.0230539
0.0229146
0.0216025
0.0189077
0.0137185
-0.0704824
-0.0749916
-0.0788028
-0.0806803
-0.0796992
-0.0755388
-0.0685162
-0.0593588
-0.048932
-0.0380148
-0.0272223
-0.0170169
-0.00765354
0.000736068
0.00801194
0.0141263
0.0191335
0.0228014
0.0246975
0.0248638
0.0238505
0.0216194
0.0171132
-0.0669385
-0.0697908
-0.0721221
-0.0729464
-0.0715113
-0.0675143
-0.0611446
-0.0529321
-0.0435528
-0.0336525
-0.0237593
-0.0142899
-0.00550874
0.00244281
0.00943166
0.0153629
0.0202406
0.0239048
0.0259942
0.0264846
0.0258478
0.0241453
0.020378
-0.0635513
-0.0650784
-0.0662162
-0.0661781
-0.0643527
-0.0604638
-0.0546135
-0.0471844
-0.0387
-0.0296911
-0.0206089
-0.0118221
-0.00359184
0.00392962
0.010619
0.0163626
0.0211156
0.0247544
0.0269991
0.0278073
0.0275932
0.0264776
0.023518
-0.0602807
-0.0607621
-0.0609489
-0.0602149
-0.0580648
-0.0542524
-0.0488222
-0.0420475
-0.0343311
-0.0261054
-0.017754
-0.0095995
-0.00188959
0.00521531
0.011599
0.0171476
0.021783
0.0253911
0.0277625
0.028863
0.0290885
0.0286026
0.0265361
-0.057099
-0.056768
-0.0562085
-0.0549236
-0.0525133
-0.0487627
-0.0436798
-0.0374574
-0.0304038
-0.0228685
-0.0151758
-0.00760594
-0.000387088
0.00631784
0.0123962
0.0177422
0.0222633
0.0258441
0.0283258
0.0296987
0.0303448
0.0304987
0.0294099
-0.0539882
-0.0530387
-0.0519049
-0.050194
-0.0475849
-0.0438932
-0.0391049
-0.0333546
-0.0268769
-0.0199526
-0.0128542
-0.00582413
0.000931857
0.0072545
0.0130329
0.018171
0.0225761
0.026133
0.0287166
0.0303423
0.0313798
0.0321398
0.0320647
-0.0509377
-0.0495297
-0.047965
-0.0459355
-0.0431844
-0.0395564
-0.0350253
-0.029684
-0.0237107
-0.0173298
-0.0107687
-0.00423634
0.00208416
0.0080422
0.0135294
0.0184576
0.0227419
0.0262732
0.0289514
0.0308129
0.0322067
0.0335031
0.0343765
-0.0479421
-0.0462066
-0.0443305
-0.0420735
-0.0392319
-0.0356767
-0.0313768
-0.0263954
-0.0208677
-0.0149724
-0.00889832
-0.00282482
0.00308678
0.00869755
0.0139035
0.0186231
0.0227806
0.0262796
0.0290418
0.0311169
0.0328264
0.0345669
0.0362178
-0.0449998
-0.0430434
-0.0409544
-0.0385467
-0.0356602
-0.0321895
-0.0281028
-0.0234431
-0.0183126
-0.0128537
-0.00722248
-0.0015721
0.00395622
0.00923667
0.0141718
0.0186855
0.0227108
0.0261677
0.0289969
0.0312553
0.033232
0.0353109
0.0375002
-0.0421119
-0.0400205
-0.0377989
-0.0353046
-0.0324129
-0.0290391
-0.0251537
-0.0207855
-0.0160127
-0.0109483
-0.00572101
-0.000461254
0.00470819
0.00967492
0.0143492
0.0186605
0.0225497
0.0259527
0.0288258
0.0312305
0.0334176
0.0357272
0.038213
-0.0392808
-0.0371229
-0.0348339
-0.0323058
-0.0294429
-0.0261781
-0.0224858
-0.0183857
-0.0139378
-0.00923206
-0.00437467
0.000523961
0.00535749
0.0100266
0.0144498
0.0185623
0.0223123
0.0256481
0.0285398
0.0310485
0.0333841
0.035823
0.0384087
-0.0365099
-0.0343395
-0.0320351
-0.0295163
-0.0267106
-0.0235659
-0.0200612
-0.0162105
-0.0120604
-0.00768281
-0.00316527
0.00139889
0.00591796
0.0103049
0.0144864
0.0184037
0.022011
0.0252664
0.0281514
0.0307208
0.0331416
0.0356218
0.0381708
-0.0338031
-0.0316619
-0.0293834
-0.0269083
-0.0241829
-0.0211679
-0.0178469
-0.0142306
-0.0103556
-0.00627995
-0.00207588
0.00217784
0.00640234
0.0105217
0.0144708
0.0181962
0.0216572
0.0248197
0.0276735
0.0302619
0.0327098
0.0351616
0.0375914
-0.0311642
-0.0290841
-0.0268631
-0.024459
-0.0218325
-0.018955
-0.0158146
-0.0124202
-0.00880112
-0.00500479
-0.00109089
0.00287403
0.00682232
0.010688
0.0144133
0.0179503
0.0212619
0.0243207
0.0271195
0.0296883
0.0321154
0.0344899
0.0367588
-0.028597
-0.0266014
-0.0244621
-0.0221496
-0.0196363
-0.0169023
-0.0139397
-0.0107565
-0.00737715
-0.00384042
-0.000196108
0.00349955
0.00718849
0.0108135
0.0143235
0.0176754
0.0208358
0.0237809
0.026503
0.0290201
0.0313898
0.0336565
0.0357504
-0.0261049
-0.0242106
-0.0221705
-0.0199648
-0.0175754
-0.0149889
-0.0122012
-0.00922009
-0.00606613
-0.00277176
0.000621253
0.00406527
0.00751039
0.010907
0.01421
0.0173803
0.020388
0.0232106
0.0258386
0.0282798
0.0305659
0.0327083
0.0346297
-0.023691
-0.021909
-0.0199803
-0.0178924
-0.015634
-0.0131973
-0.0105813
-0.00779382
-0.00485272
-0.00178546
0.00137261
0.00458094
0.00779653
0.0109763
0.0140802
0.0170731
0.0199271
0.0226205
0.0251417
0.027489
0.0296743
0.0316864
0.0334465
-0.0213578
-0.0196949
-0.0178853
-0.0159221
-0.0137992
-0.011513
-0.00906498
-0.00646319
-0.00372361
-0.000869805
0.00206804
0.00505517
0.00805444
0.0110282
0.0139409
0.0167607
0.0194613
0.0220212
0.0244265
0.0266678
0.0287424
0.0306248
0.0322391
-0.0191074
-0.0175667
-0.0158805
-0.0140457
-0.0120602
-0.00992362
-0.0076394
-0.0052158
-0.00266736
-1.46263e-05
0.00271633
0.00549552
0.00829064
0.0110686
0.013798
0.0164493
0.018998
0.0214222
0.0237059
0.025834
0.0277938
0.0295514
0.0310363
-0.0169413
-0.0155231
-0.0139616
-0.0122564
-0.0104082
-0.00841917
-0.00629398
-0.00404119
-0.0016742
0.000788796
0.00332507
0.00590849
0.00851083
0.0111029
0.0136564
0.0161445
0.0185435
0.0208318
0.0229915
0.0250031
0.0268478
0.0284877
0.029859
-0.0148606
-0.0135631
-0.0121253
-0.0105488
-0.00883623
-0.00699132
-0.00501991
-0.00293061
-0.000735927
0.00154786
0.0039007
0.00629966
0.00871983
0.0111353
0.0135207
0.0158509
0.0181037
0.0202573
0.0222929
0.0241879
0.0259201
0.0274504
0.0287225
-0.0128659
-0.0116855
-0.0103687
-0.00891838
-0.00733829
-0.00563329
-0.00380992
-0.00187682
0.000154326
0.00226877
0.00444864
0.00667366
0.00892171
0.0111696
0.0133943
0.0155727
0.0176834
0.0197049
0.0216179
0.0233985
0.0250225
0.0264516
0.0276371
-0.0109573
-0.0098894
-0.00868962
-0.0073615
-0.00590964
-0.00433954
-0.0026581
-0.00087386
0.00100219
0.00295662
0.00497337
0.00703434
0.00911976
0.0112087
0.0132803
0.0153129
0.0172865
0.0191798
0.0209731
0.0226428
0.0241637
0.0255
0.0266093
-0.00913469
-0.00817365
-0.00708586
-0.00587514
-0.00454644
-0.00310561
-0.00155966
8.30708e-05
0.00181224
0.00361555
0.00547849
0.00738475
0.00931658
0.011255
0.0131809
0.0150742
0.016916
0.0186856
0.0203636
0.0219264
0.0233498
0.0246011
0.0256433
-0.0073975
-0.00653721
-0.00555568
-0.00445678
-0.00324555
-0.00192789
-0.000510751
0.000997816
0.00258813
0.00424886
0.00596683
0.00772728
0.00951415
0.0113102
0.0130979
0.0148585
0.0165741
0.018225
0.0197923
0.0212535
0.0225854
0.0237585
0.0247406
-0.00574492
-0.00497892
-0.00409747
-0.00310434
-0.00200444
-0.000803536
0.000491634
0.00187339
0.00333269
0.00485907
0.00644054
0.00806367
0.00971388
0.0113754
0.0130322
0.0146668
0.0162623
0.0177998
0.0192616
0.0206266
0.0218728
0.0229739
0.0239018
-0.0041759
-0.00349754
-0.00270975
-0.00181604
-0.000821048
0.000269728
0.00144987
0.00271212
0.00404807
0.00544808
0.00690118
0.00839514
0.00991667
0.0114514
0.0129844
0.0144996
0.0159812
0.0174114
0.018773
0.0200466
0.0212126
0.0222475
0.0231261
-0.00268916
-0.00209183
-0.00139115
-0.000590342
0.000306319
0.00129369
0.00236576
0.00351575
0.00473585
0.00601721
0.00734979
0.00872242
0.010123
0.0115383
0.0129546
0.0143571
0.0157309
0.0170596
0.0183269
0.0195145
0.0206062
0.0215783
0.0224114
-0.00128324
-0.000760417
-0.000140347
0.000574095
0.00137903
0.00226974
0.00324066
0.00428552
0.00539712
0.00656732
0.00778695
0.00904582
0.0103328
0.0116359
0.0129424
0.0142387
0.0155109
0.0167438
0.0179224
0.0190295
0.0200496
0.020964
0.0217552
4.34574e-05
0.000498093
0.00104394
0.00167848
0.00239825
0.00319898
0.00407559
0.00502232
0.00603256
0.00709888
0.00821288
0.00936527
0.0105459
0.0117437
0.0129472
0.0141436
0.0153202
0.0164631
0.0175582
0.0185902
0.0195438
0.0204036
0.0211546
0.00129258
0.00168512
0.00216296
0.00272392
0.00336496
0.00408227
0.00487126
0.00572668
0.00664253
0.007612
0.00862747
0.00968044
0.0107617
0.011861
0.0129679
0.0140707
0.0151577
0.016216
0.0172328
0.0181942
0.0190865
0.019895
0.0206073
0.00246592
0.00280213
0.00321791
0.0037114
0.00427997
0.00492026
0.00562815
0.00639892
0.00722711
0.00810657
0.00903034
0.0099907
0.0109792
0.0119867
0.0130034
0.0140187
0.0150218
0.0160009
0.0169444
0.0178396
0.0186743
0.0194357
0.0201125
0.00356528
0.00385062
0.00421001
0.0046419
0.00514403
0.00571347
0.00634658
0.00703913
0.0077862
0.00858222
0.00942091
0.0102952
0.0111976
0.0121195
0.0130521
0.0139858
0.0149106
0.0158158
0.0166908
0.0175241
0.0183049
0.0190217
0.0196646
0.00459242
0.00483205
0.00514042
0.0055163
0.00595777
0.0064623
0.00702671
0.00764724
0.00831949
0.00903845
0.00979843
0.0105931
0.0114155
0.012258
0.0131125
0.0139702
0.0148222
0.0156585
0.0164696
0.0172452
0.0179753
0.0186501
0.0192603
0.00554918
0.00574788
0.00601028
0.00633542
0.00672173
0.00716705
0.0076686
0.00822308
0.00882657
0.00947458
0.010162
0.0108831
0.0116316
0.0124007
0.0131828
0.0139702
0.0147544
0.0155268
0.0162784
0.0170001
0.0176829
0.018318
0.018897
0.00643737
0.00659956
0.00682068
0.00710008
0.00743644
0.00782795
0.00827223
0.00876637
0.00930692
0.00988987
0.0105107
0.0111641
0.0118446
0.0125459
0.0132613
0.0139835
0.0147052
0.0154183
0.0161148
0.0167863
0.0174249
0.0180226
0.018572
0.0072587
0.00738845
0.0075727
0.007811
0.00810233
0.00844516
0.00883747
0.00927674
0.00975992
0.0102835
0.0108433
0.0114348
0.0120529
0.0126919
0.0133459
0.0140083
0.0146722
0.0153306
0.0159761
0.0166012
0.0171986
0.0177612
0.0182823
0.00801473
0.00811576
0.0082672
0.00846879
0.00871972
0.00901875
0.00936415
0.00975375
0.0101849
0.0106545
0.0111588
0.0116938
0.0122549
0.0128371
0.0134348
0.0140423
0.0146533
0.0152614
0.0158599
0.016442
0.0170013
0.0175311
0.0180255
0.0087068
0.0087826
0.00890506
0.00907402
0.00928891
0.00954871
0.00985199
0.0101969
0.0105811
0.0110019
0.011456
0.0119398
0.0124492
0.0129796
0.0135262
0.0140836
0.0146462
0.0152083
0.0157637
0.0163064
0.0168304
0.0173297
0.0177989
0.00933616
0.00939001
0.00948697
0.00962712
0.00981005
0.010035
0.0103007
0.0106056
0.0109477
0.0113247
0.0117336
0.0121713
0.012634
0.0131177
0.013618
0.01413
0.0146488
0.015169
0.0156852
0.0161918
0.0166834
0.0171546
0.0176003
0.00990387
0.00993867
0.0100134
0.0101283
0.0102832
0.0104773
0.0107097
0.0109792
0.0112839
0.0116218
0.0119905
0.0123869
0.0128078
0.0132497
0.0137084
0.0141797
0.0146589
0.0151414
0.0156222
0.0160961
0.0165582
0.0170035
0.0174275
0.0104108
0.0104292
0.0104848
0.0105778
0.0107081
0.0108753
0.0110786
0.0113169
0.0115887
0.0118922
0.0122252
0.0125851
0.012969
0.0133737
0.0137955
0.0142305
0.0146746
0.0151234
0.0155724
0.0160169
0.0164524
0.0168744
0.0172785
0.0108575
0.010862
0.0109012
0.0109754
0.0110846
0.0112285
0.0114065
0.0116178
0.0118609
0.0121344
0.0124364
0.0127644
0.0131159
0.013488
0.0138774
0.0142806
0.0146937
0.0151129
0.0155338
0.0159524
0.0163642
0.0167653
0.0171515
0.0112443
0.0112371
0.0112625
0.0113208
0.011412
0.0115362
0.0116927
0.0118809
0.0120995
0.0123474
0.0126226
0.0129233
0.013247
0.0135911
0.0139525
0.0143282
0.0147146
0.015108
0.0155046
0.0159006
0.0162918
0.0166746
0.0170449
0.0115708
0.0115541
0.011568
0.0116132
0.0116896
0.0117974
0.011936
0.0121049
0.0123031
0.0125295
0.0127824
0.0130602
0.0133605
0.013681
0.014019
0.0143716
0.0147354
0.0151071
0.0154832
0.0158599
0.0162337
0.0166007
0.0169574
0.0118361
0.0118119
0.0118168
0.0118515
0.0119161
0.0120107
0.012135
0.0122884
0.0124702
0.0126792
0.0129142
0.0131733
0.0134548
0.0137563
0.0140753
0.014409
0.0147545
0.0151086
0.0154679
0.015829
0.0161884
0.0165426
0.0168881
0.0120391
0.0120092
0.0120074
0.0120342
0.0120899
0.0121745
0.0122879
0.0124296
0.0125989
0.0127948
0.013016
0.0132611
0.0135282
0.0138151
0.0141196
0.014439
0.0147705
0.0151111
0.0154576
0.0158067
0.0161551
0.0164993
0.0168361
0.0121777
0.0121439
0.0121376
0.0121591
0.0122087
0.0122866
0.0123927
0.0125264
0.0126872
0.0128742
0.0130862
0.0133216
0.0135789
0.013856
0.0141506
0.0144602
0.0147822
0.0151136
0.0154513
0.0157922
0.0161329
0.0164704
0.0168012
0.0122489
0.0122133
0.0122046
0.0122234
0.0122699
0.0123444
0.0124467
0.0125763
0.0127328
0.0129152
0.0131224
0.013353
0.0136052
0.0138772
0.0141667
0.0144713
0.0147884
0.015115
0.0154482
0.0157849
0.0161218
0.0164557
0.0167834
0.0102022
0.0102823
0.0103885
0.0105207
0.0106785
0.0108615
0.011069
0.0113001
0.0115537
0.0118286
0.0121233
0.0124361
0.0127655
0.0131094
0.0134659
0.0138331
0.0142089
0.014591
0.0149775
0.0153661
0.0157548
0.0161414
0.0101372
0.0102205
0.0103301
0.010466
0.0106279
0.0108151
0.0110269
0.0112625
0.0115207
0.0118001
0.0120993
0.0124166
0.0127502
0.0130982
0.0134587
0.0138296
0.0142087
0.0145941
0.0149834
0.0153748
0.0157659
0.0161547
0.0100109
0.0101004
0.0102168
0.0103601
0.0105299
0.0107253
0.0109457
0.0111901
0.0114571
0.0117454
0.0120534
0.0123792
0.0127211
0.0130771
0.0134451
0.0138231
0.0142089
0.0146003
0.0149953
0.0153918
0.0157876
0.0161806
0.00982615
0.00992482
0.0100515
0.0102057
0.0103871
0.0105948
0.0108279
0.0110852
0.0113653
0.0116666
0.0119874
0.0123259
0.0126799
0.0130475
0.0134265
0.0138147
0.0142101
0.0146104
0.0150135
0.0154173
0.0158197
0.0162188
0.00958502
0.00969607
0.00983629
0.0100052
0.0102021
0.010426
0.0106759
0.0109503
0.0112476
0.0115661
0.0119037
0.0122586
0.0126284
0.0130111
0.0134043
0.0138058
0.0142134
0.014625
0.0150384
0.0154515
0.0158624
0.0162691
0.00928908
0.00941582
0.00957321
0.00976055
0.00997693
0.0102212
0.010492
0.0107877
0.0111064
0.0114461
0.0118046
0.0121796
0.0125688
0.0129698
0.0133802
0.0137978
0.0142202
0.0146452
0.0150708
0.015495
0.0159158
0.0163315
0.0089394
0.00908538
0.00926375
0.00947353
0.00971359
0.00998251
0.0102786
0.0105999
0.0109442
0.0113092
0.0116924
0.0120913
0.0125033
0.0129258
0.0133563
0.0137924
0.0142318
0.0146722
0.0151117
0.0155484
0.0159803
0.016406
0.0085367
0.00870588
0.0089092
0.00914571
0.0094139
0.009712
0.0100379
0.0103893
0.0107636
0.0111581
0.01157
0.0119964
0.0124345
0.0128815
0.0133347
0.0137916
0.0142499
0.0147074
0.0151621
0.0156123
0.0160564
0.0164929
0.00808127
0.00827765
0.00851052
0.00877846
0.00907963
0.00941178
0.00977235
0.0101585
0.0105673
0.0109956
0.01144
0.0118976
0.012365
0.0128393
0.0133176
0.0137974
0.0142762
0.014752
0.015223
0.0156876
0.0161443
0.0165921
0.00757318
0.00780156
0.00806888
0.00837335
0.00871266
0.00908402
0.00948433
0.00991025
0.0103582
0.0108246
0.0113057
0.0117979
0.0122978
0.0128021
0.0133077
0.013812
0.0143127
0.0148078
0.0152956
0.0157749
0.0162446
0.0167038
0.00701242
0.00727799
0.00758521
0.00793177
0.00831483
0.008731
0.00917651
0.00964739
0.0101394
0.0106485
0.0111702
0.0117007
0.012236
0.0127727
0.0133075
0.0138378
0.0143612
0.0148761
0.015381
0.0158751
0.0163575
0.0168279
0.00639878
0.00670733
0.00706041
0.00745518
0.00788815
0.00835518
0.00885176
0.00937315
0.00991445
0.0104708
0.0110373
0.0116095
0.0121831
0.0127543
0.0133199
0.0138771
0.0144238
0.0149586
0.0154804
0.0159888
0.0164834
0.0169645
0.00573202