/*--------------------------------*- C++ -*----------------------------------*\
  =========                 |
  \\      /  F ield         | OpenFOAM: The Open Source CFD Toolbox
   \\    /   O peration     | Website:  https://openfoam.org
    \\  /    A nd           | Version:  7
     \\/     M anipulation  |
\*---------------------------------------------------------------------------*/
FoamFile
{
    version     2.0;
    format      ascii;
    class       volVectorField;
    location    "120";
    object      U;
}
// * * * * * * * * * * * * * * * * * * * * * * * * * * * * * * * * * * * * * //

dimensions      [0 1 -1 0 0 0 0];

internalField   nonuniform List<vector> 
4575
(
(0.256324 0.709039 4.46478e-22)
(0.250702 0.718774 -2.01661e-22)
(0.231657 0.706006 -2.04575e-22)
(0.235921 0.632754 2.20319e-22)
(0.294934 0.466799 -2.4269e-22)
(0.392841 0.226903 -3.34076e-22)
(0.502621 -0.0345932 9.3871e-23)
(0.606658 -0.267191 3.83634e-22)
(0.69257 -0.438178 1.7063e-22)
(0.754127 -0.53982 -5.54761e-22)
(0.790113 -0.585954 2.83964e-22)
(0.803568 -0.596892 -1.09874e-22)
(0.802836 -0.587222 -5.44783e-23)
(0.791067 -0.573462 8.95452e-23)
(0.761182 -0.574264 9.15414e-23)
(0.712076 -0.580482 5.83356e-26)
(0.664228 -0.54161 -1.22368e-22)
(0.645554 -0.409689 1.84844e-23)
(0.664792 -0.19371 -3.34019e-22)
(0.711981 0.0461091 3.09906e-22)
(0.769939 0.248399 -9.66021e-23)
(0.821307 0.385165 5.64201e-23)
(0.856915 0.458687 -2.25756e-22)
(0.237155 0.707477 2.18268e-21)
(0.235112 0.72018 -1.2767e-22)
(0.222537 0.706592 -1.17518e-21)
(0.237289 0.627933 9.98489e-22)
(0.305986 0.455975 -2.05057e-21)
(0.409209 0.213194 2.11824e-21)
(0.520904 -0.0483626 -6.08232e-23)
(0.624536 -0.279219 -4.72522e-22)
(0.708346 -0.447368 -1.26378e-21)
(0.76687 -0.545782 1.39109e-21)
(0.799787 -0.588881 -8.90623e-22)
(0.810405 -0.597561 7.14419e-22)
(0.807155 -0.586396 -9.41482e-23)
(0.793684 -0.570955 -9.56571e-22)
(0.763017 -0.569645 8.2788e-22)
(0.713119 -0.574927 -5.41222e-22)
(0.663383 -0.537897 5.80921e-22)
(0.642166 -0.409833 -3.2069e-23)
(0.659317 -0.197515 -1.86892e-22)
(0.705341 0.0402526 7.23717e-22)
(0.763097 0.242422 -1.08161e-21)
(0.815121 0.380478 8.66429e-22)
(0.852107 0.455661 -7.83205e-22)
(0.218583 0.705379 3.98007e-21)
(0.220429 0.720834 -3.0322e-21)
(0.214897 0.70608 -7.22571e-22)
(0.24038 0.622051 -1.75494e-22)
(0.31832 0.44469 4.33016e-21)
(0.426396 0.199643 -1.44961e-23)
(0.539692 -0.0616367 -1.48945e-21)
(0.642713 -0.290625 9.41933e-22)
(0.724291 -0.455936 -7.39796e-22)
(0.77969 -0.551215 5.84565e-23)
(0.809503 -0.591399 5.69512e-23)
(0.81731 -0.597918 -1.61838e-22)
(0.811573 -0.585356 -6.20672e-23)
(0.796417 -0.568332 -1.46801e-22)
(0.765009 -0.564946 8.57203e-22)
(0.714411 -0.56926 -8.94699e-22)
(0.662866 -0.534086 -9.37627e-23)
(0.639097 -0.410014 -8.71923e-22)
(0.654112 -0.201516 7.50989e-22)
(0.698909 0.0341173 -1.02189e-23)
(0.756397 0.236158 5.26507e-22)
(0.809034 0.375527 -5.63544e-23)
(0.847379 0.452407 2.24621e-22)
(0.200675 0.702705 3.21546e-21)
(0.206744 0.72067 -3.12421e-21)
(0.208803 0.704436 2.28026e-21)
(0.245145 0.615156 -4.58067e-21)
(0.331848 0.433028 2.26517e-21)
(0.444328 0.186311 -1.16944e-21)
(0.558924 -0.0743827 1.86652e-21)
(0.661146 -0.301393 -2.7778e-21)
(0.740377 -0.46388 1.66744e-21)
(0.792577 -0.556122 8.83268e-22)
(0.819254 -0.593517 6.15804e-22)
(0.82428 -0.597974 4.42794e-22)
(0.816093 -0.584111 -1.04089e-21)
(0.79927 -0.565605 -6.35876e-22)
(0.767155 -0.560184 -1.84111e-24)
(0.715951 -0.563494 8.23823e-22)
(0.662684 -0.530174 1.48015e-21)
(0.636356 -0.410213 -1.26236e-22)
(0.649185 -0.205696 2.01979e-22)
(0.69269 0.0277156 -9.04975e-22)
(0.749844 0.229614 2.54484e-22)
(0.803046 0.370313 -2.2411e-23)
(0.842731 0.448922 -1.49885e-21)
(0.183507 0.699411 2.36385e-21)
(0.19415 0.719624 -1.64686e-21)
(0.204309 0.701638 2.5495e-21)
(0.251526 0.607305 -8.95552e-22)
(0.346484 0.421071 1.00489e-21)
(0.462927 0.173251 -4.51569e-21)
(0.578543 -0.0865716 5.71444e-21)
(0.679796 -0.311512 -2.37591e-23)
(0.75658 -0.471197 -1.53823e-21)
(0.805515 -0.560506 -2.53723e-21)
(0.829034 -0.595244 6.15577e-22)
(0.831314 -0.59774 -6.09778e-22)
(0.820715 -0.582669 7.59757e-22)
(0.802243 -0.562783 -1.65216e-22)
(0.769455 -0.555372 -2.97152e-22)
(0.717738 -0.557639 8.88789e-23)
(0.662844 -0.526155 7.1279e-22)
(0.633953 -0.410414 3.66328e-22)
(0.644541 -0.210036 3.58697e-23)
(0.686688 0.0210609 1.23046e-21)
(0.743437 0.222795 -5.57588e-22)
(0.797159 0.364835 -1.42709e-21)
(0.838161 0.445203 6.12318e-22)
(0.167159 0.695452 -5.14616e-21)
(0.182734 0.717639 1.99334e-21)
(0.201454 0.697674 1.83582e-23)
(0.259454 0.598563 -5.99487e-21)
(0.362135 0.408898 5.1053e-21)
(0.482114 0.160514 -9.65738e-22)
(0.59849 -0.0981783 -9.63441e-23)
(0.69862 -0.320973 6.39311e-21)
(0.772872 -0.477887 -4.44577e-21)
(0.818494 -0.564374 2.6916e-21)
(0.838837 -0.596591 -1.14698e-21)
(0.838408 -0.597226 -1.30182e-21)
(0.825441 -0.581039 1.59118e-21)
(0.805337 -0.559877 -9.066e-22)
(0.771908 -0.550526 -5.94315e-22)
(0.719767 -0.551706 -1.89439e-23)
(0.663348 -0.522026 -1.71871e-21)
(0.631897 -0.410599 9.06009e-22)
(0.640187 -0.214517 -2.1823e-21)
(0.680907 0.0141668 -7.02004e-22)
(0.737181 0.215708 2.06872e-21)
(0.791373 0.359095 9.98228e-22)
(0.833666 0.441248 8.70756e-22)
(0.151716 0.690785 -6.92012e-21)
(0.172584 0.714664 3.65522e-21)
(0.200261 0.692547 -6.00765e-21)
(0.268849 0.588998 -1.88121e-21)
(0.378709 0.396583 2.14774e-21)
(0.50181 0.148144 -2.84724e-21)
(0.618706 -0.109181 -1.85781e-21)
(0.717581 -0.329769 -1.02514e-21)
(0.789229 -0.483953 3.53118e-21)
(0.8315 -0.567731 3.04143e-21)
(0.848655 -0.597567 2.55389e-21)
(0.845561 -0.596445 -2.71583e-21)
(0.83027 -0.579231 2.55908e-21)
(0.808554 -0.556897 -1.3093e-21)
(0.774511 -0.545659 -1.32892e-21)
(0.722034 -0.545709 1.89138e-21)
(0.6642 -0.517784 1.48346e-21)
(0.630195 -0.41075 -4.31905e-21)
(0.636126 -0.219119 1.23019e-21)
(0.675348 0.00704782 9.07268e-22)
(0.731074 0.20836 -9.98007e-22)
(0.785686 0.353093 1.00106e-21)
(0.829246 0.437055 -1.04344e-21)
(0.137268 0.685366 -1.67591e-22)
(0.163781 0.710656 1.62416e-21)
(0.200736 0.68627 4.89283e-21)
(0.279627 0.578685 -3.35496e-21)
(0.39611 0.384196 7.16206e-22)
(0.521935 0.136181 1.63077e-22)
(0.639135 -0.119564 -3.83282e-21)
(0.736638 -0.337896 -2.5708e-21)
(0.805625 -0.489397 6.57081e-21)
(0.844519 -0.570583 -1.02089e-21)
(0.858484 -0.598183 -2.19403e-21)
(0.852767 -0.595408 -1.70462e-21)
(0.835202 -0.577253 2.66007e-21)
(0.811892 -0.553851 -1.8646e-21)
(0.777261 -0.540787 2.98245e-22)
(0.724532 -0.53966 -1.07568e-21)
(0.6654 -0.513428 2.63637e-21)
(0.628856 -0.410847 -2.71405e-21)
(0.632364 -0.22382 1.12118e-21)
(0.670013 -0.000279132 2.27535e-21)
(0.72512 0.200758 -3.42628e-21)
(0.780101 0.346831 -7.44336e-22)
(0.824897 0.432622 1.59308e-21)
(0.123909 0.679154 3.21856e-21)
(0.156402 0.705583 1.21871e-21)
(0.202871 0.678869 -2.01736e-21)
(0.291696 0.567701 2.58799e-21)
(0.414243 0.371804 7.04831e-21)
(0.54241 0.124659 -1.22983e-20)
(0.65972 -0.129311 2.66201e-21)
(0.755756 -0.345352 5.36714e-21)
(0.822035 -0.494225 -2.36807e-21)
(0.857541 -0.572939 6.03016e-21)
(0.868316 -0.598447 -6.3099e-21)
(0.860024 -0.594125 2.12521e-21)
(0.840239 -0.575113 -2.54635e-21)
(0.815353 -0.550749 2.40961e-22)
(0.780156 -0.535921 -4.20106e-22)
(0.727255 -0.533573 1.91319e-21)
(0.666946 -0.508956 -1.01093e-21)
(0.627887 -0.410873 -1.74882e-21)
(0.628906 -0.228599 -9.22086e-22)
(0.664903 -0.00779862 4.09584e-21)
(0.719318 0.19291 1.92754e-21)
(0.774615 0.34031 4.13596e-22)
(0.820618 0.427948 -1.13148e-21)
(0.111735 0.672115 4.17272e-21)
(0.150519 0.699422 5.72601e-21)
(0.206642 0.670378 -4.72056e-21)
(0.304961 0.556122 -1.50158e-20)
(0.433009 0.359467 -3.24621e-21)
(0.563155 0.113608 1.66716e-21)
(0.680407 -0.138414 2.01977e-20)
(0.774897 -0.352138 -1.31632e-20)
(0.838435 -0.498442 4.90024e-21)
(0.87055 -0.574806 -6.41482e-21)
(0.878145 -0.598371 3.42178e-21)
(0.867328 -0.592609 -1.44402e-21)
(0.845378 -0.572819 9.60467e-22)
(0.818934 -0.547597 -1.54114e-21)
(0.783192 -0.531075 1.11631e-22)
(0.730193 -0.527462 -1.39358e-21)
(0.668835 -0.50437 2.67488e-21)
(0.627294 -0.41081 -2.15767e-21)
(0.625754 -0.233433 1.62166e-21)
(0.660021 -0.015501 -3.56165e-21)
(0.71367 0.184823 7.46762e-22)
(0.769229 0.333532 -3.77709e-21)
(0.816407 0.423032 1.96006e-21)
(0.100848 0.664215 -6.85057e-22)
(0.146195 0.692159 7.66569e-21)
(0.21201 0.660844 -9.32499e-21)
(0.319323 0.544027 1.67431e-21)
(0.45231 0.347241 -9.91994e-21)
(0.584093 0.103054 1.48653e-20)
(0.701143 -0.146866 9.70368e-21)
(0.794027 -0.358256 -4.17529e-22)
(0.854801 -0.502057 -1.15885e-20)
(0.883536 -0.576193 2.22927e-21)
(0.887965 -0.597965 6.72267e-21)
(0.874674 -0.59087 -1.54664e-21)
(0.850619 -0.570379 -3.28159e-21)
(0.822636 -0.544402 -5.48991e-22)
(0.786366 -0.52626 5.50509e-21)
(0.733338 -0.52134 -1.20523e-22)
(0.671061 -0.49967 -1.28382e-21)
(0.627083 -0.410639 5.89389e-22)
(0.622915 -0.238298 -1.11894e-21)
(0.655366 -0.0233686 4.39897e-21)
(0.708175 0.176505 -1.83221e-21)
(0.763942 0.326499 4.84717e-21)
(0.81226 0.417872 -2.12904e-21)
(0.849995 0.460428 2.43679e-21)
(0.0913459 0.655432 1.51917e-21)
(0.143483 0.683795 -7.20428e-21)
(0.218927 0.650319 -1.9188e-21)
(0.334681 0.531495 1.84109e-20)
(0.47205 0.335178 -9.53206e-21)
(0.605149 0.0930154 -2.1198e-20)
(0.721879 -0.154664 1.99594e-20)
(0.813114 -0.363712 1.66281e-21)
(0.87111 -0.505077 -1.07394e-20)
(0.896485 -0.577109 -2.37256e-21)
(0.897772 -0.597238 3.25277e-21)
(0.882058 -0.588919 3.7636e-21)
(0.855961 -0.567802 -5.63985e-21)
(0.826457 -0.541172 1.33459e-21)
(0.789673 -0.521489 1.01697e-21)
(0.736682 -0.515222 -5.3967e-21)
(0.673618 -0.494861 -2.4306e-21)
(0.62726 -0.410345 3.91625e-22)
(0.620391 -0.24317 1.00344e-20)
(0.650941 -0.0313776 -4.04327e-21)
(0.702835 0.167966 2.38366e-21)
(0.758753 0.319215 -8.08644e-21)
(0.808176 0.412467 1.36222e-21)
(0.847506 0.456922 3.09031e-22)
(0.0833311 0.645748 -7.79246e-21)
(0.142426 0.674341 1.86664e-21)
(0.227332 0.638867 2.72902e-21)
(0.350933 0.5186 -1.28465e-20)
(0.492133 0.323323 2.49517e-20)
(0.62625 0.0835102 -1.96049e-20)
(0.742567 -0.16181 1.64211e-20)
(0.832124 -0.368512 -2.21831e-20)
(0.88734 -0.507512 1.84048e-20)
(0.909384 -0.577564 2.85025e-21)
(0.907557 -0.5962 2.20092e-21)
(0.889473 -0.586768 -8.0635e-21)
(0.861401 -0.565094 2.69164e-21)
(0.830396 -0.537911 -1.2278e-21)
(0.793109 -0.516772 3.22752e-22)
(0.740215 -0.509123 4.50086e-21)
(0.676494 -0.489946 -8.93959e-22)
(0.627828 -0.409911 1.55862e-21)
(0.61819 -0.248024 2.1987e-21)
(0.646745 -0.039515 -2.60808e-21)
(0.69765 0.159215 2.082e-21)
(0.753661 0.311681 -3.69942e-21)
(0.804153 0.406817 2.2994e-21)
(0.845058 0.453202 -3.92422e-23)
(0.0769024 0.635156 1.00553e-21)
(0.143057 0.66382 -1.03298e-20)
(0.237156 0.626556 1.41684e-20)
(0.367975 0.505417 -9.65918e-21)
(0.512464 0.311718 -1.23419e-20)
(0.647328 0.0745491 1.14365e-21)
(0.763161 -0.168307 5.56472e-21)
(0.851028 -0.372663 -7.91392e-21)
(0.90347 -0.509374 1.01393e-20)
(0.922221 -0.577568 5.95755e-21)
(0.917317 -0.594862 -1.20479e-20)
(0.896917 -0.584428 3.2094e-21)
(0.866937 -0.562263 4.0899e-21)
(0.834451 -0.534625 -5.67913e-21)
(0.796669 -0.512119 6.76144e-21)
(0.743927 -0.503056 2.01365e-21)
(0.67968 -0.484932 -1.89076e-21)
(0.628792 -0.409323 -2.04187e-21)
(0.616317 -0.252836 2.57944e-21)
(0.642782 -0.0477645 -4.36996e-21)
(0.692619 0.15026 4.05156e-21)
(0.748666 0.303901 2.50222e-21)
(0.800187 0.400921 -3.46846e-23)
(0.842645 0.449263 8.41435e-22)
(0.0721555 0.623659 -4.4413e-21)
(0.145394 0.652268 -2.13892e-21)
(0.248323 0.613461 -4.67924e-22)
(0.385705 0.492016 5.90433e-21)
(0.532953 0.300399 -8.10935e-21)
(0.668317 0.0661326 -3.0689e-21)
(0.78362 -0.174162 6.48598e-23)
(0.869799 -0.376176 1.42424e-20)
(0.919478 -0.510672 -5.74705e-21)
(0.934984 -0.577133 -3.47331e-21)
(0.927046 -0.593233 -1.23141e-20)
(0.904382 -0.581908 -6.86425e-22)
(0.872568 -0.559317 4.46029e-21)
(0.83862 -0.531319 3.97527e-22)
(0.800347 -0.507539 1.34814e-22)
(0.747809 -0.497038 1.39977e-21)
(0.683163 -0.479826 -1.23982e-21)
(0.630151 -0.408567 -2.38992e-21)
(0.61478 -0.257579 -1.99812e-21)
(0.639054 -0.0561012 3.16348e-21)
(0.687744 0.141114 -4.86909e-21)
(0.743767 0.295879 -1.41819e-22)
(0.796276 0.39478 6.9259e-22)
(0.840264 0.445105 -4.18872e-21)
(0.069181 0.61127 3.93684e-21)
(0.149443 0.63973 -6.64281e-21)
(0.260752 0.599659 1.01117e-21)
(0.404019 0.478467 7.54006e-21)
(0.553511 0.289397 4.29187e-21)
(0.689158 0.0582584 -2.05031e-22)
(0.803906 -0.179385 4.44185e-21)
(0.888408 -0.379062 -1.60249e-20)
(0.935345 -0.51142 9.86915e-21)
(0.947659 -0.576269 -9.54908e-22)
(0.936738 -0.591323 6.62923e-21)
(0.911864 -0.57922 -3.33869e-21)
(0.878288 -0.556263 -2.1197e-21)
(0.842903 -0.527995 3.25059e-22)
(0.80414 -0.503041 -3.32431e-21)
(0.75185 -0.491081 2.97018e-21)
(0.686928 -0.474637 -1.67513e-21)
(0.631907 -0.407633 2.1502e-21)
(0.613586 -0.262228 -1.04504e-22)
(0.635563 -0.0645033 -3.59702e-21)
(0.683026 0.131786 1.48535e-21)
(0.738964 0.28762 -9.72281e-22)
(0.792417 0.388395 4.59746e-21)
(0.837911 0.440723 -2.99325e-21)
(0.0680617 0.598017 6.89891e-21)
(0.155197 0.626264 6.95968e-21)
(0.274356 0.585233 3.35109e-22)
(0.422817 0.464833 9.37116e-21)
(0.574053 0.278738 3.72894e-21)
(0.709794 0.0509313 -1.15175e-20)
(0.823985 -0.183989 -1.44935e-21)
(0.906831 -0.381333 7.24969e-21)
(0.951051 -0.511629 1.0807e-20)
(0.960236 -0.574988 -1.56424e-20)
(0.946389 -0.58914 5.42762e-21)
(0.919358 -0.576373 -2.27481e-21)
(0.884096 -0.553109 6.41856e-21)
(0.847297 -0.524657 -7.03875e-23)
(0.808041 -0.49863 2.48126e-21)
(0.756041 -0.485201 -2.18536e-21)
(0.69096 -0.469376 -1.86467e-21)
(0.634056 -0.40651 1.2622e-21)
(0.612747 -0.266757 -2.98072e-21)
(0.632315 -0.0729505 6.94644e-21)
(0.678465 0.122288 -3.67078e-21)
(0.734256 0.279127 3.84992e-21)
(0.788609 0.381765 1.38778e-21)
(0.835581 0.436117 -1.81897e-21)
(0.0688702 0.583938 5.20662e-21)
(0.162636 0.611937 1.90046e-21)
(0.289047 0.570268 -4.62913e-21)
(0.441999 0.451176 3.09013e-21)
(0.594501 0.268444 5.21397e-21)
(0.730176 0.0441424 6.21945e-21)
(0.843824 -0.187988 -7.6316e-21)
(0.925046 -0.383002 1.2584e-20)
(0.966579 -0.511313 -2.20829e-20)
(0.972701 -0.573303 7.70528e-22)
(0.955993 -0.586695 1.21949e-20)
(0.926857 -0.573378 -8.89467e-21)
(0.889985 -0.549862 -1.80452e-21)
(0.851801 -0.521308 -9.17179e-22)
(0.812044 -0.494315 8.85932e-22)
(0.760372 -0.47941 -4.06709e-22)
(0.695245 -0.464054 -2.41459e-21)
(0.636594 -0.405191 2.87679e-22)
(0.61227 -0.271142 4.5336e-21)
(0.629314 -0.0814205 -2.68561e-22)
(0.674064 0.112632 -3.45869e-21)
(0.729643 0.270407 -2.93136e-21)
(0.784848 0.374893 9.60474e-22)
(0.833269 0.431284 3.09173e-21)
(0.0716664 0.569082 -3.56677e-21)
(0.171726 0.596825 -4.69543e-21)
(0.304731 0.554847 -7.06607e-21)
(0.46147 0.437552 1.46354e-20)
(0.614779 0.258532 -9.80311e-21)
(0.75026 0.0378827 1.61959e-20)
(0.863397 -0.1914 -4.74946e-21)
(0.943029 -0.384085 -1.14623e-20)
(0.981911 -0.510486 -1.02896e-21)
(0.985043 -0.571225 -1.09939e-20)
(0.965545 -0.583996 1.25595e-21)
(0.934359 -0.570243 7.52192e-21)
(0.895953 -0.546528 3.51879e-21)
(0.856413 -0.517949 -4.72457e-21)
(0.816144 -0.490099 -3.18231e-22)
(0.764833 -0.473722 5.34064e-22)
(0.699766 -0.458683 8.95217e-22)
(0.639512 -0.403673 -4.24968e-21)
(0.612167 -0.27536 3.34329e-21)
(0.62657 -0.0898894 -1.16613e-21)
(0.669825 0.102833 -2.272e-21)
(0.725125 0.261466 1.73195e-22)
(0.781133 0.36778 -2.44953e-21)
(0.830971 0.426223 1.48104e-22)
(0.076495 0.553511 -1.74992e-20)
(0.182422 0.58101 2.27628e-20)
(0.321316 0.539058 -1.68899e-20)
(0.481135 0.424015 2.44432e-22)
(0.63482 0.249012 1.34658e-20)
(0.77001 0.0321684 -9.65276e-21)
(0.882681 -0.19424 -1.21529e-20)
(0.960762 -0.384595 1.48709e-20)
(0.99703 -0.509161 3.74098e-21)
(0.99725 -0.568767 -1.16449e-20)
(0.975041 -0.581052 6.42088e-21)
(0.941856 -0.566977 4.89416e-23)
(0.901993 -0.543116 -7.42562e-22)
(0.861132 -0.514582 4.41859e-21)
(0.820335 -0.485988 2.62038e-21)
(0.769413 -0.46815 1.2145e-21)
(0.704507 -0.453278 -5.05284e-21)
(0.6428 -0.401951 1.91889e-21)
(0.612447 -0.279385 1.60621e-21)
(0.624091 -0.0983329 -1.20829e-21)
(0.665753 0.0929047 2.30569e-21)
(0.720704 0.252309 -1.06096e-22)
(0.777461 0.360428 -2.28487e-21)
(0.828682 0.420934 1.23481e-21)
(0.0833831 0.537297 -1.405e-20)
(0.194668 0.564584 1.05297e-20)
(0.338708 0.522984 1.24831e-20)
(0.500904 0.410612 -8.81291e-21)
(0.654566 0.239893 -3.00072e-20)
(0.789396 0.0269708 1.96443e-20)
(0.901654 -0.196528 -4.13127e-21)
(0.978225 -0.384548 -1.39295e-20)
(1.01192 -0.507352 1.83862e-21)
(1.00931 -0.565941 4.27292e-21)
(0.984476 -0.577873 -8.94825e-22)
(0.949346 -0.56359 2.74188e-21)
(0.9081 -0.539632 2.15653e-21)
(0.865956 -0.511208 -4.76441e-21)
(0.824612 -0.481984 3.62365e-22)
(0.774103 -0.462705 3.74594e-22)
(0.709452 -0.447851 -7.42335e-22)
(0.646444 -0.400025 2.27447e-21)
(0.61312 -0.283199 3.65628e-21)
(0.621888 -0.106726 -4.91883e-21)
(0.66185 0.0828624 4.40006e-22)
(0.71638 0.242945 7.84505e-22)
(0.773831 0.352841 3.70997e-21)
(0.826398 0.415416 -1.47813e-21)
(0.0923379 0.520522 -7.77876e-21)
(0.208398 0.547639 2.21871e-21)
(0.356809 0.506709 -1.45614e-20)
(0.520691 0.39739 3.17824e-20)
(0.673964 0.231179 -2.60888e-20)
(0.808394 0.0222212 1.30809e-20)
(0.920303 -0.198289 -2.93084e-20)
(0.995402 -0.383961 4.94239e-20)
(1.02657 -0.505074 -3.1009e-20)
(1.02122 -0.562762 1.472e-20)
(0.993844 -0.574467 2.34619e-21)
(0.956823 -0.560088 -8.76176e-21)
(0.914268 -0.536084 -6.30618e-22)
(0.870883 -0.507828 -2.7993e-21)
(0.82897 -0.47809 2.05843e-21)
(0.778891 -0.4574 4.44771e-22)
(0.714588 -0.442419 -3.39676e-21)
(0.65043 -0.397899 2.16596e-21)
(0.614194 -0.286781 8.61633e-22)
(0.619975 -0.115042 -2.42445e-21)
(0.658125 0.0727231 2.85902e-22)
(0.712155 0.233381 -1.90126e-21)
(0.770241 0.345021 7.66608e-22)
(0.824114 0.409668 -7.22535e-22)
(0.103346 0.503274 7.77753e-21)
(0.223533 0.530275 1.19315e-22)
(0.375526 0.490315 -4.37029e-21)
(0.540415 0.384387 2.22835e-21)
(0.692965 0.222868 -3.57211e-21)
(0.82699 0.0178503 6.03903e-21)
(0.93862 -0.199541 -7.0758e-21)
(1.01228 -0.382849 2.40123e-20)
(1.04096 -0.50234 2.33744e-21)
(1.03295 -0.55924 5.69267e-21)
(1.00314 -0.570842 -1.54559e-20)
(0.964284 -0.55648 8.48677e-21)
(0.92049 -0.532478 5.71875e-22)
(0.875911 -0.504443 -1.53869e-21)
(0.833405 -0.474305 -2.05368e-21)
(0.783767 -0.452245 2.38761e-21)
(0.719898 -0.436997 -1.67305e-21)
(0.654741 -0.395577 -9.13695e-22)
(0.615673 -0.290113 5.08894e-21)
(0.618368 -0.123256 -9.3528e-22)
(0.654584 0.0625047 -4.78189e-22)
(0.708031 0.223628 5.31608e-21)
(0.76669 0.336972 -9.57535e-22)
(0.821827 0.403692 -3.58054e-22)
(0.116369 0.485649 -8.82147e-21)
(0.239991 0.512591 -2.6651e-21)
(0.394762 0.47388 -9.27446e-21)
(0.559999 0.371639 2.55961e-20)
(0.711523 0.214951 -9.37714e-21)
(0.845177 0.0140027 3.05204e-21)
(0.956604 -0.200299 4.11852e-22)
(1.02883 -0.381229 -4.38092e-20)
(1.05508 -0.499165 9.71049e-21)
(1.04451 -0.555391 1.94732e-20)
(1.01236 -0.567008 2.44979e-21)
(0.971724 -0.552772 -6.21281e-21)
(0.92676 -0.528823 -4.6674e-22)
(0.881038 -0.501053 -4.2855e-22)
(0.837912 -0.470631 9.29324e-22)
(0.788721 -0.44725 -2.21388e-21)
(0.72537 -0.431599 -4.81831e-21)
(0.659356 -0.393065 2.13846e-21)
(0.617561 -0.293183 -9.46928e-22)
(0.617082 -0.13134 -4.26432e-21)
(0.651238 0.0522267 2.48776e-21)
(0.704013 0.213694 3.56371e-22)
(0.763177 0.328699 3.82513e-22)
(0.819532 0.397487 -9.01814e-22)
(0.131348 0.467744 7.24724e-21)
(0.257675 0.494688 1.02899e-20)
(0.414422 0.45748 -1.44939e-20)
(0.579374 0.359177 1.79628e-20)
(0.729629 0.207427 -7.87535e-21)
(0.862955 0.0105948 -4.47515e-21)
(0.974233 -0.200592 3.48513e-20)
(1.04506 -0.379115 -6.87753e-21)
(1.06891 -0.495564 -3.36945e-21)
(1.05589 -0.551226 -3.74982e-21)
(1.02151 -0.562972 -5.55947e-21)
(0.979142 -0.548971 1.04353e-20)
(0.933071 -0.525123 -4.55302e-21)
(0.886262 -0.497658 3.34947e-21)
(0.842487 -0.467065 -6.01245e-21)
(0.79374 -0.442424 -2.70384e-21)
(0.730988 -0.426242 5.97385e-21)
(0.664257 -0.390371 -1.38195e-21)
(0.619854 -0.295976 -3.18969e-22)
(0.616136 -0.13927 4.22123e-21)
(0.648098 0.0419097 -3.15772e-21)
(0.700105 0.203591 -3.34065e-23)
(0.759702 0.320207 -7.45841e-22)
(0.817226 0.391055 2.4414e-21)
(0.276485 0.476665 -1.44419e-20)
(0.434411 0.441187 -1.01407e-20)
(0.598476 0.347028 6.22392e-22)
(0.747255 0.200278 1.84048e-20)
(0.880334 0.00751513 1.51673e-20)
(0.991522 -0.200437 1.20361e-20)
(1.06094 -0.376523 -3.07641e-20)
(1.08245 -0.49155 2.92788e-21)
(1.06706 -0.546758 4.37315e-21)
(1.03056 -0.558743 1.10142e-22)
(0.986534 -0.545082 -3.9161e-21)
(0.939416 -0.521387 -1.28083e-21)
(0.891579 -0.494259 -3.40846e-21)
(0.847129 -0.463605 6.40132e-22)
(0.798815 -0.437776 9.84405e-22)
(0.736739 -0.420943 1.90344e-21)
(0.669426 -0.387507 -1.86195e-21)
(0.622547 -0.298485 -4.66842e-21)
(0.615548 -0.14702 5.54152e-22)
(0.645179 0.0315759 -3.22616e-23)
(0.696313 0.193331 1.26225e-22)
(0.756265 0.311502 3.54732e-21)
(0.814905 0.384399 1.35035e-21)
(0.296309 0.458617 -1.30517e-21)
(0.454637 0.425067 3.43385e-21)
(0.617249 0.335212 -1.93447e-20)
(0.764401 0.19349 -2.93116e-21)
(0.897333 0.00472557 2.76318e-20)
(1.00847 -0.199852 -4.21009e-20)
(1.07647 -0.373469 5.63569e-21)
(1.09568 -0.487137 6.16418e-21)
(1.07803 -0.542002 9.88182e-21)
(1.03953 -0.554329 -1.55527e-20)
(0.993897 -0.541111 2.41339e-21)
(0.945788 -0.517621 1.21588e-20)
(0.896986 -0.490856 -4.18093e-21)
(0.851835 -0.460249 8.47629e-22)
(0.803934 -0.433312 5.5044e-22)
(0.74261 -0.415716 -4.17094e-21)
(0.674843 -0.384483 5.01158e-21)
(0.625628 -0.300702 -4.228e-21)
(0.615337 -0.154567 4.96039e-21)
(0.642499 0.021246 -3.76936e-21)
(0.692643 0.182928 -5.01496e-21)
(0.752868 0.302592 1.30979e-21)
(0.812567 0.377521 1.34778e-21)
(0.317033 0.440637 5.13255e-21)
(0.475007 0.409183 -7.10309e-21)
(0.635649 0.323746 7.87305e-21)
(0.781062 0.187036 6.4273e-21)
(0.913981 0.00244308 8.57248e-21)
(1.02509 -0.198847 -2.14085e-20)
(1.09163 -0.369967 2.79127e-21)
(1.10859 -0.48234 1.94501e-20)
(1.08879 -0.53697 1.68569e-21)
(1.0484 -0.549738 1.42454e-21)
(1.00123 -0.537063 -1.12831e-20)
(0.952181 -0.51383 5.286e-21)
(0.902479 -0.48745 -1.96563e-21)
(0.856603 -0.45699 5.78225e-22)
(0.809087 -0.429038 -4.61784e-21)
(0.748587 -0.410579 7.12179e-21)
(0.680491 -0.381314 1.20922e-21)
(0.629082 -0.302624 -4.9126e-21)
(0.615516 -0.16189 6.48611e-21)
(0.640078 0.010954 1.69446e-21)
(0.689107 0.172397 1.80976e-22)
(0.749513 0.293483 -4.93707e-21)
(0.810209 0.370423 2.15833e-22)
(0.338534 0.422811 1.3632e-20)
(0.495434 0.393592 -5.83294e-21)
(0.65364 0.31264 -1.3671e-20)
(0.7973 0.180911 -2.17357e-21)
(0.930314 0.00063789 2.32865e-20)
(1.04136 -0.197454 -1.52998e-20)
(1.10641 -0.36603 2.32432e-20)
(1.12116 -0.477173 -7.99268e-21)
(1.09933 -0.531674 2.29436e-21)
(1.05718 -0.544979 -1.1036e-20)
(1.00853 -0.532943 -1.306e-21)
(0.958587 -0.510022 -8.39919e-21)
(0.908053 -0.484043 3.87072e-21)
(0.861433 -0.453825 -5.84878e-22)
(0.814264 -0.424958 -2.07549e-21)
(0.754654 -0.405548 4.11349e-21)
(0.686355 -0.378012 -3.21627e-21)
(0.632891 -0.304251 5.82192e-21)
(0.616101 -0.16897 -1.46232e-21)
(0.637938 0.000794352 3.75509e-22)
(0.685717 0.161755 -2.06511e-21)
(0.746203 0.284184 -1.5673e-21)
(0.807829 0.36311 -1.33783e-21)
(0.360691 0.405219 3.07853e-21)
(0.51584 0.378342 -1.28511e-20)
(0.671207 0.301899 1.73289e-20)
(0.813142 0.17508 -3.13565e-20)
(0.946382 -0.00104163 5.89078e-20)
(1.05731 -0.195687 -5.75424e-20)
(1.12079 -0.361671 1.04462e-20)
(1.1334 -0.471649 -6.91426e-21)
(1.10964 -0.526128 1.80267e-20)
(1.06585 -0.540059 -2.46972e-21)
(1.01579 -0.528753 1.66939e-20)
(0.965001 -0.506201 -9.97433e-21)
(0.913704 -0.480634 9.01428e-21)
(0.866324 -0.450748 -4.70496e-21)
(0.819455 -0.421077 1.32217e-21)
(0.760798 -0.400638 1.85868e-21)
(0.692418 -0.374592 -4.82869e-21)
(0.637033 -0.305583 -1.94096e-21)
(0.617102 -0.175786 7.11569e-21)
(0.636107 -0.00934331 -8.68132e-22)
(0.682481 0.151015 1.80609e-21)
(0.742944 0.274705 -1.11824e-21)
(0.805428 0.355587 -1.0861e-21)
(0.383385 0.387931 5.19352e-21)
(0.536156 0.363476 -3.32878e-20)
(0.688352 0.29152 -1.66726e-21)
(0.828652 0.169511 -1.0384e-20)
(0.962243 -0.00249231 2.90365e-20)
(1.07295 -0.193553 -2.99645e-20)
(1.13477 -0.356903 4.14476e-20)
(1.14528 -0.465782 -2.19592e-20)
(1.11971 -0.520343 -5.47416e-21)
(1.07441 -0.534986 1.66333e-20)
(1.02302 -0.524497 -8.50049e-21)
(0.971417 -0.502373 4.9016e-21)
(0.919425 -0.477227 3.22944e-21)
(0.871277 -0.447751 2.08754e-21)
(0.824652 -0.417394 -4.83016e-21)
(0.767003 -0.395865 -2.7256e-21)
(0.698669 -0.37107 2.54181e-21)
(0.641485 -0.306623 2.08571e-21)
(0.618507 -0.18233 -3.41194e-21)
(0.634611 -0.0194755 1.88503e-22)
(0.679431 0.140201 -2.54528e-21)
(0.739744 0.265056 2.32871e-21)
(0.803005 0.347858 2.83568e-21)
(0.406509 0.371012 -3.24236e-21)
(0.556334 0.349031 4.03089e-21)
(0.705107 0.281498 1.59158e-20)
(0.843923 0.164176 -8.23993e-21)
(0.977966 -0.00370197 -1.36318e-20)
(1.08828 -0.191064 -1.36257e-21)
(1.14834 -0.351736 2.38607e-20)
(1.15679 -0.459584 -3.75487e-22)
(1.12955 -0.514331 -2.20778e-20)
(1.08286 -0.529767 1.36244e-20)
(1.03021 -0.520177 -2.05499e-21)
(0.97783 -0.49854 -5.85826e-21)
(0.925209 -0.473821 -1.43331e-21)
(0.876292 -0.444827 2.03453e-21)
(0.829849 -0.41391 1.27584e-22)
(0.773253 -0.391245 -2.86144e-21)
(0.705093 -0.367462 4.29801e-21)
(0.646226 -0.307377 -5.45307e-21)
(0.620311 -0.18859 7.3402e-21)
(0.633478 -0.0294449 -1.56856e-21)
(0.676592 0.129335 -2.42145e-21)
(0.736616 0.255251 -4.974e-22)
(0.800563 0.33993 -2.6387e-21)
(0.429985 0.354517 8.14748e-21)
(0.576358 0.335032 -1.3e-20)
(0.721545 0.271817 3.84577e-21)
(0.859081 0.159044 1.49371e-20)
(0.993633 -0.00468562 3.104e-21)
(1.10332 -0.188222 -5.08844e-21)
(1.16146 -0.34618 1.28643e-21)
(1.16793 -0.453071 -4.19957e-21)
(1.13914 -0.508108 6.52052e-21)
(1.0912 -0.524414 6.48406e-21)
(1.03736 -0.5158 -1.12953e-20)
(0.984234 -0.494712 -1.19386e-21)
(0.931052 -0.470423 -2.8976e-21)
(0.881369 -0.441972 9.67197e-21)
(0.835038 -0.410624 -4.32256e-21)
(0.779533 -0.386794 1.67578e-21)
(0.711678 -0.363787 2.12058e-21)
(0.651236 -0.307851 -2.862e-21)
(0.622497 -0.194556 -2.91565e-21)
(0.632734 -0.0392565 1.64322e-21)
(0.673996 0.118435 1.95279e-21)
(0.733579 0.245303 -2.90479e-21)
(0.798108 0.331811 -2.9651e-21)
(0.453782 0.338495 2.94906e-21)
(0.596265 0.321499 -9.74205e-21)
(0.737795 0.262462 1.12466e-20)
(0.874297 0.15409 2.69421e-20)
(1.00934 -0.00544682 -3.92098e-20)
(1.11808 -0.185022 1.70678e-21)
(1.17414 -0.340242 8.71124e-21)
(1.17869 -0.44626 2.24327e-20)
(1.14848 -0.501693 -1.50039e-20)
(1.09941 -0.518944 -7.20605e-21)
(1.04446 -0.511376 -5.03708e-21)
(0.990626 -0.490898 7.45176e-21)
(0.936944 -0.467039 -5.36449e-21)
(0.886509 -0.439181 4.6464e-21)
(0.840214 -0.407535 -2.9793e-21)
(0.785825 -0.382527 -1.42334e-21)
(0.71841 -0.360062 4.84285e-22)
(0.656499 -0.308053 3.28053e-21)
(0.625038 -0.200222 -5.08229e-21)
(0.6324 -0.0489043 3.28133e-21)
(0.671685 0.107522 4.99753e-21)
(0.73066 0.235227 -6.62991e-21)
(0.795653 0.323509 2.40452e-21)
(0.47795 0.322986 -1.12893e-20)
(0.616174 0.308448 4.26169e-21)
(0.754068 0.253413 2.39296e-21)
(0.889796 0.149296 6.03862e-21)
(1.02519 -0.00597822 2.64344e-21)
(1.13255 -0.181461 -3.72212e-20)
(1.18634 -0.333932 1.85958e-20)
(1.18905 -0.439162 1.16651e-20)
(1.15757 -0.49509 7.57709e-21)
(1.1075 -0.513351 -8.2401e-22)
(1.05153 -0.506894 -1.30891e-20)
(0.997001 -0.487088 8.27246e-21)
(0.94288 -0.463663 4.72161e-22)
(0.891713 -0.436439 -8.18291e-22)
(0.845375 -0.404631 -1.43336e-21)
(0.792115 -0.378453 2.62382e-21)
(0.725277 -0.356301 -1.34647e-21)
(0.662003 -0.307983 2.15374e-21)
(0.627903 -0.205581 -1.42252e-21)
(0.632486 -0.0583721 1.96017e-21)
(0.66971 0.096616 -2.0078e-21)
(0.727903 0.225038 1.5913e-21)
(0.793222 0.315034 -1.74027e-21)
(0.502676 0.308011 -4.04809e-21)
(0.636332 0.295863 1.33275e-20)
(0.770695 0.244622 2.50489e-21)
(0.905873 0.144615 1.45263e-20)
(1.04129 -0.00629626 -2.25652e-20)
(1.14672 -0.177564 -7.63106e-21)
(1.19804 -0.327262 -7.89644e-21)
(1.199 -0.431758 3.57646e-20)
(1.1664 -0.488251 -2.30807e-20)
(1.11546 -0.507577 -4.1274e-21)
(1.05855 -0.502297 8.63025e-21)
(1.00336 -0.483237 -1.32026e-20)
(0.948852 -0.460261 4.00285e-21)
(0.89698 -0.433711 5.84117e-21)
(0.850518 -0.401884 -4.90626e-21)
(0.798386 -0.374567 1.85679e-21)
(0.732263 -0.352512 -1.06358e-23)
(0.667735 -0.307639 1.48962e-21)
(0.63106 -0.210613 -3.03269e-22)
(0.63299 -0.067631 -4.46906e-22)
(0.668129 0.0857489 1.51804e-21)
(0.725372 0.214761 -3.84006e-21)
(0.790856 0.3064 2.74433e-21)
(0.528367 0.293565 -8.64636e-21)
(0.657198 0.283688 -3.27807e-21)
(0.788185 0.23599 -3.04961e-21)
(0.922918 0.139953 -3.27415e-21)
(1.05778 -0.0064573 5.73416e-21)
(1.16058 -0.173353 4.3013e-21)
(1.20924 -0.320235 7.57234e-21)
(1.20856 -0.424039 -7.2139e-21)
(1.17497 -0.481169 5.94627e-22)
(1.12329 -0.501623 -2.32826e-21)
(1.06552 -0.497586 -2.20967e-21)
(1.00969 -0.479353 1.07003e-20)
(0.954849 -0.456845 -5.94679e-21)
(0.902308 -0.431002 7.68978e-21)
(0.855641 -0.399298 -5.95603e-21)
(0.804621 -0.370896 2.63768e-21)
(0.739351 -0.348738 -1.2295e-21)
(0.67369 -0.307053 1.57764e-22)
(0.634474 -0.215333 2.12777e-22)
(0.633893 -0.0766707 1.26675e-21)
(0.667006 0.0749531 -1.165e-21)
(0.723161 0.204431 -1.87859e-21)
(0.788631 0.297633 2.91888e-21)
(0.679568 0.272093 5.20447e-21)