/*--------------------------------*- C++ -*----------------------------------*\
  =========                 |
  \\      /  F ield         | OpenFOAM: The Open Source CFD Toolbox
   \\    /   O peration     | Website:  https://openfoam.org
    \\  /    A nd           | Version:  7
     \\/     M anipulation  |
\*---------------------------------------------------------------------------*/
FoamFile
{
    version     2.0;
    format      ascii;
    class       surfaceScalarField;
    location    "180";
    object      phi;
}
// * * * * * * * * * * * * * * * * * * * * * * * * * * * * * * * * * * * * * //

dimensions      [0 3 -1 0 0 0 0];

internalField   nonuniform List<scalar> 
72657
(
-8.19429e-07
5.89728e-05
-5.81533e-05
-3.34513e-06
0.000156356
-0.000153831
-7.67517e-06
0.000238237
-0.000233907
-1.38454e-05
0.000305067
-0.000298897
-2.18311e-05
0.000357803
-0.000349817
-3.15587e-05
0.000397865
-0.000388137
-4.2921e-05
0.000427021
-0.000415658
-5.57943e-05
0.000447232
-0.000434359
-7.0053e-05
0.000460479
-0.000446221
-8.55812e-05
0.000468585
-0.000453057
-0.000102281
0.000473069
-0.000456368
-0.00012008
0.00047503
-0.000457231
-0.000138932
0.000475091
-0.000456239
-0.00015882
0.000473371
-0.000453483
-0.000179759
0.000469511
-0.000448571
-0.000201799
0.000462703
-0.000440663
-0.000225021
0.000451727
-0.000428505
-0.000249539
0.000434983
-0.000410465
-0.000275486
0.000410488
-0.00038454
0.000375754
-0.00034819
-0.00030305
-6.62931e-07
5.96357e-05
-2.80098e-06
0.000158494
-6.57089e-06
0.000242007
-1.20576e-05
0.000310554
-1.92746e-05
0.00036502
-2.81743e-05
0.000406764
-3.86642e-05
0.000437511
-5.06233e-05
0.000459192
-6.39186e-05
0.000473775
-7.84184e-05
0.000483085
-9.40022e-05
0.000488652
-0.000110568
0.000491596
-0.000128037
0.00049256
-0.000146358
0.000491692
-0.00016551
0.000488664
-0.000185507
0.0004827
-0.000206399
0.000472619
-0.000228277
0.000456861
-0.000251269
0.00043348
0.000400059
-0.000275574
-5.00718e-07
6.01364e-05
-2.23385e-06
0.000160227
-5.41403e-06
0.000245187
-1.01749e-05
0.000315315
-1.65677e-05
0.000371412
-2.45712e-05
0.000414768
-3.41064e-05
0.000447046
-4.50548e-05
0.00047014
-5.7275e-05
0.000485995
-7.06172e-05
0.000496427
-8.49354e-05
0.00050297
-0.000100096
0.000506756
-0.000115984
0.000508448
-0.000132509
0.000508217
-0.000149609
0.000505764
-0.000167256
0.000500347
-0.000185465
0.000490828
-0.000204301
0.000475697
-0.000223879
0.000453058
0.000420592
-0.000244412
-3.34014e-07
6.04704e-05
-1.64771e-06
0.000161541
-4.21203e-06
0.000247752
-8.20835e-06
0.000319311
-1.37255e-05
0.00037693
-2.07679e-05
0.00042181
-2.92704e-05
0.000455548
-3.91162e-05
0.000479986
-5.01546e-05
0.000497033
-6.22169e-05
0.00050849
-7.51297e-05
0.000515883
-8.87253e-05
0.000520352
-0.000102849
0.000522572
-0.000117368
0.000522736
-0.000132175
0.00052057
-0.000147197
0.000515369
-0.000162405
0.000506037
-0.000177835
0.000491126
-0.00019359
0.000468813
0.000436892
-0.00020989
-1.64068e-07
6.06345e-05
-1.04688e-06
0.000162424
-2.97315e-06
0.000249678
-6.17078e-06
0.000322509
-1.07653e-05
0.000381524
-1.67868e-05
0.000427832
-2.41835e-05
0.000462945
-3.28404e-05
0.000488643
-4.25973e-05
0.00050679
-5.32658e-05
0.000519158
-6.4644e-05
0.000527261
-7.65284e-05
0.000532236
-8.87233e-05
0.000534767
-0.000101049
0.000535062
-0.000113349
0.00053287
-0.000125501
0.000527521
-0.000137432
0.000517967
-0.000149138
0.000502833
-0.000160711
0.000480387
0.000448557
-0.000172376
5.04972e-09
6.06294e-05
-4.36316e-07
0.000162865
-1.70682e-06
0.000250948
-4.07691e-06
0.000324879
-7.70748e-06
0.000385155
-1.26538e-05
0.000432778
-1.88778e-05
0.000469169
-2.62664e-05
0.000496031
-3.465e-05
0.000515174
-4.38203e-05
0.000528329
-5.35467e-05
0.000536988
-6.35891e-05
0.000542279
-7.37085e-05
0.000544886
-8.36769e-05
0.00054503
-9.32864e-05
0.00054248
-0.000102362
0.000536596
-0.000110778
0.000526384
-0.000118494
0.000510548
-0.000125582
0.000487475
0.000455245
-0.00013227
1.79373e-07
6.04501e-05
1.79559e-07
0.000162865
-4.23019e-07
0.000251551
-1.94268e-06
0.000326399
-4.57436e-06
0.000387786
-8.39806e-06
0.000436602
-1.33896e-05
0.000474161
-1.94383e-05
0.00050208
-2.63656e-05
0.000522101
-3.39442e-05
0.000535907
-4.19146e-05
0.000544958
-5.00001e-05
0.000550364
-5.79182e-05
0.000552804
-6.53912e-05
0.000552503
-7.21574e-05
0.000549246
-7.79852e-05
0.000542424
-8.26963e-05
0.000531095
-8.62037e-05
0.000514056
-8.85648e-05
0.000489836
0.000456678
-8.99979e-05
3.4923e-07
6.01008e-05
7.94721e-07
0.00016242
8.67383e-07
0.000251478
2.15213e-07
0.000327051
-1.39014e-06
0.000389392
-4.05151e-06
0.000439263
-7.75885e-06
0.000477868
-1.24046e-05
0.000506726
-1.78025e-05
0.000527499
-2.3707e-05
0.000541812
-2.9831e-05
0.000551082
-3.58617e-05
0.000556395
-4.14733e-05
0.000558416
-4.63382e-05
0.000557368
-5.01398e-05
0.000553047
-5.2588e-05
0.000544872
-5.34466e-05
0.000531954
-5.25809e-05
0.00051319
-5.00368e-05
0.000487292
0.000452647
-4.60058e-05
5.16417e-07
5.95844e-05
1.4038e-06
0.000161532
2.15333e-06
0.000250729
2.37733e-06
0.000326827
1.81914e-06
0.00038995
3.51938e-07
0.00044073
-2.02839e-06
0.000480248
-5.21779e-06
0.000509915
-9.02358e-06
0.000531305
-1.31836e-05
0.000545972
-1.73848e-05
0.000555284
-2.12797e-05
0.00056029
-2.45003e-05
0.000561636
-2.66702e-05
0.000559538
-2.74169e-05
0.000553794
-2.63904e-05
0.000543846
-2.32934e-05
0.000528857
-1.79346e-05
0.000507831
-1.03394e-05
0.000479697
0.000443441
-1.13375e-06
6.79049e-07
5.89054e-05
2.00106e-06
0.00016021
3.42313e-06
0.000249307
4.52635e-06
0.000325724
5.02661e-06
0.00038945
4.77585e-06
0.000440981
3.75628e-06
0.000481268
2.06673e-06
0.000511605
-9.51276e-08
0.000533467
-2.45249e-06
0.000548329
-4.66851e-06
0.0005575
-6.36344e-06
0.000561985
-7.12906e-06
0.000562402
-6.54125e-06
0.00055895
-4.17289e-06
0.000551426
3.87309e-07
0.000539286
7.50126e-06
0.000521743
1.74208e-05
0.000497912
3.01829e-05
0.000466935
0.00042822
4.54045e-05
8.35373e-07
5.807e-05
2.58072e-06
0.000158465
4.66486e-06
0.000247223
6.64213e-06
0.000323746
8.20425e-06
0.000387888
9.18331e-06
0.000440002
9.5479e-06
0.000480903
9.39112e-06
0.000511762
8.91376e-06
0.000533944
8.40488e-06
0.000548838
8.22244e-06
0.000557682
8.77565e-06
0.000561431
1.05101e-05
0.000560668
1.3895e-05
0.000555565
1.94108e-05
0.00054591
2.753e-05
0.000531166
3.86836e-05
0.000510589
5.31912e-05
0.000483404
7.11177e-05
0.000449008
0.000407229
9.21087e-05
9.83774e-07
5.70862e-05
3.13684e-06
0.000156312
5.86647e-06
0.000244493
8.70505e-06
0.000320908
1.13234e-05
0.000385269
1.35359e-05
0.000437789
1.52979e-05
0.000479141
1.66959e-05
0.000510363
1.79322e-05
0.000532708
1.93055e-05
0.000547465
2.11916e-05
0.000555796
2.4026e-05
0.000558597
2.82879e-05
0.000556406
3.44887e-05
0.000549364
4.31591e-05
0.000537239
5.48322e-05
0.000519493
7.00096e-05
0.000495412
8.90865e-05
0.000464327
0.000112183
0.000425912
0.000380508
0.000138904
1.12274e-06
5.59635e-05
3.66396e-06
0.000153771
7.01613e-06
0.000241141
1.06954e-05
0.000317229
1.43555e-05
0.000381609
1.7795e-05
0.00043435
2.0957e-05
0.000475979
2.3921e-05
0.000507399
2.68887e-05
0.00052974
3.01656e-05
0.000544188
3.41426e-05
0.000551819
3.92771e-05
0.000553462
4.60785e-05
0.000549604
5.50957e-05
0.000540347
6.69066e-05
0.000525429
8.21027e-05
0.000504297
0.000101257
0.000476257
0.000124849
0.000440735
0.000153064
0.000397697
0.000348086
0.000185486
1.25086e-06
5.47126e-05
4.15686e-06
0.000150865
8.10268e-06
0.000237195
1.2594e-05
0.000312737
1.7272e-05
0.000376931
2.19222e-05
0.0004297
2.64762e-05
0.000471425
3.10061e-05
0.00050287
3.57113e-05
0.000525035
4.09021e-05
0.000538997
4.69802e-05
0.000545741
5.44215e-05
0.000546021
6.37608e-05
0.000540265
7.55802e-05
0.000528528
9.05004e-05
0.000510508
0.000109168
0.000485629
0.000132229
0.000453196
0.000160251
0.000412713
0.000193502
0.000364445
0.000310023
0.000231565
1.36687e-06
5.33458e-05
4.61067e-06
0.000147621
9.11555e-06
0.00023269
1.43829e-05
0.00030747
2.00459e-05
0.000371268
2.58801e-05
0.000423866
3.18073e-05
0.000465498
3.78917e-05
0.000496785
4.43296e-05
0.000518597
5.14329e-05
0.000531894
5.96114e-05
0.000537562
6.93552e-05
0.000536277
8.12199e-05
0.0005284
9.5816e-05
0.000513932
0.000113802
0.000492522
0.000135876
0.000463555
0.000162754
0.000426319
0.0001951
0.000380367
0.000233283
0.000326262
0.000266398
0.000276907
1.46962e-06
5.18761e-05
5.02097e-06
0.000144069
1.00449e-05
0.000227666
1.60449e-05
0.00030147
2.26511e-05
0.000364662
2.96328e-05
0.000416884
3.69034e-05
0.000458228
4.45202e-05
0.000489168
5.26747e-05
0.000510442
6.16787e-05
0.00052289
7.19467e-05
0.000527294
8.39792e-05
0.000524245
9.83484e-05
0.000514031
0.000115688
0.000496592
0.00013669
0.000471521
0.000162097
0.000438148
0.000192696
0.00039572
0.000229248
0.000343815
0.000272243
0.000283267
0.000217296
0.000321346
1.55811e-06
5.0318e-05
5.38377e-06
0.000140244
1.0882e-05
0.000222168
1.75644e-05
0.000294788
2.50636e-05
0.000357163
3.31463e-05
0.000408801
4.17202e-05
0.000449654
5.08362e-05
0.000480052
6.06806e-05
0.000500598
7.15632e-05
0.000512007
8.39007e-05
0.000514957
9.82006e-05
0.000509945
0.000115047
0.000497184
0.000135094
0.000476545
0.000159059
0.000447556
0.000187728
0.000409478
0.00022195
0.000361498
0.000262592
0.000303172
0.000310278
0.000235581
0.000162795
0.00036478
1.63147e-06
4.86866e-05
5.69557e-06
0.00013618
1.16187e-05
0.000216245
1.89271e-05
0.000287479
2.72612e-05
0.000348829
3.63892e-05
0.000399673
4.62162e-05
0.000439827
5.67877e-05
0.000469481
6.82851e-05
0.0004891
8.10148e-05
0.000499277
9.53937e-05
0.000500578
0.000111933
0.000493405
0.000131227
0.00047789
0.000153943
0.00045383
0.000180822
0.000420677
0.000212688
0.000377613
0.000250448
0.000323738
0.000295074
0.000258546
0.000347342
0.000183312
0.000102956
0.000407181
1.68899e-06
4.69976e-05
5.95338e-06
0.000131915
1.22481e-05
0.00020995
2.01205e-05
0.000279607
2.92241e-05
0.000339725
3.93333e-05
0.000389564
5.03536e-05
0.000428806
6.23272e-05
0.000457507
7.5431e-05
0.000475997
8.99676e-05
0.000484741
0.000106353
0.000484193
0.0001251
0.000474658
0.000146809
0.000456181
0.00017216
0.000428479
0.000201913
0.000390923
0.000236924
0.000342602
0.000278156
0.000282507
0.000326683
0.000210019
0.000383447
0.000126549
3.7812e-05
0.000448591
1.73014e-06
4.52674e-05
6.15486e-06
0.000127491
1.27645e-05
0.00020334
2.11341e-05
0.000271237
3.09355e-05
0.000329924
4.19541e-05
0.000378546
5.40993e-05
0.000416661
6.74125e-05
0.000444194
8.20672e-05
0.000461342
9.83626e-05
0.000468445
0.000116712
0.000465843
0.000137632
0.000453739
0.000161725
0.000432088
0.000189683
0.000400521
0.000222284
0.000358323
0.00026041
0.000304476
0.000305076
0.000237841
0.000357457
0.000157638
0.000418665
6.53399e-05
-3.26451e-05
0.000489122
1.75456e-06
4.35129e-05
6.2984e-06
0.000122947
1.31639e-05
0.000196475
2.19597e-05
0.000262441
3.2382e-05
0.000319501
4.42315e-05
0.000366696
5.74258e-05
0.000403467
7.20081e-05
0.000429612
8.81505e-05
0.0004452
0.00010615
0.000450446
0.000126419
0.000445574
0.000149473
0.000430685
0.000175924
0.000405637
0.00020647
0.000369974
0.000241908
0.000322885
0.000283146
0.000263238
0.000331246
0.000189741
0.000387477
0.000101406
0.000453127
-3.10304e-07
-0.000108473
0.000528955
1.76212e-06
4.17507e-05
6.3831e-06
0.000118326
1.34436e-05
0.000189414
2.2592e-05
0.000253293
3.35543e-05
0.000308539
4.61511e-05
0.000354099
6.03122e-05
0.000389306
7.60863e-05
0.000413838
9.36469e-05
0.000427639
0.000113291
0.000430802
0.00013543
0.000423435
0.000160584
0.000405531
0.000189369
0.000376852
0.000222498
0.000336845
0.000260784
0.0002846
0.000305163
0.000218859
0.00035674
0.000138164
0.000416874
4.1273e-05
0.000487019
-7.04554e-05
-0.000189784
0.00056833
1.75286e-06
3.99979e-05
6.40888e-06
0.00011367
1.3603e-05
0.00018222
2.30287e-05
0.000243867
3.44471e-05
0.000297121
4.77039e-05
0.000340842
6.2745e-05
0.000374264
7.9629e-05
0.000396954
9.85338e-05
0.000408734
0.000119759
0.000409577
0.000143719
0.000399475
0.000170939
0.00037831
0.000202046
0.000345744
0.000237768
0.000301124
0.000278939
0.000243429
0.000326526
0.000171271
0.000381675
8.30156e-05
0.000445822
-2.28749e-05
0.00052058
-0.000145213
-0.000276748
0.000607543
1.72707e-06
3.82708e-05
6.37651e-06
0.00010902
1.3643e-05
0.000174954
2.32705e-05
0.00023424
3.50602e-05
0.000285331
4.88877e-05
0.000327015
6.47198e-05
0.000358432
8.2629e-05
0.000379045
0.000102802
0.000388561
0.000125544
0.000386835
0.000151278
0.000373741
0.000180538
0.00034905
0.000213966
0.000312316
0.000252311
0.000262779
0.000296435
0.000199305
0.000347339
0.000120367
0.000406208
2.41464e-05
0.000474549
-9.12159e-05
0.000554104
-0.000224768
-0.000369583
0.00064694
1.68527e-06
3.65856e-05
6.28771e-06
0.000104418
1.35669e-05
0.000167675
2.33218e-05
0.000224485
3.53988e-05
0.000273254
4.9708e-05
0.000312706
6.62421e-05
0.000341898
8.5092e-05
0.000360195
0.000106458
0.000367195
0.000130657
0.000362636
0.000158123
0.000346275
0.000189407
0.000317766
0.000225172
0.000276551
0.000266195
0.000221756
0.000313374
0.000152125
0.000367751
6.59907e-05
0.00043055
-3.86525e-05
0.000503331
-0.000163997
0.000587935
-0.000309372
-0.000468548
0.0006869
1.62825e-06
3.49573e-05
6.1452e-06
9.99009e-05
1.33799e-05
0.00016044
2.31909e-05
0.000214674
3.5474e-05
0.000260971
5.01789e-05
0.000298001
6.73288e-05
0.000324748
8.70381e-05
0.000340486
0.000109526
0.000344707
0.000135128
0.000337035
0.000164295
0.000317107
0.000197602
0.000284459
0.000235742
0.000238411
0.000279529
0.000177969
0.000329907
0.000101748
0.000387963
7.93511e-06
0.000454961
-0.000105651
0.000532494
-0.000241529
0.000622463
-0.000399342
-0.000573908
0.000727823
1.55707e-06
3.34002e-05
5.95278e-06
9.55052e-05
1.30897e-05
0.000153303
2.28902e-05
0.000204873
3.53035e-05
0.000248558
5.03235e-05
0.000282981
6.80089e-05
0.000307063
8.85033e-05
0.000319991
0.000112052
0.000321158
0.000139013
0.000310074
0.000169866
0.000286254
0.000205217
0.000249109
0.000245798
0.000197831
0.000292471
0.000131295
0.000346234
4.79845e-05
0.000408229
-5.40592e-05
0.000479755
-0.000177177
0.000562409
-0.000324183
0.000658106
-0.000495038
-0.000685906
0.000770104
1.47312e-06
3.19271e-05
5.7154e-06
9.12629e-05
1.27067e-05
0.000146312
2.24365e-05
0.000195143
3.49116e-05
0.000236082
5.01745e-05
0.000267718
6.83247e-05
0.000288913
8.95412e-05
0.000298775
0.000114101
0.000296598
0.000142396
0.000281779
0.000174941
0.000253709
0.000212383
0.000211667
0.000255505
0.000154709
0.000305228
8.15718e-05
0.000362614
-9.40096e-06
0.000428859
-0.000120304
0.000505295
-0.000253613
0.000593479
-0.000412368
0.000695278
-0.000596838
-0.000804797
0.000814169
1.37808e-06
3.0549e-05
5.43919e-06
8.72018e-05
1.22436e-05
0.000139507
2.18511e-05
0.000185536
3.43296e-05
0.000223604
4.97747e-05
0.000252273
6.83323e-05
0.000270355
9.02232e-05
0.000276884
0.000115765
0.000271056
0.00014539
0.000252154
0.000179659
0.00021944
0.000219273
0.000172053
0.000265077
0.000108906
0.00031806
2.85886e-05
0.000379353
-7.06943e-05
0.00045021
-0.000191161
0.000531979
-0.000335381
0.000626122
-0.000506511
0.000734389
-0.000705105
-0.000930639
0.000860231
1.274e-06
2.9275e-05
5.13149e-06
8.33443e-05
1.17159e-05
0.000132923
2.11598e-05
0.000176092
3.3596e-05
0.000211168
4.91773e-05
0.000236692
6.81019e-05
0.00025143
9.06397e-05
0.000254346
0.000117157
0.000244539
0.000148136
0.000221174
0.000184197
0.000183379
0.000226103
0.000130147
0.000274772
6.02364e-05
0.000331272
-2.79115e-05
0.000396805
-0.000136228
0.000472674
-0.00026703
0.000560221
-0.000422928
0.000660749
-0.000607039
0.000775825
-0.000820181
-0.00106291
0.0009081
1.16322e-06
2.81118e-05
4.80083e-06
7.97067e-05
1.11414e-05
0.000126582
2.0393e-05
0.00016684
3.2756e-05
0.000198805
4.84454e-05
0.000221002
6.77175e-05
0.000232158
9.08985e-05
0.000231165
0.000118412
0.000217026
0.000150804
0.000188783
0.00018876
0.000145423
0.000233121
8.57861e-05
0.000284886
8.47102e-06
0.000345206
-8.82308e-05
0.00041535
-0.000206372
0.000496651
-0.000348331
0.000590417
-0.000516694
0.000697716
-0.000714338
0.000819929
-0.000942395
-0.00120196
0.000958977
1.04845e-06
2.70634e-05
4.45683e-06
7.62983e-05
1.05405e-05
0.000120499
1.95848e-05
0.000157796
3.18612e-05
0.000186528
4.76512e-05
0.000205212
6.72753e-05
0.000212534
9.11243e-05
0.000207316
0.000119689
0.000188461
0.000153588
0.000154884
0.000193585
0.000105425
0.000240609
3.87629e-05
0.000295745
-4.66649e-05
0.000360224
-0.00015271
0.000435372
-0.000281521
0.000522523
-0.000435481
0.000622903
-0.000617074
0.000737255
-0.00082869
0.000866768
-0.00107191
-0.00134717
0.00101198
9.32634e-07
2.61307e-05
4.1101e-06
7.31208e-05
9.93543e-06
0.000114673
1.87732e-05
0.000148958
3.09688e-05
0.000174333
4.68747e-05
0.000189306
6.68824e-05
0.000192526
9.14554e-05
0.000182743
0.000121161
0.000158755
0.000156701
0.000119344
0.000198929
6.31976e-05
0.000248864
-1.11719e-05
0.000307682
-0.000105483
0.000376686
-0.000221714
0.000457235
-0.00036207
0.000550617
-0.000528863
0.000657917
-0.000724375
0.000779457
-0.00095023
0.000916193
-0.00120864
-0.0014976
0.00106662
8.18983e-07
2.53118e-05
3.772e-06
7.01678e-05
9.3502e-06
0.000109095
1.79988e-05
0.00014031
3.014e-05
0.000162192
4.62022e-05
0.000173244
6.66541e-05
0.000172075
9.20401e-05
0.000157357
0.000123014
0.000127781
0.000160369
8.19898e-05
0.000205055
1.85113e-05
0.000258188
-6.43043e-05
0.000321026
-0.000168322
0.000394928
-0.000295616
0.000481247
-0.000448389
0.000581172
-0.000628788
0.000695567
-0.00083877
0.000824242
-0.0010789
0.000967885
-0.00135229
-0.00165205
0.00112233
7.10845e-07
2.46009e-05
3.4544e-06
6.74242e-05
8.80972e-06
0.00010374
1.73039e-05
0.000131816
2.94388e-05
0.000150057
4.57233e-05
0.000156959
6.671e-05
0.000151088
9.30319e-05
0.000131035
0.000125437
9.53754e-05
0.000164819
4.26087e-05
0.000212227
-2.88968e-05
0.000268869
-0.000120947
0.000336076
-0.00023553
0.00041523
-0.000374769
0.000507632
-0.000540791
0.000614304
-0.00073546
0.000735796
-0.000960262
0.000871347
-0.00121445
0.0010213
-0.00150224
-0.00180897
0.00117822
6.11632e-07
2.39893e-05
3.16931e-06
6.48666e-05
8.33925e-06
9.85698e-05
1.67312e-05
0.000123424
2.89297e-05
0.000137858
4.55286e-05
0.000140361
6.71703e-05
0.000129446
9.45834e-05
0.000103622
0.000128618
6.13411e-05
0.000170269
9.57696e-07
0.000220687
-7.93155e-05
0.000281164
-0.000181423
0.000353077
-0.000307443
0.000437793
-0.000459485
0.000536501
-0.0006395
0.000649979
-0.000848938
0.000778363
-0.00108865
0.000920313
-0.0013564
0.00107566
-0.00165758
-0.00196655
0.00123324
5.24705e-07
2.34646e-05
2.92856e-06
6.24627e-05
7.96356e-06
9.35348e-05
1.63229e-05
0.000115064
2.8676e-05
0.000125505
4.57062e-05
0.00012333
6.81509e-05
0.000107002
9.68403e-05
7.49325e-05
0.000132729
2.5452e-05
0.000176918
-4.3231e-05
0.00023065
-0.000133047
0.000295281
-0.000246054
0.000372204
-0.000384366
0.000462717
-0.000549998
0.000567832
-0.000744614
0.000688003
-0.000969109
0.000822849
-0.00122349
0.000970498
-0.00150405
0.00112996
-0.00181705
-0.0021229
0.0012863
4.53248e-07
2.30113e-05
2.74333e-06
6.01726e-05
7.70611e-06
8.8572e-05
1.61185e-05
0.000106652
2.87372e-05
0.000112886
4.63383e-05
0.000105729
6.97591e-05
8.35808e-05
9.99348e-05
4.47569e-05
0.000137927
-1.254e-05
0.000184935
-9.02389e-05
0.000242282
-0.000190394
0.000311362
-0.000315134
0.000393539
-0.000466543
0.000489986
-0.000646445
0.000601458
-0.000856086
0.00072802
-0.00109567
0.000868697
-0.00136417
0.00102118
-0.00165654
0.00118298
-0.00197884
-0.00227642
0.0013365
4.00154e-07
2.26112e-05
2.6238e-06
5.7949e-05
7.58822e-06
8.36076e-05
1.61539e-05
9.80861e-05
2.91667e-05
9.98737e-05
4.74985e-05
8.73974e-05
7.2089e-05
5.89903e-05
0.00010398
1.28662e-05
0.000144336
-5.28962e-05
0.000194447
-0.00014035
0.000255694
-0.000251641
0.000329473
-0.000388914
0.000417068
-0.000554138
0.000519455
-0.000748831
0.000637062
-0.000973693
0.000769506
-0.00122812
0.000915233
-0.0015099
0.00107172
-0.00181302
0.00123378
-0.0021409
-0.00242556
0.00138292
3.67905e-07
2.22433e-05
2.57874e-06
5.57381e-05
7.62828e-06
7.85581e-05
1.64602e-05
8.92542e-05
3.00104e-05
8.63235e-05
4.92485e-05
6.81593e-05
7.52175e-05
3.30212e-05
0.000109064
-2.098e-05
0.000152049
-9.58812e-05
0.000205535
-0.000193836
0.000270934
-0.00031704
0.0003496
-0.00046758
0.000442673
-0.000647211
0.00055086
-0.000857018
0.000674186
-0.00109702
0.000811768
-0.0013657
0.000961545
-0.00165967
0.00112114
-0.00197261
0.00128283
-0.00230259
-0.00256671
0.00142398
3.58343e-07
2.18849e-05
2.61499e-06
5.34815e-05
7.84089e-06
7.33322e-05
1.70619e-05
8.00332e-05
3.13042e-05
7.20812e-05
5.16355e-05
4.7828e-05
7.92011e-05
5.45563e-06
0.000115247
-5.70255e-05
0.000161118
-0.000141753
0.000218229
-0.000250948
0.000287984
-0.000386794
0.000371644
-0.00055124
0.000470138
-0.000745705
0.00058383
-0.00097071
0.000712268
-0.00122546
0.000854008
-0.00150744
0.00100645
-0.00181212
0.00116694
-0.0021331
0.00132934
-0.00246499
-0.00276262
0.00152525
3.7312e-07
2.15118e-05
2.73813e-06
5.11165e-05
8.2374e-06
6.78329e-05
1.79774e-05
7.02932e-05
3.30741e-05
5.69845e-05
5.46919e-05
2.62102e-05
8.40745e-05
-2.3927e-05
0.000122558
-9.55089e-05
0.000171556
-0.00019075
0.000232504
-0.000311896
0.000306756
-0.000461047
0.000395425
-0.000639908
0.000499159
-0.00084944
0.000617906
-0.00108946
0.000750674
-0.00135823
0.000895414
-0.00165218
0.00104898
-0.00196568
0.00120812
-0.00229224
0.00136711
-0.00262398
-0.00293511
0.00153959
4.1289e-07
2.10989e-05
2.95097e-06
4.85784e-05
8.8241e-06
6.19598e-05
1.92172e-05
5.99001e-05
3.53341e-05
4.08675e-05
5.84329e-05
3.11144e-06
8.9849e-05
-5.5343e-05
0.000130996
-0.000136656
0.000183332
-0.000243087
0.000248283
-0.000376846
0.000327105
-0.000539869
0.000420697
-0.0007335
0.000529365
-0.000958108
0.000652575
-0.00121267
0.000788755
-0.00149441
0.000935236
-0.00179866
0.00108834
-0.00211879
0.00124407
-0.00244798
0.00139699
-0.0027769
-0.00309015
0.00155204
4.77841e-07
2.06211e-05
3.25455e-06
4.58017e-05
9.6033e-06
5.5611e-05
2.07846e-05
4.87189e-05
3.80873e-05
2.35648e-05
6.28576e-05
-2.1659e-05
9.65135e-05
-8.89989e-05
0.000140529
-0.000180672
0.000196382
-0.000298939
0.000265445
-0.00044591
0.000348828
-0.000623252
0.000447157
-0.000831829
0.000560332
-0.00107128
0.000687291
-0.00133963
0.000825865
-0.00163298
0.000972798
-0.00194559
0.00112395
-0.00226993
0.00127481
-0.00259884
0.00142026
-0.00292235
-0.0032311
0.00156121
5.67587e-07
2.00535e-05
3.64792e-06
4.27213e-05
1.05732e-05
4.86857e-05
2.26761e-05
3.6616e-05
4.13259e-05
4.91505e-06
6.79501e-05
-4.82832e-05
0.000104036
-0.000125085
0.000151099
-0.000227734
0.000210602
-0.000358443
0.000283827
-0.000519135
0.00037168
-0.000711105
0.000474458
-0.000934607
0.000591602
-0.00118843
0.000721496
-0.00146952
0.00086139
-0.00177287
0.00100751
-0.00209171
0.00115537
-0.0024178
0.00130024
-0.00274371
0.00143742
-0.00305953
-0.00335977
0.00156608
6.81244e-07
1.93722e-05
4.12841e-06
3.92742e-05
1.17284e-05
4.10857e-05
2.48819e-05
2.34626e-05
4.50328e-05
-1.52358e-05
7.36804e-05
-7.69308e-05
0.000112366
-0.000163771
0.000162622
-0.00027799
0.000225864
-0.000421685
0.000303234
-0.000596505
0.000395383
-0.000803254
0.000502225
-0.00104145
0.000622705
-0.00130891
0.000754647
-0.00160146
0.00089476
-0.00191299
0.00103885
-0.0022358
0.00118227
-0.00256121
0.0013203
-0.00288174
0.00144876
-0.003188
-0.00347734
0.00156634
8.17522e-07
1.85547e-05
4.69191e-06
3.53998e-05
1.30605e-05
3.27171e-05
2.73869e-05
9.13619e-06
4.91826e-05
-3.70316e-05
8.00073e-05
-0.000107756
0.000121438
-0.000205202
0.000174996
-0.000331548
0.000242012
-0.000488701
0.000323443
-0.000677935
0.000419632
-0.000899443
0.000530067
-0.00115188
0.000653171
-0.00143201
0.000786225
-0.00173452
0.000925471
-0.00205223
0.00106643
-0.00237676
0.00120443
-0.0026992
0.00133499
-0.0030123
0.00145458
-0.00330759
-0.00358468
0.00156191
9.74842e-07
1.75799e-05
5.33323e-06
3.10414e-05
1.45586e-05
2.34917e-05
3.01718e-05
-6.47706e-06
5.37436e-05
-6.06033e-05
8.68801e-05
-0.000140892
0.000131174
-0.000249496
0.000188104
-0.000388477
0.000258877
-0.000559474
0.000344216
-0.000763274
0.000444113
-0.00099934
0.00055759
-0.00126536
0.000682547
-0.00155697
0.00081576
-0.00186773
0.000953096
-0.00218957
0.00108993
-0.0025136
0.00122171
-0.00283099
0.0013444
-0.00313498
0.00145514
-0.00341833
-0.0036825
0.00155297
1.15146e-06
1.64284e-05
6.04646e-06
2.61464e-05
1.62101e-05
1.33281e-05
3.32145e-05
-2.34814e-05
5.86792e-05
-8.6068e-05
9.42416e-05
-0.000176454
0.000141486
-0.00029674
0.000201817
-0.000448808
0.000276276
-0.000633933
0.000365307
-0.000852305
0.000468506
-0.00110254
0.000584411
-0.00138127
0.000710409
-0.00168296
0.000842835
-0.00200016
0.000977291
-0.00232402
0.00110914
-0.00264545
0.00123412
-0.00295597
0.00134871
-0.00324957
0.00145078
-0.0035204
-0.0037715
0.00153978
1.34557e-06
1.50828e-05
6.82535e-06
2.06666e-05
1.80017e-05
2.15173e-06
3.64907e-05
-4.19704e-05
6.39497e-05
-0.000113527
0.00010203
-0.000214534
0.00015228
-0.000346991
0.000215999
-0.000512527
0.000294018
-0.000711953
0.000386461
-0.000944748
0.000492495
-0.00120857
0.000610164
-0.00149893
0.000736376
-0.00180918
0.000867102
-0.00213088
0.000997799
-0.00245472
0.00112396
-0.00277161
0.00124172
-0.00307372
0.00134816
-0.003356
0.00144186
-0.0036141
-0.00385235
0.0015227
1.55542e-06
1.35274e-05
7.66358e-06
1.45585e-05
1.99194e-05
-1.01041e-05
3.99752e-05
-6.20262e-05
6.95135e-05
-0.000143065
0.000110179
-0.0002552
0.000163461
-0.000400272
0.00023051
-0.000579576
0.000311912
-0.000793355
0.000407429
-0.00104027
0.000515776
-0.00131692
0.00063451
-0.00161767
0.000760109
-0.00193478
0.000888278
-0.00225905
0.00101445
-0.00258089
0.00113438
-0.00289154
0.00124467
-0.00318401
0.00134305
-0.00345439
0.00142877
-0.00369983
-0.0039257
0.00150213
1.77938e-06
1.1748e-05
8.55505e-06
7.78282e-06
2.19496e-05
-2.34987e-05
4.36429e-05
-8.37195e-05
7.53285e-05
-0.000174751
0.000118624
-0.000298496
0.000174927
-0.000456575
0.000245209
-0.000649858
0.000329765
-0.000877912
0.000427965
-0.00113847
0.000538059
-0.00142701
0.000657141
-0.00173675
0.000781326
-0.00205896
0.000906157
-0.00238388
0.00102716
-0.0027019
0.00114045
-0.00300483
0.00124318
-0.00328674
0.00133373
-0.00354494
0.00141194
-0.00377803
-0.00399224
0.00147847
2.01599e-06
9.73205e-06
9.49403e-06
3.04783e-07
2.40791e-05
-3.80838e-05
4.74688e-05
-0.000107109
8.13524e-05
-0.000208634
0.000127298
-0.000344441
0.00018658
-0.000515857
0.000259953
-0.000723231
0.000347387
-0.000965347
0.000447833
-0.00123891
0.000559077
-0.00153826
0.000677788
-0.00185546
0.0007998
-0.00218097
0.000920601
-0.00250468
0.00103593
-0.00281723
0.00114233
-0.00311123
0.00123755
-0.00338196
0.00132057
-0.00362796
0.00139177
-0.00384923
-0.00405259
0.00145213
2.264e-06
7.46805e-06
1.04753e-05
-7.90648e-06
2.62951e-05
-5.39036e-05
5.14285e-05
-0.000132243
8.75434e-05
-0.000244749
0.000136133
-0.000393031
0.000198319
-0.000578043
0.000274601
-0.000799513
0.000364594
-0.00105534
0.00046681
-0.00134113
0.000578587
-0.00165003
0.000696224
-0.0019731
0.000815362
-0.00230011
0.000931543
-0.00262086
0.00104081
-0.0029265
0.00114021
-0.00321063
0.00122807
-0.00346981
0.00130396
-0.00370385
0.00136868
-0.00391396
-0.00410737
0.00142346
2.52234e-06
4.94571e-06
1.14939e-05
-1.68781e-05
2.85857e-05
-7.09953e-05
5.54983e-05
-0.000159155
9.386e-05
-0.000283111
0.000145064
-0.000444235
0.000210045
-0.000643025
0.000289016
-0.000878484
0.000381207
-0.00114753
0.000484688
-0.00144461
0.000596376
-0.00176172
0.000712265
-0.00208899
0.000827901
-0.00241575
0.000938979
-0.00273194
0.00104193
-0.00302945
0.00113433
-0.00330303
0.00121508
-0.00355056
0.00128426
-0.00377304
0.00134305
-0.00397275
-0.00415716
0.00139283
2.79011e-06
2.1556e-06
1.25457e-05
-2.66337e-05
3.09395e-05
-8.93891e-05
5.9655e-05
-0.000187871
0.000100261
-0.000323717
0.000154024
-0.000497998
0.00022166
-0.000710661
0.000303063
-0.000959886
0.000397057
-0.00124152
0.000501279
-0.00154883
0.000612261
-0.0018727
0.000725773
-0.0022025
0.000837358
-0.00252733
0.00094296
-0.00283754
0.00103945
-0.00312594
0.00112496
-0.00338854
0.00119892
-0.00362452
0.00126186
-0.00383598
0.00131523
-0.00402612
-0.00420247
0.00136055
3.06655e-06
-9.10954e-07
1.36264e-05
-3.71935e-05
3.33454e-05
-0.000109108
6.38757e-05
-0.000218401
0.000106706
-0.000366548
0.000162947
-0.000554239
0.000233067
-0.000780781
0.00031661
-0.00104343
0.000411987
-0.0013369
0.000516414
-0.00165326
0.000626095
-0.00198239
0.000736654
-0.00231306
0.000843729
-0.00263441
0.000943587
-0.0029374
0.00103359
-0.00321594
0.00111239
-0.00346734
0.00117992
-0.00369205
0.0012371
-0.00389316
0.00128557
-0.00407458
-0.00424379
0.00132688
3.35098e-06
-4.26193e-06
1.47321e-05
-4.85746e-05
3.57926e-05
-0.000130169
6.81375e-05
-0.000250746
0.000113153
-0.000411563
0.000171768
-0.000612854
0.000244169
-0.000853182
0.000329533
-0.00112879
0.000425851
-0.00143322
0.000529948
-0.00175735
0.000637763
-0.0020902
0.000744859
-0.00242016
0.000847055
-0.0027366
0.000941001
-0.00303135
0.00102456
-0.0032995
0.00109692
-0.0035397
0.00115843
-0.00375357
0.00121032
-0.00394504
0.00125434
-0.00411861
-0.00428153
0.00129208
3.64272e-06
-7.90465e-06
1.58589e-05
-6.07908e-05
3.82699e-05
-0.00015258
7.24171e-05
-0.000284893
0.000119562
-0.000458708
0.00018042
-0.000673712
0.000254874
-0.000927636
0.000341714
-0.00121563
0.000438518
-0.00153002
0.000541761
-0.0018606
0.000647184
-0.00219562
0.000750378
-0.00252335
0.000847415
-0.00283364
0.000935376
-0.00311931
0.00101263
-0.00337676
0.00107885
-0.00360591
0.00113475
-0.00380947
0.0011818
-0.00399209
0.00122181
-0.00415862
-0.00431608
0.00125636
3.94107e-06
-1.18457e-05
1.70027e-05
-7.38525e-05
4.0766e-05
-0.000176343
7.66908e-05
-0.000320818
0.000125889
-0.000507906
0.000188838
-0.000736662
0.000265091
-0.00100389
0.000353041
-0.00130358
0.000449873
-0.00162685
0.000551758
-0.00196248
0.000654315
-0.00229818
0.000753239
-0.00262227
0.000844924
-0.00292533
0.000926908
-0.00320129
0.000998056
-0.00344791
0.00105846
-0.00366632
0.00110918
-0.00386019
0.00115181
-0.00403472
0.00118821
-0.00419502
-0.00434775
0.00121988
4.24525e-06
-1.6091e-05
1.81592e-05
-8.77664e-05
4.3269e-05
-0.000201453
8.09339e-05
-0.000358483
0.000132092
-0.000559064
0.000196958
-0.000801528
0.000274733
-0.00108166
0.000363415
-0.00139227
0.000459819
-0.00172326
0.00055987