/*--------------------------------*- C++ -*----------------------------------*\
  =========                 |
  \\      /  F ield         | OpenFOAM: The Open Source CFD Toolbox
   \\    /   O peration     | Website:  https://openfoam.org
    \\  /    A nd           | Version:  7
     \\/     M anipulation  |
\*---------------------------------------------------------------------------*/
FoamFile
{
    version     2.0;
    format      ascii;
    class       surfaceScalarField;
    location    "140";
    object      phi;
}
// * * * * * * * * * * * * * * * * * * * * * * * * * * * * * * * * * * * * * //

dimensions      [0 3 -1 0 0 0 0];

internalField   nonuniform List<scalar> 
8882
(
5.56916e-06
-4.27837e-05
2.28812e-05
-0.000167023
-0.000334568
5.87328e-06
-4.8657e-05
2.39558e-05
-0.000185105
5.50169e-05
-0.000365629
9.93211e-05
-0.000589679
-0.000853793
6.17375e-06
-5.48307e-05
2.50009e-05
-0.000203932
5.70823e-05
-0.00039771
0.00010245
-0.000635047
0.000160239
-0.000911581
0.000228473
-0.00121933
0.000304081
-0.001547
-0.00188115
6.46866e-06
-6.12994e-05
2.60093e-05
-0.000223473
5.90371e-05
-0.000430738
0.000105336
-0.000681346
0.000163733
-0.000969979
0.000231927
-0.00128752
0.00030657
-0.00162165
0.000383635
-0.00195822
0.000459012
-0.00228338
0.000529146
-0.00258568
0.000591519
-0.00285768
-0.00309652
6.75605e-06
-6.80555e-05
2.69738e-05
-0.000243691
6.08664e-05
-0.00046463
0.000107955
-0.000728434
0.000166754
-0.00102878
0.000234648
-0.00135542
0.00030804
-0.00169504
0.0003828
-0.00203298
0.000454892
-0.00235547
0.000520994
-0.00265179
0.000578925
-0.00291561
0.000627785
-0.00314538
0.000667808
-0.00334358
0.000700054
-0.00351548
-0.00366769
7.03398e-06
-7.50894e-05
2.78872e-05
-0.000264544
6.25559e-05
-0.000499299
0.000110286
-0.000776165
0.000169279
-0.00108777
0.000236617
-0.00142275
0.000308492
-0.00176691
0.000380714
-0.0021052
0.000449365
-0.00242412
0.000511387
-0.00271381
0.000564941
-0.00296917
0.000609456
-0.0031899
0.000645429
-0.00337955
0.000674072
-0.00354412
0.000696932
-0.00369055
0.000715566
-0.00382553
0.000731325
-0.00395475
0.00074525
-0.00408249
-0.00421159
7.30052e-06
-8.239e-05
2.87429e-05
-0.000285986
6.40925e-05
-0.000534649
0.000112311
-0.000824383
0.000171287
-0.00114675
0.000237822
-0.00148929
0.000307932
-0.00183702
0.000377414
-0.00217468
0.000442506
-0.00248921
0.000500436
-0.00277174
0.000549699
-0.00301843
0.000590037
-0.00323023
0.000622172
-0.00341169
0.000647436
-0.00356939
0.000667393
-0.00371051
0.000683547
-0.00384168
0.000697156
-0.00396836
0.000709156
-0.00409449
0.000720171
-0.00422261
-0.00435407
0.000730525
7.55381e-06
-8.99438e-05
2.95344e-05
-0.000307967
6.54638e-05
-0.000570578
0.000114012
-0.000872931
0.000172763
-0.0012055
0.000238259
-0.00155479
0.000306379
-0.00190514
0.000372948
-0.00224125
0.000434396
-0.00255066
0.000488249
-0.00282559
0.000533331
-0.00306351
0.000569667
-0.00326657
0.000598171
-0.00344019
0.000620262
-0.00359148
0.0006375
-0.00372774
0.00065132
-0.0038555
0.000662883
-0.00397992
0.000673026
-0.00410463
0.000682287
-0.00423187
-0.00436271
0.000690927
7.79203e-06
-9.77358e-05
3.02557e-05
-0.000330431
6.6659e-05
-0.000606981
0.000115378
-0.00092165
0.000173697
-0.00126382
0.000237931
-0.00161902
0.000303857
-0.00197107
0.000367371
-0.00230476
0.00042512
-0.00260841
0.000474937
-0.00287541
0.000515962
-0.00310454
0.000548473
-0.00329908
0.000573546
-0.00346526
0.000592656
-0.00361059
0.000607338
-0.00374243
0.00061895
-0.00386712
0.000628556
-0.00398953
0.000636897
-0.00411297
0.000644435
-0.00423941
-0.00436965
0.000651376
8.01343e-06
-0.000105749
3.09011e-05
-0.000353318
6.76685e-05
-0.000643749
0.000116396
-0.000970377
0.000174085
-0.00132151
0.000236846
-0.00168178
0.000300398
-0.00203462
0.000360742
-0.00236511
0.000414765
-0.00266243
0.000460609
-0.00292125
0.000497711
-0.00314164
0.000526575
-0.00332794
0.000548407
-0.00348709
0.000564712
-0.00362689
0.000576983
-0.0037547
0.000586495
-0.00387663
0.000594216
-0.00399725
0.0006008
-0.00411956
0.000606639
-0.00424524
-0.00437491
0.000611894
8.21637e-06
-0.000113966
3.14657e-05
-0.000376568
6.84844e-05
-0.000680767
0.000117059
-0.00101895
0.000173924
-0.00137837
0.000235019
-0.00174287
0.00029604
-0.00209564
0.000353125
-0.00242219
0.00040342
-0.00271273
0.000445371
-0.0029632
0.00047869
-0.00317496
0.000504083
-0.00335334
0.000522851
-0.00350586
0.00053651
-0.00364055
0.000546499
-0.00376469
0.000554003
-0.00388413
0.000559899
-0.00400314
0.000564761
-0.00412442
0.000568921
-0.0042494
-0.00437848
0.000572497
8.39933e-06
-0.000122365
3.19449e-05
-0.000400113
6.90999e-05
-0.000717922
0.000117362
-0.00106721
0.00017322
-0.00143423
0.00023247
-0.00180212
0.000290825
-0.002154
0.000344588
-0.00247596
0.000391173
-0.00275931
0.000429323
-0.00300135
0.000459006
-0.00320464
0.000481096
-0.00337543
0.000496966
-0.00352173
0.000508124
-0.00365171
0.000515941
-0.0037725
0.000521516
-0.00388971
0.000525637
-0.00400726
0.000528805
-0.00412759
0.000531298
-0.0042519
-0.00438039
0.000533203
8.56186e-06
-0.000130927
3.2337e-05
-0.000423888
6.95131e-05
-0.000755099
0.000117308
-0.00111501
0.000171983
-0.0014889
0.000229229
-0.00185937
0.000284806
-0.00220957
0.000335205
-0.00252636
0.000378119
-0.00280223
0.000412572
-0.00303581
0.000438764
-0.00323083
0.000457712
-0.00339437
0.000470838
-0.00353486
0.000479623
-0.00366049
0.000485365
-0.00377825
0.000489077
-0.00389342
0.000491463
-0.00400965
0.000492959
-0.00412908
0.000493797
-0.00425274
-0.00438062
0.000494034
8.70091e-06
-0.000139628
3.26349e-05
-0.000447822
6.97148e-05
-0.000792178
0.000116889
-0.00116218
0.000170217
-0.00154223
0.000225314
-0.00191447
0.000278019
-0.00226228
0.000325034
-0.00257337
0.000364326
-0.00284152
0.000395192
-0.00306667
0.000418039
-0.00325368
0.000433998
-0.00341033
0.000444521
-0.00354538
0.000451047
-0.00366702
0.000454799
-0.003782
0.000456703
-0.00389532
0.000457386
-0.00401033
0.000457227
-0.00412893
0.000456417
-0.00425193
-0.0043792
0.000454991
8.81629e-06
-0.000148444
3.2838e-05
-0.000471844
6.97059e-05
-0.000829046
0.000116112
-0.00120859
0.00016794
-0.00159406
0.000220761
-0.00196729
0.000270522
-0.00231204
0.000314149
-0.002617
0.000349885
-0.00287726
0.000377279
-0.00309407
0.000396921
-0.00327332
0.000410037
-0.00342345
0.000418084
-0.00355343
0.000422453
-0.00367139
0.000424287
-0.00378383
0.000424428
-0.00389546
0.000423435
-0.00400934
0.000421634
-0.00412712
0.000419182
-0.00424947
-0.00437611
0.000416095
8.90703e-06
-0.000157351
3.29445e-05
-0.000495881
6.94859e-05
-0.000865588
0.000114984
-0.00125409
0.000165169
-0.00164424
0.000215604
-0.00201772
0.000262367
-0.0023588
0.00030262
-0.00265725
0.000334872
-0.00290951
0.000358912
-0.00311811
0.000375487
-0.0032899
0.000385893
-0.00343386
0.000391582
-0.00355912
0.000393883
-0.00367369
0.00039386
-0.00378381
0.000392277
-0.00389388
0.000389628
-0.00400669
0.000386194
-0.00412369
0.000382104
-0.00424538
-0.00437137
0.00037736
8.97236e-06
-0.000166323
3.2953e-05
-0.000519862
6.90557e-05
-0.00090169
0.000113511
-0.00129854
0.000161926
-0.00169266
0.000209881
-0.00206568
0.000253608
-0.00240253
0.000290512
-0.00269416
0.000319363
-0.00293836
0.000340166
-0.00313891
0.000353806
-0.00330354
0.000361627
-0.00344168
0.000365061
-0.00356255
0.000365372
-0.003674
0.000363546
-0.00378198
0.00036027
-0.00389061
0.000355981
-0.0040024
0.000350922
-0.00411863
0.000345197
-0.00423966
-0.00436497
0.000338797
9.01165e-06
-0.000175335
3.2863e-05
-0.000543714
6.84179e-05
-0.000937245
0.000111703
-0.00134183
0.000158232
-0.00173919
0.000203628
-0.00211107
0.000244297
-0.0024432
0.00027789
-0.00272775
0.000303427
-0.0029639
0.000321109
-0.00315659
0.000331939
-0.00331437
0.000337291
-0.00344703
0.000338564
-0.00356382
0.000336955
-0.00367239
0.000333369
-0.0037784
0.000328426
-0.00388566
0.000322509
-0.00399649
0.00031583
-0.00411195
0.000308472
-0.0042323
-0.00435692
0.00030042
9.02448e-06
-0.00018436
3.26747e-05
-0.000567364
6.75759e-05
-0.000972146
0.000109573
-0.00138383
0.000154111
-0.00178373
0.000196884
-0.00215385
0.000234486
-0.0024808
0.000264815
-0.00275808
0.000287129
-0.00298621
0.000301806
-0.00317127
0.000309944
-0.00332251
0.000312933
-0.00345002
0.000312129
-0.00356302
0.000308658
-0.00366892
0.000303351
-0.00377309
0.000296761
-0.00387907
0.000289227
-0.00398895
0.000280931
-0.00410366
0.00027194
-0.00422331
-0.00434722
0.00026224
9.01055e-06
-0.00019337
3.23888e-05
-0.000590742
6.65345e-05
-0.00100629
0.000107133
-0.00142442
0.000149588
-0.00182618
0.000189688
-0.00219395
0.000224227
-0.00251534
0.000251347
-0.0027852
0.00027053
-0.00300539
0.000282314
-0.00318305
0.000287871
-0.00332806
0.000288592
-0.00345074
0.000285787
-0.00356021
0.000280507
-0.00366364
0.00027351
-0.00376609
0.000265291
-0.00387085
0.000256148
-0.00397981
0.000246235
-0.00409374
0.000235614
-0.00421269
-0.00433587
0.000224268
8.96977e-06
-0.00020234
3.20064e-05
-0.000613779
6.52996e-05
-0.00103959
0.000104398
-0.00146352
0.000144689
-0.00186647
0.000182079
-0.00223134
0.000213569
-0.00254683
0.000237541
-0.00280917
0.000253688
-0.00302154
0.000262686
-0.00319205
0.000265765
-0.00333114
0.000264308
-0.00344928
0.000259567
-0.00355547
0.000252524
-0.0036566
0.000243865
-0.00375743
0.000234031
-0.00386102
0.000223282
-0.00396906
0.000211755
-0.00408222
0.000199502
-0.00420043
-0.00432288
0.000186516
8.90218e-06
-0.000211242
3.15294e-05
-0.000636406
6.38778e-05
-0.00107193
0.000101383
-0.00150103
0.000139442
-0.00190453
0.000174095
-0.00226599
0.00020256
-0.0025753
0.00022345
-0.00283006
0.000236654
-0.00303474
0.000242969
-0.00319837
0.000243668
-0.00333184
0.000240112
-0.00344573
0.000233496
-0.00354886
0.000224728
-0.00364783
0.00021443
-0.00374714
0.000202992
-0.00384958
0.000190643
-0.00395671
0.0001775
-0.00406907
0.000163615
-0.00418655
-0.00430826
0.000148988
8.80799e-06
-0.00022005
3.096e-05
-0.000658558
6.22768e-05
-0.00110325
9.8104e-05
-0.00153685
0.000133874
-0.0019403
0.000165774
-0.00229789
0.000191244
-0.00260077
0.000209123
-0.00284794
0.000219476
-0.0030451
0.000223206
-0.0032021
0.000221615
-0.00333025
0.000216033
-0.00344015
0.000207594
-0.00354042
0.000197137
-0.00363737
0.00018522
-0.00373522
0.000172188
-0.00383655
0.000158239
-0.00394276
0.000143478
-0.00405431
0.000127962
-0.00417103
-0.00429198
0.000111683
8.68752e-06
-0.000228738
3.03009e-05
-0.000680171
6.05045e-05
-0.00113345
9.45783e-05
-0.00157093
0.00012801
-0.00197373
0.000157153
-0.00232703
0.000179666
-0.00262328
0.000194605
-0.00286288
0.000202199
-0.00305269
0.000203438
-0.00320334
0.000199639
-0.00332645
0.000192098
-0.00343261
0.000181883
-0.0035302
0.000169766
-0.00362525
0.000156248
-0.0037217
0.000141629
-0.00382193
0.000126082
-0.00392721
0.000109698
-0.00403793
9.25462e-05
-0.00415388
-0.00427403
7.46005e-05
8.54126e-06
-0.000237279
2.95553e-05
-0.000701185
5.85699e-05
-0.00116247
9.08227e-05
-0.00160318
0.000121879
-0.00200479
0.000148267
-0.00235342
0.000167867
-0.00264288
0.000179939
-0.00287495
0.000184862
-0.00305761
0.000183698
-0.00320217
0.000177769
-0.00332052
0.000168328
-0.00342316
0.000156379
-0.00351826
0.00014263
-0.00361151
0.000127526
-0.0037066
0.000111331
-0.00380574
9.41893e-05
-0.00391007
7.61813e-05
-0.00401992
5.73496e-05
-0.00413505
-0.00425443
3.77508e-05
8.3698e-06
-0.000245649
2.87266e-05
-0.000721542
5.6482e-05
-0.00119022
8.68548e-05
-0.00163355
0.000115506
-0.00203344
0.00013915
-0.00237707
0.000155884
-0.00265961
0.000165165
-0.00288423
0.000167503
-0.00305995
0.000164019
-0.00319869
0.00015603
-0.00331253
0.000144743
-0.00341188
0.000131099
-0.00350461
0.000115742
-0.00359615
9.90672e-05
-0.00368992
8.13041e-05
-0.00378797
6.25823e-05
-0.00389135
4.29794e-05
-0.00400032
2.24064e-05
-0.00411448
-0.00423196
-7.07063e-08
8.17385e-06
-0.000253822
2.78185e-05
-0.000741187
5.42504e-05
-0.00121666
8.26919e-05
-0.001662
0.000108918
-0.00205967
0.000129835
-0.00239798
0.000143755
-0.00267353
0.000150319
-0.0028908
0.000150154
-0.00305978
0.000144428
-0.00319296
0.000134445
-0.00330255
0.000121362
-0.00339879
0.000106056
-0.00348931
8.91122e-05
-0.0035792
7.088e-05
-0.00367169
5.15575e-05
-0.00376865
3.12655e-05
-0.00387106
1.00717e-05
-0.00397913
-1.19692e-05
-0.00409244
-0.00420909
-3.48398e-05
7.9542e-06
-0.000261777
2.68348e-05
-0.000760067
5.18848e-05
-0.00124171
7.83514e-05
-0.00168846
0.000102139
-0.00208346
0.000120352
-0.0024162
0.000131513
-0.00268469
0.000135433
-0.00289472
0.000132845
-0.0030572
0.000124951
-0.00318507
0.000113035
-0.00329063
9.82002e-05
-0.00338396
8.12631e-05
-0.00347237
6.27523e-05
-0.00356069
4.29747e-05
-0.00365191
2.20977e-05
-0.00374777
2.12931e-07
-0.00384917
-2.25549e-05
-0.00395636
-4.62375e-05
-0.00406875
-0.00418469
-7.06352e-05
7.71175e-06
-0.000269488
2.57799e-05
-0.000778136
4.9395e-05
-0.00126532
7.38502e-05
-0.00171292
9.51939e-05
-0.0021048
0.000110731
-0.00243173
0.000119189
-0.00269315
0.000120539
-0.00289606
0.000115604
-0.00305226
0.000105611
-0.00317508
9.18162e-05
-0.00327684
7.52708e-05
-0.00336741
5.67305e-05
-0.00345383
3.66712e-05
-0.00354063
1.53598e-05
-0.0036306
-7.06017e-06
-0.00372535
-3.04905e-05
-0.00382574
-5.4873e-05
-0.00393198
-8.01404e-05
-0.00404349
-0.00415862
-0.000106209
7.44745e-06
-0.000276936
2.46579e-05
-0.000795346
4.67909e-05
-0.00128745
6.92052e-05
-0.00173533
8.81052e-05
-0.0021237
0.000101
-0.00244463
0.000106813
-0.00269896
0.000105663
-0.00289492
9.84541e-05
-0.00304505
8.64266e-05
-0.00316305
7.08052e-05
-0.00326122
5.25865e-05
-0.0033492
3.24685e-05
-0.00343371
1.08775e-05
-0.00351904
-1.19561e-05
-0.00360777
-3.59128e-05
-0.0037014
-6.09115e-05
-0.00380074
-8.68813e-05
-0.00390601
-0.000113746
-0.00401662
-0.00413089
-0.000141474
7.16234e-06
-0.000284098
2.34732e-05
-0.000811657
4.40824e-05
-0.00130806
6.44327e-05
-0.00175568
8.08951e-05
-0.00214016
9.11835e-05
-0.00245492
9.44107e-05
-0.00270219
9.08322e-05
-0.00289134
8.14183e-05
-0.00303564
6.74166e-05
-0.00314905
5.00158e-05
-0.00324382
3.01581e-05
-0.00332934
8.48592e-06
-0.00341204
-1.46202e-05
-0.00349594
-3.89648e-05
-0.00358342
-6.44518e-05
-0.00367591
-9.10127e-05
-0.00377418
-0.00011857
-0.00387845
-0.000147042
-0.00398815
-0.000176409
6.85748e-06
-0.000290956
2.22304e-05
-0.00082703
4.12793e-05
-0.00132711
5.95484e-05
-0.00177395
7.35848e-05
-0.0021542
8.13064e-05
-0.00246264
8.20076e-05
-0.00270289
7.60682e-05
-0.0028854
6.45157e-05
-0.00302408
4.85964e-05
-0.00313313
2.94602e-05
-0.00322468
7.99513e-06
-0.00330787
-1.52086e-05
-0.00338883
-3.98144e-05
-0.00347133
-6.56589e-05
-0.00355758
-9.26677e-05
-0.0036489
-0.000120785
-0.00374607
-0.000149929
-0.0038493
6.53399e-06
-0.00029749
2.09338e-05
-0.00084143
3.83911e-05
-0.00134457
5.45676e-05
-0.00179013
6.61942e-05
-0.00216582
7.13911e-05
-0.00246783
6.9626e-05
-0.00270113
6.13921e-05
-0.00287716
4.77639e-05
-0.00301046
2.998e-05
-0.00311534
9.14925e-06
-0.00320385
-1.38933e-05
-0.00328483
-3.8608e-05
-0.00336412
-6.46984e-05
-0.00344524
-9.20307e-05
-0.00353025
-0.000120552
-0.00362038
-0.000150218
6.19303e-06
-0.000303683
1.9588e-05
-0.000854825
3.54272e-05
-0.00136041
4.95049e-05
-0.0018042
5.87419e-05
-0.00217506
6.14585e-05
-0.00247055
5.72866e-05
-0.00269695
4.68226e-05
-0.0028667
3.11786e-05
-0.00299481
1.15799e-05
-0.00309574
-1.09073e-05
-0.00318136
-3.55e-05
-0.00326024
-6.17059e-05
-0.00333791
-8.92655e-05
-0.00341768
-0.000118073
-0.00350144
5.83575e-06
-0.000309518
1.81974e-05
-0.000867186
3.23968e-05
-0.00137461
4.43743e-05
-0.00181618
5.12458e-05
-0.00218193
5.15279e-05
-0.00247083
4.50085e-05
-0.00269043
3.23765e-05
-0.00285407
1.47735e-05
-0.00297721
-6.59308e-06
-0.00307438
-3.07011e-05
-0.00315725
-5.68181e-05
-0.00323412
-8.4496e-05
-0.00331024
-0.00011351
-0.00338867
5.46335e-06
-0.000314982
1.67665e-05
-0.000878489
2.93088e-05
-0.00138715
3.91891e-05
-0.00182606
4.37222e-05
-0.00218647
4.16172e-05
-0.00246873
3.28089e-05
-0.00268163
1.80689e-05
-0.00283933
-1.43863e-06
-0.0029577
-2.45292e-05
-0.00305129
-5.02248e-05
-0.00313156
-7.78416e-05
-0.0032065
-0.000106973
-0.0032811
5.07703e-06
-0.000320059
1.52995e-05
-0.000888712
2.61717e-05
-0.00139802
3.3962e-05
-0.00183385
3.61867e-05
-0.00218869
3.1743e-05
-0.00246429
2.07034e-05
-0.00267059
3.91419e-06
-0.00282254
-1.74475e-05
-0.00293634
-4.22202e-05
-0.00302651
-6.94718e-05
-0.00310431
-9.8565e-05
-0.00317741
4.67803e-06
-0.000324737
1.38008e-05
-0.000897835
2.29938e-05
-0.00140722
2.8705e-05
-0.00183956
2.86538e-05
-0.00218864
2.19204e-05
-0.00245755
8.70656e-06
-0.00265737
-1.00774e-05
-0.00280375
-3.32428e-05
-0.00291318
-5.96585e-05
-0.0030001
-8.84364e-05
-0.00307553
4.26763e-06
-0.000329004
1.22746e-05
-0.000905842
1.9783e-05
-0.00141472
2.34294e-05
-0.00184321
2.11372e-05
-0.00218635
1.21633e-05
-0.00244858
-3.16704e-06
-0.00264204
-2.38931e-05
-0.00278303
-4.88163e-05
-0.00288825
-7.68375e-05
-0.00297208
3.84717e-06
-0.000332852
1.0725e-05
-0.000912719
1.65469e-05
-0.00142055
1.8146e-05
-0.00184481
1.36496e-05
-0.00218185
2.491e-06
-0.00243742
-1.49123e-05
-0.00262464
-3.75245e-05
-0.00276042
-6.41601e-05
-0.00286162
3.41819e-06
-0.00033627
9.15597e-06
-0.000918457
1.32929e-05
-0.00142468
1.28654e-05
-0.00184438
6.20131e-06
-0.00217519
-7.10405e-06
-0.00242411
-2.65129e-05
-0.00260523
-5.09622e-05
-0.00273597
2.98216e-06
-0.000339252
7.57137e-06
-0.000923046
1.00278e-05
-0.00142714
7.59769e-06
-0.00184195
-1.1762e-06
-0.00216641
-1.6592e-05
-0.0024087
-3.79609e-05
-0.00258386
2.53978e-06
-0.000341792
5.97475e-06
-0.000926481
6.7583e-06
-0.00142792
2.35423e-06
-0.00183755
-8.53471e-06
-0.00215552
-2.59734e-05
-0.00239126
2.09256e-06
-0.000343884
4.37076e-06
-0.00092876
3.48757e-06
-0.00142704
-2.86999e-06
-0.00183119
-1.58022e-05
-0.00214259
1.641e-06
-0.000345525
2.76417e-06
-0.000929883
2.62388e-07
-0.00142454
-8.05959e-06
-0.00182287
-0.00212766
1.18511e-06
-0.00034671
1.14765e-06
-0.000929845
-3.02568e-06
-0.00142036
-1.32077e-05
-0.00181269
7.22305e-07
-0.000347433
-4.68904e-07
-0.000928654
-6.25939e-06
-0.00141457
2.13548e-07
-0.000347646
-2.08743e-06
-0.000926353
-0.00140719
-2.55662e-07
-0.000347391
-3.6957e-06
-0.000922913
-6.88412e-07
-0.000346702
-0.000345555
0.000376087
0.000377682
-1.13221e-06
0.000378814
0.000999992
-6.74849e-07
0.000379489
-5.4064e-06
0.00100472
0.00151718
-2.49052e-07
0.000379738
-3.81695e-06
0.00100829
0.00152652
2.22942e-07
0.000379515
-2.21025e-06
0.00101073
-9.99409e-06
0.00153431
0.00194613
7.42278e-07
0.000378773
-5.91029e-07
0.00101206
-6.79786e-06
0.00154051
-1.95383e-05
0.00195887
0.00227281
1.20823e-06
0.000377564
1.02683e-06
0.00101224
-3.57709e-06
0.00154512
-1.44814e-05
0.00196978
-3.23212e-05
0.00229065
0.00252177
1.66673e-06
0.000375898
2.64656e-06
0.00101126
-2.86377e-07
0.00154805
-9.36983e-06
0.00197886
-2.52937e-05
0.00230657
0.00254427
2.12107e-06
0.000373777
4.25607e-06
0.00100912
2.92367e-06
0.00154938
-4.21834e-06
0.001986
-1.81771e-05
0.00232053
-3.8785e-05
0.00256488
0.00273748
2.57179e-06
0.000371205
5.86566e-06
0.00100583
6.19312e-06
0.00154906
1.00465e-06
0.00199119
-1.09777e-05
0.00233252
-2.96507e-05
0.00258355
-5.41842e-05
0.00276202
0.00288812
3.01864e-06
0.000368186
7.47067e-06
0.00100138
9.46194e-06
0.00154706
6.20044e-06
0.00199445
-3.70255e-06
0.00234242
-2.03936e-05
0.00260024
-4.30843e-05
0.00278471
-7.05896e-05
0.00291562
0.0030117
3.46031e-06
0.000364726
9.06649e-06
0.000995773
1.2733e-05
0.0015434
1.14547e-05
0.00199573
3.63612e-06
0.00235024
-1.10233e-05
0.0026149
-3.18208e-05
0.00280551
-5.76052e-05
0.00294141
-8.71356e-05
0.00304123
0.00312027
3.89535e-06
0.00036083
1.065e-05
0.000989018
1.59996e-05
0.00153805
1.67263e-05
0.00199501
1.10265e-05
0.00235594
-1.53005e-06
0.00262746
-2.04003e-05
0.00282438
-4.44194e-05
0.00296543
-7.23466e-05
0.00306916
-0.000103099
0.00315103
0.00322229
4.32296e-06
0.000356507
1.22177e-05
0.000981123
1.92544e-05
0.00153101
2.20088e-05
0.00199225
1.84701e-05
0.00235948
8.03039e-06
0.0026379
-8.83428e-06
0.00284124
-3.10384e-05
0.00298763
-5.73236e-05
0.00309544
-8.65695e-05
0.00318027
-0.000117944
0.00325366
0.00332315
4.74197e-06
0.000351766
1.37659e-05
0.0009721
2.24907e-05
0.00152229
2.72931e-05
0.00198745
2.59538e-05
0.00236082
1.76933e-05
0.00264616
2.87629e-06
0.00285606
-1.74696e-05
0.00300798
-4.2072e-05
0.00312004
-6.97794e-05
0.00320798
-9.97143e-05
0.0032836
-0.000131308
0.00335474
0.00342607
5.15091e-06
0.000346615
1.52907e-05
0.00096196
2.57017e-05
0.00151188
3.25695e-05
0.00198058
3.34662e-05
0.00235992
2.74326e-05
0.00265219
1.47089e-05
0.00286878
-3.7205e-06
0.00302641
-2.65979e-05
0.00314292
-5.27335e-05
0.00323412
-8.12045e-05
0.00331207
-0.000111399
0.00338493
-0.000142974
0.00345765
0.00353296
5.54849e-06
0.000341066
1.6788e-05
0.00095072
2.88803e-05
0.00149978
3.78278e-05
0.00197163
4.09949e-05
0.00235675
3.72369e-05
0.00265595
2.6665e-05
0.00287935
1.01984e-05
0.00304287
-1.09085e-05
0.00316403
-3.54372e-05
0.00325865
-6.24184e-05
0.00333905
-9.11943e-05
0.00341371
-0.000121386
0.00348784
-0.000152819
0.00356439
0.00364501
5.93349e-06
0.000335133
1.82541e-05
0.0009384
3.20188e-05
0.00148602
4.30572e-05
0.00196059
4.85271e-05
0.00235128
4.70933e-05
0.00265738
3.87282e-05
0.00288772
2.42791e-05
0.00305732
4.98873e-06
0.00318332
-1.78965e-05
0.00328153
-4.33607e-05
0.00336451
-7.06983e-05
0.00344105
-9.94916e-05
0.00351663
-0.000129537
0.00359443
-0.000160764
0.00367624
0.00376311
6.30471e-06
0.000328828
1.96846e-05
0.00092502
3.51094e-05
0.00147059
4.82463e-05
0.00194746
5.60493e-05
0.00234348
5.69874e-05
0.00265644
5.08854e-05
0.00289382
3.85099e-05
0.0030697
2.10847e-05
0.00320074
-1.19303e-07
0.00330273
-2.40367e-05
0.00338843
-4.99153e-05
0.00346693
-7.72948e-05
0.00354401
-0.00010594
0.00362308
-0.000135758
0.00370605
-0.000166717
0.00379406
-0.00019878
0.00388776
0.00398732
6.66103e-06
0.000322167
2.10755e-05
0.000910605
3.81438e-05
0.00145353
5.33831e-05
0.00193222
6.35468e-05
0.00233331
6.69037e-05
0.00265309
6.31221e-05
0.0028976
5.28783e-05
0.00307994
3.73699e-05
0.00321625
1.78902e-05
0.00332221
-4.45225e-06
0.00341077
-2.88502e-05
0.00349132
-5.48002e-05
0.00356996
-8.20334e-05
0.00365031
-0.000110431
0.00373445
-0.000139944
0.00382358
-0.000170524
0.00391834
-0.000202083
0.00401888
0.00412457
7.00128e-06
0.000315166
2.24226e-05
0.000895184
4.11137e-05
0.00143483
5.84549e-05
0.00191488
7.1004e-05
0.00232077
7.68254e-05
0.00264727
7.54223e-05
0.00289901
6.73702e-05
0.00308799
5.38328e-05
0.00322979
3.61201e-05
0.00333993
1.53865e-05
0.00343151
-7.5086e-06
0.00351422
-3.20128e-05
0.00359446
-5.78216e-05
0.00367612
-8.47894e-05
0.00376142
-0.000112848
0.00385164
-0.000141939
0.00394743
-0.000171976
0.00404892
-0.000202867
0.00415546
0.00426529
-0.000234584
7.32436e-06
0.000307841
2.37215e-05
0.000878787
4.40102e-05
0.00141455
6.34486e-05
0.00189544
7.84043e-05
0.00230581
8.67346e-05
0.00263894
8.77685e-05
0.00289797
8.19704e-05
0.00309379
7.04608e-05
0.0032413
5.45616e-05
0.00335583
3.54714e-05
0.0034506
1.4104e-05
0.00353559
-8.9385e-06
0.00361751
-3.33106e-05
0.00370049
-5.88394e-05
0.00378695
-8.54371e-05
0.00387823
-0.000113035
0.00397503
-0.000141549
0.00407743
-0.000170898
0.00418481
0.00429545
-0.000201063
7.62916e-06
0.000300212
2.49681e-05
0.000861448
4.68244e-05
0.00139269
6.83502e-05
0.00187391
8.57299e-05
0.00228843
9.66118e-05
0.00262805
0.000100142
0.00289444
9.66616e-05
0.00309727
8.72399e-05
0.00325072
7.32039e-05
0.00336986
5.57942e-05
0.00346801
3.59805e-05
0.0035554
1.44176e-05
0.00363907
-8.50701e-06
0.00372342
-3.2588e-05
0.00381103
-5.77188e-05
0.00390336
-8.3821e-05
0.00400114
-0.000110813
0.00410442
-0.000138623
0.00421262
0.00432406
-0.00016723
7.9146e-06
0.000292297
2.61579e-05
0.000843205
4.95471e-05
0.0013693
7.31451e-05
0.00185032
9.29621e-05
0.00226861
0.000106436
0.00261458
0.000112521
0.00288836
0.000111425
0.00309837
0.000104154
0.00325799
9.20343e-05
0.00338198
7.63453e-05
0.0034837
5.81131e-05
0.00357363
3.80484e-05
0.00365913
1.6584e-05
0.00374488
-6.04274e-06
0.00383366
-2.97013e-05
0.00392702
-5.43057e-05
0.00402574
-7.97764e-05
0.00412989
-0.000106056
0.0042389
0.0043511
-0.000133096
8.17965e-06
0.000284118
2.72866e-05
0.000824098
5.2169e-05
0.00134442
7.78184e-05
0.00182467
0.000100081
0.00224635
0.000116184
0.00259848
0.000124883
0.00287966
0.00012624
0.00309701
0.000121186
0.00326304
0.000111039
0.00339213
9.7114e-05
0.00349762
8.04936e-05
0.00359025
6.19467e-05
0.00367768
4.1955e-05
0.00376487
2.07912e-05
0.00385482
-1.3944e-06
0.00394921
-2.44984e-05
0.00404884
-4.84477e-05
0.00415384
-7.32088e-05
0.00426366
0.00437657
-9.86773e-05
8.42333e-06
0.000275695
2.83502e-05
0.000804171
5.46805e-05
0.00131809
8.23545e-05
0.00179699
0.000107066
0.00222164
0.000125833
0.00257971
0.000137203
0.00286829
0.000141083
0.00309313
0.000138316
0.00326581
0.000130202
0.00340024
0.000118088
0.00350974
0.000103112
0.00360523
8.61047e-05
0.00369469
6.75986e-05
0.00378338
4.79052e-05
0.00387451
2.71998e-05
0.00396991
5.59091e-06
0.00407045
-1.6835e-05
0.00417627
-4.0088e-05
0.00428692
0.00440048
-6.40021e-05
8.64468e-06
0.00026705
2.93443e-05
0.000783471
5.70723e-05
0.00129036
8.67375e-05
0.00176733
0.000113895
0.00219448
0.000135356
0.00255825
0.000149456
0.00285419
0.000155929
0.00308666
0.000155522
0.00326622
0.000149506
0.00340626
0.000139254
0.00351999
0.000125959
0.00361852
0.000110514
0.00371013
9.35074e-05
0.00380039
7.52917e-05
0.00389273
5.60686e-05
0.00398914
3.59601e-05
0.00409056
1.5059e-05
0.00419717
-6.54105e-06
0.00430852
0.00442312
-2.91845e-05
8.84284e-06
0.000258207
3.0265e-05
0.000762049
5.93346e-05
0.00126129
9.09509e-05
0.00173571
0.000120545
0.00216489
0.000144726
0.00253407
0.00016161
0.0028373
0.000170751
0.00307752
0.00017278
0.00326419
0.000168931
0.00341011
0.000160596
0.00352832
0.000149022
0.0036301
0.000135165
0.00372399
0.000119673
0.00381588
0.000102943
0.00390946
8.52052e-05
0.00400687
6.6594e-05
0.00410917
4.71915e-05
0.00421657
2.6955e-05
0.00432875
0.00444464
5.44124e-06
9.01703e-06
0.00024919
3.11083e-05
0.000739958
6.14581e-05
0.00123094
9.49782e-05
0.00170219
0.000126992
0.00213287
0.000153914
0.00250714
0.000173636
0.00281758
0.000185517
0.00306563
0.000190063
0.00325964
0.000188454
0.00341172
0.000182096
0.00353468
0.000172287
0.00363991
0.000160048
0.00373623
0.000146087
0.00382984
0.000130851
0.0039247
0.000114602
0.00402312
9.74896e-05
0.00412628
7.95981e-05
0.00423446
6.09721e-05
0.00434738
0.004464
4.1607e-05
9.16653e-06
0.000240023
3.18708e-05
0.000717254
6.34337e-05
0.00119938
9.88026e-05
0.00166682
0.000133212
0.00209846
0.00016289
0.00247747
0.0001855
0.00279497
0.000200195
0.00305094
0.00020734
0.0032525
0.000208051
0.00341101
0.000203736
0.003539
0.000195739
0.0036479
0.00018515
0.00374682
0.00017274
0.00384225
0.000159008
0.00393843
0.000144252
0.00403788
0.000128644
0.00414189
0.000112281
0.00425083
9.52238e-05
0.00436444
0.00448176
7.74641e-05
9.29075e-06
0.000230733
3.25488e-05
0.000693996
6.52522e-05
0.00116667
0.000102407
0.00162967
0.00013918
0.00206169
0.000171621
0.00244503
0.000197165
0.00276943
0.000214749
0.00303335
0.00022458
0.00324267
0.000227694
0.00340789
0.000225492
0.0035412
0.000219362
0.00365403
0.000210458
0.00375572
0.000199621
0.00385309
0.000187403
0.00395065
0.000174145
0.00405114
0.000160042
0.00415599
0.000145204
0.00426567
0.000129686
0.00437995
0.00449795
0.000113501
9.3892e-06
0.000221343
3.31395e-05
0.000670245
6.69051e-05
0.00113291
0.000105775
0.0015908
0.00014487
0.0020226
0.000180074
0.00240982
0.000208595
0.00274091
0.000229141
0.00301281
0.000241745
0.00323006
0.000247351
0.00340229
0.00024734
0.00354121
0.000243137
0.00365823
0.000235959
0.0037629
0.000226718
0.00386233
0.000216027
0.00396134
0.00020427
0.0040629
0.000191671
0.00416859
0.000178349
0.00427899
0.000164363
0.00439394
0.00451258
0.000149726
9.4615e-06
0.000211882
3.36399e-05
0.000646067
6.83842e-05
0.00109816
0.000108891
0.00155029
0.000150255
0.00198123
0.000188215
0.00237186
0.000219747
0.00270937
0.000243327
0.00298923
0.000258797
0.00321459
0.000266989
0.00339409
0.000269252
0.00353895
0.00026704
0.00366045
0.000261634
0.00376831
0.000254018
0.00386995
0.000244869
0.00397049
0.000234618
0.00407315
0.000223518
0.00417969
0.000211708
0.0042908
0.000199246
0.0044064
0.00452569
0.000186142
9.50742e-06
0.000202375
3.40478e-05
0.000621527
6.9682e-05
0.00106253
0.000111737
0.00150823
0.000155311
0.00193766
0.000196007
0.00233117
0.000230581
0.0026748
0.000257263
0.00296255
0.000275691
0.00319617
0.000286568
0.00338322
0.000291196
0.00353432
0.000291048
0.00366059
0.000287467
0.00377189
0.000281507
0.0038759
0.000273917
0.00397808
0.000265177
0.00408189
0.000255577
0.00418929
0.000245272
0.0043011
0.000234328
0.00441734
0.00453727
0.000222752
9.52687e-06
0.000192848
3.43611e-05
0.000596692
7.07916e-05
0.0010261
0.0001143
0.00146473
0.00016001
0.00189195
0.000203413
0.00228776
0.000241051
0.00263716
0.000270901
0.0029327
0.000292382
0.00317469
0.000306047
0.00336955
0.000313137
0.00352723
0.000315134
0.0036586
0.000313434
0.00377359
0.00030917
0.00388017
0.000303158
0.00398409
0.000295939
0.00408911
0.000287837
0.0041974
0.000279032
0.00430991
0.000269602
0.00442678
0.00454732
0.000259548
9.51988e-06
0.000183328
3.45786e-05
0.000571633
7.1707e-05
0.000988971
0.000116564
0.00141987
0.000164327
0.00184419
0.000210397
0.00224169
0.00025111
0.00259645
0.000284189
0.00289962
0.000308816
0.00315006
0.000325379
0.00335299
0.000335035
0.00351757
0.000339264
0.00365437
0.000339514
0.00377334
0.000336988
0.00388269
0.00033258
0.0039885
0.000326891
0.0040948
0.000320289
0.004204
0.000312981
0.00431721
0.000305058
0.0044347
0.00455585
0.000296524
9.48668e-06
0.000173841
3.46993e-05
0.000546421
7.24231e-05
0.000951247
0.000118516
0.00137378
0.000168237
0.00179447
0.000216921
0.00219301
0.000260711
0.00255266
0.000297073
0.00286326
0.00032494
0.00312219
0.000344512
0.00333342
0.000356847
0.00350524
0.000363406
0.00364781
0.000365678
0.00377107
0.000364941
0.00388343
0.000362166
0.00399127
0.000358021
0.00409894
0.000352924
0.00420909
0.000347109
0.00432303
0.000340687
0.00444112
0.00456287
0.000333668
9.42763e-06
0.000164413
3.47228e-05
0.000521126
7.29357e-05
0.000913034
0.000120144
0.00132657
0.000171717