/*--------------------------------*- C++ -*----------------------------------*\
  =========                 |
  \\      /  F ield         | OpenFOAM: The Open Source CFD Toolbox
   \\    /   O peration     | Website:  https://openfoam.org
    \\  /    A nd           | Version:  7
     \\/     M anipulation  |
\*---------------------------------------------------------------------------*/
FoamFile
{
    version     2.0;
    format      ascii;
    class       volVectorField;
    location    "140";
    object      U;
}
// * * * * * * * * * * * * * * * * * * * * * * * * * * * * * * * * * * * * * //

dimensions      [0 1 -1 0 0 0 0];

internalField   nonuniform List<vector> 
4575
(
(0.0227989 -0.00388951 2.65365e-20)
(0.0884016 -0.00912855 2.77331e-20)
(0.174684 -0.00635885 1.02695e-19)
(0.0261286 -0.00402971 3.12363e-20)
(0.0983428 -0.00885386 1.13419e-19)
(0.191145 -0.00484189 8.89492e-20)
(0.301659 0.00594814 2.46694e-20)
(0.426161 0.0232063 2.30496e-19)
(0.0296436 -0.00407251 -1.40747e-19)
(0.108718 -0.00827934 -5.04185e-20)
(0.208157 -0.00283265 -1.65651e-19)
(0.324781 0.00990176 -9.08159e-20)
(0.454421 0.0293813 -4.63555e-20)
(0.591507 0.0544566 -1.45672e-19)
(0.729432 0.0833379 -9.06105e-20)
(0.861279 0.11385 1.61723e-19)
(0.0333389 -0.00400746 4.66087e-20)
(0.119503 -0.00738074 -7.71429e-20)
(0.225669 -0.000302185 1.29938e-19)
(0.348341 0.014535 6.023e-20)
(0.482893 0.0363324 -8.61064e-20)
(0.623283 0.0636535 1.05414e-19)
(0.762541 0.0944245 2.60926e-20)
(0.893622 0.12625 -4.67698e-20)
(1.0104 0.15672 5.63652e-20)
(1.10856 0.183776 -4.3554e-20)
(1.18606 0.205994 -1.21965e-19)
(1.24317 0.222708 -1.21003e-20)
(0.0372084 -0.00382418 -2.30897e-20)
(0.130673 -0.00613483 1.26081e-20)
(0.243628 0.00277617 -1.18771e-19)
(0.372253 0.019869 7.57176e-20)
(0.511461 0.0440678 7.0227e-20)
(0.654757 0.0736339 -9.95807e-20)
(0.794866 0.106211 4.57547e-20)
(0.924696 0.1392 -8.85669e-20)
(1.03839 0.17011 -1.25294e-19)
(1.13214 0.196932 4.50153e-20)
(1.20459 0.218393 8.28748e-21)
(1.2566 0.234026 6.89443e-20)
(1.29074 0.244065 1.06922e-19)
(1.31047 0.249232 -5.1909e-21)
(1.31948 0.250493 1.80447e-20)
(0.0412443 -0.00351255 -2.6002e-20)
(0.142197 -0.00451961 -3.24391e-20)
(0.261975 0.00642634 1.25598e-19)
(0.396426 0.0259209 -1.54579e-20)
(0.540006 0.0525902 6.00525e-22)
(0.685795 0.0843824 -6.77836e-20)
(0.826276 0.118664 -1.18844e-20)
(0.954398 0.152657 4.75065e-20)
(1.06465 0.183824 1.61826e-19)
(1.15381 0.210241 -5.16081e-20)
(1.22119 0.23081 8.79007e-21)
(1.26825 0.245276 2.76132e-20)
(1.29801 0.25407 -5.35723e-20)
(1.31419 0.25806 -3.42249e-20)
(1.32051 0.258297 9.17251e-21)
(1.32028 0.255811 4.50356e-20)
(1.31606 0.251478 -1.11059e-20)
(1.30968 0.245982 -6.89356e-22)
(1.30229 0.239795 3.93884e-20)
(0.0454374 -0.00306274 4.53139e-20)
(0.154041 -0.0025146 9.07706e-20)
(0.280645 0.0106692 6.22498e-20)
(0.420766 0.0327031 -3.38532e-20)
(0.568407 0.0618967 1.24877e-19)
(0.716266 0.0958784 7.35164e-20)
(0.856651 0.131748 -1.09714e-19)
(0.98264 0.166576 -3.8124e-20)
(1.08915 0.197818 6.58572e-22)
(1.17359 0.223665 -3.14045e-20)
(1.23592 0.24322 -9.00254e-20)
(1.27821 0.256449 1.49031e-20)
(1.30385 0.263971 1.68641e-22)
(1.31676 0.266789 -9.20654e-20)
(1.32067 0.266025 4.1841e-20)
(1.31878 0.262727 -2.23339e-20)
(1.3135 0.257753 -9.75828e-20)
(1.30649 0.251758 4.68722e-20)
(1.29873 0.245153 -9.81383e-20)
(1.29071 0.238044 4.26411e-20)
(0.0497768 -0.0024654 -1.58793e-20)
(0.166167 -0.000101138 -3.89469e-20)
(0.299573 0.0155221 -6.47306e-20)
(0.445176 0.0402233 -3.10431e-21)
(0.596547 0.0719792 -5.76883e-21)
(0.746046 0.108096 -6.96293e-20)
(0.885883 0.145424 1.58239e-20)
(1.00935 0.180914 1.48374e-20)
(1.11186 0.212048 -3.0722e-20)
(1.19149 0.237172 2.50641e-21)
(1.24886 0.255605 4.74951e-20)
(1.28657 0.267536 -6.22594e-21)
(1.30837 0.273769 3.56023e-20)
(1.31828 0.275426 1.57554e-20)
(1.32004 0.273686 -8.61321e-20)
(1.31671 0.269602 6.60995e-21)
(1.31053 0.264011 5.18361e-20)
(1.30299 0.25753 -1.21843e-20)
(1.29494 0.250515 2.34158e-21)
(1.28676 0.243138 -8.22712e-21)
(0.0542504 -0.00171176 -1.45862e-20)
(0.178537 0.00273737 -1.38995e-20)
(0.318687 0.0209992 -2.45182e-20)
(0.469557 0.0484842 -1.60693e-20)
(0.624308 0.0828245 -4.1624e-20)
(0.775017 0.121007 4.81603e-20)
(0.913874 0.15965 9.50008e-20)
(1.03447 0.195623 3.29903e-20)
(1.13278 0.226475 1.67919e-20)
(1.20756 0.250731 -3.98668e-20)
(1.26007 0.267946 -3.96432e-22)
(1.29343 0.278532 2.54747e-20)
(1.31164 0.283466 -3.25082e-20)
(1.31884 0.283977 1.22575e-20)
(1.3187 0.281286 4.10117e-20)
(1.31411 0.276442 -1.4069e-20)
(1.30718 0.270252 -2.47496e-20)
(1.2992 0.263296 -2.26998e-20)
(1.29092 0.255878 8.00479e-20)
(1.28261 0.248234 2.7949e-20)
(0.0588447 -0.000793703 -2.61312e-20)
(0.191105 0.00601521 3.08078e-20)
(0.337913 0.0271102 -7.00504e-21)
(0.493811 0.057484 2.18252e-20)
(0.651578 0.0944142 -1.94671e-20)
(0.803069 0.134575 -1.18657e-20)
(0.940539 0.174383 -4.6259e-20)
(1.05796 0.210659 5.43296e-21)
(1.15191 0.241058 1.29746e-20)
(1.22184 0.264315 2.88587e-20)
(1.26965 0.280227 -1.11798e-20)
(1.29888 0.289431 -8.75013e-21)
(1.31378 0.293065 7.92983e-21)
(1.31852 0.292448 -1.38662e-20)
(1.31669 0.288831 3.13615e-20)
(1.31103 0.283251 2.06303e-20)
(1.30346 0.276479 -3.51354e-21)
(1.29514 0.269057 -2.2709e-21)
(1.28667 0.26124 -2.16041e-20)
(1.27827 0.253327 -2.69172e-20)
(0.0635448 0.000296062 5.63737e-21)
(0.203826 0.0097442 -9.6398e-21)
(0.357178 0.0338614 6.53671e-21)
(0.517838 0.0672155 -8.94828e-21)
(0.678245 0.106725 -3.41751e-20)
(0.830101 0.148764 1.57454e-20)
(0.965805 0.189577 7.59338e-21)
(1.07978 0.225977 -3.60447e-20)
(1.16926 0.255762 -2.25695e-20)
(1.23438 0.277897 -2.1414e-21)
(1.27766 0.292436 -3.10227e-20)
(1.303 0.30023 3.18165e-20)
(1.31486 0.302567 -8.15265e-23)
(1.31739 0.300843 -4.18561e-21)
(1.31408 0.296325 -7.94516e-21)
(1.3075 0.290029 3.84866e-21)
(1.2994 0.282691 2.67854e-21)
(1.29081 0.274809 -1.02672e-21)
(1.28221 0.266596 -7.89548e-21)
(1.27374 0.258412 9.60131e-21)
(0.0683347 0.00156396 1.8908e-21)
(0.216654 0.0139334 6.3615e-21)
(0.376402 0.0412546 3.52593e-21)
(0.54154 0.077667 -1.63351e-21)
(0.704207 0.11973 2.25794e-20)
(0.856021 0.163534 -5.01255e-21)
(0.989609 0.205186 7.91544e-21)
(1.09991 0.241533 1.74421e-20)
(1.18485 0.270549 -3.12603e-21)
(1.24525 0.291454 7.79286e-22)
(1.28417 0.304559 8.53526e-21)
(1.30589 0.310924 -4.50909e-21)
(1.31495 0.311974 5.80964e-21)
(1.31552 0.309164 1.04606e-21)
(1.31091 0.30377 -1.07971e-20)
(1.30355 0.296777 5.29118e-22)
(1.29502 0.288884 1.37571e-20)
(1.28622 0.280548 -2.83308e-21)
(1.27753 0.27194 4.17683e-21)
(1.26901 0.263481 -4.66444e-21)
(0.0731976 0.00301543 7.80996e-22)
(0.229537 0.0185892 9.41266e-21)
(0.39551 0.0492875 5.04606e-21)
(0.564822 0.0888218 -1.02631e-21)
(0.729364 0.133395 2.09244e-20)
(0.880745 0.17884 -5.88712e-21)
(1.0119 0.221161 1.09395e-20)
(1.11834 0.257283 1.4598e-20)
(1.19871 0.285387 -2.9957e-21)
(1.2545 0.304964 6.68287e-22)
(1.28928 0.316585 9.69414e-21)
(1.3076 0.32151 -3.89259e-21)
(1.31413 0.321285 3.78122e-21)
(1.31294 0.317414 -9.17923e-22)
(1.30722 0.311165 -8.79513e-21)
(1.29921 0.303493 -2.50181e-22)
(1.29034 0.295055 1.36372e-20)
(1.28138 0.286267 -2.64006e-21)
(1.27264 0.277267 4.91411e-21)
(1.2641 0.268529 -5.23944e-21)
(0.0781154 0.00465489 6.79415e-21)
(0.242426 0.0237149 -1.21093e-20)
(0.414424 0.0579536 6.13922e-21)
(0.587589 0.100659 -4.91369e-21)
(0.753624 0.147687 -3.31716e-20)
(0.904201 0.194638 1.33891e-20)
(1.03264 0.237457 6.13888e-21)
(1.13508 0.273184 -4.12696e-20)
(1.21088 0.300242 -1.72027e-20)
(1.26219 0.318405 -1.59543e-23)
(1.29304 0.328503 -2.61617e-20)
(1.30823 0.331984 2.1639e-20)
(1.31246 0.3305 -4.79858e-21)
(1.30972 0.32559 3.01792e-21)
(1.30303 0.318509 -1.15603e-20)
(1.29449 0.310173 8.68711e-21)
(1.28535 0.301199 5.47171e-21)
(1.27629 0.291961 -9.69772e-22)
(1.26753 0.282568 -1.05551e-20)
(1.25899 0.273548 9.58772e-21)
(0.0830691 0.00648561 -1.47146e-20)
(0.255269 0.0293108 -6.53534e-21)
(0.433066 0.067242 -9.42977e-21)
(0.609753 0.113152 3.2258e-20)
(0.776899 0.162565 1.01817e-22)
(0.926323 0.210879 -1.68928e-20)
(1.0518 0.254024 -6.82906e-20)
(1.15013 0.289196 6.58714e-21)
(1.2214 0.315083 7.60571e-21)
(1.26839 0.331758 3.35195e-20)
(1.29553 0.340302 4.93258e-21)
(1.30783 0.342342 -2.76552e-20)
(1.30999 0.339618 2.57942e-20)
(1.30589 0.333693 -1.02988e-20)
(1.29839 0.325798 3.83502e-20)
(1.28941 0.316812 -3.47728e-21)
(1.28008 0.307308 1.95526e-21)
(1.27095 0.297623 1.64767e-21)
(1.26221 0.287836 -2.79981e-20)
(1.25369 0.27853 -1.67529e-20)
(0.088039 0.00850964 -5.60429e-21)
(0.268011 0.0353741 -3.14528e-20)
(0.45136 0.0771379 2.46312e-20)
(0.631226 0.126272 -3.10632e-20)
(0.799112 0.177986 -5.55741e-20)
(0.947055 0.227515 4.80498e-20)
(1.06935 0.270814 7.84485e-20)
(1.1635 0.305276 2.78232e-20)
(1.23031 0.329882 1.91583e-20)
(1.27315 0.345003 -5.42663e-20)
(1.29681 0.351972 4.11536e-20)
(1.30647 0.352577 4.71043e-21)
(1.30678 0.348634 -5.08247e-20)
(1.30149 0.341717 1.9667e-20)
(1.29331 0.333029 6.88428e-20)
(1.28398 0.323404 -4.6654e-20)
(1.27451 0.313377 -1.31102e-20)
(1.26538 0.303243 -1.24978e-20)
(1.25667 0.293063 5.70111e-20)
(1.2482 0.283467 3.24109e-20)
(0.0930052 0.0107278 3.85089e-20)
(0.280602 0.0418987 -6.40388e-20)
(0.469231 0.087622 -9.24129e-20)
(0.651927 0.139985 4.12252e-21)
(0.82019 0.193905 -1.65617e-20)
(0.966352 0.244494 -6.6056e-20)
(1.08528 0.28778 -1.09292e-20)
(1.17522 0.321387 3.33531e-20)
(1.23767 0.344608 -5.30327e-20)
(1.27654 0.358123 4.29598e-20)
(1.29696 0.363504 4.92803e-20)
(1.30419 0.362684 -3.06764e-20)
(1.30286 0.357545 1.24306e-20)
(1.29655 0.349659 6.18865e-20)
(1.2878 0.340194 -8.16121e-20)
(1.27821 0.329942 1.40093e-20)
(1.26867 0.319395 3.76259e-20)
(1.25955 0.308813 -1.12914e-20)
(1.25092 0.29824 -1.18842e-20)
(1.24251 0.288349 -2.0147e-21)
(0.0979472 0.0131396 5.69956e-20)
(0.292989 0.0488756 1.03072e-19)
(0.486608 0.0986715 5.41944e-20)
(0.671779 0.154252 -6.41568e-20)
(0.840069 0.210274 1.65989e-19)
(0.984175 0.261766 2.53817e-20)
(1.09959 0.304873 -6.92966e-20)
(1.18531 0.337488 -4.94708e-20)
(1.24351 0.359235 -3.92032e-20)
(1.27861 0.3711 1.29982e-20)
(1.29602 0.374884 -4.32218e-20)
(1.30106 0.372656 1.33259e-21)
(1.29827 0.366345 -2.85706e-20)
(1.2911 0.357511 -3.85168e-20)
(1.28189 0.347287 -6.49021e-21)
(1.27211 0.336416 -3.90951e-21)
(1.26255 0.325353 -6.96922e-20)
(1.25349 0.314324 5.17831e-20)
(1.24495 0.303356 -7.75589e-20)
(1.23662 0.293168 -4.49129e-20)
(0.102844 0.0157434 -6.92129e-20)
(0.30512 0.0562925 -2.77206e-20)
(0.503422 0.110259 1.22419e-19)
(0.690711 0.169033 3.07654e-20)
(0.858692 0.227043 -1.04567e-19)
(1.00049 0.279277 -6.01085e-20)
(1.11228 0.322047 -1.98105e-20)
(1.1938 0.353543 1.27122e-19)
(1.24788 0.373736 8.98814e-20)
(1.27942 0.383917 -3.04189e-20)
(1.29405 0.386104 -1.74312e-20)
(1.29712 0.382486 4.36535e-20)
(1.29306 0.375026 -4.66956e-20)
(1.28515 0.365267 2.13854e-20)
(1.27559 0.354298 9.06584e-21)
(1.26569 0.342817 -1.13805e-20)
(1.25614 0.331242 8.4686e-20)
(1.24718 0.319764 -3.51478e-20)
(1.23877 0.308401 6.97526e-20)
(1.23054 0.297915 -2.42933e-20)
(0.107676 0.0185361 -3.90257e-20)
(0.316944 0.0641344 -7.00765e-20)
(0.519605 0.122356 -1.10056e-19)
(0.708658 0.184285 6.59978e-20)
(0.87601 0.244158 3.60434e-20)
(1.01529 0.296976 -5.07984e-20)
(1.12336 0.339254 8.35939e-20)
(1.20072 0.369515 -1.27618e-19)
(1.25085 0.388084 -1.34166e-19)
(1.27904 0.396554 8.01107e-20)
(1.29111 0.397151 2.94971e-20)
(1.29241 0.392164 -3.23598e-20)
(1.28724 0.38358 4.87264e-20)
(1.27873 0.372917 3.76707e-20)
(1.2689 0.361218 -2.70733e-20)
(1.25895 0.349135 -9.04235e-21)
(1.24947 0.33705 -6.45572e-20)
(1.24063 0.325123 1.28478e-20)
(1.23236 0.313365 -5.32209e-20)
(1.22426 0.302579 -8.56036e-21)
(0.112421 0.0215134 3.24238e-20)
(0.328412 0.0723831 -5.5135e-20)
(0.535095 0.134926 9.97378e-20)
(0.725559 0.199959 1.67367e-19)
(0.891981 0.261568 -2.38346e-19)
(1.02854 0.314809 2.07919e-19)
(1.13285 0.35645 5.52299e-20)
(1.20612 0.385368 -7.9408e-20)
(1.25245 0.402253 9.27855e-20)
(1.2775 0.408996 5.40676e-20)
(1.28724 0.408012 6.61028e-20)
(1.28696 0.40168 -1.13157e-19)
(1.28086 0.391998 -2.28976e-20)
(1.27186 0.380451 5.4455e-20)
(1.26185 0.368036 2.05029e-20)
(1.2519 0.355357 9.25127e-20)
(1.24251 0.342765 1.14175e-19)
(1.23383 0.330391 -2.77593e-20)
(1.22574 0.318237 4.72464e-20)
(1.21779 0.30715 5.25517e-20)
(0.11706 0.0246696 -9.49197e-21)
(0.339477 0.0810176 -1.2825e-19)
(0.549833 0.147934 -1.74404e-19)
(0.74136 0.216008 -2.25636e-19)
(0.90657 0.279216 -2.18565e-20)
(1.04025 0.332724 8.15004e-20)
(1.14075 0.373587 -1.53323e-20)
(1.21003 0.401066 2.67643e-20)
(1.25274 0.416219 -4.10351e-20)
(1.27487 0.421225 6.77998e-20)
(1.28248 0.418675 -1.01945e-19)
(1.28083 0.411023 1.31098e-19)
(1.27392 0.400269 7.41024e-20)
(1.26455 0.387859 3.31118e-20)
(1.25443 0.374739 -4.88923e-20)
(1.24453 0.361473 -5.13986e-20)
(1.23529 0.348377 -4.79059e-20)
(1.22679 0.335555 3.43737e-21)
(1.2189 0.323004 6.08558e-20)
(1.21112 0.311618 -6.38877e-20)
(0.121572 0.0279979 -1.67783e-20)
(0.350093 0.0900144 9.98255e-20)
(0.563766 0.161341 1.24649e-19)
(0.756014 0.232379 -1.9383e-20)
(0.919749 0.297048 5.71118e-20)
(1.0504 0.350667 1.52571e-20)
(1.1471 0.390623 -8.19385e-20)
(1.2125 0.416576 6.42593e-20)
(1.25177 0.429957 5.95289e-20)
(1.27119 0.433222 -1.01911e-19)
(1.27689 0.429125 1.62106e-19)
(1.27402 0.420181 -1.3269e-19)
(1.26646 0.408381 7.55937e-20)
(1.25681 0.395128 -1.08102e-19)
(1.24665 0.381316 1.56585e-19)
(1.23685 0.367468 -9.70457e-20)
(1.22778 0.353872 -2.78213e-20)
(1.2195 0.340603 -3.67405e-20)
(1.21184 0.327652 -7.59915e-20)
(1.20427 0.315971 1.31512e-21)
(0.125938 0.0314902 1.20652e-19)
(0.360217 0.0993474 1.25009e-19)
(0.576841 0.175103 -1.79077e-19)
(0.76948 0.24902 -1.08195e-19)
(0.931497 0.315006 1.58883e-19)
(1.05901 0.368586 -6.2739e-20)
(1.15191 0.407513 9.09549e-20)
(1.21355 0.431864 3.87311e-20)
(1.24958 0.443442 -8.8846e-20)
(1.26651 0.44497 -2.17201e-19)
(1.27049 0.43935 -3.82551e-20)
(1.26658 0.429143 -7.90096e-20)
(1.25849 0.416322 -1.15419e-19)
(1.24865 0.402244 9.21387e-21)
(1.23852 0.387755 -1.17947e-20)
(1.22886 0.373332 -1.08396e-20)
(1.22001 0.359239 8.68e-20)
(1.21196 0.34552 6.12816e-20)
(1.20457 0.332164 6.97306e-21)
(1.19722 0.320201 3.45932e-20)
(0.130139 0.0351373 -2.91037e-20)
(0.369808 0.108988 2.21965e-19)
(0.589015 0.189176 8.54732e-20)
(0.781721 0.265876 1.7257e-19)
(0.941798 0.333034 5.57681e-20)
(1.06608 0.38643 2.11744e-20)
(1.15523 0.424213 -1.32297e-19)
(1.21325 0.446896 -4.20885e-20)
(1.24623 0.456649 2.07139e-20)
(1.26086 0.45645 1.61285e-19)
(1.26332 0.449333 -5.21657e-20)
(1.25854 0.437893 6.37315e-20)
(1.25004 0.424078 1.32083e-19)
(1.2401 0.409196 2.96555e-20)
(1.23005 0.39404 -2.5546e-20)
(1.22058 0.379051 3.35084e-20)
(1.21195 0.364465 6.21505e-20)
(1.20418 0.350296 2.73642e-20)
(1.19706 0.336529 6.92307e-20)
(1.1899 0.324301 5.15116e-20)
(0.134157 0.0389288 -7.60414e-20)
(0.378829 0.118906 -1.13751e-19)
(0.600245 0.203514 7.18005e-20)
(0.792709 0.282892 2.39876e-20)
(0.950645 0.351076 4.7206e-20)
(1.07163 0.404146 -1.9104e-19)
(1.15708 0.440683 6.86068e-20)
(1.21163 0.46164 -1.46258e-19)
(1.24175 0.469554 -8.02091e-20)
(1.25431 0.467644 9.2064e-20)
(1.25542 0.459059 -9.82196e-21)
(1.2499 0.446417 5.71951e-21)
(1.2411 0.431635 -1.60447e-19)
(1.23114 0.415968 -6.36405e-20)
(1.22123 0.400159 5.09732e-20)
(1.21199 0.384612 -8.79355e-20)
(1.20363 0.36954 -4.63344e-20)
(1.19615 0.354927 -4.60561e-20)
(1.18931 0.340767 -7.76939e-20)
(1.18223 0.328251 -1.74505e-19)
(0.137974 0.0428534 4.42871e-20)
(0.387245 0.129069 -5.36556e-20)
(0.610497 0.218069 -2.90785e-19)
(0.802419 0.30001 1.55833e-19)
(0.958034 0.369073 -1.92095e-19)
(1.07567 0.421684 -2.70147e-20)
(1.1575 0.456879 -2.58588e-19)
(1.20873 0.476065 2.71891e-19)
(1.2362 0.482135 1.53198e-19)
(1.24687 0.478533 -9.10781e-21)
(1.24682 0.468511 5.30196e-20)
(1.24071 0.454701 -6.60629e-20)
(1.23172 0.438979 -5.22646e-21)
(1.22181 0.422546 2.99011e-20)
(1.21209 0.406097 -3.01599e-20)
(1.2031 0.390001 5.50212e-20)
(1.19505 0.37445 -7.14941e-20)
(1.18788 0.359408 -6.26445e-20)
(1.18133 0.344921 3.49718e-20)
(1.17444 0.332042 4.63534e-20)
(0.141575 0.0468986 1.01239e-19)
(0.395023 0.139443 9.91306e-20)
(0.619738 0.23279 7.60544e-20)
(0.810834 0.317174 -1.94058e-21)
(0.963967 0.386971 -4.98141e-20)
(1.07823 0.438994 3.34336e-19)
(1.15653 0.472763 1.87807e-19)
(1.20461 0.490139 1.25712e-19)
(1.22961 0.494365 1.76053e-19)
(1.2386 0.489097 2.11814e-20)
(1.23755 0.477674 -1.42402e-19)
(1.23098 0.462728 -1.48022e-20)
(1.22188 0.446093 -2.97793e-20)
(1.21209 0.428914 -9.52293e-20)
(1.20261 0.411838 -3.47094e-20)
(1.19393 0.395204 -4.82252e-20)
(1.1862 0.379179 1.47315e-19)
(1.17938 0.363714 -1.74556e-21)
(1.17316 0.348902 3.86832e-20)
(1.1666 0.33571 3.04031e-20)
(0.144945 0.0510512 -3.39278e-20)
(0.402135 0.149992 -5.7632e-20)
(0.627942 0.247628 -1.24928e-19)
(0.817941 0.334327 -2.09474e-20)
(0.968453 0.404713 -2.04294e-19)
(1.07934 0.456027 -1.45311e-19)
(1.1542 0.488295 4.782e-20)
(1.1993 0.503833 -3.42879e-19)
(1.22204 0.506223 -1.83429e-19)
(1.22952 0.499317 4.40373e-20)
(1.22764 0.48653 -2.19865e-20)
(1.22073 0.470482 1.26894e-19)
(1.21162 0.452962 1.69491e-19)
(1.20202 0.435057 4.20568e-20)
(1.19282 0.417369 1.11524e-19)
(1.18446 0.400206 -5.69492e-20)
(1.17709 0.383714 7.55128e-20)
(1.17065 0.367834 4.13637e-20)
(1.16478 0.352693 3.45265e-20)
(1.15858 0.339199 -6.474e-20)
(0.148068 0.055297 5.0924e-20)
(0.408555 0.160678 -5.99232e-21)
(0.635088 0.26253 -1.93505e-19)
(0.823734 0.35141 -2.83911e-22)
(0.971503 0.422243 4.59852e-19)
(1.07902 0.472736 9.12667e-20)
(1.15056 0.503435 6.83038e-20)
(1.19286 0.517115 1.98319e-19)
(1.21352 0.517684 -1.58645e-19)
(1.21968 0.509174 -1.67761e-19)
(1.21711 0.49506 -1.31075e-21)
(1.20998 0.477947 -1.14402e-19)
(1.20095 0.459569 -6.25391e-20)
(1.19158 0.44096 1.6524e-19)
(1.18271 0.422674 -4.27889e-20)
(1.17472 0.404992 3.56634e-21)
(1.16773 0.388043 -5.50532e-20)
(1.16168 0.371754 -8.04429e-20)
(1.1562 0.356287 4.17272e-21)
(1.15037 0.342501 7.20078e-20)
(0.150934 0.0596214 -2.45862e-19)
(0.414262 0.171464 1.49961e-19)
(0.641159 0.277444 3.32553e-19)
(0.828212 0.368367 1.03688e-19)
(0.973134 0.439507 -5.41744e-19)
(1.07731 0.489074 -2.2208e-19)
(1.14565 0.518147 -1.72121e-19)
(1.18532 0.529957 -6.2064e-20)
(1.2041 0.528725 2.07486e-19)
(1.20911 0.518649 2.23671e-20)
(1.206 0.503249 -4.17006e-20)
(1.19875 0.485105 7.68685e-20)
(1.18987 0.465898 1.08978e-20)
(1.18081 0.446605 -1.96592e-19)
(1.1723 0.427738 5.70055e-20)
(1.1647 0.409549 7.42435e-20)
(1.15811 0.392151 3.40387e-20)
(1.15248 0.375462 4.5806e-20)
(1.14743 0.359673 -7.71823e-20)
(1.14198 0.345606 -3.66167e-20)
(0.153529 0.0640088 -1.67891e-20)
(0.419238 0.182311 7.5692e-20)
(0.646143 0.292317 3.75728e-20)
(0.831376 0.385141 1.10723e-19)
(0.973367 0.456453 3.02501e-19)
(1.07424 0.504995 -1.954e-19)
(1.13952 0.532394 -1.14284e-20)
(1.17672 0.54233 1.8429e-19)
(1.19381 0.539323 -2.20507e-19)
(1.19784 0.52772 7.10837e-20)
(1.19432 0.511076 1.79746e-19)
(1.18705 0.49194 4.04161e-20)
(1.17841 0.471933 -8.46815e-20)
(1.16969 0.451978 1.40145e-19)
(1.16159 0.432545 -1.59151e-19)
(1.15441 0.413861 3.747e-21)
(1.14825 0.396025 -3.54281e-20)
(1.14306 0.378945 5.81362e-20)
(1.13845 0.362843 5.05384e-20)
(0.155843 0.0684431 3.18943e-20)
(0.423466 0.19318 1.2104e-19)
(0.650032 0.307097 1.19179e-19)
(0.833236 0.401676 -7.53045e-20)
(0.972227 0.473027 6.5001e-21)
(1.06985 0.520455 1.8147e-19)
(1.1322 0.546141 3.18416e-19)
(1.16713 0.554206 -3.25305e-20)
(1.18269 0.549455 3.01634e-20)
(1.1859 0.536368 -8.78506e-20)
(1.1821 0.518524 -1.83292e-19)
(1.17492 0.498433 2.9075e-20)
(1.16657 0.477656 9.96959e-20)
(1.15825 0.457061 -1.99805e-20)
(1.15059 0.43708 -1.40078e-20)
(1.14385 0.417915 -6.08131e-20)
(1.13814 0.399652 -9.74446e-21)
(1.13343 0.382191 -2.32906e-20)
(0.157869 0.072908 -1.10032e-19)
(0.426935 0.204029 -2.77293e-19)
(0.652825 0.321732 -4.10184e-19)
(0.833803 0.417916 6.96453e-21)
(0.969741 0.489179 -2.70825e-21)
(1.06418 0.535411 -1.64826e-19)
(1.12374 0.559353 8.75676e-20)
(1.15657 0.565558 -9.40465e-20)
(1.17079 0.559099 1.74513e-19)
(1.17333 0.544575 1.71966e-19)
(1.16936 0.525575 7.52478e-20)
(1.16236 0.504566 -1.93944e-20)
(1.15437 0.48305 2.66747e-20)
(1.1465 0.46184 -6.73208e-20)
(1.1393 0.441329 1.11695e-19)
(1.13304 0.421698 -4.73038e-20)
(0.159598 0.0773865 1.19466e-19)
(0.429636 0.21482 3.74443e-19)
(0.654521 0.336169 1.47119e-19)
(0.833095 0.433807 -2.89204e-20)
(0.965943 0.50486 -1.57935e-19)
(1.05728 0.549821 -3.40638e-20)
(1.11419 0.571996 -4.27078e-20)
(1.14509 0.576359 -1.34932e-20)
(1.15814 0.568232 -5.20294e-20)
(1.16015 0.552319 -1.67666e-19)
(1.15614 0.532211 -1.34397e-19)
(1.14939 0.510324 9.55709e-20)
(1.14182 0.4881 -1.28305e-19)
(1.13444 0.466299 -5.20384e-21)
(1.12775 0.445278 3.24718e-20)
(0.161024 0.0818615 1.15983e-20)
(0.431565 0.225511 2.39573e-20)
(0.655127 0.350357 3.36832e-19)
(0.831132 0.449297 -1.89208e-19)
(0.960866 0.520021 4.41877e-19)
(1.04917 0.563647 1.97216e-19)
(1.10359 0.58404 -2.64794e-19)
(1.13274 0.586583 -2.39491e-20)
(1.14478 0.576833 -2.05799e-19)
(1.1464 0.559582 -4.82517e-20)
(1.14245 0.538412 5.37375e-20)
(1.13604 0.515688 6.9655e-20)
(1.12895 0.492787 1.32986e-19)
(1.1221 0.470421 1.57429e-20)
(0.162143 0.0863157 9.50799e-20)
(0.432719 0.236062 -4.4765e-19)
(0.654653 0.364244 -1.00253e-19)
(0.827938 0.464333 -7.45448e-20)
(0.954547 0.534616 -2.76661e-19)
(1.03992 0.576848 -2.6835e-19)
(1.092 0.595454 -8.16181e-20)
(1.11956 0.596206 -1.02116e-19)
(1.13074 0.584881 2.86811e-19)
(1.13211 0.566344 1.0833e-20)
(1.12832 0.544162 -1.71681e-19)
(1.12231 0.520641 -2.31156e-19)
(1.11575 0.497097 1.01902e-19)
(0.16295 0.0907316 7.51398e-21)
(0.4331 0.246434 6.67566e-20)
(0.653111 0.377782 -2.0284e-19)
(0.823542 0.478866 1.18292e-19)
(0.947027 0.5486 1.30904e-20)
(1.02957 0.589389 3.34649e-19)
(1.07945 0.606206 1.29829e-19)
(1.10559 0.605203 2.00635e-19)
(1.11607 0.592355 -1.28196e-19)
(1.11731 0.572587 2.23588e-19)
(1.11377 0.549442 1.44578e-19)
(1.10824 0.525166 2.96578e-20)
(0.163445 0.0950919 -1.91625e-19)
(0.432711 0.256587 4.52565e-19)
(0.650519 0.390922 2.36715e-19)
(0.817975 0.492847 8.69382e-20)
(0.938348 0.561931 -4.57555e-20)
(1.01816 0.601234 -2.75728e-19)
(1.066 0.616271 4.07217e-20)
(1.09087 0.613551 -3.78667e-20)
(1.1008 0.599235 -1.31406e-19)
(1.10202 0.578293 -1.53748e-19)
(1.09882 0.554236 8.01961e-20)
(0.163626 0.0993792 -3.99636e-20)
(0.431561 0.266483 -1.197e-19)
(0.646897 0.403616 -2.72444e-19)
(0.81127 0.50623 -1.39076e-19)
(0.928554 0.574567 -1.61225e-19)
(1.00575 0.612351 1.40081e-19)
(1.05169 0.625619 -5.53556e-20)
(1.07546 0.621229 3.34925e-20)
(1.08496 0.605501 -1.97636e-20)
(1.08628 0.583444 -6.83323e-20)
(0.163494 0.103577 3.8638e-19)
(0.429659 0.276083 1.33368e-20)
(0.642269 0.415819 -1.19377e-19)
(0.803465 0.518969 1.1311e-19)
(0.917692 0.58647 -1.82283e-20)
(0.992376 0.622706 -5.14463e-20)
(1.03658 0.634228 -1.17151e-19)
(1.05939 0.628213 1.62798e-20)
(1.0686 0.611136 1.33951e-19)
(0.163052 0.107668 -8.62372e-20)
(0.427017 0.285352 9.74033e-20)
(0.636661 0.427486 2.71408e-20)
(0.794601 0.531022 2.37397e-19)
(0.905813 0.597606 -3.1637e-20)
(0.978094 0.632267 -1.47703e-19)
(1.0207 0.64207 2.60077e-19)
(1.0427 0.634486 8.16816e-21)
(0.162302 0.111637 -3.54303e-19)
(0.42365 0.294253 -1.13909e-20)
(0.630104 0.438575 2.23145e-19)
(0.784722 0.542348 -2.6981e-20)
(0.892957 0.607936 3.40267e-19)
(0.962956 0.641012 1.435e-21)
(1.00411 0.649123 -2.72265e-19)
(0.161249 0.115469 2.11593e-19)
(0.419576 0.302753 -1.72387e-19)
(0.622632 0.449044 -2.60587e-19)
(0.773867 0.552909 -4.25425e-20)
(0.879176 0.617427 -2.23114e-19)
(0.947019 0.648911 9.87547e-20)
(0.159899 0.119149 -8.22012e-20)
(0.414815 0.310819 1.1034e-19)
(0.614283 0.458858 -3.16148e-20)
(0.762075 0.562664 -4.16698e-20)
(0.864525 0.62605 8.44831e-21)
(0.158257 0.122661 -1.2842e-19)
(0.40939 0.318415 -1.28103e-19)
(0.605086 0.46798 2.78557e-19)
(0.749399 0.571586 7.92416e-20)
(0.849063 0.633774 1.9904e-20)
(0.156327 0.125992 1.57451e-19)
(0.403324 0.325515 2.45223e-19)
(0.595078 0.476367 -6.44897e-20)
(0.735898 0.579643 -6.07079e-20)
(0.154111 0.129114 -1.04635e-19)
(0.396655 0.332095 -1.90179e-19)
(0.584308 0.483994 -8.94724e-20)
(0.151627 0.132003 1.02999e-19)
(0.389415 0.338118 1.90034e-19)
(0.572816 0.490835 7.94267e-20)
(0.148904 0.134659 -5.3035e-20)
(0.381622 0.343548 -1.27768e-21)
(0.14595 0.137081 4.57811e-20)
(0.142767 0.139255 6.40202e-21)
(0.155417 -0.151388 -1.33558e-19)
(0.159025 -0.149141 2.26403e-20)
(0.162404 -0.146632 -1.46913e-19)
(0.413788 -0.371534 -3.00822e-19)
(0.165544 -0.143876 2.5501e-19)
(0.422659 -0.365932 1.83883e-19)
(0.618562 -0.527547 -4.36624e-20)
(0.168445 -0.140888 -1.68982e-19)
(0.43098 -0.359717 -4.60229e-19)
(0.631586 -0.520451 -1.80564e-19)
(0.171098 -0.137665 2.49247e-19)
(0.438725 -0.352906 3.80005e-19)
(0.643904 -0.512538 -3.27394e-20)
(0.792061 -0.619142 -8.38183e-20)
(0.173473 -0.134206 -2.88944e-19)
(0.445881 -0.345537 -1.12057e-19)
(0.655476 -0.503839 1.99157e-19)
(0.807395 -0.610732 1.58222e-19)
(0.91003 -0.67235 9.92367e-20)
(0.175548 -0.130538 7.38859e-20)
(0.452414 -0.337649 -6.44993e-20)
(0.666264 -0.494379 1.69452e-19)
(0.821928 -0.601421 -2.30942e-19)
(0.927454 -0.664186 -1.86874e-20)
(0.993242 -0.691193 1.34112e-19)
(0.177323 -0.126689 5.28157e-19)
(0.458283 -0.329266 -3.04832e-19)
(0.676213 -0.484181 -4.13487e-19)
(0.835615 -0.591244 -1.72012e-19)
(0.944098 -0.655094 -2.40091e-19)
(1.0119 -0.683619 -1.36029e-20)
(0.178796 -0.122675 -2.79029e-19)
(0.463466 -0.320415 -9.80999e-21)
(0.685287 -0.473292 2.15076e-19)
(0.848398 -0.580235 3.01792e-20)
(0.959911 -0.645099 4.76842e-19)
(1.02984 -0.675145 -4.43959e-20)
(1.0691 -0.679233 4.00457e-20)
(0.179961 -0.118511 -1.10009e-19)
(0.467939 -0.311131 5.15217e-20)
(0.693459 -0.461751 8.85902e-20)
(0.860216 -0.568416 2.08518e-19)
(0.974841 -0.634234 -1.34068e-19)
(1.04702 -0.665797 4.35323e-20)
(1.08761 -0.671482 3.34596e-19)
(1.10686 -0.659687 -3.42956e-20)
(0.18081 -0.114212 5.61242e-19)
(0.471682 -0.301448 -1.42653e-19)
(0.700692 -0.44959 -1.87739e-19)
(0.871032 -0.555832 1.01079e-19)
(0.988829 -0.622533 5.39837e-20)
(1.06338 -0.655597 -1.09566e-19)
(1.10545 -0.662914 -2.42489e-20)
(1.12534 -0.652591 -5.88166e-20)
(1.13156 -0.631589 5.95661e-20)
(0.18134 -0.109793 -2.50454e-19)
(0.474677 -0.291401 3.04533e-20)
(0.70695 -0.436852 -2.83517e-19)
(0.880812 -0.542525 -3.66794e-19)
(1.00182 -0.610025 -1.43713e-19)
(1.07888 -0.644575 -1.06786e-20)
(1.12256 -0.653551 1.73276e-19)
(1.14323 -0.644754 -1.24589e-19)
(1.14956 -0.625012 3.41009e-20)
(1.14796 -0.5995 2.42182e-19)
(0.181548 -0.105271 -2.59714e-19)
(0.476907 -0.281026 5.57769e-19)
(0.712202 -0.423581 3.30508e-19)
(0.889511 -0.528534 1.42115e-19)
(1.01377 -0.596748 -5.13861e-20)
(1.09345 -0.63276 -3.01103e-19)
(1.13891 -0.643419 -1.74987e-19)
(1.16051 -0.636196 -7.92665e-20)
(1.16707 -0.617772 -9.97525e-20)
(1.16519 -0.593304 -3.4341e-19)
(1.15925 -0.566268 1.83634e-19)
(0.181431 -0.100661 4.70566e-20)
(0.47836 -0.270358 -7.76538e-20)
(0.716419 -0.409822 5.86162e-20)
(0.897087 -0.513902 -1.40227e-19)
(1.02464 -0.58274 2.83458e-19)
(1.10705 -0.620185 4.67399e-19)
(1.15444 -0.632544 1.36675e-19)
(1.17711 -0.626938 3.38115e-19)
(1.18403 -0.609889 -1.69805e-19)
(1.18199 -0.58652 3.78657e-19)
(1.17556 -0.560345 7.74567e-20)
(1.16746 -0.533493 3.23549e-19)
(0.180987 -0.095981 -1.65689e-19)
(0.479025 -0.259437 -3.70596e-19)
(0.719578 -0.395621 -2.80149e-19)
(0.9035 -0.498675 8.29007e-20)
(1.03438 -0.568041 -4.21459e-19)
(1.11964 -0.606883 -4.81296e-19)
(1.1691 -0.620951 -5.40046e-20)
(1.19301 -0.617003 -1.22807e-19)
(1.20042 -0.601383 3.99469e-19)
(1.19833 -0.579166 -8.99317e-20)
(1.19148 -0.553901 -2.46526e-19)
(1.18278 -0.527774 -3.82758e-19)
(1.17375 -0.501969 -2.29506e-19)
(0.180219 -0.0912473 -1.31512e-19)
(0.478894 -0.2483 -1.02077e-19)
(0.721656 -0.381026 4.29372e-19)
(0.908717 -0.482901 -2.55857e-19)
(1.04294 -0.552692 6.24818e-19)
(1.13116 -0.592887 2.44601e-19)
(1.18286 -0.608669 -1.47706e-19)
(1.20816 -0.606416 -2.31697e-19)
(1.21621 -0.592275 -3.28246e-19)
(1.21417 -0.571263 1.326e-19)
(1.207 -0.546954 2.23711e-20)
(1.19775 -0.521591 1.2357e-19)
(1.18808 -0.496415 2.45995e-19)
(1.17882 -0.472027 5.12057e-20)
(0.179125 -0.0864777 2.60421e-19)
(0.477962 -0.236987 4.10425e-19)
(0.722636 -0.366086 1.90041e-20)
(0.912706 -0.466628 2.35465e-19)
(1.05028 -0.536739 -5.4468e-19)
(1.14157 -0.578235 1.26361e-19)
(1.19565 -0.595728 -8.02217e-20)
(1.22252 -0.595201 -1.65731e-20)
(1.23135 -0.582585 -1.23146e-19)
(1.22949 -0.562828 -2.36261e-19)
(1.22208 -0.539521 -5.5808e-20)
(1.21235 -0.514962 1.22025e-19)
(1.2021 -0.490448 -3.49642e-19)
(1.19221 -0.466624 8.53244e-20)
(1.18312 -0.443769 -1.62194e-19)
(0.177711 -0.0816896 -4.65783e-20)
(0.476226 -0.225539 -6.28594e-19)
(0.722503 -0.350851 -4.73035e-19)
(0.915436 -0.449907 -2.86967e-20)
(1.05637 -0.520225 9.90503e-20)
(1.15083 -0.562965 -1.77708e-19)
(1.20745 -0.58216 -4.02879e-21)
(1.23604 -0.583383 4.73713e-20)
(1.24581 -0.572336 6.4852e-20)
(1.24425 -0.553883 3.5394e-19)
(1.2367 -0.531623 1.33974e-19)
(1.22657 -0.507905 -2.91195e-20)
(1.21578 -0.484083 3.26195e-20)
(1.20531 -0.460849 -4.04413e-20)