/*--------------------------------*- C++ -*----------------------------------*\
  =========                 |
  \\      /  F ield         | OpenFOAM: The Open Source CFD Toolbox
   \\    /   O peration     | Website:  https://openfoam.org
    \\  /    A nd           | Version:  7
     \\/     M anipulation  |
\*---------------------------------------------------------------------------*/
FoamFile
{
    version     2.0;
    format      ascii;
    class       surfaceScalarField;
    location    "280";
    object      phi;
}
// * * * * * * * * * * * * * * * * * * * * * * * * * * * * * * * * * * * * * //

dimensions      [0 3 -1 0 0 0 0];

internalField   nonuniform List<scalar> 
8842
(
-1.58619e-06
-3.95459e-05
4.11321e-05
-5.90276e-06
-9.77992e-05
0.000102116
-0.000139608
0.000146386
-1.62339e-06
-3.79226e-05
-6.01183e-06
-9.34107e-05
-0.000132754
-1.64812e-06
-3.62744e-05
-6.07748e-06
-8.89814e-05
-0.000125871
-1.66119e-06
-3.46132e-05
-6.10269e-06
-8.45399e-05
-0.000119001
-1.66361e-06
-3.29496e-05
-6.09111e-06
-8.01124e-05
-0.000112183
-1.65657e-06
-3.1293e-05
-6.04697e-06
-7.5722e-05
-0.00010545
-1.64142e-06
-2.96516e-05
-5.97499e-06
-7.13884e-05
-9.88311e-05
-1.61959e-06
-2.8032e-05
-5.88026e-06
-6.71278e-05
-9.23498e-05
-1.59261e-06
-2.64394e-05
-5.76807e-06
-6.29523e-05
-1.20941e-05
-8.60237e-05
-9.68627e-05
-1.562e-06
-2.48774e-05
-5.64384e-06
-5.88705e-05
-1.18027e-05
-7.98649e-05
-8.90252e-05
-1.52936e-06
-2.33481e-05
-5.51306e-06
-5.48868e-05
-1.14985e-05
-7.38794e-05
-8.14484e-05
-1.49623e-06
-2.18518e-05
-5.38107e-06
-5.10019e-05
-1.11927e-05
-6.80678e-05
-7.41326e-05
-1.46415e-06
-2.03877e-05
-5.25307e-06
-4.7213e-05
-1.08958e-05
-6.2425e-05
-6.70711e-05
-1.43451e-06
-1.89532e-05
-5.13385e-06
-4.35137e-05
-1.06174e-05
-5.69415e-05
-6.02511e-05
-1.40858e-06
-1.75446e-05
-5.02768e-06
-3.98946e-05
-1.03663e-05
-5.16029e-05
-5.36541e-05
-1.38742e-06
-1.61572e-05
-4.93816e-06
-3.63438e-05
-1.01498e-05
-4.63913e-05
-4.72569e-05
-1.37187e-06
-1.47853e-05
-4.8681e-06
-3.28476e-05
-9.97355e-06
-4.12859e-05
-1.61981e-05
-4.10323e-05
-3.31857e-05
-1.36252e-06
-1.34228e-05
-4.81944e-06
-2.93907e-05
-9.84148e-06
-3.62638e-05
-1.59229e-05
-3.49508e-05
-2.65141e-05
-1.35969e-06
-1.20631e-05
-4.79314e-06
-2.59572e-05
-9.75546e-06
-3.13015e-05
-1.57245e-05
-2.89818e-05
-2.00251e-05
-1.36339e-06
-1.06997e-05
-4.78913e-06
-2.25315e-05
-9.71516e-06
-2.63755e-05
-1.56023e-05
-2.30947e-05
-1.36813e-05
-1.37335e-06
-9.32636e-06
-4.8063e-06
-1.90985e-05
-9.7181e-06
-2.14637e-05
-1.55518e-05
-1.7261e-05
-2.17854e-05
-7.44764e-06
6.93533e-06
-1.38894e-06
-7.93742e-06
-4.84235e-06
-1.56451e-05
-9.75943e-06
-1.65466e-05
-1.55648e-05
-1.14556e-05
-2.1719e-05
-1.29351e-06
1.29386e-05
-1.40923e-06
-6.52819e-06
-4.89394e-06
-1.21604e-05
-9.83201e-06
-1.16085e-05
-1.56293e-05
-5.65832e-06
-2.17284e-05
4.8056e-06
1.88228e-05
-1.43298e-06
-5.09521e-06
-4.95664e-06
-8.63674e-06
-9.92656e-06
-6.63859e-06
-1.57293e-05
1.44425e-07
-2.17899e-05
1.08661e-05
2.4607e-05
-1.45866e-06
-3.63655e-06
-5.02508e-06
-5.07032e-06
-1.00318e-05
-1.63185e-06
-1.58458e-05
5.95845e-06
-2.18743e-05
1.68946e-05
-2.75657e-05
3.02985e-05
4.52406e-05
-1.48451e-06
-2.15204e-06
-5.09308e-06
-1.46175e-06
-1.01349e-05
3.40993e-06
-1.59569e-05
1.17805e-05
-2.19483e-05
2.2886e-05
-2.75398e-05
3.589e-05
4.99007e-05
-1.50858e-06
-6.43466e-07
-5.15381e-06
2.18348e-06
-1.02214e-05
8.47749e-06
-1.60383e-05
1.75974e-05
-2.1975e-05
2.88226e-05
-2.74436e-05
4.13586e-05
5.435e-05
-1.52879e-06
8.8532e-07
-5.20002e-06
5.85472e-06
-1.02762e-05
1.35537e-05
-1.60641e-05
2.33853e-05
-2.19148e-05
3.46734e-05
-2.72208e-05
4.66646e-05
-3.14089e-05
5.85381e-05
6.94167e-05
-1.54301e-06
2.42833e-06
-5.22432e-06
9.53602e-06
-1.02839e-05
1.86132e-05
-1.6008e-05
2.91095e-05
-2.17276e-05
4.0393e-05
-2.68134e-05
5.17504e-05
-3.06678e-05
6.23925e-05
7.14632e-05
-1.54917e-06
3.9775e-06
-5.21939e-06
1.32062e-05
-1.0229e-05
2.36228e-05
-1.58437e-05
3.47242e-05
-2.13729e-05
4.59222e-05
-2.61637e-05
5.65411e-05
-2.95903e-05
6.58192e-05
7.29162e-05
-1.54529e-06
5.52279e-06
-5.17833e-06
1.68393e-05
-1.0097e-05
2.85414e-05
-1.55462e-05
4.01734e-05
-2.08125e-05
5.11886e-05
-2.52163e-05
6.09448e-05
-2.81002e-05
6.87032e-05
-2.88164e-05
7.36324e-05
7.48142e-05
-1.52961e-06
7.05241e-06
-5.09491e-06
2.04046e-05
-9.87461e-06
3.33211e-05
-1.50927e-05
4.53914e-05
-2.0011e-05
5.6107e-05
-2.39204e-05
6.48542e-05
-2.61274e-05
7.09101e-05
-2.59398e-05
7.34447e-05
7.15248e-05
-1.50067e-06
8.55308e-06
-4.96382e-06
2.38677e-05
-9.55052e-06
3.79078e-05
-1.44633e-05
5.03042e-05
-1.89377e-05
6.05814e-05
-2.22315e-05
6.8148e-05
-2.36104e-05
7.2289e-05
-2.23322e-05
7.21665e-05
-1.76294e-05
6.6822e-05
5.51784e-05
-1.45734e-06
1.00104e-05
-4.78091e-06
2.71913e-05
-9.11557e-06
4.22425e-05
-1.3642e-05
5.48307e-05
-1.75673e-05
6.45067e-05
-2.01129e-05
7.06936e-05
-2.0499e-05
7.26751e-05
-1.79275e-05
6.9595e-05
-1.15636e-05
6.04582e-05
4.41331e-05
-1.3989e-06
1.14093e-05
-4.54335e-06
3.03357e-05
-8.56329e-06
4.62624e-05
-1.26171e-05
5.88845e-05
-1.58812e-05
6.77708e-05
-1.75373e-05
7.23497e-05
-1.67557e-05
7.18935e-05
-1.26767e-05
6.55161e-05
-4.39287e-06
5.21743e-05
3.0671e-05
-1.32506e-06
1.27344e-05
-4.2497e-06
3.32604e-05
-7.89004e-06
4.99028e-05
-1.13814e-05
6.23759e-05
-1.38676e-05
7.0257e-05
-1.44874e-05
7.29695e-05
-1.23566e-05
6.97627e-05
-6.54995e-06
5.97094e-05
3.91795e-06
4.17064e-05
2.01087e-05
1.44802e-05
-2.33998e-05
-1.23599e-06
1.39704e-05
-3.89999e-06
3.59244e-05
-7.09509e-06
5.30979e-05
-9.93279e-06
6.52136e-05
-1.15222e-05
7.18464e-05
-1.09559e-05
7.24032e-05
-7.29224e-06
6.6099e-05
4.63838e-07
5.19533e-05
1.33783e-05
2.87919e-05
3.26024e-05
-4.74387e-06
-5.01767e-05
-1.13226e-06
1.51026e-05
-3.49561e-06
3.82877e-05
-6.18048e-06
5.57827e-05
-8.27359e-06
6.73067e-05
-8.84737e-06
7.24202e-05
-6.94583e-06
7.05017e-05
-1.56662e-06
6.07198e-05
8.35713e-06
4.20296e-05
2.39732e-05
1.31759e-05
4.65212e-05
-2.72919e-05
7.7334e-05
-8.09895e-05
-0.000149647
-1.0148e-06
1.61174e-05
-3.0392e-06
4.03121e-05
-5.15082e-06
5.78944e-05
-6.41046e-06
6.85663e-05
-5.8521e-06
7.18618e-05
-2.469e-06
6.71185e-05
4.8037e-06
5.34471e-05
1.71058e-05
2.97275e-05
3.56659e-05
-5.38421e-06
6.18076e-05
-5.34336e-05
9.69442e-05
-0.000116126
-0.000195258
-8.84873e-07
1.70023e-05
-2.53445e-06
4.19617e-05
-4.01284e-06
5.93728e-05
-4.35365e-06
6.89071e-05
-2.55081e-06
7.0059e-05
2.45481e-06
6.21129e-05
1.17915e-05
4.41104e-05
2.66716e-05
1.48474e-05
4.84011e-05
-2.71137e-05
7.83803e-05
-8.34128e-05
0.000118089
-0.000155835
0.000169053
-0.000246221
-0.000356336
-7.44046e-07
1.77463e-05
-1.98598e-06
4.32036e-05
-2.77511e-06
6.01619e-05
-2.11641e-06
6.82484e-05
1.03767e-06
6.69049e-05
7.79962e-06
5.5351e-05
1.93612e-05
3.25488e-05
3.70051e-05
-2.79647e-06
6.21093e-05
-5.22179e-05
9.61401e-05
-0.000117444
0.000140627
-0.000200322
0.000197112
-0.000302707
-0.0004263
-5.93719e-07
1.83401e-05
-1.39836e-06
4.40083e-05
-1.44664e-06
6.02102e-05
2.86869e-07
6.65149e-05
4.89215e-06
6.22996e-05
1.35357e-05
4.67074e-05
2.74716e-05
1.86129e-05
4.80491e-05
-2.3374e-05
7.67106e-05
-8.08794e-05
0.000114975
-0.000155707
0.000164397
-0.000249744
0.000226505
-0.000364815
0.000302704
-0.000502499
-0.00066389
-4.35589e-07
1.87757e-05
-7.76771e-07
4.43494e-05
-3.67548e-08
5.94702e-05
2.84021e-06
6.3638e-05
8.9895e-06
5.61503e-05
1.96307e-05
3.60662e-05
3.60782e-05
2.16541e-06
5.97424e-05
-4.70382e-05
9.212e-05
-0.000113257
0.000134765
-0.000198352
0.000189233
-0.000304212
0.000256999
-0.000432581
0.00033934
-0.00058484
0.000437195
-0.000761745
-0.000963149
-2.71177e-07
1.90468e-05
-1.25319e-07
4.42036e-05
1.44325e-06
5.79016e-05
5.52807e-06
5.95531e-05
1.33068e-05
4.83716e-05
2.60523e-05
2.33207e-05
4.51358e-05
-1.69181e-05
7.20224e-05
-7.39248e-05
0.00010825
-0.000149485
0.000155388
-0.00024549
0.000214963
-0.000363786
0.000288354
-0.000505972
0.000376654
-0.00067314
0.000480511
-0.000865602
-0.00108261
-1.02042e-07
1.91489e-05
5.48781e-07
4.35528e-05
2.98614e-06
5.54642e-05
8.3362e-06
5.42031e-05
1.78226e-05
3.88852e-05
3.27695e-05
8.37379e-06
5.4601e-05
-3.87495e-05
8.48277e-05
-0.000104151
0.000125015
-0.000189672
0.000176723
-0.000297198
0.000241415
-0.000428479
0.00032033
-0.000584886
0.000414319
-0.000767129
0.000523673
-0.000974957
0.000647962
-0.0012069
-0.00146014
7.12024e-08
1.90777e-05
1.24512e-06
4.23788e-05
4.58414e-06
5.21252e-05
1.12521e-05
4.75351e-05
2.25177e-05
2.76196e-05
3.97543e-05
-8.86285e-06
6.44331e-05
-6.34284e-05
9.81001e-05
-0.000137818
0.00014233
-0.000233902
0.000198648
-0.000353516
0.000268416
-0.000498248
0.000352685
-0.000669154
0.000452007
-0.000866452
0.000566261
-0.00108921
0.00069449
-0.00133513
0.000834839
-0.00160049
-0.00188019
2.47333e-07
1.88303e-05
1.95981e-06
4.06664e-05
6.23145e-06
4.78536e-05
1.42657e-05
3.95009e-05
2.7376e-05
1.45093e-05
4.69823e-05
-2.84691e-05
7.45957e-05
-9.10418e-05
0.000111785
-0.000175008
0.000160113
-0.00028223
0.000221042
-0.000414445
0.000295793
-0.000572998
0.000385175
-0.000758536
0.000489391
-0.000970668
0.000607856
-0.00120768
0.000739068
-0.00146634
0.000880586
-0.00174201
-0.00202874
4.26189e-07
1.84042e-05
2.6911e-06
3.84014e-05
7.92412e-06
4.26206e-05
1.73696e-05
3.00554e-05
3.23852e-05
-5.06361e-07
5.44331e-05
-5.0517e-05
8.50563e-05
-0.000121665
0.000125831
-0.000215782
0.000178287
-0.000334686
0.000243787
-0.000479945
0.000323369
-0.00065258
0.000417552
-0.000852719
0.000526139
-0.00107926
0.00064805
-0.00132959
0.000781234
-0.00159952
0.000922722
-0.0018835
0.00106882
-0.00217484
-0.00246759
6.0765e-07
1.77965e-05
3.43838e-06
3.55707e-05
9.66014e-06
3.63988e-05
2.05592e-05
1.91563e-05
3.75361e-05
-1.74832e-05
6.20901e-05
-7.5071e-05
9.57859e-05
-0.000155361
0.00014019
-0.000260187
0.000196771
-0.000391268
0.000266759
-0.000549933
0.000350962
-0.000736783
0.000449561
-0.000951319
0.000561919
-0.00119161
0.000686442
-0.00145411
0.000820556
-0.00173364
0.000960844
-0.00202379
0.00110334
-0.00231734
0.00124381
-0.00260806
-0.00288803
7.91992e-07
1.70045e-05
4.20203e-06
3.21607e-05
1.14393e-05
2.91616e-05
2.38325e-05
6.76307e-06
4.28226e-05
-3.64733e-05
6.99398e-05
-0.000102188
0.000106758
-0.000192179
0.000154814
-0.000308242
0.000215486
-0.00045194
0.000289832
-0.000624278
0.000378383
-0.000825335
0.000480942
-0.00105388
0.000596399
-0.00130707
0.000722647
-0.00158036
0.00085664
-0.00186763
0.000994618
-0.00216176
0.0011325
-0.00245522
0.00126618
-0.00274174
0.00139233
-0.00301418
-0.0032702
9.79787e-07
1.60247e-05
4.98328e-06
2.81572e-05
1.32628e-05
2.08821e-05
2.71893e-05
-7.16349e-06
4.82408e-05
-5.75248e-05
7.79704e-05
-0.000131918
0.000117946
-0.000232155
0.000169653
-0.000359949
0.000234346
-0.000516634
0.000312869
-0.000702801
0.000405435
-0.000917901
0.000511428
-0.00115987
0.000629249
-0.00142489
0.000756304
-0.00170741
0.000889144
-0.00200047
0.00102379
-0.00229641
0.00115617
-0.00258761
0.00128252
-0.00286809
0.00140006
-0.00313171
-0.00337776
0.00150761
1.17184e-06
1.48529e-05
5.78402e-06
2.3545e-05
1.5133e-05
1.15331e-05
3.0631e-05
-2.26615e-05
5.37882e-05
-8.0682e-05
8.61706e-05
-0.0001643
0.000129324
-0.000275308
0.000184654
-0.000415279
0.000253259
-0.000585239
0.000335726
-0.000785269
0.000431911
-0.00101409
0.000540748
-0.00126871
0.000660153
-0.0015443
0.000787086
-0.00183434
0.000917785
-0.00213117
0.00104818
-0.0024268
0.00117437
-0.0027138
0.00129301
-0.00298673
0.00140194
-0.00324064
-0.00347628
0.00150046
1.36911e-06
1.34838e-05
6.60658e-06
1.83075e-05
1.70531e-05
1.08653e-06
3.41596e-05
-3.97679e-05
5.94623e-05
-0.000105985
9.45281e-05
-0.000199366
0.00014086
-0.00032164
0.000199758
-0.000474176
0.000272124
-0.000657605
0.000358251
-0.000871395
0.000457597
-0.00111343
0.000568635
-0.00137974
0.000688813
-0.00166447
0.000814706
-0.00196024
0.000942349
-0.00225881
0.0010677
-0.00255215
0.00118717
-0.00283327
0.00129792
-0.00309748
0.0013984
-0.00334113
-0.00356626
0.00148839
1.57263e-06
1.19111e-05
7.45345e-06
1.24267e-05
1.90262e-05
-1.04862e-05
3.77766e-05
-5.85184e-05
6.52592e-05
-0.000133467
0.000103028
-0.000237134
0.00015252
-0.000371133
0.000214897
-0.000536552
0.000290831
-0.000733539
0.000380277
-0.000960842
0.000482275
-0.00121543
0.000594827
-0.0014923
0.000714955
-0.0017846
0.000838929
-0.00208421
0.000962693
-0.00238258
0.00108237
-0.00267182
0.00119474
-0.00294564
0.00129756
-0.0032003
0.0013899
-0.00343346
-0.0036483
0.00147193
1.78341e-06
1.01277e-05
8.32701e-06
5.8831e-06
2.10549e-05
-2.32141e-05
4.14828e-05
-7.89463e-05
7.11732e-05
-0.000163158
0.00011165
-0.000277611
0.000164261
-0.000423745
0.000229996
-0.000602288
0.000309258
-0.000812801
0.000401635
-0.00105322
0.000505724
-0.00131952
0.000619079
-0.00160565
0.000738342
-0.00190387
0.000859578
-0.00220545
0.000978751
-0.00250175
0.00109225
-0.00278532
0.00119734
-0.00305073
0.00129234
-0.0032953
0.00137691
-0.00351802
-0.00372299
0.0014516
2.0024e-06
8.12533e-06
9.22929e-06
-1.34379e-06
2.31412e-05
-3.7126e-05
4.52768e-05
-0.000101082
7.71948e-05
-0.000195076
0.00012037
-0.000320786
0.000176034
-0.000479408
0.00024497
-0.000671224
0.000327276
-0.000895107
0.000422146
-0.00114809
0.000527732
-0.0014251
0.000641164
-0.00171908
0.00075878
-0.00202148
0.000876535
-0.0023232
0.000990529
-0.00261574
0.00109751
-0.00289231
0.00119526
-0.00314847
0.00128267
-0.00338272
0.00135992
-0.00359527
-0.00379096
0.00142788
2.23037e-06
5.89496e-06
1.01618e-05
-9.27518e-06
2.52857e-05
-5.22499e-05
4.91551e-05
-0.000124951
8.33108e-05
-0.000229232
0.000129157
-0.000366631
0.000187779
-0.000538031
0.000259723
-0.000743168
0.000344749
-0.000980133
0.000441634
-0.00124497
0.000548095
-0.00153156
0.000660886
-0.00183188
0.000776119
-0.00213671
0.000889746
-0.00243683
0.0009981
-0.0027241
0.00109836
-0.00299257
0.00118883
-0.00323895
0.00126899
-0.00346287
0.00133941
-0.00366569
-0.00385281
0.00140126
2.46788e-06
3.42708e-06
1.11251e-05
-1.79324e-05
2.74873e-05
-6.86121e-05
5.3111e-05
-0.000150575
8.95031e-05
-0.000265624
0.000137974
-0.000415102
0.000199433
-0.000599491
0.000274154
-0.000817889
0.000361533
-0.00106751
0.000459924
-0.00134337
0.000566628
-0.00163827
0.000678081
-0.00194333
0.00079026
-0.00224889
0.000899215
-0.00254578
0.0010016
-0.00282648
0.00109506
-0.00308603
0.00117844
-0.00332233
0.00125171
-0.00353615
0.00131584
-0.00372981
-0.00390914
0.00137216
2.71526e-06
7.11826e-07
1.21193e-05
-2.73365e-05
2.97431e-05
-8.62359e-05
5.71348e-05
-0.000177966
9.57489e-05
-0.000304238
0.000146776
-0.000466129
0.000210922
-0.000663637
0.000288155
-0.000895122
0.000377487
-0.00115684
0.00047685
-0.00144273
0.000583166
-0.00174458
0.000692622
-0.00205279
0.000801156
-0.00235743
0.000905002
-0.00264963
0.0010012
-0.00292268
0.0010879
-0.00317273
0.00116446
-0.00339889
0.00123128
-0.00360297
0.00128963
-0.00378815
-0.00396048
0.00134097
2.97254e-06
-2.26072e-06
1.31432e-05
-3.75072e-05
3.20483e-05
-0.000105141
6.12133e-05
-0.000207132
0.000102021
-0.000345045
0.000155516
-0.000519624
0.000222167
-0.000730288
0.000301614
-0.000974569
0.00039247
-0.0012477
0.00049226
-0.00154252
0.000597572
-0.0018499
0.000704426
-0.00215964
0.000808805
-0.00246181
0.000907218
-0.00274804
0.000997132
-0.00301259
0.0010772
-0.0032528
0.00114727
-0.00346896
0.0012081
-0.0036638
0.00126116
-0.00384122
-0.00400735
0.00130803
3.23952e-06
-5.50024e-06
1.41948e-05
-4.84624e-05
3.43959e-05
-0.000125342
6.53302e-05
-0.000238066
0.000108286
-0.000388001
0.000164136
-0.000575475
0.000233084
-0.000799236
0.000314418
-0.0010559
0.000406348
-0.00133963
0.000506018
-0.00164219
0.000609739
-0.00195362
0.000713445
-0.00226334
0.000813256
-0.00256162
0.000906012
-0.0028408
0.000989645
-0.00309622
0.0010633
-0.00332645
0.00112723
-0.00353289
0.00118253
-0.0037191
0.0012308
-0.00388949
-0.00405019
0.00127364
3.5157e-06
-9.01594e-06
1.52711e-05
-6.02178e-05
3.67774e-05
-0.000146848
6.94662e-05
-0.000270755
0.000114509
-0.000433043
0.000172579
-0.000633545
0.000243589
-0.000870246
0.000326457
-0.00113877
0.000418998
-0.00143217
0.000518009
-0.0017412
0.000619592
-0.0020552
0.000719676
-0.00236343
0.000814593
-0.00265653
0.00090157
-0.00292777
0.000979008
-0.00317366
0.00104651
-0.00339396
0.00110471
-0.00359109
0.00115492
-0.00376931
0.00119885
-0.00393342
-0.00408939
0.00123805
3.80032e-06
-1.28163e-05
1.63683e-05
-7.27858e-05
3.91822e-05
-0.000169662
7.35991e-05
-0.000305172
0.00012065
-0.000480094
0.000180782
-0.000693677
0.000253593
-0.000943057
0.000337625
-0.0012228
0.000430309
-0.00152485
0.000528141
-0.00183903
0.000627088
-0.00215415
0.00072315
-0.00245949
0.000812939
-0.00274632
0.0008941
-0.00300893
0.000965499
-0.00324506
0.00102716
-0.00345562
0.00108003
-0.00364395
0.00112559
-0.00381487
0.00116557
-0.00397341
-0.00412532
0.0012015
4.09241e-06
-1.69087e-05
1.74818e-05
-8.61752e-05
4.15981e-05
-0.000193779
7.77045e-05
-0.000341278
0.000126667
-0.000529057
0.000188682
-0.000755692
0.000263013
-0.00101739
0.000347823
-0.00130761
0.000440186
-0.00161722
0.000536349
-0.00193519
0.000632214
-0.00225001
0.000723932
-0.00255121
0.000808443
-0.00283083
0.000883827
-0.00308432
0.000949398
-0.00331063
0.00100556
-0.00351178
0.00105349
-0.00369188
0.0010948
-0.00385618
0.00113121
-0.00400982
-0.00415826
0.00116415
4.39078e-06
-2.12995e-05
1.86062e-05
-0.000100391
4.40118e-05
-0.000219184
8.17562e-05
-0.000379022
0.000132517
-0.000579817
0.000196215
-0.00081939
0.000271767
-0.00109294
0.000356962
-0.00139281
0.000448551
-0.00170881
0.000542591
-0.00202923
0.000634991
-0.00234241
0.000722116
-0.00263833
0.000801275
-0.00290999
0.000870988
-0.00315403
0.000930983
-0.00337063
0.000981982
-0.00356278
0.00102537
-0.00373526
0.0010628
-0.00389362
0.00109596
-0.00404298
-0.00418847
0.00112618
4.69405e-06
-2.59935e-05
1.97357e-05
-0.000115432
4.64089e-05
-0.000245857
8.57267e-05
-0.00041834
0.000138154
-0.000632245
0.000203318
-0.000884554
0.000279779
-0.0011694
0.000364966
-0.00147799
0.000455345
-0.00179918
0.000546849
-0.00212074
0.000635464
-0.00243103
0.00071782
-0.00272069
0.000791622
-0.0029838
0.000855819
-0.00321823
0.000910517
-0.00342532
0.000956708
-0.00360897
0.000995911
-0.00377447
0.00102981
-0.00392752
0.00106
-0.00407317
-0.00421617
0.0010877
5.0007e-06
-3.09942e-05
2.08637e-05
-0.000131295
4.87739e-05
-0.000273768
8.95874e-05
-0.000459154
0.000143535
-0.000686192
0.000209932
-0.00095095
0.000286981
-0.00124645
0.00037177
-0.00156278
0.000460531
-0.00188795
0.000549133
-0.00220934
0.000633703
-0.0025156
0.000711181
-0.00279817
0.000779679
-0.00305229
0.000838555
-0.0032771
0.000888253
-0.00347502
0.000929979
-0.0036507
0.00096534
-0.00380983
0.000996002
-0.00395818
0.00102346
-0.00410064
-0.00424153
0.00104883
5.30907e-06
2.19834e-05
5.10909e-05
9.33099e-05
-0.000501373
0.000148616
-0.000741498
0.000216
-0.00101833
0.00029331
-0.00132376
0.000377324
-0.0016468
0.000464088
-0.00197471
0.000549472
-0.00229472
0.000629798
-0.00259592
0.00070235
-0.00287072
0.000765646
-0.00311559
0.000819427
-0.00333088
0.000864425
-0.00352002
0.000902014
-0.00368829
0.000933846
-0.00384166
0.000961538
-0.00398587
0.00098648
-0.00412558
-0.0042647
0.00100965
9.68654e-05
0.000153355
0.00022147
-0.00108645
0.000298716
-0.00140101
0.000381593
-0.00172968
0.000466016
-0.00205913
0.000547915
-0.00237662
0.000623855
-0.00267186
0.000691486
-0.00293835
0.000749722
-0.00317383
0.000798651
-0.00337981
0.000839249
-0.00356062
0.000873011
-0.00372205
0.000901597
-0.00387025
0.00092655
-0.00401082
0.000949145
-0.00414817
-0.0042858
0.000970245
0.000226297
0.000303157
0.000384556
0.00046633
-0.00214091
0.000544528
-0.00245482
0.000615995
-0.00274333
0.000678755
-0.00300111
0.000732102
-0.00322717
0.000776434
-0.00342415
0.000812924
-0.00359711
0.000843147
-0.00375227
0.000868738
-0.00389584
0.000891152
-0.00403324
0.000911546
-0.00416857
-0.00430492
0.00093067
0.000465064
0.000539391
0.000606345
0.000664323
0.000712974
-0.00327582
0.000752966
-0.00346414
0.000785628
-0.00362977
0.000812574
-0.00377922
0.000835392
-0.00391866
0.000855439
-0.00405328
0.000873752
-0.00418688
-0.00432215
0.000890977
0.000692516
0.000728424
0.000757521
0.000781427
-0.00380312
0.000801668
-0.0039389
0.000819492
-0.00407111
0.000835822
-0.00420321
-0.00433753
0.000851207
0.000749825
0.000767657
0.000783379
0.000797805
-0.00435113
0.000811399
0.000771581
0.00454221
0.000671624
0.000672446
0.00403411
0.000683522
0.0041593
0.000693078
0.00428287
0.000701704
0.00440735
0.00453423
0.00070969
0.000610775
0.00337246
0.000643316
0.00356774
0.000668617
0.00373563
0.000688317
0.00388352
0.000703985
0.00401844
0.000716938
0.00414634
0.00072816
0.00427164
0.000738325
0.00439719
0.00452477
0.000747785
0.000465877
0.00250124
0.000529739
0.00281267
0.000584619
0.00308848
0.000629947
0.00332714
0.000666265
0.00353142
0.000694856
0.00370704
0.000717339
0.00386103
0.000735339
0.00400044
0.000750268
0.00413141
0.000763214
0.0042587
0.000774949
0.00438545
0.00451383
0.000785892
0.000243403
0.00137195
0.000319477
0.00172688
0.000396832
0.00208349
0.000471222
0.00242685
0.000539174
0.00274472
0.000598428
0.00302923
0.000648071
0.00327749
0.000688381
0.00349111
0.000720483
0.00367494
0.000745948
0.00383557
0.00076644
0.00397995
0.000783461
0.00411439
0.000798206
0.00424395
0.000811552
0.0043721
0.00450139
0.000823993
0.000109223
0.000678387
0.000169801
0.00097342
0.000240515
0.00130124
0.000317831
0.00164956
0.000397499
0.00200382
0.000475196
0.00234915
0.000547198
0.00267272
0.000610895
0.00296553
0.000665013
0.00322338
0.000709529
0.0034466
0.000745374
0.00363909
0.000774041
0.0038069
0.000797208
0.00395678
0.000816458
0.00409514
0.000833095
0.00422732
0.000848104
0.0043571
0.00448742
0.000862066
6.40342e-06
5.19914e-05
2.59244e-05
0.000198209
5.91926e-05
0.000391601
0.000106248
0.000631332
0.000166183
0.000913485
0.000236914
0.0012305
0.000315191
0.00157129
0.000396918
0.0019221
0.000477737
0.00226833
0.000553711
0.00259674
0.000621892
0.00289735
0.000680628
0.00316464
0.000729563
0.00339766
0.000769396
0.00359926
0.000801503
0.00377479
0.000827552
0.00393074
0.000849191
0.0040735
0.00086783
0.00420868
0.00088457
0.00434035
0.00447191
0.000900085
6.09752e-06
4.58939e-05
2.48572e-05
0.000179449
5.70786e-05
0.00035938
0.000103038
0.000585373
0.000162134
0.000854389
0.000232624
0.00116001
0.00031157
0.00149234
0.000395072
0.00183859
0.000478793
0.00218461
0.000558623
0.00251691
0.000631293
0.00282468
0.000694767
0.00310117
0.000748329
0.0033441
0.000792401
0.00355519
0.000828204
0.00373899
0.000857365
0.00390157
0.000881578
0.00404929
0.000902352
0.0041879
0.00092091
0.0043218
0.0044548
0.000938023
5.78826e-06
4.01056e-05
2.37622e-05
0.000161475
5.4874e-05
0.000328268
9.96188e-05
0.000540628
0.000157687
0.000796321
0.00022768
0.00109002
0.00030699
0.00141303
0.000391959
0.00175362
0.000478324
0.00209825
0.000561849
0.00243339
0.000638974
0.00274755
0.000707279
0.00303286
0.000765661
0.00328572
0.000814227
0.00350662
0.000853999
0.00369922
0.000886526
0.00386905
0.000913524
0.00402229
0.000936592
0.00416483
0.000957072
0.00430132
0.00443602
0.000975843
5.47729e-06
3.46284e-05
2.26461e-05
0.000144306
5.25939e-05
0.00029832
9.60152e-05
0.000497207
0.000152878
0.000739458
0.000222119
0.00102078
0.000301482
0.00133367
0.000387589
0.00166752
0.000476302
0.00200954
0.000563317
0.00234637
0.000644819
0.00266605
0.000718012
0.00295967
0.000781387
0.00322234
0.000834699
0.00345331
0.000878726
0.00365519
0.000914896
0.00383288
0.00094492
0.00399227
0.000970467
0.00413929
0.000992999
0.00427879
0.00441552
0.0010135
5.1662e-06
2.94622e-05
2.15155e-05
0.000127957
5.02532e-05
0.000269582
9.22538e-05
0.000455206
0.000147743
0.000683969
0.000215988
0.000952536
0.00029509
0.00125457
0.000381985
0.00158062
0.000472715
0.00191881
0.000562968
0.00225612
0.000648719
0.0025803
0.000726814
0.00288157
0.000795329
0.00315383
0.000853631
0.00339501
0.000902207
0.00360662
0.000942319
0.00379276
0.000975636
0.00395895
0.00100388
0.00411105
0.00102862
0.00425405
0.00439318
0.00105095
4.85645e-06
2.46057e-05
2.03767e-05
0.000112437
4.78671e-05
0.000242092
8.83615e-05
0.000414712
0.000142323
0.000630007
0.000209337
0.000885522
0.000287865
0.00117604
0.000375184
0.0014933
0.00046757
0.00182642
0.000560761
0.00216293
0.000650578
0.00249048
0.000733541
0.00279861
0.000807305
0.00308007
0.000870824
0.00333149
0.000924245
0.00355319
0.000968619
0.00374839
0.00100553
0.00392205
0.00103671
0.00407986
0.00106384
0.00422691
0.00436889
0.00108813
4.54942e-06
2.00563e-05
1.92358e-05
9.77502e-05
4.54504e-05
0.000215877
8.43659e-05
0.000375796
0.000136662
0.000577711
0.000202221
0.000819963
0.000279868
0.00109839
0.000367238
0.00140593
0.000460889
0.00173277
0.000556674
0.00206714
0.000650318
0.00239684
0.000738057
0.00271087
0.000817137
0.00300099
0.000886073
0.00326255
0.000944632
0.00349464
0.000993598
0.00369943
0.00103442
0.00388123
0.00106883
0.00404545
0.00109857
0.00419717
0.00434249
0.00112497
4.24639e-06
1.58099e-05
1.80987e-05
8.38978e-05
4.30177e-05
0.000190958
8.02945e-05
0.000338519
0.000130802
0.000527204
0.000194701
0.000756063
0.000271167
0.00102192
0.000358213
0.00131889
0.000452716
0.00163827
0.000550704
0.00196916
0.000647879
0.00229966
0.00074024
0.00261851
0.000824648
0.00291658
0.000899166
0.00318803
0.000963143
0.00343066
0.00101704
0.00364553
0.00106212
0.00383614
0.00110007
0.00400751
0.00113268
0.00416456
0.0043138
0.00116137
3.94856e-06
1.18613e-05
1.69712e-05
7.08752e-05
4.05831e-05
0.000167346
7.61746e-05
0.000302928
0.000124787
0.000478592
0.000186838
0.000694012
0.000261841
0.000946923
0.000348188
0.00123254
0.000443111
0.00154334
0.000542874
0.00186939
0.000643224
0.00219931
0.000739988
0.00252174
0.000829672
0.00282689
0.000909891
0.00310782
0.000979541
0.00336101
0.00103871
0.00358636
0.00108843
0.00378643
0.00113025
0.00396568
0.00116603
0.00412879
0.0042826
0.00119723
3.65706e-06
8.20427e-06
1.58585e-05
5.86738e-05
3.81606e-05
0.000145044
7.20336e-05
0.000269055
0.000118664
0.000431961
0.0001787
0.000633976
0.000251972
0.000873651
0.000337254
0.00114726
0.000432156
0.00144844
0.000533232
0.00176832
0.000636344
0.0020962
0.000737219
0.00242087
0.000832059
0.00273205
0.00091804
0.00302183
0.000993583
0.00328547
0.00105836
0.00352158
0.00111309
0.0037317
0.00115918
0.00391959
0.00119844
0.00408953
0.00424862
0.00123241
3.37298e-06
4.83129e-06
1.47661e-05
4.72806e-05
3.5764e-05
0.000124046
6.78984e-05
0.00023692
0.000112477
0.000387383
0.000170352
0.000576101
0.00024165
0.000802353
0.000325515
0.00106339
0.000419952
0.001354
0.00052185
0.00166642
0.000627259
0.00199079
0.000731883
0.00231624
0.00083168
0.00263226
0.000923414
0.0029301
0.00100502
0.00320386
0.00107571
0.00345089
0.00113585
0.00367157
0.0011866
0.00386884
0.00122972
0.0040464
0.00421157
0.00126677
3.0974e-06
1.73389e-06
1.36992e-05
3.66788e-05
3.34066e-05
0.000104339
6.37959e-05
0.000206531
0.000106273
0.000344905
0.000161866
0.000520508
0.00023097
0.000733249
0.000313085
0.000981279
0.000406616
0.00126047
0.000508827
0.00156421
0.000616023
0.0018836
0.000723962
0.00220831
0.000828431
0.00252779
0.000925831
0.0028327
0.00101361
0.00311607
0.0010905
0.003374
0.00115641
0.00360565
0.00121226
0.00381299
0.00125965
0.00399901
0.0041711
0.00130013
2.83145e-06
-1.09755e-06
1.26631e-05
2.68471e-05
3.1102e-05
8.59e-05
5.97528e-05
0.00017788
0.000100097
0.000304561
0.00015331
0.000467295
0.000220028
0.000666531
0.000300084
0.000901222
0.000392283
0.00116827
0.000494289
0.0014622
0.000602719
0.00177517
0.000713472
0.00209755
0.000822246
0.00241902
0.000925132
0.00272981
0.00101913
0.00302208
0.00110242
0.00329071
0.00117449
0.00353358
0.00123587
0.00375162
0.00128797
0.00394691
0.0041268
0.00133227
2.57629e-06
-3.67385e-06
1.16632e-05
1.77602e-05
2.88637e-05
6.86995e-05
5.57957e-05
0.000150948
9.39944e-05
0.000266363
0.000144756
0.000416533
0.000208926
0.000602361
0.000286645
0.000823504
0.000377103
0.00107782
0.000478385
0.00136092
0.00058747