/*--------------------------------*- C++ -*----------------------------------*\
  =========                 |
  \\      /  F ield         | OpenFOAM: The Open Source CFD Toolbox
   \\    /   O peration     | Website:  https://openfoam.org
    \\  /    A nd           | Version:  7
     \\/     M anipulation  |
\*---------------------------------------------------------------------------*/
FoamFile
{
    version     2.0;
    format      ascii;
    class       volScalarField;
    location    "20";
    object      p;
}
// * * * * * * * * * * * * * * * * * * * * * * * * * * * * * * * * * * * * * //

dimensions      [0 2 -2 0 0 0 0];

internalField   nonuniform List<scalar> 
20050
(
-0.264303
-0.265755
-0.266543
-0.267202
-0.26776
-0.268236
-0.268659
-0.269045
-0.269404
-0.269738
-0.27005
-0.270344
-0.270624
-0.270896
-0.271167
-0.264387
-0.265831
-0.266616
-0.26727
-0.267825
-0.268297
-0.268716
-0.269099
-0.269454
-0.269784
-0.270092
-0.270381
-0.270657
-0.270924
-0.271187
-0.264554
-0.265984
-0.26676
-0.267407
-0.267954
-0.268419
-0.268831
-0.269206
-0.269553
-0.269876
-0.270175
-0.270454
-0.270722
-0.270978
-0.271225
-0.264804
-0.266212
-0.266976
-0.267611
-0.268147
-0.268601
-0.269002
-0.269366
-0.269701
-0.270011
-0.270298
-0.270563
-0.270817
-0.271058
-0.27128
-0.265134
-0.266514
-0.267261
-0.267881
-0.268402
-0.268841
-0.269228
-0.269577
-0.269896
-0.270189
-0.270457
-0.270704
-0.270939
-0.27116
-0.271347
-0.265542
-0.266887
-0.267615
-0.268216
-0.268718
-0.269139
-0.269506
-0.269836
-0.270135
-0.270407
-0.270652
-0.270874
-0.271086
-0.271281
-0.271424
-0.266025
-0.26733
-0.268034
-0.268612
-0.269092
-0.26949
-0.269835
-0.270141
-0.270415
-0.270661
-0.270878
-0.271069
-0.271251
-0.271415
-0.271503
-0.266581
-0.267841
-0.268517
-0.269069
-0.269522
-0.269894
-0.270211
-0.270489
-0.270734
-0.270948
-0.271131
-0.271285
-0.271432
-0.271558
-0.271578
-0.267206
-0.268415
-0.269061
-0.269582
-0.270005
-0.270346
-0.270632
-0.270878
-0.271088
-0.271265
-0.271408
-0.271518
-0.271622
-0.271704
-0.271642
-0.267896
-0.269051
-0.269663
-0.270151
-0.27054
-0.270846
-0.271096
-0.271303
-0.271473
-0.271607
-0.271703
-0.271762
-0.271815
-0.271847
-0.271684
-0.268648
-0.269746
-0.270321
-0.270771
-0.271122
-0.271388
-0.271597
-0.271762
-0.271887
-0.271971
-0.272014
-0.272013
-0.272006
-0.271983
-0.271693
-0.269459
-0.270497
-0.271031
-0.271441
-0.271749
-0.271972
-0.272135
-0.272251
-0.272325
-0.272354
-0.272335
-0.272266
-0.272188
-0.272105
-0.271656
-0.270325
-0.2713
-0.271792
-0.272158
-0.272419
-0.272593
-0.272705
-0.272768
-0.272785
-0.272752
-0.272665
-0.272517
-0.272356
-0.272209
-0.271557
-0.271244
-0.272155
-0.272601
-0.272919
-0.273129
-0.273249
-0.273305
-0.273309
-0.273263
-0.273162
-0.272998
-0.272762
-0.272503
-0.272293
-0.27136
-0.272213
-0.273058
-0.273456
-0.273722
-0.273876
-0.273938
-0.273933
-0.273873
-0.273758
-0.273581
-0.273334
-0.272999
-0.272629
-0.272375
-0.271018
-0.27323
-0.274008
-0.274356
-0.274566
-0.27466
-0.274658
-0.274586
-0.274456
-0.274266
-0.274009
-0.273671
-0.273227
-0.272732
-0.272476
-0.270619
-0.274293
-0.275004
-0.275299
-0.275449
-0.275478
-0.275407
-0.275263
-0.275057
-0.274788
-0.274444
-0.274007
-0.273447
-0.2728
-0.272357
-0.270316
-0.275403
-0.276046
-0.276284
-0.27637
-0.276329
-0.276183
-0.275961
-0.275674
-0.275321
-0.274885
-0.274344
-0.273659
-0.272866
-0.272229
-0.269837
-0.276559
-0.277134
-0.277312
-0.27733
-0.277212
-0.276986
-0.27668
-0.276307
-0.275864
-0.275332
-0.274683
-0.273864
-0.272909
-0.272106
-0.269186
-0.277762
-0.278268
-0.278384
-0.278327
-0.278128
-0.277815
-0.277419
-0.276954
-0.276417
-0.275786
-0.275025
-0.274067
-0.27293
-0.271973
-0.268378
-0.279015
-0.279452
-0.2795
-0.279365
-0.279076
-0.278669
-0.278177
-0.277615
-0.27698
-0.276246
-0.275372
-0.274272
-0.272938
-0.271834
-0.267413
-0.280321
-0.280686
-0.280664
-0.280443
-0.280059
-0.279551
-0.278955
-0.27829
-0.277552
-0.276713
-0.275724
-0.274482
-0.272939
-0.271702
-0.266294
-0.281684
-0.281977
-0.281878
-0.281564
-0.281077
-0.28046
-0.279753
-0.278978
-0.278132
-0.277185
-0.276082
-0.274699
-0.272941
-0.271586
-0.265041
-0.283111
-0.283327
-0.283146
-0.282733
-0.282134
-0.281399
-0.280573
-0.279681
-0.278722
-0.277663
-0.276445
-0.274925
-0.272949
-0.271489
-0.263685
-0.284607
-0.284743
-0.284474
-0.283953
-0.283233
-0.282371
-0.281417
-0.2804
-0.279321
-0.278147
-0.276813
-0.275159
-0.272971
-0.271403
-0.262281
-0.286181
-0.286232
-0.285867
-0.285229
-0.284379
-0.28338
-0.282288
-0.281138
-0.279932
-0.278637
-0.277186
-0.275396
-0.273017
-0.271307
-0.260915
-0.287844
-0.287803
-0.287333
-0.286568
-0.285577
-0.28443
-0.283191
-0.281898
-0.280557
-0.279135
-0.277565
-0.275635
-0.273099
-0.271164
-0.259708
-0.289604
-0.289464
-0.28888
-0.287978
-0.286835
-0.28553
-0.284133
-0.282687
-0.281203
-0.279647
-0.277953
-0.275873
-0.273237
-0.270895
-0.258722
-0.291476
-0.291224
-0.290518
-0.289467
-0.28816
-0.286686
-0.285121
-0.283513
-0.281877
-0.28018
-0.27836
-0.276124
-0.27347
-0.270375
-0.257843
-0.293472
-0.293097
-0.292257
-0.291045
-0.289562
-0.287908
-0.286164
-0.284386
-0.282589
-0.280745
-0.278798
-0.276417
-0.273887
-0.269663
-0.257573
-0.295606
-0.295094
-0.294107
-0.292722
-0.291052
-0.289207
-0.287275
-0.285317
-0.283352
-0.281352
-0.27928
-0.276775
-0.274526
-0.269384
-0.261672
-0.297895
-0.297227
-0.296081
-0.29451
-0.292642
-0.290595
-0.288466
-0.286319
-0.284177
-0.282015
-0.27981
-0.277183
-0.275196
-0.26991
-0.275184
-0.300354
-0.299512
-0.298191
-0.296421
-0.294343
-0.292085
-0.28975
-0.287406
-0.28508
-0.282744
-0.280389
-0.277626
-0.275754
-0.270334
-0.2772
-0.302998
-0.301961
-0.300452
-0.298469
-0.296169
-0.29369
-0.291142
-0.288594
-0.286074
-0.28355
-0.281022
-0.27809
-0.276109
-0.270549
-0.276511
-0.305846
-0.304589
-0.302875
-0.300667
-0.298133
-0.295426
-0.292656
-0.289897
-0.287172
-0.284444
-0.281709
-0.27857
-0.276301
-0.270625
-0.275092
-0.308912
-0.30741
-0.305476
-0.303029
-0.300251
-0.297306
-0.294308
-0.291329
-0.288387
-0.285433
-0.282452
-0.279055
-0.276361
-0.270529
-0.273132
-0.312214
-0.310439
-0.308268
-0.305568
-0.302537
-0.299346
-0.296112
-0.292903
-0.289727
-0.286521
-0.283248
-0.279533
-0.276304
-0.270242
-0.270886
-0.315766
-0.313688
-0.311264
-0.308299
-0.305003
-0.30156
-0.298082
-0.29463
-0.291199
-0.287707
-0.28409
-0.27999
-0.276142
-0.269762
-0.268533
-0.319583
-0.317172
-0.314478
-0.311234
-0.307666
-0.303961
-0.300229
-0.296519
-0.292805
-0.288987
-0.284969
-0.280411
-0.27588
-0.269098
-0.26617
-0.323676
-0.320902
-0.317922
-0.314388
-0.310537
-0.306562
-0.302564
-0.298575
-0.294546
-0.290352
-0.28587
-0.280782
-0.275519
-0.268259
-0.263836
-0.328059
-0.324889
-0.321608
-0.317773
-0.31363
-0.309375
-0.305096
-0.300801
-0.296415
-0.291788
-0.286775
-0.281085
-0.275055
-0.267255
-0.261536
-0.332739
-0.329143
-0.325547
-0.321399
-0.316955
-0.312409
-0.307828
-0.303195
-0.298403
-0.29328
-0.287665
-0.281305
-0.27448
-0.266094
-0.259257
-0.337725
-0.333673
-0.329747
-0.325277
-0.320523
-0.315671
-0.310763
-0.30575
-0.300495
-0.294804
-0.288515
-0.281423
-0.273784
-0.264781
-0.256974
-0.343021
-0.338483
-0.334216
-0.329415
-0.324339
-0.319164
-0.313898
-0.308456
-0.30267
-0.296335
-0.289301
-0.281421
-0.272957
-0.263319
-0.254661
-0.348628
-0.343577
-0.338959
-0.333818
-0.328409
-0.322887
-0.317224
-0.311294
-0.304902
-0.297844
-0.289997
-0.281283
-0.271988
-0.261706
-0.252291
-0.354545
-0.348957
-0.343978
-0.33849
-0.332733
-0.326836
-0.320727
-0.31424
-0.307162
-0.2993
-0.290575
-0.28099
-0.270864
-0.259939
-0.249841
-0.360766
-0.354618
-0.349273
-0.343429
-0.337306
-0.330999
-0.324387
-0.317266
-0.309414
-0.300667
-0.291009
-0.280526
-0.269574
-0.258013
-0.247286
-0.367281
-0.360556
-0.354839
-0.34863
-0.342119
-0.335359
-0.328176
-0.320336
-0.311619
-0.301913
-0.291273
-0.279875
-0.268107
-0.255922
-0.244608
-0.374075
-0.366758
-0.360666
-0.354082
-0.347157
-0.339892
-0.332061
-0.323409
-0.313737
-0.303001
-0.291342
-0.279021
-0.266452
-0.253656
-0.241788
-0.381128
-0.373209
-0.36674
-0.35977
-0.352395
-0.344564
-0.336001
-0.326439
-0.315725
-0.303897
-0.291192
-0.277948
-0.264595
-0.251207
-0.23881
-0.388414
-0.379888
-0.373041
-0.365669
-0.357804
-0.349337
-0.339947
-0.329376
-0.317537
-0.304568
-0.290801
-0.276642
-0.262526
-0.248563
-0.235658
-0.3959
-0.386766
-0.379542
-0.371749
-0.363347
-0.354164
-0.343847
-0.332169
-0.319129
-0.304981
-0.290146
-0.275086
-0.26023
-0.245713
-0.232318
-0.403548
-0.393811
-0.386209
-0.377973
-0.368977
-0.358991
-0.347643
-0.334763
-0.320459
-0.305104
-0.289205
-0.273264
-0.257695
-0.242645
-0.228776
-0.411311
-0.400982
-0.393002
-0.384294
-0.37464
-0.363756
-0.351273
-0.337103
-0.321483
-0.304907
-0.287957
-0.271161
-0.254905
-0.239345
-0.225018
-0.419138
-0.408231
-0.399872
-0.390659
-0.380275
-0.368393
-0.354673
-0.339134
-0.322159
-0.304361
-0.286382
-0.26876
-0.251847
-0.2358
-0.221031
-0.426968
-0.415504
-0.406763
-0.397006
-0.385813
-0.37283
-0.357775
-0.340802
-0.322449
-0.303438
-0.284458
-0.266043
-0.248504
-0.231995
-0.216803
-0.434736
-0.422741
-0.413612
-0.403266
-0.39118
-0.376994
-0.360514
-0.342055
-0.322314
-0.302111
-0.282165
-0.262992
-0.244862
-0.227916
-0.212319
-0.442368
-0.429872
-0.420349
-0.409362
-0.396295
-0.380806
-0.362823
-0.342843
-0.321718
-0.300353
-0.279481
-0.259591
-0.240903
-0.223549
-0.207568
-0.449787
-0.436823
-0.426895
-0.415213
-0.401075
-0.384188
-0.364638
-0.343116
-0.320626
-0.298138
-0.276387
-0.25582
-0.236613
-0.218878
-0.202537
-0.456907
-0.443514
-0.433169
-0.420731
-0.405432
-0.387064
-0.365896
-0.342829
-0.319004
-0.295442
-0.272861
-0.251663
-0.231974
-0.213891
-0.197214
-0.46364
-0.44986
-0.43908
-0.425826
-0.40928
-0.389355
-0.366538
-0.341938
-0.316822
-0.292241
-0.268884
-0.247102
-0.226973
-0.208573
-0.191589
-0.469894
-0.455769
-0.444538
-0.430403
-0.412529
-0.390988
-0.366507
-0.340403
-0.31405
-0.288511
-0.264436
-0.242119
-0.221593
-0.202911
-0.185651
-0.475573
-0.46115
-0.449446
-0.434367
-0.415093
-0.391892
-0.365751
-0.338187
-0.310661
-0.284231
-0.259498
-0.236698
-0.215821
-0.196894
-0.17939
-0.480581
-0.465905
-0.453706
-0.437623
-0.416887
-0.392
-0.364221
-0.335255
-0.306629
-0.27938
-0.254053
-0.230824
-0.209642
-0.190508
-0.172798
-0.484818
-0.469939
-0.457221
-0.440078
-0.417831
-0.39125
-0.361872
-0.331575
-0.301929
-0.273938
-0.248083
-0.224481
-0.203046
-0.183745
-0.165867
-0.488189
-0.473154
-0.459894
-0.441642
-0.417849
-0.389585
-0.358665
-0.327118
-0.296541
-0.267887
-0.241574
-0.217658
-0.196019
-0.176594
-0.15859
-0.490598
-0.475455
-0.461631
-0.442227
-0.416872
-0.386954
-0.354564
-0.321861
-0.290444
-0.261212
-0.234511
-0.210341
-0.188553
-0.169048
-0.150961
-0.491952
-0.476749
-0.462341
-0.441752
-0.414833
-0.383311
-0.349538
-0.31578
-0.283623
-0.253898
-0.226882
-0.202521
-0.180639
-0.1611
-0.142976
-0.492163
-0.476947
-0.461936
-0.440144
-0.411678
-0.378617
-0.34356
-0.308857
-0.276062
-0.245933
-0.218677
-0.194189
-0.172269
-0.152746
-0.134636
-0.491148
-0.475964
-0.460339
-0.437333
-0.407355
-0.372838
-0.336609
-0.301077
-0.26775
-0.237307
-0.209888
-0.185338
-0.163436
-0.143982
-0.125945
-0.488829
-0.473722
-0.457474
-0.433262
-0.401823
-0.365948
-0.328669
-0.29243
-0.258679
-0.228014
-0.200508
-0.175961
-0.154135
-0.134801
-0.116891
-0.485137
-0.47015
-0.453278
-0.427877
-0.395047
-0.357926
-0.319728
-0.282907
-0.248843
-0.218049
-0.190535
-0.166058
-0.144366
-0.125194
-0.107408
-0.48001
-0.465184
-0.447693
-0.421137
-0.387001
-0.348759
-0.309778
-0.272506
-0.238239
-0.207411
-0.179969
-0.15563
-0.134135
-0.115166
-0.0974207
-0.473393
-0.458771
-0.440672
-0.413008
-0.377667
-0.338439
-0.298819
-0.261225
-0.226869
-0.196102
-0.16881
-0.144679
-0.123446
-0.104739
-0.0870174
-0.465244
-0.450864
-0.432178
-0.403468
-0.367034
-0.326964
-0.286852
-0.24907
-0.214737
-0.184125
-0.157065
-0.13321
-0.112291
-0.093896
-0.0764652
-0.455526
-0.441429
-0.422183
-0.392501
-0.3551
-0.314339
-0.273885
-0.236048
-0.201852
-0.171488
-0.14474
-0.121235
-0.100717
-0.0826233
-0.0656334
-0.444217
-0.430439
-0.41067
-0.380102
-0.34187
-0.300576
-0.259931
-0.222171
-0.188223
-0.158203
-0.131848
-0.108769
-0.0886996
-0.0709793
-0.054472
-0.431302
-0.417879
-0.397632
-0.366276
-0.327356
-0.28569
-0.245006
-0.207456
-0.173865
-0.144283
-0.118402
-0.095817
-0.0762547
-0.0589745
-0.0429792
-0.416777
-0.403745
-0.383071
-0.351035
-0.31158
-0.269705
-0.229133
-0.191921
-0.158797
-0.129745
-0.104416
-0.0823944
-0.0633984
-0.0466164
-0.0311682
-0.400648
-0.388043
-0.367003
-0.334401
-0.294568
-0.252647
-0.212338
-0.17559
-0.143042
-0.114608
-0.0899089
-0.0685184
-0.0501478
-0.0339163
-0.0190564
-0.382933
-0.370788
-0.349448
-0.316404
-0.276353
-0.234553
-0.194651
-0.158493
-0.126622
-0.0988946
-0.0749014
-0.0542088
-0.0365213
-0.0208892
-0.00666262
-0.363659
-0.352007
-0.330438
-0.297082
-0.256977
-0.215458
-0.176105
-0.140658
-0.109565
-0.0826305
-0.0594172
-0.039488
-0.0225393
-0.00755382
0.00599256
-0.342862
-0.331735
-0.310016
-0.276486
-0.236493
-0.195395
-0.15674
-0.12212
-0.0919031
-0.0658441
-0.0434827
-0.0243805
-0.00822428
0.00606867
0.0188862
-0.320589
-0.310017
-0.288232
-0.254675
-0.214952
-0.174408
-0.136595
-0.102917
-0.0736702
-0.0485662
-0.0271264
-0.00891312
0.00639925
0.0199546
0.0319929
-0.29689
-0.286907
-0.265147
-0.231706
-0.192352
-0.152591
-0.115722
-0.0830911
-0.0549029
-0.0308303
-0.0103791
0.00688542
0.0213048
0.0340776
0.0452828
-0.271827
-0.262474
-0.240846
-0.207591
-0.168821
-0.129966
-0.0941696
-0.0626856
-0.0356409
-0.0126719
0.00672655
0.0229847
0.0364642
0.0484076
0.0587171
-0.245467
-0.236796
-0.215403
-0.182387
-0.144421
-0.106597
-0.0719906
-0.041748
-0.015926
0.00587121
0.0241563
0.0393529
0.0518481
0.0629117
0.0722458
-0.217887
-0.209956
-0.188747
-0.156317
-0.119216
-0.0825482
-0.0492408
-0.0203279
0.00419766
0.0247598
0.0418743
0.0559568
0.0674272
0.0775595
0.0858237
-0.189163
-0.182067
-0.161044
-0.129374
-0.0932785
-0.0578869
-0.025979
0.00152254
0.024684
0.043953
0.0598431
0.0727616
0.0831748
0.092333
0.0994223
-0.159361
-0.153114
-0.132537
-0.101642
-0.066686
-0.0326833
-0.00226644
0.0237493
0.0454851
0.063408
0.0780236
0.0897339
0.0990746
0.107213
0.11293
-0.128625
-0.123295
-0.103224
-0.0732108
-0.0395182
-0.00700876
0.0218334
0.046296
0.0665511
0.0830808
0.0963773
0.106851
0.115128
0.122125
0.125957
-0.0971827
-0.0925892
-0.073185
-0.0441747
-0.0118579
0.0190628
0.0462548
0.0691044
0.0878303
0.102925
0.114868
0.124104
0.131341
0.136921
0.138058
-0.0650102
-0.0611776
-0.0425241
-0.0146277
0.0162093
0.0454555
0.0709302
0.0921143
0.109268
0.122892
0.133459
0.141476
0.147656
0.151488
0.149929
-0.0322104
-0.0291855
-0.011347
0.0153335
0.0445961
0.0720915
0.0957905
0.115264
0.130809
0.142932
0.152109
0.158908
0.16391
0.165746
0.164572
0.00109402
0.00327839
0.0202385
0.04561
0.0732135
0.0988917
0.120765
0.138489
0.152396
0.162993
0.170769
0.176314
0.180046
0.180478
0.179807
0.0347815
0.036101
0.0521219
0.0761008
0.101971
0.125776
0.145782
0.161726
0.173969
0.183024
0.189386
0.193642
0.196091
0.195387
0.194564
0.0687313
0.069167
0.0841917
0.106705
0.130778
0.152663
0.170769
0.18491
0.195472
0.202971
0.207908
0.210854
0.212039
0.210312
0.209007
0.102822
0.10236
0.116336
0.137319
0.159544
0.179471
0.195654
0.207975
0.216844
0.22278
0.226283
0.227908
0.227846
0.225116
0.223135
0.136931
0.135561
0.148443
0.167842
0.188176
0.20612
0.220364
0.230857
0.238027
0.242397
0.244463
0.244762
0.243465
0.239727
0.236948
0.170937
0.168653
0.180401
0.198173
0.216584
0.232528
0.244827
0.253489
0.258962
0.261768
0.262399
0.261373
0.25885
0.254094
0.250444
0.204717
0.201517
0.212099
0.228209
0.244678
0.258615
0.26897
0.275807
0.279592
0.280842
0.280043
0.2777
0.273959
0.268181
0.263612
0.23815
0.234037
0.243427
0.257852
0.272369
0.284302
0.292722
0.297748
0.299857
0.299565
0.29735
0.2937
0.288754
0.281955
0.276437
0.271118
0.266095
0.274277
0.287004
0.299569
0.309509
0.316013
0.319249
0.319703
0.317887
0.314274
0.309333
0.303198
0.295386
0.288903
0.303501
0.297579
0.304541
0.315567
0.326192
0.33416
0.338775
0.340247
0.339073
0.335759
0.33077
0.32456
0.317256
0.308445
0.30099
0.335184
0.328376
0.334116
0.343448
0.352153
0.358181
0.36094
0.360683
0.357913
0.353132
0.346795
0.339341
0.330894
0.321103
0.312678
0.366055
0.358377
0.3629
0.370555
0.377371
0.381497
0.382442
0.380498
0.37617
0.369958
0.362307
0.35364
0.344078
0.333333
0.323945
0.396002
0.387476
0.390795
0.396798
0.401765
0.404037
0.403218
0.399633
0.393794
0.386192
0.377265
0.36742
0.356779
0.345107
0.334771
0.424921
0.415569
0.417704
0.422093
0.42526
0.425733
0.423206
0.418035
0.410735
0.40179
0.39163
0.380646
0.368963
0.356396
0.345132
0.452708
0.442559
0.443537
0.446355
0.447781
0.446519
0.442347
0.43565
0.426944
0.416709
0.405363
0.393285
0.380601
0.367176
0.355009
0.479266
0.468349
0.468205
0.469506
0.469257
0.466331
0.460584
0.452427
0.442377
0.430907
0.418427
0.405303
0.391665
0.37742
0.364379
0.504499
0.49285
0.491625
0.491471
0.489621
0.485109
0.477863
0.468317
0.456989
0.444345
0.430789
0.41667
0.402126
0.387102
0.373223
0.528319
0.515975
0.513718
0.512178
0.508809
0.502795
0.494133
0.483275
0.470739
0.456987
0.442413
0.427356
0.411958
0.3962
0.381522
0.550643
0.537645
0.534409
0.53156
0.526761
0.519337
0.509344
0.497256
0.483588
0.468798
0.45327
0.437333
0.421136
0.40469
0.389256
0.571392
0.557783
0.553628
0.549555
0.543421
0.534683
0.523453
0.51022
0.4955
0.479744
0.463329
0.446575
0.429636
0.412551
0.396409
0.590493
0.576319
0.571312
0.566103
0.558737
0.548786
0.536416
0.522129
0.50644
0.489795
0.472564
0.455057
0.437436
0.419764
0.402965
0.607879
0.593189
0.587399
0.581153
0.57266
0.561605
0.548196
0.532949
0.516378
0.498923
0.480949
0.462757
0.444515
0.426309
0.408908
0.623489
0.608335
0.601837
0.594654
0.585148
0.573099
0.558757
0.542648
0.525284
0.507103
0.488462
0.469654
0.450856
0.432171
0.414226
0.637269
0.621704
0.614578
0.606564
0.596162
0.583235
0.568068
0.551197
0.533134
0.514311
0.495081
0.47573
0.456442
0.437333
0.418905
0.649171
0.63325
0.625578
0.616845
0.605666
0.59198
0.576101
0.558572
0.539905
0.520527
0.500789
0.480969
0.461257
0.441784
0.422937
0.659154
0.642933
0.634802
0.625463
0.613632
0.599309
0.582832
0.564751
0.545577
0.525735
0.505569
0.485356
0.46529
0.44551
0.42631
0.667182
0.65072
0.642218
0.632391
0.620035
0.605199
0.588241
0.569716
0.550134
0.529918
0.50941
0.48888
0.468529
0.448503
0.429018
0.673227
0.656584
0.647801
0.637606
0.624855
0.609632
0.592312
0.573453
0.553564
0.533066
0.5123
0.491532
0.470966
0.450754
0.431055
0.677269
0.660504
0.651534
0.641093
0.628076
0.612595
0.595033
0.57595
0.555856
0.53517
0.51423
0.493303
0.472594
0.452258
0.432415
0.679293
0.662468
0.653403
0.642839
0.62969
0.614079
0.596395
0.577201
0.557003
0.536223
0.515197
0.49419
0.473409
0.453012
0.433096
0.679293
0.662468
0.653403
0.642839
0.62969
0.614079
0.596395
0.577201
0.557003
0.536223
0.515197
0.49419
0.473409
0.453012
0.433096
0.677269
0.660504
0.651534
0.641093
0.628076
0.612595
0.595033
0.57595
0.555856
0.53517
0.51423
0.493303
0.472594
0.452258
0.432415
0.673227
0.656584
0.647801
0.637606
0.624855
0.609632
0.592312
0.573453
0.553564
0.533066
0.512299
0.491532
0.470965
0.450754
0.431055
0.667181
0.65072
0.642217
0.632391
0.620035
0.605199
0.588241
0.569716
0.550134
0.529918
0.50941
0.48888
0.468529
0.448503
0.429018
0.659153
0.642933
0.634802
0.625463
0.613632
0.599309
0.582832
0.564751
0.545577
0.525734
0.505569
0.485356
0.46529
0.44551
0.42631
0.649171
0.63325
0.625578
0.616845
0.605666
0.59198
0.576101
0.558572
0.539904
0.520527
0.500788
0.480968
0.461257
0.441783
0.422936
0.637269
0.621704
0.614578
0.606564
0.596161
0.583234
0.568068
0.551197
0.533133
0.51431
0.495081
0.47573
0.456442
0.437333
0.418905
0.623489
0.608335
0.601837
0.594654
0.585148
0.573099
0.558757
0.542647
0.525284
0.507102
0.488461
0.469653
0.450856
0.432171
0.414225
0.607878
0.593189
0.587399
0.581152
0.57266
0.561605
0.548196
0.532948
0.516377
0.498923
0.480949
0.462756
0.444515
0.426309
0.408908
0.590492
0.576318
0.571311
0.566103
0.558736
0.548786
0.536416
0.522128
0.50644
0.489794
0.472564
0.455056
0.437435
0.419764
0.402964
0.571391
0.557782
0.553628
0.549554
0.543421
0.534682
0.523452
0.510219
0.495499
0.479743
0.463329
0.446574
0.429635
0.412551
0.396409
0.550642
0.537644
0.534408
0.53156
0.526761
0.519336
0.509344
0.497255
0.483588
0.468797
0.453269
0.437332
0.421135
0.404689
0.389256
0.528319
0.515975
0.513717
0.512178
0.508809
0.502795
0.494132
0.483274
0.470738
0.456987
0.442413
0.427355
0.411958
0.396199
0.381521
0.504498
0.492849
0.491625
0.49147
0.48962
0.485108
0.477863
0.468317
0.456988
0.444345
0.430788
0.41667
0.402126
0.387102
0.373223
0.479265
0.468348
0.468204
0.469505
0.469256
0.46633
0.460584
0.452426
0.442376
0.430906
0.418427
0.405303
0.391664
0.377419
0.364379
0.452707
0.442558
0.443536
0.446354
0.44778
0.446518
0.442346
0.43565
0.426943
0.416708
0.405362
0.393284
0.380601
0.367175
0.355008
0.42492
0.415568
0.417703
0.422092
0.425259
0.425732
0.423205
0.418035
0.410734
0.401789
0.391629
0.380646
0.368962
0.356396
0.345132
0.396001
0.387475
0.390793
0.396797
0.401764
0.404036
0.403217
0.399632
0.393793
0.386192
0.377264
0.367419
0.356778
0.345106
0.33477
0.366053
0.358376
0.362899
0.370553
0.377369
0.381495
0.382441
0.380497
0.376169
0.369957
0.362306
0.353639
0.344078
0.333332
0.323944
0.335183
0.328375
0.334115
0.343447
0.352152
0.358179
0.360939
0.360682
0.357912
0.353131
0.346794
0.33934
0.330893
0.321102
0.312677
0.303499
0.297578
0.30454
0.315566
0.32619
0.334159
0.338774
0.340246
0.339072
0.335758
0.330769
0.324559
0.317255
0.308444
0.300989
0.271116
0.266094
0.274275
0.287002
0.299568
0.309508
0.316012
0.319248
0.319702
0.317886
0.314272
0.309332
0.303197
0.295385
0.288902
0.238149
0.234035
0.243426
0.257851
0.272368
0.2843
0.29272
0.297747
0.299856
0.299563
0.297349
0.293699
0.288753
0.281954
0.276436
0.204715
0.201515
0.212098
0.228208
0.244677
0.258614
0.268968
0.275806
0.27959
0.28084
0.280042
0.277699
0.273958
0.26818
0.263611
0.170935
0.168651
0.1804
0.198171
0.216583
0.232527
0.244825
0.253487
0.258961
0.261767
0.262397
0.261372
0.258849
0.254093
0.250443
0.136929
0.135559
0.148441
0.16784
0.188174
0.206118
0.220363
0.230855
0.238026
0.242396
0.244462
0.24476
0.243463
0.239726
0.236947
0.10282
0.102357
0.116334
0.137317
0.159542
0.179469
0.195653
0.207974
0.216842
0.222779
0.226282
0.227906
0.227844
0.225115
0.223134
0.0687291
0.0691647
0.0841895
0.106702
0.130776
0.152661
0.170768
0.184908
0.19547
0.20297
0.207906
0.210853
0.212038
0.210311
0.209006
0.0347791
0.0360986
0.0521196
0.0760987
0.101969
0.125774
0.14578
0.161724
0.173968
0.183023
0.189384
0.193641
0.19609
0.195386
0.194563
0.0010915
0.00327588
0.0202361
0.0456077
0.0732113
0.0988896
0.120763
0.138487
0.152394
0.162991
0.170767
0.176312
0.180045
0.180476
0.179806
-0.032213
-0.0291881
-0.0113495
0.0153311
0.0445938
0.0720893
0.0957885
0.115262
0.130807
0.14293
0.152107
0.158906
0.163908
0.165745
0.16457
-0.0650129
-0.0611804
-0.0425268
-0.0146302
0.0162069
0.0454532
0.0709281
0.0921123
0.109266
0.12289
0.133457
0.141474
0.147654
0.151487
0.149927
-0.0971857
-0.0925921
-0.0731878
-0.0441774
-0.0118604
0.0190604
0.0462525
0.0691023
0.0878283
0.102923
0.114866
0.124102
0.131339
0.13692
0.138057
-0.128628
-0.123298
-0.103227
-0.0732136
-0.0395208
-0.00701124
0.021831
0.0462938
0.066549
0.0830788
0.0963754
0.106849
0.115126
0.122124
0.125955
-0.159365
-0.153117
-0.13254
-0.101645
-0.0666887
-0.0326859
-0.00226888
0.023747
0.0454828
0.0634059
0.0780216
0.089732
0.0990728
0.107211
0.112928
-0.189166
-0.182071
-0.161048
-0.129377
-0.0932814
-0.0578896
-0.0259816
0.00152012
0.0246817
0.0439508
0.059841
0.0727595
0.0831729
0.0923312
0.0994205
-0.217891
-0.20996
-0.18875
-0.15632
-0.119219
-0.082551
-0.0492435
-0.0203304
0.00419528
0.0247576
0.0418722
0.0559548
0.0674252
0.0775576
0.0858218
-0.245471
-0.2368
-0.215407
-0.182391
-0.144424
-0.1066
-0.0719933
-0.0417506
-0.0159285
0.00586885
0.024154
0.0393508
0.0518461
0.0629097
0.0722439
-0.271831
-0.262478
-0.240849
-0.207595
-0.168824
-0.129969
-0.0941725
-0.0626883
-0.0356435
-0.0126744
0.00672422
0.0229824
0.0364621
0.0484056
0.0587151
-0.296894
-0.286911
-0.265151
-0.231709
-0.192356
-0.152594
-0.115725
-0.0830939
-0.0549056
-0.0308328
-0.0103815
0.00688311
0.0213026
0.0340755
0.0452808
-0.320593
-0.310021
-0.288235
-0.254679
-0.214955
-0.174411
-0.136598
-0.10292
-0.0736729
-0.0485688
-0.0271289
-0.0089155
0.00639698
0.0199524
0.0319908
-0.342867
-0.33174
-0.31002
-0.27649
-0.236497
-0.195398
-0.156743
-0.122123
-0.091906
-0.0658468
-0.0434853
-0.024383
-0.00822662
0.00606643
0.0188841
-0.363663
-0.352012
-0.330443
-0.297086
-0.25698
-0.215462
-0.176109
-0.140661
-0.109568
-0.0826333
-0.0594199
-0.0394905
-0.0225417
-0.00755613
0.00599036
-0.382938
-0.370793
-0.349452
-0.316408
-0.276356
-0.234557
-0.194654
-0.158496
-0.126625
-0.0988975
-0.0749041
-0.0542114
-0.0365238
-0.0208916
-0.00666489
-0.400653
-0.388047
-0.367007
-0.334405
-0.294572
-0.252651
-0.212341
-0.175594
-0.143045
-0.114611
-0.0899117
-0.068521
-0.0501503
-0.0339187
-0.0190588
-0.416781
-0.40375
-0.383076
-0.351039
-0.311584
-0.269708
-0.229137
-0.191924
-0.1588
-0.129748
-0.104419
-0.0823971
-0.063401
-0.0466189
-0.0311706
-0.431307
-0.417884
-0.397636
-0.36628
-0.327361
-0.285694
-0.24501
-0.207459
-0.173868
-0.144286
-0.118405
-0.0958198
-0.0762574
-0.058977
-0.0429816
-0.444222
-0.430443
-0.410675
-0.380106
-0.341874
-0.30058
-0.259935
-0.222175
-0.188226
-0.158206
-0.131851
-0.108772
-0.0887024
-0.070982
-0.0544746
-0.455532
-0.441434
-0.422188
-0.392505
-0.355104
-0.314344
-0.273889
-0.236052
-0.201855
-0.171492
-0.144743
-0.121238
-0.10072
-0.082626
-0.065636
-0.465249
-0.45087
-0.432183
-0.403473
-0.367038
-0.326968
-0.286856
-0.249074
-0.214741
-0.184128
-0.157068
-0.133213
-0.112294
-0.0938988
-0.0764679
-0.473398
-0.458776
-0.440677
-0.413013
-0.377671
-0.338443
-0.298823
-0.261229
-0.226873
-0.196105
-0.168814
-0.144682
-0.123449
-0.104742
-0.0870201
-0.480015
-0.46519
-0.447698
-0.421142
-0.387006
-0.348764
-0.309783
-0.27251
-0.238243
-0.207415
-0.179972
-0.155633
-0.134139
-0.115169
-0.0974235
-0.485143
-0.470155
-0.453283
-0.427882
-0.395052
-0.357931
-0.319732
-0.282912
-0.248847
-0.218053
-0.190539
-0.166061
-0.144369
-0.125197
-0.107411
-0.488835
-0.473727
-0.45748
-0.433267
-0.401828
-0.365952
-0.328674
-0.292434
-0.258683
-0.228018
-0.200512
-0.175964
-0.154138
-0.134804
-0.116894
-0.491154
-0.475969
-0.460344
-0.437339
-0.40736
-0.372843
-0.336614
-0.301082
-0.267754
-0.237311
-0.209891
-0.185341
-0.16344
-0.143985
-0.125948
-0.492169
-0.476952
-0.461942
-0.440149
-0.411683
-0.378621
-0.343564
-0.308861
-0.276066
-0.245937
-0.218681
-0.194193
-0.172272
-0.152749
-0.134639
-0.491958
-0.476755
-0.462346
-0.441758
-0.414839
-0.383316
-0.349542
-0.315784
-0.283627
-0.253902
-0.226886
-0.202525
-0.180642
-0.161103
-0.142979
-0.490604
-0.475461
-0.461637
-0.442232
-0.416877
-0.386959
-0.354569
-0.321865
-0.290449
-0.261216
-0.234514
-0.210345
-0.188557
-0.169051
-0.150964
-0.488195
-0.47316
-0.4599
-0.441647
-0.417855
-0.389591
-0.35867
-0.327123
-0.296545
-0.267891
-0.241578
-0.217662
-0.196023
-0.176597
-0.158593
-0.484824
-0.469945
-0.457227
-0.440084
-0.417837
-0.391255
-0.361877
-0.331579
-0.301934
-0.273942
-0.248087
-0.224485
-0.203049
-0.183748
-0.16587
-0.480587
-0.465911
-0.453712
-0.437629
-0.416893
-0.392005
-0.364226
-0.33526
-0.306633
-0.279384
-0.254057
-0.230827
-0.209646
-0.190512
-0.172801
-0.475579
-0.461156
-0.449451
-0.434373
-0.415098
-0.391897
-0.365756
-0.338192
-0.310666
-0.284236
-0.259502
-0.236702
-0.215824
-0.196897
-0.179393
-0.4699
-0.455775
-0.444544
-0.430408
-0.412534
-0.390993
-0.366512
-0.340408
-0.314055
-0.288516
-0.26444
-0.242123
-0.221597
-0.202915
-0.185654
-0.463646
-0.449866
-0.439086
-0.425832
-0.409285
-0.38936
-0.366543
-0.341943
-0.316827
-0.292246
-0.268888
-0.247106
-0.226977
-0.208577
-0.191593
-0.456913
-0.44352
-0.433175
-0.420737
-0.405438
-0.387069
-0.365901
-0.342834
-0.319009
-0.295447
-0.272865
-0.251667
-0.231978
-0.213895
-0.197218
-0.449793
-0.436829
-0.426901
-0.415219
-0.401081
-0.384194
-0.364643
-0.343121
-0.32063
-0.298143
-0.276391
-0.255825
-0.236617
-0.218882
-0.202541
-0.442374
-0.429878
-0.420355
-0.409368
-0.396301
-0.380811
-0.362828
-0.342848
-0.321723
-0.300357
-0.279486
-0.259595
-0.240907
-0.223553
-0.207572
-0.434742
-0.422747
-0.413618
-0.403272
-0.391185
-0.376999
-0.360519
-0.342061
-0.322319
-0.302116
-0.282169
-0.262997
-0.244866
-0.22792
-0.212323
-0.426974
-0.41551
-0.406769
-0.397012
-0.385819
-0.372836
-0.35778
-0.340807
-0.322454
-0.303443
-0.284463
-0.266047
-0.248509
-0.231999
-0.216807
-0.419144
-0.408237
-0.399878
-0.390665
-0.380281
-0.368398
-0.354678
-0.339139
-0.322164
-0.304366
-0.286387
-0.268764
-0.251851
-0.235804
-0.221036
-0.411317
-0.400987
-0.393008
-0.3843
-0.374646
-0.363761
-0.351279
-0.337108
-0.321488
-0.304912
-0.287962
-0.271166
-0.25491
-0.239349
-0.225022
-0.403554
-0.393817
-0.386215
-0.377979
-0.368982
-0.358996
-0.347649
-0.334768
-0.320464
-0.305109
-0.28921
-0.273269
-0.257699
-0.242649
-0.22878
-0.395906
-0.386772
-0.379548
-0.371755
-0.363353
-0.35417
-0.343853
-0.332174
-0.319134
-0.304986
-0.290151
-0.27509
-0.260235
-0.245718
-0.232322
-0.38842
-0.379893
-0.373047
-0.365674
-0.35781
-0.349343
-0.339952
-0.329381
-0.317542
-0.304573
-0.290806
-0.276646
-0.262531
-0.248568
-0.235662
-0.381134
-0.373215
-0.366746
-0.359775
-0.3524
-0.344569
-0.336006
-0.326444
-0.31573
-0.303902
-0.291197
-0.277953
-0.2646
-0.251211
-0.238814
-0.374081
-0.366764
-0.360672
-0.354088
-0.347162
-0.339897
-0.332067
-0.323414
-0.313743
-0.303006
-0.291347
-0.279026
-0.266457
-0.253661
-0.241793
-0.367286
-0.360561
-0.354844
-0.348635
-0.342125
-0.335365
-0.328182
-0.320341
-0.311625
-0.301918
-0.291278
-0.27988
-0.268112
-0.255927
-0.244613
-0.360771
-0.354624
-0.349278
-0.343434
-0.337312
-0.331005
-0.324392
-0.317271
-0.309419
-0.300673
-0.291014
-0.280531
-0.269579
-0.258018
-0.247291
-0.35455
-0.348962
-0.343983
-0.338495
-0.332738
-0.326841
-0.320732