/*--------------------------------*- C++ -*----------------------------------*\
  =========                 |
  \\      /  F ield         | OpenFOAM: The Open Source CFD Toolbox
   \\    /   O peration     | Website:  https://openfoam.org
    \\  /    A nd           | Version:  7
     \\/     M anipulation  |
\*---------------------------------------------------------------------------*/
FoamFile
{
    version     2.0;
    format      ascii;
    class       surfaceScalarField;
    location    "20";
    object      phi;
}
// * * * * * * * * * * * * * * * * * * * * * * * * * * * * * * * * * * * * * //

dimensions      [0 3 -1 0 0 0 0];

internalField   nonuniform List<scalar> 
39691
(
-2.14491e-06
2.14239e-06
2.52146e-09
-7.91099e-06
5.75978e-06
6.30002e-09
-1.68877e-05
8.96757e-06
9.15162e-09
-2.86725e-05
1.17736e-05
1.11602e-08
-4.28803e-05
1.41954e-05
1.24374e-08
-5.91548e-05
1.62613e-05
1.31116e-08
-7.71787e-05
1.80106e-05
1.3314e-08
-9.66868e-05
1.9495e-05
1.31647e-08
-0.000117479
2.07799e-05
1.27589e-08
-0.000139437
2.19459e-05
1.21569e-08
-0.000162538
2.30896e-05
1.13796e-08
-0.000186871
2.43224e-05
1.04074e-08
-0.000212647
2.57662e-05
9.18116e-09
-0.000240186
2.75317e-05
7.60682e-09
2.97387e-05
5.53766e-09
-0.00026993
-2.13348e-06
4.27587e-06
-7.87013e-06
1.14964e-05
-1.68014e-05
1.78989e-05
-2.85257e-05
2.34979e-05
-4.26579e-05
2.83276e-05
-5.88403e-05
3.24437e-05
-7.67535e-05
3.59237e-05
-9.61284e-05
3.88699e-05
-0.000116761
4.14119e-05
-0.000138524
4.37098e-05
-0.00016139
4.59555e-05
-0.00018544
4.8372e-05
-0.000210877
5.12037e-05
-0.000238019
5.46736e-05
5.9022e-05
-0.000267303
-2.11081e-06
6.38668e-06
-7.78906e-06
1.71747e-05
-1.66301e-05
2.674e-05
-2.82342e-05
3.5102e-05
-4.22159e-05
4.23093e-05
-5.82152e-05
4.8443e-05
-7.59078e-05
5.36164e-05
-9.50177e-05
5.79797e-05
-0.00011533
6.17242e-05
-0.000136707
6.50867e-05
-0.000159104
6.8353e-05
-0.000182589
7.18567e-05
-0.000207352
7.59671e-05
-0.000233701
8.10227e-05
8.73857e-05
-0.000262065
-2.07734e-06
8.46401e-06
-7.66913e-06
2.27665e-05
-1.63765e-05
3.54473e-05
-2.78021e-05
4.65276e-05
-4.15601e-05
5.60674e-05
-5.7287e-05
6.41698e-05
-7.46514e-05
7.09808e-05
-9.33665e-05
7.66947e-05
-0.000113202
8.15602e-05
-0.000134003
8.58869e-05
-0.000155701
9.00514e-05
-0.000178342
9.44978e-05
-0.000202098
9.97227e-05
-0.000227262
0.000106187
0.000114376
-0.000254252
-2.03366e-06
1.04977e-05
-7.51233e-06
2.82451e-05
-1.60442e-05
4.39792e-05
-2.72352e-05
5.77186e-05
-4.06989e-05
6.95311e-05
-5.60667e-05
7.95377e-05
-7.29983e-05
8.79124e-05
-9.11922e-05
9.48886e-05
-0.000110399
0.000100767
-0.000130437
0.000105925
-0.00015121
0.000110825
-0.000172733
0.000116021
-0.000195151
0.000122141
-0.000218741
0.000129776
0.000139544
-0.000243909
-1.98058e-06
1.24783e-05
-7.32118e-06
3.35857e-05
-1.56383e-05
5.22963e-05
-2.65414e-05
6.86217e-05
-3.96429e-05
8.26326e-05
-5.45684e-05
9.44633e-05
-7.09661e-05
0.00010431
-8.85168e-05
0.000112439
-0.000106946
0.000119197
-0.000126041
0.00012502
-0.000145669
0.000130453
-0.000165805
0.000136157
-0.000186561
0.000142896
-0.000208192
0.000151408
0.000162446
-0.000231094
-1.91902e-06
1.43973e-05
-7.09871e-06
3.87654e-05
-1.51645e-05
6.0362e-05
-2.57296e-05
7.91867e-05
-3.84048e-05
9.53079e-05
-5.28088e-05
0.000108867
-6.85759e-05
0.000120077
-8.53663e-05
0.00012923
-0.000102876
0.000136707
-0.000120854
0.000142998
-0.000139123
0.000148721
-0.000157607
0.000154641
-0.000176379
0.000161668
-0.000195672
0.000170701
0.000182642
-0.000215868
-1.85006e-06
1.62473e-05
-6.84832e-06
4.37637e-05
-1.46294e-05
6.81431e-05
-2.481e-05
8.93673e-05
-3.69989e-05
0.000107497
-5.08061e-05
0.000122674
-6.58508e-05
0.000135122
-8.17691e-05
0.000145148
-9.82233e-05
0.000153161
-0.000114917
0.000159691
-0.000131618
0.000165422
-0.000148194
0.000171218
-0.000164666
0.00017814
-0.000181239
0.000187274
0.00019969
-0.000198287
-1.77484e-06
1.80222e-05
-6.5737e-06
4.85626e-05
-1.40401e-05
7.56095e-05
-2.37936e-05
9.91209e-05
-3.54401e-05
0.000119143
-4.85799e-05
0.000135814
-6.2815e-05
0.000149357
-7.77545e-05
0.000160087
-9.30226e-05
0.000168429
-0.000108271
0.00017494
-0.000123205
0.000180356
-0.000137621
0.000185634
-0.000151477
0.000191996
-0.000164951
0.000200747
0.000213141
-0.000178401
-1.69458e-06
1.97168e-05
-6.27872e-06
5.31467e-05
-1.34039e-05
8.27347e-05
-2.26917e-05
0.000108409
-3.37438e-05
0.000130195
-4.61498e-05
0.00014822
-5.94926e-05
0.0001627
-7.33518e-05
0.000173947
-8.73091e-05
0.000182386
-0.000100959
0.000188589
-0.000113931
0.000193328
-0.00012594
0.000197643
-0.000136867
0.000202922
-0.000146854
0.000210734
0.000222526
-0.000156239
-1.6105e-06
2.13273e-05
-5.96728e-06
5.75035e-05
-1.27283e-05
8.94957e-05
-2.15155e-05
0.000117196
-3.19252e-05
0.000140605
-4.35347e-05
0.00015983
-5.59062e-05
0.000175071
-6.85875e-05
0.000186628
-8.11137e-05
0.000194912
-9.30147e-05
0.000200491
-0.000103838
0.000204151
-0.000113196
0.000207002
-0.000120877
0.000210603
-0.000126982
0.000216839
0.000227349
-0.000131804
-1.52383e-06
2.28511e-05
-5.64321e-06
6.16229e-05
-1.20203e-05
9.58728e-05
-2.02756e-05
0.000125451
-2.99982e-05
0.000150328
-4.07517e-05
0.000170583
-5.20755e-05
0.000186395
-6.34836e-05
0.000198036
-7.44611e-05
0.00020589
-8.44673e-05
0.000210497
-9.29545e-05
0.000212638
-9.94201e-05
0.000213467
-0.000103533
0.000214716
-0.000105343
0.000218649
0.000227073
-0.000105067
-1.43573e-06
2.42868e-05
-5.31015e-06
6.54973e-05
-1.12867e-05
0.000101849
-1.89818e-05
0.000133146
-2.79753e-05
0.000159321
-3.78148e-05
0.000180423
-4.80157e-05
0.000196596
-5.80555e-05
0.000208076
-6.73662e-05
0.000215201
-7.53307e-05
0.000218461
-8.12956e-05
0.000218603
-8.4623e-05
0.000216795
-8.48371e-05
0.00021493
-8.19187e-05
0.000215731
0.000221119
-7.59651e-05
-1.3473e-06
2.56341e-05
-4.97146e-06
6.91214e-05
-1.05335e-05
0.000107411
-1.76426e-05
0.000140256
-2.58665e-05
0.000167545
-3.47346e-05
0.000189291
-4.37358e-05
0.000205597
-5.23092e-05
0.000216649
-5.98307e-05
0.000222722
-6.56012e-05
0.000224232
-6.88508e-05
0.000221853
-6.87856e-05
0.000216729
-6.4752e-05
0.000210897
-5.6655e-05
0.000207634
0.000208896
-4.44315e-05
-1.25953e-06
2.68936e-05
-4.63007e-06
7.2492e-05
-9.76572e-06
0.000112547
-1.62646e-05
0.000146754
-2.36788e-05
0.000174959
-3.15165e-05
0.000197129
-3.92375e-05
0.000213318
-4.62398e-05
0.000223652
-5.18401e-05
0.000228322
-5.52524e-05
0.000227644
-5.55797e-05
0.00022218
-5.18496e-05
0.000212999
-4.31687e-05
0.000202216
-2.93879e-05
0.000193853
0.000190339
-1.08312e-05
-1.17327e-06
2.80669e-05
-4.28845e-06
7.56072e-05
-8.98745e-06
0.000117246
-1.48525e-05
0.00015262
-2.14158e-05
0.000181522
-2.81604e-05
0.000203873
-3.45135e-05
0.000219671
-3.98287e-05
0.000228967
-4.33601e-05
0.000231854
-4.42303e-05
0.000228514
-4.14071e-05
0.000219357
-3.37233e-05
0.000205316
-1.99475e-05
0.00018844
1.23171e-06
0.000172674
0.000164873
2.66973e-05
-1.08925e-06
2.91562e-05
-3.94849e-06
7.84664e-05
-8.20135e-06
0.000121499
-1.34086e-05
0.000157827
-1.90771e-05
0.000187191
-2.466e-05
0.000209456
-2.95469e-05
0.000224558
-3.30424e-05
0.000232462
-3.43337e-05
0.000233145
-3.24484e-05
0.000226629
-2.62124e-05
0.000213121
-1.42484e-05
0.000193352
4.84742e-06
0.000169344
3.21307e-05
0.000145391
0.000129504
6.74997e-05
-1.00801e-06
3.01642e-05
-3.61146e-06
8.10699e-05
-7.40874e-06
0.000125296
-1.19324e-05
0.00016235
-1.6658e-05
0.000191916
-2.1002e-05
0.0002138
-2.43099e-05
0.000227866
-2.58309e-05
0.000233983
-2.46795e-05
0.000231994
-1.97825e-05
0.000221732
-9.81889e-06
0.000203157
6.82202e-06
0.000176711
3.19347e-05
0.000144232
6.68087e-05
0.000110517
8.43416e-05
0.000111971
-9.29916e-07
3.10941e-05
-3.27795e-06
8.34179e-05
-6.60939e-06
0.000128628
-1.04211e-05
0.000166162
-1.41493e-05
0.000195645
-1.7166e-05
0.000216817
-1.87639e-05
0.000229464
-1.81279e-05
0.000233347
-1.42908e-05
0.000228157
-6.07112e-06
0.000213512
8.00531e-06
0.000189081
2.97853e-05
0.000154931
6.14461e-05
0.000112571
0.000104789
6.7174e-05
2.82761e-05
0.000160854
-8.5515e-07
3.19492e-05
-2.94779e-06
8.55105e-05
-5.80144e-06
0.000131481
-8.8686e-06
0.000169229
-1.15371e-05
0.000198313
-1.31246e-05
0.000218404
-1.28597e-05
0.000229199
-9.85066e-06
0.000230338
-3.03637e-06
0.000221342
8.88358e-06
0.000201592
2.75432e-05
0.000170421
5.50285e-05
0.000127445
9.39171e-05
7.36821e-05
0.000146602
1.44889e-05
-3.99158e-05
0.000214794
-7.83673e-07
3.27329e-05
-2.62001e-06
8.73469e-05
-4.98126e-06
0.000133842
-7.26584e-06
0.000171514
-8.80274e-06
0.00019985
-8.8429e-06
0.000218445
-6.53727e-06
0.000226894
-9.01327e-07
0.000224702
9.23709e-06
0.000211204
2.53125e-05
0.000185517
4.91275e-05
0.000146606
8.30038e-05
9.35691e-05
0.000129914
2.67719e-05
0.000192917
-4.85142e-05
-0.000121501
0.000274502
-7.15215e-07
3.34481e-05
-2.29279e-06
8.89244e-05
-4.14335e-06
0.000135693
-5.60053e-06
0.000172971
-5.92237e-06
0.000200172
-4.27915e-06
0.000216801
2.73084e-07
0.000222341
8.83156e-06
0.000216144
2.27016e-05
0.000197334
4.34731e-05
0.000164745
7.31298e-05
0.00011695
0.000114222
5.24766e-05
0.000170084
-2.90894e-05
0.000244494
-0.000122924
-0.000217714
0.000340707
-6.49243e-07
3.40974e-05
-1.96331e-06
9.02385e-05
-3.28016e-06
0.00013701
-3.85693e-06
0.000173548
-2.86718e-06
0.000199182
6.15705e-07
0.000213319
7.65032e-06
0.000215307
1.94709e-05
0.000204323
3.75434e-05
0.000179261
6.36403e-05
0.000138648
9.99452e-05
8.06447e-05
0.000149229
3.19298e-06
0.000215116
-9.49768e-05
0.00030215
-0.000209958
-0.000329643
0.000414079
-5.84928e-07
3.46823e-05
-1.62769e-06
9.12813e-05
-2.38187e-06
0.000137764
-2.01563e-06
0.000173182
3.97335e-07
0.000196769
5.89763e-06
0.000207818
1.56821e-05
0.000205522
3.11492e-05
0.000188856
5.39578e-05
0.000156453
8.60961e-05
0.00010651
0.000129972
3.67693e-05
0.000188568
-5.54037e-05
0.000265698
-0.000172107
0.000366699
-0.000310959
-0.000458084
0.000495139
-5.21113e-07
3.52034e-05
-1.28089e-06
9.2041e-05
-1.4362e-06
0.000137919
-5.12956e-08
0.000171797
3.91061e-06
0.000192807
1.16302e-05
0.000200099
2.44646e-05
0.000192688
4.40071e-05
0.000169314
7.21448e-05
0.000128315
0.000111119
6.75363e-05
0.000163588
-1.56999e-05
0.000232746
-0.000124562
0.000322453
-0.000261814
0.00043886
-0.000427366
-0.000603346
0.000584122
-4.56265e-07
3.56597e-05
-9.1656e-07
9.25013e-05
-4.28496e-07
0.000137431
2.05867e-06
0.00016931
7.71899e-06
0.000187147
1.78846e-05
0.000189933
3.41024e-05
0.00017647
5.81919e-05
0.000145224
9.23047e-05
9.42022e-05
0.000138972
2.08692e-05
0.000201132
-7.78605e-05
0.000282185
-0.000205614
0.000385879
-0.000365508
0.000519151
-0.000560638
-0.000765027
0.000680833
-3.88407e-07
3.60481e-05
-5.26965e-07
9.26399e-05
6.58894e-07
0.000136245
4.35177e-06
0.000165617
1.18752e-05
0.000179623
2.47401e-05
0.000177068
4.47081e-05
0.000156502
7.38565e-05
0.000116076
0.000114635
5.34234e-05
0.000169898
-3.43935e-05
0.000242884
-0.000150847
0.000337184
-0.000299914
0.000456291
-0.000484615
0.000607762
-0.000712109
-0.000941809
0.000784544
-3.1513e-07
3.63632e-05
-1.01077e-07
9.24258e-05
1.84675e-06
0.000134298
6.8631e-06
0.0001606
1.64383e-05
0.000170048
3.22838e-05
0.000161223
5.64024e-05
0.000132383
9.11578e-05
8.13203e-05
0.000139327
5.25463e-06
0.000204108
-9.91746e-05
0.000289047
-0.000235786
0.000397888
-0.000408756
0.000533774
-0.000620501
0.000704377
-0.000882712
-0.00113149
0.000894056
-2.34002e-07
3.65972e-05
3.66112e-07
9.18257e-05
3.15809e-06
0.000131506
9.63429e-06
0.000154124
2.14735e-05
0.000158209
4.06099e-05
0.000142086
6.93121e-05
0.000103681
0.000110254
4.03786e-05
0.000166556
-5.10479e-05
0.00024177
-0.000174388
0.000339731
-0.000333747
0.000464283
-0.000533307
0.000618226
-0.000774444
0.000807999
-0.00107249
-0.00133153
0.00100805
-1.41564e-07
3.67388e-05
8.91805e-07
9.07924e-05
4.61936e-06
0.000127778
1.2711e-05
0.000146032
2.70514e-05
0.000143869
4.98185e-05
0.000119319
8.35672e-05
6.99325e-05
0.000131297
-7.35133e-06
0.000196477
-0.000116228
0.000282988
-0.0002609
0.000394918
-0.000445677
0.000536162
-0.000674551
0.000709479
-0.000947761
0.000917401
-0.00128041
-0.00154037
0.00112624
-3.42758e-08
3.6773e-05
1.48783e-06
8.92702e-05
6.25877e-06
0.000123007
1.61421e-05
0.000136149
3.32466e-05
0.000126764
6.00125e-05
9.25533e-05
9.92967e-05
3.06482e-05
0.000154428
-6.2483e-05
0.000229203
-0.000191002
0.000327774
-0.00035947
0.000454375
-0.000572278
0.000612862
-0.000833038
0.000806584
-0.00114148
0.00103356
-0.00150739
-0.00175769
0.00125088
9.30115e-08
3.668e-05
2.16768e-06
8.71956e-05
8.10563e-06
0.000117069
1.99782e-05
0.000124277
4.01348e-05
0.000106608
7.12938e-05
6.13943e-05
0.000116622
-1.46796e-05
0.000179765
-0.000125626
0.000264796
-0.000276033
0.000376027
-0.000470701
0.000517638
-0.000713889
0.000693064
-0.00100846
0.000905528
-0.00135395
0.00115316
-0.00175502
-0.00210125
0.00149672
2.42045e-07
3.6438e-05
2.94619e-06
8.44914e-05
1.01912e-05
0.000109824
2.42713e-05
0.000110196
4.77916e-05
8.30872e-05
8.37592e-05
2.54267e-05
0.000135648
-6.65679e-05
0.00020739
-0.000197369
0.000303251
-0.000371895
0.000427532
-0.000594982
0.000584068
-0.000870425
0.000775394
-0.00119979
0.00100357
-0.00158212
0.00126339
-0.00201483
-0.00242149
0.00158363
4.18426e-07
3.60196e-05
3.83763e-06
8.10722e-05
1.25451e-05
0.000101117
2.90705e-05
9.3671e-05
5.62865e-05
5.58713e-05
9.74929e-05
-1.57798e-05
0.000156455
-0.00012553
0.000237337
-0.000278251
0.00034448
-0.000479038
0.000481957
-0.000732458
0.000652915
-0.00104138
0.000858527
-0.0014054
0.00109845
-0.00182205
0.00136513
-0.00228151
-0.00272755
0.00167119
6.25981e-07
3.53936e-05
4.85606e-06
7.68422e-05
1.51959e-05
9.07769e-05
3.44217e-05
7.44452e-05
6.56807e-05
2.46123e-05
0.000112561
-6.26604e-05
0.000179088
-0.000192057
0.000269579
-0.000368741
0.000388292
-0.000597752
0.00053882
-0.000882986
0.000723263
-0.00122583
0.000941083
-0.00162322
0.00118915
-0.00207011
0.00145833
-0.00255069
-0.00302072
0.00175149
8.68529e-07
3.45251e-05
6.01455e-06
7.16961e-05
1.81698e-05
7.86216e-05
4.03645e-05
5.22506e-05
7.60228e-05
-1.1046e-05
0.000129006
-0.000115643
0.000203547
-0.000266598
0.000304007
-0.000469201
0.000434373
-0.000728118
0.000597472
-0.00104609
0.000794012
-0.00142237
0.00102149
-0.0018507
0.00127402
-0.00232264
0.00154111
-0.00281778
-0.00329981
0.0018202
1.14959e-06
3.33755e-05
7.32477e-06
6.55209e-05
2.14889e-05
6.44574e-05
4.69304e-05
2.68092e-05
8.73445e-05
-5.14601e-05
0.000146835
-0.000175134
0.000229774
-0.000349536
0.000340422
-0.00057985
0.000482272
-0.000869968
0.00065709
-0.0012209
0.000863883
-0.00162916
0.00109804
-0.00208486
0.00135124
-0.00257583
0.00161201
-0.00307855
-0.00356294
0.00187514
1.47227e-06
3.19032e-05
8.79658e-06
5.81966e-05
2.51708e-05
4.80832e-05
5.41406e-05
-2.16062e-06
9.96575e-05
-9.6977e-05
0.000166024
-0.000241501
0.000257649
-0.000441161
0.000378529
-0.00070073
0.000531406
-0.00102284
0.000716693
-0.00140619
0.000931477
-0.00184394
0.00116905
-0.00232243
0.00141915
-0.00282593
0.00166994
-0.00332934
-0.0038083
0.0019153
1.83916e-06
3.0064e-05
1.04376e-05
4.95982e-05
2.92274e-05
2.92934e-05
6.20043e-05
-3.49376e-05
0.00011295
-0.000147923
0.000186503
-0.000315053
0.000286986
-0.000541645
0.000417929
-0.000831673
0.000581061
-0.00118598
0.000775185
-0.00160031
0.000995353
-0.00206411
0.00123294
-0.00256002
0.00147644
-0.00306942
0.00171428
-0.00356718
-0.00403462
0.0019406
2.25232e-06
2.78117e-05
1.22533e-05
3.95972e-05
3.36643e-05
7.88243e-06
7.05175e-05
-7.17908e-05
0.000127186
-0.000204592
0.000208158
-0.000396025
0.000317526
-0.000651013
0.000458128
-0.000972274
0.000630421
-0.00135827
0.000831403
-0.0018013
0.00105412
-0.00228683
0.0012884
-0.0027943
0.00152221
-0.00330323
0.00174492
-0.00378989
-0.00424134
0.00195164
2.7132e-06
2.50985e-05
1.42461e-05
2.80643e-05
3.84804e-05
-1.63518e-05
7.96615e-05
-0.000112972
0.000142301
-0.000267231
0.000230833
-0.000484557
0.000348944
-0.000769124
0.000498548
-0.00112188
0.000678599
-0.00153832
0.000884185
-0.00200688
0.00110655
-0.00250919
0.00133444
-0.0030222
0.00155605
-0.00352484
0.00176224
-0.00399607
-0.00442859
0.00194948
3.22269e-06
2.18758e-05
1.64162e-05
1.48707e-05
4.36675e-05
-4.36031e-05
8.94027e-05
-0.000158707
0.000158203
-0.000336031
0.000254323
-0.000580678
0.00038085
-0.000895651
0.000538545
-0.00127957
0.000724672
-0.00172445
0.000932437
-0.00221465
0.00115159
-0.00272835
0.00137044
-0.00324105
0.001578
-0.0037324
0.001767
-0.00418507
-0.00459708
0.0019355
3.78105e-06
1.80948e-05
1.87607e-05
-1.08904e-07
4.92097e-05
-7.40522e-05
9.96917e-05
-0.000209189
0.000174771
-0.000411111
0.000278379
-0.000684286
0.000412801
-0.00103007
0.000577428
-0.0014442
0.000767738
-0.00191476
0.000975195
-0.0024221
0.00118852
-0.00294167
0.00139615
-0.00344867
0.00158848
-0.00392474
0.00176028
-0.00435686
-0.00474796
0.00191116
4.38796e-06
1.37068e-05
2.12737e-05
-1.69946e-05
5.50836e-05
-0.000107862
0.000110463
-0.000264569
0.000191859
-0.000492506
0.000302716
-0.000795143
0.000444312
-0.00117167
0.000614496
-0.00161438
0.000806951
-0.00210721
0.00101167
-0.00262683
0.00121687
-0.00314687
0.00141167
-0.00364348
0.00158821
-0.00410129
0.00174329
-0.00451194
-0.00488265
0.00187797
5.04244e-06
8.66437e-06
2.39465e-05
-3.58987e-05
6.12579e-05
-0.000145174
0.000121636
-0.000324947
0.000209292
-0.000580162
0.000327012
-0.000912862
0.00047487
-0.00131953
0.000649062
-0.00178858
0.000841571
-0.00229972
0.0010413
-0.00282655
0.00123648
-0.00334204
0.0014174
-0.0038244
0.00157812
-0.004262
0.00171735
-0.00465116
-0.00500267
0.00183737
5.74284e-06
2.92152e-06
2.67672e-05
-5.6923e-05
6.76931e-05
-0.000186099
0.000133114
-0.000390368
0.000226874
-0.000673922
0.00035092
-0.00103691
0.000503959
-0.00147257
0.000680488
-0.0019651
0.000870996
-0.00249023
0.00106374
-0.00301929
0.00124746
-0.00352577
0.00141397
-0.00399091
0.00155925
-0.00440728
0.00168374
-0.00477565
-0.00510959
0.00179065
6.48682e-06
-3.56529e-06
2.97206e-05
-8.01568e-05
7.43421e-05
-0.000230721
0.000144786
-0.000460813
0.000244386
-0.000773522
0.000374079
-0.0011666
0.000531073
-0.00162956
0.000708211
-0.00214224
0.000894782
-0.0026768
0.00107886
-0.00320337
0.00125014
-0.00369705
0.00140214
-0.0041429
0.0015327
-0.00453784
0.00164368
-0.00488663
-0.00520488
0.00173898
7.27123e-06
-1.08365e-05
3.27885e-05
-0.000105674
8.11499e-05
-0.000279082
0.000156528
-0.000536191
0.000261597
-0.00087859
0.000396122
-0.00130113
0.00055574
-0.00178918
0.000731768
-0.00231827
0.000912656
-0.00285769
0.00108675
-0.00337746
0.00124503
-0.00385534
0.00138278
-0.00428066
0.00149954
-0.0046546
0.00159829
-0.00498538
-0.00528992
0.00168333
8.09216e-06
-1.89287e-05
3.5949e-05
-0.000133531
8.80541e-05
-0.000331188
0.000168205
-0.000616342
0.000278264
-0.000988649
0.000416692
-0.00143955
0.000577541
-0.00195003
0.00075081
-0.00249154
0.000924511
-0.00303139
0.00108766
-0.00354061
0.00123275
-0.00400043
0.00135679
-0.0044047
0.00146079
-0.0047586
0.00154855
-0.00507314
-0.00536592
0.00162455
8.94481e-06
-2.78735e-05
3.91772e-05
-0.000163763
9.49859e-05
-0.000386996
0.000179672
-0.000701028
0.000294143
-0.00110312
0.000435452
-0.00158086
0.000596124
-0.0021107
0.000765113
-0.00266053
0.000930391
-0.00319667
0.00108198
-0.00369219
0.00121399
-0.00413244
0.00132506
-0.00451578
0.00141739
-0.00485093
0.00149532
-0.00515108
-0.00543391
0.00156331
9.82353e-06
-3.7697e-05
4.24451e-05
-0.000196385
0.000101871
-0.000446422
0.00019078
-0.000789937
0.000308993
-0.00122133
0.000452098
-0.00172397
0.000611214
-0.00226982
0.00077457
-0.00282388
0.000930473
-0.00335257
0.0010702
-0.00383192
0.00118948
-0.00425173
0.00128843
-0.00461473
0.00137016
-0.00493266
0.00143932
-0.00522023
-0.00549477
0.00150018
1.07218e-05
-4.84188e-05
4.57219e-05
-0.000231385
0.000108629
-0.000509329
0.000201378
-0.000882686
0.000322586
-0.00134254
0.00046637
-0.00186775
0.000622624
-0.00242607
0.000779189
-0.00298045
0.00092504
-0.00349842
0.00105286
-0.00395973
0.00115996
-0.00435883
0.00124769
-0.00470246
0.00131984
-0.0050048
0.00138114
-0.00528154
-0.00554924
0.00143561
1.16322e-05
-6.00511e-05
4.89745e-05
-0.000268727
0.000115179
-0.000575533
0.000211315
-0.000978822
0.000334713
-0.00146594
0.000478058
-0.0020111
0.000630249
-0.00257826
0.00077908
-0.00312928
0.000914457
-0.0036338
0.00103054
-0.00407582
0.00112612
-0.0044544
0.00120354
-0.00477988
0.00126704
-0.00506831
0.0013213
-0.00533579
-0.0055979
0.00136995
1.25468e-05
-7.25979e-05
5.21676e-05
-0.000308348
0.000121438
-0.000644803
0.00022045
-0.00107783
0.00034519
-0.00159068
0.000487008
-0.00215291
0.000634069
-0.00272532
0.000774433
-0.00326964
0.00089914
-0.00375851
0.00100384
-0.00418052
0.00108861
-0.00453918
0.00115661
-0.00484788
0.0012123
-0.005124
0.00126018
-0.00538366
-0.00564121
0.00130349
1.34568e-05
-8.60547e-05
5.52652e-05
-0.000350156
0.000127323
-0.000716862
0.000228649
-0.00117916
0.000353865
-0.00171589
0.000493123
-0.00229217
0.000634137
-0.00286634
0.000765508
-0.00340101
0.00087954
-0.00387254
0.000973313
-0.00427429
0.00104803
-0.00461389
0.00110743
-0.00490728
0.00115606
-0.00517263
0.00119812
-0.00542572
-0.00567955
0.00123645
1.4353e-05
-0.000100408
5.82303e-05
-0.000394034
0.000132755
-0.000791387
0.000235793
-0.0012822
0.000360619
-0.00184072
0.000496363
-0.00242792
0.000630568
-0.00300054
0.00075261
-0.00352306
0.00085612
-0.00397605
0.000939512
-0.00435768
0.00100492
-0.00467931
0.00105649
-0.00495885
0.00109869
-0.00521484
0.00113538
-0.0054624
-0.00571319
0.00116901
1.52258e-05
-0.000115634
6.10265e-05
-0.000439834
0.00013766
-0.00086802
0.000241779
-0.00138632
0.000365368
-0.00196431
0.000496742
-0.00255929
0.000623535
-0.00312734
0.000736076
-0.0036356
0.000829339
-0.00406931
0.000902941
-0.00443128
0.000959767
-0.00473613
0.00100418
-0.00500326
0.00104048
-0.00525114
0.00107217
-0.00549409
-0.00574233
0.00110132
1.60655e-05
-0.000131699
6.36183e-05
-0.000487387
0.000141968
-0.00094637
0.000246523
-0.00149087
0.000368067
-0.00208585
0.000494319
-0.00268554
0.000613249
-0.00324627
0.000716261
-0.00373861
0.00079964
-0.00415269
0.000864059
-0.0044957
0.000912974
-0.00478505
0.000950827
-0.00504111
0.000981692
-0.00528201
0.00100867
-0.00552107
-0.00576715
0.00103349
1.68623e-05
-0.000148561
6.59719e-05
-0.000536497
0.000145621
-0.00102602
0.000249963
-0.00159521
0.000368706
-0.0022046
0.000489196
-0.00280603
0.000599949
-0.00335702
0.000693524
-0.00383218
0.000767443
-0.00422661
0.000823283
-0.00455154
0.000864907
-0.00482667
0.000896723
-0.00507293
0.000922515
-0.0053078
0.000945005
-0.00554356
-0.00578775
0.000965609
1.76067e-05
-0.000166168
6.80562e-05
-0.000586946
0.000148566
-0.00110653
0.000252058
-0.00169871
0.000367305
-0.00231984
0.000481508
-0.00292024
0.000583896
-0.00345941
0.000668219
-0.00391651
0.000733138
-0.00429153
0.000780982
-0.00459939
0.000815873
-0.00486156
0.000842097
-0.00509915
0.000863117
-0.00532882
0.000881296
-0.00556174
-0.00580423
0.00089777
1.82896e-05
-0.000184458
6.98432e-05
-0.0006385
0.000150764
-0.00118745
0.000252788
-0.00180073
0.000363915
-0.00243097
0.000471414
-0.00302773
0.00056536
-0.00355335
0.000640685
-0.00399183
0.000697083
-0.00434793
0.000737481
-0.00463978
0.000766136
-0.00489022
0.000787143
-0.00512016
0.000803633
-0.00534531
0.000817635
-0.00557574
-0.00581663
0.000830042
1.89024e-05
-0.00020336
7.13087e-05
-0.000690906
0.000152186
-0.00126833
0.000252152
-0.0019007
0.000358614
-0.00253743
0.000459095
-0.00312821
0.000544612
-0.00363887
0.000611247
-0.00405847
0.000659601
-0.00439628
0.000693062
-0.00467325
0.000715918
-0.00491307
0.000732023
-0.00513626
0.000744175
-0.00535746
0.000754101
-0.00558566
-0.00582502
0.000762485
1.94388e-05
-0.000222799
7.24358e-05
-0.000743903
0.000152818
-0.00134871
0.000250177
-0.00199805
0.000351506
-0.00263876
0.000444749
-0.00322146
0.000521928
-0.00371605
0.000580213
-0.00411675
0.000620991
-0.00443706
0.00064798
-0.00470024
0.000665416
-0.00493051
0.000676878
-0.00514772
0.000684845
-0.00536543
0.000690769
-0.00559159
-0.00582941
0.000695163
1.98889e-05
-0.000242688
7.32026e-05
-0.000797217
0.000152643
-0.00142815
0.000246886
-0.0020923
0.000342688
-0.00273456
0.000428557
-0.00330733
0.000497547
-0.00378504
0.000547842
-0.00416704
0.000581489
-0.00447071
0.000602428
-0.00472117
0.000614769
-0.00494285
0.000621802
-0.00515475
0.000625701
-0.00536933
0.00062768
-0.00559357
-0.00582984
0.000628111
2.02481e-05
-0.000262936
7.36008e-05
-0.000850569
0.000151668
-0.00150622
0.000242336
-0.00218297
0.000332292
-0.00282452
0.000410725
-0.00338576
0.000471723
-0.00384604
0.000514395
-0.00420972
0.000541333
-0.00449764
0.000556595
-0.00473644
0.000564119
-0.00495037
0.000566895
-0.00515753
0.00056682
-0.00536925
0.000564897
-0.00559164
-0.00582633
0.000561384
2.05114e-05
-0.000283448
7.36238e-05
-0.000903682
0.000149907
-0.0015825
0.00023659
-0.00226965
0.000320452
-0.00290838
0.000391449
-0.00345676
0.000444685
-0.00389928
0.000480101
-0.00424513
0.000500718
-0.00451826
0.000510635
-0.00474635
0.000513577
-0.00495332
0.000512238
-0.00515619
0.000508259
-0.00536527
0.000502464
-0.00558585
-0.00581889
0.000495027
2.06749e-05
-0.000304122
7.32696e-05
-0.000956276
0.00014738
-0.00165661
0.000229719
-0.00235199
0.000307304
-0.00298597
0.000370918
-0.00352037
0.000416645
-0.003945
0.000445161
-0.00427365
0.000459817
-0.00453292
0.000464681
-0.00475122
0.000463237
-0.00495187
0.000457897
-0.00515085
0.000450067
-0.00535745
0.000440425
-0.00557621
-0.00580755
0.00042908
2.07358e-05
-0.000324858
7.25404e-05
-0.00100808
0.000144117
-0.00172819
0.000221805
-0.00242968
0.000292986
-0.00305715
0.000349314
-0.0035767
0.000387799
-0.00398349
0.000409758
-0.00429561
0.000418779
-0.00454194
0.000418843
-0.00475128
0.00041318
-0.00494621
0.000403928
-0.0051416
0.00039229
-0.00534581
0.000378819
-0.00556274
-0.00579231
0.000363582
2.06925e-05
-0.000345551
7.14422e-05
-0.00105883
0.000140153
-0.0017969
0.000212932
-0.00250246
0.000277634
-0.00312185
0.000326806
-0.00362587
0.000358324
-0.00401501
0.000374051
-0.00431133
0.000377733
-0.00454562
0.000373217
-0.00474676
0.000363473
-0.00493647
0.000350384
-0.00512851
0.000334969
-0.00533039
0.000317682
-0.00554545
-0.00577319
0.000298563
2.05444e-05
-0.000366095
6.9985e-05
-0.00110827
0.000135529
-0.00186244
0.000203187
-0.00257011
0.000261382
-0.00318004
0.000303554
-0.00366804
0.000328381
-0.00403983
0.000338181
-0.00432113
0.000336788
-0.00454423
0.000327884
-0.00473786
0.000314175
-0.00492276
0.000297306
-0.00511164
0.000278137
-0.00531122
0.000257046
-0.00552436
-0.0057502
0.00023405
2.02921e-05
-0.000386387
6.81816e-05
-0.00115616
0.00013029
-0.00192455
0.00019266
-0.00263248
0.000244356
-0.00323174
0.000279705
-0.00370339
0.000298112
-0.00405824
0.000302271
-0.00432529
0.000296041
-0.004538
0.000282914
-0.00472473
0.000265338
-0.00490518
0.000244736
-0.00509104
0.000221826
-0.00528831
0.000196933
-0.00549947
-0.00572332
0.000170058
1.99369e-05
-0.000406324
6.60477e-05
-0.00120227
0.000124483
-0.00198299
0.000181438
-0.00268944
0.00022668
-0.00327698
0.000255395
-0.00373211
0.000267646
-0.00407049
0.000266427
-0.00432407
0.000255574
-0.00452714
0.000238367
-0.00470753
0.000217009
-0.00488382
0.000192716
-0.00506675
0.00016608
-0.00526168
0.000137372
-0.00547076
-0.00569253
0.000106576
1.94814e-05
-0.000425806
6.36014e-05
-0.00124639
0.000118157
-0.00203754
0.000169609
-0.00274089
0.000208467
-0.00331584
0.000230746
-0.00375438
0.000237097
-0.00407685
0.000230743
-0.00431772
0.000215455
-0.00451186
0.000194295
-0.00468637
0.000169227
-0.00485876
0.000141289
-0.00503881
0.000110969
-0.00523136
7.84286e-05
-0.00543822
-0.00565753
4.34278e-05
1.89286e-05
-0.000444734
6.08625e-05
-0.00128833
0.000111363
-0.00208804
0.000157255
-0.00278678
0.000189823
-0.00334841
0.00020587
-0.00377043
0.000206566
-0.00407754
0.0001953
-0.00430645
0.000175745
-0.0044923
0.000150742
-0.00466136
0.000122028
-0.00483004
9.04808e-05
-0.00500726
5.6552e-05
-0.00519743
2.03602e-05
-0.00540203
-0.00561802
-1.91497e-05
1.82826e-05
-0.000463017
5.78522e-05
-0.00132789
0.000104151
-0.00213434
0.000144459
-0.00282709
0.000170847
-0.00337479
0.000180867
-0.00378045
0.000176139
-0.00407281
0.000160167
-0.00429048
0.000136497
-0.00446863
0.000107747
-0.00463261
7.54447e-05
-0.00479774
4.03115e-05
-0.00497213
2.61575e-06
-0.00515973
-3.72291e-05
-0.00536218
-0.00557565
-7.95915e-05
1.75476e-05
-0.000480565
5.45924e-05
-0.00136494
9.65715e-05
-0.00217632
0.000131294
-0.00286181
0.00015163
-0.00339513
0.000155827
-0.00378465
0.000145895
-0.00406288
0.000125403
-0.00426999
9.77526e-05
-0.00444098
6.53427e-05
-0.0046002
2.95042e-05
-0.0047619
-9.17001e-06
-0.00493345
-5.03406e-05
-0.00511856
-9.40717e-05
-0.00531845
-0.00552974
-0.000139984
1.67289e-05
-0.000497293
5.11061e-05
-0.00139932
8.86728e-05
-0.00221388
0.000117835
-0.00289098
0.000132254
-0.00340955
0.00013083
-0.00378322
0.0001159
-0.00404795
9.10606e-05
-0.00424515
5.95508e-05
-0.00440947
2.3557e-05
-0.00456421
-1.57656e-05
-0.00472258
-5.79264e-05
-0.00489129
-0.000102724
-0.00507377
-0.00015009
-0.00527108
-0.00548009
-0.000199743
1.58318e-05
-0.000513125
4.74161e-05
-0.0014309
8.05022e-05
-0.00224697
0.000104147
-0.00291462
0.000112796
-0.0034182
0.000105947
-0.00377638
8.62141e-05
-0.00402822
5.7183e-05
-0.00421612
2.19228e-05
-0.00437421
-1.75816e-05
-0.0045247
-6.03368e-05
-0.00467982
-0.000105975
-0.00484565
-0.000154351
-0.00502539
-0.000205349
-0.00522009
-0.0054267
-0.000258737
1.4862e-05
-0.000527987
4.35453e-05
-0.00145958
7.21047e-05
-0.00227553
9.02925e-05
-0.00293281
9.33215e-05
-0.00342123
8.12398e-05
-0.00376429
5.68867e-05
-0.00400387
2.38081e-05
-0.00418304
-1.51019e-05
-0.0043353
-5.80465e-05
-0.00448176
-0.000104196
-0.00463367
-0.000153275
-0.00479657
-0.000205194
-0.00497347
-0.000259824
-0.00516546
-0.0053696
-0.00031692
1.38258e-05
-0.000541813
3.95166e-05
-0.00148528
6.35233e-05
-0.00229954
7.63295e-05
-0.00294562
7.38936e-05
-0.00341879
5.67644e-05
-0.00374716
2.79617e-05
-0.00397506
-9.03259e-06
-0.00414605
-5.14953e-05
-0.00429284
-9.78252e-05
-0.00443543
-0.000147321
-0.00458418
-0.000199801
-0.00474409
-0.00025523
-0.00491804
-0.000313483
-0.0051072
-0.00530883
-0.000374257
1.27294e-05
-0.000554542
3.5352e-05
-0.0015079
5.47985e-05
-0.00231898
6.23108e-05
-0.00295313
5.45673e-05
-0.00341105