/*--------------------------------*- C++ -*----------------------------------*\
  =========                 |
  \\      /  F ield         | OpenFOAM: The Open Source CFD Toolbox
   \\    /   O peration     | Website:  https://openfoam.org
    \\  /    A nd           | Version:  7
     \\/     M anipulation  |
\*---------------------------------------------------------------------------*/
FoamFile
{
    version     2.0;
    format      ascii;
    class       volVectorField;
    location    "20";
    object      U;
}
// * * * * * * * * * * * * * * * * * * * * * * * * * * * * * * * * * * * * * //

dimensions      [0 1 -1 0 0 0 0];

internalField   nonuniform List<vector> 
20050
(
(-0.000493576 0.000458786 3.56378e-21)
(-0.00312958 0.00115027 -6.49755e-22)
(-0.00839757 0.00165682 -8.1721e-21)
(-0.0151411 0.00201143 -1.22809e-20)
(-0.0229249 0.00223791 -1.11291e-21)
(-0.0313498 0.00235954 7.54771e-21)
(-0.0400725 0.00239851 -8.42204e-21)
(-0.0488315 0.00237564 2.16615e-21)
(-0.0574362 0.00231047 -5.95836e-21)
(-0.0657637 0.00222127 1.09285e-20)
(-0.0737549 0.0021249 9.29864e-21)
(-0.0814097 0.0020366 -1.12614e-20)
(-0.0887844 0.0019693 -5.73757e-21)
(-0.0959701 0.00193149 6.05286e-21)
(-0.103074 0.00193035 -6.32919e-21)
(-0.000537637 0.00137527 5.89002e-21)
(-0.00323173 0.00344828 -3.97411e-21)
(-0.00852782 0.00496701 -1.80081e-21)
(-0.0152774 0.0060301 1.23048e-20)
(-0.0230487 0.00670888 1.5233e-20)
(-0.031445 0.00707305 -3.74478e-20)
(-0.0401252 0.00718915 2.27725e-20)
(-0.0488292 0.00711958 2.39911e-20)
(-0.057367 0.00692293 3.12251e-20)
(-0.065616 0.00665395 -2.9574e-20)
(-0.073517 0.0063633 1.99163e-20)
(-0.0810702 0.00609681 1.86294e-20)
(-0.0883326 0.00589346 1.06958e-20)
(-0.0953956 0.00577891 -3.39935e-20)
(-0.102359 0.00577508 2.79826e-20)
(-0.000625294 0.00228197 -2.41496e-20)
(-0.00343506 0.00572318 -3.05358e-20)
(-0.00878723 0.00824538 2.31197e-20)
(-0.0155491 0.0100113 2.92526e-20)
(-0.0232954 0.0111388 -1.86412e-20)
(-0.0316348 0.0117433 -3.51254e-20)
(-0.0402303 0.011935 2.20964e-20)
(-0.0488242 0.0118174 -6.36134e-20)
(-0.0572284 0.0114876 -3.0501e-20)
(-0.0653205 0.0110369 -2.50086e-20)
(-0.0730414 0.0105496 -3.4989e-20)
(-0.0803912 0.0101025 6.26226e-21)
(-0.087429 0.00976114 2.55177e-20)
(-0.0942464 0.00956935 1.1595e-19)
(-0.100929 0.00956483 -4.45637e-20)
(-0.000755571 0.00317256 3.18414e-21)
(-0.00373754 0.00795993 6.11339e-20)
(-0.00917347 0.0114712 2.4162e-20)
(-0.0159539 0.0139305 -4.24499e-20)
(-0.0236631 0.0155009 1.02054e-20)
(-0.0319176 0.0163419 3.95236e-20)
(-0.0403863 0.0166066 3.68697e-20)
(-0.0488159 0.0164386 2.42682e-20)
(-0.0570199 0.0159731 -4.59662e-20)
(-0.064877 0.0153372 1.27967e-19)
(-0.0723278 0.0146492 -5.49944e-20)
(-0.0793724 0.0140173 7.67757e-20)
(-0.0860729 0.0135348 -2.55832e-20)
(-0.0925216 0.0132649 -9.74995e-20)
(-0.0987827 0.0132633 3.68912e-20)
(-0.000927042 0.00404101 8.71056e-20)
(-0.00413618 0.0101441 -3.36384e-20)
(-0.00968309 0.0146243 -2.33732e-21)
(-0.0164883 0.0177639 2.4287e-20)
(-0.0241486 0.0197687 1.54788e-20)
(-0.0322907 0.0208411 2.03636e-20)
(-0.0405915 0.021175 -8.00422e-20)
(-0.0488026 0.0209533 -7.1229e-21)
(-0.0567405 0.0203483 4.6924e-21)
(-0.0642847 0.0195224 -1.25987e-19)
(-0.0713757 0.018628 1.12808e-19)
(-0.0780129 0.0178054 -7.79466e-20)
(-0.0842628 0.0171771 -3.59059e-20)
(-0.0902192 0.016828 -1.98197e-20)
(-0.0959168 0.0168349 -4.82513e-20)
(-0.00113786 0.00488165 -5.16385e-20)
(-0.00462709 0.0122621 -2.14801e-20)
(-0.0103116 0.0176857 -6.75871e-20)
(-0.017148 0.0214886 -1.17026e-20)
(-0.0247479 0.023917 -4.70678e-20)
(-0.0327507 0.0252137 -3.85286e-20)
(-0.0408428 0.0256121 -4.79288e-20)
(-0.0487821 0.0253324 2.83195e-20)
(-0.0563884 0.024583 3.38241e-20)
(-0.0635423 0.0235609 1.23312e-20)
(-0.0701834 0.0224524 2.34894e-20)
(-0.0763107 0.0214312 3.82719e-20)
(-0.0819957 0.0206508 -6.56654e-20)
(-0.0873351 0.0202212 -4.28217e-20)
(-0.0923259 0.0202444 1.40931e-19)
(-0.00138582 0.00568933 -3.21426e-20)
(-0.00520556 0.0143011 -3.31019e-20)
(-0.0110533 0.0206373 1.47652e-19)
(-0.0179272 0.0250829 7.83142e-20)
(-0.0254559 0.0279214 2.33668e-21)
(-0.033293 0.0294337 2.63283e-20)
(-0.0411363 0.0298905 7.05522e-20)
(-0.0487509 0.0295477 -4.68865e-20)
(-0.0559606 0.0286478 3.37539e-20)
(-0.0626467 0.0274218 4.32007e-20)
(-0.068748 0.0260897 -1.36952e-19)
(-0.0742618 0.0248598 -2.57784e-20)
(-0.0792659 0.0239194 -1.16644e-19)
(-0.0838621 0.0234074 7.23723e-20)
(-0.0879993 0.0234576 -8.7899e-20)
(-0.00166838 0.00645942 4.21515e-20)
(-0.00586615 0.0162497 -3.27683e-20)
(-0.0119018 0.0234625 -1.14613e-19)
(-0.0188192 0.0285263 -1.26787e-19)
(-0.0262659 0.0317589 -1.53007e-19)
(-0.0339116 0.0334765 3.95e-20)
(-0.0414665 0.0339844 5.10275e-20)
(-0.0487041 0.033572 1.02498e-19)
(-0.0554523 0.0325146 -4.98843e-20)
(-0.0615933 0.0310755 -4.33786e-20)
(-0.067064 0.0295083 8.26734e-20)
(-0.0718596 0.0280571 -8.50162e-20)
(-0.0760641 0.0269465 8.10797e-20)
(-0.0797882 0.0263497 -1.27472e-19)
(-0.0829194 0.0264411 8.29165e-20)
(-0.00198278 0.00718793 -6.92399e-21)
(-0.00660278 0.0180975 3.41261e-20)
(-0.0128497 0.0261461 1.70428e-19)
(-0.0198162 0.0318001 1.63123e-19)
(-0.0271702 0.0354081 6.6644e-20)
(-0.0345988 0.0373186 -2.06488e-20)
(-0.041826 0.0378691 -8.33336e-20)
(-0.0486343 0.0373798 3.77554e-20)
(-0.0548562 0.0361567 1.86017e-20)
(-0.0603742 0.0344938 -5.53961e-20)
(-0.0651226 0.0326779 -1.74686e-19)
(-0.0690929 0.0309904 -5.4336e-20)
(-0.0723757 0.0296967 1.46052e-19)
(-0.0750949 0.029012 2.17953e-20)
(-0.0770589 0.029162 -1.71999e-19)
(-0.00232606 0.00787151 -6.53555e-20)
(-0.00740884 0.0198356 -1.78615e-19)
(-0.0138886 0.0286746 -1.97784e-19)
(-0.0209092 0.034887 -1.20673e-19)
(-0.0281596 0.038849 8.5372e-20)
(-0.0353452 0.0409383 1.45512e-20)
(-0.0422052 0.0415213 3.29704e-20)
(-0.0485316 0.0409471 -3.14966e-20)
(-0.0541617 0.0395492 2.89547e-19)
(-0.0589778 0.0376508 9.62553e-20)
(-0.0629104 0.0355706 1.5902e-19)
(-0.0659453 0.0336285 2.19842e-19)
(-0.0681788 0.032136 -1.58597e-19)
(-0.0697552 0.0313585 2.48206e-19)
(-0.0703775 0.0315882 3.39115e-20)
(-0.00269512 0.00850747 6.55186e-20)
(-0.00827731 0.0214565 1.02318e-19)
(-0.0150096 0.0310361 8.74787e-20)
(-0.022088 0.0377716 -1.02625e-19)
(-0.0292229 0.0420634 8.36416e-20)
(-0.0361394 0.0443152 1.40311e-20)
(-0.0425918 0.0449198 -2.37838e-19)
(-0.0483827 0.0442516 2.11826e-19)
(-0.053354 0.0426694 -1.72136e-19)
(-0.0573872 0.0405226 -4.91028e-20)
(-0.0604076 0.0381606 -1.60672e-21)
(-0.0623925 0.0359428 1.31615e-19)
(-0.0634422 0.034232 1.68969e-19)
(-0.0637314 0.0333545 -1.46437e-19)
(-0.0628178 0.033688 3.16104e-20)
(-0.00308684 0.00909381 -1.18839e-19)
(-0.00920082 0.0229539 3.54548e-20)
(-0.0162028 0.0332205 -8.02907e-20)
(-0.023341 0.0404403 -6.88344e-21)
(-0.0303476 0.0450349 1.00072e-19)
(-0.036967 0.0474311 -1.23632e-19)
(-0.04297 0.048045 1.65115e-19)
(-0.0481698 0.0472733 -2.01551e-19)
(-0.0524128 0.0454969 -2.57768e-19)
(-0.0555789 0.0430884 7.5537e-20)
(-0.0575863 0.0404257 1.55991e-19)
(-0.0584004 0.0379081 -1.86651e-19)
(-0.0581222 0.0359552 1.59237e-19)
(-0.0569722 0.0349665 -2.75255e-19)
(-0.0543013 0.0354289 1.93145e-19)
(-0.00349809 0.00962918 3.15069e-19)
(-0.0101718 0.0243231 -2.04789e-19)
(-0.0174577 0.0352192 9.47454e-20)
(-0.0246557 0.0428812 1.38693e-19)
(-0.0315187 0.0477488 -1.61865e-19)
(-0.0378111 0.0502692 2.39083e-19)
(-0.0433201 0.050879 -3.37814e-20)
(-0.0478698 0.0499941 -2.99756e-19)
(-0.051311 0.0480139 8.60332e-20)
(-0.0535208 0.0453308 4.33099e-20)
(-0.0544082 0.0423479 -2.1695e-19)
(-0.0539226 0.0395038 1.81336e-19)
(-0.0521599 0.0372814 -5.83137e-19)
(-0.0494107 0.0361653 4.76504e-19)
(-0.0447237 0.0367789 -1.69527e-19)
(-0.00392578 0.0101129 -2.2439e-19)
(-0.0111825 0.0255606 3.45345e-20)
(-0.0187634 0.0370254 -1.81793e-19)
(-0.026018 0.045084 -1.57277e-19)
(-0.0327192 0.0501921 -1.67002e-19)
(-0.0386512 0.0528147 -2.6762e-19)
(-0.0436176 0.0534061 3.33405e-19)
(-0.0474533 0.0523985 4.04224e-19)
(-0.0500132 0.0502059 2.80666e-20)
(-0.0511702 0.0472364 -1.98953e-19)
(-0.0508219 0.0439142 1.37887e-20)
(-0.0488965 0.0407155 1.70031e-19)
(-0.0454758 0.0381932 -7.34685e-20)
(-0.0409617 0.0369295 -1.96382e-20)
(-0.0339599 0.0377258 2.54616e-19)
(-0.00436695 0.0105447 1.40006e-19)
(-0.012225 0.0266642 1.78661e-19)
(-0.0201079 0.0386339 5.50568e-20)
(-0.0274121 0.0470404 2.12343e-19)
(-0.0339294 0.0523536 9.00383e-20)
(-0.0394629 0.0550545 1.77698e-19)
(-0.0438325 0.0556125 -2.0403e-20)
(-0.0468836 0.0544731 -1.79844e-19)
(-0.0484744 0.0520613 8.56408e-20)
(-0.0484722 0.0487961 3.05998e-19)
(-0.0467602 0.0451176 1.08029e-19)
(-0.0432393 0.0415359 -1.34644e-19)
(-0.037962 0.0386776 2.54875e-19)
(-0.0314973 0.0372257 -1.70051e-19)
(-0.0218936 0.0383274 1.98859e-20)
(-0.00481876 0.0109249 -2.41967e-20)
(-0.0132915 0.0276326 -6.93043e-20)
(-0.0214789 0.0400406 1.70895e-19)
(-0.0288209 0.0487432 1.04333e-19)
(-0.0351268 0.0542237 2.10358e-19)
(-0.0402175 0.0569771 -1.14307e-19)
(-0.0439285 0.0574861 -2.54974e-19)
(-0.0461151 0.0562068 -1.16662e-19)
(-0.0466377 0.0535717 -1.64247e-19)
(-0.0453565 0.0500056 -3.68934e-19)
(-0.0421371 0.045958 -2.04355e-19)
(-0.0368475 0.0419667 -5.58742e-20)
(-0.0294884 0.0387229 -2.45974e-19)
(-0.0207839 0.0369619 -3.70449e-21)
(-0.00837999 0.0386272 1.31338e-19)
(-0.00527855 0.0112545 -1.01338e-19)
(-0.014374 0.0284656 -6.25081e-20)
(-0.022863 0.0412429 9.32409e-21)
(-0.0302254 0.0501871 -4.44662e-19)
(-0.0362857 0.055794 -4.19252e-19)
(-0.0408814 0.0585725 -1.63649e-19)
(-0.0438624 0.0590167 3.13407e-19)
(-0.0450927 0.057591 -1.50929e-19)
(-0.0444335 0.0547322 1.44361e-19)
(-0.0417359 0.0508661 1.96167e-19)
(-0.0368448 0.0464442 7.03795e-20)
(-0.0295945 0.0420224 -1.2975e-19)
(-0.0199441 0.0383469 1.44902e-19)
(-0.0086125 0.0362327 1.19622e-19)
(0.00698639 0.0384948 -1.7097e-19)
(-0.00574382 0.0115345 -2.62623e-20)
(-0.0154644 0.029164 8.25094e-20)
(-0.0242463 0.0422392 -2.40795e-19)
(-0.0316046 0.0513675 5.55647e-19)
(-0.0373769 0.0570579 3.9527e-19)
(-0.0414155 0.0598322 6.50908e-20)
(-0.0435829 0.0601955 -1.97668e-19)
(-0.0437501 0.0586189 7.92623e-20)
(-0.0417772 0.0555407 1.00914e-19)
(-0.0375033 0.0513832 -2.4859e-19)
(-0.0307492 0.0465931 2.97206e-19)
(-0.021308 0.0417342 1.16008e-19)
(-0.00910118 0.0376044 -1.91146e-19)
(0.00514504 0.0351519 1.328e-19)
(0.0245505 0.0378577 5.06618e-20)
(-0.00621225 0.0117663 4.16566e-20)
(-0.0165548 0.0297288 2.11869e-19)
(-0.0256138 0.0430289 -9.92759e-21)
(-0.0329354 0.0522814 -3.21995e-19)
(-0.0383675 0.0580096 -2.31775e-19)
(-0.0417748 0.060749 2.41206e-19)
(-0.0430305 0.0610153 3.3479e-19)
(-0.0420094 0.0592855 -4.96514e-20)
(-0.0385679 0.0559977 -1.46325e-19)
(-0.0325302 0.0515673 3.6963e-19)
(-0.0236891 0.0464289 -2.98217e-19)
(-0.011789 0.0411413 1.55888e-19)
(0.00330498 0.0365377 2.03576e-19)
(0.0207874 0.0336976 -6.2622e-19)
(0.0446293 0.036862 8.0074e-20)
(-0.00668169 0.0119515 1.17507e-19)
(-0.0176368 0.0301619 -9.46374e-20)
(-0.0269495 0.043612 -2.75083e-22)
(-0.0341922 0.0529264 7.13146e-20)
(-0.0392202 0.0586447 9.15073e-20)
(-0.0419081 0.0613171 -2.66377e-19)
(-0.042136 0.0614705 -1.27669e-19)
(-0.0397799 0.0595878 -2.59669e-19)
(-0.034688 0.0561062 -2.5242e-19)
(-0.0266654 0.0514323 2.17791e-19)
(-0.0154737 0.0459825 -2.42874e-19)
(-0.000803422 0.0402978 -2.85623e-20)
(0.01756 0.0352262 7.16137e-20)
(0.0386628 0.0319201 -3.02788e-20)
(0.0676304 0.0356263 2.53991e-19)
(-0.00715012 0.012092 -3.70642e-20)
(-0.0187019 0.0304652 -2.51426e-19)
(-0.028236 0.0439893 -2.1209e-19)
(-0.0353465 0.0533013 -4.42927e-20)
(-0.0398931 0.0589599 3.99534e-20)
(-0.0417567 0.061532 -7.70308e-21)
(-0.0408209 0.0615568 -4.83795e-20)
(-0.0369575 0.0595241 -3.72832e-20)
(-0.0300016 0.0558711 1.32012e-19)
(-0.0197346 0.0509952 -9.88641e-20)
(-0.0058825 0.0452912 2.85308e-19)
(0.0119212 0.03927 -3.07594e-19)
(0.0339909 0.0337736 -2.26448e-19)
(0.059153 0.0299327 1.58572e-19)
(0.0940204 0.0342878 -1.93757e-19)
(-0.00761558 0.0121894 -9.61112e-20)
(-0.0197412 0.0306411 3.11281e-20)
(-0.0294545 0.0441618 1.80609e-19)
(-0.036367 0.0534054 -9.34843e-20)
(-0.0403393 0.0589531 1.49133e-19)
(-0.0412549 0.0613907 -4.88349e-20)
(-0.0389958 0.0612717 -2.51667e-19)
(-0.0334239 0.0590947 3.28812e-19)
(-0.0243552 0.0552993 1.45187e-19)
(-0.0115404 0.0502755 -4.08499e-19)
(0.00533386 0.0443962 4.00713e-20)
(0.0266921 0.0381334 -8.42364e-21)
(0.0529648 0.032304 4.60308e-19)
(0.0826801 0.0278862 9.40056e-20)
(0.124289 0.033042 2.64888e-19)
(-0.00807616 0.0122453 4.21395e-21)
(-0.020745 0.0306915 2.15884e-19)
(-0.0305843 0.044131 -1.03159e-19)
(-0.0372186 0.0532392 1.42062e-19)
(-0.0405062 0.0586236 2.67637e-19)
(-0.0403287 0.0608921 3.40789e-19)
(-0.0365605 0.0606149 1.02412e-19)
(-0.0290471 0.0583025 -2.20778e-20)
(-0.017577 0.0543999 4.11643e-19)
(-0.00186352 0.0492947 4.59523e-19)
(0.0184504 0.0433412 4.15924e-20)
(0.0438459 0.0369691 4.40136e-19)
(0.0748773 0.0309567 -4.40779e-22)
(0.109699 0.025961 -3.79706e-19)
(0.158911 0.0321521 -2.59435e-19)
(-0.00852984 0.0122614 1.1666e-19)
(-0.0217029 0.0306188 2.36254e-19)
(-0.0316022 0.0438988 3.93802e-20)
(-0.0378622 0.0528038 2.73083e-19)
(-0.0403351 0.0579722 -3.26297e-19)
(-0.0388954 0.0600376 -4.24652e-20)
(-0.0334036 0.0595895 -6.92442e-20)
(-0.0236802 0.0571535 4.9464e-19)
(-0.00947795 0.0531855 -6.73933e-19)
(0.00953509 0.0480773 -4.57003e-19)
(0.0337635 0.0421716 1.7309e-19)
(0.063741 0.0358602 -2.17514e-19)
(0.100135 0.0298792 -5.87857e-20)
(0.140682 0.0243632 1.78354e-19)
(0.198297 0.0319485 6.38993e-19)
(-0.00897443 0.012239 1.10567e-19)
(-0.0226034 0.0304246 -4.30938e-19)
(-0.0324828 0.043467 9.37624e-20)
(-0.0382543 0.0521013 -4.20895e-19)
(-0.0397605 0.0570023 2.10571e-19)
(-0.0368631 0.0588317 -1.40016e-19)
(-0.0294015 0.0582022 -1.52092e-19)
(-0.017162 0.055659 -3.65861e-19)
(0.000147354 0.051674 1.3041e-19)
(0.0229118 0.0466517 1.86487e-19)
(0.051585 0.0409346 -1.02793e-20)
(0.0867464 0.034889 1.7922e-19)
(0.129138 0.0292166 -9.37154e-20)
(0.1761 0.023317 -3.36525e-20)
(0.242709 0.0328147 -4.46287e-20)
(-0.00940741 0.012179 -4.8562e-19)
(-0.0234332 0.0301104 1.9787e-20)
(-0.0331972 0.042838 -3.94436e-20)
(-0.038346 0.0511356 6.95398e-20)
(-0.0387095 0.0557192 -3.15517e-19)
(-0.0341303 0.0572825 3.81831e-19)
(-0.0244183 0.0564655 -1.1174e-20)
(-0.00931724 0.0538368 -4.67171e-19)
(0.0115196 0.0498906 -4.30127e-19)
(0.0385366 0.0450537 -3.6694e-19)
(0.0722348 0.0396817 -1.66102e-19)
(0.11323 0.034137 -1.05497e-19)
(0.162249 0.0291002 -3.52954e-19)
(0.216401 0.0230599 -2.39176e-19)
(0.29218 0.0351483 2.88926e-19)
(-0.00982576 0.012082 2.77485e-19)
(-0.0241775 0.0296773 2.20452e-19)
(-0.0337131 0.0420143 2.5945e-19)
(-0.0380834 0.0499117 -7.70851e-20)
(-0.0371012 0.0541312 1.38766e-19)
(-0.0305847 0.0554034 -1.91945e-19)
(-0.018306 0.0543988 9.76369e-20)
(4.35869e-05 0.0517136 6.04362e-19)
(0.0248728 0.0478711 2.2916e-19)
(0.0566887 0.0433297 4.87891e-19)
(0.0960318 0.0384722 1.84155e-19)
(0.143541 0.0336885 -3.35092e-20)
(0.199777 0.0296379 3.15819e-19)
(0.261986 0.0238444 -3.33957e-19)
(0.346412 0.0392973 -3.81423e-19)
(-0.0102258 0.0119482 -2.43761e-19)
(-0.0248186 0.0291256 -3.92623e-19)
(-0.0339939 0.0409991 8.20977e-20)
(-0.0374055 0.0484362 -1.55103e-19)
(-0.0348463 0.0522503 1.84073e-19)
(-0.0261037 0.0532133 -3.83458e-19)
(-0.0109037 0.0520294 1.10855e-19)
(0.0111225 0.0493273 -1.71126e-19)
(0.0404513 0.0456648 -1.6268e-19)
(0.0776509 0.041541 -2.19572e-19)
(0.123284 0.0373785 -3.74483e-19)
(0.177994 0.0336358 3.76425e-20)
(0.241943 0.0309081 3.26218e-19)
(0.313146 0.0259786 2.62429e-19)
(0.404621 0.0455652 1.82601e-19)
(-0.0106031 0.0117771 1.78714e-19)
(-0.0253367 0.0284556 -2.81509e-20)
(-0.0339981 0.0397955 1.30735e-19)
(-0.0362451 0.0467174 4.17333e-19)
(-0.0318468 0.0500927 -4.50966e-19)
(-0.0205539 0.0507378 4.01553e-19)
(-0.00203918 0.0493946 -3.76747e-19)
(0.0241322 0.0467283 6.10767e-20)
(0.0585056 0.0433367 1.62147e-19)
(0.101702 0.0397662 1.45228e-20)
(0.154277 0.0364886 2.49382e-19)
(0.21685 0.0340789 2.61025e-19)
(0.28889 0.032953 -1.80033e-19)
(0.369984 0.0299309 -4.28516e-19)
(0.465298 0.054333 6.20154e-19)
(-0.010952 0.0115679 -1.10319e-19)
(-0.0257091 0.027667 2.82578e-19)
(-0.0336791 0.038407 -1.73e-19)
(-0.0345276 0.0447662 -1.17262e-19)
(-0.0279955 0.0476788 2.38918e-19)
(-0.0137916 0.0480096 -4.79801e-20)
(0.00846998 0.0465421 1.47341e-19)
(0.0392929 0.0439817 8.69923e-19)
(0.0792856 0.0409695 1.13085e-19)
(0.129102 0.0381031 5.79926e-20)
(0.189254 0.0359054 -1.07088e-19)
(0.260292 0.0351087 -1.5635e-19)
(0.340747 0.0357643 -1.28538e-19)
(0.432518 0.0363325 1.76745e-19)
(0.526484 0.0654734 -9.43759e-19)
(-0.0112655 0.0113192 3.47069e-19)
(-0.025909 0.0267586 2.98022e-19)
(-0.0329854 0.0368379 9.79414e-20)
(-0.0321711 0.0425959 -2.27797e-20)
(-0.0231767 0.0450339 1.46e-19)
(-0.00566419 0.0450695 -1.11537e-19)
(0.0208139 0.0435307 -6.82492e-20)
(0.0568269 0.0411669 -1.06265e-19)
(0.103031 0.0386639 -4.84029e-19)
(0.160081 0.0366686 1.15495e-19)
(0.22838 0.035744 4.53388e-20)
(0.308356 0.0367881 4.97706e-20)
(0.397569 0.0392909 3.77303e-19)
(0.500784 0.0454299 -2.42921e-20)
(0.588387 0.0754558 1.65909e-19)
(-0.0115353 0.0110289 -5.4896e-19)
(-0.0259063 0.0257292 -2.12304e-19)
(-0.0318594 0.0350939 -5.48947e-20)
(-0.029087 0.0402225 -4.62178e-21)
(-0.0172667 0.0421886 -2.53239e-19)
(0.00398858 0.0419659 1.15218e-19)
(0.0351869 0.040431 1.11283e-20)
(0.0769525 0.0383788 3.36993e-19)
(0.12996 0.0365391 -1.25855e-19)
(0.194811 0.0356005 -1.1571e-19)
(0.271713 0.0361386 -1.57163e-20)
(0.360835 0.0391754 -1.00899e-20)
(0.458924 0.0435083 -3.49508e-19)
(0.573382 0.0559277 9.00685e-20)
(0.657472 0.0767879 -2.3695e-19)
(-0.0117512 0.0106947 4.0061e-19)
(-0.0256664 0.0245776 1.21842e-19)
(-0.0302379 0.0331814 -2.47767e-19)
(-0.0251794 0.0376651 1.15336e-19)
(-0.0101349 0.0391787 -4.50246e-19)
(0.0153317 0.038756 8.85757e-20)
(0.0517825 0.0373246 1.54383e-19)
(0.0998753 0.0357262 -3.5099e-19)
(0.160259 0.0347311 4.71001e-19)
(0.233398 0.0350556 2.72325e-19)
(0.319187 0.037253 1.81676e-19)
(0.417323 0.0423907 5.21851e-20)
(0.52379 0.0484968 -5.94281e-21)
(0.645403 0.0644158 -9.30664e-20)
(0.737015 0.0730783 4.19933e-19)
(-0.0119014 0.0103142 -4.5112e-19)
(-0.0251508 0.0233027 -4.01716e-19)
(-0.0280522 0.0311083 3.709e-20)
(-0.0203467 0.0349461 1.16601e-19)
(-0.0016459 0.0360459 4.20448e-19)
(0.0285317 0.0355047 -1.38583e-19)
(0.0707877 0.0343034 -5.38397e-19)
(0.125779 0.0333303 -4.17817e-19)
(0.194064 0.0333883 -2.61386e-19)
(0.275863 0.0352032 -4.87819e-19)
(0.370608 0.0392674 1.90917e-19)
(0.477271 0.046596 1.07909e-19)
(0.59111 0.0545945 9.94182e-20)
(0.71667 0.072531 2.28469e-19)
(0.813734 0.0771333 1.21007e-19)
(-0.0119725 0.00988434 3.0091e-19)
(-0.0243169 0.021904 2.70631e-19)
(-0.0252282 0.0288848 1.10633e-19)
(-0.0144822 0.0320916 -3.22967e-19)
(0.00833891 0.0328373 -2.10034e-19)
(0.0437526 0.0322848 1.53098e-19)
(0.092376 0.0314689 2.0727e-19)
(0.154816 0.0313212 4.06926e-19)
(0.231451 0.032666 1.22341e-19)
(0.322125 0.0362123 7.1226e-20)
(0.425638 0.0423518 -4.23561e-19)
(0.540007 0.0519444 -3.1287e-19)
(0.659742 0.0620119 5.01461e-20)
(0.786698 0.0812213 -1.03331e-19)
(0.885838 0.0852804 2.56915e-19)
(-0.0119489 0.00940263 8.92933e-20)
(-0.0231184 0.0203823 -1.97523e-19)
(-0.0216874 0.0265234 -1.94229e-19)
(-0.00747555 0.0291321 3.82493e-20)
(0.0199581 0.0296066 1.7307e-19)
(0.0611509 0.0291767 3.09729e-19)
(0.116699 0.0289302 -1.8209e-19)
(0.187093 0.0298348 1.83633e-19)
(0.272418 0.0327186 7.61477e-20)
(0.371986 0.038239 -3.95369e-19)
(0.483791 0.0466417 7.93439e-20)
(0.604714 0.0585282 4.20432e-20)
(0.7285 0.0707291 -1.24515e-19)
(0.854478 0.0906834 -2.16836e-19)
(0.953046 0.0954105 -4.81091e-19)
(-0.0118135 0.00886677 5.55686e-20)
(-0.0215051 0.0187399 -7.57194e-20)
(-0.0173476 0.02404 1.92374e-19)
(0.000785525 0.0261031 -1.71135e-19)
(0.0333473 0.0264134 3.0942e-20)
(0.0808703 0.0262677 -8.05406e-20)
(0.14388 0.0268023 -1.03435e-19)
(0.222659 0.0290089 6.08294e-20)
(0.31687 0.0336928 2.33053e-20)
(0.42512 0.0414153 3.67176e-19)
(0.544426 0.0522231 1.56124e-19)
(0.670436 0.0663654 1.75614e-19)
(0.79617 0.080601 4.75246e-19)
(0.918926 0.100883 -1.41123e-19)
(1.01442 0.106637 2.65655e-19)
(-0.0115473 0.00827514 -1.68162e-19)
(-0.0194236 0.0169813 3.62104e-19)
(-0.0121236 0.0214541 1.02609e-19)
(0.0104131 0.0230451 4.55789e-19)
(0.0486355 0.0233241 1.06915e-19)
(0.103036 0.0236518 -3.85601e-19)
(0.174001 0.0252046 1.67011e-19)
(0.261498 0.0289787 3.73841e-19)
(0.364612 0.0357208 -3.40982e-19)
(0.481066 0.0458398 -8.6426e-20)
(0.606766 0.0591248 -6.92839e-21)
(0.736124 0.0754007 -1.96943e-19)
(0.861578 0.0914167 -2.72707e-19)
(0.979059 0.111659 2.61866e-19)
(1.06932 0.118334 9.86897e-20)
(-0.0111298 0.00762705 -5.73029e-20)
(-0.0168181 0.0151141 -2.01971e-19)
(-0.0059291 0.0187902 2.86379e-19)
(0.0215169 0.0200051 -2.01322e-19)
(0.065941 0.0204117 5.01908e-20)
(0.127747 0.0214286 -4.47916e-21)
(0.207099 0.0242581 2.35099e-19)
(0.303515 0.0298728 -2.97372e-19)
(0.415337 0.0389133 7.98456e-19)
(0.539238 0.051571 1.67462e-19)
(0.669929 0.0673166 -1.56677e-19)
(0.800702 0.0855113 1.36324e-20)
(0.923659 0.102929 -4.42829e-20)
(1.0341 0.122778 5.49295e-20)
(1.11743 0.130032 -3.74725e-19)
(-0.0105394 0.00692304 3.62713e-20)
(-0.0136307 0.0131492 -2.372e-19)
(0.00132256 0.0160777 -2.22284e-19)
(0.0342017 0.0170367 -1.36367e-19)
(0.0853677 0.0177562 -2.37199e-19)
(0.155073 0.0197028 -1.18526e-19)
(0.243154 0.0240833 -3.41259e-19)
(0.348532 0.0318082 1.19261e-19)
(0.46863 0.0433536 -5.62936e-19)
(0.598938 0.058622 -1.10523e-19)
(0.732973 0.0767124 -4.15177e-19)
(0.863132 0.0965211 3.01091e-19)
(0.981532 0.114879 2.41893e-19)
(1.08354 0.133997 -3.2889e-22)
(1.15874 0.141401 5.97033e-19)
(-0.00975311 0.00616515 2.89012e-20)
(-0.00980249 0.0111017 2.38593e-19)
(0.0097163 0.0133524 3.51433e-19)
(0.0485643 0.0142003 4.58662e-20)
(0.107 0.0154442 -1.7248e-19)
(0.185047 0.0185826 1.52201e-19)
(0.282088 0.0247969 1.59409e-20)
(0.396283 0.0348859 -1.63811e-19)
(0.523975 0.0490926 -1.37618e-19)
(0.65939 0.0669598 -1.37041e-19)
(0.794947 0.0871782 3.48521e-19)
(0.922485 0.10822 2.31269e-19)
(1.03454 0.127021 -2.77159e-19)
(1.12713 0.145092 2.09138e-19)
(1.19351 0.152224 2.12045e-20)
(-0.0087474 0.00535715 7.53708e-20)
(-0.00527439 0.00899122 -5.22067e-19)
(0.0193337 0.0106564 -3.66444e-19)
(0.0646909 0.0115639 -2.11526e-20)
(0.130899 0.0135685 7.99432e-20)
(0.217657 0.0181779 2.02953e-19)
(0.323751 0.0265084 -7.08093e-20)
(0.446414 0.0391858 1.34588e-19)
(0.580768 0.0561449 3.32473e-19)
(0.719772 0.0765064 1.19856e-19)
(0.854951 0.0985441 1.27693e-19)
(0.977993 0.120384 -5.4746e-20)
(1.08225 0.139136 -1.46656e-19)
(1.16485 0.155885 -4.85916e-19)
(1.22219 0.162382 -2.61316e-20)
(-0.00749813 0.00450476 -2.78945e-19)
(1.18041e-05 0.00684254 5.70643e-19)
(0.0302511 0.00803889 -1.07257e-19)
(0.0826539 0.00920278 -3.3996e-20)
(0.157098 0.0122272 -1.16634e-19)
(0.252844 0.0185983 -2.21563e-19)
(0.36793 0.0293162 1.54379e-19)
(0.498492 0.0447626 -2.81484e-19)
(0.638343 0.0644876 -1.12987e-19)
(0.77926 0.0871456 -8.1364e-20)
(0.912178 0.110619 -2.59101e-19)
(1.02908 0.132797 5.67035e-20)
(1.12449 0.151042 1.84988e-19)
(1.19692 0.166247 2.57605e-20)
(1.24538 0.171829 -3.93682e-19)
(-0.00598105 0.00361584 7.36394e-20)
(0.00611228 0.00468575 3.78229e-20)
(0.0425373 0.00555607 7.02547e-19)
(0.102509 0.00719923 3.10107e-19)
(0.185599 0.0115223 1.34649e-19)
(0.290501 0.0199499 2.28709e-20)
(0.414338 0.0333038 -4.06801e-19)
(0.552012 0.0516425 4.60164e-19)
(0.695998 0.0740612 2.51454e-20)
(0.837071 0.098731 1.05953e-19)
(0.965959 0.123205 -9.65079e-20)
(1.07537 0.145265 -3.00384e-19)
(1.16129 0.162604 -4.5028e-19)
(1.22369 0.176103 5.98525e-19)
(1.26373 0.180577 8.32926e-20)
(-0.00417214 0.0027005 -4.28873e-21)
(0.01308 0.00255652 -2.74482e-19)
(0.0562517 0.00327116 -2.63252e-19)
(0.12429 0.00564162 -2.19611e-19)
(0.216366 0.0115576 1.4966e-19)
(0.330462 0.0223322 -9.26467e-20)
(0.462628 0.0385359 2.96703e-19)
(0.606417 0.0598212 -2.32388e-19)
(0.753024 0.0847738 8.27555e-20)
(0.892498 0.111098 -1.74681e-19)
(1.01578 0.136111 3.81603e-20)
(1.11669 0.157622 -1.27846e-19)
(1.19282 0.17373 1.21728e-19)
(1.24563 0.18542 -3.44042e-19)
(1.2779 0.188673 -1.26063e-19)
(-0.00204802 0.0017712 -3.93051e-19)
(0.0209635 0.000496085 3.49902e-19)
(0.0714418 0.001254 -4.27302e-20)
(0.14801 0.0046234 1.56921e-19)
(0.249326 0.0124371 -2.47644e-19)
(0.372513 0.0258351 2.19611e-19)
(0.512392 0.045055 -2.52446e-19)
(0.661118 0.0692641 -1.50213e-19)
(0.808743 0.0965073 4.49206e-20)
(0.944945 0.124074 -1.37054e-19)
(1.0613 0.149163 -1.99393e-19)
(1.15303 0.169742 5.59253e-19)
(1.21942 0.184368 -6.89949e-20)
(1.26325 0.194203 3.69615e-19)
(1.28853 0.196191 -8.58116e-20)
(0.000413647 0.000842781 7.35368e-20)
(0.0298053 -0.00144889 -5.70431e-20)
(0.0881411 -0.000419566 -3.47431e-19)
(0.173653 0.0042415 -4.96597e-20)
(0.284367 0.0142612 4.28659e-19)
(0.416385 0.0305349 -3.00392e-19)
(0.56318 0.0528794 4.43262e-19)
(0.715515 0.0799087 -2.27024e-19)
(0.862533 0.109125 2.80418e-19)
(0.993939 0.13749 2.15761e-19)
(1.10233 0.162214 -1.42439e-19)
(1.18453 0.181534 -2.15879e-19)
(1.24148 0.194501 2.45724e-19)
(1.27709 0.202482 -2.71013e-19)
(1.29621 0.203215 -1.45693e-19)
(0.00323365 -6.7536e-05 2.71256e-19)
(0.039641 -0.00322657 -4.37307e-20)
(0.106367 -0.00166866 1.89071e-19)
(0.201178 0.00459444 -2.29982e-19)
(0.321332 0.0171249 -5.26637e-19)
(0.461763 0.0364915 7.73227e-20)
(0.614505 0.0620025 -1.21818e-19)
(0.769022 0.0916681 4.10224e-19)
(0.913852 0.122483 -1.35003e-19)
(1.03914 0.15119 5.69506e-21)
(1.13883 0.175144 1.88337e-19)
(1.21145 0.192943 1.5672e-19)
(1.25945 0.204139 -3.74816e-19)
(1.28767 0.210306 2.23348e-19)
(1.30147 0.209831 2.63357e-19)
(0.00643074 -0.000940203 -1.17568e-19)
(0.0504972 -0.00478045 -5.81216e-20)
(0.126119 -0.00240856 -1.78409e-19)
(0.230512 0.00578014 1.18403e-19)
(0.360026 0.021114 2.41717e-19)
(0.508291 0.0437459 -2.49697e-20)
(0.66587 0.0723927 2.26119e-19)
(0.821092 0.104437 -2.33341e-19)
(0.962255 0.136432 2.49992e-19)
(1.08035 0.165035 -2.6777e-19)
(1.17088 0.187863 2.96818e-19)
(1.23411 0.203941 -2.81069e-19)
(1.27379 0.213314 -9.72024e-20)
(1.29547 0.217736 1.04643e-19)
(1.30474 0.216125 3.5403e-20)
(0.0100212 -0.00175346 8.97841e-20)
(0.062391 -0.00604998 -1.03637e-20)
(0.147376 -0.00255208 -2.33475e-19)
(0.26155 0.00789363 1.76972e-19)
(0.400215 0.0263027 7.21219e-20)
(0.555585 0.0523185 6.98839e-20)
(0.716775 0.0839963 -7.2882e-20)
(0.87123 0.118097 -5.13945e-20)
(1.0074 0.150831 -4.36063e-19)
(1.11746 0.178909 2.6876e-19)
(1.19866 0.20031 -1.73839e-19)
(1.25287 0.214526 -3.6688e-20)
(1.28497 0.222069 5.90345e-19)
(1.30094 0.224835 -4.62649e-19)
(1.30639 0.222172 -3.24662e-19)
(0.014018 -0.00248352 -1.57436e-20)
(0.0753281 -0.00697129 1.34849e-19)
(0.170097 -0.00201126 2.22831e-19)
(0.294158 0.0110245 -2.90937e-20)
(0.441631 0.0327512 -1.63725e-19)
(0.603236 0.062209 1.68895e-19)
(0.766743 0.0967399 -1.73526e-19)
(0.919012 0.132524 -9.78229e-20)
(1.04905 0.165552 2.88459e-19)
(1.1505 0.192716 2.03759e-19)
(1.22241 0.212446 3.5441e-20)
(1.26812 0.224715 1.48798e-19)
(1.2934 0.230457 -3.08312e-19)
(1.30445 0.231666 2.00668e-19)
(1.30675 0.22804 3.66466e-19)
(0.0184309 -0.00310475 -5.51004e-20)
(0.0893021 -0.00747818 -3.71574e-19)
(0.194218 -0.000699064 -2.34542e-19)
(0.328172 0.0152548 -2.35191e-19)
(0.483977 0.0405033 -1.58433e-19)
(0.650833 0.0733958 8.1979e-20)
(0.815325 0.110535 3.03014e-19)
(0.96409 0.147594 -1.02116e-19)
(1.08706 0.180477 1.76189e-19)
(1.17957 0.206387 -2.95655e-20)
(1.24242 0.224257 4.70927e-20)
(1.28025 0.234536 -8.19776e-20)
(1.29948 0.238533 3.26205e-20)
(1.30635 0.238289 -4.80526e-20)
(1.30605 0.233787 -1.32735e-19)
(0.0232653 -0.00358999 8.84966e-20)
(0.104293 -0.00750314 3.93186e-19)
(0.219653 0.00146874 -8.13699e-20)
(0.363398 0.0206562 1.89508e-19)
(0.526935 0.0495857 3.70531e-20)
(0.697963 0.0858388 2.81265e-20)
(0.86212 0.125283 -1.4586e-19)
(1.0062 0.163186 1.69945e-19)
(1.12138 0.19551 -2.53575e-19)
(1.20483 0.21987 -1.35954e-19)
(1.25899 0.235742 -4.6291e-20)
(1.28963 0.244029 -3.32336e-20)
(1.30355 0.246352 -1.25398e-19)
(1.3069 0.244755 -1.81279e-20)
(1.30449 0.239458 6.3318e-20)
(0.0285221 -0.00391091 -2.79685e-20)
(0.120268 -0.0069785 1.776e-20)
(0.246294 0.00457171 2.24234e-19)
(0.399619 0.0272888 2.16887e-19)
(0.570171 0.0600068 8.99783e-20)
(0.744233 0.0994806 -1.58097e-19)
(0.90678 0.140879 5.18822e-20)
(1.04514 0.179187 1.35741e-19)
(1.15204 0.210566 -2.06881e-20)
(1.22648 0.233132 2.55374e-20)
(1.27246 0.246913 5.37274e-20)
(1.29659 0.253233 1.54523e-20)
(1.30591 0.253964 -1.22962e-19)
(1.30632 0.251112 -4.8002e-21)
(1.30222 0.245089 1.41337e-19)
(0.0341974 -0.00403836 1.83247e-20)
(0.137179 -0.0058377 -7.53821e-20)
(0.274011 0.00868288 -1.28161e-19)
(0.436596 0.0351988 -2.57133e-19)
(0.613346 0.071757 -2.74183e-20)
(0.789271 0.11425 1.23727e-19)
(0.949015 0.157214 -6.41629e-20)
(1.08081 0.195495 -1.67649e-19)
(1.17911 0.225581 -1.56418e-19)
(1.24477 0.246155 7.33762e-20)
(1.28313 0.257794 -4.06626e-20)
(1.30146 0.262193 -1.94543e-19)
(1.30683 0.261416 1.9068e-19)
(1.30481 0.257396 1.94354e-19)
(1.29935 0.250708 -9.65063e-20)
(0.0402817 -0.00394288 8.06151e-21)
(0.154963 -0.00401658 -1.48754e-19)
(0.302655 0.013867 6.47953e-20)
(0.474073 0.0444176 1.2256e-19)