/*--------------------------------*- C++ -*----------------------------------*\
  =========                 |
  \\      /  F ield         | OpenFOAM: The Open Source CFD Toolbox
   \\    /   O peration     | Website:  https://openfoam.org
    \\  /    A nd           | Version:  7
     \\/     M anipulation  |
\*---------------------------------------------------------------------------*/
FoamFile
{
    version     2.0;
    format      ascii;
    class       surfaceScalarField;
    location    "80";
    object      phi;
}
// * * * * * * * * * * * * * * * * * * * * * * * * * * * * * * * * * * * * * //

dimensions      [0 3 -1 0 0 0 0];

internalField   nonuniform List<scalar> 
8878
(
-0.00404934
-0.000192857
-0.000195723
-0.00390523
-0.00401772
-0.000227347
-0.000164468
-0.0036637
-0.000195853
-0.0037653
-0.000228218
-0.00387286
-0.00398446
-0.000261481
-0.000161541
-0.00353787
-0.000193375
-0.00363187
-0.000226357
-0.00373232
-0.000260351
-0.00383887
-0.00394956
-0.000295245
-0.000156441
-0.00341903
-0.000188543
-0.00350576
-0.000221914
-0.0035985
-0.000256485
-0.00369775
-0.000292106
-0.00380325
-0.00391304
-0.000328627
-0.000149322
-0.00330648
-0.000181603
-0.00338675
-0.00021518
-0.00347219
-0.000250074
-0.0035636
-0.000286225
-0.0036616
-0.00032347
-0.003766
-0.0038749
-0.000361615
-0.00014027
-0.00319923
-0.0001727
-0.00327405
-0.000206411
-0.00335304
-0.000241445
-0.00343715
-0.000277845
-0.0035272
-0.000315564
-0.00362388
-0.000354428
-0.00372714
-0.00383513
-0.000394195
-0.000129359
-0.00309604
-0.000161901
-0.00316669
-0.000195737
-0.00324022
-0.00023086
-0.00331792
-0.000267331
-0.00340068
-0.000305216
-0.00348932
-0.000344488
-0.0035846
-0.000384967
-0.00368666
-0.00379374
-0.000426352
-0.000116715
-0.00299503
-0.000149263
-0.00306349
-0.000183203
-0.00313275
-0.000218427
-0.00320499
-0.000254944
-0.0032814
-0.000292832
-0.00336279
-0.000332178
-0.00344997
-0.000372983
-0.0035438
-0.000415069
-0.00364457
-0.00375074
-0.000458071
-0.000102562
-0.0028931
-0.000134897
-0.00296269
-0.000168852
-0.00302953
-0.000204172
-0.00309743
-0.000240769
-0.0031684
-0.000278662
-0.00324351
-0.000317943
-0.00332351
-0.000358724
-0.00340919
-0.000401038
-0.00350149
-0.00044472
-0.00360089
-0.00370612
-0.000489336
-8.7258e-05
-0.00278515
-0.000119008
-0.00286135
-0.00015278
-0.00292892
-0.000188122
-0.00299419
-0.000224806
-0.00306074
-0.000262759
-0.00313044
-0.000302009
-0.00320426
-0.00034266
-0.00328286
-0.000384846
-0.00336701
-0.00042864
-0.00345769
-0.000473903
-0.00355563
-0.0036599
-0.00052013
-7.13263e-05
-0.00266341
-0.000101938
-0.00275454
-0.000135178
-0.00282811
-0.00017036
-0.00289374
-0.00020707
-0.00295748
-0.000245102
-0.00302271
-0.000284395
-0.00309115
-0.000324985
-0.00316367
-0.000366982
-0.00324086
-0.000410541
-0.00332345
-0.000455779
-0.00341245
-0.000502604
-0.0035088
-0.00361206
-0.000550437
-5.54537e-05
-0.00251698
-8.41856e-05
-0.00263468
-0.000116367
-0.00272236
-0.000151066
-0.00279341
-0.000187635
-0.00285717
-0.000225693
-0.00291942
-0.000265056
-0.00298335
-0.000305675
-0.00305053
-0.000347588
-0.00312176
-0.000390909
-0.00319754
-0.000435808
-0.00327855
-0.00048245
-0.00336581
-0.000530809
-0.00346045
-0.00356263
-0.000580242
-4.04504e-05
-0.00233205
-6.64247e-05
-0.00249101
-9.68272e-05
-0.00260428
-0.00013054
-0.00268865
-0.000166668
-0.00275728
-0.0002046
-0.00281924
-0.000243987
-0.00288004
-0.000284666
-0.00294267
-0.000326597
-0.0030086
-0.000369819
-0.00307854
-0.000414443
-0.00315292
-0.00046065
-0.00323234
-0.000508649
-0.00331781
-0.00055851
-0.00341059
-0.00351161
-0.000609535
-4.94648e-05
-0.00230974
-7.72163e-05
-0.00246326
-0.000109246
-0.00257225
-0.000144454
-0.00265344
-0.00018198
-0.00271975
-0.000221253
-0.00277997
-0.000261951
-0.00283934
-0.00030393
-0.00290069
-0.00034716
-0.00296537
-0.000391678
-0.00303402
-0.00043759
-0.00310701
-0.000485074
-0.00318486
-0.000534384
-0.0032685
-0.000585705
-0.00335926
-0.00345901
-0.000638305
-3.41658e-05
-0.00207511
-5.83412e-05
-0.00228556
-8.78223e-05
-0.00243377
-0.000121436
-0.00253864
-0.000158103
-0.00261677
-0.000197
-0.00268086
-0.00023759
-0.00273938
-0.00027958
-0.00279735
-0.000322844
-0.00285742
-0.00036736
-0.00292086
-0.000413166
-0.00298821
-0.000460354
-0.00305982
-0.000509092
-0.00313612
-0.000559668
-0.00321793
-0.000612406
-0.00330653
-0.00340486
-0.000666556
-2.1303e-05
-0.00177141
-4.1084e-05
-0.00205533
-6.70732e-05
-0.00225957
-9.8237e-05
-0.00240261
-0.000133393
-0.00250348
-0.000171485
-0.00257868
-0.000211724
-0.00264062
-0.000253608
-0.00269749
-0.000296871
-0.00275409
-0.000341405
-0.00281289
-0.000387196
-0.00287506
-0.00043428
-0.00294113
-0.00048274
-0.00301136
-0.000532719
-0.00308614
-0.000584528
-0.00316612
-0.000638643
-0.00325241
-0.00334915
-0.000694352
-2.62772e-05
-0.00175655
-4.78993e-05
-0.00203371
-7.56546e-05
-0.00223182
-0.000108455
-0.00236981
-0.000145113
-0.00246682
-0.000184596
-0.0025392
-0.000226149
-0.00259906
-0.000269304
-0.00265434
-0.00031382
-0.00270957
-0.000359608
-0.0027671
-0.000406661
-0.00282801
-0.000455019
-0.00289277
-0.00050475
-0.00296163
-0.000555972
-0.00303492
-0.000608999
-0.00311309
-0.000664473
-0.00319694
-0.00329185
-0.000721773
-1.45596e-05
-0.00137572
-3.11864e-05
-0.00173992
-5.46056e-05
-0.00201029
-8.40801e-05
-0.00220234
-0.000118473
-0.00233542
-0.000156592
-0.0024287
-0.000197432
-0.00249836
-0.000240271
-0.00255623
-0.000284674
-0.00260993
-0.000330424
-0.00266382
-0.000377447
-0.00272008
-0.00042575
-0.00277971
-0.000475375
-0.00284314
-0.000526384
-0.00291062
-0.000578871
-0.00298243
-0.000633138
-0.00305883
-0.000689914
-0.00314016
-0.00323292
-0.000748838
-6.27129e-06
-0.000904462
-1.76714e-05
-0.00136432
-3.60257e-05
-0.00172157
-6.11976e-05
-0.00198511
-9.23446e-05
-0.00217119
-0.000128285
-0.00229948
-0.000167827
-0.00238916
-0.00020999
-0.00245619
-0.000254088
-0.00251213
-0.000299715
-0.00256431
-0.000346677
-0.00261686
-0.000394917
-0.00267184
-0.000444452
-0.00273017
-0.000495335
-0.00279226
-0.000547631
-0.00285832
-0.000601436
-0.00292862
-0.000657038
-0.00300322
-0.000714989
-0.00308221
-0.00317207
-0.000775845
-7.83716e-06
-0.000898068
-2.07454e-05
-0.00135142
-4.07902e-05
-0.00170152
-6.76705e-05
-0.00195823
-0.000100444
-0.00213842
-0.000137888
-0.00226203
-0.000178815
-0.00234823
-0.000222269
-0.00241274
-0.000267598
-0.0024668
-0.000314423
-0.00251748
-0.000362575
-0.00256871
-0.00041201
-0.0026224
-0.000462757
-0.00267943
-0.000514879
-0.00274014
-0.000568458
-0.00280474
-0.000623634
-0.00287345
-0.000680743
-0.00294611
-0.000740506
-0.00302245
-0.00311062
-0.00080195
-1.89918e-06
-0.000338963
-9.38445e-06
-0.000890582
-2.37729e-05
-0.00133703
-4.54697e-05
-0.00167983
-7.40136e-05
-0.00192969
-0.000108367
-0.00210407
-0.000147272
-0.00222313
-0.000189546
-0.00230596
-0.000234259
-0.00236803
-0.00028079
-0.00242027
-0.00032879
-0.00246948
-0.000378108
-0.00251939
-0.000428714
-0.0025718
-0.000480647
-0.0026275
-0.000533979
-0.00268681
-0.000588813
-0.00274991
-0.000645344
-0.00281692
-0.000703757
-0.0028877
-0.000763366
-0.00296284
-0.00304429
-0.000829699
-2.35492e-06
-0.000336608
-1.09181e-05
-0.000882019
-2.67603e-05
-0.00132119
-5.00716e-05
-0.00165652
-8.0235e-05
-0.00189953
-0.000116124
-0.00206818
-0.000156448
-0.00218281
-0.000200031
-0.00226238
-0.00024597
-0.00232209
-0.000293676
-0.00237256
-0.000342825
-0.00242033
-0.000393283
-0.00246893
-0.000445035
-0.00252005
-0.000498125
-0.00257441
-0.000552632
-0.0026323
-0.000608666
-0.00269388
-0.0006664
-0.00275918
-0.000725924
-0.00282818
-0.000787331
-0.00290143
-0.00297874
-0.000852877
-2.80674e-06
-0.000333801
-1.24322e-05
-0.000872394
-2.96995e-05
-0.00130392
-5.45863e-05
-0.00163163
-8.63249e-05
-0.00186779
-0.000123704
-0.0020308
-0.000165405
-0.0021411
-0.000210261
-0.00221752
-0.000257395
-0.00227495
-0.000306247
-0.00232371
-0.000356518
-0.00237006
-0.000408092
-0.00241736
-0.000460963
-0.00246718
-0.000515181
-0.00252019
-0.000570828
-0.00257665
-0.000628013
-0.00263669
-0.000686878
-0.00270032
-0.000747515
-0.00276754
-0.000810196
-0.00283875
-0.00291312
-0.000875823
-3.25383e-06
-0.000330547
-1.39249e-05
-0.000861723
-3.25875e-05
-0.00128526
-5.90103e-05
-0.00160521
-9.22797e-05
-0.00183452
-0.000131105
-0.00199197
-0.000174142
-0.00209807
-0.000220234
-0.00217143
-0.000268531
-0.00222666
-0.0003185
-0.00227374
-0.000369867
-0.00231869
-0.000422531
-0.00236469
-0.000476495
-0.00241321
-0.000531812
-0.00246487
-0.000588566
-0.0025199
-0.000646862
-0.00257839
-0.000706817
-0.00264036
-0.000768535
-0.00270582
-0.000832262
-0.00277502
-0.00284702
-0.000898357
-3.69555e-06
-0.000326852
-1.53942e-05
-0.000850024
-3.54215e-05
-0.00126523
-6.33403e-05
-0.00157729
-9.80964e-05
-0.00179976
-0.000138324
-0.00195175
-0.000182656
-0.00205374
-0.000229948
-0.00212414
-0.000279377
-0.00217723
-0.000330436
-0.00222268
-0.000382872
-0.00226626
-0.000436599
-0.00231096
-0.000491628
-0.00235818
-0.000548016
-0.00240848
-0.000605846
-0.00246207
-0.000665217
-0.00251902
-0.000726232
-0.00257935
-0.000788993
-0.00264306
-0.000853685
-0.00271033
-0.00278026
-0.000920452
-4.1313e-06
-0.00032272
-1.68386e-05
-0.000837317
-3.81989e-05
-0.00124387
-6.75735e-05
-0.00154791
-0.000103772
-0.00176356
-0.000145358
-0.00191016
-0.000190946
-0.00200815
-0.000239403
-0.00207568
-0.000289931
-0.0021267
-0.000342051
-0.00217056
-0.00039553
-0.00221278
-0.000450294
-0.0022562
-0.000506361
-0.00230212
-0.000563792
-0.00235105
-0.000622668
-0.00240319
-0.000683082
-0.00245861
-0.000745129
-0.0025173
-0.000808903
-0.00257929
-0.000874537
-0.00264469
-0.0027127
-0.000942092
-4.56052e-06
-0.00031816
-1.82563e-05
-0.000823621
-4.09173e-05
-0.00122121
-7.17069e-05
-0.00151712
-0.000109304
-0.00172597
-0.000152206
-0.00186726
-0.00019901
-0.00196134
-0.000248597
-0.00202609
-0.000300193
-0.0020751
-0.000353346
-0.00211741
-0.00040784
-0.00215828
-0.000463615
-0.00220042
-0.000520694
-0.00224504
-0.000579139
-0.00229261
-0.000639032
-0.0023433
-0.000700461
-0.00239718
-0.000763515
-0.00245425
-0.000828277
-0.00251453
-0.00089485
-0.00257812
-0.00264429
-4.98264e-06
-0.000313177
-1.96458e-05
-0.000808958
-4.35743e-05
-0.00119728
-7.57382e-05
-0.00148496
-0.00011469
-0.00168702
-0.000158866
-0.00182308
-0.000206847
-0.00191336
-0.000257528
-0.00197541
-0.000310162
-0.00202247
-0.000364318
-0.00206325
-0.000419801
-0.0021028
-0.00047656
-0.00214366
-0.000534624
-0.00218697
-0.000594057
-0.00223317
-0.00065494
-0.00228242
-0.000717357
-0.00233476
-0.000781393
-0.00239021
-0.000847125
-0.0024488
-0.000914636
-0.00251061
-0.00257497
-5.39715e-06
-0.00030778
-2.10058e-05
-0.000793349
-4.61679e-05
-0.00117212
-7.9665e-05
-0.00145146
-0.000119928
-0.00164675
-0.000165335
-0.00177768
-0.000214454
-0.00186424
-0.000266196
-0.00192367
-0.000319837
-0.00196883
-0.000374969
-0.00200812
-0.000431413
-0.00204636
-0.000489129
-0.00208595
-0.000548151
-0.00212795
-0.000608545
-0.00217278
-0.000670391
-0.00222057
-0.000733772
-0.00227138
-0.000798768
-0.00232522
-0.000865452
-0.00238211
-0.000933899
-0.00244216
-0.00250474
-5.8035e-06
-0.000301977
-2.23347e-05
-0.000776818
-4.86962e-05
-0.00114575
-8.34852e-05
-0.00141667
-0.000125017
-0.00160522
-0.000171612
-0.00173108
-0.000221832
-0.00181402
-0.0002746
-0.0018709
-0.000329216
-0.00191421
-0.000385296
-0.00195204
-0.000442674
-0.00198898
-0.000501321
-0.0020273
-0.000561275
-0.002068
-0.000622604
-0.00211145
-0.000685387
-0.00215779
-0.000749707
-0.00220706
-0.000815642
-0.00225928
-0.000883261
-0.00231449
-0.000952638
-0.00237279
-6.20122e-06
-0.000295775
-2.36315e-05
-0.000759388
-5.11573e-05
-0.00111823
-8.71968e-05
-0.00138063
-0.000129953
-0.00156246
-0.000177697
-0.00168334
-0.00022898
-0.00176274
-0.00028274
-0.00181714
-0.000338301
-0.00185865
-0.000395299
-0.00189504
-0.000453584
-0.00193069
-0.000513136
-0.00196775
-0.000573995
-0.00200714
-0.000636232
-0.00204921
-0.000699928
-0.00209409
-0.000765162
-0.00214183
-0.000832013
-0.00219243
-0.000900551
-0.00224595
-0.00230249
-6.58981e-06
-0.000289186
-2.48948e-05
-0.000741083
-5.35496e-05
-0.00108957
-9.07981e-05
-0.00134339
-0.000134737
-0.00151852
-0.000183587
-0.00163449
-0.000235895
-0.00171043
-0.000290614
-0.00176242
-0.00034709
-0.00180218
-0.000404978
-0.00183716
-0.000464143
-0.00187153
-0.000524572
-0.00190732
-0.00058631
-0.0019454
-0.00064943
-0.00198609
-0.000714012
-0.00202951
-0.000780137
-0.0020757
-0.000847883
-0.00212468
-0.000917321
-0.00217652
-0.00223128
-6.96884e-06
-0.000282217
-2.61236e-05
-0.000721928
-5.58714e-05
-0.00105983
-9.42873e-05
-0.00130497
-0.000139366
-0.00147345
-0.000189283
-0.00158457
-0.000242579
-0.00165714
-0.000298223
-0.00170678
-0.000355582
-0.00174482
-0.000414332
-0.00177841
-0.000474349
-0.00181151
-0.000535628
-0.00184604
-0.000598219
-0.00188281
-0.000662196
-0.00192212
-0.000727639
-0.00196407
-0.00079463
-0.00200871
-0.000863249
-0.00205607
-0.000933568
-0.0021062
-7.33786e-06
-0.000274879
-2.73168e-05
-0.000701949
-5.81214e-05
-0.00102902
-9.76631e-05
-0.00126543
-0.000143838
-0.00142727
-0.000194782
-0.00153363
-0.000249029
-0.00160289
-0.000305565
-0.00165024
-0.000363778
-0.0016866
-0.000423361
-0.00171882
-0.000484203
-0.00175067
-0.000546305
-0.00178394
-0.000609722
-0.00181939
-0.000674528
-0.00185731
-0.000740807
-0.00189779
-0.00080864
-0.00194088
-0.000878108
-0.0019866
-0.00203502
-7.69648e-06
-0.000267182
-2.84734e-05
-0.000681172
-6.02981e-05
-0.000997197
-0.000100924
-0.0012248
-0.000148154
-0.00138004
-0.000200084
-0.0014817
-0.000255246
-0.00154773
-0.000312641
-0.00159285
-0.000371677
-0.00162757
-0.000432064
-0.00165844
-0.000493703
-0.00168903
-0.000556601
-0.00172104
-0.000620817
-0.00175518
-0.000686427
-0.0017917
-0.000753515
-0.0018307
-0.000822165
-0.00187223
-0.000892458
-0.0019163
-0.001963
-8.0443e-06
-0.000259138
-2.95924e-05
-0.000659624
-6.24002e-05
-0.000964389
-0.000104069
-0.00118313
-0.000152312
-0.0013318
-0.000205188
-0.00142882
-0.000261229
-0.00149169
-0.00031945
-0.00153463
-0.000379279
-0.00156774
-0.000440441
-0.00159728
-0.000502848
-0.00162662
-0.000566516
-0.00165737
-0.000631503
-0.00169019
-0.00069789
-0.00172531
-0.000765761
-0.00176283
-0.000835202
-0.00180279
-0.000906296
-0.00184521
-0.00189017
-8.38095e-06
-0.000250757
-3.06731e-05
-0.000637332
-6.44267e-05
-0.000930636
-0.000107096
-0.00114046
-0.00015631
-0.00128258
-0.000210094
-0.00137504
-0.000266978
-0.0014348
-0.000325992
-0.00147561
-0.000386583
-0.00150715
-0.000448491
-0.00153537
-0.000511639
-0.00156347
-0.000576048
-0.00159297
-0.00064178
-0.00162446
-0.000708916
-0.00165818
-0.000777544
-0.0016942
-0.000847749
-0.00173258
-0.000919618
-0.00177334
-8.7061e-06
-0.000242051
-3.17145e-05
-0.000614323
-6.63764e-05
-0.000895974
-0.000110005
-0.00109684
-0.000160149
-0.00123244
-0.000214801
-0.00132038
-0.000272491
-0.00137711
-0.000332266
-0.00141584
-0.000393588
-0.00144583
-0.000456213
-0.00147274
-0.000520074
-0.00149961
-0.000585196
-0.00152784
-0.000651645
-0.00155801
-0.000719503
-0.00159032
-0.00078886
-0.00162485
-0.000859803
-0.00166164
-0.00170072
-9.01941e-06
-0.000233032
-3.2716e-05
-0.000590627
-6.82484e-05
-0.000860441
-0.000112794
-0.00105229
-0.000163826
-0.00118141
-0.000219308
-0.0012649
-0.00027777
-0.00131865
-0.000338272
-0.00135534
-0.000400295
-0.0013838
-0.000463608
-0.00140943
-0.000528153
-0.00143507
-0.00059396
-0.00146204
-0.000661097
-0.00149087
-0.00072965
-0.00152176
-0.000799708
-0.00155479
-0.000871362
-0.00158998
-0.00162739
-9.32057e-06
-0.000223711
-3.36767e-05
-0.00056627
-7.00415e-05
-0.000824076
-0.000115463
-0.00100687
-0.000167342
-0.00112953
-0.000223615
-0.00120863
-0.000282813
-0.00125945
-0.00034401
-0.00129414
-0.000406703
-0.00132111
-0.000470675
-0.00134546
-0.000535875
-0.00136987
-0.000602337
-0.00139558
-0.000670135
-0.00142307
-0.000739354
-0.00145255
-0.000810086
-0.00148406
-0.000882421
-0.00151765
-0.00155335
-9.60929e-06
-0.000214102
-3.4596e-05
-0.000541284
-7.1755e-05
-0.000786917
-0.000118011
-0.000960611
-0.000170696
-0.00107684
-0.000227721
-0.00115161
-0.000287619
-0.00119955
-0.000349479
-0.00123228
-0.000412812
-0.00125778
-0.000477412
-0.00128086
-0.000543238
-0.00130404
-0.000610328
-0.00132849
-0.000678758
-0.00135465
-0.000748614
-0.00138269
-0.00081999
-0.00141268
-0.000892979
-0.00144466
-9.88529e-06
-0.000204216
-3.54733e-05
-0.000515696
-7.33881e-05
-0.000749003
-0.000120437
-0.000913562
-0.000173887
-0.00102339
-0.000231626
-0.00109387
-0.00029219
-0.00113899
-0.000354679
-0.00116979
-0.000418621
-0.00119384
-0.00048382
-0.00121566
-0.000550243
-0.00123762
-0.000617931
-0.0012608
-0.000686963
-0.00128561
-0.000757428
-0.00131222
-0.000829419
-0.00134069
-0.00137105
-1.01483e-05
-0.000194068
-3.6308e-05
-0.000489536
-7.49399e-05
-0.000710371
-0.00012274
-0.000865762
-0.000176914
-0.00096922
-0.000235329
-0.00103545
-0.000296523
-0.0010778
-0.00035961
-0.0011067
-0.000424129
-0.00112932
-0.000489898
-0.00114989
-0.000556888
-0.00117063
-0.000625145
-0.00119254
-0.000694751
-0.00121601
-0.000765794
-0.00124118
-0.000838371
-0.00126811
-0.00129684
-1.03981e-05
-0.00018367
-3.70996e-05
-0.000462835
-7.64098e-05
-0.000671061
-0.000124919
-0.000817253
-0.000179777
-0.000914362
-0.000238831
-0.000976398
-0.00030062
-0.00101601
-0.000364271
-0.00104305
-0.000429337
-0.00106425
-0.000495645
-0.00108358
-0.000563172
-0.0011031
-0.000631969
-0.00112374
-0.000702118
-0.00114586
-0.00077371
-0.00116959
-0.000846843
-0.00119498
-0.00122207
-1.06345e-05
-0.000173036
-3.78474e-05
-0.000435622
-7.77971e-05
-0.000631111
-0.000126974
-0.000768076
-0.000182476
-0.000858861
-0.00024213
-0.000916744
-0.00030448
-0.000953656
-0.000368662
-0.000978871
-0.000434244
-0.000998668
-0.00050106
-0.00101676
-0.000569095
-0.00103507
-0.000638402
-0.00105443
-0.000709064
-0.0010752
-0.000781175
-0.00109748
-0.000854833
-0.00112132
-0.00114677
-1.08571e-05
-0.000162178
-3.8551e-05
-0.000407928
-7.91011e-05
-0.000590561
-0.000128905
-0.000718272
-0.000185009
-0.000802756
-0.000245226
-0.000856527
-0.000308101
-0.000890781
-0.000372784
-0.000914188
-0.00043885
-0.000932602
-0.000506144
-0.000949469
-0.000574656
-0.000966556
-0.000644442
-0.000984649
-0.000715587
-0.00100405
-0.000788186
-0.00102488
-0.000862339
-0.00104717
-1.10659e-05
-0.000151112
-3.92101e-05
-0.000379784
-8.03214e-05
-0.000549449
-0.00013071
-0.000667883
-0.000187377
-0.000746089
-0.000248119
-0.000795784
-0.000311486
-0.000827415
-0.000376634
-0.00084904
-0.000443153
-0.000866083
-0.000510895
-0.000881727
-0.000579853
-0.000897598
-0.000650088
-0.000914414
-0.000721686
-0.000932455
-0.000794743
-0.00095182
-0.000972554
-1.12607e-05
-0.000139852
-3.9824e-05
-0.00035122
-8.14573e-05
-0.000507816
-0.00013239
-0.000616951
-0.000189579
-0.0006889
-0.000250809
-0.000734554
-0.000314631
-0.000763593
-0.000380214
-0.000783457
-0.000447155
-0.000799142
-0.000515313
-0.000813569
-0.000584687
-0.000828223
-0.00065534
-0.000843761
-0.00072736
-0.000860435
-0.000800843
-0.000878337
-0.000897506
-1.14412e-05
-0.000128411
-4.03926e-05
-0.000322269
-8.25084e-05
-0.0004657
-0.000133943
-0.000565516
-0.000191615
-0.000631227
-0.000253295
-0.000672874
-0.000317539
-0.000699349
-0.000383523
-0.000717474
-0.000450853
-0.000731812
-0.000519397
-0.000745025
-0.000589157
-0.000758464
-0.000660197
-0.000772721
-0.000732607
-0.000788025
-0.000806485
-0.000804459
-0.000822058
-1.16074e-05
-0.000116803
-4.09154e-05
-0.000292961
-8.34742e-05
-0.000423142
-0.000135369
-0.000513622
-0.000193484
-0.000573113
-0.000255578
-0.00061078
-0.000320208
-0.000634719
-0.00038656
-0.000651122
-0.000454249
-0.000664123
-0.000523147
-0.000676127
-0.000593261
-0.00068835
-0.000664658
-0.000701325
-0.000737427
-0.000715256
-0.000811669
-0.000730218
-0.000746242
-1.1759e-05
-0.000105044
-4.13921e-05
-0.000263328
-8.43543e-05
-0.000380179
-0.000136668
-0.000461307
-0.000195186
-0.000514595
-0.000257656
-0.00054831
-0.000322638
-0.000569736
-0.000389326
-0.000584434
-0.000457341
-0.000596107
-0.000526563
-0.000606905
-0.000597
-0.000617912
-0.000668721
-0.000629603
-0.000741819
-0.000642159
-0.000816392
-0.000655645
-0.000670089
-1.18959e-05
-9.31482e-05
-4.18224e-05
-0.000233401
-8.51485e-05
-0.000336853
-0.00013784
-0.000408615
-0.000196721
-0.000455715
-0.000259529
-0.000485502
-0.000324829
-0.000504437
-0.00039182
-0.000517444
-0.00046013
-0.000527797
-0.000529643
-0.000537392
-0.000600372
-0.000547183
-0.000672387
-0.000557588
-0.00074578
-0.000568766
-0.000820653
-0.000580772
-0.000593634
-1.20181e-05
-8.11301e-05
-4.2206e-05
-0.000203213
-8.58562e-05
-0.000293203
-0.000138885
-0.000355587
-0.000198088
-0.000396512
-0.000261199
-0.000422391
-0.000326781
-0.000438854
-0.000394041
-0.000450184
-0.000462615
-0.000459223
-0.000532388
-0.000467618
-0.000603378
-0.000476194
-0.000675654
-0.000485312
-0.000749312
-0.000495108
-0.000824451
-0.000505633
-0.000516907
-1.21254e-05
-6.90047e-05
-4.25428e-05
-0.000172796
-8.64773e-05
-0.000249269
-0.000139801
-0.000302263
-0.000199288
-0.000337025
-0.000262663
-0.000359016
-0.000328494
-0.000373023
-0.000395991
-0.000382687
-0.000464795
-0.000390419
-0.000534798
-0.000397615
-0.000606016
-0.000404976
-0.000678523
-0.000412805
-0.000752412
-0.000421219
-0.000827786
-0.000430259
-0.000439943
-1.22177e-05
-5.67869e-05
-4.28325e-05
-0.000142181
-8.70116e-05
-0.00020509
-0.000140589
-0.000248686
-0.000200319
-0.000277294
-0.000263923
-0.000295412
-0.000329967
-0.000306979
-0.000397668
-0.000314985
-0.000466671
-0.000321416
-0.000536871
-0.000327416
-0.000608286
-0.000333561
-0.000680991
-0.0003401
-0.000755081
-0.000347129
-0.000830657
-0.000354682
-0.000362774
-1.2295e-05
-4.4492e-05
-4.3075e-05
-0.000111401
-8.74587e-05
-0.000160706
-0.000141248
-0.000194896
-0.000201183
-0.00021736
-0.000264977
-0.000231618
-0.0003312
-0.000240755
-0.000399073
-0.000247113
-0.000468243
-0.000252246
-0.000538607
-0.000257051
-0.000610188
-0.00026198
-0.000683059
-0.000267229
-0.000757317
-0.000272872
-0.000833063
-0.000278936
-0.000285433
-1.23571e-05
-3.21349e-05
-4.327e-05
-8.04883e-05
-8.78185e-05
-0.000116157
-0.000141779
-0.000140935
-0.000201878
-0.000157261
-0.000265826
-0.00016767
-0.000332194
-0.000174387
-0.000400205
-0.000179103
-0.000469509
-0.000182941
-0.000540008
-0.000186553
-0.000611722
-0.000190266
-0.000684727
-0.000194223
-0.00075912
-0.000198479
-0.000835003
-0.000203053
-1.24041e-05
-1.97308e-05
-4.34176e-05
-4.94748e-05
-8.80908e-05
-7.14842e-05
-0.000142182
-8.68446e-05
-0.000202405
-9.70369e-05
-0.00026647
-0.000103606
-0.000332948
-0.000107909
-0.000401064
-0.000110987
-0.000470471
-0.000113534
-0.000541071
-0.000115953
-0.000612886
-0.00011845
-0.000685994
-0.000121116
-0.00076049
-0.000123984
-0.000127066
-1.24358e-05
-7.29502e-06
-4.35175e-05
-1.83931e-05
-8.82756e-05
-2.6726e-05
-0.000142455
-3.26654e-05
-0.000202764
-3.67275e-05
-0.000266909
-3.94605e-05
-0.000333462
-4.13562e-05
-0.00040165
-4.28e-05
-0.000471128
-4.40561e-05
-0.000541797
-4.52835e-05
-0.000613682
-4.65651e-05
-0.00068686
-4.79382e-05
-0.000761426
-4.94174e-05
-5.10077e-05
-1.24523e-05
5.15726e-06
-4.35698e-05
1.27244e-05
-8.83728e-05
1.8077e-05
-0.000142599
2.1561e-05
-0.000202954
2.36276e-05
-0.000267143
2.47278e-05
-0.000333737
2.52378e-05
-0.000401963
2.54267e-05
-0.000471479
2.54597e-05
-0.000542186
2.54237e-05
-0.000614109
2.53579e-05
-0.000687325
2.52772e-05
-0.000761929
2.51868e-05
2.50887e-05
-1.24536e-05
1.76108e-05
-4.35745e-05
4.38452e-05
-8.83825e-05
6.28851e-05
-0.000142615
7.57933e-05
-0.000202976
8.39891e-05
-0.000267171
8.89225e-05
-0.000333771
9.18381e-05
-0.000402004
9.36594e-05
-0.000471526
9.49814e-05
-0.000542239
9.61368e-05
-0.000614168
9.72866e-05
-0.000687388
9.84982e-05
-0.000761998
9.97963e-05
0.00010119
-1.24396e-05
3.00504e-05
-4.35315e-05
7.49371e-05
-8.83045e-05
0.000107658
-0.000142501
0.00012999
-0.00020283
0.000144317
-0.000266994
0.000153087
-0.000333566
0.00015841
-0.000401772
0.000161865
-0.000471267
0.000164477
-0.000541954
0.000166824
-0.000613857
0.000169189
-0.000687051
0.000171692
-0.000761634
0.000174379
0.000177265
-1.24104e-05
4.24608e-05
-4.34408e-05
0.000105968
-8.81389e-05
0.000152356
-0.000142259
0.000184111
-0.000202515
0.000204573
-0.000266612
0.000217184
-0.000333121
0.000224919
-0.000401267
0.000230011
-0.000470704
0.000233914
-0.000541333
0.000237453
-0.000613177
0.000241033
-0.000686312
0.000244828
-0.000760835
0.000248902
0.000253278
-1.23659e-05
5.48267e-05
-4.33025e-05
0.000136904
-8.78858e-05
0.000196939
-0.000141888
0.000238113
-0.000202031
0.000264716
-0.000266024
0.000281176
-0.000332436
0.000291331
-0.000400489
0.000298064
-0.000469836
0.00030326
-0.000540374
0.000307992
-0.000612128
0.000312787
-0.000685173
0.000317873
-0.000759604
0.000323333
-0.000835524
0.000329198
0.000335484
-1.23063e-05
6.7133e-05
-4.31167e-05
0.000167715
-8.75452e-05
0.000241368
-0.000141388
0.000291956
-0.00020138
0.000324708
-0.000265232
0.000345028
-0.000331512
0.000357611
-0.000399439
0.000365991
-0.000468662
0.000372484
-0.00053908
0.000378409
-0.000610712
0.000384419
-0.000683633
0.000390794
-0.00075794
0.000397639
-0.000833734
0.000404993
0.000412872
-1.22315e-05
7.93645e-05
-4.28835e-05
0.000198367
-8.71173e-05
0.000285602
-0.00014076
0.000345599
-0.00020056
0.000384508
-0.000264234
0.000408702
-0.000330347
0.000423725
-0.000398116
0.00043376
-0.000467185
0.000441553
-0.000537448
0.000448672
-0.000608926
0.000455897
-0.000681693
0.000463561
-0.000755843
0.000471789
-0.000831478
0.000480628
0.000490098
-1.21417e-05
9.15062e-05
-4.26031e-05
0.000228828
-8.66022e-05
0.000329601
-0.000140003
0.000398999
-0.000199572
0.000444078
-0.000263031
0.00047216
-0.000328944
0.000489637
-0.000396521
0.000501337
-0.000465402
0.000510435
-0.000535481
0.000518751
-0.000606773
0.00052719
-0.000679353
0.00053614
-0.000753314
0.00054575
-0.000828758
0.000556072
0.00056713
-1.20369e-05
0.000103543
-4.22755e-05
0.000259067
-8.60002e-05
0.000373326
-0.000139118
0.000452117
-0.000198417
0.000503377
-0.000261624
0.000535367
-0.000327301
0.000555315
-0.000394653
0.000568689
-0.000463316
0.000579098
-0.000533178
0.000588612
-0.000604253
0.000598265
-0.000676614
0.000608501
-0.000750354
0.00061949
-0.000825573
0.000631292
0.000643934
-1.19171e-05
0.00011546
-4.1901e-05
0.00028905
-8.53116e-05
0.000416736
-0.000138105
0.00050491
-0.000197093
0.000562365
-0.000260012
0.000598286
-0.000325419
0.000620722
-0.000392514
0.000635784
-0.000460926
0.00064751
-0.000530539
0.000658225
-0.000601365
0.000669092
-0.000673476
0.000680612
-0.000746963
0.000692977
-0.000821926
0.000706255
0.000720479
-1.17826e-05
0.000127243
-4.14798e-05
0.000318748
-8.45366e-05
0.000459793
-0.000136964
0.000557337
-0.000195603
0.000621004
-0.000258195
0.000660878
-0.000323298
0.000685825
-0.000390103
0.000702588
-0.000458232
0.000715639
-0.000527565
0.000727558
-0.000598112
0.000739638
-0.00066994
0.00075244
-0.000743142
0.000766178
-0.000817817
0.00078093
0.00079673
-1.16334e-05
0.000138876
-4.10122e-05
0.000348126
-8.36755e-05
0.000502456
-0.000135696
0.000609357
-0.000193945
0.000679253
-0.000256175
0.000723108
-0.000320938
0.000750588
-0.00038742
0.00076907
-0.000455235
0.000783455
-0.000524257
0.00079658
-0.000594492
0.000809873
-0.000666007
0.000823955
-0.000738892
0.000839064
-0.000813247
0.000855285
0.000872657
-1.14696e-05
0.000150346
-4.04984e-05
0.000377155
-8.27287e-05
0.000544687
-0.0001343
0.000660929
-0.00019212
0.000737073
-0.00025395
0.000784937
-0.00031834
0.000814978
-0.000384466
0.000835196
-0.000451935
0.000850924
-0.000520614
0.000865259
-0.000590507
0.000879766
-0.000661677
0.000895126
-0.000734215
0.000911602
-0.000808218
0.000929288
0.000948226
-1.12914e-05
0.000161637
-3.99388e-05
0.000405802
-8.16966e-05
0.000586444
-0.000132778
0.000712011
-0.000190129
0.000794424
-0.000251522
0.00084633
-0.000315503
0.00087896
-0.000381241
0.000900934
-0.000448333
0.000918015
-0.000516638
0.000933565
-0.000586157
0.000949285