/*--------------------------------*- C++ -*----------------------------------*\
  =========                 |
  \\      /  F ield         | OpenFOAM: The Open Source CFD Toolbox
   \\    /   O peration     | Website:  https://openfoam.org
    \\  /    A nd           | Version:  7
     \\/     M anipulation  |
\*---------------------------------------------------------------------------*/
FoamFile
{
    version     2.0;
    format      ascii;
    class       volVectorField;
    location    "80";
    object      U;
}
// * * * * * * * * * * * * * * * * * * * * * * * * * * * * * * * * * * * * * //

dimensions      [0 1 -1 0 0 0 0];

internalField   nonuniform List<vector> 
4575
(
(1.12415 0.354681 -6.98583e-21)
(1.11986 0.371327 2.31105e-20)
(1.11559 0.357186 -2.00188e-20)
(1.11795 0.407675 -2.84728e-20)
(1.114 0.390227 1.30028e-20)
(1.11069 0.373859 2.23048e-21)
(1.10686 0.359472 1.86914e-20)
(1.11211 0.429304 -1.92823e-20)
(1.1076 0.410612 5.24325e-20)
(1.10415 0.392801 -1.88247e-21)
(1.10133 0.37615 -6.9387e-21)
(1.09796 0.36153 1.92167e-21)
(1.10609 0.452473 3.29693e-20)
(1.10105 0.432359 -1.75483e-20)
(1.09703 0.413273 -2.52568e-20)
(1.09408 0.395111 6.07097e-21)
(1.09177 0.378189 -1.37705e-20)
(1.0889 0.36335 -7.28775e-21)
(1.09967 0.4772 -1.92518e-20)
(1.09427 0.455646 -5.11196e-21)
(1.08975 0.435111 3.7147e-22)
(1.08624 0.415647 -2.25079e-21)
(1.08382 0.397147 5.77558e-22)
(1.08204 0.379966 -7.57011e-21)
(1.07968 0.364924 5.54972e-21)
(1.09253 0.503449 4.95513e-20)
(1.08704 0.480489 -1.23376e-20)
(1.08222 0.458483 -1.58862e-21)
(1.07824 0.437548 2.16754e-20)
(1.07525 0.417721 3.72826e-21)
(1.07336 0.398898 1.16446e-20)
(1.07212 0.381472 9.9458e-21)
(1.07031 0.366242 -6.5183e-23)
(1.08418 0.531083 4.95823e-21)
(1.07902 0.506856 1.1879e-20)
(1.07416 0.483405 2.21702e-20)
(1.06994 0.460973 1.71665e-21)
(1.06653 0.439657 5.27862e-21)
(1.06407 0.419487 -1.3566e-20)
(1.06271 0.400355 4.80333e-21)
(1.06203 0.382698 -6.00775e-21)
(1.06078 0.367295 -3.24398e-22)
(1.07394 0.559717 -6.3255e-20)
(1.06975 0.534623 -6.80064e-20)
(1.06524 0.509846 -2.99503e-20)
(1.06104 0.485934 -2.7223e-20)
(1.05745 0.463102 -3.22891e-21)
(1.05463 0.441429 -1.59931e-21)
(1.05271 0.420933 -3.80041e-21)
(1.0519 0.401509 -3.63106e-21)
(1.05177 0.383634 3.90375e-21)
(1.05112 0.368074 -3.28478e-21)
(1.06062 0.588501 -1.13019e-20)
(1.05858 0.563431 4.69862e-20)
(1.05502 0.537696 5.93567e-20)
(1.0512 0.512404 8.31207e-21)
(1.0477 0.488063 3.04789e-20)
(1.04477 0.464858 -1.524e-21)
(1.04255 0.442852 1.01734e-20)
(1.04119 0.422051 -1.82449e-21)
(1.04092 0.402353 6.09385e-22)
(1.04135 0.384273 9.03371e-22)
(1.04131 0.368571 -7.02566e-21)
(1.04231 0.615802 2.05299e-20)
(1.04439 0.592463 2.67789e-20)
(1.04289 0.566618 1.65988e-20)
(1.04002 0.540285 -3.73226e-20)
(1.03693 0.514517 -2.47134e-20)
(1.03415 0.489777 -1.39249e-20)
(1.03191 0.466228 -1.49077e-20)
(1.03031 0.443915 -3.93344e-22)
(1.02952 0.422832 2.8735e-21)
(1.02978 0.402879 2.58887e-21)
(1.03077 0.384606 -6.65089e-21)
(1.03137 0.368776 -1.49192e-21)
(1.01606 0.638819 -2.87368e-20)
(1.02537 0.620126 -9.57228e-20)
(1.02779 0.595829 -6.25197e-20)
(1.02689 0.569262 -1.59522e-20)
(1.02476 0.542377 2.22049e-20)
(1.02245 0.516169 1.59081e-20)
(1.02042 0.491065 1.77338e-21)
(1.01888 0.467201 5.92125e-21)
(1.01793 0.444607 2.18425e-21)
(1.01771 0.423266 -2.70197e-21)
(1.01852 0.40308 -8.12698e-22)
(1.02005 0.384627 -1.38168e-20)
(1.02131 0.368678 1.21269e-20)
(0.977585 0.653211 -3.58482e-20)
(0.998658 0.643652 5.76677e-20)
(1.00799 0.623775 5.85306e-20)
(1.01084 0.598582 1.89863e-20)
(1.01062 0.571348 1.686e-20)
(1.00927 0.543957 -5.21146e-21)
(1.00776 0.517349 -8.69057e-22)
(1.00652 0.491913 3.03573e-21)
(1.00571 0.467765 -6.30823e-21)
(1.00542 0.444919 -5.81335e-21)
(1.0058 0.423345 -1.06074e-20)
(1.00714 0.402949 -1.75158e-20)
(1.00919 0.384327 3.01372e-20)
(1.01112 0.368268 1.87591e-20)
(0.921291 0.652854 -2.0316e-20)
(0.960137 0.658701 7.70563e-21)
(0.98076 0.647727 -6.45237e-21)
(0.990219 0.626735 4.34481e-20)
(0.993587 0.60071 -3.34067e-20)
(0.994096 0.572864 -3.86466e-21)
(0.993566 0.545013 1.91543e-21)
(0.992895 0.518043 -1.0676e-21)
(0.992465 0.49231 -2.94515e-21)
(0.992416 0.467908 1.40327e-20)
(0.992814 0.444839 8.35423e-21)
(0.993792 0.42306 1.40243e-20)
(0.995659 0.40248 2.30518e-20)
(0.998219 0.383701 2.49881e-20)
(1.00083 0.367532 -3.08771e-20)
(0.90434 0.659092 -6.52597e-21)
(0.942113 0.663353 -2.44663e-20)
(0.962406 0.651028 -6.54792e-21)
(0.972093 0.628991 -3.93525e-20)
(0.976049 0.602199 4.0039e-20)
(0.977341 0.573796 4.76612e-22)
(0.977671 0.545531 4.53446e-21)
(0.977867 0.51824 -9.1558e-21)
(0.978273 0.492244 -5.03342e-21)
(0.979007 0.46762 -2.80038e-20)
(0.980115 0.444357 -2.24322e-20)
(0.981716 0.4224 -5.91009e-21)
(0.98411 0.401665 4.12171e-20)
(0.987147 0.382739 -2.42667e-20)
(0.990453 0.366451 7.65219e-21)
(0.82474 0.636849 -3.22001e-20)
(0.886731 0.664427 -2.16792e-20)
(0.923559 0.667149 -1.77341e-20)
(0.943639 0.653543 2.1793e-20)
(0.953647 0.630532 1.73846e-21)
(0.958259 0.603037 -1.90862e-20)
(0.960382 0.574133 -1.18144e-22)
(0.961608 0.545502 -1.56758e-21)
(0.962699 0.517928 2.074e-21)
(0.963963 0.491704 -8.74805e-22)
(0.965501 0.466889 9.16155e-21)
(0.967344 0.443461 5.80056e-21)
(0.969593 0.421356 1.16098e-20)
(0.972517 0.400496 2.19454e-20)
(0.976002 0.381428 -7.51486e-20)
(0.980009 0.365 1.73376e-20)
(0.714417 0.58268 4.11306e-22)
(0.808229 0.64284 3.47361e-20)
(0.86852 0.668839 4.06932e-20)
(0.904525 0.670076 2.09159e-20)
(0.924501 0.655258 -1.29864e-20)
(0.934916 0.631345 9.89935e-21)
(0.940248 0.603213 1.62733e-21)
(0.943246 0.573865 3.49785e-21)
(0.945399 0.544914 1.57954e-20)
(0.947408 0.517098 6.05553e-21)
(0.949552 0.490681 2.23515e-21)
(0.951915 0.465706 -4.00987e-21)
(0.954518 0.442141 4.15624e-20)
(0.957444 0.419916 -3.37517e-20)
(0.960906 0.398963 1.39874e-20)
(0.964808 0.379752 8.18356e-20)
(0.96952 0.363135 4.88482e-20)
(0.699801 0.589055 -4.8027e-20)
(0.791055 0.647873 -1.26037e-20)
(0.849757 0.672311 2.97445e-20)
(0.885059 0.67212 -3.30456e-20)
(0.905035 0.656163 -1.65939e-20)
(0.915936 0.631421 -3.55006e-21)
(0.922046 0.602718 -7.84758e-21)
(0.92596 0.572981 -1.04061e-20)
(0.929067 0.543758 -1.5426e-20)
(0.932015 0.515741 -4.10674e-20)
(0.935056 0.489165 2.58511e-20)
(0.938263 0.464061 -3.76535e-21)
(0.941651 0.440386 -4.42218e-20)
(0.945287 0.418068 -1.49172e-20)
(0.949301 0.397057 -5.10679e-20)
(0.953595 0.377691 2.59651e-20)
(0.959046 0.360801 -5.7986e-20)
(0.555189 0.49302 4.78084e-20)
(0.684499 0.594495 6.51773e-20)
(0.773273 0.651928 2.1976e-20)
(0.830498 0.674829 -6.78802e-21)
(0.86521 0.673269 4.78782e-21)
(0.885282 0.656246 1.20489e-20)
(0.896744 0.63075 -8.80436e-21)
(0.903683 0.601542 -4.73643e-21)
(0.908549 0.571473 9.01885e-21)
(0.912636 0.542027 1.11941e-20)
(0.91654 0.513849 3.87902e-20)
(0.920493 0.487149 -2.81132e-21)
(0.924558 0.461947 -1.19191e-20)
(0.928754 0.438187 -6.00849e-21)
(0.933133 0.4158 2.95708e-20)
(0.937718 0.394761 5.70792e-20)
(0.942419 0.375226 -9.43837e-20)
(0.948757 0.357955 6.39935e-20)
(0.369669 0.34544 8.89802e-20)
(0.542712 0.498341 -3.8348e-20)
(0.668567 0.598975 -4.10314e-20)
(0.754938 0.654988 -1.55413e-20)
(0.810796 0.67638 1.26511e-20)
(0.845025 0.673514 2.75282e-21)
(0.865284 0.655501 -7.54129e-21)
(0.877376 0.629324 2.37144e-21)
(0.885192 0.599678 4.40308e-20)
(0.89104 0.569335 1.77388e-21)
(0.896127 0.539712 -1.75388e-20)
(0.901004 0.511415 -1.96859e-20)
(0.905879 0.484628 -1.49814e-20)
(0.910814 0.459356 -2.04539e-21)
(0.915834 0.435533 5.58256e-20)
(0.920977 0.413096 -2.11439e-20)
(0.926153 0.392039 -4.11336e-20)
(0.931378 0.372295 -1.5171e-21)
(0.938879 0.35459 -9.05907e-20)
(0.361088 0.349738 -3.33836e-20)
(0.529643 0.502805 3.24113e-20)
(0.652057 0.602476 4.08242e-20)
(0.736107 0.657039 -1.19245e-20)
(0.790703 0.676953 -1.76809e-21)
(0.824552 0.672845 8.51982e-21)
(0.845084 0.65392 5.69903e-22)
(0.857867 0.627137 4.30046e-21)
(0.866602 0.597119 -3.38449e-20)
(0.87346 0.566558 -3.93379e-20)
(0.879567 0.536809 -5.14418e-21)
(0.885427 0.508435 1.38683e-21)
(0.891233 0.481598 -1.86098e-20)
(0.897045 0.456287 1.68592e-20)
(0.902895 0.432425 4.59511e-20)
(0.9088 0.409949 1.38418e-20)
(0.914589 0.38885 -7.84996e-20)
(0.920566 0.368747 -2.58592e-21)
(0.929339 0.350464 2.83212e-20)
(0.138072 0.140008 1.23894e-20)
(0.352047 0.353401 7.53582e-21)
(0.516031 0.506393 -2.45547e-20)
(0.635026 0.604982 -1.30877e-20)
(0.716836 0.658067 -1.49001e-21)
(0.770272 0.676539 6.82053e-21)
(0.80384 0.671258 -1.61738e-20)
(0.824722 0.651498 -2.41357e-20)
(0.838254 0.624184 2.95469e-20)
(0.847945 0.593861 6.86559e-20)
(0.855838 0.56314 4.20913e-20)
(0.862978 0.533314 -1.54083e-20)
(0.869831 0.504905 -9.69525e-21)
(0.876575 0.478056 -3.93519e-21)
(0.883265 0.452741 -5.04507e-20)
(0.889939 0.428871 -2.6043e-20)
(0.896585 0.406379 -2.88637e-20)
(0.903023 0.385238 9.27839e-20)
(0.910024 0.364596 -2.13819e-20)
(0.919195 0.343945 7.90012e-20)
(0.134557 0.141697 1.0449e-20)
(0.342582 0.356411 -8.83386e-21)
(0.501924 0.509086 9.31269e-21)
(0.617527 0.606478 -1.77244e-21)
(0.697181 0.658064 -3.35804e-21)
(0.749558 0.675131 -1.22704e-20)
(0.782936 0.668746 6.62613e-21)
(0.804241 0.648231 3.50959e-20)
(0.818572 0.620462 -8.59236e-20)
(0.829253 0.5899 1.37122e-20)
(0.8382 0.559076 -2.48696e-20)
(0.846386 0.529222 2.82489e-20)
(0.85424 0.500824 2.53706e-20)
(0.861925 0.474002 4.03548e-20)
(0.869494 0.44872 1.64912e-20)
(0.876983 0.424881 4.35158e-20)
(0.884356 0.402416 2.06425e-20)
(0.891484 0.381293 -5.45887e-21)
(0.899364 0.360677 4.49404e-20)
(0.908502 0.340267 6.97369e-21)
(0.130852 0.143109 1.95242e-21)
(0.332728 0.35875 -8.84267e-21)
(0.48737 0.510869 2.49332e-21)
(0.599618 0.606952 -2.81696e-21)
(0.677199 0.65702 6.15838e-21)
(0.728612 0.672725 3.36093e-21)
(0.761887 0.665307 3.762e-20)
(0.783681 0.644115 1.19129e-20)
(0.798857 0.615966 5.39434e-20)
(0.810557 0.585233 3.29528e-20)
(0.820576 0.554363 -8.45045e-20)
(0.829816 0.524532 2.87964e-21)
(0.838676 0.496188 -7.76719e-20)
(0.847304 0.469435 -5.03584e-21)
(0.855752 0.444226 -3.28197e-20)
(0.864052 0.420458 5.02205e-20)
(0.872152 0.398062 -7.64582e-20)
(0.879962 0.37699 -1.92527e-20)
(0.888473 0.356413 -2.85917e-20)
(0.897587 0.336112 -1.02162e-19)
(0.126971 0.144237 4.64641e-21)
(0.322521 0.360405 1.00953e-20)
(0.47242 0.511729 3.38799e-21)
(0.581354 0.606393 -6.11199e-21)
(0.656944 0.654931 1.94656e-20)
(0.707487 0.669318 -1.89352e-20)
(0.740739 0.66094 2.19615e-20)
(0.763084 0.639151 -7.7572e-20)
(0.779146 0.610697 -5.34811e-20)
(0.791888 0.579858 -9.62685e-20)
(0.802992 0.549001 5.92525e-20)
(0.813295 0.519242 -3.23967e-21)
(0.823164 0.490998 -1.2385e-20)
(0.832737 0.464355 -2.63845e-20)
(0.842063 0.439258 -3.72776e-20)
(0.851171 0.415601 1.95973e-20)
(0.860004 0.393316 6.15602e-20)
(0.868501 0.372343 -3.27644e-20)
(0.877594 0.351883 4.21128e-20)
(0.886885 0.331839 1.18093e-19)
(0.122929 0.145073 9.63601e-21)
(0.312 0.361364 -7.5949e-21)
(0.457125 0.511654 1.05418e-20)
(0.56279 0.604796 2.40494e-20)
(0.636474 0.651793 1.43176e-20)
(0.686234 0.664909 4.23608e-20)
(0.719539 0.655644 -3.35224e-20)
(0.74249 0.633338 -1.86225e-20)
(0.759473 0.604655 -1.55034e-20)
(0.773279 0.573776 6.33994e-20)
(0.785477 0.542988 -1.50895e-19)
(0.796847 0.513352 -6.0771e-20)
(0.807727 0.485254 1.63675e-20)
(0.818244 0.458762 2.22091e-20)
(0.828448 0.433818 7.62615e-20)
(0.838364 0.410312 -1.04737e-19)
(0.847934 0.388177 3.03795e-20)
(0.857119 0.367343 1.80096e-20)
(0.866788 0.347056 -2.52857e-20)
(0.876387 0.327338 -8.87189e-20)
(0.118744 0.145609 5.1544e-21)
(0.301201 0.361615 -3.45088e-20)
(0.441534 0.510637 1.94435e-21)
(0.543983 0.602155 2.7279e-20)
(0.615843 0.647604 -3.29636e-20)
(0.664906 0.659499 -6.49451e-20)
(0.698334 0.649423 8.83181e-21)
(0.72194 0.626678 4.42836e-20)
(0.739874 0.59784 1.07831e-19)
(0.75476 0.566988 -1.07946e-19)
(0.768061 0.536326 9.11354e-20)
(0.780499 0.506863 1.08205e-19)
(0.792389 0.478955 8.64956e-20)
(0.80385 0.452658 6.19387e-20)
(0.814929 0.427906 -1.31398e-19)
(0.825651 0.40459 -1.21788e-21)
(0.835962 0.382643 -3.41773e-20)
(0.845834 0.361988 1.29602e-19)
(0.85609 0.34192 -5.52916e-21)
(0.866079 0.322553 -6.15745e-20)
(0.11443 0.145842 1.00765e-20)
(0.290163 0.361151 1.41886e-20)
(0.425699 0.508671 2.471e-21)
(0.524988 0.598468 -1.65024e-20)
(0.595107 0.642366 -1.96188e-20)
(0.643552 0.653091 7.69953e-22)
(0.677168 0.642278 -2.60247e-20)
(0.701473 0.619176 -4.33858e-20)
(0.720385 0.590256 3.5067e-20)
(0.736362 0.559495 8.61497e-20)
(0.75077 0.529016 2.1995e-21)
(0.764277 0.499776 3.57884e-20)
(0.777175 0.472104 -5.52677e-20)
(0.789576 0.446043 -6.82055e-20)
(0.801528 0.421523 1.6895e-19)
(0.813055 0.398435 6.68363e-20)
(0.824107 0.376713 -6.79108e-20)
(0.83467 0.356273 -7.70785e-20)
(0.845523 0.336463 -8.53504e-20)
(0.855952 0.31746 -7.43926e-21)
(0.110005 0.145765 -6.06974e-20)
(0.278925 0.359965 -1.24563e-20)
(0.40967 0.505754 -2.78671e-20)
(0.505861 0.593736 -5.28426e-20)
(0.574319 0.636082 8.94871e-20)
(0.622224 0.64569 -7.50826e-20)
(0.656086 0.634216 1.06398e-19)
(0.68113 0.610835 -4.33903e-22)
(0.701041 0.581907 -3.30832e-20)
(0.718118 0.551301 2.73912e-20)
(0.733634 0.521061 1.98674e-20)
(0.748207 0.492094 -9.93569e-20)
(0.762108 0.464703 1.02936e-19)
(0.775446 0.43892 6.1699e-20)
(0.788266 0.414671 -2.37578e-20)
(0.800596 0.391849 -4.51344e-20)
(0.812389 0.370386 3.88462e-20)
(0.823643 0.350197 -6.57666e-20)
(0.835103 0.330676 -9.012e-20)
(0.846006 0.312049 8.52084e-20)
(0.105485 0.145377 8.4798e-20)
(0.267526 0.358054 -4.90993e-20)
(0.393499 0.501883 -2.58008e-20)
(0.486657 0.587961 3.26123e-20)
(0.553534 0.628758 9.53624e-21)
(0.600971 0.637303 2.73989e-20)
(0.635134 0.625244 2.70046e-20)
(0.660949 0.601663 7.43287e-20)
(0.681875 0.572799 8.73853e-20)
(0.700059 0.542411 -8.23962e-20)
(0.71668 0.512466 9.92481e-20)
(0.732314 0.483821 -1.12545e-19)
(0.747214 0.456756 1.44786e-20)
(0.761481 0.431291 -4.32427e-20)
(0.775165 0.407351 3.05287e-20)
(0.788293 0.384831 2.83186e-20)
(0.800825 0.363662 -1.72627e-20)
(0.81277 0.343756 1.64272e-19)
(0.824844 0.324554 -2.13489e-20)
(0.836242 0.30631 -7.27734e-20)
(0.100887 0.144673 -6.71998e-20)
(0.256005 0.355415 8.59638e-20)
(0.377236 0.497061 -1.70737e-20)
(0.467431 0.581149 -9.56702e-20)
(0.532805 0.620402 6.68245e-20)
(0.579841 0.627938 -2.3622e-20)
(0.614353 0.61537 -8.20677e-20)
(0.640968 0.591667 -1.24064e-20)
(0.662922 0.562938 -1.83781e-19)
(0.682214 0.532832 1.72197e-19)
(0.699937 0.503235 -1.83752e-20)
(0.716625 0.474961 4.6916e-20)
(0.732514 0.448266 5.57548e-20)
(0.747704 0.423161 2.19525e-20)
(0.762244 0.399569 -1.47532e-19)
(0.776166 0.377385 3.26271e-20)
(0.789433 0.356542 3.00863e-20)
(0.802069 0.33695 -9.88015e-20)
(0.814757 0.318093 3.65403e-20)
(0.826666 0.300241 1.37518e-20)
(0.0962286 0.143653 -5.83005e-20)
(0.2444 0.352049 -5.91314e-20)
(0.360932 0.491291 1.16619e-19)
(0.448235 0.573306 8.27885e-20)
(0.512184 0.611022 -6.6763e-20)
(0.558883 0.617607 7.30999e-21)
(0.593787 0.604604 5.23443e-20)
(0.621226 0.580856 1.5592e-20)
(0.644216 0.552332 -2.15233e-21)
(0.664614 0.522569 2.76854e-20)
(0.683432 0.493376 -4.67899e-20)
(0.701165 0.465521 -6.25486e-21)
(0.718034 0.439238 -1.73318e-19)
(0.734137 0.414533 -1.30743e-19)
(0.749525 0.391326 -2.14762e-20)
(0.764233 0.369513 -1.80463e-20)
(0.778231 0.349028 -1.96593e-20)
(0.791553 0.32978 -3.93004e-20)
(0.804853 0.311292 -4.4889e-20)
(0.0915265 0.142316 1.42479e-20)
(0.232751 0.347957 1.32139e-19)
(0.344635 0.48458 -5.28679e-20)
(0.429124 0.564443 -7.95348e-20)
(0.491723 0.600632 -6.95722e-21)
(0.538144 0.606321 1.09668e-19)
(0.573478 0.592959 -1.11429e-19)
(0.60176 0.569241 2.19295e-20)
(0.625791 0.540991 -1.62169e-20)
(0.647289 0.511632 -1.64829e-19)
(0.667192 0.482895 -1.53248e-19)
(0.685958 0.455506 2.78563e-20)
(0.703796 0.42968 2.38305e-19)
(0.720801 0.405414 3.50381e-20)
(0.737027 0.382627 9.2456e-20)
(0.752513 0.36122 -1.41413e-19)
(0.767235 0.341124 -3.29972e-20)
(0.781237 0.322248 1.61746e-19)
(0.795145 0.304153 7.08335e-20)
(0.086798 0.140662 5.0282e-20)
(0.221096 0.343144 4.8643e-20)
(0.328396 0.476935 -1.18154e-19)
(0.41015 0.554571 -4.78884e-21)
(0.471471 0.589243 -4.9213e-20)
(0.517669 0.594095 -6.5588e-20)
(0.553468 0.580448 2.06093e-20)
(0.582607 0.556834 -6.1233e-20)
(0.607678 0.528927 1.15391e-19)
(0.630269 0.50003 -7.03649e-20)
(0.651244 0.471801 5.08406e-20)
(0.67103 0.444925 1.14138e-19)
(0.689823 0.419597 -7.69955e-20)
(0.707717 0.395809 1.92808e-20)
(0.72477 0.37348 9.14716e-20)
(0.741023 0.35251 1.13517e-19)
(0.75646 0.332832 -5.82897e-20)
(0.771136 0.314356 -3.29368e-20)
(0.785644 0.296677 4.94464e-20)
(0.08206 0.138692 -1.18747e-19)
(0.209474 0.337616 4.2871e-20)
(0.312263 0.468368 1.3453e-19)
(0.391363 0.543705 1.54859e-20)
(0.451478 0.576874 -1.88075e-20)
(0.497505 0.580945 -3.2511e-20)
(0.533796 0.567086 -1.74169e-20)
(0.563802 0.543649 7.53163e-20)
(0.58991 0.51615 -1.0978e-19)
(0.613582 0.487774 2.55359e-19)
(0.635615 0.460105 1.04876e-19)
(0.656405 0.433786 -3.45275e-20)
(0.676137 0.408998 -1.08037e-20)
(0.694907 0.385726 4.45192e-20)
(0.712773 0.363889 -1.21376e-19)
(0.729781 0.343389 9.824e-21)
(0.745923 0.324159 -7.56129e-20)
(0.761262 0.306109 -3.30855e-20)
(0.0773297 0.136409 -2.29303e-20)
(0.197921 0.331379 -1.38867e-19)
(0.296284 0.458891 9.47745e-20)
(0.372815 0.53186 -1.41352e-20)
(0.431793 0.563541 7.17768e-20)
(0.477694 0.566888 2.44133e-20)
(0.514502 0.552888 -3.94953e-21)
(0.54538 0.529701 5.08923e-20)
(0.572518 0.502675 -3.05007e-20)
(0.597257 0.474877 -9.23543e-20)
(0.620331 0.447816 9.87523e-20)
(0.642106 0.4221 1.03903e-19)
(0.662761 0.397893 -3.14707e-22)
(0.682389 0.375174 -2.29377e-20)
(0.701053 0.353862 -1.27073e-20)
(0.718804 0.333863 9.3641e-20)
(0.735639 0.31511 8.26563e-20)
(0.751629 0.297512 2.28038e-20)
(0.0726239 0.133816 1.09492e-19)
(0.186476 0.324444 1.56412e-19)
(0.280506 0.44852 -8.9188e-20)
(0.354554 0.519055 -6.68447e-21)
(0.412462 0.549263 -1.25493e-19)
(0.458281 0.551944 7.6963e-20)
(0.495624 0.537874 -3.03145e-20)
(0.527375 0.515006 -5.86167e-20)
(0.555532 0.488516 -2.18469e-20)
(0.581321 0.46135 -3.12494e-21)
(0.605416 0.434948 -2.1593e-19)
(0.628158 0.409878 -2.69094e-19)
(0.649715 0.38629 -4.09386e-20)
(0.670184 0.364161 9.0591e-20)
(0.68963 0.343408 -3.50376e-20)
(0.708108 0.323941 -1.75834e-19)
(0.725622 0.305691 1.62598e-19)
(0.74225 0.288572 2.30444e-20)
(0.0679592 0.130916 -1.79732e-19)
(0.175175 0.316823 5.94873e-20)
(0.264974 0.437271 -4.94162e-20)
(0.336628 0.505311 6.61463e-20)
(0.393532 0.534063 1.25406e-19)
(0.439306 0.536132 -7.80343e-20)
(0.4772 0.522063 1.41774e-19)
(0.509821 0.499582 -4.83083e-20)
(0.538984 0.473689 7.1992e-20)
(0.565803 0.44721 1.35064e-19)
(0.590897 0.421512 7.24857e-20)
(0.614582 0.397131 3.00034e-19)
(0.637022 0.374202 1.35351e-19)
(0.658311 0.352697 -1.10054e-20)
(0.678521 0.332536 -6.80296e-21)
(0.697709 0.31363 2.23709e-20)
(0.715887 0.295912 -1.7964e-19)
(0.733139 0.279295 -9.47038e-20)
(0.063352 0.127715 9.96232e-20)
(0.164053 0.308528 -2.82556e-20)
(0.249733 0.425164 -1.27702e-19)
(0.319084 0.49065 -1.15743e-19)
(0.375046 0.517963 -2.06264e-20)
(0.420811 0.519477 1.50722e-20)
(0.459266 0.505475 -1.80608e-19)
(0.492751 0.483447 1.34056e-19)
(0.522901 0.458211 -6.10494e-20)
(0.550728 0.432471 -1.38122e-19)
(0.576796 0.407524 -3.29099e-20)
(0.601401 0.383873 -1.23827e-19)
(0.6247 0.36164 -2.53783e-19)
(0.64679 0.340794 2.13525e-20)
(0.667744 0.321256 1.94825e-19)
(0.687624 0.30294 -8.37829e-20)
(0.706449 0.285779 1.00637e-19)
(0.0588184 0.124218 -1.75747e-20)
(0.153147 0.299575 -2.36613e-19)
(0.234827 0.412219 2.35183e-19)
(0.301968 0.475096 -5.76212e-20)
(0.357049 0.500989 8.12105e-20)
(0.402835 0.502002 4.7336e-20)
(0.441857 0.488133 1.91636e-19)
(0.476195 0.466622 -2.27821e-19)
(0.507312 0.442101 1.76383e-19)
(0.536121 0.417149 1.38368e-19)
(0.563138 0.392998 -3.92188e-20)
(0.588637 0.370117 -2.04872e-20)
(0.612771 0.348616 7.38698e-20)
(0.635637 0.328463 -1.25223e-19)
(0.657314 0.309579 -1.64959e-19)
(0.677867 0.291882 6.1686e-20)
(0.697321 0.275304 -6.15337e-20)
(0.0543743 0.120433 -1.74837e-20)
(0.142489 0.28998 7.7627e-20)
(0.220298 0.39846 8.6587e-20)
(0.285323 0.458675 -1.4918e-19)
(0.339582 0.483166 7.54603e-20)
(0.385416 0.483732 -1.91684e-19)
(0.425008 0.47006 -1.5176e-20)
(0.460184 0.449129 1.10387e-20)
(0.492245 0.425377 -1.85564e-20)
(0.522009 0.401264 -1.73644e-19)
(0.549945 0.377952 -7.49741e-21)
(0.57631 0.355879 -2.73717e-20)
(0.601253 0.335146 1.62398e-19)
(0.624872 0.315717 -4.97023e-20)
(0.647249 0.297518 -1.39583e-20)
(0.668453 0.280465 8.11923e-20)
(0.688516 0.264496 2.33265e-19)
(0.0500349 0.116366 -3.28539e-20)
(0.132114 0.279762 -1.92276e-20)
(0.206187 0.383912 -9.50877e-20)
(0.269191 0.441416 5.69964e-20)
(0.322684 0.464525 1.53927e-19)
(0.368589 0.464695 -8.259e-20)
(0.40875 0.451281 -1.31071e-19)
(0.444748 0.43099 1.26836e-19)
(0.477726 0.408062 -4.1649e-20)
(0.508414 0.384833 1.13844e-19)
(0.537239 0.362401 5.11458e-20)
(0.564441 0.341175 -2.94225e-20)
(0.590165 0.321243 -1.1046e-19)
(0.614511 0.302571 1.34658e-19)
(0.637565 0.285083 -3.31699e-20)
(0.659397 0.268703 -1.42507e-19)
(0.680049 0.253365 -4.81664e-20)
(0.0458153 0.112025 6.36746e-20)
(0.122052 0.26894 2.2828e-20)
(0.192534 0.368601 -1.79529e-20)
(0.253614 0.423347 -4.9912e-20)
(0.306395 0.445093 -3.6487e-20)
(0.352391 0.444918 2.04945e-19)
(0.393115 0.431823 3.62864e-20)
(0.429913 0.412229 9.61772e-20)
(0.46378 0.390175 7.01435e-20)
(0.495361 0.367877 -1.88357e-19)
(0.525042 0.346365 -9.69866e-20)
(0.55305 0.326021 1.76805e-19)
(0.579525 0.306924 -5.73579e-21)
(0.604571 0.289037 -1.39155e-19)
(0.628275 0.27229 3.50979e-20)
(0.650713 0.256606 1.66306e-19)
(0.0417298 0.10742 7.29532e-20)
(0.112336 0.257537 -9.33559e-20)
(0.179377 0.352557 -4.11725e-20)
(0.238631 0.4045 -9.01088e-21)
(0.290752 0.424903 -1.17322e-19)
(0.336856 0.424432 -6.09849e-20)
(0.378134 0.411713 -2.51068e-20)
(0.415709 0.392871 -1.92145e-19)
(0.450432 0.371741 -1.43348e-19)
(0.482871 0.350416 1.86765e-19)
(0.513374 0.329863 1.01727e-19)
(0.542155 0.310435 -7.82176e-20)
(0.569351 0.292204 -8.88944e-20)
(0.595068 0.275132 9.45986e-20)
(0.619396 0.259151 -5.26495e-20)
(0.642414 0.244189 7.46001e-20)
(0.0377925 0.102561 8.82803e-20)
(0.102994 0.245574 -1.39022e-19)
(0.166752 0.335808 3.94834e-20)
(0.224278 0.384908 6.79161e-20)
(0.275791 0.403988 -5.53339e-22)
(0.322014 0.403268 -8.17525e-20)
(0.363835 0.390979 7.01868e-20)
(0.40216 0.372941 2.55372e-20)
(0.437705 0.352783 -7.46445e-20)
(0.470965 0.332472 4.89254e-20)
(0.502255 0.312914 -1.27606e-19)
(0.531774 0.294436 -2.78972e-20)
(0.559659 0.277101 1.1241e-19)
(0.586016 0.260872 3.9285e-20)
(0.61094 0.245683 6.07084e-20)
(0.634513 0.231465 -1.1287e-19)
(0.0340167 0.0974582 -8.85723e-20)
(0.0940563 0.233076 -3.52531e-20)
(0.154693 0.318386 6.84652e-20)
(0.210593 0.364606 -1.39021e-19)
(0.261544 0.38238 -6.63325e-20)
(0.307898 0.381457 1.41521e-19)
(0.350246 0.369651 2.20355e-19)
(0.38929 0.352468 6.15637e-20)
(0.425622 0.333325 8.21647e-20)
(0.459665 0.314068 -1.16701e-21)
(0.491703 0.29554 3.76676e-20)
(0.521925 0.278042 1.29549e-19)
(0.550465 0.261632 -1.87151e-20)
(0.577432 0.246272 -2.23615e-19)
(0.602922 0.231899 1.91651e-21)
(0.627023 0.218448 1.21741e-20)
(0.0304152 0.0921224 2.77697e-20)
(0.0855486 0.220069 -6.99198e-20)
(0.143235 0.300326 2.4204e-19)
(0.197608 0.343629 1.21008e-21)
(0.248044 0.360117 8.77841e-20)
(0.294535 0.359032 8.44266e-20)
(0.337392 0.34776 -8.21007e-20)
(0.377125 0.331479 9.56393e-21)
(0.414203 0.313394 -5.14464e-20)
(0.448989 0.295227 1.25393e-20)
(0.481737 0.277762 -1.47035e-21)
(0.512624 0.261275 -5.79653e-20)
(0.541784 0.245817 -2.55336e-20)
(0.569327 0.231351 1.48575e-19)
(0.595355 0.217817 -1.09413e-19)
(0.619955 0.205154 7.20179e-20)
(0.0270002 0.0865658 -5.95698e-20)
(0.0774971 0.20658 -6.50401e-20)
(0.132408 0.28166 -3.52559e-20)
(0.185355 0.322014 8.14303e-20)
(0.235321 0.337234 -6.79869e-20)
(0.281954 0.33603 -1.17076e-19)
(0.325299 0.325337 -6.94848e-20)
(0.365685 0.310003 -1.31977e-19)
(0.403469 0.293015 1.05829e-19)
(0.438956 0.275974 -8.49237e-20)
(0.472372 0.259603 1.78405e-20)
(0.503886 0.244155 1.22677e-20)
(0.53363 0.229674 -5.24065e-20)
(0.561717 0.216126 5.98389e-20)
(0.588249 0.203453 8.87548e-20)
(0.0237833 0.0808007 1.29191e-19)
(0.069926 0.192636 1.28566e-19)
(0.122242 0.262426 -9.52859e-20)
(0.173866 0.2998 -7.96118e-20)
(0.223403 0.313769 2.18112e-20)
(0.27018 0.312484 4.64689e-20)
(0.31399 0.302415 -1.58762e-19)
(0.354991 0.28807 2.53637e-20)
(0.393439 0.272217 -1.0323e-19)
(0.429583 0.256334 8.60158e-20)
(0.463625 0.241086 2.01315e-20)
(0.495726 0.226703 -8.97522e-20)
(0.526017 0.213224 -1.99627e-20)
(0.554613 0.200616 4.65563e-20)
(0.581618 0.188824 2.15838e-20)
(0.0207752 0.0748404 -5.95346e-20)
(0.0628582 0.178266 1.50485e-20)
(0.112764 0.24266 1.77924e-19)
(0.163167 0.277027 9.73843e-20)
(0.212318 0.289761 6.39445e-20)
(0.259237 0.288432 1.18548e-19)
(0.303485 0.279028 1.61464e-20)
(0.345063 0.26571 1.10066e-20)
(0.384131 0.251027 -7.49004e-22)
(0.420887 0.236333 -1.1e-19)
(0.455511 0.222235 5.66003e-20)
(0.488158 0.208942 -8.94299e-20)
(0.518957 0.196488 5.7928e-20)
(0.548026 0.184839 -9.1402e-20)
(0.575471 0.173948 -5.28153e-20)
(0.0179862 0.0686983 -1.27778e-20)
(0.0563147 0.163502 8.66262e-20)
(0.104 0.2224 -1.00962e-19)
(0.153286 0.253734 -4.49179e-20)
(0.202089 0.265249 3.96215e-20)
(0.249147 0.26391 -8.73587e-20)
(0.293806 0.255209 6.50741e-20)
(0.335919 0.242956 9.04529e-21)
(0.37556 0.229475 5.26603e-20)
(0.412881 0.215998 -1.87718e-21)
(0.448044 0.203075 -4.97784e-20)
(0.481194 0.190895 4.82045e-20)
(0.512463 0.179485 -1.21845e-19)
(0.541968 0.168816 1.67085e-19)
(0.569819 0.158843 6.2813e-20)
(0.0154255 0.0623885 -3.69361e-20)
(0.0503153 0.148374 -3.7901e-20)
(0.0959744 0.201686 -5.53823e-20)
(0.144246 0.229965 6.31006e-20)
(0.19274 0.240276 -3.38765e-20)
(0.239932 0.238957 -1.6456e-20)
(0.28497 0.230995 -3.26312e-20)
(0.327575 0.219839 -4.0705e-20)
(0.367742 0.207588 -1.10942e-19)
(0.405581 0.195355 4.75305e-20)
(0.441236 0.18363 -6.49698e-20)
(0.474847 0.172584 1.17242e-19)
(0.506545 0.162238 7.77461e-20)
(0.536449 0.152567 -1.34675e-19)
(0.56467 0.143528 -1.33094e-19)
(0.0131017 0.0559257 3.72831e-20)
(0.0448779 0.132914 -9.69945e-20)
(0.088708 0.180559 -6.5939e-21)
(0.136069 0.205761 -8.62456e-20)
(0.18429 0.214882 -9.50226e-20)
(0.231609 0.213612 1.36389e-19)
(0.276995 0.20642 1.85259e-20)
(0.320047 0.196391 6.55143e-20)
(0.36069 0.185399 6.7696e-20)
(0.398998 0.174432 -1.56844e-20)
(0.435098 0.163927 9.11724e-20)
(0.469126 0.154033 -5.27311e-20)
(0.501212 0.14477 -6.71937e-20)
(0.531477 0.136112 1.05213e-19)
(0.560034 0.128022 1.17595e-19)
(0.0110227 0.0493248 -3.79877e-20)
(0.0400187 0.117154 8.48906e-20)
(0.0822208 0.159059 -9.01557e-20)
(0.128775 0.181167 5.70887e-20)
(0.176759 0.189109 5.26115e-20)
(0.224196 0.187914 -7.36992e-20)
(0.269895 0.181522 3.38448e-20)
(0.313349 0.172648 3.74244e-20)
(0.354418 0.162938 -1.15432e-19)
(0.393145 0.153258 5.54615e-20)
(0.429643 0.143992 6.13563e-21)
(0.464043 0.135268 5.12205e-20)
(0.496475 0.127102 -6.51233e-20)
(0.527062 0.119472 8.00503e-21)
(0.555917 0.112344 -4.94375e-21)
(0.00919543 0.0426012 -4.05878e-20)
(0.0357523 0.101129 5.21686e-20)
(0.0765303 0.137229 9.54192e-20)
(0.122383 0.156226 -1.1715e-20)
(0.170164 0.163001 6.45247e-20)
(0.217708 0.161904 -7.98029e-20)
(0.263685 0.156337 1.94638e-20)
(0.307492 0.148641 -6.76285e-20)
(0.348936 0.140235 2.13875e-22)
(0.388031 0.131862 -1.04187e-19)
(0.424878 0.123851 -7.43913e-20)
(0.459604 0.116312 3.91399e-20)
(0.492341 0.109257 1.0124e-20)
(0.523209 0.102668 -2.64035e-20)
(0.552327 0.0965141 3.47361e-20)
(0.00762609 0.0357707 3.62502e-20)
(0.0320916 0.0848733 1.17793e-20)
(0.0716519 0.115111 2.88725e-20)
(0.116907 0.130983 -4.24652e-20)
(0.164518 0.136602 -1.90627e-20)
(0.212159 0.135622 -3.54678e-20)
(0.258376 0.130903 3.33563e-21)
(0.302488 0.124407 2.40334e-20)
(0.344255 0.117322 7.30039e-20)
(0.383666 0.110273 8.77265e-20)
(0.420813 0.103532 3.34196e-20)
(0.455819 0.0971904 -7.87581e-21)
(0.488816 0.0912597 -1.67017e-20)
(0.519927 0.0857221 -4.13168e-20)
(0.54927 0.0805528 4.91068e-21)
(0.00631998 0.0288492 7.46136e-21)
(0.0290476 0.0684207 -4.96903e-20)
(0.067599 0.0927482 -6.76125e-20)
(0.112362 0.105485 -2.3435e-21)
(0.159836 0.109955 -4.90699e-21)
(0.207559 0.10911 2.37201e-20)
(0.253978 0.105257 -7.26986e-20)
(0.298346 0.0999787 -2.79162e-20)
(0.340382 0.0942323 -4.66944e-20)
(0.380057 0.0885197 1.83982e-21)
(0.417453 0.083061 1.49827e-20)
(0.452694 0.0779291 3.28655e-20)
(0.485908 0.0731324 -6.38016e-21)
(0.517221 0.0686562 2.77505e-20)
(0.546751 0.06448 -1.33546e-20)
(0.00528156 0.021853 -3.21643e-20)
(0.0266295 0.0518068 1.8682e-20)
(0.0643825 0.0701855 -1.85344e-20)
(0.108758 0.0797776 2.28167e-20)
(0.156126 0.0831058 1.74184e-20)
(0.203919 0.0824101 4.87156e-21)
(0.250501 0.0794389 5.60733e-20)
(0.295073 0.0753926 -1.48281e-20)
(0.337325 0.070997 1.29602e-20)
(0.377211 0.0666328 1.51248e-20)
(0.414807 0.0624666 1.0278e-20)
(0.450234 0.0585535 -2.74246e-20)
(0.483621 0.0548993 3.54426e-20)
(0.515094 0.0514923 2.6212e-20)
(0.544774 0.0483165 -1.01278e-20)
(0.0045144 0.0147986 9.87559e-21)
(0.0248448 0.0350672 2.33715e-20)