/*--------------------------------*- C++ -*----------------------------------*\
  =========                 |
  \\      /  F ield         | OpenFOAM: The Open Source CFD Toolbox
   \\    /   O peration     | Website:  https://openfoam.org
    \\  /    A nd           | Version:  7
     \\/     M anipulation  |
\*---------------------------------------------------------------------------*/
FoamFile
{
    version     2.0;
    format      ascii;
    class       volScalarField;
    location    "220";
    object      p;
}
// * * * * * * * * * * * * * * * * * * * * * * * * * * * * * * * * * * * * * //

dimensions      [0 2 -2 0 0 0 0];

internalField   nonuniform List<scalar> 
4575
(
-0.0519914
-0.0484732
-0.0437905
-0.040072
-0.0371977
-0.0366541
-0.0362685
-0.03626
-0.0339293
-0.0322366
-0.0285617
-0.028023
-0.0267643
-0.0280511
-0.0250188
-0.0245951
-0.0180366
-0.0186061
-0.0154988
-0.0177038
-0.00897673
-0.010783
-0.00100361
-0.05352
-0.0498558
-0.0448492
-0.0407292
-0.0373719
-0.0363694
-0.0355668
-0.0353011
-0.0328743
-0.0312754
-0.0279186
-0.0277674
-0.027035
-0.0286644
-0.0259369
-0.0255431
-0.018735
-0.0190113
-0.0152644
-0.0171989
-0.00816191
-0.0100071
-0.000814062
-0.0550609
-0.0512442
-0.045906
-0.0413811
-0.0375421
-0.0360849
-0.0348699
-0.0343476
-0.031823
-0.0303137
-0.0272735
-0.0275088
-0.0273034
-0.0292752
-0.0268544
-0.0264884
-0.0194335
-0.0194147
-0.0150293
-0.0166914
-0.00735008
-0.00923031
-0.000625977
-0.0566128
-0.0526378
-0.0469607
-0.0420277
-0.0377088
-0.0358012
-0.0341783
-0.0334002
-0.0307761
-0.0293518
-0.0266267
-0.0272469
-0.0275691
-0.0298829
-0.0277707
-0.0274307
-0.0201317
-0.0198161
-0.0147939
-0.0161815
-0.0065417
-0.00845281
-0.000439303
-0.0581748
-0.0540361
-0.048013
-0.0426691
-0.0378721
-0.0355185
-0.0334926
-0.0324592
-0.029734
-0.02839
-0.0259781
-0.0269816
-0.0278316
-0.0304872
-0.0286853
-0.0283694
-0.0208294
-0.0202156
-0.0145586
-0.0156697
-0.00573727
-0.00767491
-0.000253989
-0.0597457
-0.0554384
-0.0490626
-0.0433053
-0.0380325
-0.0352376
-0.0328133
-0.0315253
-0.0286972
-0.0274287
-0.0253279
-0.0267127
-0.0280907
-0.0310876
-0.0295975
-0.0293043
-0.0215264
-0.0206133
-0.0143236
-0.0151561
-0.00493724
-0.00689686
-6.9983e-05
-0.0613243
-0.0568441
-0.0501093
-0.0439364
-0.0381903
-0.0349588
-0.0321409
-0.0305989
-0.0276664
-0.0264682
-0.0246761
-0.02644
-0.0283458
-0.0316836
-0.0305069
-0.0302349
-0.0222223
-0.0210091
-0.0140894
-0.0146412
-0.00414209
-0.00611893
0.000112769
-0.0629095
-0.0582527
-0.0511528
-0.0445624
-0.0383458
-0.0346825
-0.031476
-0.0296806
-0.0266419
-0.0255088
-0.0240229
-0.0261634
-0.0285965
-0.0322747
-0.0314129
-0.0311608
-0.022917
-0.021403
-0.0138562
-0.0141252
-0.00335228
-0.00534137
0.000294319
-0.0645
-0.0596634
-0.052193
-0.0451834
-0.0384992
-0.0344093
-0.0308191
-0.0287707
-0.0256243
-0.0245509
-0.0233683
-0.0258825
-0.0288425
-0.0328607
-0.0323151
-0.0320817
-0.0236102
-0.0217951
-0.0136243
-0.0136085
-0.00256824
-0.00456443
0.000474721
-0.0660947
-0.0610758
-0.0532295
-0.0457994
-0.0386509
-0.0341394
-0.0301706
-0.0278698
-0.024614
-0.0235948
-0.0227124
-0.0255973
-0.0290835
-0.033441
-0.0332128
-0.0329971
-0.0243016
-0.0221852
-0.0133942
-0.0130915
-0.00179044
-0.00378838
0.000654028
-0.0676923
-0.062489
-0.0542622
-0.0464105
-0.0388011
-0.0338734
-0.029531
-0.0269785
-0.0236116
-0.0226408
-0.0220552
-0.0253076
-0.0293189
-0.0340152
-0.0341056
-0.0339067
-0.0249909
-0.0225735
-0.0131661
-0.0125743
-0.0010193
-0.00301346
0.000832294
-0.0692913
-0.0639027
-0.0552909
-0.0470168
-0.03895
-0.0336115
-0.0289007
-0.026097
-0.0226175
-0.0216893
-0.021397
-0.0250132
-0.0295485
-0.034583
-0.0349929
-0.0348101
-0.0256779
-0.0229599
-0.0129404
-0.0120575
-0.000255264
-0.00223992
0.00100957
-0.0708906
-0.065316
-0.0563153
-0.0476183
-0.039098
-0.0333541
-0.0282803
-0.0252259
-0.0216323
-0.0207405
-0.0207377
-0.0247139
-0.0297718
-0.0351439
-0.0358743
-0.0357069
-0.0263623
-0.0233444
-0.0127173
-0.0115412
0.000501249
-0.00146801
0.00118591
-0.0724887
-0.0667283
-0.0573353
-0.048215
-0.0392451
-0.0331015
-0.02767
-0.0243657
-0.0206566
-0.0197949
-0.0200774
-0.0244096
-0.0299886
-0.0356976
-0.0367493
-0.0365967
-0.0270438
-0.0237269
-0.0124972
-0.0110258
0.00124982
-0.000697975
0.00136137
-0.0740843
-0.068139
-0.0583508
-0.0488071
-0.0393916
-0.032854
-0.0270704
-0.0235167
-0.0196908
-0.0188527
-0.0194163
-0.0241001
-0.0301985
-0.0362437
-0.0376174
-0.0374791
-0.027722
-0.0241074
-0.0122803
-0.0105116
0.00199005
6.99467e-05
0.00153599
-0.0756758
-0.0695474
-0.0593614
-0.0493945
-0.0395378
-0.0326119
-0.0264818
-0.0226794
-0.0187354
-0.0179142
-0.0187543
-0.0237852
-0.0304012
-0.0367819
-0.0384781
-0.0383539
-0.0283968
-0.024486
-0.012067
-0.009999
0.00272153
0.000835509
0.00170984
-0.0772619
-0.0709527
-0.0603671
-0.0499773
-0.0396837
-0.0323754
-0.0259045
-0.0218543
-0.0177909
-0.0169799
-0.0180917
-0.0234649
-0.0305963
-0.0373118
-0.039331
-0.0392205
-0.0290678
-0.0248625
-0.0118575
-0.0094882
0.00344387
0.00159847
0.00188295
-0.078841
-0.0723543
-0.0613677
-0.0505555
-0.0398296
-0.0321449
-0.0253389
-0.0210417
-0.0168577
-0.0160499
-0.0174284
-0.0231389
-0.0307835
-0.0378331
-0.0401757
-0.0400788
-0.0297347
-0.025237
-0.0116522
-0.00897955
0.0041567
0.0023586
0.00205538
-0.0804117
-0.0737514
-0.062363
-0.0511293
-0.0399755
-0.0319203
-0.0247853
-0.020242
-0.0159362
-0.0151246
-0.0167646
-0.0228071
-0.0309625
-0.0383455
-0.0410116
-0.0409282
-0.0303972
-0.0256093
-0.0114512
-0.00847333
0.00485963
0.00311565
0.00222717
-0.0819723
-0.0751433
-0.0633529
-0.0516985
-0.0401217
-0.0317021
-0.024244
-0.0194556
-0.0150269
-0.0142044
-0.0161004
-0.0224695
-0.0311331
-0.0388487
-0.0418385
-0.0417686
-0.031055
-0.0259795
-0.0112548
-0.00796986
0.00555231
0.0038694
0.00239838
-0.0835214
-0.0765291
-0.0643371
-0.0522634
-0.0402682
-0.0314903
-0.0237153
-0.0186829
-0.0141303
-0.0132895
-0.0154359
-0.0221259
-0.031295
-0.0393424
-0.0426558
-0.0425994
-0.0317078
-0.0263475
-0.0110634
-0.00746942
0.00623437
0.0046196
0.00256906
-0.0850572
-0.077908
-0.0653156
-0.0528239
-0.0404152
-0.031285
-0.0231994
-0.0179242
-0.0132467
-0.0123803
-0.0147711
-0.0217761
-0.0314479
-0.0398264
-0.0434632
-0.0434206
-0.0323552
-0.0267131
-0.010877
-0.0069723
0.00690549
0.00536602
0.00273923
-0.0865784
-0.0792792
-0.0662882
-0.05338
-0.0405628
-0.0310864
-0.0226965
-0.0171799
-0.0123767
-0.0114771
-0.0141063
-0.0214202
-0.0315915
-0.0403003
-0.0442604
-0.0442316
-0.0329969
-0.0270765
-0.010696
-0.00647878
0.00756531
0.00610844
0.00290896
-0.0880832
-0.0806419
-0.0672547
-0.0539319
-0.0407111
-0.0308946
-0.0222069
-0.0164503
-0.0115206
-0.0105802
-0.0134415
-0.021058
-0.0317256
-0.040764
-0.0450469
-0.0450322
-0.0336327
-0.0274374
-0.0105205
-0.00598915
0.00821352
0.00684662
0.00307828
-0.08957
-0.0819952
-0.0682148
-0.0544795
-0.0408601
-0.0307097
-0.0217307
-0.0157357
-0.0106788
-0.00968989
-0.0127768
-0.0206894
-0.03185
-0.0412172
-0.0458224
-0.0458221
-0.0342621
-0.0277957
-0.0103507
-0.00550366
0.00884981
0.00758033
0.00324723
-0.0910371
-0.083338
-0.0691685
-0.0550229
-0.0410099
-0.0305317
-0.0212681
-0.0150364
-0.00985187
-0.00880654
-0.0121123
-0.0203145
-0.0319645
-0.0416597
-0.0465865
-0.046601
-0.0348849
-0.0281516
-0.0101868
-0.0050226
0.00947386
0.00830934
0.00341587
-0.0924831
-0.0846696
-0.0701155
-0.0555621
-0.0411606
-0.0303606
-0.0208193
-0.0143528
-0.00904004
-0.00793046
-0.0114483
-0.019933
-0.0320688
-0.0420913
-0.0473391
-0.0473687
-0.0355008
-0.0285047
-0.010029
-0.00454622
0.0100854
0.00903342
0.00358421
-0.0939062
-0.0859888
-0.0710557
-0.0560973
-0.0413123
-0.0301965
-0.0203842
-0.013685
-0.00824374
-0.00706196
-0.0107847
-0.0195451
-0.0321628
-0.0425118
-0.0480796
-0.0481248
-0.0361093
-0.028855
-0.00987749
-0.00407479
0.0106841
0.00975235
0.00375232
-0.0953049
-0.0872948
-0.0719887
-0.0566283
-0.0414649
-0.0300394
-0.0199631
-0.0130334
-0.00746334
-0.00620139
-0.0101219
-0.0191506
-0.0322462
-0.0429211
-0.048808
-0.0488691
-0.0367102
-0.0292025
-0.00973232
-0.00360854
0.0112697
0.0104659
0.00392021
-0.0966775
-0.0885864
-0.0729143
-0.0571552
-0.0416186
-0.0298893
-0.0195559
-0.0123982
-0.00669922
-0.00534906
-0.00945987
-0.0187495
-0.032319
-0.043319
-0.0495238
-0.0496013
-0.0373032
-0.029547
-0.00959364
-0.00314773
0.011842
0.0111738
0.00408794
-0.0980225
-0.0898627
-0.0738324
-0.0576782
-0.0417734
-0.029746
-0.0191626
-0.0117795
-0.00595174
-0.00450532
-0.00879885
-0.0183419
-0.0323809
-0.0437053
-0.0502268
-0.0503213
-0.0378879
-0.0298884
-0.00946156
-0.00269259
0.0124007
0.0118759
0.00425554
-0.0993382
-0.0911225
-0.0747425
-0.0581971
-0.0419292
-0.0296097
-0.0187833
-0.0111778
-0.00522127
-0.00367053
-0.00813901
-0.0179278
-0.0324319
-0.0440799
-0.0509169
-0.0510287
-0.038464
-0.0302265
-0.00933618
-0.00224337
0.0129456
0.012572
0.00442304
-0.100623
-0.0923645
-0.0756444
-0.0587123
-0.0420863
-0.0294804
-0.0184181
-0.0105932
-0.00450826
-0.00284509
-0.00748054
-0.0175071
-0.0324717
-0.0444427
-0.0515936
-0.0517233
-0.0390311
-0.0305614
-0.0092176
-0.00180033
0.0134763
0.0132617
0.00459047
-0.101875
-0.0935878
-0.076538
-0.0592238
-0.0422447
-0.0293579
-0.0180668
-0.0100259
-0.00381304
-0.0020294
-0.00682367
-0.01708
-0.0325003
-0.0447936
-0.0522569
-0.052405
-0.0395889
-0.0308928
-0.00910587
-0.00136365
0.0139928
0.0139449
0.00475787
-0.103094
-0.0947924
-0.0774232
-0.0597313
-0.0424037
-0.0292414
-0.0177281
-0.00947493
-0.00313499
-0.00122343
-0.00616848
-0.0166464
-0.0325175
-0.0451325
-0.0529067
-0.0530738
-0.0401375
-0.0312205
-0.00900089
-0.000933286
0.0144949
0.0146214
0.00492529
-0.104282
-0.0959781
-0.0782985
-0.0602325
-0.0425614
-0.0291291
-0.0174006
-0.0089391
-0.00247299
-0.000426719
-0.00551482
-0.0162065
-0.0325236
-0.04546
-0.0535433
-0.0537298
-0.0406763
-0.0315438
-0.0089023
-0.000509198
0.0149827
0.015291
0.00509275
-0.105429
-0.0971346
-0.0791579
-0.0607272
-0.0427197
-0.029025
-0.0170903
-0.00842554
-0.00183343
0.000357457
-0.00486409
-0.0157605
-0.0325182
-0.0457749
-0.054165
-0.0543707
-0.0412031
-0.0318634
-0.00881042
-9.33367e-05
0.0154551
0.0159532
0.00526023
-0.106494
-0.0982368
-0.0800025
-0.0612316
-0.0428962
-0.028947
-0.0168178
-0.00795699
-0.00123992
0.00111459
-0.00422304
-0.0153089
-0.0324967
-0.0460694
-0.0547631
-0.0549896
-0.0417148
-0.0321833
-0.00872866
0.00030883
0.0159089
0.016607
0.00542759
-0.107486
-0.0993242
-0.0808775
-0.0617751
-0.0431071
-0.0288971
-0.0165732
-0.00751669
-0.000678176
0.00185076
-0.00358922
-0.0148488
-0.032454
-0.0463406
-0.0553397
-0.0555947
-0.0422225
-0.0325068
-0.0086613
0.000702033
0.0163448
0.0172531
0.00559527
-0.108814
-0.100667
-0.0818462
-0.0622882
-0.0432525
-0.0287501
-0.0161873
-0.00689603
8.23721e-05
0.00272291
-0.00288077
-0.0143716
-0.0324443
-0.046678
-0.0559912
-0.0562608
-0.0427698
-0.0328073
-0.00859078
0.00113895
0.0167917
0.0179037
0.00576606
-0.113468
-0.104578
-0.0841448
-0.0632033
-0.0433195
-0.0281303
-0.0149036
-0.00493399
0.00252985
0.00526299
-0.000930602
-0.0132512
-0.0326857
-0.0478149
-0.0577701
-0.0579519
-0.0440576
-0.0333652
-0.00840678
0.0022035
0.0178095
0.0192953
0.00613238
-0.116653
-0.107414
-0.085783
-0.0635482
-0.0428263
-0.0270421
-0.0134034
-0.00307036
0.00462297
0.00745515
0.000824724
-0.0121436
-0.0329158
-0.048947
-0.059533
-0.0597302
-0.0453662
-0.0339352
-0.00813455
0.00351997
0.0191366
0.0211036
0.00663025
-0.119318
-0.110002
-0.0871676
-0.06369
-0.0421918
-0.0259119
-0.0119398
-0.00128662
0.00661241
0.00950385
0.0024075
-0.0110939
-0.0330961
-0.0499469
-0.0611221
-0.0613746
-0.0465256
-0.0344275
-0.00789888
0.00477012
0.0203627
0.0228047
0.00711679
-0.121821
-0.112298
-0.0882598
-0.0635805
-0.041376
-0.0246967
-0.0104823
0.000458536
0.00856496
0.0115766
0.00405245
-0.00997218
-0.0332475
-0.0509694
-0.0626906
-0.0629276
-0.0475518
-0.03482
-0.00769011
0.00596803
0.0214821
0.0244151
0.00760838
-0.123727
-0.114041
-0.0889416
-0.0631777
-0.0403668
-0.0233939
-0.00903393
0.00212257
0.0103873
0.0135716
0.00568579
-0.00883019
-0.0333743
-0.051994
-0.0641654
-0.0643282
-0.0483989
-0.0350906
-0.00750596
0.0070953
0.0224767
0.0259044
0.00809867
-0.124847
-0.115121
-0.0891561
-0.0624606
-0.0391597
-0.022004
-0.00760008
0.00368986
0.0120619
0.0154307
0.00723827
-0.00770596
-0.0334563
-0.0529673
-0.0654945
-0.0655473
-0.0490443
-0.0352233
-0.00734441
0.00814056
0.0233354
0.0272487
0.00857824
-0.125103
-0.115449
-0.0888465
-0.0614085
-0.0377523
-0.0205295
-0.00618489
0.00515406
0.0135796
0.0171341
0.00868951
-0.00660047
-0.0334723
-0.053865
-0.0666651
-0.0665678
-0.0494694
-0.0352008
-0.00720099
0.00909569
0.0240491
0.0284316
0.00903946
-0.124407
-0.114935
-0.0879567
-0.0600034
-0.0361456
-0.0189748
-0.00479214
0.00650875
0.0149271
0.0186689
0.0100327
-0.00550965
-0.0334108
-0.0546757
-0.0676635
-0.0673676
-0.0496548
-0.0350057
-0.00706867
0.00995311
0.0246096
0.0294369
0.00947464
-0.12267
-0.113498
-0.0864376
-0.0582314
-0.0343444
-0.017347
-0.00342618
0.00774795
0.0160924
0.020019
0.0112557
-0.00443759
-0.0332627
-0.0553782
-0.0684645
-0.0679199
-0.0495823
-0.0346214
-0.00693767
0.0107059
0.0250095
0.0302473
0.00987511
-0.119833
-0.111079
-0.0842497
-0.0560841
-0.0323576
-0.0156557
-0.00209192
0.00886701
0.017065
0.0211657
0.0123409
-0.0033922
-0.0330119
-0.0559384
-0.0690351
-0.0681942
-0.0492349
-0.0340329
-0.0067954
0.0113483
0.0252423
0.0308454
0.0102313
-0.115862
-0.107641
-0.0813671
-0.0535596
-0.0301979
-0.0139126
-0.000794813
0.00986283
0.0178364
0.0220897
0.0132692
-0.00238047
-0.0326349
-0.056311
-0.0693339
-0.0681554
-0.0485981
-0.0332278
-0.00662659
0.0118759
0.0253031
0.031214
0.0105332
-0.110757
-0.103174
-0.077781
-0.0506634
-0.0278823
-0.0121315
0.000459252
0.0107342
0.0184012
0.022773
0.0140225
-0.00140822
-0.032103
-0.0564402
-0.0693095
-0.0677637
-0.0476601
-0.0321975
-0.00641372
0.0122861
0.0251879
0.0313376
0.0107703
-0.104553
-0.0977005
-0.0735031
-0.0474103
-0.0254311
-0.0103275
0.00166427
0.0114825
0.0187583
0.0232
0.0145844
-0.000481251
-0.031383
-0.056258
-0.0688994
-0.0669744
-0.0464127
-0.0309381
-0.00613776
0.0125784
0.0248945
0.031202
0.0109321
-0.0973192
-0.0912768
-0.0685679
-0.0438249
-0.0228678
-0.00851676
0.00281459
0.0121114
0.0189119
0.0233591
0.014941
0.000394628
-0.030438
-0.0556859
-0.0680312
-0.0657391
-0.0448517
-0.0294521
-0.00577948
0.0127547
0.0244223
0.0307962
0.011008
-0.0891588
-0.0839923
-0.063034
-0.0399424
-0.0202182
-0.00671519
0.00390549
0.0126281
0.0188735
0.0232447
0.0150828
0.00121462
-0.0292286
-0.0546381
-0.0666261
-0.064008
-0.0429785
-0.0277487
-0.0053213
0.0128197
0.0237729
0.0301131
0.0109882
-0.0802101
-0.075973
-0.0569861
-0.0358091
-0.0175099
-0.00493817
0.00493393
0.0130421
0.0186623
0.0228595
0.0150074
0.0019758
-0.0277175
-0.0530276
-0.0646052
-0.0617346
-0.0407998
-0.0258448
-0.00474949
0.0127814
0.0229509
0.0291507
0.010864
-0.0706452
-0.0673795
-0.0505335
-0.0314821
-0.0147711
-0.00319946
0.00589909
0.0133659
0.018305
0.0222174
0.0147212
0.00267784
-0.0258733
-0.0507762
-0.0618988
-0.058881
-0.038329
-0.0237653
-0.00405656
0.0126512
0.0219646
0.0279145
0.0106287
-0.0606684
-0.0584016
-0.0438071
-0.027028
-0.0120304
-0.00151057
0.00680263
0.0136152
0.0178357
0.0213448
0.0142425
0.00332365
-0.0236769
-0.047826
-0.0584573
-0.0554245
-0.0355857
-0.0215419
-0.00324342
0.0124438
0.0208276
0.0264182
0.0102786
-0.0505095
-0.049253
-0.0369552
-0.0225209
-0.00931544
0.000119793
0.00764864
0.013808
0.0172959
0.0202761
0.0136031
0.00391979
-0.0211271
-0.0441532
-0.0542647
-0.051366
-0.0325968
-0.0192128
-0.00232118
0.0121776
0.0195603
0.0246865
0.00981441
-0.0404203
-0.0401643
-0.0301366
-0.0180396
-0.00665277
0.0016859
0.00844347
0.0139632
0.0167323
0.0190807
0.0128494
0.00447663
-0.0182458
-0.0397782
-0.0493484
-0.0467388
-0.0293962
-0.0168198
-0.00131155
0.0118735
0.0181916
0.0227564
0.00924278
-0.0306635
-0.0313685
-0.0235105
-0.0136635
-0.00406677
0.00318494
0.0091951
0.0140994
0.0161931
0.0178288
0.0120416
0.00500835
-0.0150809
-0.0347736
-0.043789
-0.0416151
-0.0260256
-0.0144063
-0.000245436
0.0115544
0.0167607
0.020678
0.008578
-0.0214973
-0.0230829
-0.0172245
-0.00946819
-0.00157949
0.00461649
0.0099123
0.0142345
0.0157237
0.0166015
0.0112528
0.00553287
-0.011707
-0.0292677
-0.0377221
-0.0361062
-0.0225342
-0.0120142
0.000840672
0.0112431
0.0153182
0.0185148
0.00784331
-0.0131538
-0.0154903
-0.0114022
-0.00551992
0.000789596
0.00598148
0.0106034
0.0143838
0.0153638
0.0154846
0.0105631
0.00607084
-0.00822018
-0.02344
-0.0313329
-0.0303581
-0.0189781
-0.00968132
0.00190944
0.0109609
0.0139257
0.0163421
0.00707153
-0.00580824
-0.00871877
-0.00613355
-0.00187169
0.00302369
0.00728087
0.0112746
0.0145576
0.0151439
0.014562
0.0100507
0.00664378
-0.00473057
-0.0175087
-0.0248426
-0.024545
-0.0154205
-0.00743896
0.00292748
0.0107247
0.0126529
0.0142436
0.00630404
0.000443971
-0.00285307
-0.00146736
0.00144013
0.00510878
0.00851449
0.0119289
0.0147604
0.0150763
0.0139019
0.00978446
0.00727282
-0.00135264
-0.0117084
-0.0184892
-0.0188565
-0.0119308
-0.00531143
0.00386944
0.0105447
0.0115702
0.0123044
0.0055875
0.00560507
0.00213469
0.00258821
0.00439649
0.00703352
0.0096806
0.0125665
0.0149903
0.0151525
0.0135441
0.00981009
0.00797457
0.00180661
-0.00626639
-0.012506
-0.0134764
-0.00858156
-0.00331584
0.00471982
0.0104215
0.0107345
0.0106009
0.00496768
0.00976137
0.00629851
0.00605327
0.00699393
0.00878934
0.0107759
0.0131842
0.0152404
0.0153463
0.0134908
0.0101358
0.00875624
0.0046598
-0.00137777
-0.00709469
-0.00857508
-0.00544305
-0.0014635
0.00547258
0.0103457
0.0101739
0.00918557
0.00448014
0.0130429
0.00971131
0.00896664
0.00924221
0.0103708
0.0117959
0.0137768
0.015501
0.0156181
0.013703
0.0107282
0.00961455
0.00714955
0.00281669
-0.00240075
-0.00427739
-0.00257683
0.000238065
0.00612907
0.0103004
0.00987687
0.00808279
0.00413978
0.0155856
0.012461
0.0113789
0.0111615
0.0117762
0.0127357
0.014337
0.0157605
0.0159223
0.0141084
0.0115187
0.010537
0.00925352
0.00624606
0.00150204
-0.000637055
-2.85705e-05
0.00178326
0.00669476
0.0102631
0.00979101
0.00728653
0.00393038
0.0175136
0.0146368
0.0133467
0.0127794
0.0130084
0.0135911
0.0148577
0.0160074
0.0162175
0.0146179
0.0124174
0.0115023
0.0109844
0.0089143
0.00461537
0.00234247
0.0021766
0.00316742
0.00717644
0.0102093
0.00982969
0.00676451
0.00380731
0.0189381
0.0163259
0.0149284
0.0141274
0.014074
0.0143591
0.015333
0.0162335
0.0164736
0.0151437
0.013329
0.0124739
0.012376
0.0108925
0.00700787
0.00471134
0.00403618
0.0043869
0.0075805
0.0101176
0.0098895
0.00637526
0.00373599
0.0199574
0.0176119
0.0161824
0.0152388
0.0149833
0.0150384
0.0157589
0.0164343
0.0166762
0.0156177
0.0141677
0.0133934
0.0134616
0.0122924
0.00878957
0.00655368
0.00556878
0.00544077
0.00791162
0.00997422
0.00988668
0.00610089
0.00366319
0.0206588
0.0185713
0.0171631
0.0161453
0.0157489
0.0156293
0.0161323
0.016607
0.0168236
0.0160003
0.01487
0.0141919
0.0142646
0.0132362
0.0100835
0.00796467
0.00680688
0.00633168
0.00817315
0.00977513
0.00977274
0.00589315
0.00355266
0.0211161
0.0192701
0.0179188
0.016876
0.0163844
0.016134
0.0164522
0.01675
0.0169196
0.0162774
0.0154025
0.0148162
0.0148068
0.013835
0.0110037
0.00903199
0.00778762
0.00706591
0.00836812
0.00952475
0.00953408
0.00571602
0.00339267
0.0213892
0.0197636
0.0184903
0.0174569
0.0169039
0.0165566
0.0167191
0.0168633
0.0169707
0.0164531
0.0157645
0.0152479
0.015122
0.0141805
0.0116433
0.00982696
0.00854735
0.00765344
0.00849997
0.00923374
0.00918577
0.00554627
0.00318897
0.0200969
0.0189124
0.0179106
0.0173211
0.0169027
0.0169351
0.0169478
0.0169845
0.0165431
0.0159784
0.0155026
0.0152562
0.0143439
0.012073
0.0104049
0.0091195
0.00809592
0.00857368
0.00891656
0.0087584
0.00536697
0.00295511
0.0203066
0.0192145
0.0182572
0.0176491
0.0171794
0.0171036
0.0170051
0.0169684
0.0165662
0.0160755
0.0156153
0.0152591
0.0143789
0.0123456
0.0108096
0.00953511
0.00843734
0.0085962
0.00858775
0.00828566
0.00516702
0.00270636
0.0204219
0.0194203
0.018514
0.0178999
0.0173939
0.0172287
0.0170376
0.016929
0.0165399
0.0160861
0.0156242
0.0151744
0.0143254
0.0125007
0.0110762
0.00981849
0.00867825
0.0085731
0.00825937
0.00779757
0.00494303
0.00245673
0.0204652
0.0195493
0.018696
0.0180846
0.0175541
0.0173154
0.0170482
0.0168713
0.0164786
0.0160363
0.0155619
0.0150356
0.014213
0.0125681
0.0112343
0.010005
0.00883495
0.00851078
0.00794006
0.00731709
0.00469943
0.00221784
0.0204545
0.0196167
0.0188161
0.0182133
0.0176673
0.0173685
0.0170394
0.0167996
0.0163935
0.0159463
0.0154532
0.0148661
0.014063
0.0125706
0.0113093
0.0101096
0.00892138
0.00841625
0.00763578
0.00686032
0.00444528
0.00199785
0.0204035
0.0196309
0.0188857
0.0182952
0.0177406
0.017393
0.0170141
0.0167179
0.0162925
0.0158301
0.0153155
0.0146817
0.0138908
0.0125253
0.0113216
0.0101489
0.00895047
0.0082967
0.00735027
0.00643716
0.00418881
0.0018014
0.0203241
0.0196148
0.0189156
0.0183385
0.0177806
0.0173935
0.0169747
0.0166288
0.016181
0.0156981
0.0151614
0.0144921
0.013707
0.0124455
0.011287
0.0101377
0.00893454
0.00815917
0.0070851
0.00605237
0.00394456
0.00163064
0.0202251
0.0195721
0.0189137
0.0183503
0.0177929
0.0173742
0.0169236
0.0165345
0.0160621
0.0155578
0.0149993
0.0143033
0.013519
0.0123414
0.0112183
0.0100886
0.00888417
0.00801003
0.00684063
0.00570708
0.00371612
0.001485
0.0201129
0.019508
0.0188865
0.0183367
0.0177825
0.0173387
0.0168632
0.0164374
0.0159428
0.0154146
0.0148349
0.014119
0.0133319
0.0122208
0.0111253
0.0100117
0.0088083
0.00785468
0.00661792
0.00540025
0.00350733
0.00136234
0.0199923
0.0194282
0.0188398
0.0183029
0.0177538
0.0172904
0.0167956
0.0163384
0.0158232
0.0152722
0.0146722
0.0139415
0.0131491
0.0120898
0.0110162
0.00991529
0.00871435
0.00769707
0.00641437
0.00514801
0.00332041
0.00125984
0.0198672
0.0193375
0.0187783
0.0182536
0.0177109
0.0172324
0.0167225
0.0162389
0.0157048
0.0151327
0.0145137
0.0137718
0.0129727
0.0119533
0.0108968
0.00980582
0.00860844
0.00754074
0.00622805
0.00491352
0.00315417
0.00117455
0.0197407
0.0192398
0.0187034
0.0181927
0.0176571
0.0171672
0.0166456
0.0161398
0.0155887
0.0149977
0.0143612
0.0136107
0.0128042
0.0118149
0.0107719
0.00968861
0.00849561
0.00738872
0.00605829
0.00471082
0.00300793
0.00110363
0.019615
0.0191386
0.0186251
0.0181242
0.0175954
0.0170969
0.0165664
0.0160423
0.0154761
0.0148685
0.0142159
0.0134585
0.0126446
0.0116776
0.0106454
0.00956795
0.00837991
0.00724325
0.00590431
0.00453577
0.00288014
0.00104456
0.0194924
0.0190364
0.0185424
0.0180507
0.0175284
0.0170236
0.0164863
0.0159471
0.0153676
0.0147456
0.0140784
0.0133156
0.0124944
0.0115437
0.0105201
0.00944723
0.00826462
0.00710595
0.00576505
0.00438469
0.00276917
0.000995222
0.0193743
0.0189354
0.0184578
0.0179746
0.0174584
0.0169491
0.0164064
0.015855
0.0152641
0.0146297
0.0139495
0.013182
0.0123543
0.0114151
0.0103983
0.00932919
0.00815234
0.00697791
0.00563953
0.00425439
0.00267332
0.000953889
0.0192621
0.0188373
0.0183734
0.0178968
0.0173873
0.016875
0.0163284
0.015767
0.0151661
0.0145213
0.0138296
0.013058
0.0122245
0.0112933
0.0102821
0.00921601
0.00804506
0.00685988
0.00552693
0.00414213
0.00259093
0.000919187
0.0191568
0.0187438
0.0182913
0.0178216
0.0173172
0.0168029
0.0162533
0.0156837
0.0150743
0.0144208
0.0137191
0.0129439
0.0121053
0.0111796
0.010173
0.00910942
0.00794437
0.00675236
0.00542655
0.00404562
0.00252049
0.000890036
0.0190595
0.0186561
0.0182134
0.0177494
0.0172496
0.0167339
0.0161821
0.0156061
0.0149895
0.0143288
0.0136185
0.0128401
0.0119972
0.0110751
0.0100722
0.00901083
0.00785152
0.00665567
0.00533781
0.00396297
0.00246063
0.000865595
0.0189711
0.0185757
0.018141
0.0176818
0.017186
0.0166695
0.0161161
0.0155351
0.0149124
0.0142457
0.0135282
0.0127469
0.0119005
0.0109807
0.00998079
0.00892142
0.00776753
0.00657005
0.00526029
0.00389271
0.00241022
0.000845212
0.0188925
0.0185035
0.0180754
0.0176202
0.0171277
0.016611
0.0160563
0.0154713
0.0148438
0.0141722
0.0134488
0.0126648
0.0118156
0.0108972
0.0098998
0.00884218
0.00769328
0.00649567
0.00519368
0.00383368
0.00236831
0.000828387
0.0188246
0.0184407
0.0180178
0.017566
0.0170763
0.0165595
0.0160038
0.0154159
0.0147844
0.0141088
0.0133807
0.0125945
0.011743
0.0108254
0.0098301
0.008774
0.00762953
0.00643273
0.0051378
0.00378506
0.00233415
0.000814743
0.0187683
0.0183883
0.0179696
0.0175203
0.017033
0.0165162
0.0159598
0.0153696
0.014735
0.0140565
0.0133247
0.0125366
0.0116834
0.0107662
0.00977252
0.00871771
0.007577
0.00638145
0.00509261
0.00374629
0.00230721
0.000803998
0.0187245
0.0183475
0.0179318
0.0174845
0.0169988
0.0164821
0.0159253
0.0153335
0.0146966
0.0140158
0.0132813
0.0124918
0.0116373
0.0107204
0.00972793
0.00867412
0.00753641
0.00634216
0.00505821
0.00371708
0.00228714
0.000795947
0.0186943
0.0183192
0.0179055
0.0174596
0.016975
0.0164583
0.0159013
0.0153084
0.0146701
0.0139878
0.0132515
0.012461
0.0116057
0.0106888
0.00969724
0.00864407
0.0075085
0.00631526
0.00503485
0.00369733
0.00227384
0.000790456
0.0186787
0.0183045
0.0178919
0.0174465
0.0169626
0.0164459
0.0158888
0.0152953
0.0146564
0.0139732
0.0132362
0.012445
0.0115894
0.0106725
0.00968144
0.00862843
0.00749417
0.00630125
0.00502302
0.00368704
0.0022674
0.00078752
0.0182399
0.0180414
0.0178101
0.0175417
0.0172356
0.0168864
0.0164938
0.016051
0.0155601
0.0150116
0.0144116
0.0137455
0.013022
0.0122213
0.0113508
0.0103888
0.00933939
0.00818466
0.00692747
0.00555796
0.0040888
0.00251572
0.000872213
0.0182558
0.0180572
0.017826
0.0175579
0.0172523
0.0169035
0.0165113
0.0160686
0.0155781
0.0150296
0.0144302
0.0137645
0.0130424
0.0122425
0.0113736
0.0104126
0.00936405
0.00820903
0.00695067
0.00557821
0.00410499
0.00252561
0.000876159
0.0182864
0.0180875
0.0178566
0.0175893
0.0172844
0.0169365
0.0165449
0.0161027
0.0156126
0.0150644
0.0144661
0.0138012
0.0130815
0.0122836
0.0114177
0.0104588
0.00941167
0.00825666
0.00699555
0.005618
0.00413632
0.00254527
0.000883622
0.0183303
0.0181312
0.0179008
0.0176347
0.0173309
0.0169845
0.0165937
0.0161522
0.0156626
0.0151145
0.0145178
0.0138541
0.0131379
0.0123432
0.0114816
0.0105262
0.00948114
0.00832645
0.00706131
0.00567663
0.0041823
0.00257427
0.000894468
0.0183861
0.0181869
0.0179573
0.0176929
0.0173908
0.0170463
0.0166565
0.0162158
0.0157267
0.0151788
0.0145839
0.0139218
0.0132103
0.0124197
0.0115642
0.0106136
0.00957158
0.00841769
0.00714739
0.00575378
0.00424265
0.00261225
0.000908643
0.0184526
0.0182534
0.0180251
0.017763
0.017463
0.017121
0.0167324
0.0162927
0.0158038
0.0152558
0.014663
0.0140027
0.0132974
0.012512
0.0116644
0.0107201
0.00968227
0.0085299
0.00725351
0.00584943
0.00431719
0.00265896
0.000926128
0.0185282
0.0183295
0.0181029
0.017844
0.0175467
0.017208
0.0168206
0.0163818
0.0158926
0.0153443
0.0147536
0.0140952
0.0133976
0.0126187
0.0117812
0.0108449
0.00981266
0.00866281
0.00737961
0.00596381
0.00440587
0.00271419
0.000946932
0.0186116
0.0184137
0.0181897
0.0179349
0.0176412
0.0173064
0.0169202
0.0164823
0.0159922
0.0154427
0.0148543
0.0141977
0.0135096
0.0127384
0.0119137
0.0109873
0.00996236
0.0088163
0.00752585
0.0060974
0.00450866
0.00277772
0.000971089
0.0187013
0.0185049
0.0182845
0.018035
0.0177457
0.0174157
0.0170306
0.0165932
0.0161011
0.0155497
0.0149632
0.0143085
0.0136319
0.0128699
0.0120611
0.0111467
0.0101311
0.00899034
0.00769259
0.00625086
0.00462556
0.0028493
0.000998649
0.0187957
0.0186018
0.0183862
0.0181434
0.0178596
0.0175354
0.0171511
0.0167139
0.0162182
0.0156636
0.0150785
0.0144256
0.0137628
0.0130117
0.0122226
0.0113225
0.0103186
0.00918501
0.00788036
0.00642506
0.00475649
0.00292856
0.00102966
0.0188935
0.0187032
0.0184939
0.0182595
0.0179825
0.0176651
0.0172813
0.0168436
0.0163421
0.0157827
0.0151982