/*--------------------------------*- C++ -*----------------------------------*\
  =========                 |
  \\      /  F ield         | OpenFOAM: The Open Source CFD Toolbox
   \\    /   O peration     | Website:  https://openfoam.org
    \\  /    A nd           | Version:  7
     \\/     M anipulation  |
\*---------------------------------------------------------------------------*/
FoamFile
{
    version     2.0;
    format      ascii;
    class       volScalarField;
    location    "260";
    object      p;
}
// * * * * * * * * * * * * * * * * * * * * * * * * * * * * * * * * * * * * * //

dimensions      [0 2 -2 0 0 0 0];

internalField   nonuniform List<scalar> 
4575
(
-0.398204
-0.39892
-0.399313
-0.395785
-0.396724
-0.397228
-0.393361
-0.39452
-0.395134
-0.390951
-0.392326
-0.393048
-0.388574
-0.390159
-0.390985
-0.386248
-0.388037
-0.388963
-0.383992
-0.385977
-0.386999
-0.381826
-0.383997
-0.38511
-0.379769
-0.382114
-0.383313
-0.384216
-0.377836
-0.380345
-0.381624
-0.382588
-0.376047
-0.378705
-0.380058
-0.381079
-0.374416
-0.37721
-0.378629
-0.379702
-0.372959
-0.375872
-0.377351
-0.378471
-0.371689
-0.374705
-0.376235
-0.377397
-0.370617
-0.373718
-0.375292
-0.37649
-0.369754
-0.372922
-0.374531
-0.37576
-0.369108
-0.372322
-0.373959
-0.375211
-0.376172
-0.368685
-0.371926
-0.37358
-0.37485
-0.375828
-0.368488
-0.371736
-0.373397
-0.374679
-0.375669
-0.36852
-0.371753
-0.373413
-0.374699
-0.375696
-0.368779
-0.371977
-0.373625
-0.374909
-0.375908
-0.376646
-0.369263
-0.372404
-0.37403
-0.375305
-0.376302
-0.37704
-0.369967
-0.37303
-0.374625
-0.375882
-0.376871
-0.377607
-0.370883
-0.373848
-0.375401
-0.376633
-0.377609
-0.378338
-0.372002
-0.374849
-0.37635
-0.377549
-0.378505
-0.379225
-0.379727
-0.373313
-0.376023
-0.377462
-0.37862
-0.37955
-0.380254
-0.380746
-0.374802
-0.377358
-0.378725
-0.379833
-0.38073
-0.381413
-0.381891
-0.376456
-0.378842
-0.380127
-0.381177
-0.382033
-0.382689
-0.383147
-0.383373
-0.378259
-0.380461
-0.381656
-0.382638
-0.383445
-0.384065
-0.384497
-0.384702
-0.380196
-0.382202
-0.383296
-0.384203
-0.384951
-0.385527
-0.385925
-0.386101
-0.38225
-0.384049
-0.385035
-0.385856
-0.386536
-0.38706
-0.387414
-0.387553
-0.3874
-0.384406
-0.38599
-0.38686
-0.387586
-0.388188
-0.388648
-0.388949
-0.389039
-0.388841
-0.386648
-0.388011
-0.388758
-0.38938
-0.389893
-0.390278
-0.390513
-0.390544
-0.390289
-0.38964
-0.388962
-0.390101
-0.390717
-0.391226
-0.391639
-0.391937
-0.392094
-0.392052
-0.391728
-0.391009
-0.391335
-0.392248
-0.392728
-0.393114
-0.393416
-0.393614
-0.393679
-0.393551
-0.393143
-0.392341
-0.393757
-0.394443
-0.394781
-0.395036
-0.395215
-0.3953
-0.395259
-0.39503
-0.394524
-0.393624
-0.392182
-0.396217
-0.396679
-0.396871
-0.396985
-0.39703
-0.396989
-0.396828
-0.396483
-0.395864
-0.39485
-0.393294
-0.398709
-0.39895
-0.39899
-0.398957
-0.398857
-0.398677
-0.398381
-0.397905
-0.397157
-0.396015
-0.394331
-0.391926
-0.401229
-0.401252
-0.401138
-0.400949
-0.400693
-0.400361
-0.399916
-0.399294
-0.398403
-0.39712
-0.395294
-0.392747
-0.403775
-0.403584
-0.403312
-0.40296
-0.402539
-0.402042
-0.401435
-0.400653
-0.399605
-0.398166
-0.396186
-0.393486
-0.389862
-0.406346
-0.405947
-0.405514
-0.404992
-0.404396
-0.403723
-0.402941
-0.401987
-0.400768
-0.399161
-0.397015
-0.394151
-0.390368
-0.408947
-0.408344
-0.407747
-0.407049
-0.406269
-0.40541
-0.404442
-0.403303
-0.401901
-0.400114
-0.39779
-0.394752
-0.390801
-0.385736
-0.411581
-0.410778
-0.410015
-0.409135
-0.408164
-0.40711
-0.405945
-0.40461
-0.403015
-0.401037
-0.398524
-0.3953
-0.391171
-0.385944
-0.379444
-0.414256
-0.413256
-0.412324
-0.411258
-0.410088
-0.408831
-0.40746
-0.40592
-0.404121
-0.401942
-0.39923
-0.395809
-0.391489
-0.386085
-0.379438
-0.416982
-0.415787
-0.414683
-0.413425
-0.412051
-0.410583
-0.408999
-0.407245
-0.405234
-0.402844
-0.399921
-0.396291
-0.391765
-0.386166
-0.379347
-0.371282
-0.419768
-0.418377
-0.417099
-0.415647
-0.414063
-0.412378
-0.410574
-0.408599
-0.406368
-0.403756
-0.400612
-0.396758
-0.392009
-0.386192
-0.37917
-0.370929
-0.361389
-0.422625
-0.421038
-0.419583
-0.417932
-0.416134
-0.414228
-0.412198
-0.409996
-0.407536
-0.404694
-0.401316
-0.397223
-0.39223
-0.386169
-0.378912
-0.370447
-0.360707
-0.425567
-0.423779
-0.422145
-0.420291
-0.418276
-0.416145
-0.413885
-0.41145
-0.408754
-0.405671
-0.402044
-0.397694
-0.392435
-0.386102
-0.378573
-0.369841
-0.359849
-0.349297
-0.428604
-0.426611
-0.424794
-0.422735
-0.4205
-0.41814
-0.415646
-0.412973
-0.410033
-0.406698
-0.402808
-0.39818
-0.392629
-0.385993
-0.378158
-0.369119
-0.35883
-0.347893
-0.334828
-0.43175
-0.429545
-0.427541
-0.425274
-0.422816
-0.420225
-0.417494
-0.414577
-0.411384
-0.407786
-0.403615
-0.398686
-0.392816
-0.385846
-0.37767
-0.368287
-0.357669
-0.346333
-0.333038
-0.322736
-0.435016
-0.43259
-0.430395
-0.427917
-0.425235
-0.422412
-0.41944
-0.416273
-0.412819
-0.408941
-0.40447
-0.399217
-0.392997
-0.38566
-0.37711
-0.367353
-0.356381
-0.344647
-0.331128
-0.319986
-0.438412
-0.435756
-0.433366
-0.430676
-0.427767
-0.424709
-0.421493
-0.41807
-0.414344
-0.410171
-0.405378
-0.399772
-0.393172
-0.385435
-0.37648
-0.366324
-0.354982
-0.34286
-0.329125
-0.317298
-0.441949
-0.439051
-0.436462
-0.433556
-0.43042
-0.427125
-0.423661
-0.419975
-0.415964
-0.411478
-0.406338
-0.40035
-0.393338
-0.38517
-0.375781
-0.365206
-0.353484
-0.340988
-0.32705
-0.314667
-0.445634
-0.442482
-0.439691
-0.436567
-0.433201
-0.429667
-0.42595
-0.421992
-0.417682
-0.412863
-0.407349
-0.400948
-0.393491
-0.384861
-0.375014
-0.364004
-0.351897
-0.339044
-0.324916
-0.312086
-0.449474
-0.446057
-0.443058
-0.439713
-0.436116
-0.43234
-0.428365
-0.424124
-0.419498
-0.414322
-0.408406
-0.401559
-0.393624
-0.384503
-0.374177
-0.362721
-0.350229
-0.337037
-0.322731
-0.309542
-0.453474
-0.449778
-0.446567
-0.443
-0.43917
-0.435148
-0.430908
-0.426372
-0.421411
-0.415852
-0.409501
-0.402176
-0.393731
-0.384092
-0.373269
-0.36136
-0.348486
-0.334973
-0.3205
-0.307021
-0.457636
-0.453649
-0.450222
-0.446431
-0.442365
-0.438093
-0.433579
-0.428733
-0.423414
-0.417444
-0.410627
-0.402787
-0.393802
-0.383622
-0.372286
-0.359921
-0.346671
-0.332854
-0.318224
-0.30451
-0.461961
-0.457671
-0.454024
-0.450006
-0.445701
-0.441175
-0.436375
-0.431202
-0.425502
-0.419089
-0.41177
-0.403383
-0.393827
-0.383085
-0.371227
-0.358404
-0.344786
-0.330681
-0.315903
-0.301993
-0.466448
-0.461843
-0.457973
-0.453726
-0.449179
-0.44439
-0.439293
-0.433772
-0.427663
-0.420774
-0.412918
-0.403949
-0.393796
-0.382474
-0.370086
-0.356809
-0.34283
-0.328452
-0.313533
-0.299457
-0.471093
-0.466163
-0.462067
-0.457588
-0.452795
-0.447735
-0.442326
-0.436434
-0.429886
-0.422485
-0.414055
-0.404472
-0.393696
-0.38178
-0.368859
-0.355132
-0.340804
-0.326165
-0.31111
-0.296891
-0.47589
-0.470626
-0.466301
-0.461588
-0.456544
-0.451204
-0.445464
-0.439176
-0.432155
-0.424205
-0.415165
-0.404937
-0.393517
-0.380996
-0.367541
-0.353371
-0.338703
-0.323814
-0.30863
-0.294282
-0.48083
-0.475225
-0.47067
-0.465721
-0.46042
-0.454786
-0.448695
-0.441983
-0.434453
-0.425917
-0.416229
-0.405327
-0.393246
-0.380113
-0.366126
-0.351522
-0.336523
-0.321397
-0.306086
-0.291619
-0.485905
-0.479952
-0.475165
-0.469977
-0.464412
-0.45847
-0.452006
-0.444837
-0.436761
-0.427599
-0.41723
-0.405627
-0.392869
-0.37912
-0.364607
-0.349578
-0.334261
-0.318905
-0.303472
-0.288893
-0.4911
-0.484795
-0.479777
-0.474347
-0.468509
-0.462244
-0.45538
-0.447719
-0.439058
-0.42923
-0.418146
-0.405821
-0.392375
-0.37801
-0.362977
-0.347535
-0.33191
-0.316334
-0.300781
-0.286093
-0.4964
-0.489741
-0.484492
-0.478818
-0.472698
-0.466089
-0.458797
-0.450608
-0.441321
-0.430789
-0.418959
-0.405891
-0.39175
-0.376772
-0.36123
-0.345385
-0.329463
-0.313675
-0.298006
-0.283212
-0.501789
-0.494776
-0.489296
-0.483374
-0.47696
-0.469988
-0.462236
-0.45348
-0.443525
-0.432252
-0.419647
-0.405821
-0.390981
-0.375397
-0.359356
-0.343122
-0.326914
-0.310922
-0.295139
-0.280241
-0.507247
-0.499881
-0.494172
-0.487999
-0.481278
-0.473918
-0.465671
-0.456308
-0.445645
-0.433594
-0.420191
-0.405595
-0.390057
-0.373875
-0.357348
-0.340738
-0.324255
-0.308067
-0.292173
-0.277172
-0.51275
-0.505035
-0.4991
-0.492671
-0.485629
-0.477854
-0.469078
-0.459065
-0.447652
-0.434791
-0.420568
-0.405195
-0.388963
-0.372195
-0.355196
-0.338225
-0.321478
-0.305102
-0.2891
-0.273996
-0.497367
-0.489988
-0.481771
-0.472427
-0.461722
-0.44952
-0.435818
-0.42076
-0.404606
-0.387688
-0.370347
-0.352893
-0.335575
-0.318574
-0.302018
-0.285912
-0.270708
-0.485639
-0.475687
-0.464248
-0.451219
-0.436651
-0.420745
-0.403812
-0.386218
-0.368321
-0.350428
-0.332777
-0.315535
-0.298807
-0.282602
-0.267299
-0.452722
-0.437266
-0.420504
-0.402798
-0.384542
-0.366106
-0.347792
-0.329825
-0.312353
-0.295461
-0.279162
-0.263762
-0.382647
-0.363691
-0.344975
-0.326707
-0.309017
-0.291971
-0.275584
-0.260091
-0.323414
-0.305519
-0.28833
-0.27186
-0.256278
-0.252318
-0.304029
-0.379195
-0.360175
-0.342008
-0.324683
-0.308354
-0.463206
-0.442511
-0.421956
-0.401852
-0.382398
-0.363702
-0.345796
-0.328667
-0.312541
-0.519084
-0.501883
-0.483301
-0.463814
-0.443907
-0.424005
-0.404432
-0.385406
-0.367054
-0.349428
-0.332509
-0.316599
-0.554163
-0.543312
-0.530741
-0.516343
-0.500223
-0.482678
-0.464131
-0.445038
-0.425817
-0.406802
-0.388228
-0.370241
-0.352912
-0.336218
-0.320537
-0.56538
-0.55739
-0.548525
-0.538404
-0.526727
-0.51334
-0.498278
-0.481767
-0.464172
-0.445914
-0.427401
-0.40897
-0.390873
-0.373271
-0.356258
-0.339803
-0.324362
-0.58122
-0.572466
-0.565842
-0.558787
-0.551165
-0.542808
-0.533364
-0.522527
-0.510104
-0.496072
-0.480586
-0.46395
-0.446546
-0.428765
-0.410945
-0.393347
-0.376152
-0.359473
-0.343272
-0.328082
-0.573794
-0.565406
-0.55901
-0.552216
-0.544939
-0.53705
-0.528229
-0.518175
-0.506668
-0.49363
-0.479152
-0.463478
-0.446944
-0.429917
-0.412732
-0.39566
-0.378892
-0.362566
-0.346633
-0.331708
-0.566416
-0.558402
-0.552236
-0.545697
-0.538742
-0.531284
-0.523035
-0.513707
-0.503062
-0.490978
-0.477487
-0.46277
-0.447117
-0.430865
-0.41434
-0.397817
-0.381499
-0.365545
-0.349896
-0.335246
-0.559113
-0.551478
-0.545546
-0.539255
-0.532604
-0.52554
-0.517815
-0.509156
-0.499317
-0.488142
-0.475608
-0.46184
-0.447075
-0.431616
-0.415775
-0.399826
-0.38398
-0.368418
-0.353069
-0.338706
-0.551909
-0.544657
-0.538962
-0.532916
-0.52655
-0.519849
-0.5126
-0.504552
-0.495462
-0.485146
-0.473537
-0.460702
-0.446827
-0.432176
-0.417041
-0.401691
-0.386341
-0.371192
-0.35616
-0.342098
-0.544826
-0.53796
-0.532504
-0.526698
-0.520603
-0.514235
-0.507417
-0.499927
-0.491527
-0.482018
-0.471294
-0.459371
-0.446383
-0.432552
-0.418143
-0.403417
-0.388588
-0.373875
-0.359177
-0.345429
-0.537883
-0.531403
-0.526189
-0.520619
-0.514783
-0.508721
-0.502294
-0.495309
-0.48754
-0.478782
-0.468899
-0.457861
-0.445752
-0.432749
-0.419086
-0.405009
-0.390725
-0.376472
-0.362127
-0.348711
-0.531096
-0.525002
-0.52003
-0.514695
-0.509106
-0.503326
-0.497253
-0.490721
-0.483526
-0.475462
-0.466372
-0.456188
-0.444944
-0.432773
-0.419872
-0.406468
-0.392757
-0.378989
-0.365019
-0.351952
-0.524481
-0.518769
-0.51404
-0.508938
-0.503585
-0.498068
-0.492313
-0.486189
-0.479511
-0.472083
-0.463735
-0.454366
-0.443969
-0.432629
-0.420504
-0.407796
-0.394686
-0.381431
-0.36786
-0.355164
-0.518048
-0.512715
-0.508229
-0.503357
-0.498232
-0.492959
-0.487492
-0.481731
-0.475517
-0.468668
-0.461008
-0.452413
-0.442837
-0.432323
-0.420985
-0.408996
-0.396514
-0.383802
-0.370654
-0.358356
-0.511807
-0.506848
-0.502605
-0.49796
-0.493056
-0.48801
-0.482804
-0.477365
-0.471565
-0.465237
-0.458209
-0.450343
-0.44156
-0.431859
-0.421315
-0.410066
-0.398241
-0.386105
-0.37341
-0.36154
-0.505767
-0.501176
-0.497173
-0.492752
-0.488062
-0.483229
-0.478259
-0.473107
-0.467672
-0.46181
-0.45536
-0.448173
-0.440148
-0.431245
-0.421497
-0.411005
-0.399867
-0.388342
-0.37613
-0.364728
-0.499933
-0.495703
-0.491937
-0.487738
-0.483255
-0.478622
-0.473866
-0.468967
-0.463854
-0.458406
-0.452477
-0.44592
-0.438612
-0.430486
-0.421532
-0.411814
-0.40139
-0.390513
-0.378819
-0.367933
-0.494311
-0.490433
-0.486902
-0.48292
-0.478637
-0.474193
-0.469631
-0.464956
-0.460124
-0.455041
-0.44958
-0.443599
-0.436967
-0.42959
-0.421422
-0.412489
-0.402806
-0.392618
-0.381481
-0.37117
-0.488905
-0.48537
-0.482068
-0.478298
-0.474209
-0.469942
-0.465558
-0.461081
-0.456494
-0.451729
-0.446683
-0.441226
-0.435224
-0.428565
-0.42117
-0.413029
-0.404113
-0.394654
-0.384115
-0.374451
-0.483718
-0.480517
-0.477437
-0.473874
-0.469971
-0.465872
-0.461649
-0.457347
-0.452972
-0.448484
-0.443803
-0.438818
-0.433399
-0.42742
-0.420779
-0.413432
-0.405304
-0.396619
-0.38672
-0.377794
-0.478753
-0.475874
-0.473011
-0.469646
-0.465923
-0.461981
-0.457905
-0.453758
-0.449565
-0.445316
-0.440955
-0.436391
-0.431504
-0.426166
-0.420254
-0.413696
-0.406373
-0.398504
-0.389295
-0.381213
-0.474013
-0.471444
-0.468789
-0.465615
-0.462062
-0.458268
-0.454327
-0.450315
-0.44628
-0.442235
-0.438151
-0.43396
-0.429556
-0.424815
-0.4196
-0.413821
-0.407315
-0.400304
-0.39183
-0.384723
-0.469502
-0.467228
-0.464772
-0.46178
-0.458389
-0.454733
-0.450914
-0.447021
-0.443122
-0.439251
-0.435405
-0.431541
-0.427572
-0.42338
-0.418828
-0.413808
-0.40812
-0.402005
-0.394314
-0.388337
-0.465222
-0.463229
-0.46096
-0.458141
-0.454901
-0.451373
-0.447666
-0.443878
-0.440094
-0.43637
-0.432729
-0.429149
-0.425567
-0.421878
-0.417946
-0.413658
-0.408782
-0.403596
-0.396731
-0.461176
-0.459448
-0.457355
-0.454698
-0.451599
-0.44819
-0.444583
-0.440888
-0.437202
-0.433603
-0.430134
-0.4268
-0.423559
-0.420325
-0.416967
-0.413377
-0.409295
-0.405057
-0.45737
-0.455886
-0.453958
-0.45145
-0.448483
-0.445182
-0.441666
-0.438052
-0.434451
-0.430956
-0.427633
-0.42451
-0.421568
-0.41874
-0.415908
-0.412972
-0.409652
-0.453805
-0.452545
-0.450768
-0.448399
-0.445552
-0.442351
-0.438917
-0.435374
-0.431845
-0.428437
-0.425238
-0.422295
-0.419613
-0.417145
-0.414788
-0.412455
-0.409851
-0.450485
-0.449427
-0.447788
-0.445545
-0.442809
-0.439698
-0.436338
-0.432858
-0.42939
-0.426058
-0.422962
-0.420172
-0.417715
-0.415562
-0.413628
-0.411842
-0.447414
-0.446533
-0.445017
-0.442888
-0.440252
-0.437225
-0.433932
-0.430508
-0.427095
-0.423826
-0.420818
-0.418159
-0.415894
-0.414017
-0.412454
-0.444591
-0.443863
-0.442455
-0.440429
-0.437885
-0.434933
-0.431701
-0.42833
-0.424965
-0.421752
-0.41882
-0.416274
-0.414175
-0.412535
-0.411295
-0.442019
-0.441417
-0.440103
-0.438168
-0.435706
-0.432824
-0.42965
-0.426328
-0.423009
-0.419846
-0.416983
-0.414534
-0.412579
-0.411143
-0.439697
-0.439192
-0.437957
-0.436102
-0.433715
-0.430898
-0.42778
-0.424506
-0.421232
-0.418119
-0.415318
-0.412957
-0.411128
-0.437621
-0.437185
-0.436015
-0.43423
-0.431911
-0.429156
-0.426093
-0.422868
-0.419641
-0.416578
-0.413838
-0.411558
-0.409843
-0.435786
-0.435392
-0.434273
-0.432548
-0.43029
-0.427596
-0.424588
-0.421415
-0.418239
-0.41523
-0.412553
-0.410354
-0.434185
-0.433804
-0.432724
-0.43105
-0.42885
-0.426214
-0.423265
-0.420149
-0.41703
-0.414081
-0.411472
-0.409354
-0.432807
-0.432415
-0.431361
-0.42973
-0.427582
-0.425006
-0.422118
-0.419065
-0.416012
-0.413133
-0.410599
-0.431641
-0.431213
-0.430174
-0.428578
-0.426481
-0.423964
-0.421143
-0.418161
-0.415183
-0.412383
-0.409935
-0.430673
-0.430187
-0.429152
-0.427585
-0.425536
-0.423081
-0.420331
-0.417429
-0.414536
-0.411829
-0.429887
-0.429324
-0.428283
-0.426741
-0.424737
-0.422345
-0.419673
-0.416859
-0.414065
-0.411462
-0.429265
-0.428608
-0.427555
-0.426031
-0.424072
-0.421746
-0.419158
-0.416442
-0.413757
-0.428787
-0.428025
-0.426952
-0.425443
-0.423528
-0.421271
-0.418773
-0.416164
-0.413601
-0.428435
-0.427557
-0.42646
-0.424964
-0.423092
-0.420907
-0.418505
-0.416012
-0.413582
-0.428187
-0.427188
-0.426063
-0.424578
-0.42275
-0.42064
-0.418339
-0.415971
-0.428025
-0.426901
-0.425746
-0.424271
-0.422488
-0.420456
-0.418262
-0.416027
-0.427926
-0.426678
-0.425494
-0.424029
-0.422291
-0.42034
-0.418258
-0.416162
-0.427872
-0.426503
-0.42529
-0.423836
-0.422146
-0.420279
-0.418313
-0.427842
-0.426359
-0.42512
-0.423679
-0.422039
-0.420258
-0.418412
-0.427819
-0.426229
-0.424968
-0.423543
-0.421956
-0.420264
-0.418541
-0.427784
-0.426099
-0.424821
-0.423415
-0.421884
-0.420283
-0.42772
-0.425953
-0.424664
-0.423282
-0.421809
-0.420302
-0.427612
-0.425778
-0.424485
-0.423131
-0.421719
-0.420308
-0.427446
-0.425559
-0.424269
-0.42295
-0.421602
-0.420288
-0.427206
-0.425284
-0.424006
-0.422726
-0.421446
-0.426882
-0.424942
-0.423685
-0.422449
-0.42124
-0.426461
-0.424522
-0.423293
-0.422108
-0.420973
-0.425933
-0.424014
-0.422823
-0.421694
-0.420635
-0.425291
-0.42341
-0.422265
-0.421198
-0.424526
-0.422701
-0.421612
-0.420611
-0.423632
-0.421883
-0.420857
-0.419927
-0.422606
-0.42095
-0.419994
-0.41914
-0.421444
-0.419899
-0.419021
-0.418246
-0.420145
-0.418727
-0.417934
-0.417242
-0.41871
-0.417434
-0.416733
-0.416126
-0.417141
-0.416022
-0.415418
-0.414898
-0.415442
-0.414494
-0.41399
-0.413619
-0.412852
-0.412454
-0.411679
-0.411105
-0.410816
-0.409631
-0.409259
-0.409081
-0.407486
-0.407323
-0.407258
-0.405257
-0.405308
-0.405358
-0.402956
-0.403228
-0.403392
-0.400599
-0.401094
-0.401372
-0.232565
-0.236428
-0.24016
-0.243766
-0.247251
-0.250618
-0.253871
-0.257014
-0.260052
-0.262986
-0.265821
-0.268559
-0.271203
-0.273755
-0.276218
-0.278593
-0.280885
-0.283097
-0.285232
-0.287299
-0.289307
-0.291268
-0.2932
-0.295127
-0.211144
-0.214836
-0.218423
-0.221908
-0.225295
-0.228585
-0.231783
-0.234892
-0.237916
-0.240857
-0.24372
-0.246508
-0.249226
-0.25188
-0.254474
-0.257015
-0.25951
-0.26197
-0.264403
-0.266824
-0.269247
-0.27169
-0.274174
-0.276723
-0.19174
-0.195243
-0.198662
-0.202
-0.205257
-0.208438
-0.211545
-0.21458
-0.217546
-0.220447
-0.223284
-0.226061
-0.228782
-0.23145
-0.234068
-0.236641
-0.239172
-0.241666
-0.244127
-0.24656
-0.248969
-0.251358
-0.253732
-0.256097
-0.174235
-0.177531
-0.180758
-0.183919
-0.187015
-0.190047
-0.193019
-0.19593
-0.198784
-0.201582
-0.204325
-0.207015
-0.209655
-0.212245
-0.214788
-0.217284
-0.219738
-0.222149
-0.22452
-0.226854
-0.229154
-0.231424
-0.233668
-0.235894
-0.158341
-0.161427
-0.164457
-0.167433
-0.170355
-0.173225
-0.176045
-0.178815
-0.181536
-0.184211
-0.186839
-0.189423
-0.191964
-0.194463
-0.196922
-0.199341
-0.201723
-0.204069
-0.206382
-0.208663
-0.210915
-0.21314
-0.215341
-0.21752
-0.143904
-0.146781
-0.149613
-0.1524
-0.155144
-0.157845
-0.160505
-0.163123
-0.165703
-0.168243
-0.170745
-0.17321
-0.175639
-0.178032
-0.180392
-0.182717
-0.18501
-0.18727
-0.1895
-0.191699
-0.193868
-0.196009
-0.198121
-0.200205
-0.130746
-0.133422
-0.136061
-0.138663
-0.14123
-0.143762
-0.146259
-0.148724
-0.151155
-0.153555
-0.155923
-0.15826
-0.160566
-0.162843
-0.165091
-0.16731
-0.1695
-0.171663
-0.173798
-0.175906
-0.177988
-0.180044
-0.182074
-0.18408
-0.118747
-0.121229
-0.123681
-0.126103
-0.128497
-0.130862
-0.133199
-0.13551
-0.137793
-0.140051
-0.142282
-0.144488
-0.14667
-0.148827
-0.15096
-0.153069
-0.155155
-0.157217
-0.159257
-0.161275
-0.16327
-0.165244
-0.167195
-0.169124
-0.107776
-0.110076
-0.112351
-0.114602
-0.116829
-0.119034
-0.121216
-0.123376
-0.125514
-0.127632
-0.129728
-0.131804
-0.13386
-0.135896
-0.137913
-0.13991
-0.141889
-0.143849
-0.14579
-0.147713
-0.149617
-0.151504
-0.153372
-0.155222
-0.0977411
-0.0998682
-0.101975
-0.104064
-0.106133
-0.108184
-0.110216
-0.112231
-0.114229
-0.11621
-0.118174
-0.120122
-0.122054
-0.12397
-0.125871
-0.127756
-0.129627
-0.131483
-0.133324
-0.13515
-0.136963
-0.138761
-0.140544
-0.142314
-0.0885407
-0.0905073
-0.092458
-0.0943932
-0.0963132
-0.0982185
-0.100109
-0.101986
-0.103849
-0.105699
-0.107536
-0.109359
-0.111171
-0.11297
-0.114757
-0.116532
-0.118295
-0.120048
-0.121789
-0.123519
-0.125238
-0.126946
-0.128643
-0.13033
-0.0801001
-0.081917
-0.0837212
-0.085513
-0.0872929
-0.089061
-0.0908177
-0.0925633
-0.0942982
-0.0960226
-0.0977369
-0.0994413
-0.101136
-0.102821
-0.104498
-0.106165
-0.107823
-0.109474
-0.111115
-0.112749
-0.114375
-0.115993
-0.117603
-0.119206
-0.0723442
-0.0740224
-0.0756904
-0.0773486
-0.0789974
-0.0806369
-0.0822675
-0.0838895
-0.0855031
-0.0871087
-0.0887066
-0.0902969
-0.0918799
-0.093456
-0.0950253
-0.0965881
-0.0981445
-0.0996949
-0.101239
-0.102778
-0.104311
-0.105839
-0.107362
-0.10888
-0.065208
-0.0667579
-0.0682997
-0.0698338
-0.0713604
-0.0728799
-0.0743924
-0.0758983
-0.0773978
-0.0788913
-0.0803789
-0.0818609
-0.0833376
-0.0848093
-0.0862761
-0.0877382
-0.0891961
-0.0906497
-0.0920994
-0.0935454
-0.0949878
-0.0964268
-0.0978627
-0.0992956
-0.0586367
-0.0600677
-0.0614925
-0.0629112
-0.0643242
-0.0657316
-0.0671337
-0.0685308
-0.0699232
-0.071311
-0.0726946
-0.0740742
-0.07545
-0.0768222
-0.0781912
-0.0795571
-0.0809201
-0.0822805
-0.0836386
-0.0849944
-0.0863483
-0.0877004
-0.0890509
-0.0904
-0.0525767
-0.0538982
-0.0552148
-0.0565266
-0.057834
-0.0591373
-0.0604365
-0.0617321
-0.0630241
-0.0643129
-0.0655987
-0.0668817
-0.0681621
-0.0694402
-0.0707163
-0.0719904
-0.073263
-0.0745341
-0.075804
-0.0770729
-0.0783411
-0.0796087
-0.0808759
-0.082143
-0.046983
-0.0482033
-0.0494198
-0.0506328
-0.0518424
-0.0530488
-0.0542523
-0.0554531
-0.0566514
-0.0578475
-0.0590415
-0.0602337
-0.0614243
-0.0626135
-0.0638016
-0.0649887
-0.0661751
-0.067361
-0.0685466
-0.0697321
-0.0709178
-0.0721038
-0.0732904
-0.0744777
-0.041814
-0.0429411
-0.0440652
-0.0451867
-0.0463056
-0.0474222
-0.0485367
-0.0496493
-0.0507602
-0.0518696
-0.0529777
-0.0540848
-0.0551909
-0.0562964
-0.0574015
-0.0585063
-0.059611
-0.060716
-0.0618213
-0.0629272
-0.0640339
-0.0651416
-0.0662505
-0.0673608
-0.0380743
-0.0391131
-0.0401499
-0.0411848
-0.0422181
-0.0432499
-0.0442805
-0.0453099
-0.0463385
-0.0473663
-0.0483936
-0.0494206
-0.0504474
-0.0514743
-0.0525014
-0.053529
-0.0545573
-0.0555864
-0.0566166
-0.057648
-0.0586808
-0.0597153
-0.0607517
-0.0335689
-0.0345289
-0.0354874
-0.0364446
-0.0374007
-0.0383558
-0.0393101
-0.0402637
-0.0412169
-0.0421698
-0.0431226
-0.0440754
-0.0450285
-0.045982
-0.0469361
-0.047891
-0.0488468
-0.0498038
-0.0507622
-0.0517221
-0.0526838
-0.0536473
-0.054613
-0.0293947
-0.030282
-0.0311682
-0.0320535
-0.032938
-0.0338219
-0.0347053
-0.0355885
-0.0364715
-0.0373545
-0.0382377
-0.0391212
-0.0400052
-0.0408899
-0.0417754
-0.0426619
-0.0435495
-0.0444386
-0.0453291
-0.0462214
-0.0471155
-0.0480116
-0.04891
-0.0255235
-0.0263437
-0.0271631
-0.0279819
-0.0288002
-0.0296182
-0.0304359
-0.0312536
-0.0320714
-0.0328893
-0.0337076
-0.0345265
-0.0353459
-0.0361662
-0.0369875
-0.0378098
-0.0386335
-0.0394585
-0.0402852
-0.0411136
-0.0419439
-0.0427763
-0.0436109
-0.044448
-0.0219319
-0.0226901
-0.0234477
-0.0242049
-0.0249619
-0.0257187
-0.0264754
-0.0272323
-0.0279893
-0.0287467
-0.0295046
-0.0302631
-0.0310223
-0.0317824
-0.0325435
-0.0333057
-0.0340693
-0.0348343
-0.0356009
-0.0363692
-0.0371394
-0.0379116
-0.038686
-0.0394628
-0.018597
-0.0192979
-0.0199984
-0.0206987
-0.0213988
-0.022099
-0.0227992
-0.0234995
-0.0242002
-0.0249013
-0.0256029
-0.0263052
-0.0270082
-0.0277121
-0.0284171
-0.0291231
-0.0298305
-0.0305392
-0.0312494
-0.0319613
-0.032675
-0.0333906
-0.0341083
-0.0348282
-0.0154985
-0.0161465
-0.0167942
-0.0174418
-0.0180894
-0.018737
-0.0193848
-0.0200328
-0.0206811
-0.0213299
-0.0219792
-0.0226292
-0.0232799
-0.0239314
-0.0245839
-0.0252375
-0.0258923
-0.0265484
-0.027206
-0.027865
-0.0285257
-0.0291882
-0.0298526
-0.0305191
-0.0126185
-0.0132177
-0.0138166
-0.0144155
-0.0150144
-0.0156134
-0.0162125
-0.016812
-0.0174117
-0.0180119
-0.0186126
-0.0192139
-0.0198159
-0.0204187
-0.0210224
-0.021627
-0.0222328
-0.0228398
-0.023448
-0.0240577
-0.0246688
-0.0252816
-0.0258961
-0.0265124
-0.00994021
-0.0104942
-0.0110481
-0.0116019
-0.0121557
-0.0127097
-0.0132638
-0.0138182
-0.0143729
-0.014928
-0.0154835
-0.0160396
-0.0165964
-0.0171538
-0.0177121
-0.0182712
-0.0188313
-0.0193924
-0.0199547
-0.0205183
-0.0210832
-0.0216495
-0.0222173
-0.0227867
-0.00744884
-0.00796111
-0.00847329
-0.00898544
-0.00949761
-0.0100099
-0.0105223
-0.0110349
-0.0115478
-0.0120611
-0.0125747
-0.0130889
-0.0136035
-0.0141188
-0.0146348
-0.0151516
-0.0156692
-0.0161877
-0.0167072
-0.0172278
-0.0177495
-0.0182725
-0.0187968
-0.0193224
-0.0051308
-0.0056045
-0.00607812
-0.0065517
-0.0070253
-0.00749896
-0.00797274
-0.00844669
-0.00892087
-0.00939533
-0.00987012
-0.0103453
-0.010821
-0.0112971
-0.0117739
-0.0122513
-0.0127293
-0.0132082
-0.0136879
-0.0141685
-0.0146501
-0.0151327
-0.0156165
-0.0161014
-0.00297365
-0.00341172
-0.00384969
-0.0042876
-0.00472551
-0.00516344
-0.00560145
-0.00603958
-0.00647788
-0.00691639
-0.00735516
-0.00779424
-0.00823368
-0.00867353
-0.00911385
-0.00955469
-0.0099961
-0.0104381
-0.0108809
-0.0113243
-0.0117686
-0.0122137
-0.0126598
-0.0131068
-0.000966163
-0.00137128
-0.00177628
-0.00218121
-0.00258609
-0.00299096
-0.00339586
-0.00380083
-0.00420589
-0.0046111
-0.00501649
-0.00542211
-0.00582799
-0.00623418
-0.00664072
-0.00704766
-0.00745505
-0.00786293
-0.00827134
-0.00868035
-0.00908998
-0.00950031
-0.00991137
-0.0103232
0.000901977
0.000527318
0.000152795
-0.000221619
-0.000595951
-0.00097023
-0.00134449
-0.00171875
-0.00209305
-0.00246743
-0.00284191
-0.00321653
-0.00359132
-0.00396632
-0.00434157
-0.00471711
-0.00509296
-0.00546918
-0.0058458
-0.00622286
-0.0066004
-0.00697846
-0.00735708
-0.00773632
0.00264014
0.00229364
0.0019473
0.0016011
0.00125503
0.00090905
0.000563146
0.00021729
-0.000128543
-0.00047438
-0.000820248
-0.00116617
-0.00151219
-0.00185832
-0.00220459
-0.00255105
-0.00289771
-0.00324461
-0.00359178
-0.00393926
-0.00428708
-0.00463528
-0.00498387
-0.00533292
0.004257
0.00393653
0.00361625
0.00329615
0.0029762
0.0026564
0.00233672
0.00201714
0.00169764
0.0013782
0.00105881
0.000739427
0.00042004
0.000100623
-0.000218848
-0.000538397
-0.00085805
-0.00117783
-0.00149777
-0.00181789
-0.00213823
-0.00245879
-0.00277963
-0.00310076
0.0057604
0.00546399
0.0051678
0.00487182
0.00457604
0.00428044
0.00398501
0.00368973
0.00339458
0.00309956
0.00280464
0.00250981
0.00221505
0.00192033
0.00162564
0.00133097
0.00103628
0.000741568
0.000446802
0.000151964
-0.000142968
-0.000438016
-0.000733202
-0.00102855
0.00715764
0.00688347
0.00660955
0.00633588
0.00606243
0.0057892
0.00551619
0.00524337
0.00497074
0.00469829
0.00442599
0.00415385
0.00388184
0.00360994
0.00333816
0.00306646
0.00279484
0.00252328
0.00225176
0.00198026
0.00170877
0.00143728
0.00116576
0.000894198
0.00845541
0.00820179
0.00794845
0.00769539
0.00744258
0.00719003
0.00693773
0.00668567
0.00643384
0.00618223
0.00593084
0.00567965
0.00542866
0.00517784
0.0049272
0.00467672
0.00442639
0.00417619
0.00392612
0.00367616
0.00342629
0.00317652
0.00292682
0.00267717
0.0096599
0.00942528
0.00919095
0.00895692
0.00872319
0.00848974
0.00825657
0.00802368
0.00779106
0.00755871
0.00732661
0.00709477
0.00686317
0.00663181
0.00640067
0.00616976
0.00593906
0.00570857
0.00547827
0.00524816
0.00501822
0.00478845
0.00455884
0.00432938
0.0107768
0.0105597
0.010343
0.0101265
0.00991041
0.00969459
0.00947909
0.0092639
0.00904901
0.00883442
0.00862013
0.00840614
0.00819243
0.007979
0.00776586
0.00755299
0.00734039
0.00712805
0.00691596
0.00670413
0.00649254
0.00628118
0.00607006
0.00585915
0.0118115
0.0116106
0.01141
0.0112098
0.01101
0.0108104
0.0106112
0.0104123
0.0102138
0.0100156
0.00981774
0.0096202
0.00942298
0.00922609
0.00902952
0.00883326
0.00863732
0.00844169
0.00824637
0.00805135
0.00785664
0.00766221
0.00746808
0.00727423
0.0127688
0.0125828
0.0123973
0.012212
0.0120271
0.0118426
0.0116584
0.0114746
0.0112911
0.011108
0.0109253
0.0107429
0.0105609
0.0103792
0.0101979
0.0100169
0.00983633
0.00965607
0.00947616
0.0092966
0.00911738
0.00893851
0.00875998
0.00858178
0.0136533
0.0134811
0.0133093
0.0131379
0.0129668
0.0127961
0.0126258
0.0124558
0.0122863
0.0121171
0.0119483
0.0117798
0.0116118
0.0114441
0.0112768
0.0111099
0.0109434
0.0107772
0.0106115
0.0104461
0.0102811
0.0101165
0.00995231
0.00978847
0.0144693
0.0143098
0.0141507
0.013992
0.0138336
0.0136757
0.0135181
0.0133609
0.0132041
0.0130477
0.0128917
0.012736
0.0125808
0.012426
0.0122716
0.0121176
0.011964
0.0118109
0.0116581
0.0115057
0.0113538
0.0112023
0.0110512
0.0109005
0.0152206
0.0150728
0.0149254
0.0147784
0.0146317
0.0144855
0.0143396
0.0141941
0.0140491
0.0139044
0.0137602
0.0136163
0.0134729
0.0133299
0.0131873
0.0130452
0.0129034
0.0127621
0.0126213
0.0124808
0.0123408
0.0122013
0.0120622
0.0119235
0.015911
0.015774
0.0156373
0.015501
0.0153651
0.0152296
0.0150945
0.0149598
0.0148255
0.0146916
0.0145582
0.0144251
0.0142925
0.0141603
0.0140286
0.0138972
0.0137664
0.0136359
0.013506
0.0133764
0.0132473
0.0131187
0.0129905
0.0128628
0.0165439
0.0164167
0.0162899
0.0161634
0.0160374
0.0159117
0.0157865
0.0156616
0.0155372
0.0154132
0.0152896
0.0151664
0.0150437
0.0149214
0.0147996
0.0146782
0.0145572
0.0144367
0.0143166
0.0141971
0.0140779
0.0139593
0.0138411
0.0137234
0.0171224
0.0170042
0.0168864
0.016769
0.016652
0.0165353
0.0164191
0.0163033
0.0161878
0.0160728
0.0159583
0.0158441
0.0157304
0.0156172
0.0155043
0.015392
0.01528
0.0151686
0.0150576
0.0149471
0.014837
0.0147274
0.0146183
0.0145097
0.0176495
0.0175395
0.0174299
0.0173207
0.0172119
0.0171035
0.0169955
0.0168879
0.0167807
0.0166739
0.0165675
0.0164616
0.0163561
0.0162511
0.0161465
0.0160423
0.0159386
0.0158354
0.0157326
0.0156303
0.0155284
0.0154271
0.0153262
0.0152258
0.0181278
0.0180253
0.0179232
0.0178215
0.0177202
0.0176192
0.0175187
0.0174185
0.0173188
0.0172195
0.0171206
0.0170221
0.0169241
0.0168265
0.0167293
0.0166326
0.0165363
0.0164405
0.0163452
0.0162503
0.0161559
0.016062
0.0159686
0.0158756
0.0185597
0.0184641
0.0183688
0.0182738
0.0181793
0.0180851
0.0179913
0.0178979
0.0178049
0.0177124
0.0176202
0.0175285
0.0174372
0.0173463
0.0172559
0.0171659
0.0170763
0.0169872
0.0168986
0.0168104
0.0167228
0.0166355
0.0165488
0.0164625
0.0189476
0.0188581
0.0187689
0.0186801
0.0185916
0.0185035
0.0184158
0.0183285
0.0182416
0.0181551
0.018069
0.0179834
0.0178981
0.0178133
0.0177289
0.0176449
0.0175614
0.0174783