/*--------------------------------*- C++ -*----------------------------------*\
  =========                 |
  \\      /  F ield         | OpenFOAM: The Open Source CFD Toolbox
   \\    /   O peration     | Website:  https://openfoam.org
    \\  /    A nd           | Version:  7
     \\/     M anipulation  |
\*---------------------------------------------------------------------------*/
FoamFile
{
    version     2.0;
    format      ascii;
    class       surfaceScalarField;
    location    "260";
    object      phi;
}
// * * * * * * * * * * * * * * * * * * * * * * * * * * * * * * * * * * * * * //

dimensions      [0 3 -1 0 0 0 0];

internalField   nonuniform List<scalar> 
8842
(
-5.22742e-07
-5.219e-05
5.27127e-05
-2.26205e-06
-0.000145464
0.000147204
-0.000231207
0.000234353
-7.21072e-07
-5.14689e-05
-2.96953e-06
-0.000143216
-0.000227301
-9.18638e-07
-5.05503e-05
-3.67051e-06
-0.000140464
-0.00022265
-1.11391e-06
-4.94364e-05
-4.35986e-06
-0.000137218
-0.000217273
-1.30537e-06
-4.8131e-05
-5.03256e-06
-0.000133491
-0.000211192
-1.49156e-06
-4.66394e-05
-5.68377e-06
-0.000129299
-0.000204436
-1.67106e-06
-4.49684e-05
-6.30882e-06
-0.000124661
-0.000197037
-1.84247e-06
-4.31259e-05
-6.90323e-06
-0.0001196
-0.000189031
-2.00448e-06
-4.11214e-05
-7.4627e-06
-0.000114142
-1.60358e-05
-0.000180458
-0.000239408
-2.15581e-06
-3.89656e-05
-7.98309e-06
-0.000108315
-1.70796e-05
-0.000171362
-0.000227423
-2.2952e-06
-3.66704e-05
-8.4604e-06
-0.000102149
-1.80333e-05
-0.000161789
-0.000214876
-2.42146e-06
-3.42489e-05
-8.89081e-06
-9.56801e-05
-1.88895e-05
-0.00015179
-0.000201828
-2.53342e-06
-3.17155e-05
-9.27064e-06
-8.89429e-05
-1.96416e-05
-0.000141419
-0.000188349
-2.63e-06
-2.90855e-05
-9.59639e-06
-8.19765e-05
-2.02828e-05
-0.000130733
-0.000174508
-2.71016e-06
-2.63754e-05
-9.86478e-06
-7.48219e-05
-2.08069e-05
-0.000119791
-0.000160379
-2.77296e-06
-2.36024e-05
-1.00728e-05
-6.75221e-05
-2.12082e-05
-0.000108655
-0.000146038
-2.81758e-06
-2.07848e-05
-1.02177e-05
-6.01219e-05
-2.14814e-05
-9.73917e-05
-3.59525e-05
-0.000131567
-0.000162165
-2.84329e-06
-1.79415e-05
-1.02973e-05
-5.26679e-05
-2.16218e-05
-8.60671e-05
-3.61411e-05
-0.000117048
-0.000145061
-2.84952e-06
-1.5092e-05
-1.03095e-05
-4.52079e-05
-2.16258e-05
-7.47509e-05
-3.61077e-05
-0.000102566
-0.000128038
-2.83589e-06
-1.22561e-05
-1.02532e-05
-3.77906e-05
-2.14904e-05
-6.35137e-05
-3.58473e-05
-8.82091e-05
-0.000111197
-2.80222e-06
-9.45389e-06
-1.01275e-05
-3.04653e-05
-2.1214e-05
-5.24272e-05
-3.53568e-05
-7.40664e-05
-5.19131e-05
-9.46405e-05
-0.000113911
-2.74857e-06
-6.70532e-06
-9.93261e-06
-2.32812e-05
-2.07964e-05
-4.15634e-05
-3.46347e-05
-6.02281e-05
-5.08003e-05
-7.84749e-05
-9.60041e-05
-2.67525e-06
-4.03007e-06
-9.66936e-06
-1.62871e-05
-2.02387e-05
-3.0994e-05
-3.36822e-05
-4.67846e-05
-4.93504e-05
-6.28067e-05
-7.87037e-05
-2.58289e-06
-1.44719e-06
-9.33955e-06
-9.53046e-06
-1.95441e-05
-2.07895e-05
-3.25031e-05
-3.38256e-05
-4.75667e-05
-4.77431e-05
-6.21342e-05
-2.47239e-06
1.02521e-06
-8.94595e-06
-3.0569e-06
-1.87173e-05
-1.10181e-05
-3.11038e-05
-2.14391e-05
-4.54569e-05
-3.339e-05
-6.11713e-05
-4.64198e-05
-6.05264e-05
-2.34499e-06
3.3702e-06
-8.49228e-06
3.09038e-06
-1.77651e-05
-1.74532e-06
-2.9494e-05
-9.7102e-06
-4.30326e-05
-1.98513e-05
-5.77688e-05
-3.16836e-05
-4.51672e-05
-2.2022e-06
5.5724e-06
-7.98324e-06
8.87142e-06
-1.6696e-05
6.96743e-06
-2.76861e-05
1.27987e-06
-4.03099e-05
-7.22749e-06
-5.39474e-05
-1.8046e-05
-3.11069e-05
-2.04581e-06
7.61821e-06
-7.42444e-06
1.425e-05
-1.55205e-05
1.50634e-05
-2.56956e-05
1.1455e-05
-3.7309e-05
4.38591e-06
-4.97318e-05
-5.62324e-06
-6.23541e-05
-1.84845e-05
-3.44858e-05
-1.87788e-06
9.49609e-06
-6.82229e-06
1.91945e-05
-1.42505e-05
2.24917e-05
-2.35407e-05
2.07453e-05
-3.40543e-05
1.48995e-05
-4.51521e-05
5.47457e-06
-5.6203e-05
-7.4336e-06
-2.41029e-05
-1.70065e-06
1.11967e-05
-6.18389e-06
2.36777e-05
-1.28996e-05
2.92073e-05
-2.12419e-05
2.90876e-05
-3.05736e-05
2.42312e-05
-4.02436e-05
1.51446e-05
-4.9597e-05
1.91987e-06
-1.57211e-05
-1.51649e-06
1.27132e-05
-5.51682e-06
2.7678e-05
-1.14821e-05
3.51726e-05
-1.88213e-05
3.64268e-05
-2.68973e-05
3.23072e-05
-3.50453e-05
2.32925e-05
-4.25844e-05
9.45895e-06
-4.8822e-05
-9.48343e-06
-3.4135e-05
-1.32788e-06
1.40411e-05
-4.82896e-06
3.11791e-05
-1.00131e-05
4.03568e-05
-1.63025e-05
4.27162e-05
-2.3058e-05
3.90627e-05
-2.95993e-05
2.98339e-05
-3.52173e-05
1.50769e-05
-3.91793e-05
-5.52139e-06
-3.25851e-05
-1.13727e-06
1.51784e-05
-4.12823e-06
3.41701e-05
-8.50809e-06
4.47366e-05
-1.37093e-05
4.79174e-05
-1.90889e-05
4.44423e-05
-2.39491e-05
3.46941e-05
-2.75503e-05
1.86781e-05
-2.91175e-05
-3.95418e-06
-2.78416e-05
-3.38609e-05
-7.19479e-05
-9.4704e-07
1.61254e-05
-3.42234e-06
3.66454e-05
-6.9819e-06
4.82962e-05
-1.10652e-05
5.20007e-05
-1.5023e-05
4.84001e-05
-1.81379e-05
3.78089e-05
-1.96378e-05
2.01779e-05
-1.87036e-05
-4.88837e-06
-1.44714e-05
-3.80931e-05
-8.03873e-05
-7.59398e-07
1.68848e-05
-2.71853e-06
3.86045e-05
-5.44873e-06
5.10264e-05
-8.39269e-06
5.49447e-05
-1.08919e-05
5.08994e-05
-1.22071e-05
3.91241e-05
-1.15322e-05
1.9503e-05
-8.00239e-06
-8.41822e-06
-6.97978e-07
-4.53975e-05
-9.24398e-05
-5.76324e-07
1.74611e-05
-2.02333e-06
4.00515e-05
-3.92144e-06
5.29245e-05
-5.7121e-06
5.67353e-05
-6.7244e-06
5.19117e-05
-6.19489e-06
3.85946e-05
-3.28172e-06
1.65899e-05
2.92678e-06
-1.46267e-05
1.34068e-05
-5.58776e-05
2.91942e-05
-0.000108227
-0.000172903
-3.99484e-07
1.78606e-05
-1.34229e-06
4.09943e-05
-2.41105e-06
5.39932e-05
-3.04107e-06
5.73653e-05
-2.54547e-06
5.14161e-05
-1.34286e-07
3.61834e-05
5.07204e-06
1.13835e-05
1.40325e-05
-2.35872e-05
2.77791e-05
-6.96242e-05
4.74092e-05
-0.000127857
-0.000199567
-2.30168e-07
1.80908e-05
-6.79814e-07
4.14439e-05
-9.26404e-07
5.42398e-05
-3.93786e-07
5.68327e-05
1.62468e-06
4.93976e-05
5.94828e-06
3.18598e-05
1.34952e-05
3.83658e-06
2.52728e-05
-3.53647e-05
4.23679e-05
-8.67192e-05
6.5936e-05
-0.000151425
9.71841e-05
-0.000230815
-0.000326236
-6.92805e-08
1.81601e-05
-3.857e-08
4.14132e-05
5.2626e-07
5.3675e-05
2.21954e-06
5.51394e-05
5.77143e-06
4.58457e-05
1.20331e-05
2.55981e-05
2.19634e-05
-6.09366e-06
3.66174e-05
-5.00188e-05
5.71354e-05
-0.000107237
8.47263e-05
-0.000179016
0.000120645
-0.000266734
-0.000371745
8.28703e-08
1.80772e-05
5.78575e-07
4.09175e-05
1.94333e-06
5.23102e-05
4.79309e-06
5.22897e-05
9.88634e-06
4.07525e-05
1.81091e-05
1.73754e-05
3.04621e-05
-1.84466e-05
4.80483e-05
-6.7605e-05
7.2058e-05
-0.000131247
0.000103747
-0.000210706
0.000144407
-0.000307393
0.000195314
-0.000422652
-0.000557564
2.26003e-07
1.78512e-05
1.17272e-06
3.99708e-05
3.32423e-06
5.01587e-05
7.32553e-06
4.82884e-05
1.39674e-05
3.41106e-05
2.41735e-05
7.1693e-06
3.89877e-05
-3.32608e-05
5.95598e-05
-8.81771e-05
8.71263e-05
-0.000158813
0.000122982
-0.000246562
0.000168439
-0.00035285
0.000224765
-0.000478977
-0.000625903
3.60986e-07
1.74902e-05
1.74495e-06
3.85868e-05
4.6716e-06
4.72321e-05
9.82054e-06
4.31395e-05
1.80192e-05
2.5912e-05
3.02317e-05
-5.04323e-06
4.75461e-05
-5.05752e-05
7.11571e-05
-0.000111788
0.000102342
-0.000189998
0.000142423
-0.000286643
0.000192715
-0.000403142
0.000254446
-0.000540709
0.000328668
-0.000700125
-0.000881477
4.88608e-07
1.70016e-05
2.29794e-06
3.67775e-05
5.9904e-06
4.35396e-05
1.22857e-05
3.68441e-05
2.20523e-05
1.61455e-05
3.62971e-05
-1.92881e-05
5.61527e-05
-7.04308e-05
8.28562e-05
-0.000138492
0.000117718
-0.00022486
0.000162074
-0.000330999
0.000217217
-0.000458285
0.000284306
-0.000607797
0.000364247
-0.000780066
0.000457573
-0.000974803
-0.00119066
6.102e-07
1.63914e-05
2.8358e-06
3.45519e-05
7.2883e-06
3.90871e-05
1.47328e-05
2.93996e-05
2.60825e-05
4.79579e-06
4.23896e-05
-3.55952e-05
6.48306e-05
-9.28718e-05
9.46806e-05
-0.000168342
0.000133273
-0.000263453
0.000181941
-0.000379667
0.000241929
-0.000518273
0.000314283
-0.000680152
0.000399719
-0.000865502
0.000498479
-0.00107356
-0.0013024
7.27435e-07
1.5664e-05
3.36371e-06
3.19156e-05
8.57513e-06
3.38757e-05
1.71769e-05
2.07978e-05
3.01304e-05
-8.15767e-06
4.85345e-05
-5.39993e-05
7.36081e-05
-0.000117945
0.000106658
-0.000201392
0.00014903
-0.000305824
0.00020203
-0.000432667
0.000266824
-0.000583067
0.000344306
-0.000757633
0.000434943
-0.000956139
0.000538634
-0.00117725
0.000654591
-0.00141836
-0.00167555
8.42247e-07
1.48217e-05
3.88774e-06
2.88701e-05
9.86239e-06
2.7901e-05
1.96356e-05
1.10246e-05
3.42195e-05
-2.27416e-05
5.47604e-05
-7.45402e-05
8.25166e-05
-0.000145702
0.000118819
-0.000237694
0.000165008
-0.000352013
0.00022234
-0.000489999
0.000291866
-0.000652594
0.00037428
-0.000840047
0.000469754
-0.00105161
0.000577791
-0.00128529
0.000697129
-0.0015377
0.000825747
-0.00180417
-0.00207894
9.56752e-07
1.3865e-05
4.41456e-06
2.54123e-05
1.11627e-05
2.11529e-05
2.21279e-05
5.94082e-08
3.83753e-05
-3.8989e-05
6.10976e-05
-9.72625e-05
9.15879e-05
-0.000176192
0.00013119
-0.000277296
0.00018122
-0.000402043
0.000242857
-0.000551636
0.000316997
-0.000726734
0.000404088
-0.000927138
0.000503958
-0.00115148
0.000615679
-0.00139701
0.000737504
-0.00165952
0.000866924
-0.00193358
-0.00221285
1.07315e-06
1.27918e-05
4.95111e-06
2.15344e-05
1.24892e-05
1.36148e-05
2.46738e-05
-1.21252e-05
4.26236e-05
-5.69388e-05
6.75756e-05
-0.000122215
0.000100851
-0.000209467
0.000143792
-0.000320237
0.00019767
-0.000455921
0.000263551
-0.000617517
0.000342137
-0.00080532
0.000433584
-0.00101858
0.000537335
-0.00125523
0.000652007
-0.00151168
0.000775381
-0.0017829
0.000904523
-0.00206273
0.00103603
-0.00234435
-0.002622
1.19366e-06
1.15982e-05
5.50433e-06
1.72237e-05
1.38549e-05
5.26428e-06
2.72924e-05
-2.55627e-05
4.69887e-05
-7.66351e-05
7.42212e-05
-0.000149447
0.000110329
-0.000245575
0.000156637
-0.000366546
0.000214345
-0.000513628
0.000284371
-0.000687543
0.000367179
-0.000888129
0.000462592
-0.001114
0.000569636
-0.00136228
0.000686467
-0.00162852
0.000810431
-0.00190686
0.000938251
-0.00219055
0.00106636
-0.00247245
0.00119114
-0.00274679
-0.00300638
1.32038e-06
1.02778e-05
6.08086e-06
1.24632e-05
1.52721e-05
-3.92691e-06
3.00017e-05
-4.02924e-05
5.14925e-05
-9.81259e-05
8.10561e-05
-0.000179011
0.000120038
-0.000284557
0.000169725
-0.000416233
0.000231215
-0.000575117
0.000305242
-0.00076157
0.000391991
-0.000974878
0.000490912
-0.00121292
0.000600596
-0.00147196
0.000718753
-0.00174667
0.000842345
-0.00203045
0.000967859
-0.00231606
0.00109169
-0.00259629
0.00121044
-0.00286553
0.00132158
-0.00311752
-0.00335285
1.45525e-06
8.82254e-06
6.68674e-06
7.23174e-06
1.67518e-05
-1.3992e-05
3.28172e-05
-5.63578e-05
5.61526e-05
-0.000121461
8.80956e-05
-0.000210954
0.000129983
-0.000326444
0.000183041
-0.000469291
0.000248232
-0.000640308
0.000326068
-0.000839407
0.000416415
-0.00106522
0.000518322
-0.00131483
0.000629939
-0.00158358
0.000748563
-0.0018653
0.00087085
-0.00215274
0.000993156
-0.00243837
0.00111198
-0.00271511
0.00122424
-0.00297779
0.00132792
-0.0032212
-0.00344699
0.00142206
1.59998e-06
7.22256e-06
7.3272e-06
1.50451e-06
1.83033e-05
-2.49681e-05
3.57511e-05
-7.38056e-05
6.09814e-05
-0.000146692
9.5347e-05
-0.000245319
0.000140158
-0.000371255
0.000196553
-0.000525686
0.000265326
-0.000709081
0.000346728
-0.000920809
0.000440271
-0.00115877
0.000544586
-0.00141914
0.000657392
-0.00169638
0.000775624
-0.00198353
0.000895718
-0.00227283
0.00101402
-0.00255667
0.00112724
-0.00282833
0.00123271
-0.00308327
0.00132897
-0.00331745
-0.00353353
0.00141551
1.75598e-06
5.46658e-06
8.00649e-06
-4.746e-06
1.99339e-05
-3.68954e-05
3.88122e-05
-9.26839e-05
6.59855e-05
-0.000173865
0.000102808
-0.000282142
0.000150544
-0.000418991
0.000210214
-0.000585356
0.000282409
-0.000781276
0.000367082
-0.00100548
0.000463364
-0.00125505
0.000569461
-0.00152524
0.000682692
-0.00180961
0.000799693
-0.00210053
0.000916782
-0.00238992
0.0010304
-0.00267029
0.00113757
-0.0029355
0.00123612
-0.00318182
0.0013251
-0.00340644
-0.00361289
0.00140446
1.92434e-06
3.54224e-06
8.72772e-06
-1.15494e-05
2.16482e-05
-4.98159e-05
4.20048e-05
-0.00011304
7.11648e-05
-0.000203025
0.000110469
-0.000321446
0.000161109
-0.000469631
0.00022396
-0.000648207
0.000299374
-0.00085669
0.000386972
-0.00109308
0.000485488
-0.00135356
0.00059271
-0.00163246
0.000705598
-0.0019225
0.000820573
-0.0022155
0.000933932
-0.00250328
0.00104232
-0.00277868
0.00114315
-0.00303632
0.00123476
-0.00327342
0.00131672
-0.0034884
-0.00368554
0.00138937
2.10578e-06
1.43646e-06
9.49278e-06
-1.89364e-05
2.34485e-05
-6.37716e-05
4.53288e-05
-0.000134921
7.65123e-05
-0.000234208
0.000118307
-0.000363241
0.000171809
-0.000523133
0.000237713
-0.000714111
0.000316099
-0.000935076
0.000406231
-0.00118321
0.000506435
-0.00145377
0.000614105
-0.00174013
0.000725902
-0.0020343
0.000838115
-0.00232772
0.000947128
-0.0026123
0.00104988
-0.00288143
0.0011442
-0.00313065
0.00122897
-0.00335819
0.00130424
-0.00356366
-0.00375198
0.00137068
2.30072e-06
-8.64262e-07
1.03024e-05
-2.6938e-05
2.53344e-05
-7.88036e-05
4.878e-05
-0.000158366
8.20144e-05
-0.000267443
0.000126293
-0.000407519
0.000182587
-0.000579427
0.000251381
-0.000782905
0.000332451
-0.00101615
0.000424684
-0.00127545
0.000526001
-0.00155509
0.000633441
-0.00184757
0.000743433
-0.00214429
0.00085223
-0.00243651
0.00095639
-0.00271646
0.00105321
-0.00297825
0.001141
-0.00321844
0.00121914
-0.00343633
0.0012881
-0.00363262
-0.00381272
0.00134883
2.50921e-06
-3.37347e-06
1.11561e-05
-3.55849e-05
2.73032e-05
-9.49507e-05
5.23496e-05
-0.000183413
8.76511e-05
-0.000302744
0.000134387
-0.000454255
0.000193377
-0.000638417
0.000264862
-0.00085439
0.000348288
-0.00109957
0.000442156
-0.00136931
0.000543996
-0.00165693
0.000650539
-0.00195411
0.000758065
-0.00225182
0.000862879
-0.00254133
0.000961797
-0.00281537
0.00105253
-0.00306898
0.00113386
-0.00329978
0.00120565
-0.00350811
0.00126871
-0.00369569
-0.00386825
0.00132425
2.731e-06
-6.10447e-06
1.20522e-05
-4.49061e-05
2.93496e-05
-0.000112248
5.60249e-05
-0.000210088
9.33964e-05
-0.000340116
0.000142543
-0.000503402
0.000204104
-0.000699977
0.000278047
-0.000928333
0.000363467
-0.00118499
0.000458476
-0.00146432
0.000560244
-0.00175869
0.000665254
-0.00205912
0.000769717
-0.00235628
0.000870078
-0.00264169
0.000963479
-0.00290878
0.00104807
-0.00315357
0.00112311
-0.00337483
0.00118888
-0.00357388
0.00124649
-0.0037533
-0.00391906
0.0012973
2.96556e-06
-9.07003e-06
1.29882e-05
-5.49287e-05
3.14661e-05
-0.000130726
5.97895e-05
-0.000238412
9.9219e-05
-0.000379545
0.000150709
-0.000554891
0.000214686
-0.000763955
0.000290821
-0.00100447
0.000377844
-0.00127202
0.000473485
-0.00155996
0.000574596
-0.0018598
0.000677477
-0.002162
0.000778356
-0.00245716
0.000873893
-0.00273723
0.000961608
-0.00299649
0.0010401
-0.00323207
0.00110909
-0.00344381
0.00116921
-0.00363399
0.00122181
-0.0038059
-0.0039656
0.00126834
3.21214e-06
-1.22822e-05
1.39604e-05
-6.5677e-05
3.36436e-05
-0.000150409
6.36239e-05
-0.000268392
0.000105083
-0.000421005
0.000158824
-0.000608632
0.000225036
-0.000830167
0.000303069
-0.0010825
0.00039128
-0.00136023
0.000487039
-0.00165572
0.000586926
-0.00195969
0.000687136
-0.00226221
0.00078399
-0.00255401
0.000874432
-0.00282767
0.00095639
-0.00307845
0.00102892
-0.0033046
0.00109214
-0.00350704
0.001147
-0.00368885
0.00119501
-0.00385391
-0.00400827
0.00123768
3.46976e-06
-1.57519e-05
1.49647e-05
-7.7172e-05
3.58709e-05
-0.000171315
6.75058e-05
-0.000300027
0.00011095
-0.000464449
0.000166829
-0.000664511
0.000235067
-0.000898405
0.000314676
-0.00116211
0.000403646
-0.0014492
0.000499011
-0.00175109
0.000597142
-0.00205782
0.000694198
-0.00235927
0.000786671
-0.00264649
0.000871838
-0.00291284
0.000948055
-0.00315466
0.00101481
-0.00337135
0.00107259
-0.00356481
0.00112258
-0.00373884
0.0011664
-0.00389774
-0.00404745
0.00120558
3.73726e-06
-1.94892e-05
1.59961e-05
-8.94308e-05
3.81358e-05
-0.000193455
7.14106e-05
-0.000333302
0.000116777
-0.000509816
0.000174657
-0.000722391
0.000244688
-0.000968436
0.000325533
-0.00124295
0.000414822
-0.00153849
0.000509298
-0.00184556
0.000605178
-0.0021537
0.000698666
-0.00245276
0.000786484
-0.0027343
0.000866283
-0.00299263
0.000936849
-0.00322523
0.000998072
-0.00343257
0.00105075
-0.00361749
0.00109626
-0.00378434
0.00113627
-0.00393775
-0.00408347
0.00117228
4.01337e-06
-2.35026e-05
1.7049e-05
-0.000102466
4.04246e-05
-0.000216831
7.53122e-05
-0.000368189
0.000122521
-0.000557025
0.000182244
-0.000782114
0.000253813
-0.00104
0.000335537
-0.00132468
0.000424706
-0.00162766
0.000517817
-0.00193867
0.000611002
-0.00224689
0.000700576
-0.00254233
0.000783547
-0.00281727
0.000857961
-0.00306705
0.000923024
-0.00329029
0.000978991
-0.00348854
0.00102692
-0.00366542
0.00106831
-0.00382574
0.00110486
-0.0039743
-0.0041166
0.00113799
4.29667e-06
-2.77992e-05
1.81174e-05
-0.000116287
4.27229e-05
-0.000241436
7.91829e-05
-0.000404649
0.000128136
-0.000605978
0.000189524
-0.000843502
0.000262357
-0.00111284
0.000344593
-0.00140691
0.000433211
-0.00171627
0.000524511
-0.00202997
0.00061461
-0.00233699
0.000699995
-0.00262772
0.000778
-0.00289528
0.00084708
-0.00313613
0.000906834
-0.00335005
0.000957843
-0.00353955
0.00100136
-0.00370893
0.00103898
-0.00386336
0.00107237
-0.00400768
-0.00414709
0.00110286
4.58564e-06
-3.23849e-05
1.9195e-05
-0.000130896
4.50155e-05
-0.000267257
8.29944e-05
-0.000442628
0.000133577
-0.00065656
0.000196433
-0.000906357
0.000270242
-0.00118665
0.00035262
-0.00148929
0.000440268
-0.00180392
0.000529349
-0.00211905
0.000616025
-0.00242366
0.000697013
-0.00270871
0.000770004
-0.00296827
0.000833852
-0.00319998
0.000888528
-0.00340472
0.000934885
-0.00358591
0.000974332
-0.00374838
0.0010085
-0.00389753
0.00103899
-0.00403818
-0.00417516
0.00106706
4.87867e-06
-3.72635e-05
2.02751e-05
-0.000146293
4.72867e-05
-0.000294269
8.67179e-05
-0.000482059
0.000138798
-0.00070864
0.000202909
-0.000970469
0.000277395
-0.00126113
0.000359546
-0.00157145
0.000445828
-0.0018902
0.000532321
-0.00220555
0.000615296
-0.00250664
0.000691744
-0.00278516
0.000759729
-0.00303626
0.000818495
-0.00325874
0.000868345
-0.00345457
0.000910358
-0.00362792
0.00094605
-0.00378407
0.00097705
-0.00392853
0.00100488
-0.00406601
-0.00420097
0.00103069
5.1741e-06
-4.24376e-05
2.13508e-05
-0.000162469
4.95206e-05
-0.000322438
9.03246e-05
-0.000522863
0.000143757
-0.000762073
0.000208896
-0.00103561
0.000283752
-0.00133599
0.000365315
-0.00165301
0.000449857
-0.00197475
0.000533439
-0.00228913
0.000612493
-0.00258569
0.000684317
-0.00285698
0.000747356
-0.00309929
0.000801223
-0.00331261
0.000846511
-0.00349986
0.00088448
-0.00366589
0.00091671
-0.0038163
0.000944799
-0.00395662
0.000970174
-0.00409138
-0.00422466
0.000993868
5.4702e-06
2.2415e-05
5.17009e-05
9.3786e-05
-0.000564948
0.000148411
-0.000816698
0.000214341
-0.00110154
0.000289259
-0.00141091
0.000369883
-0.00173363
0.000452343
-0.00205721
0.000532736
-0.00236952
0.000607702
-0.00266066
0.000674873
-0.00292415
0.000733068
-0.00315749
0.000782242
-0.00336178
0.000823238
-0.00354086
0.000857451
-0.0037001
0.000886487
-0.00384534
0.000911889
-0.00398202
0.000934978
-0.00411447
-0.00424635
0.000956673
9.70744e-05
0.000152719
0.000219195
-0.00116801
0.000293868
-0.00148558
0.000373221
-0.00181298
0.000453291
-0.00213728
0.000530262
-0.00244649
0.000601025
-0.00273142
0.000663559
-0.00298668
0.000717046
-0.00321098
0.000761749
-0.00340649
0.00079872
-0.00357783
0.000829447
-0.00373083
0.000855533
-0.00387143
0.000878444
-0.00400493
0.000899388
-0.00413542
-0.00426614
0.000919177
0.000223417
0.000297545
0.000375313
0.000452719
-0.00221468
0.000526083
-0.00251986
0.000592576
-0.00279791
0.000650528
-0.00304464
0.000699468
-0.00325992
0.000739931
-0.00344695
0.000773136
-0.00361103
0.000800628
-0.00375832
0.000823979
-0.00389478
0.000844566
-0.00402552
0.000863485
-0.00415434
-0.0042841
0.000881442
0.000450662
0.000520277
0.000582473
0.000635933
0.000680505
-0.00330449
0.000716961
-0.00348341
0.000746647
-0.00364072
0.000771134
-0.00378281
0.000791939
-0.00391558
0.000810347
-0.00404392
0.000827337
-0.00417133
-0.00430028
0.000843519
0.00066032
0.000692999
0.000719397
0.000741085
-0.00380449
0.000759512
-0.00393401
0.000775859
-0.00406027
0.000790998
-0.00418647
-0.00431473
0.00080545
0.00071059
0.000726782
0.000741168
0.000754519
-0.00432749
0.000767272
0.00072902
0.00456269
0.000711778
0.000709102
0.00403285
0.000721692
0.00416329
0.000732548
0.00429191
0.00074229
0.00442152
0.00455376
0.000751219
0.000638103
0.00333858
0.000673899
0.00354319
0.000701969
0.00371926
0.000723995
0.00387418
0.000741617
0.00401523
0.000756225
0.00414868
0.000768865
0.00427927
0.000780248
0.00441014
0.00454326
0.000790742
0.000480541
0.00243293
0.000548804
0.00275375
0.000607992
0.00304007
0.000657303
0.00328926
0.000697147
0.00350335
0.000728761
0.00368764
0.000753794
0.00384914
0.000773939
0.00399509
0.000790684
0.00413193
0.000805183
0.00426478
0.000818252
0.00439707
0.00453119
0.000830331
0.000246621
0.00129191
0.000325533
0.00164517
0.000406538
0.00200449
0.000485176
0.00235429
0.000557671
0.00268125
0.000621453
0.00297629
0.000675349
0.00323537
0.00071947
0.00345923
0.000754873
0.00365224
0.000783139
0.00382088
0.000805992
0.00397224
0.000825011
0.00411291
0.000841464
0.00424832
0.000856276
0.00438226
0.00451749
0.000869968
0.000109099
0.000614651
0.000170628
0.000898628
0.000243118
0.00121942
0.000323131
0.00156516
0.000406376
0.00192125
0.00048834
0.00227233
0.000565007
0.00260459
0.000633444
0.00290785
0.000692089
0.00317672
0.00074072
0.0034106
0.000780168
0.00361279
0.000811915
0.00378913
0.000837687
0.00394646
0.000859143
0.00409146
0.000877663
0.0042298
0.000894289
0.00436563
0.00450215
0.000909633
6.23756e-06
4.04054e-05
2.54872e-05
0.000166703
5.85957e-05
0.000342542
0.00010584
0.000567407
0.000166559
0.000837909
0.000238883
0.0011471
0.000319695
0.00148434
0.000404895
0.00183605
0.000489971
0.00218725
0.000570707
0.00252385
0.000643827
0.00283473
0.000707366
0.00311318
0.000760735
0.00335723
0.000804497
0.00356903
0.000839991
0.00375363
0.00086892
0.00391753
0.000893001
0.00406738
0.000913724
0.00420908
0.000932253
0.0043471
0.0044851
0.000949299
5.91857e-06
3.44869e-05
2.43611e-05
0.000148261
5.63364e-05
0.000310566
0.000102353
0.00052139
0.00016206
0.000778202
0.000233949
0.00107521
0.000315243
0.00140305
0.000402083
0.00174921
0.000490016
0.00209932
0.000574676
0.00243919
0.000652467
0.00275694
0.000721017
0.00304463
0.000779342
0.0032989
0.000827693
0.00352068
0.000867222
0.00371411
0.00089957
0.00388519
0.000926494
0.00404045
0.000949581
0.00418599
0.000970123
0.00432656
0.00446629
0.000988937
5.59766e-06
2.88892e-05
2.32115e-05
0.000130647
5.39936e-05
0.000279784
9.86653e-05
0.000476718
0.000157168
0.000719699
0.000228351
0.00100403
0.000309801
0.0013216
0.000397942
0.00166107
0.000488437
0.00200882
0.000576827
0.0023508
0.000659231
0.00267454
0.000732877
0.00297099
0.000796359
0.00323542
0.000849576
0.00346746
0.000893444
0.00367024
0.000929501
0.00384913
0.000959514
0.00401044
0.000985157
0.00416035
0.00100784
0.00430387
0.00444562
0.00102851
5.27653e-06
2.36127e-05
2.20452e-05
0.000113878
5.1583e-05
0.000250246
9.48023e-05
0.000433499
0.00015192
0.000662581
0.000222134
0.000933812
0.000303409
0.00124033
0.000392489
0.00157199
0.000485211
0.0019161
0.000577088
0.00225892
0.000663996
0.00258763
0.000742779
0.0028922
0.000811595
0.0031666
0.000869949
0.00340911
0.000918473
0.00362171
0.000958555
0.00380905
0.000991936
0.00397706
0.00102036
0.00413193
0.00104535
0.00427888
0.004423
0.00106797
4.95678e-06
1.86559e-05
2.0869e-05
9.7966e-05
4.91199e-05
0.000221996
9.07919e-05
0.000391827
0.000146356
0.000607017
0.000215348
0.00086482
0.000296114
0.00115956
0.000385752
0.00148235
0.000480332
0.00182152
0.000575399
0.00216386
0.000666647
0.00249639
0.00075056
0.00280829
0.000824853
0.00309231
0.000888603
0.00334536
0.000942108
0.00356821
0.000986554
0.0037646
0.00102361
0.00394
0.00105507
0.00410047
0.00108257
0.00425138
0.0043983
0.00110727
4.63985e-06
1.40161e-05
1.9689e-05
8.29169e-05
4.66194e-05
0.000195065
8.66617e-05
0.000351785
0.000140519
0.00055316
0.000208046
0.000797293
0.000287973
0.00107963
0.000377777
0.00139254
0.000473811
0.00172549
0.000571723
0.00206594
0.000667085
0.00240102
0.000756064
0.00271931
0.000835934
0.00301244
0.000905318
0.00327597
0.00096413
0.0035094
0.0010133
0.00371543
0.00105438
0.00389892
0.00108916
0.00406569
0.00111939
0.00422116
0.00437135
0.00114634
4.32701e-06
9.68905e-06
1.8511e-05
6.87329e-05
4.40956e-05
0.000169481
8.24385e-05
0.000313442
0.00013445
0.000501148
0.000200286
0.000731457
0.000279052
0.00100087
0.000368622
0.00130298
0.000465679
0.00162843
0.000566041
0.00196558
0.000665231
0.00230183
0.000759146
0.00262539
0.000844641
0.00292695
0.000919864
0.00320075
0.000984299
0.00344496
0.00103856
0.00366117
0.00108404
0.00385344
0.00112248
0.00402725
0.0011557
0.00418794
0.00434195
0.00118509
4.01934e-06
5.66971e-06
1.73402e-05
5.5412e-05
4.15619e-05
0.000145259
7.81484e-05
0.000276855
0.000128194
0.000451102
0.00019213
0.000667521
0.000269425
0.000923572
0.000358359
0.00121404
0.000455986
0.0015308
0.000558359
0.00186321
0.000661025
0.00219917
0.000759678
0.00252674
0.000850782
0.00283584
0.000932005
0.00311953
0.00100236
0.0033746
0.0010621
0.00360143
0.00111237
0.00380317
0.00115485
0.00398477
0.00119137
0.00415141
0.00430989
0.00122344
3.71771e-06
1.952e-06
1.6181e-05
4.29487e-05
3.90305e-05
0.000122409
7.38163e-05
0.000242069
0.000121791
0.000403127
0.000183638
0.000605675
0.000259169
0.000848041
0.000347073
0.00112614
0.000444802
0.00143307
0.000548706
0.0017593
0.000654435
0.00209344
0.000757552
0.00242362
0.000854178
0.00273922
0.000941507
0.0030322
0.00101806
0.00329805
0.00108365
0.00353585
0.00113914
0.00374768
0.00118605
0.00393786
0.00122623
0.00411123
0.00427488
0.00126124
3.4228e-06
-1.4708e-06
1.50375e-05
3.13341e-05
3.65123e-05
0.000100934
6.94655e-05
0.000209116
0.000115284
0.000357309
0.000174873
0.000546085
0.000248369
0.000774545
0.000334859
0.00103965
0.000432216
0.00133572
0.000537137
0.00165438
0.000645458
0.00198512
0.000752688
0.00231639
0.000854667
0.00263724
0.00094814
0.00293873
0.00103111
0.00321508
0.00110291
0.00346404
0.00116406
0.00368654
0.00121584
0.00388608
0.00126008
0.00406699
0.00423658
0.00129837
3.13507e-06
-4.60587e-06
1.39128e-05
2.05564e-05
3.40174e-05
8.08298e-05
6.51175e-05
0.000178016
0.000108711
0.000313716
0.000165898
0.000488897
0.000237111
0.000703332
0.000321821
0.000954937
0.000418332
0.00123921
0.000523736
0.00154898
0.000634121
0.00187473
0.000745036
0.00220548
0.000852113
0.00253016
0.000951686
0.00283915
0.00104124
0.00312552
0.0011196
0.00338569
0.00118683
0.00361931
0.00124397
0.00382894
0.0012927
0.00401826
0.00419464
0.00133465
2.85482e-06
-7.46069e-06
1.28096e-05
1.06016e-05
3.15542e-05
6.20852e-05
6.07921e-05
0.000148778
0.000102109
0.000272399
0.000156774
0.000434232
0.000225482
0.000634624
0.000308071
0.000872348
0.000403274
0.001144
0.000508608
0.00144364
0.000620486
0.00176285
0.000734582
0.00209138
0.000846408
0.00241833
0.000951947
0.00273361
0.00104818
0.00302929
0.00113338
0.00330049
0.00120713
0.00354555
0.00127011
0.00376596
0.00132383
0.00396454
0.00414861
0.00136986
2.58223e-06
-1.00429e-05
1.17303e-05
1.45345e-06
2.91307e-05
4.46848e-05
5.65077e-05
0.000121401
9.55142e-05
0.000233393
0.000147559
0.000382188
0.000213571
0.000568612
0.000293724
0.000792194
0.000387175
0.00105055
0.000491885
0.00133893
0.000604649
0.00165009
0.000721354
0.00197468
0.000837487
0.0023022
0.000948753
0.00262235
0.00105167
0.00292638
0.00114394
0.00320822
0.00122461
0.00346488
0.00129394
0.00369663
0.00135317
0.00390531
0.004098
0.00140377
2.31737e-06
-1.23603e-05
1.06768e-05
-6.906e-06
2.6754e-05
2.86077e-05
5.22814e-05
9.58738e-05
8.89598e-05
0.000196715
0.00013831
0.000332837
0.000201464
0.000505458
0.000278902
0.000714756
0.000370181