/*--------------------------------*- C++ -*----------------------------------*\
  =========                 |
  \\      /  F ield         | OpenFOAM: The Open Source CFD Toolbox
   \\    /   O peration     | Website:  https://openfoam.org
    \\  /    A nd           | Version:  7
     \\/     M anipulation  |
\*---------------------------------------------------------------------------*/
FoamFile
{
    version     2.0;
    format      ascii;
    class       volVectorField;
    location    "260";
    object      U;
}
// * * * * * * * * * * * * * * * * * * * * * * * * * * * * * * * * * * * * * //

dimensions      [0 1 -1 0 0 0 0];

internalField   nonuniform List<vector> 
4575
(
(0.000183103 -0.0303596 -6.53815e-22)
(-0.000234831 -0.0816689 -3.27136e-21)
(-0.00206358 -0.12527 3.92008e-22)
(0.000709349 -0.0299923 -3.16894e-21)
(0.00096463 -0.0805568 2.47951e-21)
(-0.000637794 -0.123418 -2.81767e-21)
(0.00121546 -0.0295017 -2.44032e-20)
(0.0021086 -0.079147 2.96682e-21)
(0.000705573 -0.121155 4.43429e-21)
(0.00169511 -0.0288894 3.98048e-20)
(0.00318341 -0.0774456 -1.65566e-20)
(0.00195054 -0.118491 -1.12636e-20)
(0.00214214 -0.0281582 -5.34635e-21)
(0.00417593 -0.0754612 6.52008e-20)
(0.00308185 -0.11544 2.96871e-20)
(0.00255065 -0.027312 -2.55993e-20)
(0.00507367 -0.0732046 1.50766e-20)
(0.00408527 -0.11202 -2.4412e-20)
(0.00291507 -0.0263556 3.09336e-20)
(0.00586505 -0.0706888 -3.64771e-20)
(0.00494769 -0.108249 -5.4248e-20)
(0.00323027 -0.0252949 5.03656e-21)
(0.00653949 -0.0679289 -1.74972e-20)
(0.00565742 -0.104149 4.8831e-20)
(0.0034916 -0.0241368 -1.43229e-20)
(0.0070876 -0.0649419 9.62214e-20)
(0.00620436 -0.0997457 -2.08935e-20)
(0.00214684 -0.128551 -2.448e-20)
(0.003695 -0.0228887 -4.3989e-20)
(0.00750135 -0.0617466 5.54084e-20)
(0.0065802 -0.0950637 3.06126e-20)
(0.0023483 -0.122757 1.35819e-20)
(0.00383705 -0.0215593 7.93725e-20)
(0.00777423 -0.0583634 -4.29526e-20)
(0.0067786 -0.0901314 1.38385e-20)
(0.00236584 -0.116684 5.19821e-20)
(0.00391504 -0.0201577 6.57504e-20)
(0.00790135 -0.0548143 -7.80116e-20)
(0.00679536 -0.0849785 -7.9837e-20)
(0.00219738 -0.110365 -3.72854e-20)
(0.00392703 -0.0186938 -8.20806e-20)
(0.00787956 -0.0511224 -7.37617e-20)
(0.00662855 -0.0796363 3.01145e-20)
(0.00184336 -0.103836 7.34903e-20)
(0.00387191 -0.0171782 3.39405e-20)
(0.00770758 -0.0473124 4.95377e-20)
(0.00627863 -0.074137 5.83474e-20)
(0.00130685 -0.0971331 -9.69197e-20)
(0.00374941 -0.015622 -1.97174e-20)
(0.00738603 -0.0434097 2.31041e-20)
(0.00574852 -0.0685145 -4.88183e-20)
(0.000593648 -0.0902929 -7.09873e-20)
(0.00356019 -0.0140366 7.13954e-20)
(0.00691752 -0.0394407 -6.88985e-20)
(0.00504362 -0.0628032 5.48288e-20)
(-0.000287715 -0.0833537 8.5848e-20)
(0.00330579 -0.0124339 -3.13492e-20)
(0.00630666 -0.0354325 -2.04005e-20)
(0.00417189 -0.0570383 5.62027e-20)
(-0.00132596 -0.0763542 -7.65286e-20)
(-0.00946828 -0.0931863 -4.23858e-20)
(0.00298873 -0.010826 -7.19035e-20)
(0.00556007 -0.0314124 9.72351e-20)
(0.00314374 -0.0512557 1.38428e-21)
(-0.00250709 -0.0693339 -8.32446e-22)
(-0.0106895 -0.0853609 9.47422e-20)
(0.00261241 -0.00922501 2.31709e-20)
(0.00468637 -0.0274083 -6.90397e-20)
(0.00197208 -0.0454915 6.52922e-20)
(-0.00381455 -0.0623322 -9.52537e-20)
(-0.0119946 -0.0775532 1.15365e-19)
(0.00218116 -0.00764323 9.02904e-21)
(0.00369606 -0.0234478 -3.58359e-20)
(0.000672081 -0.0397818 1.13881e-19)
(-0.00522931 -0.055389 -1.4389e-19)
(-0.0133609 -0.0698028 -1.16607e-19)
(0.00170017 -0.00609264 -6.22488e-20)
(0.0026015 -0.0195582 -1.07273e-19)
(-0.000738904 -0.0341623 -6.07654e-20)
(-0.00673018 -0.0485437 7.84162e-20)
(-0.0147639 -0.0621501 -4.51623e-21)
(-0.0241998 -0.0747306 1.53744e-20)
(0.00117543 -0.00458496 5.72477e-20)
(0.00141666 -0.0157662 1.39936e-19)
(-0.00224162 -0.0286683 -1.04101e-19)
(-0.00829405 -0.0418358 -4.91889e-20)
(-0.0161772 -0.0546351 4.023e-20)
(-0.0252854 -0.0667382 -9.49055e-20)
(0.000613639 -0.00313143 -6.26361e-20)
(0.00015701 -0.0120978 -6.89268e-21)
(-0.00381513 -0.0233342 1.47396e-19)
(-0.00989616 -0.0353038 1.4279e-19)
(-0.0175727 -0.0472978 -2.84996e-20)
(-0.0262781 -0.058915 -1.76663e-20)
(2.21127e-05 -0.00174264 3.99968e-20)
(-0.00116075 -0.00857736 7.869e-20)
(-0.00543713 -0.0181931 -5.36092e-20)
(-0.0115105 -0.0289856 -6.52342e-20)
(-0.0189216 -0.0401778 -6.59894e-20)
(-0.0271459 -0.0513002 -1.74563e-20)
(-0.000591341 -0.000428359 -5.49911e-20)
(-0.00251891 -0.005228 -1.71188e-19)
(-0.00708425 -0.0132764 5.31222e-20)
(-0.0131101 -0.0229174 2.84206e-21)
(-0.0201942 -0.0333139 2.16003e-19)
(-0.0278564 -0.0439333 -1.25911e-19)
(-0.0355802 -0.054498 -1.05482e-19)
(-0.00121857 0.000802601 -5.26803e-20)
(-0.00389905 -0.0020708 2.02271e-19)
(-0.00873242 -0.00861346 -1.50958e-19)
(-0.0146676 -0.0171341 -3.02142e-20)
(-0.0213606 -0.0267438 -4.97576e-20)
(-0.0283774 -0.0368535 -1.26249e-19)
(-0.0352355 -0.0471291 1.22774e-19)
(-0.00185121 0.00194258 7.47281e-20)
(-0.00528237 0.000875378 -8.88808e-20)
(-0.0103572 -0.00423134 -1.08814e-19)
(-0.0161552 -0.0116682 -1.00531e-19)
(-0.0223911 -0.0205038 3.26236e-20)
(-0.0286772 -0.0300991 1.78621e-20)
(-0.0345653 -0.0400684 4.38162e-20)
(-0.0024809 0.00298518 -1.58085e-19)
(-0.00664995 0.00359416 1.19507e-19)
(-0.0119342 -0.000154246 1.31287e-19)
(-0.0175455 -0.00654985 -7.45751e-20)
(-0.0232564 -0.0146282 1.24563e-19)
(-0.0287248 -0.0237075 1.17489e-19)
(-0.0335369 -0.0333552 -2.07124e-20)
(-0.0372694 -0.0433462 -1.13801e-19)
(-0.0030994 0.00392536 -1.25017e-19)
(-0.00798311 0.00607195 -1.10068e-19)
(-0.0134393 0.00359675 8.50928e-20)
(-0.0188116 -0.00180618 4.8308e-20)
(-0.0239278 -0.00914894 1.9272e-20)
(-0.0284904 -0.0177143 -3.45204e-20)
(-0.032119 -0.0270281 -2.37525e-20)
(-0.0344109 -0.0368214 5.31916e-20)
(-0.00369877 0.00475956 6.04325e-20)
(-0.00926371 0.00829809 1.14033e-19)
(-0.0148492 0.00700403 -2.00662e-19)
(-0.0199271 0.00253904 -1.50169e-19)
(-0.0243776 -0.00409499 7.45665e-20)
(-0.0279453 -0.0121527 6.8506e-20)
(-0.0302817 -0.0211237 -1.38837e-19)
(-0.0310041 -0.0306989 -1.22371e-20)
(-0.00427152 0.0054857 2.91716e-19)
(-0.0104744 0.010265 -1.92912e-19)
(-0.0161411 0.0100537 4.57841e-20)
(-0.0208666 0.00646579 1.45901e-19)
(-0.0245789 0.000508171 -1.53631e-19)
(-0.0270619 -0.00705296 7.35578e-21)
(-0.0279969 -0.0156763 1.11785e-19)
(-0.0270196 -0.0250166 2.01055e-19)
(-0.0237438 -0.034872 1.99224e-19)
(-0.0048108 0.0061032 -2.76781e-19)
(-0.0115989 0.0119684 1.92298e-19)
(-0.0172938 0.0127357 4.56235e-20)
(-0.021606 0.00995815 -1.44717e-19)
(-0.0245059 0.00463901 5.98045e-20)
(-0.0258132 -0.00244158 -2.8211e-20)
(-0.025237 -0.0107171 -2.06163e-20)
(-0.0224298 -0.0198095 -1.69764e-19)
(-0.0170134 -0.029482 -2.61974e-19)
(-0.00531043 0.00661294 2.22467e-19)
(-0.0126222 0.013407 -5.42354e-20)
(-0.018287 0.0150442 1.80657e-19)
(-0.0221218 0.0130046 4.28091e-20)
(-0.0241333 0.00828045 -9.21952e-20)
(-0.0241732 0.00165921 1.46284e-20)
(-0.0219754 -0.00627259 -1.8814e-19)
(-0.0172077 -0.0151083 8.36951e-20)
(-0.00949895 -0.0245785 4.44801e-20)
(0.00153356 -0.0345085 6.54538e-21)
(-0.00576505 0.0070172 -5.6604e-20)
(-0.0135306 0.0145828 -5.85499e-20)
(-0.0191021 0.0169772 -1.132e-19)
(-0.0223917 0.0155982 8.10776e-20)
(-0.0234366 0.0114203 1.43816e-19)
(-0.0221157 0.00523221 -1.82147e-19)
(-0.0181849 -0.00236447 2.84494e-19)
(-0.0113255 -0.0109384 -5.44128e-20)
(-0.001173 -0.02019 7.8767e-21)
(0.0126542 -0.0299133 -1.8058e-19)
(-0.00617017 0.00731952 1.78911e-20)
(-0.0143119 0.0155006 5.67746e-20)
(-0.0197214 0.0185369 6.68412e-20)
(-0.0223945 0.0177368 -5.45338e-20)
(-0.0223915 0.0140514 1.3366e-19)
(-0.0196142 0.00826579 1.7511e-19)
(-0.0138374 0.000991648 2.72444e-21)
(-0.00475434 -0.00731853 -2.16582e-19)
(0.0079936 -0.0163381 -1.69335e-19)
(0.024786 -0.0258311 1.73237e-19)
(-0.00652216 0.00752456 -1.05761e-19)
(-0.0149555 0.016168 9.70271e-20)
(-0.0201288 0.0197295 -6.98202e-20)
(-0.0221092 0.019423 -3.38572e-20)
(-0.0209734 0.0161724 -9.01336e-20)
(-0.0166412 0.0107544 -6.67514e-20)
(-0.008903 0.00378683 -1.17064e-19)
(0.00253755 -0.00426029 1.89161e-19)
(0.0180333 -0.0130359 7.35986e-20)
(0.0379606 -0.0222758 -1.7677e-19)
(0.0626861 -0.031769 -2.09569e-19)
(-0.00681822 0.00763792 -1.07675e-20)
(-0.0154521 0.0165949 -2.39762e-19)
(-0.0203092 0.0205646 5.70205e-20)
(-0.0215155 0.0206641 1.23901e-19)
(-0.0191574 0.0177873 -2.20092e-20)
(-0.0131675 0.0126989 -1.43254e-19)
(-0.00334909 0.00601945 1.54626e-19)
(0.0105855 -0.00176683 1.73277e-19)
(0.0289831 -0.010287 6.47619e-20)
(0.0522148 -0.0192505 3.14533e-19)
(0.0806391 -0.0284177 -1.42918e-19)
(-0.00705638 0.00766594 -6.15298e-20)
(-0.0157935 0.0167935 -2.13748e-20)
(-0.0202484 0.0210554 -1.89114e-19)
(-0.0205932 0.0214721 1.1309e-19)
(-0.0169173 0.0189059 -1.12787e-19)
(-0.00916183 0.0141071 -1.12067e-19)
(0.00286034 0.0076957 -9.81386e-21)
(0.0194294 0.000167715 -1.74615e-19)
(0.0408855 -0.00808457 -2.71184e-19)
(0.0675916 -0.0167461 7.25102e-20)
(0.0998927 -0.0255503 7.93817e-20)
(0.138071 -0.0342513 -3.27512e-20)
(-0.00723531 0.00761544 1.93304e-19)
(-0.0159728 0.0167773 -2.93378e-20)
(-0.0199328 0.0212182 1.6712e-19)
(-0.0193215 0.0218633 -1.67329e-19)
(-0.0142256 0.0195436 2.41251e-19)
(-0.00459007 0.0149933 1.97459e-19)
(0.00976536 0.00882996 -1.58615e-19)
(0.0291142 0.00155868 -2.88866e-19)
(0.0537889 -0.00641094 4.68092e-19)
(0.0841404 -0.0147413 1.13018e-19)
(0.120493 -0.0231403 -8.59716e-20)
(0.163094 -0.0313361 -8.28189e-20)
(-0.00735429 0.00749352 -3.0894e-19)
(-0.0159838 0.0165617 1.94126e-19)
(-0.0193489 0.0210716 -2.82073e-19)
(-0.0176791 0.021858 -1.501e-19)
(-0.0110529 0.0197212 5.46037e-20)
(0.000585028 0.015379 -2.13279e-19)
(0.0174105 0.00944487 3.26951e-19)
(0.0396907 0.00243115 5.5905e-21)
(0.0677482 -0.0052371 -1.7413e-19)
(0.101917 -0.0132016 -1.48628e-19)
(0.142491 -0.0211471 -2.59105e-19)
(0.189668 -0.0287778 -3.0171e-21)
(0.243489 -0.0357969 -3.49392e-20)
(-0.00741291 0.00730749 1.09757e-19)
(-0.0158208 0.0161624 -1.94192e-19)
(-0.0184832 0.0206367 2.43498e-19)
(-0.0156438 0.0214801 3.34212e-19)
(-0.00736753 0.0194649 -1.06129e-19)
(0.00640422 0.0152924 1.37091e-20)
(0.0258448 0.00957132 -2.75354e-19)
(0.0512149 0.00281999 -6.67639e-20)
(0.0828237 -0.0045228 -2.04058e-19)
(0.120981 -0.01208 2.6002e-19)
(0.16594 -0.0195155 2.35347e-19)
(0.217832 -0.0265134 -4.0697e-20)
(0.276601 -0.0327607 -2.97677e-20)
(-0.00741103 0.00706442 2.89888e-20)
(-0.0154783 0.0155959 3.92986e-20)
(-0.0173219 0.019936 -1.2745e-19)
(-0.0131916 0.0207567 -3.44369e-19)
(-0.0031354 0.0188053 5.45338e-20)
(0.0129118 0.014768 1.61456e-19)
(0.0351219 0.00924823 7.20792e-20)
(0.0637477 0.00276962 3.02336e-19)
(0.0990804 -0.00421677 -1.85469e-19)
(0.141396 -0.0113171 -2.35781e-19)
(0.190893 -0.0181773 -4.22531e-20)
(0.247617 -0.0244657 1.02327e-19)
(0.311385 -0.0298606 2.17385e-20)
(0.381706 -0.0340401 8.73697e-21)
(-0.00734846 0.00677105 -1.43264e-19)
(-0.0149504 0.0148784 9.10051e-21)
(-0.0158501 0.0189935 -2.50087e-20)
(-0.0102972 0.0197178 2.98568e-19)
(0.00168017 0.0177777 9.22235e-20)
(0.0201554 0.0138461 -2.94485e-20)
(0.0452992 0.00852209 1.10705e-19)
(0.0773539 0.00233352 9.57872e-20)
(0.116586 -0.00425741 2.2637e-19)
(0.163227 -0.0108423 2.73525e-20)
(0.217402 -0.0170524 -2.60298e-19)
(0.279043 -0.0225462 1.46531e-20)
(0.347814 -0.027001 -2.01418e-19)
(0.42302 -0.0301108 -1.70219e-20)
(0.503568 -0.0315802 -9.16463e-20)
(-0.00722484 0.00643373 2.34511e-19)
(-0.0142307 0.0140262 1.61928e-19)
(-0.0140519 0.0178337 1.25566e-19)
(-0.00693325 0.0183952 -1.7036e-19)
(0.00711841 0.0164209 1.13401e-19)
(0.0281858 0.0125729 -1.05906e-19)
(0.0564375 0.00744627 -1.64214e-19)
(0.0921009 0.00157338 -2.2566e-19)
(0.135409 -0.00457394 -9.71239e-20)
(0.186535 -0.0105752 1.87326e-19)
(0.245505 -0.0160514 1.62393e-19)
(0.312116 -0.0206572 2.32213e-19)
(0.385837 -0.0240792 2.02413e-19)
(0.465734 -0.0260399 -6.0074e-20)
(0.550433 -0.0262992 -8.04343e-20)
(-0.00703943 0.0060582 -1.43229e-19)
(-0.013312 0.013055 -3.6992e-19)
(-0.0119098 0.0164816 -1.48625e-19)
(-0.00307058 0.0168228 1.56457e-19)
(0.0132209 0.0147771 4.45054e-20)
(0.0370562 0.0109987 7.22831e-20)
(0.0685993 0.00608025 1.88109e-19)
(0.108056 0.000558077 -1.85427e-19)
(0.155616 -0.0050877 2.52146e-19)
(0.211372 -0.0104277 -2.57314e-20)
(0.275232 -0.0150775 -3.59057e-19)
(0.346819 -0.0186963 -6.66859e-20)
(0.425375 -0.0209902 -2.24146e-19)
(0.509686 -0.0217244 -1.50252e-19)
(0.598068 -0.0207283 1.59575e-19)
(0.68836 -0.0179852 1.26356e-19)
(-0.00679092 0.00564961 1.90456e-19)
(-0.0121858 0.0119796 2.88482e-19)
(-0.0094049 0.0149624 -1.54107e-20)
(0.00132201 0.0150353 -1.29338e-19)
(0.0200312 0.0128908 -1.41432e-19)
(0.0468214 0.00917812 3.00119e-20)
(0.0818476 0.00448856 -2.22407e-19)
(0.125286 -0.000637596 2.08984e-19)
(0.177266 -0.00571387 -8.08341e-20)
(0.237781 -0.0103058 -1.73507e-19)
(0.306591 -0.0140302 2.14511e-19)
(0.383109 -0.0165595 -5.19423e-20)
(0.466312 -0.0176321 -9.19387e-20)
(0.554674 -0.017069 1.67344e-19)
(0.646179 -0.014783 -2.50343e-19)
(0.73836 -0.0108689 1.18311e-21)
(0.82874 -0.00523529 9.13661e-21)
(-0.00647731 0.00521239 -2.12182e-19)
(-0.0108423 0.0108142 -8.05854e-20)
(-0.00651631 0.0133006 1.42808e-19)
(0.00627746 0.0130683 1.16851e-19)
(0.0275943 0.0108086 1.31107e-19)
(0.0575367 0.00716863 -7.47231e-20)
(0.096244 0.00273975 -6.39826e-20)
(0.143851 -0.00193434 -2.72066e-20)
(0.20041 -0.00636331 -2.86282e-19)
(0.26579 -0.0101125 5.26124e-19)
(0.339566 -0.0128078 5.55173e-21)
(0.42091 -0.0141459 6.48611e-20)
(0.508495 -0.0139102 6.26494e-20)
(0.600457 -0.0119921 1.2448e-19)
(0.694443 -0.00839905 2.11174e-19)
(0.787701 -0.00333802 1.18525e-19)
(0.877534 0.00313842 1.23568e-19)
(-0.00609578 0.00475036 5.33984e-20)
(-0.00927006 0.00957169 -4.30861e-20)
(-0.00322158 0.0115205 1.06819e-19)
(0.0118302 0.0109577 -1.59574e-19)
(0.0359558 0.00857828 -1.95499e-20)
(0.0692563 0.00503 7.13629e-20)
(0.111847 0.000905228 8.50939e-20)
(0.163806 -0.00324992 -7.28108e-20)
(0.225087 -0.00694461 2.08274e-19)
(0.295404 -0.00975024 -2.14104e-19)
(0.374117 -0.0113111 9.83455e-20)
(0.460112 -0.0113605 -1.8521e-19)
(0.551733 -0.00974148 1.85683e-19)
(0.646761 -0.00642901 1.53979e-19)
(0.742515 -0.00153472 -2.78075e-19)
(0.836003 0.00462457 -2.48768e-19)
(0.924386 0.0118643 -8.7762e-20)
(1.00459 0.0186688 -7.43099e-20)
(-0.0056426 0.00426672 3.35588e-19)
(-0.00745606 0.00826445 -1.85738e-19)
(0.000503456 0.0096458 -2.59878e-19)
(0.0180157 0.00873964 -1.07083e-19)
(0.0451614 0.00624848 -1.64021e-19)
(0.0820326 0.00282337 -1.92827e-20)
(0.128708 -0.000941929 2.82894e-19)
(0.185194 -0.00450071 1.42128e-19)
(0.251317 -0.00736613 2.20703e-19)
(0.326607 -0.00912337 6.03926e-20)
(0.410167 -0.00944613 1.65851e-19)
(0.500569 -0.00811833 -1.88762e-19)
(0.595798 -0.00505735 7.77209e-20)
(0.693279 -0.0003345 -1.25573e-19)
(0.790033 0.00582814 1.38295e-19)
(0.882892 0.0130095 2.96283e-19)
(0.968972 0.0209104 -2.42074e-20)
(1.04544 0.0281088 1.79826e-19)
(1.11197 0.0371539 -6.20378e-20)
(-0.00511317 0.00376415 -1.74487e-19)
(-0.00538571 0.00690384 1.85755e-21)
(0.00468435 0.00769951 1.31043e-19)
(0.02487 0.00644975 2.61478e-20)
(0.0552553 0.00386808 3.13847e-19)
(0.0959138 0.000610532 -4.06431e-20)
(0.146874 -0.00272809 -2.41191e-19)
(0.208045 -0.00560324 -1.77719e-19)
(0.279103 -0.00753799 -2.54523e-19)
(0.359354 -0.00814065 -2.48065e-19)
(0.447611 -0.00712711 -2.91936e-19)
(0.542098 -0.00434677 3.13549e-19)
(0.640428 0.000193827 1.36763e-19)
(0.739685 0.00631627 -1.89352e-20)
(0.836637 0.0136854 -3.71514e-20)
(0.92802 0.0217855 4.43711e-20)
(1.01101 0.0302241 1.24114e-19)
(1.08311 0.037691 7.15632e-20)
(1.14407 0.0463118 5.68065e-20)
(1.18853 0.0467538 1.68988e-20)
(-0.00450196 0.00324496 -6.0937e-20)
(-0.00304292 0.00550064 3.4275e-20)
(0.00934778 0.00570408 4.81735e-20)
(0.0324292 0.00412348 1.24387e-19)
(0.06628 0.00148589 -9.46631e-20)
(0.110943 -0.00154683 2.35323e-20)
(0.166378 -0.00438013 2.47635e-19)
(0.232376 -0.00647569 2.70983e-20)
(0.308424 -0.00737394 -1.08735e-21)
(0.393573 -0.00671745 3.44777e-20)
(0.486308 -0.00427852 1.72166e-19)
(0.584482 1.23612e-05 -2.39588e-19)
(0.685335 0.00604569 -2.57131e-19)
(0.785637 0.0135281 -1.38088e-19)
(0.881973 0.0220133 -1.67209e-19)
(0.971074 0.0309039 -1.96513e-19)
(1.05029 0.03974 -2.68366e-20)
(1.11751 0.0473349 -1.2076e-19)
(1.17272 0.0554725 2.60918e-19)
(1.21214 0.0561732 -1.3119e-19)
(-0.0038026 0.00271116 3.1278e-19)
(-0.000410299 0.0040652 -7.341e-20)
(0.0145211 0.00368152 -1.04256e-19)
(0.0407283 0.00179593 5.20354e-20)
(0.0782744 -0.000849655 2.49277e-20)
(0.127157 -0.00358767 -7.20314e-20)
(0.187246 -0.00582634 -2.09868e-20)
(0.258183 -0.00703913 -4.16965e-20)
(0.339237 -0.00679301 1.2264e-19)
(0.429162 -0.00477762 2.9753e-19)
(0.526087 -0.000837074 9.34032e-20)
(0.627477 0.00500151 2.76938e-19)
(0.730211 0.0125137 1.12632e-19)
(0.830797 0.0212873 1.54338e-19)
(0.925713 0.0307714 1.74208e-19)
(1.01179 0.0403047 -1.74101e-20)
(1.08663 0.049387 -4.36371e-20)
(1.14862 0.0569641 -9.97501e-23)
(1.19803 0.0645552 2.89721e-20)
(1.23244 0.065368 6.92315e-20)
(-0.00300802 0.00216471 -1.4103e-19)
(0.00253055 0.0026077 2.03449e-20)
(0.020232 0.0016536 -1.44407e-19)
(0.0498011 -0.000498194 -1.99449e-19)
(0.0912733 -0.00309071 -8.38461e-20)
(0.144583 -0.00545208 -8.86681e-21)
(0.209486 -0.00699725 1.0909e-19)
(0.285445 -0.00721869 -8.71067e-20)
(0.371472 -0.00572089 1.70321e-20)
(0.46599 -0.00225493 -1.92697e-20)
(0.566746 0.00324715 -2.44451e-19)
(0.670813 0.0106469 -3.75901e-19)
(0.774741 0.0195961 -5.58505e-20)
(0.874835 0.029564 -1.21767e-19)
(0.967561 0.0399071 -1.14074e-19)
(1.04994 0.0499213 -2.00995e-20)
(1.11995 0.0590941 -7.14037e-20)
(1.17648 0.0665104 -4.32888e-20)
(1.22015 0.0734944 -1.28136e-19)
(1.24968 0.0742795 -2.50892e-21)
(-0.00211051 0.00160758 -1.37068e-19)
(0.00579875 0.00113844 2.8192e-19)
(0.0265077 -0.000357912 1.71921e-19)
(0.0596791 -0.00272436 7.49551e-20)
(0.105306 -0.00519005 -2.63524e-20)
(0.16324 -0.0070816 -1.68989e-19)
(0.233096 -0.00782625 -1.09696e-19)
(0.314121 -0.00694449 -5.27061e-20)
(0.405036 -0.00409107 -7.69806e-20)
(0.5039 0.000905811 -2.7055e-19)
(0.608059 0.00801001 1.9768e-19)
(0.714208 0.0169589 1.27395e-19)
(0.818608 0.027275 2.00821e-19)
(0.917444 0.0383151 5.69983e-20)
(1.00726 0.0493596 3.12589e-20)
(1.08539 0.059685 1.12041e-20)
(1.15022 0.0687945 -1.19253e-20)
(1.20117 0.0759171 -3.94291e-20)
(1.23927 0.0822404 -4.25569e-20)
(1.26413 0.082875 -1.25864e-19)
(-0.0011019 0.00104197 2.4357e-20)
(0.00941374 -0.000331912 -4.29004e-20)
(0.0333747 -0.00233097 3.06392e-20)
(0.0703905 -0.00484809 -7.18677e-20)
(0.120396 -0.00710114 1.48534e-19)
(0.183136 -0.00841954 2.62888e-19)
(0.258055 -0.00825016 7.92553e-20)
(0.344149 -0.00615239 2.16919e-19)
(0.439811 -0.00184568 -1.12609e-19)
(0.542709 0.00474814 2.91286e-19)
(0.649783 0.0134733 5.21227e-20)
(0.75737 0.0239327 1.23523e-19)
(0.861508 0.0355192 -2.19257e-19)
(0.958346 0.0474877 -7.69151e-20)
(1.04462 0.0590638 7.76508e-20)
(1.11802 0.0695293 1.47161e-19)
(1.17744 0.0784291 9.8244e-20)
(1.22284 0.0851397 -4.26683e-20)
(1.25561 0.0907591 1.72462e-19)
(1.27608 0.0911418 5.63041e-20)
(2.624e-05 0.000470413 -8.17005e-20)
(0.0133949 -0.00179201 -1.77979e-19)
(0.040858 -0.00424298 -1.31119e-19)
(0.0819599 -0.0068348 3.9965e-20)
(0.136559 -0.0087781 -2.11174e-19)
(0.204268 -0.00941113 -2.57139e-19)
(0.284327 -0.00820958 -3.40166e-20)
(0.375447 -0.00478453 -7.67223e-20)
(0.475656 0.00106399 2.66413e-19)
(0.582214 0.00930366 -6.91531e-20)
(0.691657 0.019645 -1.99417e-19)
(0.80001 0.0315499 -3.19026e-19)
(0.903154 0.0442861 1.693e-19)
(0.997305 0.0570224 1.5434e-19)
(1.07948 0.0689537 -4.06039e-20)
(1.14781 0.0793927 -7.79806e-20)
(1.20171 0.0879482 3.0978e-20)
(1.24166 0.0941462 -4.19239e-20)
(1.26939 0.0990304 -7.95949e-21)
(1.28581 0.0990826 1.00623e-19)
(0.00128246 -0.000104097 -6.28164e-20)
(0.0177611 -0.00322962 -4.56406e-20)
(0.0489805 -0.00607056 2.01934e-19)
(0.0944073 -0.00864954 -1.21794e-19)
(0.153802 -0.0101756 3.07422e-19)
(0.22662 -0.0100036 1.26742e-19)
(0.31186 -0.00764927 -8.13127e-20)
(0.407912 -0.00278983 -1.35985e-19)
(0.512412 0.00467709 -2.11999e-19)
(0.622197 0.0145921 8.78244e-20)
(0.73342 0.0265204 1.76889e-20)
(0.841845 0.0397807 1.06228e-19)
(0.943287 0.0535249 2.03997e-19)
(1.03412 0.0668567 -1.14299e-19)
(1.11173 0.078966 4.05587e-20)
(1.17475 0.0892206 -1.41115e-19)
(1.22313 0.0973127 -4.27379e-20)
(1.25782 0.102916 -3.40818e-20)
(1.28087 0.107047 -1.96516e-20)
(1.2936 0.106711 -1.39781e-19)
(0.00267523 -0.000677985 1.23347e-19)
(0.0225304 -0.00463137 1.87764e-19)
(0.0577627 -0.00778927 7.25718e-21)
(0.107748 -0.0102569 1.11724e-19)
(0.172126 -0.0112489 -2.63383e-19)
(0.250164 -0.0101465 6.2103e-20)
(0.340586 -0.00651837 -3.93884e-20)
(0.441426 -0.000124198 -7.46796e-21)
(0.549901 0.00902316 -7.17059e-20)
(0.662426 0.0206218 -1.54436e-19)
(0.774807 0.0340831 -3.70109e-20)
(0.882612 0.0485852 9.60987e-20)
(0.981682 0.0631792 -2.80402e-19)
(1.06865 0.0769275 7.06997e-20)
(1.14134 0.0890418 -2.06985e-20)
(1.19892 0.0989672 1.18922e-19)
(1.24185 0.106494 2.19456e-19)
(1.27154 0.11144 4.45587e-22)
(1.29028 0.114809 -3.59855e-20)
(1.29968 0.11405 -4.61274e-20)
(0.00421279 -0.00124704 -2.22119e-20)
(0.0277194 -0.00598265 -2.82643e-19)
(0.0672215 -0.00937348 -2.12531e-19)
(0.12199 -0.0116208 -1.31186e-20)
(0.191521 -0.0119539 4.60414e-20)
(0.274859 -0.00979163 -8.68171e-20)
(0.370421 -0.00477068 -1.75352e-22)
(0.47585 0.00324917 2.78037e-20)
(0.587931 0.0141222 3.99974e-20)
(0.702668 0.0273904 2.19044e-19)
(0.815562 0.0423067 8.85395e-20)
(0.922068 0.0579165 -2.2628e-20)
(1.01815 0.0731899 2.53723e-20)
(1.10079 0.0871741 -3.24441e-20)
(1.16829 0.0991288 1.43554e-19)
(1.22039 0.108596 -5.95111e-20)
(1.25804 0.115473 -9.77338e-20)
(1.28304 0.119718 -7.88654e-21)
(1.29786 0.122329 5.77162e-20)
(1.30431 0.121125 4.47224e-21)
(0.00590294 -0.00180634 3.91453e-20)
(0.0333431 -0.00726746 1.49643e-19)
(0.0773707 -0.0107962 9.15331e-20)
(0.137136 -0.0127046 -1.63017e-19)
(0.211967 -0.0122469 3.42422e-20)
(0.300653 -0.0088932 2.03855e-19)
(0.401267 -0.00236488 1.0893e-19)
(0.511035 0.00735973 1.4386e-20)
(0.626302 0.0199848 1.26761e-19)
(0.742685 0.0348853 -2.51965e-19)
(0.855441 0.051156 -6.8958e-20)
(0.959999 0.0677224 -2.87954e-20)
(1.05254 0.083497 1.65079e-19)
(1.13047 0.0975395 -4.92009e-20)
(1.19263 0.109182 -1.38153e-20)
(1.2393 0.118078 -8.39424e-20)
(1.2719 0.124239 -6.79275e-20)
(1.29254 0.127755 -2.24033e-20)
(1.30383 0.12962 -2.40422e-20)
(1.30768 0.127966 -6.52336e-20)
(0.00775292 -0.00235027 -3.65315e-20)
(0.0394143 -0.00846837 -2.11327e-20)
(0.0882194 -0.0120292 -5.31056e-20)
(0.153183 -0.0134709 1.71318e-19)
(0.233436 -0.0120851 1.11588e-19)
(0.32748 -0.00740828 -3.50857e-20)
(0.433011 0.000735233 -6.31529e-21)
(0.546817 0.0122295 1.31143e-19)
(0.664807 0.0266128 -1.94743e-19)
(0.782245 0.0430856 1.16181e-19)
(0.894218 0.0605894 1.15988e-19)
(0.996222 0.0779479 2.99876e-20)
(1.08475 0.0940422 -5.89283e-20)
(1.15768 0.107972 8.28154e-20)
(1.21443 0.119165 -2.1115e-19)
(1.2558 0.127396 2.68502e-20)
(1.28362 0.132792 -4.80445e-20)
(1.30026 0.135564 1.18594e-19)
(1.3084 0.136703 2.11407e-19)
(1.30999 0.134601 2.64017e-20)
(0.00976929 -0.00287246 -5.64118e-20)
(0.0459437 -0.00956654 2.32165e-20)
(0.0997724 -0.0130428 1.49826e-19)
(0.170118 -0.0138818 2.53342e-21)
(0.255888 -0.0114266 -2.41634e-19)
(0.355262 -0.00529692 -1.61787e-19)
(0.465529 0.00456051 -1.35226e-19)
(0.583026 0.0178732 -6.93905e-20)
(0.703236 0.0339995 2.57191e-19)
(0.821126 0.0519624 -1.13311e-20)
(0.931691 0.0705601 3.26948e-20)
(1.03059 0.0885367 5.21013e-20)
(1.11469 0.10477 -1.70837e-19)
(1.18243 0.118428 -1.32735e-19)
(1.23378 0.129048 3.48248e-20)
(1.27004 0.136537 1.56197e-19)
(1.29339 0.141136 -1.20683e-20)
(1.30639 0.143161 1.16823e-19)
(1.31174 0.143599 -1.59466e-19)
(1.31138 0.141061 -1.91709e-20)
(0.0119578 -0.00336587 7.18763e-20)
(0.0529389 -0.0105418 8.52579e-20)
(0.112029 -0.0138062 -1.5457e-19)
(0.187924 -0.0138993 -8.13864e-21)
(0.279275 -0.0102308 2.82868e-19)
(0.38391 -0.00252252 1.73152e-19)
(0.498686 0.00913623 -6.77155e-20)
(0.619482 0.024298 9.7408e-20)
(0.741384 0.0421306 -1.01665e-19)
(0.85912 0.0614805 -1.00036e-19)
(0.96768 0.081018 9.92345e-20)
(1.06297 0.0994332 -1.96169e-19)
(1.14234 0.11563 2.41162e-20)
(1.20478 0.128867 8.95044e-20)
(1.25081 0.138809 -4.73995e-20)
(1.2822 0.145497 6.59117e-20)
(1.3014 0.149279 -7.7754e-20)
(1.31113 0.150566 -1.75272e-19)
(1.31404 0.15033 2.22197e-20)
(1.31201 0.147372 5.71401e-20)
(0.0143231 -0.00382276 8.39166e-20)
(0.0604047 -0.0113727 -2.59547e-19)
(0.124985 -0.0142876 4.07362e-20)
(0.206573 -0.0134852 -4.1318e-20)
(0.303538 -0.0084588 -9.98036e-20)
(0.413325 0.000947775 -7.75015e-20)
(0.532338 0.0144819 6.82288e-20)
(0.656004 0.0315044 -3.04826e-19)
(0.779049 0.0509849 -6.93511e-20)
(0.896033 0.0715997 4.39663e-20)
(1.00203 0.0919112 -5.44336e-20)
(1.0933 0.110584 1.51166e-19)
(1.1677 0.126577 1.03337e-19)
(1.22479 0.139259 3.49027e-20)
(1.26566 0.148436 1.88183e-19)
(1.29245 0.154278 -1.80789e-19)
(1.30785 0.157235 1.08494e-19)
(1.31465 0.157799 1.48582e-19)
(1.31543 0.156919 -1.33132e-20)
(1.31198 0.15356 -9.09754e-20)
(0.016869 -0.00423483 6.62076e-21)
(0.0683428 -0.0120368 -2.75214e-21)
(0.138628 -0.0144547 1.84597e-19)
(0.226031 -0.0126017 -2.57539e-20)
(0.32861 -0.00607369 -1.12338e-20)
(0.443398 0.00514273 1.84289e-19)
(0.566336 0.020611 2.06445e-19)
(0.692411 0.0394856 5.56554e-20)
(0.816039 0.0605349 1.16093e-19)
(0.931692 0.0822761 -7.40529e-20)
(1.03463 0.103188 -6.14438e-20)
(1.12152 0.121938 -1.478e-21)
(1.19078 0.137569 -7.15453e-20)
(1.24257 0.149579 -2.68599e-21)
(1.27847 0.157918 -1.32263e-19)
(1.30095 0.162885 5.07507e-20)
(1.31289 0.165019 1.15382e-19)
(1.3171 0.16488 -5.66025e-20)
(1.31604 0.163386 6.34729e-20)
(1.3114 0.159647 1.10602e-19)
(0.019598 -0.00459319 2.55216e-20)
(0.0767511 -0.0125107 -6.6213e-20)
(0.152943 -0.0142744 -3.839e-21)
(0.246257 -0.0112119 1.94087e-21)
(0.354414 -0.00304113 -1.23837e-19)
(0.474013 0.0100866 -1.73127e-20)
(0.600525 0.0275312 -2.12743e-19)
(0.728523 0.0482289 2.15602e-19)
(0.852173 0.0707479 1.0837e-19)
(0.965946 0.093463 9.64461e-21)
(1.06537 0.114796 -9.2633e-22)
(1.1476 0.13345 -5.26594e-20)
(1.21164 0.148573 3.01685e-20)
(1.25823 0.159809 8.04796e-20)
(1.28938 0.167253 -1.36401e-19)
(1.30788 0.171328 1.01305e-19)
(1.3167 0.172649 -1.18845e-19)
(1.31862 0.171831 -5.1863e-21)
(1.31598 0.169753 4.06909e-22)
(1.31035 0.165652 4.98775e-20)
(0.0225116 -0.00488853 -5.60486e-20)
(0.0856244 -0.0127704 -5.95321e-20)
(0.167905 -0.013714 8.35745e-20)
(0.2672 -0.00928001 -3.62292e-20)
(0.380864 0.000670234 -1.10183e-20)
(0.505045 0.0157989 -1.06626e-19)
(0.634747 0.035244 1.16501e-19)
(0.764165 0.0577152 -2.04151e-19)
(0.887286 0.081587 1.79994e-20)
(0.998667 0.105112 3.00994e-20)
(1.09419 0.126686 -1.58896e-20)
(1.17154 0.145077 1.11295e-20)
(1.23035 0.15956 -1.26177e-19)
(1.27188 0.169935 -9.39642e-20)
(1.29856 0.176442 7.70948e-20)
(1.31339 0.179617 -2.41801e-20)
(1.3194 0.180142 -1.41051e-19)
(1.31933 0.17867 -2.60327e-20)
(1.31535 0.176036 -1.11816e-19)
(1.30889 0.171592 -1.34828e-19)
(0.0256097 -0.00511115 -1.32166e-20)
(0.0949535 -0.0127916 8.82558e-20)
(0.183488 -0.0127408 6.23007e-20)
(0.288805 -0.00677208 1.78736e-19)
(0.407869 0.0050882 -6.08203e-21)
(0.536366 0.0222939 9.11347e-20)
(0.668845 0.043745 -1.88392e-19)
(0.799172 0.0679203 6.47809e-20)
(0.921227 0.0930119 -5.32696e-20)
(1.02975 0.117176 7.48222e-20)
(1.12104 0.138812 1.81799e-20)
(1.19338 0.156781 4.15292e-20)
(1.24698 0.170507 1.17064e-19)
(1.28365 0.179949 1.417e-20)
(1.30614 0.18549 -6.91647e-20)
(1.31762 0.187767 1.11754e-19)
(1.32114 0.187515 3.83513e-20)
(1.31933 0.185415 -1.77568e-20)
(1.31421 0.18225 1.05208e-19)
(1.30707 0.177481 6.78831e-20)
(0.311006 -0.00365635 -2.63581e-20)
(0.43533 0.0102367 3.11123e-20)
(0.567843 0.0295806 -1.77659e-20)
(0.702665 0.053024 1.06638e-19)
(0.833385 0.0788151 -3.29638e-20)
(0.953864 0.10498 -3.96607e-20)
(1.0591 0.129606 -1.3223e-19)
(1.1459 0.15113 -8.22136e-20)
(1.21314 0.168531 -7.45208e-20)
(1.26165 0.181395 -5.91281e-20)
(1.29367 0.189848 2.2138e-20)
(1.31226 0.194404 -4.20223e-20)
(1.32071 0.195791 4.94371e-21)
(1.32203 0.194785 7.65592e-20)
(1.31872 0.192082 7.93252e-20)
(1.31264 0.188411 5.54704e-21)
(1.30494 0.183329 4.73995e-20)
(0.599341 0.0376626 -1.84444e-20)
(0.736054 0.0630655 -5.82335e-20)
(0.866659 0.0903664 1.36788e-19)
(0.985082 0.117446 -3.36341e-20)
(1.08667 0.142355 -1.08766e-21)
(1.16877 0.163598 8.82757e-20)
(1.2309 0.180296 -7.75367e-20)
(1.27444 0.192211 3.32923e-20)
(1.30206 0.199629 -8.19911e-20)
(1.31706 0.203192 1.35143e-19)
(1.32277 0.203702 -1.00145e-19)
(1.32216 0.201966 -5.89943e-20)
(1.31757 0.198685 -5.98947e-22)
(1.31068 0.194527 -8.27913e-20)
(1.30252 0.189145 -9.59099e-22)
(1.01478 0.130366 -2.40345e-20)
(1.1124 0.155379 4.06854e-20)
(1.18967 0.17618 -5.37487e-20)
(1.24672 0.192055 6.72135e-20)
(1.28547 0.202944 6.32152e-20)
(1.30896 0.209296 1.39335e-20)
(1.32066 0.211864 -3.83875e-20)
(1.32393 0.211515 -8.82236e-21)
(1.32162 0.209073 -5.05883e-20)
(1.31593 0.205235 -2.10267e-20)
(1.30838 0.200609 3.39812e-20)
(1.29985 0.194936 -5.66869e-20)
(1.29485 0.213588 -1.67998e-21)
(1.31448 0.21885 5.75334e-20)
(1.32318 0.220429 -1.61654e-20)
(1.32427 0.219241 9.05798e-20)
(1.32049 0.216118 4.69454e-20)
(1.31387 0.211742 -7.59821e-21)
(1.30577 0.206663 2.47925e-20)
(1.29694 0.200706 9.25766e-20)
(1.32387 0.226892 -5.85191e-21)
(1.31882 0.223109 -7.04297e-20)
(1.31143 0.218213 5.79348e-21)
(1.30287 0.212693 -4.47867e-20)
(1.2938 0.206457 4.74889e-22)
(1.29045 0.212191 -9.30239e-21)
(1.35635 -0.195657 -6.73066e-20)
(1.39881 -0.215933 -2.6788e-20)
(1.3911 -0.210403 2.47518e-21)
(1.38157 -0.203914 1.15897e-20)
(1.37123 -0.196875 -5.80292e-20)
(1.36053 -0.189105 -1.02677e-20)
(1.354 -0.202211 1.9142e-20)
(1.38358 -0.209264 -6.20905e-20)
(1.39852 -0.211912 2.93958e-20)
(1.40296 -0.211126 9.78896e-22)
(1.40049 -0.207849 8.53529e-20)
(1.39386 -0.202873 1.07286e-19)
(1.38499 -0.196814 -2.63679e-20)
(1.37503 -0.190141 4.57358e-20)
(1.36454 -0.182573 5.43202e-20)
(1.11185 -0.13535 2.71762e-20)
(1.21192 -0.158774 1.10131e-19)