/*--------------------------------*- C++ -*----------------------------------*\
  =========                 |
  \\      /  F ield         | OpenFOAM: The Open Source CFD Toolbox
   \\    /   O peration     | Website:  https://openfoam.org
    \\  /    A nd           | Version:  7
     \\/     M anipulation  |
\*---------------------------------------------------------------------------*/
FoamFile
{
    version     2.0;
    format      ascii;
    class       volVectorField;
    location    "100";
    object      U;
}
// * * * * * * * * * * * * * * * * * * * * * * * * * * * * * * * * * * * * * //

dimensions      [0 1 -1 0 0 0 0];

internalField   nonuniform List<vector> 
4575
(
(-0.0163053 0.0669146 9.74048e-22)
(-0.0247582 0.0671225 1.72412e-21)
(-0.0341802 0.062402 -1.25908e-20)
(-0.0443101 0.0542099 2.14971e-21)
(-0.0549476 0.0437448 -8.3727e-21)
(-0.0659357 0.0319203 -1.7775e-20)
(-0.0771505 0.0193633 1.50619e-20)
(-0.0884945 0.00643658 4.44237e-21)
(-0.0998924 -0.0067189 -5.28866e-21)
(-0.111291 -0.0201315 6.43143e-21)
(-0.122659 -0.0339458 8.70224e-21)
(-0.133991 -0.0483783 -5.44268e-21)
(-0.145303 -0.0636859 -7.33059e-21)
(-0.156634 -0.0801502 -1.7436e-20)
(-0.168055 -0.0980689 -1.34018e-21)
(-0.179531 -0.117746 -2.92414e-21)
(-0.191021 -0.139538 -5.76863e-21)
(-0.0176591 0.0713535 -1.92231e-20)
(-0.0261555 0.0722373 8.83794e-21)
(-0.0355533 0.0680177 5.29002e-20)
(-0.0456178 0.0601869 -3.22861e-20)
(-0.0561664 0.0499728 5.30207e-21)
(-0.0670528 0.0383129 2.57957e-20)
(-0.0781581 0.0258529 8.6651e-23)
(-0.089386 0.0129719 1.52055e-20)
(-0.10066 -0.000174645 -1.99467e-20)
(-0.111927 -0.0136005 2.07427e-20)
(-0.123155 -0.0274356 -1.75285e-20)
(-0.134339 -0.0418815 -6.88551e-21)
(-0.145501 -0.0571816 3.40068e-20)
(-0.156689 -0.0736071 -1.09193e-20)
(-0.16798 -0.0914516 1.60893e-21)
(-0.179364 -0.111024 -1.98296e-20)
(-0.190828 -0.132686 -2.27217e-21)
(-0.0190712 0.0757506 4.88989e-20)
(-0.0275804 0.0773274 -3.88382e-20)
(-0.0369102 0.0736279 -5.98097e-20)
(-0.0468544 0.066176 5.40114e-20)
(-0.0572489 0.0562271 -1.47573e-20)
(-0.0679584 0.0447416 -7.10857e-21)
(-0.0788689 0.0323849 -3.67328e-20)
(-0.0898845 0.0195529 1.02059e-20)
(-0.100928 0.00641739 3.5098e-20)
(-0.111941 -0.00701939 -6.79311e-21)
(-0.122891 -0.0208706 2.85738e-20)
(-0.133773 -0.0353209 -2.36457e-20)
(-0.144611 -0.0505983 -6.69127e-21)
(-0.155457 -0.0669613 5.4949e-20)
(-0.1664 -0.0846968 -3.38371e-21)
(-0.177447 -0.104119 8.55784e-20)
(-0.188605 -0.125589 -2.08465e-20)
(-0.0205341 0.0800715 -4.59233e-20)
(-0.0290239 0.0823562 2.73829e-20)
(-0.0382404 0.0791945 -5.47551e-21)
(-0.0480075 0.0721383 -9.12512e-20)
(-0.0581811 0.0624682 -9.71081e-21)
(-0.0686371 0.0511666 -1.96879e-20)
(-0.079266 0.0389184 -3.58255e-21)
(-0.0899722 0.0261375 -3.37219e-20)
(-0.100675 0.013013 3.83057e-20)
(-0.111312 -0.000435104 -5.60626e-20)
(-0.121847 -0.0143016 -1.71663e-21)
(-0.132272 -0.0287524 1.5034e-20)
(-0.142609 -0.0439976 -1.17094e-19)
(-0.152916 -0.0602803 -9.40476e-20)
(-0.163287 -0.0778782 5.08394e-20)
(-0.173749 -0.0971075 -6.64436e-20)
(-0.184313 -0.118328 9.80524e-22)
(-0.0220393 0.0842823 -2.29258e-21)
(-0.0304764 0.0872867 1.40434e-20)
(-0.0395332 0.0846791 1.70692e-21)
(-0.0490657 0.0780348 4.70212e-20)
(-0.0589505 0.0686567 5.54942e-20)
(-0.0690754 0.057548 2.34641e-20)
(-0.0793356 0.0454131 8.16121e-20)
(-0.0896347 0.0326842 -9.39784e-20)
(-0.0998879 0.0195689 -1.93743e-20)
(-0.110028 0.00610616 4.09355e-20)
(-0.12001 -0.00777885 -7.16732e-20)
(-0.129823 -0.0222315 3.25622e-20)
(-0.139484 -0.0374412 7.39128e-20)
(-0.149052 -0.0536327 1.64917e-20)
(-0.15863 -0.0710708 2.6334e-20)
(-0.168256 -0.0900701 -4.09054e-20)
(-0.177938 -0.110985 4.22961e-21)
(-0.0235774 0.0883481 4.08848e-20)
(-0.0319282 0.0920815 3.54711e-20)
(-0.0407786 0.0900428 1.56358e-20)
(-0.0500184 0.0838258 3.0216e-20)
(-0.0595463 0.0747528 -2.05701e-20)
(-0.0692624 0.0638462 -1.27875e-19)
(-0.0790667 0.051829 -1.14163e-19)
(-0.0888617 0.0391524 -7.41699e-20)
(-0.0985576 0.026043 2.75382e-20)
(-0.108079 0.0125596 -1.55335e-20)
(-0.117374 -0.00135106 1.18297e-19)
(-0.126422 -0.0158121 -4.23231e-20)
(-0.135235 -0.0309899 3.47623e-20)
(-0.143868 -0.0470868 4.93779e-20)
(-0.152432 -0.0643504 -2.72482e-20)
(-0.160974 -0.0830886 2.45135e-19)
(-0.169487 -0.103644 -9.31139e-20)
(-0.0251382 0.0922354 -2.54885e-20)
(-0.0333692 0.0967029 1.15813e-20)
(-0.0419664 0.0952466 1.77027e-20)
(-0.0508557 0.0894721 5.88585e-20)
(-0.0599588 0.0807173 1.32168e-20)
(-0.069189 0.0700219 3.39469e-21)
(-0.078451 0.0581271 2.05474e-19)
(-0.0876462 0.0455026 1.53481e-19)
(-0.0966785 0.0323945 -9.21175e-20)
(-0.105464 0.0188824 -1.33472e-20)
(-0.11394 0.00493507 -3.58588e-20)
(-0.122075 -0.00954624 3.5557e-20)
(-0.129871 -0.0247025 -1.88481e-19)
(-0.137378 -0.0407097 -4.01453e-20)
(-0.144714 -0.0577927 -5.83692e-20)
(-0.151929 -0.0762457 -1.40613e-19)
(-0.158989 -0.0963933 7.65354e-20)
(-0.0267108 0.0959101 -3.45425e-20)
(-0.0347885 0.101115 -3.1443e-20)
(-0.0430868 0.100252 4.98999e-20)
(-0.0515685 0.0949345 -8.23592e-20)
(-0.06018 0.0865113 -1.07024e-20)
(-0.0688481 0.076037 1.54305e-19)
(-0.077483 0.0642695 -9.79252e-20)
(-0.0859843 0.0516968 -4.00005e-20)
(-0.0942496 0.0385846 4.63383e-20)
(-0.102185 0.0250336 -1.21112e-20)
(-0.109714 0.0110355 -6.19075e-21)
(-0.116793 -0.00348323 5.27846e-20)
(-0.12341 -0.018635 -1.41969e-19)
(-0.129608 -0.0345663 4.7248e-20)
(-0.135508 -0.051472 -3.70405e-20)
(-0.141164 -0.0696239 -8.31932e-20)
(-0.146497 -0.0893191 2.90033e-20)
(-0.0361752 0.105281 1.13683e-19)
(-0.0441296 0.105022 -1.16789e-19)
(-0.0521483 0.100175 -5.74901e-20)
(-0.0602028 0.0920967 -9.89957e-20)
(-0.0682346 0.0818538 -1.0744e-19)
(-0.0761593 0.0702192 -7.10935e-20)
(-0.0838752 0.0576986 -9.58565e-20)
(-0.091273 0.0445768 1.72195e-19)
(-0.0982473 0.0309754 -1.8295e-20)
(-0.104708 0.0169093 -4.05222e-20)
(-0.110594 0.00233124 -2.0966e-19)
(-0.115881 -0.0128409 1.1606e-19)
(-0.120595 -0.0287185 2.74323e-20)
(-0.124862 -0.0454603 7.31975e-20)
(-0.128737 -0.0633046 4.99555e-20)
(-0.132079 -0.0825084 -1.35393e-19)
(-0.0375174 0.109167 1.0307e-19)
(-0.0450853 0.109519 -7.97571e-20)
(-0.0525872 0.105156 1.70497e-19)
(-0.0600215 0.0974362 9.14735e-21)
(-0.0673445 0.0874358 1.56529e-19)
(-0.0744784 0.0759407 -9.15467e-20)
(-0.0813203 0.0634731 1.44905e-19)
(-0.0877538 0.0503364 -1.43965e-19)
(-0.0936616 0.0366726 -1.2845e-19)
(-0.0989382 0.0225193 1.10079e-19)
(-0.103504 0.00785586 3.89839e-19)
(-0.107315 -0.00736783 -2.16188e-19)
(-0.110383 -0.0232231 1.76674e-19)
(-0.112834 -0.0398256 4.15991e-20)
(-0.114721 -0.057367 -1.54182e-19)
(-0.115822 -0.0760471 1.297e-19)
(-0.0388038 0.112741 -7.92329e-20)
(-0.045944 0.113708 1.86318e-19)
(-0.0528782 0.109841 -3.33242e-20)
(-0.0596313 0.102494 4.09168e-21)
(-0.0661759 0.0927477 -2.17128e-19)
(-0.0724411 0.0813999 1.36393e-19)
(-0.0783235 0.0689875 3.21978e-20)
(-0.0836996 0.0558314 -4.29983e-20)
(-0.0884401 0.0420931 5.23338e-20)
(-0.0924228 0.0278324 -2.06299e-19)
(-0.0955481 0.0130546 -1.13653e-19)
(-0.0977513 -0.00225695 2.42214e-19)
(-0.0990237 -0.0181308 -1.35772e-19)
(-0.0994881 -0.0346304 -1.94952e-19)
(-0.0992006 -0.051886 3.60952e-19)
(-0.0978249 -0.0700194 8.69012e-22)
(-0.0400227 0.115971 -5.24871e-20)
(-0.0466967 0.117556 -6.06642e-20)
(-0.0530146 0.114196 -2.57151e-19)
(-0.0590285 0.107235 3.10051e-20)
(-0.0647278 0.0977552 -1.08657e-19)
(-0.0700493 0.0865637 3.77761e-19)
(-0.0748898 0.0742103 -2.18948e-19)
(-0.0791196 0.061032 1.32597e-19)
(-0.082597 0.0472084 -4.06542e-20)
(-0.085183 0.0328198 2.25176e-19)
(-0.0867567 0.0178969 1.88507e-20)
(-0.08723 0.00245631 -1.94577e-19)
(-0.0865704 -0.0134847 -3.60241e-20)
(-0.0848954 -0.0299296 7.20953e-21)
(-0.0822661 -0.0469308 -1.27207e-20)
(-0.0781949 -0.0645062 2.53196e-19)
(-0.0411628 0.118829 -1.31008e-20)
(-0.0473348 0.121032 -1.03471e-19)
(-0.0529909 0.118187 2.27344e-19)
(-0.0582105 0.111625 -2.59109e-20)
(-0.0630004 0.102425 2.74957e-19)
(-0.0673064 0.0914006 -3.03743e-19)
(-0.0710261 0.0791119 7.94727e-20)
(-0.0740243 0.0659105 9.50569e-20)
(-0.0761476 0.0519927 -2.77807e-21)
(-0.07724 0.0374572 -1.7705e-21)
(-0.077159 0.0223581 -1.81431e-19)
(-0.0757916 0.00674445 2.3398e-20)
(-0.0730782 -0.009319 2.4404e-19)
(-0.0691271 -0.0257684 3.16381e-19)
(-0.0640131 -0.0425625 -3.74991e-19)
(-0.0570438 -0.0595878 -2.4056e-19)
(-0.042213 0.121289 1.96656e-19)
(-0.04785 0.124106 1.99002e-19)
(-0.0528019 0.121783 -7.66938e-20)
(-0.0571753 0.115632 3.37441e-19)
(-0.0609953 0.106726 -3.40168e-19)
(-0.0642168 0.0958801 1.50584e-19)
(-0.0667399 0.0836638 1.52493e-19)
(-0.0684246 0.0704413 -1.10494e-20)
(-0.069107 0.0564231 2.65082e-21)
(-0.0686147 0.0417243 1.97071e-20)
(-0.0667833 0.0264196 -1.43992e-19)
(-0.0634743 0.0105882 1.43519e-19)
(-0.0585985 -0.00565723 -7.30613e-20)
(-0.0522511 -0.0221794 -1.65199e-19)
(-0.0445374 -0.0388309 2.14909e-19)
(-0.0344814 -0.0553427 4.54322e-20)
(-0.0431623 0.123329 -1.31986e-19)
(-0.0482346 0.126751 -1.37337e-19)
(-0.0524433 0.124955 2.23858e-19)
(-0.0559222 0.119226 -1.10869e-19)
(-0.0587145 0.110628 8.87102e-20)
(-0.0607859 0.0999727 1.08971e-20)
(-0.0620395 0.0878388 -2.43291e-20)
(-0.0623321 0.0746002 6.1276e-20)
(-0.0614903 0.0604791 -1.17853e-19)
(-0.0593263 0.0456044 6.01728e-20)
(-0.0556548 0.0300682 1.99196e-19)
(-0.0503116 0.0139762 -2.92155e-19)
(-0.0431759 -0.00251211 -1.87486e-19)
(-0.034327 -0.0191816 2.47065e-19)
(-0.0239332 -0.0357674 -1.43664e-19)
(-0.0106263 -0.0517863 -2.28725e-19)
(-0.0440001 0.124928 -3.28519e-20)
(-0.0484812 0.128943 -1.19568e-19)
(-0.0519113 0.127674 -2.19094e-19)
(-0.0544506 0.122377 -1.65817e-19)
(-0.0561611 0.114099 -3.35289e-19)
(-0.0570196 0.10365 3.46257e-20)
(-0.0569336 0.0916103 -3.07097e-20)
(-0.055758 0.0783637 -2.35723e-19)
(-0.0533113 0.0641418 2.06238e-19)
(-0.0493919 0.049084 2.51057e-19)
(-0.0437948 0.0332956 -1.32477e-20)
(-0.0363304 0.0169045 1.53721e-19)
(-0.0268457 0.000113786 -7.77822e-20)
(-0.0153972 -0.0167825 1.32508e-20)
(-0.00225326 -0.0333825 2.23155e-19)
(0.0143614 -0.0487093 5.35622e-19)
(-0.0485829 0.130661 1.61192e-19)
(-0.0512025 0.129917 -5.90529e-20)
(-0.0527611 0.125058 -1.69522e-19)
(-0.0533388 0.117112 2.7301e-19)
(-0.0529246 0.106883 -7.18967e-20)
(-0.0514314 0.0949523 5.30904e-20)
(-0.0487133 0.0817092 2.90808e-19)
(-0.0445827 0.0673932 -4.02388e-19)
(-0.0388259 0.0521509 -1.09706e-19)
(-0.0312196 0.0360968 -2.18628e-19)
(-0.0215505 0.019375 4.4288e-19)
(-0.00963274 0.00222638 1.38559e-20)
(0.00451156 -0.0149776 2.46846e-19)
(0.0205971 -0.0316828 -8.60049e-20)
(0.0405393 -0.0463364 -5.11107e-19)
(-0.0485335 0.131887 1.00272e-19)
(-0.0503145 0.131659 -6.18368e-21)
(-0.0508545 0.127243 4.41726e-19)
(-0.050252 0.11964 1.68378e-19)
(-0.048508 0.109645 -3.08994e-19)
(-0.0455419 0.0978386 1.43206e-20)
(-0.0412086 0.0846138 -8.72305e-21)
(-0.0353159 0.0702151 4.30277e-19)
(-0.0276399 0.0547939 -4.81135e-19)
(-0.0179411 0.038469 1.31973e-19)
(-0.00598385 0.0213943 6.8223e-21)
(0.00844934 0.00383905 -3.41227e-19)
(0.0253663 -0.0137581 -3.55231e-19)
(0.0444874 -0.0306954 -4.13773e-20)
(0.0679341 -0.0449513 5.2386e-19)
(-0.0483273 0.132607 -3.818e-19)
(-0.049245 0.132883 -1.05252e-19)
(-0.0487323 0.128908 -2.30902e-19)
(-0.0469052 0.121656 -1.08442e-19)
(-0.043777 0.111909 1.92365e-19)
(-0.0392742 0.100243 3.92884e-19)
(-0.0332539 0.0870541 -4.4078e-19)
(-0.0255207 0.0725888 -1.64899e-19)
(-0.0158424 0.0570011 5.97429e-19)
(-0.00396599 0.04041 -2.18763e-19)
(0.0103645 0.0229716 -3.14523e-19)
(0.0273961 0.00497224 3.99763e-19)
(0.0471684 -0.0130942 8.38487e-20)
(0.0693792 -0.0303679 8.16784e-20)
(0.0964736 -0.0443456 -3.38805e-19)
(-0.0479599 0.132811 6.62511e-20)
(-0.0479927 0.133571 4.49206e-19)
(-0.0463964 0.130032 -2.81695e-19)
(-0.0433033 0.123137 6.83147e-20)
(-0.0387389 0.113649 -1.34035e-19)
(-0.0326373 0.10214 -5.41615e-19)
(-0.0248586 0.0890057 3.26479e-19)
(-0.0152054 0.0744941 2.65712e-19)
(-0.00343956 0.058759 -4.68926e-19)
(0.0107037 0.0419161 1.08428e-19)
(0.0274972 0.0241168 4.38876e-19)
(0.0472145 0.00565241 1.74534e-19)
(0.069931 -0.0129428 6.08418e-20)
(0.0952876 -0.0306669 -3.56515e-19)
(0.126155 -0.0444505 -1.7442e-19)
(-0.0465565 0.13371 -6.14126e-20)
(-0.0438486 0.130597 4.1329e-20)
(-0.039451 0.124058 2.69736e-19)
(-0.0334006 0.114839 3.3977e-19)
(-0.0256393 0.103503 -1.59539e-20)
(-0.0160306 0.0904434 -7.45555e-20)
(-0.00437671 0.0759089 -4.38411e-19)
(0.00956566 0.0600516 3.2855e-19)
(0.0260703 0.0429811 -2.86478e-20)
(0.0454237 0.024838 -1.96708e-19)
(0.0679219 0.00590663 -9.91161e-19)
(0.0936796 -0.0132563 3.52517e-19)
(0.122245 -0.0315398 1.86216e-20)
(0.157012 -0.0452162 -2.17908e-19)
(-0.0449352 0.133292 -3.78911e-19)
(-0.0410906 0.130587 2.35747e-19)
(-0.0353523 0.124401 -2.64241e-20)
(-0.027768 0.115456 -5.3721e-19)
(-0.018287 0.104307 1.02109e-19)
(-0.00677647 0.0913413 5.78526e-20)
(0.0069613 0.0768093 -1.01353e-19)
(0.0231733 0.0608598 2.66233e-19)
(0.0421404 0.0435946 5.20488e-19)
(0.0641598 0.0251391 -3.4027e-19)
(0.0895444 0.0057596 2.74341e-19)
(0.118452 -0.0139839 6.76931e-20)
(0.1503 -0.0329165 3.86271e-19)
(0.189106 -0.0465753 1.74585e-19)
(-0.0431277 0.13231 4.33557e-19)
(-0.0381233 0.12999 -3.12237e-19)
(-0.03101 0.124147 9.50713e-20)
(-0.0218452 0.115478 3.91391e-19)
(-0.0105849 0.104526 3.75345e-19)
(0.00290021 0.0916735 1.471e-19)
(0.0188077 0.0771701 6.3862e-19)
(0.0373873 0.0611619 -8.76052e-20)
(0.0589257 0.0437422 -6.78128e-19)
(0.0837276 0.0250187 3.33402e-19)
(0.112117 0.00523099 -1.79629e-19)
(0.144299 -0.0150758 -4.15932e-19)
(0.179511 -0.0347201 -2.95218e-19)
(0.222517 -0.0484422 -2.97615e-19)
(-0.0411322 0.130763 -5.55762e-19)
(-0.0349458 0.128799 2.13208e-19)
(-0.0264246 0.123283 -1.95891e-19)
(-0.0156334 0.114886 -3.29956e-19)
(-0.00253401 0.104137 1.19908e-20)
(0.0130001 0.091415 -8.32742e-19)
(0.0311664 0.0769658 -6.46408e-19)
(0.0522174 0.0609342 2.04762e-19)
(0.0764442 0.0434059 1.03874e-19)
(0.104156 0.0244702 -2.23251e-19)
(0.135681 0.00433379 8.68015e-19)
(0.171277 -0.0164871 -1.3656e-19)
(0.209951 -0.0368722 3.71348e-19)
(0.257339 -0.0507163 3.35057e-19)
(-0.0315554 0.127009 2.97733e-19)
(-0.0215933 0.121798 -1.73318e-20)
(-0.00912954 0.113665 1.38202e-19)
(0.00587001 0.103122 4.19269e-19)
(0.0235299 0.0905429 8.74564e-19)
(0.0440487 0.0761722 7.04689e-20)
(0.0676812 0.060153 -3.88306e-19)
(0.0947224 0.0425655 6.98394e-20)
(0.125484 0.0234823 6.89044e-19)
(0.16029 0.00307424 -4.68774e-19)
(0.199455 -0.0181796 2.63595e-21)
(0.241697 -0.0392972 3.63484e-19)
(0.293669 -0.0532858 -2.23791e-19)
(-0.0279454 0.124623 -7.57954e-20)
(-0.0165085 0.119687 -1.69375e-19)
(-0.00232431 0.111803 2.75085e-19)
(0.0146389 0.101465 -3.19601e-19)
(0.0345055 0.0890386 -1.03049e-19)
(0.0574756 0.0747682 -1.15591e-20)
(0.0838074 0.0587968 2.73191e-19)
(0.113799 0.0412015 -2.47263e-19)
(0.147762 0.0220422 -4.69241e-19)
(0.186005 0.00145392 -1.45325e-19)
(0.22891 -0.0201218 -2.09416e-19)
(0.274835 -0.0419238 -6.38117e-19)
(0.331606 -0.0560311 -1.90759e-19)
(-0.0241051 0.121649 -3.58912e-19)
(-0.0111564 0.116954 2.05357e-19)
(0.00479934 0.109297 -6.14853e-19)
(0.0237942 0.0991562 -3.07719e-19)
(0.0459539 0.0868894 4.58241e-21)
(0.0714819 0.0727388 2.71542e-19)
(0.10064 0.0568496 -1.78758e-19)
(0.133728 0.0392991 4.5688e-19)
(0.171055 0.0201395 -1.11957e-19)
(0.212905 -0.000526395 1.4557e-19)
(0.259728 -0.0222859 5.5282e-19)
(0.309453 -0.0446862 7.32346e-20)
(0.371236 -0.0588269 3.53073e-19)
(-0.00551564 0.113604 -4.038e-19)
(0.0122686 0.10615 1.16188e-19)
(0.0333697 0.0961954 1.12139e-20)
(0.0579172 0.0840908 -3.03602e-19)
(0.0861192 0.0700774 2.27012e-19)
(0.118241 0.0543039 -1.77662e-19)
(0.154583 0.0368518 -3.24105e-19)
(0.195449 0.0177715 -4.23871e-19)
(0.241083 -0.00286119 1.03803e-19)
(0.292005 -0.024644 1.44177e-19)
(0.345643 -0.0475211 -1.39408e-19)
(0.412629 -0.0615427 5.83635e-19)
(0.000445095 0.109655 -1.15208e-19)
(0.0201228 0.102373 9.5825e-19)
(0.0434143 0.0925904 6.95525e-20)
(0.0704551 0.0806485 -1.08009e-19)
(0.101459 0.0667886 -7.05145e-19)
(0.136696 0.0511647 1.36743e-19)
(0.176463 0.0338658 -3.48424e-19)
(0.221051 0.0149478 2.31225e-19)
(0.270652 -0.00553408 2.1233e-19)
(0.325847 -0.0271611 -8.10999e-19)
(0.383499 -0.0503639 -2.52847e-19)
(0.455825 -0.0640428 -8.72158e-19)
(0.00676783 0.105132 3.98835e-20)
(0.0284154 0.0979878 -2.88831e-19)
(0.0539939 0.0883601 4.17685e-19)
(0.0836475 0.0765805 2.79212e-21)
(0.117597 0.0628908 5.27593e-19)
(0.156114 0.0474519 3.57607e-19)
(0.19949 0.0303642 5.9087e-20)
(0.247994 0.0116959 7.59418e-19)
(0.301745 -0.00851183 -6.89921e-19)
(0.361368 -0.0297905 3.19361e-19)
(0.423112 -0.0531438 2.50645e-19)
(0.500824 -0.0661858 2.16074e-19)
(0.0372156 0.093026 -4.78136e-19)
(0.0651937 0.0835357 -3.68479e-19)
(0.0975965 0.0719187 1.7421e-19)
(0.134652 0.0584179 -5.01608e-19)
(0.176631 0.0432033 3.33841e-20)
(0.223813 0.0263899 1.93799e-19)
(0.276429 0.00806431 1.47734e-19)
(0.334507 -0.0117397 4.65468e-19)
(0.398677 -0.0324683 9.89283e-20)
(0.464559 -0.0557785 -3.50563e-19)
(0.54757 -0.0678261 3.75171e-19)
(0.0466097 0.0875302 4.1373e-19)
(0.0771187 0.0781612 -2.12639e-19)
(0.112426 0.0667097 6.8226e-21)
(0.152767 0.053421 1.19889e-19)
(0.198407 0.0384759 2.55458e-19)
(0.249599 0.0220072 -3.10446e-20)
(0.306522 0.00412479 -7.19547e-20)
(0.369086 -0.0151389 -3.72918e-19)
(0.437868 -0.0351124 -2.49543e-19)
(0.507898 -0.0581709 -2.34644e-19)
(0.595927 -0.068817 3.7868e-19)
(0.0898932 0.0722939 1.4843e-19)
(0.128283 0.0610158 5.26564e-20)
(0.172108 0.0479689 -2.40589e-19)
(0.22162 0.0333466 -5.61105e-19)
(0.277032 0.0173021 2.82833e-19)
(0.338443 -2.82472e-05 -1.44282e-19)
(0.405623 -0.0186066 -3.60657e-20)
(0.479006 -0.0376238 6.03015e-19)
(0.553142 -0.0602062 6.33019e-19)
(0.645661 -0.0690167 -9.63441e-19)
(0.10366 0.0660042 1.50408e-20)
(0.145331 0.0549145 -3.65374e-19)
(0.192856 0.0421476 4.88608e-19)
(0.24646 0.027911 3.21458e-19)
(0.306297 0.0123806 -6.27389e-19)
(0.372351 -0.00428018 -5.34567e-19)
(0.444229 -0.0220196 1.24072e-19)
(0.522104 -0.0398927 7.18671e-19)
(0.600252 -0.0617533 3.31856e-19)
(0.696423 -0.0683014 1.7773e-19)
(0.118576 0.0593745 -6.94282e-19)
(0.163747 0.0484974 -6.37923e-19)
(0.2152 0.0360588 -6.3423e-20)
(0.273118 0.0222817 -3.17631e-20)
(0.337566 0.00736552 2.23118e-19)
(0.408378 -0.00850088 1.46325e-19)
(0.484971 -0.0252397 1.89457e-19)
(0.567109 -0.0418069 -8.8721e-19)
(0.649118 -0.0626697 -2.4728e-19)
(0.747744 -0.0665905 6.41034e-19)
(0.183715 0.0418685 2.8102e-19)
(0.23933 0.0298175 -2.61098e-19)
(0.301772 0.0165844 -3.67255e-19)
(0.370987 0.00239205 -4.78245e-20)
(0.446608 -0.0125507 3.7513e-19)
(0.527845 -0.0281209 -2.52324e-19)
(0.613885 -0.0432622 9.58146e-20)
(0.699542 -0.0628079 2.13248e-19)
(0.799033 -0.0638705 5.40659e-19)
(0.205415 0.0351417 1.28935e-19)
(0.265423 0.0235491 -1.74353e-19)
(0.332574 0.0109542 4.2183e-19)
(0.406659 -0.00239848 -3.64735e-20)
(0.487063 -0.0162874 -9.86981e-20)
(0.572761 -0.0305186 -1.54218e-19)
(0.662203 -0.044168 2.43912e-19)
(0.751203 -0.061992 -6.12692e-19)
(0.84953 -0.0601428 -8.27941e-19)
(0.293629 0.017385 6.53789e-19)
(0.365635 0.00552974 -5.92815e-20)
(0.444625 -0.0068653 -1.30881e-19)
(0.529691 -0.0195751 -1.96215e-20)
(0.619543 -0.0323062 3.26823e-19)
(0.71177 -0.0444563 5.78869e-19)
(0.803639 -0.0599495 -1.62167e-19)
(0.898175 -0.0552809 5.99784e-19)
(0.324062 0.0114584 -2.20237e-19)
(0.401009 0.000448776 -1.6286e-19)
(0.48485 -0.0108749 -5.38252e-19)
(0.574349 -0.0222943 -1.46965e-19)
(0.667926 -0.0334023 1.1316e-20)
(0.762305 -0.0440939 -3.97211e-19)
(0.856429 -0.05631 1.9591e-19)
(0.943889 -0.0493397 -4.23513e-19)
(0.438685 -0.00415699 -2.63468e-19)
(0.527217 -0.0143053 6.47193e-19)
(0.620794 -0.0243481 3.98735e-19)
(0.717532 -0.0337864 9.80609e-20)
(0.813513 -0.0430724 -4.20702e-19)
(0.909382 -0.0509761 -2.18223e-20)
(0.987326 -0.0443647 -6.77784e-19)
(0.478577 -0.00816535 -1.23583e-19)
(0.571521 -0.0170479 1.1484e-19)
(0.668679 -0.0256579 -2.07376e-19)
(0.767843 -0.0334657 -2.40469e-19)
(0.864809 -0.0413788 5.05818e-19)
(0.961684 -0.0449919 -1.592e-19)
(1.03207 -0.0455828 3.29826e-20)
(0.617476 -0.019008 -2.56317e-19)
(0.717577 -0.0261527 7.44271e-20)
(0.818284 -0.0324114 -9.30094e-20)
(0.915295 -0.0390365 -5.21486e-20)
(1.01042 -0.0407548 1.1421e-19)
(1.08106 -0.048966 1.17383e-18)
(0.767014 -0.0257742 1.26833e-20)
(0.868284 -0.0305728 -4.88968e-19)
(0.964244 -0.0359673 -1.30772e-19)
(1.05599 -0.0368004 6.11063e-19)
(1.12461 -0.0475083 -6.70394e-19)
(0.816491 -0.0244837 4.90838e-19)
(0.917309 -0.0279046 1.559e-19)
(1.01112 -0.0321019 8.7215e-19)
(1.09838 -0.0323607 -5.59397e-19)
(1.16327 -0.0434863 8.84627e-19)
(0.964869 -0.024395 1.921e-19)
(1.05551 -0.0274474 1.07292e-19)
(1.13746 -0.0272596 -9.43576e-19)
(1.1978 -0.037878 -5.17737e-19)
(1.09712 -0.0220586 1.52877e-19)
(1.17318 -0.0214946 7.33417e-19)
(1.22841 -0.0312012 -4.91558e-19)
(1.13572 -0.0160165 -5.49208e-19)
(1.2055 -0.0151397 3.43461e-19)
(1.25529 -0.0238186 1.59727e-19)
(1.23445 -0.00829945 -5.47482e-19)
(1.27866 -0.01599 7.48049e-19)
(1.29874 -0.00790227 -3.73463e-19)
(1.16892 -0.0900638 -1.663e-19)
(1.06935 -0.0813588 -5.08235e-19)
(1.13475 -0.0829681 2.95167e-19)
(0.937371 -0.0630758 -3.39789e-19)
(1.0261 -0.074804 2.70376e-19)
(1.0962 -0.0762317 -8.80279e-20)
(0.885945 -0.0563844 -1.91033e-19)
(0.979106 -0.0687086 5.73042e-19)
(1.05318 -0.0701308 -1.33519e-19)
(0.734933 -0.0419026 6.31637e-21)
(0.8319 -0.0502246 -5.01585e-20)
(0.928551 -0.0631582 -5.54543e-19)
(1.00567 -0.0650359 -2.97138e-19)
(0.582626 -0.028867 -3.01929e-20)
(0.679047 -0.0366741 8.35933e-20)
(0.775674 -0.0446373 3.43981e-19)
(0.874658 -0.0581776 -1.13323e-19)
(0.953685 -0.0614298 3.5008e-19)
(0.529212 -0.0249331 1.81276e-19)
(0.6227 -0.0319841 -1.7834e-19)
(0.717765 -0.0396113 -3.10637e-19)
(0.817657 -0.0536914 5.24507e-19)
(0.897118 -0.0600028 -3.34534e-19)
(0.392798 -0.0174047 -2.65859e-20)
(0.476827 -0.0215654 -3.23072e-19)
(0.566468 -0.0277689 1.20519e-19)
(0.658757 -0.0350332 2.12557e-19)
(0.757699 -0.0493971 4.21819e-21)
(0.834908 -0.0623224 4.4268e-19)
(0.275382 -0.0136878 3.12081e-19)
(0.34714 -0.0154867 -7.79723e-20)
(0.425977 -0.018731 -2.20179e-19)
(0.510984 -0.0239421 -5.25385e-20)
(0.599388 -0.0305977 3.39573e-19)
(0.694719 -0.0440216 1.07156e-20)
(0.765925 -0.0697866 -1.58084e-19)
(0.237729 -0.0130711 7.0237e-20)
(0.303833 -0.0141088 2.20482e-19)
(0.377161 -0.0164188 1.15066e-19)
(0.45696 -0.0204661 1.31049e-19)
(0.540658 -0.0260112 -3.82979e-19)
(0.629036 -0.0350709 8.55051e-20)
(0.701301 -0.0661568 -3.08308e-19)
(0.149852 -0.0134744 1.98505e-20)
(0.202736 -0.0129452 -1.72973e-19)
(0.263185 -0.0132841 -7.89837e-20)
(0.330854 -0.0146624 -1.74801e-19)
(0.405139 -0.0174246 -7.33395e-20)
(0.483958 -0.0215485 2.68421e-20)
(0.566239 -0.0263099 -1.63868e-19)
(0.644872 -0.0534751 -9.29507e-21)
(0.122938 -0.0142484 2.73562e-19)
(0.17055 -0.0133238 2.59849e-20)
(0.22545 -0.0130442 1.18006e-19)
(0.28746 -0.0135392 -1.74197e-19)
(0.35615 -0.0150226 2.64599e-19)
(0.430091 -0.0176191 6.96319e-20)
(0.507096 -0.019357 9.60708e-20)
(0.589122 -0.0410987 3.27503e-19)
(0.0628122 -0.0169619 2.14312e-19)
(0.0986691 -0.0154429 2.07564e-20)
(0.141271 -0.0142263 9.0478e-20)
(0.190819 -0.013429 1.22253e-19)
(0.247282 -0.0131357 -5.25173e-20)
(0.310406 -0.0134569 -2.05579e-19)
(0.379341 -0.0145846 1.01035e-19)
(0.451228 -0.0143971 -1.25598e-19)
(0.532928 -0.0318358 -3.45872e-19)
(0.0454296 -0.0185879 2.22948e-19)
(0.0770393 -0.0170694 -7.08095e-20)
(0.114947 -0.015672 -7.71594e-20)
(0.159415 -0.0144753 -2.42392e-19)
(0.210529 -0.0135237 3.25947e-19)
(0.2682 -0.0128601 -9.36106e-20)
(0.331997 -0.0126895 -6.07991e-20)
(0.398855 -0.0112668 8.40856e-20)
(0.47785 -0.0254459 2.57324e-19)
(0.008045 -0.0218545 4.78906e-19)
(0.0302785 -0.0205479 -3.53746e-19)
(0.0580019 -0.0191352 -2.66348e-19)
(0.0915723 -0.0176746 -1.74791e-19)
(0.131289 -0.0162111 3.79698e-19)
(0.177331 -0.0147565 -1.86624e-21)
(0.229747 -0.0133171 9.80921e-20)
(0.288394 -0.0120962 -3.54877e-19)
(0.350365 -0.00993058 2.10775e-20)
(0.425189 -0.0216984 1.58663e-19)
(-0.00190247 -0.0238121 -3.74508e-20)
(0.0172563 -0.0228416 -9.54718e-20)
(0.0414685 -0.0216405 1.4925e-19)
(0.0710857 -0.0202383 1.91568e-19)
(0.106428 -0.0186514 -4.59758e-19)
(0.147738 -0.0168685 -1.7872e-19)
(0.195178 -0.0148855 1.74809e-19)
(0.24879 -0.0129193 2.11904e-19)
(0.306029 -0.0104462 2.27639e-19)
(0.375779 -0.0206031 1.19184e-20)
(-0.0223277 -0.0261995 -7.98361e-20)
(-0.010201 -0.0260056 -5.15853e-20)
(0.00623073 -0.02546 2.72645e-19)
(0.0273095 -0.0245747 -2.75872e-19)
(0.0533727 -0.0233549 -1.56278e-19)
(0.0847461 -0.0217952 6.86904e-20)
(0.121715 -0.019873 1.19933e-19)
(0.164523 -0.0175959 -1.06433e-19)
(0.213321 -0.0152241 1.59389e-19)
(0.266001 -0.0128471 2.18506e-19)
(0.330225 -0.0221183 -2.05266e-19)
(-0.027075 -0.0280362 3.1298e-19)
(-0.0169964 -0.0284209 -2.41241e-19)
(-0.00295747 -0.0283842 2.77617e-19)
(0.0153576 -0.0279152 -3.54893e-20)
(0.0382667 -0.0270006 1.12206e-19)
(0.0660907 -0.0256217 -6.7601e-20)
(0.0991365 -0.0237567 -6.10662e-20)
(0.137704 -0.0214444 3.8152e-20)
(0.181996 -0.0190155 -3.95715e-19)
(0.230328 -0.017097 3.91533e-20)
(0.288936 -0.0260777 1.73431e-19)
(-0.0307547 -0.0300086 -5.02138e-19)
(-0.0224494 -0.0310348 5.92211e-20)
(-0.0104907 -0.0315835 -1.16773e-19)
(0.00541175 -0.0316255 -1.23396e-19)
(0.0255539 -0.0311347 -4.8014e-20)
(0.0502442 -0.0300881 3.39247e-19)
(0.0797966 -0.0284766 -6.89284e-20)
(0.114541 -0.0263851 -7.13296e-20)
(0.154691 -0.0242336 2.25525e-19)
(0.198931 -0.0230832 -9.13807e-20)
(0.2521 -0.0322197 -3.32677e-20)
(-0.0371834 -0.0299029 8.91148e-20)
(-0.0335121 -0.0320925 -5.05696e-20)
(-0.0267322 -0.0338146 1.15099e-19)
(-0.0165691 -0.0350165 8.12577e-21)
(-0.00275579 -0.0356554 3.82961e-19)
(0.0149815 -0.0356989 2.83676e-19)
(0.0369343 -0.0351281 4.1303e-20)
(0.0634123 -0.0339571 4.14541e-20)
(0.0947521 -0.0323271 4.20681e-20)
(0.131157 -0.0307537 8.01846e-20)
(0.171597 -0.0306177 9.23705e-20)
(0.219681 -0.0402142 1.25846e-19)
(-0.0380774 -0.0313146 2.80247e-20)
(-0.0354952 -0.0342566 3.48776e-19)
(-0.0300229 -0.0367184 3.22501e-19)
(-0.0214038 -0.0386306 -6.32763e-20)
(-0.00939116 -0.0399413 -4.94864e-19)
(0.00626764 -0.0406178 -8.09421e-20)
(0.0258456 -0.0406528 -1.96124e-19)
(0.0496397 -0.0400916 2.92299e-19)
(0.077977 -0.0391363 6.97057e-20)
(0.111032 -0.0383919 -3.43182e-19)
(0.147984 -0.0394474 -1.56365e-19)
(0.191439 -0.049684 -6.06386e-19)
(-0.0385037 -0.0327445 -1.318e-19)
(-0.036851 -0.0364627 1.2567e-19)
(-0.0325005 -0.0396971 -1.0414e-19)
(-0.0252099 -0.0423644 -2.25006e-19)
(-0.0147497 -0.0444083 1.64852e-19)
(-0.000886055 -0.045801 -4.42443e-20)
(0.016635 -0.046553 -1.81445e-19)
(0.0380926 -0.0467458 -2.33817e-19)
(0.0637922 -0.0466414 1.15937e-19)
(0.0938695 -0.0469183 7.14569e-20)
(0.127648 -0.0492713 -1.03719e-19)
(0.166971 -0.0602294 2.97482e-19)
(-0.0371687 -0.0292979 3.07297e-20)
(-0.0385766 -0.0341597 2.11459e-19)
(-0.0377217 -0.0386673 -4.90644e-19)
(-0.0343398 -0.0426949 -1.96685e-19)
(-0.0281998 -0.0461491 7.14111e-20)
(-0.0190866 -0.0489724 2.49034e-20)
(-0.00678229 -0.0511466 -8.71822e-20)
(0.0089484 -0.0527043 2.38012e-19)
(0.0283638 -0.0537649 -1.81771e-20)
(0.0517406 -0.0546445 1.43784e-19)
(0.0791706 -0.0560734 6.60212e-20)
(0.110071 -0.0597652 2.88228e-19)
(0.145756 -0.0714547 1.24106e-19)
(-0.0364495 -0.0298984 -9.70819e-20)
(-0.038403 -0.0355236 5.48965e-20)
(-0.0382414 -0.0408226 1.68078e-19)
(-0.0357065 -0.0456522 -1.69881e-19)
(-0.0305764 -0.049911 -1.83918e-19)
(-0.0226473 -0.0535439 1.98668e-21)
(-0.0117155 -0.0565455 4.22459e-20)
(0.00243721 -0.0589726 2.25742e-20)
(0.020047 -0.0609818 -1.73465e-19)
(0.0413584 -0.0629343 -1.63392e-19)
(0.0664194 -0.0655873 -4.51207e-20)
(0.0947087 -0.0706061 -2.99419e-19)
(0.127209 -0.0829909 -9.81574e-20)
(-0.0356501 -0.0304199 5.96421e-20)
(-0.038081 -0.0367966 3.82954e-20)
(-0.0385331 -0.0428786 2.40722e-21)
(-0.0367534 -0.0485066 3.85365e-19)
(-0.0325273 -0.0535742 4.75602e-19)
(-0.0256603 -0.0580307 7.35956e-20)
(-0.0159608 -0.0618857 -1.62884e-19)
(-0.00322664 -0.0652209 6.2933e-20)
(0.0127566 -0.0682269 3.27569e-19)
(0.0322012 -0.0712988 -3.03635e-19)
(0.0551149 -0.0751979 -4.35501e-20)
(0.0810197 -0.0814924 1.23414e-19)
(0.110728 -0.0945134 -1.90849e-19)
(-0.0304348 -0.0236915 1.25108e-19)
(-0.0348384 -0.0308301 7.87939e-20)
(-0.0376976 -0.0379378 -1.17143e-19)
(-0.0387067 -0.0447841 -2.25755e-19)
(-0.0376172 -0.0511958 -1.20683e-19)
(-0.0342206 -0.057063 -5.13471e-19)
(-0.0283305 -0.0623417 -2.3048e-19)
(-0.0197657 -0.0670572 2.18514e-20)
(-0.00833881 -0.0713155 9.96774e-21)
(0.00614407 -0.0753364 -4.14384e-20)
(0.023865 -0.079538 3.27557e-19)
(0.044798 -0.0846652 1.7552e-19)
(0.0685015 -0.0921596 -7.62465e-20)
(0.0957399 -0.105752 2.6104e-19)
(-0.0293934 -0.0233141 2.63868e-19)
(-0.0340729 -0.0310966 -2.10365e-19)
(-0.0373285 -0.0389059 1.00364e-19)
(-0.0388577 -0.0464886 2.22891e-19)
(-0.0384164 -0.0536589 5.40994e-20)
(-0.0358019 -0.0603048 2.09758e-19)
(-0.030835 -0.0663901 4.30425e-19)
(-0.0233438 -0.0719562 -3.46417e-20)
(-0.0131542 -0.0771316 -3.3667e-19)
(-9.13009e-05 -0.0821601 1.46168e-19)
(0.0160009 -0.087472 -1.83561e-19)
(0.0350707 -0.0937815 -2.41439e-19)
(0.0567133 -0.102388 -1.56635e-19)
(0.0817299 -0.116493 -1.18999e-19)
(-0.0284616 -0.0227955 -3.04917e-19)
(-0.0334028 -0.0311857 3.47825e-19)