/*--------------------------------*- C++ -*----------------------------------*\
  =========                 |
  \\      /  F ield         | OpenFOAM: The Open Source CFD Toolbox
   \\    /   O peration     | Website:  https://openfoam.org
    \\  /    A nd           | Version:  7
     \\/     M anipulation  |
\*---------------------------------------------------------------------------*/
FoamFile
{
    version     2.0;
    format      ascii;
    class       volScalarField;
    location    "140";
    object      p;
}
// * * * * * * * * * * * * * * * * * * * * * * * * * * * * * * * * * * * * * //

dimensions      [0 2 -2 0 0 0 0];

internalField   nonuniform List<scalar> 
7156
(
-0.439914
-0.433683
-0.444984
-0.438521
-0.433554
-0.428384
-0.450069
-0.443378
-0.438266
-0.43295
-0.427346
-0.421451
-0.415132
-0.455152
-0.448238
-0.442986
-0.437523
-0.431746
-0.425634
-0.419041
-0.411823
-0.403853
-0.395037
-0.460218
-0.453086
-0.447697
-0.442088
-0.436133
-0.429794
-0.422909
-0.415326
-0.406919
-0.397603
-0.387355
-0.37622
-0.36431
-0.465249
-0.457907
-0.452385
-0.446629
-0.44049
-0.433912
-0.426717
-0.418748
-0.40988
-0.400041
-0.389229
-0.377516
-0.365036
-0.351972
-0.338528
-0.324907
-0.311291
-0.470226
-0.462682
-0.45703
-0.451128
-0.444798
-0.437969
-0.430447
-0.42207
-0.412717
-0.402334
-0.390941
-0.378637
-0.365584
-0.351985
-0.338057
-0.324012
-0.310033
-0.296269
-0.28283
-0.269792
-0.257199
-0.475131
-0.467393
-0.461617
-0.455567
-0.44904
-0.441946
-0.434078
-0.42527
-0.415411
-0.404463
-0.392475
-0.379572
-0.365943
-0.351811
-0.337408
-0.322949
-0.308618
-0.294559
-0.280875
-0.267634
-0.254875
-0.242616
-0.230855
-0.219585
-0.208905
-0.479944
-0.472021
-0.466124
-0.459926
-0.453195
-0.445823
-0.43759
-0.428329
-0.417941
-0.406412
-0.393815
-0.380307
-0.366102
-0.351443
-0.336574
-0.321712
-0.307041
-0.292697
-0.278779
-0.265344
-0.252426
-0.240036
-0.228167
-0.216813
-0.206042
-0.484644
-0.476546
-0.470533
-0.464186
-0.457243
-0.449578
-0.44096
-0.431225
-0.420289
-0.408161
-0.394946
-0.380829
-0.366051
-0.350873
-0.335547
-0.320295
-0.305295
-0.290679
-0.276536
-0.262918
-0.249848
-0.237334
-0.225363
-0.213932
-0.203074
-0.48921
-0.480948
-0.474823
-0.468325
-0.461161
-0.453189
-0.444168
-0.433939
-0.422436
-0.409695
-0.395853
-0.381126
-0.36578
-0.350091
-0.334321
-0.318691
-0.303376
-0.2885
-0.274143
-0.26035
-0.247138
-0.234508
-0.222442
-0.210938
-0.199999
-0.49362
-0.485205
-0.478972
-0.472322
-0.464929
-0.456635
-0.447192
-0.436449
-0.424361
-0.410995
-0.396521
-0.381186
-0.365278
-0.349091
-0.332889
-0.316896
-0.301279
-0.286155
-0.271595
-0.257637
-0.244291
-0.231552
-0.219399
-0.207829
-0.196814
-0.497851
-0.489296
-0.48296
-0.476154
-0.468524
-0.459893
-0.45001
-0.438734
-0.426047
-0.412047
-0.396937
-0.380998
-0.364538
-0.347863
-0.331246
-0.314903
-0.298998
-0.283639
-0.268888
-0.254775
-0.241304
-0.228464
-0.216231
-0.204601
-0.193517
-0.50188
-0.493198
-0.486762
-0.4798
-0.471923
-0.46294
-0.452599
-0.440774
-0.427474
-0.412832
-0.397088
-0.38055
-0.363549
-0.346402
-0.329384
-0.312708
-0.296529
-0.280948
-0.266018
-0.25176
-0.238173
-0.225241
-0.212935
-0.201252
-0.190105
-0.505685
-0.496888
-0.490358
-0.483235
-0.475102
-0.465753
-0.454938
-0.442549
-0.428625
-0.413337
-0.396961
-0.379832
-0.362303
-0.3447
-0.327297
-0.310304
-0.293867
-0.278077
-0.262979
-0.248588
-0.234895
-0.221879
-0.209509
-0.19778
-0.186577
-0.509242
-0.500343
-0.493723
-0.486438
-0.47804
-0.468311
-0.457005
-0.444038
-0.429482
-0.413547
-0.396542
-0.378835
-0.360793
-0.34275
-0.32498
-0.307686
-0.291007
-0.275022
-0.259769
-0.245255
-0.231466
-0.218374
-0.205949
-0.194182
-0.18293
-0.512527
-0.503541
-0.496834
-0.489384
-0.480711
-0.470588
-0.458779
-0.445222
-0.430029
-0.413446
-0.395822
-0.377548
-0.35901
-0.340546
-0.322427
-0.304851
-0.287944
-0.271778
-0.256383
-0.241757
-0.227882
-0.214725
-0.202254
-0.190455
-0.179162
-0.515517
-0.506457
-0.499668
-0.49205
-0.483093
-0.472564
-0.460238
-0.446083
-0.430247
-0.413021
-0.394788
-0.375963
-0.356947
-0.338082
-0.319633
-0.301791
-0.284674
-0.268342
-0.252818
-0.238092
-0.224141
-0.210928
-0.198419
-0.186598
-0.175271
-0.518187
-0.509069
-0.502201
-0.494412
-0.485163
-0.474217
-0.461362
-0.446601
-0.430124
-0.412261
-0.39343
-0.374072
-0.354598
-0.335351
-0.316593
-0.298504
-0.281192
-0.26471
-0.249069
-0.234255
-0.220239
-0.206981
-0.194444
-0.182607
-0.171256
-0.520516
-0.511353
-0.504411
-0.496448
-0.486899
-0.475523
-0.462132
-0.446761
-0.429643
-0.411152
-0.391739
-0.371867
-0.351955
-0.332348
-0.313301
-0.294984
-0.277495
-0.260877
-0.245133
-0.230244
-0.216174
-0.20288
-0.190325
-0.178482
-0.167114
-0.52248
-0.513287
-0.506275
-0.498135
-0.488277
-0.476464
-0.462528
-0.446544
-0.428791
-0.409683
-0.389706
-0.36934
-0.349014
-0.329069
-0.309754
-0.291228
-0.273579
-0.25684
-0.241007
-0.226055
-0.211943
-0.198624
-0.18606
-0.17422
-0.162844
-0.524056
-0.514849
-0.507769
-0.499449
-0.489277
-0.477018
-0.462532
-0.445936
-0.427555
-0.407845
-0.387321
-0.366485
-0.345767
-0.325508
-0.305947
-0.287232
-0.26944
-0.252596
-0.236689
-0.221686
-0.207543
-0.19421
-0.181649
-0.16982
-0.158445
-0.525222
-0.516015
-0.508872
-0.50037
-0.489877
-0.477166
-0.462127
-0.444922
-0.425923
-0.405627
-0.384579
-0.363295
-0.342211
-0.321662
-0.301876
-0.282991
-0.265075
-0.248142
-0.232174
-0.217134
-0.202973
-0.189637
-0.177089
-0.165281
-0.153916
-0.525957
-0.516765
-0.509563
-0.500876
-0.490057
-0.476889
-0.461296
-0.443488
-0.423883
-0.40302
-0.381471
-0.359765
-0.338341
-0.317525
-0.297537
-0.278503
-0.260481
-0.243475
-0.227462
-0.212397
-0.19823
-0.184903
-0.172378
-0.1606
-0.149255
-0.52624
-0.517078
-0.50982
-0.500947
-0.489797
-0.47617
-0.460025
-0.441621
-0.421426
-0.400017
-0.377992
-0.355891
-0.334152
-0.313095
-0.292927
-0.273765
-0.255655
-0.238593
-0.222548
-0.207473
-0.193313
-0.180006
-0.167515
-0.155778
-0.144462
-0.526052
-0.516934
-0.509623
-0.500564
-0.48908
-0.474991
-0.458299
-0.43931
-0.418542
-0.396611
-0.374136
-0.351668
-0.329641
-0.308368
-0.288044
-0.268775
-0.250594
-0.233493
-0.217433
-0.202361
-0.18822
-0.174945
-0.162499
-0.150812
-0.139536
-0.525373
-0.516313
-0.508954
-0.499706
-0.487888
-0.473339
-0.456104
-0.436544
-0.415223
-0.392795
-0.369899
-0.347091
-0.324805
-0.303341
-0.282885
-0.263529
-0.245298
-0.228173
-0.212113
-0.197059
-0.182949
-0.169719
-0.15733
-0.145703
-0.134477
-0.524185
-0.515198
-0.507794
-0.498358
-0.486204
-0.471197
-0.453429
-0.433314
-0.411463
-0.388563
-0.365275
-0.342159
-0.319641
-0.298014
-0.277448
-0.258026
-0.239763
-0.222633
-0.206588
-0.191565
-0.177501
-0.164326
-0.152006
-0.14045
-0.129285
-0.522471
-0.513571
-0.506126
-0.496503
-0.484014
-0.468554
-0.450264
-0.429611
-0.407254
-0.383912
-0.360263
-0.336868
-0.314148
-0.292382
-0.271732
-0.252265
-0.233989
-0.216871
-0.200856
-0.18588
-0.171874
-0.158767
-0.146526
-0.135053
-0.12396
-0.520217
-0.511417
-0.503934
-0.494125
-0.481304
-0.465397
-0.446598
-0.425428
-0.402591
-0.378838
-0.354859
-0.331216
-0.308323
-0.286447
-0.265735
-0.246245
-0.227975
-0.210886
-0.194918
-0.180002
-0.166068
-0.153041
-0.14089
-0.12951
-0.118498
-0.517406
-0.50872
-0.501204
-0.491211
-0.478061
-0.461717
-0.442424
-0.420759
-0.397472
-0.373338
-0.349061
-0.325203
-0.302166
-0.280205
-0.259456
-0.239965
-0.221721
-0.204678
-0.188772
-0.173932
-0.160082
-0.147148
-0.135097
-0.123819
-0.112877
-0.514026
-0.505467
-0.497923
-0.487748
-0.474275
-0.457503
-0.437735
-0.4156
-0.391891
-0.36741
-0.342869
-0.318827
-0.295676
-0.273658
-0.252896
-0.233425
-0.215226
-0.198247
-0.18242
-0.167669
-0.153919
-0.14109
-0.129154
-0.117987
-0.107076
-0.510066
-0.501646
-0.494077
-0.483724
-0.469935
-0.452749
-0.432525
-0.409947
-0.385848
-0.361054
-0.336283
-0.312089
-0.288854
-0.266806
-0.246054
-0.226625
-0.208491
-0.191593
-0.175861
-0.161215
-0.147577
-0.134867
-0.123064
-0.112033
-0.10115
-0.505513
-0.497245
-0.489657
-0.479131
-0.465033
-0.447447
-0.426789
-0.403797
-0.37934
-0.354268
-0.329301
-0.304989
-0.281699
-0.259648
-0.238932
-0.219566
-0.201516
-0.184718
-0.169096
-0.15457
-0.141059
-0.128481
-0.116818
-0.105893
-0.095181
-0.50036
-0.492256
-0.484652
-0.473959
-0.459563
-0.441594
-0.420526
-0.397148
-0.372369
-0.347054
-0.321927
-0.297528
-0.274215
-0.252187
-0.23153
-0.212249
-0.194302
-0.177622
-0.162127
-0.147736
-0.134365
-0.121933
-0.110421
-0.0996236
-0.0890795
-0.494598
-0.486669
-0.479056
-0.468202
-0.453519
-0.435184
-0.413732
-0.390002
-0.364935
-0.339413
-0.314161
-0.289709
-0.266401
-0.244424
-0.22385
-0.204675
-0.186852
-0.170306
-0.154955
-0.140714
-0.127497
-0.115223
-0.103874
-0.0932231
-0.0828423
-0.488222
-0.480479
-0.472862
-0.461854
-0.446897
-0.428217
-0.406408
-0.382357
-0.357039
-0.331347
-0.306005
-0.281534
-0.258262
-0.236361
-0.215894
-0.196848
-0.179167
-0.162774
-0.147582
-0.133506
-0.120458
-0.108355
-0.0971813
-0.0866897
-0.076473
-0.481227
-0.473681
-0.466066
-0.454912
-0.439695
-0.420691
-0.398553
-0.374217
-0.348685
-0.32286
-0.297464
-0.273006
-0.249799
-0.228002
-0.207666
-0.188769
-0.17125
-0.155027
-0.140011
-0.126115
-0.113248
-0.10133
-0.0903435
-0.0800233
-0.0699757
-0.473609
-0.466271
-0.458663
-0.447373
-0.431911
-0.412608
-0.390172
-0.365585
-0.339875
-0.313956
-0.288542
-0.264129
-0.241016
-0.21935
-0.199168
-0.180442
-0.163103
-0.147068
-0.132244
-0.118542
-0.105872
-0.0941499
-0.0833634
-0.0732252
-0.0633536
-0.465367
-0.458246
-0.450653
-0.439236
-0.423547
-0.403968
-0.381265
-0.356464
-0.330616
-0.304639
-0.279242
-0.254907
-0.231918
-0.210408
-0.190404
-0.171869
-0.154731
-0.1389
-0.124285
-0.110792
-0.0983308
-0.0868184
-0.0762435
-0.0662973
-0.456502
-0.449607
-0.442034
-0.430503
-0.414604
-0.394775
-0.371839
-0.34686
-0.320912
-0.294915
-0.26957
-0.245345
-0.22251
-0.201182
-0.181378
-0.163056
-0.146136
-0.130528
-0.116136
-0.102868
-0.0906289
-0.0793384
-0.447013
-0.440354
-0.432809
-0.421175
-0.405086
-0.385034
-0.361898
-0.336779
-0.310769
-0.28479
-0.259533
-0.23545
-0.212796
-0.191675
-0.172095
-0.154006
-0.137324
-0.121955
-0.107802
-0.0947723
-0.0827695
-0.436905
-0.430491
-0.422981
-0.411255
-0.394997
-0.374751
-0.351448
-0.326228
-0.300195
-0.274272
-0.249137
-0.225227
-0.202782
-0.181894
-0.162561
-0.144724
-0.128298
-0.113186
-0.0992881
-0.0865103
-0.426182
-0.42002
-0.412553
-0.40075
-0.384344
-0.363933
-0.340499
-0.315215
-0.289198
-0.263368
-0.238389
-0.214683
-0.192475
-0.171844
-0.152779
-0.135216
-0.119065
-0.104225
-0.0905976
-0.414849
-0.408948
-0.401531
-0.389666
-0.373134
-0.352587
-0.329059
-0.303749
-0.277787
-0.252086
-0.227297
-0.203826
-0.181882
-0.161533
-0.142758
-0.125488
-0.109629
-0.402914
-0.397281
-0.389923
-0.378009
-0.361375
-0.340725
-0.317137
-0.291841
-0.265972
-0.240436
-0.21587
-0.192664
-0.171011
-0.150967
-0.132504
-0.115546
-0.390386
-0.385028
-0.377737
-0.365791
-0.349078
-0.328355
-0.304745
-0.279501
-0.253763
-0.228428
-0.204118
-0.181205
-0.159869
-0.140153
-0.122022
-0.377276
-0.372199
-0.364984
-0.353022
-0.336255
-0.31549
-0.291894
-0.266741
-0.241172
-0.216071
-0.192049
-0.169459
-0.148464
-0.1291
-0.363594
-0.358805
-0.351675
-0.339712
-0.322917
-0.302142
-0.278597
-0.253573
-0.228209
-0.203379
-0.179675
-0.157435
-0.136807
-0.349354
-0.344859
-0.337822
-0.325877
-0.309078
-0.288327
-0.264872
-0.240007
-0.214887
-0.190361
-0.167007
-0.145143
-0.33457
-0.330373
-0.323439
-0.311529
-0.294753
-0.27406
-0.250739
-0.226051
-0.201219
-0.177031
-0.154055
-0.319257
-0.315364
-0.308543
-0.296685
-0.279957
-0.259353
-0.236181
-0.21175
-0.187221
-0.163402
-0.140832
-0.303432
-0.299848
-0.293148
-0.28136
-0.264709
-0.244225
-0.221242
-0.197093
-0.172906
-0.149486
-0.287113
-0.283841
-0.277273
-0.265574
-0.249027
-0.228689
-0.205938
-0.1821
-0.158289
-0.270318
-0.267363
-0.260935
-0.249344
-0.232921
-0.212772
-0.190283
-0.166788
-0.253066
-0.250433
-0.244155
-0.232691
-0.216417
-0.196487
-0.174294
-0.235378
-0.233072
-0.226953
-0.21563
-0.199539
-0.179856
-0.217274
-0.215301
-0.209349
-0.198188
-0.182304
-0.162897
-0.198772
-0.197144
-0.19137
-0.180387
-0.164734
-0.179891
-0.178641
-0.173029
-0.162248
-0.160674
-0.159792
-0.154361
-0.143796
-0.141169
-0.140603
-0.135387
-0.121369
-0.121124
-0.101298
-0.101384
-0.0809857
-0.0604618
-0.160233
-0.183333
-0.206245
-0.206475
-0.228938
-0.228835
-0.251383
-0.250952
-0.24487
-0.273551
-0.272801
-0.266488
-0.254134
-0.295414
-0.294355
-0.287818
-0.275213
-0.31697
-0.315569
-0.308834
-0.295997
-0.277748
-0.338203
-0.336414
-0.329512
-0.316461
-0.297924
-0.27538
-0.359049
-0.356898
-0.349829
-0.33658
-0.317783
-0.294888
-0.269579
-0.379483
-0.376993
-0.369759
-0.356331
-0.3373
-0.314085
-0.28836
-0.399488
-0.396669
-0.389275
-0.375694
-0.356453
-0.332951
-0.306842
-0.279687
-0.419044
-0.415902
-0.408358
-0.394646
-0.37522
-0.351464
-0.325006
-0.297412
-0.269939
-0.43813
-0.434671
-0.426987
-0.413155
-0.393588
-0.369603
-0.34283
-0.314833
-0.286884
-0.259879
-0.456726
-0.452955
-0.445141
-0.431212
-0.411525
-0.387351
-0.360297
-0.331932
-0.303539
-0.276037
-0.249995
-0.474813
-0.470735
-0.462801
-0.448795
-0.429014
-0.404689
-0.377389
-0.348691
-0.319888
-0.291919
-0.265376
-0.240568
-0.492371
-0.487991
-0.479948
-0.465886
-0.446038
-0.421593
-0.394091
-0.365094
-0.335915
-0.307511
-0.280494
-0.255192
-0.509384
-0.504705
-0.496563
-0.482465
-0.462581
-0.438049
-0.410383
-0.381124
-0.351606
-0.322798
-0.295337
-0.269567
-0.245628
-0.525835
-0.520863
-0.512632
-0.498517
-0.478625
-0.454041
-0.426245
-0.39677
-0.366946
-0.337768
-0.309892
-0.28368
-0.259288
-0.236731
-0.541707
-0.536448
-0.528138
-0.514025
-0.494153
-0.469554
-0.441667
-0.412012
-0.381922
-0.352408
-0.324147
-0.297521
-0.2727
-0.249709
-0.228493
-0.556987
-0.551446
-0.543067
-0.528976
-0.509151
-0.484572
-0.456633
-0.426838
-0.396522
-0.366704
-0.338091
-0.311079
-0.285853
-0.262452
-0.240826
-0.220879
-0.571662
-0.565845
-0.557407
-0.543355
-0.523606
-0.499081
-0.47113
-0.441234
-0.410728
-0.380649
-0.351714
-0.324343
-0.298739
-0.27495
-0.252935
-0.232602
-0.213841
-0.196532
-0.585719
-0.579634
-0.571145
-0.55715
-0.537503
-0.513068
-0.485144
-0.455189
-0.424533
-0.394227
-0.365004
-0.337305
-0.311348
-0.287195
-0.264812
-0.244113
-0.22499
-0.207327
-0.191008
-0.599149
-0.592801
-0.584272
-0.570351
-0.550833
-0.526521
-0.498664
-0.46869
-0.437925
-0.407429
-0.377953
-0.349956
-0.323673
-0.29918
-0.27645
-0.255405
-0.235938
-0.217935
-0.201284
-0.185875
-0.611942
-0.605339
-0.596778
-0.582947
-0.563583
-0.539429
-0.511677
-0.481726
-0.450893
-0.420245
-0.39055
-0.362287
-0.335706
-0.310896
-0.287842
-0.26647
-0.246678
-0.228353
-0.211384
-0.195662
-0.18108
-0.62409
-0.61724
-0.608655
-0.594931
-0.575746
-0.551781
-0.524174
-0.494288
-0.463427
-0.432667
-0.402788
-0.374289
-0.347439
-0.322338
-0.298982
-0.277303
-0.257204
-0.238574
-0.221302
-0.205283
-0.190407
-0.176586
-0.635587
-0.628498
-0.619898
-0.606295
-0.587313
-0.56357
-0.536146
-0.506366
-0.475519
-0.444685
-0.414658
-0.385957
-0.358865
-0.333499
-0.309864
-0.287899
-0.267511
-0.248593
-0.231035
-0.214731
-0.199575
-0.185477
-0.172427
-0.160031
-0.646429
-0.639108
-0.630501
-0.617034
-0.598277
-0.574788
-0.547584
-0.517951
-0.48716
-0.456292
-0.426154
-0.397282
-0.369978
-0.344373
-0.320482
-0.298252
-0.277594
-0.258405
-0.240577
-0.224003
-0.208581
-0.194218
-0.180902
-0.168267
-0.155955
-0.656612
-0.649069
-0.640461
-0.627143
-0.608634
-0.585429
-0.558482
-0.529036
-0.498343
-0.46748
-0.437269
-0.40826
-0.380773
-0.354955
-0.330831
-0.308358
-0.28745
-0.268007
-0.249924
-0.233096
-0.21742
-0.202805
-0.189236
-0.17637
-0.163836
-0.666133
-0.658377
-0.649777
-0.63662
-0.618379
-0.595486
-0.568833
-0.539615
-0.509061
-0.478244
-0.447996
-0.418883
-0.391245
-0.36524
-0.340908
-0.318212
-0.297073
-0.277395
-0.259073
-0.242006
-0.22609
-0.211235
-0.197424
-0.184339
-0.171592
-0.674994
-0.667034
-0.658448
-0.645463
-0.627509
-0.604957
-0.578633
-0.549682
-0.519308
-0.488577
-0.45833
-0.429148
-0.401388
-0.375224
-0.350707
-0.327811
-0.306461
-0.286565
-0.268021
-0.250729
-0.234588
-0.219506
-0.205465
-0.19217
-0.179218
-0.683194
-0.67504
-0.666475
-0.653673
-0.636024
-0.613839
-0.587877
-0.559233
-0.529079
-0.498475
-0.468266
-0.43905
-0.411198
-0.384903
-0.360227
-0.337151
-0.31561
-0.295514
-0.276765
-0.259264
-0.242911
-0.227616
-0.213357
-0.199861
-0.186713
-0.690736
-0.682399
-0.67386
-0.661251
-0.643924
-0.622131
-0.596563
-0.568263
-0.538371
-0.507934
-0.477801
-0.448585
-0.420673
-0.394274
-0.369462
-0.34623
-0.324518
-0.304241
-0.285303
-0.267607
-0.251057
-0.235562
-0.221098
-0.207413
-0.194073
-0.697626
-0.689116
-0.680609
-0.668201
-0.65121
-0.629832
-0.60469
-0.576771
-0.54718
-0.516949
-0.486931
-0.45775
-0.42981
-0.403334
-0.378412
-0.355046
-0.333182
-0.312742
-0.293632
-0.275758
-0.259025
-0.243342
-0.228686
-0.214823
-0.201294
-0.703867
-0.695195
-0.686726
-0.674526
-0.657886
-0.636944
-0.612257
-0.584755
-0.555504
-0.525519
-0.495654
-0.466542
-0.438605
-0.412081
-0.387074
-0.363596
-0.341601
-0.321016
-0.301751
-0.283715
-0.266813
-0.250956
-0.236121
-0.222095
-0.208371
-0.709468
-0.700645
-0.692218
-0.680234
-0.663956
-0.643469
-0.619266
-0.592215
-0.563341
-0.533642
-0.503967
-0.47496
-0.447058
-0.420514
-0.395447
-0.371879
-0.349774
-0.329063
-0.30966
-0.291476
-0.27442
-0.258403
-0.2434
-0.22923
-0.215304
-0.714437
-0.705475
-0.697095
-0.685332
-0.669426
-0.649413
-0.625718
-0.599151
-0.570692
-0.541316
-0.511869
-0.483003
-0.455167
-0.428632
-0.40353
-0.379895
-0.3577
-0.33688
-0.317356
-0.29904
-0.281845
-0.265682
-0.250522
-0.23621
-0.222126
-0.718783
-0.709694
-0.701366
-0.689828
-0.674303
-0.65478
-0.631618
-0.605565
-0.577557
-0.548542
-0.51936
-0.490668
-0.462931
-0.436433
-0.411322
-0.387643
-0.365378
-0.344469
-0.32484
-0.306408
-0.289087
-0.272792
-0.25749
-0.243058
-0.228982
-0.722519
-0.713315
-0.705043
-0.693734
-0.678597
-0.659577
-0.636969
-0.611459
-0.583936
-0.55532
-0.526439
-0.497957
-0.47035
-0.443918
-0.418823
-0.395123
-0.372808
-0.351828
-0.332111
-0.313578
-0.296147
-0.279733
-0.264301
-0.249745
-0.235615
-0.725656
-0.716351
-0.708138
-0.69706
-0.682318
-0.663812
-0.641778
-0.616839
-0.589833
-0.561651
-0.533108
-0.50487
-0.477425
-0.451088
-0.426034
-0.402335
-0.379991
-0.358958
-0.33917
-0.320552
-0.303023
-0.286504
-0.270954
-0.256271
-0.242041
-0.728209
-0.718815
-0.710666
-0.699821
-0.685476
-0.667494
-0.646051
-0.621708
-0.595252
-0.567537
-0.539368
-0.511408
-0.484156
-0.457942
-0.432956
-0.409281
-0.386927
-0.36586
-0.346018
-0.327329
-0.309717
-0.293103
-0.277446
-0.262649
-0.248314
-0.730193
-0.720724
-0.712641
-0.70203
-0.688085
-0.670635
-0.649799
-0.626074
-0.600195
-0.572982
-0.54522
-0.517573
-0.490546
-0.464484
-0.43959
-0.415961
-0.393619
-0.372535
-0.352655
-0.33391
-0.316229
-0.299533
-0.283781
-0.268884
-0.254458
-0.731625
-0.722093
-0.714081
-0.703704
-0.69016
-0.673247
-0.653029
-0.629943
-0.604669
-0.57799
-0.550669
-0.523367
-0.496596
-0.470713
-0.445938
-0.422378
-0.400067
-0.378985
-0.359083
-0.340298
-0.32256
-0.305795
-0.28996
-0.274975
-0.260473
-0.732522
-0.722941
-0.715003
-0.704859
-0.691715
-0.675342
-0.655752
-0.633323
-0.60868
-0.582564
-0.555717
-0.528792
-0.502309
-0.476634
-0.452001
-0.428533
-0.406273
-0.385211
-0.365304
-0.346493
-0.328713
-0.311891
-0.295984
-0.280922
-0.266355
-0.732902
-0.723287
-0.715425
-0.705513
-0.692767
-0.676935
-0.657982
-0.636225
-0.612235
-0.586711
-0.560368
-0.533853
-0.507687
-0.482248
-0.457784
-0.43443
-0.412241
-0.391216
-0.37132
-0.352498
-0.334688
-0.317823
-0.301856
-0.286726
-0.272105
-0.732785
-0.72315
-0.715367
-0.705685
-0.693334
-0.678043
-0.65973
-0.638659
-0.615342
-0.590436
-0.564628
-0.538553
-0.512734
-0.487559
-0.463288
-0.44007
-0.417972
-0.397003
-0.377133
-0.358315
-0.340489
-0.323592
-0.307576
-0.29239
-0.277724
-0.732192
-0.72255
-0.714849
-0.705395
-0.693434
-0.67868
-0.661012
-0.640636
-0.618011
-0.593746
-0.568502
-0.542897
-0.517454
-0.49257
-0.468517
-0.445458
-0.423471
-0.402574
-0.382747
-0.363946
-0.346118
-0.3292
-0.313147
-0.297915
-0.283214
-0.731143
-0.721509
-0.713893
-0.704664
-0.693087
-0.678866
-0.661841
-0.642168
-0.62025
-0.59665
-0.571995
-0.546889
-0.521851
-0.497285
-0.473475
-0.450596
-0.428739
-0.407933
-0.388164
-0.369395
-0.351577
-0.334651
-0.318572
-0.303302
-0.288577
-0.72966
-0.720048
-0.712521
-0.703513
-0.692314
-0.678619
-0.662236
-0.64327
-0.622072
-0.599156
-0.575116
-0.550535
-0.52593
-0.501709
-0.478166
-0.455489
-0.433782
-0.413083
-0.393388
-0.374665
-0.356869
-0.339948
-0.323853
-0.308555
-0.293816
-0.727767
-0.718191
-0.710755
-0.701964
-0.691135
-0.677958
-0.662212
-0.643956
-0.623488
-0.601274
-0.57787
-0.553842
-0.529696
-0.505846
-0.482594
-0.460141
-0.438603
-0.418029
-0.398422
-0.379759
-0.361999
-0.345092
-0.328992
-0.313676
-0.298931
-0.725485
-0.71596
-0.708618
-0.700041
-0.689573
-0.676904
-0.661788
-0.644241
-0.62451
-0.603012
-0.580267
-0.556815
-0.533155
-0.509701
-0.486764
-0.464557
-0.443207
-0.422774
-0.403271
-0.384681
-0.366968
-0.350088
-0.333994
-0.318668
-0.303926
-0.722837
-0.713377
-0.706133
-0.697765
-0.687649
-0.675477
-0.660982
-0.644141
-0.625151
-0.604383
-0.582315
-0.559463
-0.536313
-0.513279
-0.49068
-0.46874
-0.447597
-0.427322
-0.407938
-0.389434
-0.371781
-0.354938
-0.338861
-0.323534
-0.308804
-0.719849
-0.710468
-0.703324
-0.695161
-0.685387
-0.673699
-0.659815
-0.643674
-0.625427
-0.605397
-0.584022
-0.561791
-0.539175
-0.516586
-0.494349
-0.472696
-0.451779
-0.431679
-0.412428
-0.394024
-0.376443
-0.359647
-0.343596
-0.328276
-0.313567
-0.716544
-0.707255
-0.700214
-0.692252
-0.682811
-0.671594
-0.658306
-0.642857
-0.625352
-0.606067
-0.5854
-0.563809
-0.541749
-0.519628
-0.497774
-0.47643
-0.455757
-0.435849
-0.416746
-0.398454
-0.380956
-0.364219
-0.348203
-0.332899
-0.318218
-0.712946
-0.703762
-0.696828
-0.689063
-0.679942
-0.669182
-0.656477
-0.641709
-0.624942
-0.606406
-0.586458
-0.565524
-0.544042
-0.522411
-0.500962
-0.479947
-0.459537
-0.439836
-0.420896
-0.40273
-0.385325
-0.368657
-0.352687
-0.337406
-0.322762
-0.709078
-0.700012
-0.693188
-0.685616
-0.676806
-0.666486
-0.654348
-0.640248
-0.624212
-0.606427
-0.587207
-0.566946
-0.546061
-0.524941
-0.503919
-0.483253
-0.463124
-0.443647
-0.424884
-0.406855
-0.389556
-0.372966
-0.357051
-0.3418
-0.327201
-0.704965
-0.69603
-0.689319
-0.681936
-0.673424
-0.66353
-0.651942
-0.638495
-0.623181
-0.606144
-0.587659
-0.568084
-0.547812
-0.527224
-0.50665
-0.486352
-0.466523
-0.447286
-0.428714
-0.410835
-0.393653
-0.377151
-0.361299
-0.346087
-0.331539
-0.700629
-0.691837
-0.685243
-0.678045
-0.669822
-0.660336
-0.649279
-0.636468
-0.621865
-0.605572
-0.587825
-0.568947
-0.549306
-0.529268
-0.509161
-0.489252
-0.469739
-0.450759
-0.432391
-0.414675
-0.39762
-0.381216
-0.365436
-0.35027
-0.335781
-0.696094
-0.687457
-0.680983
-0.673966
-0.666021
-0.656928
-0.646381
-0.634189
-0.620281
-0.604727
-0.587718
-0.569545
-0.550549
-0.531079
-0.511459
-0.491956
-0.472778
-0.45407
-0.435921
-0.41838
-0.401463
-0.385166
-0.369467
-0.354353
-0.339929
-0.691383
-0.682912
-0.676561
-0.669723
-0.662045
-0.653327
-0.643272
-0.631676
-0.618449
-0.603623
-0.587352
-0.569889
-0.55155
-0.532665
-0.513549
-0.494472
-0.475646
-0.457226
-0.43931
-0.421956
-0.686519
-0.678223
-0.672
-0.665337
-0.657916
-0.649556
-0.639971
-0.628952
-0.616387
-0.602276
-0.586738
-0.56999
-0.552317
-0.534032
-0.515438
-0.496804
-0.681522
-0.673412
-0.66732
-0.660829
-0.653655
-0.645637
-0.636502
-0.626037
-0.614113
-0.600704
-0.585892
-0.569859
-0.552861
-0.676414
-0.668499
-0.662541
-0.65622
-0.649284
-0.641592
-0.632884
-0.62295
-0.611647
-0.671216
-0.663504
-0.657683
-0.651531
-0.644823
-0.637441
-0.665946
-0.658446
-0.652765
-0.646779
-0.660625
-0.173253
-0.176683
-0.180013
-0.183245
-0.186379
-0.189418
-0.192364
-0.19522
-0.158863
-0.162158
-0.165372
-0.168506
-0.17156
-0.174538
-0.177439
-0.180266
-0.14583
-0.148978
-0.15206
-0.155077
-0.15803
-0.160921
-0.16375
-0.166519
-0.134022
-0.137022
-0.139969
-0.142862
-0.145704
-0.148495
-0.151237
-0.153929
-0.123278
-0.126131
-0.128941
-0.131708
-0.134433
-0.137116
-0.13976
-0.142364
-0.113467
-0.116176
-0.118849
-0.121488
-0.124093
-0.126665
-0.129205
-0.131712
-0.104482
-0.10705
-0.10959
-0.112101
-0.114585
-0.117043
-0.119475
-0.121881
-0.0962291
-0.0986606
-0.101069
-0.103455
-0.10582
-0.108163
-0.110485
-0.112787
-0.0886341
-0.0909332
-0.0932141
-0.0954773
-0.0977231
-0.0999522
-0.102165
-0.104362
-0.0816202
-0.083793
-0.0859512
-0.0880954
-0.0902259
-0.0923433
-0.094448
-0.0965404
-0.0751341
-0.0771856
-0.0792257
-0.0812547
-0.0832731
-0.0852813
-0.0872796
-0.0892687
-0.0691195
-0.0710554
-0.0729822
-0.0749006
-0.0768107
-0.078713
-0.0806079
-0.0824958
-0.0635339
-0.0653592
-0.0671776
-0.0689895
-0.0707952
-0.072595
-0.0743895
-0.0761788
-0.0583329
-0.0600532
-0.0617684
-0.0634786
-0.0651843
-0.0668858
-0.0685833
-0.0702773
-0.0534832
-0.0551037
-0.0567204
-0.0583335
-0.0599434
-0.0615503
-0.0631546
-0.0647565
-0.0489494
-0.0504756
-0.051999
-0.0535199
-0.0550386
-0.0565553
-0.0580703
-0.0595839
-0.0447075
-0.046144
-0.0475786
-0.0490116
-0.0504432
-0.0518736
-0.053303
-0.0547319
-0.0407307
-0.0420824
-0.0434328
-0.0447822
-0.0461309
-0.0474791
-0.0488269
-0.0501747
-0.0369945
-0.0382662
-0.0395371
-0.0408076
-0.0420777
-0.0433478
-0.0446181
-0.0458886
-0.0334829
-0.0346787
-0.0358741
-0.0370695
-0.038265
-0.0394608
-0.0406571
-0.041854
-0.0301761
-0.0313002
-0.0324244
-0.0335487
-0.0346735
-0.0357988
-0.0369249
-0.0380518
-0.0270577
-0.0281142
-0.0291711
-0.0302284
-0.0312862
-0.0323448
-0.0334043
-0.0344649
-0.0241149
-0.0251077
-0.026101
-0.0270948
-0.0280893
-0.0290847
-0.0300811
-0.0310786
-0.021334
-0.0222667
-0.0231999
-0.0241338
-0.0250685
-0.0260042
-0.0269408
-0.0278787
-0.0187042
-0.0195802
-0.0204568
-0.0213342
-0.0222124
-0.0230916
-0.0239718
-0.0248532
-0.0162146
-0.0170372
-0.0178605
-0.0186846
-0.0195095
-0.0203353
-0.0211623
-0.0219904
-0.0138566
-0.014629
-0.015402
-0.0161758
-0.0169504
-0.017726
-0.0185026
-0.0192803
-0.0116214
-0.0123464
-0.0130721
-0.0137985
-0.0145258
-0.015254
-0.0159831
-0.0167133
-0.00950156
-0.0101821
-0.0108632
-0.0115451
-0.0122277
-0.0129112
-0.0135956
-0.014281
-0.00749028
-0.00812891
-0.00876816
-0.00940807
-0.0100487
-0.0106901
-0.0113324
-0.0119756
-0.00558094
-0.00618024
-0.00678009
-0.00738056
-0.0079817
-0.00858356
-0.0091862
-0.00978967
-0.00376843
-0.00433072
-0.00489353
-0.0054569
-0.00602088
-0.00658551
-0.00715083
-0.00771691
-0.0020471
-0.00257464
-0.00310265
-0.00363116
-0.00416021
-0.00468984
-0.0052201
-0.00575102
-0.000412283
-0.00090719
-0.00140251
-0.00189827
-0.0023945
-0.00289125
-0.00338855
-0.00388643
0.00114041
0.000676145
0.000211525
-0.00025348
-0.000718899
-0.00118476
-0.0016511
-0.00211794
0.00261504
0.00217954
0.00174374
0.00130761
0.000871121
0.00043426
-3.00426e-06
-0.000440697
0.00401556
0.00360704
0.00319827
0.00278922
0.00237988
0.00197023
0.00156024
0.0011499
0.00534515
0.00496195
0.00457855
0.00419493
0.00381106
0.00342695
0.00304256
0.00265789
0.00660731
0.00624785
0.00588824
0.00552846
0.00516849
0.00480833
0.00444794
0.00408733
0.00780501
0.00746782
0.00713052
0.00679309
0.00645553
0.00611781
0.00577994
0.0054419
0.0089411
0.00862479
0.0083084
0.00799192
0.00767536
0.00735869
0.00704192
0.00672503
0.0100183
0.00972155
0.00942476
0.00912792
0.00883104
0.0085341
0.00823709
0.00794002
0.0110391
0.0107607
0.0104823
0.0102038
0.00992539
0.00964692