/*--------------------------------*- C++ -*----------------------------------*\
  =========                 |
  \\      /  F ield         | OpenFOAM: The Open Source CFD Toolbox
   \\    /   O peration     | Website:  https://openfoam.org
    \\  /    A nd           | Version:  7
     \\/     M anipulation  |
\*---------------------------------------------------------------------------*/
FoamFile
{
    version     2.0;
    format      ascii;
    class       volScalarField;
    location    "220";
    object      p;
}
// * * * * * * * * * * * * * * * * * * * * * * * * * * * * * * * * * * * * * //

dimensions      [0 2 -2 0 0 0 0];

internalField   nonuniform List<scalar> 
20050
(
-0.35741
-0.360031
-0.361224
-0.36215
-0.362984
-0.363822
-0.364742
-0.365768
-0.36689
-0.368078
-0.369285
-0.370459
-0.37154
-0.372438
-0.373156
-0.351677
-0.354283
-0.355415
-0.356226
-0.356876
-0.357453
-0.358029
-0.358626
-0.359231
-0.359813
-0.360325
-0.360718
-0.360945
-0.360899
-0.360622
-0.346165
-0.348728
-0.349791
-0.350483
-0.350951
-0.351273
-0.351515
-0.351694
-0.351797
-0.351791
-0.35163
-0.351268
-0.350675
-0.349726
-0.348486
-0.340884
-0.343378
-0.344365
-0.344938
-0.345228
-0.345303
-0.345222
-0.344999
-0.344618
-0.344047
-0.343241
-0.342158
-0.340785
-0.338987
-0.336825
-0.335839
-0.338244
-0.339149
-0.339603
-0.339721
-0.339559
-0.33917
-0.338562
-0.337719
-0.336609
-0.335188
-0.333422
-0.331316
-0.32873
-0.325695
-0.331032
-0.333332
-0.334151
-0.334488
-0.334442
-0.334055
-0.333371
-0.332398
-0.331116
-0.329495
-0.327494
-0.325085
-0.322295
-0.318989
-0.315132
-0.32646
-0.328644
-0.329376
-0.329601
-0.329397
-0.328797
-0.327836
-0.326517
-0.324819
-0.322716
-0.32017
-0.317159
-0.313734
-0.309778
-0.305148
-0.322121
-0.324183
-0.324829
-0.324945
-0.324593
-0.323793
-0.32257
-0.320924
-0.318835
-0.316277
-0.31322
-0.309649
-0.305637
-0.301098
-0.295734
-0.318008
-0.319948
-0.320511
-0.320524
-0.320032
-0.319043
-0.317574
-0.31562
-0.313162
-0.310177
-0.306643
-0.302552
-0.297997
-0.292941
-0.286848
-0.314116
-0.315937
-0.316421
-0.316337
-0.315715
-0.314549
-0.312849
-0.310604
-0.307798
-0.304412
-0.300432
-0.295858
-0.290804
-0.28529
-0.278366
-0.310437
-0.31215
-0.312559
-0.312385
-0.311641
-0.31031
-0.308391
-0.305873
-0.302738
-0.298975
-0.294578
-0.289558
-0.284048
-0.27814
-0.27011
-0.306968
-0.308584
-0.308925
-0.308668
-0.30781
-0.306323
-0.304198
-0.301421
-0.297976
-0.293856
-0.289069
-0.283637
-0.277714
-0.271546
-0.263462
-0.303702
-0.305238
-0.305519
-0.305185
-0.304221
-0.302586
-0.300267
-0.297243
-0.293503
-0.289047
-0.283893
-0.278079
-0.271772
-0.265236
-0.257149
-0.300639
-0.302112
-0.302341
-0.301937
-0.300871
-0.299098
-0.296593
-0.293335
-0.289316
-0.284541
-0.27904
-0.272868
-0.26621
-0.259353
-0.251109
-0.297777
-0.299208
-0.299392
-0.298923
-0.297763
-0.295856
-0.293175
-0.289695
-0.28541
-0.280333
-0.274505
-0.267996
-0.261009
-0.253879
-0.245435
-0.295121
-0.296528
-0.296675
-0.296145
-0.294896
-0.292862
-0.290012
-0.286321
-0.281784
-0.276421
-0.270285
-0.263461
-0.256163
-0.248789
-0.240135
-0.292676
-0.294078
-0.294193
-0.293608
-0.292272
-0.290117
-0.287106
-0.283215
-0.278441
-0.272809
-0.266387
-0.259267
-0.251676
-0.244082
-0.235191
-0.290451
-0.291864
-0.291953
-0.291315
-0.289896
-0.287624
-0.284461
-0.280382
-0.275388
-0.269506
-0.26282
-0.255428
-0.247561
-0.239772
-0.230581
-0.288459
-0.289894
-0.289961
-0.289272
-0.287773
-0.285389
-0.282082
-0.277829
-0.272636
-0.266522
-0.259601
-0.251964
-0.24384
-0.235887
-0.226286
-0.286713
-0.288179
-0.288225
-0.287485
-0.285908
-0.283419
-0.279978
-0.275567
-0.270202
-0.26387
-0.256751
-0.248902
-0.240543
-0.232464
-0.22229
-0.28523
-0.28673
-0.286753
-0.285964
-0.284311
-0.281721
-0.278158
-0.273604
-0.268074
-0.261595
-0.254296
-0.246271
-0.237703
-0.229552
-0.218587
-0.284029
-0.285558
-0.285556
-0.284715
-0.282988
-0.280304
-0.276632
-0.271955
-0.266293
-0.25969
-0.252258
-0.2441
-0.235355
-0.227196
-0.21519
-0.283127
-0.284674
-0.284643
-0.283747
-0.281948
-0.279178
-0.27541
-0.270633
-0.26487
-0.258173
-0.250653
-0.242411
-0.233525
-0.225433
-0.212138
-0.282542
-0.284091
-0.284021
-0.283068
-0.281198
-0.27835
-0.274502
-0.269647
-0.263812
-0.257058
-0.249494
-0.241214
-0.23223
-0.224269
-0.209495
-0.282289
-0.283816
-0.283699
-0.282682
-0.280743
-0.277825
-0.273912
-0.269001
-0.263124
-0.256346
-0.248778
-0.240504
-0.231467
-0.223673
-0.20735
-0.282381
-0.283858
-0.28368
-0.282595
-0.280586
-0.277605
-0.27364
-0.268694
-0.262802
-0.256031
-0.248493
-0.240257
-0.231221
-0.223566
-0.205818
-0.282829
-0.284221
-0.283968
-0.282805
-0.280725
-0.277686
-0.273681
-0.268718
-0.262833
-0.256094
-0.248613
-0.240433
-0.23146
-0.22383
-0.205012
-0.283637
-0.284907
-0.284562
-0.283311
-0.281155
-0.278061
-0.274026
-0.269059
-0.263198
-0.256508
-0.249104
-0.240981
-0.232144
-0.22429
-0.204929
-0.284806
-0.285915
-0.285459
-0.284107
-0.281869
-0.278719
-0.274656
-0.269694
-0.263868
-0.25724
-0.249923
-0.241856
-0.23325
-0.224748
-0.205362
-0.286333
-0.28724
-0.286652
-0.285184
-0.282854
-0.279642
-0.275553
-0.270597
-0.26481
-0.258249
-0.251027
-0.243026
-0.234792
-0.225243
-0.206789
-0.288211
-0.288876
-0.288134
-0.286532
-0.284095
-0.280813
-0.276691
-0.27174
-0.26599
-0.259492
-0.252366
-0.244451
-0.236716
-0.226362
-0.212842
-0.290431
-0.290815
-0.289896
-0.288138
-0.285578
-0.282213
-0.278048
-0.273092
-0.26737
-0.260927
-0.253885
-0.246054
-0.238734
-0.22834
-0.227673
-0.29298
-0.293047
-0.291926
-0.289991
-0.287288
-0.283822
-0.279599
-0.274625
-0.268919
-0.262513
-0.255528
-0.247763
-0.240671
-0.230414
-0.231074
-0.295847
-0.295565
-0.294217
-0.292081
-0.289211
-0.285624
-0.281327
-0.276319
-0.27061
-0.264216
-0.257251
-0.249508
-0.242407
-0.232242
-0.231874
-0.29902
-0.298359
-0.296761
-0.294398
-0.291339
-0.287611
-0.283218
-0.278155
-0.27242
-0.266009
-0.259015
-0.251233
-0.243944
-0.233805
-0.231942
-0.302492
-0.301423
-0.299553
-0.296939
-0.293666
-0.289774
-0.285265
-0.280126
-0.274336
-0.26787
-0.26079
-0.252894
-0.245277
-0.235061
-0.231459
-0.306255
-0.304756
-0.30259
-0.299702
-0.296193
-0.292115
-0.287469
-0.282227
-0.276349
-0.269781
-0.262548
-0.254452
-0.246396
-0.235984
-0.230659
-0.310306
-0.308356
-0.305874
-0.30269
-0.298925
-0.29464
-0.289833
-0.28446
-0.278455
-0.271728
-0.264268
-0.255879
-0.247296
-0.236574
-0.229667
-0.314645
-0.312225
-0.309408
-0.30591
-0.301869
-0.297359
-0.292367
-0.28683
-0.280649
-0.273699
-0.265929
-0.257153
-0.247971
-0.236844
-0.228543
-0.319276
-0.316368
-0.313201
-0.309373
-0.30504
-0.300284
-0.295082
-0.289342
-0.282928
-0.275679
-0.267511
-0.258254
-0.248418
-0.236813
-0.227308
-0.324205
-0.32079
-0.317261
-0.313089
-0.30845
-0.303431
-0.297988
-0.291998
-0.285285
-0.277653
-0.268995
-0.25917
-0.248637
-0.236503
-0.225965
-0.329438
-0.3255
-0.321598
-0.317072
-0.312115
-0.306811
-0.301093
-0.294799
-0.28771
-0.279603
-0.270361
-0.259889
-0.248626
-0.235931
-0.224505
-0.334982
-0.330503
-0.32622
-0.321334
-0.316046
-0.310436
-0.304401
-0.297738
-0.290187
-0.281507
-0.27159
-0.260401
-0.248388
-0.235115
-0.222918
-0.340844
-0.335808
-0.331138
-0.325886
-0.320254
-0.314311
-0.30791
-0.300803
-0.292695
-0.283341
-0.272663
-0.2607
-0.247925
-0.234069
-0.221193
-0.347025
-0.341416
-0.336356
-0.330733
-0.324745
-0.318435
-0.31161
-0.303974
-0.295208
-0.28508
-0.273563
-0.260781
-0.24724
-0.232805
-0.219319
-0.353527
-0.34733
-0.341878
-0.335879
-0.329517
-0.322801
-0.315484
-0.307225
-0.297695
-0.286697
-0.274272
-0.260638
-0.246334
-0.231329
-0.217289
-0.360345
-0.353546
-0.347702
-0.341322
-0.334565
-0.327394
-0.319505
-0.310522
-0.30012
-0.288162
-0.274774
-0.260267
-0.245209
-0.229648
-0.215094
-0.367467
-0.360056
-0.353821
-0.347054
-0.339873
-0.33219
-0.323641
-0.313825
-0.302446
-0.289447
-0.275053
-0.259664
-0.243865
-0.227763
-0.212727
-0.374878
-0.366847
-0.360222
-0.353058
-0.345419
-0.337156
-0.32785
-0.31709
-0.304634
-0.290525
-0.275094
-0.258821
-0.242298
-0.225674
-0.210179
-0.382553
-0.3739
-0.366887
-0.359312
-0.351173
-0.342253
-0.332084
-0.320268
-0.306642
-0.291368
-0.274883
-0.257733
-0.240507
-0.223378
-0.207442
-0.390463
-0.381187
-0.373789
-0.365786
-0.357095
-0.347432
-0.336289
-0.323308
-0.30843
-0.291949
-0.274403
-0.256391
-0.238483
-0.220869
-0.204509
-0.39857
-0.388677
-0.380894
-0.372441
-0.363139
-0.352635
-0.340406
-0.326155
-0.309957
-0.292241
-0.273639
-0.254785
-0.23622
-0.21814
-0.201371
-0.406829
-0.396329
-0.388163
-0.379229
-0.369247
-0.357801
-0.34437
-0.328756
-0.311183
-0.29222
-0.272575
-0.252904
-0.233707
-0.215181
-0.198016
-0.415186
-0.404095
-0.395545
-0.386096
-0.375357
-0.362861
-0.348118
-0.331057
-0.31207
-0.291859
-0.271193
-0.250734
-0.230934
-0.211983
-0.194437
-0.423582
-0.411921
-0.402983
-0.392979
-0.381398
-0.36774
-0.351581
-0.333006
-0.312581
-0.291133
-0.269477
-0.248261
-0.227886
-0.208534
-0.190621
-0.43195
-0.419744
-0.410414
-0.399805
-0.387292
-0.372363
-0.354693
-0.334549
-0.312679
-0.290017
-0.267407
-0.24547
-0.224552
-0.20482
-0.186558
-0.440216
-0.427496
-0.417765
-0.406497
-0.392957
-0.37665
-0.357386
-0.335638
-0.31233
-0.288487
-0.264964
-0.242344
-0.220916
-0.20083
-0.182236
-0.448299
-0.435099
-0.424956
-0.412969
-0.398307
-0.380521
-0.359596
-0.336225
-0.3115
-0.286518
-0.262128
-0.238866
-0.216962
-0.196549
-0.177644
-0.456115
-0.442473
-0.431903
-0.419134
-0.403252
-0.383897
-0.361259
-0.336263
-0.310156
-0.284086
-0.25888
-0.235019
-0.212676
-0.191963
-0.172771
-0.463572
-0.449529
-0.438514
-0.424896
-0.407702
-0.3867
-0.362316
-0.335711
-0.308269
-0.281168
-0.255199
-0.230785
-0.208042
-0.18706
-0.167606
-0.470575
-0.456175
-0.444695
-0.430159
-0.411566
-0.388853
-0.36271
-0.334528
-0.305808
-0.277739
-0.251066
-0.226147
-0.203045
-0.181825
-0.162138
-0.477028
-0.462316
-0.450348
-0.434826
-0.414756
-0.390285
-0.362388
-0.332676
-0.302745
-0.273777
-0.246461
-0.221087
-0.19767
-0.176247
-0.156359
-0.48283
-0.467853
-0.455371
-0.438798
-0.417184
-0.390927
-0.361299
-0.330119
-0.299054
-0.269262
-0.241366
-0.215589
-0.191903
-0.170313
-0.150258
-0.487881
-0.472686
-0.459665
-0.441978
-0.418767
-0.390715
-0.359399
-0.326825
-0.29471
-0.264171
-0.235762
-0.209639
-0.18573
-0.164012
-0.143827
-0.492081
-0.476716
-0.463128
-0.444274
-0.419428
-0.389592
-0.356647
-0.322766
-0.289691
-0.258487
-0.229633
-0.20322
-0.17914
-0.157335
-0.137059
-0.49533
-0.479843
-0.465664
-0.445595
-0.419093
-0.387503
-0.353005
-0.317914
-0.283976
-0.252191
-0.222964
-0.196321
-0.172121
-0.150272
-0.129947
-0.497534
-0.481972
-0.467177
-0.445858
-0.417696
-0.384403
-0.348442
-0.312247
-0.277547
-0.245269
-0.215741
-0.18893
-0.164663
-0.142815
-0.122486
-0.4986
-0.483009
-0.467579
-0.444984
-0.415179
-0.38025
-0.34293
-0.305744
-0.270387
-0.237706
-0.207952
-0.181037
-0.156759
-0.134959
-0.114674
-0.498441
-0.482867
-0.466785
-0.442904
-0.411488
-0.375008
-0.336446
-0.298389
-0.262483
-0.22949
-0.199588
-0.172632
-0.148401
-0.126703
-0.106516
-0.496977
-0.481463
-0.464719
-0.439552
-0.406578
-0.368649
-0.32897
-0.290168
-0.253825
-0.220614
-0.19064
-0.163709
-0.139583
-0.118042
-0.0980063
-0.494134
-0.478723
-0.461311
-0.434877
-0.400414
-0.361152
-0.320491
-0.281074
-0.244406
-0.211071
-0.181103
-0.154264
-0.1303
-0.108964
-0.0890931
-0.489845
-0.474579
-0.456502
-0.428831
-0.392967
-0.352499
-0.310998
-0.271099
-0.23422
-0.200857
-0.170977
-0.144296
-0.120556
-0.0994532
-0.079679
-0.484054
-0.468973
-0.45024
-0.421379
-0.384215
-0.342682
-0.300489
-0.260242
-0.223268
-0.189972
-0.160259
-0.133809
-0.110357
-0.0895201
-0.0697753
-0.476712
-0.461855
-0.442485
-0.412494
-0.374145
-0.331696
-0.288963
-0.248506
-0.211552
-0.178419
-0.148954
-0.122803
-0.0997039
-0.0791911
-0.0597743
-0.467781
-0.453186
-0.433205
-0.402158
-0.362754
-0.319544
-0.276426
-0.235895
-0.199076
-0.166203
-0.137065
-0.111284
-0.0886113
-0.0684423
-0.0495001
-0.457232
-0.442936
-0.422379
-0.390364
-0.350044
-0.306236
-0.262889
-0.222421
-0.18585
-0.15333
-0.124603
-0.099276
-0.0770684
-0.0573151
-0.0388865
-0.445047
-0.431087
-0.409997
-0.377112
-0.336025
-0.291785
-0.248367
-0.208097
-0.171886
-0.139815
-0.111586
-0.0867737
-0.0650954
-0.045819
-0.0279305
-0.431218
-0.41763
-0.396058
-0.362414
-0.320715
-0.276212
-0.232879
-0.192938
-0.1572
-0.125678
-0.0980177
-0.0737924
-0.0527057
-0.0339612
-0.0166468
-0.415748
-0.402566
-0.380573
-0.346287
-0.304138
-0.259543
-0.216448
-0.176966
-0.141819
-0.110928
-0.0839182
-0.060348
-0.0399138
-0.021752
-0.00505244
-0.398651
-0.385909
-0.36356
-0.328759
-0.286326
-0.241809
-0.199104
-0.160214
-0.125753
-0.0955883
-0.0693066
-0.046459
-0.0267358
-0.00920542
0.00683473
-0.379949
-0.367681
-0.34505
-0.309866
-0.267319
-0.223048
-0.180879
-0.142705
-0.109036
-0.0796832
-0.0542049
-0.0321461
-0.0131905
0.00366153
0.0189959
-0.359676
-0.347914
-0.325078
-0.289651
-0.247166
-0.203295
-0.161809
-0.124472
-0.0916944
-0.0632395
-0.0386378
-0.0174323
0.000701385
0.0168291
0.0314104
-0.337875
-0.326649
-0.303692
-0.268171
-0.225916
-0.18259
-0.141935
-0.10555
-0.0737624
-0.0462867
-0.0226326
-0.00234283
0.0149166
0.0302751
0.0440555
-0.314595
-0.303939
-0.280955
-0.245502
-0.20357
-0.161002
-0.121304
-0.0859808
-0.0552748
-0.0288568
-0.00621878
0.0130947
0.0294301
0.0439754
0.0569056
-0.289892
-0.279846
-0.256941
-0.221707
-0.180196
-0.138568
-0.0999613
-0.0658062
-0.0362699
-0.0109845
0.0105718
0.0288507
0.0442146
0.0579029
0.069931
-0.263834
-0.254443
-0.231713
-0.196696
-0.155993
-0.115358
-0.0779602
-0.0450725
-0.0167885
0.00729354
0.0277056
0.0448941
0.0592413
0.0720273
0.0830929
-0.236492
-0.22781
-0.205309
-0.170701
-0.130922
-0.0914337
-0.0553556
-0.023828
0.0031262
0.0259386
0.0451474
0.0611921
0.0744803
0.0863149
0.0963416
-0.207944
-0.200034
-0.177762
-0.14384
-0.105065
-0.0668589
-0.0322054
-0.00212369
0.023429
0.0449104
0.0628604
0.0777107
0.0899011
0.100735
0.109632
-0.178255
-0.171199
-0.149267
-0.116139
-0.0785028
-0.0417008
-0.00856967
0.0199872
0.0440727
0.0641667
0.0808061
0.0944143
0.105477
0.115267
0.122935
-0.147518
-0.14143
-0.11993
-0.0876835
-0.0513154
-0.0160302
0.0154892
0.0424494
0.0650083
0.0836642
0.0989447
0.111269
0.12119
0.129895
0.136143
-0.116004
-0.110706
-0.089818
-0.0585653
-0.0235857
0.0100801
0.0399065
0.0652054
0.0861852
0.103358
0.117236
0.12825
0.137041
0.144542
0.148878
-0.0837264
-0.0791778
-0.0590222
-0.0288791
0.00460118
0.0365547
0.0646155
0.0881959
0.10755
0.1232
0.135644
0.145348
0.153032
0.159059
0.160698
-0.0507488
-0.0469933
-0.0276456
0.00127875
0.0331581
0.0633164
0.0895475
0.11136
0.129049
0.143141
0.154131
0.162543
0.1691
0.173315
0.172254
-0.0171912
-0.0142684
0.00420399
0.0318094
0.0619959
0.0902862
0.114633
0.134634
0.150624
0.163131
0.172655
0.179778
0.185086
0.187232
0.186451
0.0168253
0.0188854
0.036417
0.0626123
0.0910245
0.117384
0.139799
0.157955
0.172218
0.183119
0.191167
0.196967
0.200938
0.201617
0.20126
0.0511785
0.0523523
0.0688814
0.0935852
0.120152
0.144528
0.164974
0.181258
0.193771
0.203052
0.209614
0.214058
0.216682
0.216167
0.215597
0.0857458
0.0860149
0.101484
0.124625
0.149288
0.171638
0.190086
0.204476
0.215226
0.222875
0.227942
0.231012
0.232311
0.230722
0.229618
0.120404
0.119755
0.134113
0.15563
0.178339
0.19863
0.21506
0.227544
0.236522
0.242535
0.246101
0.247787
0.247782
0.245142
0.243312
0.155029
0.153452
0.166654
0.186496
0.207213
0.225423
0.239824
0.250396
0.257599
0.261977
0.264041
0.264341
0.263047
0.259352
0.256677
0.189498
0.186987
0.198994
0.217121
0.235819
0.251935
0.264303
0.272966
0.2784
0.281146
0.281713
0.280632
0.278059
0.273303
0.269709
0.223686
0.22024
0.231022
0.247402
0.264066
0.278086
0.288427
0.295189
0.298864
0.29999
0.29907
0.296616
0.292777
0.286957
0.282397
0.257473
0.253093
0.262627
0.277241
0.291865
0.303794
0.312123
0.317002
0.318935
0.318457
0.316064
0.312252
0.307161
0.300279
0.294727
0.290737
0.28543
0.293699
0.306537
0.319126
0.328982
0.33532
0.33834
0.338554
0.336495
0.33265
0.327498
0.321174
0.313241
0.30668
0.323359
0.317134
0.324131
0.335195
0.345763
0.353572
0.35795
0.359141
0.357667
0.354055
0.348783
0.342314
0.33478
0.325811
0.318238
0.355222
0.348094
0.353818
0.363118
0.371692
0.377489
0.379944
0.379345
0.376219
0.371087
0.36442
0.356663
0.347945
0.337962
0.32938
0.386214
0.378198
0.382658
0.390215
0.39683
0.400658
0.401237
0.398892
0.394156
0.387544
0.379517
0.370505
0.360637
0.349666
0.340084
0.416222
0.40734
0.410551
0.416396
0.421097
0.423007
0.421764
0.417725
0.411427
0.403379
0.394034
0.383805
0.372822
0.360893
0.350329
0.44514
0.435416
0.437402
0.441574
0.444415
0.444468
0.441463
0.435788
0.427981
0.418548
0.40793
0.396527
0.38447
0.371617
0.360093
0.472864
0.462327
0.463117
0.465666
0.46671
0.464975
0.460274
0.453026
0.443772
0.433007
0.421167
0.408636
0.395549
0.38181
0.369355
0.499295
0.487975
0.487608
0.488593
0.48791
0.484462
0.478141
0.46939
0.458751
0.446716
0.433708
0.4201
0.406031
0.391447
0.378091
0.524337
0.512271
0.510791
0.510277
0.507948
0.502869
0.495007
0.484829
0.472876
0.459633
0.445518
0.430887
0.415888
0.400501
0.386284
0.547902
0.535127
0.532586
0.530648
0.526758
0.520138
0.510822
0.499296
0.486103
0.471723
0.456562
0.440967
0.425092
0.40895
0.393912
0.569903
0.556461
0.552917
0.549636
0.544281
0.536215
0.525536
0.512748
0.498395
0.482949
0.466809
0.450312
0.433618
0.416769
0.400957
0.590262
0.576198
0.571713
0.567179
0.560458
0.551048
0.539103
0.525144
0.509712
0.493277
0.476229
0.458895
0.441441
0.423938
0.407402
0.608903
0.594264
0.588909
0.583216
0.575237
0.56459
0.55148
0.536444
0.520022
0.502677
0.484795
0.466691
0.448541
0.430435
0.41323
0.62576
0.610595
0.604444
0.597695
0.58857
0.576797
0.562629
0.546614
0.529291
0.51112
0.492479
0.473677
0.454895
0.436243
0.418425
0.640769
0.625131
0.618263
0.610564
0.60041
0.587629
0.572513
0.55562
0.537491
0.51858
0.49926
0.479832
0.460484
0.441343
0.422975
0.653875
0.637818
0.630316
0.621779
0.61072
0.59705
0.581099
0.563435
0.544596
0.525034
0.505116
0.485137
0.465292
0.44572
0.426867
0.665027
0.648608
0.640559
0.631301
0.619462
0.605029
0.588359
0.570031
0.550582
0.530459
0.510027
0.489575
0.469304
0.449362
0.430089
0.674183
0.65746
0.648955
0.639094
0.626606
0.611536
0.594268
0.575387
0.555429
0.534839
0.513979
0.493132
0.472505
0.452255
0.432633
0.681306
0.664338
0.65547
0.645131
0.632126
0.616549
0.598805
0.579483
0.559119
0.538158
0.516956
0.495795
0.474886
0.454389
0.434489
0.686365
0.669213
0.660078
0.649387
0.636
0.620049
0.601952
0.582304
0.561639
0.540402
0.518947
0.497554
0.476436
0.455757
0.435652
0.689338
0.672063
0.662758
0.651843
0.638212
0.622021
0.603696
0.583837
0.562978
0.541563
0.519945
0.498401
0.477148
0.456352
0.436117
0.690208
0.672873
0.663497
0.652486
0.63875
0.622453
0.604028
0.584075
0.563129
0.541633
0.519942
0.498332
0.477019
0.456169
0.435879
0.688966
0.671633
0.662285
0.65131
0.637608
0.621341
0.602942
0.583011
0.562086
0.540609
0.518935
0.497342
0.476044
0.455206
0.434937
0.685609
0.668341
0.65912
0.648311
0.634783
0.618682
0.600437
0.580646
0.559849
0.53849
0.516924
0.495431
0.474224
0.453463
0.433291
0.680143
0.663002
0.654007
0.643494
0.630278
0.614479
0.596515
0.576982
0.55642
0.535277
0.513909
0.492601
0.47156
0.450942
0.430941
0.672577
0.655625
0.646955
0.636866
0.624103
0.60874
0.591182
0.572023
0.551805
0.530976
0.509897
0.488855
0.468056
0.447644
0.427891
0.662931
0.646229
0.637981
0.628444
0.616269
0.601477
0.58445
0.565781
0.546011
0.525594
0.504893
0.484201
0.463717
0.443576
0.424144
0.65123
0.634838
0.627106
0.618246
0.606794
0.592704
0.576333
0.558267
0.539052
0.519142
0.498907
0.478646
0.458552
0.438746
0.419706
0.637505
0.621482
0.614358
0.606298
0.595702
0.582443
0.56685
0.549499
0.530941
0.511633
0.491953
0.472202
0.45257
0.433162
0.414584
0.621796
0.606198
0.599772
0.592631
0.583019
0.570719
0.556021
0.539497
0.521697
0.503085
0.484043
0.464883
0.445784
0.426835
0.408788
0.604146
0.589029
0.583386
0.577279
0.568778
0.55756
0.543875
0.528285
0.511342
0.493516
0.475196
0.456703
0.438208
0.419778
0.402326
0.584608
0.570026
0.565248
0.560285
0.553015
0.542999
0.53044
0.515888
0.499898
0.482948
0.465431
0.44768
0.429857
0.412005
0.395212
0.56324
0.549243
0.545407
0.541694
0.535771
0.527073
0.515749
0.502337
0.487395
0.471405
0.454771
0.437835
0.42075
0.403534
0.387458
0.540105
0.526741
0.52392
0.521556
0.517093
0.509823
0.49984
0.487666
0.473861
0.458914
0.443239
0.427188
0.410907
0.394381
0.379077
0.515274
0.502589
0.500849
0.499927
0.497029
0.491294
0.482752
0.47191
0.459329
0.445505
0.430861
0.415763
0.400348
0.384567
0.370087
0.488821
0.476857
0.47626
0.476868
0.475634
0.471534
0.46453
0.455109
0.443834
0.43121
0.417667
0.403586
0.389097
0.374112
0.360503
0.460828
0.449626
0.450227
0.452443
0.452965
0.450595
0.44522
0.437305
0.427415
0.416062
0.403687
0.390685
0.377179
0.363037
0.350343
0.431381
0.420976
0.422824
0.426721
0.429084
0.428533
0.424872
0.418542
0.410111
0.400097
0.388953
0.377087
0.364619
0.351367
0.339627
0.400571
0.390998
0.394133
0.399775
0.404057
0.405406
0.403538
0.398869
0.391966
0.383355
0.373499
0.362824
0.351444
0.339127
0.328374
0.368495
0.359781
0.36424
0.371682
0.377953
0.381275
0.381274
0.378334
0.373023
0.365874
0.357361
0.347928
0.337683
0.32634
0.316604
0.335253
0.327425
0.333234
0.342522
0.350842
0.356205
0.358137
0.35699
0.353329
0.347697
0.340578
0.332431
0.323366
0.313034
0.304338
0.300949
0.294029
0.301207
0.312379
0.322801
0.330264
0.334188
0.334891
0.332934
0.328868
0.323186
0.316368
0.308523
0.299234
0.291597
0.265692
0.259698
0.268258
0.281341
0.293907
0.303521
0.30949
0.312093
0.311888
0.309431
0.305228
0.299775
0.293185
0.284969
0.278402
0.229593
0.224539
0.234486
0.249497
0.26424
0.276047
0.284107
0.288654
0.290243
0.289434
0.286745
0.28269
0.277386
0.270266
0.264772
0.192767
0.188664
0.199993
0.21694
0.233885
0.247918
0.258105
0.264635
0.268052
0.268925
0.26778
0.26515
0.261158
0.255152
0.250727
0.155331
0.152187
0.164886
0.183767
0.202925
0.219209
0.231553
0.240095
0.245371
0.247953
0.248377
0.247195
0.244538
0.239657
0.236285
0.117405
0.115222
0.129271
0.150073
0.171448
0.189998
0.204521
0.215099
0.222256
0.226569
0.228582
0.228865
0.227561
0.22381
0.221459
0.0791113
0.0778874
0.09326
0.115958
0.139543
0.160364
0.177079
0.189709
0.198764
0.204825
0.208441
0.210204
0.210268
0.207645
0.206263
0.0405716
0.0403025
0.0569628
0.0815238
0.107298
0.130388
0.1493
0.163991
0.174955
0.182775
0.188002
0.191253
0.192704
0.191202
0.190706
0.00191006
0.00258694
0.0204922
0.0468712
0.0748066
0.10015
0.121256
0.13801
0.150888
0.160471
0.167314
0.172057
0.174915
0.174536
0.174792
-0.0367488
-0.0351392
-0.0160384
0.0121032
0.042159
0.0697324
0.09302
0.111832
0.126621
0.137969
0.146427
0.152655
0.156952
0.15773
0.158523
-0.0752805
-0.0727558
-0.0525155
-0.0226768
0.00944783
0.0392178
0.0646664
0.0855234
0.102216
0.115325
0.125394
0.133091
0.138859
0.140943
0.141909
-0.113561
-0.110144
-0.0888254
-0.0573657
-0.0232347
0.00868789
0.0362683
0.0591502
0.077731
0.0925927
0.104269
0.113402
0.120637
0.124365
0.124766
-0.151465
-0.147185
-0.124854
-0.09186
-0.0557966
-0.0217753
0.00789902
0.0327782
0.0532265
0.0698261
0.0831068
0.0936409
0.102241
0.108311
0.10824
-0.188873
-0.183764
-0.160491
-0.126058
-0.0881464
-0.0520906
-0.0203691
0.00647275
0.0287612
0.0470773
0.061959
0.0739047
0.0837264
0.0918379
0.0948865
-0.22566
-0.219768
-0.195622
-0.159857
-0.120194
-0.0821777
-0.0484646
-0.0197021
0.00439331
0.024398
0.0408679
0.0542577
0.0652891
0.0750474
0.0812162
-0.261705
-0.255077
-0.230141
-0.19316
-0.15185
-0.111958
-0.0763175
-0.0456839
-0.0198208
0.00183885
0.0198702
0.0347169
0.0469991
0.0580997
0.0664398
-0.296951
-0.289537
-0.263942
-0.225869
-0.183027
-0.141354
-0.103859
-0.0714117
-0.0438269
-0.0205517
-0.000996407
0.0152885
0.028846
0.0411656
0.0511026
-0.331386
-0.322999
-0.296936
-0.257889
-0.21364
-0.17029
-0.131023
-0.0968266
-0.0675728
-0.0427272
-0.0216918
-0.00400616
0.0108213
0.0243192
0.0356485
-0.364731
-0.355489
-0.329056
-0.289126
-0.243607
-0.198693
-0.157744
-0.121871
-0.0910082
-0.0646429
-0.042175
-0.0231328
-0.0070609
0.00757478
0.0201891
-0.396884
-0.386855
-0.36022
-0.319493
-0.272848
-0.226493
-0.18396
-0.14649
-0.114084
-0.0862554
-0.0624062
-0.0420548
-0.0247734
-0.00905012
0.00475039
-0.42778
-0.417042
-0.39021
-0.348941
-0.301287
-0.25362
-0.209611
-0.170631
-0.136753
-0.107523
-0.0823473
-0.0607366
-0.0422852
-0.025523
-0.010617
-0.457341
-0.445952
-0.418934
-0.377404
-0.328846
-0.280007
-0.234638
-0.194241
-0.158969
-0.128404
-0.101962
-0.0791446
-0.0595651
-0.0418079
-0.0258576
-0.485489
-0.473505
-0.44641
-0.404671
-0.355494
-0.305589
-0.258988
-0.217273
-0.18069
-0.148861
-0.121214
-0.0972459
-0.0765827
-0.0578727
-0.0409294
-0.512157
-0.499624
-0.472565
-0.430721
-0.381135
-0.3303
-0.282609
-0.239681
-0.201875
-0.168857
-0.14007
-0.115009
-0.0933095
-0.0736888
-0.0558007
-0.537284
-0.524239
-0.497321
-0.45553
-0.405615
-0.354148
-0.305454
-0.261421
-0.222486
-0.188356
-0.158499
-0.132405
-0.109719
-0.0892301
-0.0704441
-0.560815
-0.547295
-0.520611
-0.479043
-0.428977
-0.377004
-0.327468
-0.282454
-0.242486
-0.207328
-0.176472
-0.149407
-0.125786
-0.104473
-0.0848353
-0.582706
-0.568744
-0.542384
-0.501196
-0.451169
-0.398828
-0.348614
-0.302741
-0.261842
-0.225742
-0.19396
-0.165989
-0.141487
-0.119396
-0.0989528
-0.60292
-0.58855
-0.562597
-0.521935
-0.472132
-0.419595
-0.368855
-0.322251
-0.280527
-0.243572
-0.210939
-0.182129
-0.156804
-0.13398
-0.112777
-0.621428
-0.606684
-0.581216
-0.54122
-0.49182
-0.439271
-0.388159
-0.340955
-0.298511
-0.260794
-0.227388
-0.197807
-0.171717
-0.148209
-0.12629
-0.638212
-0.623128
-0.598215
-0.55902
-0.510199
-0.457819
-0.406497
-0.358826
-0.315775
-0.277386
-0.243288
-0.213005
-0.186211
-0.162071
-0.139474
-0.653262
-0.637875
-0.613578
-0.575311
-0.527241
-0.475212
-0.423842
-0.375842
-0.332299
-0.293332
-0.258622
-0.227706
-0.200272
-0.175558
-0.152311
-0.666582
-0.650926
-0.627301
-0.590077
-0.542925
-0.491425
-0.440173
-0.391984
-0.348064
-0.308619
-0.273376
-0.241899
-0.213886
-0.188673
-0.164784
-0.678183
-0.662294
-0.639385
-0.603311
-0.557235
-0.506443
-0.455474
-0.407238
-0.363058
-0.323232
-0.287543
-0.255574
-0.227036
-0.201416
-0.176884
-0.688087
-0.672002
-0.649845
-0.615013
-0.570164
-0.520252
-0.469733
-0.421593
-0.377272
-0.337164
-0.301112
-0.268727
-0.239716
-0.213758
-0.188649
-0.696326
-0.680081
-0.658704
-0.625194
-0.58171
-0.532846
-0.482942
-0.435042
-0.390701
-0.350409
-0.314077
-0.281351
-0.251912
-0.225461
-0.200374
-0.702942
-0.686576
-0.665997
-0.633874
-0.59188
-0.544224
-0.495098
-0.447582
-0.403341
-0.362965
-0.326436
-0.293443
-0.263664
-0.236843
-0.211734
-0.707987
-0.691537
-0.671766
-0.64108
-0.600688
-0.554392
-0.506201
-0.459213
-0.415194
-0.374834
-0.338191
-0.305005
-0.274969
-0.247849
-0.222507
-0.71152
-0.695026
-0.676064
-0.646851
-0.608157
-0.56336
-0.516258
-0.469941
-0.426263
-0.38602
-0.349346
-0.316035
-0.285803
-0.258424
-0.232801
-0.71361
-0.697113
-0.678953
-0.651233
-0.614314
-0.571145
-0.52528
-0.479772
-0.436556
-0.396528
-0.359906
-0.326537
-0.296161
-0.268575
-0.242728
-0.714334
-0.697873
-0.680503
-0.65428
-0.619198
-0.57777
-0.53328
-0.488717
-0.446082
-0.406369
-0.369879
-0.336519
-0.306056
-0.278317
-0.252319
-0.713773
-0.697391
-0.680792
-0.656056
-0.622852
-0.583264
-0.540277
-0.496793
-0.454855
-0.415555
-0.379277