/*--------------------------------*- C++ -*----------------------------------*\
  =========                 |
  \\      /  F ield         | OpenFOAM: The Open Source CFD Toolbox
   \\    /   O peration     | Website:  https://openfoam.org
    \\  /    A nd           | Version:  7
     \\/     M anipulation  |
\*---------------------------------------------------------------------------*/
FoamFile
{
    version     2.0;
    format      ascii;
    class       surfaceScalarField;
    location    "220";
    object      phi;
}
// * * * * * * * * * * * * * * * * * * * * * * * * * * * * * * * * * * * * * //

dimensions      [0 3 -1 0 0 0 0];

internalField   nonuniform List<scalar> 
39691
(
-4.22716e-06
-6.3403e-05
6.76302e-05
-1.51763e-05
-0.000141287
0.000152236
-3.18665e-05
-0.000181797
0.000198487
-5.35063e-05
-0.000190979
0.000212619
-7.95047e-05
-0.000175474
0.000201472
-0.000109453
-0.000141608
0.000171556
-0.000143077
-9.45136e-05
0.000128138
-0.00018019
-3.74674e-05
7.45804e-05
-0.000220656
2.83925e-05
1.2074e-05
-0.000264396
0.000103915
-6.01751e-05
-0.000311387
0.000191506
-0.000144515
-0.000361702
0.000294622
-0.000244307
-0.00041551
0.00041739
-0.000363582
-0.000472991
0.000564377
-0.000506896
0.000741464
-0.000680127
-0.000534328
-4.25018e-06
-5.91528e-05
-1.51623e-05
-0.000130375
-3.16749e-05
-0.000165285
-5.29507e-05
-0.000169704
-7.8381e-05
-0.000150043
-0.000107557
-0.000112431
-0.000140212
-6.18587e-05
-0.000176157
-1.52215e-06
-0.000215238
6.74727e-05
-0.000257319
0.000145996
-0.000302297
0.000236483
-0.000350115
0.00034244
-0.000400776
0.000468051
-0.000454248
0.00061785
0.000797594
-0.000510378
-4.21891e-06
-5.49339e-05
-1.49683e-05
-0.000119625
-3.11228e-05
-0.00014913
-5.18056e-05
-0.000149021
-7.63883e-05
-0.00012546
-0.000104455
-8.43644e-05
-0.000135734
-3.05804e-05
-0.000170019
3.27632e-05
-0.000207117
0.000104571
-0.000246821
0.000185699
-0.00028891
0.000278573
-0.000333171
0.000386702
-0.000379403
0.000514282
-0.000427333
0.00066578
0.000846707
-0.000476446
-4.13975e-06
-5.07942e-05
-1.46164e-05
-0.000109149
-3.0255e-05
-0.000133492
-5.01436e-05
-0.000129132
-7.36316e-05
-0.000101973
-0.000100287
-5.77091e-05
-0.00012982
-1.04753e-06
-0.000161996
6.49393e-05
-0.000196566
0.000139142
-0.000233231
0.000222364
-0.000271635
0.000316977
-0.000311379
0.000426445
-0.00035203
0.000554933
-0.00039306
0.00070681
0.000887232
-0.000433585
-4.0204e-06
-4.67738e-05
-1.41324e-05
-9.90367e-05
-2.91235e-05
-0.0001185
-4.80496e-05
-0.000110206
-7.02328e-05
-7.97894e-05
-9.52161e-05
-3.27258e-05
-0.000122681
2.64172e-05
-0.000152351
9.4609e-05
-0.000183908
0.000170699
-0.000216949
0.000255405
-0.000250964
0.000350992
-0.00028535
0.000460831
-0.000319428
0.000589011
-0.000352405
0.000739787
0.000917864
-0.000383037
-3.86946e-06
-4.29043e-05
-1.35453e-05
-8.93609e-05
-2.77866e-05
-0.000104259
-4.56177e-05
-9.23748e-05
-6.63283e-05
-5.90789e-05
-8.94268e-05
-9.62723e-06
-0.000114555
5.1545e-05
-0.000141382
0.000121436
-0.000169514
0.000198832
-0.00019843
0.00028432
-0.000227459
0.000380021
-0.000255786
0.000489157
-0.000282473
0.000615699
-0.000306471
0.000763785
0.000937585
-0.000326191
-3.69623e-06
-3.92081e-05
-1.28861e-05
-8.01711e-05
-2.63063e-05
-9.0839e-05
-4.29489e-05
-7.57322e-05
-6.20647e-05
-3.99631e-05
-8.31182e-05
1.14263e-05
-0.0001057
7.4127e-05
-0.000129418
0.000145154
-0.000153791
0.000223205
-0.000178179
0.000308708
-0.000201745
0.000403587
-0.000223457
0.00051087
-0.000242124
0.000634365
-0.000256451
0.000778112
0.000945673
-0.000264538
-3.51031e-06
-3.56978e-05
-1.21868e-05
-7.14946e-05
-2.47469e-05
-7.82788e-05
-4.0148e-05
-6.03312e-05
-5.7595e-05
-2.2516e-05
-7.64994e-05
3.03306e-05
-9.63915e-05
9.40192e-05
-0.000116808
0.00016557
-0.000137177
0.000243574
-0.000156736
0.000328267
-0.000174486
0.000421337
-0.000189186
0.00052557
-0.000199396
0.000644575
-0.000203602
0.000782318
0.000941701
-0.00019963
-3.32136e-06
-3.23764e-05
-1.14795e-05
-6.33364e-05
-2.31729e-05
-6.65854e-05
-3.73202e-05
-4.61839e-05
-5.3074e-05
-6.76224e-06
-6.97835e-05
4.70401e-05
-8.69101e-05
0.000111146
-0.000103912
0.000182572
-0.000120125
0.000259787
-0.000134665
0.000342807
-0.000146377
0.000433048
-0.000153823
0.000533015
-0.000155332
0.000646085
-0.00014921
0.000776196
0.000925549
-0.000133058
-3.13868e-06
-2.92377e-05
-1.07952e-05
-5.568e-05
-2.16466e-05
-5.5734e-05
-3.45681e-05
-3.32624e-05
-4.8653e-05
7.32271e-06
-6.31805e-05
6.15676e-05
-7.75354e-05
0.000125501
-9.10926e-05
0.00019613
-0.000103093
0.000271788
-0.000112536
0.000352251
-0.000118119
0.000438631
-0.000118223
0.000533119
-0.000110967
0.000638828
-9.45437e-05
0.000759773
0.000897538
-6.65327e-05
-2.97095e-06
-2.62668e-05
-1.01625e-05
-4.84884e-05
-2.02259e-05
-4.56707e-05
-3.19873e-05
-2.15009e-05
-4.44746e-05
1.981e-05
-5.68901e-05
7.39831e-05
-6.85358e-05
0.000137146
-7.86996e-05
0.000206293
-8.65273e-05
0.000279615
-9.09089e-05
0.000356632
-9.04036e-05
0.000438126
-8.32272e-05
0.000525943
-6.7284e-05
0.000622885
-4.05804e-05
0.000733069
0.000861015
-4.05733e-06
-2.82588e-06
-2.34409e-05
-9.60709e-06
-4.17072e-05
-1.89623e-05
-3.63155e-05
-2.96633e-05
-1.07999e-05
-4.06669e-05
3.08136e-05
-5.10935e-05
8.44097e-05
-6.01577e-05
0.000146211
-6.70581e-05
0.000213194
-7.08477e-05
0.000283405
-7.03126e-05
0.000356097
-6.3887e-05
0.0004317
-4.96311e-05
0.000511687
-2.52845e-05
0.000598538
1.17333e-05
0.000696052
0.000810374
6.23746e-05
-2.70993e-06
-2.0731e-05
-9.15001e-06
-3.52671e-05
-1.78986e-05
-2.75669e-05
-2.76675e-05
-1.03098e-06
-3.7338e-05
4.04841e-05
-4.59453e-05
9.30169e-05
-5.26142e-05
0.000152879
-5.64533e-05
0.000217033
-5.64255e-05
0.000283377
-5.1222e-05
0.000350894
-3.91657e-05
0.000419644
-1.81702e-05
0.000490692
1.41712e-05
0.000566197
6.02426e-05
0.00064998
0.000748699
0.000121917
-2.628e-06
-1.8103e-05
-8.80714e-06
-2.90879e-05
-1.70668e-05
-1.93072e-05
-2.60535e-05
7.95573e-06
-3.45703e-05
4.90009e-05
-4.15652e-05
0.000100012
-4.60728e-05
0.000157387
-4.71131e-05
0.000218073
-4.35632e-05
0.000279827
-3.40277e-05
0.000341358
-1.67313e-05
0.000402347
1.05303e-05
0.00046343
5.03338e-05
0.000526393
0.000105184
0.000595129
0.000677017
0.000176867
-2.58315e-06
-1.55198e-05
-8.58812e-06
-2.3083e-05
-1.64862e-05
-1.14092e-05
-2.4854e-05
1.63236e-05
-3.24147e-05
5.65616e-05
-3.80294e-05
0.000105627
-4.06438e-05
0.000160001
-3.91916e-05
0.000216621
-3.24696e-05
0.000273105
-1.90047e-05
0.000327893
3.06223e-06
0.00038028
3.60497e-05
0.000430443
8.26908e-05
0.000479752
0.000145663
0.000532157
0.000595954
0.000226726
-2.57639e-06
-1.29434e-05
-8.49557e-06
-1.71638e-05
-1.61616e-05
-3.74313e-06
-2.40776e-05
2.42396e-05
-3.08864e-05
6.33703e-05
-3.53635e-05
0.000110104
-3.63683e-05
0.000161006
-3.27518e-05
0.000213004
-2.32359e-05
0.000263589
-6.27656e-06
0.000310934
2.00564e-05
0.000353948
5.8189e-05
0.00039231
0.000111019
0.000426922
0.000181449
0.000461727
0.000505998
0.000271404
-2.60649e-06
-1.03369e-05
-8.52453e-06
-1.12457e-05
-1.60824e-05
3.81472e-06
-2.37067e-05
3.18639e-05
-2.99602e-05
6.96239e-05
-3.35355e-05
0.000113679
-3.3208e-05
0.000160679
-2.77494e-05
0.000207546
-1.58108e-05
0.000251651
4.21642e-06
0.000290907
3.43315e-05
0.000323832
7.70589e-05
0.000349582
0.000135481
0.0003685
0.000212795
0.000384414
0.000407401
0.000311392
-2.66988e-06
-7.66705e-06
-8.66213e-06
-5.25349e-06
-1.62216e-05
1.13742e-05
-2.3696e-05
3.93383e-05
-2.9569e-05
7.54968e-05
-3.24517e-05
0.000116562
-3.10379e-05
0.000159265
-2.40208e-05
0.000200529
-9.98075e-06
0.000237611
1.27559e-05
0.00026817
4.62547e-05
0.000290334
9.31446e-05
0.000302693
0.000156719
0.000304925
0.00024055
0.000300583
0.000300084
0.000347867
-2.76062e-06
-4.90643e-06
-8.88765e-06
8.73541e-07
-1.6536e-05
1.90225e-05
-2.39727e-05
4.67749e-05
-2.96021e-05
8.11263e-05
-3.1955e-05
0.000118915
-2.96422e-05
0.000156952
-2.12753e-05
0.000192162
-5.35946e-06
0.000221695
1.98578e-05
0.000242953
5.65131e-05
0.000253678
0.000107355
0.000251851
0.000175918
0.000236362
0.000266237
0.000210264
0.000183554
0.000382767
-2.87052e-06
-2.03591e-06
-9.17293e-06
7.17595e-06
-1.69672e-05
2.68168e-05
-2.44373e-05
5.42451e-05
-2.99078e-05
8.65968e-05
-3.18265e-05
0.000120833
-2.87165e-05
0.000153842
-1.90961e-05
0.000182542
-1.36263e-06
0.000203961
2.62798e-05
0.000215311
6.61203e-05
0.000213838
0.000121032
0.000196939
0.000194823
0.000162571
0.000292066
0.000113021
5.6866e-05
0.000418754
-2.98942e-06
9.53512e-07
-9.48331e-06
1.36698e-05
-1.74431e-05
3.47765e-05
-2.49675e-05
6.17696e-05
-3.02977e-05
9.19269e-05
-3.17924e-05
0.000122328
-2.78758e-05
0.000149926
-1.69572e-05
0.000171623
2.67216e-06
0.000184332
3.2993e-05
0.00018499
7.63844e-05
0.000170446
0.00013591
0.000137414
0.000215667
8.28139e-05
0.000320835
7.85306e-06
-8.13352e-05
0.000459036
-3.10564e-06
4.05915e-06
-9.77914e-06
2.03433e-05
-1.78813e-05
4.28787e-05
-2.54224e-05
6.93107e-05
-3.05537e-05
9.70582e-05
-3.1534e-05
0.000123308
-2.66698e-05
0.000145061
-1.42314e-05
0.000159185
7.65493e-06
0.000162446
4.11464e-05
0.000151498
8.88319e-05
0.000122761
0.000153992
7.22533e-05
0.000241008
-4.20227e-06
0.000355697
-0.000106836
-0.000232672
0.000507033
-3.20654e-06
7.26569e-06
-1.00177e-05
2.71545e-05
-1.8193e-05
5.10541e-05
-2.56497e-05
7.67673e-05
-3.04393e-05
0.000101848
-3.07041e-05
0.000123573
-2.46067e-05
0.000138964
-1.024e-05
0.000144818
1.44848e-05
0.000137721
5.19716e-05
0.000114011
0.000105085
6.96479e-05
0.000177372
-3.42001e-08
0.00027345
-0.00010028
0.000399786
-0.000233172
-0.000398774
0.000565888
-3.27929e-06
1.0545e-05
-1.01555e-05
3.40307e-05
-1.82877e-05
5.91862e-05
-2.54935e-05
8.39731e-05
-2.9712e-05
0.000106066
-2.89463e-05
0.000122807
-2.11827e-05
0.0001312
-4.29014e-06
0.000127925
2.40912e-05
0.000109339
6.66872e-05
7.14155e-05
0.000126705
9.62974e-06
0.000208001
-8.133e-05
0.000315314
-0.000207593
0.000455767
-0.000373624
-0.000580912
0.000637905
-3.31167e-06
1.38567e-05
-1.01512e-05
4.08702e-05
-1.80783e-05
6.71134e-05
-2.48039e-05
9.06987e-05
-2.81376e-05
0.0001094
-2.59174e-05
0.000120587
-1.59156e-05
0.000121199
4.2697e-06
0.00010774
3.73356e-05
7.62736e-05
8.63883e-05
2.23628e-05
0.000155035
-5.90167e-05
0.000247452
-0.000173747
0.000368325
-0.000328466
0.000525396
-0.000530695
-0.00077957
0.000724054
-3.29297e-06
1.71496e-05
-9.96775e-06
4.7545e-05
-1.7487e-05
7.46327e-05
-2.34458e-05
9.66575e-05
-2.55052e-05
0.00011146
-2.13091e-05
0.000116391
-8.37707e-06
0.000108267
1.60121e-05
8.33509e-05
5.49404e-05
3.73453e-05
0.000111944
-3.46411e-05
0.00019105
-0.000138122
0.000296725
-0.000279422
0.000433367
-0.000465109
0.000609204
-0.000706531
-0.000994014
0.000823647
-3.21468e-06
2.03643e-05
-9.57552e-06
5.39058e-05
-1.64501e-05
8.15072e-05
-2.13075e-05
0.000101515
-2.16404e-05
0.000111792
-1.4869e-05
0.000109619
1.77627e-06
9.16213e-05
3.13752e-05
5.3752e-05
7.74293e-05
-8.70892e-06
0.000143921
-0.000101132
0.000235267
-0.000229468
0.000356132
-0.000400287
0.000510389
-0.000619366
0.000706364
-0.000902506
-0.001222
0.000934352
-3.07123e-06
2.34355e-05
-8.95366e-06
5.97882e-05
-1.49215e-05
8.7475e-05
-1.83076e-05
0.000104901
-1.6416e-05
0.000109901
-6.41625e-06
9.96196e-05
1.47801e-05
7.0425e-05
5.06387e-05
1.78934e-05
0.00010509
-6.31599e-05
0.000182538
-0.00017858
0.000287709
-0.000334639
0.000425289
-0.000537868
0.000598451
-0.000792528
0.000814724
-0.00111878
-0.00145993
0.00105265
-2.86025e-06
2.62958e-05
-8.09165e-06
6.50196e-05
-1.28758e-05
9.22592e-05
-1.43991e-05
0.000106424
-9.75872e-06
0.00010526
4.14894e-06
8.5712e-05
3.07518e-05
4.38221e-05
7.39084e-05
-2.52632e-05
0.000137959
-0.000127211
0.000227664
-0.000268285
0.000347925
-0.0004549
0.000503215
-0.000693158
0.000695964
-0.000985278
0.000931005
-0.00135382
-0.00170366
0.00117474
-2.58274e-06
2.88785e-05
-6.98942e-06
6.94263e-05
-1.03087e-05
9.55785e-05
-9.57063e-06
0.000105686
-1.65027e-06
9.73401e-05
1.68439e-05
6.72178e-05
4.96876e-05
1.09784e-05
0.000101119
-7.66943e-05
0.000175835
-0.000201927
0.00027884
-0.000371291
0.000415034
-0.000591094
0.000588444
-0.000866568
0.000800998
-0.00119783
0.0010517
-0.00160452
-0.00195025
0.00129829
-2.24273e-06
3.11213e-05
-5.65672e-06
7.28403e-05
-7.23553e-06
9.71573e-05
-3.84427e-06
0.000102295
7.87479e-06
8.56211e-05
3.16096e-05
4.3483e-05
7.14749e-05
-2.88869e-05
0.000132051
-0.000137271
0.000218306
-0.000288181
0.000335324
-0.000488309
0.000487761
-0.000743532
0.00067893
-0.00105774
0.000910702
-0.0014296
0.00117585
-0.00186967
-0.00219937
0.00142497
-1.84697e-06
3.29682e-05
-4.11171e-06
7.5105e-05
-3.68866e-06
9.67343e-05
2.72948e-06
9.58768e-05
1.87397e-05
6.96109e-05
4.83234e-05
1.38993e-05
9.59125e-05
-7.64761e-05
0.000166368
-0.000207726
0.000264803
-0.000386615
0.000396167
-0.000619673
0.000564557
-0.000911921
0.000772094
-0.00126527
0.00101949
-0.001677
0.00129757
-0.00214775
-0.0025644
0.00166261
-1.40337e-06
3.43716e-05
-2.37748e-06
7.60791e-05
2.89189e-07
9.40676e-05
1.00803e-05
8.60857e-05
3.08353e-05
4.88558e-05
6.6817e-05
-2.20823e-05
0.000122735
-0.000132394
0.000203646
-0.000288638
0.000314649
-0.000497618
0.000460301
-0.000765326
0.000643762
-0.00109538
0.000865513
-0.00148703
0.00112408
-0.00193557
0.00140797
-0.00243164
-0.00289842
0.00174199
-9.21101e-07
3.52927e-05
-4.78797e-07
7.56368e-05
4.64513e-06
8.89437e-05
1.81251e-05
7.26058e-05
4.40341e-05
2.29468e-05
8.68951e-05
-6.49433e-05
0.000151642
-0.000197141
0.000243415
-0.000380411
0.000367112
-0.000621314
0.000526609
-0.000924823
0.000723741
-0.00129251
0.00095698
-0.00172026
0.00122173
-0.00220032
0.00150538
-0.00271529
-0.00320955
0.00181651
-4.096e-07
3.57023e-05
1.55067e-06
7.36765e-05
9.32917e-06
8.11652e-05
2.67791e-05
5.51558e-05
5.82034e-05
-8.47749e-06
0.000108354
-0.000115094
0.000182316
-0.000271103
0.000285183
-0.000483279
0.000421431
-0.000757562
0.00059395
-0.00109734
0.000802896
-0.00150146
0.0010445
-0.00196186
0.00131112
-0.00246694
0.00158951
-0.00299368
-0.00349959
0.00187955
1.26325e-07
3.5576e-05
3.6952e-06
7.01077e-05
1.42942e-05
7.05661e-05
3.59627e-05
3.34874e-05
7.32167e-05
-4.57315e-05
0.000130994
-0.000172871
0.000214444
-0.000354552
0.000328452
-0.000597287
0.000476832
-0.000905941
0.000661179
-0.00128169
0.000879677
-0.00171996
0.00112623
-0.00220842
0.00139068
-0.00273139
0.00165937
-0.00326237
-0.00376832
0.00192811
6.767e-07
3.48993e-05
5.93333e-06
6.4851e-05
1.95015e-05
5.6998e-05
4.56077e-05
7.38118e-06
8.8961e-05
-8.90848e-05
0.000154631
-0.000238541
0.00024772
-0.000447641
0.000372723
-0.000722291
0.000532528
-0.00106575
0.000727145
-0.00147631
0.000952596
-0.00194541
0.00120056
-0.00245638
0.00145903
-0.00298985
0.00171453
-0.00351787
-0.00401526
0.00196146
1.24149e-06
3.36578e-05
8.25266e-06
5.78399e-05
2.49229e-05
4.03278e-05
5.56607e-05
-2.33567e-05
0.00010534
-0.000138764
0.000179092
-0.000312293
0.000281843
-0.000550392
0.000417489
-0.000857937
0.000587718
-0.00123598
0.000790708
-0.0016793
0.00102026
-0.00217496
0.00126612
-0.00270224
0.00151524
-0.00323897
0.00175497
-0.00375761
-0.00424018
0.0019799
1.81894e-06
3.18389e-05
1.06474e-05
4.90114e-05
3.05414e-05
2.04338e-05
6.60827e-05
-5.88979e-05
0.000122271
-0.000194952
0.000204216
-0.000394238
0.000316511
-0.000662687
0.000462224
-0.00100365
0.000641582
-0.00141533
0.000850756
-0.00188847
0.00108143
-0.00240564
0.00132187
-0.00294268
0.00155883
-0.00347593
0.00178111
-0.00397989
-0.00444342
0.00198435
2.41044e-06
2.94284e-05
1.3118e-05
3.83038e-05
3.63501e-05
-2.79834e-06
7.68462e-05
-9.9394e-05
0.000139683
-0.000257789
0.000229841
-0.000484396
0.000351407
-0.000784253
0.000506377
-0.00115862
0.000693289
-0.00160225
0.000906237
-0.00210142
0.00113506
-0.00263446
0.00136713
-0.00317476
0.00158979
-0.00369859
0.00179375
-0.00418385
-0.0046258
0.00197614
3.0192e-06
2.64092e-05
1.56695e-05
2.56535e-05
4.23488e-05
-2.94777e-05
8.79305e-05
-0.000144976
0.000157504
-0.000327362
0.000255796
-0.000582688
0.000386187
-0.000914645
0.000549368
-0.0013218
0.000742011
-0.00179489
0.000956201
-0.00231561
0.00118033
-0.00285859
0.00140157
-0.00339599
0.00160847
-0.00390549
0.00179395
-0.00436933
-0.00478861
0.00195676
3.64959e-06
2.27596e-05
1.83096e-05
1.09935e-05
4.85405e-05
-5.97085e-05
9.93148e-05
-0.00019575
0.000175654
-0.000403701
0.000281886
-0.00068892
0.000420475
-0.00105323
0.000590589
-0.00149191
0.000786951
-0.00199125
0.000999842
-0.0025285
0.00121674
-0.00307549
0.00142523
-0.00360449
0.00161558
-0.00409584
0.00178299
-0.00453674
-0.00493341
0.00192778
4.3064e-06
1.84532e-05
2.10469e-05
-5.74702e-06
5.4927e-05
-9.35886e-05
0.000110972
-0.000251795
0.000194037
-0.000486766
0.000307886
-0.000802769
0.000453858
-0.00119921
0.000629423
-0.00166748
0.000827379
-0.00218921
0.00103653
-0.00273765
0.00124402
-0.00328298
0.00143844
-0.0037989
0.00161203
-0.00426942
0.0017622
-0.00468692
-0.00506189
0.00189069
4.99413e-06
1.34591e-05
2.3888e-05
-2.46409e-05
6.15049e-05
-0.000131205
0.000122862
-0.000313152
0.000212531
-0.000576436
0.000333539
-0.000923777
0.000485895
-0.00135156
0.000665267
-0.00184685
0.000862665
-0.0023866
0.00106586
-0.00294085
0.00126222
-0.00347934
0.00144177
-0.00397845
0.00159888
-0.00442653
0.00173296
-0.004821
-0.00517581
0.00184687
5.71636e-06
7.74275e-06
2.68363e-05
-4.57608e-05
6.82621e-05
-0.000172631
0.000134927
-0.000379816
0.00023099
-0.000672499
0.000358553
-0.00105134
0.000516129
-0.00150914
0.000697558
-0.00202828
0.00089231
-0.00258136
0.00108761
-0.00313614
0.00127158
-0.00366331
0.00143597
-0.00414285
0.00157726
-0.00456782
0.00169655
-0.0049403
-0.00527683
0.00179758
6.47525e-06
1.2675e-06
2.989e-05
-6.91755e-05
7.51755e-05
-0.000217917
0.000147091
-0.000451731
0.000249237
-0.000774645
0.000382612
-0.00118472
0.000544108
-0.00167064
0.000725803
-0.00220997
0.000915966
-0.00277152
0.00110178
-0.00332196
0.00127255
-0.00383408
0.00142193
-0.00429222
0.00154829
-0.00469418
0.00165419
-0.00504619
-0.00536651
0.00174387
7.2713e-06
-6.0038e-06
3.30417e-05
-9.49459e-05
8.22098e-05
-0.000267085
0.000159256
-0.000528778
0.000267071
-0.00088246
0.000405388
-0.00132303
0.000569404
-0.00183465
0.000749599
-0.00239017
0.000933448
-0.00295537
0.00110857
-0.00349708
0.00126575
-0.00399125
0.00140055
-0.00442702
0.00151308
-0.00480671
0.00160692
-0.00514004
-0.00544626
0.00168667
8.10318e-06
-1.4107e-05
3.6278e-05
-0.000123121
8.93174e-05
-0.000320124
0.000171309
-0.000610769
0.000284276
-0.000995427
0.000426548
-0.0014653
0.000591634
-0.00199974
0.000768654
-0.00256719
0.000944722
-0.00313144
0.0011083
-0.00366067
0.00125185
-0.0041348
0.00137277
-0.00454794
0.00147261
-0.00490655
0.00155571
-0.00522313
-0.00551728
0.00162673
8.96779e-06
-2.30748e-05
3.95795e-05
-0.000153732
9.64394e-05
-0.000376984
0.000183117
-0.000697447
0.000300621
-0.00111293
0.000445776
-0.00161046
0.000610477
-0.00216444
0.000782791
-0.0027395
0.000949899
-0.00329854
0.00110143
-0.0038122
0.0012316
-0.00426497
0.00133949
-0.00465582
0.0014278
-0.00499487
0.00150134
-0.00529667
-0.00558062
0.00156468
9.86039e-06
-3.29352e-05
4.29216e-05
-0.000186794
0.000103507
-0.00043757
0.00019454
-0.00078848
0.000315876
-0.00123427
0.000462786
-0.00175737
0.000625688
-0.00232734
0.00079195
-0.00290576
0.000949208
-0.0034558
0.0010885
-0.00395149
0.00120576
-0.00438223
0.00130154
-0.00475161
0.00137945
-0.00507277
0.00144449
-0.00536171
-0.00563714
0.00150101
1.07748e-05
-4.371e-05
4.6275e-05
-0.000222294
0.000110445
-0.00050174
0.000205432
-0.000883467
0.000329822
-0.00135866
0.000477328
-0.00190488
0.000637104
-0.00248712
0.000796178
-0.00306484
0.000942977
-0.0036026
0.00107007
-0.00407858
0.00117505
-0.00448721
0.0012597
-0.00483626
0.00132824
-0.00514131
0.00138571
-0.00541918
-0.00568755
0.00143612
1.17037e-05
-5.54136e-05
4.9607e-05
-0.000260197
0.000117172
-0.000569305
0.000215644
-0.000981939
0.000342252
-0.00148526
0.000489206
-0.00205183
0.000644645
-0.00264255
0.000795616
-0.00321581
0.000931602
-0.00373859
0.00104676
-0.00419374
0.00114018
-0.00458063
0.00121466
-0.00491073
0.00127479
-0.00520144
0.00132547
-0.00546986
-0.00573242
0.00137034
1.26386e-05
-6.80522e-05
5.28823e-05
-0.000300441
0.000123604
-0.000640027
0.000225034
-0.00108337
0.000352987
-0.00161322
0.000498277
-0.00219712
0.000648311
-0.00279259
0.000790485
-0.00335798
0.000915524
-0.00386363
0.00101916
-0.00429737
0.0011018
-0.00466328
0.00116701
-0.00497594
0.00121957
-0.00525401
0.00126413
-0.00551442
-0.00577221
0.00130391
1.35706e-05
-8.16228e-05
5.60639e-05
-0.000342934
0.00012966
-0.000713622
0.000233468
-0.00118718
0.000361877
-0.00174163
0.000504454
-0.0023397
0.000648174
-0.00293631
0.000781063
-0.00349087
0.000895211
-0.00397778
0.000987839
-0.00439
0.00106049
-0.00473593
0.00111728
-0.00503273
0.00116301
-0.00529973
0.00120199
-0.0055534
-0.00580726
0.00123704
1.449e-05
-9.61129e-05
5.91142e-05
-0.000387558
0.000135257
-0.000789765
0.000240828
-0.00129275
0.000368807
-0.00186961
0.000507707
-0.0024786
0.000644368
-0.00307297
0.000767674
-0.00361418
0.000871135
-0.00408124
0.000953349
-0.00447221
0.00101679
-0.00479937
0.00106593
-0.00508186
0.00110545
-0.00533925
0.00113929
-0.00558725
-0.00583785
0.00116988
1.53871e-05
-0.0001115
6.1996e-05
-0.000434167
0.000140321
-0.00086809
0.00024701
-0.00139944
0.000373697
-0.00199629
0.000508059
-0.00261296
0.000637075
-0.00320199
0.000750668
-0.00372777
0.00084376
-0.00417433
0.000916187
-0.00454464
0.000971156
-0.00485434
0.00101332
-0.00512402
0.00104716
-0.00537309
0.00107623
-0.00561631
-0.00586417
0.00110255
1.62517e-05
-0.000127752
6.46731e-05
-0.000482589
0.000144782
-0.000948199
0.000251932
-0.00150659
0.000376506
-0.00212087
0.000505579
-0.00274203
0.000626519
-0.00332293
0.000730407
-0.00383166
0.000813532
-0.00425745
0.000876806
-0.00460791
0.000923989
-0.00490153
0.000959775
-0.00515981
0.000988382
-0.0054017
0.00101295
-0.00564088
-0.00588639
0.00103517
1.70739e-05
-0.000144826
6.71111e-05
-0.000532626
0.00014858
-0.00102967
0.000255531
-0.00161354
0.000377226
-0.00224256
0.000500376
-0.00286518
0.00061295
-0.0034355
0.000707255
-0.00392597
0.000780869
-0.00433107
0.000835614
-0.00466266
0.000875637
-0.00494155
0.000905565
-0.00518974
0.000929297
-0.00542543
0.000949583
-0.00566117
-0.0059046
0.000967801
1.78441e-05
-0.00016267
6.92785e-05
-0.00058406
0.000151663
-0.00111205
0.000257767
-0.00171964
0.000375882
-0.00236068
0.00049259
-0.00298189
0.000596633
-0.00353954
0.00068157
-0.0040109
0.000746158
-0.00439566
0.000792973
-0.00470947
0.000826397
-0.00497497
0.000850906
-0.00521425
0.000870057
-0.00544458
0.000886229
-0.00567734
-0.0059189
0.000900528
1.8553e-05
-0.000181223
7.1147e-05
-0.000636654
0.000153992
-0.0011949
0.00025862
-0.00182427
0.00037253
-0.00247459
0.000482388
-0.00309175
0.000577842
-0.003635
0.000653692
-0.00408675
0.000709753
-0.00445172
0.000749197
-0.00474892
0.000776521
-0.0050023
0.000795982
-0.00523371
0.000810785
-0.00545939
0.000822971
-0.00568953
-0.00592934
0.000833409
1.91918e-05
-0.000200414
7.2692e-05
-0.000690155
0.000155535
-0.00127774
0.000258093
-0.00192683
0.000367249
-0.00258374
0.000469953
-0.00319445
0.000556852
-0.0037219
0.000623943
-0.00415384
0.000671972
-0.00449975
0.000704562
-0.00478151
0.000726221
-0.00502396
0.000740941
-0.00524843
0.000751583
-0.00547003
0.000759878
-0.00569782
-0.00593596
0.000766496
1.97527e-05
-0.000220167
7.3893e-05
-0.000744295
0.000156276
-0.00136012
0.000256206
-0.00202676
0.000360138
-0.00268768
0.000455479
-0.00328979
0.000533931
-0.00380035
0.000592622
-0.00421253
0.000633098
-0.00454022
0.000659305
-0.00480771
0.000675675
-0.00504033
0.00068591
-0.00525866
0.000692536
-0.00547665
0.000697011
-0.0057023
-0.00593879
0.000699838
2.02303e-05
-0.000240397
7.47376e-05
-0.000798802
0.000156211
-0.0014416
0.000253002
-0.00212355
0.000351322
-0.002786
0.000439175
-0.00337765
0.000509347
-0.00387052
0.000560014
-0.0042632
0.000593393
-0.0045736
0.000613639
-0.00482796
0.000625043
-0.00505173
0.000630999
-0.00526462
0.000633723
-0.00547938
0.000634429
-0.005703
-0.00593784
0.000633487
2.06153e-05
-0.000261013
7.52078e-05
-0.000853395
0.000155334
-0.00152172
0.00024852
-0.00221673
0.00034091
-0.00287839
0.000421224
-0.00345796
0.000483325
-0.00393262
0.000526349
-0.00430622
0.000553058
-0.00460031
0.000567719
-0.00484262
0.000574431
-0.00505844
0.000576277
-0.00526647
0.000575185
-0.00547828
0.000572162
-0.00569998
-0.00593315
0.000567465
2.09042e-05
-0.000281917
7.53001e-05
-0.000907791
0.000153663
-0.00160009
0.00024283
-0.0023059
0.000329045
-0.0029646
0.000401829
-0.00353074
0.000456104
-0.0039869
0.000491859
-0.00434198
0.000512294
-0.00462074
0.000521702
-0.00485203
0.000523954
-0.00506069
0.000521825
-0.00526434
0.000516983
-0.00547344
0.000510257
-0.00569325
-0.00592471
0.000501819
2.1093e-05
-0.00030301
7.50122e-05
-0.00096171
0.000151219
-0.00167629
0.000236007
-0.00239069
0.000315865
-0.00304446
0.000381182
-0.00359606
0.000427894
-0.00403361
0.000456747
-0.00437083
0.00047127
-0.00463527
0.000475715
-0.00485647
0.000473699
-0.00505868
0.000467704
-0.00525834
0.000459163
-0.0054649
0.000448754
-0.00568285
-0.00591254
0.000436586
2.11788e-05
-0.000324189
7.4346e-05
-0.00101488
0.00014803
-0.00174998
0.000228129
-0.00247079
0.000301508
-0.00311784
0.000359462
-0.00365402
0.000398889
-0.00407303
0.000421189
-0.00439313
0.00043013
-0.00464421
0.000429863
-0.00485621
0.000423742
-0.00505256
0.000413967
-0.00524857
0.000401763
-0.0054527
0.000387685
-0.00566877
-0.00589666
0.000371799
2.11599e-05
-0.000345349
7.33075e-05
-0.00106702
0.000144133
-0.0018208
0.000219283
-0.00254594
0.000286112
-0.00318467
0.000336841
-0.00370474
0.000369265
-0.00410546
0.000385343
-0.00440921
0.000388998
-0.00464786
0.000384238
-0.00485145
0.000374145
-0.00504246
0.000360659
-0.00523508
0.000344819
-0.00543686
0.000327084
-0.00565103
-0.00587706
0.000307487
2.10356e-05
-0.000366384
7.19064e-05
-0.0011179
0.000139569
-0.00188847
0.000209557
-0.00261592
0.00026981
-0.00324492
0.000313478
-0.00374841
0.00033918
-0.00413116
0.000349346
-0.00441938
0.00034798
-0.0046465
0.000338916
-0.00484238
0.000324963
-0.00502851
0.00030782
-0.00521794
0.000288364
-0.0054174
0.00026698
-0.00562965
-0.00585375
0.000243674
2.08064e-05
-0.000387191
7.01556e-05
-0.00116724
0.000134381
-0.00195269
0.00019904
-0.00268058
0.000252731
-0.00329861
0.000289518
-0.0037852
0.000308777
-0.00415042
0.000313318
-0.00442392
0.000307169
-0.00464035
0.000293962
-0.00482918
0.000276243
-0.00501079
0.000255484
-0.00519718
0.000232425
-0.00539434
0.000207399
-0.00560462
-0.00582673
0.000180377
2.04736e-05
-0.000407664
6.80704e-05
-0.00121484
0.000128619
-0.00201324
0.00018782
-0.00273978
0.000234995
-0.00334579
0.000265097
-0.0038153
0.000278181
-0.0041635
0.000277364
-0.0044231
0.000266643
-0.00462963
0.000249435
-0.00481197
0.000228027
-0.00498938
0.000203687
-0.00517284
0.000177032
-0.00536769
0.000148361
-0.00557595
-0.00579598
0.00011761
2.00395e-05
-0.000427704
6.56689e-05
-0.00126047
0.00012233
-0.0020699
0.000175984
-0.00279344
0.000216716
-0.00338652
0.000240337
-0.00383892
0.000247505
-0.00417067
0.000241574
-0.00441717
0.000226469
-0.00461452
0.000205381
-0.00479088
0.000180353
-0.00496436
0.000152467
-0.00514495
0.000122237
-0.00533746
8.98693e-05
-0.00554358
-0.00576141
5.53019e-05
1.95073e-05
-0.000447211
6.29707e-05
-0.00130393
0.000115566
-0.0021225
0.000163616
-0.00284149
0.000198002
-0.0034209
0.000215348
-0.00385627
0.000216848
-0.00417217
0.000206026
-0.00440635
0.000186704
-0.0045952
0.000161842
-0.00476602
0.000133254
-0.00493577
0.00010186
-0.00511356
6.81044e-05
-0.0053037
3.20525e-05
-0.00550753
-0.00572192
-7.43493e-06
1.88806e-05
-0.000466092
5.99967e-05
-0.00134505
0.000108377
-0.00217088
0.000150798
-0.00288391
0.00017895
-0.00344905
0.000190229
-0.00386755
0.000186296
-0.00416824
0.000170788
-0.00439084
0.000147398
-0.00457181
0.000118853
-0.00473747
8.67557e-05
-0.00490367
5.1885e-05
-0.00507869
1.45729e-05
-0.00526639
-2.49271e-05
-0.00546803
-0.00567997
-6.68797e-05
1.8164e-05