/*--------------------------------*- C++ -*----------------------------------*\
  =========                 |
  \\      /  F ield         | OpenFOAM: The Open Source CFD Toolbox
   \\    /   O peration     | Website:  https://openfoam.org
    \\  /    A nd           | Version:  7
     \\/     M anipulation  |
\*---------------------------------------------------------------------------*/
FoamFile
{
    version     2.0;
    format      ascii;
    class       volVectorField;
    location    "220";
    object      U;
}
// * * * * * * * * * * * * * * * * * * * * * * * * * * * * * * * * * * * * * //

dimensions      [0 1 -1 0 0 0 0];

internalField   nonuniform List<vector> 
20050
(
(-0.000650767 -0.028453 4.77846e-21)
(-0.00530241 -0.0607 -8.46499e-22)
(-0.0149943 -0.0749392 -1.10025e-20)
(-0.0273965 -0.0758326 -1.65201e-20)
(-0.0417031 -0.0676068 -1.48576e-21)
(-0.0572753 -0.0537422 1.01279e-20)
(-0.0736226 -0.0367802 -1.13514e-20)
(-0.0904002 -0.0182759 2.98438e-21)
(-0.107349 0.00109577 -8.04409e-21)
(-0.124275 0.0213176 1.46909e-20)
(-0.14104 0.0427611 1.26034e-20)
(-0.157564 0.0659686 -1.52578e-20)
(-0.173831 0.0915111 -7.74157e-21)
(-0.189809 0.119925 8.16977e-21)
(-0.205525 0.151889 -8.58693e-21)
(-1.46905e-05 -0.0266168 7.74964e-21)
(-0.0039585 -0.0562907 -5.15984e-21)
(-0.0132951 -0.0687541 -2.26892e-21)
(-0.0255487 -0.0684509 1.65254e-20)
(-0.0398093 -0.0594496 2.01819e-20)
(-0.0553677 -0.0451054 -4.9679e-20)
(-0.0716916 -0.0278728 3.02721e-20)
(-0.0884152 -0.00925182 3.16795e-20)
(-0.105271 0.0101177 4.14048e-20)
(-0.122058 0.0302435 -3.95409e-20)
(-0.138628 0.0515262 2.60165e-20)
(-0.154884 0.0745353 2.49467e-20)
(-0.170787 0.0998654 1.43136e-20)
(-0.186231 0.128056 -4.49644e-20)
(-0.201136 0.159776 3.69084e-20)
(0.000542602 -0.0247694 -3.14652e-20)
(-0.0027628 -0.0518933 -3.95844e-20)
(-0.0117273 -0.0626307 3.03038e-20)
(-0.0237657 -0.0611906 3.79846e-20)
(-0.0378754 -0.0514702 -2.45027e-20)
(-0.0532826 -0.0366934 -4.51049e-20)
(-0.0694148 -0.0192258 2.86354e-20)
(-0.0858845 -0.000516034 -8.32136e-20)
(-0.102412 0.0188245 -4.0054e-20)
(-0.118787 0.0388234 -3.17665e-20)
(-0.134845 0.0599007 -4.58819e-20)
(-0.150463 0.0826483 7.96623e-21)
(-0.16558 0.10768 3.19341e-20)
(-0.180006 0.135539 1.48725e-19)
(-0.193516 0.166873 -5.72499e-20)
(0.00102137 -0.0229353 4.35044e-21)
(-0.00171763 -0.0475594 7.89304e-20)
(-0.0103013 -0.056635 3.08561e-20)
(-0.0220683 -0.0541252 -5.50847e-20)
(-0.0359342 -0.0437476 1.30576e-20)
(-0.051066 -0.0285896 5.15185e-20)
(-0.0668524 -0.0109277 4.66294e-20)
(-0.0828824 0.00783792 3.151e-20)
(-0.0988624 0.0271178 -5.81645e-20)
(-0.114568 0.0469516 1.62607e-19)
(-0.129814 0.0677718 -6.88799e-20)
(-0.14445 0.0901865 9.60987e-20)
(-0.158388 0.114826 -3.38135e-20)
(-0.171358 0.142239 -1.23262e-19)
(-0.18294 0.173047 4.63308e-20)
(0.00142346 -0.0211365 1.09773e-19)
(-0.000822769 -0.043335 -4.30319e-20)
(-0.0090257 -0.0508256 -3.29592e-21)
(-0.0204771 -0.0473212 3.03479e-20)
(-0.0340207 -0.036354 1.93309e-20)
(-0.0487683 -0.0208719 2.58751e-20)
(-0.0640709 -0.00306229 -1.01331e-19)
(-0.0794926 0.0157198 -8.46115e-21)
(-0.0947233 0.0349013 6.86842e-21)
(-0.109523 0.0545258 -1.5774e-19)
(-0.123684 0.0750307 1.39996e-19)
(-0.137022 0.0970349 -9.65169e-20)
(-0.149423 0.121183 -4.40706e-20)
(-0.160548 0.148033 -2.36107e-20)
(-0.169732 0.178179 -5.65291e-20)
(0.00175201 -0.0193909 -6.5092e-20)
(-7.60623e-05 -0.0392583 -2.67295e-20)
(-0.00790791 -0.0452519 -8.38088e-20)
(-0.0190128 -0.0408353 -1.51824e-20)
(-0.032171 -0.0293527 -5.85642e-20)
(-0.046443 -0.0136106 -4.76171e-20)
(-0.0611425 0.00429261 -5.84268e-20)
(-0.0758072 0.0230446 3.56306e-20)
(-0.0901085 0.0420828 4.16246e-20)
(-0.103789 0.0614477 1.57531e-20)
(-0.116618 0.0815742 2.65014e-20)
(-0.128377 0.103086 4.63557e-20)
(-0.138924 0.126638 -7.7143e-20)
(-0.147872 0.152806 -4.82973e-20)
(-0.154254 0.182166 1.63896e-19)
(0.00201094 -0.0177126 -3.9511e-20)
(0.000525895 -0.0353591 -4.01451e-20)
(-0.00695448 -0.0399532 1.8153e-19)
(-0.0176961 -0.0347141 9.53389e-20)
(-0.0304225 -0.0227974 2.76997e-21)
(-0.0441462 -0.00686745 3.23259e-20)
(-0.0581435 0.0110666 8.62662e-20)
(-0.0719245 0.0297331 -5.53467e-20)
(-0.0851405 0.0485757 4.01981e-20)
(-0.0975152 0.0676247 5.14496e-20)
(-0.108796 0.0873051 -1.62436e-19)
(-0.118731 0.108239 -2.92586e-20)
(-0.127152 0.131091 -1.32029e-19)
(-0.133652 0.156461 8.44132e-20)
(-0.136896 0.184919 -9.95876e-20)
(0.00220458 -0.0161114 5.0847e-20)
(0.000987068 -0.0316585 -3.9158e-20)
(-0.00617162 -0.0349585 -1.38423e-19)
(-0.0165474 -0.0289934 -1.53344e-19)
(-0.028813 -0.0167313 -1.83311e-19)
(-0.041935 -0.000694375 4.71357e-20)
(-0.0551526 0.0171982 6.00177e-20)
(-0.067947 0.0357143 1.22413e-19)
(-0.0799477 0.0543003 -5.86864e-20)
(-0.0908601 0.0729706 -5.1031e-20)
(-0.100411 0.0921331 9.56085e-20)
(-0.108315 0.112403 -9.53702e-20)
(-0.114383 0.134452 9.5518e-20)
(-0.118225 0.15891 -1.39919e-19)
(-0.118064 0.186361 8.89459e-20)
(0.00233718 -0.014593 -8.52409e-21)
(0.0013113 -0.0281691 4.03967e-20)
(-0.0055655 -0.0302858 2.03158e-19)
(-0.0155871 -0.0236974 1.93156e-19)
(-0.02738 -0.0111863 8.08657e-20)
(-0.0398668 0.00486755 -2.4709e-20)
(-0.0522493 0.0226357 -9.88503e-20)
(-0.0639787 0.040926 4.4497e-20)
(-0.074662 0.0591853 2.21861e-20)
(-0.0839859 0.0774071 -6.31128e-20)
(-0.0916581 0.0959759 -1.95352e-19)
(-0.0973665 0.115495 -5.81899e-20)
(-0.1009 0.136642 1.62189e-19)
(-0.101939 0.160078 2.64725e-20)
(-0.098174 0.186434 -1.81907e-19)
(0.00241249 -0.0131586 -7.62527e-20)
(0.00150165 -0.0248945 -2.08774e-19)
(-0.0051427 -0.0259426 -2.32142e-19)
(-0.0148354 -0.0188386 -1.42514e-19)
(-0.0261599 -0.00618228 1.00126e-19)
(-0.0379968 0.00978908 1.68301e-20)
(-0.0495107 0.0273392 3.66298e-20)
(-0.0601219 0.0453171 -3.48053e-20)
(-0.069414 0.0631693 3.26194e-19)
(-0.0770554 0.0808652 1.06509e-19)
(-0.0827374 0.0987599 1.77643e-19)
(-0.0861247 0.117441 2.39917e-19)
(-0.0869871 0.137589 -1.68539e-19)
(-0.0851389 0.159902 2.61087e-19)
(-0.0776434 0.185143 3.77215e-20)
(0.00243339 -0.0118058 7.61931e-20)
(0.00155989 -0.0218302 1.20288e-19)
(-0.00491031 -0.021926 1.01346e-19)
(-0.0143115 -0.0144183 -1.1748e-19)
(-0.025187 -0.00172698 9.51127e-20)
(-0.036377 0.0140535 1.56143e-20)
(-0.0470095 0.0312814 -2.69926e-19)
(-0.0564735 0.048849 2.38022e-19)
(-0.0643287 0.0662033 -1.93804e-19)
(-0.0702257 0.0832872 -5.4622e-20)
(-0.0738414 0.100422 -2.71858e-21)
(-0.0748224 0.118176 1.36468e-19)
(-0.0729174 0.137228 1.74721e-19)
(-0.0681284 0.158324 -1.5098e-19)
(-0.0569497 0.182747 3.41538e-20)
(0.0024016 -0.0105286 -1.34602e-19)
(0.00148613 -0.0189648 4.1044e-20)
(-0.00487599 -0.0182237 -9.12926e-20)
(-0.0140335 -0.0104268 -6.57822e-21)
(-0.0244921 0.00218389 1.11825e-19)
(-0.0350536 0.0176573 -1.39382e-19)
(-0.0448104 0.0344489 1.85752e-19)
(-0.0531208 0.0514975 -2.24524e-19)
(-0.0595204 0.0682525 -2.80518e-19)
(-0.0636422 0.0846298 8.13959e-20)
(-0.0651505 0.100913 1.64025e-19)
(-0.0636791 0.117645 -1.96856e-19)
(-0.0589463 0.135505 1.57108e-19)
(-0.05103 0.155273 -2.71082e-19)
(-0.0364908 0.178879 1.88552e-19)
(0.00231745 -0.00931806 3.53599e-19)
(0.00127858 -0.0162803 -2.29162e-19)
(-0.00504773 -0.0148151 1.07065e-19)
(-0.0140173 -0.00684423 1.55404e-19)
(-0.0241008 0.00556636 -1.81412e-19)
(-0.0340644 0.0206103 2.64602e-19)
(-0.0429669 0.0368433 -3.66227e-20)
(-0.0501366 0.0532548 -3.24777e-19)
(-0.0550857 0.0692996 9.57778e-20)
(-0.0574303 0.0848669 4.51232e-20)
(-0.056823 0.100201 -2.26198e-19)
(-0.0528897 0.115811 1.83555e-19)
(-0.045339 0.132377 -5.82418e-19)
(-0.0342475 0.15071 4.65479e-19)
(-0.0163134 0.173163 -1.59567e-19)
(0.0021798 -0.0081631 -2.49586e-19)
(0.000933651 -0.0137541 4.04043e-20)
(-0.00543343 -0.0116727 -2.01187e-19)
(-0.0142757 -0.0036421 -1.7332e-19)
(-0.0240321 0.00844742 -1.8198e-19)
(-0.0334363 0.0229356 -2.93884e-19)
(-0.0415166 0.0384821 3.60851e-19)
(-0.0475734 0.054131 4.34067e-19)
(-0.0510963 0.0693469 3.15471e-20)
(-0.0516853 0.0839938 -2.06807e-19)
(-0.0489823 0.0982737 1.53077e-20)
(-0.0426058 0.11266 1.65274e-19)
(-0.0322602 0.127831 -6.74586e-20)
(-0.0180539 0.144671 -2.22227e-20)
(0.00327944 0.165823 2.35335e-19)
(0.00198609 -0.00705122 1.52915e-19)
(0.000446229 -0.0113601 1.96325e-19)
(-0.00604008 -0.00876381 6.11107e-20)
(-0.0148171 -0.000784461 2.32276e-19)
(-0.0242957 0.010864 1.00518e-19)
(-0.0331822 0.0246693 1.91415e-19)
(-0.0404777 0.0393986 -2.41982e-20)
(-0.0454574 0.0541558 -1.92778e-19)
(-0.0475906 0.0684193 9.03139e-20)
(-0.0464615 0.0820308 3.12724e-19)
(-0.0417019 0.09515 1.08368e-19)
(-0.0329221 0.108209 -1.35015e-19)
(-0.019816 0.121878 2.45758e-19)
(-0.00255484 0.137122 -1.58286e-19)
(0.0221395 0.156941 1.66732e-20)
(0.0017325 -0.00596931 -2.70547e-20)
(-0.000189754 -0.00907101 -7.5153e-20)
(-0.00687277 -0.00605266 1.84132e-19)
(-0.0156437 0.00177016 1.11175e-19)
(-0.0248904 0.0128615 2.26234e-19)
(-0.0332973 0.0258595 -1.23336e-19)
(-0.0398434 0.0396425 -2.68579e-19)
(-0.0437822 0.053379 -1.21802e-19)
(-0.0445642 0.0665665 -1.6748e-19)
(-0.041759 0.0790277 -3.71164e-19)
(-0.0349878 0.0908804 -2.00783e-19)
(-0.0238508 0.10251 -5.40178e-20)
(-0.00802017 0.114571 -2.30537e-19)
(0.0122561 0.128099 -1.97628e-21)
(0.0403245 0.146536 1.1447e-19)
(0.00141432 -0.00490465 -1.07992e-19)
(-0.000980479 -0.00685942 -6.60838e-20)
(-0.00793341 -0.00350217 8.09756e-21)
(-0.0167499 0.00406673 -4.73256e-19)
(-0.0258014 0.0144921 -4.43691e-19)
(-0.0337568 0.0265651 -1.71742e-19)
(-0.0395783 0.0392788 3.27529e-19)
(-0.0425017 0.0518714 -1.54104e-19)
(-0.041961 0.0638646 1.48931e-19)
(-0.0375106 0.0750666 1.96228e-19)
(-0.0287604 0.0855543 6.85806e-20)
(-0.0152959 0.09566 -1.20799e-19)
(0.00324734 0.106016 1.35055e-19)
(0.0265367 0.117705 1.064e-19)
(0.0581131 0.134684 -1.49746e-19)
(0.00102641 -0.00384577 -2.68692e-20)
(-0.00193117 -0.00470015 8.79815e-20)
(-0.00921928 -0.00107626 -2.55331e-19)
(-0.0181206 0.00615156 5.86122e-19)
(-0.0269978 0.0158126 4.15395e-19)
(-0.0345117 0.0268537 6.91917e-20)
(-0.0396131 0.0383864 -2.02851e-19)
(-0.0415241 0.0497233 8.06565e-20)
(-0.0396635 0.0604164 1.00868e-19)
(-0.0335689 0.0702639 -2.40913e-19)
(-0.022836 0.0793044 2.81288e-19)
(-0.00702834 0.0878116 1.08374e-19)
(0.0142754 0.0963847 -1.71909e-19)
(0.040645 0.106116 1.14692e-19)
(0.0760491 0.121548 4.38374e-20)
(0.000563794 -0.00278336 4.41014e-20)
(-0.00304488 -0.00257174 2.21276e-19)
(-0.0107215 0.00125805 -1.05524e-20)
(-0.0197293 0.00806996 -3.36503e-19)
(-0.0284312 0.0168819 -2.40697e-19)
(-0.0354871 0.0267996 2.47356e-19)
(-0.0398423 0.037056 3.41277e-19)
(-0.0407071 0.0470433 -4.92264e-20)
(-0.0374861 0.0563498 -1.43221e-19)
(-0.0296956 0.0647698 3.60574e-19)
(-0.0169113 0.072308 -2.84717e-19)
(0.0013351 0.0791747 1.433e-19)
(0.0255483 0.0859226 1.83222e-19)
(0.0551731 0.0935956 -5.43173e-19)
(0.0949722 0.107407 6.79694e-20)
(2.23615e-05 -0.00171105 1.21571e-19)
(-0.0043211 -0.000458161 -9.8647e-20)
(-0.0124234 0.00352861 -1.09221e-21)
(-0.0215366 0.0098639 7.41789e-20)
(-0.0300334 0.0177588 9.5577e-20)
(-0.0365803 0.0264805 -2.72514e-19)
(-0.040121 0.0353868 -1.30519e-19)
(-0.0398552 0.0439541 -2.57807e-19)
(-0.0351698 0.0518123 -2.43017e-19)
(-0.0255565 0.0587668 2.08616e-19)
(-0.0105559 0.0647839 -2.27075e-19)
(0.0103418 0.0700149 -2.77678e-20)
(0.0377572 0.0749533 6.37127e-20)
(0.0709588 0.0805041 -2.17067e-20)
(0.116011 0.0926836 2.08651e-19)
(-0.00060039 -0.000626055 -3.79234e-20)
(-0.00575451 0.00164991 -2.57022e-19)
(-0.0142996 0.00575631 -2.17517e-19)
(-0.0234894 0.0115697 -4.51108e-20)
(-0.0317165 0.0184986 4.13484e-20)
(-0.0376605 0.0259743 -7.16202e-21)
(-0.0402661 0.0334825 -4.83937e-20)
(-0.0387208 0.040588 -3.52956e-20)
(-0.0323851 0.0469721 1.31249e-19)
(-0.0207196 0.0524579 -9.26615e-20)
(-0.00321637 0.0569828 2.641e-19)
(0.0206966 0.0606445 -2.76468e-19)
(0.0517861 0.0638681 -1.96239e-19)
(0.0890616 0.0672915 1.36434e-19)
(0.140522 0.0779435 -1.58919e-19)
(-0.00130463 0.000470325 -9.69041e-20)
(-0.00733374 0.00375403 3.33437e-20)
(-0.0163146 0.00795351 1.84413e-19)
(-0.0255201 0.0132159 -9.42511e-20)
(-0.0333725 0.0191508 1.51016e-19)
(-0.0385697 0.0253555 -4.84653e-20)
(-0.0400572 0.0314464 -2.49079e-19)
(-0.0370058 0.0370821 3.22201e-19)
(-0.0287404 0.042004 1.40205e-19)
(-0.0146715 0.046058 -3.81095e-19)
(0.00576831 0.0491762 3.77153e-20)
(0.0332318 0.051404 -6.71471e-21)
(0.068663 0.0531025 3.9523e-19)
(0.110696 0.054472 7.84762e-20)
(0.169953 0.0638841 2.12833e-19)
(-0.00208755 0.0015725 4.97933e-21)
(-0.00904044 0.00584746 2.18539e-19)
(-0.0184225 0.0101229 -1.03716e-19)
(-0.0275472 0.0148212 1.43501e-19)
(-0.0348754 0.0197556 2.67391e-19)
(-0.0391261 0.0246909 3.38701e-19)
(-0.0392433 0.0293761 1.0043e-19)
(-0.0343723 0.0335688 -2.34651e-20)
(-0.0237899 0.0370783 3.90183e-19)
(-0.00683825 0.0397874 4.28605e-19)
(0.0171282 0.0416372 3.72425e-20)
(0.0488536 0.0426367 3.88238e-19)
(0.0894754 0.0431016 -2.75822e-21)
(0.137122 0.0425803 -3.14059e-19)
(0.205656 0.0512798 -2.07344e-19)
(-0.00294279 0.00267063 1.16651e-19)
(-0.0108487 0.00791501 2.36146e-19)
(-0.0205674 0.012257 4.00207e-20)
(-0.0294766 0.0163935 2.72688e-19)
(-0.0360834 0.0203421 -3.26136e-19)
(-0.0391289 0.0240358 -4.33418e-20)
(-0.0375499 0.027358 -6.754e-20)
(-0.0304554 0.0301694 4.75412e-19)
(-0.0170583 0.0323559 -6.39855e-19)
(0.00338536 0.0338509 -4.23607e-19)
(0.031615 0.034621 1.56511e-19)
(0.0684683 0.0346614 -1.91198e-19)
(0.115259 0.0342765 -5.22565e-20)
(0.169504 0.0321184 1.47887e-19)
(0.248647 0.0409007 5.08356e-19)
(-0.00386023 0.00375104 1.09492e-19)
(-0.0127248 0.00993349 -4.29858e-19)
(-0.0226834 0.0143376 9.37326e-20)
(-0.0312031 0.0179281 -4.1916e-19)
(-0.0368429 0.0209259 2.08328e-19)
(-0.0383644 0.0234311 -1.38474e-19)
(-0.0346899 0.0254623 -1.49036e-19)
(-0.0248789 0.0269876 -3.53932e-19)
(-0.00806526 0.027977 1.23385e-19)
(0.0165959 0.0284271 1.72841e-19)
(0.0499446 0.0283474 -9.87872e-21)
(0.0929004 0.027746 1.5655e-19)
(0.146879 0.0269622 -8.063e-20)
(0.208776 0.0235108 -2.59536e-20)
(0.299375 0.0334127 -3.35068e-20)
(-0.00482584 0.00479681 -4.78983e-19)
(-0.0146278 0.0118727 1.98843e-20)
(-0.0246964 0.0163368 -3.86114e-20)
(-0.0326134 0.0194085 6.93501e-20)
(-0.0369929 0.021508 -3.11285e-19)
(-0.0366139 0.0229004 3.73922e-19)
(-0.0303749 0.0237395 -1.04343e-20)
(-0.0172737 0.0241038 -4.45813e-19)
(0.00364775 0.024053 -4.028e-19)
(0.0333416 0.0236587 -3.35927e-19)
(0.0727397 0.0229883 -1.4922e-19)
(0.122815 0.0220916 -9.3501e-20)
(0.184928 0.0213847 -3.00918e-19)
(0.255535 0.0170808 -1.98683e-19)
(0.35756 0.0292734 2.27254e-19)
(-0.00582197 0.00578872 2.73155e-19)
(-0.0165097 0.0136968 2.17601e-19)
(-0.0265255 0.0182181 2.56885e-19)
(-0.0335888 0.0208062 -7.58645e-20)
(-0.0363704 0.0220743 1.36396e-19)
(-0.0336611 0.0224491 -1.8748e-19)
(-0.0243273 0.0222178 9.57798e-20)
(-0.00729512 0.0215709 5.76397e-19)
(0.0184914 0.0206625 2.14423e-19)
(0.054086 0.0196474 4.47722e-19)
(0.100482 0.0186614 1.64958e-19)
(0.158656 0.0178285 -2.87461e-20)
(0.229657 0.0176453 2.66034e-19)
(0.309974 0.0130611 -2.76573e-19)
(0.422124 0.0286592 -3.00267e-19)
(-0.00682779 0.00670639 -2.38642e-19)
(-0.0183174 0.0153663 -3.86532e-19)
(-0.0280854 0.019938 8.07908e-20)
(-0.0340089 0.0220823 -1.52091e-19)
(-0.0348144 0.0225972 1.80666e-19)
(-0.0292995 0.0220647 -3.73136e-19)
(-0.0162911 0.020903 1.07041e-19)
(0.00536139 0.0194145 -1.63625e-19)
(0.0368077 0.0178503 -1.53835e-19)
(0.079181 0.0164531 -2.02213e-19)
(0.133482 0.0154327 -3.35483e-19)
(0.200618 0.0150231 3.25696e-20)
(0.280967 0.0157254 2.76531e-19)
(0.371836 0.0116608 2.17091e-19)
(0.491171 0.0315289 1.44651e-19)
(-0.00782003 0.00752949 1.74994e-19)
(-0.0199936 0.0168405 -2.70563e-20)
(-0.0292878 0.0214487 1.283e-19)
(-0.0337538 0.0231904 4.09784e-19)
(-0.0321708 0.023037 -4.41132e-19)
(-0.0233384 0.0217188 3.90009e-19)
(-0.00603997 0.0197808 -3.63196e-19)
(0.0209493 0.0176352 5.84659e-20)
(0.0588559 0.0156307 1.52589e-19)
(0.108852 0.0140986 1.46838e-20)
(0.171864 0.0133224 2.25519e-19)
(0.248639 0.0136855 2.29705e-19)
(0.338469 0.0155049 -1.54306e-19)
(0.440402 0.0131806 -3.57205e-19)
(0.562014 0.0378057 4.95798e-19)
(-0.00877388 0.00823896 -1.07485e-19)
(-0.0214783 0.0180792 2.77226e-19)
(-0.0300441 0.0227006 -1.69924e-19)
(-0.0327069 0.0240791 -1.15016e-19)
(-0.0282951 0.0233461 2.33881e-19)
(-0.0156065 0.0213716 -4.5995e-20)
(0.00661797 0.0188213 1.42916e-19)
(0.039665 0.0162146 8.28442e-19)
(0.0848063 0.0139948 1.05644e-19)
(0.143191 0.0125783 5.30606e-20)
(0.215571 0.012314 -9.57925e-20)
(0.302415 0.0137648 -1.3692e-19)
(0.401627 0.0167852 -1.09613e-19)
(0.514676 0.0179883 1.50048e-19)
(0.631817 0.0467874 -7.56483e-19)
(-0.00966392 0.00881822 3.38338e-19)
(-0.0227109 0.0190459 2.91597e-19)
(-0.0302666 0.0236461 9.58428e-20)
(-0.0307564 0.0246963 -2.23528e-20)
(-0.0230535 0.0234732 1.42432e-19)
(-0.00595318 0.0209766 -1.08177e-19)
(0.0218386 0.0179862 -6.5137e-20)
(0.0616476 0.0151233 -1.01218e-19)
(0.114741 0.0129208 -4.54363e-19)
(0.182163 0.0118712 1.07684e-19)
(0.264364 0.0123683 4.12274e-20)
(0.36139 0.0151485 4.41239e-20)
(0.469752 0.0193532 3.25486e-19)
(0.593511 0.0259712 -2.00677e-20)
(0.70032 0.0545699 1.30928e-19)
(-0.010465 0.00925407 -5.35337e-19)
(-0.0236314 0.0197093 -2.07877e-19)
(-0.0298696 0.0242423 -5.37825e-20)
(-0.027796 0.0249932 -4.52692e-21)
(-0.0163239 0.023369 -2.46858e-19)
(0.00575168 0.0204881 1.12351e-19)
(0.0397444 0.0172365 1.13338e-20)
(0.0869829 0.0143316 3.22384e-19)
(0.148663 0.012387 -1.18971e-19)
(0.225614 0.0119574 -1.06786e-19)
(0.317837 0.0134481 -1.30774e-20)
(0.424739 0.0177079 -8.76363e-21)
(0.541669 0.0230887 -3.03854e-19)
(0.674342 0.0355132 7.5119e-20)
(0.773284 0.0545852 -2.00738e-19)
(-0.0111533 0.00953733 3.90898e-19)
(-0.0241809 0.0200457 1.1926e-19)
(-0.0287705 0.0244543 -2.42575e-19)
(-0.0237246 0.0249292 1.12876e-19)
(-0.0079935 0.0229917 -4.39306e-19)
(0.0196209 0.0198679 8.65699e-20)
(0.0604284 0.0165421 1.49369e-19)
(0.115711 0.0138198 -3.34308e-19)
(0.186504 0.0123845 4.44289e-19)
(0.273291 0.0128332 2.53184e-19)
(0.37545 0.0155445 1.6544e-19)
(0.49149 0.0213805 4.62384e-20)
(0.61576 0.0279931 -4.78872e-21)
(0.7521 0.0431392 -7.91231e-20)
(0.855788 0.0503901 3.48639e-19)
(-0.0117063 0.00966314 -4.40443e-19)
(-0.0243032 0.0200395 -3.93238e-19)
(-0.0268896 0.0242583 3.63359e-20)
(-0.0184456 0.0244752 1.14157e-19)
(0.00204226 0.0223125 4.10524e-19)
(0.0357534 0.0190929 -1.35323e-19)
(0.08396 0.0158899 -5.20424e-19)
(0.147831 0.0135878 -3.99928e-19)
(0.228137 0.012926 -2.4764e-19)
(0.324855 0.0145184 -4.53741e-19)
(0.436558 0.0186761 1.76053e-19)
(0.560607 0.0261567 9.7638e-20)
(0.690436 0.0341528 8.58812e-20)
(0.826961 0.050359 1.95071e-19)
(0.932725 0.0541196 1.00708e-19)
(-0.012104 0.00963103 2.94096e-19)
(-0.0239446 0.0196857 2.65101e-19)
(-0.0241491 0.0236431 1.08394e-19)
(-0.0118655 0.0236179 -3.16213e-19)
(0.0138829 0.0213211 -2.05075e-19)
(0.0542379 0.018161 1.49059e-19)
(0.110389 0.0152906 2.00564e-19)
(0.183312 0.013662 3.8955e-19)
(0.273381 0.0140511 1.14503e-19)
(0.379893 0.0170559 6.59764e-20)
(0.500427 0.0228759 -3.8895e-19)
(0.631022 0.0320514 -2.81918e-19)
(0.764233 0.0415538 4.29892e-20)
(0.898298 0.0581363 -8.88176e-20)
(1.00218 0.0612404 2.1821e-19)
(-0.0123277 0.00944467 8.75192e-20)
(-0.0230547 0.0189888 -1.93667e-19)
(-0.0204734 0.0226113 -1.90613e-19)
(-0.00389238 0.0223624 3.73725e-20)
(0.0276244 0.0200292 1.69412e-19)
(0.0751549 0.0170958 3.0199e-19)
(0.139749 0.0147838 -1.76155e-19)
(0.222087 0.0140981 1.77057e-19)
(0.322 0.0158256 7.24677e-20)
(0.437915 0.0205055 -3.71674e-19)
(0.566249 0.0281741 7.30044e-20)
(0.701636 0.0390576 3.81014e-20)
(0.835855 0.0500508 -1.11086e-19)
(0.965117 0.0666152 -1.87569e-19)
(1.06451 0.0699035 -4.06882e-19)
(-0.0123606 0.00911156 5.4693e-20)
(-0.0215839 0.0179622 -7.44485e-20)
(-0.0157886 0.0211812 1.88679e-19)
(0.00556458 0.0207337 -1.67947e-19)
(0.0433603 0.0184733 3.04323e-20)
(0.0985772 0.0159493 -7.83115e-20)
(0.172052 0.0144397 -1.00279e-19)
(0.264052 0.0149813 5.90179e-20)
(0.373695 0.0183373 2.18441e-20)
(0.498353 0.0249336 3.44252e-19)
(0.633144 0.0345842 1.45186e-19)
(0.771344 0.0471288 1.60317e-19)
(0.904156 0.0594543 4.22764e-19)
(1.02659 0.075721 -1.24766e-19)
(1.11932 0.0793932 2.25891e-19)
(-0.0121877 0.0086419 -1.65175e-19)
(-0.0194841 0.0166283 3.5604e-19)
(-0.0100209 0.0193858 1.0077e-19)
(0.0165957 0.0187775 4.47448e-19)
(0.0611812 0.0167147 1.04936e-19)
(0.124567 0.0148022 -3.76775e-19)
(0.207289 0.0143573 1.62302e-19)
(0.309058 0.0164209 3.61585e-19)
(0.428099 0.0216863 -3.26046e-19)
(0.560559 0.0304001 -8.15036e-20)
(0.700189 0.0420918 -5.47114e-21)
(0.839074 0.0561743 -1.7933e-19)
(0.968175 0.0695612 -2.425e-19)
(1.08213 0.085291 2.30387e-19)
(1.16663 0.0892212 8.53562e-20)
(-0.0117938 0.00804789 -5.65005e-20)
(-0.0167084 0.0150174 -1.98642e-19)
(-0.00309664 0.0172721 2.819e-19)
(0.0292901 0.0165586 -1.97732e-19)
(0.081172 0.0148393 4.94763e-20)
(0.153173 0.0137614 -4.49081e-21)
(0.245416 0.0146603 2.29357e-19)
(0.356899 0.0185428 -2.87241e-19)
(0.48477 0.0259733 7.64416e-19)
(0.623812 0.0369458 1.58346e-19)
(0.766442 0.0506475 -1.4495e-19)
(0.903848 0.066063 1.21889e-20)
(1.02717 0.0801653 -3.93758e-20)
(1.13141 0.0951306 4.97572e-20)
(1.2067 0.0990577 -3.22056e-19)
(-0.0111642 0.00734336 3.5572e-20)
(-0.01321 0.0131665 -2.33963e-19)
(0.00505698 0.0148996 -2.18841e-19)
(0.0437337 0.0141603 -1.34305e-19)
(0.103408 0.0129542 -2.3294e-19)
(0.184418 0.012956 -1.1637e-19)
(0.286346 0.0154897 -3.32745e-19)
(0.407301 0.0214783 1.15356e-19)
(0.543182 0.031287 -5.40858e-19)
(0.687336 0.0445813 -1.04753e-19)
(0.830987 0.0601657 -3.88664e-19)
(0.964827 0.0766345 2.76633e-19)
(1.08063 0.0910685 2.18757e-19)
(1.17436 0.105053 8.88178e-22)
(1.24 0.108687 5.13865e-19)
(-0.0102834 0.00654318 2.84369e-20)
(-0.00894179 0.0111181 2.35572e-19)
(0.0145115 0.0123385 3.46831e-19)
(0.0600066 0.0116808 4.50572e-20)
(0.127949 0.0111845 -1.69631e-19)
(0.218295 0.0125311 1.49095e-19)
(0.329938 0.0169946 1.57033e-20)
(0.459917 0.0253526 -1.58865e-19)
(0.602738 0.0376916 -1.32883e-19)
(0.750326 0.0532803 -1.30488e-19)
(0.892973 0.0705281 3.26918e-19)
(1.02135 0.0877138 2.1336e-19)
(1.1283 0.102092 -2.50219e-19)
(1.21116 0.114901 1.85616e-19)
(1.26714 0.11798 1.92371e-20)
(-0.00913471 0.00566279 7.48316e-20)
(-0.00385637 0.00891885 -5.16465e-19)
(0.0253353 0.00966807 -3.62065e-19)
(0.0781794 0.00923062 -2.09663e-20)
(0.154833 0.00966792 7.84905e-20)
(0.254757 0.0126406 1.99269e-19)
(0.375989 0.0193229 -6.9047e-20)
(0.514323 0.0302736 1.30824e-19)
(0.662782 0.0452186 3.20082e-19)
(0.811987 0.0629793 1.13589e-19)
(0.951662 0.0815926 1.19705e-19)
(1.07295 0.0991258 -5.08717e-20)
(1.17014 0.113083 -1.33009e-19)
(1.24214 0.124556 -4.30361e-19)
(1.28882 0.126872 -2.17898e-20)
(-0.00770041 0.00471809 -2.76557e-19)
(0.00209324 0.00661898 5.64974e-19)
(0.0375922 0.00697418 -1.06559e-19)
(0.0983088 0.00692923 -3.37113e-20)
(0.184071 0.00854972 -1.15345e-19)
(0.293706 0.0134394 -2.17982e-19)
(0.424226 0.0226114 1.51094e-19)
(0.570024 0.0363227 -2.74083e-19)
(0.722624 0.0538622 -1.08527e-19)
(0.871569 0.0735819 -7.76599e-20)
(1.00646 0.0932052 -2.43253e-19)
(1.11937 0.110709 5.34086e-20)
(1.20628 0.123922 1.68553e-19)
(1.26774 0.133939 2.34043e-20)
(1.30574 0.135347 -3.40505e-19)
(-0.00596151 0.00372543 7.32533e-20)
(0.00895293 0.00427163 3.77704e-20)
(0.0513384 0.00434796 6.96113e-19)
(0.120433 0.00490146 3.06972e-19)
(0.215636 0.00797752 1.32771e-19)
(0.334991 0.0150766 2.23916e-20)
(0.474309 0.0269774 -3.99105e-19)
(0.62647 0.0435484 4.48608e-19)
(0.781572 0.0635802 2.37266e-20)
(0.928408 0.0849676 1.00626e-19)
(1.05692 0.105211 -9.18072e-20)
(1.16052 0.122323 -2.78438e-19)
(1.23702 0.134524 -4.08143e-19)
(1.28852 0.143006 5.32109e-19)
(1.31861 0.143421 7.24513e-20)
(-0.00389812 0.00270176 -4.10108e-21)
(0.0167662 0.00193248 -2.72805e-19)
(0.0666201 0.00188404 -2.60763e-19)
(0.144568 0.00327454 -2.17302e-19)
(0.249463 0.00809626 1.47964e-19)
(0.378404 0.0176884 -9.13978e-20)
(0.525836 0.0325126 2.91416e-19)
(0.683072 0.051964 -2.26999e-19)
(0.83896 0.074298 7.92794e-20)
(0.981946 0.0970014 -1.67839e-19)
(1.10278 0.117465 3.61946e-20)
(1.19649 0.133856 -1.17776e-19)
(1.26274 0.144833 1.11355e-19)
(1.30503 0.151743 -3.05944e-19)
(1.32808 0.151131 -1.08854e-19)
(-0.00148997 0.00166492 -3.91886e-19)
(0.0255729 -0.000340383 3.48385e-19)
(0.0834709 -0.000320585 -4.21704e-20)
(0.170703 0.00217536 1.55898e-19)
(0.285443 0.0090438 -2.45369e-19)
(0.423679 0.0213934 2.16894e-19)
(0.578352 0.0392788 -2.4834e-19)
(0.739233 0.0615481 -1.4638e-19)
(0.894184 0.0859164 4.40504e-20)
(1.03176 0.109545 -1.3105e-19)
(1.14391 0.129838 -1.87657e-19)
(1.2275 0.145223 5.18712e-19)
(1.28392 0.154823 -6.3455e-20)
(1.31784 0.160161 3.28329e-19)
(1.33474 0.15853 -7.48745e-20)
(0.00128296 0.000633886 7.32054e-20)
(0.0354072 -0.00248652 -5.67195e-20)
(0.101909 -0.00216766 -3.45749e-19)
(0.198797 0.00172806 -4.91245e-20)
(0.323425 0.0109473 4.25022e-19)
(0.470499 0.0262879 -2.97102e-19)
(0.631368 0.0473064 4.36384e-19)
(0.794365 0.0722487 -2.22301e-19)
(0.946722 0.0983198 2.71614e-19)
(1.07755 0.122465 2.06659e-19)
(1.18035 0.142224 -1.33774e-19)
(1.25384 0.156366 -1.99974e-19)
(1.30103 0.16449 2.23054e-19)
(1.32747 0.168286 -2.42043e-19)
(1.33908 0.16567 -1.27057e-19)
(0.00443966 -0.00037092 2.71442e-19)
(0.0462961 -0.00444309 -4.35427e-20)
(0.121935 -0.00355854 1.88588e-19)
(0.228779 0.00205195 -2.28989e-19)
(0.363209 0.0139201 -5.23184e-19)
(0.5185 0.0324438 7.64722e-20)
(0.684375 0.0565953 -1.20288e-19)
(0.847921 0.0839893 4.01625e-19)
(0.996147 0.111386 -1.31098e-19)
(1.11915 0.135638 5.13628e-21)
(1.21221 0.154539 1.77026e-19)
(1.27588 0.167253 1.44825e-19)
(1.31455 0.173846 -3.40584e-19)
(1.33442 0.176153 1.99026e-19)
(1.34155 0.172609 2.28679e-19)
(0.00799726 -0.00132743 -1.17737e-19)
(0.0582576 -0.00614499 -5.81279e-20)
(0.143528 -0.004395 -1.78003e-19)
(0.260546 0.00325966 1.17884e-19)
(0.404557 0.0180595 2.40294e-19)
(0.567289 0.0399077 -2.46866e-20)
(0.736866 0.0671173 2.23599e-19)
(0.89941 0.0966752 -2.28402e-19)
(1.04214 0.124991 2.43032e-19)
(1.15652 0.14896 -2.5633e-19)
(1.23972 0.16672 2.80185e-19)
(1.29403 0.177872 -2.61545e-19)
(1.32496 0.182918 -8.86342e-20)
(1.33912 0.183804 9.31218e-20)
(1.3425 0.179397 3.02114e-20)
(0.0119703 -0.00221181 9.01897e-20)
(0.071299 -0.00752499 -1.03784e-20)
(0.166649 -0.00458024 -2.336e-19)
(0.293959 0.00545547 1.76624e-19)
(0.447195 0.0234447 7.19982e-20)
(0.616447 0.0487005 6.94252e-20)
(0.788354 0.0788205 -7.2135e-20)
(0.948413 0.110201 -5.0852e-20)
(1.08449 0.13902 -4.23427e-19)
(1.1897 0.162341 2.57856e-19)
(1.26314 0.178727 -1.64595e-19)
(1.30868 0.188227 -3.40053e-20)
(1.33269 0.191739 5.36674e-19)
(1.34195 0.191282 -4.11719e-19)
(1.34222 0.186081 -2.81772e-19)
(0.01637 -0.0029985 -1.57846e-20)
(0.0854159 -0.00851416 1.3537e-19)
(0.191234 -0.00401984 2.23199e-19)
(0.328851 0.00873367 -2.9031e-20)
(0.490817 0.0301363 -1.6317e-19)
(0.665549 0.0588189 1.68036e-19)
(0.838385 0.0916338 -1.71796e-19)
(0.994589 0.124456 -9.60456e-20)
(1.12308 0.153365 2.8033e-19)
(1.21882 0.175712 1.95069e-19)
(1.2828 0.190536 3.31915e-20)
(1.32024 0.198332 1.3796e-19)
(1.33813 0.200347 -2.79721e-19)
(1.34323 0.198627 1.79124e-19)
(1.34096 0.192699 3.18238e-19)
(0.0212034 -0.00366031 -5.5548e-20)
(0.100591 -0.00904255 -3.73504e-19)
(0.217197 -0.00262309 -2.35393e-19)
(0.365025 0.013177 -2.357e-19)
(0.535095 0.0381747 -1.58341e-19)
(0.714174 0.0702378 8.16192e-20)
(0.886553 0.105472 2.99674e-19)
(1.03768 0.139331 -1.0017e-19)
(1.15787 0.167932 1.71618e-19)
(1.24406 0.189018 -2.82301e-20)
(1.29902 0.202139 4.38869e-20)
(1.32908 0.208212 -7.69208e-20)
(1.34162 0.208781 2.89581e-20)
(1.34322 0.205877 -4.21488e-20)
(1.33889 0.199285 -1.14992e-19)
(0.0264731 -0.00416868 8.92104e-20)
(0.116792 -0.00903997 3.95588e-19)
(0.24443 -0.000304287 -8.19557e-20)
(0.402259 0.0188553 1.89998e-19)
(0.579686 0.0475809 3.69795e-20)
(0.761916 0.0829126 2.80924e-20)
(0.932509 0.120242 -1.44209e-19)
(1.07751 0.15472 1.67009e-19)
(1.18891 0.182642 -2.46711e-19)
(1.26566 0.202223 -1.30898e-19)
(1.31214 0.213538 -4.41216e-20)
(1.33555 0.217894 -3.08772e-20)
(1.34346 0.217076 -1.13119e-19)
(1.34215 0.213064 -1.53224e-20)
(1.33615 0.205862 5.46863e-20)
(0.0321767 -0.00449404 -2.82191e-20)
(0.133973 -0.00843708 1.79965e-20)
(0.272802 0.00301567 2.2567e-19)
(0.440309 0.0258242 2.17932e-19)
(0.624242 0.0583564 9.004e-20)
(0.808398 0.0967825 -1.57756e-19)
(0.975963 0.135842 5.13926e-20)
(1.11397 0.170525 1.33274e-19)
(1.2163 0.197427 -1.98081e-20)
(1.28386 0.215301 2.48524e-20)
(1.32247 0.224742 5.06703e-20)
(1.33996 0.227408 1.41892e-20)
(1.3439 0.225268 -1.11256e-19)
(1.34018 0.220216 -4.1912e-21)
(1.33285 0.212449 1.21975e-19)
(0.0383062 -0.00460621 1.84976e-20)
(0.152073 -0.00716656 -7.59948e-20)
(0.302162 0.00740776 -1.2912e-19)
(0.478913 0.0341239 -2.58677e-19)
(0.668417 0.0704843 -2.74723e-20)
(0.853275 0.111774 1.23631e-19)
(1.01669 0.152173 -6.3382e-20)
(1.14701 0.186655 -1.64748e-19)
(1.24017 0.212233 -1.51676e-19)
(1.29894 0.228238 7.04371e-20)
(1.33032 0.235768 -3.84781e-20)
(1.34258 0.236785 -1.79682e-19)
(1.34315 0.233385 1.72609e-19)
(1.33746 0.227353 1.71496e-19)
(1.32907 0.219059 -8.32278e-20)
(0.044848 -0.00447494 8.14891e-21)
(0.171019 -0.00516439 -1.50238e-19)
(0.332343 0.0129333 6.54004e-20)