/*--------------------------------*- C++ -*----------------------------------*\
  =========                 |
  \\      /  F ield         | OpenFOAM: The Open Source CFD Toolbox
   \\    /   O peration     | Website:  https://openfoam.org
    \\  /    A nd           | Version:  7
     \\/     M anipulation  |
\*---------------------------------------------------------------------------*/
FoamFile
{
    version     2.0;
    format      ascii;
    class       surfaceScalarField;
    location    "260";
    object      phi;
}
// * * * * * * * * * * * * * * * * * * * * * * * * * * * * * * * * * * * * * //

dimensions      [0 3 -1 0 0 0 0];

internalField   nonuniform List<scalar> 
8927
(
0.00141583
0.00517666
-0.00518152
0.00144173
0.000819323
-0.000845223
0.00146555
-0.0033062
0.00328238
0.00146742
-0.00699436
0.00699249
0.00145139
-0.00969951
0.00971554
0.00143345
-0.0110467
0.0110647
0.00142416
-0.0104069
0.0104162
0.00142245
-0.00754578
0.00754749
0.00142338
-0.00355052
0.0035496
0.00141888
0.00177865
-0.00177415
0.00140939
0.00625522
-0.00624573
0.00139977
0.0100931
-0.0100835
0.00139462
0.0113235
-0.0113183
0.00138853
0.00947545
-0.00946937
0.00137718
0.00632362
-0.00631227
0.00135884
-0.000470494
0.000488841
0.00134209
-0.00493459
0.00495134
0.00133007
-0.0101379
0.01015
0.00132433
-0.0114809
0.0114866
0.00131207
-0.0075228
0.00753505
0.00129127
-0.00558568
0.00560648
0.00126682
0.00461044
-0.004586
0.00713057
-0.00711632
0.00141644
0.00517436
0.00144037
0.000795397
0.00146299
-0.00332882
0.00146389
-0.00699526
0.00144706
-0.00968268
0.00142904
-0.0110287
0.00142078
-0.0103987
0.00142056
-0.00754556
0.00142304
-0.003553
0.00142001
0.00178168
0.00141192
0.0062633
0.00140332
0.0101017
0.00139804
0.0113287
0.00139118
0.00948231
0.00137833
0.00633647
0.00135844
-0.000450604
0.00134036
-0.00491651
0.00132728
-0.0101249
0.00132202
-0.0114756
0.00131047
-0.00751124
0.00129122
-0.00556643
0.00126834
0.00463332
0.00714482
0.00141695
0.00517468
0.00143888
0.000773467
0.00146032
-0.00335026
0.0014603
-0.00699524
0.00144269
-0.00966507
0.00142456
-0.0110106
0.00141731
-0.0103914
0.00141858
-0.00754683
0.00142264
-0.00355707
0.00142112
0.00178321
0.00141446
0.00626996
0.00140686
0.0101093
0.00140145
0.0113341
0.00139384
0.00948992
0.00137952
0.00635079
0.00135812
-0.000429205
0.00133871
-0.00489709
0.00132456
-0.0101107
0.0013198
-0.0114709
0.00130896
-0.0075004
0.00129131
-0.00554878
0.00127001
0.00465462
0.00715906
0.00141734
0.00517768
0.00143725
0.000753558
0.00145755
-0.00337056
0.00145667
-0.00699437
0.00143829
-0.00964669
0.00142002
-0.0109923
0.00141373
-0.0103852
0.00141649
-0.00754959
0.00142218
-0.00356275
0.0014222
0.00178318
0.00141699
0.00627517
0.00141039
0.0101159
0.00140485
0.0113397
0.00139649
0.00949829
0.00138073
0.00636655
0.00135785
-0.000406331
0.00133714
-0.00487638
0.00132193
-0.0100955
0.00131767
-0.0114666
0.00130756
-0.0074903
0.00129151
-0.00553273
0.0012718
0.00467433
0.00717329
0.00141764
0.00518342
0.0014355
0.000735697
0.00145469
-0.00338975
0.001453
-0.00699268
0.00143386
-0.00962755
0.00141541
-0.0109738
0.00141006
-0.0103798
0.0014143
-0.00755383
0.00142164
-0.00357009
0.00142326
0.00178156
0.00141952
0.00627892
0.00141392
0.0101215
0.00140824
0.0113454
0.00139914
0.00950739
0.00138197
0.00638372
0.00135766
-0.000382015
0.00133566
-0.00485439
0.00131938
-0.0100792
0.00131561
-0.0114628
0.00130627
-0.00748095
0.00129185
-0.00551831
0.00127374
0.00469244
0.0071875
0.00141785
0.00519194
0.00143363
0.000719916
0.00145173
-0.00340785
0.00144928
-0.00699023
0.0014294
-0.00960766
0.00141073
-0.0109552
0.00140628
-0.0103754
0.00141201
-0.00755957
0.00142104
-0.00357912
0.00142429
0.00177831
0.00142203
0.00628118
0.00141743
0.0101261
0.0014116
0.0113512
0.00140178
0.00951722
0.00138325
0.00640225
0.00135753
-0.000356296
0.00133427
-0.00483113
0.00131693
-0.0100619
0.00131365
-0.0114596
0.00130507
-0.00747238
0.0012923
-0.00550553
0.0012758
0.00470893
0.00720169
0.00141798
0.0052033
0.00143165
0.000706251
0.00144868
-0.00342489
0.00144553
-0.00698707
0.00142491
-0.00958705
0.001406
-0.0109363
0.0014024
-0.0103718
0.00140962
-0.00756679
0.00142036
-0.00358986
0.00142529
0.00177338
0.00142453
0.00628193
0.00142093
0.0101297
0.00141495
0.0113572
0.00140442
0.00952775
0.00138455
0.00642212
0.00135747
-0.000329209
0.00133297
-0.00480664
0.00131456
-0.0100435
0.00131177
-0.0114568
0.00130399
-0.00746459
0.00129287
-0.00549441
0.001278
0.0047238
0.00721585
0.00141804
0.00521756
0.00142955
0.00069474
0.00144554
-0.00344089
0.00144173
-0.00698326
0.0014204
-0.00956572
0.0014012
-0.010917
0.00139842
-0.010369
0.00140712
-0.00757549
0.0014196
-0.00360234
0.00142624
0.00176674
0.00142701
0.00628116
0.0014244
0.0101323
0.00141827
0.0113633
0.00140705
0.00953897
0.00138589
0.00644329
0.00135747
-0.000300795
0.00133176
-0.00478093
0.00131228
-0.010024
0.00130998
-0.0114545
0.001303
-0.00745761
0.00129356
-0.00548497
0.00128032
0.00473704
0.00722996
0.00141803
0.00523477
0.00142734
0.000685427
0.00144231
-0.00345586
0.0014379
-0.00697885
0.00141587
-0.00954369
0.00139634
-0.0108975
0.00139433
-0.010367
0.00140451
-0.00758567
0.00141877
-0.0036166
0.00142716
0.00175835
0.00142947
0.00627885
0.00142785
0.0101339
0.00142156
0.0113696
0.00140967
0.00955086
0.00138726
0.00646571
0.00135755
-0.000271093
0.00133065
-0.00475403
0.0013101
-0.0100034
0.00130827
-0.0114526
0.00130212
-0.00745145
0.00129436
-0.00547722
0.00128278
0.00474862
0.00724401
0.00141797
0.00525498
0.00142504
0.000678356
0.00143899
-0.00346981
0.00143402
-0.00697388
0.00141132
-0.00952098
0.00139142
-0.0108776
0.00139014
-0.0103657
0.00140179
-0.00759731
0.00141786
-0.00363266
0.00142803
0.00174818
0.0014319
0.00627498
0.00143127
0.0101345
0.00142483
0.011376
0.00141229
0.0095634
0.00138865
0.00648934
0.0013577
-0.000240143
0.00132964
-0.00472597
0.00130802
-0.00998182
0.00130666
-0.0114513
0.00130133
-0.00744613
0.00129528
-0.00547117
0.00128535
0.00475855
0.007258
0.00141786
0.00527823
0.00142263
0.000673577
0.00143558
-0.00348275
0.00143011
-0.00696841
0.00140674
-0.00949761
0.00138645
-0.0108573
0.00138585
-0.0103651
0.00139896
-0.00761043
0.00141686
-0.00365056
0.00142885
0.00173619
0.0014343
0.00626953
0.00143466
0.0101342
0.00142806
0.0113826
0.00141489
0.00957658
0.00139008
0.00651415
0.00135792
-0.000207988
0.00132872
-0.00469677
0.00130603
-0.00995912
0.00130513
-0.0114504
0.00130065
-0.00744165
0.0012963
-0.00546682
0.00128805
0.00476681
0.0072719
0.0014177
0.00530459
0.00142014
0.000671142
0.00143208
-0.00349469
0.00142616
-0.0069625
0.00140216
-0.0094736
0.00138143
-0.0108366
0.00138146
-0.0103651
0.00139602
-0.00762499
0.00141577
-0.00367031
0.00142962
0.00172234
0.00143666
0.00626249
0.00143801
0.0101328
0.00143126
0.0113894
0.00141747
0.00959037
0.00139153
0.00654009
0.00135821
-0.000174671
0.00132791
-0.00466646
0.00130414
-0.00993535
0.00130368
-0.0114499
0.00130007
-0.00743803
0.00129744
-0.00546419
0.00129086
0.00477339
0.00728571
0.00141752
0.00533409
0.00141756
0.000671107
0.00142849
-0.00350563
0.00142218
-0.00695619
0.00139756
-0.00944898
0.00137635
-0.0108154
0.00137696
-0.0103657
0.00139296
-0.00764099
0.00141459
-0.00369193
0.00143033
0.00170659
0.00143897
0.00625385
0.00144133
0.0101305
0.00143442
0.0113963
0.00142004
0.00960476
0.00139301
0.00656712
0.00135858
-0.000140238
0.00132719
-0.00463508
0.00130235
-0.00991051
0.00130233
-0.0114499
0.00129958
-0.00743528
0.00129868
-0.00546329
0.00129379
0.00477827
0.00729942
0.00141731
0.00536677
0.00141489
0.000673528
0.00142481
-0.00351555
0.00141815
-0.00694952
0.00139294
-0.00942378
0.00137122
-0.0107937
0.00137235
-0.0103669
0.00138979
-0.00765842
0.00141332
-0.00371546
0.00143098
0.00168893
0.00144125
0.00624358
0.00144459
0.0101271
0.00143755
0.0114033
0.00142258
0.00961972
0.00139452
0.00659519
0.00135901
-0.000104733
0.00132658
-0.00460265
0.00130066
-0.00988458
0.00130106
-0.0114503
0.00129919
-0.00743342
0.00130002
-0.00546412
0.00129684
0.00478145
0.00731299
0.00141709
0.00540268
0.00141215
0.000678468
0.00142104
-0.00352444
0.00141408
-0.00694256
0.00138832
-0.00939802
0.00136604
-0.0107714
0.00136765
-0.0103685
0.00138649
-0.00767727
0.00141194
-0.00374092
0.00143156
0.00166931
0.00144346
0.00623167
0.00144781
0.0101228
0.00144062
0.0114105
0.00142511
0.00963523
0.00139604
0.00662425
0.00135951
-6.82038e-05
0.00132607
-0.00456921
0.00129907
-0.00985757
0.00129988
-0.0114511
0.0012989
-0.00743244
0.00130146
-0.00546667
0.0013
0.00478291
0.00732642
0.00141685
0.00544186
0.00140933
0.000685987
0.00141719
-0.0035323
0.00140997
-0.00693534
0.00138368
-0.00937173
0.00136082
-0.0107485
0.00136284
-0.0103705
0.00138307
-0.0076975
0.00141047
-0.00376831
0.00143207
0.00164771
0.00144563
0.00621812
0.00145098
0.0101174
0.00144366
0.0114178
0.00142761
0.00965128
0.00139759
0.00665427
0.00136009
-3.0698e-05
0.00132567
-0.00453479
0.00129758
-0.00982949
0.00129879
-0.0114523
0.00129871
-0.00743237
0.001303
-0.00547096
0.00130327
0.00478265
0.00733969
0.00141661
0.00548433
0.00140645
0.000696152
0.00141324
-0.0035391
0.00140581
-0.0069279
0.00137903
-0.00934496
0.00135556
-0.0107251
0.00135793
-0.0103729
0.00137954
-0.0077191
0.00140889
-0.00379766
0.0014325
0.0016241
0.00144773
0.00620289
0.00145409
0.0101111
0.00144664
0.0114253
0.00143008
0.00966783
0.00139916
0.00668518
0.00136073
7.73501e-06
0.00132537
-0.00449942
0.0012962
-0.00980032
0.00129778
-0.0114539
0.00129861
-0.0074332
0.00130464
-0.00547699
0.00130664
0.00478064
0.00735277
0.00141637
0.00553012
0.0014035
0.000709027
0.00140921
-0.0035448
0.0014016
-0.0069203
0.00137438
-0.00931773
0.00135025
-0.0107009
0.00135292
-0.0103755
0.00137587
-0.00774205
0.0014072
-0.00382899
0.00143286
0.00159844
0.00144976
0.00618599
0.00145713
0.0101037
0.00144957
0.0114329
0.00143253
0.00968488
0.00140075
0.00671696
0.00136144
4.70452e-05
0.00132517
-0.00446315
0.00129492
-0.00977007
0.00129686
-0.0114558
0.0012986
-0.00743494
0.00130636
-0.00548475
0.00131012
0.00477688
0.00736565
0.00141615
0.00557927
0.00140049
0.00072468
0.00140508
-0.00354939
0.00139735
-0.00691257
0.00136971
-0.00929009
0.00134491
-0.0106761
0.00134781
-0.0103784
0.00137209
-0.00776633
0.0014054
-0.0038623
0.00143313
0.00157071
0.00145173
0.00616738
0.00146012
0.0100953
0.00145245
0.0114405
0.00143494
0.00970239
0.00140236
0.00674954
0.00136222
8.71812e-05
0.00132508
-0.00442601
0.00129375
-0.00973874
0.00129602
-0.0114581
0.00129869
-0.00743761
0.00130818
-0.00549424
0.0013137
0.00477136
0.0073783
0.00141593
0.00563178
0.00139743
0.000743177
0.00140087
-0.00355282
0.00139304
-0.00690475
0.00136504
-0.00926209
0.00133953
-0.0106506
0.00134261
-0.0103815
0.00136817
-0.00779189
0.00140348
-0.00389761
0.0014333
0.00154089
0.00145362
0.00614707
0.00146304
0.0100859
0.00145527
0.0114483
0.00143731
0.00972035
0.00140397
0.00678287
0.00136306
0.000128091
0.00132509
-0.00438804
0.00129268
-0.00970633
0.00129527
-0.0114607
0.00129886
-0.0074412
0.00131008
-0.00550546
0.00131738
0.00476407
0.0073907
0.00141574
0.00568767
0.00139433
0.000764588
0.00139656
-0.00355506
0.00138868
-0.00689687
0.00136035
-0.00923376
0.00133411
-0.0106244
0.0013373
-0.0103847
0.00136413
-0.00781872
0.00140144
-0.00393492
0.00143339
0.00150895
0.00145543
0.00612503
0.00146588
0.0100754
0.00145803
0.0114561
0.00143965
0.00973874
0.0014056
0.00681692
0.00136397
0.000169722
0.00132521
-0.00434929
0.00129172
-0.00967284
0.00129461
-0.0114636
0.00129913
-0.00744571
0.00131207
-0.00551841
0.00132115
0.00475498
0.00740283
0.00141557
0.00574695
0.00139117
0.000788979
0.00139217
-0.00355605
0.00138426
-0.00688897
0.00135566
-0.00920516
0.00132867
-0.0105974
0.0013319
-0.0103879
0.00135996
-0.00784678
0.00139928
-0.00397425
0.00143337
0.00147486
0.00145715
0.00610125
0.00146865
0.0100639
0.00146073
0.0114641
0.00144194
0.00975752
0.00140723
0.00685163
0.00136494
0.000212019
0.00132544
-0.00430979
0.00129087
-0.00963827
0.00129403
-0.0114668
0.00129948
-0.00745116
0.00131414
-0.00553307
0.00132502
0.0047441
0.00741466
0.00141542
0.00580963
0.00138798
0.000816416
0.00138768
-0.00355575
0.00137978
-0.00688107
0.00135095
-0.00917633
0.0013232
-0.0105696
0.0013264
-0.0103911
0.00135565
-0.00787603
0.00139699
-0.00401559
0.00143325
0.0014386
0.00145878
0.00607571
0.00147134
0.0100514
0.00146336
0.0114721
0.00144419
0.00977669
0.00140887
0.00688694
0.00136596
0.000254928
0.00132577
-0.00426959
0.00129013
-0.00960263
0.00129353
-0.0114702
0.00129992
-0.00745755
0.00131629
-0.00554944
0.00132898
0.00473141
0.00742616
0.00141531
0.00587569
0.00138476
0.000846965
0.00138311
-0.0035541
0.00137524
-0.00687319
0.00134624
-0.00914733
0.0013177
-0.0105411
0.00132081
-0.0103943
0.00135122
-0.00790643
0.00139457
-0.00405894
0.00143301
0.00140016
0.00146032
0.0060484
0.00147395
0.0100377
0.00146592
0.0114801
0.00144639
0.00979622
0.00141052
0.00692282
0.00136705
0.000298393
0.0013262
-0.00422874
0.00128949
-0.00956592
0.00129312
-0.0114738
0.00130044
-0.00746487
0.00131851
-0.00556752
0.00133303
0.00471689
0.00743731
0.00141523
0.00594513
0.00138151
0.000880689
0.00137845
-0.00355104
0.00137062
-0.00686536
0.0013415
-0.00911821
0.00131217
-0.0105118
0.00131513
-0.0103972
0.00134665
-0.00793795
0.00139202
-0.00410431
0.00143267
0.00135951
0.00146176
0.00601931
0.00147647
0.010023
0.00146842
0.0114881
0.00144855
0.00981609
0.00141216
0.00695921
0.00136819
0.000342359
0.00132674
-0.00418728
0.00128897
-0.00952815
0.00129279
-0.0114776
0.00130105
-0.00747312
0.00132081
-0.00558728
0.00133716
0.00470055
0.00744807
0.00141519
0.00601793
0.00137823
0.00091765
0.0013737
-0.00354651
0.00136593
-0.0068576
0.00133676
-0.00908904
0.00130662
-0.0104816
0.00130937
-0.0104
0.00134195
-0.00797053
0.00138933
-0.00415168
0.0014322
0.00131664
0.0014631
0.00598841
0.0014789
0.0100072
0.00147084
0.0114962
0.00145065
0.00983628
0.0014138
0.00699606
0.00136939
0.000386768
0.00132738
-0.00414527
0.00128855
-0.00948933
0.00129254
-0.0114816
0.00130173
-0.00748231
0.00132318
-0.00560873
0.00134137
0.00468236
0.00745843
0.00141519
0.00609406
0.00137493
0.000957905
0.00136886
-0.00354044
0.00136117
-0.00684991
0.00133199
-0.00905986
0.00130106
-0.0104507
0.00130351
-0.0104024
0.00133712
-0.00800414
0.0013865
-0.00420107
0.00143161
0.00127152
0.00146433
0.0059557
0.00148124
0.0099903
0.00147318
0.0115043
0.00145269
0.00985677
0.00141543
0.00703332
0.00137063
0.000431563
0.00132812
-0.00410276
0.00128824
-0.00944945
0.00129238
-0.0114857
0.0013025
-0.00749244
0.00132562
-0.00563184
0.00134566
0.00466232
0.00746835
0.00141522
0.0061735
0.00137161
0.00100151
0.00136393
-0.00353276
0.00135632
-0.0068423
0.00132721
-0.00903075
0.00129547
-0.010419
0.00129757
-0.0104045
0.00133215
-0.00803872
0.00138353
-0.00425245
0.0014309
0.00122415
0.00146544
0.00592116
0.00148348
0.00997226
0.00147544
0.0115123
0.00145468
0.00987754
0.00141705
0.00707095
0.00137192
0.000476687
0.00132895
-0.00405979
0.00128804
-0.00940854
0.00129229
-0.01149
0.00130335
-0.00750349
0.00132812
-0.00565662
0.00135003
0.00464041
0.00747779
0.00141529
0.00625619
0.00136829
0.00104852
0.00135892
-0.00352339
0.00135139
-0.00683477
0.0013224
-0.00900175
0.00128987
-0.0103864
0.00129155
-0.0104062
0.00132705
-0.00807422
0.00138042
-0.00430582
0.00143005
0.00117451
0.00146644
0.00588477
0.00148562
0.00995308
0.00147763
0.0115203
0.0014566
0.00989857
0.00141866
0.00710889
0.00137326
0.000522081
0.00132989
-0.00401642
0.00128796
-0.00936661
0.00129229
-0.0114943
0.00130427
-0.00751548
0.00133069
-0.00568304
0.00135447
0.00461663
0.00748674
0.00141541
0.0063421
0.00136495
0.00109897
0.00135382
-0.00351226
0.00134638
-0.00682733
0.00131756
-0.00897293
0.00128426
-0.0103531
0.00128545
-0.0104074
0.00132181
-0.00811058
0.00137716
-0.00436117
0.00142907
0.00112259
0.00146732
0.00584652
0.00148766
0.00993275
0.00147973
0.0115282
0.00145846
0.00991984
0.00142025
0.00714711
0.00137464
0.000567687
0.00133093
-0.00397271
0.00128798
-0.00932366
0.00129237
-0.0114987
0.00130527
-0.00752838
0.00133332
-0.00571109
0.00135899
0.00459096
0.00749515
0.00141556
0.00643117
0.00136161
0.00115292
0.00134864
-0.00349928
0.00134127
-0.00681996
0.00131269
-0.00894435
0.00127864
-0.0103191
0.00127927
-0.010408
0.00131643
-0.00814774
0.00137375
-0.00441848
0.00142796
0.00106838
0.00146808
0.00580639
0.00148959
0.00991124
0.00148175
0.0115361
0.00146026
0.00994133
0.00142182
0.00718555
0.00137606
0.000613447
0.00133205
-0.0039287
0.00128811
-0.00927971
0.00129252
-0.0115031
0.00130634
-0.0075422
0.00133601
-0.00574076
0.00136357
0.0045634
0.00750299
0.00141575
0.00652333
0.00135828
0.0012104
0.00134338
-0.00348438
0.00133607
-0.00681265
0.0013078
-0.00891608
0.001273
-0.0102843
0.00127302
-0.010408
0.00131092
-0.00818565
0.00137019
-0.00447775
0.0014267
0.00101187
0.00146871
0.00576438
0.00149142
0.00988853
0.00148368
0.0115438
0.00146198
0.00996303
0.00142337
0.00722416
0.00137751
0.000659304
0.00133328
-0.00388447
0.00128835
-0.00923478
0.00129275
-0.0115075
0.00130748
-0.00755692
0.00133875
-0.00577204
0.00136821
0.00453394
0.00751023
0.00141598
0.00661851
0.00135494
0.00127143
0.00133803
-0.00346747
0.00133077
-0.00680539
0.00130286
-0.00888817
0.00126736
-0.0102488
0.00126669
-0.0104074
0.00130528
-0.00822424
0.00136648
-0.00453895
0.00142531
0.000953052
0.00146922
0.00572047
0.00149313
0.00986462
0.00148552
0.0115514
0.00146364
0.00998491
0.00142489
0.00726291
0.001379
0.000705198
0.00133459
-0.00384006
0.0012887
-0.00918889
0.00129306
-0.0115119
0.00130869
-0.00757255
0.00134155
-0.0058049
0.00137292
0.00450257
0.00751683
0.00141624
0.00671663
0.00135162
0.00133606
0.00133261
-0.00344846
0.00132537
-0.00679815
0.00129788
-0.00886069
0.0012617
-0.0102126
0.0012603
-0.010406
0.0012995
-0.00826344
0.00136262
-0.00460208
0.00142377
0.000891911
0.00146959
0.00567464
0.00149473
0.00983948
0.00148727
0.0115589
0.00146522
0.010007
0.00142639
0.00730174
0.00138051
0.000751072
0.00133599
-0.00379554
0.00128916
-0.00914206
0.00129344
-0.0115162
0.00130996
-0.00758907
0.0013444
-0.00583934
0.00137769
0.00446928
0.00752277
0.00141654
0.0068176
0.0013483
0.0014043
0.0013271
-0.00342726
0.00131986
-0.0067909
0.00129286
-0.0088337
0.00125604
-0.0101758
0.00125385
-0.0104038
0.00129359
-0.00830318
0.00135861
-0.0046671
0.00142208
0.000828441
0.00146983
0.00562689
0.00149622
0.0098131
0.00148893
0.0115662
0.00146673
0.0100292
0.00142785
0.00734062
0.00138205
0.000796869
0.00133748
-0.00375096
0.00128973
-0.00909431
0.0012939
-0.0115203
0.00131129
-0.00760646
0.00134729
-0.00587534
0.00138251
0.00443406
0.007528
0.00141687
0.00692132
0.001345
0.00147618
0.00132153
-0.00340379
0.00131424
-0.00678362
0.00128779
-0.00880725
0.00125037
-0.0101384
0.00124733
-0.0104007
0.00128754
-0.00834339
0.00135445
-0.004734
0.00142026
0.000762629
0.00146995
0.0055772
0.00149759
0.00978546
0.00149049
0.0115733
0.00146816
0.0100515
0.00142928
0.0073795
0.00138361
0.000842534
0.00133905
-0.00370639
0.0012904
-0.00904567
0.00129443
-0.0115244
0.00131269
-0.00762472
0.00135023
-0.00591288
0.00138739
0.00439691
0.00753249
0.00141725
0.00702768
0.00134172
0.0015517
0.00131588
-0.00337795
0.00130852
-0.00677625
0.00128267
-0.0087814
0.0012447
-0.0101004
0.00124075
-0.0103968
0.00128136
-0.008384
0.00135012
-0.00480277
0.00141829
0.000694458
0.00146993
0.00552556
0.00149885
0.00975654
0.00149197
0.0115802
0.00146952
0.0100739
0.00143067
0.00741835
0.00138519
0.000888011
0.0013407
-0.0036619
0.00129119
-0.00899616
0.00129503
-0.0115282
0.00131414
-0.00764383
0.00135322
-0.00595196
0.00139231
0.00435782
0.0075362
0.00141769
0.00713658
0.00133849
0.0016309
0.00131016
-0.00334962
0.00130267
-0.00676876
0.00127747
-0.00875621
0.001239
-0.0100619
0.00123411
-0.0103919
0.00127503
-0.00842492
0.00134563
-0.00487337
0.00141618
0.000623905
0.0014698
0.00547195
0.0015
0.00972634
0.00149336
0.0115868
0.0014708
0.0100965
0.00143203
0.00745712
0.00138679
0.000933247
0.00134243
-0.00361753
0.00129208
-0.00894582
0.00129571
-0.0115318
0.00131565
-0.00766378
0.00135625
-0.00599255
0.00139729
0.00431678
0.00753909
0.00141816
0.00724793
0.00133525
0.00171381
0.00130434
-0.00331871
0.00129668
-0.0067611
0.00127221
-0.00873174
0.0012333
-0.010023
0.00122743
-0.010386
0.00126859
-0.00846609
0.001341
-0.00494578
0.00141395
0.000550952
0.00146956
0.00541635
0.00150106
0.00969484
0.00149466
0.0115932
0.00147201
0.0101191
0.00143334
0.00749579
0.00138839
0.000978195
0.00134423
-0.00357336
0.00129308
-0.00889467
0.00129645
-0.0115352
0.00131722
-0.00768455
0.00135931
-0.00603465
0.0014023
0.00427379
0.00754114
0.00141808
0.00736187
0.00133137
0.00180052
0.00129805
-0.00328539
0.0012904
-0.00675345
0.00126691
-0.00870825
0.00122769
-0.00998379
0.00122091
-0.0103792
0.00126227
-0.00850744
0.00133644
-0.00501996
0.00141181
0.000475585
0.00146935
0.00535881
0.00150212
0.00966206
0.0014959
0.0115994
0.00147311
0.0101419
0.00143457
0.00753433
0.0013898
0.00102297
0.00134618
-0.00352974
0.00129393
-0.00884242
0.00129743
-0.0115387
0.00131869
-0.00770581
0.00136244
-0.0060784
0.00140743
0.0042288
0.00754235
0.00467154
0.00743088
0.00468998
0.00178208
0.0048054
-0.00340082
0.00489578
-0.00684383
0.00486035
-0.00867282
0.00470926
-0.00983269
0.00459211
-0.0102621
0.00456601
-0.00848134
0.00460851
-0.00506245
0.00466379
0.000420308
0.0047035
0.0053191
0.00473058
0.00963498
0.00470929
0.0116207
0.00469039
0.0101608
0.00466165
0.00756306
0.00459801
0.00108661
0.00451909
-0.00345082
0.00433844
-0.00866176
0.00431175
-0.011512
0.00430251
-0.00769657
0.0043922
-0.00616809
0.00450937
0.00411163
0.00755561
0.00486453
0.00750973
0.0048756
0.00177101
0.00498384
-0.00350905
0.00507532
-0.00693531
0.00503894
-0.00863644
0.00487374
-0.0096675
0.00473837
-0.0101267
0.00470445
-0.00844743
0.00475255
-0.00511054
0.00481964
0.000353211
0.00486688
0.00527186
0.00489975
0.00960211
0.00487099
0.0116495
0.0048496
0.0101822
0.00482266
0.00759
0.00476314
0.00114612
0.00468772
-0.00337539
0.00449067
-0.00846472
0.00445446
-0.0114758
0.00444389
-0.007686
0.00454252
-0.00626672
0.00467924
0.00397491
0.00756685
0.00508113
0.00759091
0.00508002
0.00177212
0.00517829
-0.00360732
0.00526652
-0.00702354
0.00522794
-0.00859786
0.00504813
-0.00948769
0.00489263
-0.0099712
0.00484937
-0.00840417
0.00490323
-0.00516441
0.00498339
0.000273045
0.00503876
0.0052165
0.00507602
0.00956485
0.00504089
0.0116846
0.00501547
0.0102076
0.00499209
0.00761338
0.00493882
0.0011994
0.00486707
-0.00330365
0.00465446
-0.00825211
0.00460567
-0.011427
0.00459468
-0.00767501
0.00469994
-0.00637198
0.00485558
0.00381927
0.00757336
0.00531773
0.00767253
0.005305
0.00178485
0.00538844
-0.00369076
0.00546956
-0.00710466
0.00542761
-0.00855591
0.00523289
-0.00929297
0.0050554
-0.00979371
0.00500072
-0.00834949
0.0050602
-0.00522388
0.00515512
0.000178126
0.00521968
0.00515193
0.00526201
0.00952253
0.00521993
0.0117267
0.00518942
0.0102382
0.00516997
0.00763283
0.00512445
0.00124491
0.00505841
-0.0032376
0.0048302
-0.0080239
0.00476648
-0.0113633
0.00475425
-0.00766278
0.00486513
-0.00648286
0.00504033
0.00364407
0.00757411
0.00557534
0.00775169
0.00555064
0.00180956
0.00561526
-0.00375538
0.00568496
-0.00717436
0.00563813
-0.00850908
0.00542837
-0.00908321
0.00522729
-0.00959262
0.00515888
-0.00828109
0.00522343
-0.00528843
0.00533475
6.68069e-05
0.00541002
0.00507666
0.00545833
0.00947422
0.00540895
0.0117761
0.00537199
0.0102751
0.0053567
0.00764812
0.00532049
0.00128111
0.00526241
-0.00317951
0.00501875
-0.00778024
0.00493749
-0.011282
0.00492299
-0.00764828
0.00503835
-0.00659823
0.00523354
0.00344888
0.00756798
0.00585426
0.00782532
0.00581737
0.00184645
0.00585955
-0.00379757
0.00591314
-0.00722795
0.00585952
-0.00845546
0.00563481
-0.0088585
0.00540882
-0.00936664
0.00532417
-0.00819644
0.00539288
-0.00535714
0.00552231
-6.26234e-05
0.0056101
0.00498887
0.00566553
0.00941879
0.00560875
0.0118328
0.00556395
0.0103199
0.00555296
0.00765912
0.00552744
0.00130663
0.00547966
-0.00313174
0.00522094
-0.00752152
0.00511929
-0.0111804
0.00510127
-0.00763026
0.00521987
-0.00671682
0.00543521
0.00323354
0.00755377
0.006154
0.00789048
0.0061053
0.00189515
0.0061218
-0.00381406
0.0061544
-0.00726054
0.00609166
-0.00839273
0.00585227
-0.00861911
0.00560045
-0.00911482
0.00549694
-0.00809292
0.00556849
-0.00542869
0.00571774
-0.000211878
0.0058202
0.00488641
0.00588412
0.00935487
0.00582023
0.0118967
0.00576637
0.0103738
0.00575962
0.00766587
0.00574587
0.00132037
0.00571071
-0.00309657
0.00543756
-0.00724837
0.00531243
-0.0110552
0.00528944
-0.00760727
0.00540993
-0.00683731
0.00564529
0.00299818
0.00753031
0.00647355
0.00794423
0.006414
0.0019547
0.00640218
-0.00380224
0.00640885
-0.00726722
0.00633427
-0.00831815
0.00608065
-0.00836549
0.00580259
-0.00883675
0.0056776
-0.00796794
0.00575018
-0.00550126
0.00592084
-0.000382541
0.00604045
0.0047668
0.00611459
0.00928073
0.00604442
0.0119669
0.00598059
0.0104376
0.00597781
0.00766864
0.00597648
0.00132171
0.00595602
-0.00307612
0.00566936
-0.0069617
0.00551746
-0.0109033
0.00548776
-0.00757756
0.00560874
-0.00695829
0.0058637
0.00274321
0.00749645
0.00681132
0.00798357
0.00674242
0.0020236
0.00670038
-0.0037602
0.00667637
-0.00724321
0.00658689
-0.00822867
0.00631964
-0.00809824
0.00601552
-0.00853264
0.00586663
-0.00781905
0.00593789
-0.00557252
0.00613126
-0.000575906
0.00627084
0.00462722
0.00635738
0.00919419
0.00628248
0.0120418
0.00620829
0.0105118
0.00620903
0.0076679
0.00622007
0.00131068
0.006216
-0.00307205
0.005917
-0.00666271
0.00573484
-0.0107212
0.00569642
-0.00753914
0.00581649
-0.00707836
0.0060903
0.0024694
0.00745109
0.00716517
0.00800557
0.00708898
0.00209979
0.0070156
-0.00368681
0.00695655
-0.00718416
0.00684885
-0.00812097
0.00656869
-0.00781808
0.00623942
-0.00820336
0.00606451
-0.00764414
0.0061316
-0.00563961
0.00634848
-0.000792783
0.00651112
0.00446457
0.00661278
0.00909253
0.00653564
0.0121189
0.00645151
0.0105959
0.00645516
0.00766425
0.00647762
0.00128821
0.00649092
-0.00308534
0.00618101
-0.0063528
0.00596502
-0.0105052
0.00591554
-0.00748966
0.00603332
-0.00719614
0.0063249
0.00217782
0.00739329
0.00753249
0.00800731
0.00745148
0.00218081
0.00734648
-0.00358181
0.00724861
-0.00708629
0.00711928
-0.00799165
0.00682701
-0.00752581
0.00647425
-0.0078506
0.00627174
-0.00744163
0.0063313
-0.00569917
0.0065718
-0.00103328
0.00676072
0.00427565
0.00688082
0.00897242
0.00680509
0.0121947
0.00671256
0.0106885
0.00671844
0.00765837
0.00675027
0.00125639
0.00678093
-0.003116
0.00646174
-0.0060336
0.00620832
-0.0102518
0.00614507
-0.00742642
0.0062593
-0.00731037
0.00656727
0.00186986
0.00732227
0.00791024
0.00798598
0.00782719
0.00226386
0.00769105
-0.00344567
0.00755137
-0.00694662
0.00739708
-0.00783735
0.00709357
-0.00722229
0.00671977
-0.0074768
0.00648881
-0.00721067
0.00653703
-0.0057474
0.00680029
-0.00129654
0.00701866
0.00405728
0.00716119
0.00882989
0.00709186
0.012264
0.00699388
0.0107864
0.00700142
0.00765084
0.00703926
0.00121854
0.007086
-0.00316274
0.00675931
-0.00570692
0.006465
-0.00995746
0.00638488
-0.0073463
0.0064944
-0.00741988
0.00681709
0.00154716
0.00723743
0.00829505
0.00793885
0.00821282
0.00234609
0.00804675
-0.0032796
0.00786323
-0.0067631
0.00768092
-0.00765504
0.00736709
-0.00690846
0.00697546
-0.00708518
0.00671613
-0.00695134
0.00674888
-0.00578015
0.00703283
-0.00158049
0.00728353
0.00380659
0.00745311
0.00866031
0.0073966
0.0123205
0.00729776
0.0108853
0.0073067
0.0076419
0.00734588
0.00117936
0.0074058
-0.00322266
0.00707354
-0.00537465
0.00673517
-0.0096191
0.00663466
-0.00724579
0.0067384
-0.00752363
0.00707399
0.00121158
0.00713841
0.00868319
0.00786349
0.00860471
0.00242457
0.00841045
-0.00308534
0.00818212
-0.00653477
0.00796924
-0.00744216
0.0076461
-0.00658533