/*--------------------------------*- C++ -*----------------------------------*\
  =========                 |
  \\      /  F ield         | OpenFOAM: The Open Source CFD Toolbox
   \\    /   O peration     | Website:  https://openfoam.org
    \\  /    A nd           | Version:  7
     \\/     M anipulation  |
\*---------------------------------------------------------------------------*/
FoamFile
{
    version     2.0;
    format      ascii;
    class       volScalarField;
    location    "300";
    object      p;
}
// * * * * * * * * * * * * * * * * * * * * * * * * * * * * * * * * * * * * * //

dimensions      [0 2 -2 0 0 0 0];

internalField   nonuniform List<scalar> 
36600
(
-0.387466
-0.388393
-0.388901
-0.389271
-0.389559
-0.389824
-0.39014
-0.390574
-0.391177
-0.391991
-0.393047
-0.394373
-0.395998
-0.397956
-0.400295
-0.403071
-0.406358
-0.410261
-0.414792
-0.420043
-0.386476
-0.387626
-0.388255
-0.388723
-0.389093
-0.389424
-0.389794
-0.390266
-0.390891
-0.391707
-0.392742
-0.394018
-0.39556
-0.397397
-0.399568
-0.402123
-0.405128
-0.408676
-0.412768
-0.417496
-0.38552
-0.386891
-0.387638
-0.388202
-0.388652
-0.389049
-0.389469
-0.389977
-0.390622
-0.391436
-0.392445
-0.393665
-0.395117
-0.396822
-0.398814
-0.401133
-0.403837
-0.407008
-0.410631
-0.414796
-0.384616
-0.386202
-0.387065
-0.387722
-0.388251
-0.388711
-0.38918
-0.389723
-0.390384
-0.391195
-0.392173
-0.393333
-0.394688
-0.396254
-0.398055
-0.400125
-0.402511
-0.405286
-0.408415
-0.411985
-0.383781
-0.385576
-0.386551
-0.387298
-0.387904
-0.388425
-0.388942
-0.389518
-0.390194
-0.390997
-0.391943
-0.393039
-0.394291
-0.395711
-0.397314
-0.399124
-0.40118
-0.403543
-0.406158
-0.409103
-0.383034
-0.385029
-0.38611
-0.386945
-0.387624
-0.388205
-0.388769
-0.389376
-0.390066
-0.390861
-0.391771
-0.3928
-0.393947
-0.395215
-0.396613
-0.398154
-0.399868
-0.401807
-0.403892
-0.406192
-0.382392
-0.384575
-0.385758
-0.386676
-0.387425
-0.388065
-0.388675
-0.389312
-0.390015
-0.3908
-0.391674
-0.392633
-0.393672
-0.394785
-0.395972
-0.397238
-0.398602
-0.400108
-0.401651
-0.403291
-0.381871
-0.38423
-0.385509
-0.386505
-0.387322
-0.388018
-0.388672
-0.38934
-0.390054
-0.39083
-0.391666
-0.392555
-0.393484
-0.394439
-0.395411
-0.396397
-0.397405
-0.398474
-0.399467
-0.400437
-0.381487
-0.384008
-0.385375
-0.386445
-0.387327
-0.388076
-0.388774
-0.389471
-0.390197
-0.390963
-0.391762
-0.39258
-0.393397
-0.394193
-0.394949
-0.39565
-0.3963
-0.396928
-0.397368
-0.397664
-0.381256
-0.383922
-0.385369
-0.386508
-0.387451
-0.388252
-0.388991
-0.389717
-0.390456
-0.391211
-0.391974
-0.392722
-0.393428
-0.394063
-0.3946
-0.395017
-0.395305
-0.395492
-0.395379
-0.395001
-0.381189
-0.383984
-0.385502
-0.386704
-0.387704
-0.388555
-0.389335
-0.39009
-0.39084
-0.391587
-0.392313
-0.392991
-0.393587
-0.394062
-0.394381
-0.394511
-0.394438
-0.394185
-0.393522
-0.392474
-0.381299
-0.384203
-0.385784
-0.387043
-0.388095
-0.388994
-0.389813
-0.390596
-0.391359
-0.392098
-0.392789
-0.3934
-0.393886
-0.394201
-0.394303
-0.394146
-0.393712
-0.393023
-0.391814
-0.390103
-0.381596
-0.384589
-0.386222
-0.387531
-0.388633
-0.389576
-0.390434
-0.391245
-0.392021
-0.392752
-0.393411
-0.393955
-0.394333
-0.394491
-0.394376
-0.393933
-0.393139
-0.392017
-0.390269
-0.387901
-0.382088
-0.385148
-0.386824
-0.388176
-0.389321
-0.390306
-0.391201
-0.39204
-0.392829
-0.393555
-0.394183
-0.394663
-0.394936
-0.394939
-0.394608
-0.393881
-0.392728
-0.391176
-0.388896
-0.385878
-0.38278
-0.385885
-0.387594
-0.388981
-0.390165
-0.391189
-0.392119
-0.392985
-0.393789
-0.394511
-0.39511
-0.395529
-0.3957
-0.39555
-0.395006
-0.393996
-0.392484
-0.390505
-0.3877
-0.384037
-0.383676
-0.386802
-0.388532
-0.389948
-0.391166
-0.392224
-0.393188
-0.394081
-0.3949
-0.39562
-0.396193
-0.396554
-0.396627
-0.396328
-0.395573
-0.394281
-0.392411
-0.390008
-0.386682
-0.382374
-0.384775
-0.3879
-0.38964
-0.391077
-0.392322
-0.393412
-0.394407
-0.395327
-0.396163
-0.396882
-0.397432
-0.397739
-0.397717
-0.397272
-0.396309
-0.394738
-0.39251
-0.389682
-0.385842
-0.380882
-0.386077
-0.389177
-0.390915
-0.392364
-0.393631
-0.394749
-0.395774
-0.396719
-0.397572
-0.398293
-0.398823
-0.39908
-0.398968
-0.398382
-0.397215
-0.395367
-0.39278
-0.389527
-0.385175
-0.379549
-0.387577
-0.390628
-0.392354
-0.393805
-0.395089
-0.39623
-0.397282
-0.398252
-0.399122
-0.399847
-0.40036
-0.40057
-0.400373
-0.399652
-0.398287
-0.396163
-0.393217
-0.389537
-0.384676
-0.378359
-0.389269
-0.392248
-0.393949
-0.395395
-0.396687
-0.397848
-0.398923
-0.399917
-0.400805
-0.401535
-0.402033
-0.402203
-0.401926
-0.401075
-0.399517
-0.397123
-0.393818
-0.389705
-0.384339
-0.377293
-0.391143
-0.394027
-0.395692
-0.397123
-0.398417
-0.399593
-0.400688
-0.401704
-0.402608
-0.403345
-0.403833
-0.403964
-0.403614
-0.40264
-0.400895
-0.398237
-0.394574
-0.390024
-0.384159
-0.376331
-0.393187
-0.395956
-0.397573
-0.398981
-0.400269
-0.401454
-0.402565
-0.4036
-0.40452
-0.405264
-0.405742
-0.405841
-0.405422
-0.404332
-0.402409
-0.399493
-0.395474
-0.390484
-0.384131
-0.375455
-0.39539
-0.398022
-0.39958
-0.400955
-0.40223
-0.403417
-0.40454
-0.405589
-0.406524
-0.407274
-0.407744
-0.407813
-0.407332
-0.406133
-0.40404
-0.400875
-0.396505
-0.39107
-0.384254
-0.374657
-0.397736
-0.400213
-0.401701
-0.403034
-0.404287
-0.405468
-0.406597
-0.407657
-0.408602
-0.409357
-0.40982
-0.40986
-0.409321
-0.40802
-0.405765
-0.402362
-0.397648
-0.391763
-0.384521
-0.373876
-0.400209
-0.402514
-0.403922
-0.405202
-0.406424
-0.407592
-0.40872
-0.409784
-0.410735
-0.411491
-0.411945
-0.411958
-0.411363
-0.409967
-0.40756
-0.403929
-0.39888
-0.392545
-0.384913
-0.372916
-0.402791
-0.404909
-0.406227
-0.407446
-0.408627
-0.409773
-0.410891
-0.411953
-0.412903
-0.413656
-0.414097
-0.414081
-0.413432
-0.411944
-0.409393
-0.405547
-0.400176
-0.393399
-0.385429
-0.37178
-0.405465
-0.407384
-0.408602
-0.409749
-0.41088
-0.411994
-0.413092
-0.414143
-0.415084
-0.415827
-0.41625
-0.416201
-0.415497
-0.413919
-0.411231
-0.40718
-0.401507
-0.394287
-0.385906
-0.371271
-0.408213
-0.409923
-0.411032
-0.412098
-0.413168
-0.414239
-0.415307
-0.416335
-0.417259
-0.417981
-0.418378
-0.41829
-0.417526
-0.415859
-0.413037
-0.408792
-0.402839
-0.395202
-0.386218
-0.37086
-0.411017
-0.41251
-0.413502
-0.414477
-0.415475
-0.416492
-0.417518
-0.418512
-0.419405
-0.420097
-0.420456
-0.420321
-0.419491
-0.417729
-0.414776
-0.410344
-0.404127
-0.396102
-0.38661
-0.370322
-0.413861
-0.415131
-0.415999
-0.416874
-0.417789
-0.418739
-0.419709
-0.420656
-0.421504
-0.422152
-0.422463
-0.422267
-0.421361
-0.419498
-0.416413
-0.411797
-0.40533
-0.396934
-0.38705
-0.369705
-0.416727
-0.417773
-0.418511
-0.419276
-0.420096
-0.420966
-0.421866
-0.42275
-0.42354
-0.424128
-0.424375
-0.424106
-0.423111
-0.421139
-0.41791
-0.413115
-0.406411
-0.397656
-0.387459
-0.369013
-0.419604
-0.420424
-0.421027
-0.421673
-0.422387
-0.423162
-0.423978
-0.424783
-0.425497
-0.426009
-0.426176
-0.425818
-0.42472
-0.422626
-0.419246
-0.414269
-0.407334
-0.398234
-0.387781
-0.36823
-0.422477
-0.423074
-0.423536
-0.424055
-0.424651
-0.425318
-0.426033
-0.426744
-0.427365
-0.427783
-0.427852
-0.427388
-0.426171
-0.42394
-0.4204
-0.415234
-0.408072
-0.398641
-0.387966
-0.367347
-0.425337
-0.425715
-0.426033
-0.426416
-0.426882
-0.427427
-0.428024
-0.428626
-0.429135
-0.429441
-0.429394
-0.428807
-0.427454
-0.425072
-0.421359
-0.415998
-0.40861
-0.398865
-0.38797
-0.366368
-0.428176
-0.428341
-0.428512
-0.428751
-0.429077
-0.429486
-0.429952
-0.430421
-0.430802
-0.430979
-0.430798
-0.430069
-0.428564
-0.426015
-0.422119
-0.416557
-0.40894
-0.398908
-0.387772
-0.365335
-0.43099
-0.430949
-0.430969
-0.431059
-0.431232
-0.431492
-0.43181
-0.432132
-0.432367
-0.432396
-0.432063
-0.431176
-0.429502
-0.426774
-0.422684
-0.416916
-0.409068
-0.39879
-0.387363
-0.364323
-0.433776
-0.433536
-0.433405
-0.433337
-0.43335
-0.433446
-0.433602
-0.43376
-0.433832
-0.433696
-0.433194
-0.432132
-0.430276
-0.427356
-0.423065
-0.417092
-0.40901
-0.39854
-0.386693
-0.363274
-0.436535
-0.436105
-0.435821
-0.43559
-0.435431
-0.435353
-0.435332
-0.435312
-0.435205
-0.434888
-0.434201
-0.432949
-0.430897
-0.427775
-0.42328
-0.417108
-0.408809
-0.398231
-0.385642
-0.361744
-0.439271
-0.438658
-0.43822
-0.437821
-0.437483
-0.437219
-0.437007
-0.436795
-0.436494
-0.435981
-0.435095
-0.433639
-0.431379
-0.428047
-0.423348
-0.416997
-0.40854
-0.398035
-0.384357
-0.359939
-0.441989
-0.441201
-0.440608
-0.440037
-0.439511
-0.439051
-0.438638
-0.43822
-0.437712
-0.43699
-0.435891
-0.434218
-0.431738
-0.428188
-0.423286
-0.416777
-0.408251
-0.398089
-0.383825
-0.362834
-0.444698
-0.443742
-0.442994
-0.442245
-0.441525
-0.44086
-0.440235
-0.439602
-0.438874
-0.43793
-0.436607
-0.434705
-0.431994
-0.428216
-0.423106
-0.41645
-0.407898
-0.398155
-0.38471
-0.378946
-0.447408
-0.446289
-0.445385
-0.444455
-0.443535
-0.442659
-0.441813
-0.440954
-0.439997
-0.43882
-0.43726
-0.435118
-0.432163
-0.428145
-0.422816
-0.416002
-0.407416
-0.397992
-0.385167
-0.382667
-0.450131
-0.448854
-0.447792
-0.446678
-0.445554
-0.444459
-0.443386
-0.442292
-0.441097
-0.439677
-0.43787
-0.435474
-0.432261
-0.427989
-0.422423
-0.415423
-0.406754
-0.397435
-0.384883
-0.38237
-0.452883
-0.451448
-0.450227
-0.448927
-0.447594
-0.446276
-0.444969
-0.443634
-0.442193
-0.440521
-0.438454
-0.435792
-0.432306
-0.427759
-0.421932
-0.414709
-0.405892
-0.396485
-0.383985
-0.380473
-0.455676
-0.454084
-0.452703
-0.451213
-0.449668
-0.448123
-0.446578
-0.444997
-0.443301
-0.441368
-0.439031
-0.436088
-0.432309
-0.427466
-0.421348
-0.413859
-0.404826
-0.395179
-0.382572
-0.37761
-0.458527
-0.456775
-0.455231
-0.45355
-0.451791
-0.450015
-0.448228
-0.446396
-0.44444
-0.442237
-0.439617
-0.436375
-0.432285
-0.427118
-0.420677
-0.412876
-0.403564
-0.393568
-0.380747
-0.374229
-0.461451
-0.459535
-0.457825
-0.45595
-0.453975
-0.451967
-0.449935
-0.447847
-0.445625
-0.443141
-0.440225
-0.436668
-0.432241
-0.426723
-0.419924
-0.411768
-0.402121
-0.391705
-0.37861
-0.370611
-0.464464
-0.462376
-0.460497
-0.458426
-0.456233
-0.453992
-0.451713
-0.449365
-0.446869
-0.444096
-0.440867
-0.436974
-0.432186
-0.426286
-0.419095
-0.410542
-0.400516
-0.389638
-0.376245
-0.366922
-0.46758
-0.465311
-0.46326
-0.46099
-0.458578
-0.456102
-0.453574
-0.450963
-0.448186
-0.44511
-0.441553
-0.4373
-0.432124
-0.425811
-0.418193
-0.409209
-0.39877
-0.387413
-0.373717
-0.363253
-0.470812
-0.468353
-0.466125
-0.463654
-0.461021
-0.458309
-0.45553
-0.452651
-0.449585
-0.446193
-0.442288
-0.437652
-0.432057
-0.425299
-0.417222
-0.407779
-0.396902
-0.385067
-0.371076
-0.359655
-0.474174
-0.471512
-0.469102
-0.466428
-0.463573
-0.460624
-0.457592
-0.454439
-0.451074
-0.44735
-0.443076
-0.438029
-0.431986
-0.424751
-0.416187
-0.40626
-0.394932
-0.382629
-0.36836
-0.356147
-0.477676
-0.474798
-0.4722
-0.46932
-0.466243
-0.463056
-0.459766
-0.456333
-0.452657
-0.448584
-0.443917
-0.438431
-0.431908
-0.424167
-0.415088
-0.40466
-0.392875
-0.380123
-0.365595
-0.352737
-0.481327
-0.478218
-0.475429
-0.47234
-0.469037
-0.46561
-0.46206
-0.458338
-0.454337
-0.449896
-0.444809
-0.438854
-0.431821
-0.423543
-0.413928
-0.402986
-0.390743
-0.377565
-0.3628
-0.349419
-0.485134
-0.481781
-0.478793
-0.475493
-0.471963
-0.468293
-0.464476
-0.460456
-0.456115
-0.451282
-0.445748
-0.439293
-0.431717
-0.422877
-0.412707
-0.401244
-0.388548
-0.374968
-0.359985
-0.346182
-0.489103
-0.485489
-0.482298
-0.478783
-0.475025
-0.471108
-0.467018
-0.462688
-0.457988
-0.452739
-0.446727
-0.439739
-0.43159
-0.422164
-0.411424
-0.399437
-0.386296
-0.372339
-0.357156
-0.343013
-0.493236
-0.489348
-0.485948
-0.482215
-0.478225
-0.474057
-0.469685
-0.46503
-0.45995
-0.454257
-0.447736
-0.440182
-0.431432
-0.421398
-0.410077
-0.397568
-0.383992
-0.369682
-0.354315
-0.339897
-0.497534
-0.493358
-0.489744
-0.485791
-0.481564
-0.477139
-0.472476
-0.467479
-0.461995
-0.455828
-0.448765
-0.440612
-0.431233
-0.420572
-0.408665
-0.395637
-0.38164
-0.366999
-0.351462
-0.336818
-0.501996
-0.497519
-0.493687
-0.489509
-0.485042
-0.480353
-0.475385
-0.470027
-0.464112
-0.457439
-0.449798
-0.441016
-0.430983
-0.419681
-0.407183
-0.393645
-0.37924
-0.364288
-0.348592
-0.333761
-0.506618
-0.501829
-0.497773
-0.493368
-0.488657
-0.483694
-0.478406
-0.472665
-0.46629
-0.459076
-0.450823
-0.44138
-0.430671
-0.418717
-0.405628
-0.391588
-0.376791
-0.361545
-0.345702
-0.33071
-0.511395
-0.506282
-0.502001
-0.497364
-0.492403
-0.487157
-0.481532
-0.475381
-0.468514
-0.460723
-0.451823
-0.441689
-0.430284
-0.417671
-0.403995
-0.389464
-0.374289
-0.358767
-0.342784
-0.327652
-0.516319
-0.510874
-0.506363
-0.501493
-0.496274
-0.490732
-0.484749
-0.478162
-0.470768
-0.462363
-0.45278
-0.441928
-0.429812
-0.416535
-0.402278
-0.387269
-0.371731
-0.355947
-0.339831
-0.324573
-0.521381
-0.515596
-0.510854
-0.505745
-0.500262
-0.494409
-0.488047
-0.480991
-0.473033
-0.463976
-0.453677
-0.442083
-0.429242
-0.415301
-0.400471
-0.384998
-0.369112
-0.353079
-0.336836
-0.321462
-0.526567
-0.520437
-0.515462
-0.510113
-0.504356
-0.498176
-0.491407
-0.483849
-0.475288
-0.465541
-0.454493
-0.442135
-0.428562
-0.413959
-0.398567
-0.382645
-0.366424
-0.350155
-0.33379
-0.318306
-0.531864
-0.525386
-0.520177
-0.514583
-0.508542
-0.502016
-0.494813
-0.486717
-0.477513
-0.467036
-0.45521
-0.44207
-0.427758
-0.412499
-0.396558
-0.380202
-0.363662
-0.347167
-0.330684
-0.315094
-0.537256
-0.530427
-0.524985
-0.519142
-0.512806
-0.505913
-0.498244
-0.48957
-0.479683
-0.46844
-0.455808
-0.441871
-0.42682
-0.410914
-0.394438
-0.377664
-0.360817
-0.344107
-0.32751
-0.311817
-0.542722
-0.535544
-0.52987
-0.523774
-0.517129
-0.509845
-0.501677
-0.492385
-0.481772
-0.469729
-0.456266
-0.441522
-0.425733
-0.409191
-0.392196
-0.37502
-0.357881
-0.340966
-0.324258
-0.308464
-0.548242
-0.540718
-0.534812
-0.528458
-0.52149
-0.513789
-0.505086
-0.495135
-0.483756
-0.470878
-0.456565
-0.441007
-0.424486
-0.407322
-0.389825
-0.372264
-0.354846
-0.337733
-0.32092
-0.305027
-0.553793
-0.545926
-0.539791
-0.533174
-0.525866
-0.51772
-0.508443
-0.497791
-0.485607
-0.471864
-0.456683
-0.44031
-0.423066
-0.405296
-0.387316
-0.369386
-0.351701
-0.334401
-0.317486
-0.301495
-0.559349
-0.551146
-0.544784
-0.537896
-0.53023
-0.521608
-0.511719
-0.500323
-0.487295
-0.472662
-0.456602
-0.439415
-0.421461
-0.403102
-0.384657
-0.366376
-0.348437
-0.33096
-0.313948
-0.29786
-0.564882
-0.556352
-0.549765
-0.5426
-0.534556
-0.525426
-0.514883
-0.5027
-0.488794
-0.473247
-0.456301
-0.438306
-0.419658
-0.400731
-0.38184
-0.363225
-0.345045
-0.3274
-0.310295
-0.294114
-0.570362
-0.561516
-0.554707
-0.547256
-0.538812
-0.52914
-0.517902
-0.504893
-0.490076
-0.473598
-0.455762
-0.43697
-0.417644
-0.39817
-0.378855
-0.359922
-0.341515
-0.323712
-0.30652
-0.290249
-0.575757
-0.566607
-0.559578
-0.551833
-0.542966
-0.532716
-0.520743
-0.506869
-0.491113
-0.473689
-0.454966
-0.435391
-0.415409
-0.39541
-0.375691
-0.356459
-0.337838
-0.319886
-0.302614
-0.286257
-0.581032
-0.571591
-0.564347
-0.556296
-0.546982
-0.536119
-0.523369
-0.508594
-0.491876
-0.473499
-0.453896
-0.433554
-0.412939
-0.392439
-0.372338
-0.352824
-0.334003
-0.315913
-0.298567
-0.28213
-0.58615
-0.576435
-0.568977
-0.56061
-0.550823
-0.53931
-0.525746
-0.510037
-0.492337
-0.473005
-0.452532
-0.431444
-0.410222
-0.389246
-0.368785
-0.349008
-0.33
-0.311785
-0.294373
-0.277861
-0.591073
-0.581101
-0.573432
-0.564738
-0.554451
-0.542251
-0.527835
-0.511166
-0.49247
-0.472185
-0.450858
-0.429049
-0.407246
-0.38582
-0.365022
-0.345
-0.325821
-0.307491
-0.290022
-0.273443
-0.595762
-0.585552
-0.577675
-0.568638
-0.557825
-0.544904
-0.529602
-0.511947
-0.492249
-0.471018
-0.448858
-0.426355
-0.403999
-0.38215
-0.361039
-0.340791
-0.321456
-0.303025
-0.285506
-0.268868
-0.600175
-0.589747
-0.581664
-0.572272
-0.560904
-0.547229
-0.531011
-0.512352
-0.491647
-0.469484
-0.446515
-0.423348
-0.40047
-0.378226
-0.356824
-0.33637
-0.316895
-0.298376
-0.280819
-0.264132
-0.604271
-0.593646
-0.585358
-0.575597
-0.563648
-0.549185
-0.532024
-0.512348
-0.490642
-0.467564
-0.443815
-0.420016
-0.396648
-0.374037
-0.352369
-0.331729
-0.31213
-0.293538
-0.275954
-0.259226
-0.608006
-0.597207
-0.588715
-0.57857
-0.566013
-0.550734
-0.532609
-0.511908
-0.489209
-0.465241
-0.440742
-0.416345
-0.39252
-0.369572
-0.347663
-0.326858
-0.307153
-0.288502
-0.270902
-0.254147
-0.611337
-0.600387
-0.591693
-0.581149
-0.567959
-0.551838
-0.53273
-0.511004
-0.487327
-0.462496
-0.437284
-0.412325
-0.388078
-0.364821
-0.342697
-0.321749
-0.301955
-0.283262
-0.265659
-0.248888
-0.61422
-0.603143
-0.594248
-0.58329
-0.569444
-0.552457
-0.532356
-0.509609
-0.484975
-0.459314
-0.433425
-0.407944
-0.383309
-0.359776
-0.337462
-0.316392
-0.296529
-0.277811
-0.260217
-0.243444
-0.616612
-0.605432
-0.596335
-0.58495
-0.570425
-0.552556
-0.531455
-0.507698
-0.482134
-0.45568
-0.429156
-0.403192
-0.378205
-0.354426
-0.33195
-0.31078
-0.290867
-0.272141
-0.254572
-0.237811
-0.618467
-0.607209
-0.597912
-0.586086
-0.570865
-0.552098
-0.529998
-0.505248
-0.478785
-0.451579
-0.424463
-0.398057
-0.372755
-0.348763
-0.326152
-0.304906
-0.284964
-0.266248
-0.248718
-0.231985
-0.619745
-0.608433
-0.598937
-0.586657
-0.570723
-0.551051
-0.527958
-0.502238
-0.474914
-0.446998
-0.419336
-0.392531
-0.366953
-0.34278
-0.32006
-0.298763
-0.278812
-0.260126
-0.242651
-0.225962
-0.620403
-0.609063
-0.599367
-0.586623
-0.569964
-0.549383
-0.52531
-0.498649
-0.470504
-0.441927
-0.413766
-0.386606
-0.360789
-0.336467
-0.313668
-0.292345
-0.272407
-0.25377
-0.236367
-0.219739
-0.6204
-0.609056
-0.599162
-0.585944
-0.568553
-0.547064
-0.522029
-0.494462
-0.465543
-0.436354
-0.407743
-0.380272
-0.354256
-0.32982
-0.30697
-0.285645
-0.265743
-0.247176
-0.229861
-0.213312
-0.619697
-0.608375
-0.598283
-0.584585
-0.566455
-0.544067
-0.518094
-0.489662
-0.460018
-0.430271
-0.40126
-0.373524
-0.347348
-0.322831
-0.299961
-0.278659
-0.258815
-0.240338
-0.223131
-0.206678
-0.618257
-0.606981
-0.596694
-0.582509
-0.563642
-0.540367
-0.513488
-0.484235
-0.453919
-0.423669
-0.39431
-0.366355
-0.340058
-0.315496
-0.292634
-0.271382
-0.251621
-0.233255
-0.216174
-0.199839
-0.616045
-0.604838
-0.594358
-0.579686
-0.560085
-0.535943
-0.508193
-0.47817
-0.447239
-0.416541
-0.386887
-0.35876
-0.332384
-0.30781
-0.284987
-0.263812
-0.244156
-0.225923
-0.208991
-0.192797
-0.613027
-0.601915
-0.591245
-0.576084
-0.555758
-0.530775
-0.502196
-0.471456
-0.439969
-0.408883
-0.378988
-0.350735
-0.32432
-0.29977
-0.277016
-0.255945
-0.236417
-0.218339
-0.201581
-0.185554
-0.609175
-0.598179
-0.587323
-0.571678
-0.550641
-0.524845
-0.495485
-0.464085
-0.432105
-0.400691
-0.370607
-0.342276
-0.315864
-0.291373
-0.26872
-0.247779
-0.228402
-0.210499
-0.193935
-0.178068
-0.604459
-0.593602
-0.582566
-0.566443
-0.544713
-0.518141
-0.48805
-0.456053
-0.423643
-0.391961
-0.361745
-0.333383
-0.307014
-0.282618
-0.260097
-0.239313
-0.220111
-0.202405
-0.186032
-0.170233
-0.598855
-0.58816
-0.576949
-0.560358
-0.537959
-0.510651
-0.479886
-0.447356
-0.414581
-0.382692
-0.352398
-0.324054
-0.297769
-0.273505
-0.251147
-0.230549
-0.211549
-0.194065
-0.177871
-0.162009
-0.592343
-0.58183
-0.570452
-0.553406
-0.530365
-0.502367
-0.470987
-0.437991
-0.404918
-0.372886
-0.342569
-0.31429
-0.288131
-0.264033
-0.241871
-0.221487
-0.202716
-0.185481
-0.16951
-0.153927
-0.584903
-0.574594
-0.563058
-0.545572
-0.521922
-0.493284
-0.461353
-0.427959
-0.394657
-0.362543
-0.332258
-0.304092
-0.2781
-0.254205
-0.23227
-0.21213
-0.193613
-0.176655
-0.160912
-0.145679
-0.576521
-0.566435
-0.554752
-0.536846
-0.512624
-0.4834
-0.450983
-0.417263
-0.383801
-0.351667
-0.321469
-0.293462
-0.267679
-0.244023
-0.222348
-0.202481
-0.18425
-0.16758
-0.152105
-0.137208
-0.567185
-0.557342
-0.545523
-0.527221
-0.502466
-0.472714
-0.439882
-0.405908
-0.372353
-0.340262
-0.310205
-0.282406
-0.256871
-0.233491
-0.212108
-0.192542
-0.174622
-0.158268
-0.143085
-0.128515
-0.556888
-0.547307
-0.535365
-0.516692
-0.491449
-0.461231
-0.428053
-0.393898
-0.360321
-0.328334
-0.298472
-0.270927
-0.245682
-0.222614
-0.201554
-0.182319
-0.164734
-0.148721
-0.133851
-0.119611
-0.545625
-0.536323
-0.524275
-0.505258
-0.479577
-0.448955
-0.415506
-0.381244
-0.347713
-0.315892
-0.286278
-0.259033
-0.234118
-0.211396
-0.190692
-0.171815
-0.154591
-0.138943
-0.124406
-0.110505
-0.533396
-0.52439
-0.512251
-0.492924
-0.466854
-0.435896
-0.40225
-0.367954
-0.334538
-0.302943
-0.27363
-0.24673
-0.222186
-0.199846
-0.179528
-0.161038
-0.1442
-0.12894
-0.114753
-0.101206
-0.520203
-0.51151
-0.499297
-0.479695
-0.453291
-0.422065
-0.388296
-0.354041
-0.320807
-0.289498
-0.260537
-0.234028
-0.209893
-0.187969
-0.168069
-0.149993
-0.133567
-0.118717
-0.104898
-0.0917204
-0.506052
-0.497689
-0.485422
-0.46558
-0.438898
-0.407476
-0.37366
-0.339519
-0.306534
-0.275569
-0.247012
-0.220937
-0.197249
-0.175776
-0.156324
-0.13869
-0.1227
-0.108281
-0.0948484
-0.0820559
-0.490955
-0.482935
-0.470635
-0.450593
-0.423693
-0.392145
-0.358357
-0.324403
-0.291732
-0.261169
-0.233065
-0.207467
-0.184265
-0.163277
-0.144302
-0.127136
-0.111606
-0.0976405
-0.0846115
-0.0722202
-0.474923
-0.467262
-0.454951
-0.43475
-0.407691
-0.376089
-0.342406
-0.308711
-0.276418
-0.246313
-0.218709
-0.193632
-0.170952
-0.150481
-0.132014
-0.115343
-0.100297
-0.0868046
-0.074196
-0.0622215
-0.457974
-0.450686
-0.438386
-0.41807
-0.390914
-0.359332
-0.325829
-0.29246
-0.260609
-0.231016
-0.20396
-0.179443
-0.157322
-0.137401
-0.119471
-0.10332
-0.088781
-0.0757829
-0.0636116
-0.0520691
-0.440128
-0.433226
-0.420961
-0.400573
-0.373383
-0.341897
-0.308645
-0.27567
-0.244323
-0.215295
-0.188833
-0.164916
-0.14339
-0.12405
-0.106684
-0.0910792
-0.0770706
-0.0645864
-0.0528689
-0.0417732
-0.421408
-0.414904
-0.402699
-0.382285
-0.355126
-0.323808
-0.290876
-0.258368
-0.227581
-0.199168
-0.173345
-0.150067
-0.129169
-0.110441
-0.0936673
-0.0786335
-0.0651776
-0.053227
-0.0419797
-0.0313454
-0.401841
-0.395746
-0.383628
-0.363236
-0.336178
-0.305079
-0.272551
-0.240572
-0.210403
-0.182656
-0.157513
-0.134911
-0.114675
-0.0965884
-0.0804342
-0.0659959
-0.0531152
-0.0417174
-0.030957
-0.0207992
-0.381455
-0.375781
-0.363775
-0.343459
-0.316575
-0.285734
-0.253692
-0.222309
-0.192813
-0.165778
-0.141356
-0.119466
-0.0999235
-0.0825076
-0.066999
-0.0531804
-0.0408972
-0.0300714
-0.0198152
-0.0101502
-0.360282
-0.35504
-0.343174
-0.322982
-0.296289
-0.265858
-0.234334
-0.203605
-0.174834
-0.148556
-0.124894
-0.103751
-0.0849319
-0.0682143
-0.0533767
-0.0402015
-0.028538
-0.0183035
-0.00856989
0.000583106
-0.338354
-0.33356
-0.321861
-0.301832
-0.27541
-0.245438
-0.214505
-0.184487
-0.156492
-0.131013
-0.108148
-0.0877835
-0.0697176
-0.0537248
-0.0395827
-0.027074
-0.0160525
-0.00642896
0.00276182
0.0113795
-0.315707
-0.311376
-0.299875
-0.280037
-0.253973
-0.224512
-0.194237
-0.164983
-0.137811
-0.113173
-0.091139
-0.0715839
-0.0542986
-0.0390558
-0.0256326
-0.0138131
-0.00345607
0.00553679
0.0141615
0.0222123
-0.292379
-0.288528
-0.277232
-0.257666
-0.232007
-0.203118
-0.173561
-0.145125
-0.11882
-0.095059
-0.0738899
-0.0551728
-0.0386938
-0.0242244
-0.0115421
-0.000433615
0.00923653
0.0175784
0.0256087
0.0330461
-0.268403
-0.265064
-0.253992
-0.234746
-0.209549
-0.181293
-0.15251
-0.124941
-0.0995451
-0.0766978
-0.0564235
-0.038571
-0.0229222
-0.00924798
0.00267301
0.0130498
0.0220112
0.0296817
0.0370818
0.0438382
-0.243814
-0.241041
-0.230205
-0.211318
-0.18664
-0.159075
-0.13112
-0.104465
-0.0800162
-0.0581151
-0.0387639
-0.0218005
-0.00700358
0.00585576
0.0169972
0.0266232
0.0348548
0.0418347
0.0485646
0.0545548
-0.218695
-0.216479
-0.205915
-0.187426
-0.163322
-0.136502
-0.109426
-0.083727
-0.0602627
-0.0393382
-0.0209356
-0.00488366
0.00904182
0.0210689
0.0314149
0.040273
0.047755
0.0540305
0.0600538
0.0651675
-0.193144
-0.191382
-0.181162
-0.163116
-0.139638
-0.113615
-0.0874648
-0.062762
-0.0403149
-0.0203946
-0.00296399
0.0121565
0.0251933
0.0363734
0.0459108
0.0539859
0.0607024
0.0662713
0.0715458
0.0755724
-0.167142
-0.165843
-0.155994
-0.138434
-0.11563
-0.0904541
-0.0652734
-0.0416037
-0.0202041
-0.00131282
0.0151248
0.0292962
0.0414294
0.0517506
0.0604694
0.0677505
0.0736978
0.0785784
0.0830043
0.0854906
-0.140735
-0.139921
-0.130462
-0.113426
-0.0913441
-0.067061
-0.0428901
-0.0202869
3.80635e-05
0.0178779
0.0333041
0.0465109
0.057728
0.0671808
0.075074
0.0815579
0.0867569
0.0909951
0.0943869
0.0946721
-0.11398
-0.113663
-0.104614
-0.0881416
-0.0668257
-0.0434777
-0.0203534
0.00115308
0.0203791
0.0371478
0.0515464
0.0637754
0.0740658
0.0826428
0.0897058
0.0953985
0.0998921
0.103535
0.105731
0.103806
-0.0869352
-0.0871228
-0.0785025
-0.0626298
-0.042121
-0.0197471
0.00229736
0.0226803
0.0407861
0.0564667
0.0698238
0.0810638
0.0904188
0.0981133
0.104343
0.109254
0.113073
0.116084
0.116975
0.11571
-0.059652
-0.0603498
-0.0521787
-0.0369399
-0.0172764
0.00408776
0.0250226
0.0442585
0.0612257
0.0758037
0.0881078
0.0983494
0.106762
0.113568
0.118962
0.123097
0.126228
0.128552
0.128695
0.128182
-0.0321867
-0.0333987
-0.0256959
-0.0111227
0.00766065
0.0279833
0.0477824
0.065851
0.0816642
0.0951277
0.106369
0.115605
0.123069
0.128983
0.133539
0.136898
0.139322
0.140941
0.140488
0.140059
-0.00459546
-0.00632412
0.000892722
0.0147711
0.0326427
0.0518956
0.0705364
0.0874209
0.102068
0.114407
0.12458
0.132805
0.139316
0.144334
0.148051
0.150631
0.152335
0.153255
0.152255
0.151606
0.0230654
0.0208191
0.0275334
0.0406905
0.0576223
0.0757808
0.0932445
0.108931
0.122402
0.133611
0.14271
0.14992
0.155475
0.159596
0.162472
0.164271
0.165248
0.165472
0.16392
0.162909
0.0507394
0.0479756
0.0541723
0.0665843
0.0825515
0.0995949
0.115866
0.130345
0.142633
0.152708
0.16073
0.166923
0.171522
0.174745
0.176779
0.177794
0.178039
0.177569
0.175446
0.17399
0.0783701
0.0750898
0.0807555
0.0924013
0.107383
0.123294
0.138361
0.151625
0.162727
0.171666
0.17861
0.183788
0.187432
0.189757
0.19095
0.191181
0.19069
0.189523
0.186815
0.184865
0.105901
0.102106
0.107229
0.118091
0.132069
0.146835
0.160689
0.172734
0.18265
0.190454
0.196323
0.200487
0.203178
0.204609
0.204963
0.204409
0.203182
0.201318
0.198013
0.195539
0.133275
0.128969
0.133539
0.143601
0.156562
0.170173
0.182811
0.193637
0.202367
0.20904
0.213839
0.216994
0.218737
0.219276
0.218795
0.21746
0.215498
0.212936
0.209029
0.206012
0.160437
0.155624
0.159633
0.168883
0.180816
0.193266
0.204686
0.214295
0.221846
0.227394
0.231129
0.233282
0.234082
0.233738
0.232427
0.230314
0.227619
0.224363
0.219853
0.216279
0.18733
0.182015
0.185457
0.193886
0.204784
0.21607
0.226275
0.234674
0.241054
0.245485
0.248165
0.249325
0.249192
0.24797
0.245836
0.242953
0.239531
0.235584
0.230473
0.226335
0.2139
0.208089
0.210959
0.21856
0.22842
0.238545
0.247541
0.254738
0.259956
0.263283
0.264919
0.265097
0.264041
0.261952
0.259005
0.255358
0.251215
0.246586
0.240879
0.236172
0.240092
0.233791
0.236087
0.242858
0.25168
0.260648
0.268443
0.274451
0.278522
0.280758
0.281364
0.280573
0.278606
0.275662
0.271911
0.267511
0.262657
0.257354
0.251059
0.245783
0.265851
0.259069
0.260791
0.26673
0.274518
0.282338
0.288946
0.29378
0.296719
0.29788
0.297473
0.295728
0.292864
0.289079
0.284538
0.279395
0.273841
0.267874
0.261001
0.255156
0.291126
0.283872
0.285021
0.290131
0.296892
0.303576
0.309012
0.31269
0.314517
0.314622
0.313218
0.310537
0.306793
0.302181
0.296864
0.290994
0.284751
0.278134