/*--------------------------------*- C++ -*----------------------------------*\
  =========                 |
  \\      /  F ield         | OpenFOAM: The Open Source CFD Toolbox
   \\    /   O peration     | Website:  https://openfoam.org
    \\  /    A nd           | Version:  7
     \\/     M anipulation  |
\*---------------------------------------------------------------------------*/
FoamFile
{
    version     2.0;
    format      ascii;
    class       volScalarField;
    location    "80";
    object      p;
}
// * * * * * * * * * * * * * * * * * * * * * * * * * * * * * * * * * * * * * //

dimensions      [0 2 -2 0 0 0 0];

internalField   nonuniform List<scalar> 
7156
(
-0.534189
-0.527395
-0.539868
-0.53284
-0.527488
-0.521931
-0.545541
-0.538285
-0.532789
-0.52708
-0.521035
-0.514617
-0.507653
-0.551191
-0.543713
-0.538077
-0.532214
-0.525977
-0.519309
-0.512018
-0.503927
-0.49489
-0.484814
-0.5568
-0.549108
-0.543335
-0.537318
-0.530881
-0.523949
-0.516312
-0.507784
-0.498225
-0.487557
-0.475786
-0.463003
-0.449373
-0.562349
-0.554451
-0.548545
-0.542372
-0.535729
-0.528517
-0.520512
-0.511524
-0.501417
-0.490134
-0.477707
-0.464258
-0.449981
-0.43511
-0.419894
-0.404568
-0.389331
-0.567818
-0.559722
-0.553687
-0.547358
-0.540499
-0.532993
-0.524599
-0.515125
-0.504447
-0.492527
-0.479429
-0.465306
-0.450381
-0.43491
-0.419156
-0.403358
-0.387716
-0.372382
-0.357464
-0.343028
-0.329108
-0.573186
-0.564902
-0.558743
-0.552254
-0.545171
-0.537355
-0.528551
-0.518567
-0.507293
-0.494718
-0.480937
-0.466135
-0.450563
-0.434501
-0.41822
-0.401965
-0.385932
-0.370267
-0.35507
-0.340399
-0.326281
-0.312723
-0.299711
-0.287231
-0.275385
-0.578431
-0.56997
-0.563689
-0.55704
-0.549724
-0.541581
-0.532345
-0.521828
-0.509938
-0.49669
-0.482215
-0.466732
-0.450519
-0.433874
-0.41708
-0.400382
-0.383972
-0.367991
-0.352528
-0.337634
-0.323329
-0.309613
-0.296467
-0.283881
-0.271918
-0.583531
-0.574904
-0.568506
-0.561694
-0.554134
-0.545648
-0.535959
-0.524887
-0.512359
-0.498425
-0.483249
-0.467084
-0.450237
-0.433021
-0.415729
-0.398603
-0.381833
-0.365549
-0.349833
-0.334728
-0.320245
-0.306381
-0.29311
-0.280425
-0.268353
-0.588464
-0.579682
-0.573171
-0.566193
-0.558379
-0.549533
-0.539371
-0.527722
-0.514539
-0.499906
-0.484024
-0.467182
-0.449709
-0.431936
-0.41416
-0.396624
-0.379509
-0.362937
-0.346982
-0.331676
-0.317027
-0.303023
-0.289637
-0.276861
-0.264687
-0.593205
-0.58428
-0.577661
-0.570514
-0.562436
-0.553212
-0.542557
-0.530311
-0.516458
-0.501116
-0.484528
-0.467012
-0.448926
-0.430611
-0.412368
-0.394438
-0.376994
-0.36015
-0.343968
-0.328475
-0.31367
-0.299537
-0.286044
-0.273184
-0.260916
-0.597731
-0.588677
-0.581952
-0.574633
-0.56628
-0.556663
-0.545494
-0.532634
-0.518096
-0.50204
-0.484746
-0.466566
-0.447878
-0.429038
-0.410347
-0.392041
-0.374285
-0.357183
-0.340788
-0.32512
-0.31017
-0.295917
-0.282328
-0.269393
-0.257038
-0.602018
-0.592847
-0.586021
-0.578526
-0.569887
-0.55986
-0.548161
-0.53467
-0.519437
-0.502662
-0.484666
-0.465832
-0.446559
-0.427211
-0.408091
-0.389427
-0.371376
-0.354031
-0.337438
-0.321606
-0.306523
-0.292161
-0.278484
-0.265482
-0.25305
-0.606041
-0.596767
-0.589844
-0.582169
-0.573234
-0.562782
-0.550534
-0.536398
-0.520461
-0.502967
-0.484276
-0.464801
-0.44496
-0.425124
-0.405594
-0.386591
-0.368262
-0.350691
-0.333913
-0.31793
-0.302725
-0.288264
-0.27451
-0.26145
-0.248948
-0.609777
-0.600414
-0.593397
-0.585538
-0.576296
-0.565403
-0.552592
-0.537799
-0.521153
-0.502942
-0.483564
-0.463464
-0.443074
-0.42277
-0.402851
-0.383528
-0.364939
-0.347157
-0.330208
-0.314088
-0.298772
-0.284224
-0.270402
-0.257293
-0.24473
-0.613199
-0.603761
-0.596654
-0.588607
-0.579048
-0.567701
-0.554313
-0.538854
-0.521495
-0.502572
-0.48252
-0.461812
-0.440893
-0.420144
-0.399856
-0.380233
-0.361402
-0.343425
-0.32632
-0.310076
-0.294661
-0.280036
-0.266157
-0.253008
-0.240393
-0.616284
-0.606786
-0.599592
-0.591354
-0.581467
-0.569653
-0.555676
-0.539543
-0.521472
-0.501844
-0.481133
-0.459836
-0.438411
-0.417238
-0.396604
-0.376702
-0.357647
-0.339491
-0.322245
-0.305889
-0.290389
-0.275697
-0.261773
-0.248593
-0.235936
-0.619008
-0.609464
-0.602187
-0.593753
-0.58353
-0.571237
-0.556661
-0.53985
-0.52107
-0.500748
-0.479395
-0.45753
-0.435622
-0.414049
-0.393091
-0.37293
-0.353669
-0.335352
-0.317979
-0.301526
-0.285951
-0.271206
-0.257246
-0.244045
-0.231355
-0.621347
-0.611772
-0.604415
-0.595781
-0.585213
-0.57243
-0.557248
-0.539757
-0.520274
-0.499271
-0.477295
-0.454886
-0.432519
-0.410571
-0.389311
-0.368912
-0.349465
-0.331003
-0.313519
-0.296982
-0.281346
-0.266558
-0.252574
-0.239361
-0.226649
-0.623277
-0.613686
-0.606252
-0.597416
-0.586494
-0.573213
-0.55742
-0.539249
-0.519071
-0.497403
-0.474826
-0.451897
-0.429097
-0.406799
-0.385261
-0.364645
-0.345031
-0.326441
-0.308861
-0.292254
-0.27657
-0.261752
-0.247756
-0.234541
-0.221815
-0.624776
-0.615184
-0.607676
-0.598633
-0.587351
-0.573566
-0.557157
-0.538311
-0.51745
-0.495136
-0.47198
-0.448558
-0.425352
-0.402728
-0.380937
-0.360125
-0.340363
-0.321663
-0.304003
-0.28734
-0.271621
-0.256785
-0.242787
-0.229581
-0.216853
-0.625821
-0.616242
-0.608664
-0.599412
-0.587763
-0.573468
-0.556444
-0.536929
-0.515398
-0.492459
-0.468751
-0.444862
-0.421278
-0.398356
-0.376335
-0.355349
-0.335458
-0.316665
-0.298941
-0.282237
-0.266496
-0.251654
-0.237668
-0.22448
-0.21176
-0.626391
-0.616841
-0.609195
-0.599731
-0.587711
-0.572902
-0.555264
-0.53509
-0.512907
-0.489365
-0.465132
-0.440806
-0.416871
-0.393678
-0.371451
-0.350314
-0.330313
-0.311445
-0.293673
-0.276943
-0.261193
-0.246358
-0.232395
-0.219237
-0.206535
-0.626466
-0.616958
-0.609248
-0.59957
-0.587175
-0.571852
-0.553605
-0.532782
-0.509966
-0.485848
-0.461117
-0.436384
-0.412129
-0.38869
-0.366283
-0.345016
-0.324926
-0.306001
-0.288196
-0.271455
-0.255711
-0.240896
-0.226967
-0.21385
-0.201178
-0.626024
-0.616574
-0.608802
-0.59891
-0.586138
-0.5703
-0.551451
-0.529995
-0.506568
-0.4819
-0.456703
-0.431594
-0.407046
-0.383391
-0.360827
-0.339453
-0.319295
-0.30033
-0.28251
-0.265772
-0.250048
-0.235266
-0.221384
-0.208318
-0.195685
-0.625049
-0.615669
-0.607841
-0.597732
-0.584583
-0.568233
-0.548791
-0.52672
-0.502706
-0.477517
-0.451885
-0.426431
-0.401622
-0.377778
-0.355083
-0.333624
-0.313417
-0.294431
-0.276612
-0.259893
-0.244202
-0.229466
-0.215643
-0.20264
-0.190058
-0.623522
-0.614227
-0.606344
-0.59602
-0.582493
-0.565638
-0.545614
-0.522947
-0.498372
-0.472693
-0.44666
-0.420893
-0.395854
-0.371848
-0.349048
-0.327527
-0.307291
-0.288302
-0.270501
-0.253816
-0.238173
-0.223495
-0.209744
-0.196815
-0.184298
-0.621428
-0.612231
-0.604297
-0.593758
-0.579856
-0.562501
-0.541911
-0.518669
-0.493563
-0.467427
-0.441025
-0.414978
-0.38974
-0.365601
-0.342721
-0.32116
-0.300916
-0.281943
-0.264176
-0.247541
-0.231959
-0.217353
-0.203685
-0.190844
-0.178401
-0.618749
-0.609665
-0.601684
-0.590932
-0.576658
-0.558813
-0.537673
-0.513881
-0.488273
-0.461713
-0.434978
-0.408686
-0.383279
-0.359036
-0.336101
-0.314523
-0.294291
-0.275352
-0.257637
-0.241066
-0.225561
-0.21104
-0.197467
-0.184722
-0.172347
-0.615474
-0.606514
-0.59849
-0.587527
-0.572888
-0.554564
-0.532893
-0.508578
-0.4825
-0.455552
-0.428518
-0.402015
-0.376471
-0.352151
-0.329187
-0.307616
-0.287416
-0.26853
-0.250883
-0.234394
-0.218979
-0.204555
-0.191091
-0.178449
-0.16611
-0.611589
-0.602767
-0.594704
-0.583534
-0.568536
-0.549746
-0.527565
-0.502755
-0.476242
-0.448941
-0.421645
-0.394964
-0.369316
-0.344948
-0.32198
-0.300437
-0.280291
-0.261476
-0.243915
-0.227522
-0.212213
-0.197901
-0.184559
-0.172029
-0.159718
-0.607084
-0.598411
-0.590313
-0.578941
-0.563592
-0.544353
-0.521685
-0.496411
-0.469497
-0.44188
-0.414359
-0.387536
-0.361813
-0.337427
-0.31448
-0.292989
-0.272916
-0.254192
-0.236733
-0.220453
-0.205264
-0.191077
-0.177868
-0.165459
-0.153288
-0.601948
-0.593436
-0.585309
-0.57374
-0.558051
-0.538379
-0.515251
-0.489544
-0.462265
-0.434371
-0.406662
-0.37973
-0.353966
-0.329588
-0.306688
-0.285271
-0.265293
-0.246677
-0.229339
-0.213187
-0.198132
-0.184087
-0.171027
-0.158741
-0.146733
-0.596174
-0.587835
-0.579683
-0.567923
-0.551906
-0.53182
-0.508259
-0.482153
-0.454547
-0.426414
-0.398554
-0.371549
-0.345774
-0.321433
-0.298605
-0.277286
-0.257422
-0.238934
-0.221733
-0.205726
-0.190821
-0.176929
-0.16403
-0.151887
-0.14004
-0.589755
-0.5816
-0.573429
-0.561485
-0.545153
-0.524676
-0.500709
-0.47424
-0.446345
-0.418012
-0.390038
-0.362994
-0.33724
-0.312965
-0.290235
-0.269035
-0.249306
-0.230965
-0.213917
-0.198071
-0.18333
-0.169606
-0.156881
-0.144895
-0.13321
-0.582686
-0.574725
-0.56654
-0.554422
-0.53779
-0.516943
-0.492603
-0.465806
-0.437662
-0.409168
-0.381118
-0.35407
-0.328368
-0.304186
-0.281578
-0.26052
-0.240947
-0.22277
-0.205895
-0.190224
-0.175662
-0.16212
-0.149581
-0.137764
-0.126248
-0.574963
-0.567207
-0.559015
-0.546731
-0.529815
-0.508623
-0.483941
-0.456855
-0.4285
-0.399886
-0.371797
-0.34478
-0.319161
-0.2951
-0.272638
-0.251745
-0.232348
-0.214354
-0.197667
-0.182188
-0.167819
-0.154472
-0.142132
-0.130495
-0.119155
-0.566585
-0.559043
-0.550849
-0.538411
-0.521229
-0.499719
-0.474728
-0.44739
-0.418866
-0.39017
-0.36208
-0.335127
-0.309622
-0.285709
-0.263419
-0.242713
-0.223511
-0.205719
-0.189237
-0.173965
-0.159804
-0.146666
-0.134537
-0.123091
-0.111935
-0.55755
-0.550232
-0.542044
-0.529462
-0.512033
-0.490232
-0.464967
-0.437416
-0.408764
-0.380026
-0.351973
-0.325118
-0.299757
-0.276019
-0.253925
-0.233427
-0.214441
-0.196868
-0.180608
-0.165558
-0.151619
-0.138703
-0.126798
-0.115554
-0.54786
-0.540775
-0.532599
-0.519886
-0.50223
-0.480167
-0.454664
-0.42694
-0.3982
-0.36946
-0.34148
-0.314757
-0.28957
-0.266034
-0.24416
-0.223891
-0.20514
-0.187806
-0.171784
-0.156972
-0.143269
-0.130587
-0.537517
-0.530674
-0.522518
-0.509687
-0.491826
-0.46953
-0.443825
-0.415969
-0.387182
-0.35848
-0.330609
-0.304051
-0.279067
-0.25576
-0.234129
-0.214111
-0.195615
-0.178536
-0.162768
-0.148209
-0.134756
-0.526527
-0.519933
-0.511805
-0.49887
-0.480827
-0.458329
-0.432459
-0.404511
-0.375717
-0.347092
-0.319367
-0.293006
-0.268254
-0.245202
-0.223837
-0.204092
-0.18587
-0.169064
-0.153567
-0.139275
-0.514893
-0.508557
-0.500465
-0.487441
-0.469239
-0.446571
-0.420574
-0.392574
-0.363816
-0.335306
-0.307762
-0.28163
-0.257139
-0.234366
-0.213291
-0.193839
-0.17591
-0.159394
-0.144183
-0.502624
-0.496553
-0.488505
-0.475407
-0.457071
-0.434266
-0.40818
-0.38017
-0.351486
-0.32313
-0.295802
-0.26993
-0.245728
-0.223261
-0.202497
-0.183359
-0.16574
-0.489728
-0.483929
-0.475933
-0.462779
-0.444333
-0.421424
-0.395288
-0.367307
-0.33874
-0.310575
-0.283496
-0.257915
-0.23403
-0.211892
-0.191462
-0.172657
-0.476214
-0.470694
-0.462761
-0.449566
-0.431037
-0.408057
-0.381909
-0.353999
-0.325587
-0.29765
-0.270854
-0.245595
-0.222053
-0.200267
-0.180193
-0.462095
-0.45686
-0.448998
-0.43578
-0.417195
-0.394178
-0.368058
-0.340259
-0.312038
-0.284366
-0.257888
-0.232978
-0.209805
-0.188396
-0.447383
-0.442439
-0.434657
-0.421434
-0.40282
-0.379801
-0.353747
-0.326101
-0.298104
-0.270735
-0.244606
-0.220076
-0.197296
-0.432092
-0.427444
-0.419753
-0.406543
-0.387926
-0.36494
-0.33899
-0.31153
-0.283809
-0.256771
-0.231021
-0.206897
-0.416238
-0.411891
-0.4043
-0.391122
-0.372531
-0.349613
-0.323803
-0.296569
-0.269156
-0.242486
-0.217145
-0.399836
-0.395796
-0.388314
-0.375188
-0.35665
-0.333835
-0.308199
-0.281233
-0.254163
-0.227892
-0.20299
-0.382905
-0.379175
-0.371813
-0.358757
-0.340302
-0.317618
-0.292202
-0.265537
-0.238844
-0.213005
-0.365462
-0.362047
-0.354815
-0.34185
-0.323506
-0.300983
-0.275824
-0.249497
-0.223214
-0.347528
-0.344432
-0.33734
-0.324486
-0.306273
-0.283958
-0.259086
-0.233131
-0.329122
-0.32635
-0.319408
-0.306682
-0.288633
-0.266555
-0.242004
-0.310265
-0.307824
-0.301041
-0.288459
-0.270606
-0.248794
-0.290978
-0.288875
-0.282257
-0.269846
-0.252211
-0.230698
-0.271279
-0.269532
-0.263083
-0.250862
-0.233472
-0.251186
-0.249829
-0.243544
-0.23153
-0.230759
-0.229762
-0.223666
-0.211875
-0.210033
-0.209346
-0.20347
-0.188999
-0.188632
-0.167685
-0.167648
-0.146121
-0.124338
-0.0724929
-0.0936283
-0.11457
-0.114802
-0.135289
-0.13519
-0.155756
-0.155334
-0.150132
-0.175943
-0.175207
-0.169785
-0.159173
-0.195839
-0.194774
-0.18915
-0.178313
-0.215438
-0.213997
-0.208201
-0.197156
-0.181418
-0.234681
-0.23288
-0.226916
-0.215679
-0.199694
-0.180195
-0.253541
-0.251402
-0.24527
-0.233858
-0.217652
-0.197857
-0.175906
-0.272
-0.269534
-0.263239
-0.251674
-0.235269
-0.215208
-0.192906
-0.290039
-0.287251
-0.280803
-0.269103
-0.252524
-0.232228
-0.209607
-0.186013
-0.307637
-0.304534
-0.29794
-0.28612
-0.269403
-0.248898
-0.225989
-0.202029
-0.178118
-0.324776
-0.321362
-0.314633
-0.302712
-0.285876
-0.265199
-0.242033
-0.217742
-0.193429
-0.169904
-0.341437
-0.337716
-0.330861
-0.318858
-0.301929
-0.281116
-0.25772
-0.233134
-0.208451
-0.184503
-0.161816
-0.357602
-0.353579
-0.346607
-0.334541
-0.317544
-0.296614
-0.273048
-0.24819
-0.223169
-0.198829
-0.175712
-0.154115
-0.373254
-0.368934
-0.361855
-0.349743
-0.332705
-0.311694
-0.287983
-0.262894
-0.237569
-0.212867
-0.189348
-0.167326
-0.388377
-0.383765
-0.376588
-0.364448
-0.347396
-0.326338
-0.302512
-0.277231
-0.251636
-0.226604
-0.202711
-0.180289
-0.159481
-0.402956
-0.398058
-0.390792
-0.378642
-0.361601
-0.340528
-0.316624
-0.291186
-0.265358
-0.240028
-0.215791
-0.192995
-0.171797
-0.152228
-0.416979
-0.4118
-0.404455
-0.39231
-0.375307
-0.35425
-0.330305
-0.304747
-0.278722
-0.253127
-0.228575
-0.205432
-0.183869
-0.163926
-0.145564
-0.430432
-0.424979
-0.417564
-0.405442
-0.388499
-0.367492
-0.343541
-0.317901
-0.291715
-0.26589
-0.241055
-0.217592
-0.195688
-0.175394
-0.156677
-0.139461
-0.443306
-0.437586
-0.430108
-0.418024
-0.401167
-0.38024
-0.35632
-0.330636
-0.304326
-0.278305
-0.253219
-0.229465
-0.207245
-0.186621
-0.167571
-0.150021
-0.133877
-0.119035
-0.455589
-0.44961
-0.442079
-0.430049
-0.4133
-0.392485
-0.368631
-0.342941
-0.316545
-0.290364
-0.265058
-0.241042
-0.218531
-0.197602
-0.178239
-0.160374
-0.143916
-0.128764
-0.114818
-0.467276
-0.461044
-0.453468
-0.441506
-0.424889
-0.404215
-0.380464
-0.354806
-0.328362
-0.302057
-0.276564
-0.252314
-0.22954
-0.208329
-0.188673
-0.170512
-0.153758
-0.138313
-0.124076
-0.110953
-0.478358
-0.471882
-0.464268
-0.452388
-0.435925
-0.415423
-0.391809
-0.366221
-0.339767
-0.313374
-0.287728
-0.263276
-0.240265
-0.218795
-0.198868
-0.180431
-0.163398
-0.147675
-0.133164
-0.119768
-0.107393
-0.48883
-0.482119
-0.474475
-0.462691
-0.446403
-0.4261
-0.402658
-0.377178
-0.350752
-0.324308
-0.298543
-0.273918
-0.250698
-0.228993
-0.208818
-0.190123
-0.172831
-0.156846
-0.142074
-0.12842
-0.115789
-0.104101
-0.49869
-0.491751
-0.484085
-0.472409
-0.456315
-0.436241
-0.413004
-0.38767
-0.36131
-0.334852
-0.309001
-0.284236
-0.260833
-0.238919
-0.218517
-0.199586
-0.182051
-0.165821
-0.150804
-0.136905
-0.124031
-0.112102
-0.101106
-0.0907204
-0.507933
-0.500777
-0.493096
-0.481539
-0.465659
-0.445839
-0.422841
-0.397689
-0.371434
-0.344999
-0.319098
-0.294223
-0.270666
-0.248568
-0.227961
-0.208813
-0.191054
-0.174596
-0.159348
-0.145219
-0.132115
-0.119956
-0.108729
-0.0981329
-0.0877982
-0.516561
-0.509196
-0.501506
-0.49008
-0.474431
-0.45489
-0.432164
-0.40723
-0.381118
-0.354742
-0.328826
-0.303873
-0.280191
-0.257934
-0.237145
-0.217801
-0.199836
-0.183167
-0.167705
-0.153358
-0.140038
-0.127661
-0.116214
-0.105417
-0.0948879
-0.524572
-0.517009
-0.509317
-0.498031
-0.48263
-0.463393
-0.440968
-0.416289
-0.390356
-0.364078
-0.338181
-0.313182
-0.289404
-0.267013
-0.246066
-0.226546
-0.208394
-0.191531
-0.175869
-0.16132
-0.147796
-0.135214
-0.123559
-0.11257
-0.101854
-0.53197
-0.52422
-0.516531
-0.505394
-0.490257
-0.471346
-0.449252
-0.424861
-0.399145
-0.373002
-0.347159
-0.322147
-0.298301
-0.275803
-0.25472
-0.235045
-0.216724
-0.199684
-0.183839
-0.169103
-0.155387
-0.142613
-0.130761
-0.11959
-0.108693
-0.538757
-0.53083
-0.523151
-0.512172
-0.497312
-0.478748
-0.457013
-0.432944
-0.407482
-0.381509
-0.355757
-0.330763
-0.306879
-0.284299
-0.263104
-0.243295
-0.224825
-0.207625
-0.191612
-0.176702
-0.16281
-0.149855
-0.137818
-0.126477
-0.115402
-0.54494
-0.536847
-0.529183
-0.518369
-0.503798
-0.485601
-0.464252
-0.440537
-0.415364
-0.389598
-0.36397
-0.339028
-0.315135
-0.2925
-0.271216
-0.251294
-0.232693
-0.21535
-0.199185
-0.184117
-0.170061
-0.156938
-0.144728
-0.13323
-0.121976
-0.550524
-0.542278
-0.534633
-0.52399
-0.50972
-0.491907
-0.470969
-0.44764
-0.42279
-0.397267
-0.371798
-0.346939
-0.323067
-0.300404
-0.279054
-0.25904
-0.240328
-0.222859
-0.206558
-0.191345
-0.17714
-0.163862
-0.151491
-0.139852
-0.128414
-0.555517
-0.547129
-0.53951
-0.529044
-0.515083
-0.497671
-0.477167
-0.454252
-0.429759
-0.404514
-0.379239
-0.354496
-0.330673
-0.308008
-0.286617
-0.266531
-0.247727
-0.23015
-0.213728
-0.198386
-0.184044
-0.170624
-0.158104
-0.146334
-0.134731
-0.559929
-0.551412
-0.543822
-0.533537
-0.519895
-0.502898
-0.482848
-0.460376
-0.436272
-0.411338
-0.386292
-0.361696
-0.337953
-0.315313
-0.293904
-0.273768
-0.254891
-0.237222
-0.220696
-0.205238
-0.190773
-0.177225
-0.164566
-0.152678
-0.141072
-0.563771
-0.555136
-0.547582
-0.537482
-0.524164
-0.507594
-0.488019
-0.466015
-0.44233
-0.417742
-0.392956
-0.368541
-0.344907
-0.322317
-0.300914
-0.280749
-0.261817
-0.244075
-0.227459
-0.211901
-0.197326
-0.183662
-0.170876
-0.158868
-0.147216
-0.567054
-0.558316
-0.5508
-0.540888
-0.5279
-0.511767
-0.492684
-0.471172
-0.447936
-0.423725
-0.399233
-0.375029
-0.351534
-0.329021
-0.307647
-0.287475
-0.268508
-0.250708
-0.234019
-0.218374
-0.203702
-0.189933
-0.177033
-0.164903
-0.153155
-0.569793
-0.560963
-0.55349
-0.543768
-0.531114
-0.515426
-0.49685
-0.475852
-0.453093
-0.42929
-0.405124
-0.381163
-0.357835
-0.335426
-0.314105
-0.293946
-0.274962
-0.257122
-0.240375
-0.224657
-0.209901
-0.196039
-0.183034
-0.170793
-0.158941
-0.572
-0.563093
-0.555667
-0.546136
-0.533818
-0.518583
-0.500526
-0.480063
-0.457805
-0.43444
-0.410631
-0.386944
-0.363811
-0.341532
-0.320287
-0.300163
-0.28118
-0.263317
-0.246527
-0.230751
-0.215923
-0.201979
-0.188881
-0.176542
-0.164598
-0.573692
-0.564722
-0.557347
-0.548008
-0.536027
-0.521248
-0.503722
-0.48381
-0.462078
-0.43918
-0.415758
-0.392373
-0.369464
-0.347341
-0.326196
-0.306127
-0.287165
-0.269295
-0.252477
-0.236656
-0.22177
-0.207754
-0.194573
-0.182149
-0.170128
-0.574886
-0.565866
-0.558546
-0.5494
-0.537755
-0.523436
-0.506448
-0.487103
-0.465919
-0.443512
-0.420506
-0.397453
-0.374797
-0.352856
-0.331833
-0.31184
-0.292917
-0.275057
-0.258226
-0.242373
-0.227441
-0.213367
-0.200113
-0.187613
-0.175527
-0.5756
-0.566544
-0.559283
-0.550328
-0.539018
-0.525159
-0.508716
-0.489951
-0.469334
-0.447444
-0.424881
-0.402189
-0.379812
-0.358077
-0.337201
-0.317304
-0.298438
-0.280605
-0.263776
-0.247905
-0.232938
-0.218817
-0.205502
-0.192935
-0.180793
-0.575851
-0.566774
-0.559575
-0.550811
-0.539834
-0.526433
-0.510539
-0.492365
-0.472332
-0.450982
-0.428888
-0.406583
-0.384512
-0.36301
-0.342302
-0.322522
-0.303731
-0.28594
-0.269128
-0.253252
-0.238263
-0.224106
-0.21074
-0.198116
-0.185928
-0.57566
-0.566576
-0.559443
-0.550868
-0.540219
-0.527275
-0.511931
-0.494355
-0.474922
-0.454131
-0.432531
-0.410641
-0.388902
-0.367656
-0.347139
-0.327496
-0.308798
-0.291066
-0.274284
-0.258417
-0.243418
-0.229235
-0.215829
-0.203157
-0.190932
-0.575046
-0.56597
-0.558906
-0.550519
-0.540194
-0.527702
-0.512907
-0.495935
-0.477113
-0.456902
-0.435818
-0.414366
-0.392985
-0.37202
-0.351716
-0.33223
-0.313643
-0.295985
-0.279248
-0.263402
-0.248405
-0.234207
-0.220771
-0.20806
-0.195806
-0.574031
-0.564977
-0.557987
-0.549784
-0.539777
-0.527731
-0.513484
-0.497119
-0.478918
-0.459301
-0.438755
-0.417766
-0.396767
-0.376105
-0.356037
-0.336726
-0.318268
-0.3007
-0.284022
-0.26821
-0.253226
-0.239024
-0.225567
-0.212826
-0.200552
-0.572636
-0.563618
-0.556705
-0.548685
-0.53899
-0.527382
-0.513677
-0.497919
-0.480348
-0.46134
-0.441351
-0.420846
-0.400252
-0.379918
-0.360105
-0.34099
-0.322678
-0.305215
-0.288609
-0.272843
-0.257883
-0.243688
-0.23022
-0.217456
-0.205172
-0.570882
-0.561915
-0.555083
-0.547243
-0.537853
-0.526674
-0.513505
-0.498353
-0.481415
-0.463028
-0.443612
-0.423613
-0.403446
-0.383461
-0.363925
-0.345025
-0.326876
-0.309533
-0.293013
-0.277304
-0.26238
-0.248201
-0.234731
-0.221954
-0.209666
-0.568793
-0.55989
-0.553142
-0.54548
-0.536387
-0.525629
-0.512985
-0.498436
-0.482134
-0.464376
-0.445549
-0.426074
-0.406356
-0.386741
-0.367502
-0.348836
-0.330865
-0.313658
-0.297237
-0.281598
-0.266719
-0.252566
-0.239104
-0.226319
-0.214036
-0.566389
-0.557565
-0.550906
-0.543419
-0.534615
-0.524265
-0.512139
-0.498184
-0.482518
-0.465396
-0.44717
-0.428237
-0.408987
-0.389762
-0.370841
-0.352427
-0.334652
-0.317594
-0.301285
-0.285727
-0.270904
-0.256786
-0.24334
-0.230556
-0.218285
-0.563695
-0.554962
-0.548396
-0.541081
-0.532558
-0.522605
-0.510983
-0.497615
-0.482582
-0.4661
-0.448486
-0.43011
-0.411346
-0.392532
-0.373948
-0.355802
-0.338239
-0.321345
-0.30516
-0.289695
-0.274938
-0.260864
-0.247442
-0.234667
-0.222414
-0.560732
-0.552105
-0.545635
-0.53849
-0.530239
-0.520671
-0.50954
-0.496748
-0.482343
-0.466502
-0.449508
-0.431702
-0.413441
-0.395056
-0.376826
-0.358968
-0.341633
-0.324916
-0.308868
-0.293506
-0.278824
-0.264803
-0.251414
-0.238653
-0.226426
-0.557524
-0.549015
-0.542646
-0.535668
-0.52768
-0.518483
-0.507829
-0.495602
-0.481816
-0.466616
-0.450247
-0.433023
-0.41528
-0.397341
-0.379484
-0.361929
-0.344837
-0.328312
-0.312413
-0.297164
-0.282567
-0.268607
-0.255259
-0.242519
-0.230324
-0.554092
-0.545714
-0.539449
-0.532636
-0.524903
-0.516064
-0.505872
-0.494194
-0.481019
-0.466455
-0.450715
-0.434081
-0.416871
-0.399393
-0.381925
-0.364691
-0.347857
-0.331537
-0.315799
-0.300674
-0.286171
-0.27228
-0.258979
-0.246266
-0.234109
-0.55046
-0.542223
-0.536068
-0.529417
-0.52193
-0.513435
-0.503688
-0.492544
-0.479968
-0.466035
-0.450924
-0.434888
-0.418221
-0.40122
-0.384157
-0.367259
-0.350698
-0.334596
-0.31903
-0.304039
-0.289639
-0.275825
-0.262579
-0.249898
-0.237784
-0.546648
-0.538565
-0.532522
-0.526032
-0.518782
-0.510618
-0.5013
-0.490673
-0.478681
-0.465371
-0.450887
-0.435453
-0.41934
-0.402829
-0.386187
-0.369639
-0.353365
-0.337495
-0.322112
-0.307265
-0.292975
-0.279245
-0.266061
-0.253418
-0.241354
-0.542678
-0.534759
-0.528833
-0.522502
-0.515482
-0.507634
-0.498727
-0.488599
-0.477177
-0.464478
-0.450617
-0.435788
-0.420237
-0.404228
-0.388019
-0.371837
-0.355864
-0.340237
-0.325049
-0.310356
-0.296185
-0.282547
-0.26943
-0.256831
-0.244819
-0.538571
-0.530826
-0.525021
-0.518847
-0.512049
-0.504505
-0.49599
-0.486343
-0.475472
-0.463373
-0.450129
-0.435905
-0.420921
-0.405424
-0.389662
-0.373859
-0.3582
-0.342829
-0.327847
-0.313316
-0.299273
-0.285732
-0.272689
-0.260138
-0.248184
-0.534348
-0.526786
-0.521106
-0.515088
-0.508504
-0.501249
-0.49311
-0.483923
-0.473587
-0.462072
-0.449437
-0.435815
-0.421402
-0.406425
-0.391122
-0.37571
-0.360379
-0.345276
-0.33051
-0.316151
-0.530027
-0.522657
-0.517106
-0.511243
-0.504866
-0.497888
-0.490106
-0.48136
-0.471538
-0.460592
-0.448554
-0.43553
-0.42169
-0.407241
-0.392406
-0.377398
-0.525627
-0.518457
-0.513038
-0.507329
-0.501154
-0.49444
-0.486998
-0.478673
-0.469344
-0.458949
-0.447496
-0.435063
-0.421795
-0.521168
-0.514204
-0.508921
-0.503366
-0.497386
-0.490923
-0.483805
-0.47588
-0.467024
-0.516666
-0.509915
-0.504771
-0.499369
-0.493578
-0.487356
-0.512138
-0.505605
-0.500603
-0.495353
-0.507598
-0.234051
-0.238045
-0.241944
-0.24575
-0.249466
-0.253095
-0.256639
-0.260101
-0.217901
-0.221744
-0.225513
-0.229209
-0.232834
-0.23639
-0.23988
-0.243305
-0.203193
-0.20687
-0.210488
-0.214048
-0.217554
-0.221006
-0.224406
-0.227757
-0.189781
-0.193288
-0.196749
-0.200165
-0.203538
-0.206869
-0.210161
-0.213415
-0.177488
-0.180825
-0.184125
-0.18739
-0.190622
-0.193822
-0.196992
-0.200132
-0.166174
-0.169341
-0.172479
-0.17559
-0.178676
-0.181737
-0.184776
-0.187792
-0.15572
-0.15872
-0.161697
-0.164654
-0.167592
-0.170511
-0.173412
-0.176297
-0.14603
-0.148866
-0.151685
-0.154488
-0.157277
-0.160052
-0.162815
-0.165565
-0.137024
-0.139701
-0.142364
-0.145016
-0.147657
-0.150289
-0.152911
-0.155525
-0.128622
-0.131145
-0.133658
-0.136163
-0.13866
-0.14115
-0.143634
-0.146112
-0.12077
-0.123145
-0.125513
-0.127875
-0.130231
-0.132583
-0.13493
-0.137274
-0.113412
-0.115644
-0.117872
-0.120096
-0.122316
-0.124534
-0.126748
-0.128961
-0.106503
-0.1086
-0.110694
-0.112785
-0.114874
-0.116961
-0.119047
-0.121132
-0.100001
-0.101969
-0.103935
-0.105899
-0.107861
-0.109824
-0.111786
-0.113748
-0.0938732
-0.0957178
-0.0975613
-0.0994041
-0.101247
-0.103089
-0.104932
-0.106776
-0.0880844
-0.0898127
-0.0915405
-0.0932682
-0.0949961
-0.0967245
-0.098454
-0.100185
-0.0826126
-0.0842304
-0.0858482
-0.0874663
-0.089085
-0.0907048
-0.0923259
-0.0939487
-0.0774315
-0.0789449
-0.0804586
-0.081973
-0.0834883
-0.0850048
-0.086523
-0.088043
-0.0725188
-0.0739338
-0.0753494
-0.0767658
-0.0781833
-0.0796022
-0.0810228
-0.0824453
-0.067858
-0.0691802
-0.0705031
-0.071827
-0.0731521
-0.0744786
-0.0758069
-0.077137
-0.0634313
-0.0646661
-0.0659017
-0.0671384
-0.0683763
-0.0696157
-0.0708567
-0.0720997
-0.0592239
-0.0603766
-0.0615301
-0.0626847
-0.0638406
-0.0649979
-0.0661568
-0.0673176
-0.0552216
-0.0562972
-0.0573737
-0.0584513
-0.0595301
-0.0606102
-0.0616919
-0.0627753
-0.051414
-0.0524173
-0.0534214
-0.0544266
-0.0554329
-0.0564405
-0.0574495
-0.0584601
-0.0477891
-0.0487246
-0.0496609
-0.0505982
-0.0515365
-0.052476
-0.0534169
-0.0543592
-0.0443374
-0.0452094
-0.0460822
-0.0469558
-0.0478305
-0.0487062
-0.0495831
-0.0504614
-0.0410499
-0.0418625
-0.0426758
-0.0434899
-0.0443049
-0.0451209
-0.045938
-0.0467562
-0.0379171
-0.0386743
-0.0394321
-0.0401906
-0.0409499
-0.0417101
-0.0424713
-0.0432335
-0.0349337
-0.035639
-0.0363448
-0.0370513
-0.0377584
-0.0384663
-0.0391751
-0.0398848
-0.0320914
-0.0327483
-0.0334056
-0.0340634
-0.0347219
-0.035381
-0.0360409
-0.0367015
-0.0293836
-0.0299953
-0.0306073
-0.0312198
-0.0318328
-0.0324464
-0.0330606
-0.0336755
-0.0268047
-0.0273742
-0.027944
-0.0285142
-0.0290848
-0.0296559
-0.0302275
-0.0307997
-0.0243488
-0.0248789
-0.0254094
-0.0259401
-0.0264712
-0.0270027
-0.0275346
-0.028067
-0.0220106
-0.0225041
-0.0229978
-0.0234918
-0.023986
-0.0244806
-0.0249755
-0.0254708
-0.0197851
-0.0202445
-0.020704
-0.0211637
-0.0216237
-0.0220838
-0.0225443
-0.023005
-0.0176676
-0.0180952
-0.0185229
-0.0189507
-0.0193787
-0.0198069
-0.0202352
-0.0206638
-0.0156537
-0.0160517
-0.0164498
-0.0168479
-0.0172461
-0.0176444
-0.0180429
-0.0184415
-0.013739
-0.0141095
-0.01448
-0.0148505
-0.015221
-0.0155916
-0.0159622
-0.016333
-0.0119196
-0.0122644
-0.0126092
-0.012954
-0.0132988
-0.0136436
-0.0139883
-0.0143332
-0.0101915
-0.0105125
-0.0108334
-0.0111543
-0.0114751
-0.0117958
-0.0121166
-0.0124373
-0.00855113
-0.00884994
-0.00914864
-0.00944723
-0.00974573
-0.0100442
-0.0103425
-0.0106408
-0.00699484
-0.00727301
-0.00755104
-0.00782894
-0.00810671
-0.00838436
-0.00866191
-0.00893935
-0.00551927
-0.00577825
-0.00603705
-0.0062957
-0.00655419
-0.00681254
-0.00707074
-0.0073288
-0.00412115
-0.00436227
-0.00460321
-0.00484396
-0.00508453
-0.00532492
-0.00556514
-0.00580519
-0.00279732
-0.00302185
-0.00324616
-0.00347027
-0.00369418
-0.00391788
-0.00414139
-0.0043647
-0.00154481
-0.0017539
-0.00196276
-0.0021714
-0.00237981
-0.002588
-0.00279598
-0.00300374
-0.000360677
-0.000555411
-0.000749904
-0.000944157
-0.00113817
-0.00133195
-0.00152549
-0.00171879
0.000757868
0.000576479
0.000395343
0.00021446
3.38299e-05
-0.000146547
-0.000326673
-0.000506547
0.00181351
0.00164453
0.00147581
0.00130736
0.00113917
0.000971239
0.000803577
0.00063618
0.00280886
0.00265141
0.00249423
0.00233733
0.00218069
0.00202433
0.00186825
0.00171244
0.00374639
0.00359966
0.00345321
0.00330703
0.00316114
0.00301553
0.0028702
0.00272516
0.00462852
0.00449175
0.00435526
0.00421905
0.00408314
0.0039475
0.00381216
0.00367711
0.00545754
0.00533002
0.00520279
0.00507584
0.00494918
0.00482282
0.00469675
0.00457098
0.00623566
0.00611674
0.0059981
0.00587975
0.00576169
0.00564393
0.00552647
0.0054093
0.00696501
0.00685406
0.0067434
0.00663303
0.00652295
0.00641317
0.00630369
0.00619451
0.00764762
0.00754407
0.00744081
0.00733784
0.00723516
0.00713277
0.00703069
0.00692891
0.00828543
0.00818873
0.00809233
0.00799621
0.00790039
0.00780486
0.00770963
0.0076147
0.00888027
0.00878993
0.00869987
0.0086101
0.00852062
0.00843144
0.00834255
0.00825396
0.00943389
0.00934942
0.00926524
0.00918134
0.00909773
0.00901441
0.00893138
0.00884866
0.00994795
0.00986891
0.00979015
0.00971167
0.00963348
0.00955557
0.00947796
0.00940064
0.010424
0.01035
0.0102762
0.0102027
0.0101295
0.0100566
0.00998397
0.00991163
0.0108635
0.010794
0.0107249
0.010656
0.0105874
0.010519
0.010451
0.0103832
0.0112677
0.0112025
0.0111376
0.0110729
0.0110085
0.0109444
0.0108805
0.010817
0.011638
0.0115767
0.0115156
0.0114547
0.0113942
0.0113339
0.0112739
0.0112142
0.0119754
0.0119175
0.0118599
0.0118026
0.0117455
0.0116888
0.0116322
0.011576
0.01152
0.0122808
0.0122261
0.0121717
0.0121176
0.0120637
0.01201
0.0119567
0.0119036
0.0118508
0.0125551
0.0125033
0.0124517
0.0124004
0.0123494
0.0122986
0.0122481
0.0121978
0.0121478
0.0127991
0.0127498
0.0127008
0.012652
0.0126035
0.0125552
0.0125072
0.0124595
0.012412
0.013013
0.012966
0.0129192
0.0128727
0.0128264
0.0127804
0.0127346
0.012689
0.0126438
0.0131976
0.0131525
0.0131076
0.013063
0.0130186
0.0129745
0.0129306
0.012887
0.0128437
0.0133524
0.013309
0.0132658
0.0132228
0.0131801
0.0131376
0.0130953
0.0130534
0.0130116
0.013478
0.0134359
0.013394
0.0133523
0.0133109
0.0132698
0.0132289
0.0131882
0.0131478
0.0135732
0.0135322
0.0134913
0.0134508
0.0134104
0.0133703
0.0133304
0.0132908
0.0132514
0.0136383
0.0135979
0.0135578
0.0135179
0.0134783
0.0134389
0.0133997
0.0133608
0.0133221
0.0136711
0.0136313
0.0135916
0.0135522
0.0135131
0.0134741
0.0134354