/*--------------------------------*- C++ -*----------------------------------*\
  =========                 |
  \\      /  F ield         | OpenFOAM: The Open Source CFD Toolbox
   \\    /   O peration     | Website:  https://openfoam.org
    \\  /    A nd           | Version:  7
     \\/     M anipulation  |
\*---------------------------------------------------------------------------*/
FoamFile
{
    version     2.0;
    format      ascii;
    class       surfaceScalarField;
    location    "80";
    object      phi;
}
// * * * * * * * * * * * * * * * * * * * * * * * * * * * * * * * * * * * * * //

dimensions      [0 3 -1 0 0 0 0];

internalField   nonuniform List<scalar> 
13975
(
3.12927e-06
-2.94387e-05
-0.000110837
3.25764e-06
-3.26963e-05
1.31853e-05
-0.000120765
3.00993e-05
-0.00023388
-0.000371816
3.3843e-06
-3.60806e-05
1.36347e-05
-0.000131015
3.10101e-05
-0.000251255
5.56062e-05
-0.000396412
8.72563e-05
-0.00056505
0.00012545
-0.000754516
-0.000960915
3.5087e-06
-3.95893e-05
1.40714e-05
-0.000141578
3.18853e-05
-0.000269069
5.69686e-05
-0.000421496
8.90603e-05
-0.000597141
0.000127542
-0.000792998
0.000171403
-0.00100478
0.000219261
-0.00122707
0.000269451
-0.00145372
-0.00167838
3.63033e-06
-4.32197e-05
1.44936e-05
-0.000152441
3.27208e-05
-0.000287296
5.82488e-05
-0.000447024
9.07191e-05
-0.000629611
0.000129405
-0.000831684
0.000173189
-0.00104856
0.000220595
-0.00127448
0.000269902
-0.00150303
0.000319294
-0.00172777
0.000367044
-0.00194283
0.000411692
-0.00214353
-0.00232675
3.74875e-06
-4.69684e-05
1.48993e-05
-0.000163592
3.35128e-05
-0.00030591
5.94407e-05
-0.000472952
9.22245e-05
-0.000662395
0.00013103
-0.00087049
0.000174634
-0.00109216
0.00022148
-0.00132132
0.000269798
-0.00155135
0.00031777
-0.00177574
0.000363721
-0.00198878
0.000406278
-0.00218609
0.000444483
-0.00236496
0.000477833
-0.00252443
0.000506262
-0.00266517
0.000530053
-0.00278906
-0.00289881
3.86347e-06
-5.08319e-05
1.5287e-05
-0.000175015
3.42576e-05
-0.00032488
6.05384e-05
-0.000499232
9.35691e-05
-0.000695426
0.000132408
-0.000909329
0.000175734
-0.00113549
0.000221915
-0.0013675
0.000269144
-0.00159858
0.000315618
-0.00182222
0.000359718
-0.00203288
0.000400168
-0.00222654
0.000436126
-0.00240091
0.000467209
-0.00255552
0.00049345
-0.00269141
0.00051521
-0.00281082
0.000533067
-0.00291667
0.000547698
-0.00301213
0.000559794
-0.0031003
0.000569982
-0.00318388
-0.00326514
3.97401e-06
-5.48059e-05
1.56547e-05
-0.000186696
3.49518e-05
-0.000344177
6.15367e-05
-0.000525817
9.47463e-05
-0.000728636
0.000133534
-0.000948117
0.000176485
-0.00117844
0.000221901
-0.00141292
0.000267951
-0.00164463
0.000312856
-0.00186712
0.000355065
-0.00207509
0.000393404
-0.00226488
0.000427145
-0.00243465
0.000456019
-0.00258439
0.000480153
-0.00271554
0.000499974
-0.00283064
0.000516093
-0.00293279
0.000529197
-0.00302524
0.000539959
-0.00311106
0.000548977
-0.0031929
0.000556743
-0.0032729
0.000563629
-0.00335265
0.000569897
-0.0034332
0.000575718
-0.00351515
-0.0035987
0.000581188
4.07989e-06
-5.88858e-05
1.60009e-05
-0.000198617
3.55919e-05
-0.000363768
6.24306e-05
-0.000552656
9.57504e-05
-0.000761955
0.000134402
-0.000986768
0.000176884
-0.00122092
0.000221441
-0.00145748
0.000266231
-0.00168942
0.000309507
-0.0019104
0.000349796
-0.00211538
0.000386027
-0.00230111
0.000417589
-0.00246622
0.000444318
-0.00261112
0.000466425
-0.00273765
0.000484396
-0.00284861
0.000498866
-0.00294726
0.000510522
-0.0030369
0.000520017
-0.00312055
0.000527919
-0.0032008
0.000534684
-0.00327967
0.00054065
-0.00335861
0.00054605
-0.0034386
0.000551031
-0.00352013
-0.00360334
0.000555675
4.18062e-06
-6.30664e-05
1.63238e-05
-0.00021076
3.6175e-05
-0.00038362
6.32157e-05
-0.000579697
9.65766e-05
-0.000795316
0.000135009
-0.0010252
0.000176931
-0.00126284
0.000220542
-0.00150109
0.000263997
-0.00173287
0.000305595
-0.00195199
0.000343945
-0.00215373
0.000378082
-0.00233525
0.000407507
-0.00249564
0.000432155
-0.00263577
0.000452317
-0.00275781
0.000468522
-0.00286482
0.000481426
-0.00296016
0.000491708
-0.00304718
0.000499997
-0.00312884
0.00050683
-0.00320764
0.000512628
-0.00328546
0.000517697
-0.00336368
0.000522244
-0.00344314
0.000526394
-0.00352428
-0.00360716
0.000530215
4.27575e-06
-6.73421e-05
1.6622e-05
-0.000223106
3.66981e-05
-0.000403696
6.38883e-05
-0.000606887
9.7221e-05
-0.000828649
0.000135353
-0.00106333
0.000176628
-0.00130412
0.000219212
-0.00154367
0.000261267
-0.00177493
0.000301146
-0.00199187
0.000337546
-0.00219013
0.000369609
-0.00236731
0.000396945
-0.00252298
0.000419582
-0.0026584
0.000437877
-0.00277611
0.000452398
-0.00287934
0.000463812
-0.00297158
0.000472786
-0.00305615
0.000479925
-0.00313598
0.000485731
-0.00321344
0.000490591
-0.00329032
0.000494783
-0.00336787
0.000498487
-0.00344685
0.000501813
-0.0035276
-0.00361016
0.000504814
4.36484e-06
-7.1707e-05
1.68941e-05
-0.000235636
3.71587e-05
-0.00042396
6.4445e-05
-0.000634173
9.76808e-05
-0.000861885
0.000135432
-0.00110108
0.00017598
-0.00134467
0.000217461
-0.00158515
0.000258059
-0.00181553
0.000296186
-0.00203
0.000330634
-0.00222458
0.000360651
-0.00239733
0.000385949
-0.00254828
0.000406643
-0.0026791
0.000423148
-0.00279261
0.000436064
-0.00289225
0.000446059
-0.00298157
0.000453787
-0.00306388
0.000459824
-0.00314202
0.000464638
-0.00321826
0.000468586
-0.00329427
0.000471917
-0.0033712
0.000474789
-0.00344972
0.000477295
-0.00353011
-0.00361234
0.000479477
4.44745e-06
-7.61544e-05
1.71387e-05
-0.000248327
3.75546e-05
-0.000444376
6.48831e-05
-0.000661502
9.79539e-05
-0.000894956
0.000135249
-0.00113838
0.00017499
-0.00138441
0.000215301
-0.00162546
0.000254393
-0.00185462
0.000290745
-0.00206635
0.000323246
-0.00225708
0.000351248
-0.00242533
0.000374563
-0.00257159
0.000393382
-0.00269792
0.000408172
-0.0028074
0.000419555
-0.00290364
0.000428199
-0.00299022
0.000434736
-0.00307042
0.000439713
-0.003147
0.000443567
-0.00322211
0.000446625
-0.00329733
0.000449108
-0.00337369
0.000451155
-0.00345177
0.000452845
-0.0035318
-0.00361371
0.00045421
4.52321e-06
-8.06776e-05
1.73546e-05
-0.000261158
3.78838e-05
-0.000464905
6.52006e-05
-0.000688819
9.80395e-05
-0.000927794
0.000134803
-0.00117514
0.000173666
-0.00142327
0.000212746
-0.00166454
0.000250288
-0.00189216
0.000284851
-0.00210091
0.000315416
-0.00228765
0.000341441
-0.00245136
0.000362828
-0.00259298
0.00037984
-0.00271493
0.000392988
-0.00282055
0.000402907
-0.00291356
0.000410259
-0.00299757
0.000415654
-0.00307581
0.00041961
-0.00315095
0.000422533
-0.00322503
0.000424717
-0.00329951
0.000426363
-0.00337533
0.000427592
-0.00345299
0.000428468
-0.00353268
-0.00361426
0.000429018
4.59174e-06
-8.52694e-05
1.75408e-05
-0.000274108
3.81446e-05
-0.000485509
6.5396e-05
-0.00071607
9.79372e-05
-0.000960336
0.000134099
-0.0012113
0.000172016
-0.00146119
0.000209809
-0.00170234
0.000245769
-0.00192812
0.000278532
-0.00213368
0.000307179
-0.00231629
0.000331266
-0.00247544
0.000350784
-0.00261249
0.000366056
-0.0027302
0.00037763
-0.00283213
0.000386149
-0.00292208
0.000392265
-0.00300368
0.000396564
-0.00308011
0.000399532
-0.00315392
0.000401546
-0.00322705
0.000402872
-0.00330084
0.000403691
-0.00337615
0.000404105
-0.00345341
0.000404171
-0.00353274
-0.00361399
0.000403904
4.65339e-06
-8.99228e-05
1.76978e-05
-0.000287152
3.83379e-05
-0.000506149
6.54709e-05
-0.000743203
9.76514e-05
-0.000992516
0.000133144
-0.0012468
0.000170054
-0.0014981
0.000206511
-0.00173879
0.000240862
-0.00196247
0.000271823
-0.00216464
0.000298574
-0.00234304
0.000320768
-0.00249764
0.000338474
-0.0026302
0.000352072
-0.0027438
0.000362136
-0.00284219
0.000369315
-0.00292926
0.000374246
-0.00300861
0.000377488
-0.00308335
0.000379499
-0.00315593
0.000380623
-0.00322817
0.000381105
-0.00330132
0.000381102
-0.00337615
0.000380707
-0.00345301
0.000379962
-0.003532
-0.00361291
0.00037888
4.70659e-06
-9.46294e-05
1.7822e-05
-0.000300267
3.84586e-05
-0.000526786
6.54198e-05
-0.000770164
9.71769e-05
-0.00102427
0.000131936
-0.00128156
0.00016778
-0.00153394
0.00020286
-0.00177387
0.00023558
-0.00199519
0.000264742
-0.0021938
0.000289624
-0.00236793
0.00030997
-0.00251798
0.000325921
-0.00264615
0.000337907
-0.00275579
0.000346524
-0.00285081
0.000352419
-0.00293515
0.00035621
-0.0030124
0.000358432
-0.00308557
0.00035951
-0.00315701
0.000359762
-0.00322842
0.00035941
-0.00330097
0.000358593
-0.00337533
0.000357389
-0.00345181
0.000355836
-0.00353044
-0.00361101
0.000353938
4.75172e-06
-9.93811e-05
1.79142e-05
-0.00031343
3.8508e-05
-0.000547379
6.52453e-05
-0.000796901
9.65193e-05
-0.00105555
0.000130485
-0.00131552
0.000165211
-0.00156867
0.000198877
-0.00180754
0.000229951
-0.00202626
0.000257323
-0.00222117
0.000280366
-0.00239097
0.00029891
-0.00253653
0.000313164
-0.0026604
0.000323599
-0.00276622
0.000330826
-0.00285803
0.000335487
-0.00293981
0.000338182
-0.0030151
0.000339414
-0.00308681
0.000339583
-0.00315718
0.000338978
-0.00322782
0.0003378
-0.00329979
0.000336173
-0.0033737
0.000334164
-0.0034498
0.000331802
-0.00352808
-0.0036083
0.000329088
4.78855e-06
-0.00010417
1.79739e-05
-0.000326615
3.84858e-05
-0.000567891
6.49483e-05
-0.000823364
9.56818e-05
-0.00108628
0.000128797
-0.00134864
0.000162359
-0.00160223
0.00019458
-0.00183976
0.000223999
-0.00205568
0.000249594
-0.00224677
0.000270831
-0.00241221
0.000287621
-0.00255332
0.000300234
-0.00267302
0.000309176
-0.00277516
0.000315067
-0.00286392
0.000318543
-0.00294329
0.000320177
-0.00301673
0.000320449
-0.00308708
0.000319727
-0.00315646
0.000318278
-0.00322637
0.000316282
-0.0032978
0.000313848
-0.00337127
0.000311035
-0.00344699
0.000307864
-0.00352491
-0.00360477
0.000304334
4.81687e-06
-0.000108986
1.80007e-05
-0.000339799
3.83919e-05
-0.000588283
6.45299e-05
-0.000849502
9.4668e-05
-0.00111642
0.000126881
-0.00138085
0.000159236
-0.00163459
0.000189988
-0.00187051
0.000217747
-0.00208344
0.000241582
-0.0022706
0.000261048
-0.00243167
0.000276132
-0.0025684
0.000287159
-0.00268404
0.000294663
-0.00278267
0.00029927
-0.00286853
0.000301602
-0.00294562
0.000302211
-0.00301734
0.000301547
-0.00308641
0.000299952
-0.00315486
0.000297669
-0.00322409
0.00029486
-0.00329499
0.000291623
-0.00336803
0.000288006
-0.00344337
0.000284028
-0.00352093
-0.00360042
0.000279681
4.83654e-06
-0.000113823
1.79943e-05
-0.000352957
3.82265e-05
-0.000608515
6.39917e-05
-0.000875267
9.34825e-05
-0.00114591
0.000124744
-0.00141211
0.000155856
-0.0016657
0.000185118
-0.00189977
0.000211218
-0.00210954
0.000233314
-0.0022927
0.000251045
-0.0024494
0.000264472
-0.00258183
0.000273966
-0.00269354
0.000280084
-0.00278879
0.000283455
-0.0028719
0.000284683
-0.00294685
0.000284297
-0.00301696
0.000282719
-0.00308484
0.000280265
-0.00315241
0.000277157
-0.00322098
0.00027354
-0.00329137
0.000269501
-0.00336399
0.000265082
-0.00343895
0.000260296
-0.00351615
-0.00359526
0.000255133
4.84742e-06
-0.00011867
1.79547e-05
-0.000366064
3.79902e-05
-0.00062855
6.3336e-05
-0.000900613
9.213e-05
-0.0011747
0.000122397
-0.00144238
0.000152231
-0.00169553
0.00017999
-0.00192753
0.000204435
-0.00213399
0.000224815
-0.00231308
0.00024085
-0.00246544
0.000252668
-0.00259365
0.00026068
-0.00270155
0.000265462
-0.00279357
0.000267639
-0.00287408
0.0002678
-0.00294701
0.000266446
-0.0030156
0.000263974
-0.00308236
0.000260674
-0.00314911
0.000256749
-0.00321705
0.000252328
-0.00328695
0.000247489
-0.00335915
0.000242267
-0.00343373
0.000236672
-0.00351055
-0.00358928
0.000230693
4.84943e-06
-0.00012352
1.78819e-05
-0.000379097
3.76837e-05
-0.000648352
6.25652e-05
-0.000925494
9.0616e-05
-0.00120275
0.000119847
-0.00147161
0.000148377
-0.00172406
0.00017462
-0.00195378
0.00019742
-0.00215679
0.000216109
-0.00233177
0.000230488
-0.00247982
0.000240743
-0.0026039
0.000247323
-0.00270813
0.000250816
-0.00279706
0.00025184
-0.0028751
0.000250966
-0.00294613
0.00024867
-0.00301331
0.00024532
-0.00307902
0.000241185
-0.00314497
0.000236448
-0.00321232
0.000231227
-0.00328173
0.000225588
-0.00335352
0.000219565
-0.00342771
0.000213161
-0.00350415
-0.00358248
0.000206365
4.84251e-06
-0.000128362
1.77761e-05
-0.00039203
3.73081e-05
-0.000667884
6.16821e-05
-0.000949868
8.89464e-05
-0.00123002
0.000117105
-0.00149977
0.000144307
-0.00175127
0.000169029
-0.0019785
0.000190195
-0.00217795
0.000207221
-0.00234879
0.000219984
-0.00249258
0.000228722
-0.00261264
0.000233916
-0.00271332
0.000236164
-0.00279931
0.000236073
-0.00287501
0.000234194
-0.00294426
0.000230977
-0.00301009
0.000226765
-0.0030748
0.000221805
-0.00314001
0.000216261
-0.00320677
0.000210241
-0.00327571
0.000203805
-0.00334708
0.000196979
-0.00342088
0.000189766
-0.00349694
-0.00357487
0.000182154
4.82666e-06
-0.000133189
1.76375e-05
-0.000404841
3.68647e-05
-0.000687111
6.06902e-05
-0.000973694
8.71273e-05
-0.00125646
0.00011418
-0.00152682
0.000140035
-0.00177712
0.000163233
-0.0020017
0.000182779
-0.0021975
0.000198173
-0.00236419
0.000209358
-0.00250377
0.000216625
-0.0026199
0.000220479
-0.00271718
0.000221522
-0.00280035
0.000220352
-0.00287384
0.000217494
-0.0029414
0.000213376
-0.00300597
0.000208315
-0.00306974
0.000202537
-0.00313423
0.000196192
-0.00320043
0.000189376
-0.00326889
0.000182141
-0.00333985
0.000174512
-0.00341325
0.000166491
-0.00348891
-0.00356644
0.000158063
4.80188e-06
-0.000137991
1.74666e-05
-0.000417506
3.63549e-05
-0.000705999
5.95928e-05
-0.000996932
8.51653e-05
-0.00128203
0.000111083
-0.00155274
0.000135576
-0.00180161
0.00015725
-0.00202337
0.000175194
-0.00221544
0.000188985
-0.00237798
0.000198633
-0.00251341
0.000204472
-0.00262574
0.000207029
-0.00271974
0.000206907
-0.00280023
0.000204688
-0.00287162
0.000200877
-0.00293759
0.000195875
-0.00300097
0.000189977
-0.00306384
0.000183389
-0.00312765
0.000176246
-0.00319329
0.000168634
-0.00326128
0.000160602
-0.00333181
0.00015217
-0.00340482
0.000143338
-0.00348008
-0.0035572
0.000134094
4.76823e-06
-0.000142759
1.72639e-05
-0.000430001
3.57804e-05
-0.000724516
5.83937e-05
-0.00101955
8.30671e-05
-0.0013067
0.000107825
-0.0015775
0.000130942
-0.00182473
0.000151098
-0.00204353
0.000167459
-0.0022318
0.000179679
-0.0023902
0.000187829
-0.00252156
0.000192282
-0.0026302
0.000193583
-0.00272104
0.00019233
-0.00279898
0.000189092
-0.00286839
0.000184351
-0.00293285
0.000178481
-0.0029951
0.000171756
-0.00305712
0.000164364
-0.00312025
0.000156426
-0.00318535
0.00014802
-0.00325287
0.00013919
-0.00332298
0.000129955
-0.00339559
0.000120312
-0.00347044
-0.00354714
0.000110253
4.72579e-06
-0.000147485
1.70299e-05
-0.000442306
3.51432e-05
-0.000742629
5.7097e-05
-0.0010415
8.08396e-05
-0.00133044
0.000104415
-0.00160107
0.000126149
-0.00184646
0.000144792
-0.00206217
0.000159591
-0.0022466
0.000170273
-0.00240088
0.000176964
-0.00252826
0.000180072
-0.0026333
0.000180155
-0.00272112
0.000177806
-0.00279663
0.000173576
-0.00286416
0.000167923
-0.00292719
0.0001612
-0.00298838
0.000153658
-0.00304958
0.000145466
-0.00311206
0.000136736
-0.00317662
0.000127537
-0.00324367
0.00011791
-0.00331336
0.00010787
-0.00338555
9.74166e-05
-0.00345999
-0.00353626
8.654e-05
4.67465e-06
-0.00015216
1.67654e-05
-0.000454396
3.44452e-05
-0.000760309
5.57068e-05
-0.00106276
7.849e-05
-0.00135323
0.000100864
-0.00162344
0.000121209
-0.00186681
0.000138349
-0.00207931
0.000151609
-0.00225986
0.000160785
-0.00241006
0.000166056
-0.00253353
0.000167858
-0.00263511
0.000166758
-0.00272002
0.000163344
-0.00279321
0.000158147
-0.00285896
0.000151602
-0.00292065
0.000144039
-0.00298081
0.000135687
-0.00304123
0.000126701
-0.00310308
0.000117181
-0.0031671
0.00010719
-0.00323368
9.67642e-05
-0.00330293
8.59191e-05
-0.0033747
7.46543e-05
-0.00344872
-0.00352457
6.29579e-05
4.61497e-06
-0.000156775
1.64712e-05
-0.000466253
3.36886e-05
-0.000777526
5.42275e-05
-0.0010833
7.60254e-05
-0.00137503
9.71819e-05
-0.0016446
0.000116135
-0.00188576
0.000131785
-0.00209496
0.000143529
-0.00227161
0.000151232
-0.00241776
0.000155119
-0.00253741
0.000155653
-0.00263564
0.000153406
-0.00271777
0.000148955
-0.00278876
0.000142814
-0.00285282
0.000135394
-0.00291323
0.000127001
-0.00297242
0.000117847
-0.00303207
0.000108072
-0.0030933
9.77641e-05
-0.00315679
8.69817e-05
-0.0032229
7.57581e-05
-0.00329171
6.41068e-05
-0.00336305
5.2028e-05
-0.00343664
-0.00351204
3.95037e-05
4.54689e-06
-0.000161321
1.61481e-05
-0.000477854
3.28757e-05
-0.000794254
5.26636e-05
-0.00110309
7.34529e-05
-0.00139581
9.33791e-05
-0.00166453
0.000110942
-0.00190332
0.000125113
-0.00210913
0.000135368
-0.00228186
0.00014163
-0.00242402
0.00014417
-0.00253995
0.000143471
-0.00263494
0.000140109
-0.00271441
0.000134649
-0.0027833
0.000127584
-0.00284575
0.000119304
-0.00290495
0.000110093
-0.00296321
0.000100143
-0.00302212
8.95821e-05
-0.00308274
7.84892e-05
-0.0031457
6.69167e-05
-0.00321133
5.48963e-05
-0.00327969
4.24414e-05
-0.00335059
2.95394e-05
-0.00342374
-0.00349865
1.61436e-05
4.4706e-06
-0.000165792
1.5797e-05
-0.00048918
3.20088e-05
-0.000810466
5.10194e-05
-0.0011221
7.07799e-05
-0.00141558
8.94657e-05
-0.00168321
0.00010564
-0.0019195
0.000118349
-0.00212184
0.000127139
-0.00229065
0.000131994
-0.00242888
0.000133222
-0.00254118
0.000131325
-0.00263305
0.000126878
-0.00270996
0.000120434
-0.00277686
0.000112465
-0.00283778
0.000103338
-0.00289582
9.33178e-05
-0.00295319
8.25794e-05
-0.00301138
7.12359e-05
-0.0030714
5.93597e-05
-0.00313382
4.69982e-05
-0.00319897
3.41826e-05
-0.00326687
2.09325e-05
-0.00333734
7.23763e-06
-0.00341005
-0.0034843
-7.10765e-06
4.38631e-06
-0.000170178
1.5419e-05
-0.000500213
3.10905e-05
-0.000826138
4.92998e-05
-0.00114031
6.80134e-05
-0.00143429
8.54512e-05
-0.00170065
0.000100241
-0.00193429
0.000111505
-0.0021331
0.000118858
-0.002298
0.000122337
-0.00243236
0.000122287
-0.00254113
0.000119224
-0.00262998
0.000113721
-0.00270446
0.000106316
-0.00276945
9.7461e-05
-0.00282893
8.75014e-05
-0.00288586
7.66805e-05
-0.00294237
6.51586e-05
-0.00299986
5.30366e-05
-0.00305927
4.03789e-05
-0.00312116
2.72297e-05
-0.00318582
1.36191e-05
-0.00325326
-4.39655e-07
-0.00332329
-1.4938e-05
-0.00339555
-0.00346934
-2.98962e-05
4.29423e-06
-0.000174473
1.5015e-05
-0.000510934
3.01232e-05
-0.000841246
4.75093e-05
-0.00115769
6.51605e-05
-0.00145194
8.13454e-05
-0.00171684
9.47589e-05
-0.0019477
0.000104595
-0.00214294
0.000110537
-0.00230395
0.000112673
-0.00243449
0.000111378
-0.00253984
0.00010718
-0.00262578
0.000100648
-0.00269793
9.23035e-05
-0.00276111
8.25788e-05
-0.0028192
7.17977e-05
-0.00287508
6.01846e-05
-0.00293075
4.78845e-05
-0.00298756
3.49873e-05
-0.00304638
2.15503e-05
-0.00310773
7.61427e-06
-0.00317188
-6.7896e-06
-0.00323886
-2.16399e-05
-0.00330844
-3.69491e-05
-0.00338024
-0.0034536
-5.2695e-05
4.19462e-06
-0.000178667
1.45862e-05
-0.000521325
2.91095e-05
-0.000855769
4.56525e-05
-0.00117424
6.22283e-05
-0.00146852
7.71574e-05
-0.00173176
8.9203e-05
-0.00195975
9.76314e-05
-0.00215137
0.000102189
-0.0023085
0.000103012
-0.00243532
0.000100504
-0.00253733
9.52016e-05
-0.00262048
8.76653e-05
-0.00269039
7.84021e-05
-0.00275185
6.78229e-05
-0.00280862
5.62313e-05
-0.00286349
4.38336e-05
-0.00291836
3.07604e-05
-0.00297449
1.70913e-05
-0.00303271
2.87675e-06
-0.00309351
-1.18448e-05
-0.00315716
-2.70421e-05
-0.00322366
-4.2693e-05
-0.00329278
-5.87981e-05
-0.00336413
-0.00343704
-7.53566e-05
4.08772e-06
-0.000182755
1.41336e-05
-0.000531371
2.80521e-05
-0.000869688
4.3734e-05
-0.00118992
5.92236e-05
-0.00148401
7.28962e-05
-0.00174544
8.35842e-05
-0.00197044
9.06249e-05
-0.00215841
9.38256e-05
-0.0023117
9.33674e-05
-0.00243486
8.96769e-05
-0.00253364
8.32971e-05
-0.0026141
7.47806e-05
-0.00268187
6.46174e-05
-0.00274168
5.31979e-05
-0.00279721
4.0806e-05
-0.0028511
2.76308e-05
-0.00290518
1.37894e-05
-0.00296065
-6.48767e-07
-0.00301827
-1.56382e-05
-0.00307852
-3.11445e-05
-0.00314165
-4.71352e-05
-0.00320767
-6.35856e-05
-0.00327633
-8.04901e-05
-0.00334723
-0.00341967
-9.78608e-05
3.97381e-06
-0.000186729
1.36585e-05
-0.000541056
2.69535e-05
-0.000882983
4.17585e-05
-0.00120472
5.61532e-05
-0.0014984
6.85705e-05
-0.00175785
7.79128e-05
-0.00197978
8.35866e-05
-0.00216408
8.54577e-05
-0.00231358
8.37477e-05
-0.00243315
7.89045e-05
-0.00252879
7.14743e-05
-0.00260667
6.2e-05
-0.0026724
5.09544e-05
-0.00273064
3.87078e-05
-0.00278496
2.55251e-05
-0.00283792
1.15791e-05
-0.00289123
-3.02569e-06
-0.00294604
-1.82287e-05
-0.00300307
-3.39916e-05
-0.00306276
-5.02813e-05
-0.00312536
-6.70652e-05
-0.00319088
-8.43149e-05
-0.00325908
-0.000102021
-0.00332952
-0.00340149
-0.0001202
3.85316e-06
-0.000190582
1.31619e-05
-0.000550364
2.58165e-05
-0.000895637
3.97304e-05
-0.00121864
5.30234e-05
-0.00151169
6.41887e-05
-0.00176902
7.21985e-05
-0.00198779
7.65269e-05
-0.00216841
7.70953e-05
-0.00231414
7.41629e-05
-0.00243021
6.81953e-05
-0.00252283
5.97401e-05
-0.00259822
4.93291e-05
-0.00266199
3.74176e-05
-0.00271873
2.43564e-05
-0.0027719
1.03918e-05
-0.00282395
-4.31842e-06
-0.00287652
-1.96818e-05
-0.00293068
-3.56467e-05
-0.0029871
-5.21802e-05
-0.00304623
-6.9252e-05
-0.00310829
-8.68285e-05
-0.00317331
-0.000104877
-0.00324103
-0.000123385
-0.00331102
-0.0033825
-0.00014237
3.72607e-06
-0.000194308
1.26451e-05
-0.000559283
2.46435e-05
-0.000907636
3.76542e-05
-0.00123165
4.98408e-05
-0.00152388
5.97588e-05
-0.00177894
6.64503e-05
-0.00199448
6.94555e-05
-0.00217142
6.87481e-05
-0.00231344
6.46217e-05
-0.00242609
5.7557e-05
-0.00251576
4.81008e-05
-0.00258876
3.67731e-05
-0.00265066
2.40112e-05
-0.00270596
1.01469e-05
-0.00275803
-4.59101e-06
-0.00280921
-2.00591e-05
-0.00286106
-3.61763e-05
-0.00291456
-5.28993e-05
-0.00297038
-7.02007e-05
-0.00302892
-8.8053e-05
-0.00309044
-0.000106421
-0.00315494
-0.00012527
-0.00322219
-0.000144579
-0.00329171
-0.000164367
3.59283e-06
-0.000197901
1.21092e-05
-0.0005678
2.34372e-05
-0.000918964
3.55343e-05
-0.00124374
4.66115e-05
-0.00153496
5.52885e-05
-0.00178761
6.0677e-05
-0.00199987
6.23813e-05
-0.00217312
6.04248e-05
-0.00231148
5.5132e-05
-0.0024208
4.69965e-05
-0.00250763
3.65623e-05
-0.00257833
2.43366e-05
-0.00263844
1.07388e-05
-0.00269237
-3.91766e-06
-0.00274338
-1.94206e-05
-0.00279371
-3.56405e-05
-0.00284484
-5.25067e-05
-0.0028977
-6.99838e-05
-0.0029529
-8.80501e-05
-0.00301086
-0.000106681
-0.00307181
-0.00012584
-0.00313578
-0.000145487
3.45375e-06
-0.000201355
1.15554e-05
-0.000575901
2.22003e-05
-0.000929609
3.33749e-05
-0.00125492
4.33414e-05
-0.00154492
5.0785e-05
-0.00179506
5.48868e-05
-0.00200397
5.53128e-05
-0.00217355
5.21334e-05
-0.0023083
4.57013e-05
-0.00241436
3.65201e-05
-0.00249844
2.51297e-05
-0.00256694
1.20237e-05
-0.00262533
-2.3961e-06
-0.00267795
-1.78343e-05
-0.00272794
-3.40946e-05
-0.00277745
-5.10602e-05
-0.00282787
-6.86703e-05
-0.00288009
-8.68972e-05
-0.00293467
-0.000105725
-0.00299203
-0.000125132
-0.0030524
3.30914e-06
-0.000204664
1.0985e-05
-0.000583577
2.09352e-05
-0.000939559
3.11802e-05
-0.00126516
4.00362e-05
-0.00155378
4.62555e-05
-0.00180128
4.90874e-05
-0.0020068
4.8258e-05
-0.00217272
4.38816e-05
-0.00230392
3.63362e-05
-0.00240682
2.61335e-05
-0.00248824
1.38076e-05
-0.00255461
-1.61901e-07
-0.00261136
-1.53906e-05
-0.00266272
-3.16007e-05
-0.00271173
-4.86107e-05
-0.00276044
-6.63159e-05
-0.00281017
-8.46647e-05
-0.00286174
-0.000103637
-0.0029157
-0.000123222
-0.00297245
3.1593e-06
-0.000207823
1.03991e-05
-0.000590817
1.96445e-05
-0.000948804
2.89541e-05
-0.00127447
3.67015e-05
-0.00156153
4.17065e-05
-0.00180628
4.32862e-05
-0.00200838
4.12242e-05
-0.00217066
3.56763e-05
-0.00229838
2.70431e-05
-0.00239818
1.5842e-05
-0.00247704
2.60046e-06
-0.00254137
-1.22164e-05
-0.00259654
-2.82418e-05
-0.00264669
-4.52144e-05
-0.00269476
-6.29668e-05
-0.00274269
-8.14055e-05
-0.00279173
-0.000100488
-0.00284266
-0.0001202
-0.00289599
3.00455e-06
-0.000210828
9.79888e-06
-0.000597611
1.83306e-05
-0.000957336
2.67007e-05
-0.00128284
3.33426e-05
-0.00156817
3.71444e-05
-0.00181008
3.749e-05
-0.00200873
3.42183e-05
-0.00216738
2.75239e-05
-0.00229168
1.78274e-05
-0.00238849
5.65037e-06
-0.00246486
-8.48801e-06
-0.00252723
-2.41372e-05
-0.00258089
-4.09475e-05
-0.00262988
-5.86733e-05
-0.00267703
-7.7161e-05
-0.0027242
-9.63269e-05
-0.00277256
-0.000116137
2.8452e-06
-0.000213673
9.18549e-06
-0.000603952
1.69959e-05
-0.000965146
2.44237e-05
-0.00129027
2.99645e-05
-0.00157371
3.25752e-05
-0.0018127
3.17053e-05
-0.00200786
2.72468e-05
-0.00216293
1.94304e-05
-0.00228387
8.69448e-06
-0.00237775
-4.43713e-06
-0.00245173
-1.94543e-05
-0.00251221
-3.59214e-05
-0.00256443
-5.35052e-05
-0.0026123
-7.19757e-05
-0.00265856
-9.11913e-05
-0.00270498
2.68157e-06
-0.000216354
8.56011e-06
-0.00060983
1.56427e-05
-0.000972229
2.21268e-05
-0.00129676
2.65719e-05
-0.00157815
2.80046e-05
-0.00181413
2.59381e-05
-0.00200579
2.03155e-05
-0.0021573
1.14013e-05
-0.00227495
-3.50214e-07
-0.002366
-1.44166e-05
-0.00243767
-3.02953e-05
-0.00249633
-4.75664e-05
-0.00254716
-6.5913e-05
-0.00259395
-8.51195e-05
-0.00263935
2.51397e-06
-0.000218868
7.92385e-06
-0.00061524
1.42733e-05
-0.000978578
1.98134e-05
-0.0013023
2.31697e-05
-0.00158151
2.34378e-05
-0.0018144
2.0194e-05
-0.00200255
1.343e-05
-0.00215054
3.44162e-06
-0.00226496
-9.30463e-06
-0.00235325
-2.42845e-05
-0.00242269
-4.10082e-05
-0.00247961
-5.90702e-05
-0.00252909
-7.81691e-05
-0.00257485
2.34271e-06
-0.000221211
7.27782e-06
-0.000620175
1.289e-05
-0.00098419
1.74871e-05
-0.00130689
1.97621e-05
-0.00158379
1.88801e-05
-0.00181351
1.44786e-05
-0.00199815
6.59499e-06
-0.00214266
-4.44415e-06
-0.00225392
-1.81625e-05
-0.00233954
-3.40377e-05
-0.00240681
-5.15905e-05
-0.00246206
-7.04305e-05
-0.00251025
2.16809e-06
-0.000223379
6.6231e-06
-0.00062463
1.14948e-05
-0.000989062
1.51509e-05
-0.00131055
1.63533e-05
-0.00158499
1.43361e-05
-0.0018115
8.79704e-06
-0.00199261
-1.77513e-07
-0.00213368
-1.22512e-05
-0.00224185
-2.69213e-05
-0.00232487
-4.36733e-05
-0.00239006
-6.204e-05
-0.00244369
1.99044e-06
-0.00022537
5.96076e-06
-0.000628601
1.00899e-05
-0.000993191
1.2808e-05
-0.00131327
1.29473e-05
-0.00158513
9.8102e-06
-0.00180836
3.15271e-06
-0.00198595
-6.90288e-06
-0.00212363
-1.99774e-05
-0.00222878
-3.55776e-05
-0.00230927
-5.31887e-05
-0.00237245
1.81008e-06
-0.00022718
5.29184e-06
-0.000632082
8.67717e-06
-0.000996576
1.04615e-05
-0.00131505
9.54787e-06
-0.00158421
5.30661e-06
-0.00180412
-2.44914e-06
-0.00197819
-1.35572e-05
-0.00211252
-2.76176e-05
-0.00221471
-4.41286e-05
-0.00229276
-0.00235399
1.62737e-06
-0.000228807
4.61739e-06
-0.000635072
7.25871e-06
-0.000999218
8.11408e-06
-0.00131591
6.15882e-06
-0.00158226
8.32732e-07
-0.00179879
-8.00516e-06
-0.00196936
-2.01441e-05
-0.00210038
-3.51689e-05
-0.00219969
-5.25715e-05
-0.00227535
1.44271e-06
-0.00023025
3.9384e-06
-0.000637568
5.8363e-06
-0.00100112
5.76869e-06
-0.00131584
2.78277e-06
-0.00157927
-3.61733e-06
-0.00179239
-1.35111e-05
-0.00195946
-2.66602e-05
-0.00208723
-4.26284e-05
-0.00218372
1.25639e-06
-0.000231506
3.25586e-06
-0.000639568
4.41175e-06
-0.00100227
3.42802e-06
-0.00131486
-5.72654e-07
-0.00157527
-8.03052e-06
-0.00178493
-1.89637e-05
-0.00194853
-3.3102e-05
-0.00207309
1.06867e-06
-0.000232575
2.57065e-06
-0.00064107
2.98679e-06
-0.00100269
1.09453e-06
-0.00131296
-3.91657e-06
-0.00157026
-1.24078e-05
-0.00177644
-2.43598e-05
-0.00193658
8.7992e-07
-0.000233455
1.88377e-06
-0.000642073
1.56272e-06
-0.00100237
-1.23083e-06
-0.00131017
-7.23381e-06
-0.00156426
-1.67452e-05
-0.00176693
6.9039e-07
-0.000234145
1.19617e-06
-0.000642579
1.44134e-07
-0.00100131
-3.54525e-06
-0.00130648
-1.05264e-05
-0.00155728
-0.00175642
5.00064e-07
-0.000234645
5.07438e-07
-0.000642587
-1.27586e-06
-0.000999531
-5.846e-06
-0.00130191
-1.37915e-05
-0.00154933
3.07989e-07
-0.000234953
-1.81902e-07
-0.000642097
-2.68783e-06
-0.000997025
-8.13141e-06
-0.00129647
9.97886e-08
-0.000235053
-8.69056e-07
-0.000641128
-4.09289e-06
-0.000993802
-0.00129016
-9.70362e-08
-0.000234956
-1.55519e-06
-0.00063967
-5.4899e-06
-0.000989867
-2.75766e-07
-0.00023468
-2.23628e-06
-0.000637709
-4.66036e-07
-0.000234214
-0.00063526
-6.58046e-07
-0.000233556
-0.000232706
0.00022281
0.000223735
-7.36462e-07
0.000224472
0.000608074
-5.47354e-07
0.000225019
0.000610674
-3.58791e-07
0.000225378
-2.47869e-06
0.000612794
0.000947683
-1.7527e-07
0.000225553
-1.80747e-06
0.000614426
-5.91197e-06
0.000951788
0.00123532
6.17076e-09
0.000225547
-1.13338e-06
0.000615565
-4.53521e-06
0.000955189
0.00124175
2.11046e-07
0.000225336
-4.55597e-07
0.000616232
-3.15104e-06
0.000957885
-8.73431e-06
0.00124734
0.0014845
4.02645e-07
0.000224933
2.20322e-07
0.000616414
-1.76083e-06
0.000959866
-6.48127e-06
0.00125206
-1.44955e-05
0.00149251
0.00168394
5.89982e-07
0.000224343
8.98276e-07
0.000616106
-3.65124e-07
0.000961129
-4.21433e-06
0.00125591
-1.12732e-05
0.00149957
-2.17743e-05
0.00169444
0.00184568
7.75991e-07
0.000223567
1.57372e-06
0.000615308
1.03181e-06
0.000961671
-1.93567e-06
0.00125887
-8.02561e-06
0.00150566
-1.75311e-05
0.00170395
0.00185854
9.60935e-07
0.000222606
2.24764e-06
0.000614022
2.43096e-06
0.000961488
3.55809e-07
0.00126095
-4.75523e-06
0.00151077
-1.32486e-05
0.00171244
-2.51123e-05
0.0018704
0.00199128
1.14464e-06
0.000221462
2.91921e-06
0.000612247
3.82942e-06
0.000960578
2.64738e-06
0.00126213
-1.46484e-06
0.00151488
-8.92973e-06
0.00171991
-1.97779e-05
0.00188125
-3.376e-05
0.00200526
0.00209945
1.32678e-06
0.000220135
3.58753e-06
0.000609986
5.22639e-06
0.000958939
4.94736e-06
0.00126241
1.84118e-06
0.00151799
-4.57858e-06
0.00172633
-1.43907e-05
0.00189107
-2.73839e-05
0.00201826
-4.31456e-05
0.00211521
0.00218951
1.50714e-06
0.000218628
4.25172e-06
0.000607242
6.62002e-06
0.000956571
7.2494e-06
0.00126178
5.16119e-06
0.00152008
-1.84685e-07
0.00173167
-8.95387e-06
0.00189983
-2.09385e-05
0.00203024
-3.5754e-05
0.00213003
-5.29163e-05
0.00220668
0.00226713
1.68542e-06
0.000216942
4.91079e-06
0.000604016
8.00831e-06
0.000953473
9.55097e-06
0.00126024
8.48971e-06
0.00152114
4.21086e-06
0.00173595
-3.47425e-06
0.00190752
-1.44273e-05
0.00204119
-2.82761e-05
0.00214388
-4.45417e-05
0.00222294
-6.27339e-05
0.00228532
0.00233691
1.86121e-06
0.000215081
5.56372e-06
0.000600314
9.38943e-06
0.000949647
1.18493e-05
0.00125778
1.18258e-05
0.00152116
8.64128e-06