/*--------------------------------*- C++ -*----------------------------------*\
  =========                 |
  \\      /  F ield         | OpenFOAM: The Open Source CFD Toolbox
   \\    /   O peration     | Website:  https://openfoam.org
    \\  /    A nd           | Version:  7
     \\/     M anipulation  |
\*---------------------------------------------------------------------------*/
FoamFile
{
    version     2.0;
    format      ascii;
    class       volVectorField;
    location    "80";
    object      U;
}
// * * * * * * * * * * * * * * * * * * * * * * * * * * * * * * * * * * * * * //

dimensions      [0 1 -1 0 0 0 0];

internalField   nonuniform List<vector> 
7156
(
(0.0198081 -0.00364186 1.53948e-20)
(0.0741948 -0.00931793 8.4933e-21)
(0.0221288 -0.0037704 -1.35681e-19)
(0.0810967 -0.00929686 5.07874e-20)
(0.155258 -0.00895166 1.56355e-19)
(0.242885 -0.00409489 -1.08447e-19)
(0.0245483 -0.0038449 3.24923e-20)
(0.0882392 -0.00911066 1.09107e-19)
(0.167005 -0.00802435 1.07055e-20)
(0.259003 -0.00209117 -1.04638e-20)
(0.36211 0.00854014 -1.28705e-19)
(0.473575 0.0234814 -1.21387e-20)
(0.590079 0.0420529 1.64178e-19)
(0.0270643 -0.00386085 -1.00545e-19)
(0.0956124 -0.00874826 -9.27477e-20)
(0.179055 -0.00680943 -1.35097e-19)
(0.275436 0.000299286 -6.57352e-20)
(0.38245 0.0123261 8.12563e-20)
(0.497141 0.0287667 9.88511e-20)
(0.615987 0.0488165 -1.09008e-19)
(0.735087 0.0714618 -9.89363e-20)
(0.850443 0.0955212 -6.73321e-20)
(0.958305 0.11974 2.64428e-20)
(0.0296739 -0.0038137 5.4798e-20)
(0.103205 -0.00819891 7.14943e-20)
(0.191388 -0.00529314 5.17175e-20)
(0.292146 0.00309033 2.60353e-20)
(0.402995 0.0165889 -4.82449e-21)
(0.520771 0.0345753 -1.14791e-19)
(0.641757 0.0561154 6.1102e-20)
(0.761906 0.0800735 7.96553e-21)
(0.87716 0.105168 -1.00928e-20)
(0.983808 0.130078 1.61631e-19)
(1.07884 0.153572 -4.23116e-21)
(1.16023 0.174628 -2.35048e-20)
(1.227 0.192516 4.75482e-20)
(0.0323738 -0.00369895 1.29322e-20)
(0.111006 -0.0074521 -1.10758e-19)
(0.203979 -0.00346245 -1.29122e-20)
(0.3091 0.00629439 1.22154e-19)
(0.423697 0.0213376 -2.51394e-20)
(0.544404 0.0409105 5.99534e-20)
(0.66732 0.0639455 -6.32207e-20)
(0.788273 0.0891856 1.67771e-20)
(0.903168 0.115253 -2.29397e-20)
(1.00837 0.140772 3.02547e-21)
(1.10105 0.164497 -4.05771e-20)
(1.17942 0.185438 -1.11547e-19)
(1.24281 0.202929 5.76642e-20)
(1.29163 0.216653 -1.72036e-20)
(1.3271 0.226617 1.013e-19)
(1.35104 0.233082 -6.40242e-21)
(1.36552 0.236482 -1.56283e-19)
(0.0351603 -0.00351227 3.59824e-20)
(0.119001 -0.00649785 5.56504e-20)
(0.216804 -0.00130524 -1.40734e-20)
(0.326258 0.00992257 -5.45099e-20)
(0.444504 0.0265794 -1.04359e-20)
(0.567979 0.0477731 1.09754e-19)
(0.692609 0.0723004 4.58844e-20)
(0.81412 0.0987843 -1.08107e-20)
(0.928409 0.125759 5.0246e-20)
(1.03195 0.151799 -5.01764e-20)
(1.1221 0.175664 4.65252e-20)
(1.19737 0.196402 4.08166e-21)
(1.25737 0.213421 -5.06111e-20)
(1.3028 0.226493 -7.08307e-20)
(1.3351 0.235711 -9.88936e-20)
(1.35624 0.241414 -7.1313e-20)
(1.36839 0.24409 1.03459e-19)
(1.37368 0.244296 -2.14101e-20)
(1.37402 0.242579 -5.83016e-20)
(1.371 0.239429 -3.49959e-20)
(1.36583 0.235258 -5.2197e-20)
(0.038029 -0.00324945 -4.57119e-20)
(0.127174 -0.00532677 2.05313e-20)
(0.229836 0.00118951 5.77199e-20)
(0.343581 0.0139843 2.51229e-20)
(0.465365 0.0323193 6.54243e-20)
(0.591434 0.055162 -9.84088e-20)
(0.717559 0.0811716 -2.3307e-20)
(0.839384 0.108854 1.98233e-20)
(0.952831 0.136663 3.08963e-20)
(1.0545 0.163137 1.06159e-19)
(1.14199 0.187048 -3.34049e-20)
(1.21408 0.207499 5.4764e-20)
(1.27071 0.223977 -3.05014e-20)
(1.3128 0.236347 -2.8085e-20)
(1.34204 0.24479 5.0238e-20)
(1.36054 0.249717 7.57922e-20)
(1.37052 0.25167 -6.65824e-20)
(1.37411 0.251235 -2.11942e-20)
(1.37319 0.248971 1.37953e-20)
(1.36925 0.245367 8.99459e-20)
(1.36347 0.240823 1.42727e-19)
(1.35665 0.235641 6.57611e-20)
(1.34932 0.230044 1.59904e-20)
(1.34176 0.224195 8.34314e-20)
(1.33403 0.217953 -1.59191e-20)
(0.0409751 -0.00290646 1.10741e-19)
(0.135511 -0.00393008 -4.84535e-20)
(0.243047 0.00403163 -3.97549e-20)
(0.361027 0.0184874 3.77086e-20)
(0.486227 0.0385604 -1.78204e-19)
(0.614708 0.0630737 2.57229e-20)
(0.742105 0.0905483 4.44628e-20)
(0.864006 0.119378 7.17457e-21)
(0.976385 0.147944 -4.48778e-20)
(1.076 0.174762 -1.07433e-19)
(1.16071 0.198628 -1.3947e-21)
(1.22958 0.218709 -4.35616e-20)
(1.28284 0.234582 4.83642e-21)
(1.32169 0.246205 1.05793e-19)
(1.348 0.253847 3.59829e-20)
(1.364 0.257989 -3.72679e-20)
(1.37196 0.259221 1.2395e-19)
(1.37399 0.258153 -1.62713e-20)
(1.37192 0.255354 6.45535e-20)
(1.36718 0.251306 -1.10826e-19)
(1.36086 0.246397 -3.88064e-20)
(1.35369 0.240914 -8.63568e-20)
(1.34613 0.235068 8.64532e-20)
(1.33842 0.228995 -2.46602e-20)
(1.33061 0.222602 -3.19336e-20)
(0.0439935 -0.00247949 -3.39678e-20)
(0.143994 -0.00229975 1.98559e-20)
(0.256406 0.00722976 8.81124e-21)
(0.378556 0.023438 -1.03058e-19)
(0.507037 0.0453038 9.48324e-21)
(0.637743 0.0715024 -2.5379e-20)
(0.766187 0.100418 -4.81052e-21)
(0.887931 0.130338 4.62396e-20)
(0.999029 0.15958 2.10979e-20)
(1.09643 0.186651 6.53918e-20)
(1.17825 0.210382 3.51082e-20)
(1.24387 0.230016 1.76545e-21)
(1.2938 0.245223 -4.56802e-23)
(1.32951 0.256059 -3.90496e-20)
(1.35302 0.262879 4.43841e-20)
(1.36666 0.26623 -4.57341e-21)
(1.37275 0.266744 -4.27175e-20)
(1.37336 0.265053 -1.04124e-19)
(1.37026 0.261728 -1.66125e-20)
(1.36481 0.257246 -5.08272e-21)
(1.35801 0.25198 -4.29943e-20)
(1.35053 0.2462 7.72553e-20)
(1.34279 0.240105 -6.27373e-20)
(1.33496 0.233808 -2.17615e-20)
(1.32708 0.227261 4.97048e-20)
(0.0470783 -0.00196495 1.82873e-20)
(0.152606 -0.000428476 -3.04088e-20)
(0.269883 0.0107912 5.21823e-20)
(0.396122 0.0288403 7.87828e-20)
(0.527743 0.0525484 1.54958e-20)
(0.660479 0.0804404 3.71467e-20)
(0.789747 0.110766 -7.86479e-20)
(0.911107 0.141713 -3.26832e-20)
(1.02073 0.171548 1.36634e-20)
(1.11576 0.198779 2.55386e-22)
(1.19462 0.222289 -7.46685e-21)
(1.25697 0.241401 3.40452e-20)
(1.30364 0.255887 2.90908e-20)
(1.3363 0.265901 4.54094e-20)
(1.35714 0.271882 -6.15697e-20)
(1.36858 0.274439 -1.75025e-20)
(1.37293 0.27424 -1.70303e-21)
(1.37225 0.271936 6.64979e-20)
(1.36822 0.268096 -3.86814e-20)
(1.36214 0.263188 3.56628e-20)
(1.35493 0.25757 -4.15695e-20)
(1.3472 0.251497 -3.38204e-20)
(1.3393 0.245152 -2.38547e-20)
(1.33138 0.23863 3.27046e-20)
(1.32344 0.231927 1.92685e-21)
(0.0502236 -0.00135949 -2.61086e-20)
(0.161326 0.00169021 -2.41081e-20)
(0.283447 0.0147219 -7.49268e-20)
(0.413684 0.0346969 4.62259e-20)
(0.548292 0.0602908 4.50834e-20)
(0.682859 0.0898777 -3.0738e-20)
(0.812729 0.121576 6.21132e-20)
(0.933489 0.153482 -1.10456e-21)
(1.04144 0.183824 2.49986e-21)
(1.13399 0.211124 -2.29049e-20)
(1.20981 0.234327 1.91703e-20)
(1.26892 0.252848 -1.7736e-20)
(1.31238 0.266563 -4.62925e-20)
(1.3421 0.275725 -9.44169e-21)
(1.36042 0.280853 6.64661e-21)
(1.3698 0.282614 2.4246e-20)
(1.37256 0.28171 2.05093e-20)
(1.3707 0.278801 -1.01102e-20)
(1.36584 0.274457 -2.073e-20)
(1.35921 0.269131 1.52531e-20)
(1.35164 0.263166 2.8577e-20)
(1.3437 0.256803 2.88405e-20)
(1.33567 0.250208 1.86443e-21)
(1.32767 0.24346 3.20379e-20)
(1.31969 0.236597 -7.06265e-21)
(0.0534226 -0.000660082 1.06528e-20)
(0.170136 0.00406188 2.07183e-20)
(0.297064 0.0190264 2.0385e-20)
(0.431197 0.0410083 -8.52445e-21)
(0.568631 0.0685261 -1.65287e-20)
(0.704828 0.0998025 1.97239e-20)
(0.835082 0.13283 -1.22115e-20)
(0.955032 0.165623 1.2513e-20)
(1.06115 0.196384 -3.84889e-20)
(1.15109 0.223663 1.68004e-20)
(1.22385 0.246476 1.07006e-20)
(1.27972 0.264341 3.25907e-20)
(1.32006 0.277239 2.36937e-20)
(1.34697 0.285522 -9.44999e-21)
(1.3629 0.289788 -9.36813e-21)
(1.37036 0.290755 2.69078e-21)
(1.37165 0.289153 -1.29966e-20)
(1.36872 0.28565 5.38279e-21)
(1.36313 0.28081 1.43303e-20)
(1.35602 0.275074 -1.72343e-20)
(1.34815 0.268766 7.63857e-21)
(1.34002 0.262113 -2.07589e-20)
(1.33189 0.255269 1.92545e-20)
(1.32383 0.248292 -2.42229e-20)
(1.31582 0.241267 9.4365e-21)
(0.0566684 0.000136018 -1.69793e-20)
(0.179015 0.00669122 1.82756e-21)
(0.310702 0.0237078 1.20099e-20)
(0.448617 0.0477733 -2.03788e-20)
(0.58871 0.0772468 -4.19568e-21)
(0.726333 0.110201 -2.27525e-20)
(0.856755 0.144508 -2.49446e-20)
(0.9757 0.178113 -7.42223e-21)
(1.07983 0.209203 3.49488e-21)
(1.16707 0.236371 6.39283e-21)
(1.23673 0.258717 -2.28788e-20)
(1.28941 0.275865 -5.7239e-21)
(1.32672 0.287905 -2.28456e-20)
(1.35094 0.295288 -1.34069e-20)
(1.36461 0.298685 9.78032e-21)
(1.37029 0.29886 -8.44884e-21)
(1.37024 0.296568 -1.63719e-20)
(1.36636 0.292482 -1.51937e-20)
(1.36012 0.287155 -1.45256e-21)
(1.35258 0.281014 -2.17434e-20)
(1.34446 0.274368 8.21897e-22)
(1.33618 0.267427 2.54101e-20)
(1.32797 0.260331 3.34273e-22)
(1.31987 0.253124 -6.46466e-21)
(1.31184 0.245933 6.65017e-21)
(0.0599538 0.00103121 8.15388e-21)
(0.187942 0.0095819 3.12335e-21)
(0.324326 0.0287676 -3.67641e-21)
(0.4659 0.0549889 3.47113e-21)
(0.608478 0.0864437 -1.53148e-21)
(0.747323 0.121058 6.50376e-21)
(0.877704 0.156591 -1.80372e-21)
(0.995458 0.190928 1.46672e-21)
(1.09746 0.222258 -5.07924e-21)
(1.18193 0.249228 -5.92055e-21)
(1.24848 0.271031 -3.24079e-21)
(1.29802 0.287405 1.0246e-20)
(1.3324 0.298552 4.77286e-21)
(1.35405 0.305017 -5.55421e-21)
(1.36561 0.307539 4.91329e-21)
(1.36963 0.306928 -6.08529e-22)
(1.36836 0.303956 9.18033e-21)
(1.36362 0.299295 4.06216e-21)
(1.3568 0.29349 1.37421e-21)
(1.34891 0.28695 1.28316e-20)
(1.34057 0.279968 -2.41704e-21)
(1.33218 0.272739 -1.05093e-20)
(1.32391 0.26539 -5.25432e-22)
(1.31578 0.257952 1.62213e-21)
(1.30774 0.250592 -4.80295e-21)
(0.0632714 0.00202755 4.43251e-21)
(0.196894 0.0127366 5.29745e-21)
(0.337902 0.0342058 -5.94129e-21)
(0.483003 0.0626501 8.53469e-21)
(0.627886 0.0961056 -2.79503e-21)
(0.767749 0.132355 2.7415e-21)
(0.897888 0.169054 -5.54707e-22)
(1.01428 0.204043 1.47509e-21)
(1.11403 0.235523 -3.31846e-21)
(1.19566 0.26221 -8.78283e-21)
(1.25912 0.283401 -5.58358e-22)
(1.30558 0.298949 8.92272e-21)
(1.33713 0.309171 6.47083e-21)
(1.35633 0.314702 -6.17751e-21)
(1.36592 0.316349 4.33834e-21)
(1.36842 0.314957 1.0045e-21)
(1.36603 0.311314 5.891e-21)
(1.36053 0.306089 4.34224e-21)
(1.35321 0.299812 2.72446e-21)
(1.345 0.292879 1.11609e-20)
(1.3365 0.285563 -1.21334e-22)
(1.32802 0.278047 -1.07263e-20)
(1.3197 0.270442 -3.02919e-21)
(1.31157 0.262771 2.98288e-21)
(1.30352 0.255238 -2.22152e-21)
(0.0666132 0.00312672 -1.10372e-20)
(0.205851 0.016157 -4.84683e-21)
(0.351397 0.0400211 4.96843e-21)
(0.499881 0.0707501 -1.2068e-20)
(0.646887 0.10622 6.84448e-22)
(0.787565 0.144074 -3.67849e-20)
(0.917268 0.181877 -2.21935e-20)
(1.03213 0.217433 -6.68391e-21)
(1.12952 0.248974 1.15688e-20)
(1.20828 0.275296 -9.36859e-21)
(1.26866 0.295807 -1.74591e-20)
(1.31211 0.310483 -1.06193e-20)
(1.34094 0.319751 -1.08299e-20)
(1.35784 0.324338 -9.2656e-21)
(1.36557 0.32511 5.05842e-21)
(1.36668 0.322945 -9.9436e-21)
(1.36329 0.31864 -1.98292e-20)
(1.3571 0.31286 -5.7147e-21)
(1.34935 0.306119 -9.73493e-21)
(1.34088 0.298797 -1.66284e-20)
(1.33223 0.291149 -3.22192e-21)
(1.32369 0.283345 1.8773e-20)
(1.31535 0.275483 2.93634e-21)
(1.30722 0.267576 -4.92052e-21)
(1.29919 0.259868 1.71728e-20)
(0.0699709 0.00433003 7.42637e-21)
(0.214789 0.0198437 -9.44975e-21)
(0.364776 0.0462102 3.63598e-20)
(0.516493 0.0792804 -2.03189e-20)
(0.665435 0.116771 -6.85089e-21)
(0.806729 0.156195 2.70165e-20)
(0.935808 0.195033 -9.62846e-21)
(1.049 0.231072 5.08827e-21)
(1.14394 0.262587 -1.46976e-20)
(1.21979 0.288464 -5.48518e-21)
(1.27712 0.308233 3.57131e-21)
(1.31766 0.321994 3.2581e-20)
(1.34388 0.330286 2.00626e-20)
(1.3586 0.33392 8.1169e-21)
(1.36461 0.333819 -1.17318e-20)
(1.36443 0.330889 -4.61973e-21)
(1.36014 0.325932 3.12683e-21)
(1.35335 0.319605 1.54838e-21)
(1.34522 0.312408 4.81943e-21)
(1.33654 0.304699 -8.68994e-21)
(1.32779 0.296721 -2.13026e-21)
(1.3192 0.288629 -1.41713e-20)
(1.31086 0.280508 2.3366e-21)
(1.30275 0.272363 -1.70207e-20)
(1.29473 0.264477 3.30413e-21)
(0.0733361 0.00563831 -3.41081e-20)
(0.223685 0.0237962 -2.59704e-20)
(0.378004 0.0527687 -4.08481e-20)
(0.532797 0.0882305 1.81716e-20)
(0.683486 0.127743 3.18358e-20)
(0.8252 0.168695 -4.61068e-21)
(0.953479 0.208498 5.19721e-20)
(1.06486 0.244935 1.21222e-20)
(1.15728 0.276336 -2.66579e-20)
(1.23021 0.301694 -1.35879e-20)
(1.28454 0.320662 2.02946e-20)
(1.32224 0.333469 -2.39247e-20)
(1.34597 0.340765 -5.176e-20)
(1.35865 0.343442 1.19907e-20)
(1.36307 0.342472 -1.13838e-20)
(1.36171 0.338786 5.52678e-20)
(1.35661 0.333187 2.25632e-21)
(1.34929 0.326322 1.12765e-20)
(1.34084 0.318673 -2.03671e-20)
(1.33199 0.310583 3.81077e-21)
(1.32316 0.302275 2.57217e-20)
(1.31455 0.293894 1.20677e-20)
(1.30623 0.285513 1.08442e-20)
(1.29814 0.277128 1.91669e-20)
(1.29015 0.26906 2.95176e-21)
(0.0767004 0.00705203 4.1039e-20)
(0.232516 0.0280128 -3.06829e-20)
(0.391048 0.0596902 9.11782e-20)
(0.548753 0.0975884 3.01327e-20)
(0.700998 0.139117 6.46403e-20)
(0.842941 0.181552 -5.95381e-21)
(0.970253 0.222247 -3.54543e-20)
(1.0797 0.258994 -5.59957e-20)
(1.16954 0.290198 1.308e-20)
(1.23955 0.314963 -3.04572e-20)
(1.29093 0.333077 3.19907e-21)
(1.32589 0.344898 2.3952e-20)
(1.34726 0.351182 5.18451e-20)
(1.35801 0.352898 3.72311e-20)
(1.36095 0.351065 -7.47023e-20)
(1.35854 0.346632 -1.45115e-20)
(1.35271 0.340402 1.65782e-20)
(1.34493 0.333006 3.86408e-20)
(1.33622 0.324912 -2.98015e-20)
(1.32723 0.316442 4.16445e-20)
(1.31835 0.307806 -3.26259e-20)
(1.30974 0.299135 -2.75063e-20)
(1.30144 0.290491 -5.1104e-21)
(1.2934 0.281865 7.53772e-21)
(1.28545 0.273613 -2.35449e-20)
(0.080055 0.0085712 -7.65625e-20)
(0.24126 0.0324907 3.15906e-20)
(0.403874 0.0669671 -1.80444e-20)
(0.56432 0.10734 -6.94117e-20)
(0.717932 0.150875 -8.12941e-21)
(0.859917 0.194741 -1.11512e-20)
(0.986104 0.236251 -1.86018e-20)
(1.09352 0.273225 9.11321e-20)
(1.18071 0.304149 2.93613e-20)
(1.24782 0.328253 2.167e-20)
(1.29632 0.345464 1.94295e-20)
(1.32865 0.356269 -1.67049e-20)
(1.34776 0.361527 6.43052e-20)
(1.35671 0.362282 -7.84366e-20)
(1.35831 0.359594 5.37131e-20)
(1.35493 0.354424 8.23712e-21)
(1.34846 0.347571 -5.8178e-20)
(1.34029 0.339654 -9.82044e-20)
(1.33135 0.331119 8.32948e-21)
(1.32226 0.322272 -9.77216e-21)
(1.31335 0.313308 -2.74144e-21)
(1.30477 0.304346 1.75542e-20)
(1.29652 0.295437 -5.30622e-20)
(1.28853 0.28657 1.66848e-20)
(1.28063 0.278131 3.06275e-20)
(0.0833913 0.0101954 1.1671e-19)
(0.249894 0.0372262 -5.11093e-20)
(0.41645 0.0745903 -6.02875e-20)
(0.579462 0.117471 -2.42484e-20)
(0.73425 0.162994 -6.92552e-20)
(0.876098 0.208237 3.88717e-21)
(1.00101 0.250485 4.25131e-20)
(1.10629 0.287599 -1.4115e-20)
(1.19082 0.318164 -7.384e-20)
(1.25504 0.341544 -9.74234e-20)
(1.30073 0.357806 -1.85537e-20)
(1.33053 0.367569 -1.43742e-20)
(1.34752 0.371793 -1.79269e-20)
(1.35479 0.371589 1.04005e-19)
(1.35514 0.368053 6.06382e-20)
(1.3509 0.362156 -5.08324e-20)
(1.34387 0.354691 9.25464e-20)
(1.33536 0.346259 5.15277e-20)
(1.32625 0.337288 2.10714e-20)
(1.31709 0.328067 -6.95603e-20)
(1.30818 0.318775 -7.22203e-20)
(1.29964 0.309522 -2.74092e-20)
(1.29144 0.300347 6.20008e-20)
(1.28352 0.291236 -4.0405e-20)
(1.27567 0.282608 -5.52147e-21)
(0.0867005 0.0119237 -5.60656e-20)
(0.258396 0.0422143 3.63234e-20)
(0.428743 0.0825491 2.36956e-20)
(0.594142 0.127963 8.26516e-20)
(0.749918 0.175452 2.05411e-20)
(0.891454 0.222014 -9.10619e-20)
(1.01496 0.264921 -2.5013e-20)
(1.11803 0.302091 2.76085e-21)
(1.19986 0.332221 2.45825e-20)
(1.26123 0.354815 1.24783e-19)
(1.30419 0.370089 -4.74379e-20)
(1.33157 0.378787 6.10178e-20)
(1.34656 0.381971 4.83412e-21)
(1.35227 0.380812 -5.24302e-20)
(1.35149 0.376437 -1.51077e-20)
(1.34647 0.369824 8.02864e-20)
(1.33895 0.361756 -5.94187e-20)
(1.33016 0.352817 4.61623e-20)
(1.32092 0.343415 -4.77329e-20)
(1.31172 0.333821 1.10874e-19)
(1.30283 0.324202 1.08648e-19)
(1.29434 0.314657 6.24296e-20)
(1.28622 0.305214 -4.65835e-20)
(1.27837 0.295858 -3.90211e-20)
(1.2706 0.287039 -2.31271e-20)
(0.0899738 0.0137549 4.07321e-20)
(0.266742 0.0474491 8.75417e-20)
(0.440724 0.0908314 -6.49657e-20)
(0.608326 0.138799 -2.6896e-20)
(0.764903 0.188227 8.56744e-21)
(0.905961 0.236045 5.98601e-20)
(1.02794 0.279531 5.70512e-20)
(1.12872 0.316673 -1.18672e-20)
(1.20785 0.346295 9.43894e-20)
(1.26642 0.368048 -6.92231e-20)
(1.30673 0.382297 3.9617e-20)
(1.3318 0.389914 -1.82211e-20)
(1.3449 0.392052 -8.42511e-20)
(1.34918 0.389944 -2.43647e-20)
(1.34736 0.384741 -3.72558e-20)
(1.34166 0.377423 -9.23357e-20)
(1.33371 0.368762 7.80752e-20)
(1.32469 0.359321 5.91951e-21)
(1.31535 0.349492 9.98083e-20)
(1.30614 0.339528 -2.89101e-20)
(1.2973 0.329583 -2.12842e-20)
(1.28888 0.319745 2.72965e-20)
(1.28085 0.310033 3.83415e-20)
(1.27309 0.300432 3.67033e-21)
(1.26539 0.29142 3.0275e-20)
(0.0932024 0.0156873 -1.35403e-20)
(0.274911 0.0529235 -2.46313e-20)
(0.452361 0.099424 1.26072e-20)
(0.621981 0.149959 6.20895e-20)
(0.779176 0.201292 5.204e-20)
(0.919596 0.250302 1.87828e-20)
(1.03992 0.294286 -8.94488e-20)
(1.13836 0.331321 3.23765e-20)
(1.21479 0.360364 -1.50047e-20)
(1.27061 0.381224 -2.81497e-20)
(1.30837 0.394416 -5.23817e-20)
(1.33124 0.400936 -4.50134e-20)
(1.34258 0.402029 5.27951e-20)
(1.34553 0.398978 1.28094e-20)
(1.34278 0.392958 -1.82119e-20)
(1.33647 0.384947 6.61823e-20)
(1.32817 0.375701 -1.1861e-20)
(1.31896 0.365767 6.17922e-20)
(1.30956 0.355515 3.83926e-20)
(1.30037 0.345182 3.38919e-20)
(1.29159 0.33491 4.09746e-20)
(1.28326 0.32478 -6.48161e-20)
(1.27532 0.314798 -2.94871e-20)
(1.26768 0.30495 -6.57966e-21)
(1.26006 0.295745 1.66225e-20)
(0.0963778 0.0177186 1.23853e-19)
(0.282883 0.0586294 2.47829e-20)
(0.463627 0.108312 -1.35394e-20)
(0.635077 0.161421 5.88117e-20)
(0.792708 0.214622 6.31248e-20)
(0.932339 0.264756 -1.32679e-19)
(1.05092 0.309158 8.90883e-20)
(1.14697 0.346006 -2.23349e-20)
(1.22071 0.374405 -1.33311e-20)
(1.27384 0.394324 1.99053e-19)
(1.30913 0.406431 -2.27702e-20)
(1.32992 0.411844 7.96135e-20)
(1.33961 0.411893 -4.02987e-20)
(1.34135 0.407908 -4.61707e-20)
(1.33776 0.401082 2.6988e-20)
(1.33092 0.392388 -5.45882e-20)
(1.32232 0.382568 1.56197e-20)
(1.31298 0.372146 -1.23751e-19)
(1.30355 0.361475 -1.81045e-19)
(1.29439 0.350776 1.99422e-20)
(1.28569 0.340179 -1.04919e-19)
(1.27747 0.329755 2.36607e-20)
(1.26965 0.319502 3.46241e-20)
(1.26212 0.309408 8.63276e-20)
(1.2546 0.300008 4.17848e-20)
(0.0994913 0.0198462 -1.21489e-19)
(0.290636 0.0645578 -1.98795e-19)
(0.474493 0.11748 -5.15912e-20)
(0.647583 0.173165 -1.41569e-19)
(0.805474 0.228191 1.08478e-19)
(0.944175 0.27938 1.15551e-19)
(1.06091 0.324119 -1.80653e-19)
(1.15454 0.360704 1.81046e-20)
(1.22561 0.388395 6.71386e-21)
(1.27612 0.407331 -1.50912e-19)
(1.30905 0.418328 9.63405e-20)
(1.32787 0.422626 -1.55544e-19)
(1.33603 0.421634 -1.56952e-20)
(1.33665 0.416726 4.93157e-20)
(1.33232 0.409106 6.30579e-20)
(1.32502 0.399742 5.98445e-20)
(1.31617 0.389356 -6.51987e-20)
(1.30674 0.378453 1.07009e-19)
(1.29731 0.367367 3.05213e-20)
(1.28822 0.356303 3.68406e-20)
(1.27962 0.345381 -1.00295e-19)
(1.27152 0.334664 -7.37463e-20)
(1.26383 0.32414 2.61003e-20)
(1.25642 0.313799 -5.41544e-20)
(1.24902 0.304205 1.38674e-21)
(0.102535 0.0220672 -2.72877e-20)
(0.29815 0.0706987 1.1535e-19)
(0.484933 0.126911 -2.50942e-20)
(0.659475 0.185166 5.2658e-21)
(0.817454 0.241972 -1.0472e-19)
(0.95509 0.294144 -2.37341e-21)
(1.0699 0.33914 6.73066e-20)
(1.16108 0.375388 1.93306e-20)
(1.22951 0.402314 -1.05854e-19)
(1.27747 0.420226 -3.03701e-20)
(1.30815 0.430094 -2.53842e-19)
(1.32511 0.433272 2.57576e-20)
(1.33185 0.431245 1.81768e-19)
(1.33146 0.425425 -1.74018e-19)
(1.32647 0.417024 -1.07769e-19)
(1.31878 0.407 -9.30978e-20)
(1.30974 0.396057 3.57876e-20)
(1.30025 0.38468 -1.35748e-19)
(1.29085 0.373183 6.70425e-20)
(1.28185 0.361756 -6.9485e-20)
(1.27337 0.35051 7.3855e-20)
(1.2654 0.3395 5.68218e-20)
(1.25785 0.328705 2.14312e-20)
(1.25059 0.318117 -3.15641e-20)
(1.24331 0.308329 1.90817e-21)
(0.1055 0.024378 -1.66781e-19)
(0.305406 0.0770412 5.1773e-20)
(0.494924 0.136586 1.79983e-21)
(0.670726 0.197401 8.00688e-20)
(0.828626 0.255935 6.44359e-21)
(0.965071 0.309017 8.76435e-20)
(1.07789 0.354193 -4.29354e-20)
(1.16661 0.390033 1.87967e-19)
(1.23244 0.416138 -1.28301e-19)
(1.27793 0.432992 2.04228e-19)
(1.30645 0.441714 1.68769e-19)
(1.32166 0.44377 1.96219e-19)
(1.32709 0.440716 -1.41636e-19)
(1.32579 0.433995 1.45649e-19)
(1.32022 0.424827 8.17298e-21)
(1.31221 0.414155 -1.19506e-19)
(1.30303 0.402665 1.40458e-20)
(1.29352 0.39082 6.80112e-20)
(1.28418 0.378915 -4.02428e-20)
(1.27528 0.367129 -5.92062e-20)
(1.26693 0.355559 -1.02654e-19)
(1.25911 0.344257 8.0846e-20)
(1.25172 0.333192 -3.4986e-20)
(1.24462 0.322356 -8.12048e-21)
(1.23747 0.312374 -1.29928e-19)
(0.108378 0.026775 2.47279e-19)
(0.312385 0.0835735 -6.19376e-20)
(0.504441 0.146487 5.11902e-20)
(0.681315 0.209844 -1.52484e-19)
(0.838974 0.270054 -3.58613e-20)
(0.974111 0.323972 -3.85922e-20)
(1.08487 0.369249 -8.52907e-20)
(1.17113 0.404613 -3.42311e-19)
(1.2344 0.429847 1.49306e-19)
(1.27751 0.445612 -6.91373e-20)
(1.30398 0.453174 -1.68825e-19)
(1.31756 0.45411 -4.6101e-20)
(1.32178 0.450037 4.65777e-20)
(1.31966 0.44243 -1.292e-19)
(1.31359 0.432507 7.93786e-20)
(1.30531 0.4212 6.83985e-21)
(1.29604 0.409172 3.9145e-21)
(1.28654 0.396864 -1.33362e-20)
(1.27729 0.384557 1.3583e-19)
(1.26852 0.372413 -6.78982e-22)
(1.26032 0.360522 2.63672e-19)
(1.25267 0.348929 -8.63811e-20)
(1.24544 0.337593 -8.68138e-20)
(1.2385 0.326508 1.1043e-19)
(1.2315 0.316337 1.08333e-19)
(0.111162 0.0292539 -3.67125e-21)
(0.319071 0.0902832 1.49367e-19)
(0.513462 0.156593 -1.63288e-20)
(0.691221 0.222471 1.23552e-19)
(0.848482 0.284297 -2.07658e-20)
(0.982204 0.338977 -7.6654e-20)
(1.09085 0.38428 3.70845e-21)
(1.17465 0.419103 2.49612e-19)
(1.23543 0.443419 -1.86099e-20)
(1.27623 0.458068 -1.36028e-19)
(1.30075 0.464461 1.19891e-19)
(1.31281 0.464279 -5.03187e-20)
(1.31594 0.4592 4.68475e-20)
(1.31309 0.45072 1.73251e-19)
(1.30659 0.440058 -4.88744e-20)
(1.2981 0.428127 3.91736e-20)
(1.28878 0.415569 -5.40303e-20)
(1.27933 0.402806 -1.34045e-19)
(1.27018 0.3901 1.34907e-20)
(1.26156 0.377601 -5.91117e-20)
(1.25353 0.365391 -4.57664e-20)
(1.24605 0.353509 -4.26557e-21)
(1.23901 0.341904 1.9823e-19)
(1.23225 0.330571 -4.80869e-21)
(1.22537 0.320213 2.41997e-20)
(0.113845 0.03181 -1.98122e-19)
(0.325446 0.0971567 -2.03085e-20)
(0.521969 0.166884 8.81331e-20)
(0.700425 0.235254 -1.21502e-19)
(0.857139 0.298637 2.75409e-20)
(0.989346 0.354003 7.69064e-20)
(1.09584 0.399257 3.91892e-21)
(1.17719 0.433479 -2.34807e-19)
(1.23553 0.456835 9.29859e-20)
(1.27412 0.470343 -7.54753e-20)
(1.29681 0.475562 1.43725e-19)
(1.30745 0.474268 3.00541e-20)
(1.30958 0.468195 1.60289e-19)
(1.30609 0.458858 -8.23025e-20)
(1.29922 0.447469 1.3681e-20)
(1.29059 0.434927 2.99915e-20)
(1.28125 0.42185 -2.68994e-20)
(1.27188 0.408638 3.93369e-20)
(1.26287 0.395537 7.75945e-20)
(1.25441 0.382686 2.33943e-19)
(1.24656 0.37016 -1.29581e-19)
(1.23927 0.357991 -4.75272e-20)
(1.23243 0.346119 -1.21141e-19)
(1.22585 0.334548 -5.83713e-20)
(1.2191 0.323998 -8.35626e-20)
(0.116419 0.0344387 1.39709e-19)
(0.331494 0.10418 2.63246e-20)
(0.529942 0.177338 -1.33552e-19)
(0.708911 0.248166 1.56652e-20)
(0.864935 0.313043 -7.44625e-20)
(0.995536 0.369021 3.17142e-22)
(1.09985 0.414154 5.71672e-20)
(1.17877 0.447716 1.36685e-19)
(1.23473 0.470072 -7.25226e-20)
(1.27121 0.482422 5.77129e-20)
(1.29216 0.486463 -1.36104e-19)
(1.3015 0.484065 -1.96599e-19)
(1.30271 0.477011 -2.47347e-19)
(1.29866 0.466833 -1.0659e-19)
(1.29151 0.454734 4.0945e-20)
(1.28277 0.441592 1.85648e-20)
(1.27346 0.428004 2.68407e-19)
(1.2642 0.414351 -5.01606e-20)
(1.25534 0.40086 1.11526e-20)
(1.24706 0.387661 -8.74752e-20)
(1.23941 0.37482 9.66558e-20)
(1.23233 0.362366 4.02472e-20)
(1.2257 0.350231 8.06943e-20)
(1.21932 0.338439 -1.78813e-20)
(1.21271 0.327686 -2.86649e-20)
(0.118878 0.0371345 -1.33487e-19)
(0.337202 0.111339 -3.89808e-20)
(0.537364 0.187933 1.09152e-19)
(0.716667 0.261181 -3.41883e-19)
(0.871863 0.327486 -7.83756e-20)
(1.00077 0.383999 2.704e-20)
(1.10288 0.428943 -4.75029e-20)
(1.1794 0.461791 1.06642e-19)
(1.23305 0.483113 2.20667e-20)
(1.26751 0.494288 1.08305e-19)
(1.28683 0.49715 1.88215e-19)
(1.29496 0.493658 2.86731e-19)
(1.29537 0.485639 1.23775e-19)
(1.29084 0.474636 -6.91855e-20)
(1.28345 0.461842 2.72278e-20)
(1.27467 0.448114 -2.6215e-20)
(1.26542 0.434025 -1.58105e-19)
(1.25629 0.419936 1.51682e-19)
(1.24761 0.406061 -2.70801e-19)
(1.23953 0.392517 2.62766e-20)
(1.23209 0.379365 -3.36745e-20)
(1.22523 0.36663 6.32414e-20)
(1.21882 0.354233 -7.49142e-20)
(1.21266 0.342223 -1.18175e-20)
(1.20624 0.331277 7.99114e-20)
(0.121215 0.0398921 -1.96351e-19)
(0.342555 0.118618 1.45436e-20)
(0.544221 0.198645 4.65263e-20)
(0.723678 0.27427 2.13022e-19)
(0.877916 0.341935 2.58998e-19)
(1.00506 0.398909 1.39651e-19)
(1.10494 0.443596 -1.30727e-19)
(1.1791 0.475679 -2.17122e-19)
(1.23052 0.495936 -1.81148e-19)
(1.26304 0.505924 1.69925e-20)
(1.28084 0.507611 -1.80335e-19)
(1.28787 0.503037 -4.98546e-20)
(1.28756 0.49407 -7.61478e-20)
(1.28262 0.482259 1.48714e-19)
(1.27507 0.468785 6.18505e-20)
(1.26627 0.454483 -2.25657e-19)
(1.25712 0.439903 1.04095e-19)
(1.24815 0.425387 5.04004e-20)
(1.23967 0.411132 1.84389e-19)
(1.2318 0.397247 1.04848e-19)
(1.22459 0.383788 -1.16401e-19)
(1.21797 0.370773 -1.30481e-19)
(1.2118 0.35812 8.0746e-20)
(1.20586 0.345891 9.18204e-20)
(1.19964 0.334757 -3.026e-20)
(0.123424 0.0427055 1.40786e-19)
(0.347542 0.126001 5.58558e-21)
(0.5505 0.209453 -2.48993e-19)
(0.729937 0.287405 -3.90992e-21)
(0.883092 0.35636 -3.72039e-19)
(1.00841 0.413722 9.59362e-21)
(1.10605 0.458087 -5.9362e-20)
(1.17789 0.489358 1.32066e-19)
(1.22714 0.508523 1.91674e-19)
(1.25784 0.517316 4.74005e-20)
(1.27422 0.517832 3.82995e-20)
(1.28024 0.51219 -8.68202e-20)
(1.2793 0.502292 1.03624e-20)
(1.27403 0.489692 9.92721e-20)
(1.26636 0.475554 -9.54875e-20)
(1.2576 0.460691 1.17193e-19)
(1.24858 0.44563 -9.72325e-20)
(1.2398 0.430693 -9.32599e-20)
(1.23152 0.416065 -1.00247e-19)
(1.22389 0.401844 -1.14027e-19)
(1.21692 0.388081 9.56081e-20)
(1.21054 0.374791 1.20545e-19)
(1.20462 0.361885 -2.76375e-20)
(1.19893 0.349439 -2.29058e-20)
(1.19293 0.33812 -1.34381e-20)
(0.1255 0.0455687 -2.51735e-19)
(0.35215 0.133472 1.45476e-19)
(0.556187 0.220332 2.32186e-19)
(0.735435 0.300557 2.27177e-19)
(0.88739 0.370731 1.45164e-19)
(1.01082 0.428408 -1.71307e-19)
(1.10623 0.47239 1.41477e-19)
(1.17579 0.502805 4.74222e-21)
(1.22296 0.520855 -1.54375e-19)
(1.25192 0.528447 -1.76463e-19)
(1.26698 0.5278 2.26208e-19)
(1.2721 0.521106 -6.63311e-20)
(1.2706 0.510297 -1.24226e-19)
(1.26506 0.496925 -8.33805e-20)
(1.25733 0.482139 -5.79124e-21)
(1.24865 0.466729 7.26284e-20)
(1.2398 0.451197 9.07593e-20)
(1.23122 0.435848 -4.02619e-20)
(1.22318 0.420851 1.55604e-19)
(1.21579 0.406299 1.70004e-20)
(1.20908 0.392236 1.15537e-20)
(1.20296 0.378674 -7.55162e-20)
(1.19731 0.365519 -9.98692e-20)
(1.19187 0.352861 1.67915e-20)
(1.18609 0.341362 -8.2203e-20)
(0.127436 0.0484755 2.17052e-19)
(0.356371 0.141014 1.04872e-20)
(0.561275 0.231257 -2.80269e-19)
(0.740166 0.313699 4.49624e-21)
(0.890811 0.385019 -1.10406e-19)
(1.0123 0.442938 1.39014e-19)
(1.10548 0.486478 1.58785e-19)
(1.17281 0.515998 -1.13396e-19)
(1.21798 0.532913 -1.12687e-19)
(1.24531 0.539302 9.18939e-20)
(1.25915 0.537502 -1.54562e-19)
(1.26345 0.529773 2.24581e-19)
(1.26148 0.518072 5.1566e-20)
(1.25574 0.503949 -2.11174e-20)
(1.24801 0.488532 2.52237e-19)
(1.23944 0.472587 -6.33457e-20)
(1.23078 0.456596 -6.81445e-20)
(1.22243 0.440842 3.55901e-20)
(1.21464 0.425484 -7.63642e-21)
(1.20752 0.410605 -1.26766e-19)
(1.20107 0.396247 -6.56544e-20)
(1.19522 0.382418 -6.28869e-20)
(1.18985 0.369018 1.1947e-19)
(1.18468 0.356152 -1.66533e-20)
(1.17914 0.344477 1.39095e-19)
(0.129229 0.0514193 1.13736e-19)
(0.360194 0.14861 -4.4702e-19)
(0.565754 0.242205 5.84942e-20)
(0.744127 0.326802 -2.16583e-19)
(0.893358 0.399193 3.98813e-19)
(1.01287 0.457285 -1.75834e-19)
(1.10383 0.500327 1.04066e-19)
(1.16898 0.528915 -4.15869e-20)
(1.21224 0.54468 1.16096e-19)
(1.23803 0.549867 -8.64025e-20)
(1.25074 0.546927 3.50412e-20)
(1.25432 0.538181 6.02815e-20)
(1.25196 0.525609 9.86295e-20)
(1.24608 0.510753 -2.60539e-19)
(1.23838 0.494722 1.09409e-19)
(1.22997 0.478257 6.65499e-20)
(1.22153 0.461816 -2.88132e-20)
(1.21344 0.445667 -4.61364e-20)
(1.20591 0.429955 -2.21616e-20)
(1.19906 0.414755 4.22386e-20)
(1.19289 0.400106 2.28857e-20)
(1.18733 0.386014 1.62957e-19)
(1.18225 0.372374 -6.51848e-20)
(1.17736 0.359305 -1.17566e-20)
(1.17206 0.347461 -1.1062e-19)
(0.130875 0.0543934 -9.77244e-20)
(0.363613 0.156244 7.4948e-21)
(0.569618 0.253151 1.78969e-19)
(0.747316 0.339837 -1.36239e-19)
(0.895036 0.413225 9.54386e-20)
(1.01253 0.47142 8.88753e-20)
(1.10128 0.513911 -1.75367e-19)
(1.16433 0.541536 2.92717e-20)
(1.20575 0.556137 5.55402e-21)
(1.2301 0.560125 2.43201e-19)
(1.24179 0.55606 1.5133e-20)
(1.24472 0.546319 -2.27374e-19)
(1.24204 0.532897 -1.98971e-19)
(1.23608 0.517329 1.9485e-19)
(1.22847 0.500701 -2.46041e-19)
(1.22025 0.483729 4.4899e-20)
(1.21205 0.466851 -1.22554e-20)
(1.20423 0.450315 3.1276e-20)
(1.19699 0.434256 8.06492e-20)