/*--------------------------------*- C++ -*----------------------------------*\
  =========                 |
  \\      /  F ield         | OpenFOAM: The Open Source CFD Toolbox
   \\    /   O peration     | Website:  https://openfoam.org
    \\  /    A nd           | Version:  7
     \\/     M anipulation  |
\*---------------------------------------------------------------------------*/
FoamFile
{
    version     2.0;
    format      ascii;
    class       volScalarField;
    location    "80";
    object      p;
}
// * * * * * * * * * * * * * * * * * * * * * * * * * * * * * * * * * * * * * //

dimensions      [0 2 -2 0 0 0 0];

internalField   nonuniform List<scalar> 
7156
(
-0.367732
-0.367976
-0.368207
-0.368452
-0.368736
-0.369081
-0.369506
-0.370026
-0.370653
-0.371398
-0.372271
-0.373284
-0.374451
-0.375787
-0.377314
-0.379054
-0.381037
-0.383297
-0.385882
-0.38879
-0.392049
-0.368598
-0.368806
-0.369009
-0.369233
-0.369502
-0.36984
-0.370265
-0.370794
-0.37144
-0.372215
-0.37313
-0.374199
-0.375437
-0.376861
-0.378494
-0.380362
-0.382497
-0.384936
-0.387731
-0.390883
-0.394416
-0.36946
-0.369633
-0.369806
-0.370007
-0.37026
-0.370588
-0.371012
-0.371547
-0.372209
-0.373011
-0.373965
-0.375085
-0.376389
-0.377895
-0.379628
-0.381616
-0.383894
-0.386501
-0.389494
-0.392877
-0.396665
-0.370315
-0.37045
-0.370593
-0.370769
-0.371004
-0.371321
-0.371741
-0.372281
-0.372956
-0.37378
-0.374768
-0.375935
-0.377299
-0.378881
-0.380706
-0.382806
-0.385217
-0.387981
-0.39116
-0.394757
-0.39878
-0.371156
-0.371254
-0.371365
-0.371516
-0.371731
-0.372035
-0.372448
-0.372988
-0.373673
-0.374516
-0.375534
-0.376742
-0.37816
-0.379811
-0.381721
-0.383924
-0.386457
-0.389366
-0.392715
-0.396511
-0.400747
-0.371981
-0.37204
-0.372119
-0.372242
-0.372436
-0.372724
-0.373127
-0.373666
-0.374356
-0.375214
-0.376256
-0.3775
-0.378966
-0.380678
-0.382664
-0.38496
-0.387604
-0.390645
-0.394151
-0.39813
-0.402554
-0.372784
-0.372804
-0.372849
-0.372945
-0.373115
-0.373384
-0.373775
-0.374308
-0.375
-0.375868
-0.376929
-0.378203
-0.37971
-0.381475
-0.383529
-0.385907
-0.388651
-0.39181
-0.395458
-0.399601
-0.404191
-0.373563
-0.373543
-0.373554
-0.373619
-0.373764
-0.374012
-0.374387
-0.37491
-0.375599
-0.376472
-0.377548
-0.378844
-0.380385
-0.382196
-0.384307
-0.386757
-0.389589
-0.392853
-0.396626
-0.400919
-0.405643
-0.374315
-0.374254
-0.374229
-0.374262
-0.374379
-0.374604
-0.37496
-0.375469
-0.376151
-0.377024
-0.378107
-0.37942
-0.380987
-0.382834
-0.384994
-0.387506
-0.390413
-0.393767
-0.39765
-0.402076
-0.406909
-0.375036
-0.374935
-0.374873
-0.374872
-0.374959
-0.375157
-0.37549
-0.375982
-0.376651
-0.377518
-0.378602
-0.379925
-0.38151
-0.383386
-0.385584
-0.388146
-0.391115
-0.394546
-0.398522
-0.403054
-0.408006
-0.375724
-0.375582
-0.375482
-0.375446
-0.3755
-0.375668
-0.375975
-0.376444
-0.377096
-0.377952
-0.379031
-0.380356
-0.381952
-0.383846
-0.386073
-0.388673
-0.391693
-0.395186
-0.399238
-0.403861
-0.408899
-0.376378
-0.376194
-0.376055
-0.375982
-0.376001
-0.376136
-0.376413
-0.376855
-0.377484
-0.378322
-0.37939
-0.38071
-0.382307
-0.384211
-0.386457
-0.389084
-0.392141
-0.395682
-0.399795
-0.404491
-0.409588
-0.376995
-0.376769
-0.37659
-0.376479
-0.37646
-0.376559
-0.376801
-0.377212
-0.377813
-0.378627
-0.379676
-0.380983
-0.382575
-0.384479
-0.386733
-0.389376
-0.392458
-0.396032
-0.40019
-0.404944
-0.410077
-0.377308
-0.377087
-0.376935
-0.376876
-0.376935
-0.37714
-0.377514
-0.378081
-0.378866
-0.379889
-0.381176
-0.382752
-0.384648
-0.386899
-0.389547
-0.392641
-0.396235
-0.400423
-0.405217
-0.410367
-0.377808
-0.377546
-0.377351
-0.377249
-0.377266
-0.377427
-0.37776
-0.378289
-0.379036
-0.380027
-0.381286
-0.382839
-0.384717
-0.386956
-0.389597
-0.39269
-0.396291
-0.400493
-0.405313
-0.410461
-0.37827
-0.377965
-0.377727
-0.377579
-0.377549
-0.377664
-0.377951
-0.378434
-0.37914
-0.380091
-0.381314
-0.382835
-0.384686
-0.386902
-0.389526
-0.392607
-0.396201
-0.400404
-0.405233
-0.410364
-0.378694
-0.378346
-0.378062
-0.377866
-0.377787
-0.377851
-0.378086
-0.37852
-0.379176
-0.380081
-0.38126
-0.382741
-0.384555
-0.386739
-0.389335
-0.392393
-0.395968
-0.400157
-0.404983
-0.410081
-0.379082
-0.378689
-0.378358
-0.378112
-0.377979
-0.377989
-0.378168
-0.378545
-0.379146
-0.379997
-0.381125
-0.382558
-0.384327
-0.38647
-0.389027
-0.392051
-0.395594
-0.399758
-0.404568
-0.409619
-0.379433
-0.378996
-0.378616
-0.378317
-0.378128
-0.378079
-0.378197
-0.378513
-0.379053
-0.379844
-0.380913
-0.38229
-0.384005
-0.386096
-0.388606
-0.391584
-0.395086
-0.399211
-0.403993
-0.408987
-0.37975
-0.379268
-0.378837
-0.378484
-0.378236
-0.378123
-0.378176
-0.378425
-0.378898
-0.379622
-0.380626
-0.381938
-0.383592
-0.385624
-0.388076
-0.390998
-0.394447
-0.398524
-0.403267
-0.408192
-0.379506
-0.379024
-0.378614
-0.378303
-0.378124
-0.378108
-0.378285
-0.378685
-0.379336
-0.380267
-0.381509
-0.383093
-0.385056
-0.387442
-0.3903
-0.393686
-0.397703
-0.402397
-0.407245
-0.379714
-0.37918
-0.37871
-0.378335
-0.378086
-0.377996
-0.378096
-0.378417
-0.378989
-0.379842
-0.381006
-0.382513
-0.3844
-0.386711
-0.389495
-0.392809
-0.396757
-0.401393
-0.406155
-0.379894
-0.379306
-0.378775
-0.378332
-0.37801
-0.377842
-0.377862
-0.3781
-0.378588
-0.379356
-0.380435
-0.381858
-0.383662
-0.38589
-0.388592
-0.391825
-0.395695
-0.400264
-0.404932
-0.380049
-0.379407
-0.378813
-0.3783
-0.377902
-0.377653
-0.377587
-0.377737
-0.378135
-0.378813
-0.379802
-0.381135
-0.382849
-0.384987
-0.3876
-0.390744
-0.394526
-0.39902
-0.403587
-0.379484
-0.378827
-0.378242
-0.377765
-0.377431
-0.377276
-0.377334
-0.377639
-0.378222
-0.379115
-0.380352
-0.38197
-0.384012
-0.386528
-0.389574
-0.393261
-0.397673
-0.402127
-0.379543
-0.37882
-0.378162
-0.377603
-0.377182
-0.376935
-0.376898
-0.377104
-0.377588
-0.378381
-0.379518
-0.381035
-0.382974
-0.385386
-0.388328
-0.391911
-0.396232
-0.400562
-0.379587
-0.378798
-0.378064
-0.377422
-0.376911
-0.376569
-0.376433
-0.376539
-0.37692
-0.377609
-0.378641
-0.380052
-0.381884
-0.384187
-0.387017
-0.390487
-0.394709
-0.3989
-0.37962
-0.378763
-0.377952
-0.377226
-0.376623
-0.376184
-0.375948
-0.375949
-0.376225
-0.376808
-0.377732
-0.379033
-0.380753
-0.382941
-0.385652
-0.389001
-0.393116
-0.397148
-0.378721
-0.377833
-0.37702
-0.376325
-0.375787
-0.375448
-0.375344
-0.375512
-0.375985
-0.376799
-0.377988
-0.379593
-0.381661
-0.384247
-0.387465
-0.391463
-0.395311
-0.378677
-0.37771
-0.376811
-0.376021
-0.375384
-0.37494
-0.37473
-0.374789
-0.375152
-0.375854
-0.376929
-0.378416
-0.38036
-0.382815
-0.385892
-0.389763
-0.393394
-0.378635
-0.37759
-0.376603
-0.375719
-0.374981
-0.374433
-0.374115
-0.374065
-0.374318
-0.374907
-0.375867
-0.377234
-0.379052
-0.38137
-0.384296
-0.388029
-0.391401
-0.378601
-0.377477
-0.376403
-0.375424
-0.374587
-0.373934
-0.373509
-0.37335
-0.373492
-0.37397
-0.374815
-0.376061
-0.37775
-0.379926
-0.38269
-0.386272
-0.389336
-0.377377
-0.376216
-0.375144
-0.374206
-0.373451
-0.37292
-0.372653
-0.372686
-0.373052
-0.373783
-0.37491
-0.376468
-0.378496
-0.381088
-0.384506
-0.387201
-0.377297
-0.376049
-0.374884
-0.373848
-0.372991
-0.372355
-0.371982
-0.371908
-0.372166
-0.372785
-0.373792
-0.375219
-0.377096
-0.379502
-0.382745
-0.384999
-0.37724
-0.375908
-0.374651
-0.373519
-0.372562
-0.371824
-0.371348
-0.37117
-0.371322
-0.371831
-0.37272
-0.374016
-0.375738
-0.377946
-0.381002
-0.382735
-0.3758
-0.374453
-0.373227
-0.372172
-0.371336
-0.370759
-0.37048
-0.370529
-0.370932
-0.371706
-0.37287
-0.374436
-0.376433
-0.37929
-0.380414
-0.37573
-0.374296
-0.372979
-0.37183
-0.370897
-0.370225
-0.369849
-0.369799
-0.370098
-0.37076
-0.371795
-0.3732
-0.374973
-0.377623
-0.378042
-0.375705
-0.374187
-0.372781
-0.371542
-0.370518
-0.369753
-0.369284
-0.36914
-0.36934
-0.369892
-0.370798
-0.372041
-0.373578
-0.37601
-0.375628
-0.374132
-0.372642
-0.371317
-0.370205
-0.369352
-0.368795
-0.368561
-0.368665
-0.369111
-0.369888
-0.370968
-0.372254
-0.374463
-0.373184
-0.374139
-0.372569
-0.37116
-0.369966
-0.36903
-0.368389
-0.368069
-0.368082
-0.368424
-0.369074
-0.369987
-0.371009
-0.372987
-0.370723
-0.372567
-0.371081
-0.369808
-0.368794
-0.368074
-0.367672
-0.367597
-0.367838
-0.36836
-0.369104
-0.369851
-0.371588
-0.368261
-0.372643
-0.371084
-0.369738
-0.36865
-0.367855
-0.367375
-0.367216
-0.367357
-0.367752
-0.368324
-0.368784
-0.370267
-0.36582
-0.371175
-0.36976
-0.368603
-0.367738
-0.367184
-0.366943
-0.366986
-0.367255
-0.367651
-0.367819
-0.369025
-0.363424
-0.37136
-0.369881
-0.368659
-0.367727
-0.367103
-0.366782
-0.366728
-0.366872
-0.367092
-0.366969
-0.367866
-0.361111
-0.371643
-0.370104
-0.368821
-0.367825
-0.367133
-0.366735
-0.366587
-0.366609
-0.366652
-0.366254
-0.366801
-0.358949
-0.370432
-0.369091
-0.368035
-0.367277
-0.366803
-0.366565
-0.366471
-0.366341
-0.365702
-0.365854
-0.357051
-0.370867
-0.369471
-0.368356
-0.367534
-0.366988
-0.366664
-0.366465
-0.366172
-0.365346
-0.365016
-0.355438
-0.369961
-0.368789
-0.367903
-0.367286
-0.366883
-0.366598
-0.366174
-0.365262
-0.364232
-0.353789
-0.37056
-0.36933
-0.368381
-0.367695
-0.36722
-0.366876
-0.366394
-0.365622
-0.363742
-0.352375
-0.369977
-0.368962
-0.368206
-0.367665
-0.367286
-0.36684
-0.36653
-0.364522
-0.356332
-0.369639
-0.368808
-0.368198
-0.36779
-0.367415
-0.367644
-0.366811
-0.374752
-0.370401
-0.369487
-0.368795
-0.36834
-0.368001
-0.36861
-0.368297
-0.379043
-0.370226
-0.369433
-0.368892
-0.368511
-0.369212
-0.368855
-0.379189
-0.371011
-0.370088
-0.369414
-0.368903
-0.369462
-0.368826
-0.378016
-0.370741
-0.369882
-0.36916
-0.369406
-0.368347
-0.375986
-0.370281
-0.369274
-0.369084
-0.367511
-0.373445
-0.370599
-0.369247
-0.368538
-0.366405
-0.370649
-0.369082
-0.367804
-0.365098
-0.367752
-0.366918
-0.363644
-0.364842
-0.36208
-0.36197
-0.360436
-0.359161
-0.356427
-0.325154
-0.333044
-0.327764
-0.343644
-0.334749
-0.330429
-0.344972
-0.336359
-0.333125
-0.352629
-0.346155
-0.337838
-0.335814
-0.359673
-0.353329
-0.347155
-0.339134
-0.338428
-0.360069
-0.353862
-0.347929
-0.340183
-0.340855
-0.365926
-0.360343
-0.354213
-0.348428
-0.340901
-0.342914
-0.370968
-0.366036
-0.360493
-0.354369
-0.348605
-0.341184
-0.344313
-0.370951
-0.366072
-0.360527
-0.354331
-0.348417
-0.340931
-0.344662
-0.374994
-0.370885
-0.36604
-0.360456
-0.354109
-0.347825
-0.340011
-0.34341
-0.374814
-0.370772
-0.365949
-0.360304
-0.353738
-0.346834
-0.338104
-0.337544
-0.377846
-0.37459
-0.370613
-0.365812
-0.360104
-0.353303
-0.345681
-0.335322
-0.317521
-0.380038
-0.377492
-0.37432
-0.370409
-0.365641
-0.359896
-0.352926
-0.344746
-0.334424
-0.313548
-0.379544
-0.377088
-0.374
-0.37016
-0.36544
-0.359701
-0.352686
-0.3443
-0.334753
-0.314943
-0.380843
-0.378999
-0.376629
-0.373625
-0.369862
-0.365205
-0.359512
-0.352545
-0.344166
-0.335152
-0.316153
-0.38016
-0.378398
-0.376112
-0.37319
-0.369508
-0.364927
-0.359306
-0.352429
-0.344147
-0.33542
-0.317017
-0.380684
-0.379424
-0.37774
-0.375533
-0.372692
-0.369092
-0.364596
-0.359063
-0.352295
-0.344165
-0.335648
-0.317952
-0.379825
-0.378635
-0.377023
-0.374891
-0.372128
-0.368611
-0.364202
-0.358767
-0.352122
-0.34418
-0.335848
-0.318971
-0.379712
-0.37892
-0.377793
-0.376247
-0.374185
-0.371497
-0.368061
-0.363743
-0.358412
-0.351897
-0.344164
-0.335997
-0.319985
-0.378708
-0.37797
-0.3769
-0.375415
-0.373418
-0.370801
-0.367443
-0.363216
-0.357993
-0.351615
-0.344099
-0.336088
-0.320952
-0.37767
-0.376981
-0.375962
-0.37453
-0.372593
-0.370043
-0.366762
-0.362626
-0.357512
-0.351276
-0.343985
-0.336132
-0.321865
-0.376992
-0.376603
-0.375956
-0.374982
-0.3736
-0.371718
-0.369231
-0.366024
-0.361978
-0.356977
-0.35089
-0.343827
-0.336147
-0.322727
-0.375867
-0.375513
-0.374903
-0.373969
-0.372631
-0.3708
-0.368373
-0.365239
-0.361284
-0.356399
-0.350467
-0.343638
-0.336151
-0.323545
-0.374856
-0.374731
-0.374408
-0.373829
-0.37293
-0.371633
-0.369849
-0.36748
-0.364419
-0.360557
-0.355793
-0.350025
-0.343434
-0.336162
-0.324327
-0.373691
-0.373592
-0.373294
-0.372743
-0.371875
-0.370615
-0.368876
-0.366564
-0.363576
-0.35981
-0.355173
-0.349579
-0.343232
-0.336199
-0.32508
-0.372534
-0.372456
-0.37218
-0.371653
-0.370814
-0.369588
-0.367894
-0.365639
-0.362726
-0.359061
-0.354558
-0.349146
-0.343047
-0.336277
-0.32581
-0.3713
-0.371393
-0.371332
-0.371075
-0.37057
-0.369757
-0.368565
-0.366915
-0.364719
-0.361884
-0.358325
-0.353964
-0.348744
-0.342894
-0.336418
-0.326521
-0.370166
-0.370274
-0.370228
-0.369987
-0.369502
-0.368715
-0.367557
-0.365951
-0.363816
-0.361064
-0.357617
-0.353406
-0.348385
-0.342789
-0.336661
-0.327186
-0.369065
-0.369185
-0.369151
-0.368926
-0.368461
-0.367698
-0.366574
-0.365016
-0.362945
-0.360281
-0.356951
-0.352898
-0.348084
-0.342755
-0.337016
-0.327706
-0.367751
-0.368003
-0.368133
-0.368111
-0.3679
-0.367454
-0.366717
-0.365629
-0.364121
-0.362118
-0.359546
-0.356341
-0.352452
-0.347854
-0.342785
-0.337213
-0.328272
-0.366726
-0.366987
-0.367126
-0.367115
-0.366918
-0.36649
-0.365781
-0.364731
-0.363275
-0.361345
-0.358871
-0.355797
-0.352079
-0.347703
-0.342895
-0.337539
-0.329719
-0.365755
-0.366023
-0.36617
-0.366169
-0.365986
-0.365579
-0.364899
-0.36389
-0.36249
-0.360637
-0.358267
-0.355329
-0.351785
-0.347634
-0.343086
-0.337954
-0.330887
-0.364842
-0.365116
-0.365271
-0.36528
-0.365112
-0.364727
-0.364078
-0.363113
-0.361773
-0.360001
-0.357739
-0.354942
-0.351577
-0.347649
-0.343352
-0.338442
-0.331901
-0.36361
-0.363993
-0.364273
-0.364435
-0.364455
-0.364303
-0.363941
-0.363326
-0.362407
-0.361132
-0.359446
-0.357296
-0.354643
-0.351458
-0.34775
-0.343696
-0.339016
-0.332924
-0.362825
-0.363212
-0.363497
-0.363666
-0.363698
-0.363563
-0.363227
-0.362648
-0.361779
-0.360572
-0.358975
-0.356942
-0.354436
-0.351433
-0.347942
-0.344122
-0.339678
-0.333991
-0.362113
-0.362503
-0.362793
-0.36297
-0.363014
-0.362898
-0.362589
-0.362048
-0.361233
-0.360097
-0.358594
-0.35668
-0.354324
-0.351502
-0.348225
-0.344634
-0.340426
-0.335108
-0.360988
-0.361477
-0.36187
-0.362165
-0.362349
-0.362406
-0.36231
-0.362031
-0.361532
-0.360773
-0.359711
-0.358304
-0.356514
-0.354309
-0.351669
-0.348603
-0.345235
-0.341263
-0.336286
-0.36043
-0.36092
-0.361315
-0.361614
-0.361807
-0.361878
-0.361804
-0.361556
-0.361101
-0.360401
-0.359417
-0.35811
-0.356444
-0.354391
-0.351933
-0.349076
-0.345927
-0.34219
-0.337536
-0.359954
-0.360444
-0.360841
-0.361144
-0.361346
-0.361432
-0.361381
-0.361167
-0.360758
-0.36012
-0.359216
-0.35801
-0.356471
-0.354572
-0.352295
-0.349644
-0.346713
-0.343212
-0.338868
-0.359561
-0.36005
-0.360447
-0.360755
-0.360966
-0.361069
-0.361043
-0.360864
-0.360503
-0.359929
-0.359108
-0.358007
-0.356596
-0.354852
-0.352756
-0.35031
-0.347595
-0.344331
-0.34029
-0.359252
-0.359739
-0.360137
-0.360449
-0.36067
-0.36079
-0.36079
-0.360648
-0.360338
-0.359829
-0.359093
-0.358098
-0.356818
-0.355229
-0.353314
-0.351074
-0.348574
-0.345551
-0.34181
-0.358445
-0.359027
-0.359511
-0.359909
-0.360225
-0.360457
-0.360595
-0.360622
-0.360519
-0.360261
-0.359821
-0.359171
-0.358284
-0.357135
-0.355703
-0.353969
-0.351934
-0.349652
-0.346875
-0.343433
-0.358309
-0.358885
-0.359365
-0.359763
-0.360084
-0.360327
-0.360483
-0.360539
-0.360476
-0.360271
-0.359901
-0.35934
-0.358563
-0.357546
-0.356271
-0.354721
-0.352891
-0.35083
-0.348302
-0.345164
-0.358259
-0.358827
-0.359302
-0.359698
-0.360024
-0.360278
-0.360454
-0.360539
-0.360517
-0.360368
-0.360069
-0.359598
-0.358932
-0.358049
-0.356933
-0.355566
-0.353944
-0.352107
-0.349835
-0.347005
-0.35829
-0.358849
-0.359319
-0.359714
-0.360044
-0.36031
-0.360506
-0.360621
-0.360641
-0.360548
-0.360323
-0.359943
-0.359389
-0.358642
-0.357685
-0.356503
-0.355091
-0.353482
-0.351472
-0.348957
-0.358403
-0.358951
-0.359414
-0.359808
-0.360142
-0.360419
-0.360636
-0.360782
-0.360846
-0.36081
-0.360658
-0.360371
-0.359931
-0.35932
-0.358524
-0.357529
-0.356329
-0.354953
-0.353212
-0.351018
-0.358593
-0.35913
-0.359585
-0.359976
-0.360315
-0.360604
-0.360841
-0.36102
-0.361127
-0.36115
-0.361073
-0.36088
-0.360554
-0.360081
-0.359447
-0.35864
-0.357655
-0.356516
-0.355052
-0.353186
-0.358858
-0.359382
-0.359829
-0.360218
-0.36056
-0.360861
-0.36112
-0.36133
-0.361482
-0.361565
-0.361564
-0.361465
-0.361254
-0.36092
-0.36045
-0.359833
-0.359065
-0.358168
-0.356987
-0.355457
-0.358586
-0.359194
-0.359704
-0.360142
-0.360528
-0.360874
-0.361187
-0.361467
-0.36171
-0.361908
-0.36205
-0.362125
-0.362122
-0.362027
-0.361832
-0.361526
-0.361101
-0.360554
-0.359902
-0.359011
-0.357823
-0.35901
-0.359598
-0.360093
-0.360521
-0.360903
-0.361253
-0.361578
-0.36188
-0.362155
-0.362398
-0.362601
-0.362753
-0.362845
-0.362868
-0.362812
-0.362672
-0.36244
-0.362115
-0.361714
-0.361117
-0.360279
-0.359499
-0.360066
-0.360545
-0.360962
-0.36134
-0.361693
-0.36203
-0.362353
-0.362661
-0.36295
-0.363213
-0.363443
-0.363631
-0.36377
-0.363855
-0.363881
-0.363843
-0.363742
-0.363595
-0.363297
-0.362813
-0.36005
-0.360593
-0.361054
-0.36146
-0.361833
-0.362189
-0.362537
-0.362882
-0.363223
-0.363558
-0.363881
-0.364188
-0.364472
-0.364729
-0.364954
-0.365146
-0.365303
-0.365427
-0.365537
-0.365541
-0.365415
-0.360656
-0.361175
-0.361617
-0.36201
-0.362378
-0.362736
-0.363096
-0.363462
-0.363836
-0.364216
-0.3646
-0.364983
-0.365363
-0.365736
-0.366102
-0.36646
-0.366811
-0.367162
-0.367531
-0.36784
-0.368074
-0.361312
-0.361805
-0.362227
-0.362608
-0.36297
-0.36333
-0.3637
-0.364087
-0.364493
-0.364919
-0.365363
-0.365823
-0.366298
-0.366787
-0.367292
-0.367815
-0.368361
-0.368937
-0.369565
-0.37018
-0.370775
-0.362014
-0.362479
-0.362881
-0.363248
-0.363603
-0.363965
-0.364345
-0.364752
-0.36519
-0.365661
-0.366164
-0.3667
-0.367269
-0.367873
-0.368516
-0.369203
-0.369942
-0.370743
-0.37163
-0.37255
-0.373505
-0.362755
-0.363192
-0.363573
-0.363925
-0.364273
-0.364635
-0.365025
-0.365452
-0.365921
-0.366435
-0.366997
-0.367607
-0.368269
-0.368986
-0.369766
-0.370615
-0.371544
-0.372569
-0.373714
-0.374937
-0.376247
-0.363531
-0.363939
-0.364297
-0.364634
-0.364973
-0.365335
-0.365734
-0.366179
-0.366679
-0.367236
-0.367854
-0.368538
-0.369291
-0.37012
-0.371033
-0.372042
-0.373159
-0.374403
-0.375803
-0.377326
-0.378987
-0.364336
-0.364713
-0.365047
-0.365368
-0.365698
-0.366059
-0.366466
-0.366929
-0.367457
-0.368056
-0.36873
-0.369485
-0.370327
-0.371264
-0.372309
-0.373473
-0.374775
-0.376235
-0.377886
-0.379702
-0.381706
-0.365164
-0.365509
-0.365819
-0.366122
-0.366443
-0.366802
-0.367215
-0.367695
-0.368251
-0.368889
-0.369617
-0.370441
-0.371369
-0.372412
-0.373584
-0.374901
-0.376382
-0.378053
-0.379948
-0.382052
-0.384389
-0.36601
-0.366322
-0.366607
-0.366892
-0.367201
-0.367557
-0.367976
-0.36847
-0.369052
-0.369728
-0.370507
-0.371397
-0.372409
-0.373554
-0.374849
-0.376313
-0.377969
-0.379843
-0.381978
-0.38436
-0.387019
-0.366868
-0.367146
-0.367404
-0.36767
-0.367967
-0.368319
-0.368741
-0.36925
-0.369855
-0.370567
-0.371394
-0.372348
-0.373439
-0.374682
-0.376096
-0.377701
-0.379524
-0.381596
-0.38396
-0.386611
-0.389577
-0.401345
-0.413973
-0.434543
-0.453951
-0.476492
-0.492981
-0.502673
-0.498054
-0.478405
-0.442735
-0.39727
-0.348831
-0.404487
-0.418053
-0.439918
-0.460737
-0.484651
-0.502393
-0.512929
-0.508636
-0.488563
-0.451672
-0.404405
-0.3539
-0.407506
-0.42194
-0.445058
-0.467211
-0.492437
-0.511382
-0.522742
-0.51879
-0.498335
-0.460243
-0.41121
-0.358664
-0.410383
-0.425615
-0.449937
-0.473344
-0.499821
-0.519918
-0.532086
-0.528493
-0.507663
-0.468474
-0.417684
-0.36313
-0.413098
-0.429059
-0.454532
-0.479113
-0.506774
-0.527973
-0.540936
-0.537719
-0.516565
-0.476326
-0.423829
-0.367305
-0.415633
-0.432255
-0.458822
-0.484493
-0.513276
-0.535523
-0.549265
-0.546446
-0.52503
-0.483793
-0.429645
-0.371197
-0.417976
-0.435188
-0.462792
-0.489466
-0.519305
-0.54254
-0.557056
-0.554668
-0.533041
-0.490869
-0.435134
-0.374816
-0.420114
-0.437844
-0.466426
-0.494015
-0.52484
-0.54902
-0.564296
-0.562363
-0.540585
-0.497551
-0.440298
-0.37817
-0.422018
-0.44023
-0.4697
-0.49814
-0.529879
-0.554942
-0.570969
-0.569519
-0.547654
-0.503833
-0.445141
-0.381269
-0.423684
-0.442331
-0.472622
-0.501818
-0.534409
-0.560299
-0.577066
-0.576127
-0.55424
-0.509712
-0.449666
-0.384125
-0.425121
-0.44413
-0.475185
-0.505045
-0.538422
-0.565087
-0.582579
-0.582179
-0.560336
-0.515186
-0.453876
-0.386746
-0.426322
-0.445625
-0.477383
-0.507824
-0.541918
-0.569307
-0.587507
-0.587672
-0.565936
-0.520253
-0.457774
-0.389144
-0.427284
-0.446821
-0.479216
-0.510158
-0.544899
-0.57296
-0.59185
-0.592604
-0.57104
-0.524912
-0.461366
-0.391329
-0.428004
-0.44772
-0.480688
-0.512051
-0.547371
-0.576052
-0.595612
-0.596974
-0.575644
-0.529163
-0.464654
-0.393311
-0.428488
-0.448326
-0.481806
-0.513511
-0.549344
-0.578592
-0.5988
-0.600787
-0.579749
-0.533007
-0.467645
-0.395098
-0.42874
-0.448645
-0.482578
-0.514551
-0.55083
-0.580592
-0.601422
-0.604049
-0.583358
-0.536446
-0.470342
-0.396702
-0.428769
-0.448685
-0.483016
-0.515183
-0.551845
-0.582067
-0.603492
-0.606766
-0.586474
-0.539482
-0.47275
-0.39813
-0.428585
-0.448457
-0.483132
-0.515424
-0.552406
-0.583036
-0.605025
-0.608949
-0.589103
-0.542118
-0.474876
-0.399393
-0.428201
-0.44797
-0.482942
-0.515291
-0.552532
-0.583518
-0.606037
-0.610611
-0.591252
-0.544361
-0.476723
-0.400497
-0.427632
-0.447239
-0.482461
-0.514804
-0.552244
-0.583534
-0.606547
-0.611764
-0.592928
-0.546214
-0.478298
-0.401451
-0.426894
-0.446276
-0.481709
-0.513983
-0.551565
-0.583109
-0.606575
-0.612424
-0.594141
-0.547683
-0.479607
-0.402262
-0.426006
-0.445095
-0.480702
-0.512851
-0.550518
-0.582266
-0.606144
-0.612606
-0.594903
-0.548776
-0.480655
-0.402938
-0.424986
-0.443714
-0.479459
-0.511429
-0.549126
-0.581031
-0.605276
-0.61233
-0.595223
-0.549501
-0.481449
-0.403485
-0.327526
-0.423856
-0.442146
-0.478
-0.509741
-0.547414
-0.57943
-0.603994
-0.611612
-0.595116
-0.549864
-0.481995
-0.40391
-0.32754
-0.422637
-0.440409
-0.476344
-0.507808
-0.545405
-0.577489
-0.602323
-0.610472
-0.594593
-0.549876
-0.4823
-0.404219
-0.327548
-0.421352
-0.438521
-0.474508
-0.505653
-0.543122
-0.575235
-0.600288
-0.608928
-0.593668
-0.549545
-0.48237
-0.404417
-0.327554
-0.420022
-0.436497
-0.472511
-0.503297
-0.540585
-0.572714
-0.597917
-0.607
-0.592355
-0.54888
-0.482213
-0.40451
-0.327563
-0.41867
-0.434357
-0.47037
-0.500761
-0.537815
-0.570021
-0.595236
-0.604706
-0.590668
-0.547894
-0.481836
-0.404502
-0.32758
-0.417316
-0.432119
-0.4681
-0.498065
-0.534833
-0.567274
-0.592265
-0.602064
-0.588622
-0.546595
-0.481246
-0.404398
-0.327607
-0.41598
-0.429799
-0.465717
-0.495227
-0.531657
-0.564202
-0.589003
-0.599091
-0.58623
-0.544995
-0.480451
-0.404203
-0.327645
-0.41468
-0.427418
-0.463234
-0.492266
-0.528303
-0.559741
-0.585444
-0.5958
-0.583507
-0.543106
-0.479459
-0.403921
-0.327698
-0.413428
-0.424994
-0.460664
-0.489198
-0.524814
-0.555942
-0.581614
-0.592209
-0.580468
-0.540938
-0.478277
-0.403556
-0.327766
-0.412238
-0.422544
-0.458016
-0.48604
-0.521196
-0.552004
-0.577533
-0.588334
-0.577126
-0.538506
-0.476914
-0.403111
-0.327848
-0.411113
-0.420089
-0.4553
-0.482803
-0.51745
-0.547886
-0.573231
-0.584189
-0.573497
-0.53582
-0.475378
-0.402591
-0.327947
-0.410057
-0.417645
-0.452525
-0.479498
-0.513589
-0.543629
-0.568722
-0.57979
-0.569595
-0.532894
-0.473679
-0.401998
-0.32806
-0.409062
-0.41523
-0.449695
-0.476134
-0.509623
-0.539237
-0.564018
-0.575148
-0.565436
-0.529741
-0.471824
-0.401337
-0.328187
-0.408118
-0.41286
-0.446818
-0.472717
-0.505557
-0.534716
-0.559131
-0.570278
-0.561033
-0.526376
-0.469822
-0.40061
-0.328328
-0.407204
-0.41055
-0.443898
-0.469253
-0.501391
-0.530072
-0.554072
-0.565192
-0.556402
-0.522812
-0.467684
-0.39982
-0.32848
-0.406293
-0.408312
-0.44094
-0.465742
-0.497138
-0.525315
-0.54885
-0.559904
-0.551559
-0.519063
-0.465419
-0.398972
-0.328642
-0.260957
-0.405345
-0.406155
-0.437946
-0.462181
-0.49289
-0.520461
-0.543475
-0.554426
-0.546521
-0.515146
-0.463035
-0.398067
-0.328812
-0.261704
-0.404315
-0.404085
-0.434919
-0.458573
-0.488737
-0.515513
-0.537957
-0.548771
-0.541303
-0.511075
-0.460543
-0.397109
-0.328988
-0.262513
-0.403144
-0.402102
-0.431864
-0.454915
-0.484119
-0.510459
-0.532302
-0.542954
-0.535923
-0.506865
-0.457951
-0.396098
-0.329165
-0.263378
-0.401768
-0.4002
-0.42878
-0.451227
-0.479397
-0.505275
-0.526514
-0.536988
-0.530398
-0.502534
-0.455272
-0.395045
-0.329351
-0.264304
-0.400108
-0.398364
-0.425672
-0.447514
-0.474747
-0.499949
-0.520598
-0.530884
-0.524747
-0.498101
-0.452524
-0.393963
-0.329558
-0.2653
-0.398082
-0.396567
-0.422539
-0.443749
-0.469978
-0.494508
-0.514569
-0.524662
-0.518987
-0.493574
-0.449699
-0.392829
-0.329747
-0.266321
-0.395608
-0.394786
-0.419397
-0.43993
-0.46515
-0.488997
-0.508467
-0.518363
-0.513144
-0.488944
-0.446741
-0.391543
-0.329791
-0.267231
-0.392616
-0.392988
-0.416257
-0.436093
-0.460305
-0.483424
-0.502303
-0.512011
-0.507253
-0.484258
-0.443716
-0.390191
-0.329794
-0.268139
-0.389019
-0.391043
-0.412978
-0.432297
-0.455245
-0.477552
-0.495856
-0.505466
-0.501331
-0.479753
-0.441103
-0.389461
-0.330573
-0.269902
-0.384487
-0.388712
-0.409367
-0.428368
-0.449726
-0.471187
-0.488948
-0.498566
-0.495259
-0.475383
-0.438934
-0.389447
-0.332254
-0.272655
-0.378574
-0.386495
-0.406568
-0.423915
-0.445378
-0.466065
-0.483096
-0.492187
-0.48883
-0.469562
-0.43424
-0.386089
-0.330152
-0.271554
-0.214444
-0.364529
-0.383387
-0.404864
-0.42255
-0.441936
-0.461157
-0.476403
-0.483373
-0.47784
-0.456932
-0.420882
-0.372964
-0.317997
-0.260775
-0.205097
-0.358114
-0.377567
-0.397272
-0.411761
-0.427414
-0.442741
-0.453819
-0.456886
-0.448657
-0.427074
-0.392502
-0.347734
-0.296826
-0.243829
-0.192003
-0.353382
-0.369441
-0.386175
-0.398271
-0.410724
-0.422406
-0.42983
-0.429795
-0.419764
-0.398252
-0.365623
-0.324158
-0.27721
-0.2282
-0.179952
-0.347041
-0.358962
-0.371721
-0.382389
-0.392328
-0.400903
-0.405311
-0.402895
-0.391673
-0.370568
-0.339941
-0.301662
-0.258499
-0.213317
-0.168541
-0.338067
-0.346798
-0.356121
-0.36491
-0.3728
-0.378805
-0.380759
-0.376555
-0.364645
-0.344246
-0.315693
-0.2805
-0.240925
-0.199354
-0.157866
-0.326822
-0.333398
-0.339725
-0.346675
-0.352863
-0.356811
-0.356829
-0.351329
-0.339121
-0.319619
-0.293109
-0.260808
-0.22455
-0.186324
-0.147918
-0.313943
-0.319135
-0.323102
-0.328351
-0.333093
-0.33543
-0.333968
-0.327566
-0.315328
-0.296807
-0.272237
-0.242592
-0.209365
-0.174216
-0.138676
-0.300036
-0.304367
-0.306599
-0.31036
-0.313861
-0.314946
-0.31239
-0.305391
-0.293305
-0.275787
-0.253025
-0.225799
-0.195326
-0.162992
-0.13011
-0.28561
-0.289401
-0.290415
-0.292933
-0.295374
-0.295493
-0.292153
-0.284797
-0.272986
-0.256463
-0.235372
-0.210341
-0.182366
-0.152602
-0.122178
-0.271036
-0.274471
-0.27466
-0.276181
-0.277734
-0.27711
-0.273232
-0.265708
-0.25426
-0.238704
-0.219155
-0.196116
-0.170404
-0.142988
-0.114835
-0.256568
-0.259747
-0.259398
-0.260146
-0.260969
-0.259782
-0.255558
-0.248012
-0.236989
-0.222369
-0.204241
-0.183013
-0.159358
-0.134088
-0.108036
-0.242375
-0.245354
-0.244664
-0.24483
-0.245072
-0.243467
-0.239045
-0.231593
-0.22104
-0.207318
-0.190505
-0.170929
-0.149147
-0.125845
-0.101737
-0.228566
-0.231375
-0.23048
-0.230222
-0.230015
-0.228112
-0.223608
-0.216334
-0.206281
-0.193424
-0.177829
-0.159765
-0.139696
-0.1182
-0.0958936
-0.215209
-0.217868
-0.21686
-0.216301
-0.21576
-0.213659
-0.209162
-0.202131
-0.192598
-0.180569
-0.166107