/*--------------------------------*- C++ -*----------------------------------*\
  =========                 |
  \\      /  F ield         | OpenFOAM: The Open Source CFD Toolbox
   \\    /   O peration     | Website:  https://openfoam.org
    \\  /    A nd           | Version:  7
     \\/     M anipulation  |
\*---------------------------------------------------------------------------*/
FoamFile
{
    version     2.0;
    format      ascii;
    class       surfaceScalarField;
    location    "80";
    object      phi;
}
// * * * * * * * * * * * * * * * * * * * * * * * * * * * * * * * * * * * * * //

dimensions      [0 3 -1 0 0 0 0];

internalField   nonuniform List<scalar> 
13997
(
-8.08139e-06
0.000186145
-0.000183189
-1.17197e-05
0.000220659
-0.000217021
-1.6027e-05
0.000252466
-0.000248159
-2.09778e-05
0.000281621
-0.000276671
-2.65349e-05
0.000308287
-0.00030273
-3.26525e-05
0.000332725
-0.000326608
-3.92784e-05
0.00035528
-0.000348654
-4.63575e-05
0.000376356
-0.000369277
-5.38358e-05
0.00039639
-0.000388912
-6.16638e-05
0.00041583
-0.000408002
-6.98001e-05
0.000435105
-0.000426968
-7.82138e-05
0.000454609
-0.000446195
-8.68872e-05
0.000474685
-0.000466012
-9.58159e-05
0.000495615
-0.000486686
-0.000105009
0.000517616
-0.000508423
-0.00011449
0.000540836
-0.000531356
-0.000124289
0.000565356
-0.000555556
-0.000134451
0.000591187
-0.000581026
-0.000145024
0.000618272
-0.000607699
-0.000156063
0.000646466
-0.000635427
0.000675545
-0.000663969
-0.000167639
-6.92454e-06
0.000188721
-1.01311e-05
0.000223866
-1.3963e-05
0.000256298
-1.84012e-05
0.00028606
-2.34143e-05
0.0003133
-2.89595e-05
0.000338271
-3.49862e-05
0.000361307
-4.14387e-05
0.000382808
-4.82602e-05
0.000403212
-5.53966e-05
0.000422966
-6.27994e-05
0.000442508
-7.04293e-05
0.000462239
-7.82576e-05
0.000482513
-8.62677e-05
0.000503625
-9.44549e-05
0.000525803
-0.000102826
0.000549207
-0.0001114
0.000573929
-0.000120201
0.000599989
-0.000129266
0.000627337
-0.000138638
0.000655838
0.000685286
-0.000148378
-5.76223e-06
0.000190914
-8.53083e-06
0.000226634
-1.1878e-05
0.000259645
-1.57917e-05
0.000289973
-2.02453e-05
0.000317754
-2.51994e-05
0.000343225
-3.06045e-05
0.000366712
-3.64042e-05
0.000388608
-4.25386e-05
0.000409346
-4.89485e-05
0.000429376
-5.55782e-05
0.000449137
-6.23789e-05
0.000469039
-6.93105e-05
0.000489445
-7.63433e-05
0.000510658
-8.34581e-05
0.000532918
-9.0646e-05
0.000556395
-9.79082e-05
0.000581191
-0.000105255
0.000607335
-0.000112707
0.000634789
-0.000120296
0.000663427
0.000693063
-0.000128073
-4.59976e-06
0.000192722
-6.92587e-06
0.00022896
-9.78124e-06
0.000262501
-1.31602e-05
0.000293352
-1.70408e-05
0.000321634
-2.1387e-05
0.000347571
-2.61501e-05
0.000371475
-3.12729e-05
0.000393731
-3.66922e-05
0.000414766
-4.23433e-05
0.000435027
-4.8163e-05
0.000454957
-5.40924e-05
0.000474969
-6.00796e-05
0.000495432
-6.60812e-05
0.00051666
-7.20627e-05
0.000538899
-7.79987e-05
0.000562332
-8.38735e-05
0.000587066
-8.96804e-05
0.000613142
-9.54249e-05
0.000640533
-0.000101126
0.000669128
0.000698763
-0.000106826
-3.44243e-06
0.000194144
-5.32342e-06
0.000230841
-7.68173e-06
0.000264859
-1.05177e-05
0.000296188
-1.38142e-05
0.000324931
-1.75377e-05
0.000351294
-2.16408e-05
0.000375578
-2.60648e-05
0.000398155
-3.07435e-05
0.000419444
-3.56063e-05
0.00043989
-4.05821e-05
0.000459933
-4.56019e-05
0.000479988
-5.06014e-05
0.000500432
-5.55229e-05
0.000521581
-6.03161e-05
0.000543693
-6.49388e-05
0.000566954
-6.93576e-05
0.000591485
-7.35489e-05
0.000617333
-7.7502e-05
0.000644487
-8.12243e-05
0.000672851
0.000702285
-8.47464e-05
-2.29562e-06
0.000195181
-3.73078e-06
0.000232277
-5.58886e-06
0.000266717
-7.8759e-06
0.000298475
-1.0579e-05
0.000327634
-1.36676e-05
0.000354383
-1.70948e-05
0.000379006
-2.0801e-05
0.000401861
-2.47162e-05
0.00042336
-2.87643e-05
0.000443938
-3.28659e-05
0.000464034
-3.69415e-05
0.000484064
-4.09145e-05
0.000504405
-4.47124e-05
0.000525379
-4.82687e-05
0.000547249
-5.15241e-05
0.00057021
-5.44271e-05
0.000594388
-5.69366e-05
0.000619843
-5.90264e-05
0.000646576
-6.06917e-05
0.000674516
0.000703545
-6.19524e-05
-1.16471e-06
0.000195836
-2.1553e-06
0.000233267
-3.51211e-06
0.000268074
-5.24649e-06
0.00030021
-7.34962e-06
0.000329737
-9.79329e-06
0.000356827
-1.25316e-05
0.000381744
-1.55033e-05
0.000404833
-1.86353e-05
0.000426492
-2.18454e-05
0.000447148
-2.5046e-05
0.000467235
-2.81473e-05
0.000487165
-3.10598e-05
0.000507317
-3.36962e-05
0.000528015
-3.59738e-05
0.000549527
-3.78154e-05
0.000572051
-3.91516e-05
0.000595724
-3.99237e-05
0.000620615
-4.00898e-05
0.000646742
-3.96348e-05
0.000674061
0.000702477
-3.85668e-05
-5.50989e-08
0.000196115
-6.04389e-07
0.000233816
-1.46111e-06
0.000268931
-2.64145e-06
0.00030139
-4.14032e-06
0.000331236
-5.93185e-06
0.000358618
-7.97074e-06
0.000383783
-1.01945e-05
0.000407057
-1.25265e-05
0.000428824
-1.48788e-05
0.000449501
-1.71557e-05
0.000469512
-1.92569e-05
0.000489267
-2.10799e-05
0.00050914
-2.2523e-05
0.000529459
-2.34866e-05
0.00055049
-2.3876e-05
0.000572441
-2.36035e-05
0.000595451
-2.25929e-05
0.000619604
-2.07862e-05
0.000644936
-1.81622e-05
0.000671437
0.000699043
-1.47282e-05
1.02784e-06
0.000196023
9.14559e-07
0.00023393
5.54509e-07
0.000269291
-7.28348e-08
0.000302017
-9.65818e-07
0.000332129
-2.10066e-06
0.000359753
-3.43262e-06
0.000385115
-4.89797e-06
0.000408522
-6.41659e-06
0.000430342
-7.89496e-06
0.000450979
-9.2294e-06
0.000470846
-1.03091e-05
0.000490346
-1.10192e-05
0.00050985
-1.1243e-05
0.000529682
-1.08645e-05
0.000550112
-9.77122e-06
0.000571347
-7.8574e-06
0.000593538
-5.02918e-06
0.000616776
-1.21144e-06
0.000641118
3.6479e-06
0.000666578
0.000693251
9.43988e-06
2.07888e-06
0.000195569
2.39423e-06
0.000233614
2.52513e-06
0.00026916
2.44719e-06
0.000302095
2.15908e-06
0.000332417
1.68264e-06
0.000360229
1.06212e-06
0.000385735
3.62515e-07
0.000409221
-3.32805e-07
0.000431038
-9.24899e-07
0.000451571
-1.30231e-06
0.000471224
-1.34415e-06
0.000490388
-9.22964e-07
0.000509429
9.26419e-08
0.000528667
1.83398e-06
0.00054837
4.4321e-06
0.000568749
8.01075e-06
0.000589959
1.26813e-05
0.000612106
1.85314e-05
0.000635268
2.56038e-05
0.000659505
0.000684962
3.38927e-05
3.09291e-06
0.000194763
3.82745e-06
0.00023288
4.44124e-06
0.000268546
4.90661e-06
0.00030163
5.21957e-06
0.000332104
5.40029e-06
0.000360049
5.49262e-06
0.000385643
5.56272e-06
0.000409151
5.69703e-06
0.000430903
5.99968e-06
0.000451268
6.58955e-06
0.000470634
7.5973e-06
0.00048938
9.1624e-06
0.000507864
1.14302e-05
0.000526399
1.45491e-05
0.000545251
1.86665e-05
0.000564632
2.39243e-05
0.000584701
3.04513e-05
0.000605579
3.83498e-05
0.000627369
4.76739e-05
0.000650181
0.000674231
5.8405e-05
4.06488e-06
0.000193617
5.20726e-06
0.000231737
6.29351e-06
0.00026746
7.29345e-06
0.00030063
8.2009e-06
0.000331197
9.03456e-06
0.000359215
9.83793e-06
0.000384839
1.06783e-05
0.000408311
1.16449e-05
0.000429937
1.28468e-05
0.000450066
1.44098e-05
0.000469071
1.6474e-05
0.000487316
1.91903e-05
0.000505147
2.27181e-05
0.000522871
2.72211e-05
0.000540748
3.28641e-05
0.000558989
3.98065e-05
0.000577759
4.81943e-05
0.000597191
5.81441e-05
0.000617419
6.97165e-05
0.000638609
0.000661066
8.28821e-05
4.98999e-06
6.52678e-06
0.000230201
8.07279e-06
0.000265914
9.59601e-06
0.000299107
1.10885e-05
0.000329704
1.25679e-05
0.000357736
1.40773e-05
0.00038333
1.56849e-05
0.000406703
1.74828e-05
0.000428139
1.95844e-05
0.000447965
2.2122e-05
0.000466533
2.52445e-05
0.000484194
2.91141e-05
0.000501278
3.39031e-05
0.000518082
3.97905e-05
0.000534861
4.69577e-05
0.000551822
5.55815e-05
0.000569135
6.58246e-05
0.000586948
7.78173e-05
0.000605427
9.16249e-05
0.000624801
0.000645487
0.000107204
7.77936e-06
0.000228285
9.77018e-06
0.000263923
1.18028e-05
0.000297074
1.38682e-05
0.000327639
1.5983e-05
0.000355621
1.819e-05
0.000381123
2.05587e-05
0.000404335
2.3183e-05
0.000425514
2.61806e-05
0.000444967
2.969e-05
0.000463024
3.38681e-05
0.000480016
3.88874e-05
0.000496258
4.49329e-05
0.000512037
5.21983e-05
0.000527595
6.0881e-05
0.000543139
7.11748e-05
0.000558841
8.32587e-05
0.000574864
9.72759e-05
0.00059141
0.000113295
0.000608782
0.000627527
0.000131255
8.95858e-06
0.000226007
1.13771e-05
0.000261504
1.39029e-05
0.000294548
1.65262e-05
0.000325016
1.9263e-05
0.000352884
2.21563e-05
0.00037823
2.52759e-05
0.000401215
2.87182e-05
0.000422072
3.26043e-05
0.000441081
3.70782e-05
0.00045855
4.23043e-05
0.000474789
4.84648e-05
0.000490098
5.57566e-05
0.000504745
6.43873e-05
0.000518965
7.45697e-05
0.000532957
8.65145e-05
0.000546896
0.000100416
0.000560962
0.000116431
0.000575395
0.00013463
0.000590583
0.000607228
0.000154929
1.00584e-05
0.000223387
1.28854e-05
0.000258677
1.58857e-05
0.000291548
1.90494e-05
0.000321852
2.2392e-05
0.000349541
2.59567e-05
0.000374665
2.9814e-05
0.000397358
3.4062e-05
0.000417824
3.88251e-05
0.000436318
4.4252e-05
0.000453123
5.05141e-05
0.000468527
5.78024e-05
0.00048281
6.63248e-05
0.000496223
7.6302e-05
0.000508988
8.79622e-05
0.000521296
0.000101532
0.000533326
0.000117222
0.000545272
0.000135199
0.000557417
0.000155538
0.000570244
0.000584638
0.000178128
1.10735e-05
0.000220445
1.42877e-05
0.000255463
1.77415e-05
0.000288094
2.14252e-05
0.000318168
2.53546e-05
0.000345612
2.95728e-05
0.000370447
3.41511e-05
0.000392779
3.91891e-05
0.000412786
4.48139e-05
0.000430694
5.11784e-05
0.000446758
5.846e-05
0.000461246
6.68579e-05
0.000474412
7.65902e-05
0.00048649
8.789e-05
0.000497688
0.000101
0.000508187
0.000116162
0.000518164
0.000133603
0.000527831
0.000153503
0.000537517
0.000175936
0.000547811
0.000559811
0.000200763
1.19991e-05
0.000217204
1.55772e-05
0.000251885
1.94613e-05
0.00028421
2.36424e-05
0.000313987
2.81365e-05
0.000341118
3.29874e-05
0.000365596
3.82668e-05
0.0003875
4.40756e-05
0.000406977
5.05431e-05
0.000424226
5.7826e-05
0.000439476
6.61068e-05
0.000452965
7.55919e-05
0.000464927
8.65088e-05
0.000475573
9.91024e-05
0.000485094
0.000113629
0.00049366
0.000130347
0.000501446
0.000149497
0.000508681
0.000171273
0.000515741
0.00019575
0.000523335
0.000532804
0.000222757
1.28308e-05
0.000213688
1.67481e-05
0.000247968
2.10371e-05
0.000279921
2.56903e-05
0.000309334
3.07248e-05
0.000336083
3.61846e-05
0.000360136
4.21422e-05
0.000381542
4.86994e-05
0.00040042
5.59874e-05
0.000416938
6.41657e-05
0.000431297
7.34216e-05
0.000443709
8.39677e-05
0.000454381
9.604e-05
0.000463501
0.000109894
0.00047124
0.0001258
0.000477754
0.000144031
0.000483215
0.000164846
0.000487866
0.000188449
0.000492138
0.000214918
0.000496866
0.000503674
0.000244048
1.35651e-05
1.77949e-05
0.000243738
2.24617e-05
0.000275254
2.75599e-05
0.000304236
3.31078e-05
0.000330535
3.91502e-05
0.000354094
4.57602e-05
0.000374932
5.30404e-05
0.00039314
6.11235e-05
0.000408855
7.01714e-05
0.000422249
8.03751e-05
0.000433505
9.19527e-05
0.000442803
0.000105148
0.000450306
0.000120226
0.000456161
0.000137471
0.000460509
0.000157171
0.000463516
0.0001796
0.000465437
0.000204981
0.000466757
0.00023339
0.000468456
0.000472476
0.000264589
1.87134e-05
0.000239223
2.37291e-05
0.000270239
2.92432e-05
0.000298722
3.52754e-05
0.000324503
4.18718e-05
0.000347498
4.91059e-05
0.000367698
5.70813e-05
0.000385164
6.59314e-05
0.000400005
7.58202e-05
0.00041236
8.69416e-05
0.000422384
9.95185e-05
0.000430226
0.000113801
0.000436023
0.000130065
0.000439897
0.000148606
0.000441969
0.000169727
0.000442394
0.000193723
0.000441441
0.000220829
0.000439651
0.000251131
0.000438155
0.000439258
0.000284348
1.95e-05
0.000234453
2.48346e-05
0.000264904
3.07337e-05
0.000292823
3.72195e-05
0.000318017
4.43391e-05
0.000340378
5.2167e-05
0.00035987
6.08073e-05
0.000376524
7.03942e-05
0.000390418
8.1093e-05
0.000401662
9.31e-05
0.000410377
0.000106642
0.000416684
0.000121976
0.000420689
0.000139385
0.000422488
0.000159177
0.000422177
0.000181673
0.000419899
0.000207185
0.000415929
0.00023597
0.000410866
0.000268118
0.000406006
0.00040406
0.000303316
2.01522e-05
0.000229455
2.57746e-05
0.000259282
3.20268e-05
0.00028657
3.89338e-05
0.00031111
4.65444e-05
0.000332768
5.4934e-05
0.000351481
6.42071e-05
0.000367251
7.44988e-05
0.000380126
8.59752e-05
0.000390185
9.88345e-05
0.000397518
0.000113307
0.000402212
0.000129654
0.000404342
0.000148168
0.000403974
0.000169168
0.000401177
0.000192992
0.000396075
0.000219974
0.000388948
0.000250392
0.000380447
0.000284352
0.000372047
0.000366911
0.000321501
2.06688e-05
2.65471e-05
0.000253403
3.31196e-05
0.000279998
4.04144e-05
0.000303816
4.84824e-05
0.0003247
5.74003e-05
0.000342563
6.72732e-05
0.000357378
7.82366e-05
0.000369163
9.04574e-05
0.000377964
0.000104135
0.00038384
0.000119503
0.000386844
0.000136826
0.000387019
0.000156406
0.000384394
0.000178573
0.00037901
0.000203682
0.000370966
0.000232091
0.000360539
0.000264106
0.000348432
0.000299848
0.000336305
0.000327821
0.000338938
2.71518e-05
0.000247301
3.40111e-05
0.000273139
4.16598e-05
0.000296167
5.0151e-05
0.000316208
5.95632e-05
0.000333151
7.00022e-05
0.000346939
8.16039e-05
0.000357561
9.45359e-05
0.000365032
0.000108999
0.000369377
0.000125228
0.000370615
0.000143493
0.000368753
0.000164102
0.000363785
0.000187399
0.000355713
0.000213755
0.000344609
0.000243555
0.000330739
0.000277137
0.000314851
0.000314648
0.000298793
0.000286783
0.000355686
2.759e-05
0.000241008
3.47027e-05
0.000266026
4.2671e-05
0.000288199
5.15512e-05
0.000307328
6.14236e-05
0.000323278
7.23952e-05
0.000335967
8.46025e-05
0.000345354
9.82135e-05
0.000351421
0.00011343
0.000354161
0.000130489
0.000353556
0.000149665
0.000349577
0.000171273
0.000342177
0.000195667
0.000331319
0.00022324
0.000317036
0.000254404
0.000299576
0.000289536
0.000279719
0.000328817
0.000259512
0.000243769
0.00037183
2.78649e-05
0.000234554
3.5198e-05
0.000258693
4.34523e-05
0.000279944
5.26877e-05
0.000298093
6.2987e-05
0.000312979
7.44586e-05
0.000324496
8.72401e-05
0.000332572
0.0001015
0.000337161
0.000117442
0.000338219
0.000135304
0.000335694
0.000155366
0.000329515
0.000177948
0.000319595
0.000203417
0.000305849
0.000232187
0.000288267
0.0002647
0.000267063
0.000301377
0.000243042
0.000342445
0.000218444
0.000198725
0.000387489
2.79816e-05
3.55032e-05
0.000251171
4.40108e-05
0.000271437
5.35689e-05
0.000288535
6.42632e-05
0.000302285
7.62044e-05
0.000312555
8.95313e-05
0.000319245
0.000104414
0.000322278
0.000121057
0.000321576
0.000139702
0.00031705
0.00016063
0.000308587
0.000184172
0.000296053
0.000210706
0.000279315
0.000240665
0.000258307
0.000274528
0.0002332
0.000312763
0.000204807
0.000355655
0.000175552
0.000151573
0.000402807
3.56271e-05
0.000243492
4.43573e-05
0.000262707
5.42076e-05
0.000278684
6.52674e-05
0.000291225
7.76505e-05
0.000300172
9.14979e-05
0.000305398
0.000106982
0.000306794
0.000124308
0.000304249
0.000143722
0.000297636
0.00016551
0.000286799
0.000190009
0.000271555
0.00021761
0.000251714
0.000248769
0.000227148
0.000283999
0.000197971
0.000323824
0.000164982
0.000368598
0.000130779
0.000102205
0.000417966
3.55816e-05
0.000235682
4.45059e-05
0.000253782
5.46206e-05
0.00026857
6.602e-05
0.000279826
7.88214e-05
0.00028737
9.31693e-05
0.00029105
0.000109239
0.000290725
0.000127239
0.000286249
0.000147419
0.000277456
0.000170071
0.000264147
0.000195539
0.000246087
0.000224229
0.000223024
0.000256617
0.000194759
0.000293253
0.000161335
0.000334723
0.000123512
0.000381458
8.40437e-05
5.04889e-05
0.000433174
3.53813e-05
0.000227768
4.44746e-05
0.000244689
5.48298e-05
0.000258214
6.6547e-05
0.000268108
7.97485e-05
0.000274168
9.45835e-05
0.000276215
0.000111231
0.000274077
0.000129906
0.000267574
0.00015086
0.000256501
0.000174395
0.000240613
0.000200862
0.000219619
0.000230682
0.000193203
0.000264353
0.000161089
0.00030246
0.000123228
0.000345653
8.03197e-05
0.000394452
3.52445e-05
-3.73063e-06
0.000448671
3.50442e-05
4.42854e-05
0.000235448
5.48617e-05
0.000247638
6.68805e-05
0.00025609
8.04705e-05
0.000260579
9.57867e-05
0.000260899
0.000113015
0.000256849
0.000132375
0.000248214
0.000154128
0.000234748
0.000178581
0.000216159
0.000206099
0.000192101
0.000237115
0.000162188
0.000272147
0.000126056
0.000311818
8.35575e-05
0.000356837
3.53005e-05
0.000407824
-1.57429e-05
-6.063e-05
0.000464724
4.39643e-05
0.000226075
5.47481e-05
0.000236854
6.70587e-05
0.000243779
8.10331e-05
0.000246604
9.68343e-05
0.000245098
0.000114656
0.000239028
0.000134727
0.000228143
0.000157317
0.000212158
0.000182745
0.000190731
0.000211387
0.000163459
0.00024369
0.000129884
0.000280194
8.95527e-05
0.000321549
4.2202e-05
0.000368527
-1.16775e-05
0.000421848
-6.90635e-05
-0.000120399
0.000481616
4.35411e-05
0.000216581
5.45254e-05
0.00022587
6.7126e-05
0.000231178
8.14899e-05
0.00023224
9.77903e-05
0.000228797
0.000116231
0.000220587
0.000137054
0.000207321
0.000160539
0.000188672
0.000187019
0.000164251
0.000216883
0.000133595
0.000250594
9.61738e-05
0.000288707
5.14394e-05
0.000331901
-9.91702e-07
0.000380997
-6.07737e-05
0.000436813
-0.00012488
-0.000183232
0.000499646
4.305e-05
5.42353e-05
0.000214685
6.71327e-05
0.000218281
8.19015e-05
0.000217471
9.87276e-05
0.000211971
0.000117829
0.000201486
0.000139459
0.000185691
0.000163917
0.000164215
0.000191548
0.00013662
0.000222759
0.000102385
0.000258026
6.09069e-05
0.00029792
1.15456e-05
0.000343136
-4.62079e-05
0.000394535
-0.000112173
0.000453024
-0.000183368
-0.000249317
0.000519109
5.39243e-05
0.000203289
6.71351e-05
0.00020507
8.23356e-05
0.000202271
9.97269e-05
0.00019458
0.000119543
0.000181669
0.000142057
0.000163177
0.000167585
0.000138688
0.000196491
0.000107714
0.000229198
6.96773e-05
0.000266199
2.39061e-05
0.000308074
-3.03292e-05
0.000355525
-9.36595e-05
0.000409436
-0.000166084
0.000470781
-0.000244713
-0.000318827
0.00054029
5.36432e-05
0.000191665
6.7195e-05
0.000191518
8.28661e-05
0.0001866
0.000100877
0.000176569
0.00012148
0.000161065
0.000144971
0.000139686
0.000171686
0.000111972
0.000202013
7.73872e-05
0.000236393
3.52976e-05
0.000275331
-1.50325e-05
0.000319414
-7.4412e-05
0.000369339
-0.000143584
0.000425986
-0.000222731
0.000490373
-0.000309099
-0.000391898
0.000563444
5.34468e-05
6.73785e-05
0.000177587
8.35726e-05
0.000170406
0.000102271
0.000157871
0.000123751
0.000139585
0.00014833
0.000115107
0.000176372
8.39306e-05
0.000208287
4.54723e-05
0.000244537
-9.52569e-07
0.00028564
-5.61354e-05
0.000332179
-0.000120951
0.000384832
-0.000196238
0.00044445
-0.000282349
0.000512057
-0.000376706
-0.00046862
0.00058878
6.77557e-05
0.000163224
8.45385e-05
0.000153623
0.000104008
0.000138401
0.000126469
0.000117125
0.000152267
8.93087e-05
0.000181793
5.44049e-05
0.000215483
1.17819e-05
0.00025382
-3.92899e-05
0.000297331
-9.96462e-05
0.000346589
-0.000170209
0.000402236
-0.000251884
0.000465058
-0.000345171
0.000536048
-0.000447697
-0.000549021
0.000616449
6.83994e-05
8.58503e-05
0.000136172
0.00010619
0.000118062
0.000129753
9.35616e-05
0.000156916
6.21458e-05
0.0001881
2.32211e-05
0.000223768
-2.38866e-05
0.000264423
-7.99446e-05
0.000310595
-0.000145818
0.00036284
-0.000222454
0.000421742
-0.000310787
0.000487991
-0.00041142
0.000562501
-0.000522207
-0.000633046
0.000646527
8.7595e-05
0.00011796
0.000108918
9.67385e-05
0.000133719
6.87608e-05
0.000162407
3.34573e-05
0.000195436
-9.80791e-06
0.000233296
-6.17468e-05
0.000276506
-0.000123154
0.000325595
-0.000194907
0.000381086
-0.000277945
0.000443494
-0.000373194
0.000513367
-0.000481293
0.000591501
-0.000600341
-0.000720549
0.000679004
8.98586e-05
0.00011229
7.43069e-05
0.000138477
4.2574e-05
0.000168863
3.07095e-06
0.000203934
-4.48783e-05
0.000244204
-0.000102017
0.000290204
-0.000169155
0.000342456
-0.000247159
0.000401441
-0.00033693
0.000467577
-0.000439331
0.000541237
-0.000554952
0.000623055
-0.000682159
-0.000811278
0.000713784
0.000116401
5.06301e-05
0.000144131
1.48434e-05
0.000176395
-2.91926e-05
0.000213706
-8.21896e-05
0.000256603
-0.000144913
0.000305622
-0.000218173
0.000361266
-0.000302803
0.000423959
-0.000399623
0.000494011
-0.000509383
0.000571572
-0.000632514
0.000657092
-0.000767679
-0.000904866
0.00075068
0.000121336
2.5563e-05
0.000150774
-1.45953e-05
0.000185097
-6.35155e-05
0.000224847
-0.000121939
0.000270576
-0.000190643
0.000322822
-0.000270419
0.000382058
-0.000362039
0.000448639
-0.000466203
0.000522745
-0.000583489
0.000604273
-0.000714043
0.000693466
-0.000856871
-0.00100083
0.00078943
0.000127169
0.000158482
-4.59085e-05
0.000195044
-0.000100078
0.00023742
-0.000164315
0.000286172
-0.000239395
0.000341826
-0.000326073
0.000404815
-0.000425029
0.000475412
-0.0005368
0.000553656
-0.000661733
0.000639168
-0.000799555
0.000731966
-0.000949669
-0.00109856
0.000829701
0.000167314
-7.92607e-05
0.000206287
-0.000139051
0.000251461
-0.000209489
0.000303399
-0.000291333
0.000362603
-0.000385277
0.000429458
-0.000491883
0.000504142
-0.000611485
0.000586547
-0.000744138
0.000676014
-0.000889022
0.00077233
-0.00104599
-0.00119735
0.000871118
0.000177309
0.000218851
-0.000180592
0.000266972
-0.00025761
0.000322224
-0.000346585
0.000385076
-0.000448129
0.000455849
-0.000562656
0.000534627
-0.000690263
0.000621145
-0.000830656
0.000714499
-0.000982376
0.000814214
-0.0011457
-0.00129647
0.00091333
0.000232732
-0.000224841
0.00028392
-0.000308797
0.000342572
-0.000405237
0.000409111
-0.000514668
0.000483788
-0.000637333
0.000566595
-0.000773069
0.000657128
-0.000921189
0.000754303
-0.00107955
0.000857162
-0.00124856
-0.00139548
0.00095617
0.000247899
0.000302235
-0.000363133
0.000364325
-0.000467327
0.000434527
-0.00058487
0.000513013
-0.000715819
0.000599697
-0.000859753
0.000694121
-0.00101561
0.00079524
-0.00118067
0.000900989
-0.00135431
-0.00149402
0.000999535
0.000321819
0.000387327
-0.000532835
0.000461093
-0.000658636
0.000543195
-0.000797921
0.000633476
-0.000950034
0.000731529
-0.00111367
0.000836882
-0.00128602
0.000947008
-0.00146444
-0.0015895
0.00104249
0.000411388
-0.000601684
0.000488543
-0.000735791
0.000573963
-0.000883341
0.000667391
-0.00104346
0.000768413
-0.00121469
0.000876944
-0.00139455
0.000993771
-0.00158126
-0.00174342
0.0011477
0.000436293
0.000516589
-0.000816086
0.000604934
-0.000971686
0.000700915
-0.00113944
0.000803983
-0.00131776
0.000914017
-0.00150459
0.00103108
-0.00169833
-0.00187974
0.0011674
0.000544938
-0.000899212
0.000635746
-0.00106249
0.000733617
-0.00123731
0.000837753
-0.00142189
0.000947557
-0.00161439
0.00106199
-0.00181277
-0.00200431
0.00118657
0.000573298
0.000666065
-0.00115526
0.000765153
-0.0013364
0.000869479
-0.00152622
0.000977953
-0.00172287
0.00108894
-0.00192375
-0.00211973
0.00120435
0.000695581
0.00079523
-0.00143605
0.00089898
-0.00162997
0.00100535
-0.00182924
0.00111239
-0.00203078
-0.00222755
0.00122022
0.000823588
-0.00153563
0.000926089
-0.00173247
0.00102976
-0.00193291
0.00113252
-0.00213354
-0.00232873
0.00123369
0.000849997
0.000950652
-0.00183312
0.00105114
-0.0020334
0.00114939
-0.00223179
-0.00242377
0.00124443
0.000972539
0.00106945
-0.00213031
0.00116303
-0.00232536
-0.002513
0.00125226
0.00108467
0.00117345
-0.00241415
-0.00259664
0.0012571
0.00118072
-0.00249809
-0.00267487
0.00125895
0.0011849
-0.00274788
0.00125791
0.00125409
0.00256933
0.0011497
0.00107412
0.0023344
0.00249739
0.00114606
0.000982834
0.00208094
0.00106326
0.00225397
0.00242116
0.00113948
0.000965226
0.00199448
0.00104937
0.00216983
0.0023406
0.00112993
0.000855615
0.0017271
0.000944713
0.00190538
0.00103244
0.0020821
0.00225564
0.0011174
0.000739953
0.00146312
0.000829933
0.00163712
0.000921327
0.00181399
0.00101247
0.00199096
0.00216613
0.00110198
0.000711145
0.00137626
0.000801804
0.00154646
0.000895101
0.00172069
0.000989488
0.00189657
0.00207179
0.00108383
0.000594486
0.00113116
0.000680507
0.00129024
0.000771306
0.00145566
0.000866049
0.00162595
0.000963479
0.00179914
0.00197204
0.00106323
0.000485049
0.000908156
0.000563517
0.00105269
0.000648166
0.00120559
0.000738504
0.00136532
0.000834134
0.00153032
0.000934347
0.00169893
0.00186581
0.00104057
0.00045549
0.000839004
0.000531528
0.000976652
0.000614248
0.00112287
0.00070344
0.00127613
0.000799224
0.00143453
0.000901822
0.00159633
0.00175126
0.00101637
0.000359338
0.000652005
0.000425471
0.000772872
0.000498671
0.000903452
0.000578888
0.00104266
0.000666134
0.00118888
0.000760984
0.00133968
0.000865144
0.00149217
0.0016254
0.000991004
0.000332258
0.000596138
0.000395125
0.000710004
0.000465113
0.000833464
0.000542259
0.000965512
0.000626639
0.0011045
0.000718787
0.00124754
0.00082125
0.00138971
0.00148172
0.000964928
0.00025267
0.000446479
0.000305189
0.000543618
0.000364591
0.000650602
0.000431048
0.000767007
0.000504618
0.000891942
0.000585273
0.00102385
0.000672999
0.00115981
0.000765842
0.00129686
0.0014011
0.000846468
0.00018643
0.000322531
0.00022914
0.000403769
0.000278227
0.000494531
0.000334013
0.000594817
0.000396702
0.000704317
0.000466344
0.0008223
0.000542753
0.000947439
0.00062531
0.00107725
0.000712426
0.00120975
0.00131845
0.000795069
0.000166367
0.000288746
0.000205852
0.000364285
0.000251458
0.000448925
0.00030353
0.000542745
0.000362298
0.000645549
0.000427824
0.000756774
0.0004999
0.000875363
0.000577866
0.000999287
0.000661204
0.00112641
0.00123662
0.000743036
0.000115732
0.000196118
0.000146592
0.000257886
0.000182859
0.000328017
0.000224964
0.00040682
0.000273271
0.000494438
0.000328037
0.000590783
0.000389361
0.000695449
0.000457112
0.000807613
0.000530793
0.000925605
0.000610346
0.00104686
0.00115582
0.000691154
9.91619e-05
0.000172786
0.000127134
0.000229914
0.00016021
0.000294941
0.000198823
0.000368206
0.000243352
0.00044991
0.000294083
0.000540052
0.000351169
0.000638362
0.000414588
0.000744194
0.000484057
0.000856135
0.000559783
0.000971131
0.00107631
0.000639286
6.21036e-05
0.000106215
8.28964e-05
0.000151993
0.000108028
0.000204782
0.000137954
0.000265015
0.000173107
0.000333054
0.000213876
0.000409141
0.000260579
0.00049335
0.000313429
0.000585512
0.000372522
0.000685102
0.000437819
0.000790838
0.000509764
0.000899186
0.000998664
0.000587412
4.8651e-05
9.15007e-05
6.69624e-05
0.000133682
8.93131e-05
0.000182431
0.000116146
0.000238183
0.00014789
0.000301309
0.000184945
0.000372086
0.000227658
0.000450637
0.000276308
0.000536862
0.000331113
0.000630297
0.000392278
0.000729673
0.00046046
0.000831004
0.000923428
0.000535696
2.2922e-05
4.57606e-05
3.54973e-05
7.89255e-05
5.13919e-05
0.000117787
7.10297e-05
0.000162794
9.48397e-05
0.000214373
0.000123246
0.000272903
0.000156656
0.000338676
0.000195445
0.000411847
0.000239961
0.000492346
0.000290542
0.000579715
0.000347617
0.000672598
0.000412018
0.000766603
0.000851094
0.000484352
1.21706e-05
3.79184e-05
2.26715e-05
6.84246e-05
3.62211e-05
0.000104238
5.32241e-05
0.000145791
7.40948e-05
0.000193502
9.92506e-05
0.000247747
0.000129105
0.000308822
0.000164065
0.000376887
0.00020454
0.000451872
0.000250985
0.000533271
0.000304017
0.000619566
0.000364598
0.000706022
0.000782089
0.000433604
1.70967e-06
3.18399e-05
1.02065e-05
5.99278e-05
2.14902e-05
9.29538e-05
3.59462e-05
0.000131335
5.39734e-05
0.000175475
7.59822e-05
0.000225738
0.000102393
0.000282411
0.000133639
0.000345641
0.000170191
0.00041532
0.000212606
0.000490855
0.000261653
0.00057052
0.000318367
0.000649308
0.000716781
0.000383675
-1.28117e-05
5.75954e-06
-8.43084e-06
2.7459e-05
-1.86217e-06
5.33591e-05
7.24217e-06
8.38495e-05
1.92482e-05
0.000119329
3.45399e-05
0.000160183
5.35205e-05
0.000206758
7.66156e-05
0.000259316
0.000104285
0.000317971
0.000137053
0.000382553
0.000175563
0.000452345
0.000220691
0.000525392
0.00027349
0.000596509
0.000655486
0.000334785
-2.09736e-05
4.66458e-06
-1.82196e-05
2.4705e-05
-1.34972e-05
4.86367e-05
-6.47866e-06
7.68309e-05
3.18353e-06
0.000109666
1.58591e-05
0.000147507
3.1944e-05
0.000190673
5.1869e-05
0.000239391
7.61168e-05
0.000293723
0.000105255
0.000353414
0.000139998
0.000417602
0.00018128
0.00048411
0.000230116
0.000547673
0.000598461
0.000287141
-2.85587e-05
-1.03665e-05
-2.88271e-05
4.93299e-06
-2.76247e-05
2.35027e-05
-2.46612e-05
4.56733e-05