/*--------------------------------*- C++ -*----------------------------------*\
  =========                 |
  \\      /  F ield         | OpenFOAM: The Open Source CFD Toolbox
   \\    /   O peration     | Website:  https://openfoam.org
    \\  /    A nd           | Version:  7
     \\/     M anipulation  |
\*---------------------------------------------------------------------------*/
FoamFile
{
    version     2.0;
    format      ascii;
    class       volVectorField;
    location    "80";
    object      U;
}
// * * * * * * * * * * * * * * * * * * * * * * * * * * * * * * * * * * * * * //

dimensions      [0 1 -1 0 0 0 0];

internalField   nonuniform List<vector> 
7156
(
(-0.00822444 0.118871 1.29904e-22)
(-0.0117916 0.136836 8.68569e-21)
(-0.0158684 0.152034 8.93723e-21)
(-0.0203845 0.164691 2.79654e-22)
(-0.0252629 0.175081 5.04452e-21)
(-0.0304228 0.183513 3.5355e-21)
(-0.0357833 0.190313 -8.67613e-21)
(-0.0412663 0.19581 -5.22772e-21)
(-0.0468003 0.200319 2.50111e-21)
(-0.0523231 0.204127 -2.39681e-21)
(-0.057784 0.207485 -2.79788e-21)
(-0.0631453 0.2106 3.50333e-21)
(-0.0683826 0.213632 -4.40579e-21)
(-0.0734846 0.2167 -6.83028e-21)
(-0.0784518 0.219878 1.24909e-20)
(-0.0832943 0.223202 1.85408e-21)
(-0.0880293 0.226679 4.37507e-21)
(-0.0926788 0.230285 1.21157e-20)
(-0.0972802 0.233971 3.15168e-22)
(-0.101824 0.237661 -1.51895e-21)
(-0.106225 0.241257 1.18155e-20)
(-0.00905357 0.120533 -2.64169e-21)
(-0.0124929 0.13881 1.29684e-20)
(-0.0163706 0.154285 4.14002e-21)
(-0.0206308 0.167179 4.60283e-21)
(-0.0252094 0.177763 -8.19023e-21)
(-0.0300364 0.186342 2.02431e-21)
(-0.0350393 0.193243 2.32068e-20)
(-0.0401468 0.198799 8.62492e-21)
(-0.0452917 0.203326 -1.37488e-20)
(-0.050414 0.207119 -7.57222e-22)
(-0.0554633 0.210435 1.68204e-20)
(-0.0604003 0.213488 1.34014e-21)
(-0.0651972 0.216448 1.24904e-20)
(-0.0698381 0.219437 -1.37145e-20)
(-0.0743176 0.222538 -1.19566e-20)
(-0.0786395 0.225792 -2.47403e-20)
(-0.0828143 0.229209 -3.06302e-21)
(-0.0868576 0.232768 -2.57535e-20)
(-0.090802 0.236421 2.35775e-20)
(-0.0946339 0.240094 7.78716e-21)
(-0.0982515 0.243697 1.12448e-20)
(-0.00992416 0.121953 7.72545e-21)
(-0.01324 0.140524 -1.75452e-20)
(-0.0169196 0.156266 1.17246e-20)
(-0.0209217 0.169395 -3.54909e-21)
(-0.0251943 0.180174 5.17407e-21)
(-0.0296784 0.188905 3.91578e-21)
(-0.0343101 0.195916 -5.11064e-20)
(-0.0390246 0.201537 1.15776e-20)
(-0.0437593 0.206091 1.07973e-20)
(-0.0484565 0.209875 1.07822e-20)
(-0.0530661 0.213152 2.84105e-20)
(-0.0575471 0.216144 4.78778e-21)
(-0.0618685 0.219028 -3.23739e-21)
(-0.0660096 0.221933 2.99487e-20)
(-0.0699591 0.224947 1.74625e-20)
(-0.0737146 0.228117 4.87274e-20)
(-0.0772797 0.231458 -1.19138e-20)
(-0.0806635 0.234952 4.82495e-20)
(-0.0838944 0.238553 -5.87542e-20)
(-0.0869544 0.242192 -1.266e-20)
(-0.0897203 0.245784 8.03272e-21)
(-0.0108298 0.123128 -2.84642e-20)
(-0.0140272 0.141973 1.40077e-20)
(-0.017511 0.157972 -3.46346e-20)
(-0.0212536 0.17133 -8.36782e-21)
(-0.0252157 0.182305 1.91314e-20)
(-0.0293484 0.191194 -3.94957e-20)
(-0.0335966 0.19832 6.20848e-20)
(-0.0379022 0.204014 -8.78747e-21)
(-0.042207 0.2086 -1.20742e-21)
(-0.046456 0.21238 -3.73584e-20)
(-0.0505992 0.215622 -4.12587e-20)
(-0.0545942 0.218554 -4.97958e-21)
(-0.0584066 0.221358 -2.45594e-21)
(-0.0620111 0.224171 -7.71875e-20)
(-0.0653906 0.227088 -6.96742e-20)
(-0.0685362 0.230162 -4.88553e-21)
(-0.0714448 0.23341 2.37495e-20)
(-0.0741192 0.23682 -1.73933e-20)
(-0.0765836 0.240351 -1.67849e-20)
(-0.0788163 0.243935 9.96618e-21)
(-0.0806673 0.2475 2.17726e-20)
(-0.0117641 0.124055 1.48949e-20)
(-0.0148486 0.143154 -4.02602e-20)
(-0.0181398 0.159397 3.42999e-20)
(-0.0216233 0.17298 2.78815e-20)
(-0.0252715 0.18415 -9.38943e-21)
(-0.0290459 0.193199 6.28589e-20)
(-0.0329 0.200445 -6.05304e-20)
(-0.0367823 0.206219 3.73536e-20)
(-0.0406393 0.210843 -4.4525e-20)
(-0.0444183 0.214624 7.37473e-20)
(-0.0480701 0.217832 2.8255e-21)
(-0.0515507 0.220702 -3.59046e-20)
(-0.0548226 0.223423 -1.36505e-21)
(-0.0578557 0.226138 8.3735e-20)
(-0.0606274 0.228947 9.99233e-20)
(-0.0631222 0.23191 -5.36758e-20)
(-0.0653306 0.235049 -7.33679e-20)
(-0.067249 0.238356 5.45099e-20)
(-0.068898 0.241796 -6.80953e-21)
(-0.0702528 0.245307 1.38498e-20)
(-0.0711315 0.248829 1.59899e-20)
(-0.0127206 0.124735 8.89264e-21)
(-0.0156987 0.144065 6.23448e-20)
(-0.0188014 0.160538 -4.14477e-20)
(-0.0220272 0.174337 -6.31602e-20)
(-0.0253597 0.185701 -2.16816e-20)
(-0.0287705 0.194912 -1.656e-20)
(-0.0322215 0.202283 -3.45501e-20)
(-0.0356678 0.20814 -4.64428e-21)
(-0.0390605 0.212808 -8.6049e-22)
(-0.0423498 0.216593 -1.77059e-20)
(-0.0454869 0.21977 1.80441e-20)
(-0.0484265 0.222578 -9.01408e-21)
(-0.0511282 0.225211 6.42839e-20)
(-0.0535574 0.22782 5.03921e-20)
(-0.0556858 0.23051 -9.35504e-21)
(-0.0574918 0.233347 4.25259e-20)
(-0.0589595 0.23636 6.27494e-20)
(-0.0600791 0.239545 1.81044e-21)
(-0.060868 0.242873 8.58061e-20)
(-0.0612996 0.246293 -5.65684e-20)
(-0.0611545 0.249755 -8.55259e-20)
(-0.013693 0.125168 -2.34625e-21)
(-0.0165715 0.144705 -2.4979e-20)
(-0.0194911 0.161392 -7.12721e-21)
(-0.0224618 0.175399 9.39395e-20)
(-0.0254784 0.186952 5.35984e-20)
(-0.0285219 0.196325 -6.04917e-21)
(-0.0315625 0.203823 9.3141e-20)
(-0.0345617 0.209769 1.23558e-20)
(-0.0374756 0.214485 1.597e-20)
(-0.040257 0.218277 -9.66856e-20)
(-0.0428579 0.221424 -5.99554e-20)
(-0.045232 0.224168 -1.47518e-20)
(-0.047336 0.226709 -1.02659e-19)
(-0.0491311 0.229204 -2.83747e-20)
(-0.0505835 0.231764 -5.80566e-20)
(-0.0516655 0.23446 1.24145e-19)
(-0.0523552 0.237329 -4.3644e-20)
(-0.0526369 0.240373 -1.63058e-20)
(-0.0525251 0.24357 -1.01685e-19)
(-0.0519941 0.246879 6.98202e-20)
(-0.05078 0.250267 3.60717e-20)
(-0.0146752 0.125356 -4.16705e-20)
(-0.0174615 0.145074 1.49776e-20)
(-0.0202041 0.161958 1.67257e-20)
(-0.0229239 0.176162 -8.63715e-20)
(-0.0256257 0.187899 -1.74747e-20)
(-0.0282998 0.197433 6.60213e-20)
(-0.0309244 0.20506 -1.18531e-19)
(-0.0334674 0.211097 -5.15422e-20)
(-0.0358897 0.215863 1.36859e-20)
(-0.0381468 0.219665 1.02739e-19)
(-0.0401921 0.222782 -1.98111e-20)
(-0.0419782 0.225461 5.22784e-20)
(-0.0434592 0.227905 1.0162e-19)
(-0.0445923 0.230278 -5.51982e-20)
(-0.0453386 0.232696 -9.54725e-20)
(-0.0456646 0.235237 2.13237e-21)
(-0.0455425 0.237944 8.00211e-20)
(-0.0449508 0.240828 1.80449e-20)
(-0.0439022 0.243875 -7.57247e-21)
(-0.0423749 0.247055 -9.44551e-20)
(-0.040054 0.250357 -3.71122e-20)
(-0.0156613 0.125301 -5.63639e-20)
(-0.0183634 0.145175 -6.13184e-20)
(-0.020936 0.162237 -3.81923e-20)
(-0.02341 0.176625 2.96142e-20)
(-0.0257997 0.188539 1.35118e-20)
(-0.0281041 0.19823 -7.37026e-21)
(-0.0303087 0.205985 2.66336e-20)
(-0.0323882 0.212115 9.17296e-20)
(-0.0343079 0.216934 -3.41007e-20)
(-0.0360267 0.220747 6.10224e-20)
(-0.0374988 0.223835 3.82313e-20)
(-0.0386765 0.226446 3.09817e-20)
(-0.0395116 0.228789 7.57275e-20)
(-0.0399575 0.231031 -7.19559e-20)
(-0.0399704 0.233295 1.5269e-19)
(-0.0395112 0.235667 -1.13382e-19)
(-0.0385468 0.238196 6.17593e-20)
(-0.0370504 0.240901 -7.3867e-20)
(-0.0350328 0.243777 7.65766e-20)
(-0.032478 0.246808 -5.47917e-21)
(-0.0290226 0.250027 4.81607e-20)
(-0.0166457 0.125008 4.98194e-20)
(-0.0192719 0.14501 7.62365e-20)
(-0.0216824 0.162228 6.06841e-20)
(-0.0239171 0.176786 6.19036e-20)
(-0.0259988 0.188867 1.10579e-20)
(-0.0279345 0.198711 6.23802e-20)
(-0.0297173 0.206594 3.34436e-21)
(-0.0313277 0.212817 -1.13995e-19)
(-0.0327359 0.21769 2.56755e-20)
(-0.033904 0.221515 -8.57182e-20)
(-0.0347877 0.224573 1.87002e-20)
(-0.0353389 0.227114 -7.34056e-20)
(-0.0355074 0.22935 -1.19962e-19)
(-0.0352433 0.231453 -7.77956e-20)
(-0.0344982 0.233553 -5.28702e-20)
(-0.033228 0.235741 -5.00024e-20)
(-0.0313943 0.238074 -6.39378e-20)
(-0.0289658 0.240581 -9.27963e-21)
(-0.0259525 0.243268 -2.19941e-21)
(-0.0223382 0.246133 7.03586e-20)
(-0.0177244 0.249258 1.87472e-20)
(-0.017623 0.124483 -2.01011e-20)
(-0.0201819 0.144582 1.09504e-19)
(-0.0224391 0.161934 -8.28749e-20)
(-0.024442 0.176646 -6.96749e-20)
(-0.0262212 0.188884 9.4904e-21)
(-0.0277911 0.198874 -7.52639e-20)
(-0.0291517 0.20688 5.71741e-20)
(-0.0302893 0.213195 -3.1031e-20)
(-0.0311792 0.218123 -7.38235e-20)
(-0.0317864 0.22196 4.43441e-20)
(-0.0320684 0.224987 -6.27825e-20)
(-0.0319772 0.227455 -1.09374e-19)
(-0.031461 0.229579 1.47869e-19)
(-0.0304668 0.231536 1.90445e-19)
(-0.0289421 0.23346 -3.69295e-20)
(-0.0268379 0.235449 9.26512e-20)
(-0.0241114 0.23757 4.46585e-20)
(-0.0207269 0.239861 -3.75386e-20)
(-0.0166945 0.24234 -5.90623e-20)
(-0.0119994 0.245025 -1.08944e-19)
(-0.00620557 0.248036 -3.33766e-20)
(-0.0185883 0.12373 2.89747e-20)
(-0.0210889 0.143898 -7.64538e-20)
(-0.0232022 0.16136 1.2434e-19)
(-0.024982 0.176207 -1.28386e-20)
(-0.0264655 0.188589 3.59132e-20)
(-0.027674 0.198716 3.74003e-20)
(-0.0286137 0.206841 3.65197e-20)
(-0.0292769 0.213246 1.36925e-19)
(-0.0296433 0.218226 1.54947e-20)
(-0.0296815 0.222075 9.57249e-20)
(-0.029351 0.22507 7.3865e-20)
(-0.0286038 0.227462 2.06457e-19)
(-0.0273871 0.229469 -8.67351e-20)
(-0.0256452 0.231271 2.40166e-20)
(-0.0233219 0.233008 -3.98125e-20)
(-0.0203641 0.234786 -1.80975e-19)
(-0.0167243 0.236678 1.00984e-19)
(-0.0123635 0.238734 1.29017e-19)
(-0.0072926 0.240988 1.0661e-20)
(-0.00150175 0.243476 1.09991e-19)
(0.00548679 0.246365 4.98381e-20)
(-0.0195371 0.122759 -5.14165e-20)
(-0.0219885 0.142962 -8.75108e-20)
(-0.023968 0.16051 -2.27371e-21)
(-0.0255343 0.175472 2.80245e-20)
(-0.0267303 0.187983 -8.54516e-20)
(-0.0275831 0.198238 1.06262e-19)
(-0.0281051 0.206474 -2.2064e-20)
(-0.0282939 0.212965 1.73208e-20)
(-0.0281338 0.217995 1.24774e-19)
(-0.027597 0.221853 -3.74921e-21)
(-0.026645 0.224814 1.23332e-20)
(-0.0252306 0.227127 -6.46063e-20)
(-0.0233001 0.229012 -1.44148e-19)
(-0.0207955 0.230651 -1.42582e-19)
(-0.0176576 0.232192 9.71855e-20)
(-0.0138292 0.233744 1.06648e-19)
(-0.00925916 0.235392 -1.20078e-19)
(-0.00390527 0.237196 -9.99979e-20)
(0.00221985 0.239206 2.41375e-19)
(0.00911757 0.241483 1.17357e-20)
(0.0173088 0.244246 -4.75538e-21)
(-0.022877 0.141784 7.4352e-20)
(-0.0247333 0.15939 -5.77699e-20)
(-0.0260965 0.174445 -1.81501e-19)
(-0.0270142 0.187069 1.38449e-19)
(-0.0275187 0.197438 -2.45449e-19)
(-0.0276276 0.205778 -6.47695e-20)
(-0.0273439 0.212348 -2.1792e-19)
(-0.0266562 0.217425 2.47214e-20)
(-0.0255404 0.22129 -4.27093e-20)
(-0.0239602 0.224214 2.74465e-20)
(-0.0218695 0.226445 -9.78235e-20)
(-0.0192142 0.228202 1.83189e-19)
(-0.0159346 0.229672 3.77765e-20)
(-0.0119685 0.231005 -1.27483e-19)
(-0.0072555 0.232319 9.66689e-20)
(-0.00174117 0.233707 2.37094e-19)
(0.00461929 0.235243 8.33436e-20)
(0.0118109 0.236992 -1.60667e-19)
(0.0198231 0.239044 2.04172e-20)
(0.0292199 0.241679 8.47819e-20)
(-0.0237512 0.140372 -4.60213e-20)
(-0.0254953 0.158007 1.47698e-19)
(-0.0266666 0.173133 2.52306e-19)
(-0.0273161 0.18585 -1.54465e-19)
(-0.0274808 0.196319 2.5976e-19)
(-0.0271828 0.204752 1.09162e-19)
(-0.02643 0.211394 2.34907e-19)
(-0.0252155 0.216513 -4.48462e-20)
(-0.0235186 0.220381 -1.54375e-19)
(-0.0213057 0.223264 -1.58795e-19)
(-0.018532 0.225409 6.2678e-20)
(-0.0151432 0.227033 -5.96821e-21)
(-0.0110785 0.228326 1.47402e-19)
(-0.00627334 0.229443 1.75747e-19)
(-0.000664403 0.230507 -2.41991e-19)
(0.00580555 0.231621 -3.98685e-19)
(0.0131832 0.232872 -1.34255e-19)
(0.0214505 0.234344 1.79471e-19)
(0.0305818 0.236157 -1.8689e-19)
(0.0411828 0.238664 -9.43007e-20)
(-0.0246082 0.138734 1.7323e-19)
(-0.0262514 0.15637 -4.49252e-20)
(-0.0272425 0.171541 2.83572e-20)
(-0.027635 0.184331 1.37877e-20)
(-0.0274693 0.194885 -4.87001e-20)
(-0.0267721 0.203397 -1.03729e-19)
(-0.0255553 0.210102 -2.60245e-19)
(-0.0238164 0.215256 -4.6555e-20)
(-0.0215383 0.219123 -4.15074e-20)
(-0.0186902 0.221962 5.794e-20)
(-0.0152286 0.224015 -4.1616e-20)
(-0.0111 0.225502 -5.77739e-20)
(-0.00624247 0.226612 -1.96024e-19)
(-0.00058973 0.227502 -2.75227e-19)
(0.0059241 0.228305 4.0919e-19)
(0.0133585 0.229131 1.53322e-20)
(0.0217616 0.230081 4.16332e-21)
(0.0311113 0.231261 -1.89803e-19)
(0.0413641 0.232823 6.07422e-20)
(0.0531647 0.235204 1.52246e-19)
(-0.0254454 0.136883 -2.31649e-19)
(-0.0269994 0.154489 -1.78443e-19)
(-0.0278224 0.169678 -1.65867e-19)
(-0.0279696 0.182518 -1.58173e-19)
(-0.0274844 0.193138 1.05514e-19)
(-0.0263966 0.201716 -9.00641e-20)
(-0.0247225 0.208474 8.61156e-20)
(-0.0224633 0.213654 -1.66145e-20)
(-0.0196056 0.217513 8.76017e-20)
(-0.0161214 0.220303 5.52658e-20)
(-0.0119694 0.222262 3.50194e-20)
(-0.00709648 0.223606 1.73497e-19)
(-0.00144054 0.224525 1.42062e-19)
(0.0050662 0.225182 -6.2168e-20)
(0.0124917 0.225712 -4.00908e-19)
(0.0208974 0.226237 2.39305e-19)
(0.030332 0.226871 9.31498e-20)
(0.0407693 0.227743 3.34095e-20)
(0.0521445 0.229042 1.35745e-19)
(0.0651377 0.231301 -7.97049e-21)
(-0.0262608 0.13483 2.45099e-19)
(-0.027737 0.152374 1.34413e-19)
(-0.0284046 0.167553 -1.0212e-19)
(-0.028319 0.18042 9.96354e-20)
(-0.0275255 0.191084 -8.92764e-20)
(-0.0260571 0.199712 -3.29617e-20)
(-0.0239334 0.206509 1.91642e-19)
(-0.0211595 0.211708 1.81983e-19)
(-0.0177254 0.215552 1.19266e-19)
(-0.0136063 0.218286 -1.21296e-19)
(-0.00876284 0.220145 1.1499e-19)
(-0.00314316 0.221341 -3.76172e-19)
(0.00331492 0.222065 7.67058e-20)
(0.0106802 0.222479 -2.28188e-20)
(0.0190224 0.222728 1.4806e-19)
(0.0284043 0.222938 -1.85219e-19)
(0.0388754 0.223243 -1.41188e-19)
(0.0504042 0.223793 4.95631e-20)
(0.0629023 0.224818 -1.17717e-19)
(0.0770803 0.226958 -1.39418e-19)
(-0.0270526 0.132587 -1.45839e-19)
(-0.0284628 0.150037 1.23182e-19)
(-0.0289875 0.165177 1.3125e-19)
(-0.028682 0.178043 -1.82039e-20)
(-0.0275924 0.188731 -9.35419e-20)
(-0.025754 0.197391 6.40527e-20)
(-0.0231896 0.204213 -5.08966e-20)
(-0.0199077 0.209418 2.28453e-20)
(-0.0159019 0.213238 -1.34588e-19)
(-0.0111504 0.215912 1.05774e-19)
(-0.00561615 0.217665 3.172e-20)
(0.000751207 0.218709 1.58267e-19)
(0.00801354 0.21923 -2.36809e-19)
(0.0162403 0.219395 4.57129e-19)
(0.0255027 0.219352 1.98801e-19)
(0.035865 0.219237 6.87619e-21)
(0.0473764 0.219198 1.51484e-19)
(0.0600006 0.219412 -5.19381e-20)
(0.0736225 0.220153 2.59295e-19)
(0.0889777 0.22218 2.17023e-19)
(-0.0278199 0.130169 2.95429e-19)
(-0.0291751 0.14749 -3.43687e-20)
(-0.0295698 0.16256 8.50379e-20)
(-0.0290573 0.175399 1.52233e-19)
(-0.0276841 0.186087 2.44566e-20)
(-0.0254871 0.194758 1.25748e-20)
(-0.0224917 0.201589 -1.06078e-19)
(-0.0187097 0.206787 5.95326e-21)
(-0.0141379 0.210575 4.37238e-20)
(-0.00875766 0.21318 -9.32744e-21)
(-0.00253463 0.214822 1.764e-19)
(0.00458002 0.215707 -1.53893e-19)
(0.0126475 0.216022 2.41728e-19)
(0.0217376 0.215931 -6.24037e-20)
(0.0319229 0.215587 -4.48706e-19)
(0.0432687 0.215136 9.33086e-22)
(0.0558246 0.21474 -2.33275e-19)
(0.0695486 0.214604 -1.36694e-19)
(0.0842969 0.21505 -2.39863e-19)
(0.100824 0.216971 -2.43932e-19)
(-0.0298733 0.144748 -4.21585e-20)
(-0.0301503 0.159716 -1.87093e-20)
(-0.0294437 0.172498 -3.78111e-20)
(-0.0277995 0.18316 3.62954e-20)
(-0.0252556 0.191821 4.06812e-20)
(-0.0218394 0.198644 -6.10606e-20)
(-0.0175657 0.203821 -2.32179e-19)
(-0.0124345 0.207566 2.47923e-20)
(-0.00643029 0.210094 -8.38842e-20)
(0.000478663 0.211618 -1.63164e-19)
(0.00833929 0.21234 7.90171e-20)
(0.0172119 0.212441 -4.26627e-20)
(0.0271666 0.212089 -7.09237e-20)
(0.038277 0.211437 3.99864e-19)
(0.0506099 0.210638 9.91276e-20)
(0.0642149 0.209873 6.70068e-20)
(0.0790449 0.209373 -1.64519e-19)
(0.0949252 0.209513 6.76459e-20)
(0.112623 0.211337 1.51729e-19)
(-0.0305565 0.141824 -1.27638e-19)
(-0.0307277 0.156658 -1.33242e-19)
(-0.0298396 0.169353 -1.58694e-19)
(-0.0279368 0.179962 1.66029e-19)
(-0.0250576 0.188589 -6.71449e-20)
(-0.0212311 0.195384 1.47789e-19)
(-0.0164746 0.200525 1.4564e-19)
(-0.0107911 0.204213 2.71669e-20)
(-0.00416813 0.206656 2.98229e-19)
(0.00342331 0.208056 -1.03499e-19)
(0.0120281 0.208609 -7.65126e-20)
(0.0217056 0.208493 7.33064e-20)
(0.0325261 0.207873 -9.72221e-20)
(0.0445642 0.206905 -2.79896e-19)
(0.0578884 0.205751 1.52482e-19)
(0.0725491 0.204604 1.85234e-19)
(0.088494 0.203726 1.59241e-19)
(0.105516 0.203548 -4.9079e-20)
(0.124389 0.205283 -1.6384e-19)
(-0.0312244 0.138734 -1.00821e-19)
(-0.0313009 0.1534 9.46346e-20)
(-0.0302432 0.165976 -6.84294e-20)
(-0.0280937 0.176504 7.47216e-20)
(-0.0248906 0.185072 1.55347e-19)
(-0.0206641 0.191818 -1.72189e-19)
(-0.0154336 0.196906 -4.35383e-19)
(-0.00920489 0.200525 -2.69763e-19)
(-0.00196843 0.202871 -3.4628e-19)
(0.00630205 0.20414 1.63171e-19)
(0.0156494 0.204518 4.08214e-20)
(0.0261319 0.204181 -1.25279e-19)
(0.0378198 0.203289 -1.12275e-19)
(0.0507894 0.202 -3.71307e-20)
(0.065111 0.200481 1.56388e-19)
(0.0808365 0.19894 -1.78396e-19)
(0.0979096 0.19767 2.3387e-19)
(0.116089 0.197163 5.78769e-20)
(0.13615 0.198815 -4.12495e-20)
(-0.0318766 0.135491 -1.13657e-19)
(-0.0318684 0.149956 2.1136e-19)
(-0.0306521 0.162383 -1.70722e-20)
(-0.0282671 0.172798 -7.48505e-20)
(-0.0247507 0.181282 -2.73667e-19)
(-0.0201339 0.187956 -7.53374e-20)
(-0.0144377 0.192973 2.51172e-19)
(-0.00767045 0.196508 2.69148e-19)
(0.00017466 0.198748 1.22023e-19)
(0.00912131 0.199877 -1.00939e-19)
(0.0192103 0.200076 5.01052e-20)
(0.0304989 0.199512 8.73595e-20)
(0.0430576 0.198344 -2.03609e-19)
(0.0569643 0.196729 3.2866e-20)
(0.0722924 0.194837 7.09106e-20)
(0.0890958 0.192891 -1.96014e-19)
(0.107316 0.191215 -3.51802e-20)
(0.126676 0.190365 -4.92541e-19)
(0.147948 0.191943 7.71276e-20)
(-0.0324286 0.146343 -9.61154e-21)
(-0.0310634 0.158586 -2.47195e-21)
(-0.0284528 0.16886 -7.90798e-20)
(-0.0246327 0.177232 6.36511e-20)
(-0.0196342 0.18381 2.64604e-19)
(-0.0134796 0.188735 3.33843e-20)
(-0.00617949 0.192172 -1.95154e-19)
(0.00227057 0.194293 -3.3963e-19)
(0.0118918 0.195275 3.33236e-19)
(0.0227232 0.195289 1.72725e-20)
(0.0348209 0.194495 -6.26835e-20)
(0.0482561 0.193049 1.5573e-20)
(0.063109 0.191104 4.67716e-20)
(0.0794564 0.188833 1.86885e-19)
(0.0973561 0.186472 -3.3933e-19)
(0.116748 0.184374 2.45092e-19)
(0.137321 0.183167 2.11074e-20)
(0.159842 0.184677 3.6673e-19)
(-0.0329795 0.142577 -7.09672e-20)
(-0.0314734 0.154603 -1.2906e-19)
(-0.0286456 0.164703 2.09875e-19)
(-0.0245297 0.172934 -4.88341e-20)
(-0.0191565 0.179392 1.74917e-19)
(-0.0125493 0.184206 1.61285e-19)
(-0.00472027 0.187526 -1.68718e-19)
(0.00433286 0.189517 2.3258e-19)
(0.0146292 0.190343 -9.11641e-20)
(0.026206 0.190167 -2.60533e-19)
(0.039119 0.189141 1.37125e-20)
(0.0534401 0.187415 1.05638e-19)
(0.0692525 0.185137 1.63042e-20)
(0.0866377 0.182483 -2.56632e-19)
(0.105659 0.179697 2.17836e-19)
(0.126258 0.177164 2.71038e-19)
(0.148085 0.175581 9.93318e-20)
(0.171909 0.177028 -2.53877e-19)
(-0.0335184 0.138673 4.85267e-20)
(-0.0318776 0.150449 8.48476e-20)
(-0.0288387 0.160344 -1.28118e-19)
(-0.0244329 0.168405 -1.21077e-19)
(-0.01869 0.174717 -3.04222e-19)
(-0.0116336 0.179397 2.25697e-19)
(-0.00327722 0.182585 3.39883e-20)
(0.00637977 0.184433 -2.51779e-20)
(0.0173547 0.185095 1.41165e-20)
(0.0296837 0.184723 2.72056e-19)
(0.0434222 0.183463 -3.81824e-20)
(0.0586437 0.181456 2.0824e-20)
(0.0754349 0.178846 -9.66268e-20)
(0.0938833 0.175806 -7.65157e-20)
(0.11406 0.172588 8.53867e-20)
(0.13591 0.169606 -7.79109e-19)
(0.159047 0.167629 1.03713e-19)
(0.184246 0.169014 7.23366e-20)
(-0.0340421 0.134649 -6.6729e-20)
(-0.0322702 0.146142 9.41391e-20)
(-0.029024 0.1558 1.62235e-19)
(-0.0243314 0.163661 2.50531e-19)
(-0.0182208 0.1698 5.21542e-20)
(-0.0107158 0.174325 -1.59035e-19)
(-0.00183037 0.177362 3.52283e-19)
(0.00843487 0.179053 3.27867e-20)
(0.0200961 0.179543 4.20329e-20)
(0.0331887 0.178972 -9.03784e-20)
(0.0477686 0.177477 7.19158e-20)
(0.0639112 0.17519 -1.38375e-19)
(0.0817081 0.17225 1.8022e-19)
(0.101254 0.168824 -7.15473e-20)
(0.122629 0.165169 1.93847e-19)
(0.145786 0.161725 3.95149e-19)
(0.170302 0.159334 2.52751e-19)
(0.196969 0.160658 -2.89409e-19)
(-0.0326441 0.141699 1.20686e-19)
(-0.0291911 0.151087 -3.48244e-19)
(-0.0242116 0.158718 6.97105e-20)
(-0.0177321 0.164659 2.25829e-19)
(-0.00977513 0.169005 3.08969e-20)
(-0.000354849 0.171874 -2.28614e-20)
(0.0105277 0.173396 -1.54475e-19)
(0.0228881 0.173704 8.53415e-21)
(0.0367619 0.17293 -2.93489e-21)
(0.052206 0.171201 -2.49426e-19)
(0.0692988 0.168638 -1.81304e-19)
(0.0881375 0.165372 -8.02541e-21)
(0.108825 0.161565 3.38431e-20)
(0.131455 0.157472 -5.21731e-19)
(0.15599 0.153556 2.10202e-20)
(0.181966 0.150728 -1.58311e-19)
(0.210219 0.151989 4.64743e-19)
(-0.0329904 0.137137 -2.35388e-20)
(-0.0293277 0.146224 -1.86282e-19)
(-0.0240574 0.153596 -5.11376e-19)
(-0.0172032 0.159311 -1.67828e-19)
(-0.0087864 0.163456 3.26384e-19)
(0.00117969 0.166139 1.57335e-20)
(0.0126943 0.167478 2.12012e-19)
(0.0257735 0.167598 -1.76052e-19)
(0.0404535 0.166618 -4.70905e-20)
(0.0567933 0.164656 -2.64841e-20)
(0.0748754 0.161825 2.39904e-19)
(0.0948033 0.158242 -6.34757e-20)
(0.116691 0.15406 1.76154e-19)
(0.140643 0.149533 9.44357e-20)
(0.166641 0.145139 2.64917e-19)
(0.194177 0.141853 -4.88596e-19)
(0.224157 0.143044 -1.59195e-19)
(-0.0332986 0.132474 5.82065e-20)
(-0.0294189 0.14123 4.19993e-19)
(-0.0238491 0.148313 1.10125e-19)
(-0.0166096 0.153776 1.98738e-19)
(-0.00771951 0.157698 -2.22728e-19)
(0.00280955 0.160177 -1.15088e-19)
(0.0149781 0.161321 3.84082e-20)
(0.0288035 0.161245 -1.96263e-19)
(0.044324 0.160059 1.17697e-19)
(0.0616015 0.157869 2.43171e-19)
(0.0807235 0.154777 6.60084e-20)
(0.101801 0.15089 6.67112e-20)
(0.12496 0.146348 3.41626e-19)
(0.150321 0.141397 1.46212e-19)
(0.177882 0.136524 -5.62424e-19)
(0.207092 0.132758 1.35624e-19)
(0.238966 0.133873 -1.48463e-19)
(-0.0335558 0.12773 -1.22067e-19)
(-0.0294471 0.136124 2.51026e-20)
(-0.0235638 0.14289 6.3678e-22)
(-0.0159225 0.148076 -2.55651e-19)
(-0.006539 0.151753 8.93586e-20)
(0.00457756 0.15401 -3.56434e-20)
(0.0174301 0.154948 5.83619e-20)
(0.0320386 0.15467 8.54135e-20)
(0.0484444 0.153278 -1.27724e-19)
(0.0667138 0.150867 -2.73079e-19)
(0.0869402 0.147527 -8.06647e-20)
(0.109244 0.143353 1.42648e-19)
(0.133761 0.138472 1.46705e-19)
(0.160631 0.133114 -2.42518e-19)
(0.189875 0.12777 4.07635e-19)
(0.220887 0.123508 -1.6717e-20)
(0.254846 0.124538 1.16494e-19)
(-0.0293914 0.130926 -1.14358e-19)
(-0.0231747 0.137348 -2.63629e-19)
(-0.0151082 0.142233 7.37019e-20)
(-0.00520367 0.145644 -2.80106e-19)
(0.00653342 0.147664 -5.15093e-21)
(0.0201097 0.148384 -6.76585e-20)
(0.0355491 0.147901 2.23091e-19)
(0.0528975 0.146305 2.21193e-19)
(0.0722266 0.143682 -8.79196e-20)
(0.0936371 0.140112 2.40899e-19)
(0.117258 0.135675 2.31841e-19)
(0.143241 0.130481 -3.45679e-19)
(0.171738 0.124743 -1.0165e-19)
(0.2028 0.118946 -1.42447e-19)
(0.235755 0.114176 1.91948e-19)
(0.272013 0.115115 6.46325e-20)
(-0.0292281 0.125656 -1.33697e-19)
(-0.0226508 0.13171 4.14244e-19)
(-0.0141281 0.136269 -1.66962e-19)
(-0.00366628 0.139395 2.20778e-19)
(0.00873409 0.141163 2.2355e-19)
(0.0230848 0.141658 -6.15223e-20)
(0.0394151 0.140966 -6.81855e-20)
(0.057777 0.139172 -1.2975e-19)
(0.0782491 0.136351 2.53016e-19)
(0.10094 0.132571 -4.00053e-19)
(0.12599 0.1279 1.96856e-19)
(0.15356 0.122429 5.79446e-20)
(0.183821 0.11635 -4.86673e-20)
(0.216852 0.110132 9.02177e-20)
(0.251902 0.104851 -2.7723e-19)
(0.29069 0.105697 1.09734e-19)
(-0.0289294 0.120335 -1.25814e-19)
(-0.0219571 0.125996 -3.87755e-20)
(-0.0129383 0.13021 1.86174e-19)
(-0.00187329 0.133034 -1.01942e-19)
(0.0112439 0.134538 -1.51859e-19)
(0.0264318 0.1348 1.18109e-19)
(0.0437267 0.1339 -3.92929e-19)
(0.0631882 0.131915 3.26566e-19)
(0.0849032 0.128912 3.22741e-19)
(0.108989 0.124948 4.04447e-20)
(0.135596 0.12008 -5.62181e-19)
(0.164897 0.114378 -5.2791e-19)
(0.197075 0.108007 6.7643e-20)
(0.232238 0.101414 -2.7078e-19)
(0.26954 0.0956321 -9.39362e-20)
(0.311099 0.0963902 -7.8978e-20)
(-0.0210535 0.120231 -8.47089e-20)
(-0.0114896 0.124081 1.95404e-19)
(0.000235163 0.126588 2.80139e-19)
(0.0141347 0.127817 -1.45218e-19)
(0.0302358 0.127842 -2.35432e-19)
(0.0485837 0.126737 -1.58579e-19)
(0.0692469 0.124573 -2.49548e-19)
(0.092322 0.121408 -1.31674e-19)
(0.117936 0.117293 3.00052e-19)
(0.146247 0.112269 2.91744e-19)
(0.177438 0.106391 3.55e-19)
(0.211699 0.0997917 3.06467e-19)
(0.249171 0.0928875 1.10699e-19)
(0.288881 0.0866297 4.63288e-19)
(0.333452 0.0873182 -8.18113e-20)
(-0.019896 0.114438 1.33626e-19)
(-0.00972743 0.117909 -2.35067e-19)
(0.0027252 0.120086 -3.58863e-19)
(0.0174854 0.121034 7.9571e-20)
(0.03459 0.120821 -8.14665e-20)
(0.0540946 0.119517 5.25647e-19)
(0.0760785 0.117188 -1.12348e-19)
(0.100648 0.113887 1.34142e-20)
(0.127941 0.109656 5.03108e-19)
(0.158121 0.104528 2.18606e-19)
(0.191377 0.0985362 -6.3546e-20)
(0.227899 0.0917847 2.01095e-19)
(0.267858 0.0846527 4.31097e-19)
(0.310125 0.0779623 -1.89798e-19)
(0.35794 0.0786173 9.39517e-21)
(-0.0184356 0.10864 -2.57871e-20)
(-0.00759191 0.11172 -2.00165e-19)
(0.00566892 0.11356 1.87254e-19)
(0.0213816 0.114221 -8.51093e-20)
(0.0395947 0.113772 7.7129e-20)
(0.0603758 0.11228 3.19909e-20)
(0.083816 0.109804 1.28013e-19)
(0.110033 0.106396 1.35189e-19)
(0.13917 0.102093 -8.24279e-19)
(0.1714 0.0969154 -1.48937e-19)
(0.206907 0.0908843 -4.33606e-19)
(0.245876 0.0840694 -3.41433e-20)
(0.288499 0.0768116 -3.41557e-19)
(0.333456 0.0697525 -3.20356e-19)
(0.384719 0.0704343 9.72914e-20)
(-0.00501847 0.105542 8.08713e-20)
(0.00914379 0.107039 2.11549e-19)
(0.0259148 0.107415 -4.24319e-19)
(0.0453563 0.106736 2.20904e-19)
(0.0675495 0.105068 -2.22831e-19)
(0.0925978 0.102469 -4.07164e-19)
(0.120629 0.0989885 1.48778e-19)
(0.151794 0.0946588 3.84651e-19)
(0.186264 0.089496 2.21292e-19)
(0.224218 0.0835065 -8.23346e-20)
(0.265817 0.0767285 -3.45844e-19)
(0.311272 0.0694657 -6.10656e-20)
(0.359027 0.0621237 2.80878e-19)
(0.413899 0.0629227 -2.21471e-19)
(-0.00193804 0.0994024 1.09964e-19)
(0.0132318 0.100556 1.19385e-19)
(0.031181 0.10065 2.14138e-19)
(0.051986 0.0997517 -3.02468e-19)
(0.075742 0.0979258 1.34754e-19)
(0.102565 0.0952314 4.50006e-20)
(0.132592 0.0917165 -1.81967e-19)
(0.165977 0.0874128 2.15174e-19)
(0.202887 0.0823329 -4.3531e-19)
(0.243483 0.0764733 7.25488e-19)
(0.28789 0.0698422 -1.46949e-19)
(0.336323 0.0627119 4.4748e-19)
(0.386953 0.055195 -2.1425e-19)
(0.44553 0.0562381 4.85915e-19)
(0.0180187 0.0941424 -1.95874e-19)
(0.0372798 0.0939636 4.1858e-19)
(0.0595973 0.0928603 -2.65314e-19)
(0.0850808 0.0908992 -1.93012e-20)
(0.113858 0.0881407 2.9082e-19)
(0.146073 0.0846343 2.70702e-19)
(0.181879 0.080413 -2.81628e-19)
(0.22143 0.075489 1.8743e-20)
(0.264857 0.0698527 -5.78658e-19)
(0.312235 0.0634864 3.40879e-19)
(0.363764 0.0566396 -3.01418e-19)
(0.417306 0.0490771 3.60193e-19)
(0.479596 0.0505335 -2.39917e-19)
(0.0235924 0.0878298 -1.89021e-20)
(0.0443122 0.0873914 -1.889e-19)
(0.0683041 0.0861028 1.14249e-19)
(0.0956918 0.0840334 5.31322e-21)
(0.126613 0.0812467 -2.58898e-19)
(0.161215 0.0777956 -6.93607e-19)
(0.199644 0.0737167 -2.83182e-19)
(0.242031 0.0690249 9.2474e-20)
(0.288467 0.063709 3.10858e-19)
(0.338955 0.0577298 2.78299e-19)
(0.393657 0.0513275 -1.27295e-19)
(0.450105 0.0438686 -5.56739e-19)
(0.516005 0.045955 -9.494e-20)
(0.0523791 0.0809695 -1.18336e-19)
(0.0782183 0.0795196 1.16596e-19)
(0.107696 0.0773733 1.72464e-19)
(0.140957 0.0745984 2.09489e-19)
(0.178147 0.0712529 4.88815e-19)
(0.219397 0.0673789 7.89196e-19)
(0.264805 0.0629974 -2.8935e-19)
(0.314406 0.0580999 -6.85591e-20)
(0.368114 0.0526324 -1.42429e-19)
(0.426017 0.0468402 4.72764e-19)
(0.48532 0.0396539 2.64735e-19)
(0.554587 0.042639 4.7444e-19)
(0.0615785 0.0747324 3.79166e-19)
(0.0894467 0.0731503 -5.0112e-19)
(0.121206 0.0709627 2.56704e-19)
(0.157004 0.0682432 -1.85652e-19)
(0.196979 0.0650559 2.49548e-19)
(0.241237 0.0614508 -4.38181e-20)
(0.289833 0.0574576 -1.15911e-19)
(0.342727 0.0530748 -6.57518e-20)
(0.399726 0.0482429 2.4483e-19)
(0.460802 0.0432249 -2.99943e-19)
(0.522874 0.0365016 -1.1598e-19)
(0.595092 0.0407086 -4.45607e-19)
(0.0720042 0.0687135 4.17274e-21)
(0.102088 0.0670325 3.33314e-19)
(0.136323 0.0648432 -2.12996e-19)
(0.174853 0.0622255 -2.44927e-19)
(0.2178 0.0592511 -1.92108e-19)
(0.265237 0.0559786 -1.57465e-19)
(0.317159 0.0524493 -8.85403e-20)
(0.373437 0.0486728 -6.95345e-20)
(0.43376 0.044596 -1.82163e-19)
(0.497921 0.0405071 -1.01056e-19)
(0.562651 0.034461 3.68466e-19)
(0.637202 0.0402611 1.25412e-19)
(0.116231 0.0612014 -4.10793e-19)
(0.153133 0.0590535 -1.89424e-19)
(0.194581 0.0565864 5.33114e-20)
(0.240672 0.0538798 5.23559e-20)
(0.291432 0.0510018 -2.82456e-19)
(0.346785 0.0480071 7.99891e-19)
(0.406496 0.04492 -1.32491e-19)
(0.470129 0.0417106 -2.95963e-19)
(0.537226 0.0386862 4.33094e-20)
(0.604508 0.0335579 -1.89676e-19)
(0.680548 0.0413494 3.18329e-20)
(0.131952 0.0556895 3.12246e-19)
(0.171703 0.053629 3.2232e-19)
(0.216241 0.051363 1.40238e-19)
(0.265624 0.0489782 -7.60964e-19)
(0.319819 0.0465528 1.54788e-19)
(0.378669 0.0441554 -7.034e-19)
(0.441815 0.0418281 -5.99061e-20)
(0.508695 0.0395875 2.80833e-20)
(0.578515 0.0377324 3.71941e-19)
(0.648257 0.0338136 -7.21487e-20)
(0.724671 0.044029 1.13548e-20)
(0.192082 0.0486015 -1.80034e-19)
(0.23986 0.0465874 7.41667e-20)
(0.292653 0.0445767 4.02171e-19)
(0.350358 0.0426556 3.13563e-19)
(0.412721 0.0409066 4.24182e-19)
(0.479255 0.0393914 -1.44621e-19)
(0.549273 0.038201 4.23733e-20)
(0.62156 0.0375776 -1.33715e-19)
(0.693662 0.0353128 2.21177e-19)
(0.768836 0.0485605 4.07815e-20)
(0.214295 0.0439987 1.46376e-19)
(0.265437 0.0422874 -1.84677e-19)
(0.321723 0.0406999 4.21056e-20)
(0.382965 0.039327 -2.52183e-19)
(0.448803 0.0382615 -1.77442e-19)
(0.518623 0.0375835 -4.87302e-20)
(0.591636 0.0374794 -5.00847e-19)
(0.666188 0.0380807 -1.40683e-19)
(0.740665 0.0382116 2.72181e-19)
(0.812201 0.0552513 2.72195e-19)
(0.292943 0.0384865 -1.38034e-20)
(0.352761 0.0373673 -1.0923e-19)
(0.417512 0.0365773 -2.8067e-19)
(0.486725 0.036212 3.16012e-19)
(0.559662 0.0363589 4.35551e-19)
(0.635475 0.0372914 6.0682e-19)
(0.712239 0.0389955 2.98955e-20)
(0.78971 0.0423712 -4.34661e-19)
(0.855983 0.0622268 -4.51989e-19)
(0.38566 0.0345946 1.57758e-19)
(0.453836 0.0344138 2.22917e-19)
(0.526249 0.0347483 2.71002e-19)
(0.602042 0.0356709 -5.12554e-19)
(0.680328 0.0374921 -4.32283e-19)
(0.759157 0.0400171 2.52328e-19)
(0.840448 0.0465465 4.04265e-19)