/*--------------------------------*- C++ -*----------------------------------*\
  =========                 |
  \\      /  F ield         | OpenFOAM: The Open Source CFD Toolbox
   \\    /   O peration     | Website:  https://openfoam.org
    \\  /    A nd           | Version:  7
     \\/     M anipulation  |
\*---------------------------------------------------------------------------*/
FoamFile
{
    version     2.0;
    format      ascii;
    class       surfaceScalarField;
    location    "40";
    object      phi;
}
// * * * * * * * * * * * * * * * * * * * * * * * * * * * * * * * * * * * * * //

dimensions      [0 3 -1 0 0 0 0];

internalField   nonuniform List<scalar> 
14031
(
-0.00021799
-0.000451737
0.000423313
-0.000187462
-0.000489063
0.000458535
-0.000154915
-0.000505946
0.000473399
-0.000120454
-0.000500931
0.000466471
-8.42178e-05
-0.000473933
0.000437696
-4.63803e-05
-0.000426139
0.000388301
-7.1564e-06
-0.000359972
0.000320748
3.32012e-05
-0.000278927
0.000238569
7.44094e-05
-0.000187325
0.000146116
0.000116168
-9.00231e-05
4.82643e-05
0.000158177
7.90069e-06
-4.99089e-05
0.000200151
0.000101487
-0.000143461
0.000241839
0.000186178
-0.000227867
0.000283037
0.000258073
-0.00029927
0.000323586
0.000314117
-0.000354666
0.000363378
0.000352218
-0.00039201
0.000402346
0.000371314
-0.000410282
0.000440449
0.000371366
-0.000409469
0.000477663
0.000353307
-0.000390521
0.000513964
0.000318951
-0.000355252
0.000549319
0.000270841
-0.000306197
0.000583683
0.000212101
-0.000246464
0.000616998
0.0001462
-0.000179515
0.000649195
7.68012e-05
-0.000108998
0.000680215
7.46883e-06
-3.84895e-05
0.000709999
-5.84058e-05
2.8622e-05
0.000738522
-0.000117922
8.93995e-05
0.000765763
-0.000168601
0.00014136
-0.000208694
0.000182701
-0.000215135
-0.000479912
-0.000184929
-0.000519269
-0.000152771
-0.000538105
-0.000118751
-0.000534951
-8.29913e-05
-0.000509692
-4.56445e-05
-0.000463485
-6.90216e-06
-0.000398714
3.30064e-05
-0.000318835
7.38202e-05
-0.000228138
0.000115258
-0.000131461
0.000157034
-3.38755e-05
0.000198875
5.96463e-05
0.000240533
0.00014452
0.000281801
0.000216805
0.000322516
0.000273402
0.000362557
0.000312177
0.000401841
0.00033203
0.000440309
0.000332898
0.000477916
0.0003157
0.000514616
0.000282251
0.000550357
0.0002351
0.000585073
0.000177385
0.000618693
0.00011258
0.000651135
4.43591e-05
0.000682333
-2.37291e-05
0.000712223
-8.82952e-05
0.000740779
-0.000146479
0.000767986
-0.000195808
-0.000234591
-0.000210597
-0.000507849
-0.000180709
-0.000549158
-0.000148938
-0.000569876
-0.000115364
-0.000568525
-8.00898e-05
-0.000544966
-4.32483e-05
-0.000500327
-5.00748e-06
-0.000436955
3.44274e-05
-0.00035827
7.48177e-05
-0.000268529
0.000115902
-0.000172546
0.000157411
-7.53839e-05
0.00019908
1.79773e-05
0.000240667
0.000102932
0.000281965
0.000175507
0.000322803
0.000232565
0.000363048
0.000271931
0.000402603
0.000292475
0.00044139
0.000294111
0.000479343
0.000277747
0.000516394
0.0002452
0.000552473
0.000199022
0.000587494
0.000142364
0.000621372
7.87022e-05
0.000654013
1.17179e-05
0.000685344
-5.506e-05
0.000715297
-0.000118248
0.000743848
-0.00017503
0.000770984
-0.000222944
-0.000260358
-0.000204399
-0.000535558
-0.000174821
-0.000578736
-0.000143435
-0.000601262
-0.000110308
-0.000601651
-7.55268e-05
-0.000579748
-3.92026e-05
-0.000536651
-1.48054e-06
-0.000474677
3.74586e-05
-0.000397209
7.73985e-05
-0.000308469
0.000118099
-0.000213246
0.000159305
-0.00011659
0.000200765
-2.34824e-05
0.000242241
6.14555e-05
0.000283526
0.000134222
0.000324443
0.000191648
0.000364848
0.000231526
0.000404627
0.000252696
0.000443684
0.000255054
0.000481933
0.000239498
0.000519286
0.000207847
0.000555652
0.000162656
0.000590929
0.000107087
0.000625016
4.4615e-05
0.00065781
-2.10761e-05
0.00068923
-8.64797e-05
0.000719205
-0.000148223
0.000747711
-0.000203536
0.000774738
-0.000249972
-0.000285961
-0.000196573
-0.000563049
-0.000167296
-0.000608013
-0.00013629
-0.000632268
-0.00010361
-0.000634331
-6.93257e-05
-0.000614032
-3.35278e-05
-0.000572449
3.66138e-06
-0.000511866
4.20847e-05
-0.000435632
8.15497e-05
-0.000347934
0.000121836
-0.000253533
0.000162706
-0.00015746
0.00020392
-6.46958e-05
0.000245246
2.01294e-05
0.000286475
9.29932e-05
0.000327425
0.000150698
0.000367943
0.000191009
0.000407897
0.000212742
0.000447175
0.000215776
0.000485669
0.000201003
0.000523273
0.000170243
0.000559875
0.000126053
0.000595357
7.1605e-05
0.000629605
1.03669e-05
0.000662505
-5.39759e-05
0.000693969
-0.000117944
0.000723924
-0.000178178
0.000752347
-0.000231959
0.000779231
-0.000276856
-0.000311365
-0.000187158
-0.000590334
-0.000158174
-0.000636996
-0.000127542
-0.000662901
-9.53057e-05
-0.000666568
-6.15191e-05
-0.000647819
-2.6254e-05
-0.000607714
1.03906e-05
-0.000548511
4.82812e-05
-0.000473523
8.72486e-05
-0.000386901
0.000127094
-0.000293378
0.000167596
-0.000197962
0.000208527
-0.000105627
0.000249662
-2.10058e-05
0.000290793
5.18625e-05
0.000331731
0.00010976
0.000372313
0.000150427
0.000412393
0.000172662
0.000451839
0.00017633
0.000490527
0.000162316
0.000528329
0.000132442
0.000565115
8.92667e-05
0.000600752
3.5968e-05
0.000635112
-2.39929e-05
0.000668071
-8.6935e-05
0.000699536
-0.000149409
0.000729431
-0.000208072
0.000757732
-0.000260261
0.000784439
-0.000303562
-0.000336541
-0.000176203
-0.000617426
-0.000147502
-0.000665697
-0.000117235
-0.000693167
-8.54382e-05
-0.000698365
-5.21489e-05
-0.000681108
-1.74204e-05
-0.000642443
1.86706e-05
-0.000584602
5.60138e-05
-0.000510866
9.44636e-05
-0.000425351
0.000133842
-0.000332756
0.000173946
-0.000238066
0.000214559
-0.00014624
0.000255464
-6.1911e-05
0.000296454
1.08733e-05
0.000337334
6.88791e-05
0.000377931
0.00010983
0.000418086
0.000132507
0.000457649
0.000136767
0.000496477
0.000123488
0.000534423
9.44952e-05
0.000571342
5.23484e-05
0.000607082
2.27608e-07
0.000641504
-5.84153e-05
0.000674476
-0.000119907
0.000705899
-0.000180831
0.000735693
-0.000237867
0.000763838
-0.000288405
0.000790334
-0.000330058
-0.000361457
-0.000163766
-0.000644337
-0.000135336
-0.000694127
-0.000105425
-0.000723078
-7.40602e-05
-0.00072973
-4.12654e-05
-0.000713903
-7.0749e-06
-0.000676633
2.84559e-05
-0.000620132
6.52398e-05
-0.00054765
0.000103154
-0.000463265
0.000142043
-0.000371644
0.000181719
-0.000277743
0.000221981
-0.000186502
0.000262618
-0.000102548
0.000303423
-2.99317e-05
0.000344199
2.81026e-05
0.000384763
6.92665e-05
0.000424941
9.23289e-05
0.000464568
9.71394e-05
0.000503482
8.45737e-05
0.00054152
5.64578e-05
0.000578517
1.53511e-05
0.00061431
-3.55651e-05
0.000648746
-9.28516e-05
0.000681685
-0.000152846
0.000713023
-0.000212169
0.000742679
-0.000267523
0.000770632
-0.000316358
0.000796886
-0.000356312
-0.000386087
-0.000149908
-0.000671079
-0.000121737
-0.000722298
-9.21726e-05
-0.000752642
-6.12321e-05
-0.00076067
-2.89267e-05
-0.000746208
4.72645e-06
-0.000710286
3.96931e-05
-0.000655099
7.59082e-05
-0.000583865
0.000113272
-0.000500629
0.000151649
-0.000410021
0.000190871
-0.000316965
0.000230749
-0.00022638
0.00027108
-0.000142879
0.000311659
-7.05107e-05
0.000352285
-1.25242e-05
0.000392767
2.87854e-05
0.000432917
5.21788e-05
0.000472555
5.75013e-05
0.000511502
4.56268e-05
0.000549577
1.83829e-05
0.0005866
-2.16725e-05
0.000622394
-7.13593e-05
0.000656797
-0.000127254
0.000689658
-0.000185708
0.00072087
-0.00024338
0.000750351
-0.000297003
0.000778078
-0.000344086
0.000804061
-0.000382295
-0.000410405
-0.000134698
-0.000697664
-0.000106776
-0.000750221
-7.75464e-05
-0.000781871
-4.7021e-05
-0.000791196
-1.51985e-05
-0.000778031
1.79205e-05
-0.000743405
5.23209e-05
-0.0006895
8.796e-05
-0.000619504
0.00012476
-0.000537429
0.000162606
-0.000447868
0.000201349
-0.000355708
0.000240812
-0.000265842
0.000280801
-0.000182867
0.000321113
-0.000110823
0.000361544
-5.29557e-05
0.000401895
-1.15649e-05
0.000441966
1.21076e-05
0.000481562
1.79051e-05
0.000520488
6.70064e-06
0.000558547
-1.96759e-05
0.000595545
-5.86703e-05
0.00063129
-0.000107105
0.000665611
-0.000161575
0.000698352
-0.000218449
0.000729398
-0.000274427
0.000758668
-0.000326273
0.000786139
-0.000371557
0.000811824
-0.000407979
-0.000434386
-0.000118213
-0.000724104
-9.05263e-05
-0.000777907
-6.1621e-05
-0.000810777
-3.15005e-05
-0.000821316
-1.54582e-07
-0.000809377
3.24364e-05
-0.000775996
6.62711e-05
-0.000723334
0.000101329
-0.000654563
0.000137555
-0.000573655
0.000174854
-0.000485166
0.000213094
-0.000393948
0.000252113
-0.000304861
0.000291725
-0.000222479
0.00033173
-0.000150828
0.000371922
-9.31482e-05
0.000412093
-5.17363e-05
0.000452035
-2.7834e-05
0.000491537
-2.1597e-05
0.000530389
-3.21515e-05
0.00056838
-5.76663e-05
0.0006053
-9.5591e-05
0.000640949
-0.000142753
0.000675143
-0.000195769
0.00070772
-0.000251026
0.000738563
-0.00030527
0.000767588
-0.000355297
0.000794774
-0.000398744
0.000820135
-0.00043334
-0.000458009
-0.000100531
-0.000750408
-7.30689e-05
-0.000805369
-4.44761e-05
-0.00083937
-1.47497e-05
-0.000851043
1.61321e-05
-0.000840259
4.81981e-05
-0.000808062
8.14694e-05
-0.000756606
0.000115944
-0.000689037
0.000151587
-0.000609298
0.000188324
-0.000521903
0.00022604
-0.000431664
0.000264588
-0.000343409
0.000303789
-0.00026168
0.000343449
-0.000190488
0.000383359
-0.000133058
0.000423305
-9.1682e-05
0.000463067
-6.75964e-05
0.000502424
-6.09535e-05
0.00054115
-7.08779e-05
0.000579021
-9.55367e-05
0.000615814
-0.000132385
0.000651317
-0.000178257
0.00068534
-0.000229791
0.000717713
-0.0002834
0.000748317
-0.000335874
0.000777065
-0.000384045
0.000803939
-0.000425617
0.000828953
-0.000458355
-0.000481255
-8.17346e-05
-0.000776585
-5.44875e-05
-0.000832616
-2.61958e-05
-0.000867661
3.14762e-06
-0.000880386
3.35737e-05
-0.000870685
6.51241e-05
-0.000839613
9.7836e-05
-0.000789317
0.000131727
-0.000722928
0.00016678
-0.000644352
0.000202943
-0.000558066
0.000240117
-0.000468838
0.000278167
-0.000381459
0.000316927
-0.00030044
0.000356205
-0.000229765
0.000395791
-0.000172645
0.000435466
-0.000131357
0.000475001
-0.000107131
0.000514162
-0.000100114
0.000552711
-0.000109428
0.000590411
-0.000133237
0.000627029
-0.000169002
0.000662341
-0.000213569
0.000696149
-0.000263599
0.000728281
-0.000315531
0.000758611
-0.000366204
0.000787053
-0.000412488
0.000813588
-0.000452152
0.000838235
-0.000483002
-0.000504106
-6.19114e-05
-0.000802643
-3.48694e-05
-0.000859658
-6.868e-06
-0.000895663
2.21039e-05
-0.000909358
5.2085e-05
-0.000900666
8.31284e-05
-0.000870656
0.000115287
-0.000821476
0.000148594
-0.000756235
0.000183054
-0.000678812
0.000218632
-0.000593643
0.000255247
-0.000505453
0.000292778
-0.00041899
0.000331067
-0.000338729
0.000369927
-0.000268626
0.00040915
-0.000211867
0.000448509
-0.000170716
0.00048777
-0.000146392
0.000526687
-0.000139031
0.000565011
-0.000147752
0.000602492
-0.000170718
0.000638887
-0.000205397
0.000673963
-0.000248645
0.000707516
-0.000297152
0.000739368
-0.000347383
0.000769392
-0.000396227
0.000797501
-0.000440596
0.000823676
-0.000478327
0.000847937
-0.000507262
-0.000526549
-4.11497e-05
-0.000828589
-1.43043e-05
-0.000886504
1.34168e-05
-0.000923384
4.20284e-05
-0.000937969
7.15755e-05
-0.000930213
0.000102122
-0.000901202
0.000133733
-0.000853087
0.00016646
-0.000788963
0.000200325
-0.000712677
0.000235309
-0.000628628
0.000271351
-0.000541494
0.000308341
-0.00045598
0.000346132
-0.000376521
0.000384542
-0.000307036
0.000423363
-0.000250688
0.000462365
-0.000209719
0.000501306
-0.000185333
0.000539932
-0.000177657
0.000577983
-0.000185802
0.000615198
-0.000207933
0.000651325
-0.000241524
0.000686124
-0.000283444
0.000719383
-0.000330411
0.000750922
-0.000378922
0.00078061
-0.000425915
0.00080836
-0.000468347
0.000834153
-0.000504121
0.000858012
-0.000531121
-0.00054857
-1.95396e-05
-0.000854425
7.11623e-06
-0.000913159
3.45663e-05
-0.000950834
6.28282e-05
-0.000966231
9.19525e-05
-0.000959337
0.000122012
-0.000931262
0.000153084
-0.000884159
0.000185235
-0.000821114
0.000218504
-0.000745946
0.000252889
-0.000663013
0.000288344
-0.000576949
0.000324775
-0.000492411
0.000362043
-0.000413788
0.000399972
-0.000344965
0.000438355
-0.000289071
0.000476961
-0.000248325
0.000515539
-0.000223912
0.000553829
-0.000215947
0.000591561
-0.000223535
0.000628466
-0.000244838
0.000664283
-0.00027734
0.000698764
-0.000317925
0.000731693
-0.000363341
0.000762885
-0.000410115
0.00079221
-0.00045524
0.000819578
-0.000495715
0.000844972
-0.000529514
0.000868414
-0.000554563
-0.00057016
2.82974e-06
-0.000880158
2.9299e-05
-0.000939629
5.64866e-05
-0.000978021
8.44091e-05
-0.000994154
0.000113122
-0.00098805
0.000142705
-0.000960844
0.000173247
-0.000914701
0.000204828
-0.000852695
0.000237502
-0.00077862
0.000271284
-0.000696795
0.000306142
-0.000611808
0.000341997
-0.000528265
0.000378718
-0.00045051
0.000416138
-0.000382384
0.00045405
-0.000326983
0.000492221
-0.000286496
0.000530396
-0.000262087
0.000568308
-0.000253858
0.000605678
-0.000260905
0.00064223
-0.00028139
0.000677695
-0.000312805
0.000711821
-0.000352051
0.000744385
-0.000395905
0.000775202
-0.000440931
0.000804138
-0.000484175
0.000831103
-0.000522681
0.000856082
-0.000554492
0.000879096
-0.000577578
-0.000591311
2.58611e-05
-0.00090575
5.21519e-05
-0.00096592
7.90838e-05
-0.00100495
0.000106676
-0.00102175
0.000134988
-0.00101636
0.000164105
-0.000989962
0.000194127
-0.000944723
0.000225145
-0.000883713
0.000257226
-0.000810702
0.000290403
-0.000729971
0.000324656
-0.000646062
0.00035992
-0.000563529
0.000396076
-0.000486666
0.000432959
-0.000419268
0.000470368
-0.000364392
0.000508069
-0.000324196
0.000545803
-0.000299822
0.000583296
-0.000291351
0.000620265
-0.000297874
0.000656424
-0.000317549
0.0006915
-0.000347881
0.000725234
-0.000385785
0.000757402
-0.000428074
0.000787816
-0.000471345
0.000816339
-0.000512698
0.000842884
-0.000549226
0.000867433
-0.000579041
0.00089001
-0.000600155
-0.000612017
4.94696e-05
-0.000931267
7.55823e-05
-0.000992032
0.000102264
-0.00103163
0.000129534
-0.00104902
0.000157455
-0.00104428
0.000186118
-0.00101862
0.000215629
-0.000974234
0.000246091
-0.000914175
0.000277585
-0.000842195
0.000310155
-0.000762541
0.000343798
-0.000679705
0.000378459
-0.00059819
0.000414029
-0.000522236
0.000450353
-0.000455592
0.000487231
-0.00040127
0.000524429
-0.000361394
0.000561686
-0.000337079
0.000598724
-0.000328388
0.000635252
-0.000334402
0.000670981
-0.000353278
0.000705631
-0.000382531
0.000738942
-0.000419096
0.000770685
-0.000459817
0.000800669
-0.000501329
0.00082876
-0.000540789
0.000854868
-0.000575334
0.000878976
-0.000603149
0.000901109
-0.000622288
-0.000632275
7.35639e-05
-0.000956673
9.94985e-05
-0.00101797
0.000125934
-0.00105807
0.00015289
-0.00107597
0.000180429
-0.00107182
0.000208648
-0.00104684
0.000237659
-0.00100324
0.000267574
-0.000944089
0.000298485
-0.000873106
0.000330449
-0.000794506
0.000363477
-0.000712732
0.000397525
-0.000632238
0.000432496
-0.000557207
0.000468239
-0.000491335
0.000504559
-0.00043759
0.000541224
-0.000398059
0.000577971
-0.000373826
0.000614517
-0.000364935
0.00065057
-0.000370454
0.000685834
-0.000388543
0.000720027
-0.000416724
0.000752883
-0.000451952
0.000784174
-0.000491107
0.000813707
-0.000530863
0.000841347
-0.000568428
0.000867004
-0.000600992
0.000890662
-0.000626806
0.000912344
-0.000643971
-0.000652083
9.80558e-05
-0.000981963
0.000123811
-0.00104372
0.000150002
-0.00108426
0.000176649
-0.00110262
0.000203816
-0.00109899
0.000231601
-0.00107463
0.000260122
-0.00103177
0.000289499
-0.000973466
0.000319834
-0.000903441
0.000351195
-0.000825867
0.000383605
-0.000745143
0.000417033
-0.000665665
0.000451389
-0.000591563
0.000486533
-0.000526478
0.000522272
-0.00047333
0.000558377
-0.000434164
0.000594583
-0.000410032
0.000630606
-0.000400958
0.000666151
-0.000405999
0.000700918
-0.00042331
0.000734623
-0.000450428
0.000766998
-0.000484327
0.000797812
-0.000521922
0.000826874
-0.000559924
0.000854046
-0.000595601
0.000879242
-0.000626188
0.000902441
-0.000650005
0.000923671
-0.000665201
-0.000671443
0.000122859
-0.00100713
0.000148431
-0.00106929
0.000174379
-0.00111021
0.000200722
-0.00112896
0.000227524
-0.00112579
0.000254885
-0.00110199
0.000282926
-0.00105981
0.000311775
-0.00100231
0.00034154
-0.000933207
0.000372302
-0.000856629
0.000404094
-0.000776935
0.000436895
-0.000698466
0.000470627
-0.000625295
0.000505154
-0.000561006
0.000540292
-0.000508467
0.000575811
-0.000469683
0.000611449
-0.000445671
0.000646921
-0.00043643
0.000681928
-0.000441005
0.000716169
-0.000457552
0.000749358
-0.000483617
0.000781227
-0.000516196
0.000811543
-0.000552238
0.000840115
-0.000588497
0.000866807
-0.000622292
0.000891531
-0.000650912
0.000914267
-0.000672742
0.000935043
-0.000685976
-0.000690356
0.00014789
-0.00103216
0.000173273
-0.00109468
0.000198977
-0.00113591
0.000225019
-0.001155
0.000251462
-0.00115223
0.000278408
-0.00112894
0.00030598
-0.00108738
0.00033431
-0.00103064
0.000363515
-0.000962411
0.000393683
-0.000886797
0.000424857
-0.000808109
0.000457028
-0.000730637
0.000490126
-0.000658392
0.000524024
-0.000594903
0.000558541
-0.000542985
0.000593453
-0.000504595
0.000628499
-0.000480716
0.000663392
-0.000471323
0.000697834
-0.000475447
0.000731524
-0.000491242
0.000764172
-0.000516265
0.000795512
-0.000547536
0.000825312
-0.000582037
0.000853379
-0.000616564
0.000879578
-0.000648491
0.000903823
-0.000675157
0.000926094
-0.000695013
0.000946416
-0.000706299
-0.000708826
0.000173068
-0.00105704
0.000198255
-0.00111986
0.000223711
-0.00116137
0.000249454
-0.00118075
0.000275544
-0.00117833
0.000302083
-0.00115547
0.000329196
-0.00111449
0.000357017
-0.00105846
0.000385669
-0.000991064
0.000415249
-0.000916377
0.000445809
-0.000838669
0.000477348
-0.000762176
0.000509805
-0.00069085
0.000543062
-0.00062816
0.000576944
-0.000576867
0.00061123
-0.000538881
0.000645661
-0.000515147
0.000679953
-0.000505615
0.000713806
-0.0005093
0.000746921
-0.000524356
0.000779007
-0.000548352
0.000809799
-0.000578327
0.000839064
-0.000611303
0.000866614
-0.000644113
0.000892312
-0.000674189
0.000916072
-0.000698917
0.000937875
-0.000716816
0.000957746
-0.00072617
-0.000726859
0.000198313
-0.00108177
0.000223295
-0.00114484
0.0002485
-0.00118658
0.000273944
-0.00120619
0.000299686
-0.00120407
0.000325825
-0.00118161
0.000352488
-0.00114116
0.00037981
-0.00108579
0.00040792
-0.00101917
0.000436919
-0.000945376
0.000466867
-0.000868618
0.000497774
-0.000793083
0.000529586
-0.000722662
0.000562193
-0.000660767
0.000595427
-0.000610101
0.000629071
-0.000572525
0.000662869
-0.000548945
0.000696539
-0.000539285
0.000729782
-0.000542544
0.000762301
-0.000556875
0.000793806
-0.000579857
0.000824032
-0.000608554
0.00085275
-0.000640021
0.000879771
-0.000671134
0.00090496
-0.000699378
0.000928232
-0.00072219
0.000949568
-0.000738151
0.000968992
-0.000745593
-0.000744462
0.000223552
-0.00110631
0.000248318
-0.00116961
0.000273265
-0.00121152
0.000298408
-0.00123133
0.000323805
-0.00122946
0.000349552
-0.00120736
0.000375773
-0.00116738
0.000402607
-0.00111262
0.000430183
-0.00104675
0.000458609
-0.000973802
0.000487952
-0.000897961
0.000518228
-0.000823359
0.000549394
-0.000753827
0.000581344
-0.000692718
0.000613919
-0.000642675
0.000646907
-0.000605513
0.000680056
-0.000582094
0.000713086
-0.000572315
0.000745702
-0.00057516
0.000777607
-0.00058878
0.000808515
-0.000610764
0.000838161
-0.0006382
0.00086632
-0.000668179
0.000892803
-0.000697617
0.000917478
-0.000724053
0.000940261
-0.000744973
0.000961131
-0.000759021
0.000980113
-0.000764574
-0.000761645
0.000248711
-0.00113067
0.000273249
-0.00119415
0.000297932
-0.00123621
0.000322772
-0.00125617
0.000347825
-0.00125452
0.000373184
-0.00123272
0.000398974
-0.00119317
0.000425328
-0.00113898
0.000452381
-0.0010738
0.000480243
-0.00100166
0.000508987
-0.000926705
0.000538636
-0.000853007
0.000569154
-0.000784345
0.000600444
-0.000724008
0.000632352
-0.000674584
0.000664673
-0.000637834
0.00069716
-0.000614581
0.000729535
-0.000604691
0.000761509
-0.000607134
0.000792785
-0.000620056
0.000823081
-0.00064106
0.000852137
-0.000667256
0.000879726
-0.000695768
0.000905666
-0.000723557
0.000929823
-0.000748211
0.000952117
-0.000767267
0.000972525
-0.00077943
0.000991071
-0.00078312
-0.000778415
0.000273723
-0.00115481
0.000298018
-0.00121844
0.000322427
-0.00126062
0.000346961
-0.00128071
0.000371671
-0.00127923
0.000396648
-0.0012577
0.000422013
-0.00121853
0.000447899
-0.00116486
0.000474438
-0.00110034
0.000501746
-0.00102897
0.000529898
-0.000954858
0.000558925
-0.000882034
0.000588796
-0.000814217
0.000619424
-0.000754636
0.000650661
-0.00070582
0.000682307
-0.000669479
0.00071412
-0.000646394
0.00074583
-0.000636401
0.000777148
-0.000638451
0.000807783
-0.000650692
0.000837457
-0.000670734
0.000865911
-0.00069571
0.000892925
-0.000722782
0.000918316
-0.000748948
0.000941955
-0.000771851
0.000963761
-0.000789073
0.000983713
-0.000799381
0.00100183
-0.000801239
-0.000794785
0.00029852
-0.00117873
0.000322559
-0.00124248
0.000346684
-0.00128474
0.000370906
-0.00130493
0.000395273
-0.00130359
0.000419872
-0.0012823
0.00044482
-0.00124348
0.000470246
-0.00119029
0.000496283
-0.00112638
0.000523046
-0.00105573
0.000550615
-0.000982427
0.000579026
-0.000910444
0.000608255
-0.000843446
0.00063822
-0.000784602
0.000668782
-0.000736382
0.000699747
-0.000700445
0.00073088
-0.000677526
0.000761914
-0.000667435
0.000792567
-0.000669104
0.000822552
-0.000680677
0.000851595
-0.000699776
0.000879441
-0.000723557
0.000905874
-0.000749214
0.000930715
-0.000773789
0.000953836
-0.000794972
0.000975157
-0.000810394
0.000994658
-0.000818881
0.00101236
-0.000818939
-0.000810766
0.000323042
-0.00120239
0.000346808
-0.00126625
0.000370638
-0.00130857
0.000394542
-0.00132883
0.000418565
-0.00132762
0.00044279
-0.00130652
0.000467326
-0.00126801
0.000492302
-0.00121526
0.000517847
-0.00115192
0.000544076
-0.00108196
0.000571072
-0.00100942
0.000598874
-0.000938246
0.000627465
-0.000872037
0.000656771
-0.000813908
0.000686657
-0.000766268
0.000716939
-0.000730726
0.000747385
-0.000707973
0.000777738
-0.000697787
0.000807718
-0.000699085
0.000837046
-0.000710005
0.000865451
-0.000728181
0.000892685
-0.000750791
0.000918534
-0.000775063
0.000942824
-0.000798078
0.000965428
-0.000817577
0.00098627
-0.000831236
0.00100533
-0.000837938
0.00102262
-0.00083623
-0.000826371
0.00034723
-0.00122578
0.000370705
-0.00128972
0.000394229
-0.0013321
0.000417808
-0.00135241
0.000441485
-0.00135129
0.000465337
-0.00133037
0.000489469
-0.00129215
0.000514004
-0.0012398
0.000539067
-0.00117699
0.000564773
-0.00110767
0.000591206
-0.00103586
0.000618409
-0.000965448
0.000646369
-0.000899997
0.000675019
-0.000842558
0.000704231
-0.000795481
0.000733828
-0.000760322
0.000763586
-0.000737731
0.000793252
-0.000727454
0.000822556
-0.000728388
0.000851222
-0.000738671
0.000878986
-0.000755945
0.000905605
-0.00077741
0.000930869
-0.000800327
0.000954608
-0.000821818
0.0009767
-0.000839669
0.000997069
-0.000851604
0.00101569
-0.000856559
0.00103258
-0.000853124
-0.000841612
0.000371027
0.000394194
-0.00131289
0.000417398
-0.0013553
0.000440645
-0.00137566
0.000463973
-0.00137462
0.000487455
-0.00135385
0.000511188
-0.00131588
0.00053529
-0.0012639
0.000559883
-0.00120158
0.000585078
-0.00113286
0.000610959
-0.00106174
0.000637572
-0.000992061
0.000664909
-0.000927335
0.000692909
-0.000870557
0.000721451
-0.000824023
0.000750364
-0.000789235
0.000779433
-0.0007668
0.000808412
-0.000756433
0.000837036
-0.000757013
0.000865039
-0.000766673
0.00089216
-0.000783066
0.000918163
-0.000803414
0.000942844
-0.000825008
0.000966036
-0.00084501
0.000987621
-0.000861253
0.00100752
-0.000871506
0.00102572
-0.000874756
0.00104223
-0.000869632
-0.000856504
0.000417221
-0.00133573
0.000440093
-0.00137817
0.000463
-0.00139857
0.000485976
-0.0013976
0.000509088
-0.00137697
0.000532428
-0.00133922
0.000556106
-0.00128758
0.000580238
-0.00122571
0.000604934
-0.00115756
0.000630275
-0.00108708
0.000656309
-0.0010181
0.000683034
-0.000954059
0.000710391
-0.000897915
0.000738268
-0.0008519
0.000766502
-0.000817469
0.000794884
-0.000795182
0.000823176
-0.000784725
0.000851121
-0.000784958
0.00087846
-0.000794012
0.000904939
-0.000809545
0.000930328
-0.000828803
0.000954428
-0.000849109
0.000977078
-0.00086766
0.000998161
-0.000882336
0.0010176
-0.000890949
0.00103539
-0.000892537
0.00105152
-0.000885768
-0.000871062
0.000439739
-0.00135823
0.000462264
-0.0014007
0.000484821
-0.00142112
0.000507442
-0.00142022
0.000530185
-0.00139971
0.000553136
-0.00136217
0.000576399
-0.00131084
0.000600082
-0.0012494
0.00062429
-0.00118177
0.000649104
-0.00111189
0.000674572
-0.00104356
0.000700694
-0.000980181
0.000727418
-0.000924639
0.000754638
-0.00087912
0.000782198
-0.000845028
0.000809897
-0.000822881
0.000837505
-0.000812334
0.000864774
-0.000812227
0.00089145
-0.000820688
0.00091729
-0.000835385
0.000942068
-0.000853582
0.000965593
-0.000872633
0.000987706
-0.000889774
0.0010083
-0.000902926
0.00102729
-0.000909944
0.00104467
-0.000909914
0.00106044
-0.000901543
-0.0008853
0.000461698
-0.00138036
0.000483864
-0.00142286
0.000506063
-0.00144332
0.000528324
-0.00144248
0.000550699
-0.00142209
0.000573266
-0.00138474
0.000596121
-0.0013337
0.000619366
-0.00127264
0.000643099
-0.0012055
0.000667399
-0.00113619
0.000692313
-0.00106848
0.000717845
-0.00100571
0.000743947
-0.000950741
0.000770519
-0.000905692
0.000797412
-0.000871921
0.000824434
-0.000849903
0.000851364
-0.000839263
0.00087796
-0.000838824
0.000903979
-0.000846707
0.000929184
-0.000860589
0.000953357
-0.000877755
0.000976312
-0.000895587
0.000997896
-0.000911358
0.001018
-0.00092303
0.00103656
-0.0009285
0.00105354
-0.0009269
0.00106897
-0.000916971
-0.000899234
0.000483058
-0.00140211
0.000504849
-0.00144465
0.000526682
-0.00146515
0.000548578
-0.00146437
0.000570586
-0.00144409
0.000592774
-0.00140693
0.000615229
-0.00135615
0.000638046
-0.00129546
0.000661317
-0.00122877
0.000685116
-0.00115999
0.000709491
-0.00109285
0.000734446
-0.00103067
0.000759938
-0.000976233
0.000785872
-0.000931626
0.000812108
-0.000898156
0.000838461
-0.000876256
0.000864719
-0.000865522
0.000890651
-0.000864755
0.000916018
-0.000872075
0.000940594
-0.000885165
0.000964169
-0.00090133
0.000986562
-0.00091798
0.00100763
-0.000932423
0.00102726
-0.00094266
0.00104538
-0.000946629
0.00106199
-0.000943506
0.00107709
-0.000932068
-0.000912879
0.000503776
-0.00142346
0.000525181
-0.00146606
0.000546638
-0.00148661
0.000568166
-0.0014859
0.000589807
-0.00146573
0.00061162
-0.00142874
0.000633683
-0.00137821
0.000656083
-0.00131786
0.000678904
-0.00125159
0.000702217
-0.00118331
0.000726067
-0.0011167
0.000750459
-0.00105506
0.000775354
-0.00100113
0.000800663
-0.000956935
0.000826253
-0.000923746
0.000851947
-0.000901951
0.000877543
-0.000891117
0.000902817
-0.000890029
0.000927542
-0.0008968
0.000951497
-0.000909121
0.000974482
-0.000924314
0.000996322
-0.00093982
0.00101688
-0.000952977
0.00103604
-0.000961826
0.00105376
-0.000964343
0.00107
-0.000959747
0.00108478
-0.000946847
-0.000926251
0.000523817
-0.0014444
0.000544822
-0.00148706
0.000565895
-0.00150768
0.000587052
-0.00150706
0.000608325
-0.00148701
0.000629767
-0.00145018
0.000651446
-0.00139989
0.00067344
-0.00133985
0.000695824
-0.00127398
0.000718666
-0.00120615
0.000742006
-0.00114004
0.00076585
-0.0010789
0.000790163
-0.00102544
0.000814861
-0.000981633
0.000839817
-0.000948702
0.000864864
-0.000926998
0.000889808
-0.000916061
0.000914434
-0.000914655
0.000938526
-0.000920892
0.000961871
-0.000932466
0.000984276
-0.000946719
0.00100557
-0.000961117
0.00102563
-0.000973031
0.00104434
-0.00098054
0.00106165
-0.000981655
0.00107754
-0.000975635
0.00109202
-0.000961323
-0.000939367
0.000543146
-0.0014649
0.000563739
-0.00150766
0.000584421
-0.00152837
0.000605201
-0.00152784
0.000626108
-0.00150791
0.000647184
-0.00147126
0.000668487
-0.0014212
0.000690084
-0.00136145
0.000712046
-0.00129594
0.000734431
-0.00122853
0.000757277