/*--------------------------------*- C++ -*----------------------------------*\
  =========                 |
  \\      /  F ield         | OpenFOAM: The Open Source CFD Toolbox
   \\    /   O peration     | Website:  https://openfoam.org
    \\  /    A nd           | Version:  7
     \\/     M anipulation  |
\*---------------------------------------------------------------------------*/
FoamFile
{
    version     2.0;
    format      ascii;
    class       surfaceScalarField;
    location    "220";
    object      phi;
}
// * * * * * * * * * * * * * * * * * * * * * * * * * * * * * * * * * * * * * //

dimensions      [0 3 -1 0 0 0 0];

internalField   nonuniform List<scalar> 
8882
(
6.73058e-06
-5.94978e-05
2.71653e-05
-0.00022422
-0.000439704
7.03392e-06
-6.65318e-05
2.81917e-05
-0.000245378
6.38048e-05
-0.000475317
0.000113465
-0.000753504
-0.00107292
7.32876e-06
-7.38605e-05
2.91701e-05
-0.000267219
6.56332e-05
-0.00051178
0.000116023
-0.000803893
0.000178502
-0.0011354
0.000249989
-0.00149372
0.000326396
-0.00186304
-0.00222651
7.61319e-06
-8.14737e-05
3.00935e-05
-0.000289699
6.73131e-05
-0.000548999
0.000118279
-0.000854859
0.00018082
-0.00119794
0.000251552
-0.00156445
0.000326193
-0.00193768
0.000400185
-0.00230051
0.000469435
-0.00263819
0.000530927
-0.00294068
0.000583026
-0.00320356
-0.00342774
7.88537e-06
-8.93591e-05
3.09556e-05
-0.00031277
6.88321e-05
-0.000586876
0.000120216
-0.000906243
0.000182608
-0.00126033
0.000252344
-0.00163419
0.000324987
-0.00201033
0.000396008
-0.00237153
0.000461519
-0.0027037
0.000518822
-0.00299798
0.000566637
-0.00325137
0.000604986
-0.00346609
0.000634861
-0.00364805
0.000657788
-0.00380498
-0.00394482
8.14347e-06
-9.75025e-05
3.17502e-05
-0.000336376
7.01788e-05
-0.000625305
0.000121819
-0.000957883
0.000183854
-0.00132237
0.000252364
-0.0017027
0.000322802
-0.00208077
0.000390707
-0.00243943
0.000452425
-0.00276542
0.000505587
-0.00305115
0.000549251
-0.00329503
0.000583712
-0.00350056
0.00061013
-0.00367447
0.000630091
-0.00382494
0.000645242
-0.00395997
0.000657034
-0.00408641
0.000666604
-0.00420948
0.000674742
-0.00433269
-0.00445806
8.38573e-06
-0.000105888
3.24715e-05
-0.000360462
7.13433e-05
-0.000664176
0.000123078
-0.00100962
0.000184551
-0.00138384
0.00025162
-0.00176977
0.000319667
-0.00214881
0.00038434
-0.0025041
0.00044224
-0.00282332
0.000491331
-0.00310024
0.000530986
-0.00333469
0.000561746
-0.00353132
0.000584904
-0.00369763
0.000602083
-0.00384212
0.000614882
-0.00397277
0.000624667
-0.0040962
0.000632473
-0.00421728
0.000639
-0.00433922
0.000644683
-0.00446374
-0.00459152
0.000649705
8.61048e-06
-0.000114499
3.31143e-05
-0.000384966
7.23169e-05
-0.000703379
0.000123982
-0.00106128
0.000184697
-0.00144456
0.000250126
-0.0018352
0.000315619
-0.00221431
0.000376969
-0.00256545
0.000431052
-0.00287741
0.000476156
-0.00314534
0.000511953
-0.00337049
0.000539194
-0.00355856
0.00055928
-0.00371772
0.000573841
-0.00385668
0.00058442
-0.00398335
0.000592291
-0.00410407
0.000598391
-0.00422338
0.00060334
-0.00434417
0.000607508
-0.00446791
-0.00459505
0.000611039
8.81613e-06
-0.000123315
3.3674e-05
-0.000409824
7.30925e-05
-0.000742798
0.000124528
-0.00111272
0.000184294
-0.00150432
0.000247899
-0.0018988
0.0003107
-0.00227711
0.000368662
-0.00262342
0.000418947
-0.00292769
0.000460164
-0.00318656
0.000492255
-0.00340258
0.000516154
-0.00358246
0.00053334
-0.0037349
0.000545432
-0.00386877
0.000553906
-0.00399183
0.000559941
-0.0041101
0.000564385
-0.00422783
0.000567781
-0.00434756
0.000570442
-0.00447057
-0.00459709
0.000572481
9.00122e-06
-0.000132316
3.41463e-05
-0.000434969
7.36643e-05
-0.000782315
0.00012471
-0.00116376
0.000183349
-0.00156296
0.000244963
-0.00196042
0.000304953
-0.0023371
0.000359485
-0.00267795
0.000406013
-0.00297422
0.00044345
-0.00322399
0.000471989
-0.00343112
0.000492716
-0.00360318
0.000507161
-0.00374935
0.000516918
-0.00387853
0.000523385
-0.00399829
0.000527652
-0.00411437
0.000530478
-0.00423065
0.000532338
-0.00434942
0.000533499
-0.00447173
-0.00459763
0.000534043
9.16441e-06
-0.000141481
3.45278e-05
-0.000460332
7.40282e-05
-0.000821816
0.000124529
-0.00121426
0.00018187
-0.0016203
0.000241344
-0.00201989
0.000298429
-0.00239418
0.000349508
-0.00272903
0.000392333
-0.00301705
0.000426107
-0.00325777
0.000451245
-0.00345625
0.000468959
-0.0036209
0.000480809
-0.0037612
0.000488349
-0.00388607
0.000492896
-0.00400284
0.000495448
-0.00411692
0.000496687
-0.00423189
0.000497026
-0.00434976
0.000496688
-0.00447139
-0.00459668
0.000495736
9.30453e-06
-0.000150785
3.48156e-05
-0.000485843
7.41814e-05
-0.000861182
0.000123987
-0.00126407
0.000179872
-0.00167619
0.000237074
-0.00207709
0.000291176
-0.00244828
0.000338799
-0.00277665
0.000377988
-0.00305623
0.000408219
-0.003288
0.000430104
-0.00347814
0.000444955
-0.00363575
0.000454344
-0.00377059
0.000459771
-0.00389149
0.000462471
-0.00400554
0.000463355
-0.00411781
0.00046303
-0.00423157
0.000461857
-0.00434859
0.000460022
-0.00446956
-0.00459423
0.000457569
9.42168e-06
-0.000160207
3.50098e-05
-0.000511431
7.41265e-05
-0.000900298
0.000123093
-0.00131304
0.000177377
-0.00173048
0.000232191
-0.00213191
0.000283253
-0.00249934
0.000327434
-0.00282083
0.000363064
-0.00309187
0.000389874
-0.00331481
0.000408649
-0.00349691
0.000420778
-0.00364788
0.000427826
-0.00377763
0.000431232
-0.0038949
0.000432147
-0.00400646
0.0004314
-0.00411706
0.00042953
-0.0042297
0.00042685
-0.00434591
0.000423516
-0.00446622
-0.00459027
0.000419559
9.51282e-06
-0.00016972
3.51044e-05
-0.000537023
7.38567e-05
-0.000939051
0.000121844
-0.00136102
0.000174392
-0.00178302
0.000226719
-0.00218423
0.0002747
-0.00254733
0.000315463
-0.00286159
0.000347618
-0.00312402
0.00037113
-0.00333832
0.000386933
-0.00351272
0.000396469
-0.00365741
0.000401284
-0.00378245
0.000402749
-0.00389637
0.000401933
-0.00400564
0.000399585
-0.00411471
0.000396184
-0.00422629
0.000392001
-0.00434173
0.000387166
-0.00446139
-0.00458481
0.000381701
9.57834e-06
-0.000179298
3.51006e-05
-0.000562545
7.33771e-05
-0.000977327
0.000120255
-0.0014079
0.000170944
-0.00183371
0.0002207
-0.00223399
0.000265575
-0.0025922
0.000302958
-0.00289898
0.000331729
-0.00315279
0.000352065
-0.00335866
0.000365025
-0.00352568
0.000372088
-0.00366448
0.000374768
-0.00378513
0.000374362
-0.00389596
0.000371859
-0.00400314
0.000367935
-0.00411079
0.000363012
-0.00422137
0.000357328
-0.00433604
0.000350988
-0.00445505
-0.00457783
0.00034401
9.61767e-06
-0.000188916
3.49982e-05
-0.000587926
7.26905e-05
-0.00101502
0.000118336
-0.00145355
0.000167056
-0.00188243
0.000214172
-0.0022811
0.00025593
-0.00263396
0.000289982
-0.00293303
0.000315462
-0.00317827
0.00033274
-0.00337593
0.000342981
-0.00353592
0.000347681
-0.00366918
0.000348311
-0.00378576
0.000346097
-0.00389375
0.000341945
-0.00399898
0.000336463
-0.00410531
0.000330026
-0.00421493
0.000322838
-0.00432885
0.00031499
-0.0044472
-0.00456934
0.000306496
9.63043e-06
-0.000198546
3.47974e-05
-0.000613093
7.18009e-05
-0.00105202
0.000116098
-0.00149784
0.000162753
-0.00192909
0.000207173
-0.00232553
0.000245817
-0.0026726
0.000276593
-0.0029638
0.000298878
-0.00320056
0.000313215
-0.00339027
0.000320851
-0.00354355
0.000323288
-0.00367161
0.000321947
-0.00378442
0.000317976
-0.00388977
0.000312206
-0.00399321
0.000305181
-0.00409828
0.000297234
-0.00420699
0.000288542
-0.00432016
0.00027918
-0.00443784
-0.00455932
0.000269167
9.61638e-06
-0.000208162
3.44991e-05
-0.000637975
7.07136e-05
-0.00108824
0.000113556
-0.00154069
0.000158059
-0.00197359
0.000199743
-0.00236721
0.000235284
-0.00270814
0.000262846
-0.00299137
0.000282033
-0.00321974
0.00029354
-0.00340178
0.00029868
-0.00354869
0.000298946
-0.00367188
0.000295701
-0.00378117
0.000290019
-0.00388409
0.000282657
-0.00398585
0.000274103
-0.00408973
0.000264647
-0.00419753
0.000254447
-0.00430996
0.000243566
-0.00442695
-0.00454779
0.000232031
9.57546e-06
-0.000217738
3.41047e-05
-0.000662505
6.94346e-05
-0.00112357
0.000110724
-0.00158197
0.000153001
-0.00201587
0.000191919
-0.00240613
0.000224379
-0.0027406
0.000248795
-0.00301578
0.000264981
-0.00323593
0.000273765
-0.00341056
0.000276509
-0.00355144
0.000274687
-0.00367006
0.000269599
-0.00377608
0.000262245
-0.00387674
0.000253313
-0.00397692
0.000243238
-0.00407965
0.000232275
-0.00418657
0.000220562
-0.00429825
0.000208154
-0.00441455
-0.00453473
0.000195094
9.50776e-06
-0.000227246
3.36162e-05
-0.000686613
6.79709e-05
-0.00115792
0.000107618
-0.00162162
0.000147607
-0.00205586
0.000183739
-0.00244226
0.000213148
-0.00277001
0.000234488
-0.00303712
0.000247769
-0.00324921
0.000253933
-0.00341672
0.000254374
-0.00355188
0.000250538
-0.00366622
0.000243661
-0.00376921
0.00023467
-0.00386775
0.000224186
-0.00396644
0.000212596
-0.00406806
0.000200126
-0.0041741
0.000186894
-0.00428502
0.000172954
-0.00440061
-0.00452013
0.000158359
9.41351e-06
-0.000236659
3.3036e-05
-0.000710236
6.63301e-05
-0.00119122
0.000104254
-0.00165955
0.000141901
-0.0020935
0.00017524
-0.0024756
0.000201634
-0.0027964
0.000219973
-0.00305546
0.000230443
-0.00325968
0.000234082
-0.00342036
0.000232306
-0.0035501
0.000226524
-0.00366044
0.000217906
-0.00376059
0.000207307
-0.00385715
0.000195287
-0.00395442
0.000182188
-0.00405496
0.000168209
-0.00416012
0.000153451
-0.00427026
0.000137972
-0.00438513
-0.00450399
0.000121823
9.29307e-06
-0.000245952
3.23667e-05
-0.000733309
6.45205e-05
-0.00122337
0.000100649
-0.00169567
0.000135912
-0.00212877
0.000166457
-0.00250614
0.00018988
-0.00281983
0.000205292
-0.00307087
0.000213041
-0.00326743
0.000214248
-0.00342157
0.000210335
-0.00354619
0.000202668
-0.00365277
0.000192352
-0.00375027
0.00018017
-0.00384497
0.000166627
-0.00394087
0.000152024
-0.00404036
0.000136533
-0.00414463
0.000120241
-0.00425397
0.000103217
-0.0043681
-0.00448625
8.54777e-05
9.14693e-06
-0.000255099
3.16116e-05
-0.000755774
6.25509e-05
-0.00125431
9.68196e-05
-0.00172994
0.000129665
-0.00216161
0.000157424
-0.0025339
0.000177923
-0.00284033
0.000190485
-0.00308344
0.000195603
-0.00327255
0.000194462
-0.00342043
0.000188485
-0.00354021
0.000178989
-0.00364328
0.000167011
-0.0037383
0.00015327
-0.00383123
0.000138217
-0.00392582
0.000122116
-0.00402426
0.000105114
-0.00412763
8.72837e-05
-0.00423614
6.86807e-05
-0.0043495
-0.00446688
4.93104e-05
8.9757e-06
-0.000264075
3.07741e-05
-0.000777572
6.04304e-05
-0.00128397
9.27833e-05
-0.0017623
0.000123186
-0.00219201
0.000148174
-0.00255889
0.000165801
-0.00285796
0.000175589
-0.00309322
0.00017816
-0.00327512
0.000174754
-0.00341702
0.00016678
-0.00353224
0.000155505
-0.003632
0.000141898
-0.00372469
0.000126617
-0.00381594
0.000110065
-0.00390927
9.24701e-05
-0.00400666
7.39676e-05
-0.00410912
5.46297e-05
-0.0042168
3.43764e-05
-0.00432925
-0.00444557
1.30712e-05
8.7801e-06
-0.000272855
2.98578e-05
-0.00079865
5.81685e-05
-0.00131228
8.8557e-05
-0.00179268
0.000116501
-0.00221996
0.000138738
-0.00258113
0.000153549
-0.00287277
0.000160637
-0.00310031
0.000160743
-0.00327522
0.000155147
-0.00341143
0.000145239
-0.00352233
0.000132229
-0.00361899
0.000117024
-0.00370948
0.000100222
-0.00379914
8.21779e-05
-0.00389122
6.30926e-05
-0.00398758
4.30879e-05
-0.00408912
2.22925e-05
-0.004196
1.01563e-06
-0.00430797
-0.00442235
-2.22088e-05
8.56091e-06
-0.000281416
2.88668e-05
-0.000818956
5.57746e-05
-0.00133918
8.41578e-05
-0.00182107
0.000109633
-0.00224543
0.000129147
-0.00260064
0.000141196
-0.00288482
0.000145661
-0.00310478
0.000143381
-0.00327294
0.000135665
-0.00340371
0.000123879
-0.00351055
0.000109176
-0.00360429
9.24e-05
-0.00369271
7.40916e-05
-0.00378083
5.45653e-05
-0.0038717
3.39923e-05
-0.00396701
1.24842e-05
-0.00406761
-9.87233e-06
-0.00417365
-3.31664e-05
-0.00428468
-0.00439843
-5.70805e-05
8.31902e-06
-0.000289735
2.78051e-05
-0.000838442
5.32587e-05
-0.00136464
7.96023e-05
-0.00184741
0.000102605
-0.00226844
0.000119427
-0.00261746
0.000128775
-0.00289416
0.000130688
-0.00310669
0.000126097
-0.00326835
0.000116329
-0.00339394
0.000102717
-0.00349693
8.63581e-05
-0.00358793
6.80341e-05
-0.00367438
4.82338e-05
-0.00376103
2.72373e-05
-0.0038507
5.17665e-06
-0.00394495
-1.78285e-05
-0.00404461
-4.17064e-05
-0.00414977
-6.65012e-05
-0.00425988
-0.00437302
-9.19172e-05
8.05538e-06
-0.00029779
2.6677e-05
-0.000857064
5.06303e-05
-0.00138859
7.4907e-05
-0.00187169
9.54414e-05
-0.00228897
0.000109606
-0.00263163
0.000116311
-0.00290087
0.000115745
-0.00310613
0.000108913
-0.00326152
9.71548e-05
-0.00338219
8.17654e-05
-0.00348154
6.3785e-05
-0.00356995
4.39358e-05
-0.00365454
2.26539e-05
-0.00373975
1.57765e-07
-0.00382821
-2.33468e-05
-0.00392144
-4.78479e-05
-0.0040201
-7.32546e-05
-0.00412436
-9.9532e-05
-0.0042336
-0.00434602
-0.000126524
7.77098e-06
-0.000305561
2.54867e-05
-0.000874779
4.7899e-05
-0.001411
7.00875e-05
-0.00189388
8.81618e-05
-0.00230705
9.97075e-05
-0.00264317
0.00010383
-0.00290499
0.000100854
-0.00310315
9.18511e-05
-0.00325252
7.81599e-05
-0.00336849
6.10374e-05
-0.00346442
4.14666e-05
-0.00355038
2.01125e-05
-0.00363318
-2.63508e-06
-0.003717
-2.65513e-05
-0.00380429
-5.15633e-05
-0.00389643
-7.75667e-05
-0.0039941
-0.000104495
-0.00409743
-0.000132282
-0.00420582
-0.00431746
-0.000160848
7.46689e-06
-0.000313028
2.42387e-05
-0.000891551
4.50745e-05
-0.00143184
6.51594e-05
-0.00191396
8.07869e-05
-0.00232267
8.9755e-05
-0.00265214
9.13554e-05
-0.00290659
8.6038e-05
-0.00309783
7.49273e-05
-0.00324141
5.93578e-05
-0.00335292
4.05435e-05
-0.00344561
1.94109e-05
-0.00352925
-3.43125e-06
-0.00361034
-2.76241e-05
-0.00369281
-5.29985e-05
-0.00377891
-7.94744e-05
-0.00386995
-0.000106975
-0.0039666
-0.000135424
-0.00406899
-0.000164737
-0.0041765
-0.00428733
-0.000194866
7.14419e-06
-0.000320172
2.29372e-05
-0.000907344
4.21661e-05
-0.00145107
6.01373e-05
-0.00193193
7.33359e-05
-0.00233587
7.97699e-05
-0.00265858
7.89084e-05
-0.00290573
7.13148e-05
-0.00309024
5.8158e-05
-0.00322825
4.07607e-05
-0.00333553
2.02941e-05
-0.00342514
-2.37771e-06
-0.00350658
-2.6682e-05
-0.00358603
-5.23173e-05
-0.00366718
-7.91352e-05
-0.0037521
-0.000107071
-0.00384202
-0.000136066
-0.00393761
-0.000166035
-0.00403902
-0.000196883
-0.00414565
-0.000228568
6.804e-06
-0.000326976
2.15867e-05
-0.000922127
3.9183e-05
-0.00146866
5.50355e-05
-0.00194779
6.58269e-05
-0.00234666
6.9772e-05
-0.00266252
6.65085e-05
-0.00290247
5.67023e-05
-0.00308043
4.15578e-05
-0.00321311
2.2379e-05
-0.00331635
2.82626e-07
-0.00340304
-2.38851e-05
-0.00348241
-4.9641e-05
-0.00356028
-7.67048e-05
-0.00364011
-0.000104956
-0.00372385
-0.000134346
-0.00381263
-0.000164829
-0.00390712
-0.000196318
-0.00400753
6.44744e-06
-0.000333424
2.01916e-05
-0.000935871
3.6134e-05
-0.00148461
4.98674e-05
-0.00196152
5.82767e-05
-0.00235507
5.97797e-05
-0.00266402
5.41735e-05
-0.00289686
4.22162e-05
-0.00306848
2.51391e-05
-0.00319603
4.22593e-06
-0.00329544
-1.94425e-05
-0.00337938
-4.51101e-05
-0.00345674
-7.23013e-05
-0.00353309
-0.000100781
-0.00361163
-0.000130454
-0.00369417
-0.000161291
-0.00378179
-0.000193257
6.07569e-06
-0.000339499
1.8756e-05
-0.000948551
3.30279e-05
-0.00149888
4.4646e-05
-0.00197314
5.07013e-05
-0.00236113
4.98099e-05
-0.00266313
4.19195e-05
-0.00288897
2.78701e-05
-0.00305443
8.91329e-06
-0.00317707
-1.36926e-05
-0.00327283
-3.89168e-05
-0.00335415
-6.60479e-05
-0.00342961
-9.46578e-05
-0.00350448
-0.000124541
-0.00358175
-0.000155625
-0.00366309
5.6899e-06
-0.000345189
1.72844e-05
-0.000960146
2.98728e-05
-0.00151147
3.93836e-05
-0.00198265
4.31155e-05
-0.00236486
3.98786e-05
-0.0026599
2.97619e-05
-0.00287885
1.36758e-05
-0.00303834
-7.10931e-06
-0.00315629
-3.1369e-05
-0.00324857
-5.8119e-05
-0.0033274
-8.66934e-05
-0.00340103
-0.000116706
-0.00347446
-0.000147979
-0.00355048
5.2913e-06
-0.000350481
1.57808e-05
-0.000970635
2.6677e-05
-0.00152236
3.40916e-05
-0.00199006
3.55331e-05
-0.0023663
3.00002e-05
-0.00265436
1.77145e-05
-0.00286657
-3.3731e-07
-0.00302029
-2.29188e-05
-0.00313371
-4.87969e-05
-0.00322269
-7.70443e-05
-0.00329915
-0.000107042
-0.00337104
-0.000138442
-0.00344307
4.88114e-06
-0.000355362
1.42493e-05
-0.000980004
2.34482e-05
-0.00153156
2.87814e-05
-0.0019954
2.79673e-05
-0.00236549
2.01874e-05
-0.00264658
5.78871e-06
-0.00285217
-1.42076e-05
-0.00300029
-3.85123e-05
-0.0031094
-6.597e-05
-0.00319523
-9.56882e-05
-0.00326944
-0.00012709
-0.00333963
4.46081e-06
-0.000359823
1.26941e-05
-0.000988237
2.01938e-05
-0.00153906
2.34633e-05
-0.00199866
2.04319e-05
-0.00236246
1.04506e-05
-0.0026366
-6.00711e-06
-0.00283571
-2.78776e-05
-0.00297842
-5.38787e-05
-0.0030834
-8.28833e-05
-0.00316623
-0.000114047
-0.00323827
4.03194e-06
-0.000363854
1.11191e-05
-0.000995324
1.69206e-05
-0.00154486
1.81468e-05
-0.00199989
1.29396e-05
-0.00235725
8.52992e-07
-0.00262451
-1.76585e-05
-0.0028172
-4.13584e-05
-0.00295472
-6.90128e-05
-0.00305575
-9.9532e-05
-0.00313571
3.59651e-06
-0.000367451
9.52819e-06
-0.00100126
1.36355e-05
-0.00154897
1.28422e-05
-0.0019991
5.49414e-06
-0.0023499
-8.74123e-06
-0.00261028
-2.91662e-05
-0.00279677
-5.46415e-05
-0.00292925
-8.39092e-05
-0.00302648
3.15437e-06
-0.000370605
7.92481e-06
-0.00100603
1.03456e-05
-0.00155139
7.55836e-06
-0.00199631
-1.87004e-06
-0.00234047
-1.8176e-05
-0.00259397
-4.05137e-05
-0.00277444
-6.77206e-05
-0.00290204
2.70666e-06
-0.000373312
6.31218e-06
-0.00100963
7.05752e-06
-0.00155214
2.31851e-06
-0.00199157
-9.2236e-06
-0.00232893
-2.75004e-05
-0.0025757
-5.16945e-05
-0.00275024
2.25485e-06
-0.000375567
4.69493e-06
-0.00101207
3.77222e-06
-0.00155121
-2.91687e-06
-0.00198488
-1.64709e-05
-0.00231538
-3.67006e-05
-0.00255547
1.7991e-06
-0.000377366
3.07755e-06
-0.00101335
5.43669e-07
-0.00154868
-8.11826e-06
-0.00197622
-2.36372e-05
-0.00229986
1.33827e-06
-0.000378704
1.4494e-06
-0.00101346
-2.76269e-06
-0.00154447
-1.32645e-05
-0.00196572
-0.00228241
8.69597e-07
-0.000379574
-1.73415e-07
-0.00101242
-6.01062e-06
-0.00153863
-1.83559e-05
-0.00195337
3.69331e-07
-0.000379943
-1.80282e-06
-0.00101025
-9.2287e-06
-0.0015312
-1.53853e-07
-0.000379789
-3.42417e-06
-0.00100698
-0.00152221
-5.66099e-07
-0.000379223
-5.02366e-06
-0.00100252
-1.01982e-06
-0.000378203
-0.000376721
0.000345056
0.000346322
-8.08924e-07
0.000347131
0.000920728
-3.66982e-07
0.000347498
-4.09993e-06
0.000924461
0.00140265
5.57663e-08
0.000347442
-2.5047e-06
0.000927021
0.0014104
5.92974e-07
0.000346849
-8.91966e-07
0.000928506
-7.07037e-06
0.00141658
0.00180604
1.06019e-06
0.000345789
7.16791e-07
0.00092885
-3.85542e-06
0.00142115
-1.44692e-05
0.00181665
0.00211866
1.51478e-06
0.000344274
2.32446e-06
0.00092804
-5.88947e-07
0.00142407
-9.35722e-06
0.00182542
-2.47164e-05
0.00213402
0.00236083
1.96341e-06
0.000342311
3.9222e-06
0.000926081
2.62245e-06
0.00142537
-4.20383e-06
0.00183224
-1.75759e-05
0.00214739
0.00238067
2.40725e-06
0.000339903
5.51622e-06
0.000922972
5.86962e-06
0.00142501
1.01754e-06
0.0018371
-1.03573e-05
0.00215876
-2.82217e-05
0.00239853
0.00257164
2.84602e-06
0.000337057
7.10307e-06
0.000918715
9.11462e-06
0.001423
6.19281e-06
0.00184002
-3.06258e-06
0.00216802
-1.89148e-05
0.00241439
-4.06521e-05
0.00259338
0.00272252
3.27839e-06
0.000333779
8.67833e-06
0.000913315
1.2358e-05
0.00141932
1.14261e-05
0.00184095
4.2767e-06
0.00217517
-9.50514e-06
0.00242817
-2.92892e-05
0.00261317
-5.40738e-05
0.00274731
0.00284725
3.70485e-06
0.000330074
1.0239e-05
0.000906781
1.55921e-05
0.00141397
1.66706e-05
0.00183987
1.16695e-05
0.00218017
1.02975e-07
0.00243973
-1.77709e-05
0.00263104
-4.07397e-05
0.00277028
-6.76701e-05
0.00287419
0.002957
4.12368e-06
0.000325951
1.17809e-05
0.000899124
1.88087e-05
0.00140694
2.19176e-05
0.00183676
1.90928e-05
0.002183
9.61641e-06
0.00244921
-6.12827e-06
0.00264678
-2.72156e-05
0.00279136
-5.24444e-05
0.00289941
-8.07284e-05
0.00298529
0.00305986
4.53293e-06
0.000321418
1.33001e-05
0.000890357
2.20004e-05
0.00139824
2.71567e-05
0.00183161
2.65513e-05
0.0021836
1.93049e-05
0.00245646
5.65234e-06
0.00266044
-1.35116e-05
0.00281053
-3.6993e-05
0.0029229
-6.36806e-05
0.00301198
-9.26955e-05
0.00308888
0.0031612
4.93111e-06
0.000316487
1.47924e-05
0.000880496
2.51602e-05
0.00138787
3.23786e-05
0.00182439
3.40291e-05
0.00218195
2.90526e-05
0.00246143
1.75524e-05
0.00267194
3.78418e-07
0.0028277
-2.13225e-05
0.0029446
-4.63777e-05
0.00303703
-7.38734e-05
0.00311637
-0.000103183
0.00319051
0.00326436
5.31688e-06
0.00031117
1.62536e-05
0.000869559
2.82803e-05
0.00137585
3.75717e-05
0.0018151
4.15099e-05
0.00217801
3.88505e-05
0.00246409
2.95593e-05
0.00268123
1.44065e-05
0.00284285
-5.44449e-06
0.00296445
-2.88265e-05
0.00306041
-5.47737e-05
0.00314232
-8.2612e-05
0.00321835
-0.000111942
0.00329369
0.00337137
5.68897e-06
0.000305481
1.76796e-05
0.000857568
3.13525e-05
0.00136217
4.2724e-05
0.00180373
4.89791e-05
0.00217176
4.86845e-05
0.00246439
4.16596e-05
0.00268825
2.85971e-05
0.00285592
1.06346e-05
0.00298241
-1.10347e-05
0.00308208
-3.54024e-05
0.00316669
-6.17466e-05
0.00324469
-8.96267e-05
0.00332157
-0.000118821
0.00340057
0.00348356
6.04621e-06
0.000299434
1.90659e-05
0.000844549
3.43681e-05
0.00134687
4.78228e-05
0.00179027
5.64216e-05
0.00216316
5.8538e-05
0.00246227
5.38373e-05
0.00269295
4.29229e-05
0.00286683
2.69031e-05
0.00299843
6.98939e-06
0.003102
-1.57662e-05
0.00318944
-4.05922e-05
0.00326952
-6.70044e-05
0.00334798
-9.47476e-05
0.00342831
-0.000123717
0.00351253
0.00360188
6.38738e-06
0.000293047
2.04083e-05
0.000830528
3.73186e-05
0.00132996
5.28551e-05
0.00177473
6.38212e-05
0.00215219
6.83935e-05
0.0024577
6.6075e-05
0.00269527
5.73696e-05
0.00287554
4.33483e-05
0.00301245
2.52361e-05
0.00312011
4.12686e-06
0.00321055
-1.9155e-05
0.0032928
-4.40806e-05
0.00337291
-7.03573e-05
0.00345459
-9.78529e-05
0.00354003
-0.000126514
0.00363054
-0.000156295
0.00372688
0.00382924
6.71135e-06
0.000286336
2.17023e-05
0.000815537
4.01948e-05
0.00131147
5.78071e-05
0.00175712
7.11604e-05
0.00213884
7.82319e-05
0.00245063
7.83541e-05
0.00269515
7.19205e-05
0.00288197
5.99562e-05
0.00302442
4.36945e-05
0.00313637
2.42698e-05
0.00322998
2.55589e-06
0.00331452
-2.08617e-05
0.00339633
-4.56568e-05
0.00347938
-7.16661e-05
0.00356604
-9.88149e-05
0.00365769
-0.000127045
0.00375511
-0.000156275
0.00385847
0.00396721
7.017e-06
0.000279319
2.29436e-05
0.00079961
4.29875e-05
0.00129142
6.26644e-05
0.00173744
7.84207e-05
0.00212308
8.80325e-05
0.00244102
9.0654e-05
0.00269253
8.65571e-05
0.00288607
7.67114e-05
0.00303426
6.23519e-05
0.00315073
4.46516e-05
0.00324768
2.45386e-05
0.00333463
2.64331e-06
0.00341822
-2.06533e-05
0.00350268
-4.51642e-05
0.00359055
-7.07915e-05
0.00368332
-9.74652e-05
0.00378178
-0.000125106
0.00388611
-0.000153637
0.00399575
0.00410892
-0.000183019
7.3032e-06
0.000272016
2.41276e-05
0.000782786
4.56873e-05
0.00126986
6.7412e-05
0.00171572
8.55826e-05
0.00210491
9.77734e-05
0.00242883
0.000102952
0.00268735
0.000101259
0.00288776
9.35964e-05
0.00304192
8.11944e-05
0.00316313
6.52612e-05
0.00326361
4.67787e-05
0.00335311
2.64339e-05
0.00343857
4.64509e-06
0.00352447
-1.83556e-05
0.00361355
-4.24529e-05
0.00370741
-6.75645e-05
0.00380689
-9.36129e-05
0.00391216
-0.000120542
0.00402267
0.00413667
-0.00014829
7.56893e-06
0.000264447
2.52501e-05
0.000765104
4.82845e-05
0.00124683
7.20345e-05
0.00169197
9.26254e-05
0.00208432
0.000107431
0.00241402
0.000115225
0.00267955
0.000116003
0.00288698
0.000110592
0.00304734
0.000100206
0.00317352
8.60865e-05
0.00327773
6.92678e-05
0.00336993
5.04942e-05
0.00345734
3.02346e-05
0.00354473
8.75198e-06
0.00363503
-1.38084e-05
0.00372998
-3.73539e-05
0.00383044
-6.18065e-05
0.00393661
-8.71442e-05
0.00404801
0.00416278
-0.000113253
7.81317e-06
0.000256633
2.63067e-05
0.000746611
5.07695e-05
0.00122237
7.65157e-05
0.00166622
9.95275e-05
0.00206131
0.000116979
0.00239657
0.000127446
0.00266909
0.000130765
0.00288366
0.000127676
0.00305042
0.00011937
0.00318182
0.000107113
0.00328999
9.1995e-05
0.00338505
7.48175e-05
0.00347452
5.61018e-05
0.00356344
3.61513e-05
0.00365498
1.51339e-05
0.00375099
-6.84696e-06
0.00385242
-2.96953e-05
0.00395946
-5.3447e-05
0.00407176
0.00418727
-7.79378e-05
8.03495e-06
0.000248598
2.72932e-05
0.000727353
5.31326e-05
0.00119653
8.08393e-05
0.00163852
0.000106266
0.00203588
0.000126392
0.00237644
0.000139586
0.0026559
0.000145518
0.00287773
0.000144825
0.00305112
0.000138665
0.00318798
0.000128326
0.00330033
0.000114948
0.00339843
9.93935e-05
0.00349007
8.22393e-05
0.0035806
6.38311e-05
0.00367339
4.43651e-05
0.00377046
2.39552e-05
0.00387283
2.66407e-06
0.00398075
-1.93855e-05
0.00409381
0.00421031
-4.24286e-05
8.23341e-06
0.000240365
2.82055e-05
0.000707381
5.5364e-05
0.00116937
8.49886e-05
0.00160889
0.000112818
0.00200805
0.00013564
0.00235362
0.000151614
0.00263992
0.000160231
0.00286911
0.000162011
0.00304934
0.00015807
0.00319192
0.000149707
0.00330869
0.000138112
0.00341002
0.000124211
0.00350397
0.000108637
0.00359617
9.1783e-05
0.00369025
7.38752e-05
0.00378837
5.5045e-05
0.00389166
3.53866e-05
0.00400041
1.48954e-05
0.00411431
0.00423236
-7.15563e-06
8.40777e-06
0.000231957
2.90397e-05
0.000686749
5.74543e-05
0.00114095
8.89464e-05
0.0015774
0.000119157
0.00197784
0.000144694
0.00232808
0.000163498
0.00262112
0.000174872
0.00285774
0.000179206
0.003045
0.000177559
0.00319357
0.000171236
0.00331501
0.000161473
0.00341979
0.000149257
0.00351619
0.000135285
0.00361014
0.000119997
0.00370553
0.000103655
0.00380471
8.64064e-05
0.00390891
6.83298e-05
0.00401849
4.94358e-05
0.0041332
0.00425216
2.96333e-05
8.5573e-06
0.0002234
2.97921e-05
0.000665514
5.93941e-05
0.00111135
9.26958e-05
0.0015441
0.00012526
0.00194528
0.00015352
0.00229982
0.000175202
0.00259944
0.000189405
0.00284354
0.000196377
0.00303803
0.000197105
0.00319284
0.000192891
0.00331923
0.000185011
0.00342767
0.000174518
0.00352668
0.00016217
0.00362249
0.000148463
0.00371924
0.000133695
0.00381948
0.000118035
0.00392457
0.000101573
0.00403495
8.43589e-05
0.00415041
0.00427015
6.63736e-05
8.68144e-06
0.000214719
3.04595e-05
0.000643736
6.11743e-05
0.00108064
9.62197e-05
0.00150905
0.000131101
0.0019104
0.000162087
0.00226884
0.000186688
0.00257483
0.000203792
0.00282643
0.000213487
0.00302834
0.000216676
0.00318965
0.000214645
0.00332126
0.000208708
0.0034336
0.000199977
0.00353541
0.00018928
0.00363319
0.000177169
0.00373135
0.000163982
0.00383266
0.000149918
0.00393863
0.00013508
0.00404979
0.000119518
0.00416597
0.00428643
0.000103241
8.7797e-06
0.000205939
3.10386e-05
0.000621477
6.27864e-05
0.00104889
9.95013e-05
0.00147234
0.000136652
0.00187325
0.000170359
0.00223513
0.000197915
0.00254728
0.000217991
0.00280636
0.000230498
0.00301583
0.000236238
0.00318391
0.000236472
0.00332102
0.00023254
0.00343753
0.000225618
0.00354234
0.000216601
0.00364221
0.000206101
0.00374185
0.000194505
0.00384426
0.000182039
0.0039511
0.000168822
0.004063
0.000154902
0.00417989
0.00430103
0.000140298
8.85173e-06
0.000197087
3.1527e-05
0.000598802
6.42224e-05
0.00101619
0.000102524
0.00143404
0.000141887
0.00183388
0.0001783
0.00219872
0.000208843
0.00251673
0.000231957
0.00278324
0.000247365
0.00300042
0.000255753
0.00317553
0.000258337
0.00331844
0.000256482
0.00343939
0.00025142
0.0035474
0.000244116
0.00364951
0.000235247
0.00375072
0.00022525
0.00385426
0.000214383
0.00396196
0.000202783
0.0040746
0.000190501
0.00419218
0.00431398
0.000177551
8.89734e-06
0.00018819
3.19221e-05
0.000575777
6.54748e-05
0.000982642
0.000105272
0.00139424
0.000146781
0.00179237
0.000185873
0.00215962
0.000219425
0.00248318
0.000245642
0.00275703
0.000264043
0.00298202
0.000275177
0.00316439
0.000280207
0.00331341
0.000280506
0.00343909
0.00027736
0.00355054
0.000271807
0.00365506
0.000264591
0.00375794
0.000256203
0.00386265
0.000246938
0.00397123
0.000236952
0.00408459
0.000226306
0.00420282
0.00432528
0.000215003
8.91646e-06
0.000179273
3.22224e-05
0.000552471
6.6537e-05
0.000948327
0.00010773
0.00135305
0.000151306
0.0017488
0.000193042
0.00211789
0.000229616
0.00244661
0.000258995
0.00272765
0.000280479
0.00296054
0.000294464
0.00315041
0.00030204
0.00330583
0.000304578
0.00343655
0.000303413
0.00355171
0.000299654
0.00365882
0.000294117
0.00376347
0.000287351
0.00386941
0.000279691
0.00397889
0.00027132
0.00409296
0.000262306
0.00421184
0.00433494
0.00025265
8.90918e-06
0.000170364
3.24265e-05
0.000528953
6.74032e-05
0.00091335
0.000109885
0.00131056
0.000155438
0.00170325
0.000199768
0.00207356
0.000239367
0.00240701
0.000271961
0.00269505
0.000296619
0.00293588
0.000313563
0.00313346
0.000323791
0.00329561
0.000328662
0.00343168
0.000329551
0.00355082
0.000327636
0.00366074
0.000323808
0.0037673
0.00031868
0.00387454
0.000312632
0.00398494
0.000305874
0.00409972
0.000298491
0.00421922
0.00434295
0.000290483
8.87577e-06
0.000161488
3.25338e-05
0.000505295
6.80687e-05
0.000877816
0.000111722
0.00126691
0.000159151
0.00165582
0.000206012
0.0020267
0.000248628
0.00236439
0.000284483
0.0026592
0.000312402
0.00290796
0.000332416
0.00311345
0.000345412
0.00328261
0.000352718
0.00342438
0.000355741
0.00354779
0.000355727
0.00366075
0.000353645
0.00376938
0.000350173
0.00387801
0.000345744
0.00398937
0.000340602
0.00410486
0.00033485
0.00422497
0.00434931
0.00032849
8.81665e-06
0.000152672
3.2544e-05
0.000481568
6.85299e-05
0.00084183
0.000113231
0.00122221
0.000162421
0.00160663
0.000211738
0.00197738
0.000257348
0.00231878
0.0002965
0.00262005
0.000327765
0.00287669
0.000350962
0.00309025
0.000366846
0.00326673
0.000376698
0.00341452
0.000381946
0.00354255
0.0003839
0.0036588
0.000383604
0.00376968
0.000381813
0.0038798
0.000379015
0.00399216
0.000375492
0.00410839
0.00037137
0.00422909
0.00435402
0.000366662
8.7324e-06
0.000143939
3.24577e-05
0.000457843
6.87844e-05
0.000805503
0.000114402
0.00117659
0.000165228
0.0015558
0.000216908
0.0019257
0.000265476
0.00227021
0.000307951
0.00257757
0.00034264
0.002842
0.000369134
0.00306376
0.000388033
0.00324783
0.000400551
0.00340201
0.000408125
0.00353497
0.000412121
0.0036548
0.000413663
0.00376814
0.000413581
0.00387988
0.000412428
0.00399332
0.000410529
0.00411028
0.00040804
0.00423158
0.00435707
0.000404984
8.62378e-06
0.000135316
3.2276e-05
0.000434191
6.88311e-05
0.000768948
0.000115227
0.0011302
0.000167552