/*--------------------------------*- C++ -*----------------------------------*\
  =========                 |
  \\      /  F ield         | OpenFOAM: The Open Source CFD Toolbox
   \\    /   O peration     | Website:  https://openfoam.org
    \\  /    A nd           | Version:  7
     \\/     M anipulation  |
\*---------------------------------------------------------------------------*/
FoamFile
{
    version     2.0;
    format      ascii;
    class       surfaceScalarField;
    location    "220";
    object      phi;
}
// * * * * * * * * * * * * * * * * * * * * * * * * * * * * * * * * * * * * * //

dimensions      [0 3 -1 0 0 0 0];

internalField   nonuniform List<scalar> 
8842
(
-6.12701e-07
-5.84988e-05
5.91115e-05
-2.62508e-06
-0.000158733
0.000160746
-0.000246705
0.0002503
-7.93128e-07
-5.77057e-05
-3.26077e-06
-0.000156266
-0.000242442
-9.69892e-07
-5.67358e-05
-3.88046e-06
-0.000153355
-0.000237534
-1.14197e-06
-5.55938e-05
-4.48085e-06
-0.000150016
-0.000232007
-1.30843e-06
-5.42854e-05
-5.05897e-06
-0.000146266
-0.00022589
-1.46847e-06
-5.28169e-05
-5.61226e-06
-0.000142122
-0.000219211
-1.62138e-06
-5.11956e-05
-6.13852e-06
-0.000137605
-0.000212004
-1.76653e-06
-4.9429e-05
-6.63586e-06
-0.000132735
-0.000204301
-1.90339e-06
-4.75256e-05
-7.10265e-06
-0.000127536
-1.52666e-05
-0.000196137
-0.00025339
-2.03147e-06
-4.54942e-05
-7.53747e-06
-0.00012203
-1.61269e-05
-0.000187547
-0.000242099
-2.15034e-06
-4.33438e-05
-7.93907e-06
-0.000116241
-1.69179e-05
-0.000178568
-0.000230362
-2.25962e-06
-4.10842e-05
-8.30629e-06
-0.000110195
-1.76374e-05
-0.000169237
-0.000218224
-2.35893e-06
-3.87253e-05
-8.63801e-06
-0.000103916
-1.82837e-05
-0.000159592
-0.000205734
-2.44789e-06
-3.62774e-05
-8.93304e-06
-9.74304e-05
-1.88545e-05
-0.00014967
-0.000192938
-2.52609e-06
-3.37513e-05
-9.19009e-06
-9.07664e-05
-1.93476e-05
-0.000139513
-0.000179886
-2.59307e-06
-3.11582e-05
-9.40773e-06
-8.39517e-05
-1.97604e-05
-0.00012916
-0.000166628
-2.64832e-06
-2.85099e-05
-9.58433e-06
-7.70157e-05
-2.00897e-05
-0.000118655
-3.35019e-05
-0.000153216
-0.00018097
-2.69129e-06
-2.58186e-05
-9.71808e-06
-6.9989e-05
-2.03319e-05
-0.000108041
-3.38444e-05
-0.000139704
-0.000165183
-2.72137e-06
-2.30973e-05
-9.80699e-06
-6.29033e-05
-2.04832e-05
-9.73644e-05
-3.40396e-05
-0.000126147
-0.00014939
-2.73796e-06
-2.03593e-05
-9.84907e-06
-5.57922e-05
-2.05395e-05
-8.6674e-05
-3.40805e-05
-0.000112606
-0.000133657
-2.74046e-06
-1.76188e-05
-9.84228e-06
-4.86904e-05
-2.04964e-05
-7.60199e-05
-3.39601e-05
-9.91425e-05
-4.95608e-05
-0.000118057
-0.000133158
-2.72832e-06
-1.48905e-05
-9.78472e-06
-4.1634e-05
-2.03501e-05
-6.54545e-05
-3.36711e-05
-8.58215e-05
-4.90645e-05
-0.000102663
-0.000116304
-2.70105e-06
-1.21895e-05
-9.67465e-06
-3.46604e-05
-2.00967e-05
-5.50324e-05
-3.32068e-05
-7.27113e-05
-4.83131e-05
-8.75568e-05
-9.9823e-05
-2.65827e-06
-9.53121e-06
-9.51071e-06
-2.7808e-05
-1.9733e-05
-4.48102e-05
-3.25611e-05
-5.98833e-05
-4.72963e-05
-7.28216e-05
-8.38121e-05
-2.59977e-06
-6.93144e-06
-9.292e-06
-2.11157e-05
-1.92568e-05
-3.48454e-05
-3.17293e-05
-4.74107e-05
-4.60057e-05
-5.85453e-05
-6.14451e-05
-6.83726e-05
-7.73474e-05
-2.52554e-06
-4.4059e-06
-9.01825e-06
-1.4623e-05
-1.86669e-05
-2.51967e-05
-3.07086e-05
-3.53691e-05
-4.44351e-05
-4.48188e-05
-5.91961e-05
-5.36116e-05
-6.21477e-05
-2.43578e-06
-1.97013e-06
-8.68987e-06
-8.36891e-06
-1.79636e-05
-1.59229e-05
-2.94981e-05
-2.38347e-05
-4.25814e-05
-3.17355e-05
-5.6553e-05
-3.964e-05
-4.79001e-05
-2.33095e-06
3.60829e-07
-8.30812e-06
-2.39175e-06
-1.71487e-05
-7.08231e-06
-2.80993e-05
-1.28841e-05
-4.04448e-05
-1.939e-05
-5.35131e-05
-2.65717e-05
-6.66731e-05
-3.47401e-05
-4.44782e-05
-2.21182e-06
2.57265e-06
-7.8751e-06
3.27153e-06
-1.62256e-05
1.26818e-06
-2.65167e-05
-2.59298e-06
-3.80297e-05
-7.87698e-06
-5.00795e-05
-1.45218e-05
-6.20136e-05
-2.2806e-05
-3.32865e-05
-2.07937e-06
4.65201e-06
-7.39381e-06
8.58598e-06
-1.51996e-05
9.07392e-06
-2.47574e-05
6.96485e-06
-3.53445e-05
2.7101e-06
-4.6261e-05
-3.60531e-06
-5.68298e-05
-1.22373e-05
-2.37253e-05
-1.9349e-06
6.58691e-06
-6.86814e-06
1.35192e-05
-1.40775e-05
1.62833e-05
-2.28314e-05
1.57187e-05
-3.24018e-05
1.22805e-05
-4.20721e-05
6.06501e-06
-5.11377e-05
-3.17167e-06
-5.89011e-05
-1.59619e-05
-3.30692e-05
-1.77994e-06
8.36685e-06
-6.30274e-06
1.8042e-05
-1.28681e-05
2.28487e-05
-2.07514e-05
2.3602e-05
-2.92182e-05
2.07473e-05
-3.75331e-05
1.438e-05
-4.49611e-05
4.25626e-06
-5.07632e-05
-1.01597e-05
-2.96436e-05
-1.61621e-06
9.98307e-06
-5.70298e-06
2.21288e-05
-1.15812e-05
2.87269e-05
-1.85323e-05
3.0553e-05
-2.58138e-05
2.80288e-05
-3.26694e-05
2.12355e-05
-3.83306e-05
9.91745e-06
-4.20138e-05
-6.47659e-06
-4.2913e-05
-2.87444e-05
-5.78762e-05
-1.44561e-06
1.14287e-05
-5.07473e-06
2.57579e-05
-1.0228e-05
3.38802e-05
-1.6191e-05
3.6516e-05
-2.22117e-05
3.40496e-05
-2.75104e-05
2.65343e-05
-3.12829e-05
1.36899e-05
-3.26978e-05
-5.06174e-06
-3.08905e-05
-3.05517e-05
-6.38104e-05
-1.27009e-06
1.26988e-05
-4.42418e-06
2.8912e-05
-8.82004e-06
3.8276e-05
-1.37455e-05
4.14415e-05
-1.84368e-05
3.87408e-05
-2.20886e-05
3.01862e-05
-2.38587e-05
1.546e-05
-2.28655e-05
-6.05491e-06
-1.8184e-05
-3.52332e-05
-7.31545e-05
-1.09165e-06
1.37904e-05
-3.75762e-06
3.1578e-05
-7.36951e-06
4.18879e-05
-1.12147e-05
4.52867e-05
-1.4515e-05
4.20411e-05
-1.6438e-05
3.21091e-05
-1.6101e-05
1.5123e-05
-1.25708e-05
-9.58504e-06
-4.86036e-06
-4.29437e-05
8.07444e-06
-8.60893e-05
-0.000140301
-9.12202e-07
1.47026e-05
-3.08121e-06
3.3747e-05
-5.88821e-06
4.46949e-05
-8.61687e-06
4.80154e-05
-1.04723e-05
4.38966e-05
-1.05926e-05
3.22294e-05
-8.05314e-06
1.25836e-05
-1.86806e-06
-1.57701e-05
9.01218e-06
-5.38239e-05
2.57001e-05
-0.000102777
-0.000163968
-7.33543e-07
1.54362e-05
-2.40068e-06
3.54141e-05
-4.38727e-06
4.66815e-05
-5.96962e-06
4.95977e-05
-6.33342e-06
4.42604e-05
-4.58503e-06
3.0481e-05
2.42888e-07
7.75563e-06
9.1904e-06
-2.47176e-05
2.33676e-05
-6.80011e-05
4.39531e-05
-0.000123363
7.21823e-05
-0.000192197
-0.000275924
-5.57237e-07
1.59934e-05
-1.72114e-06
3.6578e-05
-2.87666e-06
4.7837e-05
-3.2887e-06
5.00098e-05
-2.12055e-06
4.30922e-05
1.55507e-06
2.68054e-05
8.7499e-06
5.60812e-07
2.05564e-05
-3.65242e-05
3.81449e-05
-8.55896e-05
6.27547e-05
-0.000147972
9.56781e-05
-0.00022512
-0.000318476
-3.84572e-07
1.6378e-05
-1.04684e-06
3.72403e-05
-1.36476e-06
4.8155e-05
-5.87448e-07
4.92325e-05
2.14732e-06
4.03575e-05
7.8024e-06
2.11503e-05
1.74344e-05
-9.0712e-06
3.21883e-05
-5.12781e-05
5.32904e-05
-0.000106692
8.20348e-05
-0.000176717
0.000119759
-0.000262845
0.000167805
-0.000366522
-0.000488985
-2.1659e-07
1.65946e-05
-3.81071e-07
3.74048e-05
1.4194e-07
4.76319e-05
2.12373e-06
4.72507e-05
6.45534e-06
3.60259e-05
1.41371e-05
1.34685e-05
2.6271e-05
-2.12051e-05
4.40527e-05
-6.90599e-05
6.87603e-05
-0.000131399
0.000101734
-0.00020969
0.000144341
-0.000305452
0.000197929
-0.00042011
-0.000554805
-5.37055e-08
1.66483e-05
2.74316e-07
3.70768e-05
1.6395e-06
4.62668e-05
4.83833e-06
4.40518e-05
1.07938e-05
3.00704e-05
2.05456e-05
3.71672e-06
3.52411e-05
-3.59006e-05
5.61245e-05
-8.99433e-05
8.45195e-05
-0.000159794
0.000121801
-0.000246971
0.000169349
-0.000353
0.000228486
-0.000479247
0.000300388
-0.000626707
-0.000795771
1.03863e-07
1.65444e-05
9.18538e-07
3.62621e-05
3.12619e-06
4.40591e-05
7.55323e-06
3.96248e-05
1.5158e-05
2.24656e-05
2.70211e-05
-8.14638e-06
4.43349e-05
-5.32144e-05
6.83885e-05
-0.000113997
0.000100544
-0.00019195
0.000142196
-0.000288624
0.000194717
-0.000405521
0.00025937
-0.0005439
0.00033721
-0.000704547
0.000428962
-0.000887523
-0.00109193
2.56329e-07
1.62881e-05
1.55221e-06
3.49662e-05
4.6028e-06
4.10085e-05
1.02693e-05
3.39583e-05
1.95485e-05
1.31864e-05
3.35632e-05
-2.21612e-05
5.35498e-05
-7.3201e-05
8.08377e-05
-0.000141285
0.000116817
-0.000227929
0.000162887
-0.000334694
0.000220384
-0.000463018
0.000290476
-0.000613992
0.000374044
-0.000788115
0.000471547
-0.000985026
-0.00120328
4.04358e-07
1.58837e-05
2.17712e-06
3.31934e-05
6.07254e-06
3.71131e-05
1.29911e-05
2.70397e-05
2.39709e-05
2.20659e-06
4.01781e-05
-3.83683e-05
6.28906e-05
-9.59135e-05
9.34721e-05
-0.000171866
0.000133329
-0.000267786
0.000183845
-0.000385211
0.00024629
-0.000525462
0.000321695
-0.000689397
0.000410716
-0.000877137
0.000513484
-0.00108779
0.00062948
-0.00131928
-0.00156825
5.48959e-07
1.53347e-05
2.79627e-06
3.09461e-05
7.54087e-06
3.23685e-05
1.57266e-05
1.8854e-05
2.84355e-05
-1.05023e-05
4.68769e-05
-5.68097e-05
7.23675e-05
-0.000121404
0.000106297
-0.000205796
0.000150074
-0.000311562
0.000205041
-0.000440178
0.000272369
-0.000592789
0.000352908
-0.000769936
0.000447035
-0.000971264
0.000554501
-0.00119526
0.000674313
-0.00143909
0.000804712
-0.00169865
-0.00196871
6.91456e-07
1.46433e-05
3.41366e-06
2.82239e-05
9.01509e-06
2.67671e-05
1.84865e-05
9.38257e-06
3.29558e-05
-2.49715e-05
5.36748e-05
-7.75287e-05
8.19943e-05
-0.000149724
0.00011932
-0.000243122
0.000167043
-0.000359286
0.000226442
-0.000499577
0.000298546
-0.000664893
0.00038398
-0.00085537
0.000482794
-0.00107008
0.000594312
-0.00130678
0.000717049
-0.00156183
0.000848724
-0.00183033
-0.00210636
8.33423e-07
1.38099e-05
4.03408e-06
2.50233e-05
1.0504e-05
2.02972e-05
2.12838e-05
-1.39725e-06
3.75481e-05
-4.12358e-05
6.05894e-05
-0.00010057
9.17862e-05
-0.00018092
0.000132547
-0.000283883
0.000184226
-0.000410965
0.000248003
-0.000563353
0.00032473
-0.00074162
0.000414757
-0.000945397
0.000517761
-0.00117308
0.000632614
-0.00142163
0.000757336
-0.00168655
0.000889176
-0.00196217
0.0010248
-0.00224198
-0.00252038
9.76603e-07
1.28333e-05
4.66283e-06
2.1337e-05
1.20172e-05
1.29428e-05
2.41324e-05
-1.35124e-05
4.22296e-05
-5.9333e-05
6.76387e-05
-0.000125979
0.000101757
-0.000215039
0.000145981
-0.000328107
0.000201603
-0.000466586
0.000269669
-0.000631419
0.000350811
-0.000822762
0.000445061
-0.00103965
0.000551686
-0.00127971
0.000669091
-0.00153904
0.000794827
-0.00181229
0.000925748
-0.00209309
0.00105829
-0.00237452
0.00118871
-0.0026508
-0.00291456
1.12283e-06
1.17104e-05
5.30548e-06
1.71544e-05
1.3565e-05
4.68323e-06
2.70468e-05
-2.69942e-05
4.70176e-05
-7.93038e-05
7.48394e-05
-0.000153801
0.000111918
-0.000252117
0.000159618
-0.000375807
0.000219141
-0.000526109
0.000291365
-0.000703643
0.000376658
-0.000908055
0.000474694
-0.00113768
0.000584303
-0.00138932
0.000703426
-0.00165816
0.000829194
-0.00193805
0.000958161
-0.00222205
0.00108666
-0.00250303
0.0012111
-0.00277524
0.00132863
-0.00303209
-0.00327293
1.27392e-06
1.04365e-05
5.96756e-06
1.24607e-05
1.51572e-05
-4.50639e-06
3.00407e-05
-4.18777e-05
5.19275e-05
-0.000101191
8.22046e-05
-0.000184078
0.000122272
-0.000292185
0.000173442
-0.000426976
0.000236793
-0.000589461
0.000312997
-0.000779847
0.000402118
-0.000997176
0.000503436
-0.001239
0.000615334
-0.00150121
0.00073531
-0.00177814
0.000860142
-0.00206289
0.000986194
-0.0023481
0.00110984
-0.00262667
0.00122775
-0.00289316
0.00133759
-0.00314193
-0.00337354
0.0014382
1.43163e-06
9.00489e-06
6.6543e-06
7.23808e-06
1.68029e-05
-1.4655e-05
3.31263e-05
-5.82011e-05
5.6972e-05
-0.000125036
8.97424e-05
-0.000216848
0.000132816
-0.000335258
0.000187426
-0.000481586
0.000254497
-0.000656533
0.000334454
-0.000859804
0.000427019
-0.00108974
0.000531055
-0.00134304
0.000644499
-0.00161466
0.000764452
-0.00189809
0.00088742
-0.00218585
0.00100969
-0.00247038
0.00112781
-0.00274478
0.00123883
-0.00300418
0.00134095
-0.00324404
-0.00346607
0.00143347
1.59754e-06
7.40735e-06
7.37038e-06
1.46524e-06
1.85102e-05
-2.57948e-05
3.63134e-05
-7.60043e-05
6.21594e-05
-0.000150882
9.74543e-05
-0.000252143
0.000143535
-0.000381339
0.000201529
-0.00053958
0.000272172
-0.000727176
0.000355604
-0.000943236
0.000451172
-0.00118531
0.000557309
-0.00144917
0.000671531
-0.00172888
0.000790595
-0.00201715
0.000910834
-0.00230609
0.00102859
-0.00258813
0.00114065
-0.00285685
0.00124456
-0.00310809
0.00133907
-0.00333855
-0.00355093
0.00142393
1.77303e-06
5.63432e-06
8.11972e-06
-4.88145e-06
2.02852e-05
-3.79603e-05
3.96089e-05
-9.5328e-05
6.74934e-05
-0.000178767
0.000105334
-0.000289984
0.000154405
-0.00043041
0.000215697
-0.000600873
0.000289722
-0.0008012
0.000376297
-0.00102981
0.000474376
-0.00128339
0.000581961
-0.00155676
0.000696177
-0.0018431
0.000813521
-0.0021345
0.000930253
-0.00242283
0.00104287
-0.00270074
0.00114852
-0.0029625
0.00124525
-0.00320483
0.00133237
-0.00342566
-0.00362859
0.00141003
1.95919e-06
3.67513e-06
8.90529e-06
-1.18276e-05
2.21322e-05
-5.11872e-05
4.30159e-05
-0.000116212
7.29716e-05
-0.000208723
0.000113367
-0.000330379
0.000165389
-0.000482431
0.000229861
-0.000665345
0.000307033
-0.000878373
0.000396374
-0.00111915
0.000496426
-0.00138344
0.000604777
-0.00166511
0.000718217
-0.00195654
0.000833064
-0.00224934
0.000945612
-0.00253537
0.0010526
-0.00280774
0.00115162
-0.00306152
0.00124125
-0.00329446
0.00132128
-0.00350569
-0.00369958
0.00139227
2.15683e-06
1.5183e-06
9.72904e-06
-1.93998e-05
2.40533e-05
-6.55115e-05
4.65338e-05
-0.000138692
7.85857e-05
-0.000240774
0.00012153
-0.000373323
0.000176439
-0.00053734
0.000243937
-0.000732842
0.00032398
-0.000958416
0.000415665
-0.00121084
0.000517118
-0.00148489
0.000625545
-0.00177354
0.000737466
-0.00206846
0.000849111
-0.00236099
0.00095691
-0.00264317
0.00105794
-0.00290877
0.00115025
-0.00315383
0.00123294
-0.00337715
0.00130627
-0.00357902
-0.00376441
0.0013711
2.36643e-06
-8.48133e-07
1.05918e-05
-2.76251e-05
2.60481e-05
-8.09678e-05
5.01579e-05
-0.000162802
8.43212e-05
-0.000274938
0.000129791
-0.000418793
0.000187497
-0.000595046
0.000257832
-0.000803177
0.00034043
-0.00104101
0.000433997
-0.0013044
0.000536257
-0.00158715
0.000644077
-0.00188136
0.00075378
-0.00217816
0.000861608
-0.00246882
0.000964211
-0.00274577
0.00105906
-0.00300362
0.00114469
-0.00323946
0.00122071
-0.00345317
0.00128778
-0.00364608
-0.00382362
0.00134699
2.58816e-06
-3.4363e-06
1.14933e-05
-3.65303e-05
2.8114e-05
-9.75885e-05
5.38793e-05
-0.000188567
9.01574e-05
-0.000311216
0.00013811
-0.000466745
0.000198495
-0.000655431
0.000271443
-0.000876126
0.000356242
-0.00112581
0.000451202
-0.00139936
0.000553665
-0.00168962
0.000660215
-0.00198791
0.000767064
-0.00228501
0.000870553
-0.0025723
0.000967632
-0.00284285
0.00105621
-0.00309219
0.00113531
-0.00331856
0.00120498
-0.00352285
0.00126622
-0.00370732
-0.00387772
0.00132033
2.8219e-06
-6.25819e-06
1.24322e-05
-4.61405e-05
3.0246e-05
-0.000115402
5.76855e-05
-0.000216007
9.60683e-05
-0.000349599
0.000146439
-0.000517116
0.000209357
-0.000718349
0.000284661
-0.000951429
0.000371274
-0.00121243
0.000467115
-0.00149521
0.000569181
-0.00179168
0.000673836
-0.00209256
0.000777267
-0.00238844
0.000875998
-0.00267104
0.000967337
-0.00293419
0.00104965
-0.00317451
0.00112243
-0.00339134
0.00118614
-0.00358655
0.00124201
-0.0037632
-0.0039272
0.00129149
3.06722e-06
-9.32541e-06
1.3406e-05
-5.64793e-05
3.24369e-05
-0.000134433
6.15602e-05
-0.00024513
0.000102023
-0.000390061
0.000154727
-0.000569821
0.000220002
-0.000783625
0.000297373
-0.0010288
0.000385389
-0.00130044
0.00048159
-0.00159141
0.000582672
-0.00189276
0.000684856
-0.00219474
0.000784385
-0.00248797
0.00087804
-0.00276469
0.00096353
-0.00301968
0.00103968
-0.00325066
0.00110642
-0.00345808
0.00116456
-0.00364468
0.00121552
-0.00381417
-0.00397251
0.00126082
3.32345e-06
-1.26489e-05
1.44115e-05
-6.75674e-05
3.46777e-05
-0.000154699
6.5484e-05
-0.000275936
0.000107984
-0.000432561
0.000162914
-0.00062475
0.000230345
-0.000851056
0.000309467
-0.00110792
0.000398453
-0.00138943
0.000494492
-0.00168744
0.000594033
-0.0019923
0.000693229
-0.00229394
0.000788458
-0.0025832
0.000876816
-0.00285305
0.00095644
-0.0030993
0.00102661
-0.00332083
0.00108763
-0.00351911
0.0011406
-0.00369765
0.00118708
-0.00386065
-0.00401404
0.00122861
3.5897e-06
-1.62386e-05
1.54446e-05
-7.94223e-05
3.69575e-05
-0.000176212
6.94348e-05
-0.000308414
0.000113915
-0.000477042
0.000170938
-0.000681773
0.000240297
-0.000920415
0.000320832
-0.00118846
0.000410346
-0.00147894
0.000505709
-0.00178281
0.000603191
-0.00208979
0.000698947
-0.0023897
0.000789563
-0.00267382
0.000872495
-0.00293598
0.000946317
-0.00317313
0.00101073
-0.00338524
0.00106639
-0.00357477
0.00111459
-0.00374585
0.001157
-0.00390306
-0.00405215
0.00119511
3.86487e-06
-2.01034e-05
1.65003e-05
-9.20577e-05
3.92642e-05
-0.000198976
7.33882e-05
-0.000342538
0.000119772
-0.000523426
0.000178737
-0.000740737
0.000249773
-0.000991451
0.000331364
-0.00127005
0.000420958
-0.00156854
0.000515153
-0.001877
0.0006101
-0.00218473
0.000702036
-0.00248163
0.00078781
-0.00275959
0.00086527
-0.00301344
0.00093342
-0.00324128
0.000992351
-0.00344417
0.001043
-0.00362542
0.00108683
-0.00378968
0.00112552
-0.00394175
-0.00408717
0.00116054
4.14767e-06
-2.42511e-05
1.75732e-05
-0.000105483
4.15841e-05
-0.000222987
7.7318e-05
-0.000378272
0.000125513
-0.00057162
0.000186244
-0.000801469
0.000258686
-0.00106389
0.000340965
-0.00135233
0.000430197
-0.00165777
0.000522758
-0.00196956
0.000614749
-0.00227672
0.000702554
-0.00256944
0.000783336
-0.00284037
0.00085535
-0.00308545
0.000918012
-0.00330394
0.00097176
-0.00349792
0.00101776
-0.00367142
0.00105759
-0.0038295
0.0010929
-0.00397706
-0.00411936
0.00112509
4.43667e-06
-2.86878e-05
1.86572e-05
-0.000119704
4.39027e-05
-0.000248233
8.11966e-05
-0.000415566
0.000131091
-0.000621515
0.000193398
-0.000863775
0.000266958
-0.00113745
0.000349548
-0.00143492
0.000437986
-0.00174621
0.000528482
-0.00206006
0.000617152
-0.00236539
0.000700588
-0.00265287
0.0007763
-0.00291609
0.000842954
-0.00315211
0.000900352
-0.00336134
0.00094923
-0.0035468
0.000990937
-0.00371313
0.00102709
-0.00386566
0.00105932
-0.00400929
-0.00414896
0.00108892
4.7302e-06
-3.3418e-05
1.97457e-05
-0.000134719
4.62049e-05
-0.000274692
8.49958e-05
-0.000454356
0.000136463
-0.000672983
0.000200135
-0.000927447
0.000274514
-0.00121183
0.000357039
-0.00151744
0.00044427
-0.00183344
0.000532308
-0.0021481
0.000617351
-0.00245044
0.000696246
-0.00273177
0.000766875
-0.00298672
0.000828305
-0.00321354
0.00088069
-0.00341372
0.000925015
-0.00359112
0.000962759
-0.00375087
0.000995553
-0.00389845
0.00102495
-0.00403869
-0.00417615
0.00105215
5.02661e-06
-3.84446e-05
2.0832e-05
-0.000150525
4.84746e-05
-0.000302334
8.86868e-05
-0.000494569
0.000141585
-0.000725881
0.000206396
-0.000992258
0.000281285
-0.00128672
0.000363375
-0.00159953
0.00044901
-0.00191907
0.000534242
-0.00223333
0.00061541
-0.00253161
0.000689656
-0.00280601
0.000755244
-0.0030523
0.000811624
-0.00326992
0.000859263
-0.00346136
0.000899349
-0.00363121
0.00093344
-0.00378496
0.000963152
-0.00392816
0.000989946
-0.00406548
-0.00420111
0.0010149
5.32424e-06
2.19092e-05
5.06959e-05
9.22413e-05
-0.000536114
0.000146413
-0.000780053
0.000212127
-0.00105797
0.000287214
-0.00136181
0.000368507
-0.00168083
0.000452186
-0.00200275
0.000534312
-0.00231545
0.000611412
-0.00260871
0.000680958
-0.00287556
0.000741595
-0.00311294
0.000793128
-0.00332145
0.000836296
-0.00350453
0.000872443
-0.00366735
0.000903169
-0.00381569
0.000930041
-0.00395504
0.000954419
-0.00408986
-0.00422396
0.000977269
9.5631e-05
0.000150907
0.000217278
-0.00112434
0.00029225
-0.00143678
0.000372402
-0.00176098
0.000453797
-0.00208415
0.000532561
-0.00239422
0.000605458
-0.0026816
0.000670303
-0.0029404
0.000726113
-0.00316875
0.000773022
-0.00336836
0.000811995
-0.0035435
0.000844488
-0.00369985
0.000872107
-0.00384331
0.000896354
-0.00397928
0.000918476
-0.00411199
-0.00424481
0.000939325
0.000221803
0.000296353
0.000375038
0.000453857
-0.00216297
0.000529053
-0.00246941
0.00059766
-0.00275021
0.000657845
-0.00300059
0.000708985
-0.00321989
0.000751502
-0.00341088
0.000786549
-0.00357855
0.000815652
-0.00372895
0.000840399
-0.00386806
0.000862204
-0.00400109
0.000882201
-0.00413198
-0.00426374
0.000901136
0.000452397
0.000523863
0.000588136
0.000643741
0.000690387
-0.00326654
0.000728751
-0.00344924
0.000760129
-0.00360993
0.000786087
-0.00375491
0.000808166
-0.00389014
0.000827687
-0.00402061
0.000845669
-0.00414997
-0.00428083
0.000862757
0.000670491
0.000704937
0.000732889
0.000755922
-0.00377794
0.000775514
-0.00390973
0.000792884
-0.00403798
0.000808941
-0.00416602
-0.00429612
0.000824234
0.000725274
0.000742534
0.000757864
0.000772067
-0.00430966
0.000785607
0.000746908
0.0045781
0.000695701
0.000695643
0.00405538
0.00070738
0.00418401
0.000717466
0.00431105
0.000726495
0.00443915
0.00456984
0.000734753
0.000629755
0.00337425
0.000663946
0.0035752
0.000690602
0.00374796
0.000711406
0.00390008
0.000727975
0.00403881
0.000741663
0.00417033
0.000753477
0.00429924
0.000764101
0.00442852
0.00456006
0.000773882
0.000477971
0.00247951
0.000544462
0.00279826
0.000601767
0.00308136
0.000649226
0.00332679
0.00068735
0.00353708
0.000717434
0.00371788
0.000741139
0.00387637
0.000760139
0.00401981
0.000775886
0.00415458
0.000789496
0.00428563
0.000801753
0.00441627
0.00454874
0.000813073
0.000247702
0.00133374
0.000326011
0.00169114
0.000405952
0.00205255
0.00048311
0.00240236
0.000553819
0.00272755
0.000615659
0.00301953
0.000667606
0.00327485
0.000709889
0.00349479
0.000743637
0.00368413
0.000770458
0.00384955
0.000792062
0.00399821
0.000809997
0.00413664
0.000825489
0.00427013
0.000839428
0.00440233
0.00453586
0.000852308
0.000110335
0.000643025
0.000172086
0.000934338
0.000244497
0.00126133
0.000324012
0.00161163
0.000406282
0.00197028
0.000486817
0.00232182
0.0005617
0.00265266
0.000628145
0.00295308
0.000684749
0.00321824
0.000731422
0.00344812
0.000769083
0.00364647
0.000799255
0.00381938
0.000823663
0.0039738
0.000843935
0.00411637
0.000861412
0.00425266
0.000877096
0.00438664
0.00452138
0.000891569
6.37479e-06
4.44118e-05
2.59536e-05
0.000178618
5.94999e-05
0.000362518
0.000107183
0.000595342
0.000168207
0.000873314
0.000240558
0.00118898
0.000320986
0.0015312
0.000405313
0.00188595
0.000489028
0.00223811
0.000568
0.00257369
0.000639092
0.00288199
0.000700503
0.00315683
0.000751793
0.00339683
0.00079363
0.00360463
0.00082741
0.0037856
0.000854845
0.00394637
0.00087763
0.00409359
0.000897216
0.00423307
0.000914724
0.00436914
0.00450527
0.000930833
6.0579e-06
3.83539e-05
2.48422e-05
0.000159834
5.72855e-05
0.000330074
0.000103796
0.000548831
0.000163891
0.000813219
0.000235912
0.00111696
0.000316944
0.00145017
0.000403028
0.00179987
0.000489688
0.00215145
0.000572622
0.00249076
0.000648363
0.00280625
0.00071471
0.00309049
0.000770836
0.00334071
0.000817119
0.00355835
0.000854784
0.00374793
0.000885496
0.00391566
0.000910998
0.00406809
0.00093284
0.00421123
0.000952271
0.0043497
0.00448748
0.00097007
5.73845e-06
3.26154e-05
2.37047e-05
0.000141868
5.4982e-05
0.000298797
0.000100198
0.000503616
0.000159169
0.000754248
0.000230594
0.00104553
0.000311911
0.00136885
0.000399425
0.00171235
0.000488753
0.00206212
0.000575476
0.00240403
0.000655829
0.00272589
0.000727208
0.00301911
0.000788378
0.00327954
0.000839379
0.00350735
0.000881224
0.00370609
0.000915489
0.00388139
0.000943937
0.00403964
0.000968213
0.00418696
0.000989687
0.00432823
0.00446791
0.00100925
5.41821e-06
2.71972e-05
2.25481e-05
0.000124738
5.26051e-05
0.00026874
9.64158e-05
0.000459805
0.000154079
0.000696584
0.000224645
0.000974969
0.00030592
0.00128757
0.000394515
0.00162376
0.000486195
0.00197044
0.000576486
0.00231374
0.000661364
0.00264102
0.000737834
0.00294264
0.000804232
0.00321314
0.000860224
0.00345136
0.000906556
0.00365976
0.000944675
0.00384327
0.000976334
0.00400798
0.00100325
0.00416004
0.00102691
0.00430457
0.0044465
0.00104833
5.09872e-06
2.20985e-05
2.13788e-05
0.000108458
5.01698e-05
0.000239949
9.24766e-05
0.000417498
0.00014866
0.000640401
0.000218112
0.000905518
0.000299016
0.00120667
0.000388322
0.00153445
0.000482003
0.00187676
0.000575589
0.00222016
0.000664852
0.00255175
0.000746426
0.00286106
0.000818208
0.00314136
0.000879452
0.00339011
0.00093059
0.00360862
0.00097289
0.00380097
0.00100805
0.00397282
0.00103784
0.00413025
0.00106387
0.00427854
0.00442311
0.00108726
4.78131e-06
1.73172e-05
2.0203e-05
9.30361e-05
4.7691e-05
0.000212461
8.84073e-05
0.000376782
0.000142953
0.000585855
0.000211046
0.000837425
0.000291251
0.00112647
0.000380885
0.00144482
0.000476181
0.00178146
0.000572742
0.0021236
0.000666192
0.0024583
0.00075283
0.00277442
0.000830113
0.00306407
0.000896852
0.00332337
0.000953119
0.00355235
0.000999945
0.00375414
0.00103894
0.00393382
0.00107188
0.00409731
0.00110048
0.00424993
0.00439761
0.00112598
4.46722e-06
1.285e-05
1.90265e-05
7.84769e-05
4.51829e-05
0.000186305
8.42347e-05
0.00033773
0.000137
0.000533089
0.000203504
0.000770921
0.000282689
0.00104728
0.000372257
0.00135525
0.000468753
0.00168497
0.000567918
0.00202443
0.000665296
0.00236092
0.000756898
0.00268282
0.000839751
0.00298122
0.000912203
0.00325092
0.000973915
0.00349064
0.00102563
0.00370243
0.00106881
0.00389065
0.00110521
0.0040609
0.00113664
0.00421851
0.00436982
0.00116442
4.15755e-06
8.69244e-06
1.78544e-05
6.47801e-05
4.26591e-05
0.0001615
7.99851e-05
0.000300404
0.000130844
0.00048223
0.000195545
0.00070622
0.000273398
0.000969428
0.000362506
0.00126614
0.000459762
0.00158771
0.000561115
0.00192308
0.000662101
0.00225994
0.000758498
0.00258643
0.000846934
0.00289278
0.000925276
0.00317258
0.000992738
0.00342318
0.00104972
0.00364545
0.00109746
0.0038429
0.00113768
0.00402069
0.0011722
0.00418398
0.00433953
0.00120249
3.85323e-06
4.83921e-06
1.66916e-05
5.19417e-05
4.01322e-05
0.000138059
7.56839e-05
0.000264852
0.000124527
0.000433387
0.000187231
0.000643516
0.000263457
0.000893203
0.000351711
0.00117788
0.000449271
0.00149015
0.000552354
0.00181999
0.000656566
0.00215573
0.00075752
0.00248547
0.000851481
0.00279882
0.000935842
0.00308822
0.00100933
0.00334969
0.00107194
0.00358284
0.00112467
0.00379018
0.00116908
0.00397628
0.00120704
0.00414602
0.00430649
0.00124007
3.55503e-06
1.28417e-06
1.55422e-05
3.99545e-05
3.76139e-05
0.000115988
7.13552e-05
0.000231111
0.000118091
0.000386652
0.000178624
0.000582982
0.000252946
0.000818881
0.000339963
0.00109087
0.000437361
0.00139275
0.000541683
0.00171567
0.000648677
0.00204873
0.000753873
0.00238028
0.000853228
0.00269947
0.000943675
0.00299777
0.00102343
0.00326993
0.00109205
0.00351423
0.00115017
0.00373206
0.00119919
0.00392725
0.00124096
0.00410425
0.00427041
0.00127704
3.26356e-06
-1.97939e-06
1.44102e-05
2.88079e-05
3.5115e-05
9.52829e-05
6.70221e-05
0.000199204
0.000111576
0.000342097
0.000169788
0.00052477
0.000241952
0.000746718
0.000327364
0.00100545
0.000424133
0.00129598
0.000529172
0.00161063
0.000638452
0.00193945
0.0007475
0.00227123
0.000852033
0.00259493
0.000948556
0.00290125
0.00103478
0.00318371
0.00110973
0.00343927
0.00117368
0.00366811
0.00122777
0.00387315
0.00127376
0.00405827
0.00423093
0.00131324
2.9793e-06
-4.95869e-06
1.32987e-05
1.84886e-05
3.26456e-05
7.5936e-05
6.27063e-05
0.000169143
0.000105023
0.00029978
0.000160786
0.000469008
0.000230564
0.00067694
0.000314024
0.000921994
0.000409703
0.00120031
0.000514922
0.00150541
0.000625942
0.00182843
0.000738376
0.00215879
0.000847781
0.00248553
0.000950287
0.00279874
0.00104309
0.00309091
0.00112469
0.00335767
0.0011949
0.00359791
0.00125454
0.00381352
0.0013052
0.0040076
0.00418765
0.00134847
2.70263e-06
-7.66132e-06
1.22109e-05
8.98034e-06
3.02148e-05
5.7932e-05
5.84285e-05
0.000140929
9.84704e-05
0.000259738
0.00015168
0.000415798
0.000218872
0.000609748
0.000300061
0.000840805
0.000394203
0.00110616
0.000499055
0.00140056
0.00061123
0.00171626
0.000726514
0.00204351
0.000840395
0.00237165
0.000948692
0.00269044
0.00104812
0.00299148
0.00113662
0.00326916
0.0012135
0.00352104
0.00127916
0.00374785
0.001335
0.00395176
0.00414013
0.00138253
2.43394e-06
-1.00953e-05
1.11496e-05
2.64714e-07
2.78318e-05
4.12498e-05
5.42088e-05
0.000114552
9.19547e-05
0.000221992
0.000142531
0.000365222
0.000206968
0.000545311
0.000285595
0.000762177
0.000377778
0.00101398
0.00048172
0.00129662
0.000594437
0.00160354
0.000711971
0.00192598
0.000829837
0.00225378
0.00094363
0.00257665
0.00104962
0.00288549
0.00114521
0.00317357
0.00122913
0.00343712
0.00130132
0.00367566
0.00136286
0.00389022
0.00408786
0.00141514
2.17361e-06
-1.22689e-05
1.01178e-05
-7.67944e-06
2.55052e-05
2.58623e-05
5.00666e-05
8.99907e-05
8.55127e-05
0.000186546
0.000133401
0.000317333
0.000194944
0.000483769
0.000270755
0.000686366
0.000360584
0.000924151
0.000463085
0.00119412
0.000575714
0.00149091
0.000694844
0.00180685
0.000816118
0.00213251
0.000935001
0.00245777
0.0010474
0.00277309
0.00115016
0.00307081
0.00124143
0.00334585
0.00132062
0.00359647
0.00138842
0.00382242
0.00403026
0.00144602
1.92217e-06
-1.4191e-05
9.11865e-06
-1.48759e-05
2.32444e-05
1.17366e-05
4.60217e-05
6.72135e-05
7.91809e-05
0.000153387
0.000124351
0.000272163
0.000182893
0.000425227
0.00025567
0.000613589
0.000342787
0.000837034
0.000443338
0.00109357
0.000555246
0.001379
0.000675278
0.00168681
0.000799302
0.00200848
0.000922759
0.00233431
0.00104127
0.00265459
0.00115119
0.00296089
0.00125006
0.00324698
0.0013367
0.00350983
0.00141131
0.00374781
0.00396674
0.00147483
1.68028e-06
-1.58713e-05
8.15584e-06
-2.13515e-05
2.1059e-05
-1.1666e-06
4.20943e-05
4.61781e-05
7.2996e-05
0.000122485
0.000115441
0.000229718
0.000170907
0.000369761
0.000240471
0.000544025
0.000324559
0.000752945
0.000422686
0.000995443
0.000533249
0.00126844
0.000653463
0.0015666
0.000779507
0.00188244
0.000906913
0.00220691
0.00103111
0.00253039
0.00114805
0.00284395
0.00125467
0.00314036
0.00134914
0.00341535
0.00143113
0.00366583
0.00389665
0.00150122
1.44883e-06
-1.73202e-05
7.23349e-06
-2.71361e-05
1.89596e-05
-1.28927e-05
3.83057e-05
2.68321e-05
6.69954e-05
9.37958e-05
0.000106731
0.000189982
0.00015908
0.000317413
0.000225293
0.000477812
0.00030608
0.000672158
0.000401348
0.000900175
0.000509966
0.00115982
0.000629629
0.00144694
0.000756911
0.00175516
0.000887538
0.00207628
0.00101688
0.00240104
0.00114055
0.00272029
0.00125494
0.00302596
0.00135756
0.00331273
0.00144743
0.00357595
0.0038193
0.00152478
1.22898e-06
-1.85491e-05
6.35645e-06
-3.22636e-05
1.69578e-05
-2.34941e-05
3.46781e-05
9.11181e-06
6.12177e-05
6.72562e-05
9.82851e-05
0.000152915
0.000147505