/*--------------------------------*- C++ -*----------------------------------*\
  =========                 |
  \\      /  F ield         | OpenFOAM: The Open Source CFD Toolbox
   \\    /   O peration     | Website:  https://openfoam.org
    \\  /    A nd           | Version:  7
     \\/     M anipulation  |
\*---------------------------------------------------------------------------*/
FoamFile
{
    version     2.0;
    format      ascii;
    class       volVectorField;
    location    "140";
    object      U;
}
// * * * * * * * * * * * * * * * * * * * * * * * * * * * * * * * * * * * * * //

dimensions      [0 1 -1 0 0 0 0];

internalField   nonuniform List<vector> 
4575
(
(1.16847 0.332591 -1.36624e-20)
(1.16607 0.351752 5.00737e-20)
(1.15923 0.336381 -4.74726e-20)
(1.16815 0.392405 -5.81942e-20)
(1.16187 0.373338 2.7108e-20)
(1.15615 0.355547 5.62082e-21)
(1.14981 0.339916 4.87123e-20)
(1.16365 0.417005 -3.85283e-20)
(1.15689 0.396589 1.12121e-19)
(1.15118 0.377148 -4.47359e-21)
(1.14602 0.359065 -1.65543e-20)
(1.14022 0.34319 7.73929e-21)
(1.15882 0.443248 6.3495e-20)
(1.15159 0.421274 -3.89393e-20)
(1.1454 0.400457 -5.52972e-20)
(1.14027 0.380657 1.57673e-20)
(1.13569 0.362296 -3.90011e-20)
(1.13046 0.346192 -2.8452e-20)
(1.15348 0.471175 -3.61122e-20)
(1.14593 0.447596 -1.08568e-20)
(1.13931 0.425199 -4.27232e-21)
(1.13369 0.403999 -3.05393e-21)
(1.12916 0.383855 5.78286e-22)
(1.12518 0.36523 -3.11956e-20)
(1.12053 0.348913 2.02126e-20)
(1.14729 0.500773 9.12634e-20)
(1.13969 0.475592 -2.43773e-20)
(1.13281 0.451567 -2.64365e-21)
(1.1268 0.428769 4.86987e-20)
(1.12178 0.407204 1.40019e-20)
(1.11785 0.386732 4.15223e-20)
(1.11447 0.367859 5.1016e-20)
(1.11044 0.351346 1.13047e-20)
(1.13984 0.531949 1.31114e-20)
(1.13253 0.505252 2.4846e-20)
(1.12565 0.479594 4.8432e-20)
(1.11946 0.455149 6.33808e-21)
(1.11409 0.431972 1.37663e-20)
(1.10968 0.410062 -4.10549e-20)
(1.10635 0.38928 2.86389e-20)
(1.10359 0.370172 -3.85139e-20)
(1.1002 0.35348 -9.29376e-21)
(1.13046 0.564389 -1.16678e-19)
(1.12406 0.536493 -1.33583e-19)
(1.11751 0.509272 -6.19845e-20)
(1.11138 0.483168 -6.74915e-20)
(1.1059 0.458329 -8.26075e-21)
(1.1012 0.434798 -6.89775e-21)
(1.09739 0.412564 -1.13037e-20)
(1.09467 0.391489 -1.35646e-20)
(1.09254 0.372162 -5.45737e-20)
(1.08981 0.355309 2.3386e-20)
(1.11804 0.597331 -1.90144e-20)
(1.11363 0.569018 8.46099e-20)
(1.10798 0.540525 1.21535e-19)
(1.10224 0.512817 2.03058e-20)
(1.09689 0.486298 8.41135e-20)
(1.09215 0.461095 -4.51163e-21)
(1.08812 0.437236 4.70578e-20)
(1.08495 0.4147 -1.62676e-20)
(1.08284 0.393353 -2.02448e-20)
(1.08132 0.373821 3.05204e-20)
(1.07927 0.356823 7.95344e-21)
(1.1007 0.629227 3.54287e-20)
(1.1002 0.602099 5.40706e-20)
(1.09648 0.573078 3.41067e-20)
(1.09165 0.544033 -8.80753e-20)
(1.08674 0.515874 -6.79338e-20)
(1.0822 0.488973 -4.21481e-20)
(1.07822 0.463435 -7.63723e-20)
(1.07489 0.439275 -1.84183e-20)
(1.07235 0.416461 -1.40666e-20)
(1.07085 0.394864 -3.04949e-21)
(1.06995 0.375143 1.7476e-20)
(1.0686 0.358013 -2.39192e-21)
(1.07539 0.657295 -4.89416e-20)
(1.08198 0.634223 -1.76832e-19)
(1.08201 0.60623 -1.23987e-19)
(1.07905 0.576555 -3.72352e-20)
(1.07507 0.547 5.70664e-20)
(1.07103 0.51843 4.53351e-20)
(1.06733 0.49118 -3.81293e-22)
(1.06414 0.465337 3.88093e-20)
(1.06153 0.440906 -7.91084e-21)
(1.05963 0.41784 1.33419e-20)
(1.05873 0.396016 7.36157e-21)
(1.05843 0.376119 6.45057e-21)
(1.05779 0.358871 -9.2451e-21)
(1.03761 0.677046 -5.87664e-20)
(1.05606 0.662649 1.00264e-19)
(1.06288 0.638509 1.06175e-19)
(1.06351 0.60971 3.77514e-20)
(1.06135 0.579433 3.61813e-20)
(1.05826 0.549415 -1.77207e-20)
(1.05513 0.52047 -9.96239e-21)
(1.0523 0.492906 -5.29158e-21)
(1.04992 0.466791 5.00191e-20)
(1.04804 0.442117 1.53582e-20)
(1.0468 0.418828 1.28661e-20)
(1.0465 0.396802 1.09158e-20)
(1.04678 0.376743 -1.85067e-20)
(1.04687 0.359385 -2.5114e-21)
(0.981222 0.681921 -3.23669e-20)
(1.01809 0.682897 1.60619e-20)
(1.03628 0.66721 -9.81008e-21)
(1.04341 0.642067 9.51865e-20)
(1.04472 0.612526 -8.6254e-20)
(1.04342 0.5817 -1.29208e-20)
(1.04126 0.551263 -1.86732e-21)
(1.03905 0.521985 1.68322e-20)
(1.03712 0.494141 3.75973e-20)
(1.03557 0.467786 -4.0938e-20)
(1.03445 0.442899 -1.48374e-20)
(1.03388 0.419414 -1.34248e-20)
(1.03418 0.397217 -1.31858e-20)
(1.03502 0.377007 1.7505e-21)
(1.03584 0.359544 3.39788e-22)
(0.962095 0.688367 -1.0855e-20)
(0.998039 0.687876 -3.92476e-20)
(1.01609 0.670963 -1.10688e-20)
(1.02362 0.644887 -8.72968e-20)
(1.02567 0.614664 1.19963e-19)
(1.02528 0.583343 3.2134e-21)
(1.02408 0.552535 3.33014e-20)
(1.02283 0.522961 5.5732e-21)
(1.02181 0.494874 2.90582e-22)
(1.02111 0.46831 3.11105e-20)
(1.02077 0.443241 1.13359e-20)
(1.02091 0.419591 6.68714e-22)
(1.02179 0.397252 -4.35375e-22)
(1.02317 0.376904 5.40361e-21)
(1.02473 0.359328 -2.17589e-21)
(0.880767 0.670267 -5.59867e-20)
(0.942366 0.693876 -4.36114e-20)
(0.977512 0.691967 -3.601e-20)
(0.995525 0.673896 5.35193e-20)
(1.00354 0.646954 -5.20702e-21)
(1.00639 0.616114 -6.89854e-20)
(1.00695 0.584352 4.48078e-20)
(1.00675 0.553218 1.35041e-20)
(1.00647 0.52339 -2.45702e-20)
(1.00638 0.495094 -8.37519e-21)
(1.00657 0.468354 -5.33523e-21)
(1.00704 0.443133 -3.48122e-21)
(1.00789 0.419346 4.59477e-22)
(1.00937 0.396899 1.01479e-20)
(1.01125 0.37642 -1.51189e-20)
(1.01357 0.35871 3.92295e-21)
(0.766117 0.618041 1.27963e-21)
(0.862118 0.676302 5.79094e-20)
(0.922085 0.698428 7.6043e-20)
(0.956554 0.695155 4.72108e-20)
(0.97463 0.675996 -2.35818e-20)
(0.983212 0.648258 3.74804e-20)
(0.986914 0.616864 -1.45314e-20)
(0.988464 0.584717 -4.94896e-20)
(0.98928 0.553304 -2.00865e-20)
(0.990002 0.523262 -5.13453e-21)
(0.990869 0.494792 -1.00622e-20)
(0.991947 0.467909 -1.23213e-21)
(0.993246 0.442563 4.06883e-21)
(0.994846 0.41867 -5.39034e-21)
(0.996936 0.396147 9.48235e-21)
(0.999298 0.375535 2.47408e-20)
(1.00238 0.357643 2.02086e-20)
(0.749476 0.624375 -8.66632e-20)
(0.842858 0.681345 -2.70704e-20)
(0.901306 0.702009 6.24643e-20)
(0.93521 0.697429 -8.36338e-20)
(0.953445 0.677251 -6.76779e-20)
(0.962664 0.64879 -3.04846e-20)
(0.967272 0.616905 4.45401e-20)
(0.969844 0.584428 1.63458e-20)
(0.971704 0.552783 1.44937e-20)
(0.973442 0.522568 8.80518e-21)
(0.975278 0.49396 -1.61628e-21)
(0.977268 0.466964 -1.61657e-21)
(0.979421 0.441522 -9.2837e-21)
(0.981803 0.417549 -6.39749e-21)
(0.984518 0.394986 -1.54652e-20)
(0.987339 0.374229 1.50761e-20)
(0.99122 0.356069 -2.44524e-20)
(0.597048 0.526443 8.56669e-20)
(0.732196 0.629735 1.24492e-19)
(0.823041 0.685377 4.75201e-20)
(0.880082 0.704605 -1.80158e-20)
(0.91353 0.698778 7.43199e-21)
(0.932013 0.677654 3.3832e-20)
(0.941935 0.64854 4.35476e-20)
(0.947494 0.616229 -6.683e-21)
(0.951118 0.583477 -5.38163e-21)
(0.954043 0.551649 -5.64995e-21)
(0.956812 0.521302 -1.61482e-21)
(0.959628 0.492593 1.19245e-21)
(0.962543 0.465515 -4.18889e-21)
(0.96557 0.44 -5.53221e-21)
(0.968766 0.415972 1.11701e-20)
(0.972122 0.393398 2.59486e-20)
(0.975429 0.372475 -4.21293e-20)
(0.980291 0.35394 3.28159e-20)
(0.399105 0.371471 1.69584e-19)
(0.58287 0.531647 -7.72412e-20)
(0.714331 0.634102 -8.62789e-20)
(0.802724 0.688384 -3.12107e-20)
(0.858466 0.706204 4.03643e-20)
(0.891559 0.699192 3.44661e-20)
(0.910374 0.677197 3.39348e-20)
(0.921061 0.647502 -2.1103e-20)
(0.927611 0.61483 -2.36677e-20)
(0.932314 0.58186 6.88247e-21)
(0.93632 0.549896 -3.55093e-21)
(0.940133 0.519458 -3.82296e-21)
(0.943938 0.490685 -4.9458e-21)
(0.947786 0.463555 -3.3995e-22)
(0.951702 0.43799 2.24396e-20)
(0.955728 0.413923 -8.84916e-21)
(0.95974 0.391347 -2.00044e-20)
(0.963663 0.370207 -1.29661e-21)
(0.969858 0.351244 -4.98071e-20)
(0.389309 0.375669 -6.5612e-20)
(0.568136 0.535961 7.40305e-20)
(0.695935 0.637459 1.03701e-19)
(0.781962 0.690351 -4.15437e-20)
(0.836509 0.706797 7.59177e-21)
(0.869346 0.698664 -5.48289e-20)
(0.88857 0.675872 -1.49953e-20)
(0.900076 0.64567 -1.85384e-21)
(0.907654 0.612702 3.68476e-21)
(0.913458 0.579569 -5.86296e-21)
(0.91856 0.547518 -5.23561e-21)
(0.923426 0.517034 -2.15561e-22)
(0.928226 0.488233 -1.02971e-20)
(0.933011 0.461082 9.09537e-21)
(0.937818 0.435493 2.3974e-20)
(0.942665 0.411399 8.89003e-21)
(0.947347 0.388793 -4.58214e-20)
(0.952144 0.367264 -1.67647e-21)
(0.959865 0.347712 1.42519e-20)
(0.149581 0.15139 1.88307e-20)
(0.379076 0.379204 2.69504e-20)
(0.552897 0.539368 -6.68474e-20)
(0.677065 0.639789 -2.63557e-20)
(0.76081 0.691268 -3.26633e-20)
(0.814264 0.706375 -2.76912e-20)
(0.846938 0.697188 3.5916e-20)
(0.866642 0.673677 2.94157e-22)
(0.879016 0.64304 4.88803e-21)
(0.887654 0.609841 1.38743e-20)
(0.894578 0.576602 1.3672e-20)
(0.900788 0.544514 -9.46268e-21)
(0.906714 0.514026 -5.13362e-21)
(0.912513 0.485236 -3.99088e-21)
(0.918235 0.458101 -2.87195e-20)
(0.923923 0.432519 -1.47859e-20)
(0.929563 0.408425 -1.60419e-20)
(0.934945 0.385791 5.62033e-20)
(0.940919 0.363686 -1.33771e-20)
(0.949256 0.341638 4.94453e-20)
(0.145579 0.153028 2.67132e-20)
(0.368443 0.38206 -7.73508e-21)
(0.5372 0.541852 3.59685e-20)
(0.657775 0.641081 -7.23134e-21)
(0.739326 0.691126 2.00189e-20)
(0.791785 0.704933 1.98129e-20)
(0.824381 0.694762 -6.67594e-21)
(0.844631 0.670606 -5.09956e-21)
(0.857918 0.639608 -1.97485e-20)
(0.867643 0.606244 1.0015e-20)
(0.875703 0.572956 -7.79993e-21)
(0.88303 0.540879 1.18372e-20)
(0.89002 0.510432 1.37925e-20)
(0.896819 0.481696 2.32473e-20)
(0.903477 0.454615 8.56754e-21)
(0.910034 0.429081 2.68186e-20)
(0.91645 0.405029 1.38895e-20)
(0.922577 0.382433 -2.7116e-21)
(0.929536 0.360372 2.96068e-20)
(0.937888 0.338569 5.93696e-21)
(0.141394 0.154378 -2.13649e-20)
(0.357446 0.384221 -2.219e-20)
(0.521096 0.543397 -2.15119e-20)
(0.638122 0.641324 1.14298e-20)
(0.717564 0.689918 -1.11995e-20)
(0.769121 0.702468 -6.79062e-21)
(0.801721 0.691381 5.32451e-21)
(0.822578 0.666659 9.27427e-21)
(0.836817 0.635374 1.65707e-20)
(0.847652 0.601908 1.88091e-20)
(0.856862 0.568628 -4.4594e-20)
(0.865311 0.536614 3.9651e-22)
(0.873369 0.506253 -4.83408e-20)
(0.881168 0.477611 -2.36915e-21)
(0.88876 0.450624 -2.17736e-20)
(0.896179 0.42518 3.42769e-20)
(0.903369 0.401215 -5.2262e-20)
(0.910233 0.378684 -1.28481e-20)
(0.917894 0.356668 -1.98255e-20)
(0.926256 0.334953 -7.10619e-20)
(0.137042 0.155431 1.08389e-20)
(0.346122 0.385675 -3.10223e-20)
(0.504634 0.543994 8.23444e-21)
(0.618161 0.64051 -9.24598e-22)
(0.695581 0.687641 -2.47933e-22)
(0.746326 0.698977 -6.2624e-22)
(0.779006 0.687046 1.0404e-20)
(0.800523 0.661836 -2.87857e-20)
(0.815748 0.630336 -2.76639e-20)
(0.827713 0.596834 -5.47941e-20)
(0.838081 0.563619 3.51753e-20)
(0.847658 0.531718 -3.58835e-21)
(0.856783 0.501489 -1.11285e-20)
(0.865583 0.472983 -1.80114e-20)
(0.874106 0.446131 -2.62204e-20)
(0.882384 0.420819 1.52719e-20)
(0.890355 0.396981 4.29482e-20)
(0.897958 0.374563 -2.39986e-20)
(0.906255 0.352673 3.12749e-20)
(0.914819 0.331216 8.62395e-20)
(0.13254 0.156181 7.6986e-21)
(0.33451 0.386411 1.27416e-20)
(0.487867 0.543632 1.9814e-21)
(0.597948 0.638634 -3.57683e-21)
(0.67343 0.684292 7.47844e-21)
(0.723451 0.694462 1.72466e-20)
(0.756279 0.681759 -1.24812e-20)
(0.778506 0.656138 -1.40771e-20)
(0.794748 0.624496 -1.14282e-20)
(0.807857 0.591023 3.78086e-20)
(0.819391 0.557929 -1.00135e-19)
(0.830096 0.526191 -4.41557e-20)
(0.840289 0.49614 9.29072e-21)
(0.850087 0.467813 1.50797e-20)
(0.859538 0.441137 5.4618e-20)
(0.868673 0.415996 -7.59634e-20)
(0.877428 0.392327 2.22607e-20)
(0.885766 0.370061 1.25465e-20)
(0.894684 0.348357 -1.76207e-20)
(0.903581 0.327241 -6.52895e-20)
(0.127903 0.156621 1.02443e-20)
(0.322648 0.38642 -2.54643e-21)
(0.470844 0.542305 4.98556e-21)
(0.577539 0.635692 9.68727e-21)
(0.651168 0.679871 -9.52928e-21)
(0.700545 0.688923 -2.95233e-20)
(0.733588 0.675522 6.5334e-21)
(0.756568 0.649567 2.37913e-20)
(0.77385 0.617856 6.83272e-20)
(0.788116 0.584477 -7.49184e-20)
(0.800819 0.55156 6.08258e-20)
(0.812652 0.520035 7.53214e-20)
(0.823909 0.490208 6.25454e-20)
(0.834703 0.462103 4.68869e-20)
(0.845079 0.435644 -9.88026e-20)
(0.855067 0.410715 -1.60567e-21)
(0.864608 0.387252 -2.58871e-20)
(0.87368 0.36518 1.00052e-19)
(0.883224 0.343709 -3.27894e-21)
(0.89253 0.322964 -4.81438e-20)
(0.123148 0.156749 1.07697e-20)
(0.310575 0.385696 7.21998e-22)
(0.453617 0.540009 4.21867e-21)
(0.556989 0.631684 -4.35587e-21)
(0.628848 0.674381 -1.25231e-20)
(0.677659 0.682366 -1.09595e-21)
(0.710975 0.66834 -1.69182e-20)
(0.734747 0.642129 -2.8832e-20)
(0.753092 0.610421 2.60841e-20)
(0.768522 0.577198 5.95823e-20)
(0.782394 0.544515 1.39903e-21)
(0.795352 0.513254 2.76591e-20)
(0.80767 0.483695 -4.2611e-20)
(0.819453 0.455856 -5.18311e-20)
(0.83075 0.429653 1.30512e-19)
(0.841589 0.404975 5.20955e-20)
(0.851915 0.381756 -5.38396e-20)
(0.86172 0.359915 -5.93961e-20)
(0.871899 0.338718 -6.66406e-20)
(0.881667 0.318362 -6.96054e-21)
(0.118293 0.156558 -2.61473e-20)
(0.298329 0.384233 -5.62002e-21)
(0.436237 0.536743 -1.26612e-20)
(0.536353 0.626612 -2.84464e-20)
(0.606525 0.667827 5.19528e-20)
(0.654843 0.674796 -4.85176e-20)
(0.688487 0.660219 7.18897e-20)
(0.713083 0.633829 -1.01289e-21)
(0.732506 0.602194 -2.23489e-20)
(0.749106 0.569192 2.06801e-20)
(0.764145 0.536798 1.54446e-20)
(0.778224 0.50585 -7.57861e-20)
(0.791595 0.476606 7.96542e-20)
(0.804363 0.449073 4.90569e-20)
(0.816574 0.423168 -1.7812e-20)
(0.82826 0.398778 -3.52272e-20)
(0.839369 0.375839 3.00881e-20)
(0.849908 0.354266 -5.34078e-20)
(0.860729 0.333378 -7.33422e-20)
(0.870991 0.313422 6.83707e-20)
(0.113353 0.156047 5.13627e-20)
(0.285951 0.382029 -2.96003e-20)
(0.418754 0.532506 -1.79719e-20)
(0.515686 0.62048 2.00216e-20)
(0.58425 0.660214 7.18985e-21)
(0.632145 0.666222 1.81363e-20)
(0.666165 0.651166 2.25134e-20)
(0.691615 0.624674 5.60242e-20)
(0.712127 0.593184 6.92508e-20)
(0.729898 0.560464 -6.53774e-20)
(0.746101 0.528414 7.93988e-20)
(0.761291 0.497828 -8.98711e-20)
(0.775709 0.468944 1.16447e-20)
(0.789453 0.44176 -3.40249e-20)
(0.802572 0.41619 2.55519e-20)
(0.815099 0.392126 2.39325e-20)
(0.826989 0.369502 -1.44831e-20)
(0.838259 0.34823 1.33811e-19)
(0.849727 0.327681 -1.90733e-20)
(0.860507 0.308136 -5.91089e-20)
(0.108347 0.155214 -4.17364e-20)
(0.273479 0.379084 5.42542e-20)
(0.401219 0.527301 -1.47371e-20)
(0.495041 0.613294 -6.59265e-20)
(0.562077 0.651553 4.97317e-20)
(0.609614 0.656653 -1.85346e-20)
(0.644054 0.641193 -6.14087e-20)
(0.67038 0.614674 -9.08807e-21)
(0.69199 0.583398 -1.43339e-19)
(0.71093 0.551021 1.37533e-19)
(0.728288 0.519369 -1.27861e-20)
(0.744582 0.489194 3.73302e-20)
(0.760036 0.460714 4.65185e-20)
(0.774746 0.43392 1.84547e-20)
(0.788765 0.408725 -1.21911e-19)
(0.802127 0.385023 2.79019e-20)
(0.814793 0.362747 2.46091e-20)
(0.826792 0.341808 -8.22293e-20)
(0.838907 0.321626 2.93147e-20)
(0.850221 0.3025 1.1443e-20)
(0.103291 0.154058 -4.31583e-20)
(0.260951 0.375398 -4.17388e-20)
(0.383682 0.521135 8.2126e-20)
(0.474473 0.605063 5.96872e-20)
(0.540057 0.641854 -4.78488e-20)
(0.587296 0.6461 3.83539e-21)
(0.622195 0.630309 4.24229e-20)
(0.649416 0.603838 1.22799e-20)
(0.672128 0.572844 -2.2106e-21)
(0.692231 0.540871 2.42838e-20)
(0.710736 0.509671 -3.72503e-20)
(0.728121 0.479955 -5.966e-21)
(0.7446 0.451923 -1.4467e-19)
(0.760266 0.425559 -1.10082e-19)
(0.775174 0.400777 -1.87873e-20)
(0.789362 0.377471 -1.49808e-20)
(0.802797 0.355576 -1.67264e-20)
(0.815521 0.335001 -3.39542e-20)
(0.828281 0.315211 -3.87644e-20)
(0.0982036 0.152578 9.52966e-21)
(0.248408 0.370976 9.91498e-20)
(0.366192 0.514014 -3.92755e-20)
(0.454032 0.595799 -6.14875e-20)
(0.51824 0.63113 -3.65476e-21)
(0.565237 0.634577 8.68846e-20)
(0.600629 0.618529 -8.9524e-20)
(0.62876 0.592178 1.77677e-20)
(0.652574 0.561534 -1.39714e-20)
(0.673832 0.530024 -1.38226e-19)
(0.69347 0.499328 -1.29233e-19)
(0.711933 0.470119 2.29721e-20)
(0.729423 0.442577 2.03182e-19)
(0.746032 0.416684 2.88229e-20)
(0.761818 0.392351 7.85741e-20)
(0.776823 0.369476 -1.21603e-19)
(0.79102 0.347993 -2.81848e-20)
(0.804462 0.327811 1.38201e-19)
(0.817861 0.308437 5.97139e-20)
(0.0931008 0.150776 4.06535e-20)
(0.235888 0.365821 3.98989e-20)
(0.348799 0.505948 -9.50313e-20)
(0.433772 0.585514 -4.87887e-21)
(0.496676 0.619395 -3.91703e-20)
(0.543484 0.6221 -5.49888e-20)
(0.579398 0.605865 1.80743e-20)
(0.608448 0.579708 -5.1991e-20)
(0.633361 0.549479 9.84208e-20)
(0.655763 0.518491 -6.21414e-20)
(0.676519 0.48835 4.32563e-20)
(0.696044 0.459693 9.86342e-20)
(0.71453 0.432685 -6.49629e-20)
(0.732068 0.407301 1.58929e-20)
(0.748719 0.383453 7.95645e-20)
(0.764528 0.361042 9.771e-20)
(0.779477 0.340002 -5.08501e-20)
(0.793628 0.320241 -2.78667e-20)
(0.80766 0.301307 4.25056e-20)
(0.0880001 0.148653 -9.63593e-20)
(0.223428 0.359942 3.66383e-20)
(0.331549 0.49695 1.08072e-19)
(0.413742 0.574224 1.25231e-20)
(0.475413 0.606667 -1.61461e-20)
(0.52208 0.608684 -2.94981e-20)
(0.55854 0.592334 -1.44429e-20)
(0.588516 0.566441 6.47623e-20)
(0.614519 0.536692 -9.44902e-20)
(0.63805 0.506282 2.20851e-19)
(0.659908 0.476748 9.17122e-20)
(0.680478 0.448689 -2.93648e-20)
(0.699942 0.422255 -8.86507e-21)
(0.718392 0.397419 3.87747e-20)
(0.735894 0.374092 -1.05976e-19)
(0.752495 0.352177 8.75756e-21)
(0.768185 0.331609 -6.69907e-20)
(0.783034 0.312297 -2.89095e-20)
(0.0829187 0.146212 -1.95213e-20)
(0.211066 0.353347 -1.15465e-19)
(0.314491 0.487032 8.02433e-20)
(0.393991 0.561946 -1.1728e-20)
(0.4545 0.592965 6.12089e-20)
(0.501068 0.59435 1.94964e-20)
(0.538095 0.577953 -3.63813e-21)
(0.568997 0.552394 4.54303e-20)
(0.596081 0.523188 -2.67835e-20)
(0.620725 0.493412 -8.11718e-20)
(0.643663 0.464533 8.8504e-20)
(0.665258 0.437117 9.2731e-20)
(0.685681 0.411298 -7.39571e-23)
(0.705027 0.387046 -2.03785e-20)
(0.723363 0.364275 -1.14414e-20)
(0.740741 0.342888 8.35308e-20)
(0.757158 0.322821 7.22918e-20)
(0.772692 0.303983 1.99895e-20)
(0.0778732 0.143457 9.4682e-20)
(0.198839 0.346047 1.34304e-19)
(0.297671 0.476212 -7.55163e-20)
(0.374569 0.548699 -5.53738e-21)
(0.433981 0.578309 -1.09802e-19)
(0.480492 0.579116 6.73471e-20)
(0.518101 0.562742 -2.7372e-20)
(0.549926 0.537584 -5.10905e-20)
(0.578076 0.508982 -1.9319e-20)
(0.603812 0.479894 -3.20657e-21)
(0.627811 0.451719 -1.91561e-19)
(0.650408 0.424988 -2.40292e-19)
(0.67177 0.399824 -3.65041e-20)
(0.691991 0.376194 8.10542e-20)
(0.711143 0.35401 -3.14567e-20)
(0.729283 0.333182 -1.56525e-19)
(0.746412 0.313644 1.45071e-19)
(0.762618 0.295308 2.05404e-20)
(0.0728804 0.140392 -1.57076e-19)
(0.186783 0.338054 5.35549e-20)
(0.281134 0.464508 -4.28044e-20)
(0.355522 0.534505 5.87308e-20)
(0.413903 0.56272 1.09788e-19)
(0.460391 0.563004 -6.90389e-20)
(0.498593 0.54672 1.26383e-19)
(0.531335 0.52203 -4.34081e-20)
(0.560535 0.494091 6.49641e-20)
(0.587341 0.465744 1.21535e-19)
(0.612375 0.43832 6.55636e-20)
(0.635951 0.412316 2.70405e-19)
(0.658229 0.387846 1.22636e-19)
(0.679305 0.364871 -9.52419e-21)
(0.699254 0.34331 -6.47849e-21)
(0.718136 0.32307 1.99507e-20)
(0.735961 0.304088 -1.61664e-19)
(0.752823 0.286278 -8.5056e-20)
(0.0679565 0.137023 8.86376e-20)
(0.174934 0.329383 -2.38158e-20)
(0.264924 0.451939 -1.13837e-19)
(0.336897 0.519388 -1.02804e-19)
(0.394308 0.546225 -1.87531e-20)
(0.440806 0.546038 1.378e-20)
(0.479608 0.529909 -1.63142e-19)
(0.513257 0.50575 1.21601e-19)
(0.543485 0.478534 -5.49503e-20)
(0.571337 0.450979 -1.25469e-19)
(0.59738 0.424349 -2.98576e-20)
(0.621909 0.399114 -1.11882e-19)
(0.645078 0.375375 -2.30201e-19)
(0.666987 0.353092 1.97095e-20)
(0.687711 0.332183 1.77172e-19)
(0.707316 0.312561 -7.62891e-20)
(0.72582 0.294162 9.05395e-20)
(0.0631176 0.133355 -1.55412e-20)
(0.163326 0.320049 -2.12677e-19)
(0.249084 0.438529 2.11358e-19)
(0.318737 0.503372 -5.25131e-20)
(0.375239 0.528848 7.33763e-20)
(0.421775 0.528244 4.36806e-20)
(0.46118 0.512333 1.74667e-19)
(0.495723 0.488767 -2.08095e-19)
(0.526956 0.462328 1.6194e-19)
(0.555825 0.435615 1.26817e-19)
(0.582849 0.409825 -3.6347e-20)
(0.608303 0.385398 -1.86027e-20)
(0.632339 0.362426 6.74475e-20)
(0.655055 0.340867 -1.14498e-19)
(0.676532 0.320642 -1.50379e-19)
(0.69684 0.301665 5.60045e-20)
(0.716003 0.283875 -5.66555e-20)
(0.0583793 0.129397 -1.57439e-20)
(0.151994 0.31007 7.00842e-20)
(0.233655 0.4243 7.97688e-20)
(0.301086 0.486484 -1.37182e-19)
(0.356737 0.510617 6.90828e-20)
(0.403335 0.509646 -1.75851e-19)
(0.443343 0.494015 -1.33332e-20)
(0.478761 0.471103 9.61862e-21)
(0.510974 0.445496 -1.65003e-20)
(0.54083 0.419671 -1.6005e-19)
(0.568805 0.394763 -7.43741e-21)
(0.595155 0.371184 -2.51632e-20)
(0.620029 0.349013 1.50055e-19)
(0.643527 0.328211 -4.60594e-20)
(0.665734 0.308699 -1.30193e-20)
(0.686722 0.290395 7.47439e-20)
(0.706523 0.273238 2.1413e-19)
(0.0537567 0.125156 -3.00879e-20)
(0.140969 0.299466 -1.76646e-20)
(0.218678 0.409279 -8.66675e-20)
(0.283985 0.468754 5.15358e-20)
(0.338841 0.491561 1.42849e-19)
(0.385522 0.490273 -7.73934e-20)
(0.426128 0.474982 -1.21514e-19)
(0.462402 0.452781 1.17664e-19)
(0.495565 0.428057 -3.84524e-20)
(0.526377 0.403167 1.05685e-19)
(0.55527 0.379183 4.74429e-20)
(0.582485 0.356487 -2.74483e-20)
(0.608167 0.335153 -1.01983e-19)
(0.63242 0.315138 1.24825e-19)
(0.655331 0.296368 -3.10045e-20)
(0.676976 0.278763 -1.31783e-19)
(0.697393 0.262263 -4.38296e-20)
(0.0492648 0.12064 5.92885e-20)
(0.130284 0.288256 2.13961e-20)
(0.204191 0.393494 -1.65635e-20)
(0.267474 0.450212 -4.66982e-20)
(0.321589 0.47171 -3.30629e-20)
(0.36837 0.470154 1.90673e-19)
(0.409567 0.455259 3.34598e-20)
(0.446672 0.433826 9.04925e-20)
(0.480754 0.410036 6.58385e-20)
(0.512487 0.386125 -1.7626e-19)
(0.542264 0.363102 -9.06493e-20)
(0.570312 0.341326 1.65227e-19)
(0.596772 0.32086 -5.00328e-21)
(0.621751 0.301663 -1.29795e-19)
(0.64534 0.283662 3.24317e-20)
(0.667617 0.266782 1.54517e-19)
(0.0449177 0.115859 6.86783e-20)
(0.119968 0.276464 -8.70656e-20)
(0.190233 0.376973 -3.86833e-20)
(0.251591 0.43089 -8.65537e-21)
(0.305017 0.451097 -1.0978e-19)
(0.351913 0.449319 -5.71968e-20)
(0.393688 0.434877 -2.38808e-20)
(0.431599 0.414263 -1.80307e-19)
(0.466566 0.391454 -1.34642e-19)
(0.499183 0.368564 1.75427e-19)
(0.529808 0.346542 9.52954e-20)
(0.558654 0.325718 -7.29792e-20)
(0.585861 0.306152 -8.3344e-20)
(0.611536 0.287802 8.83613e-20)
(0.635774 0.270597 -4.9474e-20)
(0.658657 0.254465 7.00017e-20)
(0.0407292 0.110823 8.38036e-20)
(0.110051 0.264112 -1.31024e-19)
(0.176837 0.359748 3.68578e-20)
(0.236373 0.410821 6.40109e-20)
(0.28916 0.429755 -6.60047e-22)
(0.336181 0.4278 -7.76438e-20)
(0.37852 0.413862 6.61577e-20)
(0.417207 0.394119 2.40441e-20)
(0.453023 0.372337 -7.09672e-20)
(0.486487 0.350509 4.65847e-20)
(0.517922 0.329522 -1.20706e-19)
(0.547531 0.309684 -2.61992e-20)
(0.57545 0.291048 1.05984e-19)
(0.60179 0.273571 3.71752e-20)
(0.626648 0.257187 5.69175e-20)
(0.650109 0.241827 -1.05846e-19)
(0.0367125 0.105544 -8.35894e-20)
(0.10056 0.251225 -3.35271e-20)
(0.164039 0.34185 6.4509e-20)
(0.221855 0.390041 -1.31808e-19)
(0.274049 0.407719 -6.30702e-20)
(0.321205 0.40563 1.33891e-19)
(0.364091 0.392247 2.09654e-19)
(0.403521 0.373423 5.86958e-20)
(0.440147 0.352711 7.76844e-20)
(0.474418 0.331982 -7.18816e-22)
(0.506624 0.312064 3.55137e-20)
(0.536958 0.293244 1.22882e-19)
(0.565555 0.275565 -1.74934e-20)
(0.592527 0.258988 -2.11493e-19)
(0.617975 0.243449 1.83468e-21)
(0.641987 0.228883 1.12926e-20)
(0.0328802 0.100032 2.6706e-20)
(0.091523 0.237831 -6.6744e-20)
(0.151871 0.323314 2.30551e-19)
(0.20807 0.368586 9.10047e-22)
(0.259718 0.385024 8.37288e-20)
(0.307013 0.382842 8.05603e-20)
(0.350424 0.370062 -7.78408e-20)
(0.390565 0.352202 9.57117e-21)
(0.42796 0.332601 -4.92272e-20)
(0.462995 0.313007 1.22633e-20)
(0.495931 0.294192 -1.46385e-21)
(0.526951 0.276418 -5.49152e-20)
(0.55619 0.259724 -2.40758e-20)
(0.583761 0.244071 1.40797e-19)
(0.609767 0.229399 -1.03936e-19)
(0.634301 0.215648 6.81442e-20)
(0.0292441 0.094299 -5.69454e-20)
(0.0829641 0.223955 -6.26792e-20)
(0.140362 0.304175 -3.34324e-20)
(0.195048 0.346493 7.80656e-20)
(0.246194 0.361708 -6.5101e-20)
(0.293631 0.359473 -1.12227e-19)
(0.337545 0.34734 -6.63582e-20)
(0.378358 0.330487 -1.26282e-19)
(0.41648 0.312035 1.01406e-19)
(0.452236 0.29361 -8.11146e-20)
(0.485861 0.275928 1.69896e-20)
(0.517528 0.259227 1.18245e-20)
(0.547371 0.243543 -4.98877e-20)
(0.575506 0.228838 5.69188e-20)
(0.602038 0.215056 8.42189e-20)
(0.0258156 0.0883588 1.2463e-19)
(0.0749073 0.209627 1.23278e-19)
(0.129542 0.284468 -9.15873e-20)
(0.182819 0.323803 -7.64157e-20)
(0.233506 0.33781 2.0819e-20)
(0.281084 0.335557 4.4536e-20)
(0.325476 0.324113 -1.5283e-19)
(0.366922 0.308307 2.42958e-20)
(0.405727 0.29104 -9.9178e-20)
(0.442158 0.273817 8.28418e-20)
(0.476428 0.257296 1.91753e-20)
(0.5087 0.241694 -8.60443e-20)
(0.53911 0.227044 -1.90466e-20)
(0.567773 0.213309 4.45238e-20)
(0.594798 0.200436 2.06447e-20)
(0.0226053 0.0822243 -5.72086e-20)
(0.0673746 0.194876 1.45843e-20)
(0.119438 0.264233 1.71893e-19)
(0.171411 0.300554 9.41147e-20)
(0.221678 0.313368 6.17523e-20)
(0.269396 0.311132 1.14566e-19)
(0.314237 0.300416 1.54075e-20)
(0.356276 0.285695 1.05622e-20)
(0.395717 0.269646 -8.05426e-22)
(0.432778 0.253654 -1.05886e-19)
(0.467647 0.23832 5.44936e-20)
(0.500483 0.223842 -8.62389e-20)
(0.531419 0.210248 5.57811e-20)
(0.560574 0.197502 -8.78434e-20)
(0.588057 0.185557 -5.05531e-20)
(0.0196229 0.0759094 -1.23452e-20)
(0.0603867 0.179733 8.4245e-20)
(0.110075 0.243507 -9.7526e-20)
(0.160848 0.276789 -4.34106e-20)
(0.210736 0.288424 3.86076e-20)
(0.258589 0.286235 -8.46334e-20)
(0.303849 0.276284 6.30892e-20)
(0.346437 0.262682 8.67525e-21)
(0.386466 0.247883 5.10594e-20)
(0.424109 0.233149 -2.00459e-21)
(0.459532 0.219026 -4.80519e-20)
(0.492889 0.205694 4.62187e-20)
(0.524311 0.193176 -1.17414e-19)
(0.553919 0.181439 1.60784e-19)
(0.581826 0.17044 6.04573e-20)
(0.0168777 0.0694283 -3.59711e-20)
(0.0539624 0.164229 -3.65179e-20)
(0.101474 0.222331 -5.37507e-20)
(0.151155 0.252549 6.14002e-20)
(0.2007 0.263017 -3.26989e-20)
(0.248681 0.260906 -1.61073e-20)
(0.294328 0.251752 -3.17224e-20)
(0.337421 0.239301 -3.96469e-20)
(0.37799 0.225779 -1.07631e-19)
(0.416165 0.212328 4.59505e-20)
(0.452096 0.19944 -6.30545e-20)
(0.485928 0.187274 1.13395e-19)
(0.517795 0.175851 7.51759e-20)
(0.547819 0.16514 -1.30067e-19)
(0.576114 0.155102 -1.28397e-19)
(0.0143779 0.0627958 3.64517e-20)
(0.0481192 0.148397 -9.46166e-20)
(0.0936581 0.200745 -6.40367e-21)
(0.142351 0.227877 -8.41312e-20)
(0.191591 0.237191 -9.26542e-20)
(0.239692 0.235184 1.33089e-19)
(0.285692 0.226858 1.79869e-20)
(0.329243 0.215586 6.37978e-20)
(0.370302 0.203366 6.59316e-20)
(0.408958 0.191221 -1.53084e-20)
(0.445349 0.179587 8.85299e-20)
(0.479612 0.168606 -5.12374e-20)
(0.511883 0.158295 -6.50485e-20)
(0.542283 0.148626 1.01825e-19)
(0.570928 0.139563 1.13563e-19)
(0.0121311 0.0560271 -3.71528e-20)
(0.0428727 0.132271 8.29961e-20)
(0.0866449 0.178791 -8.82777e-20)
(0.134456 0.202819 5.58415e-20)
(0.183426 0.210988 5.13822e-20)
(0.231637 0.209108 -7.1924e-20)
(0.277954 0.201636 3.31211e-20)
(0.321916 0.191569 3.66489e-20)
(0.363413 0.180676 -1.12702e-19)
(0.402501 0.169857 5.41237e-20)
(0.439301 0.159496 6.01341e-21)
(0.473951 0.149716 4.97228e-20)
(0.506581 0.140531 -6.33034e-20)
(0.537317 0.131918 7.81326e-21)
(0.566277 0.123844 -4.78986e-21)
(0.010144 0.0491377 -3.98929e-20)
(0.0382369 0.115882 5.12706e-20)
(0.0804516 0.156511 9.35632e-20)
(0.127488 0.177417 -1.14251e-20)
(0.176222 0.184452 6.32989e-20)
(0.224531 0.18272 -7.82317e-20)
(0.271129 0.176126 1.91529e-20)
(0.315453 0.167287 -6.61783e-20)
(0.357335 0.157739 8.60495e-23)
(0.396802 0.148264 -1.01945e-19)
(0.433963 0.139191 -7.27408e-20)
(0.468951 0.130628 3.81176e-20)
(0.501899 0.122584 9.85849e-21)
(0.532931 0.115039 -2.56661e-20)
(0.562167 0.107965 3.37651e-20)
(0.00842241 0.0421435 3.56732e-20)
(0.0342239 0.0992678 1.17199e-20)
(0.0750928 0.133948 2.85021e-20)
(0.121461 0.151718 -4.17318e-20)
(0.169992 0.157626 -1.87289e-20)
(0.218387 0.15606 -3.49286e-20)
(0.265227 0.150365 3.32891e-21)
(0.309863 0.142773 2.3634e-20)
(0.352076 0.134588 7.15883e-20)
(0.39187 0.126472 8.58843e-20)
(0.429342 0.118703 3.26014e-20)
(0.464622 0.111368 -7.70782e-21)
(0.497842 0.104476 -1.62962e-20)
(0.52913 0.0980098 -4.03484e-20)
(0.558604 0.091946 4.80875e-21)
(0.00697149 0.0350607 7.40371e-21)
(0.0308442 0.0824614 -4.89851e-20)
(0.0705809 0.111146 -6.66099e-20)
(0.116388 0.125767 -2.30686e-21)
(0.164748 0.130555 -4.85892e-21)
(0.213215 0.129171 2.32904e-20)
(0.260258 0.124392 -7.16202e-20)
(0.305155 0.118062 -2.74507e-20)
(0.347646 0.111256 -4.58904e-20)
(0.387712 0.104512 1.76525e-21)
(0.425444 0.0980571 1.46626e-20)
(0.460969 0.0919612 3.22545e-20)
(0.494418 0.0862315 -6.27573e-21)
(0.525919 0.0808535 2.70789e-20)
(0.555593 0.0758081 -1.30354e-20)
(0.00579539 0.0279056 -3.18402e-20)
(0.0281064 0.0654987 1.84306e-20)
(0.0669265 0.0881498 -1.83197e-20)
(0.112278 0.0996113 2.25759e-20)
(0.160501 0.103284 1.71745e-20)
(0.209025 0.102094 4.74739e-21)
(0.25623 0.0982448 5.53255e-20)
(0.301337 0.0931914 -1.46436e-20)
(0.34405 0.0877749 1.27809e-20)
(0.384336 0.0824141 1.48372e-20)
(0.422276 0.0772829 1.01345e-20)
(0.457997 0.0724349 -2.69161e-20)
(0.49163 0.0678751 3.4798e-20)
(0.523303 0.0635925 2.56961e-20)
(0.553138 0.0595722 -9.9333e-21)
(0.00489743 0.0206948 9.75606e-21)
(0.0260175 0.0484157 2.31613e-20)
(0.0641376 0.0650029 -5.15737e-21)
(0.109142 0.0732971 -3.57351e-20)
(0.157257 0.0758595 1.80335e-20)
(0.205823 0.0748718 5.18876e-20)
(0.25315 0.0719628 -4.07943e-20)
(0.298413 0.0681958 -2.31767e-21)
(0.341294 0.0641782 1.00971e-20)
(0.381744 0.0602083 2.19929e-20)
(0.419842 0.0564083 2.04689e-21)
(0.455711 0.0528149 -6.79398e-21)
(0.489482 0.0494312 -1.07732e-20)
(0.521286 0.0462495 -1.11911e-20)
(0.00428003 0.013445 4.40864e-21)
(0.0245823 0.0312483 -1.21007e-20)
(0.0622203 0.0417507 4.9132e-21)
(0.106984 0.0468717 1.51587e-20)
(0.155024 0.0483257 -8.65597e-21)
(0.203615 0.047547 -2.66116e-20)
(0.251022 0.0455853 1.25961e-20)
(0.29639 0.0431116 -2.96644e-22)
(0.339382 0.040499 -3.48572e-20)
(0.379942 0.0379257 2.07237e-20)
(0.418145 0.0354619 -1.36795e-20)
(0.454113 0.0331276 1.06214e-20)
(0.487978 0.0309243 -8.56393e-21)
(0.519869 0.0288475 4.42e-21)
(0.00394474 0.00617304 -1.96824e-22)
(0.0238042 0.014033 6.96662e-21)