/*--------------------------------*- C++ -*----------------------------------*\
  =========                 |
  \\      /  F ield         | OpenFOAM: The Open Source CFD Toolbox
   \\    /   O peration     | Website:  https://openfoam.org
    \\  /    A nd           | Version:  7
     \\/     M anipulation  |
\*---------------------------------------------------------------------------*/
FoamFile
{
    version     2.0;
    format      ascii;
    class       volScalarField;
    location    "220";
    object      p;
}
// * * * * * * * * * * * * * * * * * * * * * * * * * * * * * * * * * * * * * //

dimensions      [0 2 -2 0 0 0 0];

internalField   nonuniform List<scalar> 
7156
(
-0.398502
-0.398999
-0.399486
-0.400002
-0.400579
-0.401237
-0.401991
-0.402848
-0.403812
-0.404883
-0.406061
-0.407343
-0.408726
-0.410207
-0.411784
-0.41345
-0.4152
-0.417028
-0.418934
-0.420831
-0.422729
-0.394948
-0.395426
-0.395877
-0.396339
-0.396843
-0.397409
-0.398049
-0.39877
-0.399576
-0.400465
-0.401435
-0.402483
-0.403605
-0.404795
-0.40605
-0.407362
-0.408723
-0.410127
-0.411574
-0.412968
-0.414322
-0.391426
-0.391884
-0.392297
-0.392706
-0.393136
-0.393609
-0.394135
-0.394721
-0.395368
-0.396075
-0.396838
-0.397652
-0.398512
-0.399412
-0.400344
-0.401302
-0.402274
-0.403255
-0.404244
-0.405136
-0.405943
-0.387943
-0.388379
-0.388755
-0.389108
-0.389466
-0.389846
-0.390259
-0.39071
-0.3912
-0.391725
-0.392282
-0.392863
-0.393463
-0.394073
-0.394685
-0.39529
-0.395876
-0.396435
-0.396971
-0.397365
-0.397629
-0.384504
-0.384917
-0.385256
-0.385555
-0.38584
-0.386128
-0.386429
-0.386747
-0.38708
-0.387426
-0.387778
-0.388129
-0.388471
-0.388794
-0.389088
-0.389344
-0.389548
-0.389693
-0.389781
-0.389685
-0.389411
-0.381116
-0.381506
-0.381806
-0.382052
-0.382265
-0.382463
-0.382654
-0.382839
-0.383019
-0.383187
-0.383337
-0.383461
-0.383548
-0.383588
-0.38357
-0.383482
-0.383311
-0.383047
-0.382698
-0.382122
-0.381321
-0.377784
-0.37815
-0.378413
-0.378605
-0.378748
-0.378857
-0.378939
-0.378996
-0.379024
-0.379018
-0.378969
-0.378869
-0.378706
-0.378468
-0.378143
-0.377719
-0.37718
-0.376519
-0.375744
-0.374703
-0.373386
-0.374514
-0.374855
-0.375081
-0.375221
-0.375295
-0.375317
-0.375293
-0.375222
-0.375102
-0.374926
-0.374683
-0.374364
-0.373956
-0.373446
-0.372822
-0.372069
-0.371173
-0.370125
-0.368939
-0.367447
-0.365631
-0.37131
-0.371627
-0.371816
-0.371904
-0.371911
-0.371848
-0.371721
-0.371527
-0.371262
-0.370919
-0.370486
-0.369953
-0.369306
-0.368532
-0.367616
-0.366544
-0.365302
-0.36388
-0.362297
-0.360374
-0.358078
-0.368176
-0.368469
-0.368622
-0.36866
-0.368602
-0.368457
-0.368228
-0.367914
-0.367509
-0.367003
-0.366386
-0.365645
-0.364766
-0.363734
-0.362535
-0.361155
-0.359579
-0.357798
-0.355835
-0.353501
-0.350744
-0.365117
-0.365386
-0.365503
-0.365493
-0.365372
-0.365147
-0.36482
-0.36439
-0.363848
-0.363184
-0.362388
-0.361445
-0.360341
-0.35906
-0.357588
-0.355911
-0.354013
-0.351888
-0.349564
-0.346841
-0.343644
-0.362135
-0.362381
-0.362465
-0.362408
-0.362225
-0.361923
-0.361502
-0.360958
-0.360284
-0.359468
-0.358498
-0.357359
-0.356037
-0.354516
-0.352782
-0.350819
-0.348613
-0.34616
-0.343492
-0.340403
-0.336791
-0.359235
-0.359459
-0.359509
-0.359407
-0.359165
-0.358788
-0.358276
-0.357623
-0.356821
-0.355857
-0.354719
-0.353392
-0.35186
-0.350108
-0.34812
-0.345884
-0.343385
-0.34062
-0.337628
-0.334196
-0.330194
-0.356621
-0.356639
-0.356494
-0.356195
-0.355746
-0.355146
-0.354388
-0.353462
-0.352356
-0.351056
-0.349547
-0.347813
-0.345838
-0.343608
-0.341111
-0.338332
-0.335272
-0.331976
-0.328226
-0.323857
-0.353871
-0.353858
-0.353671
-0.353317
-0.3528
-0.352115
-0.351256
-0.350211
-0.348967
-0.347512
-0.345827
-0.343899
-0.341711
-0.339249
-0.336502
-0.333459
-0.33012
-0.326539
-0.322495
-0.317786
-0.351212
-0.35117
-0.350942
-0.350536
-0.349952
-0.349185
-0.348228
-0.347069
-0.345693
-0.344087
-0.342235
-0.340119
-0.337727
-0.335043
-0.332059
-0.328766
-0.325165
-0.321318
-0.317004
-0.31198
-0.348647
-0.348575
-0.348308
-0.347852
-0.347204
-0.346359
-0.345308
-0.344038
-0.342535
-0.340785
-0.33877
-0.336476
-0.333888
-0.330993
-0.327784
-0.324253
-0.320407
-0.316313
-0.311754
-0.306439
-0.346176
-0.346077
-0.345772
-0.345267
-0.344558
-0.343637
-0.342496
-0.34112
-0.339495
-0.337606
-0.335436
-0.33297
-0.330194
-0.327098
-0.323674
-0.31992
-0.315844
-0.311522
-0.306742
-0.301161
-0.343802
-0.343676
-0.343336
-0.342783
-0.342015
-0.341022
-0.339794
-0.338316
-0.336573
-0.334551
-0.332232
-0.329601
-0.326647
-0.323358
-0.319731
-0.315765
-0.311474
-0.306941
-0.301967
-0.296142
-0.341526
-0.341375
-0.341
-0.340402
-0.339577
-0.338515
-0.337203
-0.335627
-0.333771
-0.33162
-0.329158
-0.32637
-0.323244
-0.319772
-0.315952
-0.311787
-0.307293
-0.302566
-0.297425
-0.291382
-0.339175
-0.338767
-0.338126
-0.337246
-0.336116
-0.334723
-0.333053
-0.331089
-0.328815
-0.326216
-0.323277
-0.319987
-0.31634
-0.312336
-0.307982
-0.303298
-0.298391
-0.293111
-0.286873
-0.337078
-0.336638
-0.335954
-0.335021
-0.333827
-0.332357
-0.330596
-0.328528
-0.326136
-0.323405
-0.320322
-0.316875
-0.313061
-0.308882
-0.304348
-0.299485
-0.294408
-0.28901
-0.282578
-0.335086
-0.334614
-0.33389
-0.332906
-0.331649
-0.330105
-0.328257
-0.326088
-0.323583
-0.320727
-0.317505
-0.313909
-0.309934
-0.305588
-0.300884
-0.29585
-0.290613
-0.285109
-0.278485
-0.333199
-0.332696
-0.331933
-0.330899
-0.329583
-0.327967
-0.326035
-0.323771
-0.321158
-0.318181
-0.314827
-0.311087
-0.306961
-0.302455
-0.297588
-0.292393
-0.287003
-0.281392
-0.274601
-0.330887
-0.330085
-0.329004
-0.327629
-0.325945
-0.323933
-0.321578
-0.318861
-0.315769
-0.312289
-0.308413
-0.30414
-0.299482
-0.29446
-0.289113
-0.28358
-0.277828
-0.271003
-0.329186
-0.328347
-0.32722
-0.32579
-0.32404
-0.321952
-0.319509
-0.316694
-0.313492
-0.309892
-0.305886
-0.301474
-0.29667
-0.291499
-0.286008
-0.280344
-0.274448
-0.267602
-0.327596
-0.326721
-0.325549
-0.324066
-0.322253
-0.320092
-0.317566
-0.314658
-0.311353
-0.307639
-0.303509
-0.298965
-0.294022
-0.288708
-0.283076
-0.277288
-0.271274
-0.264387
-0.326118
-0.325207
-0.323993
-0.322458
-0.320585
-0.318356
-0.315751
-0.312755
-0.309353
-0.305531
-0.301285
-0.296616
-0.291539
-0.286087
-0.280318
-0.274407
-0.268288
-0.261357
-0.323808
-0.322552
-0.320968
-0.319039
-0.316744
-0.314066
-0.310988
-0.307494
-0.303573
-0.299217
-0.294429
-0.289225
-0.28364
-0.277737
-0.271702
-0.265482
-0.258495
-0.322523
-0.321228
-0.319598
-0.317615
-0.315259
-0.312513
-0.309358
-0.30578
-0.301765
-0.297308
-0.292409
-0.287085
-0.281372
-0.275336
-0.269175
-0.262851
-0.255785
-0.321354
-0.320021
-0.318348
-0.316314
-0.313902
-0.311093
-0.307868
-0.304212
-0.300113
-0.295562
-0.290561
-0.285124
-0.279287
-0.273119
-0.266828
-0.260394
-0.253216
-0.320302
-0.318934
-0.317219
-0.315139
-0.312676
-0.309808
-0.30652
-0.302795
-0.298619
-0.293983
-0.288888
-0.283346
-0.277391
-0.271091
-0.264666
-0.258111
-0.250775
-0.317965
-0.316213
-0.314091
-0.31158
-0.308661
-0.305316
-0.301529
-0.297285
-0.292574
-0.287394
-0.281756
-0.27569
-0.26926
-0.262692
-0.256004
-0.248454
-0.317118
-0.31533
-0.313169
-0.310616
-0.307651
-0.304257
-0.300416
-0.296113
-0.291338
-0.286084
-0.280359
-0.274188
-0.267629
-0.260914
-0.254076
-0.246245
-0.31639
-0.31457
-0.312374
-0.309784
-0.30678
-0.303343
-0.299457
-0.295105
-0.290275
-0.284958
-0.279156
-0.27289
-0.266206
-0.259336
-0.252335
-0.244142
-0.313933
-0.311707
-0.309084
-0.306046
-0.302575
-0.298652
-0.29426
-0.289386
-0.284017
-0.27815
-0.271797
-0.264993
-0.257962
-0.250787
-0.242143
-0.313419
-0.311165
-0.308516
-0.30545
-0.301951
-0.297999
-0.293577
-0.288669
-0.283258
-0.277338
-0.270909
-0.263991
-0.256797
-0.249438
-0.240248
-0.313026
-0.310749
-0.308076
-0.304989
-0.301468
-0.297495
-0.293052
-0.288119
-0.282679
-0.276716
-0.270222
-0.263198
-0.255839
-0.248294
-0.238459
-0.310454
-0.307763
-0.304659
-0.301123
-0.297137
-0.29268
-0.287732
-0.282272
-0.276277
-0.26973
-0.262609
-0.255085
-0.247356
-0.236781
-0.310279
-0.307573
-0.304457
-0.300912
-0.296917
-0.292454
-0.2875
-0.282028
-0.276011
-0.269421
-0.262215
-0.254528
-0.246625
-0.235218
-0.307502
-0.304378
-0.300827
-0.29683
-0.292367
-0.287412
-0.281938
-0.275908
-0.269285
-0.262003
-0.254158
-0.246094
-0.233777
-0.307543
-0.304414
-0.300862
-0.296868
-0.292409
-0.28746
-0.281989
-0.275954
-0.269307
-0.261961
-0.253963
-0.245752
-0.232465
-0.30456
-0.30101
-0.297021
-0.29257
-0.287632
-0.282169
-0.276135
-0.269474
-0.262074
-0.253932
-0.245587
-0.23129
-0.304807
-0.301261
-0.29728
-0.292841
-0.287916
-0.282466
-0.276441
-0.269773
-0.262332
-0.254059
-0.245585
-0.230266
-0.305148
-0.301606
-0.297635
-0.293209
-0.288301
-0.282869
-0.276859
-0.270197
-0.262729
-0.254351
-0.245745
-0.229441
-0.302038
-0.298076
-0.293666
-0.288777
-0.283368
-0.277383
-0.270741
-0.263266
-0.254823
-0.246084
-0.228911
-0.302546
-0.298595
-0.294201
-0.289334
-0.283954
-0.278005
-0.271404
-0.26395
-0.255506
-0.246587
-0.228684
-0.299182
-0.294804
-0.289963
-0.28462
-0.278722
-0.272194
-0.264813
-0.256473
-0.247169
-0.228358
-0.299828
-0.295468
-0.290655
-0.285357
-0.279532
-0.27312
-0.265915
-0.257921
-0.248051
-0.228102
-0.296183
-0.291401
-0.286157
-0.280423
-0.274177
-0.267285
-0.260031
-0.250448
-0.233841
-0.292193
-0.287007
-0.281379
-0.275332
-0.268824
-0.262495
-0.254936
-0.257347
-0.293022
-0.287895
-0.282374
-0.276527
-0.27039
-0.264878
-0.258464
-0.264873
-0.288806
-0.283385
-0.277715
-0.271876
-0.266904
-0.260947
-0.267563
-0.289727
-0.284389
-0.278862
-0.273237
-0.268564
-0.26279
-0.268791
-0.28537
-0.279941
-0.274447
-0.269887
-0.264115
-0.268996
-0.280935
-0.275494
-0.270903
-0.265006
-0.268514
-0.281832
-0.276377
-0.271646
-0.265551
-0.267628
-0.277099
-0.272154
-0.265824
-0.266517
-0.272461
-0.265883
-0.265289
-0.265772
-0.264012
-0.265522
-0.262723
-0.261443
-0.452773
-0.463577
-0.457305
-0.47522
-0.467323
-0.461997
-0.478403
-0.471089
-0.466846
-0.48617
-0.481542
-0.474852
-0.471838
-0.492111
-0.488521
-0.48461
-0.478575
-0.476937
-0.493777
-0.490776
-0.487569
-0.482206
-0.482074
-0.497125
-0.495368
-0.49292
-0.490376
-0.485677
-0.487124
-0.499001
-0.49816
-0.496883
-0.494939
-0.492984
-0.488899
-0.491863
-0.499596
-0.499166
-0.498328
-0.496828
-0.495339
-0.491769
-0.495927
-0.499997
-0.500205
-0.500157
-0.499714
-0.498591
-0.497396
-0.494162
-0.49875
-0.500305
-0.500839
-0.501146
-0.50106
-0.500253
-0.499134
-0.495883
-0.498221
-0.499815
-0.500667
-0.501509
-0.502149
-0.502395
-0.501874
-0.500691
-0.497112
-0.487389
-0.499036
-0.499977
-0.501089
-0.502223
-0.503182
-0.50375
-0.503534
-0.502311
-0.499495
-0.487205
-0.499053
-0.500215
-0.501576
-0.502988
-0.504257
-0.505152
-0.505303
-0.504256
-0.502676
-0.491062
-0.4981
-0.499151
-0.500527
-0.502126
-0.503808
-0.505379
-0.506608
-0.50717
-0.506455
-0.505888
-0.494931
-0.498086
-0.499326
-0.500909
-0.502738
-0.504679
-0.506546
-0.508108
-0.509089
-0.508775
-0.508972
-0.498591
-0.497133
-0.498145
-0.499571
-0.501355
-0.503407
-0.505597
-0.507751
-0.509643
-0.511031
-0.511154
-0.511996
-0.50236
-0.497081
-0.498267
-0.499877
-0.501858
-0.504125
-0.506556
-0.508986
-0.511199
-0.51298
-0.513564
-0.514982
-0.506254
-0.496176
-0.497081
-0.498441
-0.500232
-0.502405
-0.504882
-0.507546
-0.510242
-0.512766
-0.514921
-0.515977
-0.517905
-0.510181
-0.496047
-0.49712
-0.498653
-0.500624
-0.502987
-0.505666
-0.508554
-0.511506
-0.514329
-0.516842
-0.518364
-0.520745
-0.514073
-0.495944
-0.497185
-0.498891
-0.501039
-0.503587
-0.506464
-0.509569
-0.512765
-0.515875
-0.518726
-0.520703
-0.52349
-0.517888
-0.49491
-0.495852
-0.497262
-0.499138
-0.501462
-0.504192
-0.50726
-0.510574
-0.514005
-0.517389
-0.520559
-0.522974
-0.526132
-0.521595
-0.494652
-0.495758
-0.497335
-0.499381
-0.501877
-0.504784
-0.508039
-0.511554
-0.51521
-0.518854
-0.522327
-0.525159
-0.528661
-0.525164
-0.49357
-0.494379
-0.495648
-0.497389
-0.499602
-0.502267
-0.505347
-0.508783
-0.512491
-0.516362
-0.520253
-0.524013
-0.527241
-0.531066
-0.528572
-0.493113
-0.494078
-0.495506
-0.49741
-0.499786
-0.502616
-0.505864
-0.509474
-0.513368
-0.517444
-0.521571
-0.525602
-0.529205
-0.533335
-0.531799
-0.492617
-0.493735
-0.495319
-0.497381
-0.499916
-0.502906
-0.506316
-0.510094
-0.514167
-0.518438
-0.522788
-0.527078
-0.531034
-0.535457
-0.534824
-0.491251
-0.492071
-0.493337
-0.495073
-0.497287
-0.499976
-0.50312
-0.506687
-0.510625
-0.514868
-0.519326
-0.523888
-0.528424
-0.532712
-0.537418
-0.537631
-0.490502
-0.491461
-0.492872
-0.494754
-0.497115
-0.499951
-0.503243
-0.506958
-0.51105
-0.515455
-0.520089
-0.524853
-0.529623
-0.534224
-0.539203
-0.540206
-0.489685
-0.490778
-0.492326
-0.494348
-0.49685
-0.499826
-0.503257
-0.507114
-0.511352
-0.51591
-0.520712
-0.525666
-0.530658
-0.535555
-0.540799
-0.542535
-0.488001
-0.48879
-0.49001
-0.49169
-0.493845
-0.496479
-0.499586
-0.50315
-0.507139
-0.511513
-0.516216
-0.521176
-0.526311
-0.531513
-0.536689
-0.542189
-0.544604
-0.486901
-0.487806
-0.489148
-0.490951
-0.49323
-0.495989
-0.49922
-0.502906
-0.507019
-0.51152
-0.516357
-0.521466
-0.52677
-0.532173
-0.537611
-0.54336
-0.546401
-0.485711
-0.486726
-0.488182
-0.490101
-0.492495
-0.495368
-0.498713
-0.502512
-0.506739
-0.511358
-0.51632
-0.521567
-0.52703
-0.532622
-0.538306
-0.544294
-0.547912
-0.484424
-0.485542
-0.487103
-0.489129
-0.49163
-0.494608
-0.498055
-0.501957
-0.506288
-0.511013
-0.51609
-0.521465
-0.527076
-0.532846
-0.538761
-0.544978
-0.549122
-0.482234
-0.483032
-0.484246
-0.485905
-0.488027
-0.490624
-0.493697
-0.497237
-0.50123
-0.505653
-0.510475
-0.515656
-0.521147
-0.526895
-0.532831
-0.53896
-0.545394
-0.550027
-0.480647
-0.481531
-0.482832
-0.484579
-0.486789
-0.489472
-0.492627
-0.496249
-0.500322
-0.504826
-0.509733
-0.515005
-0.520601
-0.526474
-0.532563
-0.538889
-0.545524
-0.550608
-0.478952
-0.479914
-0.481295
-0.48312
-0.485408
-0.488165
-0.491392
-0.495083
-0.499225
-0.503798
-0.508777
-0.51413
-0.519818
-0.525802
-0.53203
-0.538534
-0.54535
-0.550797
-0.476497
-0.477145
-0.478177
-0.479629
-0.481524
-0.483878
-0.486698
-0.489986
-0.493734
-0.497932
-0.502561
-0.5076
-0.51302
-0.518788
-0.524869
-0.53122
-0.537882
-0.544859
-0.55064
-0.474511
-0.475222
-0.476318
-0.477831
-0.479785
-0.482195
-0.485068
-0.488403
-0.492196
-0.496437
-0.50111
-0.506195
-0.511668
-0.517501
-0.523665
-0.530122
-0.536922
-0.544041
-0.550132
-0.472412
-0.473181
-0.474332
-0.475899
-0.477902
-0.480357
-0.48327
-0.486641
-0.490466
-0.494736
-0.499439
-0.504557
-0.510069
-0.515952
-0.522182
-0.528729
-0.535644
-0.542886
-0.549253
-0.4702
-0.47102
-0.472219
-0.47383
-0.475872
-0.478361
-0.481302
-0.484696
-0.48854
-0.492827
-0.497545
-0.502681
-0.508217
-0.514134
-0.520413
-0.527029
-0.534039
-0.541381
-0.547987
-0.467874
-0.468739
-0.469978
-0.471624
-0.473695
-0.476206
-0.479163
-0.482568
-0.486418
-0.490707
-0.495426
-0.500565
-0.506108
-0.512042
-0.518351
-0.525016
-0.532095
-0.539512
-0.546319
-0.464863
-0.465434
-0.466337
-0.467609
-0.46928
-0.47137
-0.473893
-0.476854
-0.480257
-0.484099
-0.488376
-0.493081
-0.498206
-0.503741
-0.509673
-0.515992
-0.522683
-0.529804
-0.53727
-0.544237
-0.462272
-0.462882
-0.463816
-0.465113
-0.466801
-0.468899
-0.471422
-0.474376
-0.477764
-0.481584
-0.485834
-0.490511
-0.495606
-0.501113
-0.507025
-0.513332
-0.520024
-0.527159
-0.534644
-0.54173
-0.459576
-0.460219
-0.461179
-0.462492
-0.464187
-0.466284
-0.468797
-0.471731
-0.47509
-0.478875
-0.483085
-0.487716
-0.492765
-0.498226
-0.504096
-0.510369
-0.517038
-0.524156
-0.531629
-0.538787
-0.456777
-0.457448
-0.458427
-0.459749
-0.461443
-0.463529
-0.466019
-0.468922
-0.472241
-0.475977
-0.48013
-0.4847
-0.489685
-0.495082
-0.500889
-0.507104
-0.513721
-0.520792
-0.528221
-0.535396
-0.453879
-0.454573
-0.455563
-0.456887
-0.458571
-0.460636
-0.463094
-0.465954
-0.469219
-0.472893
-0.476976
-0.481468
-0.486371
-0.491683
-0.497406
-0.503538
-0.510076
-0.517069
-0.524419
-0.531543
-0.450886
-0.451598
-0.452594
-0.453911
-0.455577
-0.457612
-0.460028
-0.462833
-0.466032
-0.469629
-0.473626
-0.478025
-0.482828
-0.488036
-0.493652
-0.499676
-0.506107
-0.512991
-0.520221
-0.527231
-0.447802
-0.448526
-0.449523
-0.450827
-0.452467
-0.454462
-0.456825
-0.459564
-0.462686
-0.466193
-0.47009
-0.474379
-0.479064
-0.484147
-0.489633
-0.495524
-0.50182
-0.508562
-0.515638
-0.52262
-0.444112
-0.444633
-0.445366
-0.446356
-0.44764
-0.449246
-0.451193
-0.453493
-0.456157
-0.459188
-0.462593
-0.466375
-0.470538
-0.475086
-0.480025
-0.485359
-0.491091
-0.497223
-0.503793
-0.510687
-0.517584
-0.440846
-0.441385
-0.442121
-0.4431
-0.444358
-0.445922
-0.447812
-0.450041
-0.452617
-0.455548
-0.458837
-0.46249
-0.466511
-0.470906
-0.475679
-0.480838
-0.486386
-0.492326
-0.498692
-0.505373
-0.512123
-0.437513
-0.438066
-0.4388
-0.439762
-0.440987
-0.442503
-0.444328
-0.446476
-0.448957
-0.451775
-0.454936
-0.458446
-0.46231
-0.466534
-0.471123
-0.476084
-0.481422
-0.487142
-0.493271
-0.499707
-0.506258
-0.434118
-0.434681
-0.43541
-0.43635
-0.437536
-0.438996
-0.44075
-0.442809
-0.445183
-0.447879
-0.450901
-0.454256
-0.457948
-0.461983
-0.466369
-0.471111
-0.476215
-0.481685
-0.487546
-0.493702
-0.500007
-0.430669
-0.431239
-0.431958
-0.432871
-0.434013
-0.435412
-0.437086
-0.439049
-0.441309
-0.443872
-0.446744
-0.449931
-0.453437
-0.457268
-0.461432
-0.465935
-0.470781
-0.475975
-0.481538
-0.48738
-0.493391
-0.427173
-0.427747
-0.428452
-0.429333
-0.430427
-0.431759
-0.433348
-0.435207
-0.437344
-0.439766
-0.442478
-0.445484
-0.448791
-0.452404
-0.456329
-0.460572
-0.465138
-0.470031
-0.475267
-0.480763
-0.486437
-0.423639
-0.424213
-0.424901
-0.425747
-0.426786
-0.428046
-0.429544
-0.431293
-0.4333
-0.435573
-0.438115
-0.440931
-0.444027
-0.447407
-0.451077
-0.455043
-0.459308
-0.463875
-0.468758
-0.473878
-0.479176
-0.420075
-0.420646
-0.421312
-0.422119
-0.423101
-0.424284
-0.425686
-0.427319
-0.42919
-0.431306
-0.43367
-0.436286
-0.43916
-0.442295
-0.445696
-0.449367
-0.453312
-0.457532
-0.462037
-0.466755
-0.47164
-0.416489
-0.417053
-0.417696
-0.41846
-0.41938
-0.420483
-0.421784
-0.423295
-0.425025
-0.426977
-0.429156
-0.431564
-0.434206
-0.437084
-0.440203
-0.443565
-0.447173
-0.451027
-0.455134
-0.459423
-0.463865
-0.412888
-0.413444
-0.414059
-0.414778
-0.415634
-0.416652
-0.417849
-0.419235
-0.420818
-0.422601
-0.424588
-0.426781
-0.429182
-0.431794
-0.434619
-0.43766
-0.440916
-0.444386
-0.448077
-0.451916
-0.455888
-0.409281
-0.409825
-0.410412
-0.411083
-0.411871
-0.412802
-0.413891
-0.415149
-0.416581
-0.418191
-0.41998
-0.421951
-0.424105
-0.426443
-0.428965
-0.431673
-0.434565
-0.437639
-0.440897
-0.444269
-0.447746
-0.405676
-0.406207
-0.406761
-0.407382
-0.408102
-0.408943
-0.409922
-0.411048
-0.412326
-0.413759
-0.415347
-0.417092
-0.418992
-0.421049
-0.423261
-0.425628
-0.428145
-0.430811
-0.433626
-0.436516
-0.43948
-0.40208
-0.402595
-0.403116
-0.403686
-0.404334
-0.405085
-0.405952
-0.406944
-0.408066
-0.409319
-0.410703
-0.412217
-0.41386
-0.415631
-0.417527
-0.419546
-0.421682
-0.423932
-0.426295
-0.428692
-0.431128
-0.428773
-0.429887
-0.432169
-0.424024
-0.412531
-0.393662
-0.375683
-0.360768
-0.355261
-0.35934
-0.372344
-0.388748
-0.419431
-0.419804
-0.421515
-0.413537
-0.403054
-0.386079
-0.370716
-0.358786
-0.356288
-0.363042
-0.378128
-0.395934
-0.410183
-0.409779
-0.41095
-0.403127
-0.393649
-0.378535
-0.365742
-0.356731
-0.357155
-0.366477
-0.383534
-0.402652
-0.401069
-0.399857
-0.400521
-0.392841
-0.384354
-0.37106
-0.360779
-0.354611
-0.357857
-0.36963
-0.388545
-0.408885
-0.392124
-0.390075
-0.390269
-0.382717
-0.375206
-0.363684
-0.355846
-0.35243
-0.358388
-0.372488
-0.393144
-0.414617
-0.383381
-0.380471
-0.380231
-0.372795
-0.366237
-0.356432
-0.350957
-0.350194
-0.358743
-0.375042
-0.397317
-0.419839
-0.374868
-0.371078
-0.370444
-0.363106
-0.357477
-0.349326
-0.346127
-0.347904
-0.358916
-0.377281
-0.401055
-0.424543
-0.366607
-0.361924
-0.360936
-0.353681
-0.34895
-0.342385
-0.341365
-0.345563
-0.358904
-0.3792
-0.404354
-0.428726
-0.35862
-0.353033
-0.351733
-0.344543
-0.340677
-0.335625
-0.336679
-0.343171
-0.358702
-0.380792
-0.407211
-0.432391
-0.350921
-0.344426
-0.342854
-0.335712
-0.332675
-0.329058
-0.332074
-0.340728
-0.358307
-0.382056
-0.409625
-0.43554
-0.343522
-0.33612
-0.334318
-0.327204
-0.324955
-0.322692
-0.327554
-0.338233
-0.357717
-0.38299
-0.411602
-0.438181
-0.33643
-0.328125
-0.326134
-0.319029
-0.317528
-0.316531
-0.323123
-0.335683
-0.35693
-0.383596
-0.413147
-0.440324
-0.329649
-0.32045
-0.318312
-0.311194
-0.310397
-0.310577
-0.318778
-0.33308
-0.355944
-0.383877
-0.414269
-0.441983
-0.323182
-0.313099
-0.310853
-0.303702
-0.303561
-0.304833
-0.314517
-0.330423
-0.354761
-0.383839
-0.414978
-0.443172
-0.317025
-0.306073
-0.30376
-0.296553
-0.297018
-0.299321
-0.310316
-0.327707
-0.353381
-0.383487
-0.415288
-0.443909
-0.311176
-0.299371
-0.29703
-0.289737
-0.290763
-0.294012
-0.306202
-0.324931
-0.351808
-0.382831
-0.415213
-0.444212
-0.305629
-0.292988
-0.290657
-0.283246
-0.284864
-0.288837
-0.302166
-0.322095
-0.350044
-0.38188
-0.414768
-0.444102
-0.300378
-0.286916
-0.284631
-0.277077
-0.279234
-0.283867
-0.298201
-0.319197
-0.348095
-0.380645
-0.41397
-0.443598
-0.295416
-0.281139
-0.278945
-0.271293
-0.273807
-0.27909
-0.294302
-0.316239
-0.345967
-0.379137
-0.412838
-0.442724
-0.290732
-0.275637
-0.2736
-0.265802
-0.268656
-0.274493
-0.290466
-0.313222
-0.343667
-0.377371
-0.411388
-0.4415
-0.286318
-0.270419
-0.26857
-0.260602
-0.263765
-0.270066
-0.286691
-0.310148
-0.341202
-0.375359
-0.409641
-0.439948
-0.282175
-0.26558
-0.263745
-0.255692
-0.259115
-0.265804
-0.282974
-0.307021
-0.338582
-0.373117
-0.407616
-0.43809
-0.278348
-0.260946
-0.25923
-0.251054
-0.254693
-0.261699
-0.279314
-0.303846
-0.335817
-0.370659
-0.405331
-0.435946
-0.460009
-0.274789
-0.256568
-0.255008
-0.246676
-0.250489
-0.257747
-0.27571
-0.300628
-0.332918
-0.368001
-0.402806
-0.433539
-0.457572
-0.27147
-0.252443
-0.251053
-0.242547
-0.246494
-0.253942
-0.272164
-0.297373
-0.329897
-0.365159
-0.400062
-0.430894
-0.454997
-0.268422
-0.248555
-0.247352
-0.238661
-0.2427
-0.250279
-0.268676
-0.294089
-0.326766
-0.362151
-0.397118
-0.428036
-0.452313
-0.26564
-0.244897
-0.243894
-0.235007
-0.239098
-0.246757
-0.265248
-0.290784
-0.323539
-0.358992
-0.393993
-0.42498
-0.449421
-0.263125
-0.241462
-0.240668
-0.231578
-0.23568
-0.243371
-0.261885
-0.287466
-0.320229
-0.3557
-0.390705
-0.421745
-0.446332
-0.260886
-0.238248
-0.237664
-0.228368
-0.232441
-0.240121
-0.258588
-0.284146
-0.316851
-0.352291
-0.387273
-0.418348
-0.443065
-0.258926
-0.235255
-0.234874
-0.225371
-0.229375
-0.237005
-0.255364
-0.280832
-0.313418
-0.348782
-0.383713
-0.414806
-0.439633
-0.257252
-0.232483
-0.23229
-0.222584
-0.226478
-0.234023
-0.252215
-0.277535
-0.309944
-0.345188
-0.380042
-0.411135
-0.43605
-0.255865
-0.229937
-0.229906
-0.220001
-0.223746
-0.231174
-0.249147
-0.274263
-0.306442
-0.341526
-0.376275
-0.407349
-0.432329
-0.254766
-0.227623
-0.227717
-0.217621
-0.221176
-0.228459
-0.246165
-0.271027
-0.302927
-0.337809
-0.372426
-0.403463
-0.428481
-0.253951
-0.225548
-0.225717
-0.215443
-0.218766
-0.225879
-0.243273
-0.267836
-0.299409
-0.334052
-0.36851
-0.399487
-0.424517
-0.253414
-0.223722
-0.223904
-0.213464
-0.216515
-0.223434
-0.240476
-0.264697
-0.295902
-0.330267
-0.364537
-0.395433
-0.420445
-0.253141
-0.222154
-0.222276
-0.211683
-0.214423
-0.221124
-0.237779
-0.261618
-0.292414
-0.326466
-0.360518
-0.391311
-0.416275
-0.253113
-0.220856
-0.22083
-0.210102
-0.212489
-0.218952
-0.235185
-0.258606
-0.288956
-0.322659
-0.356463
-0.387129
-0.412012
-0.253305
-0.219837
-0.219567
-0.208718
-0.210716
-0.216917
-0.232698
-0.255667
-0.285535
-0.318854
-0.352379
-0.382892
-0.407663
-0.253682
-0.219106
-0.218486
-0.207533
-0.209103
-0.215021
-0.23032
-0.252805
-0.282158
-0.315059
-0.348271
-0.378608
-0.403232
-0.417957
-0.2542
-0.21867
-0.217586
-0.206544
-0.207652
-0.213265
-0.228055
-0.250025
-0.27883
-0.311279
-0.344146
-0.374281
-0.398725
-0.413417
-0.254804
-0.218531
-0.216868
-0.205751
-0.206365
-0.21165
-0.225904
-0.24733
-0.275556
-0.307518
-0.340004
-0.369913
-0.394145
-0.408781
-0.255428
-0.218686
-0.216332
-0.205152
-0.205243
-0.210177
-0.223871
-0.244723
-0.272338
-0.303781
-0.335848
-0.365507
-0.389494
-0.404054
-0.255991
-0.219127
-0.215976
-0.204743
-0.204287
-0.208846
-0.221955
-0.242204
-0.269177
-0.300066
-0.331676
-0.361065
-0.384778
-0.399241
-0.256399
-0.219836
-0.215802
-0.204524
-0.203498
-0.207657
-0.220159
-0.239774
-0.266074
-0.296374
-0.327481
-0.356607
-0.379997
-0.394344
-0.256542
-0.220783
-0.215805
-0.204487
-0.202875
-0.206612
-0.218483
-0.237435
-0.26303
-0.292706
-0.323262
-0.35218
-0.375164
-0.389378
-0.256284
-0.221909
-0.21597
-0.20462
-0.202413
-0.205713
-0.216937
-0.235202
-0.260064
-0.289084
-0.319042
-0.347895
-0.370315
-0.384379
-0.255526
-0.223157
-0.216294
-0.204913
-0.202106
-0.204949
-0.215511
-0.233065
-0.257166
-0.285499
-0.314821
-0.34362
-0.365415
-0.379332
-0.254276
-0.224601
-0.216867
-0.205428
-0.201977
-0.204292
-0.214123
-0.230888
-0.254152
-0.281723
-0.310334
-0.337531
-0.360156
-0.373998
-0.252138
-0.226186
-0.217728
-0.20624
-0.20208
-0.203792
-0.212803
-0.228668
-0.250971
-0.277655
-0.30547
-0.332056
-0.354436
-0.368303
-0.246953
-0.226495
-0.218071
-0.206833
-0.202273
-0.203765
-0.212337
-0.227643
-0.249262
-0.275257
-0.302427
-0.328146
-0.350352
-0.363852
-0.365617
-0.230528
-0.223225
-0.216558
-0.206175
-0.201586
-0.20355
-0.21243
-0.227963
-0.249646
-0.275604
-0.302723
-0.327959
-0.34832
-0.360085
-0.359804
-0.223621
-0.220916
-0.216152
-0.20692
-0.202699
-0.205029
-0.213624
-0.228085
-0.247709
-0.270616
-0.294193
-0.31557
-0.332337
-0.340767
-0.338179
-0.220654
-0.218237
-0.214556
-0.206895
-0.203371
-0.205948
-0.214083
-0.227193
-0.244532
-0.264488
-0.284908
-0.302708
-0.315708
-0.321077
-0.31671
-0.218369
-0.214816
-0.211518
-0.205586
-0.202908
-0.205562
-0.213066
-0.224751
-0.239878
-0.257045
-0.274181
-0.28864
-0.298405
-0.301257
-0.295549
-0.214941
-0.210581
-0.207232
-0.202875
-0.201094
-0.203701
-0.21043
-0.220628
-0.23358
-0.247968
-0.261989
-0.273441
-0.280489
-0.281345
-0.274767
-0.209962
-0.205473
-0.201947
-0.198844
-0.197909
-0.200412
-0.206287
-0.214987
-0.225857
-0.237667
-0.248897
-0.257722
-0.262529
-0.261881
-0.254843
-0.203562
-0.199505
-0.19591
-0.193725
-0.193507
-0.195886
-0.200912
-0.208189
-0.217082
-0.226656
-0.235471
-0.242064
-0.245067
-0.243319
-0.236099
-0.19608
-0.19279
-0.189325
-0.187793
-0.188125
-0.190383
-0.194628
-0.200623
-0.207818
-0.215386
-0.222151
-0.22689
-0.228457
-0.225909
-0.218679
-0.18788
-0.185498
-0.182348
-0.181288
-0.182009
-0.184151
-0.187715
-0.192586
-0.198311
-0.204178
-0.20923
-0.212447
-0.212876
-0.209748
-0.202609
-0.179268
-0.177801
-0.175094
-0.174393
-0.175372
-0.177401
-0.180391
-0.184298
-0.188779
-0.193231
-0.196868
-0.198846
-0.198376
-0.194829
-0.187838
-0.170473
-0.169849
-0.167646
-0.167241
-0.168382
-0.170302
-0.172816
-0.175915
-0.179359
-0.182645
-0.185127
-0.186105
-0.184929
-0.181087
-0.174276
-0.161655
-0.161765
-0.160075
-0.159927
-0.161167
-0.162981
-0.165107
-0.167545
-0.170131
-0.172467
-0.174013
-0.174191
-0.172469
-0.168426
-0.161816
-0.152921
-0.153646
-0.152443
-0.152524
-0.153825
-0.155538
-0.157348
-0.15925
-0.161142
-0.162707
-0.163501
-0.163048
-0.16091
-0.156744
-0.150349
-0.144341
-0.145568
-0.144803
-0.14509