/*--------------------------------*- C++ -*----------------------------------*\
  =========                 |
  \\      /  F ield         | OpenFOAM: The Open Source CFD Toolbox
   \\    /   O peration     | Website:  https://openfoam.org
    \\  /    A nd           | Version:  7
     \\/     M anipulation  |
\*---------------------------------------------------------------------------*/
FoamFile
{
    version     2.0;
    format      ascii;
    class       surfaceScalarField;
    location    "160";
    object      phi;
}
// * * * * * * * * * * * * * * * * * * * * * * * * * * * * * * * * * * * * * //

dimensions      [0 3 -1 0 0 0 0];

internalField   nonuniform List<scalar> 
8923
(
0.000461072
0.00933804
-0.00934247
0.00043649
0.00961135
-0.00958676
0.000443122
0.00941956
-0.00942619
0.000537749
0.00815813
-0.00825276
0.000711485
0.00554436
-0.0057181
0.000916797
0.00200668
-0.00221199
0.00111753
-0.00171986
0.00151912
0.00128938
-0.00496055
0.00478871
0.0014177
-0.00729653
0.00716821
0.00149745
-0.00867277
0.00859302
0.0015325
-0.00932474
0.00928969
0.00153599
-0.00952555
0.00952206
0.00151596
-0.00946377
0.0094838
0.00146348
-0.0094306
0.00948308
0.00137502
-0.00968631
0.00977477
0.00128208
-0.00985985
0.00995279
0.00123548
-0.00892109
0.00896769
0.0012604
-0.00617238
0.00614746
0.00134401
-0.00206353
0.00197992
0.00145448
0.00221325
-0.00232372
0.00155755
0.00566435
-0.00576742
0.00163214
0.00794445
-0.00801903
0.00915491
-0.00919946
0.000454293
0.0093261
0.000441307
0.00962433
0.000464236
0.00939663
0.000572566
0.0080498
0.000750358
0.00536657
0.000951654
0.00180539
0.00114428
-0.00191249
0.00130655
-0.00512281
0.00142561
-0.00741559
0.00149766
-0.00874483
0.00152673
-0.00935381
0.00152561
-0.00952443
0.00150259
-0.00944075
0.00144856
-0.00937657
0.00135872
-0.00959647
0.00126381
-0.00976494
0.00121622
-0.00887351
0.00124307
-0.00619922
0.00133121
-0.00215167
0.00144717
0.00209729
0.00155554
0.00555598
0.00163488
0.00786511
0.00910632
0.000449197
0.00930592
0.000448758
0.00962477
0.000488195
0.00935719
0.000609243
0.00792876
0.000789884
0.00518593
0.000986397
0.00160887
0.0011705
-0.00209659
0.00132304
-0.00527535
0.00143282
-0.00752537
0.00149726
-0.00880927
0.00152052
-0.00937707
0.00151497
-0.00951888
0.00148911
-0.00941489
0.00143376
-0.00932122
0.00134278
-0.00950549
0.00124601
-0.00966817
0.00119726
-0.00882476
0.00122571
-0.00622767
0.00131809
-0.00224405
0.00143936
0.00197602
0.00155296
0.00544238
0.0016371
0.00778096
0.0090536
0.000445901
0.00927681
0.000458868
0.0096118
0.00051484
0.00930122
0.000647535
0.00779606
0.000829884
0.00500358
0.00102091
0.00141785
0.00119614
-0.00227183
0.00133882
-0.00541803
0.00143933
-0.00762588
0.00149626
-0.0088662
0.00151389
-0.0093947
0.00150409
-0.00950908
0.00147554
-0.00938634
0.00141907
-0.00926475
0.00132723
-0.00941365
0.00122871
-0.00956965
0.00117862
-0.00877468
0.00120834
-0.0062574
0.00130466
-0.00234037
0.00143104
0.00184965
0.0015498
0.00532362
0.00163877
0.00769199
0.00899671
0.000444508
0.00923803
0.000471632
0.00958468
0.000543981
0.00922887
0.000687193
0.00765285
0.000870175
0.0048206
0.00105508
0.00123294
0.00122113
-0.00243788
0.00135388
-0.00555077
0.00144515
-0.00771716
0.00149468
-0.00891572
0.00150685
-0.00940687
0.00149298
-0.00949521
0.00146189
-0.00935525
0.0014045
-0.00920736
0.00131206
-0.0093212
0.00121193
-0.00946952
0.00116033
-0.00872308
0.00119097
-0.00628804
0.00129091
-0.00244031
0.00142219
0.00171837
0.00154605
0.00519976
0.00163988
0.00759817
0.00893556
0.000445106
0.0091889
0.000487007
0.00954278
0.000575407
0.00914047
0.000727965
0.00750029
0.000910578
0.00463798
0.0010888
0.00105471
0.00124543
-0.0025945
0.00136818
-0.00567353
0.00145029
-0.00779926
0.00149252
-0.00895795
0.00149942
-0.00941377
0.00148166
-0.00947745
0.00144818
-0.00932177
0.00139005
-0.00914924
0.00129727
-0.00922842
0.00119569
-0.00936795
0.00114242
-0.0086698
0.00117361
-0.00631923
0.00127684
-0.00254354
0.00141281
0.0015824
0.00154169
0.00507087
0.00164039
0.00749947
0.00887009
0.000447767
0.00912875
0.000504921
0.00948562
0.000608882
0.00903651
0.000769602
0.00733957
0.000950915
0.00445667
0.00112197
0.000883664
0.00126896
-0.0027415
0.00138173
-0.00578629
0.00145474
-0.00787227
0.0014898
-0.00899302
0.00149161
-0.00941558
0.00147014
-0.00945598
0.0014344
-0.00928603
0.00137573
-0.00909057
0.00128286
-0.00913555
0.00118
-0.00926508
0.00112489
-0.0086147
0.00115626
-0.00635059
0.00126243
-0.00264971
0.00140288
0.00144194
0.00153671
0.00493705
0.0016403
0.00739588
0.00880024
0.000452542
0.00905697
0.000525268
0.0094129
0.000644155
0.00891763
0.000811852
0.00717187
0.000991013
0.00427751
0.00115447
0.000720207
0.0012917
-0.00287873
0.00139449
-0.00588908
0.0014585
-0.00793628
0.00148654
-0.00902105
0.00148344
-0.00941249
0.00145844
-0.00943099
0.00142057
-0.00924816
0.00136151
-0.00903151
0.00126883
-0.00904287
0.00116486
-0.00916111
0.00110779
-0.00855763
0.00113894
-0.00638175
0.00124769
-0.00275846
0.0013924
0.00129724
0.00153109
0.00479836
0.00163958
0.00728738
0.00872596
0.000459467
0.00897304
0.000547916
0.00932445
0.000680961
0.00878458
0.000854469
0.00699837
0.0010307
0.00410128
0.00118621
0.000564693
0.00131359
-0.0030061
0.00140645
-0.00598194
0.00146159
-0.00799142
0.00148273
-0.00904219
0.0014749
-0.00940466
0.00144657
-0.00940265
0.0014067
-0.00920828
0.0013474
-0.00897221
0.00125515
-0.00895062
0.00115027
-0.00905623
0.00109112
-0.00849849
0.00112167
-0.0064123
0.00123262
-0.00286941
0.00138135
0.00114851
0.0015248
0.0046549
0.00163822
0.00717397
0.00864718
0.000468556
0.00887651
0.000572705
0.0092203
0.000719027
0.00863826
0.000897212
0.00682018
0.00106981
0.00392868
0.00121711
0.0004174
0.00133458
-0.00312357
0.00141759
-0.00606494
0.00146399
-0.00803783
0.00147839
-0.00905659
0.00146602
-0.00939229
0.00143452
-0.00937116
0.00139277
-0.00916653
0.00133339
-0.00891283
0.00124181
-0.00885903
0.00113623
-0.00895065
0.00107491
-0.00843716
0.00110446
-0.00644185
0.00121721
-0.00298217
0.00136971
0.000996012
0.00151785
0.00450677
0.00163617
0.00705564
0.00856385
0.000479801
0.00876707
0.000599456
0.00910065
0.000758073
0.00847964
0.000939843
0.00663841
0.00110819
0.00376033
0.00124705
0.000278536
0.00135463
-0.00323115
0.0014279
-0.00613821
0.00146572
-0.00807565
0.00147353
-0.0090644
0.00145679
-0.00937556
0.00142232
-0.00933668
0.00137881
-0.00912302
0.00131946
-0.00885348
0.00122879
-0.00876836
0.00112274
-0.0088446
0.00105916
-0.00837359
0.00108732
-0.00647001
0.00120147
-0.00309632
0.0013575
0.00083999
0.0015102
0.00435406
0.00163344
0.0069324
0.00172136
0.00847593
0.0092345
0.000493174
0.00864452
0.000627969
0.00896585
0.000797822
0.00830979
0.000982135
0.0064541
0.00114568
0.00359678
0.00127598
0.000148239
0.00137372
-0.00332889
0.00143736
-0.00620185
0.00146676
-0.00810505
0.00146815
-0.00906579
0.00144722
-0.00935463
0.00140995
-0.00929942
0.00136479
-0.00907786
0.0013056
-0.00879429
0.00121606
-0.00867881
0.00110977
-0.00873832
0.00104391
-0.00830772
0.00107028
-0.00649638
0.0011854
-0.00321144
0.00134468
0.000680708
0.00150185
0.00419689
0.00162999
0.00680426
0.00172255
0.00838336
0.00917773
0.000508627
0.00850881
0.000658027
0.00881645
0.000837998
0.00812982
0.00102386
0.00626823
0.00118214
0.00343851
0.0013038
2.65765e-05
0.00139179
-0.00341688
0.00144596
-0.00625602
0.00146713
-0.00812622
0.00146225
-0.00906091
0.0014373
-0.00932967
0.00139742
-0.00925953
0.00135072
-0.00903117
0.00129179
-0.00873536
0.00120359
-0.00859061
0.00109732
-0.00863205
0.00102915
-0.00823955
0.00105336
-0.0065206
0.00116901
-0.00332708
0.00133127
0.000518445
0.00149279
0.00403538
0.00162581
0.00667124
0.00172305
0.00828613
0.00911684
0.000526087
0.00836006
0.000689403
0.00865313
0.000878329
0.00794089
0.00106482
0.00608174
0.00121743
0.0032859
0.00133045
-8.64442e-05
0.00140883
-0.00349526
0.0014537
-0.00630088
0.00146682
-0.00813935
0.00145585
-0.00904993
0.00142705
-0.00930087
0.00138473
-0.00921721
0.0013366
-0.00898304
0.00127802
-0.00867678
0.00119136
-0.00850396
0.00108536
-0.00852604
0.0010149
-0.00816909
0.00103658
-0.00654228
0.0011523
-0.00344279
0.00131725
0.00035349
0.00148299
0.00386964
0.00162087
0.00653335
0.00172282
0.00818418
0.00905176
0.000545466
0.00819855
0.00072186
0.00847674
0.000918554
0.0077442
0.00110481
0.00589548
0.00125144
0.00313927
0.00135586
-0.000190867
0.0014248
-0.00356419
0.00146055
-0.00633663
0.00146584
-0.00814464
0.00144895
-0.00903305
0.00141645
-0.00926837
0.00137187
-0.00917263
0.00132242
-0.00893359
0.00126426
-0.00861862
0.00117934
-0.00841904
0.00107386
-0.00842056
0.00100116
-0.00809639
0.00101997
-0.00656109
0.00113529
-0.00355811
0.00130262
0.000186152
0.00147245
0.00369982
0.00161516
0.00639064
0.00172184
0.0080775
0.00898241
0.000566651
0.00802475
0.000755154
0.00828824
0.00095842
0.00754093
0.00114364
0.00571026
0.00128404
0.00299886
0.00137998
-0.0002868
0.00143968
-0.00362389
0.00146651
-0.00636347
0.00146417
-0.0081423
0.00144154
-0.00901043
0.00140551
-0.00923234
0.00135885
-0.00912596
0.00130816
-0.0088829
0.00125049
-0.00856095
0.00116748
-0.00833603
0.00106279
-0.00831588
0.000987946
-0.00802155
0.00100357
-0.00657671
0.001118
-0.00367254
0.00128739
1.67538e-05
0.00146115
0.00352606
0.00160866
0.00624314
0.0017201
0.00796606
0.00890871
0.000589515
0.00783928
0.000789042
0.00808871
0.000997686
0.00733229
0.00118113
0.00552682
0.00131514
0.00286486
0.00140274
-0.000374408
0.00145344
-0.00367459
0.00147157
-0.0063816
0.00146181
-0.00813253
0.00143364
-0.00898226
0.00139423
-0.00919293
0.00134564
-0.00907737
0.00129384
-0.0088311
0.0012367
-0.00850381
0.00115575
-0.00825508
0.00105212
-0.00821225
0.000975245
-0.00794467
0.000987389
-0.00658885
0.00110045
-0.0037856
0.00127156
-0.000154356
0.0014491
0.00334852
0.00160134
0.00609089
0.00171755
0.00784985
0.0088306
0.000613912
0.00764293
0.00082328
0.00787934
0.00103613
0.00711944
0.00121713
0.00534582
0.00134463
0.00273736
0.00142413
-0.000453901
0.00146608
-0.00371655
0.00147573
-0.00639125
0.00145878
-0.00811558
0.00142524
-0.00894872
0.0013826
-0.00915029
0.00133225
-0.00902703
0.00127942
-0.00877826
0.00122285
-0.00844724
0.00114411
-0.00817634
0.00104181
-0.00810995
0.000963054
-0.00786591
0.000971474
-0.00659727
0.00108268
-0.00389681
0.00125513
-0.0003268
0.00143628
0.00316737
0.0015932
0.00593397
0.00171418
0.00772887
0.008748
0.00063968
0.00743666
0.000857627
0.00766139
0.00107353
0.00690354
0.00125149
0.00516785
0.00137245
0.0026164
0.00144409
-0.000525538
0.00147758
-0.00375004
0.00147898
-0.00639265
0.00145505
-0.00809165
0.00141635
-0.00891002
0.00137062
-0.00910456
0.00131867
-0.00897508
0.00126491
-0.00872451
0.00120894
-0.00839126
0.00113253
-0.00809994
0.00103182
-0.00800924
0.000951362
-0.00778545
0.000955854
-0.00660177
0.00106472
-0.00400567
0.00123812
-0.000500203
0.00142268
0.00298281
0.00158422
0.00577243
0.00170997
0.00760312
0.00866088
0.000666645
0.00722156
0.00089185
0.00743619
0.00110969
0.00668571
0.00128409
0.00499345
0.00139853
0.00250195
0.0014626
-0.000589609
0.00148792
-0.00377537
0.00148131
-0.00638604
0.00145064
-0.00806098
0.00140696
-0.00886633
0.00135828
-0.00905588
0.00130488
-0.00892169
0.0012503
-0.00866992
0.00119493
-0.00833589
0.00112096
-0.00802597
0.0010221
-0.00791038
0.000940152
-0.0077035
0.000940556
-0.00660217
0.00104658
-0.0041117
0.00122054
-0.000674161
0.00140831
0.00279504
0.00157438
0.00560636
0.00170489
0.0074726
0.00856918
0.000694618
0.00699882
0.000925725
0.00720508
0.00114443
0.00646701
0.0013148
0.00482308
0.00142282
0.00239394
0.00147965
-0.000646441
0.00149711
-0.00379283
0.00148273
-0.00637166
0.00144554
-0.00802379
0.00139707
-0.00881786
0.00134557
-0.00900438
0.00129088
-0.008867
0.00123557
-0.00861461
0.00118081
-0.00828113
0.00110937
-0.00795453
0.00101261
-0.00781362
0.000929405
-0.0076203
0.000925608
-0.00659837
0.00102833
-0.00421442
0.00120242
-0.000848252
0.00139317
0.00260429
0.00156368
0.00543585
0.00169893
0.00733735
0.00847286
0.000723403
0.00676974
0.000959037
0.00696945
0.00117758
0.00624846
0.00134354
0.00465712
0.00144528
0.0022922
0.00149522
-0.000696383
0.00150513
-0.00380273
0.00148322
-0.00634975
0.00143974
-0.00798032
0.00138669
-0.00876481
0.0013325
-0.0089502
0.00127665
-0.00881114
0.00122071
-0.00855867
0.00116655
-0.00822696
0.0010977
-0.00788569
0.0010033
-0.00771922
0.000919092
-0.0075361
0.000911034
-0.00659032
0.00101001
-0.0043134
0.00118378
-0.00102203
0.00137726
0.00241081
0.0015521
0.00526101
0.00169206
0.00719739
0.00837189
0.000752791
0.00653566
0.000991582
0.00673066
0.001209
0.00603104
0.00137022
0.00449591
0.00146589
0.00219653
0.00150931
-0.000739808
0.00151198
-0.0038054
0.00148278
-0.00632055
0.00143325
-0.00793079
0.00137581
-0.00870736
0.00131906
-0.00889345
0.00126217
-0.00875425
0.00120572
-0.00850222
0.00115214
-0.00817338
0.00108593
-0.00781948
0.000994114
-0.0076274
0.000909183
-0.00745117
0.000896853
-0.00657799
0.000991677
-0.00440822
0.00116466
-0.00119501
0.0013606
0.00221487
0.00153964
0.00508197
0.00168427
0.00705277
0.00826625
0.000782567
0.00629797
0.00102317
0.00649006
0.00123856
0.00581564
0.00139479
0.00433968
0.00148464
0.00210669
0.00152193
-0.0007771
0.00151766
-0.00380113
0.00148142
-0.00628431
0.00142606
-0.00787543
0.00136443
-0.00864573
0.00130524
-0.00883426
0.00124744
-0.00869645
0.00119057
-0.00844535
0.00113755
-0.00812037
0.00107401
-0.00775594
0.000985013
-0.0075384
0.000899642
-0.0073658
0.000883078
-0.00656142
0.000973382
-0.00449853
0.0011451
-0.00136673
0.00134319
0.00201678
0.00152629
0.00489887
0.00167553
0.00690353
0.00815592
0.00081251
0.00105361
0.00624896
0.00126614
0.00560311
0.00141721
0.0041886
0.00150154
0.00202236
0.00153309
-0.000808651
0.00152219
-0.00379022
0.00147914
-0.00624126
0.00141818
-0.00781447
0.00135256
-0.00858011
0.00129104
-0.00877274
0.00123243
-0.00863784
0.00117525
-0.00838817
0.00112278
-0.00806789
0.00106191
-0.00769508
0.000975942
-0.00745243
0.00089043
-0.00728028
0.000869717
-0.00654071
0.000955178
-0.00458399
0.00112514
-0.0015367
0.00132506
0.00181686
0.00151206
0.00471188
0.00166585
0.00674974
0.0080409
0.00108275
0.0060086
0.00129165
0.0053942
0.00143746
0.00404279
0.00151662
0.0019432
0.00154282
-0.00083485
0.00152556
-0.00377296
0.00147593
-0.00619164
0.00140959
-0.00774813
0.00134018
-0.0085107
0.00127645
-0.00870901
0.00121714
-0.00857853
0.00115975
-0.00833078
0.0011078
-0.00801594
0.00104958
-0.00763686
0.000966849
-0.0073697
0.000881505
-0.00719494
0.000856769
-0.00651597
0.000937117
-0.00466433
0.00110484
-0.00170442
0.00130623
0.00161547
0.00149694
0.00452117
0.0016552
0.00659149
0.0079212
0.00111042
0.00577017
0.00131502
0.00518961
0.00145554
0.00390227
0.00152991
0.00186882
0.00155114
-0.00085608
0.00152778
-0.0037496
0.0014718
-0.00613566
0.00140031
-0.00767664
0.0013273
-0.00843769
0.00126147
-0.00864318
0.00120155
-0.00851861
0.00114406
-0.0082733
0.00109259
-0.00796447
0.00103699
-0.00758125
0.000957684
-0.0072904
0.00087282
-0.00711008
0.000844227
-0.00648738
0.000919245
-0.00473935
0.00108425
-0.00186943
0.00128673
0.001413
0.00148094
0.00432695
0.00164357
0.00642886
0.00779685
0.00113649
0.00553475
0.00133618
0.00498992
0.00147146
0.00376699
0.00154146
0.00179882
0.00155809
-0.000872701
0.00152887
-0.00372038
0.00146675
-0.00607354
0.00139032
-0.00760021
0.00131391
-0.00836128
0.00124609
-0.00857536
0.00118564
-0.00845816
0.00112816
-0.00821582
0.00107716
-0.00791347
0.0010241
-0.00752819
0.000948392
-0.00721469
0.000864331
-0.00702601
0.000832076
-0.00645512
0.000901603
-0.00480888
0.00106344
-0.00203126
0.00126659
0.00120985
0.00146408
0.00412946
0.00163097
0.00626196
0.00766786
0.00116083
0.00530331
0.00135512
0.00479563
0.00148528
0.00363683
0.00155135
0.00173275
0.0015637
-0.000885049
0.00152883
-0.00368552
0.00146079
-0.00600549
0.00137964
-0.00751906
0.00130002
-0.00828166
0.00123031
-0.00850566
0.0011694
-0.00839725
0.00111203
-0.00815845
0.00106148
-0.00786291
0.00101088
-0.0074776
0.000938923
-0.00714273
0.000855989
-0.00694308
0.000820295
-0.00641943
0.000884225
-0.00487281
0.00104247
-0.0021895
0.00124586
0.00100646
0.00144636
0.00392895
0.00161739
0.00609093
0.0075343
0.00118335
0.00507672
0.00137183
0.00460715
0.00149708
0.00351158
0.00155966
0.00167017
0.00156803
-0.000893416
0.00152769
-0.00364518
0.00145391
-0.00593171
0.00136825
-0.0074334
0.00128562
-0.00819902
0.00121413
-0.00843417
0.00115282
-0.00833594
0.00109566
-0.00810129
0.00104554
-0.00781279
0.000997306
-0.00742936
0.000929223
-0.00707465
0.000847748
-0.00686161
0.000808857
-0.00638054
0.000867135
-0.00493109
0.0010214
-0.00234377
0.00122459
0.000803268
0.00142782
0.00372572
0.00160283
0.00591592
0.00739622
0.00120396
0.00485573
0.00138636
0.00442475
0.00150696
0.00339097
0.0015665
0.00161064
0.00157113
-0.000898042
0.00152545
-0.0035995
0.00144612
-0.00585238
0.00135617
-0.00734345
0.00127071
-0.00811356
0.00119755
-0.00836101
0.00113589
-0.00827428
0.00107904
-0.00804443
0.00102933
-0.00776308
0.000983346
-0.00738338
0.00091924
-0.00701055
0.000839557
-0.00678192
0.000797731
-0.00633871
0.000850347
-0.0049837
0.00100031
-0.00249373
0.00120285
0.000600734
0.00140847
0.0035201
0.00158731
0.00573708
0.0072537
0.00122264
0.00464095
0.00139878
0.00424861
0.00151508
0.00327467
0.001572
0.00155372
0.00157305
-0.000899098
0.00152213
-0.00354858
0.00143743
-0.00576768
0.00134339
-0.00724941
0.00125528
-0.00802545
0.00118055
-0.00828628
0.00111859
-0.00821232
0.00106213
-0.00798797
0.00101286
-0.00771381
0.000968979
-0.0073395
0.000908923
-0.00695049
0.000831367
-0.00670437
0.000786881
-0.00629423
0.000833863
-0.00503069
0.000979254
-0.00263912
0.00118069
0.000399293
0.00138837
0.00331242
0.00157082
0.00555463
0.00710684
0.00123942
0.00443289
0.00140923
0.0040788
0.00152162
0.00316228
0.0015763
0.00149903
0.00157387
-0.000896668
0.00151774
-0.00349245
0.00142784
-0.00567778
0.00132992
-0.00715149
0.00123934
-0.00793487
0.00116313
-0.00821008
0.00110091
-0.0081501
0.00104493
-0.00793199
0.00099609
-0.00766496
0.000954182
-0.00729759
0.000898219
-0.00689453
0.000823126
-0.00662927
0.000776272
-0.00624737
0.000817676
-0.00507209
0.000958285
-0.00277973
0.00115822
0.000199359
0.00136756
0.00310308
0.0015534
0.00536879
0.00695575
0.0012544
0.00423193
0.00141794
0.00391526
0.00152684
0.00305338
0.00157959
0.00144629
0.00157364
-0.000890723
0.0015123
-0.00343111
0.00141736
-0.00558284
0.00131575
-0.00704988
0.00122288
-0.00784199
0.0011453
-0.00813251
0.00108284
-0.00808764
0.00102742
-0.00787658
0.000979036
-0.00761658
0.000938944
-0.0072575
0.000887083
-0.00684267
0.000814787
-0.00655698
0.000765873
-0.00619846
0.00080177
-0.00510799
0.000937451
-0.00291541
0.00113551
1.29603e-06
0.00134612
0.00289247
0.00153508
0.00517983
0.00680059
0.00126784
0.00403837
0.00142524
0.00375787
0.00153109
0.00294753
0.00158206
0.00139532
0.00157242
-0.000881087
0.00150581
-0.0033645
0.001406
-0.00548303
0.00130093
-0.00694482
0.00120594
-0.007747
0.00112709
-0.00805366
0.00106442
-0.00802496
0.00100962
-0.00782178
0.000961708
-0.00756866
0.000923268
-0.00721906
0.000875482
-0.00679488
0.000806305
-0.0064878
0.000755656
-0.00614781
0.000786131
-0.00513846
0.000916786
-0.00304607
0.00111265
-0.000194567
0.00132414
0.00268099
0.00151593
0.00498804
0.00664155
0.00128016
0.00385241
0.00143161
0.00360641
0.00153476
0.00284438
0.00158392
0.00134616
0.00157024
-0.000867408
0.00149826
-0.00329252
0.00139378
-0.00537855
0.00128549
-0.00683652
0.00118855
-0.00765006
0.00110852
-0.00797363
0.00104563
-0.00796207
0.000991505
-0.00776765
0.000944097
-0.00752126
0.000907142
-0.0071821
0.000863365
-0.0067511
0.000797616
-0.00642205
0.00074558
-0.00609578
0.000770717
-0.0051636
0.000896275
-0.00317163
0.00108973
-0.000388022
0.00130175
0.00246897
0.00149603
0.00479375
0.00647884
0.0012921
0.00143783
0.00346068
0.00153849
0.00274372
0.00158553
0.00129913
0.00156726
-0.000849145
0.0014897
-0.00321496
0.00138063
-0.00526948
0.00126923
-0.00672513
0.00117047
-0.00755129
0.00108935
-0.00789251
0.00102628
-0.007899
0.000972899
-0.00771427
0.000926067
-0.00747442
0.00089046
-0.0071465
0.000850614
-0.00671126
0.000788598
-0.00636003
0.00073555
-0.00604273
0.000755428
-0.00518348
0.000875823
-0.00329202
0.00106683
-0.000579025
0.00127909
0.00225671
0.00147554
0.0045973
0.00631276
0.00144533
0.00332045
0.0015435
0.00264555
0.00158766
0.00125496
0.00156393
-0.000825407
0.00148024
-0.00313127
0.0013664
-0.00515564
0.00125185
-0.00661058
0.00115131
-0.00745076
0.00106923
-0.00781043
0.00100607
-0.00783585
0.000953587
-0.00766179
0.000907473
-0.00742831
0.000873126
-0.00711215
0.000837135
-0.00667527
0.000779175
-0.00630207
0.000725536
-0.00598909
0.000740197
-0.00519814
0.000855295
-0.00340712
0.00104387
-0.000767602
0.00125629
0.00204429
0.00145463
0.00439896
0.00614363
0.00145529
0.00318572
0.00155034
0.0025505
0.00159018
0.00121512
0.00155976
-0.000794989
0.00146978
-0.00304129
0.00135155
-0.0050374
0.00123425
-0.00649329
0.00113219
-0.0073487
0.00104923
-0.00772747
0.000985946
-0.00777256
0.000934314
-0.00761015
0.000888921
-0.00738292
0.000855647
-0.00707888
0.000823333
-0.00664295
0.000769684
-0.00624842
0.000715911
-0.00593532
0.000725452
-0.00520768
0.00083505
-0.00351672
0.00102112
-0.000953674
0.00123367
0.00183174
0.00143364
0.00419899
0.0059718
0.00146657
0.00305775
0.00155639
0.00246068
0.00158985
0.00118166
0.00155268
-0.000757815
0.00145857
-0.00294718
0.00133846
-0.00491728
0.00122001
-0.00637484
0.0011169
-0.00724559
0.00103283
-0.0076434
0.000968834
-0.00770856
0.000917491
-0.00755881
0.00087243
-0.00733786
0.000839786
-0.00704623
0.00081073
-0.0066139
0.000761537
-0.00619923
0.0007083
-0.00588208
0.000713218
-0.0052126
0.00081741
-0.00362091
0.00100076
-0.00113703
0.0012131
0.0016194
0.00141411
0.00399798
0.00579792
0.0050682
0.00244971
0.00571735
0.00181153
0.0063196
0.000579409
0.00677167
-0.00120989
0.00700283
-0.00317834
0.00701449
-0.00492894
0.00685039
-0.00621074
0.00657282
-0.00696802
0.00624096
-0.00731154
0.00590574
-0.00737335
0.00558493
-0.007238
0.005273
-0.00702592
0.00498654
-0.00675978
0.00471786
-0.00634522
0.0044025
-0.00588387
0.0040308
-0.00551038
0.00371803
-0.00489983
0.00359627
-0.00349915
0.00370438
-0.00124513
0.00397395
0.00134982
0.00433128
0.00364065
0.00467949
0.00544972
0.00717111
0.00573497
0.00190987
0.0063062
0.0012403
0.00684254
4.3072e-05
0.00721554
-0.00158289
0.00737939
-0.00334219
0.00732443
-0.00487398
0.00709923
-0.00598554
0.00677795
-0.00664674
0.0064214
-0.00695499
0.00607284
-0.00702478
0.00574765
-0.00691281
0.00543437
-0.00671264
0.00514175
-0.00646715
0.00487344
-0.00607691
0.00457469
-0.00558512
0.00421762
-0.00515331
0.00389591
-0.00457812
0.00374941
-0.00335265
0.00382479
-0.00132051
0.004093
0.00108162
0.0044561
0.00327755
0.00481128
0.00509454
0.00690277
0.0064253
0.00143868
0.00692307
0.000742535
0.00736023
-0.000394085
0.00764754
-0.00187021
0.00772358
-0.00341823
0.00759574
-0.00474613
0.0073222
-0.00571201
0.00697618
-0.00630072
0.00660897
-0.00658778
0.0062537
-0.0066695
0.00592501
-0.00658413
0.00560992
-0.00639754
0.00531048
-0.00616772
0.00503945
-0.00580588
0.00475429
-0.00529995
0.00441261
-0.00481163
0.00408483
-0.00425034
0.00391155
-0.00317937
0.00396896
-0.00137793
0.00422566
0.000824911
0.0045895
0.00291371
0.00494998
0.00473406
0.00662229
0.00709883
0.00103984
0.00750703
0.000334342
0.00784487
-0.00073193
0.00802896
-0.0020543
0.00801568
-0.00340495
0.00782554
-0.00455599
0.00751753
-0.005404
0.00715686
-0.00594005
0.00678574
-0.00621666
0.00642864
-0.00631241
0.0060995
-0.00625499
0.00578616
-0.0060842
0.00548364
-0.00586519
0.00521001
-0.00553225
0.00493809
-0.00502803
0.00461596
-0.00448951
0.00428833
-0.00392271
0.00409315
-0.00298418
0.00412639
-0.00141116
0.00436999
0.000581306
0.00473005
0.00255365
0.00509362
0.00437049
0.0063293
0.00769446
0.000711066
0.00801298
1.58188e-05
0.00824974
-0.000968685
0.0083365
-0.00214106
0.00824875
-0.0033172
0.00801474
-0.00432198
0.00768823
-0.0050775
0.00732401
-0.00557583
0.00695624
-0.00584888
0.00660213
-0.00595831
0.00627468
-0.00592754
0.00596505
-0.00577457
0.00566243
-0.00556257
0.00538607
-0.00525589
0.00512572
-0.00476768
0.00482685
-0.00419065
0.00450665
-0.00360251
0.00429197
-0.0027695
0.00429702
-0.00141621
0.00452215
0.000356176
0.00487458
0.00220121
0.00524004
0.00400503
0.00602291
0.00816912
0.000443882
0.00840751
-0.000222576
0.00855583
-0.001117
0.0085656
-0.00215084
0.00842666
-0.00317826
0.00816929
-0.00406461
0.0078392
-0.0047474
0.00748067
-0.00521731
0.00712168
-0.00548988
0.00677438
-0.005611
0.00645053
-0.0056037
0.00614607
-0.00547011
0.00584651
-0.00526301
0.00556808
-0.00497745
0.00531674
-0.00451634
0.00504318
-0.00391709
0.00473796
-0.00329728
0.00450766
-0.00253921
0.00448046
-0.001389
0.0046798
0.000156831
0.00502016
0.00186085
0.00538703
0.00363816
0.00570161
0.00851547
0.000227609
0.00868799
-0.000395102
0.00877011
-0.00119911
0.0087285
-0.00210923
0.00856202
-0.00301178
0.00829899
-0.00380158
0.00797669
-0.0044251
0.00763039
-0.00487101
0.0072838
-0.00514329
0.00694617
-0.00527338
0.00662761
-0.00528513
0.00632915
-0.00517165
0.00603545
-0.00496931
0.00575655
-0.00469855
0.00551116
-0.00427096
0.00526272
-0.00366865
0.00497994
-0.0030145
0.00474023
-0.00229951
0.00467725
-0.00132602
0.00484186
-7.77596e-06
0.00516447
0.00153824
0.0055323
0.00327034
0.00536336
0.00875509
5.31406e-05
0.00887858
-0.000518592
0.00891627
-0.00123681
0.00884585
-0.0020388
0.00867019
-0.00283613
0.00841366
-0.00354504
0.00810627
-0.00411771
0.00777613
-0.00454086
0.00744405
-0.00481121
0.00711808
-0.00494741
0.00680638
-0.00497344
0.00651433
-0.0048796
0.00622866
-0.00468365
0.00595178
-0.00442166
0.00570958
-0.00402876
0.00548357
-0.00344264
0.00522938
-0.00276031
0.0049891
-0.00205923
0.00488946
-0.00122638
0.00500958
-0.000127896
0.00530656
0.00124126
0.0056737
0.0029032
0.00500621
0.00892284
-8.72503e-05
0.00901134
-0.000607088
0.00902144
-0.00124691
0.00893793
-0.0019553
0.0087646
-0.0026628
0.00852133
-0.00330178
0.00823234
-0.00382872
0.00792025
-0.00422878
0.00760365
-0.00449461
0.00729056
-0.00463433
0.00698723
-0.0046701
0.0067018
-0.00459416
0.00642546
-0.00440731
0.00615369
-0.00414989
0.00591301
-0.00378807
0.00570459
-0.00323423
0.0054824
-0.00253812
0.00525235
-0.00182919
0.00511997
-0.001094
0.00518728
-0.000195203
0.00544802
0.000980509
0.0058101
0.00254112
0.0046295
0.00905077
-0.000199846
0.00911412
-0.000670434
0.00910758
-0.00124036
0.00902009
-0.00186782
0.00885487
-0.00249758
0.00862761
-0.00307451
0.00835799
-0.00355909
0.00806448
-0.00393526
0.00776361
-0.00419374
0.00746399
-0.00433471
0.00717039
-0.00437651
0.0068919
-0.00431567
0.00662529
-0.00414071
0.00636173
-0.00388633
0.00612261
-0.00354894
0.00592582
-0.00303744
0.00573505
-0.00234735
0.00552627
-0.0016204
0.00537101
-0.000938734
0.00538166
-0.000205855
0.00559394
0.000768222
0.00594253
0.00219254
0.00423543
0.00916135
-0.000289446
0.00920597
-0.000715059
0.00918909
-0.00122348
0.00910203
-0.00178075
0.00894697
-0.00234252
0.00873602
-0.00286356
0.00848525
-0.00330833
0.00820998
-0.00365999
0.00792472
-0.00390849
0.00763871
-0.00404869
0.00735598
-0.00409377
0.00708501
-0.0040447
0.00682786
-0.00388356
0.00657493
-0.0036334
0.00633919
-0.0033132
0.00614851
-0.00284676
0.00598443
-0.00218327
0.00580539
-0.00144136
0.0056423
-0.000775639
0.00559995
-0.000163507
0.00575287
0.000615299
0.00607516
0.00187026
0.0038311
0.00926784
-0.000359743
0.00929783
-0.000745044
0.00927393
-0.00119958
0.00918895
-0.00169578
0.0090441
-0.00219767
0.00884853
-0.00266799
0.00861541
-0.00307521
0.00835757
-0.00340215
0.00808762
-0.00363854
0.00781509
-0.00377616
0.00754401
-0.0038227
0.00728143
-0.00378211
0.00703321
-0.00363534
0.00679217
-0.00339236
0.00656281
-0.00308384
0.00637473
-0.00265868
0.00622952
-0.00203806
0.00608365
-0.0012955
0.00592987
-0.000621853
0.00584719
-8.08341e-05
0.00593518
0.000527312
0.00621506
0.00159038
0.00343023
0.00937695
-0.000413604
0.00939496
-0.000763058
0.00936579
-0.00117041
0.00928325
-0.00161323
0.00914777
-0.00206219
0.00896619
-0.00248641
0.00874926
-0.00285828
0.00850786
-0.00316076
0.00825281
-0.00338349
0.00799352
-0.00351687
0.00773451
-0.00356369
0.0074813
-0.0035289
0.00724164
-0.00339568
0.00701255
-0.00316328
0.00679268
-0.00286397
0.00660651
-0.00247252
0.00647162
-0.00190317
0.00635606
-0.00117994
0.00622628
-0.000492064
0.00612344
2.20012e-05
0.00614988
0.000500868
0.00637097
0.00136929
0.00305347
0.00949147
-0.000453415
0.00949943
-0.000771011
0.00946597
-0.00113695
0.00938572
-0.00153298
0.00925855
-0.00193502
0.00908952
-0.00231739
0.00888734
-0.00265609
0.00866131
-0.00293472
0.00842068
-0.00314286
0.00817438
-0.00327057
0.00792754
-0.00331685
0.0076846
-0.00328596
0.00745354
-0.00316461
0.00723567
-0.00294541
0.00702741
-0.00265571
0.00684497
-0.00229008
0.00671383
-0.00177202
0.00662059
-0.0010867
0.00652265
-0.000394124
0.00642235
0.0001223
0.0064009
0.000522318
0.00655133
0.00121886
0.00272637
0.00961229
-0.000481205
0.0096117
-0.000770419
0.00957466
-0.00109992
0.00949644
-0.00145477
0.00937657
-0.00181514
0.00921876
-0.00215958
0.00903002
-0.00246735
0.0088183
-0.002723
0.00859158
-0.00291615
0.00835802
-0.00303701
0.00812326
-0.00308208
0.00789122
-0.00305393
0.00766917
-0.00294256
0.00746159
-0.00273783
0.00726566
-0.00245978
0.00708984
-0.00211426
0.00695954
-0.00164172
0.00687888
-0.00100604
0.00681191
-0.000327158
0.00673247
0.000201736
0.00668438
0.000570407
0.00676217
0.00114108
0.00247378
0.00973948
-0.000498752
0.00973164
-0.000762579
0.0096916
-0.00105988
0.00961522
-0.00137839
0.00950178
-0.0017017
0.00935403
-0.00201183
0.00917757
-0.00229089
0.00897918
-0.00252461
0.0087658
-0.00270277
0.00854476
-0.00281597
0.00832188
-0.0028592
0.00810106
-0.00283311
0.00788861
-0.00273011
0.00769066
-0.00253988
0.00750659
-0.00227571
0.00733985
-0.00194751
0.00721095
-0.00151283
0.00713517
-0.000930257
0.00709144
-0.000283428
0.00704134
0.000251831
0.00698885
0.000622901
0.00700489
0.00112504
0.00231001
0.00987286
-0.000507621
0.00985892
-0.000748642
0.00981643
-0.00101738
0.00974176
-0.00130372
0.00963408
-0.00159403
0.00949541
-0.00187315
0.00933021
-0.0021257
0.00914426