/*--------------------------------*- C++ -*----------------------------------*\
  =========                 |
  \\      /  F ield         | OpenFOAM: The Open Source CFD Toolbox
   \\    /   O peration     | Website:  https://openfoam.org
    \\  /    A nd           | Version:  7
     \\/     M anipulation  |
\*---------------------------------------------------------------------------*/
FoamFile
{
    version     2.0;
    format      ascii;
    class       volScalarField;
    location    "100";
    object      p;
}
// * * * * * * * * * * * * * * * * * * * * * * * * * * * * * * * * * * * * * //

dimensions      [0 2 -2 0 0 0 0];

internalField   nonuniform List<scalar> 
20050
(
-0.402768
-0.403942
-0.404468
-0.404911
-0.405517
-0.406498
-0.408014
-0.410157
-0.412981
-0.416532
-0.420865
-0.426055
-0.432202
-0.439374
-0.44765
-0.398076
-0.399578
-0.40023
-0.400736
-0.401339
-0.402243
-0.403598
-0.405484
-0.40794
-0.410997
-0.41469
-0.419073
-0.424221
-0.430157
-0.436951
-0.393389
-0.395204
-0.395976
-0.396538
-0.397134
-0.397954
-0.39914
-0.400757
-0.402831
-0.405374
-0.408401
-0.411942
-0.416046
-0.420685
-0.425909
-0.388747
-0.390859
-0.391743
-0.392357
-0.392941
-0.393675
-0.394686
-0.396028
-0.397711
-0.399728
-0.402072
-0.404747
-0.407779
-0.411077
-0.414673
-0.384192
-0.386582
-0.387571
-0.388232
-0.388803
-0.389447
-0.390283
-0.391347
-0.392635
-0.394121
-0.395773
-0.397572
-0.399518
-0.401456
-0.40339
-0.379764
-0.382412
-0.383498
-0.384203
-0.384757
-0.385313
-0.385973
-0.386762
-0.387656
-0.388611
-0.389573
-0.390496
-0.391356
-0.391934
-0.392203
-0.375502
-0.378386
-0.379561
-0.380306
-0.380844
-0.381311
-0.3818
-0.382317
-0.382823
-0.383254
-0.383533
-0.383589
-0.383379
-0.382616
-0.38124
-0.371442
-0.37454
-0.375795
-0.376576
-0.377097
-0.377479
-0.377801
-0.378053
-0.378181
-0.378099
-0.377709
-0.376916
-0.375661
-0.373595
-0.370616
-0.367619
-0.370908
-0.372235
-0.373048
-0.373552
-0.373851
-0.374011
-0.374008
-0.373768
-0.373189
-0.37215
-0.370533
-0.368268
-0.364949
-0.360428
-0.364064
-0.367519
-0.36891
-0.369751
-0.370238
-0.370458
-0.370464
-0.370215
-0.369622
-0.368564
-0.366898
-0.364488
-0.361252
-0.356743
-0.350752
-0.360808
-0.364403
-0.365848
-0.366714
-0.367182
-0.367328
-0.367186
-0.366703
-0.365772
-0.364255
-0.36199
-0.35882
-0.354659
-0.349028
-0.341645
-0.357875
-0.361585
-0.363075
-0.363959
-0.36441
-0.364483
-0.364202
-0.363497
-0.362245
-0.360292
-0.357455
-0.353561
-0.348522
-0.341842
-0.333144
-0.355289
-0.359085
-0.36061
-0.361509
-0.36194
-0.361946
-0.361533
-0.360618
-0.359065
-0.356699
-0.353321
-0.348739
-0.342869
-0.335211
-0.32527
-0.353067
-0.356923
-0.358472
-0.359379
-0.35979
-0.359731
-0.359196
-0.358086
-0.356249
-0.353496
-0.349608
-0.344376
-0.33772
-0.329157
-0.318024
-0.351224
-0.35511
-0.356673
-0.357583
-0.357972
-0.357853
-0.357203
-0.355913
-0.353813
-0.350699
-0.346335
-0.34049
-0.333092
-0.323693
-0.311394
-0.349772
-0.353658
-0.355221
-0.356128
-0.356495
-0.356318
-0.355565
-0.354109
-0.351769
-0.348323
-0.343517
-0.337096
-0.328997
-0.318834
-0.305355
-0.348716
-0.35257
-0.354123
-0.355019
-0.355361
-0.355132
-0.354285
-0.352681
-0.350124
-0.346376
-0.341165
-0.334208
-0.325444
-0.314592
-0.299872
-0.348058
-0.351847
-0.353376
-0.354255
-0.354571
-0.354294
-0.353362
-0.351627
-0.348878
-0.34486
-0.339284
-0.331833
-0.322438
-0.310979
-0.294892
-0.347793
-0.351486
-0.352978
-0.35383
-0.354118
-0.353796
-0.352791
-0.350942
-0.348026
-0.343773
-0.337873
-0.329971
-0.319977
-0.308002
-0.290309
-0.347915
-0.351476
-0.352917
-0.353735
-0.353991
-0.353627
-0.352559
-0.350613
-0.347556
-0.343101
-0.33692
-0.328617
-0.318055
-0.305677
-0.285959
-0.34841
-0.351806
-0.35318
-0.353954
-0.354173
-0.35377
-0.352646
-0.35062
-0.347445
-0.342821
-0.336404
-0.327751
-0.316666
-0.304059
-0.281942
-0.34926
-0.352459
-0.35375
-0.354469
-0.354645
-0.354201
-0.353028
-0.350933
-0.347661
-0.342898
-0.336283
-0.327337
-0.315764
-0.303011
-0.278968
-0.350444
-0.353415
-0.354607
-0.355257
-0.355381
-0.354893
-0.353672
-0.351518
-0.348164
-0.343286
-0.336508
-0.327319
-0.315301
-0.302081
-0.276794
-0.351938
-0.35465
-0.355725
-0.356292
-0.356353
-0.355814
-0.354543
-0.352332
-0.348906
-0.343928
-0.337013
-0.327627
-0.315308
-0.30159
-0.274978
-0.353715
-0.35614
-0.357081
-0.357547
-0.357531
-0.356928
-0.355601
-0.35333
-0.349833
-0.344764
-0.337728
-0.32817
-0.315591
-0.301548
-0.273557
-0.355746
-0.35786
-0.358647
-0.358994
-0.358882
-0.358202
-0.356804
-0.354464
-0.35089
-0.34573
-0.338579
-0.328867
-0.316069
-0.301781
-0.272604
-0.358002
-0.359785
-0.3604
-0.360606
-0.360377
-0.359599
-0.358113
-0.355688
-0.352026
-0.346764
-0.339496
-0.329633
-0.316675
-0.302119
-0.272172
-0.360457
-0.361892
-0.362314
-0.362357
-0.361988
-0.361088
-0.359492
-0.356962
-0.353191
-0.347813
-0.34042
-0.330397
-0.317355
-0.30237
-0.272186
-0.363086
-0.364158
-0.364369
-0.364225
-0.363688
-0.36264
-0.360908
-0.358248
-0.354349
-0.348836
-0.341307
-0.331118
-0.318086
-0.302313
-0.272359
-0.365866
-0.366567
-0.366548
-0.366191
-0.365459
-0.364234
-0.362339
-0.359522
-0.35547
-0.349805
-0.342132
-0.33179
-0.31891
-0.301963
-0.273152
-0.368782
-0.369104
-0.368836
-0.368242
-0.367287
-0.365855
-0.363766
-0.360766
-0.356537
-0.350699
-0.342877
-0.332415
-0.319832
-0.301977
-0.278333
-0.371821
-0.371761
-0.371225
-0.370371
-0.369164
-0.367496
-0.365185
-0.361974
-0.357542
-0.351512
-0.34353
-0.332962
-0.320658
-0.302864
-0.292191
-0.374978
-0.37453
-0.373714
-0.372574
-0.371088
-0.369156
-0.366595
-0.363147
-0.358489
-0.352243
-0.344081
-0.333401
-0.321264
-0.303809
-0.295607
-0.378252
-0.377415
-0.376303
-0.374857
-0.373067
-0.370844
-0.368007
-0.364296
-0.359386
-0.3529
-0.344527
-0.33371
-0.321564
-0.304436
-0.296057
-0.381649
-0.38042
-0.378998
-0.377226
-0.37511
-0.372573
-0.369436
-0.365438
-0.36025
-0.353493
-0.344871
-0.333874
-0.321572
-0.304703
-0.295385
-0.38518
-0.383556
-0.381811
-0.379696
-0.377235
-0.374364
-0.370905
-0.366596
-0.3611
-0.354038
-0.345119
-0.333886
-0.32131
-0.304596
-0.293985
-0.388859
-0.386834
-0.384755
-0.382283
-0.379461
-0.376238
-0.372438
-0.367792
-0.361956
-0.354547
-0.345277
-0.333743
-0.320799
-0.304131
-0.292187
-0.392704
-0.390271
-0.387848
-0.385008
-0.381812
-0.378221
-0.374059
-0.369049
-0.362837
-0.355031
-0.345351
-0.333446
-0.320062
-0.303339
-0.290174
-0.396736
-0.393883
-0.391107
-0.38789
-0.384309
-0.380338
-0.375794
-0.370389
-0.363755
-0.355499
-0.345344
-0.332998
-0.319121
-0.302261
-0.288046
-0.400974
-0.397687
-0.394552
-0.39095
-0.386977
-0.382611
-0.377662
-0.371827
-0.364722
-0.355952
-0.345255
-0.332402
-0.317992
-0.300931
-0.285843
-0.405439
-0.401702
-0.3982
-0.394209
-0.389835
-0.385061
-0.379682
-0.373374
-0.365741
-0.35639
-0.345082
-0.331659
-0.316691
-0.29938
-0.283581
-0.410148
-0.405942
-0.402068
-0.397682
-0.392901
-0.387703
-0.381862
-0.375034
-0.366807
-0.356803
-0.344817
-0.330771
-0.315226
-0.297634
-0.281256
-0.415116
-0.410421
-0.406169
-0.401386
-0.396189
-0.390547
-0.384208
-0.376802
-0.367912
-0.35718
-0.344453
-0.329737
-0.313605
-0.295711
-0.278858
-0.420354
-0.415149
-0.410514
-0.40533
-0.399708
-0.393597
-0.386716
-0.378669
-0.369039
-0.357504
-0.343976
-0.328555
-0.311831
-0.293622
-0.276373
-0.425866
-0.420131
-0.415109
-0.40952
-0.403459
-0.396851
-0.389375
-0.380616
-0.370166
-0.357755
-0.343373
-0.327219
-0.309906
-0.291376
-0.273786
-0.431654
-0.425369
-0.419957
-0.413958
-0.40744
-0.400297
-0.392166
-0.382617
-0.371265
-0.357909
-0.342631
-0.325726
-0.307828
-0.288974
-0.271083
-0.437711
-0.430859
-0.425055
-0.418638
-0.411642
-0.403918
-0.395064
-0.384641
-0.372304
-0.35794
-0.341732
-0.324067
-0.305593
-0.286417
-0.268251
-0.444026
-0.436591
-0.430394
-0.42355
-0.416048
-0.40769
-0.398036
-0.38665
-0.37325
-0.357823
-0.340661
-0.322234
-0.303194
-0.2837
-0.265275
-0.450579
-0.442553
-0.435959
-0.428676
-0.420633
-0.411579
-0.401041
-0.388603
-0.374064
-0.35753
-0.3394
-0.320216
-0.300625
-0.280816
-0.262143
-0.457346
-0.448722
-0.441732
-0.433993
-0.425366
-0.415546
-0.404033
-0.390454
-0.374708
-0.357033
-0.33793
-0.318001
-0.297874
-0.277757
-0.258842
-0.464295
-0.455071
-0.447683
-0.439469
-0.430209
-0.419544
-0.406962
-0.392154
-0.375144
-0.356304
-0.336234
-0.315576
-0.294929
-0.274513
-0.255359
-0.471386
-0.461566
-0.45378
-0.445065
-0.435114
-0.423518
-0.409771
-0.393654
-0.375332
-0.355317
-0.334291
-0.312925
-0.291778
-0.271071
-0.251682
-0.478574
-0.468168
-0.45998
-0.450735
-0.440028
-0.427409
-0.412401
-0.394902
-0.375234
-0.354044
-0.332083
-0.310032
-0.288406
-0.267419
-0.247798
-0.485806
-0.474828
-0.466236
-0.456425
-0.44489
-0.431152
-0.414792
-0.395848
-0.374813
-0.352457
-0.329588
-0.30688
-0.284797
-0.263542
-0.243694
-0.493023
-0.481493
-0.472491
-0.462072
-0.449631
-0.434678
-0.416879
-0.396441
-0.37403
-0.35053
-0.326785
-0.303451
-0.280934
-0.259425
-0.239357
-0.500158
-0.4881
-0.478683
-0.467609
-0.454179
-0.437915
-0.418601
-0.396633
-0.37285
-0.348236
-0.323654
-0.299727
-0.276802
-0.255054
-0.234775
-0.507139
-0.494583
-0.48474
-0.472961
-0.458456
-0.440788
-0.419894
-0.396375
-0.371239
-0.345549
-0.320171
-0.295686
-0.272382
-0.250414
-0.229935
-0.513888
-0.500867
-0.490587
-0.478046
-0.462379
-0.443223
-0.420698
-0.395623
-0.369163
-0.342444
-0.316316
-0.291312
-0.267657
-0.245488
-0.224825
-0.520323
-0.506873
-0.496141
-0.482779
-0.465865
-0.445145
-0.420953
-0.394333
-0.366591
-0.338894
-0.312067
-0.286582
-0.262611
-0.240263
-0.219432
-0.526355
-0.512516
-0.501316
-0.487071
-0.468829
-0.446481
-0.420604
-0.392462
-0.36349
-0.334875
-0.307401
-0.28148
-0.257225
-0.234724
-0.213745
-0.531893
-0.517707
-0.506019
-0.49083
-0.471185
-0.44716
-0.419595
-0.389973
-0.359832
-0.330362
-0.302298
-0.275985
-0.251484
-0.228857
-0.207753
-0.536844
-0.522356
-0.510158
-0.493963
-0.47285
-0.447115
-0.417877
-0.386828
-0.355588
-0.325334
-0.296738
-0.27008
-0.245372
-0.222648
-0.201447
-0.541113
-0.526368
-0.513638
-0.49638
-0.473742
-0.446281
-0.415404
-0.382994
-0.350733
-0.319766
-0.290701
-0.263748
-0.238875
-0.216086
-0.194818
-0.544603
-0.529647
-0.516362
-0.497987
-0.473784
-0.444599
-0.412132
-0.37844
-0.345243
-0.31364
-0.284168
-0.256972
-0.231979
-0.209159
-0.187857
-0.547218
-0.532098
-0.518235
-0.498698
-0.472903
-0.442014
-0.408023
-0.373138
-0.339094
-0.306935
-0.277124
-0.249739
-0.224671
-0.201857
-0.180557
-0.548866
-0.533629
-0.519166
-0.498429
-0.471031
-0.438477
-0.403042
-0.367061
-0.332267
-0.299635
-0.269551
-0.242035
-0.216941
-0.194171
-0.172911
-0.549455
-0.534147
-0.519066
-0.497101
-0.468106
-0.433945
-0.397159
-0.360189
-0.324744
-0.291723
-0.261438
-0.233848
-0.208779
-0.186095
-0.164916
-0.548899
-0.533566
-0.517851
-0.494641
-0.464074
-0.428378
-0.390348
-0.352502
-0.316508
-0.283187
-0.252772
-0.225169
-0.200176
-0.177623
-0.156572
-0.547117
-0.531804
-0.515443
-0.490985
-0.458886
-0.421745
-0.382588
-0.343984
-0.307549
-0.274015
-0.243544
-0.215988
-0.191125
-0.168751
-0.147884
-0.544033
-0.528782
-0.511769
-0.486074
-0.452502
-0.41402
-0.373861
-0.334625
-0.297855
-0.264199
-0.233746
-0.206299
-0.181619
-0.159471
-0.138837
-0.539577
-0.524433
-0.506768
-0.479858
-0.444888
-0.405183
-0.364157
-0.324414
-0.28742
-0.253733
-0.223374
-0.196101
-0.171658
-0.149776
-0.129362
-0.53369
-0.518694
-0.500384
-0.472296
-0.436018
-0.395221
-0.353467
-0.313348
-0.276241
-0.242614
-0.212426
-0.185392
-0.161249
-0.139672
-0.11939
-0.526319
-0.511511
-0.49257
-0.463356
-0.425876
-0.384124
-0.341789
-0.301425
-0.264316
-0.230844
-0.200903
-0.174174
-0.150392
-0.129185
-0.109048
-0.51742
-0.502839
-0.48329
-0.453015
-0.414451
-0.371893
-0.329125
-0.288649
-0.25165
-0.218423
-0.188807
-0.16245
-0.13908
-0.118263
-0.0985323
-0.50696
-0.492645
-0.472517
-0.44126
-0.40174
-0.35853
-0.315481
-0.275026
-0.238248
-0.20536
-0.176146
-0.150231
-0.127347
-0.106929
-0.0877233
-0.494913
-0.480902
-0.460234
-0.428084
-0.387748
-0.344046
-0.300869
-0.260567
-0.224119
-0.191661
-0.16293
-0.137528
-0.115179
-0.0952273
-0.0765821
-0.481267
-0.467596
-0.446435
-0.413492
-0.372489
-0.328457
-0.285304
-0.245286
-0.209278
-0.177342
-0.14917
-0.124347
-0.10259
-0.0831659
-0.0651093
-0.466016
-0.452722
-0.431121
-0.397497
-0.35598
-0.311785
-0.268808
-0.229203
-0.193742
-0.162418
-0.13488
-0.110703
-0.0895946
-0.0707522
-0.0533182
-0.449168
-0.436285
-0.414307
-0.38012
-0.338248
-0.294056
-0.251405
-0.212338
-0.17753
-0.146905
-0.120077
-0.096611
-0.0762081
-0.0579967
-0.0412251
-0.430738
-0.418302
-0.396014
-0.36139
-0.319326
-0.275304
-0.233124
-0.194719
-0.160666
-0.130825
-0.104781
-0.0820905
-0.062448
-0.044914
-0.0288476
-0.410752
-0.398797
-0.376274
-0.341343
-0.299255
-0.255564
-0.213997
-0.176375
-0.143175
-0.114203
-0.0890146
-0.0671624
-0.0483338
-0.0315219
-0.0162047
-0.389247
-0.377804
-0.355126
-0.32003
-0.278087
-0.234867
-0.194063
-0.157339
-0.125089
-0.097066
-0.0728031
-0.0518502
-0.033887
-0.0178405
-0.00331731
-0.366267
-0.355368
-0.332619
-0.29751
-0.255868
-0.213256
-0.173358
-0.137648
-0.106439
-0.079444
-0.0561741
-0.0361799
-0.0191312
-0.00389258
0.00979122
-0.341861
-0.331542
-0.308817
-0.273838
-0.232599
-0.190823
-0.151935
-0.117341
-0.0872625
-0.0613696
-0.0391576
-0.0201793
-0.00409225
0.010297
0.0230949
-0.31609
-0.306395
-0.2838
-0.249025
-0.208404
-0.16759
-0.129839
-0.0964615
-0.0675972
-0.0428776
-0.0217858
-0.00387856
0.0112024
0.0247009
0.0365636
-0.28902
-0.28
-0.257643
-0.223125
-0.183349
-0.14362
-0.107123
-0.0750564
-0.0474844
-0.0240052
-0.00409268
0.0126908
0.0267233
0.039288
0.0501583
-0.260726
-0.252444
-0.23027
-0.196357
-0.15749
-0.118974
-0.0838424
-0.0531739
-0.0269674
-0.00479119
0.0138863
0.029496
0.0424402
0.0540243
0.0638284
-0.231283
-0.22384
-0.201839
-0.168718
-0.130903
-0.0937196
-0.0600536
-0.0308651
-0.00609172
0.0147238
0.0321142
0.0465024
0.0583224
0.0688782
0.0775284
-0.200756
-0.194152
-0.172612
-0.14029
-0.103661
-0.0679257
-0.035817
-0.00818328
0.0150954
0.0344975
0.0505523
0.0636742
0.0743425
0.0838302
0.0912295
-0.169279
-0.163603
-0.142576
-0.111163
-0.0758436
-0.0416623
-0.0111952
0.0148162
0.0365449
0.0544863
0.0691604
0.0809773
0.0904829
0.0988604
0.104821
-0.137095
-0.132155
-0.111809
-0.0814273
-0.0475333
-0.0150022
0.0137472
0.0380761
0.058206
0.0746451
0.087899
0.0983877
0.106743
0.113892
0.117916
-0.104172
-0.0999903
-0.080412
-0.0511771
-0.018814
0.0119796
0.0389435
0.0615372
0.080026
0.0949265
0.106731
0.115895
0.123125
0.128772
0.130066
-0.0706102
-0.0672356
-0.0484913
-0.020508
0.0102275
0.0392062
0.0643257
0.0851385
0.10195
0.115282
0.125619
0.13348
0.139571
0.143383
0.141954
-0.0365329
-0.0340007
-0.0161546
0.0104817
0.039503
0.0665993
0.0898236
0.108817
0.123921
0.135659
0.144523
0.151086
0.15592
0.157655
0.156581
-0.00205878
-0.000396284
0.0164888
0.0416919
0.068923
0.094079
0.115366
0.13251
0.145882
0.156009
0.163391
0.168625
0.172116
0.172384
0.171759
0.0326912
0.0334626
0.0493277
0.0730214
0.0983969
0.121565
0.140882
0.156152
0.167773
0.176278
0.18217
0.186045
0.188184
0.18726
0.186421
0.0675954
0.0674592
0.0822504
0.104368
0.127834
0.148976
0.166298
0.179677
0.189537
0.196411
0.200809
0.203306
0.204119
0.20212
0.200738
0.102532
0.101476
0.115145
0.135631
0.157142
0.17623
0.191541
0.203021
0.211115
0.216356
0.219255
0.220369
0.219876
0.216826
0.214709
0.137377
0.135394
0.147899
0.166707
0.186231
0.203248
0.21654
0.226119
0.232446
0.236058
0.237459
0.23719
0.23541
0.231306
0.228335
0.17201
0.169095
0.180402
0.197495
0.21501
0.229947
0.241222
0.248904
0.253473
0.255463
0.255374
0.253729
0.250673
0.245509
0.241614
0.206308
0.202462
0.212542
0.227895
0.243389
0.256248
0.265514
0.271313
0.274138
0.274519
0.272952
0.269941
0.265624
0.2594
0.254535
0.240151
0.235376
0.24421
0.257807
0.27128
0.282071
0.289347
0.293283
0.294382
0.293175
0.290147
0.285786
0.280225
0.272944
0.267085
0.273419
0.267723
0.275298
0.287136
0.298596
0.30734
0.312651
0.31475
0.314151
0.311379
0.306913
0.301224
0.294438
0.286112
0.279246
0.305995
0.299389
0.305702
0.315783
0.325251
0.331978
0.335357
0.335654
0.333389
0.329083
0.323207
0.316215
0.308229
0.298876
0.291
0.337765
0.330264
0.335316
0.343658
0.351162
0.35591
0.357399
0.355934
0.352043
0.346239
0.338985
0.33072
0.321564
0.311207
0.302327
0.368616
0.360238
0.364042
0.370668
0.376248
0.379064
0.378711
0.375533
0.370059
0.362799
0.354206
0.344703
0.33441
0.323078
0.313205
0.398439
0.389207
0.391781
0.396726
0.400431
0.401369
0.399232
0.394393
0.387387
0.378717
0.368828
0.358127
0.346737
0.334459
0.323612
0.427129
0.417069
0.418438
0.421746
0.423633
0.422757
0.418899
0.41246
0.403978
0.393951
0.382814
0.370959
0.358512
0.345326
0.333528
0.454585
0.443726
0.443925
0.445648
0.445783
0.443164
0.437654
0.429681
0.419785
0.408457
0.396124
0.383164
0.369706
0.35565
0.342932
0.480709
0.469084
0.468153
0.468353
0.46681
0.462527
0.455441
0.446007
0.434763
0.422196
0.408723
0.394709
0.380291
0.365407
0.351801
0.505409
0.493054
0.491041
0.489787
0.486648
0.480786
0.472207
0.461388
0.448868
0.435127
0.420576
0.405565
0.390238
0.374571
0.360118
0.528598
0.515553
0.51251
0.509879
0.505235
0.497885
0.487901
0.47578
0.46206
0.447216
0.43165
0.415703
0.399523
0.38312
0.367861
0.550192
0.536499
0.532488
0.528564
0.52251
0.513771
0.502476
0.489139
0.4743
0.458427
0.441915
0.425093
0.408119
0.391031
0.375014
0.570114
0.555819
0.550905
0.54578
0.53842
0.528394
0.515886
0.501426
0.485552
0.468728
0.451341
0.433711
0.416003
0.398282
0.38156
0.588293
0.573444
0.567698
0.56147
0.552912
0.541708
0.528091
0.512604
0.495783
0.478089
0.459901
0.441533
0.423155
0.404854
0.387481
0.604663
0.589311
0.582809
0.575581
0.56594
0.553672
0.539053
0.522638
0.504962
0.486482
0.467572
0.448536
0.429553
0.41073
0.392765
0.619164
0.603362
0.596184
0.588065
0.57746
0.564247
0.548737
0.531497
0.513061
0.493883
0.47433
0.4547
0.43518
0.415892
0.397398
0.631743
0.615545
0.607778
0.598881
0.587436
0.573398
0.557113
0.539154
0.520056
0.500268
0.480155
0.460007
0.44002
0.420326
0.401368
0.642352
0.625817
0.617547
0.60799
0.595832
0.581096
0.564153
0.545583
0.525924
0.505619
0.485029
0.464442
0.444057
0.424019
0.404664
0.650952
0.634136
0.625457
0.615361
0.602621
0.587314
0.569833
0.550765
0.530646
0.509917
0.488938
0.467991
0.44728
0.42696
0.407278
0.657507
0.640472
0.631476
0.620965
0.607778
0.592031
0.574135
0.554682
0.534206
0.51315
0.491868
0.470642
0.449679
0.42914
0.409204
0.661991
0.644797
0.635581
0.624782
0.611283
0.595229
0.577042
0.557318
0.536592
0.515304
0.49381
0.472385
0.451245
0.430552
0.41044
0.664383
0.647093
0.637754
0.626795
0.613122
0.596895
0.578543
0.558665
0.537794
0.516373
0.494755
0.473216
0.451971
0.431189
0.410973
0.66467
0.647345
0.637983
0.626994
0.613286
0.59702
0.57863
0.558714
0.537806
0.51635
0.494698
0.473128
0.451854
0.431045
0.410799
0.662845
0.645548
0.636261
0.625373
0.611768
0.595601
0.5773
0.557462
0.536626
0.515233
0.493638
0.472119
0.450892
0.430121
0.409917
0.658909
0.641702
0.63259
0.621932
0.608571
0.592637
0.574551
0.55491
0.534252
0.513021
0.491574
0.470191
0.449085
0.428417
0.40833
0.652868
0.635813
0.626975
0.616677
0.603698
0.588133
0.57039
0.551062
0.530689
0.509719
0.488509
0.467345
0.446436
0.425937
0.406044
0.644736
0.627896
0.619429
0.609618
0.59716
0.582099
0.564823
0.545924
0.525944
0.505332
0.48445
0.463587
0.44295
0.422683
0.403061
0.634535
0.61797
0.60997
0.600774
0.588972
0.574546
0.557863
0.539508
0.520026
0.499869
0.479404
0.458925
0.438632
0.418663
0.399385
0.622293
0.606062
0.598623
0.590166
0.579153
0.565495
0.549526
0.531829
0.512949
0.493342
0.473382
0.453367
0.433493
0.413885
0.395021
0.608044
0.592205
0.585418
0.57782
0.567729
0.554966
0.539833
0.522905
0.504728
0.485766
0.466397
0.446926
0.427543
0.408357
0.389978
0.591829
0.576439
0.570391
0.563771
0.554728
0.542986
0.528807
0.512756
0.495385
0.477159
0.458465
0.439616
0.420795
0.402093
0.384265
0.573697
0.55881
0.553585
0.548055
0.540185
0.529585
0.516475
0.501409
0.48494
0.467541
0.449605
0.431454
0.413264
0.395105
0.377893
0.553701
0.539369
0.535048
0.530717
0.524138
0.514799
0.50287
0.488891
0.47342
0.456935
0.439836
0.422458
0.404967
0.387409
0.370874
0.531901
0.518175
0.514833
0.511803
0.50663
0.498666
0.488025
0.475234
0.460853
0.445366
0.429183
0.412649
0.395922
0.379022
0.363222
0.508365
0.495291
0.492998
0.491367
0.487709
0.481229
0.471979
0.460473
0.447269
0.432863
0.41767
0.402049
0.38615
0.369962
0.354951
0.483164
0.470788
0.469608
0.469466
0.467426
0.462533
0.454775
0.444644
0.432704
0.419455
0.405325
0.390684
0.375674
0.36025
0.346078
0.456376
0.444739
0.444732
0.446163
0.445837
0.44263
0.436456
0.427789
0.417193
0.405176
0.392176
0.378578
0.364516
0.349907
0.336621
0.428086
0.417226
0.418443
0.421523
0.423002
0.421572
0.417072
0.409951
0.400775
0.390061
0.378257
0.365761
0.352703
0.338955
0.326597
0.398381
0.388333
0.390821
0.395619
0.398983
0.399417
0.396672
0.391175
0.383492
0.374147
0.363598
0.352261
0.34026
0.327419
0.316026
0.367355
0.358152
0.361948
0.368525
0.373848
0.376224
0.375312
0.371511
0.365387
0.357473
0.348237
0.338111
0.327216
0.315324
0.304928
0.335107
0.326775
0.331912
0.340319
0.347668
0.352057
0.353048
0.351009
0.346507
0.34008
0.332209
0.323343
0.3136
0.302696
0.293324
0.301739
0.294303
0.300805
0.311083
0.320516
0.32698
0.329938
0.329723
0.326898
0.322011
0.315553
0.307991
0.299442
0.289561
0.281236
0.267357
0.260838
0.268721
0.280905
0.292468
0.301064
0.306045
0.307707
0.30661
0.30331
0.298309
0.292089
0.284772
0.275946
0.268684
0.232072
0.226486
0.235759
0.249871
0.263604
0.274379
0.281433
0.285019
0.285696
0.284024
0.280517
0.275676
0.269624
0.261879
0.255689
0.195997
0.191358
0.202021
0.218075
0.234006
0.246998
0.256166
0.261719
0.264207
0.2642
0.26222
0.258787
0.25403
0.247388
0.242273
0.159249
0.155566
0.167612
0.18561
0.203759
0.218997
0.230313
0.237866
0.242199
0.243887
0.243461
0.241463
0.238025
0.232502
0.228455
0.121947
0.119225
0.132638
0.152574
0.172948
0.190453
0.203942
0.213523
0.219728
0.223135
0.224287
0.223742
0.221644
0.21725
0.214252
0.0842121
0.0824525
0.0972095
0.119064
0.141662
0.161445
0.177125
0.188754
0.196849
0.201996
0.204742
0.205667
0.204924
0.201661
0.19968
0.0461675
0.0453675
0.0614372
0.0851827
0.109991
0.132052
0.149934
0.163622
0.173623
0.180522
0.184874
0.187281
0.187906
0.185771
0.184751
0.00793737
0.00809045
0.0254339
0.0510308
0.078026
0.102357
0.12244
0.138194
0.150107
0.158767
0.164732
0.168626
0.170636
0.169621
0.169476
-0.0303532
-0.0292577
-0.0106866
0.0167116
0.0458589
0.0724411
0.0947177
0.112536
0.126363
0.136785
0.144364
0.149746
0.15316
0.153265
0.153861
-0.0685785
-0.0665558
-0.04681
-0.0176707
0.0135825
0.0423872
0.0668412
0.0867138
0.102449
0.114632
0.123821
0.130683
0.135529
0.136788
0.13791
-0.106613
-0.103683
-0.0828214
-0.0520121
-0.01871
0.0122782
0.0388844
0.0607947
0.0784257
0.0923628
0.103155
0.111478
0.117788
0.12035
0.121642
-0.144332
-0.140519
-0.118606
-0.086208
-0.0509256
-0.017803
0.0109214
0.034845
0.054354
0.0700331
0.0824226
0.0921708
0.0999382
0.104139
0.104885
-0.181609
-0.176946
-0.154049
-0.120154
-0.0829713
-0.047774
-0.0169742
0.00893105
0.030293
0.0476962
0.0616767
0.072814
0.0819334
0.0884604
0.088804
-0.218322
-0.212849
-0.189038
-0.153748
-0.114755
-0.077553
-0.0447296
-0.0168817
0.00630203
0.0254042
0.0409691
0.0535023
0.0638264
0.0723659
0.0758063
-0.254343
-0.248112
-0.223462
-0.186888
-0.146186
-0.10706
-0.0722732
-0.0425291
-0.0175607
0.00320896
0.0203418
0.0342997
0.045812
0.0559656
0.0624918
-0.289566
-0.282603
-0.257211
-0.219473
-0.177175
-0.136214
-0.0995346
-0.0679485
-0.0412388
-0.018839
-0.000168347
0.0152239
0.0279633
0.0394299
0.0481015
-0.324025
-0.316122
-0.290184
-0.251407
-0.207633
-0.16494
-0.126445
-0.093079
-0.064678
-0.0406912
-0.0205237
-0.00371876
0.0102706
0.0229283
0.0331749
-0.357488
-0.348684
-0.322306
-0.282589
-0.237476
-0.193161
-0.152939
-0.117862
-0.0878262
-0.0623012
-0.0406839
-0.0225068
-0.00727524
0.00653176
0.0181472
-0.38979
-0.380145
-0.353545
-0.312922
-0.266623
-0.220806
-0.17895
-0.142239
-0.110633
-0.0836243
-0.0606083
-0.0411065
-0.0246609
-0.00974699
0.00312692
-0.420855
-0.410458
-0.383719
-0.342317
-0.294995
-0.247802
-0.204417
-0.166156
-0.13305
-0.104617
-0.0802574
-0.0594812
-0.0418594
-0.0258908
-0.0118605
-0.450604
-0.439515
-0.412503
-0.370891
-0.32251
-0.274082
-0.22928
-0.18956
-0.155029
-0.125239
-0.0995933
-0.0775959
-0.0588401
-0.0418677
-0.0267648
-0.478957
-0.46724
-0.44008
-0.398317
-0.349073
-0.299582
-0.253481
-0.2124
-0.176527
-0.145448
-0.11858
-0.0954171
-0.075572
-0.0576423
-0.041531
-0.50584
-0.493549
-0.466367
-0.424391
-0.374744
-0.324242
-0.276963
-0.234627
-0.197499
-0.165207
-0.137181
-0.112913
-0.0920255
-0.0731829
-0.0561176
-0.531187
-0.518362
-0.491276
-0.449264
-0.399292
-0.347987
-0.299676
-0.256196
-0.217905
-0.184479
-0.155365
-0.130051
-0.108172
-0.0884614
-0.0704932
-0.554938
-0.541615
-0.514727
-0.472868
-0.422668
-0.370779
-0.321569
-0.277063
-0.237708
-0.20323
-0.1731
-0.146804
-0.123986
-0.103452
-0.0846309
-0.577044
-0.563255
-0.536658
-0.495114
-0.444867
-0.392548
-0.342603
-0.29719
-0.256873
-0.221429
-0.190357
-0.163145
-0.139443
-0.118133
-0.0985068
-0.597461
-0.583238
-0.557018
-0.515943
-0.465842
-0.41326
-0.362732
-0.316539
-0.275368
-0.239046
-0.20711
-0.17905
-0.15452
-0.132482
-0.1121
-0.616154
-0.60153
-0.575769
-0.53531
-0.485541
-0.432878
-0.381921
-0.33508
-0.293162
-0.256055
-0.223334
-0.194495
-0.169198
-0.14648
-0.125391
-0.633098
-0.618108
-0.592881
-0.553178
-0.503924
-0.451361
-0.400139
-0.352794
-0.310224
-0.272433
-0.23901
-0.209462
-0.183459
-0.160113
-0.138364
-0.648279
-0.632957
-0.60833
-0.569517
-0.520955
-0.468678
-0.417352
-0.369639
-0.326547
-0.28816
-0.254117
-0.223933
-0.197288
-0.173368
-0.151001
-0.661692
-0.646073
-0.622106
-0.584306
-0.536609
-0.484802
-0.433539
-0.385597
-0.342106
-0.303224
-0.26864
-0.237893
-0.210671
-0.186236
-0.163289
-0.673345
-0.657463
-0.634205
-0.597532
-0.550867
-0.499711
-0.448682
-0.400653
-0.356883
-0.317608
-0.282571
-0.251329
-0.223597
-0.198711
-0.175216
-0.683252
-0.667144
-0.644636
-0.609191
-0.563715
-0.513391
-0.462764
-0.414796
-0.370864
-0.331297
-0.295896
-0.264248
-0.236044
-0.210785
-0.186789
-0.691443
-0.675143
-0.653417
-0.619288
-0.575149
-0.52583
-0.475775
-0.428015
-0.384043
-0.344285
-0.308607
-0.276628
-0.248037
-0.222411
-0.198067
-0.697954
-0.6815
-0.660577
-0.627837
-0.58517
-0.537023
-0.487707
-0.440303
-0.396415
-0.356569
-0.320697
-0.288461
-0.259548
-0.233604
-0.209181
-0.702832
-0.686262
-0.666155
-0.634864
-0.593789
-0.546974
-0.49856
-0.451658
-0.407978
-0.368146
-0.332168
-0.299748
-0.270583
-0.244375
-0.219853
-0.706136
-0.689487
-0.670201
-0.6404
-0.601023
-0.555688
-0.508337
-0.462082
-0.418733
-0.379018
-0.343019
-0.31049
-0.281141
-0.25471
-0.230012
-0.70793
-0.691243
-0.672772
-0.644488
-0.606898
-0.563181
-0.517044
-0.471581
-0.428685
-0.38919
-0.353255
-0.320689
-0.291218
-0.26461
-0.239737
-0.70829
-0.691604
-0.673937
-0.647181
-0.611448
-0.56947
-0.524694
-0.480162
-0.437843
-0.398668
-0.362882
-0.330349
-0.300818
-0.27409
-0.249095
-0.707296
-0.690654
-0.673773
-0.648539
-0.614713
-0.574583
-0.531303
-0.487839
-0.446215
-0.407462
-0.371908
-0.339479
-0.30995
-0.283157
-0.258104
-0.705038
-0.688482
-0.672362
-0.64863
-0.616743
-0.57855
-0.536893
-0.494628
-0.453818
-0.415585
-0.380346
-0.34809
-0.318624
-0.291821
-0.266763
-0.701608
-0.685183
-0.669795
-0.647532
-0.617594
-0.58141
-0.541488
-0.500546
-0.460665
-0.423051
-0.388208
-0.356194
-0.326851
-0.300088
-0.275075
-0.697107
-0.680856
-0.666169
-0.645327
-0.617329
-0.583207
-0.545118
-0.505617
-0.466776
-0.429876
-0.39551
-0.363806
-0.334645
-0.307968
-0.283046
-0.691634
-0.675603
-0.661584
-0.642106
-0.61602
-0.583989
-0.547818
-0.509864
-0.47217
-0.43608
-0.402269
-0.37094
-0.342017
-0.315474
-0.290689
-0.685297
-0.66953
-0.656144
-0.637963
-0.613741
-0.583812
-0.549624
-0.513315
-0.476871
-0.441681
-0.408502
-0.377613
-0.348985
-0.322619
-0.298015
-0.678199
-0.662741
-0.649954
-0.632996
-0.610576
-0.582736
-0.550579
-0.516
-0.480901
-0.446701
-0.41423
-0.383843
-0.355564
-0.329418
-0.305035
-0.670445
-0.655341
-0.64312
-0.627307
-0.606609
-0.580826
-0.550729
-0.517951
-0.484286
-0.451162
-0.419473
-0.389649
-0.361771
-0.335888
-0.311765
-0.66214
-0.647432
-0.635746
-0.620998
-0.601931
-0.578152
-0.550121
-0.519203
-0.487052
-0.455085
-0.424251
-0.395051
-0.367626
-0.342045
-0.318217
-0.653385
-0.639114
-0.627935
-0.61417
-0.596633
-0.574787
-0.548809
-0.519791
-0.489227
-0.458495
-0.428585
-0.400068
-0.373148
-0.347908
-0.32441
-0.644277
-0.630482
-0.619786
-0.606923
-0.59081
-0.570806
-0.546849
-0.519755
-0.490837
-0.461413
-0.432498
-0.404722
-0.378355
-0.353495
-0.330359
-0.63491
-0.621627
-0.611392
-0.599356
-0.584553
-0.56629
-0.544298
-0.519134
-0.491911
-0.463863
-0.436009
-0.409033
-0.383269
-0.358826
-0.336083
-0.625372
-0.612633
-0.602842
-0.59156
-0.577955
-0.561318
-0.541219
-0.517972
-0.492479
-0.465867
-0.439139
-0.41302
-0.387908
-0.36392
-0.3416
-0.615744
-0.603578
-0.594217
-0.583623
-0.571104
-0.55597
-0.537675
-0.516312
-0.492571
-0.467446
-0.441908
-0.416703
-0.392294
-0.368798
-0.346931
-0.606103
-0.594534
-0.585592
-0.575626
-0.564085
-0.550326
-0.533729
-0.5142
-0.492215
-0.468622
-0.444332
-0.420099
-0.396444
-0.37348
-0.352095
-0.596515
-0.585563
-0.577034
-0.567642
-0.556977
-0.544464
-0.529448
-0.511683
-0.491444
-0.469416
-0.446429
-0.423226
-0.400377
-0.377985
-0.357113
-0.587043
-0.576723
-0.5686
-0.559737
-0.549853
-0.538458
-0.524897
-0.508809
-0.490288
-0.469847
-0.448214
-0.426098
-0.40411
-0.382333
-0.362005
-0.577739
-0.568062
-0.560341
-0.551968
-0.542779
-0.532377
-0.520139
-0.505628
-0.48878
-0.469934
-0.4497
-0.428729
-0.407659
-0.386543
-0.366794
-0.568649
-0.55962
-0.5523
-0.544382
-0.535811
-0.526285
-0.515236
-0.50219
-0.486952
-0.469696
-0.450898
-0.431129
-0.411038
-0.390631
-0.371501
-0.559811
-0.551433
-0.54451
-0.537021
-0.528999
-0.520239
-0.510248
-0.498545
-0.484839
-0.469153
-0.45182
-0.433307
-0.414257
-0.394614
-0.376148
-0.551259
-0.543527
-0.537
-0.529915
-0.522383
-0.51429
-0.505228
-0.494741
-0.482477