/*--------------------------------*- C++ -*----------------------------------*\
  =========                 |
  \\      /  F ield         | OpenFOAM: The Open Source CFD Toolbox
   \\    /   O peration     | Website:  https://openfoam.org
    \\  /    A nd           | Version:  7
     \\/     M anipulation  |
\*---------------------------------------------------------------------------*/
FoamFile
{
    version     2.0;
    format      ascii;
    class       surfaceScalarField;
    location    "100";
    object      phi;
}
// * * * * * * * * * * * * * * * * * * * * * * * * * * * * * * * * * * * * * //

dimensions      [0 3 -1 0 0 0 0];

internalField   nonuniform List<scalar> 
39691
(
-1.61498e-06
-0.000107165
0.00010878
-6.92592e-06
-0.000281509
0.00028682
-1.63882e-05
-0.000426769
0.000436231
-3.01517e-05
-0.000543065
0.000556828
-4.8075e-05
-0.000632842
0.000650765
-6.98055e-05
-0.000700521
0.000722252
-9.48833e-05
-0.000751658
0.000776736
-0.000122842
-0.000791963
0.000819921
-0.000153281
-0.000826343
0.000856782
-0.000185906
-0.000858167
0.000890793
-0.000220533
-0.000888874
0.000923501
-0.000257065
-0.000917874
0.000954406
-0.000295458
-0.000942668
0.000981061
-0.000335661
-0.000958984
0.000999186
-0.000960255
0.00100236
-0.000377767
-2.17823e-06
-0.000104987
-8.82377e-06
-0.000274863
-2.01471e-05
-0.000415446
-3.61024e-05
-0.000527109
-5.64126e-05
-0.000612532
-8.06533e-05
-0.000676281
-0.000108355
-0.000723957
-0.000139093
-0.000761225
-0.000172557
-0.00079288
-0.000208573
-0.000822151
-0.000247105
-0.000850342
-0.000288221
-0.000876757
-0.000332049
-0.00089884
-0.000378687
-0.000912346
-0.00091062
-0.000428322
-2.72199e-06
-0.000102265
-1.06399e-05
-0.000266946
-2.37143e-05
-0.000402371
-4.17016e-05
-0.000509122
-6.41877e-05
-0.000590046
-9.06732e-05
-0.000649795
-0.000120671
-0.000693959
-0.000153787
-0.000728108
-0.000189779
-0.000756887
-0.000228572
-0.000783358
-0.000270249
-0.000808665
-0.000315015
-0.000831991
-0.00036314
-0.000850715
-0.000414851
-0.000860635
-0.000855076
-0.000470394
-3.24092e-06
-9.90238e-05
-1.23587e-05
-0.000257828
-2.70628e-05
-0.000387667
-4.69123e-05
-0.000489273
-7.13555e-05
-0.000565603
-9.98148e-05
-0.000621336
-0.000131776
-0.000661998
-0.000166861
-0.000693023
-0.000204873
-0.000718875
-0.000245806
-0.000742426
-0.000289829
-0.000764642
-0.000337251
-0.00078457
-0.000388451
-0.000799515
-0.000443759
-0.000805327
-0.000795393
-0.000503442
-3.73052e-06
-9.52932e-05
-1.39671e-05
-0.000247591
-3.01711e-05
-0.000371463
-5.17066e-05
-0.000467737
-7.78852e-05
-0.000539424
-0.000108047
-0.000591174
-0.000141642
-0.000628403
-0.00017829
-0.000656375
-0.000217813
-0.000679352
-0.000260243
-0.000699995
-0.0003058
-0.000719085
-0.000354855
-0.000735515
-0.00040786
-0.00074651
-0.000465219
-0.000747968
-0.000733429
-0.000527184
-4.1871e-06
-9.11061e-05
-1.54551e-05
-0.000236323
-3.3023e-05
-0.000353895
-5.60651e-05
-0.000444695
-8.37581e-05
-0.000511731
-0.000115357
-0.000559575
-0.000150264
-0.000593496
-0.000188079
-0.00061856
-0.000228619
-0.000638812
-0.000271918
-0.000656697
-0.000318205
-0.000672798
-0.000367871
-0.000685849
-0.000421405
-0.000692975
-0.000479249
-0.000690124
-0.000671066
-0.000541612
-4.60768e-06
-8.64985e-05
-1.68145e-05
-0.000224116
-3.56066e-05
-0.000335103
-5.99753e-05
-0.000420326
-8.89658e-05
-0.00048274
-0.000121745
-0.000526796
-0.000157658
-0.000557583
-0.000196265
-0.000579953
-0.000237353
-0.000597724
-0.000280921
-0.000613128
-0.000327168
-0.000626552
-0.000376459
-0.000636558
-0.000429277
-0.000640158
-0.000486073
-0.000633328
-0.000610146
-0.000546993
-4.98988e-06
-8.15086e-05
-1.80394e-05
-0.000211067
-3.79135e-05
-0.000315229
-6.34301e-05
-0.00039481
-9.35069e-05
-0.000452664
-0.000127221
-0.000493082
-0.000163852
-0.000520952
-0.000202905
-0.0005409
-0.000244107
-0.000556522
-0.000287393
-0.000569843
-0.000332885
-0.00058106
-0.000380877
-0.000588567
-0.000431803
-0.000589231
-0.000486099
-0.000579032
-0.000552404
-0.00054384
-5.33179e-06
-7.61768e-05
-1.91249e-05
-0.000197274
-3.99377e-05
-0.000294416
-6.64254e-05
-0.000368322
-9.73842e-05
-0.000421705
-0.000131801
-0.000458665
-0.000168884
-0.000483869
-0.000208066
-0.000501717
-0.000248994
-0.000515593
-0.000291504
-0.000527333
-0.0003356
-0.000536964
-0.000381459
-0.000542708
-0.000429423
-0.000541267
-0.000479886
-0.000528569
-0.000499422
-0.000532869
-5.63173e-06
-7.05451e-05
-2.00668e-05
-0.000182839
-4.16739e-05
-0.000272809
-6.89579e-05
-0.000341038
-0.000100601
-0.000390062
-0.000135502
-0.000423764
-0.00017279
-0.000446581
-0.000211818
-0.000462689
-0.000252131
-0.00047528
-0.000293435
-0.000486029
-0.000335583
-0.000494817
-0.000378582
-0.000499708
-0.000422642
-0.000497208
-0.000468094
-0.000483117
-0.000452588
-0.000514928
-5.88816e-06
-6.46569e-05
-2.08613e-05
-0.000167865
-4.31169e-05
-0.000250553
-7.10236e-05
-0.000313131
-0.000103158
-0.000357927
-0.000138334
-0.000388589
-0.0001756
-0.000409315
-0.000214219
-0.00042407
-0.000253621
-0.000435878
-0.00029336
-0.00044629
-0.000333097
-0.00045508
-0.00037263
-0.000460175
-0.000411985
-0.000457853
-0.000451414
-0.000443688
-0.000413087
-0.000490915
-6.09946e-06
-5.85574e-05
-2.1504e-05
-0.000152461
-4.42601e-05
-0.000227797
-7.26153e-05
-0.000284776
-0.000105051
-0.000325492
-0.000140299
-0.000353341
-0.000177329
-0.000372285
-0.000215308
-0.000386091
-0.000253542
-0.000397644
-0.000291415
-0.000408417
-0.000328367
-0.000418128
-0.000363944
-0.000424599
-0.000397938
-0.000423858
-0.000430498
-0.000411128
-0.000381915
-0.00046167
-6.26386e-06
-5.22936e-05
-2.19898e-05
-0.000136735
-4.50949e-05
-0.000204692
-7.37214e-05
-0.00025615
-0.000106265
-0.000292948
-0.000141383
-0.000318223
-0.000177967
-0.000335701
-0.00021509
-0.000348968
-0.000251925
-0.000360809
-0.000287677
-0.000372665
-0.000321544
-0.00038426
-0.000352777
-0.000393366
-0.000380884
-0.000395751
-0.000405877
-0.000386135
-0.000359922
-0.000427871
-6.37938e-06
-4.59142e-05
-2.23129e-05
-0.000120802
-4.56103e-05
-0.000181395
-7.4325e-05
-0.000227435
-0.000106778
-0.000260495
-0.000141558
-0.000283444
-0.000177481
-0.000299777
-0.000213527
-0.000312922
-0.00024874
-0.000325595
-0.00028214
-0.000339266
-0.000312669
-0.000353731
-0.000339247
-0.000366788
-0.000361042
-0.000373956
-0.000377877
-0.0003693
-0.000347875
-0.000389923
-6.44384e-06
-3.94704e-05
-2.24664e-05
-0.000104779
-4.5793e-05
-0.000158068
-7.4404e-05
-0.000198824
-0.000106556
-0.000228343
-0.000140774
-0.000249225
-0.000175806
-0.000264745
-0.000210538
-0.00027819
-0.00024389
-0.000292244
-0.000274698
-0.000308457
-0.000301645
-0.000326784
-0.000323294
-0.000345139
-0.000338407
-0.000358843
-0.000346555
-0.000361152
-0.000346549
-0.000347882
-6.45498e-06
-3.30154e-05
-2.24429e-05
-8.87911e-05
-4.56276e-05
-0.000134883
-7.39317e-05
-0.00017052
-0.000105556
-0.000196718
-0.000138969
-0.000215813
-0.000172847
-0.000230867
-0.000205992
-0.000245046
-0.000237201
-0.000261035
-0.000265137
-0.000280521
-0.000288224
-0.000303697
-0.000304653
-0.000328711
-0.000312716
-0.00035078
-0.00031165
-0.000362217
-0.000356797
-0.000301402
-6.41058e-06
-2.66048e-05
-2.22351e-05
-7.29666e-05
-4.5098e-05
-0.00011202
-7.28785e-05
-0.000142739
-0.000103729
-0.000165868
-0.000136062
-0.000183481
-0.000168486
-0.000198442
-0.000199716
-0.000213816
-0.000228433
-0.000232318
-0.000253135
-0.00025582
-0.000271999
-0.000284832
-0.00028284
-0.000317869
-0.000283429
-0.000350191
-0.000272566
-0.000373079
-0.000379604
-0.00024976
-6.30879e-06
-2.0296e-05
-2.18362e-05
-5.74392e-05
-4.41888e-05
-8.9668e-05
-7.12141e-05
-0.000115714
-0.000101022
-0.00013606
-0.000131966
-0.000152536
-0.000162587
-0.000167821
-0.000191506
-0.000184896
-0.00021729
-0.000206534
-0.00023828
-0.00023483
-0.000252424
-0.000270688
-0.000257175
-0.000313118
-0.000249743
-0.000357623
-0.000228397
-0.000394426
-0.000416061
-0.00019194
-6.14835e-06
-1.41477e-05
-2.12413e-05
-4.23463e-05
-4.28867e-05
-6.80225e-05
-6.89112e-05
-8.96896e-05
-9.73825e-05
-0.000107589
-0.000126595
-0.000123323
-0.000155008
-0.000139408
-0.000181143
-0.000158761
-0.000203445
-0.000184232
-0.000220102
-0.000218173
-0.000228852
-0.000261939
-0.000226818
-0.000315151
-0.000210642
-0.000373799
-0.000177993
-0.000427076
-0.000467177
-0.000126876
-5.92894e-06
-8.21873e-06
-2.04477e-05
-2.78274e-05
-4.11833e-05
-4.7287e-05
-6.59483e-05
-6.49246e-05
-9.27681e-05
-8.07689e-05
-0.000119868
-9.62236e-05
-0.000145614
-0.000113663
-0.000168412
-0.000135963
-0.00018657
-0.000166074
-0.000198118
-0.000206625
-0.000200598
-0.000259459
-0.000190845
-0.000324905
-0.00016494
-0.000399704
-0.000119946
-0.00047207
-0.000532836
-5.42873e-05
-5.65145e-06
-2.56728e-06
-1.94567e-05
-1.40222e-05
-3.90762e-05
-2.76675e-05
-6.23136e-05
-4.16873e-05
-8.71476e-05
-5.59349e-05
-0.000111723
-7.16482e-05
-0.000134294
-9.10922e-05
-0.000153127
-0.000117129
-0.000166374
-0.000152828
-0.000171889
-0.000201109
-0.000167027
-0.000264322
-0.000148377
-0.000343555
-0.000111442
-0.000436639
-5.18629e-05
-0.000531649
-0.000612977
2.82782e-05
-5.31827e-06
2.751e-06
-1.82737e-05
-1.06674e-06
-3.65714e-05
-9.3697e-06
-5.8008e-05
-2.02507e-05
-8.05089e-05
-3.34339e-05
-0.000102123
-5.00337e-05
-0.000120972
-7.22439e-05
-0.000135156
-0.000102945
-0.000142636
-0.000145347
-0.000141075
-0.00020267
-0.000127638
-0.000277759
-9.87391e-05
-0.000372453
-4.95176e-05
-0.00048586
2.69067e-05
-0.000608073
-0.000713354
0.000127284
-4.93335e-06
7.68435e-06
-1.69089e-05
1.09088e-05
-3.36841e-05
7.40545e-06
-5.30472e-05
-8.87562e-07
-7.2862e-05
-1.36192e-05
-9.10654e-05
-3.18303e-05
-0.00010562
-5.76892e-05
-0.000114432
-9.41334e-05
-0.000115239
-0.00014454
-0.000105481
-0.000212428
-8.21333e-05
-0.000301106
-4.1493e-05
-0.000413094
2.10443e-05
-0.000548398
0.000112476
-0.000699505
-0.000836034
0.000235155
-4.50233e-06
1.21867e-05
-1.53777e-05
2.17842e-05
-3.0439e-05
2.24667e-05
-4.74631e-05
1.61366e-05
-6.42411e-05
3.15879e-06
-7.8581e-05
-1.74905e-05
-8.82638e-05
-4.80063e-05
-9.09691e-05
-9.14281e-05
-8.41806e-05
-0.000151329
-6.50853e-05
-0.000231523
-3.04608e-05
-0.000335731
2.35137e-05
-0.000467068
0.000101632
-0.000626516
0.00021031
-0.000808183
-0.00097917
0.000353447
-4.03232e-06
1.6219e-05
-1.37001e-05
3.1452e-05
-2.68705e-05
3.56371e-05
-4.1303e-05
3.05691e-05
-5.47051e-05
1.65609e-05
-6.47386e-05
-7.45693e-06
-6.89818e-05
-4.37632e-05
-6.4862e-05
-9.55479e-05
-4.95811e-05
-0.00016661
-2.00503e-05
-0.000261054
2.71558e-05
-0.000382937
9.58788e-05
-0.000535791
0.000190619
-0.000721257
0.000318309
-0.000935873
-0.00114183
0.000480971
-3.5317e-06
1.97507e-05
-1.19002e-05
3.98205e-05
-2.3021e-05
4.67579e-05
-3.4628e-05
4.21761e-05
-4.43338e-05
2.62666e-05
-4.96391e-05
-2.15164e-06
-4.7901e-05
-4.55013e-05
-3.62759e-05
-0.000107173
-1.16667e-05
-0.000191219
2.93019e-05
-0.000302023
9.02494e-05
-0.000443885
0.000174995
-0.000620537
0.000287461
-0.000833723
0.000434971
-0.00108338
-0.00132237
0.000615508
-3.00969e-06
2.27604e-05
-1.00049e-05
4.68157e-05
-1.89389e-05
5.56919e-05
-2.75099e-05
5.07471e-05
-3.3224e-05
3.19807e-05
-3.34083e-05
-1.96731e-06
-2.51853e-05
-5.37243e-05
-5.4307e-06
-0.000126928
2.92573e-05
-0.000225907
8.25287e-05
-0.000355294
0.000158168
-0.000519524
0.000259904
-0.000722273
0.000390891
-0.00096471
0.000558383
-0.00125087
-0.00151814
0.000754151
-2.47582e-06
2.52362e-05
-8.04233e-06
5.23822e-05
-1.46758e-05
6.23254e-05
-2.00262e-05
5.60975e-05
-2.14822e-05
3.34366e-05
-1.6187e-05
-7.26247e-06
-1.02227e-06
-6.8889e-05
2.74224e-05
-0.000155372
7.28363e-05
-0.000271321
0.000139117
-0.000421574
0.000230151
-0.000610558
0.000349476
-0.000841597
0.00049939
-0.00111462
0.000686174
-0.00143766
-0.00172571
0.000893751
-1.93934e-06
2.71756e-05
-6.04025e-06
5.64831e-05
-1.02827e-05
6.65678e-05
-1.22548e-05
5.80697e-05
-9.21673e-06
3.03985e-05
1.87886e-06
-1.83581e-05
2.43989e-05
-9.1409e-05
6.20205e-05
-0.000192994
0.0001187
-0.000328001
0.000198527
-0.000501401
0.000305402
-0.000717434
0.000442537
-0.000978732
0.000611415
-0.0012835
0.000815609
-0.00164185
-0.00194159
0.00103149
-1.40861e-06
2.85842e-05
-4.024e-06
5.90985e-05
-5.80707e-06
6.83509e-05
-4.2684e-06
5.6531e-05
3.47128e-06
2.26588e-05
2.06575e-05
-3.55443e-05
5.08925e-05
-0.000121644
9.81114e-05
-0.000240213
0.000166488
-0.000396377
0.000260217
-0.00059513
0.000383104
-0.000840321
0.000537916
-0.00113354
0.000725604
-0.00147119
0.000944258
-0.00186051
-0.00216317
0.00116583
-8.90424e-07
2.94746e-05
-2.01482e-06
6.02229e-05
-1.28875e-06
6.76248e-05
3.87142e-06
5.13708e-05
1.64953e-05
1.0035e-05
4.00271e-05
-5.90761e-05
7.82994e-05
-0.000159916
0.000135469
-0.000297382
0.000215857
-0.000476765
0.000323649
-0.000702922
0.000462382
-0.000979054
0.000634237
-0.0013054
0.00084008
-0.00167703
0.00107232
-0.00209274
-0.00239049
0.00129964
-3.89699e-07
2.98643e-05
-2.45255e-08
5.98577e-05
3.24276e-06
6.43575e-05
1.21185e-05
4.24951e-05
2.97897e-05
-7.63625e-06
5.98996e-05
-8.9186e-05
0.000106493
-0.00020651
0.0001739
-0.000364789
0.000266497
-0.000569363
0.000388291
-0.000824716
0.000542308
-0.00113307
0.000729761
-0.00149285
0.000950634
-0.00189791
0.00119747
-0.00233958
-0.00272542
0.0015324
9.0587e-08
2.97737e-05
1.92783e-06
5.80205e-05
7.77008e-06
5.85153e-05
2.04462e-05
2.9819e-05
4.33155e-05
-3.05056e-05
8.02167e-05
-0.000126087
0.00013538
-0.000261673
0.000213246
-0.000442654
0.000318119
-0.000674236
0.000453618
-0.000960215
0.000621946
-0.0013014
0.000822947
-0.00169385
0.0010549
-0.00212986
0.00130914
-0.00259382
-0.00302852
0.00161223
5.51104e-07
2.92226e-05
3.85275e-06
5.47189e-05
1.22913e-05
5.00767e-05
2.88486e-05
1.32616e-05
5.70611e-05
-5.87181e-05
0.000100953
-0.000169979
0.000164903
-0.000325623
0.000253374
-0.000531126
0.000370446
-0.000791307
0.000519103
-0.00110887
0.000700392
-0.00148269
0.000912455
-0.00190591
0.00115106
-0.00236847
0.0014066
-0.00284936
-0.00330961
0.00168769
9.94355e-07
2.82282e-05
5.75251e-06
4.99607e-05
1.68174e-05
3.90119e-05
3.73406e-05
-7.26159e-06
7.1041e-05
-9.24184e-05
0.000122113
-0.000221051
0.000195028
-0.000398538
0.000294164
-0.000630262
0.000423186
-0.000920329
0.00058418
-0.00126987
0.000776719
-0.00167523
0.000997031
-0.00212623
0.00123837
-0.00260981
0.00149037
-0.00310136
-0.00357196
0.00175272
1.42522e-06
2.6803e-05
7.64108e-06
4.37448e-05
2.13721e-05
2.52809e-05
4.59548e-05
-3.18443e-05
8.52906e-05
-0.000131754
0.000143716
-0.000279477
0.000225728
-0.00048055
0.000335479
-0.000740013
0.000476002
-0.00106085
0.000648208
-0.00144207
0.000849943
-0.00187696
0.00107544
-0.00235173
0.00131581
-0.00285017
0.00156016
-0.00334572
-0.00381603
0.00180423
1.85062e-06
2.49524e-05
9.53805e-06
3.60574e-05
2.59895e-05
8.82947e-06
5.47375e-05
-6.05924e-05
9.9859e-05
-0.000176876
0.000165793
-0.000345411
0.000256966
-0.000571723
0.000377141
-0.000860187
0.000528481
-0.00121219
0.000710461
-0.00162405
0.000919025
-0.00208553
0.0011465
-0.00257921
0.00138242
-0.00308609
0.00161589
-0.00357918
-0.00404154
0.00184139
2.27888e-06
2.26735e-05
1.1467e-05
2.68693e-05
3.07101e-05
-1.04136e-05
6.3742e-05
-9.36243e-05
0.000114798
-0.000227932
0.000188364
-0.000418977
0.000288676
-0.000672035
0.000418915
-0.000990427
0.000580126
-0.0013734
0.000770125
-0.00181405
0.000982913
-0.00229831
0.00120916
-0.00280546
0.00143752
-0.00331444
0.00165764
-0.0037993
-0.00424822
0.00186433
2.71903e-06
1.99545e-05
1.34536e-05
1.61347e-05
3.55769e-05
-3.2537e-05
7.30218e-05
-0.000131069
0.000130153
-0.000285063
0.000211423
-0.000500247
0.000320739
-0.00078135
0.000460484
-0.00113017
0.000630346
-0.00154327
0.000826335
-0.00201004
0.0010406
-0.00251258
0.00126257
-0.00302743
0.00148071
-0.00353258
0.00168582
-0.00400441
-0.00443618
0.00187377
3.18017e-06
1.67743e-05
1.55229e-05
3.79197e-06
4.06308e-05
-5.76449e-05
8.26228e-05
-0.000173061
0.000145948
-0.000348388
0.00023493
-0.000589229
0.000352975
-0.000899395
0.000501448
-0.00127864
0.000678476
-0.00172029
0.000878211
-0.00220977
0.0010912
-0.00272556
0.00130613
-0.00324236
0.00151198
-0.00373843
0.00170111
-0.00419354
-0.00460593
0.00187086
3.67073e-06
1.31036e-05
1.76979e-05
-1.02352e-05
4.59062e-05
-8.58532e-05
9.25766e-05
-0.000219732
0.000162181
-0.000417992
0.000258792
-0.000685841
0.000385132
-0.00102574
0.000541331
-0.00143484
0.000723805
-0.00190277
0.000924922
-0.00241089
0.00113399
-0.00293463
0.00133954
-0.00344791
0.00153163
-0.00393052
0.00170445
-0.00436637
-0.00475839
0.00185692
4.19791e-06
8.90567e-06
1.99971e-05
-2.60344e-05
5.14275e-05
-0.000117284
0.000102895
-0.000271199
0.000178813
-0.00049391
0.000282866
-0.000789894
0.000416892
-0.00115976
0.000579593
-0.00159754
0.000765616
-0.00208879
0.000965735
-0.00261101
0.00116848
-0.00313738
0.00136281
-0.00364224
0.00154025
-0.00410796
0.00169698
-0.00452309
-0.00489479
0.00183338
4.76728e-06
4.1384e-06
2.24331e-05
-4.37003e-05
5.72061e-05
-0.000152057
0.000113565
-0.000327558
0.000195768
-0.000576113
0.000306951
-0.000901077
0.000447874
-0.00130069
0.000615665
-0.00176533
0.000803231
-0.00227636
0.00100007
-0.00280784
0.00119444
-0.00333176
0.00137621
-0.00382401
0.00153867
-0.00427042
0.00167991
-0.00466433
-0.0050165
0.00180162
5.38241e-06
-1.24402e-06
2.50121e-05
-6.33299e-05
6.32389e-05
-0.000190283
0.000124549
-0.000388868
0.000212928
-0.000664492
0.000330795
-0.00101894
0.000477655
-0.00144755
0.000648971
-0.00193665
0.000836055
-0.00246344
0.00102751
-0.0029993
0.00121185
-0.0035161
0.00138024
-0.00399239
0.00152783
-0.00441802
0.00165448
-0.00479098
-0.00512499
0.00176296
6.04489e-06
-7.28891e-06
2.7733e-05
-8.50181e-05
6.95077e-05
-0.000232058
0.000135781
-0.000455141
0.000230137
-0.000758848
0.000354107
-0.00114291
0.000505787
-0.00159923
0.000678971
-0.00210984
0.000863606
-0.00264808
0.00104785
-0.00318354
0.00122093
-0.00368918
0.00137555
-0.00414702
0.00150876
-0.00455123
0.00162192
-0.00490413
-0.00522166
0.00171859
6.75424e-06
-1.40431e-05
3.05879e-05
-0.000108852
7.59794e-05
-0.00027745
0.000147173
-0.000526335
0.00024721
-0.000858885
0.000376567
-0.00127227
0.000531826
-0.00175448
0.000705185
-0.00228319
0.000885544
-0.00282844
0.00106107
-0.00335906
0.00122207
-0.00385018
0.00136295
-0.0042879
0.00148251
-0.00467078
0.00158333
-0.00500496
-0.00530789
0.00166956
7.50815e-06
-2.15513e-05
3.35621e-05
-0.000134906
8.26075e-05
-0.000326495
0.000158615
-0.000602343
0.000263935
-0.000964205
0.000397841
-0.00140618
0.000555351
-0.00191199
0.000727222
-0.00245507
0.000901676
-0.00300289
0.00106731
-0.00352469
0.00121579
-0.00399866
0.00134327
-0.00441538
0.00145007
-0.00477759
0.00153976
-0.00509465
-0.00538489
0.00161676
8.30267e-06
-2.9854e-05
3.66353e-05
-0.000163238
8.93338e-05
-0.000379194
0.00016998
-0.000682989
0.000280086
-0.00107431
0.0004176
-0.00154369
0.000575986
-0.00207038
0.000744792
-0.00262387
0.000911954
-0.00317005
0.00106687
-0.00367961
0.00120273
-0.00413453
0.00131736
-0.00453001
0.0014124
-0.00487263
0.00149209
-0.00517433
-0.00545374
0.00156095
9.13245e-06
-3.89864e-05
3.97823e-05
-0.000193888
9.60904e-05
-0.000435502
0.000181127
-0.000768026
0.000295427
-0.00118861
0.000435529
-0.00168379
0.000593418
-0.00222827
0.000757719
-0.00278817
0.000916466
-0.0033288
0.00106015
-0.00382329
0.00118357
-0.00425795
0.00128607
-0.00463251
0.00137037
-0.00495693
0.00144112
-0.00524508
-0.00551538
0.00150275
9.991e-06
-4.89774e-05
4.29737e-05
-0.000226871
0.000102802
-0.00049533
0.000191911
-0.000857135
0.00030973
-0.00130643
0.000451346
-0.00182541
0.000607407
-0.00238433
0.000765933
-0.0029467
0.000915413
-0.00347828
0.00104763
-0.00395551
0.00115899
-0.00436931
0.00125019
-0.00472371
0.00132474
-0.00503148
0.00138749
-0.00530783
-0.00557056
0.00144268
1.08709e-05
-5.98483e-05
4.61772e-05
-0.000262177
0.000109389
-0.000558542
0.000202181
-0.000949927
0.000322775
-0.00142702
0.000464809
-0.00196744
0.000617791
-0.00253731
0.00076947
-0.00309838
0.000909088
-0.0036179
0.00102986
-0.00407628
0.0011297
-0.00446915
0.00121044
-0.00480445
0.00127617
-0.00509721
0.00133177
-0.00536343
-0.00561994
0.00138115
1.1764e-05
-7.16124e-05
4.93581e-05
-0.000299771
0.000115768
-0.000624952
0.000211792
-0.00104595
0.000334362
-0.00154959
0.000475728
-0.00210881
0.000624491
-0.00268608
0.000768453
-0.00324234
0.000897854
-0.0037473
0.00100738
-0.0041858
0.00109633
-0.0045581
0.00116747
-0.00487559
0.00122525
-0.00515499
0.0012744
-0.00541258
-0.00566403
0.00131849
1.26616e-05
-8.4274e-05
5.24802e-05
-0.00033959
0.000121856
-0.000694328
0.000220602
-0.0011447
0.000344317
-0.00167331
0.000483963
-0.00224845
0.0006275
-0.00282961
0.000763082
-0.00337792
0.000882118
-0.00386633
0.000980751
-0.00428443
0.00105951
-0.00463687
0.00112188
-0.00493795
0.00117246
-0.00520557
0.00121577
-0.00545588
-0.00570323
0.00125497
1.35546e-05
-9.78286e-05
5.55066e-05
-0.000381542
0.000127571
-0.000766392
0.000228483
-0.00124561
0.000352496
-0.00179732
0.000489432
-0.00238539
0.000626882
-0.00296706
0.000753614
-0.00350465
0.000862314
-0.00397504
0.000950515
-0.00437263
0.0010198
-0.00470615
0.00107416
-0.00499231
0.00111822
-0.00524963
0.00115617
-0.00549384
-0.00573785
0.0011908
1.44334e-05
-0.000112262
5.84005e-05
-0.000425509
0.000132836
-0.000840828
0.000235321
-0.00134809
0.000358789
-0.00192079
0.000492103
-0.0025187
0.00062276
-0.00309772
0.000740348
-0.00362224
0.000838883
-0.00407357
0.000917183
-0.00445093
0.000977699
-0.00476667
0.00102474
-0.00503935
0.00106285
-0.00528774
0.00109586
-0.00552685
-0.00576814
0.00112615
1.52885e-05
-0.000127551
6.11257e-05
-0.000471346
0.000137577
-0.000917279
0.000241016
-0.00145153
0.000363121
-0.00204289
0.000491998
-0.00264758
0.000615303
-0.00322103
0.00072361
-0.00373055
0.000812261
-0.00416222
0.000881227
-0.0045199
0.000933647
-0.00481909
0.000974009
-0.00507971
0.00100665
-0.00532039
0.00103503
-0.00555523
-0.00579428
0.00106117
1.61102e-05
-0.000143661
6.36473e-05
-0.000518883
0.000141727
-0.000995359
0.000245491
-0.0015553
0.000365452
-0.00216285
0.00048918
-0.00277131
0.00060472
-0.00333657
0.000703741
-0.00382957
0.000782869
-0.00424135
0.000843082
-0.00458011
0.000888036
-0.00486404
0.000922263
-0.00511394
0.000949846
-0.00534797
0.000973852
-0.00557923
-0.00581638
0.000995956
1.68889e-05
-0.00016055
6.59326e-05
-0.000567927
0.000145231
-0.00107466
0.000248687
-0.00165875
0.000365775
-0.00227994
0.000483751
-0.00288928
0.000591244
-0.00344406
0.000681083
-0.00391941
0.000751101
-0.00431137
0.000803135
-0.00463214
0.000841201
-0.00490211
0.00086977
-0.00514251
0.000892621
-0.00537082
0.000912446
-0.00559906
-0.00583455
0.000930616
1.76155e-05
-0.000178165
6.79514e-05
-0.000618263
0.000148039
-0.00115474
0.000250567
-0.00176128
0.000364115
-0.00239349
0.000475844
-0.00300101
0.000575126
-0.00354334
0.000655973
-0.00400026
0.000717328
-0.00437272
0.000761733
-0.00467655
0.000793431
-0.00493381
0.000816748
-0.00516583
0.000835134
-0.00538921
0.000850926
-0.00561485
-0.00584885
0.000865228
1.82809e-05
-0.000196446
6.96769e-05
-0.000669659
0.000150112
-0.00123518
0.000251112
-0.00186228
0.000360525
-0.0025029
0.000465616
-0.0031061
0.000556625
-0.00363435
0.000628734
-0.00407236
0.000681885
-0.00442587
0.000719181
-0.00471385
0.000744973
-0.0049596
0.000763378
-0.00518423
0.000777514
-0.00540335
0.000789384
-0.00562672
-0.00585933
0.000799861
1.88771e-05
-0.000215323
7.10858e-05
-0.000721867
0.000151425
-0.00131552
0.000250325
-0.00196118
0.00035508
-0.00260766
0.00045324
-0.00320427
0.000536
-0.00371711
0.000599673
-0.00413604
0.000645077
-0.00447128
0.000675745
-0.00474451
0.000696036
-0.00497989
0.000709814
-0.00519801
0.000719866
-0.0054134
0.000727896
-0.00563475
-0.00586601
0.00073458
1.93963e-05
-0.000234719
7.21589e-05
-0.00077463
0.000151959
-0.00139532
0.000248227
-0.00205745
0.000347874
-0.00270731
0.000438901
-0.00329529
0.000513506
-0.00379171
0.000569074
-0.00419161
0.000607178
-0.00450938
0.000631656
-0.00476899
0.000646795
-0.00499503
0.000656181
-0.0052074
0.00066228
-0.0054195
0.00066653
-0.005639
-0.00586892
0.000669439
1.98337e-05
-0.000254553
7.28848e-05
-0.000827681
0.000151714
-0.00147415
0.00024486
-0.0021506
0.000339026
-0.00280147
0.000422796
-0.00337906
0.000489398
-0.00385831
0.00053721
-0.00423942
0.00056844
-0.00454061
0.000587122
-0.00478767
0.000597409
-0.00500532
0.000602593
-0.00521258
0.000604841
-0.00542174
0.000605352
-0.00563951
-0.00586807
0.000604501
2.01802e-05
-0.000274733
7.32463e-05
-0.000880747
0.000150682
-0.00155158
0.00024026
-0.00224018
0.000328641
-0.00288985
0.000405099
-0.00345552
0.000463891
-0.00391711
0.000504301
-0.00427983
0.000529056
-0.00456537
0.000542294
-0.00480091
0.000547984
-0.00501101
0.000549122
-0.00521372
0.000547594
-0.00542022
0.000544396
-0.00563631
-0.00586347
0.000539794
2.04327e-05
-0.000295166
7.32404e-05
-0.000933555
0.000148882
-0.00162723
0.000234496
-0.00232579
0.000316854
-0.00297221
0.000386006
-0.00352467
0.000437213
-0.00396831
0.000470573
-0.00431319
0.000489223
-0.00458402
0.000497328
-0.00480902
0.000498637
-0.00501232
0.000495851
-0.00521093
0.000490605
-0.00541497
0.000483718
-0.00562943
-0.00585512
0.000475372
2.05873e-05
-0.000315753
7.28654e-05
-0.000985833
0.000146335
-0.0017007
0.000227638
-0.00240709
0.000303798
-0.00304837
0.000365698
-0.00358657
0.000409567
-0.00401218
0.000436218
-0.00433984
0.000449105
-0.0045969
0.000452348
-0.00481226
0.000449456
-0.00500942
0.000442845
-0.00520432
0.000433922
-0.00540605
0.00042336
-0.00561887
-0.00584304
0.000411278
2.06415e-05
-0.000336395
7.21234e-05
-0.00103731
0.000143069
-0.00177164
0.000219763
-0.00248379
0.000289605
-0.00311821
0.000344349
-0.00364132
0.000381138
-0.00404897
0.00040141
-0.00436011
0.000408843
-0.00460434
0.000407461
-0.00481088
0.000400517
-0.00500248
0.000390159
-0.00519396
0.000377591
-0.00539348
0.000363362
-0.00560464
-0.00582723
0.00034755
2.05936e-05
-0.000356989
7.10204e-05
-0.00108774
0.000139119
-0.00183974
0.000210953
-0.00255562
0.000274406
-0.00318167
0.000322121
-0.00368903
0.000352095
-0.00407894
0.000366301
-0.00437432
0.000368558
-0.00460659
0.000362756
-0.00480508
0.000351886
-0.00499161
0.000337843
-0.00517992
0.000321651
-0.00537729
0.000303761
-0.00558675
-0.00580769
0.000284221
2.04432e-05
-0.000377432
6.95661e-05
-0.00113686
0.000134523
-0.0019047
0.000201292
-0.00262239
0.00025833
-0.0032387
0.000299168
-0.00372987
0.000322593
-0.00410237
0.000331024
-0.00438275
0.000328357
-0.00460393
0.000318313
-0.00479503
0.00030362
-0.00497692
0.000285939
-0.00516224
0.000266137
-0.00535749
0.00024459
-0.0055652
-0.00578442
0.000221322
2.01907e-05
-0.000397622
6.77728e-05
-0.00118445
0.000129325
-0.00196625
0.000190867
-0.00268393
0.000241499
-0.00328933
0.00027563
-0.003764
0.000292769
-0.00411951
0.000295696
-0.00438567
0.000288331
-0.00459656
0.000274197
-0.0047809
0.000255768
-0.00495849
0.000234485
-0.00514096
0.000211078
-0.00533408
0.000185873
-0.00553999
-0.00575743
0.000158879
1.98375e-05
-0.00041746
6.56559e-05
-0.00123026
0.00012357
-0.00202416
0.000179761
-0.00274012
0.000224029
-0.0033336
0.000251638
-0.00379161
0.000262746
-0.00413062
0.000260422
-0.00438335
0.000248557
-0.0045847
0.000230466
-0.00476281
0.000208375
-0.0049364
0.000183525
-0.00511611
0.00015652
-0.00530707
0.000127634
-0.00551111
-0.00572665
9.68596e-05
1.93859e-05
-0.000436846
6.32325e-05
-0.00127411
0.000117308
-0.00207824
0.00016806
-0.00279088
0.000206031
-0.00337157
0.00022731
-0.00381289
0.000232631
-0.00413594
0.000225289
-0.00437601
0.000209104
-0.00456851
0.000187171
-0.00474087
0.000161481
-0.00491071
0.000133099
-0.00508773
0.000102533
-0.00527651
6.9933e-05
-0.00547851
-0.0056917
3.49818e-05
1.88389e-05
-0.000455685
6.05218e-05
-0.00131579
0.000110585
-0.0021283
0.000155843
-0.00283613
0.000187608
-0.00340334
0.000202753
-0.00382803
0.000202523
-0.00413571
0.000190376
-0.00436386
0.000170028
-0.00454816
0.000144353
-0.0047152
0.000115117
-0.00488147
8.32293e-05
-0.00505584
4.91658e-05
-0.00524244
1.31136e-05
-0.00544246
-0.00565261
-2.59811e-05
1.82002e-05
-0.000473885