/*--------------------------------*- C++ -*----------------------------------*\
  =========                 |
  \\      /  F ield         | OpenFOAM: The Open Source CFD Toolbox
   \\    /   O peration     | Website:  https://openfoam.org
    \\  /    A nd           | Version:  7
     \\/     M anipulation  |
\*---------------------------------------------------------------------------*/
FoamFile
{
    version     2.0;
    format      ascii;
    class       volVectorField;
    location    "100";
    object      U;
}
// * * * * * * * * * * * * * * * * * * * * * * * * * * * * * * * * * * * * * //

dimensions      [0 1 -1 0 0 0 0];

internalField   nonuniform List<vector> 
20050
(
(0.00029515 -0.0469236 5.40068e-21)
(-0.000957493 -0.117541 -9.60057e-22)
(-0.00546348 -0.169896 -1.23487e-20)
(-0.0125694 -0.206128 -1.85197e-20)
(-0.0219103 -0.229018 -1.66892e-21)
(-0.0329548 -0.241692 1.13616e-20)
(-0.0451234 -0.247225 -1.27447e-20)
(-0.0578935 -0.24829 3.32798e-21)
(-0.0708434 -0.24691 -9.07649e-21)
(-0.0836703 -0.244357 1.67128e-20)
(-0.0961805 -0.241176 1.43978e-20)
(-0.108267 -0.237311 -1.76331e-20)
(-0.119892 -0.232262 -9.07055e-21)
(-0.130988 -0.225224 9.68294e-21)
(-0.141498 -0.215077 -1.0384e-20)
(0.00130773 -0.0460821 8.79017e-21)
(0.00113046 -0.115084 -5.87694e-21)
(-0.00326698 -0.165962 -2.61038e-21)
(-0.0108211 -0.200935 1.85363e-20)
(-0.0209708 -0.222855 2.27425e-20)
(-0.0330325 -0.234871 -5.59849e-20)
(-0.0463218 -0.240034 3.41651e-20)
(-0.0602619 -0.240966 3.59556e-20)
(-0.0744178 -0.239631 4.71352e-20)
(-0.088506 -0.237236 -4.51061e-20)
(-0.102375 -0.234279 3.01481e-20)
(-0.115973 -0.230672 2.89264e-20)
(-0.12933 -0.225898 1.68023e-20)
(-0.142409 -0.219155 -5.37467e-20)
(-0.155197 -0.209294 4.47382e-20)
(0.00226645 -0.0449794 -3.57928e-20)
(0.003089 -0.112058 -4.50007e-20)
(-0.00122763 -0.161312 3.43064e-20)
(-0.00921496 -0.194989 4.30999e-20)
(-0.0201175 -0.215967 -2.76882e-20)
(-0.033102 -0.227382 -5.14722e-20)
(-0.047383 -0.232238 3.26377e-20)
(-0.0623304 -0.23309 -9.47569e-20)
(-0.0774951 -0.231826 -4.582e-20)
(-0.0926094 -0.22959 -3.69815e-20)
(-0.107559 -0.226831 -5.30946e-20)
(-0.122345 -0.22343 9.52658e-21)
(-0.13706 -0.218862 3.82256e-20)
(-0.15169 -0.212334 1.79085e-19)
(-0.166246 -0.20269 -6.9846e-20)
(0.00315509 -0.0436277 4.90271e-21)
(0.00488672 -0.108496 8.98152e-20)
(0.000621058 -0.155997 3.51989e-20)
(-0.0077808 -0.18835 -6.25255e-20)
(-0.0193739 -0.208422 1.48798e-20)
(-0.0331812 -0.219301 5.84354e-20)
(-0.0483195 -0.223918 5.35537e-20)
(-0.0641068 -0.224744 3.59961e-20)
(-0.0800779 -0.223586 -6.73324e-20)
(-0.0959765 -0.22152 1.89078e-19)
(-0.111719 -0.218942 -8.11558e-20)
(-0.127353 -0.215707 1.1403e-19)
(-0.143029 -0.211285 -3.9735e-20)
(-0.158749 -0.2049 -1.49002e-19)
(-0.174522 -0.195403 5.69734e-20)
(0.00395853 -0.042042 1.25688e-19)
(0.00649447 -0.104436 -4.90853e-20)
(0.00224772 -0.150069 -3.66134e-21)
(-0.00654701 -0.181084 3.48322e-20)
(-0.0187639 -0.200293 2.22157e-20)
(-0.0332897 -0.210704 2.96413e-20)
(-0.049148 -0.215154 -1.164e-19)
(-0.065606 -0.216016 -9.99307e-21)
(-0.0821796 -0.215007 7.56358e-21)
(-0.0986183 -0.21313 -1.84498e-19)
(-0.114862 -0.21073 1.65084e-19)
(-0.130994 -0.207634 -1.1496e-19)
(-0.147223 -0.203311 -5.29782e-20)
(-0.163552 -0.197005 -2.88002e-20)
(-0.17997 -0.187592 -7.00532e-20)
(0.00466299 -0.0402399 -7.45315e-20)
(0.00788582 -0.0999192 -3.06948e-20)
(0.00362374 -0.143588 -9.63556e-20)
(-0.00553998 -0.173258 -1.72275e-20)
(-0.0183106 -0.19165 -6.7362e-20)
(-0.0334478 -0.201666 -5.50429e-20)
(-0.0498879 -0.206025 -6.8088e-20)
(-0.0668484 -0.20699 4.1159e-20)
(-0.083823 -0.206181 4.87015e-20)
(-0.10056 -0.204526 1.83449e-20)
(-0.117014 -0.202318 3.2322e-20)
(-0.133297 -0.199352 5.57704e-20)
(-0.149665 -0.195097 -9.39548e-20)
(-0.166119 -0.188818 -5.99774e-20)
(-0.1826 -0.179433 2.04003e-19)
(0.00525628 -0.0382407 -4.54436e-20)
(0.00903749 -0.0949916 -4.63863e-20)
(0.00472385 -0.136613 2.09146e-19)
(-0.00478335 -0.16494 1.10264e-19)
(-0.0180353 -0.182567 3.21321e-21)
(-0.0336755 -0.192261 3.7357e-20)
(-0.0505602 -0.196607 1.00216e-19)
(-0.0678578 -0.197748 -6.54212e-20)
(-0.0850372 -0.197201 4.75356e-20)
(-0.101839 -0.195815 6.12574e-20)
(-0.11822 -0.193828 -1.94424e-19)
(-0.134313 -0.191002 -3.57579e-20)
(-0.150414 -0.186804 -1.6219e-19)
(-0.166515 -0.180518 1.03797e-19)
(-0.182489 -0.171112 -1.24497e-19)
(0.0057279 -0.0360654 5.86911e-20)
(0.00992974 -0.0897009 -4.5353e-20)
(0.00552673 -0.129208 -1.60233e-19)
(-0.00429703 -0.1562 -1.77659e-19)
(-0.017956 -0.173116 -2.13346e-19)
(-0.0339908 -0.182562 5.50341e-20)
(-0.0511845 -0.186975 7.06165e-20)
(-0.0686592 -0.188368 1.43979e-19)
(-0.085855 -0.188152 -6.94935e-20)
(-0.102497 -0.187096 -6.08009e-20)
(-0.118538 -0.185379 1.15391e-19)
(-0.134114 -0.182728 -1.16669e-19)
(-0.149557 -0.178598 1.16323e-19)
(-0.16485 -0.172286 -1.73723e-19)
(-0.17977 -0.162821 1.11695e-19)
(0.00606925 -0.0337362 -9.76535e-21)
(0.0105467 -0.0840967 4.69375e-20)
(0.00601561 -0.121435 2.3591e-19)
(-0.00409638 -0.147107 2.25066e-19)
(-0.0180868 -0.163365 9.37392e-20)
(-0.0344077 -0.172636 -2.8827e-20)
(-0.0517776 -0.177197 -1.16167e-19)
(-0.0692748 -0.178921 5.23945e-20)
(-0.0863083 -0.179114 2.62732e-20)
(-0.102581 -0.178462 -7.60349e-20)
(-0.11803 -0.177085 -2.3789e-19)
(-0.132786 -0.174665 -7.20072e-20)
(-0.147204 -0.170639 1.99961e-19)
(-0.161262 -0.164305 3.24874e-20)
(-0.17462 -0.154752 -2.28638e-19)
(0.00627371 -0.0312763 -8.84393e-20)
(0.0108768 -0.0782299 -2.43066e-19)
(0.00617892 -0.113358 -2.70623e-19)
(-0.00419118 -0.13773 -1.66221e-19)
(-0.0184359 -0.153382 1.17211e-19)
(-0.0349342 -0.162549 1.98151e-20)
(-0.0523499 -0.167334 4.38377e-20)
(-0.0697208 -0.169471 -4.20668e-20)
(-0.0864232 -0.170156 3.9285e-19)
(-0.102131 -0.169994 1.29779e-19)
(-0.116757 -0.169042 2.16416e-19)
(-0.130413 -0.166935 2.95491e-19)
(-0.143471 -0.163076 -2.09757e-19)
(-0.155906 -0.156748 3.26312e-19)
(-0.16724 -0.147085 4.68619e-20)
(0.00633681 -0.0287096 8.84957e-20)
(0.0109129 -0.0721523 1.39964e-19)
(0.00601089 -0.105043 1.1858e-19)
(-0.00458469 -0.128134 -1.3829e-19)
(-0.0190042 -0.143231 1.12487e-19)
(-0.0355704 -0.152359 1.86505e-20)
(-0.052903 -0.157442 -3.21517e-19)
(-0.0700034 -0.160071 2.85569e-19)
(-0.0862148 -0.161334 -2.33547e-19)
(-0.101177 -0.161757 -6.63872e-20)
(-0.114769 -0.161334 -2.83876e-21)
(-0.127073 -0.159643 1.70587e-19)
(-0.138466 -0.15604 2.18867e-19)
(-0.148932 -0.14977 -1.89296e-19)
(-0.157827 -0.139987 4.25486e-20)
(0.00625629 -0.0260607 -1.57207e-19)
(0.0106529 -0.0659165 4.77883e-20)
(0.0055121 -0.0965529 -1.07407e-19)
(-0.0052728 -0.118386 -8.28458e-21)
(-0.0197843 -0.132974 1.32973e-19)
(-0.0363067 -0.142121 -1.65757e-19)
(-0.0534265 -0.147569 2.21986e-19)
(-0.0701145 -0.150764 -2.70231e-19)
(-0.0856808 -0.15269 -3.41889e-19)
(-0.099728 -0.153796 9.98341e-20)
(-0.112092 -0.154017 2.03566e-19)
(-0.122815 -0.152867 -2.4459e-19)
(-0.132271 -0.149637 1.98756e-19)
(-0.14046 -0.143503 -3.42155e-19)
(-0.146543 -0.133593 2.38447e-19)
(0.00603224 -0.0233544 4.13964e-19)
(0.0100997 -0.0595753 -2.69957e-19)
(0.00468994 -0.0879516 1.26046e-19)
(-0.00624323 -0.10855 1.84119e-19)
(-0.0207593 -0.122669 -2.15633e-19)
(-0.0371217 -0.131885 3.1684e-19)
(-0.0538958 -0.137754 -4.42897e-20)
(-0.0700279 -0.141582 -3.94979e-19)
(-0.0847964 -0.144249 1.15575e-19)
(-0.0977643 -0.146136 5.60036e-20)
(-0.108719 -0.147121 -2.81522e-19)
(-0.117652 -0.146653 2.30824e-19)
(-0.124922 -0.143937 -7.34944e-19)
(-0.13056 -0.138043 5.88464e-19)
(-0.133485 -0.128006 -2.01972e-19)
(0.00566719 -0.0206161 -2.92869e-19)
(0.00926153 -0.0531819 4.69055e-20)
(0.00355905 -0.0793027 -2.38865e-19)
(-0.00747493 -0.0986883 -2.06887e-19)
(-0.0219014 -0.112371 -2.18667e-19)
(-0.037981 -0.121696 -3.53019e-19)
(-0.0542696 -0.128032 4.37741e-19)
(-0.0696957 -0.132545 5.30003e-19)
(-0.083509 -0.136022 3.78992e-20)
(-0.0952316 -0.13878 -2.57246e-19)
(-0.104599 -0.140649 1.85671e-20)
(-0.11154 -0.14101 2.10645e-19)
(-0.116387 -0.138966 -8.70758e-20)
(-0.119225 -0.133444 -2.73616e-20)
(-0.118643 -0.123281 2.97921e-19)
(0.00516623 -0.0178715 1.80469e-19)
(0.00815236 -0.0467897 2.32735e-19)
(0.00214151 -0.0706693 7.23942e-20)
(-0.0089378 -0.0888638 2.77843e-19)
(-0.023172 -0.102135 1.19715e-19)
(-0.0388363 -0.111596 2.31834e-19)
(-0.0544886 -0.118429 -2.82197e-20)
(-0.0690465 -0.123665 -2.35399e-19)
(-0.0817343 -0.128004 1.11451e-19)
(-0.0920336 -0.131708 3.91861e-19)
(-0.0996258 -0.134567 1.36959e-19)
(-0.104368 -0.135903 -1.70315e-19)
(-0.106555 -0.134703 3.13404e-19)
(-0.106349 -0.129706 -2.01491e-19)
(-0.101879 -0.119424 2.14575e-20)
(0.00453706 -0.0151465 -3.15792e-20)
(0.00679161 -0.0404522 -8.9431e-20)
(0.000466867 -0.0621143 2.20996e-19)
(-0.0105926 -0.0791375 1.34539e-19)
(-0.0245212 -0.0920135 2.7335e-19)
(-0.039625 -0.101624 -1.4938e-19)
(-0.0544748 -0.108969 -3.29936e-19)
(-0.0679836 -0.114948 -1.50645e-19)
(-0.0793539 -0.120178 -2.09955e-19)
(-0.0880284 -0.124879 -4.68531e-19)
(-0.0936332 -0.128813 -2.55813e-19)
(-0.0959473 -0.131254 -6.90407e-20)
(-0.0952134 -0.131069 -2.96286e-19)
(-0.0917122 -0.126773 -2.60412e-21)
(-0.082903 -0.116382 1.46185e-19)
(0.00378997 -0.012467 -1.28626e-19)
(0.00520433 -0.0342229 -7.94833e-20)
(-0.00142803 -0.0537008 1.08186e-20)
(-0.0123913 -0.0695708 -5.72832e-19)
(-0.0258885 -0.0820591 -5.4046e-19)
(-0.040271 -0.0918204 -2.10898e-19)
(-0.0541322 -0.0996742 4.03932e-19)
(-0.066386 -0.106394 -1.92836e-19)
(-0.0762162 -0.11252 1.85459e-19)
(-0.0830283 -0.118238 2.48287e-19)
(-0.0863943 -0.123299 8.78451e-20)
(-0.0860095 -0.126945 -1.56779e-19)
(-0.0820501 -0.127927 1.73923e-19)
(-0.0749802 -0.124525 1.37827e-19)
(-0.0612703 -0.114042 -1.90449e-19)
(0.00293789 -0.00985882 -3.28639e-20)
(0.00342088 -0.0281548 1.05527e-19)
(-0.00349946 -0.0454913 -3.08564e-19)
(-0.0142776 -0.060225 7.12551e-19)
(-0.0272035 -0.0723252 5.07668e-19)
(-0.0406859 -0.0822245 8.41587e-20)
(-0.0533486 -0.0905674 -2.52811e-19)
(-0.0641106 -0.098004 1.01156e-19)
(-0.0721391 -0.105002 1.27959e-19)
(-0.0768037 -0.111721 -3.10639e-19)
(-0.0776247 -0.117917 3.65565e-19)
(-0.0742113 -0.122821 1.40336e-19)
(-0.0666564 -0.125088 -2.24785e-19)
(-0.0557112 -0.122778 1.50889e-19)
(-0.0364028 -0.112222 5.61675e-20)
(0.00199616 -0.00734718 5.26183e-20)
(0.00147664 -0.0223002 2.68481e-19)
(-0.00569754 -0.0375482 -1.28418e-20)
(-0.0161885 -0.0511623 -4.11513e-19)
(-0.0283875 -0.0628665 -2.96222e-19)
(-0.0407711 -0.0728795 3.07806e-19)
(-0.0519987 -0.0816749 4.27075e-19)
(-0.0609967 -0.0897822 -6.27082e-20)
(-0.0669163 -0.0975995 -1.83954e-19)
(-0.0690915 -0.105266 4.62906e-19)
(-0.0669939 -0.112552 -3.68435e-19)
(-0.060148 -0.118706 1.88337e-19)
(-0.0485442 -0.122312 2.39533e-19)
(-0.0333823 -0.121281 -7.0923e-19)
(-0.00765893 -0.11062 8.79852e-20)
(0.000982382 -0.00495648 1.47418e-19)
(-0.000588595 -0.0167097 -1.19651e-19)
(-0.00796711 -0.0299329 -6.36913e-22)
(-0.0180547 -0.0424451 9.0841e-20)
(-0.0293555 -0.05374 1.17069e-19)
(-0.0404205 -0.0638319 -3.39479e-19)
(-0.0499481 -0.073029 -1.62879e-19)
(-0.0568721 -0.0817416 -3.28542e-19)
(-0.0603261 -0.0902984 -3.1601e-19)
(-0.059608 -0.0988182 2.71125e-19)
(-0.0541429 -0.107097 -2.9812e-19)
(-0.0433759 -0.11442 -3.50525e-20)
(-0.0271683 -0.11934 8.45542e-20)
(-0.00738752 -0.119739 -3.0105e-20)
(0.0255232 -0.108721 2.69123e-19)
(-8.39598e-05 -0.00270969 -4.64553e-20)
(-0.00273134 -0.0114321 -3.16428e-19)
(-0.0102488 -0.0227056 -2.68107e-19)
(-0.019803 -0.0341362 -5.60503e-20)
(-0.0300182 -0.0450052 5.10433e-20)
(-0.0395238 -0.0551335 -9.4754e-21)
(-0.0470581 -0.0646698 -6.13361e-20)
(-0.0515599 -0.0739061 -4.66871e-20)
(-0.0521425 -0.0830992 1.66828e-19)
(-0.0480651 -0.0923449 -1.21997e-19)
(-0.0387088 -0.101467 3.48978e-19)
(-0.0234489 -0.109806 -3.67666e-19)
(-0.00197348 -0.115932 -2.61907e-19)
(0.0230386 -0.117911 1.79771e-19)
(0.063585 -0.105972 -2.04211e-19)
(-0.00118191 -0.000627843 -1.19646e-19)
(-0.0049053 -0.00651288 3.95275e-20)
(-0.0124805 -0.0159242 2.27809e-19)
(-0.0213575 -0.0262979 -1.17924e-19)
(-0.0302843 -0.0367233 1.89026e-19)
(-0.0379697 -0.0468409 -6.16964e-20)
(-0.0431903 -0.0566458 -3.18409e-19)
(-0.0448864 -0.0663127 4.15001e-19)
(-0.0421465 -0.076022 1.81965e-19)
(-0.0341887 -0.0858389 -5.05411e-19)
(-0.0203527 -0.0956116 5.02715e-20)
(3.38414e-05 -0.10475 -1.04327e-20)
(0.0274759 -0.11189 5.3082e-19)
(0.058694 -0.11557 1.04201e-19)
(0.107251 -0.102328 2.76246e-19)
(-0.0022896 0.00127061 5.38594e-21)
(-0.00706242 -0.00199336 2.70875e-19)
(-0.0145982 -0.00964329 -1.29512e-19)
(-0.0226412 -0.0189914 1.79462e-19)
(-0.0300626 -0.0289572 3.38334e-19)
(-0.0356489 -0.039015 4.31332e-19)
(-0.0382117 -0.0490139 1.29335e-19)
(-0.0366879 -0.0590114 -2.84605e-20)
(-0.0301369 -0.0691062 5.14961e-19)
(-0.0177337 -0.0793227 5.69305e-19)
(0.00121827 -0.0895203 5.06994e-20)
(0.027407 -0.0991795 5.24259e-19)
(0.0614334 -0.10704 -1.63145e-21)
(0.0997859 -0.112268 -4.2076e-19)
(0.157437 -0.0977816 -2.70458e-19)
(-0.00338484 0.00297032 1.44954e-19)
(-0.00915391 0.00209025 2.95506e-19)
(-0.0165376 -0.00391306 4.95646e-20)
(-0.0235776 -0.0122751 3.44118e-19)
(-0.0292637 -0.0217695 -4.12257e-19)
(-0.0324561 -0.0317197 -5.38629e-20)
(-0.0319971 -0.041837 -8.74373e-20)
(-0.0268154 -0.0520629 6.23189e-19)
(-0.0159374 -0.0624093 -8.44824e-19)
(0.00150396 -0.0728466 -5.664e-19)
(0.0262342 -0.0832271 2.12243e-19)
(0.0589392 -0.0930856 -2.59384e-19)
(0.100197 -0.101288 -6.97103e-20)
(0.146198 -0.107697 1.98656e-19)
(0.213996 -0.0919885 6.66998e-19)
(-0.00444581 0.00445963 1.37521e-19)
(-0.0111314 0.00570803 -5.39141e-19)
(-0.0182352 0.00122223 1.17635e-19)
(-0.0240915 -0.00620347 -5.30049e-19)
(-0.0278012 -0.0152209 2.6582e-19)
(-0.028292 -0.0250194 -1.77035e-19)
(-0.0244318 -0.0351815 -1.92475e-19)
(-0.0151376 -0.0455352 -4.61575e-19)
(0.000598542 -0.0560005 1.63229e-19)
(0.0236808 -0.0664818 2.31509e-19)
(0.0548471 -0.0768043 -1.20452e-20)
(0.0947543 -0.0865339 2.13511e-19)
(0.143904 -0.0946646 -1.09481e-19)
(0.198025 -0.101905 -3.36135e-20)
(0.276285 -0.084525 -4.12938e-20)
(-0.00545163 0.00573088 -6.03953e-19)
(-0.0129479 0.0088372 2.43773e-20)
(-0.019629 0.00572558 -4.94646e-20)
(-0.02411 -0.000824607 8.77129e-20)
(-0.0255917 -0.0093677 -3.98309e-19)
(-0.0230625 -0.0189758 4.82685e-19)
(-0.0154112 -0.0291129 -1.41089e-20)
(-0.00154034 -0.0394969 -5.89168e-19)
(0.0195889 -0.0499527 -5.39234e-19)
(0.048907 -0.0603084 -4.5496e-19)
(0.087139 -0.0703418 -2.02868e-19)
(0.134871 -0.0796162 -1.27899e-19)
(0.192426 -0.0872197 -4.12025e-19)
(0.255186 -0.0949435 -2.69099e-19)
(0.343408 -0.0752537 2.99722e-19)
(-0.00638301 0.0067807 3.44983e-19)
(-0.0145587 0.0114629 2.75553e-19)
(-0.0206594 0.00956855 3.25473e-19)
(-0.0235621 0.00382122 -9.69728e-20)
(-0.0225549 -0.00425918 1.75267e-19)
(-0.0166787 -0.0136444 -2.42569e-19)
(-0.00483868 -0.0236909 1.23584e-19)
(0.0140758 -0.0340109 7.62231e-19)
(0.0411271 -0.0443334 2.86975e-19)
(0.0772532 -0.0544013 6.05734e-19)
(0.123129 -0.0639293 2.25533e-19)
(0.179222 -0.0724376 -3.95302e-20)
(0.24549 -0.0790863 3.62836e-19)
(0.317391 -0.0868005 -3.73947e-19)
(0.414114 -0.0642415 -3.99524e-19)
(-0.00722271 0.00761003 -3.03651e-19)
(-0.0159219 0.0135785 -4.91194e-19)
(-0.021269 0.0127324 1.02863e-19)
(-0.022379 0.00770375 -1.95219e-19)
(-0.0186125 6.52691e-05 2.32157e-19)
(-0.00905404 -0.00907093 -4.85071e-19)
(0.00737698 -0.0189644 1.40292e-19)
(0.0318008 -0.0291279 -2.16599e-19)
(0.0652894 -0.0391941 -2.05369e-19)
(0.10876 -0.0488164 -2.73646e-19)
(0.162789 -0.0576354 -4.58366e-19)
(0.227668 -0.0650842 4.46871e-20)
(0.302717 -0.0704345 3.77451e-19)
(0.384175 -0.0773865 2.92408e-19)
(0.486731 -0.0516221 1.93339e-19)
(-0.00795585 0.00822398 2.22535e-19)
(-0.0169989 0.015186 -3.51767e-20)
(-0.021403 0.0152092 1.63816e-19)
(-0.0204928 0.0108046 5.25018e-19)
(-0.0136858 0.00357906 -5.69147e-19)
(-0.000101999 -0.00528653 5.08008e-19)
(0.0213264 -0.0149662 -4.76802e-19)
(0.0517208 -0.0248786 7.70154e-20)
(0.092142 -0.0345623 2.04288e-19)
(0.143449 -0.0435801 1.91352e-20)
(0.206056 -0.0514931 3.07443e-19)
(0.280013 -0.0576046 3.14378e-19)
(0.363682 -0.0614317 -2.11148e-19)
(0.454893 -0.0664242 -4.8111e-19)
(0.559089 -0.0374184 6.54558e-19)
(-0.00857005 0.00863142 -1.37614e-19)
(-0.0177544 0.0162958 3.53552e-19)
(-0.0210082 0.0170021 -2.16776e-19)
(-0.0178353 0.0131187 -1.47488e-19)
(-0.00769416 0.00627098 3.01383e-19)
(0.0102674 -0.00230514 -6.08986e-20)
(0.0371034 -0.0117081 1.86633e-19)
(0.0739229 -0.0212682 1.09983e-18)
(0.121747 -0.0304349 1.42024e-19)
(0.181326 -0.0386821 7.2105e-20)
(0.252836 -0.0454954 -1.3096e-19)
(0.336009 -0.0500202 -1.86909e-19)
(0.428019 -0.0522208 -1.47359e-19)
(0.528875 -0.0534743 2.02969e-19)
(0.629056 -0.0221825 -9.94942e-19)
(-0.00905534 0.00884442 4.32929e-19)
(-0.018156 0.0169259 3.72668e-19)
(-0.0200327 0.0181259 1.22903e-19)
(-0.0143368 0.0146557 -2.85657e-20)
(-0.000552669 0.00814733 1.84239e-19)
(0.0221507 -0.000119546 -1.41082e-19)
(0.0548087 -0.00917629 -8.6394e-20)
(0.098499 -0.0182722 -1.34582e-19)
(0.154162 -0.0267729 -6.08799e-19)
(0.222377 -0.034071 1.4483e-19)
(0.30299 -0.0395948 5.56446e-20)
(0.395312 -0.04234 6.0114e-20)
(0.495365 -0.042885 4.39878e-19)
(0.605522 -0.0385342 -2.68468e-20)
(0.697005 -0.00960522 1.7644e-19)
(-0.00940389 0.00887755 -6.85188e-19)
(-0.0181734 0.017101 -2.65622e-19)
(-0.0184248 0.018607 -6.89335e-20)
(-0.0099246 0.0154407 -5.89125e-21)
(0.00782997 0.00923386 -3.19716e-19)
(0.035653 0.00130132 1.45514e-19)
(0.0745523 -0.00732909 1.40756e-20)
(0.125547 -0.0158324 4.25986e-19)
(0.189443 -0.0234982 -1.58285e-19)
(0.266564 -0.0296522 -1.43991e-19)
(0.356309 -0.0336977 -1.81389e-20)
(0.457417 -0.0345393 -1.20542e-20)
(0.564977 -0.0334044 -4.08328e-19)
(0.683084 -0.02315 9.71958e-20)
(0.768552 -0.00599901 -2.56403e-19)
(-0.00960979 0.00874703 5.00124e-19)
(-0.0177781 0.0168529 1.52325e-19)
(-0.0161308 0.0184821 -3.10597e-19)
(-0.0045214 0.0155138 1.44805e-19)
(0.0175528 0.00957671 -5.67672e-19)
(0.0508892 0.00201371 1.11729e-19)
(0.096453 -0.00609448 1.95135e-19)
(0.155166 -0.0138556 -4.43481e-19)
(0.227632 -0.020494 5.92429e-19)
(0.313807 -0.0252887 3.38955e-19)
(0.41251 -0.0276592 2.21959e-19)
(0.521702 -0.0265103 6.21567e-20)
(0.635664 -0.0236833 -4.59577e-21)
(0.757313 -0.0105121 -1.03659e-19)
(0.847462 -0.00520855 4.45867e-19)
(-0.00966775 0.00847028 -5.63095e-19)
(-0.0169428 0.0162172 -5.01989e-19)
(-0.0130955 0.0177974 4.63585e-20)
(0.00195585 0.0149312 1.46213e-19)
(0.0287231 0.0092427 5.29736e-19)
(0.0679834 0.00209963 -1.74717e-19)
(0.120636 -0.00536995 -6.80338e-19)
(0.187454 -0.0122145 -5.27224e-19)
(0.268748 -0.0176078 -3.28284e-19)
(0.363979 -0.0208099 -6.06686e-19)
(0.471226 -0.0213017 2.34101e-19)
(0.587476 -0.0180963 1.29426e-19)
(0.706276 -0.0134869 1.14299e-19)
(0.828386 0.0010151 2.55265e-19)
(0.920593 0.00283281 1.27283e-19)
(-0.00957277 0.00806458 3.75563e-19)
(-0.0156382 0.0152327 3.37962e-19)
(-0.00926061 0.0166086 1.38363e-19)
(0.00959579 0.0137631 -4.05228e-19)
(0.0414559 0.0083185 -2.64477e-19)
(0.0870662 0.00166603 1.93277e-19)
(0.147226 -0.00502425 2.61772e-19)
(0.222492 -0.0107519 5.12881e-19)
(0.312772 -0.0146604 1.52964e-19)
(0.416879 -0.0160265 8.8049e-20)
(0.531995 -0.014443 -5.18408e-19)
(0.653985 -0.00913709 -3.75218e-19)
(0.775717 -0.00266908 5.71633e-20)
(0.895868 0.0124693 -1.16685e-19)
(0.986599 0.0137536 2.78213e-19)
(-0.00931937 0.00754668 1.11256e-19)
(-0.0138334 0.0139407 -2.4648e-19)
(-0.00456386 0.0149784 -2.42414e-19)
(0.0184926 0.0120923 4.82232e-20)
(0.0558715 0.00690909 2.1726e-19)
(0.10827 0.000842619 3.89873e-19)
(0.17634 -0.00490103 -2.29281e-19)
(0.260334 -0.00928685 2.31075e-19)
(0.359626 -0.0114558 9.55467e-20)
(0.472215 -0.0107476 -4.90041e-19)
(0.594247 -0.00692297 9.70886e-20)
(0.720404 0.000483483 5.11904e-20)
(0.842972 0.00877392 -1.44098e-19)
(0.959018 0.0241472 -2.42663e-19)
(1.04594 0.0258981 -5.1582e-19)
(-0.00890074 0.0069323 6.90598e-20)
(-0.0114951 0.0123835 -9.41501e-20)
(0.00106124 0.012975 2.40383e-19)
(0.0287448 0.0100131 -2.13882e-19)
(0.0720922 0.00513538 3.84267e-20)
(0.131721 -0.000221554 -1.01575e-19)
(0.208072 -0.00482419 -1.29704e-19)
(0.300986 -0.00762324 7.61894e-20)
(0.409151 -0.00779431 2.8834e-20)
(0.529593 -0.0047975 4.54053e-19)
(0.65731 0.00137779 1.89935e-19)
(0.785847 0.0108188 2.10476e-19)
(0.907107 0.0207663 5.50539e-19)
(1.01718 0.0360914 -1.61088e-19)
(1.09836 0.0385706 2.85955e-19)
(-0.00830806 0.0062358 -2.09242e-19)
(-0.00858639 0.0106038 4.50258e-19)
(0.00768489 0.0106711 1.27937e-19)
(0.040453 0.0076283 5.69263e-19)
(0.0902373 0.00313114 1.33346e-19)
(0.157532 -0.00136266 -4.83499e-19)
(0.242484 -0.00460469 2.09886e-19)
(0.344392 -0.00555963 4.673e-19)
(0.4611 -0.00348591 -4.23715e-19)
(0.588507 0.00196918 -1.0591e-19)
(0.720425 0.0105266 -9.23627e-21)
(0.849421 0.0218561 -2.33388e-19)
(0.967305 0.0331856 -3.13156e-19)
(1.06988 0.0482163 2.96441e-19)
(1.1439 0.051311 1.07518e-19)
(-0.0075301 0.00547006 -7.10232e-20)
(-0.00506657 0.00864367 -2.51113e-19)
(0.0153801 0.00814214 3.55861e-19)
(0.0537172 0.00504749 -2.51234e-19)
(0.110417 0.0010395 6.19274e-20)
(0.185791 -0.00240734 -5.17629e-21)
(0.279589 -0.00404838 2.93996e-19)
(0.390421 -0.00290013 -3.72558e-19)
(0.515118 0.00163668 9.90806e-19)
(0.648351 0.00965542 2.05833e-19)
(0.782784 0.0205346 -1.89633e-19)
(0.910278 0.0335237 1.65484e-20)
(1.02291 0.045882 -5.0049e-20)
(1.11682 0.0603792 6.42411e-20)
(1.18275 0.063813 -4.05954e-19)
(-0.00655289 0.00464664 4.52452e-20)
(-0.00089136 0.00654488 -2.93747e-19)
(0.0242214 0.00546555 -2.76153e-19)
(0.0686328 0.00238473 -1.69315e-19)
(0.132727 -0.000990691 -2.95895e-19)
(0.216553 -0.00317842 -1.47514e-19)
(0.319342 -0.00296408 -4.26068e-19)
(0.438852 0.000535097 1.47889e-19)
(0.570755 0.00770709 -6.98112e-19)
(0.70844 0.0183148 -1.36084e-19)
(0.843571 0.0313594 -5.00908e-19)
(0.967666 0.0457055 3.5604e-19)
(1.07346 0.0586968 2.793e-19)
(1.15793 0.0724287 1.61326e-21)
(1.21533 0.07588 6.45764e-19)
(-0.00535979 0.00377603 3.59188e-20)
(0.00398654 0.00434851 2.9501e-19)
(0.0342824 0.00271979 4.34786e-19)
(0.0852868 -0.000243484 5.7221e-20)
(0.157239 -0.0028085 -2.14231e-19)
(0.249829 -0.00350051 1.89801e-19)
(0.361627 -0.00117156 2.00558e-20)
(0.489376 0.0049005 -2.03014e-19)
(0.627467 0.0148174 -1.69229e-19)
(0.768043 0.0279499 -1.67595e-19)
(0.902016 0.0429141 4.20333e-19)
(1.02098 0.0582592 2.71637e-19)
(1.1187 0.0714787 -3.20086e-19)
(1.19334 0.0842318 2.34726e-19)
(1.24214 0.0873989 2.39214e-20)
(-0.00393165 0.00286816 9.25321e-20)
(0.00961652 0.00209554 -6.43438e-19)
(0.0456342 -1.60026e-05 -4.52422e-19)
(0.103753 -0.00271988 -2.59724e-20)
(0.183996 -0.00426422 9.95302e-20)
(0.28558 -0.00320531 2.51725e-19)
(0.406255 0.00149143 -8.79146e-20)
(0.541594 0.0103178 1.67161e-19)
(0.684644 0.0230142 4.08783e-19)
(0.826425 0.0385163 1.44898e-19)
(0.957436 0.0550795 1.51534e-19)
(1.06978 0.0710342 -6.6231e-20)
(1.15857 0.0840959 -1.693e-19)
(1.22333 0.0956869 -5.42693e-19)
(1.26379 0.0983195 -2.75206e-20)
(-0.00224735 0.00193289 -3.4312e-19)
(0.0160487 -0.000172539 7.02353e-19)
(0.058342 -0.00266218 -1.3109e-19)
(0.124089 -0.00492769 -4.17027e-20)
(0.213008 -0.00521224 -1.4348e-19)
(0.32371 -0.00213627 -2.74306e-19)
(0.452961 0.00516335 1.90219e-19)
(0.595036 0.0168714 -3.45887e-19)
(0.741637 0.0322989 -1.37447e-19)
(0.882888 0.0499306 -9.85e-20)
(1.00927 0.0677181 -3.09581e-19)
(1.1138 0.0838862 6.67691e-20)
(1.19315 0.0964433 2.12154e-19)
(1.2483 0.106728 3.04891e-20)
(1.28093 0.108639 -4.25569e-19)
(-0.000284364 0.000980676 9.00862e-20)
(0.0233322 -0.00241303 4.58642e-20)
(0.0724629 -0.00513841 8.62788e-19)
(0.146331 -0.00675165 3.81163e-19)
(0.244246 -0.00551353 1.66533e-19)
(0.364064 -0.000152462 2.84377e-20)
(0.501412 0.0099546 -5.01125e-19)
(0.64917 0.0246062 5.64702e-19)
(0.797791 0.042632 3.08603e-20)
(0.936804 0.0620815 1.27176e-19)
(1.0571 0.0806879 -1.16039e-19)
(1.15295 0.0966882 -3.5135e-19)
(1.2227 0.108446 -5.13596e-19)
(1.26872 0.117322 6.6757e-19)
(1.29418 0.118387 9.06712e-20)
(0.00198045 2.305e-05 -5.7105e-21)
(0.0315135 -0.00458125 -3.35632e-19)
(0.0880428 -0.00736345 -3.23483e-19)
(0.17049 -0.00807873 -2.70038e-19)
(0.277637 -0.00503758 1.8403e-19)
(0.406431 0.0028684 -1.13369e-19)
(0.55121 0.015945 3.64529e-19)
(0.703433 0.0335292 -2.84793e-19)
(0.852475 0.0539404 1.00327e-19)
(0.987647 0.0748416 -2.10465e-19)
(1.10065 0.093853 4.53939e-20)
(1.18728 0.109336 -1.47371e-19)
(1.24757 0.120056 1.40047e-19)
(1.28508 0.127464 -3.83179e-19)
(1.30414 0.127615 -1.35731e-19)
(0.00457005 -0.000926843 -4.78513e-19)
(0.0406347 -0.0066298 4.26322e-19)
(0.105114 -0.00925485 -5.28925e-20)
(0.19655 -0.00879871 1.91449e-19)
(0.313067 -0.00366419 -3.02861e-19)
(0.450542 0.00702771 2.69102e-19)
(0.601914 0.0231829 -3.0823e-19)
(0.757252 0.0436125 -1.81978e-19)
(0.905116 0.0661256 5.56684e-20)
(1.03501 0.0880779 -1.62785e-19)
(1.13981 0.107092 -2.34331e-19)
(1.21697 0.121753 6.47913e-19)
(1.26814 0.131256 -7.90588e-20)
(1.29792 0.137173 4.10084e-19)
(1.31135 0.136385 -9.33853e-20)
(0.00750639 -0.00185389 8.98169e-20)
(0.0507315 -0.00850809 -6.97395e-20)
(0.123693 -0.0107288 -4.23059e-19)
(0.224467 -0.00880487 -6.10791e-20)
(0.350378 -0.00128486 5.23204e-19)
(0.496083 0.0124045 -3.66454e-19)
(0.653047 0.031686 5.39908e-19)
(0.810068 0.0547986 -2.74461e-19)
(0.955218 0.0790736 3.37557e-19)
(1.0786 0.101662 2.56874e-19)
(1.17456 0.120303 -1.65446e-19)
(1.24228 0.133885 -2.49905e-19)
(1.28486 0.142045 2.78073e-19)
(1.30771 0.146482 -3.02077e-19)
(1.3163 0.144766 -1.58396e-19)
(0.0108096 -0.00274074 3.27805e-19)
(0.0618312 -0.010162 -5.32459e-20)
(0.143778 -0.0117002 2.29179e-19)
(0.254164 -0.00799474 -2.79208e-19)
(0.389371 0.00219577 -6.40049e-19)
(0.542699 0.0190545 9.44657e-20)
(0.704121 0.0414434 -1.48117e-19)
(0.86136 0.0670073 4.94722e-19)
(1.00238 0.092663 -1.61316e-19)
(1.11826 0.115474 5.6387e-21)
(1.20502 0.133405 2.20294e-19)
(1.26354 0.145705 1.79189e-19)
(1.29817 0.152443 -4.23383e-19)
(1.31491 0.155434 2.4784e-19)
(1.31939 0.152824 2.85136e-19)
(0.0144973 -0.00356774 -1.41906e-19)
(0.0739517 -0.0115339 -7.02319e-20)
(0.165347 -0.0120832 -2.16026e-19)
(0.285536 -0.00627113 1.43869e-19)
(0.429809 0.00685863 2.93644e-19)
(0.590005 0.0270103 -2.9611e-20)
(0.754652 0.0524187 2.72964e-19)
(0.910662 0.0801419 -2.80819e-19)
(1.04629 0.106773 2.98404e-19)
(1.15393 0.129411 -3.15434e-19)
(1.23138 0.146337 3.45637e-19)
(1.28111 0.157201 -3.23868e-19)
(1.30851 0.162481 -1.09433e-19)
(1.31992 0.164079 1.15718e-19)
(1.32096 0.160623 3.77763e-20)
(0.0185838 -0.00431295 1.07541e-19)
(0.0870998 -0.012563 -1.24779e-20)
(0.188359 -0.0117916 -2.81052e-19)
(0.318446 -0.00354344 2.13811e-19)
(0.471421 0.0127691 8.68067e-20)
(0.637599 0.0362819 8.4763e-20)
(0.804176 0.0645544 -8.82816e-20)
(0.957576 0.0940962 -6.18173e-20)
(1.08674 0.121288 -5.17179e-19)
(1.18564 0.143386 3.16217e-19)
(1.25387 0.159062 -2.02392e-19)
(1.29535 0.168379 -4.19142e-20)
(1.31627 0.172195 6.64716e-19)
(1.32311 0.172464 -5.11927e-19)
(1.3213 0.168217 -3.51585e-19)
(0.0230797 -0.00495231 -1.90029e-20)
(0.10127 -0.0131857 1.61284e-19)
(0.212749 -0.0107404 2.67546e-19)
(0.352726 0.000270854 -3.49898e-20)
(0.513913 0.0199758 -1.96982e-19)
(0.685074 0.0468577 2.02852e-19)
(0.852262 0.0777762 -2.07304e-19)
(1.00178 0.10876 -1.16195e-19)
(1.12361 0.136103 3.41422e-19)
(1.2135 0.157329 2.37567e-19)
(1.27278 0.171554 4.08862e-20)
(1.30663 0.179258 1.69553e-19)
(1.32181 0.181628 -3.46301e-19)
(1.32477 0.180638 2.22516e-19)
(1.32064 0.175656 3.9722e-19)
(0.0279913 -0.00545989 -6.53788e-20)
(0.116443 -0.0133367 -4.4317e-19)
(0.23843 -0.00884693 -2.8033e-19)
(0.388184 0.00524457 -2.81233e-19)
(0.556966 0.0285101 -1.89118e-19)
(0.732029 0.0587068 9.77915e-20)
(0.898528 0.0919974 3.60974e-19)
(1.04303 0.124025 -1.20347e-19)
(1.15688 0.151124 2.06869e-19)
(1.23768 0.171187 -3.50368e-20)
(1.28842 0.183807 5.37377e-20)
(1.31531 0.189862 -9.44277e-20)
(1.32546 0.190822 3.59433e-20)
(1.32516 0.188643 -5.25197e-20)
(1.31914 0.182981 -1.43698e-19)
(0.0333201 -0.00580831 1.05034e-19)
(0.132587 -0.0129501 4.67774e-19)
(0.265296 -0.00603249 -9.63603e-20)
(0.424603 0.0114392 2.26496e-19)
(0.600252 0.038386 4.48451e-20)
(0.778079 0.0717809 3.34655e-20)
(0.942642 0.107123 -1.73457e-19)
(1.08115 0.139784 2.0097e-19)
(1.18657 0.166272 -2.97816e-19)
(1.25838 0.184922 -1.58497e-19)
(1.30109 0.195822 -5.36096e-20)
(1.32171 0.20022 -3.79457e-20)
(1.3275 0.199819 -1.39904e-19)
(1.32448 0.196518 -1.9328e-20)
(1.31696 0.190222 6.83825e-20)
(0.0390626 -0.00596912 -3.31224e-20)
(0.149654 -0.0119604 2.06483e-20)
(0.293218 -0.00222411 2.66038e-19)
(0.461747 0.0189034 2.57259e-19)
(0.643438 0.0495995 1.07037e-19)
(0.822866 0.0860174 -1.87036e-19)
(0.98433 0.123055 6.07796e-20)
(1.11604 0.155942 1.59092e-19)
(1.21276 0.181479 -2.37158e-20)
(1.27584 0.198508 2.98663e-20)
(1.31108 0.207609 6.15188e-20)
(1.32611 0.210365 1.72509e-20)
(1.32817 0.208653 -1.37228e-19)
(1.32291 0.204295 -5.24284e-21)
(1.31419 0.197406 1.52915e-19)
(0.04521 -0.00591331 2.15751e-20)
(0.167585 -0.0103038 -8.92492e-20)
(0.322047 0.00264373 -1.51599e-19)
(0.499362 0.0276719 -3.04203e-19)
(0.686194 0.0621304 -3.25624e-20)
(0.866063 0.101342 1.4647e-19)
(1.02337 0.139692 -7.56038e-20)
(1.14765 0.172408 -1.96195e-19)
(1.2356 0.19669 -1.81207e-19)
(1.2903 0.211929 8.46376e-20)
(1.31869 0.219184 -4.65289e-20)