/*--------------------------------*- C++ -*----------------------------------*\
  =========                 |
  \\      /  F ield         | OpenFOAM: The Open Source CFD Toolbox
   \\    /   O peration     | Website:  https://openfoam.org
    \\  /    A nd           | Version:  7
     \\/     M anipulation  |
\*---------------------------------------------------------------------------*/
FoamFile
{
    version     2.0;
    format      ascii;
    class       surfaceScalarField;
    location    "300";
    object      phi;
}
// * * * * * * * * * * * * * * * * * * * * * * * * * * * * * * * * * * * * * //

dimensions      [0 3 -1 0 0 0 0];

internalField   nonuniform List<scalar> 
8923
(
0.000675695
-0.00911735
0.00906246
0.000678794
-0.00939284
0.00938974
0.000633426
-0.00954252
0.00958789
0.000580402
-0.0095736
0.00962663
0.000593974
-0.00894629
0.00893272
0.00071006
-0.00696594
0.00684985
0.000894308
-0.0036684
0.00348415
0.00109647
0.000182153
-0.000384312
0.00128084
0.00374749
-0.00393186
0.00142583
0.00647352
-0.0066185
0.00152198
0.00820162
-0.00829778
0.00157049
0.00911617
-0.00916468
0.00158373
0.00949087
-0.00950411
0.0015726
0.00952673
-0.0095156
0.00153128
0.0095269
-0.00948558
0.00145261
0.0098205
-0.00974182
0.00135858
0.0101537
-0.0100596
0.00129544
0.00952528
-0.00946214
0.00129427
0.00708535
-0.00708418
0.00135227
0.0030747
-0.00313269
0.00144487
-0.00136616
0.00127356
0.00153997
-0.00511394
0.00501884
-0.00766683
0.00759306
0.000687866
-0.00916524
0.000685896
-0.00939087
0.000634892
-0.00949152
0.000571501
-0.00951021
0.000571151
-0.00894594
0.000677971
-0.00707276
0.000861749
-0.00385218
0.00106939
-2.54922e-05
0.00126204
0.00355484
0.00141582
0.00631973
0.00151975
0.0080977
0.00157455
0.00906136
0.00159281
0.00947261
0.00158523
0.00953432
0.00154608
0.00956605
0.00146921
0.00989737
0.00137716
0.0102457
0.00131479
0.00958765
0.0013115
0.00708864
0.00136477
0.00302142
0.00145171
-0.00145311
0.00154148
-0.0052037
-0.00773592
0.000700283
-0.00920611
0.000693507
-0.00938409
0.000637643
-0.00943565
0.000564833
-0.0094374
0.000550636
-0.00893175
0.00064723
-0.00716936
0.000829544
-0.00403449
0.00104206
-0.000238009
0.00124265
0.00335425
0.00140511
0.00615727
0.00151682
0.00798599
0.00157806
0.00900012
0.0016015
0.00944917
0.00159762
0.0095382
0.00156086
0.00960281
0.00148604
0.00997218
0.00139608
0.0103357
0.00133437
0.00964936
0.0013287
0.0070943
0.00137702
0.00297311
0.00145813
-0.00153422
0.0015425
-0.00528808
-0.00780038
0.000712911
-0.00923993
0.000701555
-0.00937274
0.000641569
-0.00937567
0.000560353
-0.00935619
0.000532538
-0.00890393
0.000618004
-0.00725482
0.00079781
-0.0042143
0.00101453
-0.000454732
0.0012227
0.00314609
0.00139367
0.0059863
0.00151318
0.00786648
0.00158099
0.00893231
0.00160977
0.00942039
0.00160975
0.00953822
0.00157558
0.00963698
0.00150306
0.0100447
0.00141531
0.0104234
0.00135414
0.00971053
0.00134589
0.00710256
0.00138902
0.00292998
0.00146413
-0.00160933
0.00154305
-0.00536699
-0.00786022
0.000725712
-0.00926669
0.000709966
-0.00935699
0.000646554
-0.00931226
0.000557994
-0.00926763
0.000516943
-0.00886288
0.000590456
-0.00732833
0.000766661
-0.0043905
0.000986875
-0.000674946
0.00120222
0.00293075
0.00138151
0.005807
0.0015088
0.00773919
0.0015833
0.00885781
0.00161757
0.00938612
0.00162158
0.00953422
0.00159022
0.00966833
0.00152024
0.0101147
0.00143481
0.0105089
0.00137409
0.00977125
0.00136303
0.00711362
0.00140077
0.00289223
0.00146973
-0.00167828
0.00154312
-0.00544039
-0.00791549
0.000738641
-0.00928638
0.000718667
-0.00933702
0.00065247
-0.00924606
0.000557659
-0.00917281
0.000503911
-0.00880913
0.000564742
-0.00738916
0.000736215
-0.00456198
0.000959154
-0.000897885
0.00118122
0.00270868
0.00136863
0.0056196
0.00150368
0.00760414
0.00158498
0.00877651
0.00162489
0.0093462
0.00163309
0.00952602
0.00160476
0.00969666
0.00153756
0.0101819
0.00145454
0.0105919
0.00139417
0.00983162
0.00138011
0.00712768
0.00141228
0.00286006
0.00147493
-0.00174094
0.00154275
-0.0055082
-0.0079662
0.000751653
-0.00929903
0.000727583
-0.00931295
0.000659186
-0.00917766
0.000559226
-0.00907285
0.000493471
-0.00874338
0.000541014
-0.00743671
0.000706592
-0.00472755
0.000931436
-0.00112273
0.00115974
0.00248037
0.00135501
0.00542433
0.00149779
0.00746136
0.00158598
0.00868831
0.00163169
0.0093005
0.00164423
0.00951348
0.00161916
0.00972173
0.00155496
0.0102461
0.00147446
0.0106724
0.00141435
0.00989173
0.00139712
0.00714491
0.00142353
0.00283365
0.00147975
-0.00179716
0.00154193
-0.00557038
-0.0080124
0.000764697
-0.00930467
0.000736643
-0.00928489
0.000666565
-0.00910758
0.000562554
-0.00896884
0.000485627
-0.00866645
0.00051941
-0.00747049
0.000677914
-0.00488606
0.000903789
-0.0013486
0.0011378
0.00224636
0.00134066
0.00522147
0.0014911
0.00731093
0.00158629
0.00859312
0.00163792
0.00924887
0.00165498
0.00949643
0.00163337
0.00974333
0.00157242
0.010307
0.00149452
0.0107503
0.00143459
0.00995166
0.00141403
0.00716547
0.00143453
0.00281315
0.00148419
-0.00184682
0.00154068
-0.00562687
-0.00805413
0.000777718
-0.00930337
0.000745775
-0.00925295
0.000674469
-0.00903628
0.00056748
-0.00886186
0.000480349
-0.00857932
0.000500057
-0.0074902
0.000650302
-0.0050363
0.000876278
-0.00157458
0.00111543
0.0020072
0.00132557
0.00501133
0.0014836
0.00715289
0.00158587
0.00849086
0.00164356
0.00919118
0.00166528
0.0094747
0.00164737
0.00976125
0.00158988
0.0103645
0.00151468
0.0108255
0.00145487
0.0100115
0.00143083
0.0071895
0.00144527
0.00279871
0.00148826
-0.0018898
0.00153901
-0.00567762
-0.00809141
0.00079066
-0.0092952
0.00075491
-0.0092172
0.000682762
-0.00896413
0.000573825
-0.00875292
0.000477575
-0.00848307
0.000483062
-0.00749569
0.000623884
-0.00517712
0.000848969
-0.00179966
0.00109265
0.00176352
0.00130975
0.00479423
0.00147528
0.00698736
0.00158468
0.00838146
0.00164855
0.0091273
0.00167511
0.00944814
0.00166111
0.00977525
0.00160729
0.0104184
0.00153489
0.0108979
0.00147514
0.0100712
0.0014475
0.00721714
0.00145575
0.00279046
0.00149196
-0.001926
0.00153692
-0.00572258
-0.00812428
0.000803461
-0.00928026
0.000763981
-0.00917772
0.000691309
-0.00889146
0.000581398
-0.00864301
0.000477213
-0.00837888
0.000468517
-0.00748699
0.000598787
-0.00530739
0.000821931
-0.00202281
0.00106949
0.00151596
0.00129318
0.00457055
0.0014661
0.00681444
0.00158269
0.00826486
0.00165287
0.00905713
0.00168441
0.0094166
0.00167453
0.00978512
0.00162461
0.0104683
0.0015551
0.0109674
0.00149535
0.010131
0.001464
0.0072485
0.00146596
0.00278849
0.0014953
-0.00195534
0.00153444
-0.00576172
0.00156294
-0.00815279
-0.00932567
0.000816058
-0.00925868
0.000772922
-0.00913458
0.000699981
-0.00881852
0.000589996
-0.00853302
0.000479135
-0.00826802
0.000456486
-0.00746434
0.000575139
-0.00542605
0.000795233
-0.0022429
0.00104597
0.00126522
0.00127587
0.00434065
0.00145605
0.00663426
0.00157988
0.00814103
0.00165646
0.00898055
0.00169314
0.00937991
0.00168761
0.00979066
0.00164178
0.0105141
0.00157526
0.0110339
0.00151548
0.0101908
0.00148032
0.00728366
0.00147589
0.00279292
0.00149829
-0.00197774
0.00153156
-0.00579499
0.00155572
-0.00817695
-0.00933317
0.000828386
-0.0092306
0.00078167
-0.00908786
0.000708655
-0.0087455
0.000599415
-0.00842378
0.000483185
-0.00815179
0.000447011
-0.00742817
0.000553072
-0.00553211
0.000768948
-0.00245878
0.00102213
0.00101203
0.00125782
0.00410496
0.00144512
0.00644696
0.0015762
0.00800995
0.00165928
0.00889747
0.00170126
0.00933794
0.00170027
0.00979165
0.00165875
0.0105556
0.00159531
0.0110973
0.00153548
0.0102506
0.00149643
0.00732271
0.00148553
0.00280382
0.00150092
-0.00199313
0.00152829
-0.00582236
0.00154815
-0.00819681
-0.00933751
0.000840378
-0.00919616
0.000790165
-0.00903765
0.000717213
-0.00867255
0.000609444
-0.00831601
0.00048918
-0.00803153
0.000440104
-0.00737909
0.000532713
-0.00562472
0.000743156
-0.00266922
0.000997991
0.0007572
0.00123903
0.00386392
0.00143328
0.00625272
0.00157163
0.0078716
0.0016613
0.00880779
0.00170871
0.00929053
0.00171248
0.00978789
0.00167545
0.0105926
0.00161519
0.0111576
0.0015553
0.0103105
0.0015123
0.00736572
0.00149488
0.00282124
0.00150321
-0.00200145
0.00152465
-0.00584379
0.00154024
-0.00821241
-0.00933875
0.000851965
-0.00915554
0.000798348
-0.00898404
0.000725548
-0.00859975
0.000619877
-0.00821034
0.000496909
-0.00790856
0.000435744
-0.00731793
0.000514188
-0.00570316
0.000717944
-0.00287298
0.000973589
0.000501554
0.00121952
0.00361799
0.00142052
0.00605172
0.00156613
0.00772599
0.00166247
0.00871145
0.00171545
0.00923755
0.00172417
0.00977917
0.00169184
0.010625
0.00163486
0.0112146
0.00157491
0.0103704
0.00152792
0.00741271
0.00150392
0.00284523
0.00150515
-0.00200269
0.00152063
-0.00585927
0.00153198
-0.00822376
-0.00933696
0.000863082
-0.00910893
0.000806163
-0.00892712
0.000733564
-0.00852715
0.000630513
-0.00810729
0.000506143
-0.00778419
0.00043388
-0.00724566
0.000497615
-0.0057669
0.000693408
-0.00306877
0.000948965
0.000245997
0.00119928
0.00336768
0.00140683
0.00584417
0.00155967
0.00757315
0.00166274
0.00860838
0.00172143
0.00917886
0.00173529
0.00976531
0.00170784
0.0106524
0.00165426
0.0112681
0.00159427
0.0104304
0.00154324
0.00746374
0.00151265
0.00287583
0.00150676
-0.0019968
0.00151625
-0.00586876
0.00152339
-0.0082309
-0.00933223
0.000873662
-0.00905651
0.000813556
-0.00886701
0.00074117
-0.00845477
0.000641156
-0.00800728
0.000516633
-0.00765967
0.000434423
-0.00716345
0.000483102
-0.00581557
0.000669661
-0.00325533
0.000924171
-8.51232e-06
0.00117833
0.00311352
0.0013922
0.0056303
0.00155222
0.00741312
0.00166208
0.00849852
0.0017266
0.00911435
0.00174579
0.00974612
0.0017234
0.0106748
0.00167332
0.0113182
0.00161332
0.0104904
0.00155826
0.0075188
0.00152104
0.00291304
0.00150802
-0.00198377
0.00151151
-0.00587225
0.00151446
-0.00823385
-0.00932462
0.000883641
-0.0089985
0.000820472
-0.00880384
0.000748288
-0.00838258
0.000651625
-0.00791062
0.000528123
-0.00753616
0.00043725
-0.00707258
0.000470743
-0.00584907
0.000646844
-0.00343143
0.000899229
-0.000260897
0.00115669
0.00285606
0.00137662
0.00541037
0.00154376
0.00724598
0.00166044
0.00838184
0.0017309
0.00904389
0.0017556
0.00972142
0.00173846
0.010692
0.001692
0.0113647
0.00163203
0.0105504
0.00157293
0.0075779
0.0015291
0.00295687
0.00150894
-0.00196361
0.00150642
-0.00586973
0.00150521
-0.00823264
-0.0093142
0.000892956
-0.0089351
0.000826863
-0.00873775
0.00075485
-0.00831057
0.00066175
-0.00781752
0.00054035
-0.00741476
0.000442205
-0.00697444
0.000460606
-0.00586747
0.000625042
-0.00359587
0.000874229
-0.000510084
0.00113438
0.00259591
0.00136009
0.00518466
0.00153426
0.00707181
0.00165778
0.00825833
0.00173429
0.00896738
0.00176467
0.00969104
0.00175295
0.0107037
0.00171024
0.0114074
0.00165036
0.0106103
0.00158724
0.00764102
0.00153681
0.00300729
0.00150953
-0.00193633
0.00150098
-0.00586118
0.00149563
-0.00822729
-0.00930105
0.000901549
-0.00886654
0.000832679
-0.00866888
0.000760796
-0.00823869
0.000671376
-0.0077281
0.000553047
-0.00729644
0.000449096
-0.00687048
0.000452731
-0.0058711
0.000604367
-0.0037475
0.000849255
-0.000754972
0.00111143
0.00233373
0.00134261
0.00495348
0.0015237
0.00689071
0.00165406
0.00812796
0.00173672
0.00888472
0.00177294
0.00965482
0.00176681
0.0107098
0.00172797
0.0114462
0.00166826
0.01067
0.00160116
0.00770812
0.00154416
0.00306429
0.00150978
-0.00190194
0.0014952
-0.00584661
0.00148573
-0.00821782
-0.00928524
0.000909366
-0.00879304
0.000837874
-0.00859739
0.000766074
-0.00816689
0.000680366
-0.00764239
0.000565956
-0.00718203
0.000457704
-0.00676223
0.000447131
-0.00586053
0.000584969
-0.00388534
0.000824383
-0.000994386
0.00108789
0.00207023
0.00132418
0.00471718
0.00151206
0.00670284
0.00164925
0.00799077
0.00173814
0.00879584
0.00178035
0.00961261
0.00177998
0.0107102
0.00174515
0.0114811
0.0016857
0.0107294
0.00161466
0.00777915
0.00155114
0.00312781
0.00150969
-0.00186049
0.00148909
-0.005826
0.00147551
-0.00820424
-0.00926682
0.000916355
-0.00871483
0.000842402
-0.00852343
0.000770643
-0.00809513
0.000688598
-0.00756034
0.000578823
-0.00707225
0.000467784
-0.00665119
0.000443787
-0.00583653
0.000567013
-0.00400857
0.000799717
-0.00122709
0.00106379
0.00180616
0.00130483
0.00447614
0.00149931
0.00650835
0.00164331
0.00784677
0.0017385
0.00870065
0.00178684
0.00956426
0.00179239
0.0107046
0.00176173
0.0115117
0.00170263
0.0107885
0.00162773
0.00785405
0.00155775
0.00319779
0.00150927
-0.00181201
0.00148264
-0.00579937
0.00146497
-0.00818657
-0.00924588
0.00092247
-0.00863216
0.000846223
-0.00844719
0.000774465
-0.00802337
0.000695971
-0.00748185
0.000591411
-0.00696769
0.00047907
-0.00653885
0.000442644
-0.00580011
0.000550641
-0.00411656
0.000775381
-0.00145183
0.0010392
0.00154234
0.00128455
0.0042308
0.00148546
0.00630744
0.0016362
0.00769603
0.00173775
0.00859911
0.00179235
0.00950965
0.00180398
0.010693
0.00177764
0.0115381
0.00171902
0.0108472
0.00164035
0.00793272
0.00156396
0.00327418
0.00150852
-0.00175657
0.00147587
-0.00576673
0.00145411
-0.0081648
-0.00922246
0.000927672
-0.00854526
0.000849295
-0.00836881
0.000777511
-0.00795158
0.000702399
-0.00740674
0.000603494
-0.00686879
0.000491283
-0.00642664
0.000443609
-0.00575243
0.000535974
-0.00420893
0.000751507
-0.00166736
0.00101419
0.00127966
0.00126338
0.00398161
0.00147049
0.00610033
0.00162791
0.00753861
0.00173585
0.00849117
0.00179684
0.00944866
0.0018147
0.0106751
0.00179283
0.0115599
0.00173484
0.0109051
0.00165248
0.00801508
0.00156978
0.00335687
0.00150743
-0.00169422
0.00146878
-0.00572807
0.00144293
-0.00813895
-0.00919663
0.000931925
0.000851583
-0.00828847
0.000779755
-0.00787976
0.000707816
-0.0073348
0.00061487
-0.00677584
0.000504135
-0.00631591
0.00044655
-0.00569485
0.000523112
-0.00428549
0.000728237
-0.00187249
0.000988826
0.00101907
0.00124134
0.00372909
0.00145439
0.00588728
0.00161839
0.00737461
0.00173275
0.00837681
0.00180023
0.00938119
0.00182447
0.0106509
0.00180725
0.0115771
0.00175004
0.0109624
0.00166412
0.00810101
0.0015752
0.00344579
0.00150602
-0.00162504
0.00146137
-0.00568341
0.00143143
-0.00810902
-0.00916845
0.000853052
-0.00820632
0.000781176
-0.00780788
0.000712169
-0.00726579
0.000625355
-0.00668903
0.000517338
-0.00620789
0.0004513
-0.00562881
0.000512129
-0.00434632
0.000705721
-0.00206608
0.00096321
0.00076158
0.00121848
0.00347382
0.00143717
0.00566859
0.00160763
0.00720416
0.00172842
0.00825601
0.00180248
0.00930713
0.00183325
0.0106201
0.00182086
0.0115895
0.0017646
0.0110186
0.00167524
0.00819037
0.00158022
0.0035408
0.00150428
-0.0015491
0.00145365
-0.00563278
0.00141963
-0.008075
-0.00913796
0.000853673
-0.00812253
0.000781756
-0.00773596
0.000715423
-0.00719946
0.000634787
-0.00660839
0.000530607
-0.00610371
0.000457656
-0.00555586
0.000503068
-0.00439173
0.000684112
-0.00224712
0.000937441
0.000508252
0.00119483
0.00321643
0.00141884
0.00544458
0.00159561
0.00702739
0.00172282
0.00812879
0.00180354
0.00922641
0.00184097
0.0105827
0.0018336
0.0115969
0.00177847
0.0110738
0.00168583
0.00828301
0.00158483
0.0036418
0.00150223
-0.0014665
0.00144562
-0.00557617
0.0014075
-0.00803688
-0.00910521
0.000853417
-0.00803724
0.00078148
-0.00766403
0.000717554
-0.00713553
0.000643031
-0.00653387
0.000543667
-0.00600435
0.000465389
-0.00547758
0.000495938
-0.00442228
0.000663564
-0.00241475
0.000911637
0.000260178
0.00117046
0.00295761
0.0013994
0.00521564
0.0015823
0.00684449
0.00171591
0.00799519
0.00180335
0.00913897
0.00184758
0.0105385
0.00184542
0.0115991
0.00179164
0.0111275
0.00169587
0.00837877
0.00158904
0.00374864
0.00149986
-0.00137732
0.00143729
-0.00551361
0.00139507
-0.00799466
-0.00907025
0.000852262
-0.00795059
0.000780335
-0.0075921
0.000718552
-0.00707375
0.000649971
-0.00646528
0.000556256
-0.00591063
0.000474247
-0.00539557
0.000490709
-0.00443874
0.000644232
-0.00256827
0.000885947
1.84638e-05
0.00114542
0.00269813
0.00137888
0.00498218
0.00156772
0.00665566
0.00170766
0.00785525
0.00180186
0.00904477
0.00185303
0.0104873
0.00185627
0.0115958
0.00180406
0.0111798
0.00170536
0.00847747
0.00159284
0.00386116
0.00149718
-0.00128167
0.00142868
-0.0054451
0.00138232
-0.0079483
-0.00903311
0.00085019
-0.00786272
0.000778309
-0.00752022
0.000718417
-0.00701386
0.00065552
-0.00640239
0.000568132
-0.00582324
0.000483964
-0.0053114
0.000487314
-0.00444209
0.000626233
-0.00270719
0.000860453
-0.000215756
0.00111978
0.0024388
0.0013573
0.00474466
0.00155183
0.00646112
0.00169803
0.00770905
0.00179904
0.00894376
0.00185725
0.0104291
0.00186612
0.011587
0.00181571
0.0112302
0.00171428
0.0085789
0.00159625
0.00397919
0.00149422
-0.00117964
0.00141977
-0.00537065
0.00136926
-0.00789779
-0.00899382
0.000847188
-0.00777375
0.000775394
-0.00744842
0.000717155
-0.00695562
0.00065961
-0.00634484
0.000579073
-0.0057427
0.000494266
-0.0052266
0.000485636
-0.00443346
0.000609644
-0.0028312
0.000835289
-0.0004414
0.00109364
0.00218045
0.00133469
0.0045036
0.00153465
0.00626117
0.00168702
0.00755669
0.00179483
0.00883594
0.0018602
0.0103637
0.0018749
0.0115723
0.00182655
0.0112785
0.00172263
0.00868282
0.00159928
0.00410254
0.00149098
-0.00107133
0.00141059
-0.00529026
0.00135589
-0.0078431
-0.00895241
0.00084324
-0.0076838
0.000771578
-0.00737676
0.000714779
-0.00689882
0.000662195
-0.00629226
0.000588877
-0.00566939
0.000504875
-0.0051426
0.000485529
-0.00441412
0.000594471
-0.00294014
0.000810639
-0.000657569
0.00106707
0.00192402
0.00131111
0.00425957
0.00151619
0.00605608
0.00167458
0.00739829
0.00178921
0.00872132
0.00186182
0.0102911
0.00188259
0.0115515
0.00183657
0.0113245
0.0017304
0.00878899
0.00160195
0.00423099
0.00148747
-0.000956855
0.00140113
-0.00520392
0.00134222
-0.00778419
-0.00890891
0.000838321
-0.00759297
0.000766837
-0.00730528
0.000711296
-0.00684328
0.00066324
-0.0062442
0.000597362
-0.00560351
0.000515516
-0.00506075
0.000486814
-0.00438541
0.000580779
-0.00303411
0.000786608
-0.000863398
0.00104021
0.00167041
0.00128659
0.00401319
0.00149645
0.00584623
0.00166072
0.00723401
0.00178212
0.00859992
0.00186208
0.0102112
0.00188913
0.0115244
0.00184573
0.0113679
0.0017376
0.00889713
0.00160429
0.0043643
0.00148374
-0.000836307
0.00139142
-0.00511159
0.00132824
-0.00772101
-0.00886333
0.000832435
-0.00750137
0.000761171
-0.00723401
0.000706733
-0.00678884
0.000662743
-0.00620021
0.000604379
-0.00554514
0.00052593
-0.0049823
0.000489296
-0.00434878
0.000568616
-0.00311343
0.000763356
-0.00105814
0.00101319
0.00142058
0.00126123
0.00376516
0.00147546
0.00563199
0.00164543
0.00706405
0.00177354
0.00847181
0.00186092
0.0101238
0.00189449
0.0114909
0.00185401
0.0114084
0.00174424
0.0090069
0.00160635
0.00450219
0.00147981
-0.00070977
0.00138145
-0.00501323
0.00131395
-0.0076535
-0.00881566
0.000825688
-0.00740907
0.000754666
-0.00716299
0.000701185
-0.00673536
0.000660768
-0.0061598
0.000609843
-0.00549422
0.000535897
-0.00490836
0.000492789
-0.00430567
0.000557956
-0.00317859
0.000741008
-0.00124119
0.000986162
0.00117542
0.00123512
0.0035162
0.00145328
0.00541383
0.0016287
0.00688862
0.00176344
0.00833707
0.0018583
0.0100289
0.00189862
0.0114505
0.00186137
0.0114457
0.00175033
0.00911794
0.00160818
0.00464434
0.00147572
-0.000577305
0.00137125
-0.00490876
0.00129937
-0.00758162
-0.00876594
0.000818151
-0.00731616
0.000747374
-0.00709221
0.00069472
-0.00668271
0.00065737
-0.00612245
0.000613672
-0.00545052
0.000545194
-0.00483988
0.000497075
-0.00425755
0.000548715
-0.00323023
0.000719666
-0.00141214
0.000959318
0.000935772
0.00120844
0.00326708
0.00142999
0.00519229
0.00161057
0.00670804
0.00175182
0.00819582
0.00185419
0.00992655
0.00190147
0.0114033
0.0018678
0.0114793
0.00175593
0.00922981
0.00160987
0.0047904
0.0014715
-0.000438934
0.00136083
-0.00479809
0.00128451
-0.0075053
-0.00871414
0.000809275
0.000738813
-0.00702175
0.000686973
-0.00663087
0.000652285
-0.00608776
0.000615558
-0.00541379
0.000553425
-0.00477775
0.00050179
-0.00420592
0.000540665
-0.00326911
0.000699315
-0.00157079
0.000932832
0.000702255
0.00118139
0.00301852
0.00140574
0.00496793
0.0015911
0.00652269
0.00173866
0.00804826
0.00184855
0.00981666
0.00190302
0.0113488
0.00187329
0.0115091
0.00176117
0.00934192
0.00161163
0.00493994
0.00146728
-0.000294585
0.00135022
-0.00468103
0.00126932
-0.00742441
-0.00866024
0.000728199
-0.00695181
0.000677335
-0.00658001
0.000645063
-0.00605549
0.000615079
-0.00538381
0.000560142
-0.00472281
0.00050655
-0.00415233
0.000533515
-0.00329607
0.000679767
-0.00171704
0.000906733
0.000475289
0.0011542
0.00277105
0.00138078
0.00474136
0.00157043
0.00633303
0.00172402
0.00789468
0.00184141
0.00969927
0.00190328
0.0112869
0.00187799
0.0115344
0.00176649
0.00945342
0.00161401
0.00509242
0.00146336
-0.000143931
0.0013394
-0.00455707
0.00125364
-0.00733864
-0.00860417
0.000717657
-0.00688223
0.000667572
-0.00652992
0.000637152
-0.00602507
0.000613323
-0.00535998
0.000566118
-0.0046756
0.000511994
-0.0040982
0.000527819
-0.0033119
0.000661351
-0.00185058
0.00088126
0.00025538
0.00112731
0.00252499
0.0013555
0.00451317
0.00154883
0.00613969
0.00170801
0.0077355
0.00183282
0.00957447
0.00190239
0.0112173
0.00188226
0.0115545
0.00177238
0.00956331
0.00161733
0.00524746
0.00145981
1.35912e-05
0.00132825
-0.00442551
0.00123767
-0.00724806
-0.00854604
0.000713218
-0.00681188
0.0006628
-0.0064795
0.000632933
-0.0059952
0.000613982
-0.00534103
0.000574423
-0.00463604
0.000520926
-0.00404471
0.000526427
-0.0033174
0.000647484
-0.00197163
0.000859662
4.32028e-05
0.00110318
0.00228148
0.00133185
0.0042845
0.0015278
0.00594375
0.00169174
0.00757156
0.00182354
0.00944266
0.00190075
0.0111401
0.00188615
0.0115691
0.00177784
0.00967162
0.0016182
0.00540711
0.00145375
0.000178043
0.00131639
-0.00428816
0.00122256
-0.00715423
-0.00848645
0.00529995
-0.00638073
0.0048872
-0.00606675
0.004508
-0.00561599
0.00416414
-0.00499717
0.00378002
-0.00425192
0.00332005
-0.00358473
0.00293031
-0.00292766
0.00280051
-0.00184183
0.00297246
-0.000128748
0.00330808
0.00194586
0.00370741
0.00388517
0.00405377
0.00559738
0.00428222
0.00734311
0.0044251
0.00929978
0.00456963
0.0109956
0.00479256
0.0113461
0.00516234
0.00930184
0.00562284
0.00494661
0.00598309
-0.00018221
0.00617805
-0.00448312
0.00618055
-0.00715673
0.00604945
-0.00835534
-0.00863229
0.00549437
-0.00595296
0.00509272
-0.0056651
0.00472005
-0.00524332
0.00438904
-0.00466617
0.00405135
-0.00391424
0.00363773
-0.00317111
0.003229
-0.00251894
0.00302321
-0.00163604
0.00309799
-0.000203533
0.00341121
0.00163264
0.0037984
0.00349798
0.0041408
0.00525499
0.00438533
0.00709857
0.00457183
0.00911328
0.00476776
0.0107997
0.00504343
0.0110705
0.00545617
0.0088891
0.00593992
0.00446286
0.00633057
-0.000572861
0.00649453
-0.00464709
0.00645424
-0.00711644
0.0062814
-0.0081825
-0.0083889
0.00570882
-0.00553252
0.00531522
-0.00527151
0.00494663
-0.00487473
0.004619
-0.00433853
0.00431393
-0.00360917
0.00395364
-0.00281082
0.00355083
-0.00211613
0.00327457
-0.00135978
0.00327409
-0.000203054
0.00352262
0.00138411
0.00388431
0.00313629
0.00422437
0.00491493
0.00449226
0.00683068
0.00472063
0.00888491
0.00496593
0.0105544
0.00530466
0.0107317
0.00578495
0.00840881
0.00630375
0.00394406
0.00668688
-0.00095599
0.00681587
-0.00477607
0.00672833
-0.00702889
0.00651651
-0.00797068
-0.00811839
0.00591197
-0.0051244
0.00553088
-0.00489042
0.00517317
-0.00451702
0.00485072
-0.00401608
0.00456912
-0.00332757
0.00426406
-0.00250576
0.00389607
-0.00174814
0.00357886
-0.00104257
0.00348331
-0.000107499
0.00364995
0.00121747
0.00396866
0.00281759
0.00430511
0.00457848
0.00460104
0.00653475
0.0048737
0.00861225
0.00517608
0.010252
0.00558985
0.010318
0.00613948
0.00785918
0.00669222
0.00339132
0.007057
-0.00132077
0.00714115
-0.00486022
0.00700305
-0.0068908
0.00675131
-0.00771894
-0.00782192
0.00611177
-0.00473201
0.00574467
-0.00452332
0.0054011
-0.00417345
0.00508666
-0.00370164
0.00482045
-0.00306136
0.00456476
-0.00225007
0.00425123
-0.00143461
0.00392521
-0.000716556
0.00374505
7.26604e-05
0.00380934
0.00115319
0.00406397
0.00256296
0.00438939
0.00425305
0.00471372
0.00621042
0.0050349
0.00829107
0.00540316
0.00988375
0.00589962
0.0098215
0.00652186
0.00723695
0.00709928
0.0028139
0.00743411
-0.00165561
0.00746494
-0.00489104
0.00727438
-0.00670024
0.00698371
-0.00742827
-0.00750195
0.0063096
-0.00435775
0.00595766
-0.00417138
0.00562998
-0.00384577
0.0053273
-0.00339896
0.00507131
-0.00280537
0.00485315
-0.00203192
0.00460298
-0.00118444
0.00430375
-0.000417324
0.00406693
0.000309478
0.00402453
0.00119559
0.0041933
0.00239418
0.00449114
0.00395521
0.00483736
0.0058642
0.00520868
0.00791975
0.00564931
0.00944312
0.00623671
0.0092341
0.00693214
0.00654151
0.00752044
0.0022256
0.00781096
-0.00194613
0.00778157
-0.00486165
0.00753878
-0.00645744
0.00721188
-0.00710137
-0.00716167
0.00650693
-0.00400298
0.00617108
-0.00383553
0.00585971
-0.0035344
0.00557205
-0.0031113
0.00532503
-0.00255835
0.00513113
-0.00183801
0.00494058
-0.000993888
0.0046968
-0.000173544
0.00444614
0.000560135
0.00431594
0.00132579
0.00438593
0.00232419
0.00463273
0.00370842
0.00498477
0.00551216
0.00540152
0.00750301
0.00592035
0.00892429
0.00660679
0.00854765
0.00736802
0.00578028
0.00794807
0.00164555
0.00817931
-0.00217737
0.00808511
-0.00476745
0.00779283
-0.00616515
0.00743409
-0.00674264
-0.00680501
0.00670479
-0.00366828
0.00638586
-0.00351661
0.0060906
-0.00323915
0.00581978
-0.00284048
0.0055836
-0.00232216
0.00540367
-0.00165808
0.00525919
-0.000849412
0.00508411
1.54081e-06
0.00486538
0.00077886
0.00468967
0.0015015
0.00466863
0.00234524
0.00484358
0.00353347
0.0051772
0.00517854
0.00562829
0.00705192
0.00622984
0.00832274
0.00701661
0.00776088
0.00782516
0.00497174
0.00837182
0.00109889
0.00853003
-0.00233557
0.00836964
-0.00460707
0.00803346
-0.00582897
0.00764901
-0.00635819
-0.00643644
0.00690391
-0.00335363
0.00660254
-0.00321524
0.00632318
-0.00295978
0.00606947
-0.00258677
0.00584699
-0.00209968
0.0056763
-0.00148739
0.00556073
-0.000733843
0.00545036
0.000111909
0.00529648
0.000932747
0.00512991
0.00166807
0.0050529
0.00242225
0.00515317
0.0034332
0.00544596
0.00488575
0.00591705
0.00658083
0.00659961
0.00764018
0.00747259
0.0068879
0.00829482
0.00414951
0.00877928
0.000614419
0.00885346
-0.00240976
0.00862992
-0.00438352
0.00825836
-0.00545741
0.0078558
-0.00595562
-0.00606076
0.00710482
-0.00305868
0.00682134
-0.00293176
0.0065579
-0.00269634
0.00632066
-0.00234953
0.00611386
-0.00189288
0.00595247
-0.00132601
0.00585229
-0.000633655
0.0057899
0.000174295
0.00571123
0.00101142
0.00560092
0.00177837
0.00552244
0.00250073
0.00557429
0.00338135
0.00582225
0.00463778
0.006303
0.00610009
0.00705236
0.00689082
0.00797418
0.00596608
0.00876173
0.00336196
0.0091547
0.000221448
0.00914029
-0.00239535
0.008862
-0.00410523
0.00846627
-0.00506169
0.00805422
-0.00554356
-0.00568286
0.00730788
-0.00278291
0.00704228
-0.00266616
0.00679494
-0.002449
0.00657338
-0.00212797
0.00638271
-0.00170222
0.00623281
-0.0011761
0.0061413
-0.000542152
0.00610728
0.000208322
0.00609286
0.00102583
0.00606151
0.00180973
0.00603283
0.00252942
0.00608461
0.00332956
0.00631181
0.00441058
0.00680296
0.00560894
0.00758992
0.00610385
0.00850108
0.00505492
0.00920001
0.00266303
0.00948109
-5.96322e-05
0.00938314
-0.00229741
0.00906418
-0.00378627
0.00865729
-0.0046548
0.00824465
-0.00513092
-0.00530736
0.00751333
-0.00252574
0.00726536
-0.00241819
0.00703422
-0.00221786
0.00682781
-0.00192156
0.00665264
-0.00152705
0.00651592
-0.00103938
0.0064321
-0.00045833
0.00641212
0.000228303
0.00644051
0.000997432
0.00648311
0.00176713
0.00653033
0.00248219
0.00662798
0.00323191
0.00687467
0.00416389
0.00738525
0.00509836
0.00817066
0.00531844
0.00900741
0.00421818
0.00957775
0.00209269
0.00974302
-0.000224905
0.00957886
-0.00213325
0.00923764
-0.00344505
0.00883291
-0.00425006
0.00842805
-0.00472606
-0.00493837
0.00772129
-0.00228657
0.00749053
-0.00218744
0.00727551
-0.00200284
0.00708395
-0.00173
0.00692333
-0.00136643
0.00680024
-0.000916293
0.00672527
-0.000383357
0.00671265
0.000240923
0.00676386
0.000946219
0.00685854
0.00167245
0.00697741
0.00236332
0.00714202
0.00306731
0.00743829
0.00386762
0.00797189
0.00456476
0.00871744
0.00457288
0.00943631
0.00349931
0.0098673
0.00166171
0.00993525
-0.000292855
0.00973053
-0.00192853
0.00938659
-0.00310111
0.00899577
-0.00385924
0.00860569
-0.00433598
-0.00457937
0.00793183
-0.00206475
0.00771778
-0.00197339
0.00751859
-0.00180365
0.00734164
-0.00155305
0.00719472
-0.0012195
0.00708466
-0.00080623
0.0070196
-0.000318305
0.00701275
0.000247778
0.00707406
0.000884913
0.00719671
0.0015498
0.00736469
0.00219534
0.00758912
0.00284288
0.00793754
0.0035192
0.00848198
0.00402032
0.00915986
0.003895
0.00975015
0.00290901
0.0100617
0.00135015
0.0100651
-0.000296235
0.00984724
-0.00171069
0.00951733
-0.0027712
0.00914916
-0.00349107
0.008779
-0.00396582
-0.00423313
0.00814497
-0.00185963
0.00794707
-0.00177549
0.00776325
-0.00161983
0.00760059
-0.00139038
0.00746671
-0.00108563
0.00736864
-0.000708165
0.00731363
-0.000263287
0.00731271
0.000248691
0.00737808
0.000819543
0.00751118
0.0014167
0.00770352
0.002003
0.00796498
0.00258141
0.00834463
0.00313956
0.00887585
0.0034891
0.00947281
0.00329804
0.00995045
0.00243137
0.0101777
0.00112296
0.0101502
-0.000268809
0.00994127
-0.00150173
0.00963674
-0.00246667
0.00929635
-0.00315068
0.00894931
-0.00361878
-0.00390184
0.0083607
-0.00167047
0.00817835
-0.00159313
0.00800936
-0.00145084
0.0078605
-0.00124152
0.00773905
-0.000964176
0.00765208
-0.000621196
0.00760633
-0.000217537
0.0076114
0.000243617
0.00767847
0.000752473
0.00781241
0.00128276
0.00801116
0.00180426
0.00828559
0.00230699
0.00866821
0.00275694
0.00916277
0.00299453
0.00967838
0.00278244
0.010069
0.0020408
0.0102452
0.000946689
0.0102114
-0.000235029
0.0100244
-0.00131474
0.00975084
-0.00219307
0.0094402
-0.00284004
0.0091178
-0.00329637
-0.00358714
0.00857905
-0.00149655
0.00841157
-0.00142565
0.00825678
-0.00129605
0.00812113
-0.00110587
0.0080115
-0.000854545
0.00793468
-0.000544378
0.0078973
-0.00018016
0.00790772
0.000233206
0.00797539
0.000684801
0.0081059
0.00115225
0.00830085
0.0016093
0.00857055
0.00203729
0.00893392
0.00239357
0.00937777
0.00255068
0.00981909
0.00234112
0.0101456
0.00171426