/*--------------------------------*- C++ -*----------------------------------*\
  =========                 |
  \\      /  F ield         | OpenFOAM: The Open Source CFD Toolbox
   \\    /   O peration     | Website:  https://openfoam.org
    \\  /    A nd           | Version:  7
     \\/     M anipulation  |
\*---------------------------------------------------------------------------*/
FoamFile
{
    version     2.0;
    format      ascii;
    class       volVectorField;
    location    "300";
    object      U;
}
// * * * * * * * * * * * * * * * * * * * * * * * * * * * * * * * * * * * * * //

dimensions      [0 1 -1 0 0 0 0];

internalField   nonuniform List<vector> 
4575
(
(0.345278 -0.696535 2.14109e-22)
(0.360889 -0.707043 -9.92155e-23)
(0.348519 -0.707595 -8.52388e-23)
(0.314503 -0.697884 8.78678e-23)
(0.293326 -0.638604 -9.25002e-23)
(0.326838 -0.484846 -1.23844e-22)
(0.410156 -0.246574 2.90462e-23)
(0.513815 0.0192525 1.71284e-22)
(0.615811 0.255683 8.93412e-23)
(0.701511 0.428253 -2.86039e-22)
(0.76378 0.530287 1.488e-22)
(0.800336 0.5773 -5.77876e-23)
(0.814512 0.589405 -2.60719e-23)
(0.81531 0.580583 4.01054e-23)
(0.804597 0.569576 3.74942e-23)
(0.774041 0.575856 -2.50305e-24)
(0.724141 0.584682 -4.80893e-23)
(0.677766 0.53966 8.3083e-24)
(0.661372 0.395677 -1.39464e-22)
(0.681364 0.170248 1.41054e-22)
(0.72767 -0.0713023 -4.29987e-23)
(0.783179 -0.268603 2.88236e-23)
(0.830779 -0.39741 -1.19681e-22)
(0.36613 -0.700661 1.09596e-21)
(0.378726 -0.707213 -8.96202e-23)
(0.36391 -0.704094 -5.02768e-22)
(0.326004 -0.693661 3.75554e-22)
(0.296657 -0.639057 -7.33599e-22)
(0.320288 -0.492657 7.7839e-22)
(0.397144 -0.259288 1.98886e-23)
(0.497963 0.00528848 -1.63964e-22)
(0.599746 0.242998 -5.95317e-22)
(0.687158 0.418321 6.93428e-22)
(0.752136 0.523698 -4.49586e-22)
(0.791524 0.573894 3.53319e-22)
(0.808464 0.588305 -5.29145e-23)
(0.811744 0.58105 -4.33418e-22)
(0.802674 0.5719 3.60405e-22)
(0.772914 0.580367 -2.24331e-22)
(0.723967 0.590016 2.34233e-22)
(0.679493 0.543191 -1.30406e-23)
(0.665328 0.39576 -9.06172e-23)
(0.687036 0.167129 3.44609e-22)
(0.734226 -0.0762396 -5.53426e-22)
(0.789772 -0.273616 4.68517e-22)
(0.83663 -0.401248 -4.26821e-22)
(0.387363 -0.704253 2.05693e-21)
(0.396823 -0.707013 -1.37579e-21)
(0.379678 -0.700207 -1.79309e-22)
(0.338366 -0.688719 3.97678e-23)
(0.301427 -0.638517 1.47969e-21)
(0.315088 -0.499782 1.66914e-23)
(0.385081 -0.271931 -5.56209e-22)
(0.482741 -0.009018 3.61525e-22)
(0.584077 0.229779 -3.34022e-22)
(0.673032 0.407819 2.38582e-23)
(0.740595 0.516607 2.82964e-23)
(0.782766 0.570081 -7.7355e-23)
(0.802485 0.586881 -2.06063e-23)
(0.80827 0.581289 -5.76427e-23)
(0.800862 0.574081 3.84922e-22)
(0.771945 0.584757 -3.8478e-22)
(0.724035 0.595224 -3.71282e-23)
(0.681503 0.546674 -3.79995e-22)
(0.669548 0.395963 3.36287e-22)
(0.692936 0.164272 -4.55131e-24)
(0.74096 -0.080867 2.6784e-22)
(0.79649 -0.278343 -3.63214e-23)
(0.842577 -0.404839 1.3106e-22)
(0.40895 -0.707307 1.6345e-21)
(0.415156 -0.706461 -1.44986e-21)
(0.395766 -0.695988 9.29014e-22)
(0.351506 -0.68313 -1.57355e-21)
(0.307604 -0.636994 7.56764e-22)
(0.311288 -0.506154 -3.70493e-22)
(0.374023 -0.284432 6.36922e-22)
(0.468196 -0.0236258 -1.10977e-21)
(0.568839 0.216048 6.72413e-22)
(0.659153 0.396757 3.89684e-22)
(0.729168 0.509013 2.92476e-22)
(0.774067 0.565853 2.05676e-22)
(0.796577 0.585125 -4.9252e-22)
(0.804886 0.58129 -2.89746e-22)
(0.799157 0.576105 6.32366e-24)
(0.771134 0.589011 3.70156e-22)
(0.724341 0.6003 6.47805e-22)
(0.683784 0.550116 -4.95232e-23)
(0.67402 0.396299 1.15209e-22)
(0.699053 0.161691 -4.5644e-22)
(0.747867 -0.085175 1.41117e-22)
(0.803329 -0.282778 -7.2826e-24)
(0.848618 -0.408182 -8.69291e-22)
(0.430864 -0.70982 1.11222e-21)
(0.433701 -0.705572 -8.75236e-22)
(0.412123 -0.691492 9.20612e-22)
(0.365342 -0.676971 -3.67374e-22)
(0.315141 -0.634512 3.19889e-22)
(0.308935 -0.511714 -1.40184e-21)
(0.364024 -0.296718 1.8501e-21)
(0.454374 -0.0384891 7.64755e-23)
(0.554068 0.201834 -6.03168e-22)
(0.645542 0.385147 -1.14641e-21)
(0.717863 0.500918 2.75562e-22)
(0.765432 0.561202 -2.84461e-22)
(0.790736 0.583027 3.55229e-22)
(0.801588 0.581044 -7.56484e-23)
(0.797555 0.577959 -1.3399e-22)
(0.770477 0.593114 4.58964e-23)
(0.724878 0.605236 3.24002e-22)
(0.686325 0.553521 1.69742e-22)
(0.678731 0.39678 3.40098e-23)
(0.705378 0.159397 6.93018e-22)
(0.754941 -0.0891542 -3.0429e-22)
(0.810288 -0.286917 -8.74498e-22)
(0.854751 -0.411279 3.54923e-22)
(0.453073 -0.711792 -2.78252e-21)
(0.452437 -0.704358 8.95141e-22)
(0.4287 -0.686768 -1.34681e-22)
(0.379788 -0.670319 -1.86694e-21)
(0.32398 -0.631104 1.54816e-21)
(0.308066 -0.516406 -3.11223e-22)
(0.355135 -0.308711 -1.24748e-22)
(0.441319 -0.0535564 2.22955e-21)
(0.539797 0.187164 -1.64713e-21)
(0.632218 0.373004 1.1822e-21)
(0.706691 0.492323 -4.81475e-22)
(0.756864 0.556123 -5.86789e-22)
(0.784963 0.580578 7.36984e-22)
(0.798371 0.58054 -4.14976e-22)
(0.796052 0.579631 -2.78856e-22)
(0.769971 0.597053 -1.03234e-23)
(0.725638 0.610026 -8.04444e-22)
(0.689112 0.556896 4.30092e-22)
(0.683668 0.397418 -1.16996e-21)
(0.711899 0.157403 -4.75528e-22)
(0.762174 -0.092796 1.21156e-21)
(0.817362 -0.290758 6.21812e-22)
(0.860976 -0.414131 5.37377e-22)
(0.475544 -0.71322 -3.86846e-21)
(0.471343 -0.70283 1.73459e-21)
(0.445452 -0.68186 -2.22758e-21)
(0.394762 -0.663254 -3.67537e-22)
(0.334046 -0.626813 6.80559e-22)
(0.308709 -0.520184 -7.81661e-22)
(0.347405 -0.320333 -6.89466e-22)
(0.429073 -0.0687741 -5.78394e-22)
(0.526059 0.17207 1.15119e-21)
(0.619201 0.360343 1.19813e-21)
(0.695662 0.483231 1.11782e-21)
(0.748366 0.550607 -1.19476e-21)
(0.779256 0.577769 1.16353e-21)
(0.795229 0.579771 -6.07277e-22)
(0.794642 0.581108 -6.5211e-22)
(0.76961 0.600812 9.093e-22)
(0.726611 0.614665 7.71342e-22)
(0.69213 0.560245 -2.26724e-21)
(0.688815 0.398222 6.37097e-22)
(0.718602 0.155717 5.94926e-22)
(0.769558 -0.0960923 -5.75237e-22)
(0.824547 -0.294297 6.6889e-22)
(0.867289 -0.41674 -7.06948e-22)
(0.498237 -0.714107 -2.24596e-22)
(0.490397 -0.700995 6.8957e-22)
(0.462338 -0.676808 1.65638e-21)
(0.41018 -0.655858 -1.16762e-21)
(0.345256 -0.621695 1.70757e-22)
(0.310883 -0.52301 3.11441e-23)
(0.340881 -0.331503 -1.09262e-21)
(0.417673 -0.0840837 -9.09893e-22)
(0.512884 0.156588 2.30813e-21)
(0.606509 0.347183 -2.75154e-22)
(0.684786 0.473647 -8.81522e-22)
(0.739943 0.544651 -7.50022e-22)
(0.773613 0.574592 1.18745e-21)
(0.792159 0.578725 -8.73635e-22)
(0.79332 0.582376 1.31652e-22)
(0.769391 0.604379 -5.63734e-22)
(0.727787 0.619146 1.38314e-21)
(0.695365 0.563573 -1.49778e-21)
(0.694156 0.399203 5.95849e-22)
(0.725474 0.154351 1.41321e-21)
(0.777085 -0.0990355 -2.26538e-21)
(0.83184 -0.297529 -4.94258e-22)
(0.873688 -0.419107 1.04711e-21)
(0.521112 -0.714453 2.25395e-21)
(0.509579 -0.698861 8.13733e-22)
(0.479321 -0.671649 -5.78062e-22)
(0.425961 -0.648207 8.05921e-22)
(0.357513 -0.615814 1.69327e-21)
(0.31459 -0.524856 -2.93005e-21)
(0.335608 -0.342139 6.58641e-22)
(0.407157 -0.0994227 1.58167e-21)
(0.5003 0.140754 -8.0764e-22)
(0.59416 0.333543 2.27582e-21)
(0.674071 0.463574 -2.51148e-21)
(0.731598 0.538249 8.8179e-22)
(0.768032 0.57104 -1.12953e-21)
(0.789153 0.577394 1.04874e-22)
(0.79208 0.583423 -2.11722e-22)
(0.769306 0.607741 1.0275e-21)
(0.729155 0.623464 -5.31636e-22)
(0.698802 0.566885 -1.06572e-21)
(0.699675 0.400368 -6.76182e-22)
(0.732499 0.153311 2.63771e-21)
(0.784744 -0.101619 1.36266e-21)
(0.839236 -0.300453 3.00833e-22)
(0.880171 -0.421232 -8.00474e-22)
(0.544127 -0.714264 2.83917e-21)
(0.528867 -0.696432 2.24731e-21)
(0.496369 -0.666412 -2.33763e-21)
(0.442027 -0.640379 -4.03823e-21)
(0.370718 -0.609244 -4.50376e-22)
(0.319819 -0.525707 3.29632e-22)
(0.33163 -0.35216 4.89623e-21)
(0.397558 -0.114727 -3.5697e-21)
(0.488333 0.124609 1.54135e-21)
(0.582169 0.319445 -2.25172e-21)
(0.663527 0.45302 1.30324e-21)
(0.723335 0.531398 -5.66239e-22)
(0.762511 0.567103 4.57939e-22)
(0.786207 0.575768 -7.06134e-22)
(0.790915 0.584235 3.11912e-23)
(0.769349 0.610883 -7.71751e-22)
(0.730703 0.627614 1.53058e-21)
(0.702423 0.570182 -1.31973e-21)
(0.705354 0.401726 1.00151e-21)
(0.73966 0.152607 -2.50999e-21)
(0.792526 -0.103836 5.28954e-22)
(0.846729 -0.303064 -2.73038e-21)
(0.886733 -0.423118 1.4035e-21)
(0.567236 -0.713544 -7.11358e-22)
(0.548236 -0.693714 3.2407e-21)
(0.513451 -0.661122 -3.58084e-21)
(0.458306 -0.632446 6.56793e-22)
(0.384761 -0.602066 -2.05094e-21)
(0.326542 -0.525559 3.13943e-21)
(0.328988 -0.361487 2.32109e-21)
(0.388905 -0.129926 2.43664e-22)
(0.477006 0.108195 -3.28936e-21)
(0.570552 0.304911 6.65245e-22)
(0.653162 0.44199 2.5268e-21)
(0.715156 0.524093 -5.36511e-22)
(0.757048 0.562777 -1.41261e-21)
(0.783314 0.573838 -3.81864e-22)
(0.789819 0.584799 2.77911e-21)
(0.769511 0.613794 -3.77406e-23)
(0.732419 0.631588 -7.22274e-22)
(0.706213 0.573469 3.73302e-22)
(0.711173 0.403282 -7.71847e-22)
(0.746942 0.152244 3.20679e-21)
(0.800419 -0.105681 -1.37132e-21)
(0.854315 -0.30536 3.68212e-21)
(0.893372 -0.424766 -1.52639e-21)
(0.911208 -0.477714 1.6069e-21)
(0.590393 -0.7123 8.04504e-22)
(0.567664 -0.690711 -3.35316e-21)
(0.530545 -0.655799 -1.32388e-22)
(0.474728 -0.624475 4.78116e-21)
(0.399533 -0.594367 -2.22838e-21)
(0.334712 -0.524422 -4.26616e-21)
(0.32772 -0.370044 4.10572e-21)
(0.381228 -0.144947 4.59552e-22)
(0.46634 0.091557 -3.19214e-21)
(0.559324 0.289968 -1.04146e-21)
(0.642987 0.430495 1.01468e-21)
(0.707066 0.516333 1.42657e-21)
(0.75164 0.558054 -2.44307e-21)
(0.780467 0.571595 4.89265e-22)
(0.788785 0.585104 5.30667e-22)
(0.769785 0.616461 -3.16613e-21)
(0.734287 0.635383 -1.6698e-21)
(0.710153 0.576747 1.16393e-22)
(0.717114 0.405043 7.05716e-21)
(0.754324 0.152229 -2.9391e-21)
(0.808412 -0.107149 1.92614e-21)
(0.861987 -0.307338 -6.32492e-21)
(0.900085 -0.426178 1.05094e-21)
(0.916521 -0.478201 2.22205e-22)
(0.613553 -0.710541 -5.30871e-21)
(0.587124 -0.687426 1.11186e-21)
(0.547628 -0.65046 9.50963e-22)
(0.49123 -0.616528 -3.10281e-21)
(0.414921 -0.58624 5.08424e-21)
(0.344267 -0.522318 -3.76941e-21)
(0.327863 -0.377759 3.26125e-21)
(0.374555 -0.159712 -5.18568e-21)
(0.456353 0.0747446 4.75912e-21)
(0.548499 0.274642 1.04987e-21)
(0.63301 0.418542 9.09854e-22)
(0.699068 0.508117 -3.00412e-21)
(0.746285 0.552928 9.98191e-22)
(0.777659 0.569029 -6.92183e-22)
(0.787805 0.585136 3.46945e-23)
(0.770161 0.618871 2.68018e-21)
(0.736296 0.638991 -5.60128e-22)
(0.714226 0.580018 1.12436e-21)
(0.723156 0.407014 1.78974e-21)
(0.76179 0.152567 -1.97725e-21)
(0.816492 -0.108236 1.69067e-21)
(0.869741 -0.308996 -3.05256e-21)
(0.906867 -0.427353 1.71598e-21)
(0.921917 -0.478513 -2.08207e-22)
(0.63667 -0.708277 -4.77414e-22)
(0.606589 -0.683866 -5.74338e-21)
(0.564683 -0.645114 4.38784e-21)
(0.507755 -0.608661 -2.98206e-21)
(0.430815 -0.577777 -2.24627e-21)
(0.355125 -0.519285 1.87175e-22)
(0.329444 -0.384571 9.57593e-22)
(0.368915 -0.174142 -1.90312e-21)
(0.447063 0.0578092 2.38114e-21)
(0.538088 0.258962 1.92224e-21)
(0.623239 0.406145 -3.8669e-21)
(0.691166 0.499445 1.07067e-21)
(0.740979 0.547395 1.71851e-21)
(0.774885 0.566134 -2.63223e-21)
(0.786872 0.584884 3.6428e-21)
(0.770629 0.621014 1.41717e-21)
(0.73843 0.642409 -1.14607e-21)
(0.718414 0.583283 -1.46044e-21)
(0.729279 0.409197 2.03971e-21)
(0.76932 0.153261 -3.61794e-21)
(0.824646 -0.108939 3.42704e-21)
(0.877569 -0.310331 2.13031e-21)
(0.913715 -0.428295 -6.00019e-23)
(0.927395 -0.478652 5.58697e-22)
(0.659697 -0.705518 -3.85635e-21)
(0.626031 -0.680035 -1.13792e-21)
(0.581694 -0.639769 -1.44486e-22)
(0.52425 -0.60092 1.10681e-21)
(0.447106 -0.569075 -1.65822e-21)
(0.367191 -0.515374 -5.00902e-22)
(0.332485 -0.390425 7.33405e-23)
(0.364337 -0.188151 3.09139e-21)
(0.438486 0.0408049 -1.00112e-21)
(0.528104 0.242958 -7.38327e-22)
(0.613685 0.393313 -3.82636e-21)
(0.683363 0.490316 -3.97825e-22)
(0.735722 0.541449 1.70869e-21)
(0.772136 0.562899 2.01937e-22)
(0.785977 0.584335 3.73665e-23)
(0.771179 0.622878 9.61585e-22)
(0.740675 0.645629 -7.27309e-22)
(0.722698 0.586541 -1.75208e-21)
(0.735462 0.411597 -1.69785e-21)
(0.776895 0.154314 2.77507e-21)
(0.832861 -0.109255 -4.32828e-21)
(0.885466 -0.311342 -1.00978e-22)
(0.920624 -0.429003 5.19554e-22)
(0.932951 -0.478622 -2.88937e-21)
(0.682591 -0.702277 2.97038e-21)
(0.645419 -0.675939 -2.9795e-21)
(0.598648 -0.634429 1.2851e-21)
(0.540673 -0.593348 1.97229e-21)
(0.46369 -0.560225 5.60791e-22)
(0.380356 -0.510647 -3.98534e-23)
(0.336995 -0.395277 7.96823e-22)
(0.360855 -0.201656 -3.09662e-21)
(0.430635 0.0237948 2.10104e-21)
(0.51856 0.226662 -1.45349e-22)
(0.604356 0.380062 2.13287e-21)
(0.675664 0.480733 -9.19269e-22)
(0.730509 0.535088 -7.16554e-22)
(0.769407 0.559318 2.88177e-22)
(0.785112 0.583478 -1.66914e-21)
(0.7718 0.624452 2.06358e-21)
(0.743017 0.648645 -1.21822e-21)
(0.727061 0.589793 1.74923e-21)
(0.741685 0.414214 -5.45777e-23)
(0.784494 0.155729 -3.37205e-21)
(0.841123 -0.109181 1.35418e-21)
(0.893424 -0.312027 -8.16337e-22)
(0.92759 -0.429479 3.8638e-21)
(0.938582 -0.478428 -2.44768e-21)
(0.705309 -0.698567 6.65968e-21)
(0.664725 -0.671585 3.87066e-21)
(0.615533 -0.629094 -1.46463e-22)
(0.556987 -0.585977 1.89476e-21)
(0.480467 -0.55132 2.76272e-22)
(0.3945 -0.505181 -1.81867e-21)
(0.342971 -0.399098 -2.84088e-22)
(0.358503 -0.214568 1.19131e-21)
(0.423529 0.00691381 2.34495e-21)
(0.509466 0.21011 -3.84335e-21)
(0.595262 0.366406 1.39758e-21)
(0.668073 0.4707 -8.38643e-22)
(0.725339 0.528309 2.29621e-21)
(0.766689 0.555384 -6.56533e-23)
(0.784269 0.582303 1.35347e-21)
(0.772481 0.625725 -1.44386e-21)
(0.745439 0.651452 -1.51683e-21)
(0.731484 0.593036 9.41417e-22)
(0.747927 0.417051 -2.87199e-21)
(0.792098 0.157507 6.58654e-21)
(0.849418 -0.108717 -3.55253e-21)
(0.901435 -0.312384 3.71596e-21)
(0.934609 -0.429725 1.07884e-21)
(0.944285 -0.478071 -1.60819e-21)
(0.72781 -0.694402 4.50962e-21)
(0.683917 -0.666982 3.64191e-22)
(0.632339 -0.623765 -1.93922e-21)
(0.57316 -0.578832 8.51325e-22)
(0.497345 -0.542444 8.2643e-22)
(0.409497 -0.49906 8.37635e-22)
(0.35039 -0.40187 -1.09265e-21)
(0.35733 -0.226803 2.08652e-21)
(0.417184 -0.00985646 -4.28298e-21)
(0.500828 0.193335 3.91325e-23)
(0.586413 0.352362 3.29912e-21)
(0.660596 0.46022 -2.70735e-21)
(0.720208 0.521109 -7.54546e-22)
(0.763975 0.55109 -4.57308e-22)
(0.783438 0.580799 4.89486e-22)
(0.773211 0.626686 -2.48717e-22)
(0.747928 0.654042 -1.98726e-21)
(0.735949 0.596268 2.28705e-22)
(0.754168 0.420108 4.35508e-21)
(0.799687 0.159648 -1.50816e-22)
(0.857731 -0.107862 -3.52903e-21)
(0.909494 -0.312412 -2.89657e-21)
(0.941677 -0.42974 1.15654e-21)
(0.950056 -0.477555 2.69153e-21)
(0.750054 -0.689796 -3.64401e-21)
(0.702967 -0.662137 -2.73105e-21)
(0.649054 -0.618437 -1.82069e-21)
(0.589171 -0.571931 3.35876e-21)
(0.514239 -0.533678 -1.93911e-21)
(0.425215 -0.492379 2.04923e-21)
(0.359214 -0.403592 -5.06117e-22)
(0.357362 -0.238279 -1.48189e-21)
(0.411624 -0.0265601 4.95278e-23)
(0.492669 0.176378 -2.4504e-21)
(0.577821 0.337947 1.07076e-22)
(0.653236 0.449299 2.23713e-21)
(0.715115 0.513488 1.50935e-21)
(0.761259 0.546429 -1.95052e-21)
(0.78261 0.578955 -2.63298e-22)
(0.773978 0.627327 4.06549e-22)
(0.750469 0.656409 8.4782e-22)
(0.740438 0.599488 -3.92698e-21)
(0.760386 0.423383 3.38646e-21)
(0.807241 0.162151 -1.11877e-21)
(0.866048 -0.106616 -2.46173e-21)
(0.917591 -0.31211 1.19077e-22)
(0.948788 -0.429527 -2.19884e-21)
(0.955891 -0.476884 4.15953e-22)
(0.772006 -0.684766 -1.63799e-20)
(0.721845 -0.657061 1.27431e-20)
(0.66567 -0.613107 -7.61288e-21)
(0.605002 -0.565284 3.06496e-22)
(0.531072 -0.525092 1.93927e-21)
(0.441522 -0.485238 -1.35591e-21)
(0.369384 -0.404281 -1.49064e-21)
(0.35863 -0.248919 2.16562e-21)
(0.406873 -0.0430391 8.83712e-22)
(0.485006 0.159281 -2.30355e-21)
(0.569498 0.323182 1.40919e-21)
(0.646001 0.437945 -5.25888e-23)
(0.710059 0.505445 -4.2359e-22)
(0.758533 0.541396 1.94658e-21)
(0.781776 0.576764 1.83123e-21)
(0.774771 0.627636 1.28109e-21)
(0.753047 0.658546 -4.29162e-21)
(0.744934 0.60269 1.59684e-21)
(0.766563 0.426875 1.60739e-21)
(0.814741 0.165016 -1.38765e-21)
(0.874355 -0.104979 2.58968e-21)
(0.92572 -0.311477 -9.7657e-23)
(0.955937 -0.429084 -2.28125e-21)
(0.961785 -0.47606 9.18209e-22)
(0.79363 -0.679328 -1.23227e-20)
(0.740524 -0.651764 8.31265e-21)
(0.682173 -0.607771 3.63301e-21)
(0.620642 -0.558896 -3.1335e-21)
(0.547777 -0.516752 -4.28093e-21)
(0.458289 -0.47774 2.56783e-21)
(0.38082 -0.403966 -4.57493e-22)
(0.361172 -0.258649 -1.91245e-21)
(0.402962 -0.0591584 5.4918e-23)
(0.477859 0.14209 7.8748e-22)
(0.561457 0.308089 -1.31956e-22)
(0.638898 0.426166 7.78585e-22)
(0.705036 0.496982 8.68505e-22)
(0.755791 0.535987 -2.10598e-21)
(0.780927 0.574215 -1.34069e-22)
(0.775576 0.627604 9.77444e-23)
(0.755647 0.660445 -7.91035e-22)
(0.749419 0.60587 2.1984e-21)
(0.772678 0.430581 4.10235e-21)
(0.822168 0.168241 -5.78394e-21)
(0.882638 -0.102954 5.56747e-22)
(0.933871 -0.310514 9.45621e-22)
(0.963121 -0.428414 3.74105e-21)
(0.967734 -0.475088 -1.40231e-21)
(0.814897 -0.673497 -1.0644e-20)
(0.758979 -0.646258 1.55672e-22)
(0.698554 -0.602424 -5.46592e-21)
(0.636085 -0.552765 6.83298e-21)
(0.564295 -0.508711 -4.41613e-21)
(0.475389 -0.469992 1.52776e-21)
(0.393427 -0.402694 -3.2868e-21)
(0.365017 -0.267408 6.03504e-21)
(0.399928 -0.0748331 -4.31572e-21)
(0.471245 0.124852 2.60462e-21)
(0.553713 0.292692 7.20188e-22)
(0.631932 0.413974 -2.03353e-21)
(0.700047 0.488102 -2.08868e-22)
(0.753026 0.530198 -1.32974e-21)
(0.780052 0.571301 8.85864e-22)
(0.776383 0.627223 2.27703e-22)
(0.758256 0.662098 -3.2229e-21)
(0.753879 0.609023 2.20725e-21)
(0.778714 0.434499 1.15392e-21)
(0.829504 0.171821 -2.93838e-21)
(0.890883 -0.100542 3.5479e-22)
(0.942038 -0.309219 -2.25915e-21)
(0.970334 -0.427515 8.97044e-22)
(0.973733 -0.473969 -6.44143e-22)
(0.835776 -0.667292 7.55226e-21)
(0.777186 -0.640553 -2.09882e-21)
(0.714798 -0.597063 -2.61563e-21)
(0.651331 -0.546884 4.05483e-22)
(0.580577 -0.501014 -5.05085e-22)
(0.492702 -0.462097 7.29209e-22)
(0.407094 -0.400527 -7.94804e-22)
(0.370185 -0.275146 2.63657e-21)
(0.397809 -0.089993 3.87747e-22)
(0.465189 0.107618 1.11321e-21)
(0.546284 0.277018 -2.94468e-21)
(0.625114 0.401379 1.96843e-21)
(0.695091 0.478807 4.08021e-22)
(0.75023 0.524025 -3.0902e-22)
(0.779143 0.568015 -9.83384e-22)
(0.777179 0.626484 1.95966e-21)
(0.760859 0.663497 -1.68861e-21)
(0.758297 0.612142 -1.35902e-21)
(0.784651 0.438624 6.06476e-21)
(0.836731 0.175755 -1.16611e-21)
(0.899078 -0.0977457 -6.21081e-22)
(0.950211 -0.307593 6.56376e-21)
(0.97757 -0.426389 -1.4369e-21)
(0.979777 -0.472707 -8.53683e-22)
(0.856243 -0.66073 -7.72721e-21)
(0.795123 -0.634662 2.17407e-21)
(0.730892 -0.591684 -1.36437e-22)
(0.666381 -0.54124 6.90428e-21)
(0.596585 -0.493697 -1.56033e-21)
(0.510115 -0.454157 3.10447e-22)
(0.421696 -0.39754 6.33259e-23)
(0.376677 -0.281831 -4.6461e-21)
(0.396653 -0.104564 7.18334e-22)
(0.459719 0.090445 2.92042e-21)
(0.539186 0.261096 7.12333e-22)
(0.618452 0.388397 -1.21385e-21)
(0.690167 0.469102 7.61624e-23)
(0.747399 0.517467 2.90537e-22)
(0.778189 0.564349 1.22268e-21)
(0.777953 0.625378 -1.0236e-21)
(0.763444 0.664634 -4.63738e-21)
(0.762659 0.61522 2.4237e-21)
(0.790474 0.44295 -1.15399e-21)
(0.843832 0.180036 -5.70295e-21)
(0.907209 -0.0945686 3.29799e-21)
(0.958383 -0.305637 3.27265e-22)
(0.984825 -0.425035 1.53655e-22)
(0.985861 -0.471305 -1.01202e-21)
(0.876273 -0.65383 1.19098e-20)
(0.812773 -0.628597 5.92856e-21)
(0.746824 -0.586284 -6.59215e-21)
(0.68124 -0.53582 4.24444e-21)
(0.612288 -0.486784 -1.43265e-21)
(0.527525 -0.446269 -3.56583e-22)
(0.437104 -0.39382 3.10101e-21)
(0.38448 -0.287442 -4.5215e-22)
(0.396505 -0.118469 -1.72671e-22)
(0.454865 0.073394 -4.84291e-22)
(0.532442 0.244959 -1.10152e-21)
(0.611956 0.375044 2.22831e-21)
(0.685276 0.458994 -7.70507e-22)
(0.744525 0.510521 1.9233e-21)
(0.777181 0.560298 -2.92611e-21)
(0.778691 0.623896 -2.42692e-21)
(0.765997 0.665499 6.07662e-21)
(0.76695 0.61825 -1.3932e-21)
(0.796165 0.447473 -4.21425e-22)
(0.850791 0.184661 6.05598e-21)
(0.915265 -0.0910142 -4.54451e-21)
(0.966546 -0.30335 9.39531e-23)
(0.992093 -0.423454 -6.65466e-22)
(0.99198 -0.469765 2.35463e-21)
(0.830121 -0.622368 -8.60759e-21)
(0.762577 -0.580862 4.81001e-22)
(0.695913 -0.530606 2.99402e-21)
(0.627666 -0.480291 3.3016e-21)
(0.544838 -0.438523 1.28088e-21)
(0.453181 -0.389464 8.86932e-22)
(0.393557 -0.291978 -2.54786e-21)
(0.397414 -0.13163 1.97597e-22)
(0.450666 0.0565308 5.24601e-22)
(0.526073 0.228643 1.38956e-22)
(0.605638 0.361338 -6.06535e-22)
(0.680419 0.448491 -4.36596e-22)
(0.741603 0.50319 -1.79946e-21)
(0.776109 0.555858 -5.40004e-22)
(0.779384 0.622032 -2.15499e-22)
(0.768505 0.666084 1.42806e-21)
(0.771157 0.621222 -2.51954e-21)
(0.801708 0.452183 -6.90718e-21)
(0.857594 0.189623 5.81904e-22)
(0.923236 -0.0870868 9.40248e-23)
(0.974691 -0.300733 5.20668e-22)
(0.999369 -0.421644 4.91069e-21)
(0.998128 -0.468089 1.49263e-21)
(0.847151 -0.615988 -7.17816e-22)
(0.778139 -0.575418 1.43026e-21)
(0.710408 -0.525578 -3.70679e-21)
(0.642707 -0.474225 8.67365e-22)
(0.561972 -0.430999 2.68521e-21)
(0.46979 -0.384574 -3.26225e-21)
(0.403852 -0.295452 3.13002e-22)
(0.399422 -0.143977 4.73732e-22)
(0.447163 0.0399222 1.22434e-21)
(0.520105 0.212186 -2.18037e-21)
(0.599512 0.347301 1.88928e-22)
(0.675599 0.437602 2.99968e-21)
(0.738628 0.495472 -9.79272e-22)
(0.774963 0.551023 9.15684e-22)
(0.780017 0.619777 1.28226e-21)
(0.770958 0.666377 -4.17289e-21)
(0.775269 0.624125 6.69256e-21)
(0.80709 0.457075 -6.19111e-21)
(0.864227 0.194916 7.70006e-21)
(0.931112 -0.082791 -6.02696e-21)
(0.982812 -0.297786 -7.34486e-21)
(1.00665 -0.419605 2.1615e-21)
(1.0043 -0.46628 1.54092e-21)
(0.863856 -0.609468 5.36625e-21)
(0.793496 -0.569952 -2.77962e-21)
(0.72473 -0.520717 2.13159e-21)
(0.657407 -0.468582 3.98179e-22)
(0.578855 -0.42377 4.05242e-22)
(0.4868 -0.379258 -1.54496e-21)
(0.415289 -0.297894 1.22901e-22)
(0.402565 -0.155447 1.60724e-21)
(0.444399 0.0236433 2.73243e-22)
(0.514565 0.195632 4.05493e-22)
(0.593589 0.332955 -1.60942e-21)
(0.670817 0.426338 1.36546e-21)
(0.735593 0.487371 -5.7709e-23)
(0.773733 0.54579 8.39549e-22)
(0.780581 0.617124 -3.93887e-21)
(0.773343 0.666369 7.87766e-21)
(0.779274 0.626951 2.62589e-21)
(0.812296 0.462139 -7.38673e-21)
(0.870678 0.200531 1.07803e-20)
(0.938888 -0.0781319 2.61017e-21)
(0.9909 -0.294512 -2.59558e-22)
(1.01392 -0.417337 -7.25698e-21)
(1.01049 -0.46434 5.8648e-22)
(0.880225 -0.602819 1.22826e-20)
(0.808634 -0.564465 -4.44222e-21)
(0.738884 -0.516002 -2.54005e-21)
(0.671768 -0.463354 8.88288e-22)
(0.595425 -0.416899 2.22988e-21)
(0.504083 -0.373625 -1.05517e-21)
(0.427774 -0.29935 1.47883e-21)
(0.406869 -0.165991 -4.65089e-22)
(0.442424 0.0078458 3.93014e-22)
(0.509483 0.17903 -9.94417e-22)
(0.587886 0.318326 -6.68082e-23)
(0.666078 0.414712 -1.93965e-21)
(0.732496 0.478891 7.15401e-22)
(0.772411 0.540158 -5.10035e-22)
(0.781063 0.614068 -1.95146e-21)
(0.775649 0.666049 4.84335e-21)
(0.783161 0.629686 -4.24082e-21)
(0.817314 0.467364 9.75579e-21)
(0.87694 0.206461 -2.28672e-21)
(0.946558 -0.0731147 4.29725e-22)
(0.998949 -0.29091 -3.77267e-21)
(1.02118 -0.414838 -2.46062e-21)
(1.0167 -0.46227 -1.29869e-21)
(0.896253 -0.59605 3.57857e-21)
(0.823542 -0.55896 -4.68506e-21)
(0.752875 -0.511415 5.39411e-21)
(0.6858 -0.458523 -3.55281e-21)
(0.611632 -0.410435 5.23913e-21)
(0.521519 -0.367783 -3.66741e-21)
(0.441201 -0.299879 5.64882e-22)
(0.412349 -0.175565 -6.20231e-22)
(0.441287 -0.00745395 1.17735e-21)
(0.504886 0.162428 -4.55227e-22)
(0.582419 0.303444 2.14118e-21)
(0.661384 0.402738 -1.8596e-21)
(0.729331 0.470036 2.88762e-21)
(0.770987 0.534124 -2.10838e-21)
(0.781452 0.610601 8.44633e-22)
(0.777866 0.665407 2.506e-21)
(0.786922 0.632319 -7.46533e-21)
(0.822131 0.472741 -4.02621e-21)
(0.883005 0.212696 1.29756e-20)
(0.95412 -0.0677451 -1.67655e-21)
(1.00695 -0.28698 2.92196e-21)
(1.02843 -0.412108 -2.18875e-21)
(1.02291 -0.460073 -1.43268e-21)
(0.911937 -0.589169 -2.6881e-22)
(0.838211 -0.553438 -1.65415e-20)
(0.766704 -0.506935 2.88243e-21)
(0.699517 -0.454068 3.54517e-22)
(0.627435 -0.40442 2.98906e-21)
(0.538998 -0.361838 -1.59509e-21)
(0.455452 -0.299553 2.16639e-21)
(0.418984 -0.184145 -1.15794e-21)
(0.441039 -0.0223911 -5.0066e-22)
(0.500816 0.14588 1.49657e-21)
(0.577207 0.28834 -9.65573e-22)
(0.656742 0.390434 6.05967e-22)
(0.726095 0.460813 1.14782e-21)
(0.769452 0.52769 2.02924e-21)
(0.781737 0.606719 -3.1846e-21)
(0.779985 0.664431 -3.79656e-21)
(0.790548 0.634835 3.73424e-21)
(0.826737 0.478258 4.10597e-21)
(0.88887 0.219225 -6.52578e-21)
(0.961577 -0.0620291 4.13498e-22)
(1.01491 -0.282724 -4.37395e-21)
(1.03565 -0.409144 4.01783e-21)
(1.02912 -0.457748 2.80941e-21)
(0.927274 -0.582183 -4.35919e-21)
(0.852631 -0.547899 1.86376e-21)
(0.78037 -0.502544 2.41916e-21)
(0.712936 -0.449959 -2.58553e-21)
(0.642805 -0.398882 -1.33745e-21)
(0.556421 -0.35589 8.27497e-24)
(0.470407 -0.298453 1.08817e-21)
(0.426726 -0.191722 4.27478e-23)
(0.441723 -0.036808 -1.30302e-21)
(0.497331 0.129448 9.52267e-22)
(0.572274 0.273048 -1.3626e-22)
(0.652159 0.377819 -9.91753e-22)
(0.722784 0.451229 -9.75557e-22)
(0.767796 0.520856 4.68218e-22)
(0.781906 0.602416 1.62459e-23)
(0.781995 0.663108 -4.32563e-21)
(0.794032 0.63722 6.3216e-21)
(0.831121 0.4839 -1.06607e-20)
(0.894539 0.226038 1.4935e-20)
(0.968936 -0.0559729 -3.34578e-21)
(1.0228 -0.278142 -4.92296e-21)
(1.04284 -0.405944 -7.7233e-22)
(1.03533 -0.455296 -2.91326e-21)
(0.942263 -0.575106 1.06035e-20)
(0.866796 -0.542351 -6.38186e-21)
(0.793873 -0.498232 2.85494e-21)
(0.726078 -0.446169 2.35462e-21)
(0.65772 -0.393842 -2.47114e-23)
(0.573698 -0.350036 -3.96305e-22)
(0.485944 -0.296669 1.22731e-23)
(0.435527 -0.198292 -1.53942e-22)
(0.443374 -0.0504858 3.71698e-22)
(0.494479 0.113192 5.6656e-22)
(0.56765 0.257608 -8.18987e-22)
(0.647646 0.364913 -1.83799e-22)
(0.719398 0.441295 -1.26077e-21)
(0.766012 0.513623 4.38137e-21)
(0.781948 0.597688 -2.84886e-21)
(0.783888 0.661428 2.39035e-21)
(0.797365 0.639461 4.67636e-21)
(0.835275 0.489652 -5.23102e-21)
(0.900022 0.23312 -6.30801e-21)
(0.976209 -0.0495825 3.51082e-21)
(1.03064 -0.273231 3.62292e-21)
(1.05 -0.402507 -5.49901e-21)
(1.04153 -0.45272 -3.25781e-21)
(0.956904 -0.567967 7.39375e-21)
(0.880701 -0.536819 -3.34024e-21)
(0.807207 -0.494002 4.43345e-21)
(0.738966 -0.442679 2.8622e-21)
(0.672168 -0.389319 -3.74129e-21)
(0.590749 -0.34437 3.48325e-22)
(0.501947 -0.2943 3.70463e-22)
(0.445318 -0.20387 7.59127e-22)
(0.446013 -0.0634054 -4.34035e-22)
(0.492318 0.097166 -2.98752e-22)
(0.563378 0.242061 -3.94011e-22)
(0.643222 0.35174 9.89333e-22)
(0.715938 0.431022 -9.93337e-22)
(0.764092 0.505997 2.57263e-21)
(0.781852 0.592532 -1.38115e-21)
(0.785656 0.659379 -1.68314e-21)
(0.800541 0.641539 5.99799e-22)
(0.83919 0.4955 7.1632e-21)
(0.905342 0.240459 -1.15934e-20)
(0.98342 -0.04286 7.61028e-21)
(1.03842 -0.267989 1.04787e-20)
(1.0571 -0.398832 -1.26899e-20)
(1.04771 -0.450024 4.48542e-21)
(0.9712 -0.560763 -1.08563e-20)
(0.894344 -0.53129 6.80278e-21)
(0.82037 -0.489831 1.88428e-21)
(0.751623 -0.439444 1.01392e-21)
(0.686148 -0.385303 -6.88941e-23)
(0.607506 -0.338964 -1.59682e-21)
(0.518306 -0.291436 7.47734e-22)
(0.456016 -0.208479 3.17057e-22)
(0.449639 -0.0755571 2.86202e-22)
(0.490914 0.0814283 8.34962e-23)
(0.559519 0.22645 -7.70274e-22)
(0.638916 0.338327 6.24559e-22)
(0.712412 0.420423 1.2583e-22)
(0.76203 0.497982 -3.49805e-22)
(0.781608 0.586944 -1.63851e-21)
(0.787291 0.656949 2.83774e-21)
(0.803553 0.64344 -2.46316e-21)
(0.842864 0.501424 4.96198e-21)
(0.910542 0.248041 -3.37344e-21)
(0.990602 -0.0358053 4.70257e-21)
(1.04612 -0.262417 -4.91675e-21)
(1.06415 -0.394917 2.79093e-21)
(1.05387 -0.447204 -2.9984e-21)
(0.985152 -0.553359 1.53016e-21)
(0.907724 -0.525642 1.0072e-20)
(0.833356 -0.485606 -4.84429e-22)
(0.764069 -0.436345 1.00304e-21)
(0.699663 -0.381719 -2.45917e-21)
(0.623908 -0.333837 -1.80884e-22)
(0.534917 -0.288135 -5.72755e-23)
(0.46753 -0.212126 7.18429e-22)
(0.454226 -0.0868909 -4.16312e-22)
(0.490337 0.0660498 -1.4231e-22)
(0.556162 0.210832 3.76497e-22)
(0.634787 0.324707 -1.22443e-21)
(0.708842 0.409516 7.28856e-23)
(0.759827 0.489586 2.52549e-21)
(0.781207 0.580923 -3.33148e-21)
(0.788787 0.654124 2.10075e-21)
(0.806394 0.645145 7.89597e-23)
(0.846302 0.507399 3.64402e-21)
(0.915698 0.255828 -6.56114e-22)
(0.997805 -0.028439 -1.13822e-21)
(1.05377 -0.256523 3.56834e-21)
(1.07114 -0.390746 -7.93359e-21)
(1.06 -0.444233 4.85126e-21)
(0.998761 -0.545697 -1.18811e-20)
(0.920836 -0.519824 1.7698e-21)
(0.846154 -0.481279 1.29906e-21)
(0.776319 -0.433317 8.3273e-22)
(0.712722 -0.378524 1.14585e-21)
(0.6399 -0.329043 3.49997e-22)
(0.551684 -0.284503 1.62532e-22)
(0.479763 -0.214869 -1.01736e-22)
(0.45972 -0.0973751 -1.65168e-24)
(0.490649 0.0511231 -8.37299e-23)
(0.553438 0.195284 -2.1556e-22)
(0.63094 0.310932 5.62546e-22)
(0.705285 0.398329 -1.20881e-21)
(0.757497 0.480823 2.97332e-21)
(0.780646 0.574472 -4.09634e-21)
(0.790143 0.650892 2.83433e-21)
(0.809058 0.646623 -2.47243e-21)
(0.84954 0.513365 1.44627e-22)
(0.920946 0.263746 5.32489e-22)
(1.0051 -0.0208274 3.48389e-21)
(1.06134 -0.250298 -3.1069e-21)
(1.07806 -0.38629 -3.86255e-21)
(1.06609 -0.441096 5.17854e-21)
(0.93368 -0.514486 5.68929e-21)
(0.858755 -0.477402 -3.15576e-21)
(0.788388 -0.430786 7.63202e-22)
(0.72534 -0.376066 3.04196e-21)
(0.655435 -0.324939 -6.9514e-22)
(0.56852 -0.280902 1.78159e-22)
(0.49263 -0.216994 3.67232e-22)
(0.466045 -0.107191 -1.21268e-22)
(0.491893 0.0366203 5.27791e-23)
(0.551528 0.179791 -3.55906e-23)
(0.62757 0.297039 -2.14262e-22)
(0.701865 0.386905 1.58506e-21)
(0.755091 0.47172 -1.73505e-21)
(0.779942 0.567604 1.84397e-21)
(0.791372 0.647251 -4.73198e-21)
(0.811556 0.647854 6.73698e-21)
(0.85269 0.519311 -6.02739e-21)
(0.92653 0.271917 -4.10436e-21)
(1.01259 -0.0129281 8.94626e-21)
(1.06885 -0.243626 -6.5726e-21)
(1.08489 -0.381602 -2.39724e-21)
(1.07215 -0.437939 3.12013e-21)
(0.946285 -0.510519 -3.05228e-22)
(0.871182 -0.474722 1.45106e-21)
(0.800315 -0.429339 7.0222e-22)
(0.73756 -0.374808 -2.41647e-21)
(0.67049 -0.321925 -8.28883e-22)
(0.585358 -0.277638 1.31221e-22)
(0.506059 -0.218708 -8.41324e-23)
(0.473114 -0.116585 1.45444e-23)