/*--------------------------------*- C++ -*----------------------------------*\
  =========                 |
  \\      /  F ield         | OpenFOAM: The Open Source CFD Toolbox
   \\    /   O peration     | Website:  https://openfoam.org
    \\  /    A nd           | Version:  7
     \\/     M anipulation  |
\*---------------------------------------------------------------------------*/
FoamFile
{
    version     2.0;
    format      ascii;
    class       volVectorField;
    location    "20";
    object      U;
}
// * * * * * * * * * * * * * * * * * * * * * * * * * * * * * * * * * * * * * //

dimensions      [0 1 -1 0 0 0 0];

internalField   nonuniform List<vector> 
36600
(
(-0.00023236 0.00023596 -6.75244e-22)
(-0.00158049 0.000621819 -3.52577e-21)
(-0.00438084 0.000933554 4.2647e-22)
(-0.00812494 0.00118111 6.31847e-22)
(-0.0126245 0.00137136 1.10987e-21)
(-0.0177029 0.00151119 -8.09122e-21)
(-0.0231943 0.00160752 1.37509e-21)
(-0.0289589 0.00166708 -5.35771e-21)
(-0.0348797 0.00169651 -1.13984e-20)
(-0.0408622 0.00170231 9.64032e-21)
(-0.0468342 0.00169082 2.8365e-21)
(-0.052745 0.00166813 -3.36765e-21)
(-0.0585652 0.00164008 4.09309e-21)
(-0.0642851 0.0016121 5.5435e-21)
(-0.0699137 0.00158904 -3.46673e-21)
(-0.0754754 0.00157499 -4.63509e-21)
(-0.0810081 0.00157302 -1.10088e-20)
(-0.0865697 0.00158477 -8.44999e-22)
(-0.0921756 0.0016103 -1.8357e-21)
(-0.0977789 0.00165003 -3.60293e-21)
(-0.000250288 0.000707571 -3.29955e-21)
(-0.00162544 0.00186389 2.67966e-21)
(-0.0044436 0.00279731 -3.11392e-21)
(-0.00819821 0.00353774 -1.22299e-20)
(-0.0127017 0.00410591 5.60767e-21)
(-0.0177782 0.0045226 3.37099e-20)
(-0.0232624 0.0048086 -2.05493e-20)
(-0.0290149 0.00498424 3.45595e-21)
(-0.0349191 0.00506947 1.64155e-20)
(-0.0408807 0.00508381 -6.14204e-24)
(-0.0468275 0.00504627 9.53346e-21)
(-0.0527092 0.00497518 -1.25078e-20)
(-0.0584963 0.00488801 1.29671e-20)
(-0.0641793 0.00480102 -1.10544e-20)
(-0.0697674 0.00472881 -4.25454e-21)
(-0.0752852 0.00468363 2.12112e-20)
(-0.0807714 0.00467468 -6.58942e-21)
(-0.0862845 0.00470688 1.01305e-21)
(-0.0918403 0.00478041 -1.2145e-20)
(-0.0973893 0.00489653 -1.30493e-21)
(-0.000286045 0.00117637 -2.55482e-20)
(-0.0017151 0.00309888 3.22361e-21)
(-0.00456884 0.00465077 4.89439e-21)
(-0.00834449 0.0058816 3.08963e-20)
(-0.012856 0.00682577 -2.4521e-20)
(-0.0179288 0.00751783 -3.7796e-20)
(-0.0233986 0.00799229 3.40591e-20)
(-0.029127 0.00828296 -9.21448e-21)
(-0.034998 0.00842302 -4.58241e-21)
(-0.0409178 0.00844494 -2.29427e-20)
(-0.0468145 0.00838035 6.20694e-21)
(-0.052638 0.00825978 2.20505e-20)
(-0.0583591 0.00811237 -4.48006e-21)
(-0.0639684 0.0079653 1.77293e-20)
(-0.0694754 0.00784299 -1.44891e-20)
(-0.0749057 0.00776606 -4.35407e-21)
(-0.0802986 0.00775003 3.37774e-20)
(-0.0857147 0.00780327 -2.07994e-21)
(-0.0911705 0.0079262 5.19297e-20)
(-0.0966109 0.00812117 -1.22845e-20)
(-0.000339412 0.00164054 4.1796e-20)
(-0.00184899 0.00432216 -1.8188e-20)
(-0.00475598 0.00648716 -1.25226e-20)
(-0.00856316 0.0082043 -2.88197e-20)
(-0.0130867 0.00952131 1.72462e-20)
(-0.018154 0.0104862 -3.21465e-21)
(-0.0236025 0.0111471 -5.69365e-20)
(-0.0292949 0.0115511 -5.96442e-21)
(-0.0351163 0.0117444 -1.22472e-20)
(-0.0409735 0.0117723 -1.91539e-21)
(-0.0467952 0.0116789 -2.09756e-20)
(-0.0525317 0.0115071 2.35069e-20)
(-0.0581538 0.0112976 -3.44429e-20)
(-0.0636526 0.0110886 -1.04116e-21)
(-0.0690382 0.0109146 9.20977e-21)
(-0.074337 0.0108048 -7.07155e-20)
(-0.0795899 0.0107815 -5.64377e-20)
(-0.0848604 0.0108567 3.02906e-20)
(-0.0901658 0.0110314 -4.02387e-20)
(-0.0954434 0.0113094 1.00604e-21)
(-0.00041007 0.00209828 -5.59249e-21)
(-0.00202639 0.0055292 7.18462e-20)
(-0.0050041 0.00829992 3.33215e-20)
(-0.00885326 0.0104976 -1.43119e-21)
(-0.013393 0.012183 8.76926e-21)
(-0.0184532 0.0134174 1.32523e-21)
(-0.0238734 0.0142619 2.91402e-20)
(-0.0295181 0.0147767 3.41341e-20)
(-0.0352736 0.0150209 1.43502e-20)
(-0.0410477 0.0150525 5.02476e-20)
(-0.0467699 0.0149281 -5.7254e-20)
(-0.0523905 0.0147025 -1.19552e-20)
(-0.0578809 0.0144282 2.48971e-20)
(-0.0632326 0.0141546 -4.29009e-20)
(-0.0684562 0.0139265 1.93745e-20)
(-0.0735796 0.0137824 4.44644e-20)
(-0.0786454 0.0137514 1.0585e-20)
(-0.0837213 0.0138499 1.49901e-20)
(-0.0888261 0.0140797 -2.37686e-20)
(-0.0938863 0.0144468 2.60919e-21)
(-0.000497602 0.00254791 -2.73068e-20)
(-0.00224635 0.00671569 1.69313e-20)
(-0.00531203 0.0100826 -2.72865e-20)
(-0.00921354 0.0127536 2.49718e-20)
(-0.0137736 0.0148018 2.16943e-20)
(-0.0188251 0.016301 9.80172e-21)
(-0.0242103 0.0173254 1.82987e-20)
(-0.0297958 0.017948 -1.27126e-20)
(-0.0354695 0.0182402 -7.76518e-20)
(-0.0411403 0.0182727 -6.87351e-20)
(-0.0467384 0.0181141 -4.41808e-20)
(-0.0522148 0.0178314 1.65658e-20)
(-0.0575409 0.0174888 -9.36065e-21)
(-0.0627088 0.0171472 7.05959e-20)
(-0.06773 0.016862 -2.51466e-20)
(-0.0726337 0.0166812 2.03164e-20)
(-0.0774652 0.0166419 2.9263e-20)
(-0.0822971 0.0167652 -1.62856e-20)
(-0.0871504 0.0170545 1.40691e-19)
(-0.0919388 0.0175187 -5.2547e-20)
(-0.0006015 0.00298783 3.31229e-20)
(-0.00250771 0.00787749 -4.055e-20)
(-0.0056783 0.0118293 -6.14767e-20)
(-0.00964244 0.0149647 -1.56601e-20)
(-0.014227 0.0173686 6.98996e-21)
(-0.0192685 0.0191273 1.06709e-20)
(-0.0246122 0.0203272 3.53407e-20)
(-0.0301273 0.0210536 7.74028e-21)
(-0.0357034 0.0213903 2.59061e-21)
(-0.041251 0.02142 1.23427e-19)
(-0.0467009 0.0212235 9.17812e-20)
(-0.0520046 0.0208796 -5.44333e-20)
(-0.0571342 0.0204644 -7.9433e-21)
(-0.0620818 0.0200504 -2.1213e-20)
(-0.0668601 0.019704 2.07488e-20)
(-0.0714998 0.0194836 -1.08675e-19)
(-0.0760492 0.019435 -2.24885e-20)
(-0.0805871 0.0195849 -3.34123e-20)
(-0.0851377 0.0199391 -8.00146e-20)
(-0.089599 0.0205104 4.3446e-20)
(-0.000721178 0.00341653 5.52762e-21)
(-0.00280912 0.00901072 -1.9751e-20)
(-0.0061012 0.013534 5.54734e-20)
(-0.0101381 0.0171234 -2.07638e-20)
(-0.0147514 0.019875 -1.87073e-20)
(-0.0197816 0.0218867 2.94795e-20)
(-0.0250776 0.0232568 -4.94519e-20)
(-0.0305112 0.0240825 -6.69854e-21)
(-0.0359744 0.0244595 9.18519e-20)
(-0.041379 0.0244823 -5.81558e-20)
(-0.0466569 0.0242434 -2.36846e-20)
(-0.0517602 0.0238335 2.76853e-20)
(-0.056661 0.0233404 -7.22863e-21)
(-0.061352 0.0228485 -3.71336e-21)
(-0.0658467 0.0224359 3.02919e-20)
(-0.0701778 0.022172 -7.96944e-20)
(-0.0743968 0.0221125 2.75485e-20)
(-0.07859 0.0222908 -2.07121e-20)
(-0.0827858 0.0227161 -4.60584e-20)
(-0.0868643 0.0234072 1.65389e-20)
(-0.000855976 0.00383265 -1.5506e-20)
(-0.00314906 0.0101118 1.08628e-19)
(-0.00657877 0.0151915 -2.38896e-20)
(-0.0106984 0.019223 -2.83249e-20)
(-0.0153446 0.022313 6.76237e-20)
(-0.0203624 0.0245701 -6.96838e-20)
(-0.0256045 0.0261044 -3.39396e-20)
(-0.030946 0.0270241 -5.84781e-20)
(-0.0362811 0.0274366 -6.34049e-20)
(-0.0415234 0.0274476 -4.14127e-20)
(-0.0466059 0.0271612 -5.54639e-20)
(-0.051481 0.0266795 9.99432e-20)
(-0.0561213 0.0261024 -1.09696e-20)
(-0.0605195 0.0255261 -2.28548e-20)
(-0.0646899 0.0250412 -1.18334e-19)
(-0.0686672 0.0247289 6.57495e-20)
(-0.072507 0.0246561 1.61772e-20)
(-0.0763038 0.0248644 4.02894e-20)
(-0.0800917 0.0253681 2.70652e-20)
(-0.0837304 0.026194 -7.22412e-20)
(-0.00100518 0.00423497 -4.81327e-20)
(-0.00352583 0.0111774 6.33864e-20)
(-0.00710882 0.0167966 3.53825e-20)
(-0.011321 0.021257 1.59211e-20)
(-0.0160043 0.0246748 6.02553e-20)
(-0.0210085 0.0271691 -4.67129e-20)
(-0.0261908 0.0288605 1.00183e-19)
(-0.0314296 0.0298684 5.57615e-21)
(-0.0366218 0.0303109 9.10296e-20)
(-0.0416828 0.0303047 -5.25908e-20)
(-0.0465467 0.0299649 8.39097e-20)
(-0.0511664 0.0294051 -8.23083e-20)
(-0.0555144 0.0287368 -7.34586e-20)
(-0.0595836 0.0280685 6.21265e-20)
(-0.063389 0.0275037 2.18341e-19)
(-0.0669672 0.0271368 -1.19443e-19)
(-0.0703777 0.0270473 9.73568e-20)
(-0.0737252 0.0272869 2.22504e-20)
(-0.077051 0.027877 -8.28318e-20)
(-0.0801915 0.0288554 6.92301e-20)
(-0.00116802 0.00462239 8.74364e-20)
(-0.00393763 0.0122046 -4.87251e-20)
(-0.00768896 0.0183449 1.63654e-20)
(-0.012003 0.0232194 6.11799e-20)
(-0.0167274 0.0269534 -4.67765e-20)
(-0.0217171 0.0296755 1.08716e-19)
(-0.0268337 0.0315165 -1.95786e-20)
(-0.0319595 0.0326059 2.43136e-21)
(-0.0369941 0.0330724 -1.25764e-19)
(-0.0418551 0.0330429 7.88361e-20)
(-0.0464775 0.0326433 1.80075e-20)
(-0.0508147 0.0319981 -2.34986e-20)
(-0.054839 0.0312304 2.92538e-20)
(-0.0585432 0.0304613 -1.14674e-19)
(-0.0619425 0.0298077 -6.33739e-20)
(-0.0650756 0.0293784 1.32375e-19)
(-0.0680061 0.0292676 -7.33682e-20)
(-0.0708498 0.029539 -1.03976e-19)
(-0.0736574 0.0302239 1.91388e-19)
(-0.0762391 0.0313754 -2.63086e-22)
(-0.00134369 0.00499397 7.31923e-20)
(-0.00438252 0.0131908 -8.95351e-20)
(-0.0083166 0.0198322 -9.27421e-20)
(-0.0127416 0.0251049 -4.39071e-20)
(-0.0175109 0.0291422 -3.04474e-20)
(-0.0224849 0.0320818 -3.53532e-20)
(-0.0275301 0.0340639 -1.48063e-19)
(-0.0325325 0.0352277 1.80634e-20)
(-0.0373951 0.0357115 -6.18002e-20)
(-0.0420374 0.0356523 2.14635e-19)
(-0.0463956 0.0351858 -1.23692e-19)
(-0.0504235 0.0344473 7.53305e-20)
(-0.0540928 0.0335712 -2.2852e-20)
(-0.0573958 0.0326912 1.2468e-19)
(-0.0603479 0.0319383 1.01643e-20)
(-0.0629891 0.0314371 -1.05231e-19)
(-0.0653877 0.0312985 -1.87303e-20)
(-0.0676714 0.0316012 4.53848e-21)
(-0.0699028 0.0323896 -7.87949e-21)
(-0.071862 0.0337373 1.29228e-19)
(-0.00153137 0.00534894 -9.11666e-20)
(-0.00485847 0.0141336 -8.54832e-20)
(-0.00898895 0.0212548 3.52345e-20)
(-0.0135334 0.0269084 8.72952e-20)
(-0.0183512 0.0312352 -7.26337e-21)
(-0.0233082 0.0343812 -5.90952e-20)
(-0.0282759 0.0364952 1.30352e-19)
(-0.0331448 0.0377257 -1.4527e-20)
(-0.0378208 0.0382197 1.55778e-19)
(-0.0422258 0.0381237 -1.71838e-19)
(-0.0462972 0.0375829 4.49369e-20)
(-0.0499889 0.0367424 5.27574e-20)
(-0.053272 0.0357479 -1.58451e-21)
(-0.0561376 0.0347456 -8.71944e-22)
(-0.0586008 0.0338814 -9.79413e-20)
(-0.0607027 0.0332968 1.31899e-20)
(-0.0625159 0.0331219 1.29005e-19)
(-0.0641814 0.0334537 1.64636e-19)
(-0.0657763 0.0343539 -1.93845e-19)
(-0.0670457 0.0359232 -1.24125e-19)
(-0.00173021 0.00568663 3.81418e-20)
(-0.00536338 0.0150311 5.71097e-20)
(-0.00970309 0.0226094 6.88228e-20)
(-0.0143749 0.0286256 -1.15386e-19)
(-0.0192443 0.033227 1.12226e-19)
(-0.0241826 0.0365672 1.13405e-19)
(-0.0290668 0.0388034 -4.39617e-20)
(-0.0337915 0.0400921 1.90589e-19)
(-0.0382663 0.040589 -1.914e-19)
(-0.0424153 0.0404488 8.41279e-20)
(-0.0461771 0.0398258 8.4914e-20)
(-0.0495056 0.0388743 -6.55825e-21)
(-0.052371 0.0377506 1.06027e-21)
(-0.0547629 0.0366136 1.0858e-20)
(-0.056695 0.0356242 -7.66641e-20)
(-0.0582092 0.0349426 7.53308e-20)
(-0.0593819 0.0347203 -3.84885e-20)
(-0.0603684 0.035077 -8.57036e-20)
(-0.061264 0.0360963 1.09863e-19)
(-0.0617711 0.0379145 2.29274e-20)
(-0.00193937 0.00600656 -2.20011e-20)
(-0.00589507 0.0158817 2.68603e-20)
(-0.0104559 0.0238933 -5.75826e-20)
(-0.0152624 0.0302525 -8.51682e-20)
(-0.0201858 0.0351127 -7.48542e-20)
(-0.0251032 0.0386343 -7.7721e-20)
(-0.0298972 0.0409821 1.25374e-19)
(-0.0344668 0.0423203 -6.30498e-20)
(-0.0387253 0.0428122 4.98534e-20)
(-0.0425992 0.0426204 5.41773e-21)
(-0.0460284 0.041907 -1.33162e-20)
(-0.0489664 0.0408351 3.29317e-20)
(-0.0513822 0.039571 -6.36872e-20)
(-0.0532633 0.0382857 3.30534e-20)
(-0.0546214 0.0371556 1.05638e-19)
(-0.0554984 0.0363608 -1.53004e-19)
(-0.0559736 0.0360775 -9.70275e-20)
(-0.0562175 0.0364519 1.26442e-19)
(-0.0563483 0.0375959 -7.35069e-20)
(-0.0560148 0.0396912 -1.13631e-19)
(-0.00215799 0.00630834 8.09902e-20)
(-0.00645132 0.016684 -8.06912e-20)
(-0.0112441 0.0251041 6.48567e-20)
(-0.0161916 0.0317858 1.03046e-19)
(-0.0211708 0.0368878 -1.82863e-20)
(-0.0260645 0.0405772 -6.65608e-20)
(-0.0307609 0.0430256 -1.23295e-19)
(-0.0351638 0.044404 -9.29264e-20)
(-0.0391902 0.044883 -1.85265e-19)
(-0.0427692 0.044632 1.86148e-20)
(-0.0458419 0.0438201 -1.61951e-20)
(-0.0483615 0.0426184 -1.27891e-19)
(-0.0502951 0.0412021 1.09735e-19)
(-0.0516275 0.0397541 1.33273e-19)
(-0.0523677 0.0384664 -6.68466e-21)
(-0.0525562 0.03754 8.0137e-20)
(-0.0522748 0.0371786 -4.01703e-20)
(-0.0517092 0.0375606 6.36212e-21)
(-0.0510071 0.0388321 1.11045e-19)
(-0.0497474 0.0412319 2.65895e-19)
(-0.00238524 0.00659174 -3.5234e-20)
(-0.00702988 0.017437 -2.39653e-20)
(-0.0120643 0.0262398 6.67931e-20)
(-0.0171581 0.0332223 -9.2201e-20)
(-0.0221938 0.0385486 -5.17563e-20)
(-0.0270601 0.0423914 9.0445e-20)
(-0.0316507 0.0449287 -3.27218e-20)
(-0.0358743 0.046338 -9.37867e-20)
(-0.0396518 0.046796 1.50849e-19)
(-0.0429151 0.0464782 -4.01298e-20)
(-0.0456064 0.0455601 2.89995e-20)
(-0.0476783 0.0442192 1.55859e-19)
(-0.049096 0.0426392 -2.14422e-19)
(-0.0498407 0.0410136 -5.81099e-20)
(-0.0499173 0.0395499 -1.13221e-19)
(-0.0493642 0.0384711 2.27677e-19)
(-0.0482641 0.0380117 7.04478e-21)
(-0.0468183 0.0383872 1.23185e-19)
(-0.0452131 0.0397849 -4.42305e-20)
(-0.0429319 0.042512 -2.51758e-19)
(-0.00262029 0.00685661 -8.16659e-20)
(-0.00762843 0.0181398 1.14821e-19)
(-0.0129129 0.0272986 1.56344e-21)
(-0.0181571 0.0345597 -1.07485e-21)
(-0.0232491 0.0400917 1.16151e-19)
(-0.0280829 0.0440728 5.55802e-20)
(-0.0325581 0.0466869 -3.06991e-21)
(-0.0365885 0.0481174 2.42827e-19)
(-0.040099 0.0485464 9.20907e-20)
(-0.0430241 0.0481548 -1.67586e-19)
(-0.0453074 0.0471231 7.87056e-21)
(-0.046901 0.0456344 -5.67071e-21)
(-0.0477672 0.0438793 2.26948e-19)
(-0.047883 0.0420613 -2.51348e-19)
(-0.0472486 0.0404025 6.87022e-20)
(-0.0458981 0.0391486 2.50948e-21)
(-0.0439137 0.0385677 -1.72312e-19)
(-0.0415125 0.0389194 -1.77237e-19)
(-0.0389334 0.0404366 -2.12089e-20)
(-0.0355243 0.0435093 2.55487e-19)
(-0.00286233 0.00710291 2.64062e-20)
(-0.00824465 0.018792 -8.17259e-20)
(-0.0137862 0.0282794 7.80943e-20)
(-0.0191836 0.0357957 -1.15607e-19)
(-0.0243298 0.041514 1.42013e-19)
(-0.0291248 0.0456178 -2.10332e-19)
(-0.0334735 0.0482963 -5.75051e-20)
(-0.037295 0.0497381 -1.26963e-19)
(-0.0405184 0.0501305 -5.92292e-20)
(-0.043081 0.0496584 1.04455e-19)
(-0.0449276 0.0485066 2.10841e-19)
(-0.0460095 0.0468625 -2.33905e-19)
(-0.0462863 0.0449222 -8.65815e-20)
(-0.0457297 0.0428973 3.10869e-19)
(-0.0443336 0.0410241 -1.11647e-19)
(-0.0421266 0.0395707 -1.59217e-19)
(-0.039188 0.0388421 1.99949e-19)
(-0.0357501 0.0391484 4.17383e-20)
(-0.0321265 0.0407769 3.94112e-20)
(-0.027486 0.0442499 -1.64406e-19)
(-0.00311056 0.00733065 1.03031e-20)
(-0.00887618 0.0193932 -4.25804e-20)
(-0.0146802 0.029181 1.36816e-19)
(-0.0202319 0.0369285 -1.75061e-19)
(-0.025429 0.0428131 -1.43226e-19)
(-0.0301767 0.0470233 3.70528e-20)
(-0.034386 0.0497533 2.45805e-19)
(-0.0379808 0.0511968 -1.53498e-19)
(-0.0408945 0.051545 3.66724e-20)
(-0.0430675 0.0509867 -7.22144e-20)
(-0.0444458 0.0497095 -2.88415e-19)
(-0.0449797 0.0479038 1.72795e-19)
(-0.0446256 0.0457696 1.37986e-19)
(-0.0433496 0.0435251 -2.42128e-19)
(-0.0411375 0.0414185 5.61489e-20)
(-0.0380102 0.0397403 2.21595e-19)
(-0.0340416 0.0388344 8.60671e-20)
(-0.0294754 0.0390683 2.99922e-20)
(-0.0247137 0.0408021 -1.74108e-19)
(-0.0187904 0.0448551 -8.45784e-20)
(-0.00336421 0.00753993 -7.14386e-20)
(-0.00952059 0.019943 -1.27502e-19)
(-0.0155909 0.0300026 -7.28127e-20)
(-0.0212962 0.0379565 9.5304e-20)
(-0.0265386 0.0439867 -5.50373e-21)
(-0.0312287 0.0482864 1.93543e-20)
(-0.035283 0.051055 -3.3823e-20)
(-0.0386305 0.0524904 2.28632e-20)
(-0.0412091 0.0527876 1.44761e-19)
(-0.0429621 0.0521382 1.81326e-19)
(-0.0438366 0.0507318 -8.27524e-21)
(-0.0437823 0.0487605 -3.92923e-20)
(-0.0427516 0.0464261 -2.27819e-19)
(-0.0407042 0.0439513 1.69007e-19)
(-0.0376169 0.0415941 -1.48112e-20)
(-0.0335003 0.0396654 -9.90642e-20)
(-0.0284197 0.038549 -4.90982e-19)
(-0.0226222 0.0386756 1.72257e-19)
(-0.0165417 0.0405026 9.14104e-21)
(-0.00926198 0.0451893 -1.05082e-19)
(-0.00362252 0.00773089 6.58573e-20)
(-0.0101754 0.0204415 1.66552e-19)
(-0.0165139 0.0307435 -1.25337e-19)
(-0.0223701 0.0388785 -6.00359e-20)
(-0.0276502 0.0450328 4.96375e-20)
(-0.0322696 0.0494048 -1.18613e-19)
(-0.0361505 0.0521986 -2.05599e-19)
(-0.0392271 0.0536163 1.27445e-19)
(-0.0414414 0.0538564 -1.4492e-20)
(-0.0427397 0.0531123 -2.86419e-19)
(-0.0430705 0.051575 5.43695e-20)
(-0.0423823 0.0494364 3.02671e-20)
(-0.0406237 0.0468988 -5.21247e-20)
(-0.0377473 0.0441864 1.36284e-19)
(-0.0337195 0.0415643 2.62722e-19)
(-0.0285383 0.0393607 -1.69327e-19)
(-0.0222571 0.0379977 1.3619e-19)
(-0.0151272 0.0379722 3.28138e-20)
(-0.0075809 0.0398554 1.86627e-19)
(0.00125581 0.0450685 8.37546e-20)
(-0.00388473 0.00790369 -7.22228e-20)
(-0.0108382 0.0208885 -8.26708e-21)
(-0.0174447 0.0314032 1.77562e-19)
(-0.0234467 0.0396931 1.74185e-19)
(-0.0287541 0.0459496 -3.53059e-20)
(-0.033287 0.0503762 -2.21054e-20)
(-0.0369729 0.0531817 2.34511e-19)
(-0.039751 0.0545726 -1.68202e-19)
(-0.0415674 0.0547499 5.06953e-20)
(-0.0423715 0.0539091 2.0793e-19)
(-0.0421129 0.0522411 1.97231e-19)
(-0.0407388 0.049937 7.6018e-20)
(-0.0381941 0.047197 3.29155e-19)
(-0.0344236 0.0442446 -4.48651e-20)
(-0.0293824 0.0413478 -3.41566e-19)
(-0.0230536 0.0388483 1.66322e-19)
(-0.0154753 0.0372031 -8.78844e-20)
(-0.00690059 0.0369774 -2.027e-19)
(0.00223009 0.038878 -1.4227e-19)
(0.0128192 0.0445826 -1.43033e-19)
(-0.0041501 0.00805851 4.61714e-20)
(-0.0115063 0.0212841 9.39245e-20)
(-0.0183785 0.0319812 -6.46964e-20)
(-0.0245189 0.0403994 -7.95716e-20)
(-0.0298402 0.0467355 -8.16334e-20)
(-0.0342673 0.0511985 -2.18407e-20)
(-0.0377327 0.0540022 -2.99561e-19)
(-0.0401803 0.0553571 1.14652e-19)
(-0.0415603 0.0554672 -1.04455e-19)
(-0.0418247 0.0545292 -1.74564e-19)
(-0.0409242 0.0527335 6.12192e-21)
(-0.0388047 0.050269 -4.33298e-19)
(-0.035407 0.0473324 -3.32713e-19)
(-0.0306681 0.0441435 1.04074e-19)
(-0.024531 0.0409691 5.21459e-20)
(-0.0169625 0.038159 -1.10719e-19)
(-0.0079817 0.0361994 4.25103e-19)
(0.00216166 0.0357229 -6.60722e-20)
(0.0130052 0.0375829 1.78173e-19)
(0.0255315 0.0437858 1.59914e-19)
(-0.00441787 0.00819553 -6.33615e-20)
(-0.0121771 0.0216283 -2.04168e-19)
(-0.0193103 0.0324772 6.41402e-20)
(-0.0255785 0.0409965 3.54136e-21)
(-0.0308974 0.0473891 2.67138e-19)
(-0.0351957 0.0518698 -1.57669e-19)
(-0.0384106 0.054658 -1.33726e-19)
(-0.0404907 0.0559683 1.59152e-19)
(-0.0413898 0.0560075 -9.38484e-21)
(-0.0410623 0.0549734 7.29092e-20)
(-0.0394595 0.0530556 2.19206e-19)
(-0.036526 0.0504401 4.53714e-19)
(-0.0321982 0.0473183 3.60426e-20)
(-0.0264054 0.0439038 -1.96894e-19)
(-0.0190784 0.0404578 3.54187e-20)
(-0.0101666 0.0373315 3.411e-19)
(0.000332815 0.0350327 -2.29211e-19)
(0.0121788 0.034256 9.86641e-22)
(0.0248778 0.0360045 1.73376e-19)
(0.0395397 0.0427023 -1.07441e-19)
(-0.00468729 0.00831492 -6.06518e-20)
(-0.0128478 0.0219212 2.41213e-19)
(-0.0202347 0.0328907 -1.82194e-19)
(-0.0266173 0.0414833 -3.6845e-20)
(-0.0319135 0.0479087 -6.1461e-20)
(-0.0360557 0.0523883 -1.57932e-19)
(-0.0389855 0.0551472 1.55669e-19)
(-0.0406555 0.0564044 -4.07317e-20)
(-0.0410225 0.05637 -8.98372e-20)
(-0.0400429 0.0552428 1.45484e-19)
(-0.0376684 0.0532116 -1.6698e-19)
(-0.0338418 0.0504588 -5.32717e-20)
(-0.0284949 0.0471696 -5.88105e-21)
(-0.0215496 0.0435489 1.38198e-19)
(-0.0129245 0.0398481 -1.23718e-19)
(-0.00255188 0.0364127 -2.31423e-19)
(0.00959508 0.033762 -7.02101e-20)
(0.0232892 0.0326425 -1.00646e-19)
(0.0379977 0.0342023 -3.04343e-19)
(0.0550142 0.0413708 -9.0838e-20)
(-0.00495759 0.00841684 8.60295e-20)
(-0.0135154 0.0221627 -1.05889e-19)
(-0.0211459 0.0332214 -1.31206e-19)
(-0.0276261 0.0418591 -1.22757e-19)
(-0.0328754 0.0482931 4.0431e-20)
(-0.0368297 0.0527523 2.25122e-20)
(-0.0394342 0.0554679 5.5532e-20)
(-0.040645 0.0566641 -1.91479e-19)
(-0.0404214 0.0565542 1.09236e-19)
(-0.0387211 0.0553387 -3.23564e-19)
(-0.0354952 0.0532055 -1.6068e-19)
(-0.0306843 0.0503336 2.60377e-21)
(-0.0242159 0.0469015 1.39332e-19)
(-0.016004 0.0431036 -9.03978e-20)
(-0.00595614 0.0391778 2.28271e-19)
(0.00601158 0.0354563 -5.53469e-20)
(0.0199504 0.0324582 7.13068e-20)
(0.0356513 0.0309669 2.66497e-19)
(0.0525334 0.0322598 3.47867e-20)
(0.0721438 0.0398571 1.68829e-19)
(-0.00522798 0.00850143 -1.81721e-19)
(-0.0141769 0.0223529 1.42394e-19)
(-0.022038 0.0334688 1.58292e-19)
(-0.0285952 0.0421228 -9.10379e-20)
(-0.0337691 0.0485409 1.53905e-19)
(-0.0374984 0.0529601 1.46949e-19)
(-0.0397316 0.0556185 -2.63377e-20)
(-0.0404271 0.0567458 -1.45806e-19)
(-0.0395463 0.0565595 -2.14172e-19)
(-0.0370469 0.0552621 6.14679e-20)
(-0.0328787 0.0530413 5.92029e-21)
(-0.0269793 0.0500731 -1.57326e-19)
(-0.0192713 0.0465294 1.15906e-19)
(-0.00966165 0.0425934 -8.99682e-20)
(0.00195245 0.0384866 -1.61938e-19)
(0.0156689 0.034521 -2.09258e-19)
(0.0315618 0.0312026 5.07844e-20)
(0.0494435 0.0293319 6.99137e-20)
(0.068672 0.0302867 -6.63623e-20)
(0.0911336 0.0382574 2.79134e-19)
(-0.00549763 0.00856879 -1.43463e-19)
(-0.014829 0.0224915 -1.31037e-19)
(-0.0229044 0.0336325 1.02451e-19)
(-0.029514 0.0422735 5.89739e-20)
(-0.0345794 0.0486507 2.37932e-20)
(-0.0380411 0.05301 -4.3131e-20)
(-0.0398503 0.0555971 -3.01557e-20)
(-0.0399672 0.0566483 6.81479e-20)
(-0.0383535 0.0563854 -6.08802e-20)
(-0.0349662 0.055014 5.04258e-19)
(-0.0297526 0.0527226 3.63749e-20)
(-0.0226461 0.0496852 -5.53046e-20)
(-0.0135638 0.046068 -3.6058e-19)
(-0.002406 0.0420432 6.8905e-20)
(0.0109387 0.0378145 -1.74556e-19)
(0.0265793 0.0336682 1.14343e-19)
(0.044609 0.0300841 1.03809e-19)
(0.0648619 0.0278567 -3.91294e-19)
(0.086617 0.0284192 -1.20625e-19)
(0.112201 0.0367041 -4.172e-19)
(-0.00576567 0.00861898 6.9382e-20)
(-0.0154682 0.0225785 1.35602e-19)
(-0.0237381 0.0337119 -2.41644e-19)
(-0.0303713 0.0423104 -1.8309e-19)
(-0.0352897 0.0486214 9.18222e-20)
(-0.0384353 0.0529006 8.55559e-20)
(-0.0397609 0.0554025 -1.7553e-19)
(-0.0392275 0.0563703 -1.56214e-20)
(-0.0367959 0.0560316 2.11105e-20)
(-0.0324209 0.0545956 -1.5185e-19)
(-0.0260455 0.052253 2.18332e-19)
(-0.0175979 0.0491773 1.24724e-21)
(-0.00698895 0.0455308 2.7041e-19)
(0.00588762 0.0414762 1.81611e-19)
(0.02115 0.0371998 3.01623e-20)
(0.0389137 0.0329586 3.75347e-19)
(0.059285 0.029195 -3.37333e-19)
(0.0821173 0.0266727 1.54799e-19)
(0.106585 0.0268187 1.19817e-19)
(0.135569 0.0353696 1.03331e-19)
(-0.00603117 0.00865205 3.33951e-19)
(-0.0160909 0.0226137 -2.29271e-19)
(-0.0245317 0.0337066 5.51425e-20)
(-0.0311549 0.0422327 1.77693e-19)
(-0.0358824 0.0484517 -1.89534e-19)
(-0.0386568 0.0526307 9.27059e-21)
(-0.0394319 0.0550335 1.41081e-19)
(-0.0381678 0.0559113 2.56661e-19)
(-0.0348232 0.055498 2.5707e-19)
(-0.0293487 0.0540082 -2.51905e-19)
(-0.0216816 0.0516359 -1.92288e-19)
(-0.011743 0.0485562 9.03046e-20)
(0.000563478 0.0449301 -2.57043e-19)
(0.0153506 0.0409135 1.73446e-20)
(0.032741 0.0366776 9.80262e-20)
(0.0528515 0.0324496 7.44598e-20)
(0.0757927 0.0286263 2.27439e-19)
(0.10143 0.0259177 4.72833e-20)
(0.128801 0.0256675 -1.68303e-19)
(0.161456 0.0344695 1.80413e-19)
(-0.00629316 0.00866799 -3.16621e-19)
(-0.016693 0.0225967 2.28315e-19)
(-0.025277 0.0336159 5.49031e-20)
(-0.0318518 0.0420394 -1.76125e-19)
(-0.0363384 0.0481409 7.36245e-20)
(-0.0386798 0.0521995 -3.51906e-20)
(-0.0388292 0.0544895 -2.62794e-20)
(-0.0367449 0.0552709 -2.16616e-19)
(-0.0323816 0.0547853 -3.38284e-19)
(-0.0256837 0.0532535 2.17711e-19)
(-0.0165808 0.0508749 -1.11506e-19)
(-0.00498503 0.0478285 3.4575e-21)
(0.00920852 0.0442768 6.18803e-20)
(0.026119 0.0403732 1.30006e-19)
(0.0458713 0.0362779 -1.56197e-20)
(0.0685771 0.0321916 -3.58704e-20)
(0.0943398 0.0284621 -1.83032e-19)
(0.123025 0.025728 -1.21458e-19)
(0.153491 0.0251614 -1.13731e-19)
(0.190064 0.0342624 1.82271e-19)
(-0.00655055 0.00866674 2.53846e-19)
(-0.0172703 0.0225271 -6.43916e-20)
(-0.0259653 0.0334392 2.16853e-19)
(-0.0324477 0.04173 5.2036e-20)
(-0.0366372 0.0476883 -1.13493e-19)
(-0.0384763 0.0516066 1.81991e-20)
(-0.0379165 0.0537707 -2.36907e-19)
(-0.0349128 0.0544501 1.0663e-19)
(-0.029414 0.0538953 5.71216e-20)
(-0.0213563 0.0523347 8.54259e-21)
(-0.0106591 0.0499747 7.76707e-20)
(0.00277622 0.0470009 2.74763e-20)
(0.0190646 0.0435809 -1.23805e-19)
(0.0383316 0.0398706 -2.85409e-19)
(0.060702 0.0360255 1.4319e-19)
(0.086275 0.0322261 -7.08392e-20)
(0.115134 0.0287748 -1.7255e-20)
(0.147122 0.0262291 2.93702e-19)
(0.180883 0.0254994 3.04078e-19)
(0.221564 0.0350472 -4.65018e-19)
(-0.00680217 0.00864821 -6.48024e-20)
(-0.0178178 0.0224046 -6.93309e-20)
(-0.0265871 0.0331761 -1.35895e-19)
(-0.0329274 0.0413039 9.85224e-20)
(-0.0367568 0.0470937 1.76929e-19)
(-0.0380163 0.0508524 -2.26473e-19)
(-0.036655 0.0528779 3.58025e-19)
(-0.0326225 0.0534509 -6.92604e-20)
(-0.02586 0.052831 1.00377e-20)
(-0.0162932 0.0512561 -2.35084e-19)
(-0.00382907 0.0489412 7.87063e-21)
(0.0116439 0.0460812 -1.89777e-19)
(0.0302521 0.0428526 2.51916e-19)
(0.0521276 0.0394192 1.6406e-19)
(0.0773921 0.0359397 -3.17272e-19)
(0.106125 0.0325843 -2.67392e-19)
(0.138374 0.0296204 6.10786e-20)
(0.173931 0.0275267 3.52109e-19)
(0.211194 0.0268729 1.60542e-19)
(0.256075 0.0371575 8.62504e-20)
(-0.00704671 0.00861224 2.01157e-20)
(-0.0183305 0.0222287 6.724e-20)
(-0.0271321 0.0328259 8.00939e-20)
(-0.0332743 0.0407609 -6.62534e-20)
(-0.0366733 0.0463574 1.64155e-19)
(-0.0372679 0.0499379 2.1766e-19)
(-0.0350032 0.0518136 3.39132e-21)
(-0.0298221 0.0522767 -2.75186e-19)
(-0.021656 0.0515977 -2.17667e-19)
(-0.0104179 0.0500245 2.25576e-19)
(0.00399971 0.0477831 -3.6493e-19)
(0.0217234 0.0450796 -3.32416e-19)
(0.0428921 0.0421034 -3.29038e-20)
(0.0676441 0.0390316 -1.69424e-20)
(0.0960954 0.0360351 1.122e-19)
(0.128298 0.033286 7.28579e-20)
(0.164249 0.0310354 9.36055e-20)
(0.203644 0.0296961 -4.35342e-19)
(0.244643 0.0294497 -1.18965e-19)
(0.293651 0.040939 3.11085e-19)
(-0.00728272 0.00855863 -1.20383e-19)
(-0.0188027 0.0219988 1.14576e-19)
(-0.0275891 0.0323883 -8.36501e-20)
(-0.0334705 0.0401011 -4.1095e-20)
(-0.0363611 0.0454804 -1.10808e-19)
(-0.0361965 0.0488654 -8.30881e-20)
(-0.0329168 0.0505814 -1.47089e-19)
(-0.0264566 0.0509332 2.4051e-19)
(-0.0167351 0.0502029 9.46176e-20)
(-0.00365091 0.0486498 -2.29787e-19)
(0.0129202 0.0465119 -2.76146e-19)
(0.0331211 0.0440093 1.46323e-19)
(0.0571041 0.0413471 -1.35357e-19)
(0.085013 0.0387212 -1.8786e-19)
(0.116955 0.0363229 -2.38872e-20)
(0.152948 0.0343408 1.89208e-19)
(0.192926 0.0330357 -1.2504e-19)
(0.236427 0.0327728 4.72006e-20)
(0.28145 0.0333541 1.05086e-19)
(0.334286 0.0467085 2.63125e-19)
(-0.00750856 0.0084871 -1.23418e-20)
(-0.019228 0.0217143 -2.83002e-19)
(-0.0279456 0.031863 6.82284e-20)
(-0.0334965 0.0393249 1.50123e-19)
(-0.0357925 0.0444643 -2.73004e-20)
(-0.0347655 0.0476382 -1.77898e-19)
(-0.0303491 0.0491869 1.94038e-19)
(-0.0224678 0.0494284 2.19837e-19)
(-0.0110274 0.0486573 8.32107e-20)
(0.00409026 0.0471453 4.0876e-19)
(0.0230271 0.0451439 -1.88081e-19)
(0.0459435 0.0428883 6.70906e-20)
(0.0730046 0.0406022 -9.1077e-20)
(0.104359 0.0385039 2.16891e-19)
(0.140101 0.0368132 -1.88806e-20)
(0.180206 0.0357492 -4.90039e-20)
(0.224539 0.0356169 -7.74237e-20)
(0.272399 0.0367475 1.20428e-19)
(0.321812 0.0386762 -3.00165e-19)
(0.377842 0.0547844 -4.03703e-19)
(-0.0077224 0.0083973 -6.98343e-20)
(-0.0195995 0.0213745 -2.51423e-20)
(-0.0281884 0.0312497 -2.26197e-19)
(-0.0333314 0.0384331 1.36997e-19)
(-0.0349379 0.0433117 -1.3835e-19)
(-0.0329354 0.0462611 -1.39006e-19)
(-0.02725 0.0476375 -1.2405e-20)
(-0.0177945 0.0477729 -2.21736e-19)
(-0.00445968 0.0469751 -3.47995e-19)
(0.0128904 0.0455289 9.41643e-20)
(0.0344163 0.0437001 1.04381e-19)
(0.0602953 0.0417402 -4.37229e-20)
(0.0907042 0.0398924 3.39881e-19)
(0.125793 0.0383999 -3.06155e-20)
(0.165641 0.0375156 -6.66992e-20)
(0.210177 0.0375026 -9.207e-21)
(0.259193 0.0387499 1.64372e-19)
(0.311644 0.0415581 2.89021e-19)
(0.365869 0.045568 -8.02859e-20)
(0.423743 0.0657809 2.93364e-19)
(-0.00792215 0.00828881 2.18911e-19)
(-0.0199095 0.0209788 -3.45024e-20)
(-0.0283026 0.0305485 1.99736e-19)
(-0.0329525 0.0374273 -2.02603e-19)
(-0.0337656 0.0420262 2.95868e-19)
(-0.0306646 0.0447405 2.44918e-19)
(-0.0235669 0.045943 -1.99044e-19)
(-0.0123728 0.0459805 -3.66445e-19)
(0.00304346 0.0451743 6.00823e-19)
(0.0228359 0.0438232 1.46765e-19)
(0.0471834 0.0422076 -1.13111e-19)
(0.0762781 0.0405952 -1.10579e-19)
(0.110305 0.0392485 -1.1494e-19)
(0.14941 0.038435 -8.44161e-20)
(0.193654 0.038441 -2.76529e-19)
(0.242923 0.0395797 -7.45464e-20)
(0.296954 0.0423584 6.12984e-21)
(0.354303 0.0470467 -1.98498e-19)
(0.413959 0.0542989 9.75414e-20)
(0.470952 0.0805522 -2.07617e-19)
(-0.00810544 0.00816117 -3.49748e-19)
(-0.0201495 0.0205264 2.28776e-19)
(-0.0282724 0.0297594 -3.37084e-19)
(-0.0323351 0.0363094 -1.8164e-19)
(-0.0322415 0.0406124 6.69717e-20)
(-0.0279086 0.0430845 -2.64641e-19)
(-0.0192445 0.0441157 4.10235e-19)
(-0.00613587 0.0440681 7.0175e-21)
(0.0115598 0.0432773 -2.23395e-19)
(0.0340143 0.0420563 -1.93014e-19)
(0.0614227 0.0406998 -3.40864e-19)
(0.0939878 0.0394911 -4.10701e-21)
(0.131896 0.0387098 -4.74991e-20)
(0.175282 0.0386432 -1.36876e-19)
(0.22418 0.0396042 3.3356e-19)
(0.278434 0.0419461 2.03982e-19)
(0.337789 0.046293 5.03245e-20)
(0.400561 0.0528817 -2.14526e-19)
(0.467247 0.0647429 -1.15231e-20)
(0.521067 0.0969269 -3.45273e-19)
(-0.00826951 0.00801376 1.24237e-19)
(-0.0203102 0.0200166 -2.28771e-19)
(-0.0280803 0.028883 2.91016e-19)
(-0.0314529 0.0350821 4.04716e-19)
(-0.0303292 0.0390762 -1.30247e-19)
(-0.0246205 0.0413029 1.68082e-20)
(-0.0142249 0.0421702 -3.45795e-19)
(0.000985193 0.0420561 -8.49778e-20)
(0.0211684 0.0413108 -2.62036e-19)
(0.0465127 0.0402614 3.37907e-19)
(0.077225 0.0392167 3.0975e-19)
(0.113512 0.0384736 -5.44568e-20)
(0.155551 0.0383248 -4.05386e-20)
(0.20345 0.0390696 -6.44817e-20)
(0.257203 0.0410327 5.9932e-20)
(0.316602 0.044575 -1.06725e-19)
(0.381425 0.0503781 -1.22681e-19)
(0.450032 0.0585627 2.5801e-19)
(0.526044 0.0751162 -8.2991e-20)
(0.583784 0.104194 6.76647e-21)
(-0.00841129 0.00784609 3.28021e-20)
(-0.020381 0.0194489 4.62707e-20)
(-0.0277076 0.0279201 -1.52338e-19)
(-0.0302777 0.0337488 -4.17086e-19)
(-0.0279905 0.0374246 6.68956e-20)
(-0.0207513 0.0394076 2.00361e-19)
(-0.00844784 0.0401241 9.04651e-20)
(0.00906108 0.0399685 3.83925e-19)
(0.0319491 0.039306 -2.38422e-19)
(0.0604166 0.0384776 -3.06561e-19)
(0.0946764 0.0378049 -5.55128e-20)
(0.134928 0.0375961 1.36747e-19)