/*--------------------------------*- C++ -*----------------------------------*\
  =========                 |
  \\      /  F ield         | OpenFOAM: The Open Source CFD Toolbox
   \\    /   O peration     | Website:  https://openfoam.org
    \\  /    A nd           | Version:  7
     \\/     M anipulation  |
\*---------------------------------------------------------------------------*/
FoamFile
{
    version     2.0;
    format      ascii;
    class       volScalarField;
    location    "100";
    object      p;
}
// * * * * * * * * * * * * * * * * * * * * * * * * * * * * * * * * * * * * * //

dimensions      [0 2 -2 0 0 0 0];

internalField   nonuniform List<scalar> 
4575
(
-0.36975
-0.371227
-0.372001
-0.368299
-0.369624
-0.370309
-0.36693
-0.3681
-0.368694
-0.365635
-0.366649
-0.367149
-0.364405
-0.365261
-0.36567
-0.363229
-0.363932
-0.364248
-0.362099
-0.362652
-0.362879
-0.361008
-0.361418
-0.361558
-0.359948
-0.360221
-0.360278
-0.360203
-0.358913
-0.359059
-0.359036
-0.358885
-0.357895
-0.357925
-0.357828
-0.357605
-0.356893
-0.356818
-0.356652
-0.356361
-0.3559
-0.355734
-0.355506
-0.355151
-0.354915
-0.354671
-0.354389
-0.353975
-0.353936
-0.35363
-0.353299
-0.352832
-0.352964
-0.352611
-0.352239
-0.351723
-0.351999
-0.351614
-0.351209
-0.35065
-0.349907
-0.351044
-0.350642
-0.350212
-0.349616
-0.348822
-0.350102
-0.349698
-0.34925
-0.348622
-0.347782
-0.349177
-0.348787
-0.348329
-0.347674
-0.34679
-0.348277
-0.347914
-0.347452
-0.346775
-0.345851
-0.344662
-0.347407
-0.347086
-0.346625
-0.345931
-0.34497
-0.343723
-0.346576
-0.346308
-0.345855
-0.345147
-0.344151
-0.34285
-0.345795
-0.345589
-0.345149
-0.34443
-0.343402
-0.342047
-0.345072
-0.344938
-0.344513
-0.343787
-0.342728
-0.341321
-0.339568
-0.344421
-0.344364
-0.343958
-0.343224
-0.342137
-0.34068
-0.338857
-0.343853
-0.343878
-0.343491
-0.342751
-0.341636
-0.34013
-0.33824
-0.343381
-0.343489
-0.343122
-0.342376
-0.341233
-0.339679
-0.337725
-0.335398
-0.34302
-0.343209
-0.34286
-0.342107
-0.340935
-0.339335
-0.33732
-0.33492
-0.342782
-0.343048
-0.342714
-0.341953
-0.340752
-0.339106
-0.337032
-0.334564
-0.342682
-0.343018
-0.342696
-0.341922
-0.340691
-0.339001
-0.336871
-0.334339
-0.331458
-0.342734
-0.34313
-0.342813
-0.342024
-0.340761
-0.339026
-0.336843
-0.334253
-0.331311
-0.34295
-0.343393
-0.343075
-0.342265
-0.340969
-0.339189
-0.336956
-0.334313
-0.331319
-0.328047
-0.343342
-0.343817
-0.343491
-0.342655
-0.341321
-0.339497
-0.337216
-0.334525
-0.331485
-0.328172
-0.343922
-0.34441
-0.344067
-0.343199
-0.341824
-0.339954
-0.337628
-0.334894
-0.331816
-0.32847
-0.344697
-0.34518
-0.34481
-0.343903
-0.342483
-0.340567
-0.338196
-0.335423
-0.332312
-0.328942
-0.3254
-0.345678
-0.346134
-0.345725
-0.344771
-0.343301
-0.341337
-0.338923
-0.336113
-0.332975
-0.329586
-0.326036
-0.346868
-0.347275
-0.346817
-0.345808
-0.344282
-0.342266
-0.339808
-0.336965
-0.333803
-0.330401
-0.326847
-0.32323
-0.348273
-0.348609
-0.348089
-0.347016
-0.345428
-0.343356
-0.340853
-0.337976
-0.334792
-0.331381
-0.327827
-0.324218
-0.349895
-0.350136
-0.349543
-0.348396
-0.346738
-0.344606
-0.342055
-0.339143
-0.335939
-0.33252
-0.328967
-0.325367
-0.321799
-0.351735
-0.351859
-0.351179
-0.349947
-0.348212
-0.346015
-0.343412
-0.340464
-0.337238
-0.333809
-0.330258
-0.326666
-0.323108
-0.353793
-0.353778
-0.352999
-0.351671
-0.349849
-0.347579
-0.34492
-0.341932
-0.338682
-0.335242
-0.33169
-0.328101
-0.324547
-0.321091
-0.356068
-0.355893
-0.355
-0.353566
-0.351648
-0.349298
-0.346576
-0.343543
-0.340264
-0.33681
-0.333253
-0.329661
-0.326102
-0.322631
-0.319292
-0.358556
-0.3582
-0.357183
-0.355632
-0.353607
-0.351168
-0.348376
-0.345292
-0.34198
-0.338506
-0.334936
-0.331333
-0.327755
-0.324252
-0.32086
-0.361255
-0.360701
-0.359547
-0.357866
-0.355724
-0.353188
-0.350318
-0.347176
-0.343824
-0.340323
-0.336732
-0.333106
-0.329493
-0.325933
-0.322453
-0.319142
-0.364163
-0.363392
-0.36209
-0.360267
-0.357999
-0.355355
-0.352399
-0.349192
-0.345792
-0.342256
-0.338633
-0.33497
-0.331301
-0.327654
-0.324046
-0.320546
-0.317039
-0.367277
-0.366274
-0.364811
-0.362837
-0.360431
-0.35767
-0.354619
-0.351339
-0.347883
-0.3443
-0.340634
-0.336915
-0.333166
-0.3294
-0.325617
-0.321869
-0.318036
-0.370593
-0.369345
-0.367711
-0.365573
-0.36302
-0.360133
-0.356979
-0.353616
-0.350094
-0.346454
-0.342728
-0.338933
-0.335075
-0.331153
-0.327149
-0.323094
-0.318868
-0.315018
-0.374111
-0.372605
-0.370789
-0.368478
-0.365767
-0.362745
-0.359479
-0.356025
-0.352426
-0.348716
-0.344912
-0.341016
-0.337018
-0.332897
-0.328624
-0.324208
-0.319533
-0.315033
-0.309214
-0.37783
-0.376053
-0.374046
-0.371553
-0.368675
-0.36551
-0.362123
-0.358568
-0.354881
-0.351085
-0.347182
-0.343157
-0.338982
-0.33462
-0.330028
-0.325202
-0.320032
-0.314869
-0.308467
-0.304677
-0.381748
-0.37969
-0.377483
-0.3748
-0.371747
-0.368431
-0.364914
-0.361248
-0.357461
-0.35356
-0.349534
-0.345348
-0.340956
-0.336307
-0.331348
-0.326067
-0.320369
-0.314543
-0.307564
-0.302609
-0.385867
-0.383517
-0.381103
-0.378221
-0.374987
-0.371511
-0.367857
-0.364069
-0.360166
-0.356141
-0.351963
-0.34758
-0.342929
-0.337946
-0.332574
-0.326799
-0.320547
-0.314068
-0.306528
-0.300573
-0.390187
-0.387535
-0.384907
-0.38182
-0.378398
-0.374756
-0.370956
-0.367035
-0.362999
-0.358826
-0.354464
-0.349845
-0.344888
-0.339524
-0.333695
-0.327395
-0.320572
-0.313456
-0.305376
-0.298563
-0.394709
-0.391745
-0.388898
-0.385601
-0.381984
-0.37817
-0.374215
-0.370148
-0.365961
-0.361611
-0.357031
-0.352131
-0.346822
-0.34103
-0.334705
-0.327851
-0.320449
-0.312717
-0.304118
-0.296567
-0.399435
-0.39615
-0.393077
-0.389565
-0.38575
-0.381757
-0.377639
-0.37341
-0.369049
-0.364493
-0.359653
-0.354428
-0.348718
-0.342452
-0.335594
-0.328167
-0.320182
-0.311857
-0.302765
-0.294575
-0.404364
-0.400749
-0.397447
-0.393716
-0.389698
-0.385521
-0.381228
-0.376821
-0.37226
-0.367463
-0.362322
-0.356722
-0.350562
-0.34378
-0.336358
-0.328343
-0.319777
-0.310882
-0.301322
-0.292573
-0.409496
-0.405544
-0.402008
-0.398056
-0.393831
-0.389463
-0.384984
-0.38038
-0.375591
-0.370514
-0.365025
-0.359
-0.352342
-0.345003
-0.336991
-0.328378
-0.319237
-0.309797
-0.299792
-0.290548
-0.414832
-0.410533
-0.406761
-0.402585
-0.398151
-0.393585
-0.388905
-0.384082
-0.379032
-0.373633
-0.367747
-0.361246
-0.354044
-0.346113
-0.337489
-0.328272
-0.318565
-0.308604
-0.298177
-0.288491
-0.420368
-0.415715
-0.411705
-0.407304
-0.402656
-0.397884
-0.392989
-0.38792
-0.382573
-0.376806
-0.370472
-0.363445
-0.355654
-0.347099
-0.337847
-0.328026
-0.317766
-0.307305
-0.296478
-0.286389
-0.4261
-0.421086
-0.416837
-0.41221
-0.407344
-0.402356
-0.397228
-0.391885
-0.386201
-0.380018
-0.373183
-0.36558
-0.35716
-0.347953
-0.338061
-0.327639
-0.31684
-0.305901
-0.294693
-0.284235
-0.432024
-0.426642
-0.422154
-0.417299
-0.412212
-0.406997
-0.401614
-0.395964
-0.389899
-0.383249
-0.375861
-0.367633
-0.358548
-0.348668
-0.338129
-0.327112
-0.315788
-0.304392
-0.292822
-0.28202
-0.43813
-0.432377
-0.427649
-0.422566
-0.417252
-0.411796
-0.406134
-0.400141
-0.39365
-0.38648
-0.378485
-0.369589
-0.359804
-0.349234
-0.338047
-0.326443
-0.314611
-0.302777
-0.290861
-0.279735
-0.44441
-0.438281
-0.433314
-0.428002
-0.422454
-0.416743
-0.410775
-0.404399
-0.397431
-0.389687
-0.381035
-0.371428
-0.360917
-0.349645
-0.33781
-0.325632
-0.313307
-0.301053
-0.288807
-0.277374
-0.450851
-0.444343
-0.439139
-0.433597
-0.427808
-0.421823
-0.415517
-0.408716
-0.401219
-0.392847
-0.383489
-0.373133
-0.361875
-0.349893
-0.337415
-0.324675
-0.311874
-0.299218
-0.286656
-0.274929
-0.457437
-0.45055
-0.445111
-0.439338
-0.433299
-0.427018
-0.420341
-0.413067
-0.404989
-0.395935
-0.385824
-0.374688
-0.362664
-0.34997
-0.336857
-0.32357
-0.31031
-0.297268
-0.284404
-0.272394
-0.464151
-0.456887
-0.451215
-0.445209
-0.438907
-0.432308
-0.425221
-0.417427
-0.408712
-0.398925
-0.38802
-0.376074
-0.363274
-0.349869
-0.336133
-0.322314
-0.308611
-0.295199
-0.282046
-0.269763
-0.470973
-0.463334
-0.457432
-0.451191
-0.444614
-0.437668
-0.430132
-0.421766
-0.412361
-0.40179
-0.390053
-0.377277
-0.363692
-0.349583
-0.335235
-0.320901
-0.306773
-0.293005
-0.279575
-0.267029
-0.477881
-0.469871
-0.463744
-0.457262
-0.450395
-0.443073
-0.435043
-0.426053
-0.415904
-0.404504
-0.391902
-0.378278
-0.363908
-0.349102
-0.33416
-0.319328
-0.30479
-0.290683
-0.276987
-0.264187
-0.463399
-0.456223
-0.448493
-0.439924
-0.430257
-0.419312
-0.407039
-0.393544
-0.379062
-0.363909
-0.348421
-0.332899
-0.317588
-0.302658
-0.288224
-0.274275
-0.261229
-0.453895
-0.444739
-0.434342
-0.422551
-0.409369
-0.39496
-0.379615
-0.363686
-0.347529
-0.331447
-0.315675
-0.300368
-0.285624
-0.271434
-0.258149
-0.425592
-0.411468
-0.396129
-0.379919
-0.363226
-0.346418
-0.329797
-0.313582
-0.297916
-0.282875
-0.268455
-0.254943
-0.362519
-0.34508
-0.327939
-0.311302
-0.295293
-0.27997
-0.265333
-0.251602
-0.308827
-0.292493
-0.276903
-0.26206
-0.248121
-0.244494
-0.312797
-0.391477
-0.371778
-0.352852
-0.334699
-0.317485
-0.478418
-0.457317
-0.436274
-0.415586
-0.395449
-0.375977
-0.357212
-0.339154
-0.322042
-0.536695
-0.519096
-0.500111
-0.48019
-0.459788
-0.439307
-0.419056
-0.399251
-0.380022
-0.361433
-0.343478
-0.326476
-0.574482
-0.563269
-0.550261
-0.535396
-0.518802
-0.500771
-0.481703
-0.462025
-0.442133
-0.422346
-0.402893
-0.383925
-0.365524
-0.347682
-0.330796
-0.587536
-0.579502
-0.570407
-0.559909
-0.547759
-0.533851
-0.518245
-0.50117
-0.482971
-0.464041
-0.444765
-0.425465
-0.406386
-0.387694
-0.369495
-0.351775
-0.335012
-0.604029
-0.595716
-0.58937
-0.582464
-0.574813
-0.566235
-0.556407
-0.545073
-0.532086
-0.51745
-0.501328
-0.484008
-0.465848
-0.447212
-0.428424
-0.40974
-0.391343
-0.373359
-0.355767
-0.339133
-0.598101
-0.590135
-0.584017
-0.577384
-0.570094
-0.561998
-0.552798
-0.542234
-0.53013
-0.516439
-0.501262
-0.484829
-0.467456
-0.449484
-0.431233
-0.412966
-0.39488
-0.377124
-0.35967
-0.343169
-0.59219
-0.584576
-0.57869
-0.572322
-0.565373
-0.557727
-0.549112
-0.539272
-0.528011
-0.515237
-0.500992
-0.48545
-0.468879
-0.451593
-0.433901
-0.416073
-0.398316
-0.380802
-0.363493
-0.347131
-0.586322
-0.579065
-0.573409
-0.567301
-0.560676
-0.55345
-0.545379
-0.536219
-0.525758
-0.513867
-0.500537
-0.485884
-0.470127
-0.453548
-0.436439
-0.419072
-0.401662
-0.384404
-0.367248
-0.351029
-0.580518
-0.57362
-0.568198
-0.562343
-0.556025
-0.549191
-0.541627
-0.533101
-0.523396
-0.512354
-0.499917
-0.486148
-0.471213
-0.455358
-0.438856
-0.421972
-0.404928
-0.38794
-0.370946
-0.354876
-0.574801
-0.568262
-0.563073
-0.557466
-0.551441
-0.544974
-0.537879
-0.529945
-0.520952
-0.510721
-0.499152
-0.486256
-0.472149
-0.457034
-0.441159
-0.424781
-0.408123
-0.391421
-0.374597
-0.358682
-0.56919
-0.563008
-0.55805
-0.552686
-0.546942
-0.540818
-0.53416
-0.526776
-0.518451
-0.508991
-0.498262
-0.486225
-0.472946
-0.458584
-0.443357
-0.427508
-0.411257
-0.394857
-0.378213
-0.362461
-0.5637
-0.557871
-0.553144
-0.548019
-0.542544
-0.536742
-0.53049
-0.523616
-0.515917
-0.507187
-0.497265
-0.48607
-0.473617
-0.460018
-0.445458
-0.430161
-0.414337
-0.398258
-0.381804
-0.366225
-0.558346
-0.552864
-0.548366
-0.543475
-0.538258
-0.532761
-0.526887
-0.520487
-0.513371
-0.505331
-0.496183
-0.485807
-0.474173
-0.461345
-0.447468
-0.432745
-0.417372
-0.401634
-0.385382
-0.369988
-0.553142
-0.547999
-0.543726
-0.539063
-0.534096
-0.528887
-0.523365
-0.517407
-0.510835
-0.503444
-0.495034
-0.485453
-0.474626
-0.462572
-0.449395
-0.435267
-0.420368
-0.404993
-0.388956
-0.373765
-0.548096
-0.543283
-0.539231
-0.534793
-0.530067
-0.525131
-0.51994
-0.514392
-0.508327
-0.501545
-0.493836
-0.485022
-0.474989
-0.463709
-0.451243
-0.437732
-0.423331
-0.408344
-0.392538
-0.377572
-0.543219
-0.538723
-0.534888
-0.530669
-0.526176
-0.521502
-0.516623
-0.511457
-0.505864
-0.499653
-0.492608
-0.484532
-0.475274
-0.464763
-0.453018
-0.440143
-0.426265
-0.411693
-0.396135
-0.381424
-0.538516
-0.534325
-0.530702
-0.526697
-0.52243
-0.518007
-0.513421
-0.508614
-0.503462
-0.497784
-0.491367
-0.483996
-0.475492
-0.465743
-0.454724
-0.442504
-0.429174
-0.415046
-0.399757
-0.38534
-0.533994
-0.530092
-0.526674
-0.522878
-0.518832
-0.51465
-0.510344
-0.505874
-0.501134
-0.495956
-0.49013
-0.483431
-0.475655
-0.466657
-0.456367
-0.444816
-0.432058
-0.418406
-0.40341
-0.389338
-0.529654
-0.526026
-0.522805
-0.519213
-0.515383
-0.511434
-0.507396
-0.503244
-0.49889
-0.494181
-0.48891
-0.48285
-0.475776
-0.467512
-0.457949
-0.44708
-0.434916
-0.421775
-0.407098
-0.393435
-0.525498
-0.522127
-0.519097
-0.515703
-0.512083
-0.508361
-0.504581
-0.500732
-0.496742
-0.492471
-0.487723
-0.482266
-0.475865
-0.468316
-0.459473
-0.449294
-0.437746
-0.425153
-0.410824
-0.397651
-0.521526
-0.518393
-0.515546
-0.512346
-0.508931
-0.505432
-0.5019
-0.498341
-0.494695
-0.490836
-0.486579
-0.481693
-0.475934
-0.469075
-0.460941
-0.451456
-0.440542
-0.428533
-0.414584
-0.402003
-0.517735
-0.514822
-0.51215
-0.509138
-0.505925
-0.502644
-0.499355
-0.496075
-0.492756
-0.489286
-0.485489
-0.481141
-0.475991
-0.469796
-0.462356
-0.453562
-0.443296
-0.431908
-0.418374
-0.406505
-0.51412
-0.511408
-0.508903
-0.506074
-0.50306
-0.499994
-0.496944
-0.493934
-0.490928
-0.487826
-0.484463
-0.48062
-0.476045
-0.470486
-0.463717
-0.455608
-0.445996
-0.435263
-0.422178
-0.411168
-0.510674
-0.508144
-0.505798
-0.503148
-0.50033
-0.497478
-0.494663
-0.491916
-0.489212
-0.48646
-0.483505
-0.480137
-0.476106
-0.47115
-0.465027
-0.457587
-0.448628
-0.43858
-0.425976
-0.507388
-0.505022
-0.502828
-0.500353
-0.497729
-0.495089
-0.492508
-0.49002
-0.487607
-0.485189
-0.48262
-0.479699
-0.476177
-0.471792
-0.466285
-0.459492
-0.451177
-0.441831
-0.504251
-0.502032
-0.499983
-0.497679
-0.495248
-0.49282
-0.49047
-0.488238
-0.486109
-0.484012
-0.48181
-0.479309
-0.476266
-0.472415
-0.467491
-0.461317
-0.453622
-0.50125
-0.499162
-0.497253
-0.495116
-0.492877
-0.49066
-0.488542
-0.486563
-0.484713
-0.482926
-0.481073
-0.478967
-0.476372
-0.473022
-0.468644
-0.463051
-0.455945
-0.498371
-0.4964
-0.494624
-0.492652
-0.490603
-0.488599
-0.486713
-0.484986
-0.48341
-0.481923
-0.480403
-0.478672
-0.476497
-0.473614
-0.469743
-0.46469
-0.495597
-0.493731
-0.492083
-0.490273
-0.488414
-0.486623
-0.48497
-0.483493
-0.482188
-0.480994
-0.479795
-0.478417
-0.476636
-0.474188
-0.470787
-0.492909
-0.49114
-0.489616
-0.487967
-0.486297
-0.484718
-0.483298
-0.482072
-0.481034
-0.480126
-0.479236
-0.478195
-0.476784
-0.474741
-0.471773
-0.490291
-0.488611
-0.487208
-0.485717
-0.484236
-0.48287
-0.481682
-0.480705
-0.479931
-0.479303
-0.478712
-0.477993
-0.476932
-0.475266
-0.487722
-0.486126
-0.484842
-0.483508
-0.482214
-0.481061
-0.480105
-0.479375
-0.478862
-0.478508
-0.478206
-0.477796
-0.477065
-0.485182
-0.483671
-0.482504
-0.481324
-0.480217
-0.479275
-0.478548
-0.478064
-0.477808
-0.477721
-0.477699
-0.477585
-0.477168
-0.482654
-0.481227
-0.480176
-0.479151
-0.478228
-0.477494
-0.476994
-0.476751
-0.476746
-0.47692
-0.477169
-0.477338
-0.480117
-0.478778
-0.477844
-0.476971
-0.47623
-0.475701
-0.475424
-0.475416
-0.475655
-0.476082
-0.476592
-0.477032
-0.477555
-0.47631
-0.475493
-0.474771
-0.474209
-0.47388
-0.473819
-0.474039
-0.474515
-0.475184
-0.475943
-0.474951
-0.473809
-0.473109
-0.472536
-0.472149
-0.472013
-0.472162
-0.4726
-0.473302
-0.474203
-0.475199
-0.472291
-0.47126
-0.47068
-0.470254
-0.470036
-0.470087
-0.470436
-0.471082
-0.471998
-0.473116
-0.469563
-0.468654
-0.468194
-0.467912
-0.467858
-0.468088
-0.468625
-0.469467
-0.470582
-0.471904
-0.466756
-0.46598
-0.465642
-0.465502
-0.465605
-0.466004
-0.466717
-0.467741
-0.46904
-0.463863
-0.463232
-0.463017
-0.463014
-0.463267
-0.463824
-0.464701
-0.46589
-0.467356
-0.46088
-0.460405
-0.460312
-0.460443
-0.460838
-0.461541
-0.462567
-0.463905
-0.465519
-0.457803
-0.457494
-0.457525
-0.457785
-0.458313
-0.45915
-0.460309
-0.461779
-0.454633
-0.454501
-0.454655
-0.455037
-0.455689
-0.456647
-0.457924
-0.459508
-0.451373
-0.451425
-0.451701
-0.452201
-0.452967
-0.454033
-0.455411
-0.45709
-0.448029
-0.448272
-0.448667
-0.449278
-0.450148
-0.451308
-0.452772
-0.444609
-0.445046
-0.445558
-0.446273
-0.447236
-0.448478
-0.450012
-0.441123
-0.441756
-0.44238
-0.443193
-0.444238
-0.445547
-0.447136
-0.437581
-0.438411
-0.439143
-0.440044
-0.441162
-0.442526
-0.433998
-0.435022
-0.435856
-0.436838
-0.438018
-0.439425
-0.430389
-0.431601
-0.432531
-0.433585
-0.434816
-0.436254
-0.426767
-0.428161
-0.429179
-0.430297
-0.43157
-0.433026
-0.42315
-0.424716
-0.425815
-0.426987
-0.428291
-0.419554
-0.421279
-0.422451
-0.423669
-0.424995
-0.415995
-0.417866
-0.419101
-0.420356
-0.421694
-0.412488
-0.41449
-0.415779
-0.417061
-0.418403
-0.409048
-0.411164
-0.412497
-0.413798
-0.405689
-0.407902
-0.409269
-0.410579
-0.402424
-0.404715
-0.406105
-0.407416
-0.399264
-0.401613
-0.403016
-0.40432
-0.396219
-0.398605
-0.400012
-0.4013
-0.393297
-0.395701
-0.3971
-0.398364
-0.390503
-0.392905
-0.394288
-0.39552
-0.387842
-0.390222
-0.391579
-0.392772
-0.385316
-0.387657
-0.388977
-0.382927
-0.385209
-0.386485
-0.380673
-0.38288
-0.384103
-0.378552
-0.380667
-0.381831
-0.37656
-0.378569
-0.379665
-0.37469
-0.376581
-0.377604
-0.372937
-0.374699
-0.375643
-0.371293
-0.372916
-0.373777
-0.226693
-0.230379
-0.233946
-0.237398
-0.240739
-0.243975
-0.247109
-0.250146
-0.253089
-0.255942
-0.258708
-0.26139
-0.26399
-0.266509
-0.268951
-0.271316
-0.273605
-0.275822
-0.27797
-0.280054
-0.282081
-0.284062
-0.286014
-0.287958
-0.207513
-0.211179
-0.214757
-0.218248
-0.221658
-0.224991
-0.228249
-0.231438
-0.234561
-0.237622
-0.240626
-0.243578
-0.246482
-0.249343
-0.252168
-0.254963
-0.257735
-0.260495
-0.263251
-0.266016
-0.268806
-0.271637
-0.27453
-0.277509
-0.190155
-0.193749
-0.197278
-0.200744
-0.204153
-0.207506
-0.210808
-0.214061
-0.217271
-0.220439
-0.223571
-0.226671
-0.229742
-0.232789
-0.235817
-0.238831
-0.241836
-0.244837
-0.247839
-0.250848
-0.253869
-0.256907
-0.259965
-0.263049
-0.174501
-0.177979
-0.181409
-0.184795
-0.18814
-0.191445
-0.194714
-0.19795
-0.201155
-0.204333
-0.207486
-0.210617
-0.21373
-0.216826
-0.21991
-0.222984
-0.226052
-0.229116
-0.23218
-0.235248
-0.238323
-0.241411
-0.244516
-0.247646
-0.160275
-0.163612
-0.166915
-0.170186
-0.173428
-0.176643
-0.179834
-0.183002
-0.186151
-0.189282
-0.192399
-0.195503
-0.198597
-0.201685
-0.204769
-0.207851
-0.210935
-0.214025
-0.217123
-0.220234
-0.223361
-0.226509
-0.229682
-0.232885
-0.147318
-0.150495
-0.153649
-0.156782
-0.159895
-0.162991
-0.166071
-0.169138
-0.172194
-0.17524
-0.178279
-0.181313
-0.184345
-0.187377
-0.19041
-0.193448
-0.196493
-0.199547
-0.202612
-0.205692
-0.208789
-0.211905
-0.215042
-0.218204
-0.13546
-0.13847
-0.141464
-0.144444
-0.147412
-0.150369
-0.153318
-0.15626
-0.159196
-0.162129
-0.165061
-0.167993
-0.170927
-0.173865
-0.176809
-0.179761
-0.182723
-0.185698
-0.188686
-0.191691
-0.194714
-0.197758
-0.200825
-0.203918
-0.124588
-0.127425
-0.130252
-0.13307
-0.135882
-0.138689
-0.141492
-0.144293
-0.147093
-0.149894
-0.152698
-0.155506
-0.15832
-0.161141
-0.163972
-0.166813
-0.169668
-0.172537
-0.175423
-0.178327
-0.181252
-0.184198
-0.18717
-0.190167
-0.114583
-0.117246
-0.119904
-0.122559
-0.12521
-0.12786
-0.13051
-0.133161
-0.135815
-0.138473
-0.141136
-0.143807
-0.146485
-0.149174
-0.151874
-0.154587
-0.157315
-0.160059
-0.162821
-0.165602
-0.168404
-0.17123
-0.17408
-0.176956
-0.105358
-0.10785
-0.110341
-0.11283
-0.115319
-0.11781
-0.120304
-0.122801
-0.125303
-0.127811
-0.130327
-0.132851
-0.135385
-0.137931
-0.14049
-0.143062
-0.145651
-0.148256
-0.15088
-0.153523
-0.156189
-0.158877
-0.161591
-0.16433
-0.0968287
-0.0991547
-0.101481
-0.103808
-0.106138
-0.10847
-0.110807
-0.11315
-0.115498
-0.117854
-0.120219
-0.122594
-0.124979
-0.127377
-0.129788
-0.132214
-0.134656
-0.137115
-0.139592
-0.14209
-0.144608
-0.14715
-0.149716
-0.152308
-0.0889265
-0.091092
-0.0932593
-0.0954292
-0.0976026
-0.0997804
-0.101963
-0.104153
-0.106349
-0.108554
-0.110768
-0.112993
-0.115228
-0.117477
-0.119738
-0.122014
-0.124306
-0.126615
-0.128942
-0.131289
-0.133656
-0.136045
-0.138457
-0.140894
-0.0815913
-0.0836033
-0.085618
-0.0876362
-0.0896587
-0.0916863
-0.0937199
-0.0957602
-0.0978082
-0.0998647
-0.101931
-0.104007
-0.106094
-0.108194
-0.110307
-0.112434
-0.114576
-0.116735
-0.11891
-0.121105
-0.123319
-0.125554
-0.127811
-0.130091
-0.0747705
-0.0766363
-0.0785054
-0.0803787
-0.0822566
-0.08414
-0.0860296
-0.0879261
-0.0898303
-0.0917429
-0.0936648
-0.0955968
-0.0975396
-0.0994941
-0.101461
-0.103442
-0.105437
-0.107448
-0.109474
-0.111518
-0.113581
-0.115663
-0.117765
-0.119889
-0.0684159
-0.0701436
-0.071875
-0.0736106
-0.0753511
-0.0770972
-0.0788494
-0.0806084
-0.0823748
-0.0841494
-0.0859329
-0.0877259
-0.0895292
-0.0913436
-0.0931697
-0.0950085
-0.0968608
-0.0987273
-0.100609
-0.102507
-0.104421
-0.106353
-0.108305
-0.110276
-0.0624898
-0.0640872
-0.0656884
-0.0672939
-0.0689043
-0.07052
-0.0721417
-0.0737698
-0.0754051
-0.0770481
-0.0786994
-0.0803597
-0.0820295
-0.0837096
-0.0854007
-0.0871033
-0.0888183
-0.0905464
-0.0922883
-0.0940448
-0.0958168
-0.0976049
-0.0994102
-0.101233
-0.0569558
-0.0584309
-0.0599097
-0.0613928
-0.0628805
-0.0643733
-0.0658717
-0.0673763
-0.0688875
-0.0704058
-0.0719319
-0.0734661
-0.0750092
-0.0765617
-0.0781241
-0.0796972
-0.0812814
-0.0828775
-0.0844861
-0.086108
-0.0877437
-0.089394
-0.0910597
-0.0927415
-0.0517806
-0.0531414
-0.0545058
-0.0558742
-0.0572469
-0.0586244
-0.0600071
-0.0613955
-0.0627899
-0.0641909
-0.0655989
-0.0670144
-0.0684378
-0.0698698
-0.0713107
-0.0727612
-0.0742218
-0.075693
-0.0771754
-0.0786697
-0.0801764
-0.0816961
-0.0832295
-0.0847773
-0.0481931
-0.0494506
-0.0507118
-0.051977
-0.0532465
-0.0545208
-0.0558003
-0.0570852
-0.058376
-0.0596732
-0.060977
-0.0622881
-0.0636067
-0.0649334
-0.0662686
-0.0676128
-0.0689665
-0.0703301
-0.0717043
-0.0730894
-0.0744861
-0.0758949
-0.0773164
-0.0435594
-0.0447174
-0.0458787
-0.0470436
-0.0482125
-0.0493857
-0.0505634
-0.0517461
-0.052934
-0.0541276
-0.0553272
-0.0565331
-0.0577458
-0.0589656
-0.0601929
-0.0614281
-0.0626718
-0.0639242
-0.0651858
-0.0664572
-0.0677387
-0.0690309
-0.0703341
-0.0392198
-0.0402851
-0.0413534
-0.042425
-0.0435002
-0.0445791
-0.0456621
-0.0467495
-0.0478415
-0.0489386
-0.0500409
-0.0511488
-0.0522626
-0.0533827
-0.0545094
-0.0556431
-0.0567841
-0.0579328
-0.0590896
-0.0602548
-0.0614289
-0.0626123
-0.0638054
-0.0351527
-0.0361322
-0.0371143
-0.0380993
-0.0390874
-0.0400788
-0.0410739
-0.0420728
-0.0430758
-0.0440831
-0.045095
-0.0461118
-0.0471338
-0.0481613
-0.0491945
-0.0502338
-0.0512794
-0.0523317
-0.0533911
-0.0544577
-0.0555321
-0.0566145
-0.0577054
-0.058805
-0.0313398
-0.0322398
-0.0331421
-0.034047
-0.0349545
-0.035865
-0.0367786
-0.0376955
-0.0386159
-0.0395401
-0.0404683
-0.0414007
-0.0423376
-0.0432792
-0.0442258
-0.0451776
-0.0461349
-0.0470979
-0.048067
-0.0490425
-0.0500245
-0.0510135
-0.0520097
-0.0530134
-0.0277655
-0.028592
-0.0294205
-0.0302512
-0.0310842
-0.0319197
-0.0327579
-0.0335989
-0.034443
-0.0352903
-0.036141
-0.0369954
-0.0378536
-0.0387158
-0.0395823
-0.0404532
-0.0413289
-0.0422094
-0.0430952
-0.0439863
-0.0448831
-0.0457858
-0.0466947
-0.0476101
-0.024414
-0.0251727
-0.0259331
-0.0266953
-0.0274595
-0.0282258
-0.0289945
-0.0297655
-0.0305391
-0.0313155
-0.0320947
-0.032877
-0.0336626
-0.0344516
-0.0352442
-0.0360406
-0.0368409
-0.0376455
-0.0384544
-0.0392679
-0.0400862
-0.0409095
-0.0417381
-0.0425721
-0.0212718
-0.021968
-0.0226656
-0.0233647
-0.0240655
-0.024768
-0.0254725
-0.026179
-0.0268877
-0.0275986
-0.028312
-0.029028
-0.0297467
-0.0304683
-0.0311928
-0.0319206
-0.0326517
-0.0333863
-0.0341246
-0.0348668
-0.035613
-0.0363633
-0.0371181
-0.0378775
-0.0183263
-0.0189649
-0.0196047
-0.0202457
-0.0208881
-0.021532
-0.0221774
-0.0228245
-0.0234734
-0.0241242
-0.024777
-0.0254319
-0.0260891
-0.0267487
-0.0274108
-0.0280755
-0.028743
-0.0294134
-0.0300869
-0.0307636
-0.0314436
-0.0321271
-0.0328143
-0.0335053
-0.015566
-0.0161516
-0.0167382
-0.0173258
-0.0179145
-0.0185043
-0.0190955
-0.019688
-0.0202819
-0.0208774
-0.0214746
-0.0220734
-0.0226741
-0.0232768
-0.0238815
-0.0244884
-0.0250976
-0.0257091
-0.0263232
-0.0269399
-0.0275594
-0.0281817
-0.028807
-0.0294355
-0.0129798
-0.0135168
-0.0140545
-0.014593
-0.0151324
-0.0156727
-0.0162139
-0.0167563
-0.0172998
-0.0178445
-0.0183905
-0.018938
-0.0194869
-0.0200374
-0.0205895
-0.0211434
-0.0216991
-0.0222568
-0.0228165
-0.0233783
-0.0239424
-0.0245088
-0.0250777
-0.0256491
-0.0105594
-0.0110514
-0.011544
-0.0120373
-0.0125312
-0.0130259
-0.0135213
-0.0140175
-0.0145147
-0.0150129
-0.015512
-0.0160123
-0.0165137
-0.0170164
-0.0175203
-0.0180257
-0.0185325
-0.0190409
-0.0195508
-0.0200625
-0.020576
-0.0210913
-0.0216086
-0.022128
-0.00829254
-0.0087436
-0.00919505
-0.00964694
-0.0100993
-0.0105522
-0.0110057
-0.0114597
-0.0119145
-0.01237
-0.0128262
-0.0132833
-0.0137413
-0.0142002
-0.0146601
-0.0151211
-0.0155832
-0.0160465
-0.0165111
-0.016977
-0.0174443
-0.0179131
-0.0183834
-0.0188553
-0.00617205
-0.00658547
-0.00699915
-0.0074131
-0.00782736
-0.00824198
-0.00865699
-0.00907242
-0.00948833
-0.00990475
-0.0103217
-0.0107393
-0.0111575
-0.0115765
-0.0119961
-0.0124166
-0.0128379
-0.0132601
-0.0136832
-0.0141074
-0.0145326
-0.0149589
-0.0153864
-0.0158152
-0.00418962
-0.00456855
-0.0049476
-0.00532679
-0.00570615
-0.00608572
-0.00646552
-0.00684558
-0.00722595
-0.00760664
-0.0079877
-0.00836916
-0.00875106
-0.00913344
-0.00951634
-0.00989979
-0.0102838
-0.0106685
-0.0110539
-0.01144
-0.0118269
-0.0122145
-0.0126031
-0.0129925
-0.00233783
-0.00268513
-0.00303245
-0.00337979
-0.00372719
-0.00407466
-0.00442223
-0.00476993
-0.00511778
-0.0054658
-0.00581402
-0.00616248
-0.0065112
-0.00686021
-0.00720954
-0.00755922
-0.0079093
-0.00825979
-0.00861073
-0.00896217
-0.00931413
-0.00966666
-0.0100198
-0.0103735
-0.000609507
-0.000927844
-0.0012461
-0.00156428
-0.00188242
-0.00220052
-0.00251861
-0.00283671
-0.00315482
-0.00347298
-0.00379121
-0.00410952
-0.00442794
-0.0047465
-0.00506521
-0.00538411
-0.00570321
-0.00602255
-0.00634215
-0.00666204
-0.00698224
-0.00730279
-0.00762372
-0.00794505
0.00100206
0.000710248
0.000418598
0.000127096
-0.000164268
-0.000455507
-0.000746635
-0.00103767
-0.00132861
-0.00161949
-0.00191032
-0.00220111
-0.00249189
-0.00278267
-0.00307346
-0.0033643
-0.00365519
-0.00394616
-0.00423722
-0.00452841
-0.00481974
-0.00511124
-0.00540292
-0.00569481
0.0025032
0.00223567
0.00196836
0.00170127
0.00143439
0.00116771
0.000901228
0.000634924
0.000368793
0.000102822
-0.000162999
-0.000428683
-0.000694243
-0.000959693
-0.00122504
-0.00149031
-0.00175551
-0.00202066
-0.00228577
-0.00255086
-0.00281595
-0.00308105
-0.00334617
-0.00361135
0.00389992
0.00365459
0.00340955
0.00316478
0.00292028
0.00267605
0.00243207
0.00218835
0.00194488
0.00170164
0.00145863
0.00121585
0.000973276
0.000730907
0.000488731
0.000246739
4.91844e-06
-0.00023674
-0.000478249
-0.00071962
-0.000960865
-0.001202
-0.00144303
-0.00168397
0.00519782
0.0049728
0.00474811
0.00452375
0.0042997
0.00407597
0.00385255
0.00362945
0.00340665
0.00318415
0.00296195
0.00274004
0.00251841
0.00229707
0.00207599
0.00185518
0.00163463
0.00141433
0.00119427
0.000974447
0.000754848
0.000535465
0.00031629
9.73129e-05
0.0064023
0.00619584
0.00598975
0.00578402
0.00557864
0.00537363
0.00516898
0.00496468
0.00476073
0.00455714
0.0043539
0.00415101
0.00394846
0.00374625
0.00354438