/*--------------------------------*- C++ -*----------------------------------*\
  =========                 |
  \\      /  F ield         | OpenFOAM: The Open Source CFD Toolbox
   \\    /   O peration     | Website:  https://openfoam.org
    \\  /    A nd           | Version:  7
     \\/     M anipulation  |
\*---------------------------------------------------------------------------*/
FoamFile
{
    version     2.0;
    format      ascii;
    class       surfaceScalarField;
    location    "140";
    object      phi;
}
// * * * * * * * * * * * * * * * * * * * * * * * * * * * * * * * * * * * * * //

dimensions      [0 3 -1 0 0 0 0];

internalField   nonuniform List<scalar> 
14031
(
0.00110883
0.00542548
-0.00541381
0.00112245
0.00268761
-0.00270123
0.00115733
-0.000385132
0.000350254
0.00120433
-0.00322587
0.00317887
0.00125181
-0.00544363
0.00539615
0.00129114
-0.00692117
0.00688184
0.00131904
-0.00773747
0.00770957
0.00133395
-0.0080807
0.00806579
0.00133267
-0.00823217
0.00823344
0.00131273
-0.00846129
0.00848123
0.00127645
-0.00880136
0.00883764
0.00123166
-0.00894433
0.00898912
0.00118848
-0.00841723
0.0084604
0.00115563
-0.00690184
0.00693469
0.001139
-0.00443338
0.00445001
0.00114167
-0.00137537
0.0013727
0.00116305
0.00173957
-0.00176095
0.00119773
0.00440663
-0.00444131
0.00123543
0.00635147
-0.00638917
0.00126369
0.0076253
-0.00765356
0.00127298
0.0084938
-0.0085031
0.00126061
0.00914719
-0.00913482
0.00123064
0.00952247
-0.0094925
0.00119176
0.00933093
-0.00929204
0.00115447
0.0082782
-0.00824091
0.0011281
0.0062423
-0.00621593
0.00111879
0.00338976
-0.00338045
0.00112827
0.000135036
-0.000144514
-0.00299864
0.00297503
0.00111879
0.0054389
0.00112971
0.00267669
0.00116152
-0.000416941
0.00120564
-0.00326999
0.00125069
-0.00548869
0.00128802
-0.0069585
0.00131432
-0.00776376
0.00132801
-0.00809439
0.00132576
-0.00822992
0.00130491
-0.00844043
0.00126779
-0.00876425
0.00122252
-0.00889906
0.00117962
-0.00837432
0.00114795
-0.00687018
0.00113329
-0.00441872
0.00113835
-0.00138043
0.00116214
0.00171579
0.0011989
0.00436986
0.00123821
0.00631216
0.00126764
0.00759586
0.00127787
0.00848357
0.00126627
0.00915879
0.00123677
0.00955196
0.00119789
0.00936981
0.00115996
0.00831612
0.00113228
0.00626998
0.00112118
0.00340086
0.00112876
0.000127461
-0.00302063
0.00112876
0.00545411
0.00113691
0.00266854
0.00116558
-0.000445615
0.00120677
-0.00331117
0.00124937
-0.00553129
0.00128471
-0.00699383
0.00130941
-0.00778846
0.00132192
-0.0081069
0.00131875
-0.00822675
0.00129703
-0.00841872
0.00125913
-0.00872634
0.00121342
-0.00885335
0.00117079
-0.00833168
0.00114029
-0.00683968
0.00112757
-0.004406
0.00113498
-0.00138784
0.00116113
0.00168964
0.00119996
0.00433104
0.00124085
0.00627127
0.00127148
0.00756524
0.00128268
0.00847238
0.00127188
0.00916959
0.0012429
0.00958094
0.00120405
0.00940866
0.0011655
0.00835467
0.00113649
0.00629899
0.00112357
0.00341377
0.00112922
0.000121817
-0.00304098
0.00113874
0.00547119
0.00114404
0.00266323
0.00116951
-0.000471087
0.00120773
-0.00334939
0.00124786
-0.00557143
0.0012812
-0.00702718
0.00130433
-0.00781159
0.00131567
-0.00811824
0.00131163
-0.00822271
0.00128912
-0.0083962
0.00125048
-0.00868771
0.00120437
-0.00880723
0.001162
-0.00828932
0.00113265
-0.00681034
0.00112184
-0.00439518
0.00113156
-0.00139756
0.00116003
0.00166117
0.00120088
0.00429019
0.00124336
0.0062288
0.00127519
0.0075334
0.0012874
0.00846017
0.00127745
0.00917953
0.00124903
0.00960937
0.00121024
0.00944745
0.00117107
0.00839384
0.00114073
0.00632932
0.00112597
0.00342853
0.00112966
0.000118133
-0.00305967
0.00114872
0.00549018
0.00115111
0.00266084
0.00117332
-0.000493296
0.00120851
-0.00338458
0.00124615
-0.00560907
0.00127751
-0.00705853
0.00129908
-0.00783317
0.00130929
-0.00812845
0.00130441
-0.00821783
0.00128116
-0.00837295
0.00124185
-0.0086484
0.00119535
-0.00876074
0.00115326
-0.00824722
0.00112504
-0.00678212
0.00111609
-0.00438623
0.00112808
-0.00140954
0.00115883
0.00163041
0.00120168
0.00424734
0.00124572
0.00618475
0.00127878
0.00750034
0.00129203
0.00844691
0.00128298
0.00918859
0.00125515
0.00963719
0.00121645
0.00948615
0.00117668
0.00843362
0.001145
0.006361
0.00112839
0.00344515
0.00113008
0.000116436
-0.00307666
0.0011587
0.00551112
0.00115813
0.0026614
0.00117702
-0.00051218
0.00120914
-0.0034167
0.00124427
-0.0056442
0.00127364
-0.00708789
0.00129366
-0.00785319
0.00130276
-0.00813755
0.0012971
-0.00821217
0.00127317
-0.00834903
0.00123323
-0.00860846
0.00118639
-0.00871389
0.00114456
-0.00820539
0.00111744
-0.00675499
0.00111032
-0.00437911
0.00112453
-0.00142375
0.00115752
0.00159741
0.00120233
0.00420254
0.00124793
0.00613915
0.00128223
0.00746604
0.00129657
0.00843258
0.00128845
0.0091967
0.00126127
0.00966438
0.00122269
0.00952473
0.00118232
0.00847399
0.00114931
0.00639401
0.00113081
0.00346365
0.0011305
0.000116752
-0.00309194
0.00116867
0.00553405
0.00116509
0.00266499
0.00118059
-0.000527685
0.00120961
-0.00344572
0.0012422
-0.00567679
0.00126959
-0.00711528
0.00128808
-0.00787169
0.0012961
-0.00814556
0.0012897
-0.00820578
0.00126515
-0.00832448
0.00122464
-0.00856795
0.00117748
-0.00866673
0.00113592
-0.00816384
0.00110986
-0.00672894
0.00110452
-0.00437377
0.00112091
-0.00144014
0.00115611
0.00156222
0.00120284
0.0041558
0.00124999
0.00609201
0.00128555
0.00743049
0.001301
0.00841712
0.00129387
0.00920383
0.00126737
0.00969087
0.00122895
0.00956315
0.001188
0.00851493
0.00115364
0.00642837
0.00113326
0.00348404
0.0011309
0.000119107
-0.00310548
0.00117864
0.00555902
0.00117199
0.00267164
0.00118406
-0.000539757
0.00120992
-0.00347157
0.00123996
-0.00570684
0.00126537
-0.00714069
0.00128235
-0.00788867
0.0012893
-0.00815251
0.00128221
-0.00819868
0.0012571
-0.00829937
0.00121607
-0.00852692
0.00116862
-0.00861928
0.00112733
-0.00812254
0.0011023
-0.00670391
0.0010987
-0.00437017
0.00111722
-0.00145866
0.00115457
0.00152486
0.00120321
0.00410716
0.00125189
0.00604333
0.00128872
0.00739366
0.00130533
0.00840051
0.00129923
0.00920993
0.00127346
0.00971664
0.00123523
0.00960138
0.00119372
0.00855645
0.00115801
0.00646407
0.00113572
0.00350634
0.0011313
0.000123524
-0.00311726
0.00118859
0.00558605
0.00117883
0.00268141
0.00118742
-0.000548346
0.00121008
-0.00349424
0.00123756
-0.00573432
0.00126099
-0.00716412
0.00127647
-0.00790414
0.00128239
-0.00815843
0.00127464
-0.00819094
0.00124903
-0.00827375
0.00120753
-0.00848542
0.00115982
-0.00857157
0.00111879
-0.00808151
0.00109476
-0.00667989
0.00109285
-0.00436826
0.00111345
-0.00147925
0.00115291
0.0014854
0.00120341
0.00405666
0.00125362
0.00599312
0.00129174
0.00735554
0.00130955
0.00838271
0.00130452
0.00921495
0.00127953
0.00974163
0.00124152
0.0096394
0.00119946
0.0085985
0.00116242
0.00650112
0.0011382
0.00353055
0.0011317
0.000130027
-0.00312724
0.00119853
0.00561516
0.00118561
0.00269433
0.00119067
-0.000553407
0.00121009
-0.00351366
0.00123499
-0.00575921
0.00125645
-0.00718559
0.00127044
-0.00791814
0.00127535
-0.00816333
0.00126699
-0.00818259
0.00124094
-0.0082477
0.00119903
-0.00844351
0.00115108
-0.00852363
0.0011103
-0.00804073
0.00108724
-0.00665683
0.00108697
-0.00436799
0.0011096
-0.00150188
0.00115113
0.00144387
0.00120346
0.00400433
0.00125519
0.00594139
0.00129461
0.00731611
0.00131364
0.00836368
0.00130974
0.00921885
0.00128557
0.0097658
0.00124782
0.00967715
0.00120524
0.00864108
0.00116685
0.0065395
0.0011407
0.0035567
0.00113209
0.000138637
-0.00313541
0.00120844
0.00564638
0.00119232
0.00271044
0.00119381
-0.000554896
0.00120997
-0.00352982
0.00123225
-0.0057815
0.00125176
-0.00720509
0.00126428
-0.00793066
0.00126819
-0.00816723
0.00125926
-0.00817367
0.00123282
-0.00822126
0.00119055
-0.00840124
0.0011424
-0.00847548
0.00110187
-0.00800019
0.00107974
-0.00663471
0.00108106
-0.0043693
0.00110566
-0.00152648
0.00114921
0.00140033
0.00120334
0.00395019
0.00125657
0.00588816
0.00129732
0.00727536
0.00131762
0.00834338
0.00131488
0.00922159
0.00129158
0.00978911
0.00125412
0.00971461
0.00121104
0.00868416
0.00117132
0.00657922
0.00114323
0.00358479
0.00113249
0.000149374
-0.00314174
0.00121831
0.00567972
0.00119898
0.00272978
0.00119686
-0.000552776
0.00120971
-0.00354266
0.00122937
-0.00580116
0.00124691
-0.00722263
0.00125797
-0.00794172
0.00126091
-0.00817017
0.00125146
-0.00816422
0.00122469
-0.00819449
0.00118211
-0.00835866
0.00113378
-0.00842715
0.00109349
-0.0079599
0.00107226
-0.00661348
0.00107511
-0.00437216
0.00110164
-0.001553
0.00114715
0.00135481
0.00120305
0.00389429
0.00125778
0.00583343
0.00129987
0.00723327
0.00132146
0.00832179
0.00131993
0.00922312
0.00129754
0.00981149
0.00126042
0.00975173
0.00121686
0.00872772
0.00117582
0.00662026
0.00114578
0.00361483
0.0011329
0.000162257
-0.00314621
0.00122815
0.00571519
0.00120557
0.00275236
0.00119981
-0.000547011
0.00120931
-0.00355217
0.00122633
-0.00581818
0.00124191
-0.00723822
0.00125154
-0.00795134
0.00125352
-0.00817215
0.00124358
-0.00815428
0.00121654
-0.00816745
0.0011737
-0.00831581
0.00112522
-0.00837867
0.00108517
-0.00791984
0.00106479
-0.0065931
0.00106913
-0.0043765
0.00109752
-0.00158139
0.00114495
0.00130737
0.00120258
0.00383666
0.0012588
0.00577722
0.00130224
0.00718983
0.00132516
0.00829887
0.00132489
0.00922339
0.00130347
0.00983292
0.00126671
0.00978848
0.0012227
0.00877173
0.00118035
0.00666262
0.00114836
0.00364681
0.00113332
0.000177303
-0.00314879
0.00123794
0.00575279
0.00121209
0.0027782
0.00120265
-0.00053757
0.00120879
-0.0035583
0.00122314
-0.00583254
0.00123677
-0.00725185
0.00124497
-0.00795954
0.00124602
-0.00817321
0.00123563
-0.00814389
0.00120838
-0.0081402
0.00116533
-0.00827277
0.00111673
-0.00833007
0.0010769
-0.00788001
0.00105733
-0.00657353
0.0010631
-0.00438226
0.0010933
-0.00161159
0.00114261
0.00125806
0.00120193
0.00377733
0.00125962
0.00571953
0.00130444
0.00714502
0.00132873
0.00827458
0.00132976
0.00922236
0.00130933
0.00985334
0.001273
0.00982482
0.00122856
0.00881616
0.0011849
0.00670628
0.00115097
0.00368075
0.00113374
0.000194527
-0.00314945
0.00124768
0.00579253
0.00121855
0.00280733
0.0012054
-0.000524425
0.00120813
-0.00356103
0.00121981
-0.00584422
0.00123149
-0.00726353
0.00123828
-0.00796632
0.00123842
-0.00817335
0.00122761
-0.00813308
0.0012002
-0.00811278
0.001157
-0.00822957
0.0011083
-0.00828137
0.00106869
-0.0078404
0.00104989
-0.00655474
0.00105703
-0.00438939
0.00108897
-0.00164354
0.00114011
0.00120693
0.0012011
0.00371634
0.00126025
0.00566038
0.00130645
0.00709882
0.00133214
0.00824889
0.00133451
0.00921998
0.00131514
0.00987271
0.00127926
0.0098607
0.00123443
0.00886099
0.00118949
0.00675122
0.0011536
0.00371664
0.00113418
0.000213944
-0.00314818
0.00125735
0.00583438
0.00122493
0.00283975
0.00120806
-0.000507554
0.00120736
-0.00356033
0.00121634
-0.00585321
0.00122608
-0.00727326
0.00123146
-0.00797171
0.00123071
-0.00817259
0.00121951
-0.00812188
0.001192
-0.00808527
0.0011487
-0.00818627
0.00109993
-0.00823259
0.00106053
-0.007801
0.00104247
-0.00653668
0.00105091
-0.00439783
0.00108455
-0.00167718
0.00113745
0.00115403
0.00120007
0.00365372
0.00126067
0.00559977
0.00130827
0.00705123
0.00133539
0.00822177
0.00133915
0.00921622
0.00132089
0.00989097
0.0012855
0.00989609
0.00124031
0.00890619
0.0011941
0.00679743
0.00115626
0.00375448
0.00113464
0.000235565
-0.00314496
0.00126696
0.00587834
0.00123124
0.00287547
0.00121062
-0.000486938
0.00120646
-0.00355617
0.00121274
-0.00585948
0.00122052
-0.00728105
0.00122453
-0.00797571
0.0012229
-0.00817096
0.00121135
-0.00811034
0.00118378
-0.0080577
0.00114044
-0.00814293
0.00109162
-0.00818377
0.00105242
-0.0077618
0.00103505
-0.00651932
0.00104474
-0.00440752
0.00108001
-0.00171244
0.00113463
0.00109941
0.00119884
0.00358951
0.00126089
0.00553772
0.00130989
0.00700223
0.00133847
0.00819319
0.00134367
0.00921103
0.00132655
0.00990809
0.00129171
0.00993093
0.00124619
0.00895171
0.00119873
0.00684489
0.00115894
0.00379426
0.00113511
0.0002594
-0.00313976
0.00127648
0.00592439
0.00123746
0.00291449
0.00121309
-0.000462561
0.00120545
-0.00354854
0.001209
-0.00586302
0.00121484
-0.0072869
0.00121748
-0.00797835
0.00121498
-0.00816846
0.00120311
-0.00809847
0.00117555
-0.00803014
0.00113221
-0.00809959
0.00108337
-0.00813493
0.00104436
-0.00772279
0.00102765
-0.0065026
0.00103852
-0.00441839
0.00107535
-0.00174928
0.00113164
0.00104313
0.00119741
0.00352373
0.00126089
0.00547424
0.00131131
0.0069518
0.00134139
0.00816312
0.00134805
0.00920436
0.00133214
0.009924
0.00129788
0.00996519
0.00125206
0.00899753
0.00120337
0.00689358
0.00116165
0.00383598
0.00113559
0.000285459
-0.00313255
0.00128592
0.00597251
0.00124361
0.00295681
0.00121546
-0.000434413
0.00120433
-0.00353741
0.00120512
-0.00586382
0.00120903
-0.0072908
0.00121031
-0.00797963
0.00120697
-0.00816512
0.0011948
-0.0080863
0.00116729
-0.00800263
0.00112401
-0.00805631
0.00107517
-0.0080861
0.00103636
-0.00768398
0.00102025
-0.0064865
0.00103225
-0.00443039
0.00107058
-0.00178761
0.00112848
0.000985234
0.00119577
0.00345644
0.00126067
0.00540934
0.00131253
0.00689995
0.00134412
0.00813153
0.0013523
0.00919617
0.00133763
0.00993867
0.00130401
0.00999882
0.00125793
0.0090436
0.00120804
0.00694347
0.00116439
0.00387964
0.0011361
0.000313747
-0.00312333
0.00129526
0.00602267
0.00124966
0.00300241
0.00121774
-0.000402486
0.00120309
-0.00352276
0.00120112
-0.00586186
0.00120309
-0.00729276
0.00120303
-0.00797957
0.00119886
-0.00816095
0.00118642
-0.00807386
0.00115901
-0.00797522
0.00111584
-0.00801314
0.00106704
-0.0080373
0.0010284
-0.00764534
0.00101286
-0.00647097
0.00102592
-0.00444344
0.00106569
-0.00182738
0.00112514
0.000925782
0.00119392
0.00338766
0.00126023
0.00534304
0.00131352
0.00684665
0.00134666
0.00809838
0.00135641
0.00918643
0.00134303
0.00995205
0.00131008
0.0100318
0.00126378
0.0090899
0.00121272
0.00699454
0.00116714
0.00392521
0.00113662
0.00034427
-0.00311207
0.0013045
0.00607482
0.00125563
0.00305128
0.00121992
-0.000366777
0.00120174
-0.00350458
0.001197
-0.00585712
0.00119702
-0.00729278
0.00119564
-0.00797819
0.00119065
-0.00815596
0.00117796
-0.00806118
0.0011507
-0.00794795
0.00110769
-0.00797013
0.00105895
-0.00798856
0.00102049
-0.00760687
0.00100548
-0.00645596
0.00101953
-0.00445749
0.00106067
-0.00186852
0.00112163
0.000864828
0.00119186
0.00331743
0.00125955
0.00527535
0.0013143
0.00679191
0.00134901
0.00806367
0.00136035
0.00917509
0.00134831
0.00996409
0.00131609
0.010064
0.00126962
0.00913637
0.0012174
0.00704675
0.00116992
0.00397269
0.00113716
0.00037703
-0.00309876
0.00131362
0.00612894
0.0012615
0.0031034
0.00122201
-0.000327289
0.00120028
-0.00348285
0.00119275
-0.00584958
0.00119083
-0.00729087
0.00118813
-0.00797549
0.00118234
-0.00815017
0.00116943
-0.00804826
0.00114236
-0.00792088
0.00109957
-0.00792735
0.00105092
-0.0079399
0.00101262
-0.00756857
0.000998103
-0.00644145
0.00101309
-0.00447248
0.00105553
-0.00191097
0.00111793
0.000802428
0.00118957
0.00324578
0.00125864
0.00520628
0.00131484
0.00673571
0.00135116
0.00802735
0.00136413
0.00916212
0.00135348
0.00997474
0.00132203
0.0100954
0.00127543
0.00918298
0.00122209
0.00710009
0.00117272
0.00402206
0.00113773
0.000412027
-0.00308337
0.00132261
0.00618497
0.00126727
0.00315875
0.001224
-0.000284027
0.00119872
-0.00345757
0.00118838
-0.00583924
0.00118452
-0.007287
0.00118052
-0.0079715
0.00117394
-0.00814359
0.00116082
-0.00803515
0.00113399
-0.00789405
0.00109148
-0.00788483
0.00104294
-0.00789136
0.00100479
-0.00753042
0.000990727
-0.00642739
0.00100658
-0.00448834
0.00105026
-0.00195464
0.00111404
0.000738641
0.00118706
0.00317277
0.00125749
0.00513585
0.00131515
0.00667805
0.00135309
0.00798941
0.00136774
0.00914747
0.00135853
0.00998396
0.0013279
0.0101261
0.0012812
0.00922968
0.00122678
0.00715451
0.00117554
0.0040733
0.00113831
0.000449261
-0.0030659
0.00133148
0.00624286
0.00127293
0.0032173
0.0012259
-0.000237
0.00119706
-0.00342873
0.00118389
-0.00582607
0.00117809
-0.0072812
0.00117281
-0.00796622
0.00116545
-0.00813623
0.00115214
-0.00802184
0.00112559
-0.0078675
0.00108339
-0.00784263
0.001035
-0.00784297
0.000996995
-0.00749241
0.000983351
-0.00641375
0.00100002
-0.00450501
0.00104485
-0.00199947
0.00110997
0.000673525
0.00118432
0.00309841
0.00125609
0.00506408
0.00131522
0.00661892
0.00135481
0.00794982
0.00137117
0.0091311
0.00136344
0.00999169
0.00133368
0.0101558
0.00128694
0.00927642
0.00123147
0.00720997
0.00117838
0.00412639
0.00113891
0.000488727
-0.00304633
0.00134019
0.00630256
0.00127849
0.003279
0.00122771
-0.000186221
0.0011953
-0.00339632
0.00117929
-0.00581007
0.00117154
-0.00727344
0.00116498
-0.00795966
0.00115686
-0.00812811
0.00114338
-0.00800836
0.00111714
-0.00784126
0.00107533
-0.00780082
0.0010271
-0.00779474
0.000989238
-0.00745455
0.000975973
-0.00640048
0.000993387
-0.00452242
0.00103931
-0.0020454
0.0011057
0.000607138
0.00118135
0.00302277
0.00125445
0.00499098
0.00131505
0.00655832
0.0013563
0.00790857
0.00137441
0.009113
0.0013682
0.0099979
0.00133937
0.0101847
0.00129263
0.00932316
0.00123615
0.00726645
0.00118122
0.00418132
0.00113953
0.00053042
-0.00302464
0.00134875
0.006364
0.00128393
0.00334383
0.00122941
-0.00013171
0.00119343
-0.00336033
0.00117458
-0.00579121
0.00116487
-0.00726374
0.00115705
-0.00795184
0.00114818
-0.00811924
0.00113454
-0.00799472
0.00110866
-0.00781538
0.00106727
-0.00775943
0.00101924
-0.00774672
0.000981513
-0.00741682
0.00096859
-0.00638756
0.000986692
-0.00454052
0.00103364
-0.00209235
0.00110124
0.000539542
0.00117814
0.00294586
0.00125255
0.00491657
0.00131462
0.00649625
0.00135756
0.00786563
0.00137744
0.00909311
0.00137281
0.0100025
0.00134495
0.0102125
0.00129826
0.00936985
0.00124081
0.00732391
0.00118408
0.00423805
0.00114017
0.000574333
-0.00300084
0.00135715
0.00642711
0.00128925
0.00341173
0.00123102
-7.34865e-05
0.00119147
-0.00332078
0.00116975
-0.0057695
0.00115809
-0.00725208
0.00114902
-0.00794277
0.00113941
-0.00810963
0.00112562
-0.00798093
0.00110012
-0.00778988
0.00105921
-0.00771852
0.00101142
-0.00769893
0.000973816
-0.00737921
0.0009612
-0.00637494
0.000979931
-0.00455925
0.00102783
-0.00214025
0.00109658
0.000470797
0.0011747
0.00286774
0.00125039
0.00484088
0.00131393
0.00643272
0.00135857
0.00782099
0.00138027
0.00907141
0.00137726
0.0100055
0.00135043
0.0102393
0.00130384
0.00941643
0.00124545
0.0073823
0.00118694
0.00429656
0.00114082
0.000620456
-0.0029749
0.00136537
0.00649182
0.00129444
0.00348265
0.00123253
-1.15776e-05
0.00118941
-0.00327765
0.00116481
-0.0057449
0.00115119
-0.00723845
0.00114088
-0.00793246
0.00113054
-0.00809929
0.00111661
-0.007967
0.00109153
-0.0077648
0.00105116
-0.00767814
0.00100364
-0.00765141
0.000966144
-0.00734172
0.0009538
-0.0063626
0.000973104
-0.00457856
0.00102189
-0.00218903
0.00109172
0.000400965
0.00117101
0.00278845
0.00124797
0.00476392
0.00131298
0.00636771
0.00135933
0.00777463
0.00138288
0.00904786
0.00138153
0.0100069
0.00135578
0.0102651
0.00130935
0.00946286
0.00125007
0.00744157
0.00118981
0.00435682
0.00114149
0.000668776
-0.00294683
0.00137341
0.00655806
0.00129951
0.00355655
0.00123395
5.39868e-05
0.00118725
-0.00323096
0.00115977
-0.00571742
0.00114418
-0.00722286
0.00113264
-0.00792092
0.00112158
-0.00808823
0.00110753
-0.00795295
0.00108289
-0.00774017
0.0010431
-0.00763834
0.000995874
-0.00760419
0.000958493
-0.00730434
0.000946387
-0.00635049
0.00096621
-0.00459838
0.0010158
-0.00223863
0.00108666
0.00033011
0.00116708
0.00270803
0.00124529
0.00468571
0.00131175
0.00630125
0.00135984
0.00772654
0.00138527
0.00902243
0.00138562
0.0100066
0.001361
0.0102897
0.00131478
0.00950908
0.00125466
0.00750169
0.00119268
0.0044188
0.00114218
0.000719279
-0.00291661
0.00138125
0.00662573
0.00130444
0.00363335
0.00123526
0.000123172
0.001185
-0.0031807
0.00115462
-0.00568703
0.00113705
-0.00720529
0.00112429
-0.00790816
0.00111253
-0.00807647
0.00109835
-0.00793877
0.00107419
-0.007716
0.00103502
-0.00759918
0.000988138
-0.0075573
0.00095086
-0.00726706
0.000938958
-0.00633859
0.000959247
-0.00461867
0.00100959
-0.00228897
0.0010814
0.000258295
0.00116291
0.00262652
0.00124233
0.00460629
0.00131026
0.00623332
0.00136009
0.0076767
0.00138741
0.00899511
0.00138952
0.0100045
0.00136608
0.0103131
0.00132012
0.00955504
0.00125921
0.0075626
0.00119555
0.00448246
0.00114288
0.00077195
-0.00288424
0.00138889
0.00669475
0.00130924
0.003713
0.00123647
0.000195941
0.00118266
-0.00312689
0.00114936
-0.00565373
0.00112981
-0.00718574
0.00111584
-0.00789419
0.00110338
-0.00806401
0.00108909
-0.00792448
0.00106542
-0.00769233
0.00102693
-0.00756069
0.000980421
-0.00751079
0.000943241
-0.00722988
0.000931509
-0.00632686
0.000952214
-0.00463937
0.00100323
-0.00233999
0.00107594
0.000185586
0.00115848
0.00254398
0.0012391
0.00452567
0.00130848
0.00616395
0.00136006
0.00762512
0.00138932
0.00896585
0.00139321
0.0100006
0.00137101
0.0103353
0.00132538
0.00960068
0.00126372
0.00762426
0.00119841
0.00454778
0.00114359
0.000826768
-0.00284972
0.00139631
0.00131389
0.00379542
0.00123758
0.000272258
0.00118023
-0.00306955
0.00114401
-0.00561751
0.00112246
-0.0071642
0.00110728
-0.00787901
0.00109414
-0.00805086
0.00107973
-0.00791008
0.00105657
-0.00766917
0.00101881
-0.00752294
0.00097272
-0.0074647
0.000935634
-0.00719279
0.000924036
-0.00631526
0.00094511
-0.00466045
0.000996742
-0.00239162
0.00107028
0.000112046
0.00115382
0.00246045
0.0012356
0.00444388
0.00130642
0.00609313
0.00135976
0.00757178
0.00139097
0.00893465
0.00139669
0.00999484
0.00137579
0.0103562
0.00133053
0.00964594
0.00126818
0.00768661
0.00120125
0.0046147
0.00114431
0.000883715
-0.00281305
0.0013184
0.00388053
0.00123858
0.000352069
0.00117771
-0.00300867
0.00113855
-0.00557835
0.001115
-0.00714065
0.00109862
-0.00786263
0.0010848
-0.00803705
0.00107029
-0.00789557
0.00104766
-0.00764654
0.00101067
-0.00748595
0.00096503
-0.00741906
0.000928035
-0.0071558
0.000916537
-0.00630376
0.000937933
-0.00468184
0.000990118
-0.0024438
0.00106442
3.77405e-05
0.0011489
0.00237597
0.00123182
0.00436096
0.00130407
0.00602088
0.00135917
0.00751667
0.00139236
0.00890146
0.00139995
0.00998724
0.00138039
0.0103758
0.00133557
0.00969076
0.00127258
0.0077496
0.00120409
0.0046832
0.00114503
0.000942766
-0.00277423
0.00132275
0.00396826
0.00123949
0.000435323
0.0011751
-0.00294428
0.00113299
-0.00553623
0.00110742
-0.00711508
0.00108985
-0.00784506
0.00107537
-0.00802256
0.00106075
-0.00788095
0.00103866
-0.00762446
0.00100249
-0.00744977
0.000957346
-0.00737392
0.00092044
-0.00711889
0.000909008
-0.00629233
0.000930681
-0.00470352
0.000983363
-0.00249648
0.00105837
-3.72666e-05
0.00114373
0.00229061
0.00122776
0.00427693
0.00130142
0.00594723
0.0013583
0.0074598
0.00139348
0.00886628
0.00140298
0.00997774
0.00138482
0.010394
0.0013405
0.00973508
0.00127692
0.00781317
0.0012069
0.00475322
0.00114577
0.0010039
-0.00273326
0.00132694
0.00405852
0.0012403
0.000521966
0.00117241
-0.00287639
0.00112733
-0.00549116
0.00109974
-0.00708748
0.00108098
-0.0078263
0.00106584
-0.00800743
0.00105112
-0.00786622
0.00102958
-0.00760292
0.000994264
-0.00741445
0.000949663
-0.00732932
0.000912848
-0.00708208
0.000901444
-0.00628092
0.000923353
-0.00472543
0.000976477
-0.00254961
0.00105212
-0.000112912
0.00113832
0.0022044
0.00122343
0.00419183
0.00129848
0.00587217
0.00135712
0.00740116
0.00139432
0.00882909
0.00140577
0.00996628
0.00138906
0.0104107
0.00134529
0.00977885
0.00128119
0.00787728
0.00120969
0.00482472
0.0011465
0.00106708
-0.00269014
0.00133098
0.00415121
0.00124101
0.000611937
0.00116963
-0.00280501
0.00112158
-0.00544311
0.00109194
-0.00705784
0.001072
-0.00780636
0.00105622
-0.00799165
0.00104139
-0.00785139
0.00102042
-0.00758195
0.000985989
-0.00738002
0.000941975
-0.0072853
0.000905254
-0.00704536
0.000893842
-0.00626951
0.000915945
-0.00474753
0.000969465
-0.00260313
0.00104568
-0.000189125
0.00113267
0.00211741
0.00121881
0.00410569
0.00129524
0.00579573
0.00135565
0.00734075
0.00139487
0.00878986
0.00140831
0.00995285
0.0013931
0.0104259
0.00134996
0.00982199
0.00128539
0.00794185
0.00121245
0.00489766
0.00114724
0.00113229
-0.00264489
0.00133486
0.00424622
0.00124162
0.000705173
0.00116677
-0.00273016
0.00111574
-0.00539208
0.00108404
-0.00702614
0.00106291
-0.00778523
0.0010465
-0.00797524
0.00103156
-0.00783645
0.00101116
-0.00756155
0.000977658
-0.00734652
0.000934278
-0.00724192
0.000897657
-0.00700874
0.0008862
-0.00625806
0.000908455
-0.00476978
0.00096232
-0.00265699
0.00103905
-0.000265857
0.00112677
0.0020297
0.00121391
0.00401855
0.0012917
0.00571794
0.00135387
0.00727859
0.00139513
0.00874859
0.00141059
0.0099374
0.00139694
0.0104395
0.00135448
0.00986446
0.0012895
0.00800683
0.00121517
0.00497199
0.00114797
0.00119949
-0.00259751
0.00133857
0.00434347
0.00124214
0.000801607
0.00116384
-0.00265187
0.0011098
-0.00533804
0.00107602
-0.00699236
0.00105371
-0.00776293
0.00103668
-0.00795821
0.00102164
-0.00782141
0.0010018
-0.00754171
0.000969265
-0.00731399
0.000926565
-0.00719922
0.000890054
-0.00697222
0.000878514
-0.00624652
0.000900878
-0.00479215
0.000955047
-0.00271116
0.00103224
-0.000343051
0.00112063
0.0019413
0.00120873
0.00393046
0.00128786
0.00563881
0.00135177
0.00721467
0.00139509
0.00870527
0.0014126
0.00991989
0.00140056
0.0104516
0.00135884
0.00990618
0.00129352
0.00807215
0.00121786
0.00504764
0.00114871
0.00126865
-0.002548
0.00134212
0.00444282
0.00124256
0.000901166
0.00116083
-0.00257013
0.00110377
-0.00528098
0.0010679
-0.00695649
0.00104441
-0.00773944
0.00102676
-0.00794056
0.00101161
-0.00780625
0.000992345
-0.00752245
0.000960801
-0.00728244
0.000918829
-0.00715725
0.000882441
-0.00693584
0.000870781
-0.00623486
0.000893211
-0.00481458
0.000947649
-0.0027656
0.00102526
-0.000420658
0.00111427
0.00185229
0.00120327
0.00384145
0.0012837
0.00555838
0.00134936
0.00714902
0.00139475
0.00865988
0.00141433
0.00990031
0.00140396
0.0104619
0.00136305
0.00994708
0.00129745
0.00813775
0.00122051
0.00512458
0.00114943
0.00133973
-0.00249639
0.0013455
0.00454415
0.0012429
0.00100377
0.00115775
-0.00248498
0.00109765
-0.00522089
0.00105967
-0.0069185
0.001035
-0.00771477
0.00101674
-0.00792231
0.00100148
-0.00779099
0.000982784
-0.00750375
0.000952261
-0.00725192
0.000911066
-0.00711606
0.000874817
-0.00689959
0.000863
-0.00622304
0.00088545
-0.00483703
0.000940125
-0.00282027
0.0010181
-0.000498633
0.00110767
0.00176272
0.00119754
0.00375158
0.00127925
0.00547667
0.00134662
0.00708164
0.00139408
0.00861242
0.00141578
0.00987862
0.00140712
0.0104706
0.00136708
0.00998711
0.00130127
0.00820356
0.00122312
0.00520274
0.00115015
0.0014127
-0.00244267
0.00134873
0.00464734
0.00124316
0.00110935
0.0011546
-0.00239643
0.00109145
-0.00515774
0.00105133
-0.00687838
0.00102547
-0.00768891
0.00100663
-0.00790346
0.000991249
-0.00777561
0.000973116
-0.00748562
0.000943637
-0.00722244
0.000903269
-0.00707569
0.000867179
-0.0068635
0.000855168
-0.00621103
0.000877592
-0.00485945
0.000932475
-0.00287516
0.00101078
-0.000576939
0.00110086
0.00167264
0.00119154
0.0036609
0.00127448
0.00539373
0.00134357
0.00701256
0.0013931
0.00856289
0.00141693
0.00985479
0.00141003
0.0104775
0.00137094
0.0100262
0.00130499
0.00826952
0.00122567
0.00528205
0.00115085
0.00148752
-0.00238687
0.0013518
0.00475223
0.00124334
0.0012178
0.00115139
-0.00230448
0.00108516
-0.0050915
0.00104288
-0.0068361
0.00101584
-0.00766187
0.000996405
-0.00788403
0.000980912
-0.00776012
0.000963336
-0.00746804
0.000934925
-0.00719403
0.00089543
-0.00703619
0.000859523
-0.00682759
0.000847284
-0.00619879
0.000869631
-0.0048818
0.000924696
-0.00293022
0.0010033
-0.000655546
0.00109384
0.00158211
0.00118529
0.00356945
0.00126942
0.0053096
0.00134019
0.00694179
0.00139179
0.00851128
0.00141778
0.00982879
0.0014127
0.0104826
0.00137461
0.0100643
0.00130858
0.00833555
0.00122817
0.00536247
0.00115154
0.00156414
-0.002329
0.00135472
0.00485867
0.00124347
0.00132905
0.00114813
-0.00220913
0.00107879
-0.00502217
0.00103433
-0.00679164
0.00100609
-0.00763363
0.00098608
-0.00786402
0.000970469
-0.00774451
0.000953441
-0.00745102
0.000926116
-0.0071667
0.000887543
-0.00699762
0.000851848
-0.0067919
0.000839348
-0.00618629
0.000861563
-0.00490401
0.000916786
-0.00298544
0.000995675
-0.000734436
0.00108663
0.00149115
0.00117878
0.0034773
0.00126406
0.00522432
0.00133648
0.00686937
0.00139015
0.00845762
0.00141832
0.00980062
0.0014151
0.0104858
0.00137809
0.0101013
0.00131206
0.00840157
0.00123061
0.00544392
0.00115222
0.00164254
-0.00226907
0.00135752
0.00496648
0.00124355
0.00144302
0.00114481
-0.00211039
0.00107233
-0.00494969
0.00102566
-0.00674497
0.000996226
-0.00760419
0.000975651
-0.00784345
0.000959921
-0.00772878
0.00094343
-0.00743452
0.000917206
-0.00714048
0.000879602
-0.00696002
0.00084415
-0.00675644
0.000831361
-0.0061735
0.000853386
-0.00492604
0.00090874
-0.0030408
0.000987902
-0.000813599
0.00107924
0.00139982
0.00117204
0.0033845
0.00125842
0.00513794
0.00133245
0.00679533
0.00138817
0.0084019
0.00141855
0.00977024
0.00141723
0.0104871
0.00138136
0.0101372
0.00131542
0.00846752
0.001233
0.00552634
0.00115288
0.00172266
-0.0022071
0.0013602
0.00507548
0.00124361
0.00155961
0.00114145
-0.00200823
0.0010658
-0.00487404
0.0010169
-0.00669607
0.000986256
-0.00757355
0.000965122
-0.00782231
0.00094927
-0.00771293
0.000933302
-0.00741856
0.000908191
-0.00711537
0.000871602
-0.00692343
0.000836428
-0.00672127
0.000823324
-0.0061604
0.000845099
-0.00494781
0.000900556
-0.00309626
0.000979991
-0.000893033
0.00107168
0.00130813
0.00116509
0.00329109
0.0012525
0.00505053
0.00132811
0.00671972
0.00138587
0.00834414
0.00141846
0.00973765
0.00141909
0.0104865
0.00138443
0.0101718
0.00131864
0.00853331
0.00123532
0.00560965
0.00115352
0.00180447
-0.0021431
0.00136281
0.00518546
0.00124366
0.00167876
0.00113805
-0.00190263
0.0010592
-0.00479518
0.00100804
-0.00664492
0.000976181
-0.00754169
0.000954494
-0.00780063
0.000938515
-0.00769695
0.000923055
-0.0074031
0.000899064
-0.00709137
0.000863533
-0.0068879
0.000828676
-0.00668641
0.000815235
-0.00614696
0.000836696
-0.00496928
0.000892227
-0.00315179
0.000971945
-0.000972751
0.00106399
0.00121608
0.00115795
0.00319713
0.00124634
0.00496214
0.00132348
0.00664259
0.00138324
0.00828437
0.00141806