/*--------------------------------*- C++ -*----------------------------------*\
  =========                 |
  \\      /  F ield         | OpenFOAM: The Open Source CFD Toolbox
   \\    /   O peration     | Website:  https://openfoam.org
    \\  /    A nd           | Version:  7
     \\/     M anipulation  |
\*---------------------------------------------------------------------------*/
FoamFile
{
    version     2.0;
    format      ascii;
    class       volScalarField;
    location    "260";
    object      p;
}
// * * * * * * * * * * * * * * * * * * * * * * * * * * * * * * * * * * * * * //

dimensions      [0 2 -2 0 0 0 0];

internalField   nonuniform List<scalar> 
36600
(
-0.401977
-0.402461
-0.402741
-0.402941
-0.403123
-0.403365
-0.403757
-0.404375
-0.405277
-0.406511
-0.40811
-0.410108
-0.412537
-0.415439
-0.418865
-0.422876
-0.427548
-0.432982
-0.439181
-0.446193
-0.404334
-0.404597
-0.40476
-0.404871
-0.404985
-0.405181
-0.405548
-0.406161
-0.407085
-0.408367
-0.410046
-0.412159
-0.414744
-0.417845
-0.421521
-0.425838
-0.430879
-0.436754
-0.443477
-0.451081
-0.406635
-0.406679
-0.406725
-0.406745
-0.406789
-0.406937
-0.407274
-0.407878
-0.408814
-0.410136
-0.411884
-0.414099
-0.416823
-0.420105
-0.424007
-0.428602
-0.433978
-0.440254
-0.447454
-0.455584
-0.408864
-0.408694
-0.408623
-0.408552
-0.408524
-0.408619
-0.408921
-0.409509
-0.410451
-0.411802
-0.413607
-0.415909
-0.418754
-0.422196
-0.426299
-0.431142
-0.436818
-0.443451
-0.451077
-0.459662
-0.411007
-0.410629
-0.410443
-0.41028
-0.410178
-0.410217
-0.410479
-0.411044
-0.411982
-0.41335
-0.415198
-0.417571
-0.420519
-0.424097
-0.428375
-0.433435
-0.439371
-0.446317
-0.454318
-0.46328
-0.413053
-0.412474
-0.412174
-0.41192
-0.411742
-0.411721
-0.411936
-0.41247
-0.413394
-0.414768
-0.416644
-0.419071
-0.422101
-0.425792
-0.430217
-0.435459
-0.441618
-0.448829
-0.457151
-0.466438
-0.41499
-0.414219
-0.413809
-0.413463
-0.413208
-0.413122
-0.413285
-0.413779
-0.414678
-0.416044
-0.417933
-0.420395
-0.423485
-0.427265
-0.431807
-0.437198
-0.443538
-0.450968
-0.459549
-0.469116
-0.416809
-0.415857
-0.415339
-0.414903
-0.414568
-0.414414
-0.414519
-0.414964
-0.415826
-0.41717
-0.419055
-0.421533
-0.424661
-0.428503
-0.433132
-0.438638
-0.44512
-0.452722
-0.46151
-0.471277
-0.418503
-0.417382
-0.416761
-0.416234
-0.41582
-0.415593
-0.415632
-0.416019
-0.416832
-0.41814
-0.420002
-0.422476
-0.425619
-0.429497
-0.434184
-0.439769
-0.446353
-0.45408
-0.463025
-0.472921
-0.420066
-0.418788
-0.41807
-0.417455
-0.416959
-0.416656
-0.416623
-0.416941
-0.417693
-0.418948
-0.42077
-0.423219
-0.426354
-0.430241
-0.434955
-0.440586
-0.447233
-0.455041
-0.464093
-0.474055
-0.421493
-0.420075
-0.419263
-0.418564
-0.417985
-0.417602
-0.417488
-0.417729
-0.418406
-0.419593
-0.421357
-0.42376
-0.426863
-0.430732
-0.435445
-0.441088
-0.447761
-0.455606
-0.464718
-0.474689
-0.422784
-0.42124
-0.420342
-0.419559
-0.418898
-0.418431
-0.418231
-0.418383
-0.418972
-0.420075
-0.421763
-0.424098
-0.427146
-0.430972
-0.435653
-0.441277
-0.447939
-0.455782
-0.464912
-0.474841
-0.423937
-0.422283
-0.421307
-0.420444
-0.4197
-0.419145
-0.418852
-0.418906
-0.419394
-0.420398
-0.42199
-0.424237
-0.427206
-0.430963
-0.435585
-0.441159
-0.447777
-0.45558
-0.464688
-0.47453
-0.424954
-0.423208
-0.422159
-0.421222
-0.420394
-0.419749
-0.419356
-0.419302
-0.419678
-0.420566
-0.422044
-0.424183
-0.42705
-0.430713
-0.43525
-0.440744
-0.447288
-0.455016
-0.464067
-0.473782
-0.425837
-0.424016
-0.422905
-0.421896
-0.420987
-0.420248
-0.419749
-0.419579
-0.419828
-0.420586
-0.421933
-0.423943
-0.426687
-0.430233
-0.434658
-0.440047
-0.446487
-0.454109
-0.463072
-0.472627
-0.426592
-0.424714
-0.423548
-0.422472
-0.421483
-0.420649
-0.420039
-0.419742
-0.419855
-0.420468
-0.421667
-0.42353
-0.426129
-0.429536
-0.433827
-0.439083
-0.445394
-0.452883
-0.46173
-0.471096
-0.427223
-0.425308
-0.424095
-0.422958
-0.42189
-0.420959
-0.420233
-0.419803
-0.419767
-0.420222
-0.421258
-0.422956
-0.425391
-0.428638
-0.432772
-0.437875
-0.444032
-0.451362
-0.460069
-0.469223
-0.427738
-0.425805
-0.424554
-0.423361
-0.422216
-0.421188
-0.420342
-0.419771
-0.419578
-0.419862
-0.42072
-0.422236
-0.424491
-0.427559
-0.431517
-0.436445
-0.442428
-0.449576
-0.458123
-0.467039
-0.428147
-0.426213
-0.424934
-0.42369
-0.422472
-0.421345
-0.420376
-0.419658
-0.419299
-0.419402
-0.420069
-0.42139
-0.423448
-0.42632
-0.430084
-0.434819
-0.440608
-0.447556
-0.455924
-0.46458
-0.428459
-0.426543
-0.425244
-0.423956
-0.422667
-0.421441
-0.420346
-0.419477
-0.418944
-0.418858
-0.419323
-0.420436
-0.422283
-0.424946
-0.4285
-0.433027
-0.438606
-0.445334
-0.453508
-0.461875
-0.428686
-0.426805
-0.425496
-0.424168
-0.422811
-0.421488
-0.420265
-0.419241
-0.418529
-0.418245
-0.4185
-0.419394
-0.42102
-0.423461
-0.426794
-0.431099
-0.436454
-0.442945
-0.45091
-0.458955
-0.42884
-0.427011
-0.425699
-0.424339
-0.422917
-0.421496
-0.420145
-0.418964
-0.418069
-0.417582
-0.417619
-0.418288
-0.419684
-0.421893
-0.424996
-0.429068
-0.434187
-0.440425
-0.448168
-0.455845
-0.428935
-0.427174
-0.425867
-0.424478
-0.422996
-0.42148
-0.42
-0.41866
-0.41758
-0.416887
-0.416703
-0.41714
-0.4183
-0.420272
-0.423137
-0.426969
-0.431843
-0.437812
-0.445322
-0.45257
-0.428985
-0.427307
-0.426013
-0.4246
-0.42306
-0.42145
-0.419843
-0.418344
-0.417079
-0.416178
-0.41577
-0.415974
-0.416895
-0.418627
-0.42125
-0.424837
-0.42946
-0.435145
-0.44241
-0.449152
-0.429008
-0.427424
-0.426148
-0.424717
-0.423122
-0.42142
-0.419688
-0.418032
-0.416582
-0.415474
-0.414844
-0.414814
-0.415497
-0.416989
-0.41937
-0.42271
-0.427076
-0.432462
-0.439474
-0.445611
-0.429018
-0.42754
-0.426289
-0.424842
-0.423194
-0.421404
-0.419548
-0.417738
-0.416106
-0.414795
-0.413945
-0.413685
-0.414133
-0.415387
-0.417529
-0.420623
-0.424732
-0.429804
-0.436555
-0.441967
-0.429035
-0.427672
-0.426448
-0.424988
-0.423291
-0.421415
-0.419439
-0.417478
-0.415669
-0.414159
-0.413095
-0.412612
-0.41283
-0.413853
-0.41576
-0.418612
-0.422463
-0.427207
-0.433693
-0.438242
-0.429077
-0.427834
-0.42664
-0.42517
-0.423426
-0.421467
-0.419374
-0.417268
-0.415288
-0.413587
-0.412316
-0.411617
-0.411615
-0.412415
-0.414095
-0.41671
-0.420307
-0.424707
-0.430926
-0.434463
-0.429164
-0.428045
-0.426882
-0.425403
-0.423613
-0.421573
-0.419369
-0.417123
-0.414979
-0.413096
-0.411629
-0.410725
-0.410513
-0.411101
-0.412564
-0.414949
-0.418295
-0.422337
-0.428287
-0.430659
-0.429315
-0.42832
-0.427189
-0.4257
-0.423866
-0.421748
-0.419437
-0.417059
-0.414761
-0.412706
-0.411054
-0.409958
-0.409549
-0.409936
-0.411193
-0.413356
-0.416455
-0.420123
-0.425803
-0.426867
-0.429551
-0.428678
-0.427576
-0.426076
-0.424199
-0.422007
-0.419595
-0.417091
-0.414649
-0.412434
-0.410611
-0.409336
-0.408745
-0.408945
-0.410007
-0.411954
-0.414807
-0.418089
-0.423488
-0.423132
-0.429893
-0.429134
-0.428058
-0.426547
-0.424626
-0.422363
-0.419855
-0.417236
-0.414661
-0.412298
-0.410319
-0.40888
-0.40812
-0.408146
-0.409024
-0.410763
-0.413368
-0.416251
-0.421347
-0.4195
-0.43036
-0.429707
-0.428652
-0.427126
-0.425162
-0.42283
-0.420233
-0.417506
-0.41481
-0.412315
-0.410193
-0.408606
-0.407693
-0.407558
-0.40826
-0.409794
-0.412146
-0.414622
-0.419372
-0.416024
-0.430973
-0.430413
-0.429372
-0.427828
-0.42582
-0.423422
-0.420741
-0.417917
-0.415111
-0.412497
-0.410249
-0.408529
-0.407476
-0.407192
-0.407726
-0.409058
-0.411145
-0.413213
-0.417546
-0.412759
-0.43175
-0.431267
-0.430233
-0.428665
-0.426612
-0.42415
-0.421393
-0.41848
-0.415577
-0.412859
-0.410499
-0.40866
-0.40748
-0.407056
-0.407426
-0.408556
-0.410362
-0.412033
-0.415852
-0.409781
-0.43271
-0.432284
-0.431247
-0.429651
-0.42755
-0.425028
-0.422199
-0.419208
-0.416219
-0.413409
-0.410951
-0.409007
-0.40771
-0.407153
-0.40736
-0.408285
-0.409788
-0.411091
-0.414272
-0.407187
-0.433868
-0.433478
-0.432428
-0.430796
-0.428646
-0.426064
-0.423169
-0.420107
-0.417044
-0.414154
-0.411612
-0.409573
-0.408168
-0.407481
-0.407525
-0.408241
-0.409416
-0.410389
-0.412747
-0.404951
-0.435238
-0.434861
-0.433785
-0.43211
-0.429908
-0.427267
-0.424311
-0.421187
-0.418058
-0.4151
-0.412482
-0.410358
-0.40885
-0.408033
-0.407908
-0.408412
-0.409248
-0.409965
-0.411195
-0.402758
-0.436833
-0.436442
-0.435328
-0.433603
-0.431344
-0.428645
-0.425631
-0.42245
-0.419265
-0.416247
-0.413562
-0.411357
-0.409747
-0.408797
-0.408496
-0.408783
-0.409301
-0.409916
-0.409778
-0.400905
-0.438662
-0.43823
-0.437065
-0.43528
-0.43296
-0.430202
-0.427133
-0.4239
-0.420664
-0.417593
-0.414846
-0.412563
-0.410847
-0.409755
-0.409265
-0.409323
-0.409554
-0.410247
-0.409172
-0.403485
-0.440733
-0.440232
-0.439002
-0.437148
-0.43476
-0.431941
-0.428817
-0.425536
-0.422254
-0.419134
-0.416326
-0.413962
-0.412134
-0.410885
-0.410184
-0.409986
-0.409922
-0.410622
-0.409529
-0.416471
-0.443051
-0.442454
-0.441144
-0.43921
-0.436748
-0.433863
-0.430685
-0.427356
-0.42403
-0.420861
-0.417992
-0.415541
-0.413588
-0.412162
-0.41122
-0.410722
-0.410317
-0.410819
-0.40954
-0.41757
-0.445618
-0.444897
-0.443493
-0.441469
-0.438924
-0.43597
-0.432735
-0.429358
-0.425987
-0.422767
-0.419831
-0.417284
-0.415188
-0.413558
-0.412337
-0.411483
-0.410661
-0.410701
-0.408905
-0.415569
-0.448437
-0.447565
-0.446051
-0.443925
-0.441289
-0.43826
-0.434964
-0.431536
-0.428117
-0.424842
-0.421831
-0.419172
-0.416912
-0.415045
-0.413502
-0.412228
-0.410904
-0.410282
-0.407791
-0.412528
-0.451505
-0.450457
-0.44882
-0.446579
-0.443844
-0.440732
-0.437369
-0.433885
-0.430413
-0.427076
-0.423977
-0.421189
-0.418736
-0.416597
-0.414682
-0.412925
-0.411016
-0.409595
-0.406298
-0.408894
-0.454822
-0.453574
-0.451798
-0.449431
-0.446586
-0.443384
-0.439947
-0.436401
-0.432868
-0.429457
-0.426256
-0.423315
-0.42064
-0.418186
-0.41585
-0.413546
-0.41098
-0.408671
-0.404504
-0.405004
-0.458384
-0.456914
-0.454986
-0.452481
-0.449515
-0.446214
-0.442696
-0.439079
-0.435475
-0.431977
-0.428654
-0.425535
-0.422601
-0.419788
-0.416978
-0.414071
-0.410788
-0.407543
-0.402481
-0.40105
-0.462189
-0.460476
-0.458382
-0.455727
-0.45263
-0.449221
-0.445613
-0.441915
-0.438228
-0.434627
-0.431159
-0.42783
-0.424598
-0.42138
-0.418045
-0.414485
-0.410439
-0.406239
-0.400287
-0.397137
-0.466232
-0.464258
-0.461985
-0.459169
-0.455931
-0.452404
-0.448695
-0.444907
-0.441121
-0.437397
-0.433757
-0.430184
-0.426612
-0.422941
-0.419032
-0.414775
-0.409935
-0.404785
-0.397967
-0.393313
-0.47051
-0.468258
-0.465795
-0.462808
-0.459418
-0.455762
-0.451944
-0.44805
-0.44415
-0.44028
-0.436438
-0.432581
-0.428624
-0.424451
-0.419923
-0.414933
-0.409281
-0.403203
-0.395556
-0.389597
-0.475019
-0.472474
-0.469811
-0.466642
-0.463091
-0.459298
-0.455357
-0.451345
-0.44731
-0.443267
-0.439188
-0.435006
-0.430616
-0.425894
-0.420705
-0.414956
-0.408485
-0.40151
-0.393078
-0.385993
-0.479757
-0.476905
-0.474033
-0.470672
-0.466951
-0.46301
-0.458935
-0.454788
-0.450597
-0.446351
-0.441997
-0.437443
-0.432571
-0.427254
-0.421368
-0.414841
-0.407553
-0.399719
-0.39055
-0.382492
-0.48472
-0.481549
-0.478459
-0.474899
-0.471
-0.466901
-0.462679
-0.458379
-0.454006
-0.449522
-0.44485
-0.439877
-0.434474
-0.428517
-0.421903
-0.414587
-0.406493
-0.397842
-0.387983
-0.379082
-0.489906
-0.486405
-0.483089
-0.479323
-0.475237
-0.470972
-0.466589
-0.462115
-0.45753
-0.452772
-0.447735
-0.442291
-0.436308
-0.429671
-0.422304
-0.414194
-0.405312
-0.395887
-0.385385
-0.375748
-0.495311
-0.491469
-0.487922
-0.483945
-0.479665
-0.475222
-0.470663
-0.465991
-0.461163
-0.456087
-0.450637
-0.444671
-0.438059
-0.430706
-0.422566
-0.413664
-0.404015
-0.39386
-0.382759
-0.372474
-0.500931
-0.496741
-0.492958
-0.488763
-0.484284
-0.479652
-0.474899
-0.470004
-0.464896
-0.459457
-0.45354
-0.446999
-0.439713
-0.431611
-0.422686
-0.412999
-0.402608
-0.391764
-0.380106
-0.369246
-0.506764
-0.502217
-0.498193
-0.493778
-0.489091
-0.48426
-0.479293
-0.474146
-0.468717
-0.462865
-0.456429
-0.44926
-0.441257
-0.43238
-0.422661
-0.412201
-0.401095
-0.389602
-0.377425
-0.366049
-0.512803
-0.507892
-0.503625
-0.498986
-0.494086
-0.489042
-0.48384
-0.478407
-0.472614
-0.466297
-0.459285
-0.451438
-0.442678
-0.433004
-0.42249
-0.411271
-0.399479
-0.387374
-0.374713
-0.362868
-0.519043
-0.513761
-0.50925
-0.504384
-0.499263
-0.493992
-0.48853
-0.482775
-0.476571
-0.469734
-0.46209
-0.453516
-0.443965
-0.433477
-0.422169
-0.410211
-0.397761
-0.38508
-0.371966
-0.359692
-0.525475
-0.519819
-0.515062
-0.509966
-0.504617
-0.499103
-0.493354
-0.487236
-0.48057
-0.473156
-0.464825
-0.455478
-0.445106
-0.433794
-0.421699
-0.409022
-0.395943
-0.382718
-0.369179
-0.356508
-0.53209
-0.526055
-0.521053
-0.515725
-0.510139
-0.504364
-0.498296
-0.491773
-0.48459
-0.476541
-0.46747
-0.457308
-0.446091
-0.433948
-0.421077
-0.407703
-0.394023
-0.380285
-0.366347
-0.353304
-0.538877
-0.53246
-0.527213
-0.521651
-0.515819
-0.509761
-0.503341
-0.496365
-0.488609
-0.479868
-0.470005
-0.458991
-0.446908
-0.433934
-0.420301
-0.406253
-0.392001
-0.377776
-0.363463
-0.35007
-0.54582
-0.539021
-0.53353
-0.527731
-0.521642
-0.515278
-0.508468
-0.500989
-0.492602
-0.483111
-0.472409
-0.46051
-0.447549
-0.433747
-0.419368
-0.404672
-0.389872
-0.375188
-0.36052
-0.346796
-0.552904
-0.545723
-0.539991
-0.533952
-0.527592
-0.520896
-0.513655
-0.505619
-0.496544
-0.486248
-0.474661
-0.461851
-0.448003
-0.433382
-0.418275
-0.402955
-0.387634
-0.372514
-0.357511
-0.343472
-0.56011
-0.552549
-0.546577
-0.540295
-0.533649
-0.526591
-0.518875
-0.510228
-0.500406
-0.489251
-0.476741
-0.462999
-0.448261
-0.432832
-0.417019
-0.401099
-0.385282
-0.369748
-0.354428
-0.340088
-0.567415
-0.559479
-0.55327
-0.546739
-0.53979
-0.532339
-0.524101
-0.514786
-0.504159
-0.492096
-0.478629
-0.463939
-0.448314
-0.432091
-0.415595
-0.3991
-0.38281
-0.366883
-0.351263
-0.336635
-0.574796
-0.566489
-0.560047
-0.553262
-0.545991
-0.53811
-0.5293
-0.519261
-0.507773
-0.494757
-0.480305
-0.464657
-0.448151
-0.431153
-0.413996
-0.396952
-0.380211
-0.363912
-0.348007
-0.333104
-0.582225
-0.573556
-0.566884
-0.559838
-0.552223
-0.543874
-0.534442
-0.523621
-0.511218
-0.497208
-0.481748
-0.465139
-0.447764
-0.430011
-0.412218
-0.394649
-0.37748
-0.360827
-0.344653
-0.329486
-0.589673
-0.580651
-0.573753
-0.566438
-0.558455
-0.549598
-0.53949
-0.52783
-0.514463
-0.499425
-0.482941
-0.465373
-0.447143
-0.428657
-0.410254
-0.392183
-0.374607
-0.35762
-0.341192
-0.325772
-0.597107
-0.587744
-0.580621
-0.573028
-0.564652
-0.555243
-0.544407
-0.531854
-0.517477
-0.501381
-0.483863
-0.465343
-0.446277
-0.427083
-0.408095
-0.389548
-0.371586
-0.354282
-0.337614
-0.321954
-0.604491
-0.5948
-0.587457
-0.579575
-0.570775
-0.560772
-0.549153
-0.535656
-0.520229
-0.503052
-0.484497
-0.465036
-0.445156
-0.425281
-0.405735
-0.386734
-0.368407
-0.350806
-0.333912
-0.318023
-0.611789
-0.601785
-0.594225
-0.58604
-0.576788
-0.566144
-0.553691
-0.539199
-0.522687
-0.504414
-0.484824
-0.46444
-0.443771
-0.423242
-0.403164
-0.383735
-0.365063
-0.347181
-0.330076
-0.313971
-0.618961
-0.608662
-0.600886
-0.592385
-0.582648
-0.571318
-0.557978
-0.542449
-0.524823
-0.505445
-0.484828
-0.463541
-0.442111
-0.420957
-0.400374
-0.38054
-0.361544
-0.3434
-0.326099
-0.30979
-0.625966
-0.61539
-0.607401
-0.598569
-0.588313
-0.576249
-0.561976
-0.54537
-0.526607
-0.506121
-0.484491
-0.462327
-0.440165
-0.418416
-0.397356
-0.377142
-0.357841
-0.339454
-0.321971
-0.305472
-0.632761
-0.621927
-0.613727
-0.604547
-0.593738
-0.580896
-0.565644
-0.547926
-0.528012
-0.50642
-0.483798
-0.460785
-0.437923
-0.41561
-0.394101
-0.37353
-0.353946
-0.335334
-0.317685
-0.301009
-0.639301
-0.62823
-0.61982
-0.610274
-0.598877
-0.585213
-0.568941
-0.550084
-0.529009
-0.506324
-0.482732
-0.458902
-0.435374
-0.412529
-0.390599
-0.369696
-0.34985
-0.331031
-0.313232
-0.296395
-0.64554
-0.634255
-0.625635
-0.615704
-0.603684
-0.589157
-0.571828
-0.55181
-0.529574
-0.505811
-0.481279
-0.456667
-0.432507
-0.409163
-0.38684
-0.36563
-0.345544
-0.326539
-0.308605
-0.291621
-0.651429
-0.639954
-0.631124
-0.620789
-0.608113
-0.592682
-0.574265
-0.553073
-0.529681
-0.504862
-0.479424
-0.454066
-0.429312
-0.405502
-0.382816
-0.361324
-0.34102
-0.321848
-0.303796
-0.286682
-0.656923
-0.64528
-0.63624
-0.625481
-0.612115
-0.595747
-0.576217
-0.553843
-0.529306
-0.503461
-0.477153
-0.45109
-0.425779
-0.401536
-0.378517
-0.356769
-0.336268
-0.31695
-0.298797
-0.28157
-0.661972
-0.650186
-0.640934
-0.629732
-0.615646
-0.598309
-0.577646
-0.55409
-0.528429
-0.50159
-0.474453
-0.447726
-0.421897
-0.397256
-0.373934
-0.351956
-0.331282
-0.31184
-0.293603
-0.276281
-0.666528
-0.654625
-0.64516
-0.633495
-0.618659
-0.600326
-0.578518
-0.553788
-0.527028
-0.499234
-0.471311
-0.443963
-0.417657
-0.392654
-0.369058
-0.346877
-0.326054
-0.306509
-0.288207
-0.270807
-0.670542
-0.658547
-0.648867
-0.636721
-0.621109
-0.601759
-0.578801
-0.552912
-0.525084
-0.496377
-0.467716
-0.439792
-0.413049
-0.387719
-0.363882
-0.341525
-0.320577
-0.300951
-0.282603
-0.265145
-0.673967
-0.661906
-0.652009
-0.639364
-0.622953
-0.602571
-0.578465
-0.551436
-0.52258
-0.493006
-0.463655
-0.435203
-0.408065
-0.382444
-0.358397
-0.335892
-0.314844
-0.29516
-0.276785
-0.259289
-0.676756
-0.664654
-0.654539
-0.641379
-0.624151
-0.602727
-0.57748
-0.549342
-0.519498
-0.489109
-0.45912
-0.430186
-0.402696
-0.376822
-0.352597
-0.329971
-0.308848
-0.28913
-0.270749
-0.253235
-0.678865
-0.666747
-0.656412
-0.642722
-0.624661
-0.602193
-0.575822
-0.546608
-0.515826
-0.484675
-0.4541
-0.424734
-0.396934
-0.370843
-0.346473
-0.323757
-0.302584
-0.282856
-0.264489
-0.246978
-0.680248
-0.668141
-0.657584
-0.643352
-0.624448
-0.600938
-0.573466
-0.543217
-0.511549
-0.479693
-0.448587
-0.418839
-0.390772
-0.364503
-0.340021
-0.317242
-0.296048
-0.276333
-0.258001
-0.240515
-0.680865
-0.668792
-0.658012
-0.643229
-0.623478
-0.598935
-0.570391
-0.539154
-0.506657
-0.474155
-0.442575
-0.412494
-0.384205
-0.357796
-0.333234
-0.310424
-0.289234
-0.269558
-0.251283
-0.233843
-0.680675
-0.668661
-0.657658
-0.642317
-0.621717
-0.596158
-0.566578
-0.534405
-0.50114
-0.468053
-0.436056
-0.405694
-0.377226
-0.350716
-0.326109
-0.303296
-0.282138
-0.262526
-0.24433
-0.226962
-0.67964
-0.66771
-0.656485
-0.640581
-0.619137
-0.592586
-0.562012
-0.52896
-0.494989
-0.461381
-0.429025
-0.398433
-0.369832
-0.343258
-0.318641
-0.295857
-0.274757
-0.255233
-0.237142
-0.219872
-0.677727
-0.665903
-0.654457
-0.637991
-0.615714
-0.588198
-0.556679
-0.522809
-0.488199
-0.454135
-0.421477
-0.390708
-0.362018
-0.335421
-0.310827
-0.288102
-0.267087
-0.247676
-0.229715
-0.212565
-0.674903
-0.663208
-0.651544
-0.634518
-0.611423
-0.582978
-0.550567
-0.515945
-0.480765
-0.446309
-0.413411
-0.382515
-0.353783
-0.327201
-0.302666
-0.28003
-0.259128
-0.239855
-0.222042
-0.204999
-0.671139
-0.659596
-0.647718
-0.630137
-0.606246
-0.576913
-0.543669
-0.508362
-0.472684
-0.437904
-0.404825
-0.373855
-0.345124
-0.318598
-0.294155
-0.271641
-0.250879
-0.23177
-0.214115
-0.197117
-0.66641
-0.655039
-0.642953
-0.624829
-0.600168
-0.569993
-0.535978
-0.50006
-0.463954
-0.428917
-0.395717
-0.364725
-0.336041
-0.30961
-0.285296
-0.262934
-0.242342
-0.223427
-0.205941
-0.18895
-0.660694
-0.649516
-0.637228
-0.618574
-0.593175
-0.562209
-0.527491
-0.491035
-0.454576
-0.41935
-0.386089
-0.355126
-0.326536
-0.300239
-0.27609
-0.253911
-0.23352
-0.214822
-0.197528
-0.180759
-0.653971
-0.643007
-0.630525
-0.61136
-0.585258
-0.553559
-0.518208
-0.48129
-0.444552
-0.409205
-0.375942
-0.345062
-0.316608
-0.290486
-0.266536
-0.244574
-0.224413
-0.205962
-0.188873
-0.172394
-0.646228
-0.635497
-0.622832
-0.603175
-0.576412
-0.54404
-0.50813
-0.470829
-0.433887
-0.398486
-0.36528
-0.334533
-0.306263
-0.280355
-0.25664
-0.234926
-0.215025
-0.196846
-0.179995
-0.163812
-0.637452
-0.626972
-0.614136
-0.594014
-0.566635
-0.533654
-0.497261
-0.459655
-0.422584
-0.387197
-0.354108
-0.323546
-0.295502
-0.269848
-0.246404
-0.224971
-0.205358
-0.187476
-0.170894
-0.15501
-0.627636
-0.617426
-0.604432
-0.583872
-0.555927
-0.522405
-0.485608
-0.447778
-0.410653
-0.375346
-0.342432
-0.312105
-0.284332
-0.258971
-0.235832
-0.214711
-0.195416
-0.177859
-0.161569
-0.145993
-0.616776
-0.606853
-0.593717
-0.572751
-0.544293
-0.510301
-0.47318
-0.435206
-0.398101
-0.362941
-0.330259
-0.300217
-0.27276
-0.24773
-0.224931
-0.204153
-0.185204
-0.167997
-0.152022
-0.136769
-0.604873
-0.595252
-0.581991
-0.560655
-0.531741
-0.497352
-0.459988
-0.421949
-0.384939
-0.349991
-0.317598
-0.28789
-0.260791
-0.236131
-0.213707
-0.193303
-0.174728
-0.157896
-0.142257
-0.127344
-0.591929
-0.582627
-0.56926
-0.547591
-0.51828
-0.48357
-0.446044
-0.408022
-0.371179
-0.336507
-0.304459
-0.275133
-0.248435
-0.224183
-0.202167
-0.182168
-0.163994
-0.147562
-0.132279
-0.117723
-0.577952
-0.568985
-0.555533
-0.533571
-0.503925
-0.46897
-0.431366
-0.393439
-0.356835
-0.322502
-0.290853
-0.261957
-0.235702
-0.211895
-0.19032
-0.170755
-0.15301
-0.137003
-0.122095
-0.107915
-0.562954
-0.554336
-0.540819
-0.518608
-0.488691
-0.45357
-0.415969
-0.378216
-0.341922
-0.307989
-0.276792
-0.248373
-0.222602
-0.199276
-0.178176
-0.159075
-0.141785
-0.126225
-0.111712
-0.0979264
-0.546948
-0.538694
-0.525137
-0.50272
-0.472599
-0.43739
-0.399874
-0.362373
-0.326456
-0.292984
-0.262291
-0.234394
-0.209147
-0.186339
-0.165744
-0.147136
-0.130328
-0.115239
-0.101139
-0.0877649
-0.529954
-0.522075
-0.508503
-0.485929
-0.455671
-0.420453
-0.383104
-0.345926
-0.310456
-0.277503
-0.247365
-0.220034
-0.19535
-0.173094
-0.153037
-0.13495
-0.118649
-0.104053
-0.0903861
-0.0774399
-0.511992
-0.504503
-0.490939
-0.468256
-0.437929
-0.402785
-0.365681
-0.328897
-0.29394
-0.261563
-0.232029
-0.205307
-0.181224
-0.159555
-0.140067
-0.122529
-0.10676
-0.0926785
-0.0794629
-0.0669616
-0.493087
-0.485999
-0.472472
-0.449729
-0.419404
-0.384411
-0.347623
-0.311315
-0.276931
-0.245184
-0.216301
-0.19023
-0.166785
-0.145736
-0.126847
-0.109885
-0.0946725
-0.081128
-0.0683816
-0.0563416
-0.473268
-0.466591
-0.453129
-0.430379
-0.400129
-0.36535
-0.328963
-0.293201
-0.259451
-0.228385
-0.200199
-0.174819
-0.152048
-0.131651
-0.113391
-0.0970314
-0.0824006
-0.0694139
-0.0571552
-0.0455937
-0.452564
-0.446311
-0.43294
-0.410238
-0.380139
-0.345627
-0.30973
-0.274578
-0.241521
-0.211189
-0.183743
-0.159092
-0.137029
-0.117316
-0.0997128
-0.0839826
-0.0699577
-0.05755
-0.0457982
-0.034734
-0.431008
-0.42519
-0.411941
-0.389342
-0.359424
-0.325313
-0.289954
-0.255476
-0.223168
-0.193616
-0.166953
-0.143067
-0.121747
-0.102747
-0.0858282
-0.0707531
-0.0573585
-0.0455511
-0.0343265
-0.0237812
-0.408634
-0.403267
-0.390169
-0.367727
-0.338051
-0.304411
-0.269664
-0.235921
-0.204417
-0.175691
-0.149849
-0.126765
-0.106217
-0.0879603
-0.0717524
-0.0573577
-0.0446178
-0.0334321
-0.0227571
-0.0127571
-0.385482
-0.380579
-0.367661
-0.345396
-0.316085
-0.28296
-0.248893
-0.215945
-0.185294
-0.157438
-0.132455
-0.110205
-0.0904601
-0.0729727
-0.0575014
-0.0438116
-0.031751
-0.0212086
-0.0111086
-0.00168875
-0.361589
-0.357168
-0.34445
-0.322431
-0.293539
-0.260998
-0.227675
-0.195577
-0.165827
-0.138882
-0.114793
-0.0934083
-0.0744938
-0.0578017
-0.0430908
-0.0301298
-0.0187727
-0.00889566
0.000598881
0.00938749
-0.336993
-0.333079
-0.320578
-0.298874
-0.270451
-0.238562
-0.206045
-0.17485
-0.146045
-0.120048
-0.0968871
-0.0763959
-0.0583379
-0.0424648
-0.0285365
-0.0163268
-0.00569689
0.00349274
0.0123437
0.0204278
-0.311728
-0.30837
-0.296103
-0.274758
-0.246867
-0.215692
-0.184037
-0.153795
-0.125978
-0.100965
-0.078761
-0.0591904
-0.0420126
-0.0269799
-0.0138543
-0.00241648
0.00746339
0.015945
0.0241099
0.0313978
-0.285854
-0.283089
-0.271074
-0.25013
-0.222828
-0.192427
-0.16169
-0.132446
-0.105655
-0.0816587
-0.0604403
-0.0418144
-0.0255382
-0.011365
0.000940546
0.0115876
0.020696
0.0284547
0.0358957
0.0422731
-0.259496
-0.257222
-0.245534
-0.225037
-0.19838
-0.168809
-0.139039
-0.110837
-0.0851082
-0.0621584
-0.0419508
-0.0242915
-0.00893596
0.0043615
0.0158325
0.0256721
0.0339918
0.041026
0.0477027
0.052957
-0.232659
-0.230846
-0.21953
-0.199526
-0.173567
-0.14488
-0.116124
-0.0890032
-0.0643693
-0.042493
-0.0233191
-0.00664595
0.00777251
0.0201808
0.0308058
0.0398257
0.0473525
0.0536848
0.0595021
0.0631636
-0.205367
-0.204034
-0.193113
-0.173646
-0.148436
-0.120682
-0.0929843
-0.0669804
-0.0434707
-0.0226924
-0.00457251
0.0110974
0.0245647
0.0360729
0.0458435
0.0540392
0.0607952
0.0664777
0.0712477
0.0726109
-0.177677
-0.176839
-0.166335
-0.147446
-0.123033
-0.0962584
-0.0696585
-0.0448045
-0.0224456
-0.0027868
0.0142611
0.0289129
0.0414169
0.0520162
0.0609264
0.0683026
0.0743318
0.07941
0.0829403
0.081971
-0.149648
-0.149315
-0.139248
-0.120978
-0.0974067
-0.071653
-0.046187
-0.0225124
-0.00132762
0.0171928
0.0331532
0.046774
0.0583047
0.0679872
0.0760323
0.0825982
0.0879303
0.0923527
0.0944812
0.0941295
-0.121334
-0.121514
-0.111906
-0.0942912
-0.0716036
-0.04691
-0.0226105
-0.000141019
0.0198492
0.037215
0.0520747
0.0646538
0.0752025
0.0839614
0.0911381
0.0968981
0.101518
0.105222
0.106537
0.106955
-0.0927943
-0.0934917
-0.0843627
-0.0674387
-0.0456727
-0.0220741
0.00103011
0.022272
0.0410505
0.057248
0.0709962
0.0825249
0.0920845
0.0999143
0.10622
0.111174
0.11506
0.118026
0.118704
0.119216
-0.0640852
-0.0653035
-0.0566735
-0.0404723
-0.0196626
0.0028098
0.0246938
0.0446892
0.0622415
0.07726
0.0898882
0.10036
0.108925
0.115821
0.121252
0.125397
0.128537
0.130775
0.130878
0.131177
-0.0352648
-0.037006
-0.0288932
-0.0134443
0.00637794
0.0276968
0.0483393
0.0670725
0.0833876
0.0972188
0.108721
0.11813
0.125697
0.131656
0.136212
0.139544
0.141928
0.143443
0.142972
0.142913
-0.00639101
-0.00865568
-0.0010771
0.013593
0.0324001
0.0525421
0.0719254
0.0893843
0.104454
0.117092
0.127464
0.135808
0.142375
0.147396
0.151074
0.153591
0.155213
0.156006
0.154945
0.154442
0.0224782
0.0196905
0.0267197
0.0405872
0.0583552
0.0773006
0.095411
0.111587
0.125406
0.136848
0.146088
0.153367
0.158932
0.163016
0.165816
0.167515
0.168372
0.168441
0.166775
0.165776
0.051285
0.0479758
0.0544419
0.067486
0.0841946
0.101928
0.118755
0.133642
0.146208
0.156454
0.164563
0.170778
0.175345
0.178491
0.180415
0.181296
0.181386
0.180731
0.178448
0.176917
0.0799716
0.0761433
0.0820348
0.0942377
0.10987
0.126379
0.141917
0.155513
0.166827
0.175879
0.182861
0.188015
0.191585
0.193799
0.194848
0.194913
0.194237
0.192856
0.18995
0.187866
0.108481
0.104137
0.109444
0.120791
0.135334
0.15061
0.164856
0.177162
0.187228
0.195092
0.200951
0.205049
0.20763
0.208915
0.209095
0.208347
0.206907
0.204802
0.20127
0.198617
0.136755
0.1319
0.136614
0.147094
0.160539
0.174579
0.187532
0.198553
0.207377
0.214059
0.218804
0.221856
0.223454
0.223817
0.223134
0.221578
0.219378
0.216554
0.212397
0.209164
0.164738
0.159378
0.163493
0.173096
0.185437
0.19824
0.209906
0.21965
0.22724
0.232752
0.236393
0.238407
0.239032
0.238483
0.236945
0.234589
0.231635
0.228096
0.223319
0.219501
0.192374
0.186515
0.190028
0.198749
0.209984
0.221553
0.231939
0.240416
0.246786
0.25114
0.253689
0.254678
0.254341
0.252891
0.250507
0.24736
0.24366
0.239415
0.234024
0.229617
0.219609
0.213257
0.216166
0.224003
0.234134
0.244475
0.253592
0.260816
0.265981
0.269192
0.270665
0.270643
0.269358
0.267018
0.263802
0.259873
0.255438
0.250497
0.2445
0.239505
0.246387
0.239552
0.241856
0.24881
0.257842
0.266966
0.274828
0.280816
0.284794
0.28688
0.287294
0.286277
0.284059
0.280845
0.276809
0.272113
0.266952
0.261328
0.254736
0.249154
0.272657
0.265347
0.267049
0.273123
0.281064
0.288985
0.295611
0.300382
0.303193
0.304174
0.303548
0.301555
0.298422
0.29435
0.28951
0.28406
0.278188
0.271894
0.264718
0.258554
0.298366
0.290592
0.291695
0.296896
0.303759
0.310493
0.315904
0.319481
0.321148
0.321047
0.319402
0.316454
0.312425
0.307513
0.301886
0.295698
0.289131
0.282182
0.274436
0.267694
0.323463
0.315235
0.315747
0.320084
0.325884
0.331453
0.335671
0.33808
0.338629
0.33747
0.334832
0.330951
0.326047
0.320315
0.31392
0.307012
0.299765
0.292177
0.283875
0.276565
0.347899
0.33923
0.339157
0.342644
0.347399
0.351827
0.35488
0.356149
0.355608
0.353418
0.349811
0.345021
0.339266
0.332736
0.325592
0.317983
0.310075
0.301867
0.293025
0.285156
0.371627
0.362529
0.361882
0.364533
0.368266
0.371579
0.373497
0.373656
0.372055
0.368865
0.364317
0.358645
0.352063
0.344758
0.336888
0.328598
0.320048
0.311238
0.301873
0.293456
0.394599
0.385086
0.383877
0.385711
0.388446
0.390674
0.39149
0.390573
0.387945
0.383785
0.378326
0.371799
0.364417
0.356361
0.347789
0.338841
0.32967
0.320278
0.310407
0.301455
0.416771
0.406858
0.405101
0.406138
0.407903
0.409079
0.408827
0.406871
0.40325
0.398154
0.391815
0.384464
0.376309
0.36753
0.35828
0.348697
0.338926
0.328975
0.318617
0.309145
0.4381
0.427801
0.425512
0.425776
0.426603
0.426762
0.425481
0.422522
0.417946
0.411949
0.404764
0.39662
0.387722
0.378247
0.368345
0.358151
0.347804
0.337315
0.32649
0.316513
0.458544
0.447877
0.445073
0.44459
0.444511
0.443692
0.441421
0.4375
0.432008
0.425147
0.417151
0.408248
0.398638
0.388496
0.37797
0.367191
0.356292
0.345289
0.334016
0.323553
0.478065
0.467045
0.463746
0.462544
0.461595
0.459838
0.456622
0.451781
0.445414
0.437727
0.428958
0.419329
0.409039
0.398261
0.387139
0.375802
0.364377
0.352883
0.341184
0.330254
0.496624
0.48527
0.481495
0.479605
0.477826
0.475175
0.471056
0.46534
0.458141
0.44967
0.440164
0.429846
0.418911
0.407528
0.39584
0.383972
0.372048
0.360089
0.347985
0.336608
0.514187
0.502516
0.498289
0.495743
0.493174
0.489674
0.4847
0.478156
0.470168
0.460955
0.450753
0.439782
0.428236
0.416282
0.404059
0.39169
0.379293
0.366894
0.354408
0.342607
0.530718
0.518751
0.514094
0.510928
0.507612
0.50331
0.497531
0.490206
0.481476
0.471564
0.460707
0.449123
0.437003
0.424511
0.411784
0.398944
0.386102
0.373291
0.360446
0.348243
0.546188
0.533943
0.528883
0.525132
0.521115
0.516062
0.509527
0.501471
0.492046
0.481481
0.470011
0.457853
0.445195
0.432201
0.419004
0.405723
0.392466
0.37927
0.366089
0.353508
0.560567
0.548064
0.542627
0.538331
0.533659
0.527906
0.520669
0.511932
0.501862
0.49069
0.47865
0.465959
0.452803
0.439341
0.425708
0.412017
0.398375
0.384821
0.37133
0.358397
0.573828