/*--------------------------------*- C++ -*----------------------------------*\
  =========                 |
  \\      /  F ield         | OpenFOAM: The Open Source CFD Toolbox
   \\    /   O peration     | Website:  https://openfoam.org
    \\  /    A nd           | Version:  7
     \\/     M anipulation  |
\*---------------------------------------------------------------------------*/
FoamFile
{
    version     2.0;
    format      ascii;
    class       volScalarField;
    location    "160";
    object      p;
}
// * * * * * * * * * * * * * * * * * * * * * * * * * * * * * * * * * * * * * //

dimensions      [0 2 -2 0 0 0 0];

internalField   nonuniform List<scalar> 
4575
(
-0.51895
-0.51034
-0.503729
-0.526256
-0.517297
-0.510465
-0.503258
-0.49545
-0.533546
-0.52425
-0.517202
-0.509728
-0.501544
-0.492435
-0.482032
-0.470068
-0.540785
-0.531167
-0.523905
-0.516154
-0.507569
-0.497894
-0.486748
-0.473886
-0.459263
-0.443047
-0.425586
-0.407324
-0.547937
-0.538011
-0.53054
-0.5225
-0.513483
-0.5032
-0.491259
-0.477452
-0.461797
-0.444539
-0.426094
-0.406955
-0.387599
-0.368425
-0.349724
-0.554961
-0.544746
-0.537068
-0.528727
-0.519248
-0.50831
-0.495526
-0.480731
-0.464015
-0.445704
-0.426282
-0.406284
-0.386202
-0.366432
-0.34725
-0.32882
-0.311228
-0.294484
-0.278588
-0.561817
-0.55133
-0.543448
-0.534792
-0.524818
-0.513182
-0.499508
-0.483685
-0.465886
-0.446519
-0.426132
-0.405297
-0.384517
-0.364179
-0.34454
-0.325745
-0.307859
-0.290878
-0.274802
-0.259652
-0.56846
-0.557723
-0.549639
-0.540651
-0.530151
-0.517772
-0.503164
-0.486281
-0.467382
-0.446961
-0.425626
-0.403981
-0.382533
-0.361656
-0.341586
-0.322448
-0.304288
-0.287088
-0.270846
-0.255521
-0.574846
-0.56388
-0.555596
-0.54626
-0.535199
-0.522035
-0.506453
-0.488482
-0.468476
-0.44701
-0.42475
-0.402324
-0.380239
-0.358852
-0.338379
-0.318921
-0.300508
-0.283106
-0.266714
-0.251228
-0.580928
-0.569757
-0.561274
-0.551571
-0.539916
-0.525927
-0.509335
-0.490256
-0.46914
-0.446645
-0.423487
-0.400313
-0.377625
-0.355759
-0.334909
-0.315156
-0.296509
-0.278924
-0.262398
-0.246766
-0.58666
-0.575307
-0.566625
-0.556538
-0.544257
-0.529405
-0.511773
-0.491572
-0.469351
-0.445848
-0.421824
-0.397937
-0.37468
-0.352367
-0.331168
-0.311143
-0.292284
-0.274537
-0.257891
-0.24213
-0.591994
-0.580483
-0.571603
-0.561113
-0.548173
-0.532425
-0.513729
-0.492398
-0.469085
-0.4446
-0.419745
-0.395184
-0.371394
-0.348667
-0.327147
-0.306875
-0.287826
-0.269935
-0.253188
-0.237315
-0.596882
-0.585238
-0.57616
-0.565248
-0.55162
-0.534945
-0.515167
-0.492707
-0.468319
-0.442885
-0.417238
-0.392042
-0.367756
-0.344649
-0.322837
-0.302344
-0.283127
-0.265114
-0.248283
-0.232314
-0.601276
-0.589524
-0.580246
-0.568895
-0.55455
-0.536925
-0.516052
-0.49247
-0.467032
-0.440687
-0.414289
-0.388501
-0.363759
-0.340304
-0.318231
-0.297542
-0.27818
-0.260067
-0.24317
-0.227124
-0.605127
-0.593294
-0.583815
-0.572006
-0.556921
-0.538324
-0.516353
-0.491663
-0.465207
-0.43799
-0.410888
-0.384551
-0.359392
-0.335625
-0.313321
-0.292463
-0.27298
-0.254789
-0.237844
-0.22174
-0.608389
-0.596501
-0.58682
-0.574537
-0.55869
-0.539107
-0.516039
-0.490262
-0.462825
-0.434783
-0.407024
-0.380183
-0.354647
-0.330604
-0.308099
-0.287099
-0.26752
-0.249273
-0.2323
-0.216158
-0.611016
-0.599099
-0.589214
-0.576442
-0.559815
-0.539238
-0.515082
-0.488247
-0.45987
-0.431052
-0.402686
-0.375388
-0.349517
-0.325233
-0.302559
-0.281445
-0.261795
-0.243514
-0.226534
-0.210374
-0.612963
-0.601042
-0.590953
-0.577679
-0.560259
-0.538684
-0.513457
-0.485598
-0.456329
-0.426787
-0.397865
-0.370157
-0.343994
-0.319505
-0.296695
-0.275495
-0.255799
-0.237509
-0.220542
-0.204386
-0.614187
-0.602288
-0.591994
-0.578206
-0.559983
-0.537417
-0.511141
-0.482298
-0.452188
-0.421978
-0.392554
-0.364485
-0.338071
-0.313415
-0.2905
-0.269244
-0.249529
-0.231254
-0.21432
-0.198189
-0.614647
-0.602795
-0.592296
-0.577985
-0.558956
-0.535407
-0.508113
-0.478333
-0.447437
-0.416617
-0.386745
-0.358365
-0.331743
-0.306958
-0.283972
-0.262688
-0.24298
-0.224744
-0.207866
-0.191784
-0.614304
-0.602524
-0.59182
-0.576981
-0.557146
-0.532632
-0.504355
-0.473688
-0.442066
-0.410696
-0.380433
-0.351791
-0.325006
-0.300129
-0.277104
-0.255824
-0.236149
-0.217976
-0.201179
-0.18517
-0.613122
-0.601438
-0.59053
-0.57516
-0.554525
-0.529069
-0.499851
-0.468354
-0.436069
-0.40421
-0.373613
-0.34476
-0.317854
-0.292924
-0.269895
-0.248647
-0.229033
-0.210947
-0.194255
-0.178348
-0.611067
-0.599502
-0.588392
-0.572492
-0.551068
-0.5247
-0.494589
-0.462322
-0.429438
-0.397154
-0.366282
-0.337268
-0.310286
-0.285341
-0.262342
-0.241157
-0.221629
-0.203651
-0.187085
-0.171296
-0.608108
-0.596685
-0.585377
-0.56895
-0.546755
-0.519509
-0.488558
-0.455586
-0.422171
-0.389526
-0.358436
-0.329312
-0.3023
-0.277379
-0.254444
-0.233352
-0.213937
-0.196091
-0.179665
-0.163964
-0.604219
-0.59296
-0.581458
-0.564512
-0.541566
-0.513484
-0.481751
-0.448141
-0.414265
-0.381325
-0.350076
-0.320893
-0.293894
-0.269036
-0.246201
-0.225234
-0.20596
-0.188281
-0.17202
-0.15631
-0.599374
-0.588301
-0.576611
-0.559156
-0.535487
-0.506616
-0.474163
-0.439986
-0.405719
-0.37255
-0.3412
-0.312011
-0.285069
-0.260314
-0.237612
-0.216802
-0.197701
-0.180229
-0.164189
-0.148459
-0.593553
-0.582686
-0.570816
-0.552867
-0.528507
-0.498897
-0.465791
-0.43112
-0.396534
-0.363203
-0.331811
-0.302666
-0.275827
-0.251214
-0.22868
-0.208059
-0.18916
-0.171912
-0.15602
-0.140581
-0.586739
-0.576099
-0.564057
-0.545633
-0.520617
-0.490325
-0.456636
-0.421545
-0.386714
-0.353287
-0.321912
-0.292861
-0.266169
-0.241736
-0.219403
-0.199009
-0.180341
-0.163336
-0.147634
-0.1325
-0.578918
-0.568523
-0.556321
-0.537443
-0.511814
-0.4809
-0.4467
-0.411266
-0.376263
-0.342806
-0.311506
-0.282601
-0.2561
-0.231885
-0.209779
-0.189663
-0.171244
-0.154506
-0.139037
-0.124199
-0.57008
-0.55995
-0.5476
-0.528293
-0.502096
-0.470624
-0.435988
-0.400289
-0.365187
-0.331766
-0.300599
-0.27189
-0.245624
-0.221668
-0.199847
-0.179991
-0.161872
-0.145429
-0.130223
-0.11568
-0.56022
-0.550372
-0.537887
-0.518182
-0.491465
-0.459502
-0.424507
-0.388621
-0.353494
-0.320175
-0.289198
-0.260734
-0.234747
-0.21109
-0.189581
-0.170028
-0.152229
-0.136109
-0.121193
-0.106953
-0.549336
-0.539787
-0.527183
-0.50711
-0.479928
-0.447543
-0.412268
-0.376274
-0.341195
-0.308042
-0.27731
-0.249142
-0.223476
-0.200156
-0.17899
-0.159777
-0.142324
-0.126551
-0.111947
-0.537428
-0.528194
-0.51549
-0.495084
-0.467492
-0.434758
-0.399282
-0.363258
-0.328299
-0.295377
-0.264946
-0.237122
-0.21182
-0.188873
-0.168083
-0.149243
-0.132162
-0.116763
-0.524502
-0.5156
-0.502813
-0.482112
-0.454169
-0.421161
-0.385564
-0.349588
-0.31482
-0.282191
-0.252117
-0.224682
-0.199787
-0.177251
-0.15687
-0.138433
-0.510567
-0.502011
-0.489163
-0.468207
-0.439975
-0.406767
-0.371129
-0.33528
-0.300773
-0.268498
-0.238833
-0.211835
-0.187387
-0.165299
-0.14536
-0.495636
-0.487441
-0.474553
-0.453385
-0.424927
-0.391595
-0.355998
-0.320351
-0.286173
-0.254313
-0.225109
-0.198594
-0.174633
-0.153027
-0.479725
-0.471904
-0.458999
-0.437664
-0.409044
-0.375667
-0.34019
-0.30482
-0.271038
-0.23965
-0.210959
-0.18497
-0.161536
-0.462853
-0.45542
-0.442523
-0.421067
-0.392351
-0.359005
-0.323728
-0.288706
-0.255387
-0.224529
-0.196399
-0.17098
-0.445044
-0.43801
-0.425147
-0.403618
-0.374874
-0.34164
-0.306629
-0.272033
-0.23924
-0.208966
-0.181445
-0.426324
-0.419701
-0.406897
-0.385344
-0.356644
-0.323602
-0.288916
-0.254823
-0.222619
-0.192981
-0.406722
-0.40052
-0.387803
-0.366278
-0.337688
-0.304886
-0.270645
-0.237105
-0.205545
-0.386269
-0.3805
-0.367898
-0.346455
-0.31803
-0.285557
-0.251822
-0.218902
-0.364998
-0.359676
-0.347217
-0.325913
-0.297699
-0.265645
-0.232478
-0.342947
-0.338085
-0.325801
-0.304653
-0.276763
-0.24518
-0.320154
-0.315768
-0.303694
-0.282733
-0.25524
-0.296656
-0.292765
-0.280891
-0.26024
-0.233171
-0.272485
-0.269135
-0.257484
-0.237178
-0.247682
-0.244936
-0.23352
-0.222379
-0.220153
-0.209038
-0.196609
-0.194838
-0.170375
-0.143732
-0.129578
-0.1568
-0.183679
-0.182355
-0.210155
-0.208365
-0.197872
-0.236179
-0.233939
-0.223095
-0.261761
-0.258986
-0.247857
-0.228476
-0.286836
-0.28348
-0.272116
-0.252364
-0.226535
-0.311296
-0.307418
-0.295833
-0.275744
-0.249441
-0.219846
-0.335105
-0.330744
-0.318964
-0.298568
-0.271857
-0.241672
-0.358231
-0.353404
-0.341412
-0.320844
-0.293746
-0.263031
-0.231347
-0.380638
-0.375361
-0.363195
-0.342468
-0.315068
-0.283889
-0.251587
-0.220123
-0.402288
-0.396577
-0.384269
-0.36341
-0.335795
-0.304209
-0.271357
-0.239219
-0.209019
-0.423148
-0.417016
-0.404593
-0.383652
-0.355868
-0.323972
-0.290625
-0.257875
-0.226981
-0.198565
-0.443186
-0.436645
-0.424134
-0.403164
-0.375271
-0.343134
-0.309361
-0.276063
-0.244531
-0.21543
-0.188972
-0.462374
-0.455434
-0.442862
-0.421911
-0.393976
-0.361654
-0.327549
-0.29376
-0.261645
-0.231909
-0.204795
-0.180276
-0.480684
-0.473357
-0.460749
-0.439865
-0.411953
-0.379521
-0.345148
-0.310941
-0.278302
-0.247982
-0.220257
-0.19512
-0.172425
-0.498091
-0.490391
-0.477771
-0.457
-0.429176
-0.39671
-0.362138
-0.327584
-0.294482
-0.263631
-0.23534
-0.209626
-0.186357
-0.165338
-0.514576
-0.506516
-0.493908
-0.473293
-0.445621
-0.413193
-0.378499
-0.343666
-0.310167
-0.278839
-0.250028
-0.223779
-0.199972
-0.178421
-0.158921
-0.53012
-0.521714
-0.509141
-0.488725
-0.461265
-0.428951
-0.394211
-0.359171
-0.325338
-0.293589
-0.264308
-0.237564
-0.213257
-0.191208
-0.171217
-0.153076
-0.54471
-0.535972
-0.523455
-0.503278
-0.476091
-0.443963
-0.409253
-0.37408
-0.339979
-0.307867
-0.278165
-0.250971
-0.226201
-0.203687
-0.183235
-0.164641
-0.147728
-0.132418
-0.558333
-0.549281
-0.53684
-0.51694
-0.490083
-0.458212
-0.42361
-0.388378
-0.354076
-0.321659
-0.291587
-0.263986
-0.238792
-0.215848
-0.194966
-0.175946
-0.15861
-0.14288
-0.128235
-0.570984
-0.561632
-0.549286
-0.529699
-0.503229
-0.471685
-0.437267
-0.402051
-0.367615
-0.334953
-0.304563
-0.276601
-0.251023
-0.227683
-0.206402
-0.186983
-0.16925
-0.153121
-0.138118
-0.123766
-0.582657
-0.573024
-0.560789
-0.541549
-0.515517
-0.484369
-0.45021
-0.415084
-0.380585
-0.347739
-0.317084
-0.288806
-0.262883
-0.239183
-0.217534
-0.197745
-0.17964
-0.163137
-0.147792
-0.133093
-0.593354
-0.583457
-0.571348
-0.552484
-0.526941
-0.496255
-0.46243
-0.427469
-0.392975
-0.360007
-0.32914
-0.300594
-0.274366
-0.250342
-0.228357
-0.208227
-0.189775
-0.17292
-0.157256
-0.142221
-0.603077
-0.592934
-0.580966
-0.562506
-0.537498
-0.507337
-0.473917
-0.439197
-0.404778
-0.37175
-0.340726
-0.311957
-0.285466
-0.261153
-0.238864
-0.218421
-0.199649
-0.182467
-0.166505
-0.151144
-0.611834
-0.601464
-0.589649
-0.571616
-0.547186
-0.517609
-0.484667
-0.45026
-0.415986
-0.382961
-0.351835
-0.32289
-0.296178
-0.271613
-0.249052
-0.228325
-0.209259
-0.191773
-0.17554
-0.159855
-0.619634
-0.609057
-0.597406
-0.579822
-0.556007
-0.527072
-0.494675
-0.460653
-0.426594
-0.393636
-0.362462
-0.33339
-0.306497
-0.281717
-0.258917
-0.237935
-0.218602
-0.200833
-0.184363
-0.16836
-0.626492
-0.615729
-0.604251
-0.587132
-0.563968
-0.535725
-0.503939
-0.470374
-0.436599
-0.40377
-0.372604
-0.343453
-0.316421
-0.291462
-0.268455
-0.247248
-0.227676
-0.209652
-0.192952
-0.176694
-0.632426
-0.621497
-0.6102
-0.593561
-0.571077
-0.543575
-0.512461
-0.479421
-0.445999
-0.413362
-0.38226
-0.353078
-0.325949
-0.300847
-0.277665
-0.256262
-0.236477
-0.21822
-0.201307
-0.184996
-0.637455
-0.626383
-0.615273
-0.599125
-0.577346
-0.550628
-0.520245
-0.487796
-0.454793
-0.422411
-0.391428
-0.362264
-0.335079
-0.309871
-0.286547
-0.264975
-0.245004
-0.226539
-0.209425
-0.193022
-0.641605
-0.63041
-0.619494
-0.603844
-0.58279
-0.556894
-0.527296
-0.495502
-0.462983
-0.430919
-0.40011
-0.371012
-0.343813
-0.318534
-0.2951
-0.273388
-0.253255
-0.234606
-0.217296
-0.200737
-0.6449
-0.633607
-0.622888
-0.60774
-0.587427
-0.562386
-0.533622
-0.502543
-0.470573
-0.438886
-0.408308
-0.379323
-0.352152
-0.326839
-0.303325
-0.2815
-0.26123
-0.242418
-0.224929
-0.208199
-0.647372
-0.636004
-0.625485
-0.610841
-0.59128
-0.56712
-0.539235
-0.508928
-0.477567
-0.446317
-0.416023
-0.3872
-0.360098
-0.334787
-0.311224
-0.289314
-0.268931
-0.249977
-0.232332
-0.21545
-0.649053
-0.637633
-0.627317
-0.613174
-0.594371
-0.571115
-0.544147
-0.514663
-0.483971
-0.453218
-0.423262
-0.394647
-0.367656
-0.342381
-0.318801
-0.296833
-0.276359
-0.257285
-0.239507
-0.222499
-0.649976
-0.638529
-0.628417
-0.614773
-0.596728
-0.574392
-0.548374
-0.519762
-0.489793
-0.459593
-0.430028
-0.40167
-0.374829
-0.349626
-0.326059
-0.304059
-0.283519
-0.264348
-0.246455
-0.229343
-0.65018
-0.638729
-0.628823
-0.61567
-0.598381
-0.576974
-0.551935
-0.524237
-0.495044
-0.465451
-0.436329
-0.408274
-0.381624
-0.356528
-0.333004
-0.310998
-0.290415
-0.271167
-0.253178
-0.235981
-0.649702
-0.638274
-0.628574
-0.615902
-0.599362
-0.578888
-0.554849
-0.528103
-0.499734
-0.4708
-0.442172
-0.414465
-0.388047
-0.363091
-0.33964
-0.317654
-0.297052
-0.277747
-0.25968
-0.242415
-0.648583
-0.637202
-0.627709
-0.615508
-0.599706
-0.580164
-0.557139
-0.531377
-0.503876
-0.475651
-0.447566
-0.420252
-0.394104
-0.369323
-0.345973
-0.324034
-0.303434
-0.284093
-0.265965
-0.24865
-0.646866
-0.635556
-0.626269
-0.614528
-0.599448
-0.580831
-0.55883
-0.534078
-0.507485
-0.480015
-0.45252
-0.425643
-0.399804
-0.375232
-0.352012
-0.330143
-0.309566
-0.29021
-0.272037
-0.254688
-0.644592
-0.633378
-0.624298
-0.613002
-0.598627
-0.580923
-0.559948
-0.536226
-0.510576
-0.483904
-0.457044
-0.430648
-0.405156
-0.380824
-0.357763
-0.335988
-0.315457
-0.296103
-0.2779
-0.260534
-0.641804
-0.630711
-0.621839
-0.610974
-0.597281
-0.580474
-0.560522
-0.537845
-0.513166
-0.487333
-0.461151
-0.435275
-0.410169
-0.38611
-0.363234
-0.341577
-0.321111
-0.301778
-0.283561
-0.266193
-0.638549
-0.627599
-0.618935
-0.608486
-0.595453
-0.579521
-0.560583
-0.538958
-0.515275
-0.490314
-0.464851
-0.439537
-0.414852
-0.391098
-0.368435
-0.346918
-0.326538
-0.307243
-0.289025
-0.271668
-0.634869
-0.624087
-0.61563
-0.605582
-0.593184
-0.578101
-0.560162
-0.53959
-0.516922
-0.492865
-0.468157
-0.443444
-0.419215
-0.395798
-0.373374
-0.35202
-0.331743
-0.312503
-0.294298
-0.276966
-0.630808
-0.620216
-0.611969
-0.602306
-0.590516
-0.576254
-0.559293
-0.53977
-0.518128
-0.495002
-0.471084
-0.447007
-0.42327
-0.400219
-0.37806
-0.356891
-0.336737
-0.317568
-0.299387
-0.282092
-0.62641
-0.61603
-0.607992
-0.5987
-0.58749
-0.574018
-0.55801
-0.539526
-0.518917
-0.496742
-0.473646
-0.45024
-0.427028
-0.404374
-0.382505
-0.361542
-0.341527
-0.322444
-0.304299
-0.287052
-0.621717
-0.611569
-0.603743
-0.594806
-0.58415
-0.571432
-0.556349
-0.538886
-0.519311
-0.498105
-0.475856
-0.453154
-0.430499
-0.408271
-0.386718
-0.365981
-0.346123
-0.32714
-0.309042
-0.291852
-0.616771
-0.606875
-0.599263
-0.590667
-0.580535
-0.568538
-0.554345
-0.537883
-0.519336
-0.499109
-0.477732
-0.455762
-0.433696
-0.411922
-0.390709
-0.37022
-0.350533
-0.331665
-0.313624
-0.611614
-0.601986
-0.59459
-0.586323
-0.576687
-0.565373
-0.552035
-0.536546
-0.519017
-0.499775
-0.479288
-0.458078
-0.43663
-0.415338
-0.39449
-0.606282
-0.59694
-0.589762
-0.581811
-0.572645
-0.561977
-0.549455
-0.534908
-0.518381
-0.500123
-0.480542
-0.600815
-0.591773
-0.584816
-0.577169
-0.568447
-0.558388
-0.546641
-0.533002
-0.595247
-0.586518
-0.579784
-0.572433
-0.56413
-0.589612
-0.581208
-0.5747
-0.218824
-0.223495
-0.228021
-0.232407
-0.236656
-0.240775
-0.199399
-0.20383
-0.208153
-0.21237
-0.216487
-0.220506
-0.182043
-0.186228
-0.190331
-0.194356
-0.198306
-0.202185
-0.166586
-0.170518
-0.17439
-0.178205
-0.181964
-0.185672
-0.152662
-0.156348
-0.159989
-0.163588
-0.167147
-0.170669
-0.140091
-0.143534
-0.146944
-0.150323
-0.153674
-0.156997
-0.12867
-0.131877
-0.135061
-0.138223
-0.141364
-0.144488
-0.118247
-0.121229
-0.124194
-0.127144
-0.13008
-0.133004
-0.10871
-0.111475
-0.11423
-0.116973
-0.119708
-0.122435
-0.0999368
-0.102499
-0.105053
-0.107601
-0.110142
-0.11268
-0.0918465
-0.0942162
-0.0965809
-0.0989414
-0.101299
-0.103654
-0.084367
-0.0865557
-0.0887412
-0.0909246
-0.0931066
-0.0952882
-0.0774315
-0.0794503
-0.0814675
-0.0834839
-0.0855003
-0.0875174
-0.07098
-0.0728412
-0.0747019
-0.0765626
-0.078424
-0.0802866
-0.0649769
-0.0666903
-0.0684039
-0.0701181
-0.0718335
-0.0735507
-0.0593775
-0.0609535
-0.0625301
-0.0641078
-0.0656869
-0.0672681
-0.0541423
-0.0555911
-0.0570409
-0.0584918
-0.0599445
-0.0613992
-0.0492467
-0.0505776
-0.0519095
-0.0532428
-0.0545777
-0.0559147
-0.0446608
-0.0458827
-0.0471057
-0.04833
-0.0495559
-0.0507838
-0.0520139
-0.0403624
-0.0414838
-0.0426062
-0.0437298
-0.0448549
-0.0459817
-0.0471106
-0.0363286
-0.037358
-0.038388
-0.039419
-0.0404512
-0.0414849
-0.0425204
-0.032557
-0.0334983
-0.0344407
-0.0353844
-0.0363295
-0.0372761
-0.0382245
-0.0290027
-0.0298663
-0.0307305
-0.0315957
-0.032462
-0.0333296
-0.0341985
-0.0256675
-0.0264588
-0.0272507
-0.0280434
-0.028837
-0.0296316
-0.0304275
-0.0225352
-0.0232602
-0.0239857
-0.0247118
-0.0254386
-0.0261663
-0.0268949
-0.0195948
-0.0202588
-0.0209233
-0.0215882
-0.0222536
-0.0229198
-0.0235867
-0.0168349
-0.0174429
-0.0180512
-0.01866
-0.0192691
-0.0198788
-0.0204891
-0.0142437
-0.0148007
-0.0153578
-0.0159152
-0.0164729
-0.0170309
-0.0175894
-0.0118143
-0.0123243
-0.0128343
-0.0133445
-0.0138549
-0.0143656
-0.0148765
-0.00953643
-0.0100034
-0.0104704
-0.0109375
-0.0114046
-0.0118718
-0.0123392
-0.0074019
-0.00782956
-0.00825715
-0.00868469
-0.00911223
-0.00953978
-0.00996739
-0.00540329
-0.00579496
-0.0061865
-0.00657791
-0.00696923
-0.00736047
-0.00775168
-0.00353329
-0.00389205
-0.00425061
-0.00460898
-0.00496718
-0.00532524
-0.00568317
-0.00178518
-0.00211384
-0.00244224
-0.0027704
-0.00309834
-0.00342606
-0.00375358
-0.000152577
-0.000453714
-0.000754553
-0.0010551
-0.00135537
-0.00165537
-0.00195512
0.00137057
0.00109459
0.000818942
0.000543626
0.000268631
-6.04747e-06
-0.000280419
0.00278996
0.00253697
0.00228435
0.00203209
0.00178018
0.00152863
0.00127743
0.00411102
0.00387904
0.00364745
0.00341625
0.00318543
0.002955
0.00272495
0.00533896
0.00512617
0.00491379
0.00470182
0.00449025
0.0042791
0.00406835
0.00647858
0.00628333
0.0060885
0.00589409
0.0057001
0.00550654
0.00531341
0.0075346
0.00735536
0.00717654
0.00699816
0.00682022
0.00664271
0.00646565
0.00851143
0.0083468
0.00818261
0.00801885
0.00785554
0.00769268
0.00753026
0.00941327
0.00926197
0.00911111
0.00896069
0.00881072
0.0086612
0.00851214
0.0102441
0.010105
0.00996625
0.00982798
0.00969017
0.0095528
0.00941589
0.0110077
0.0108796
0.010752
0.0106248
0.010498
0.0103717
0.0102459
0.0117076
0.0115896
0.011472
0.0113549
0.0112382
0.0111219
0.0110061
0.0123473
0.0122384
0.01213
0.0120219
0.0119144
0.0118072
0.0117005
0.0129297
0.0128291
0.012729
0.0126292
0.0125299
0.012431
0.0123326
0.013458
0.0133649
0.0132722
0.0131799
0.013088
0.0129966
0.0129056
0.0139347
0.0138483
0.0137624
0.0136768
0.0135917
0.0135069
0.0134226
0.0143624
0.0142821
0.0142021
0.0141226
0.0140435
0.0139647
0.0138864
0.0147432
0.0146683
0.0145937
0.0145196
0.0144458
0.0143724
0.0142994
0.0150792
0.0150091
0.0149392
0.0148698
0.0148007
0.0147321
0.0146638
0.0153719
0.0153059
0.0152402
0.0151749
0.01511
0.0150454
0.0149813
0.0156228
0.0155603
0.0154982
0.0154365
0.0153751
0.0153141
0.0152534
0.0158324
0.015773
0.0157139
0.0156552
0.0155968
0.0155388
0.0154811
0.0160018
0.0159448
0.0158882
0.0158319
0.015776
0.0157203
0.0156651
0.0161302
0.0160751
0.0160204
0.015966
0.015912
0.0158583
0.0158049
0.0162179
0.0161641
0.0161108
0.0160577
0.0160049
0.0159525
0.0159004
0.0162623
0.0162094
0.0161569
0.0161046
0.0160527
0.0160011
0.0159498
-0.098247
-0.106161
-0.113904
-0.121476
-0.128877
-0.136103
-0.143129
-0.150006
-0.156783
-0.163325
-0.169641
-0.17577
-0.18173
-0.187523
-0.193146
-0.198603
-0.203896
-0.209028
-0.214003
-0.0910949
-0.0980339
-0.104836
-0.111499
-0.118023
-0.124401
-0.130623
-0.136652
-0.142562
-0.148408
-0.154111
-0.159657
-0.165065
-0.170344
-0.175495
-0.180519
-0.185419
-0.190197
-0.194856
-0.0838155
-0.0899705
-0.0960103
-0.101934
-0.107741
-0.113429
-0.118997
-0.124441
-0.129741
-0.135036
-0.140233
-0.145292
-0.150228
-0.15506
-0.159793
-0.16443
-0.168971
-0.173418
-0.177774
-0.0775392
-0.0830064
-0.0883799
-0.0936602
-0.098848
-0.103944
-0.10895
-0.113864
-0.118681
-0.123353
-0.128048
-0.132663
-0.137171
-0.14159
-0.145932
-0.150203
-0.154402
-0.158531
-0.162591
-0.0716068
-0.0764896
-0.0812965
-0.0860284
-0.0906861
-0.0952707
-0.0997833
-0.104225
-0.108595
-0.11289
-0.117094
-0.121283
-0.125417
-0.129481
-0.13348
-0.137423
-0.141311
-0.145145
-0.148928
-0.0662385
-0.070613
-0.0749252
-0.0791759
-0.0833658
-0.0874955
-0.0915651
-0.0955742
-0.0995212
-0.103405
-0.107219
-0.111106
-0.114914
-0.118643
-0.122319
-0.125953
-0.129546
-0.133099
-0.136614
-0.0612599
-0.0651933
-0.0690772
-0.0729126
-0.076701
-0.080444
-0.0841436
-0.0878024
-0.0914233
-0.0950086
-0.0985573
-0.101973
-0.105411
-0.108837
-0.112223
-0.115573
-0.11889
-0.122177
-0.125437
-0.0566666
-0.0602123
-0.0637176
-0.0671834
-0.0706103
-0.0739991
-0.0773501
-0.0806634
-0.083938
-0.0871718
-0.0903632
-0.0935101
-0.0967426
-0.0999144
-0.103032
-0.106118
-0.109182
-0.112225
-0.115246
-0.0523975
-0.0556024
-0.0587752
-0.0619169
-0.0650287
-0.0681118
-0.0711678
-0.0741985
-0.0772059
-0.0801932
-0.0831621
-0.0861127
-0.0889443
-0.0918026
-0.0946653
-0.0975093
-0.100333
-0.103139
-0.105931
-0.0484162
-0.051318
-0.0541939
-0.0570445
-0.0598708
-0.0626737
-0.0654538
-0.068212
-0.0709487
-0.0736642
-0.0763583
-0.0790307
-0.0816795
-0.0843316
-0.0869696
-0.0895891
-0.092193
-0.0947847
-0.0973656
-0.0446876
-0.0473194
-0.0499303
-0.0525209
-0.055092
-0.0576444
-0.0601788
-0.0626959
-0.0651965
-0.0676813
-0.070151
-0.0726061
-0.075046
-0.0774694
-0.0798871
-0.0822971
-0.0846973
-0.0870881
-0.0894708
-0.0411839
-0.0435742
-0.0459477
-0.048305
-0.0506466
-0.0529734
-0.0552859
-0.0575848
-0.0598708
-0.0621446
-0.0644069
-0.0666581
-0.0688987
-0.0711246
-0.0733482
-0.0755656
-0.0777751
-0.0799776
-0.0821746
-0.0378801
-0.0400538
-0.0422139
-0.0443609
-0.0464955
-0.0486182
-0.0507295
-0.05283
-0.0549202
-0.0570008
-0.0590722
-0.0611349
-0.0631896
-0.0652367
-0.0672878
-0.0693292
-0.0713611
-0.0733874
-0.0754106
-0.0347561
-0.036735
-0.038703
-0.0406606
-0.0426083
-0.0445466
-0.0464761
-0.0483971
-0.0503103
-0.0522162
-0.0541153
-0.0560081
-0.057895
-0.0597755
-0.061644
-0.0635139
-0.0653843
-0.0672524
-0.0691174
-0.0317936
-0.0335966
-0.0353909
-0.0371768
-0.0389549
-0.0407254
-0.0424889
-0.0442458
-0.0459964
-0.0477412
-0.0494807
-0.0512152
-0.0529452
-0.0546711
-0.0563916
-0.058112
-0.0598312
-0.0615481
-0.0632631
-0.0289777
-0.0306217
-0.0322588
-0.0338892
-0.0355133
-0.0371315
-0.0387441
-0.0403515
-0.041954
-0.0435521
-0.0451462
-0.0467365
-0.0483234
-0.0499074
-0.0514884
-0.0530695
-0.0546485
-0.0562256
-0.0578017
-0.0262961
-0.0277962
-0.0292906
-0.0307798
-0.0322639
-0.0337433
-0.0352184
-0.0366893
-0.0381565
-0.0396201
-0.0410806
-0.0425383
-0.0439933
-0.0454461
-0.0468968
-0.0483473
-0.0497968
-0.0512455
-0.0526938
-0.0237384
-0.0251078
-0.0264727
-0.0278334
-0.0291901
-0.0305432
-0.0318927
-0.0332391
-0.0345825
-0.0359233
-0.0372618
-0.0385982
-0.0399329
-0.0412661
-0.042598
-0.0439266
-0.0452561
-0.0465862
-0.0479164
-0.0212959
-0.0225466
-0.0237937
-0.0250374
-0.026278
-0.0275156
-0.0287505
-0.0299828
-0.0312128
-0.0324408
-0.0336669
-0.0348914
-0.0361145
-0.0373366
-0.0385576
-0.0397777
-0.0409981
-0.0422188
-0.0434396
-0.0189616
-0.0201043
-0.0212441
-0.0223813
-0.0235159
-0.0246481
-0.0257781
-0.0269061
-0.0280323
-0.0291568
-0.0302798
-0.0314016
-0.0325224
-0.0336425
-0.0347621
-0.0358815
-0.0370017
-0.0381217
-0.0392418
-0.0167297
-0.0177742
-0.0188164
-0.0198565
-0.0208944
-0.0219304
-0.0229647
-0.0239972
-0.025028
-0.0260574
-0.0270852
-0.0281116
-0.0291364
-0.0301596
-0.031181
-0.0322004
-0.0332385
-0.0342708
-0.0352998
-0.0145958
-0.0155511
-0.0165046
-0.0174564
-0.0184067
-0.0193556
-0.0203033
-0.0212499
-0.0221955
-0.0231405
-0.0240849
-0.0250292
-0.0259737
-0.0269188
-0.0278649
-0.0288125
-0.0297418
-0.0306773
-0.0316166
-0.0125544
-0.0134282
-0.0143006
-0.0151716
-0.0160414
-0.0169101
-0.0177777
-0.0186443
-0.0195101
-0.0203751
-0.0212395
-0.0221033
-0.0229667
-0.0238295
-0.024692
-0.0255541
-0.0264155
-0.0272773
-0.0281398
-0.0106021
-0.0114016
-0.0121999
-0.0129971
-0.0137933
-0.0145886
-0.0153829
-0.0161765
-0.0169694
-0.0177616
-0.0185532
-0.0193444
-0.0201352
-0.0209257
-0.0217159
-0.022506
-0.023296
-0.0240862
-0.0248766
-0.00873629
-0.00946794
-0.0101986
-0.0109285
-0.0116574
-0.0123856
-0.0131131
-0.0138399
-0.0145661
-0.0152918
-0.0160169
-0.0167417
-0.0174662
-0.0181904
-0.0189145
-0.0196384
-0.0203623
-0.0210864
-0.0218107
-0.00695444
-0.00762424
-0.00829327
-0.00896157
-0.00962917
-0.0102961
-0.0109625
-0.0116283
-0.0122935
-0.0129584
-0.0136228
-0.0142869
-0.0149507
-0.0156142
-0.0162776
-0.016941
-0.0176042
-0.0182676
-0.0189312
-0.00525432
-0.00586769
-0.00648042
-0.00709254
-0.00770408
-0.00831507
-0.00892554
-0.00953553
-0.0101451
-0.0107542
-0.011363
-0.0119715
-0.0125797
-0.0131877
-0.0137955
-0.0144033
-0.015011
-0.0156191
-0.016227
-0.00363402
-0.00419591
-0.00475727
-0.00531811
-0.00587845
-0.00643832
-0.00699774
-0.00755673
-0.00811533
-0.00867356
-0.00923146
-0.00978906
-0.0103464
-0.0109035
-0.0114604
-0.0120172
-0.0125739
-0.0131302
-0.0136868
-0.00209148
-0.00260638
-0.00312082
-0.00363481
-0.00414837
-0.0046615
-0.00517423
-0.00568658
-0.00619856
-0.0067102
-0.00722153
-0.00773256
-0.00824333
-0.00875388
-0.00926423
-0.00977441
-0.0102845
-0.0107944
-0.0113043
-0.00062497
-0.00109698
-0.00156858
-0.00203979
-0.00251062
-0.00298106
-0.00345113
-0.00392085
-0.00439022
-0.00485927
-0.00532801
-0.00579645
-0.00626463
-0.00673256
-0.00720027
-0.00766778
-0.00813513
-0.00860231
-0.0090694
0.000767369
0.00033453
-9.795e-05
-0.000530072
-0.000961838
-0.00139325
-0.00182432
-0.00225504
-0.00268544
-0.00311551
-0.00354527
-0.00397473
-0.00440392
-0.00483284
-0.00526151
-0.00568995
-0.00611819
-0.00654623
-0.00697413
0.0020873
0.00169023
0.0012935
0.000897089
0.000501015
0.000105276
-0.000290131
-0.000685207
-0.00107996
-0.00147439
-0.0018685
-0.00226231
-0.00265583
-0.00304906
-0.00344202
-0.00383472
-0.00422718
-0.00461942
-0.00501144
0.00333662
0.00297223
0.00260815
0.00224438
0.00188093
0.00151781
0.001155
0.000792528
0.000430376
6.85469e-05
-0.000292963
-0.000654157
-0.00101504
-0.00137562
-0.00173591
-0.00209591
-0.00245564
-0.0028151
-0.00317431
0.00451713
0.0041826
0.00384836
0.00351443
0.00318081
0.0028475
0.00251451
0.00218185
0.00184951
0.0015175
0.00118581
0.000854454
0.000523418
0.000192703
-0.000137696
-0.000467784
-0.000797569
-0.00112706
-0.00145626
0.00563067
0.00532343
0.00501648
0.00470982
0.00440347
0.00409743
0.0037917
0.0034863
0.00318123
0.00287649
0.00257209
0.00226802
0.00196429
0.00166089
0.00135783
0.0010551
0.000752699
0.000450624
0.000148867
0.00667912
0.00639683
0.00611483
0.00583311
0.00555169
0.00527059
0.0049898
0.00470934
0.00442921
0.00414941
0.00386996
0.00359085
0.00331209
0.00303369
0.00275563
0.00247792
0.00220056
0.00192355
0.00164689
0.0076644
0.00740492
0.00714573
0.00688682
0.00662821
0.00636991
0.00611193
0.00585428
0.00559696
0.00533999
0.00508336
0.00482708
0.00457117
0.00431561
0.00406042
0.00380559
0.00355113
0.00329704
0.00304331
0.00858846
0.00834985
0.00811152
0.00787347
0.00763573
0.00739829
0.00716118
0.00692439
0.00668794
0.00645184
0.00621609
0.0059807
0.00574567
0.00551101
0.00527673
0.00504283
0.0048093
0.00457616
0.00434339
0.00945329
0.00923376
0.00901452
0.00879556
0.0085769
0.00835855
0.00814052
0.00792282
0.00770546
0.00748845
0.0072718
0.0070555
0.00683958
0.00662403
0.00640887
0.00619409
0.00597971
0.00576572
0.00555214
0.0102609
0.0100589
0.00985707
0.00965557
0.00945437
0.00925348
0.00905291
0.00885267
0.00865278
0.00845323
0.00825403
0.00805521
0.00785675
0.00765868
0.007461
0.0072637
0.00706681
0.00687032
0.00667425
0.0110134
0.0108273
0.0106415
0.010456
0.0102707
0.0100858
0.00990121
0.00971694
0.00953301
0.00934943
0.00916621
0.00898336
0.00880087
0.00861878
0.00843707
0.00825576
0.00807485
0.00789435
0.00771426
0.0117127
0.0115413
0.0113701
0.0111992
0.0110285
0.0108582
0.0106882
0.0105186
0.0103492
0.0101803
0.0100116
0.00984338
0.0096755
0.009508
0.00934089
0.00917417
0.00900786
0.00884197
0.00867649
0.012361
0.0122029
0.0120451
0.0118876
0.0117303
0.0115733
0.0114167
0.0112604
0.0111044
0.0109488
0.0107935
0.0106386
0.010484
0.0103299
0.0101761
0.0100227
0.00986971
0.00971714
0.00956499
0.0129604
0.0128145
0.0126689
0.0125235
0.0123785
0.0122337
0.0120893
0.0119452
0.0118014
0.0116579
0.0115148
0.0113721
0.0112297
0.0110877
0.0109461
0.0108049
0.0106641
0.0105237
0.0103837
0.0135128
0.0133781
0.0132436
0.0131094
0.0129755
0.0128419
0.0127086
0.0125756
0.0124429
0.0123106
0.0121786
0.012047
0.0119157
0.0117848
0.0116543
0.0115242
0.0113944
0.0112651
0.0111362
0.0140203
0.0138957
0.0137714
0.0136474
0.0135237
0.0134002
0.0132771
0.0131542
0.0130317
0.0129095
0.0127877
0.0126662
0.012545
0.0124242
0.0123038
0.0121838
0.0120641
0.0119449
0.0118261
0.0144848
0.0143695
0.0142545
0.0141398
0.0140253
0.0139111
0.0137972
0.0136836
0.0135703
0.0134573
0.0133447
0.0132324
0.0131204
0.0130089
0.0128976
0.0127868
0.0126763
0.0125662
0.0124565
0.0149083
0.0148015
0.0146949
0.0145885
0.0144825
0.0143767
0.0142712
0.014166
0.0140611
0.0139565
0.0138522
0.0137483
0.0136447
0.0135414
0.0134385
0.013336
0.0132339
0.0131321
0.0130307
0.015392
0.0152926
0.0151934
0.0150945
0.0149958
0.0148973
0.0147992
0.0147013
0.0146037
0.0145064
0.0144094
0.0143127
0.0142163
0.0141203
0.0140246
0.0139292
0.0138342
0.0137396
0.0136453
0.0135515
0.015732
0.0156395
0.0155472
0.0154552
0.0153634
0.0152718
0.0151805
0.0150895
0.0149988
0.0149083
0.0148181
0.0147283
0.0146387
0.0145495
0.0144606
0.0143721
0.0142839
0.014196
0.0141085
0.0140214
0.0160369
0.0159506
0.0158645
0.0157787
0.0156931
0.0156077
0.0155226
0.0154378
0.0153532
0.0152689
0.0151849
0.0151011
0.0150177
0.0149346