/*--------------------------------*- C++ -*----------------------------------*\
  =========                 |
  \\      /  F ield         | OpenFOAM: The Open Source CFD Toolbox
   \\    /   O peration     | Website:  https://openfoam.org
    \\  /    A nd           | Version:  7
     \\/     M anipulation  |
\*---------------------------------------------------------------------------*/
FoamFile
{
    version     2.0;
    format      ascii;
    class       volVectorField;
    location    "160";
    object      U;
}
// * * * * * * * * * * * * * * * * * * * * * * * * * * * * * * * * * * * * * //

dimensions      [0 1 -1 0 0 0 0];

internalField   nonuniform List<vector> 
4575
(
(0.0243331 -0.0040729 3.09725e-20)
(0.0965955 -0.00977362 3.24081e-20)
(0.19266 -0.00697135 1.19937e-19)
(0.0280243 -0.00425285 3.64757e-20)
(0.107534 -0.00952918 1.32535e-19)
(0.210637 -0.0054097 1.04029e-19)
(0.333485 0.00576286 2.88413e-20)
(0.471202 0.0235519 2.701e-19)
(0.0319072 -0.00432292 -1.64234e-19)
(0.118908 -0.00895079 -5.8879e-20)
(0.229145 -0.00330654 -1.93723e-19)
(0.358406 0.00992135 -1.06337e-19)
(0.501305 0.0300274 -5.42384e-20)
(0.650911 0.0556275 -1.7098e-19)
(0.799316 0.0846614 -1.06473e-19)
(0.938608 0.114729 1.90313e-19)
(0.0359753 -0.00427208 5.43995e-20)
(0.130691 -0.00801342 -9.01209e-20)
(0.248126 -0.000632719 1.51988e-19)
(0.383697 0.0148155 7.04901e-20)
(0.5315 0.0373334 -1.00975e-19)
(0.684104 0.0652199 1.23815e-19)
(0.833271 0.0961182 3.06399e-20)
(0.971059 0.127417 -5.50631e-20)
(1.09101 0.156624 6.64224e-20)
(1.18909 0.181752 -5.13606e-20)
(1.26398 0.201574 -1.44128e-19)
(1.31687 0.215678 -1.43342e-20)
(0.0402205 -0.00408944 -2.6957e-20)
(0.14285 -0.0066933 1.47419e-20)
(0.267519 0.00263813 -1.38961e-19)
(0.409263 0.020465 8.87341e-20)
(0.561663 0.0454752 8.24155e-20)
(0.716824 0.0756384 -1.16909e-19)
(0.866247 0.108307 5.38143e-20)
(1.00206 0.140684 -1.0427e-19)
(1.11821 0.170227 -1.47656e-19)
(1.21131 0.195037 5.31494e-20)
(1.28078 0.214065 9.78549e-21)
(1.32847 0.227107 8.17214e-20)
(1.3578 0.234637 1.27252e-19)
(1.37291 0.237537 -6.13526e-21)
(1.37785 0.236851 2.16133e-20)
(0.0446332 -0.00376451 -3.03559e-20)
(0.155352 -0.00496816 -3.79316e-20)
(0.287258 0.00652923 1.46988e-19)
(0.435005 0.0268848 -1.81221e-20)
(0.591672 0.0544521 6.9791e-22)
(0.748937 0.0868638 -7.96023e-20)
(0.898124 0.121193 -1.39392e-20)
(1.03152 0.154483 5.59379e-20)
(1.14357 0.184183 1.90781e-19)
(1.23157 0.208514 -6.08959e-20)
(1.29568 0.226625 1.04493e-20)
(1.33836 0.238533 3.27567e-20)
(1.36343 0.244893 -6.36591e-20)
(1.37519 0.24672 -4.08629e-20)
(1.3777 0.24512 1.08954e-20)
(1.3743 0.241107 5.42479e-20)
(1.36752 0.235499 -1.34131e-20)
(1.35904 0.228911 -8.46971e-22)
(1.34982 0.221739 4.83852e-20)
(0.0492025 -0.00328729 5.28976e-20)
(0.168156 -0.00281777 1.06127e-19)
(0.307273 0.0110603 7.28947e-20)
(0.460824 0.0340848 -3.96528e-20)
(0.621402 0.0642578 1.46586e-19)
(0.780317 0.098872 8.64091e-20)
(0.928794 0.134736 -1.29055e-19)
(1.05938 0.168769 -4.4893e-20)
(1.16707 0.198449 8.18622e-22)
(1.24991 0.222147 -3.70544e-20)
(1.30877 0.239233 -1.0655e-19)
(1.34666 0.249943 1.76389e-20)
(1.36775 0.255112 2.07059e-22)
(1.37645 0.255868 -1.10051e-19)
(1.37678 0.253371 5.022e-20)
(1.37194 0.248639 -2.69067e-20)
(1.36426 0.242466 -1.1844e-19)
(1.35525 0.235437 5.71738e-20)
(1.34572 0.22789 -1.20751e-19)
(1.33604 0.219877 5.26494e-20)
(0.0539159 -0.00264839 -1.85553e-20)
(0.181221 -0.000224 -4.55629e-20)
(0.32749 0.0162471 -7.57893e-20)
(0.486617 0.0420698 -3.64071e-21)
(0.650734 0.0748807 -6.76019e-21)
(0.810843 0.111634 -8.18365e-20)
(0.95816 0.148897 1.86177e-20)
(1.08557 0.183497 1.7483e-20)
(1.18871 0.212981 -3.62153e-20)
(1.26637 0.235904 2.96755e-21)
(1.3201 0.251866 5.61886e-20)
(1.35345 0.261327 -7.40459e-21)
(1.37084 0.265289 4.24592e-20)
(1.37677 0.264983 1.88101e-20)
(1.37517 0.261606 -1.03601e-19)
(1.36907 0.256172 7.92083e-21)
(1.36063 0.249448 6.28751e-20)
(1.35118 0.241982 -1.49234e-20)
(1.34142 0.234062 2.77207e-21)
(1.3316 0.22582 -1.02513e-20)
(0.0587594 -0.00183908 -1.70306e-20)
(0.194504 0.00282892 -1.62522e-20)
(0.347834 0.0221016 -2.87206e-20)
(0.51228 0.0508396 -1.88666e-20)
(0.679551 0.0863037 -4.88757e-20)
(0.840404 0.125117 5.66018e-20)
(0.986137 0.16363 1.1179e-19)
(1.11007 0.198621 3.88741e-20)
(1.20851 0.227741 1.98201e-20)
(1.281 0.249754 -4.709e-20)
(1.32978 0.264506 -4.57224e-22)
(1.35882 0.272676 3.02405e-20)
(1.3728 0.275424 -3.87169e-20)
(1.37624 0.274066 1.47289e-20)
(1.37292 0.269827 4.92697e-20)
(1.36575 0.263708 -1.70323e-20)
(1.35667 0.256442 -3.00842e-20)
(1.34686 0.248543 -2.77767e-20)
(1.33691 0.24025 9.87845e-20)
(1.32699 0.231774 3.47907e-20)
(0.063718 -0.000851417 -3.05162e-20)
(0.207956 0.0063542 3.60257e-20)
(0.368226 0.0286316 -8.1899e-21)
(0.537713 0.060389 2.5604e-20)
(0.707741 0.0985049 -2.28569e-20)
(0.868897 0.139283 -1.39543e-20)
(1.01265 0.178891 -5.4436e-20)
(1.13283 0.214095 6.41596e-21)
(1.22647 0.242688 1.53288e-20)
(1.29387 0.263669 3.41261e-20)
(1.33787 0.277137 -1.32282e-20)
(1.36288 0.283983 -1.03991e-20)
(1.37372 0.285514 9.46117e-21)
(1.3749 0.283117 -1.66336e-20)
(1.37009 0.278034 3.77549e-20)
(1.36199 0.271243 2.49491e-20)
(1.35238 0.263446 -4.2956e-21)
(1.34229 0.255115 -2.78842e-21)
(1.33219 0.246447 -2.66404e-20)
(1.3222 0.237731 -3.35016e-20)
(0.0687749 0.000321634 6.58085e-21)
(0.221527 0.0103623 -1.12742e-20)
(0.388588 0.0358406 7.65673e-21)
(0.562814 0.0707074 -1.04943e-20)
(0.735195 0.111458 -4.01337e-20)
(0.89623 0.154093 1.85095e-20)
(1.03765 0.194633 8.93477e-21)
(1.15385 0.229873 -4.24718e-20)
(1.24263 0.257785 -2.66311e-20)
(1.30502 0.277622 -2.53371e-21)
(1.34446 0.289742 -3.6788e-20)
(1.36569 0.29524 3.78425e-20)
(1.37367 0.295556 -8.73925e-23)
(1.37284 0.292136 -5.01851e-21)
(1.36672 0.286225 -9.53823e-21)
(1.35783 0.278776 4.6614e-21)
(1.34778 0.270453 3.23274e-21)
(1.33747 0.261691 -1.28069e-21)
(1.32727 0.252647 -9.78462e-21)
(1.31722 0.243684 1.19985e-20)
(0.0739128 0.00168613 2.20562e-21)
(0.235168 0.0148609 7.43793e-21)
(0.408838 0.0437278 4.13017e-21)
(0.587483 0.0817795 -1.91598e-21)
(0.761813 0.12513 2.65146e-20)
(0.922318 0.169504 -5.8907e-21)
(1.06107 0.210807 9.3157e-21)
(1.17311 0.245911 2.05545e-20)
(1.25701 0.272997 -3.69099e-21)
(1.31453 0.29159 9.18374e-22)
(1.34963 0.302306 1.01198e-20)
(1.36735 0.306441 -5.36655e-21)
(1.37271 0.305548 6.94884e-21)
(1.37009 0.30112 1.24621e-21)
(1.36284 0.294398 -1.30374e-20)
(1.35329 0.286302 6.30666e-22)
(1.34289 0.277459 1.68144e-20)
(1.3324 0.268265 -3.50247e-21)
(1.32214 0.258843 5.1728e-21)
(1.31207 0.249626 -5.82641e-21)
(0.0791134 0.00324707 9.09091e-22)
(0.248825 0.0198546 1.10081e-20)
(0.428897 0.052288 5.91573e-21)
(0.611624 0.0935852 -1.19802e-21)
(0.7875 0.139488 2.45785e-20)
(0.947087 0.185469 -6.91812e-21)
(1.08288 0.227366 1.28833e-20)
(1.19063 0.262165 1.7214e-20)
(1.26967 0.288288 -3.53628e-21)
(1.32245 0.305548 7.90755e-22)
(1.35344 0.314817 1.15183e-20)
(1.36791 0.317576 -4.63391e-21)
(1.37091 0.315484 4.54596e-21)
(1.36671 0.310066 -1.10851e-21)
(1.35848 0.302548 -1.06734e-20)
(1.34838 0.293815 -3.05624e-22)
(1.3377 0.284456 1.67317e-20)
(1.3271 0.274828 -3.27074e-21)
(1.31681 0.265026 6.11747e-21)
(1.30673 0.255548 -6.58702e-21)
(0.0843572 0.00500834 7.93178e-21)
(0.262445 0.0253448 -1.41647e-20)
(0.448685 0.0615119 7.19065e-21)
(0.635146 0.1061 -5.76412e-21)
(0.812168 0.154491 -3.89584e-20)
(0.970473 0.201941 1.57464e-20)
(1.10306 0.244261 7.23264e-21)
(1.2064 0.278592 -4.86739e-20)
(1.28063 0.303626 -2.03371e-20)
(1.32885 0.319473 -1.74069e-23)
(1.35598 0.327259 -3.1095e-20)
(1.36745 0.32864 2.58376e-20)
(1.36832 0.325361 -5.76415e-21)
(1.36273 0.318969 3.63504e-21)
(1.35367 0.31067 -1.40806e-20)
(1.34311 0.301309 1.06204e-20)
(1.33223 0.291436 6.77759e-21)
(1.32156 0.281372 -1.18299e-21)
(1.31127 0.271187 -1.31964e-20)
(1.3012 0.261442 1.20946e-20)
(0.0896239 0.00697259 -1.71661e-20)
(0.275974 0.03133 -7.63928e-21)
(0.468123 0.0713856 -1.1062e-20)
(0.657958 0.119294 3.78324e-20)
(0.835737 0.170098 1.17888e-22)
(0.99242 0.21887 -1.98612e-20)
(1.12158 0.261441 -8.04325e-20)
(1.22045 0.295148 7.74407e-21)
(1.28995 0.318979 8.95821e-21)
(1.3338 0.333345 3.973e-20)
(1.3573 0.339621 5.83349e-21)
(1.36602 0.339623 -3.30459e-20)
(1.36499 0.335172 3.09851e-20)
(1.35818 0.327823 -1.24235e-20)
(1.34842 0.318756 4.66406e-20)
(1.33751 0.308775 -4.19231e-21)
(1.32648 0.29839 2.43831e-21)
(1.31578 0.287888 2.04954e-21)
(1.30552 0.277318 -3.52286e-20)
(1.29548 0.267298 -2.12844e-20)
(0.0948928 0.0091412 -6.54113e-21)
(0.289357 0.0378051 -3.6799e-20)
(0.487135 0.0818909 2.8869e-20)
(0.679978 0.133135 -3.6419e-20)
(0.858133 0.186262 -6.52825e-20)
(1.01288 0.236204 5.65331e-20)
(1.13843 0.278858 9.24177e-20)
(1.2328 0.311794 3.28194e-20)
(1.29768 0.334315 2.2644e-20)
(1.33736 0.347142 -6.44292e-20)
(1.35746 0.351888 4.89977e-20)
(1.36368 0.350516 5.67202e-21)
(1.36096 0.344909 -6.11992e-20)
(1.3531 0.336622 2.37362e-20)
(1.34276 0.326799 8.40082e-20)
(1.33157 0.316204 -5.72431e-20)
(1.32045 0.305309 -1.62585e-20)
(1.30976 0.294366 -1.56493e-20)
(1.29956 0.283407 7.17868e-20)
(1.28957 0.273108 4.11956e-20)
(0.100143 0.0115142 4.49837e-20)
(0.30254 0.0447621 -7.48985e-20)
(0.505646 0.0930058 -1.08287e-19)
(0.701126 0.147585 4.83866e-21)
(0.879291 0.202936 -1.94765e-20)
(1.03182 0.253891 -7.77194e-20)
(1.15361 0.296462 -1.28667e-20)
(1.24348 0.328488 3.93816e-20)
(1.30386 0.349605 -6.28315e-20)
(1.33958 0.360843 5.10156e-20)
(1.35654 0.364047 5.88652e-20)
(1.36049 0.361311 -3.67431e-20)
(1.35626 0.354566 1.49002e-20)
(1.34751 0.345357 7.51562e-20)
(1.33669 0.33479 -9.95484e-20)
(1.3253 0.323587 1.73175e-20)
(1.31414 0.312182 4.68881e-20)
(1.3035 0.300796 -1.41723e-20)
(1.29338 0.289446 -1.48196e-20)
(1.28347 0.27886 -2.49829e-21)
(0.105353 0.0140905 6.65553e-20)
(0.315469 0.0521897 1.20616e-19)
(0.523584 0.104704 6.35102e-20)
(0.721328 0.162603 -7.53088e-20)
(0.899153 0.220068 1.95061e-19)
(1.04921 0.271879 2.98461e-20)
(1.16711 0.314206 -8.17269e-20)
(1.25252 0.345191 -5.84647e-20)
(1.30855 0.364819 -4.65806e-20)
(1.34053 0.37443 1.53849e-20)
(1.35458 0.376085 -5.15851e-20)
(1.35647 0.371997 1.67743e-21)
(1.35094 0.364132 -3.45335e-20)
(1.34143 0.354017 -4.67679e-20)
(1.33023 0.342718 -7.95893e-21)
(1.31871 0.330911 -4.90104e-21)
(1.30755 0.318998 -8.68464e-20)
(1.29699 0.307166 6.52308e-20)
(1.28698 0.295422 -9.85478e-20)
(1.27717 0.284546 -5.77605e-20)
(0.110501 0.0168674 -8.08256e-20)
(0.328094 0.0600734 -3.24304e-20)
(0.540881 0.116957 1.43524e-19)
(0.740518 0.178146 3.61225e-20)
(0.917668 0.237606 -1.22918e-19)
(1.06502 0.290113 -7.08302e-20)
(1.17896 0.33204 -2.34612e-20)
(1.25995 0.361863 1.50348e-19)
(1.3118 0.379929 1.06626e-19)
(1.34025 0.38788 -3.63348e-20)
(1.35164 0.387986 -2.09957e-20)
(1.35169 0.382563 5.24626e-20)
(1.34501 0.373597 -5.68071e-20)
(1.33487 0.362594 2.60526e-20)
(1.32339 0.350573 1.13029e-20)
(1.3118 0.338167 -1.4097e-20)
(1.30069 0.325745 1.06007e-19)
(1.29024 0.313465 -4.43984e-20)
(1.28037 0.301326 8.90097e-20)
(1.27068 0.290154 -3.17179e-20)
(0.115567 0.0198412 -4.5578e-20)
(0.340361 0.0683959 -8.20508e-20)
(0.557472 0.12973 -1.29072e-19)
(0.758633 0.194167 7.74738e-20)
(0.934794 0.255496 4.2353e-20)
(1.07924 0.308539 -5.99479e-20)
(1.18916 0.349917 9.86575e-20)
(1.26582 0.378468 -1.51034e-19)
(1.31365 0.394907 -1.59413e-19)
(1.33881 0.401176 9.54932e-20)
(1.34775 0.399737 3.53802e-20)
(1.34617 0.392996 -3.89503e-20)
(1.33851 0.382951 5.87568e-20)
(1.32786 0.371074 4.59406e-20)
(1.31618 0.358341 -3.34138e-20)
(1.30457 0.345341 -1.13643e-20)
(1.29355 0.332412 -8.11483e-20)
(1.28324 0.319681 1.65594e-20)
(1.27353 0.307145 -6.84869e-20)
(1.26398 0.295675 -1.1386e-20)
(0.120529 0.0230065 3.78731e-20)
(0.352223 0.077137 -6.46088e-20)
(0.573296 0.142987 1.17011e-19)
(0.775618 0.210616 1.96686e-19)
(0.950496 0.273682 -2.80449e-19)
(1.09187 0.327102 2.45018e-19)
(1.19774 0.36779 6.53406e-20)
(1.27016 0.394967 -9.4137e-20)
(1.31417 0.409724 1.10297e-19)
(1.33626 0.414296 6.47441e-20)
(1.34297 0.411323 7.96688e-20)
(1.33995 0.403283 -1.36836e-19)
(1.33145 0.392179 -2.81879e-20)
(1.3204 0.379446 6.6812e-20)
(1.3086 0.36601 2.52334e-20)
(1.29702 0.352421 1.15881e-19)
(1.28613 0.338984 1.44401e-19)
(1.27599 0.325803 -3.53158e-20)
(1.26648 0.312867 6.10238e-20)
(1.25709 0.301097 6.90437e-20)
(0.125366 0.0263569 -1.10667e-20)
(0.363633 0.0862735 -1.50293e-19)
(0.588296 0.156688 -2.04649e-19)
(0.791424 0.227442 -2.65177e-19)
(0.964743 0.292108 -2.58958e-20)
(1.1029 0.34575 9.61845e-20)
(1.20472 0.385612 -1.80619e-20)
(1.27302 0.411324 3.15855e-20)
(1.3134 0.424355 -4.87838e-20)
(1.33263 0.427221 8.13548e-20)
(1.33734 0.422726 -1.22703e-19)
(1.33305 0.413411 1.59122e-19)
(1.32386 0.40127 9.058e-20)
(1.31251 0.387696 4.12567e-20)
(1.30065 0.373568 -6.09113e-20)
(1.28917 0.359393 -6.41466e-20)
(1.27843 0.34545 -6.08818e-20)
(1.2685 0.331817 4.38856e-21)
(1.2592 0.318478 7.98321e-20)
(1.25 0.306409 -8.42246e-20)
(0.130058 0.0298848 -1.97229e-20)
(0.374544 0.0957799 1.16851e-19)
(0.602421 0.170793 1.46271e-19)
(0.806008 0.244591 -2.28331e-20)
(0.977516 0.310715 6.72564e-20)
(1.11233 0.364426 1.81433e-20)
(1.21012 0.403338 -9.68343e-20)
(1.27444 0.427504 7.62209e-20)
(1.31138 0.438772 7.09797e-20)
(1.32799 0.439931 -1.22194e-19)
(1.33089 0.433932 1.95783e-19)
(1.32551 0.423365 -1.61558e-19)
(1.31576 0.410209 9.27955e-20)
(1.3042 0.39581 -1.33843e-19)
(1.29235 0.380999 1.9585e-19)
(1.281 0.366243 -1.22898e-19)
(1.27046 0.351797 -3.58505e-20)
(1.26075 0.337712 -4.78634e-20)
(1.25169 0.323965 -1.00186e-19)
(1.24272 0.311599 1.4345e-21)
(0.134586 0.0335811 1.4116e-19)
(0.384916 0.105628 1.46593e-19)
(0.615623 0.185255 -2.10477e-19)
(0.819332 0.262008 -1.27497e-19)
(0.988797 0.329446 1.87337e-19)
(1.12018 0.383079 -7.40424e-20)
(1.21398 0.420922 1.07889e-19)
(1.27446 0.443471 4.61057e-20)
(1.30817 0.452949 -1.06275e-19)
(1.32237 0.452404 -2.61566e-19)
(1.32367 0.444923 -4.59583e-20)
(1.31735 0.43313 -9.65971e-20)
(1.30716 0.418981 -1.41833e-19)
(1.29548 0.403773 1.13622e-20)
(1.2837 0.388289 -1.41069e-20)
(1.27252 0.372959 -1.41175e-20)
(1.2622 0.358013 1.11932e-19)
(1.25275 0.343475 8.02377e-20)
(1.24395 0.329314 8.53725e-21)
(1.2352 0.316659 4.66138e-20)
(0.138931 0.0374358 -3.40879e-20)
(0.394708 0.115788 2.60751e-19)
(0.627859 0.200029 1.00456e-19)
(0.831365 0.279637 2.03194e-19)
(0.998579 0.348243 6.58366e-20)
(1.12646 0.401654 2.50158e-20)
(1.21634 0.438321 -1.57128e-19)
(1.27313 0.459191 -5.02179e-20)
(1.30381 0.46686 2.44739e-20)
(1.31581 0.464621 1.94507e-19)
(1.31569 0.455681 -6.31473e-20)
(1.30859 0.44269 7.74903e-20)
(1.29807 0.42757 1.63547e-19)
(1.28635 0.41157 3.69966e-20)
(1.2747 0.395424 -3.18565e-20)
(1.26373 0.379526 4.27875e-20)
(1.25368 0.364085 8.12227e-20)
(1.2445 0.3491 3.7052e-20)
(1.236 0.334529 9.33174e-20)
(1.22741 0.321577 7.16034e-20)
(0.143074 0.0414379 -8.9205e-20)
(0.403884 0.126227 -1.33491e-19)
(0.63909 0.215065 8.44753e-20)
(0.842083 0.29742 2.8329e-20)
(1.00686 0.367048 5.5981e-20)
(1.13119 0.420099 -2.26231e-19)
(1.21721 0.45549 8.15628e-20)
(1.27048 0.474629 -1.74867e-19)
(1.29835 0.480478 -9.66677e-20)
(1.30835 0.47656 1.11596e-19)
(1.307 0.46619 -1.17539e-20)
(1.29926 0.452028 7.07255e-21)
(1.28852 0.435961 -1.99289e-19)
(1.27684 0.419186 -8.00565e-20)
(1.26536 0.402388 6.58359e-20)
(1.25464 0.385929 -1.13878e-19)
(1.24487 0.369997 -6.06416e-20)
(1.23602 0.35457 -6.04818e-20)
(1.22784 0.339631 -1.05407e-19)
(1.21938 0.326346 -2.43429e-19)
(0.147 0.045575 5.19168e-20)
(0.412411 0.13691 -6.29623e-20)
(0.649285 0.230315 -3.42747e-19)
(0.851467 0.315299 1.83997e-19)
(1.01363 0.385803 -2.2737e-19)
(1.13439 0.438364 -3.22631e-20)
(1.21665 0.472389 -3.08361e-19)
(1.26657 0.489754 3.25761e-19)
(1.29183 0.493777 1.84517e-19)
(1.30003 0.488201 -1.06151e-20)
(1.29762 0.47643 6.52009e-20)
(1.28938 0.461127 -8.19253e-20)
(1.27851 0.444137 -6.744e-21)
(1.26693 0.426603 3.72667e-20)
(1.25568 0.409165 -3.83801e-20)
(1.24524 0.392152 7.21666e-20)
(1.2358 0.375731 -9.59296e-20)
(1.22729 0.359857 -8.4706e-20)
(1.21944 0.344597 4.74955e-20)
(1.21122 0.33099 6.46969e-20)
(0.150691 0.049834 1.19009e-19)
(0.420257 0.147804 1.17007e-19)
(0.658415 0.245725 8.98229e-20)
(0.859503 0.333215 -2.11596e-21)
(1.01891 0.40445 -5.93415e-20)
(1.13608 0.456396 3.97761e-19)
(1.2147 0.488975 2.2384e-19)
(1.26145 0.504531 1.51327e-19)
(1.28429 0.506733 2.13197e-19)
(1.29089 0.499523 2.63544e-20)
(1.28758 0.486382 -1.75228e-19)
(1.27896 0.469969 -1.91634e-20)
(1.26806 0.45208 -3.79613e-20)
(1.25665 0.433805 -1.22161e-19)
(1.24567 0.415741 -4.5716e-20)
(1.23555 0.398182 -6.32174e-20)
(1.22645 0.381278 1.96666e-19)
(1.21831 0.364968 -2.81249e-21)
(1.2108 0.34937 5.48427e-20)
(1.20294 0.335467 4.41459e-20)
(0.154134 0.0542012 -3.99772e-20)
(0.427398 0.158869 -6.81403e-20)
(0.666458 0.261245 -1.47369e-19)
(0.866183 0.351111 -2.46028e-20)
(1.02271 0.422932 -2.43169e-19)
(1.13631 0.474146 -1.7296e-19)
(1.21139 0.505207 5.72877e-20)
(1.25515 0.51893 -4.1323e-19)
(1.27578 0.519319 -2.22314e-19)
(1.28097 0.510503 5.4058e-20)
(1.27691 0.496028 -2.82286e-20)
(1.26803 0.478536 1.58449e-19)
(1.25718 0.459774 2.14847e-19)
(1.246 0.440776 5.3821e-20)
(1.23533 0.422097 1.45871e-19)
(1.22557 0.404004 -7.63539e-20)
(1.21685 0.386623 1.04722e-19)
(1.20909 0.369887 5.79821e-20)
(1.20195 0.353952 5.02935e-20)
(1.19446 0.339754 -9.634e-20)
(0.157314 0.0586616 6.0337e-20)
(0.433808 0.170069 -7.32762e-21)
(0.673393 0.276821 -2.29188e-19)
(0.871504 0.368927 -1.45333e-22)
(1.02504 0.441194 5.47245e-19)
(1.13509 0.491566 1.09363e-19)
(1.20677 0.521047 8.2219e-20)
(1.24772 0.532919 2.39855e-19)
(1.26634 0.53151 -1.93227e-19)
(1.27029 0.521122 -2.06187e-19)
(1.26562 0.505348 -2.66065e-21)
(1.2566 0.48681 -1.452e-19)
(1.24589 0.467201 -8.00497e-20)
(1.23499 0.4475 2.15364e-19)
(1.22467 0.428217 -5.60532e-20)
(1.2153 0.4096 3.46528e-21)
(1.20697 0.391754 -7.57772e-20)
(1.19963 0.3746 -1.15544e-19)
(1.19289 0.35833 7.43653e-21)
(1.18578 0.343844 1.10313e-19)
(0.16022 0.0631998 -2.90384e-19)
(0.439467 0.181362 1.7724e-19)
(0.679209 0.292399 3.94456e-19)
(0.875468 0.386606 1.2365e-19)
(1.02592 0.45918 -6.46489e-19)
(1.13246 0.508608 -2.65865e-19)
(1.20087 0.536455 -2.07634e-19)
(1.2392 0.546467 -7.54525e-20)
(1.256 0.543282 2.54453e-19)
(1.25888 0.531356 2.70335e-20)
(1.25376 0.514324 -5.34998e-20)
(1.24469 0.494773 9.6032e-20)
(1.23419 0.474344 1.40804e-20)
(1.22363 0.45396 -2.5813e-19)
(1.2137 0.434089 7.77488e-20)
(1.20475 0.414956 1.02854e-19)
(1.19684 0.396655 4.95288e-20)
(1.18994 0.379091 6.64229e-20)
(1.18363 0.362495 -1.17163e-19)
(1.17692 0.347727 -5.77799e-20)
(0.16284 0.0677999 -2.00744e-20)
(0.44436 0.192711 8.97139e-20)
(0.683897 0.307927 4.51185e-20)
(0.878083 0.404089 1.32709e-19)
(1.02538 0.476836 3.61411e-19)
(1.12847 0.525226 -2.35299e-19)
(1.19375 0.551394 -1.47488e-20)
(1.22964 0.559545 2.24708e-19)
(1.2448 0.554609 -2.71748e-19)
(1.24679 0.541186 8.83765e-20)
(1.24133 0.522934 2.27062e-19)
(1.23232 0.502406 5.14359e-20)
(1.2221 0.481184 -1.12294e-19)
(1.21192 0.460137 1.87209e-19)
(1.20243 0.439695 -2.17756e-19)
(1.19392 0.420059 7.50811e-21)
(1.18646 0.401312 -5.03882e-20)
(1.18002 0.383349 8.93338e-20)
(1.17417 0.366435 7.84069e-20)
(0.165165 0.0724453 3.77348e-20)
(0.448472 0.204073 1.44249e-19)
(0.687451 0.323349 1.42495e-19)
(0.879359 0.42132 -8.9311e-20)
(1.02344 0.494109 7.9247e-21)
(1.12315 0.541374 2.18765e-19)
(1.18545 0.565828 3.87032e-19)
(1.21908 0.572122 -3.89716e-20)
(1.23279 0.565468 3.69231e-20)
(1.23403 0.550589 -1.10824e-19)
(1.22837 0.53116 -2.33528e-19)
(1.21951 0.509691 3.74583e-20)
(1.20963 0.487703 1.31337e-19)
(1.19989 0.466016 -2.64645e-20)
(1.19087 0.44502 -2.26354e-20)
(1.18282 0.424895 -8.66364e-20)
(1.17583 0.405713 -1.51204e-20)
(1.16987 0.38736 -3.36528e-20)
(0.167187 0.0771191 -1.3118e-19)
(0.451794 0.215409 -3.30817e-19)
(0.689872 0.338614 -4.90164e-19)
(0.879312 0.438242 8.91154e-21)
(1.02014 0.510949 -2.89431e-21)
(1.11655 0.55701 -1.99668e-19)
(1.17602 0.579722 1.08056e-19)
(1.20757 0.584172 -1.15403e-19)
(1.22 0.575836 2.19034e-19)
(1.22065 0.559545 2.18506e-19)
(1.2149 0.538981 9.73568e-20)
(1.20627 0.516608 -2.57038e-20)
(1.19679 0.493885 3.67549e-20)
(1.18754 0.471579 -9.32018e-20)
(1.17901 0.450048 1.57981e-19)
(1.17146 0.429449 -7.10371e-20)
(0.168898 0.0818039 1.42561e-19)
(0.45432 0.226677 4.48123e-19)
(0.691164 0.353669 1.76162e-19)
(0.877963 0.454803 -3.43462e-20)
(1.01551 0.527304 -1.91577e-19)
(1.1087 0.572092 -4.15224e-20)
(1.16549 0.593041 -5.16236e-20)
(1.19515 0.595666 -1.62892e-20)
(1.20646 0.585687 -6.44253e-20)
(1.20666 0.568034 -2.1473e-19)
(1.20094 0.54638 -1.76376e-19)
(1.19262 0.523139 1.26655e-19)
(1.18361 0.499711 -1.78138e-19)
(1.17488 0.476812 -9.08735e-21)
(1.16688 0.454764 4.76294e-20)
(0.170293 0.0864823 1.40838e-20)
(0.456045 0.237835 2.94571e-20)
(0.691335 0.36846 4.06491e-19)
(0.875335 0.470947 -2.28358e-19)
(1.00959 0.543128 5.37652e-19)
(1.09965 0.586578 2.42643e-19)
(1.15392 0.605753 -3.27705e-19)
(1.18185 0.606577 -3.0066e-20)
(1.19223 0.595001 -2.62066e-19)
(1.19211 0.576033 -6.39011e-20)
(1.18651 0.553336 6.97028e-20)
(1.17858 0.529267 9.64515e-20)
(1.17009 0.505164 1.83955e-19)
(1.16192 0.481697 2.17436e-20)
(0.171368 0.0911365 1.14706e-19)
(0.456971 0.248845 -5.40595e-19)
(0.690398 0.382938 -1.20174e-19)
(0.871454 0.486623 -9.08982e-20)
(1.00242 0.558372 -3.38042e-19)
(1.08945 0.60043 -3.31028e-19)
(1.14136 0.617826 -1.03135e-19)
(1.16774 0.61688 -1.30791e-19)
(1.17732 0.603753 3.68818e-19)
(1.17701 0.583524 1.30619e-20)
(1.17163 0.55983 -2.33565e-19)
(1.16417 0.534972 -3.21386e-19)
(1.15625 0.510229 1.4917e-19)
(0.172121 0.095749 9.26853e-21)
(0.457099 0.259664 7.96604e-20)
(0.688368 0.397051 -2.46306e-19)
(0.866351 0.50178 1.44358e-19)
(0.994029 0.572993 1.60791e-20)
(1.07814 0.61361 4.15866e-19)
(1.12785 0.629231 1.62146e-19)
(1.15284 0.62655 2.56227e-19)
(1.16178 0.611924 -1.66593e-19)
(1.16141 0.590486 2.99276e-19)
(1.15634 0.565845 1.95687e-19)
(1.1494 0.540239 4.02569e-20)
(0.17255 0.100302 -2.33778e-19)
(0.456437 0.270254 5.52115e-19)
(0.685266 0.410752 2.90919e-19)
(0.860059 0.516371 1.06988e-19)
(0.984474 0.586947 -5.67436e-20)
(1.06578 0.626083 -3.45561e-19)
(1.11344 0.639936 5.07687e-20)
(1.1372 0.635562 -4.73854e-20)
(1.14564 0.619492 -1.75039e-19)
(1.14532 0.5969 -2.08254e-19)
(1.14065 0.571361 1.12699e-19)
(0.172655 0.104778 -5.06747e-20)
(0.454992 0.280576 -1.45383e-19)
(0.681112 0.423993 -3.34592e-19)
(0.852615 0.530348 -1.72915e-19)
(0.973798 0.600194 -2.02473e-19)
(1.05242 0.637818 1.77728e-19)
(1.09817 0.649915 -7.19091e-20)
(1.12087 0.643894 4.4718e-20)
(1.12895 0.626437 -2.85289e-20)
(1.12878 0.602749 -9.8054e-20)
(0.172438 0.109161 4.76434e-19)
(0.452776 0.290591 1.78232e-20)
(0.675933 0.436728 -1.48517e-19)
(0.844058 0.543665 1.40821e-19)
(0.96205 0.612693 -2.42869e-20)
(1.0381 0.648781 -6.57449e-20)
(1.0821 0.659145 -1.54827e-19)
(1.10388 0.651522 2.15994e-20)
(1.11173 0.632739 1.85082e-19)
(0.171901 0.113433 -1.06435e-19)
(0.449803 0.300264 1.2334e-19)
(0.669758 0.448913 3.31366e-20)
(0.834431 0.556281 3.01044e-19)
(0.949276 0.624408 -4.202e-20)
(1.02286 0.658938 -1.93348e-19)
(1.06528 0.6676 3.46237e-19)
(1.08628 0.658428 1.15909e-20)
(0.171048 0.117579 -4.47421e-19)
(0.44609 0.309558 -1.21117e-20)
(0.662619 0.460504 2.83705e-19)
(0.823779 0.568158 -3.21786e-20)
(0.935519 0.635302 4.41369e-19)
(1.00678 0.668264 -4.60888e-22)
(1.04774 0.675255 -3.70562e-19)
(0.169883 0.121584 2.68343e-19)
(0.441654 0.31844 -2.19329e-19)
(0.654552 0.47146 -3.35129e-19)
(0.812142 0.579254 -5.31452e-20)
(0.920837 0.645347 -2.93423e-19)
(0.98989 0.676731 1.31126e-19)
(0.168414 0.125433 -1.05378e-19)
(0.436519 0.326876 1.43058e-19)
(0.645596 0.481747 -4.38812e-20)
(0.799557 0.589526 -5.49386e-20)
(0.905286 0.654511 1.07318e-20)
(0.166646 0.129111 -1.70278e-19)
(0.430708 0.334831 -1.70545e-19)
(0.63578 0.491327 3.71314e-19)
(0.786084 0.598951 1.08305e-19)
(0.888921 0.66276 2.73342e-20)
(0.164584 0.132601 2.10976e-19)
(0.424244 0.34228 3.32424e-19)
(0.625144 0.500157 -8.49928e-20)
(0.771782 0.607497 -8.41455e-20)
(0.162226 0.135877 -1.45593e-19)
(0.417172 0.349198 -2.63026e-19)
(0.613738 0.508213 -1.24719e-19)
(0.159598 0.138911 1.48243e-19)
(0.40952 0.355546 2.73635e-19)
(0.601603 0.51547 1.17461e-19)
(0.156728 0.141709 -7.77683e-20)
(0.401306 0.361288 3.87954e-21)
(0.153623 0.144269 7.54966e-20)
(0.150285 0.146576 1.93166e-20)
(0.14796 -0.144129 -8.87962e-20)
(0.151416 -0.142016 1.53342e-20)
(0.154647 -0.139646 -1.0963e-19)
(0.394305 -0.353966 -2.21319e-19)
(0.157643 -0.137032 1.93496e-19)
(0.402764 -0.348678 1.39676e-19)
(0.590116 -0.50317 -3.11422e-20)
(0.160405 -0.134191 -1.30949e-19)
(0.410681 -0.342787 -3.57867e-19)
(0.602512 -0.496494 -1.39568e-19)
(0.162922 -0.131118 1.97859e-19)
(0.418033 -0.336313 2.99437e-19)
(0.61421 -0.489015 -2.78883e-20)
(0.756667 -0.591606 -6.6407e-20)
(0.165164 -0.127816 -2.3132e-19)
(0.424803 -0.329294 -8.92755e-20)
(0.625172 -0.480762 1.58746e-19)
(0.771224 -0.58369 1.25335e-19)
(0.870769 -0.643698 7.82482e-20)
(0.167114 -0.124312 5.93392e-20)
(0.430958 -0.321766 -5.22464e-20)
(0.635357 -0.471761 1.38587e-19)
(0.784984 -0.574887 -1.85721e-19)
(0.88732 -0.636065 -1.37364e-20)
(0.951987 -0.663125 1.05866e-19)
(0.168773 -0.120632 4.34747e-19)
(0.436461 -0.313754 -2.50907e-19)
(0.644714 -0.462038 -3.38149e-19)
(0.797905 -0.565233 -1.41109e-19)
(0.903093 -0.627519 -1.94083e-19)
(0.969729 -0.656112 -8.90983e-21)
(0.170136 -0.116791 -2.30337e-19)
(0.44129 -0.305283 -9.91537e-21)
(0.653209 -0.451637 1.76918e-19)
(0.809928 -0.554761 2.3074e-20)
(0.918039 -0.618084 3.88254e-19)
(0.986758 -0.648212 -3.3828e-20)
(1.02621 -0.65335 2.93447e-20)
(0.171198 -0.112803 -9.26485e-20)
(0.445424 -0.296391 4.17027e-20)
(0.660816 -0.440598 7.42687e-20)
(0.820996 -0.543495 1.72213e-19)
(0.932102 -0.607792 -1.08025e-19)
(1.00302 -0.639448 3.65992e-20)
(1.04382 -0.646202 2.68494e-19)
(1.06402 -0.635911 -2.7022e-20)
(0.171954 -0.108685 4.72212e-19)
(0.448844 -0.287111 -1.20715e-19)
(0.667498 -0.428955 -1.56893e-19)
(0.831076 -0.53148 8.52927e-20)
(0.945226 -0.596674 4.61966e-20)
(1.01847 -0.629847 -8.96824e-20)
(1.06074 -0.638249 -1.87628e-20)
(1.08163 -0.629448 -4.76339e-20)
(1.08917 -0.61006 4.84261e-20)
(0.1724 -0.10445 -2.10349e-19)
(0.451531 -0.277478 2.4631e-20)
(0.67322 -0.416749 -2.3993e-19)
(0.84013 -0.518754 -3.07635e-19)
(0.957361 -0.584765 -1.19462e-19)
(1.03306 -0.619438 -8.47507e-21)
(1.07694 -0.629512 1.43065e-19)
(1.09865 -0.622255 -1.01443e-19)
(1.10635 -0.604146 2.9132e-20)
(1.10617 -0.580179 1.89961e-19)
(0.172532 -0.100115 -2.20382e-19)
(0.453471 -0.267526 4.73197e-19)
(0.677954 -0.404024 2.7893e-19)
(0.848114 -0.505358 1.19818e-19)
(0.968466 -0.572102 -4.34568e-20)
(1.04672 -0.608246 -2.52314e-19)
(1.09237 -0.620015 -1.44575e-19)
(1.11504 -0.614351 -6.5305e-20)
(1.12303 -0.59758 -8.00294e-20)
(1.12264 -0.574671 -2.75032e-19)
(1.11811 -0.549044 1.44863e-19)
(0.172349 -0.0956968 4.00467e-20)
(0.454654 -0.257292 -6.49801e-20)
(0.681674 -0.390824 4.9464e-20)
(0.85499 -0.491337 -1.18716e-19)
(0.978494 -0.558721 2.39554e-19)
(1.05941 -0.596304 3.9216e-19)
(1.10699 -0.609785 1.14553e-19)
(1.13077 -0.605757 2.79538e-19)
(1.13917 -0.59038 -1.39888e-19)
(1.13867 -0.568586 3.04853e-19)
(1.1337 -0.54383 6.39359e-20)
(1.12695 -0.518247 2.5443e-19)
(0.171851 -0.091211 -1.41996e-19)
(0.455071 -0.246814 -3.16761e-19)
(0.684358 -0.377197 -2.40139e-19)
(0.86072 -0.476736 7.08147e-20)
(0.9874 -0.544662 -3.58372e-19)
(1.07109 -0.583647 -4.06687e-19)
(1.12073 -0.598847 -4.45586e-20)
(1.14578 -0.596494 -1.01786e-19)
(1.15473 -0.582566 3.29206e-19)
(1.15424 -0.561942 -7.24059e-20)
(1.14891 -0.538106 -1.96925e-19)
(1.1416 -0.513251 -3.04148e-19)
(1.13388 -0.488598 -1.78396e-19)
(0.171038 -0.0866751 -1.13283e-19)
(0.454714 -0.236131 -8.81992e-20)
(0.685985 -0.36319 3.6768e-19)
(0.865273 -0.461601 -2.18975e-19)
(0.99514 -0.529967 5.32764e-19)
(1.08171 -0.570308 2.07412e-19)
(1.13356 -0.58723 -1.2468e-19)
(1.16004 -0.586587 -1.94239e-19)
(1.16969 -0.574157 -2.72025e-19)
(1.16931 -0.554757 1.09676e-19)
(1.16371 -0.531888 1.81014e-20)
(1.1559 -0.507803 9.76289e-20)
(1.14758 -0.483779 1.95707e-19)
(1.13959 -0.460453 3.979e-20)
(0.169913 -0.0821064 2.24565e-19)
(0.45358 -0.225282 3.53373e-19)
(0.68654 -0.34885 1.66966e-20)
(0.868618 -0.445983 2.01583e-19)
(1.00167 -0.514679 -4.65724e-19)
(1.09122 -0.556323 1.07957e-19)
(1.14544 -0.574962 -6.8772e-20)
(1.17351 -0.57606 -1.43785e-20)
(1.184 -0.565176 -1.03695e-19)
(1.18386 -0.547049 -1.958e-19)
(1.17808 -0.525196 -4.60975e-20)
(1.16985 -0.501919 9.8214e-20)
(1.16097 -0.478556 -2.79904e-19)
(1.15239 -0.45579 6.77633e-20)
(1.14456 -0.433931 -1.26316e-19)
(0.168478 -0.077522 -4.01283e-20)
(0.451669 -0.214305 -5.42716e-19)
(0.686011 -0.334228 -4.07972e-19)
(0.870728 -0.42993 -2.48685e-20)
(1.00696 -0.498844 8.50084e-20)
(1.09957 -0.541729 -1.5214e-19)
(1.15631 -0.562074 -3.97367e-21)
(1.18614 -0.564937 3.96805e-20)
(1.19763 -0.555642 5.40802e-20)
(1.19786 -0.538838 2.95716e-19)
(1.192 -0.518045 1.10933e-19)
(1.18341 -0.495617 -2.34862e-20)
(1.17404 -0.472946 2.62581e-20)
(1.16491 -0.450766 -3.23384e-20)
(1.15651 -0.429417 1.38254e-19)
(1.14909 -0.409053 5.64418e-20)