/*--------------------------------*- C++ -*----------------------------------*\
  =========                 |
  \\      /  F ield         | OpenFOAM: The Open Source CFD Toolbox
   \\    /   O peration     | Website:  https://openfoam.org
    \\  /    A nd           | Version:  7
     \\/     M anipulation  |
\*---------------------------------------------------------------------------*/
FoamFile
{
    version     2.0;
    format      ascii;
    class       volScalarField;
    location    "140";
    object      p;
}
// * * * * * * * * * * * * * * * * * * * * * * * * * * * * * * * * * * * * * //

dimensions      [0 2 -2 0 0 0 0];

internalField   nonuniform List<scalar> 
20050
(
-0.387408
-0.388328
-0.388719
-0.388984
-0.389295
-0.389834
-0.39076
-0.392189
-0.39421
-0.396907
-0.400387
-0.404795
-0.41033
-0.417212
-0.425704
-0.388909
-0.38944
-0.389642
-0.389759
-0.389953
-0.390408
-0.391288
-0.392719
-0.3948
-0.397632
-0.401337
-0.406079
-0.412084
-0.41959
-0.428856
-0.390369
-0.390519
-0.390531
-0.390497
-0.390567
-0.390929
-0.39175
-0.393165
-0.395285
-0.398222
-0.402112
-0.407137
-0.413543
-0.421585
-0.431485
-0.391758
-0.391535
-0.39136
-0.391171
-0.391113
-0.391371
-0.392117
-0.393495
-0.395626
-0.398634
-0.402667
-0.407918
-0.414652
-0.42314
-0.433525
-0.393044
-0.392466
-0.392106
-0.391761
-0.391567
-0.391709
-0.392363
-0.39368
-0.395793
-0.398834
-0.402962
-0.408379
-0.415364
-0.424204
-0.434942
-0.394203
-0.393293
-0.392752
-0.39225
-0.391913
-0.391926
-0.392468
-0.393697
-0.395757
-0.398791
-0.402964
-0.408485
-0.415642
-0.424735
-0.435706
-0.395214
-0.393999
-0.393284
-0.392625
-0.392137
-0.392007
-0.392414
-0.393528
-0.3955
-0.398482
-0.402649
-0.408212
-0.415462
-0.424719
-0.435789
-0.396064
-0.394574
-0.393694
-0.392879
-0.392233
-0.391945
-0.392194
-0.393161
-0.395007
-0.397893
-0.402001
-0.407542
-0.414809
-0.424146
-0.435191
-0.396742
-0.395011
-0.393978
-0.393008
-0.392199
-0.391736
-0.391804
-0.392591
-0.394272
-0.397017
-0.401012
-0.406471
-0.413681
-0.423019
-0.433932
-0.397243
-0.39531
-0.394136
-0.393014
-0.392035
-0.391382
-0.391245
-0.391822
-0.393298
-0.395855
-0.399685
-0.405003
-0.412088
-0.421356
-0.432048
-0.397569
-0.395474
-0.394172
-0.392903
-0.391749
-0.390893
-0.390527
-0.390861
-0.392093
-0.394417
-0.398031
-0.403155
-0.410051
-0.419186
-0.429583
-0.397723
-0.395508
-0.394094
-0.392684
-0.391352
-0.390279
-0.389662
-0.389723
-0.390674
-0.392722
-0.396074
-0.400951
-0.407602
-0.416549
-0.426592
-0.397715
-0.395423
-0.393914
-0.39237
-0.390858
-0.389557
-0.388669
-0.388428
-0.389065
-0.390796
-0.393842
-0.398428
-0.404784
-0.413497
-0.423141
-0.397559
-0.395234
-0.393648
-0.391978
-0.390285
-0.388746
-0.38757
-0.387004
-0.387294
-0.388675
-0.391375
-0.395631
-0.401649
-0.410093
-0.419295
-0.397273
-0.394958
-0.393311
-0.391524
-0.389652
-0.387869
-0.386392
-0.38548
-0.385398
-0.386398
-0.388721
-0.392614
-0.398257
-0.406407
-0.415126
-0.396878
-0.394613
-0.392923
-0.391029
-0.38898
-0.38695
-0.385162
-0.38389
-0.383416
-0.384012
-0.385932
-0.389437
-0.394677
-0.402521
-0.410703
-0.396399
-0.394223
-0.392506
-0.390514
-0.388293
-0.386015
-0.383911
-0.38227
-0.381392
-0.381569
-0.38307
-0.386171
-0.390985
-0.398523
-0.406092
-0.395864
-0.393812
-0.392083
-0.390002
-0.387614
-0.385091
-0.382672
-0.380659
-0.379373
-0.379123
-0.380197
-0.382889
-0.38726
-0.394511
-0.401356
-0.395305
-0.393407
-0.391678
-0.389518
-0.38697
-0.384206
-0.381476
-0.379097
-0.377406
-0.376733
-0.377383
-0.379669
-0.383587
-0.390585
-0.396554
-0.394757
-0.393037
-0.391318
-0.389085
-0.386385
-0.38339
-0.380359
-0.377624
-0.37554
-0.374457
-0.374694
-0.37659
-0.380051
-0.386849
-0.391746
-0.394257
-0.392732
-0.391031
-0.388732
-0.385886
-0.382671
-0.379355
-0.376281
-0.373825
-0.372353
-0.372199
-0.373729
-0.376737
-0.383402
-0.386997
-0.393844
-0.392525
-0.390845
-0.388484
-0.385503
-0.382081
-0.378498
-0.37511
-0.372308
-0.370477
-0.369963
-0.371159
-0.373722
-0.380327
-0.382388
-0.393563
-0.39245
-0.39079
-0.388371
-0.385262
-0.38165
-0.377823
-0.37415
-0.371037
-0.368883
-0.368046
-0.368942
-0.371081
-0.377682
-0.378017
-0.393454
-0.39254
-0.390897
-0.388422
-0.385194
-0.381409
-0.377365
-0.373441
-0.370055
-0.36762
-0.366501
-0.367132
-0.368874
-0.375486
-0.374001
-0.393564
-0.39283
-0.391198
-0.388666
-0.385329
-0.38139
-0.377157
-0.373019
-0.369403
-0.366729
-0.365371
-0.365762
-0.367151
-0.373709
-0.370466
-0.393933
-0.393353
-0.39172
-0.389131
-0.385694
-0.381621
-0.37723
-0.372916
-0.369112
-0.366244
-0.364688
-0.364852
-0.365944
-0.37228
-0.367533
-0.394603
-0.394141
-0.392494
-0.389844
-0.386315
-0.382129
-0.377611
-0.373158
-0.369209
-0.366187
-0.364468
-0.364398
-0.365262
-0.37109
-0.365282
-0.39561
-0.395222
-0.393545
-0.39083
-0.387217
-0.382937
-0.37832
-0.373765
-0.369708
-0.366565
-0.364709
-0.364383
-0.365091
-0.369999
-0.363642
-0.396986
-0.396622
-0.394896
-0.392108
-0.388417
-0.38406
-0.37937
-0.374744
-0.370611
-0.367372
-0.365395
-0.364785
-0.365408
-0.36888
-0.362392
-0.398756
-0.39836
-0.396562
-0.393694
-0.389928
-0.385508
-0.380767
-0.376095
-0.371908
-0.368587
-0.366489
-0.365576
-0.366185
-0.367812
-0.362017
-0.400938
-0.400453
-0.398558
-0.395599
-0.391757
-0.387283
-0.382506
-0.377805
-0.373577
-0.370175
-0.367936
-0.366702
-0.367279
-0.367184
-0.365289
-0.403544
-0.402912
-0.40089
-0.397828
-0.393905
-0.38938
-0.384576
-0.379854
-0.375587
-0.372091
-0.369671
-0.368076
-0.368374
-0.367067
-0.374087
-0.406578
-0.405732
-0.403572
-0.400381
-0.396368
-0.391791
-0.38696
-0.382217
-0.377901
-0.374283
-0.371623
-0.369605
-0.369329
-0.367066
-0.373207
-0.410041
-0.408925
-0.406593
-0.403256
-0.39914
-0.394503
-0.389639
-0.384864
-0.380478
-0.376699
-0.373724
-0.371195
-0.370077
-0.36677
-0.370429
-0.413931
-0.412486
-0.409953
-0.406447
-0.402211
-0.397501
-0.392592
-0.387766
-0.383278
-0.379284
-0.37591
-0.372765
-0.370622
-0.3662
-0.367288
-0.41823
-0.416417
-0.413649
-0.40995
-0.405574
-0.400773
-0.3958
-0.390897
-0.386263
-0.38199
-0.378125
-0.37425
-0.370956
-0.365368
-0.36392
-0.422936
-0.420707
-0.417676
-0.413761
-0.409222
-0.40431
-0.399247
-0.394232
-0.389399
-0.38477
-0.380314
-0.375602
-0.37107
-0.364273
-0.360506
-0.428038
-0.425353
-0.422034
-0.417877
-0.413153
-0.408105
-0.402923
-0.39775
-0.392654
-0.387581
-0.382433
-0.37678
-0.370956
-0.362932
-0.3571
-0.433529
-0.430351
-0.426719
-0.422298
-0.417366
-0.412156
-0.406818
-0.401435
-0.395999
-0.390385
-0.38444
-0.377756
-0.370613
-0.361364
-0.353724
-0.4394
-0.4357
-0.431733
-0.427026
-0.421863
-0.416462
-0.410926
-0.405268
-0.399405
-0.393146
-0.3863
-0.378508
-0.37004
-0.359592
-0.350374
-0.445647
-0.441397
-0.437078
-0.432066
-0.42665
-0.421026
-0.41524
-0.409233
-0.402843
-0.395829
-0.387985
-0.379022
-0.369241
-0.357635
-0.347039
-0.452264
-0.447441
-0.442755
-0.437424
-0.431731
-0.425847
-0.419753
-0.41331
-0.406285
-0.398402
-0.389469
-0.379291
-0.368221
-0.355509
-0.343703
-0.459248
-0.453832
-0.448768
-0.443103
-0.43711
-0.430924
-0.424451
-0.417474
-0.409698
-0.400833
-0.390731
-0.379311
-0.366988
-0.353227
-0.340349
-0.466593
-0.460567
-0.455118
-0.449106
-0.442788
-0.43625
-0.429318
-0.421697
-0.413048
-0.403093
-0.391757
-0.37908
-0.365548
-0.350798
-0.336961
-0.474293
-0.467643
-0.461803
-0.455434
-0.448761
-0.441812
-0.434329
-0.425947
-0.416299
-0.405155
-0.392531
-0.378601
-0.363907
-0.348226
-0.333523
-0.482338
-0.475053
-0.468819
-0.46208
-0.455018
-0.447591
-0.439454
-0.430183
-0.419415
-0.406992
-0.393045
-0.377874
-0.362068
-0.345515
-0.33002
-0.490713
-0.482784
-0.476156
-0.469033
-0.461541
-0.453558
-0.444653
-0.434363
-0.422357
-0.40858
-0.393288
-0.376899
-0.360033
-0.342663
-0.326437
-0.499397
-0.49082
-0.483798
-0.476276
-0.468304
-0.459676
-0.449882
-0.438441
-0.425088
-0.409896
-0.393252
-0.375675
-0.357801
-0.339664
-0.322759
-0.508365
-0.49914
-0.491724
-0.483781
-0.475273
-0.4659
-0.455087
-0.442366
-0.42757
-0.410918
-0.392928
-0.3742
-0.355369
-0.336513
-0.318971
-0.517584
-0.507713
-0.499904
-0.491515
-0.482403
-0.472177
-0.460212
-0.446087
-0.429766
-0.411627
-0.392306
-0.372469
-0.35273
-0.333199
-0.315057
-0.527011
-0.516503
-0.508301
-0.499435
-0.489643
-0.478445
-0.465195
-0.449552
-0.431641
-0.412002
-0.391376
-0.370475
-0.349877
-0.329711
-0.311002
-0.5366
-0.525467
-0.51687
-0.507488
-0.49693
-0.484637
-0.46997
-0.452709
-0.433159
-0.412021
-0.390127
-0.368207
-0.346797
-0.326037
-0.30679
-0.546294
-0.534554
-0.525558
-0.515615
-0.504196
-0.490681
-0.474472
-0.455505
-0.434286
-0.411666
-0.388544
-0.365653
-0.343478
-0.32216
-0.302404
-0.556029
-0.543704
-0.534302
-0.523745
-0.511364
-0.496498
-0.478631
-0.457892
-0.434989
-0.410914
-0.386613
-0.362801
-0.339907
-0.318067
-0.297829
-0.565734
-0.55285
-0.543033
-0.531802
-0.518352
-0.502009
-0.482382
-0.459819
-0.435237
-0.409746
-0.384316
-0.359635
-0.336066
-0.31374
-0.293048
-0.57533
-0.561919
-0.551673
-0.539703
-0.525072
-0.507131
-0.485657
-0.46124
-0.434998
-0.408138
-0.381637
-0.356137
-0.331939
-0.309162
-0.288045
-0.584732
-0.57083
-0.560137
-0.547355
-0.531433
-0.511783
-0.488392
-0.46211
-0.434242
-0.406069
-0.378555
-0.352291
-0.327509
-0.304318
-0.282804
-0.593851
-0.579494
-0.568334
-0.554665
-0.537341
-0.515882
-0.490525
-0.462385
-0.432938
-0.403515
-0.375053
-0.348076
-0.322759
-0.299189
-0.27731
-0.60259
-0.58782
-0.576169
-0.561532
-0.542701
-0.51935
-0.491997
-0.462024
-0.431057
-0.400455
-0.371108
-0.343476
-0.317669
-0.293759
-0.271547
-0.610849
-0.595709
-0.583539
-0.567855
-0.547419
-0.52211
-0.492752
-0.460989
-0.428572
-0.396865
-0.366702
-0.33847
-0.312224
-0.288011
-0.265501
-0.618526
-0.60306
-0.590341
-0.573531
-0.551404
-0.524088
-0.492737
-0.459243
-0.425456
-0.392723
-0.361814
-0.333041
-0.306405
-0.28193
-0.259159
-0.625516
-0.609769
-0.596469
-0.578456
-0.554565
-0.525215
-0.491905
-0.456752
-0.421682
-0.388007
-0.356424
-0.32717
-0.300197
-0.275502
-0.252509
-0.631713
-0.615733
-0.601817
-0.582532
-0.556817
-0.525428
-0.490209
-0.453484
-0.417225
-0.382696
-0.350513
-0.32084
-0.293584
-0.268712
-0.245539
-0.637011
-0.620843
-0.606279
-0.585658
-0.55808
-0.524668
-0.487609
-0.44941
-0.412064
-0.376771
-0.344063
-0.314034
-0.28655
-0.261548
-0.238239
-0.641307
-0.624997
-0.609753
-0.587743
-0.55828
-0.522881
-0.484069
-0.444504
-0.406177
-0.370212
-0.337057
-0.306738
-0.279084
-0.253997
-0.230599
-0.644501
-0.628094
-0.612139
-0.588699
-0.557347
-0.520019
-0.479555
-0.438742
-0.399544
-0.363003
-0.329481
-0.298938
-0.271172
-0.24605
-0.222611
-0.646494
-0.630035
-0.613344
-0.588444
-0.555222
-0.516042
-0.474042
-0.432103
-0.392149
-0.355128
-0.32132
-0.290623
-0.262805
-0.2377
-0.214271
-0.647197
-0.630728
-0.61328
-0.586906
-0.551851
-0.510913
-0.467503
-0.424571
-0.383977
-0.346576
-0.312563
-0.28178
-0.253974
-0.228943
-0.205581
-0.646523
-0.630087
-0.611865
-0.584018
-0.547188
-0.504603
-0.459922
-0.416131
-0.375017
-0.337334
-0.303201
-0.272402
-0.244668
-0.219771
-0.196538
-0.644394
-0.628031
-0.609027
-0.579724
-0.541194
-0.497089
-0.451283
-0.406774
-0.36526
-0.327397
-0.293226
-0.262482
-0.234882
-0.210169
-0.187099
-0.64074
-0.62449
-0.604703
-0.573976
-0.533841
-0.488355
-0.441577
-0.396491
-0.3547
-0.316758
-0.282634
-0.252017
-0.224614
-0.200119
-0.177163
-0.635499
-0.6194
-0.598839
-0.566736
-0.525105
-0.478389
-0.430798
-0.385281
-0.343334
-0.305416
-0.271425
-0.24101
-0.213876
-0.189642
-0.166682
-0.628619
-0.612709
-0.591389
-0.557975
-0.514973
-0.467188
-0.418947
-0.373144
-0.331164
-0.293371
-0.259598
-0.229462
-0.202671
-0.178784
-0.155982
-0.620057
-0.604373
-0.582321
-0.547673
-0.503439
-0.454752
-0.406027
-0.360084
-0.318193
-0.280626
-0.247157
-0.217376
-0.190989
-0.167422
-0.145094
-0.609783
-0.59436
-0.571609
-0.535822
-0.490505
-0.44109
-0.392048
-0.346109
-0.304429
-0.267188
-0.23411
-0.204762
-0.178839
-0.155658
-0.133864
-0.597772
-0.582646
-0.559243
-0.52242
-0.47618
-0.426215
-0.377023
-0.331233
-0.289881
-0.253067
-0.22047
-0.191627
-0.166228
-0.143508
-0.12227
-0.584015
-0.569221
-0.545217
-0.507476
-0.460479
-0.410146
-0.360971
-0.31547
-0.274564
-0.238281
-0.206244
-0.17798
-0.153171
-0.130977
-0.110321
-0.568512
-0.554083
-0.529542
-0.491008
-0.443428
-0.392908
-0.343915
-0.298842
-0.258501
-0.222841
-0.191447
-0.163837
-0.139681
-0.118069
-0.0980343
-0.551271
-0.537242
-0.512233
-0.473041
-0.425055
-0.37453
-0.32588
-0.281372
-0.241708
-0.206767
-0.176099
-0.149212
-0.125774
-0.104797
-0.0854267
-0.532314
-0.518719
-0.493318
-0.45361
-0.405399
-0.35505
-0.306899
-0.263089
-0.224211
-0.190081
-0.160219
-0.134127
-0.111465
-0.0911732
-0.0725159
-0.511672
-0.498542
-0.472834
-0.432757
-0.384505
-0.334507
-0.287004
-0.244022
-0.206037
-0.17281
-0.143831
-0.118602
-0.0967752
-0.0772166
-0.0593208
-0.489383
-0.476751
-0.450824
-0.410536
-0.362426
-0.312929
-0.266241
-0.224207
-0.187218
-0.15498
-0.126961
-0.10266
-0.081725
-0.0629472
-0.0458623
-0.465496
-0.453396
-0.427345
-0.387013
-0.339204
-0.290372
-0.244646
-0.203682
-0.167788
-0.136623
-0.109636
-0.0863294
-0.0663385
-0.0483877
-0.0321637
-0.440066
-0.428535
-0.402465
-0.362248
-0.314855
-0.266917
-0.222272
-0.182489
-0.147784
-0.117772
-0.0918877
-0.0696368
-0.0506416
-0.033563
-0.0182514
-0.413157
-0.402242
-0.376271
-0.336241
-0.28951
-0.242597
-0.199167
-0.160673
-0.127246
-0.0984633
-0.0737484
-0.0526131
-0.034662
-0.0185007
-0.00415625
-0.38484
-0.374597
-0.348839
-0.309055
-0.263232
-0.217478
-0.175386
-0.13828
-0.106215
-0.0787343
-0.0552527
-0.03529
-0.0184289
-0.00323187
0.0100812
-0.355195
-0.345687
-0.320098
-0.280924
-0.236081
-0.191624
-0.150986
-0.115362
-0.084737
-0.0586246
-0.0364364
-0.0177008
-0.00197285
0.0122087
0.0244076
-0.324302
-0.315623
-0.290204
-0.251857
-0.208134
-0.165103
-0.126026
-0.0919707
-0.0628577
-0.0381758
-0.017337
0.000119815
0.0146756
0.0277894
0.0387741
-0.292229
-0.284404
-0.259411
-0.221928
-0.17947
-0.137986
-0.100568
-0.0681606
-0.0406255
-0.0174304
0.00200639
0.0181357
0.0314896
0.0434928
0.0531548
-0.259099
-0.252237
-0.227743
-0.191228
-0.15017
-0.110346
-0.0746757
-0.0439886
-0.0180905
0.003567
0.0215531
0.0363131
0.0484549
0.059305
0.0674427
-0.22518
-0.219084
-0.195275
-0.159854
-0.120319
-0.0822579
-0.0484161
-0.0195133
0.00469552
0.0247705
0.0412632
0.0546299
0.0655784
0.0751556
0.0812219
-0.190462
-0.185116
-0.162106
-0.127901
-0.090003
-0.053798
-0.0218572
0.0052048
0.0276788
0.0461317
0.0610989
0.073078
0.0828671
0.0908804
0.093983
-0.155025
-0.150478
-0.128342
-0.0954685
-0.0593112
-0.0250452
0.00493113
0.0301034
0.0508032
0.0676005
0.0810234
0.0916393
0.10025
0.106316
0.10644
-0.118994
-0.115288
-0.0940968
-0.0626578
-0.0283342
0.00392005
0.0318776
0.0551186
0.0740107
0.0891255
0.100995
0.110252
0.117542
0.121356
0.121818
-0.0824929
-0.0796602
-0.0594812
-0.0295711
0.00283624
0.0330163
0.0589094
0.0801851
0.0972425
0.110655
0.120962
0.128824
0.134693
0.136916
0.137877
-0.045646
-0.0437122
-0.02461
0.00368771
0.0341075
0.0621612
0.0859533
0.105237
0.120439
0.132135
0.140872
0.147303
0.151741
0.152691
0.15347
-0.00857837
-0.00756376
0.0104021
0.0370142
0.0653864
0.091272
0.112935
0.130208
0.14354
0.153511
0.16067
0.16565
0.168687
0.168504
0.168757
0.0285845
0.0286645
0.0454403
0.0703041
0.0965799
0.120266
0.139781
0.15503
0.166487
0.174727
0.180302
0.183823
0.185483
0.184198
0.183718
0.0657171
0.0648515
0.0803899
0.103453
0.127595
0.149059
0.166416
0.179639
0.189217
0.195729
0.19972
0.20178
0.202081
0.199694
0.198349
0.102694
0.100876
0.115137
0.136358
0.158339
0.177571
0.192768
0.203966
0.211672
0.216461
0.218874
0.219478
0.218433
0.214936
0.212643
0.139391
0.136617
0.149568
0.168917
0.188721
0.205719
0.218763
0.227947
0.233793
0.236871
0.237714
0.236873
0.234495
0.229883
0.226589
0.175685
0.171956
0.183573
0.201028
0.218651
0.233422
0.244328
0.251517
0.255521
0.256905
0.256195
0.253922
0.250227
0.244502
0.240174
0.211453
0.206774
0.217039
0.232591
0.248039
0.260602
0.269393
0.274612
0.276798
0.276512
0.27427
0.270584
0.26559
0.258761
0.253381
0.246576
0.240957
0.249861
0.263511
0.276799
0.28718
0.293889
0.297169
0.297568
0.295641
0.291893
0.286819
0.280548
0.272632
0.266193
0.280937
0.274389
0.281932
0.29369
0.304846
0.313081
0.317747
0.319128
0.317777
0.314243
0.309021
0.302587
0.295069
0.286085
0.27859
0.314422
0.306961
0.31315
0.323038
0.332096
0.338231
0.3409
0.340428
0.337371
0.33227
0.32561
0.317851
0.309117
0.299093
0.290549
0.346919
0.338566
0.343415
0.351463
0.358471
0.362558
0.363286
0.361013
0.356298
0.349676
0.341621
0.332574
0.322661
0.311626
0.302051
0.37832
0.369099
0.372631
0.37888
0.383892
0.385992
0.38484
0.380826
0.374509
0.366416
0.357011
0.34672
0.33567
0.323659
0.313072
0.408522
0.39846
0.400706
0.405205
0.408284
0.408468
0.405505
0.399813
0.391954
0.382446
0.371743
0.360255
0.348112
0.335163
0.323593
0.437426
0.426554
0.42755
0.430358
0.431578
0.429921
0.425221
0.417923
0.408587
0.397725
0.38578
0.373146
0.359959
0.346112
0.333591
0.464936
0.453289
0.453081
0.454264
0.453703
0.45029
0.443935
0.435106
0.424364
0.412213
0.399085
0.385361
0.371182
0.356482
0.343046
0.490964
0.478579
0.477217
0.47685
0.474597
0.469517
0.461594
0.451317
0.439244
0.425873
0.411626
0.396871
0.381754
0.366248
0.351938
0.515423
0.502342
0.499884
0.498049
0.494199
0.487548
0.47815
0.466511
0.453187
0.438668
0.42337
0.407645
0.391649
0.375387
0.360249
0.538235
0.524501
0.521011
0.517798
0.512451
0.504333
0.493557
0.480646
0.466155
0.450567
0.434288
0.417659
0.400844
0.383877
0.367961
0.559325
0.544986
0.540532
0.536036
0.529301
0.519823
0.507772
0.493685
0.478114
0.461537
0.444351
0.426887
0.409315
0.391697
0.375057
0.578626
0.563732
0.558388
0.552711
0.544701
0.533976
0.520756
0.505591
0.489032
0.471549
0.453533
0.435305
0.417043
0.398829
0.381522
0.596076
0.580678
0.574524
0.567774
0.558606
0.546751
0.532473
0.516333
0.49888
0.480579
0.461812
0.442894
0.424007
0.405256
0.387343
0.611618
0.595771
0.588891
0.581178
0.570976
0.558113
0.542891
0.525882
0.507631
0.488601
0.469166
0.449633
0.430191
0.410961
0.392507
0.625205
0.608964
0.601444
0.592887
0.581777
0.568029
0.551981
0.534211
0.515264
0.495595
0.475576
0.455505
0.435579
0.415931
0.397002
0.636792
0.620215
0.612146
0.602864
0.590977
0.576473
0.559719
0.541299
0.521756
0.501543
0.481026
0.460497
0.440158
0.420154
0.400819
0.646343
0.62949
0.620965
0.611082
0.598551
0.583421
0.566083
0.547126
0.527092
0.50643
0.485502
0.464595
0.443917
0.423619
0.40395
0.653829
0.636761
0.627876
0.617517
0.604478
0.588855
0.571056
0.551677
0.531257
0.510242
0.488992
0.467789
0.446845
0.426318
0.406388
0.659228
0.642005
0.632857
0.622151
0.608741
0.592758
0.574626
0.55494
0.534241
0.512971
0.491488
0.470071
0.448936
0.428244
0.408129
0.662522
0.645208
0.635895
0.624972
0.611329
0.595123
0.576782
0.556907
0.536035
0.514609
0.492983
0.471437
0.450185
0.429394
0.409171
0.663704
0.64636
0.636982
0.625972
0.612237
0.595942
0.57752
0.557573
0.536636
0.515151
0.493474
0.471881
0.450589
0.429764
0.409509
0.662772
0.64546
0.636117
0.62515
0.611461
0.595214
0.576839
0.556936
0.536042
0.514599
0.49296
0.471405
0.450146
0.429351
0.409136
0.659729
0.642513
0.633303
0.622509
0.609007
0.592942
0.574741
0.555
0.534256
0.512952
0.491443
0.470008
0.448859
0.428157
0.408053
0.654589
0.63753
0.628551
0.618059
0.604881
0.589134
0.571233
0.55177
0.531283
0.510217
0.488927
0.467695
0.44673
0.426186
0.406266
0.647369
0.630529
0.621878
0.611815
0.599098
0.583803
0.566325
0.547256
0.527132
0.5064
0.485419
0.464473
0.443767
0.423445
0.403789
0.638096
0.621534
0.613306
0.603797
0.591676
0.576963
0.560033
0.541471
0.521815
0.501514
0.480929
0.46035
0.439976
0.419942
0.400622
0.626801
0.610576
0.602864
0.594031
0.582638
0.568636
0.552375
0.534432
0.515347
0.495571
0.475469
0.455338
0.435367
0.415683
0.39677
0.613524
0.597694
0.590586
0.582548
0.572011
0.558847
0.543374
0.52616
0.507746
0.488587
0.469054
0.449448
0.429953
0.41068
0.392243
0.59831
0.58293
0.576512
0.569384
0.559828
0.547625
0.533055
0.516677
0.499033
0.480582
0.461701
0.442697
0.423747
0.404945
0.387049
0.581211
0.566334
0.560687
0.554579
0.546125
0.535003
0.521448
0.506011
0.489233
0.471578
0.453429
0.435102
0.416766
0.398493
0.381201
0.562284
0.547962
0.543165
0.538181
0.530945
0.521018
0.508588
0.494192
0.478372
0.461598
0.44426
0.426683
0.409027
0.391341
0.374711
0.541595
0.527876
0.524
0.520241
0.514333
0.505711
0.494511
0.481253
0.466482
0.450671
0.434219
0.417461
0.400549
0.383505
0.367594
0.519213
0.506143
0.503256
0.500814
0.496339
0.489128
0.479257
0.46723
0.453593
0.438825
0.423332
0.407461
0.391355
0.375005
0.359865
0.495214
0.482837
0.481
0.479961
0.477018
0.471317
0.462871
0.452164
0.439742
0.426092
0.411627
0.396706
0.381466
0.365862
0.35154
0.46968
0.458035
0.457303
0.457746
0.456426
0.45233
0.445398
0.436095
0.424967
0.412506
0.399135
0.385226
0.370907
0.356097
0.342639
0.442696
0.43182
0.432242
0.43424
0.434627
0.432222
0.426889
0.419069
0.409308
0.398104
0.385888
0.373048
0.359705
0.345735
0.333178
0.414354
0.404281
0.405898
0.409514
0.411685
0.411052
0.407397
0.401133
0.392807
0.382922
0.371921
0.360202
0.347886
0.334798
0.323179
0.38475
0.375509
0.378358
0.383646
0.38767
0.388882
0.386976
0.382337
0.375509
0.367002
0.357268
0.346722
0.335479
0.323314
0.312661
0.353984
0.345602
0.34971
0.356716
0.362653
0.365776
0.365684
0.362732
0.35746
0.350385
0.341968
0.332639
0.322513
0.311307
0.301646
0.32216
0.31466
0.320047
0.328809
0.33671
0.341801
0.343583
0.342373
0.33871
0.333115
0.326059
0.317989
0.309018
0.298805
0.290154
0.289387
0.282787
0.289466
0.300011
0.309918
0.317027
0.320734
0.321316
0.319308
0.315237
0.309582
0.302806
0.295027
0.285835
0.278206
0.255775
0.250092
0.258067
0.270412
0.282358
0.291526
0.297201
0.299619
0.299307
0.296797
0.292577
0.287129
0.280571
0.272424
0.265824
0.221439
0.216683
0.225952
0.240106
0.254112
0.265372
0.273051
0.277342
0.278759
0.277843
0.275088
0.270994
0.265685
0.2586
0.253027
0.186495
0.182674
0.193227
0.209186
0.225265
0.23864
0.248353
0.254544
0.25772
0.258425
0.25716
0.254441
0.250402
0.244393
0.239833
0.151062
0.148181
0.159998
0.17775
0.195904
0.211407
0.223174
0.231289
0.236246
0.238592
0.238836
0.237511
0.234759
0.229832
0.226259
0.11526
0.113318
0.126374
0.145896
0.166117
0.183754
0.197586
0.207639
0.214394
0.218397
0.220163
0.220245
0.218796
0.214949
0.212317
0.0792116
0.0782052
0.0924658
0.113724
0.135993
0.155758
0.171659
0.18366
0.192221
0.197891
0.201188
0.202685
0.202554
0.199782
0.198018
0.043038
0.0429598
0.0583847
0.0813353
0.105623
0.127501
0.145467
0.159415
0.169787
0.177129
0.18196
0.184873
0.186079
0.184382
0.183363
0.00686235
0.00770068
0.0242425
0.0488316
0.0750965
0.0990639
0.119082
0.134971
0.14715
0.156163
0.162527
0.166852
0.16942
0.168824
0.168352
-0.0291929
-0.0274539
-0.00984885
0.0163148
0.0445058
0.0705277
0.0925754
0.110392
0.124369
0.13505
0.142942
0.148662
0.152621
0.153252
0.152985
-0.0650057
-0.0623868
-0.0437774
-0.0161132
0.0139416
0.0419736
0.0660212
0.0857442
0.101504
0.113842
0.123257
0.130343
0.135685
0.137837
0.13708
-0.100454
-0.0969817
-0.0774317
-0.0483507
-0.0165051
0.0134824
0.0394911
0.0610921
0.078613
0.0925922
0.103526
0.111945
0.118581
0.122894
0.121721
-0.135421
-0.131127
-0.110702
-0.0802976
-0.0467446
-0.0148658
0.0130565
0.0365001
0.0557539
0.0713529
0.0838002
0.0935609
0.101368
0.107587
0.109263
-0.169783
-0.16471
-0.14348
-0.111855
-0.076688
-0.0429923
-0.0132124
0.0120311
0.0329841
0.0501747
0.0641209
0.0752499
0.0842161
0.0919927
0.096527
-0.20343
-0.197612
-0.175661
-0.142925
-0.106248
-0.0708195
-0.0392469
-0.0122535
0.010359
0.0291072
0.0445251
0.0570299
0.067186
0.0762365
0.0827875
-0.236334
-0.229673
-0.207145
-0.173414
-0.135339
-0.0982719
-0.0649797
-0.036294
-0.0120683
0.00819808
0.0250502
0.03891
0.0502729
0.0604772
0.0685226
-0.268391
-0.260812
-0.237848
-0.203228
-0.163877
-0.125276
-0.0903458
-0.0600326
-0.0342466
-0.0125071
0.00573599
0.0209137
0.033475
0.0447921
0.0541403
-0.299392
-0.290979
-0.267712
-0.232276
-0.191783
-0.15176
-0.115282
-0.0834133
-0.0561263
-0.0329643
-0.0133771
0.00307521
0.0168091
0.0291999
0.0397521
-0.32925
-0.320086
-0.296608
-0.260476
-0.218977
-0.177656
-0.139728
-0.106382
-0.0776596
-0.0531308
-0.0322499
-0.0145691
0.0003029
0.0137198
0.0253863
-0.357897
-0.348042
-0.324314
-0.287849
-0.245379
-0.202898
-0.163625
-0.128887
-0.0988003
-0.0729655
-0.050845
-0.0319843
-0.0160128
-0.00161623
0.0110901
-0.385257
-0.374766
-0.350871
-0.314215
-0.270902
-0.227426
-0.186917
-0.150879
-0.119504
-0.0924288
-0.0691263
-0.0491372
-0.0321071
-0.0167732
-0.00308428
-0.411261
-0.400182
-0.37622
-0.339319
-0.295635
-0.251183
-0.20955
-0.172312
-0.13973
-0.111483
-0.0870592
-0.0659956
-0.0479502
-0.0317196
-0.0170968
-0.435844
-0.424217
-0.400295
-0.363325
-0.319318
-0.274096
-0.231475
-0.19314
-0.159438
-0.130092
-0.104611
-0.0825289
-0.0635139
-0.0464271
-0.0309165
-0.458953
-0.446813
-0.423026
-0.386156
-0.341913
-0.296123
-0.252642
-0.213323
-0.17859
-0.148223
-0.121751
-0.0987084
-0.0787719
-0.0608704
-0.0445169
-0.480541
-0.467919
-0.444351
-0.40773
-0.363417
-0.317203
-0.273017
-0.232822
-0.197154
-0.165845
-0.13845
-0.114508
-0.0936999
-0.075026
-0.057874
-0.500568
-0.487498
-0.464225
-0.427992
-0.383786
-0.337304
-0.292553
-0.251602
-0.215096
-0.182931
-0.154683
-0.129903
-0.108276
-0.0888726
-0.0709663
-0.519003
-0.505518
-0.482615
-0.446901
-0.402971
-0.356391
-0.311216
-0.269634
-0.232391
-0.199454
-0.170426
-0.144872
-0.12248
-0.102391
-0.0837741
-0.535824
-0.52196
-0.499493
-0.464425
-0.420936
-0.374425
-0.328977
-0.286892
-0.249012
-0.215391
-0.185656
-0.159396
-0.136294
-0.115566
-0.096279
-0.55102
-0.536812
-0.514842
-0.480538
-0.437651
-0.391379
-0.34581
-0.303351
-0.264953
-0.230715
-0.200357
-0.173461
-0.149703
-0.128383
-0.108462
-0.564589
-0.550075
-0.528653
-0.495223
-0.453093
-0.407226
-0.361691
-0.318987
-0.280178
-0.245432
-0.214506
-0.187052
-0.162693
-0.140834
-0.120303
-0.576541
-0.561756
-0.540928
-0.508471
-0.467245
-0.42195
-0.376604
-0.333786
-0.294672
-0.259518
-0.228126
-0.200135
-0.175252
-0.152913
-0.131779
-0.586893
-0.571877
-0.551678
-0.520281
-0.480099
-0.435537
-0.390534
-0.347737
-0.308429
-0.272957
-0.241173
-0.212736
-0.18737
-0.164616
-0.142885
-0.595675
-0.580465
-0.560923
-0.530663
-0.491653
-0.447978
-0.403472
-0.360833
-0.321443
-0.285742
-0.253644
-0.224836
-0.199047
-0.175894
-0.153696
-0.602924
-0.58756
-0.568696
-0.539633
-0.501913
-0.459274
-0.415416
-0.373067
-0.33371
-0.297873
-0.265537
-0.236427
-0.210277
-0.186809
-0.164657
-0.608688
-0.59321
-0.575035
-0.547219
-0.51089
-0.469428
-0.426364
-0.38444
-0.345228
-0.309348
-0.276852
-0.247507
-0.221059
-0.19728
-0.174984
-0.613023
-0.597472
-0.579991
-0.553456
-0.518607
-0.478449
-0.436322
-0.394955
-0.355999
-0.320169
-0.287589
-0.258074
-0.231382
-0.207307
-0.18476
-0.615992
-0.600411
-0.583621
-0.558387
-0.525091
-0.486355
-0.445299
-0.404617
-0.366029
-0.330341
-0.297752
-0.268129
-0.241248
-0.216923
-0.19414
-0.617667
-0.602099
-0.585992
-0.562066
-0.530378
-0.493167
-0.453309
-0.413437
-0.375327
-0.339872
-0.307348
-0.277679
-0.250662
-0.226144
-0.203177
-0.618127
-0.602614
-0.587178
-0.564552
-0.534511
-0.498913
-0.46037
-0.42143
-0.383904
-0.348772
-0.316387
-0.286731
-0.259633
-0.234971
-0.211869
-0.617453
-0.602042
-0.587258
-0.565913
-0.537539
-0.503628
-0.466506
-0.428611
-0.391775
-0.357053
-0.32488
-0.295298
-0.268169
-0.243407
-0.220212
-0.615734
-0.60047
-0.586318
-0.566223
-0.53952
-0.507349
-0.471744
-0.435002
-0.398957
-0.364732
-0.33284
-0.303391
-0.276281
-0.251457
-0.228209
-0.613062
-0.597991
-0.584447
-0.565562
-0.540516
-0.510124
-0.476115
-0.440626
-0.405469
-0.371824
-0.340284
-0.311024
-0.28398
-0.259134
-0.235867
-0.609531
-0.594696
-0.581737
-0.564014
-0.540596
-0.512
-0.479654
-0.445508
-0.411332
-0.378351
-0.347229
-0.318212
-0.29128
-0.266446
-0.243196
-0.605236
-0.590683
-0.578284
-0.561667
-0.539832
-0.513034
-0.4824
-0.449678
-0.41657
-0.384331
-0.353693
-0.324971
-0.298196
-0.273407
-0.250204
-0.600272
-0.586045
-0.574183
-0.558612
-0.538304
-0.513286
-0.484398
-0.453168
-0.421209
-0.389787
-0.359696
-0.331321
-0.304743
-0.28003
-0.256902
-0.594734
-0.580875
-0.569527
-0.55494
-0.536091
-0.512819
-0.485693
-0.456012
-0.425275
-0.394743
-0.36526
-0.337279
-0.310939
-0.28633
-0.263302
-0.588716
-0.575264
-0.564409
-0.550743
-0.533276
-0.5117
-0.486335
-0.458246
-0.428797
-0.399223
-0.370407
-0.342867
-0.316801
-0.292322
-0.269417
-0.582305
-0.569299
-0.558918
-0.546111
-0.529943
-0.509999
-0.486377
-0.459908
-0.431805
-0.403252
-0.37516
-0.348106
-0.322349
-0.298024
-0.275259
-0.575588
-0.563061
-0.55314
-0.54113
-0.526176
-0.507788
-0.485875
-0.461041
-0.434328
-0.406855
-0.379542
-0.353017
-0.327603
-0.303453
-0.280844
-0.568647
-0.55663
-0.547154
-0.535884
-0.522057
-0.50514
-0.484887
-0.461685
-0.4364
-0.410059
-0.383577
-0.357623
-0.332582
-0.308627
-0.286187
-0.561557
-0.550076
-0.541035
-0.530453
-0.517664
-0.502127
-0.483471
-0.461887
-0.438054
-0.412891
-0.387288
-0.361944
-0.337309
-0.313566
-0.291304
-0.55439
-0.543466
-0.534851
-0.524907
-0.513074
-0.498822
-0.481689
-0.461692
-0.439323
-0.415376
-0.390698
-0.366004
-0.341802
-0.318288
-0.296213
-0.547208
-0.536859
-0.528662
-0.519314
-0.508358
-0.495293
-0.479601
-0.461146
-0.440242
-0.417542
-0.39383
-0.369823
-0.346083
-0.322812
-0.30093
-0.540069
-0.530307
-0.522523
-0.513732
-0.503579
-0.491608
-0.477268
-0.4603
-0.440847
-0.419415
-0.396707
-0.373423
-0.350172
-0.327158
-0.305473
-0.533026
-0.523856
-0.51648
-0.508214
-0.498798
-0.487829
-0.474748
-0.459201
-0.441174
-0.421022
-0.39935
-0.376823
-0.354089
-0.331344
-0.309861
-0.526122
-0.517546
-0.510573
-0.502804
-0.494065
-0.484012
-0.472099
-0.457898
-0.441261
-0.422391
-0.40178
-0.380042
-0.357852
-0.335389
-0.314113
-0.519396
-0.511408
-0.504834
-0.497539
-0.489426
-0.48021
-0.469372
-0.456439
-0.441145
-0.423547
-0.404018
-0.383097
-0.361478
-0.339309
-0.318247
-0.51288
-0.50547
-0.499291
-0.49245
-0.484917
-0.476468
-0.466619
-0.454869
-0.440862
-0.424517
-0.406081
-0.386005
-0.364984
-0.343121
-0.322283
-0.506599
-0.499752
-0.493963
-0.48756
-0.48057
-0.472826
-0.463882