/*--------------------------------*- C++ -*----------------------------------*\
  =========                 |
  \\      /  F ield         | OpenFOAM: The Open Source CFD Toolbox
   \\    /   O peration     | Website:  https://openfoam.org
    \\  /    A nd           | Version:  7
     \\/     M anipulation  |
\*---------------------------------------------------------------------------*/
FoamFile
{
    version     2.0;
    format      ascii;
    class       surfaceScalarField;
    location    "140";
    object      phi;
}
// * * * * * * * * * * * * * * * * * * * * * * * * * * * * * * * * * * * * * //

dimensions      [0 3 -1 0 0 0 0];

internalField   nonuniform List<scalar> 
39691
(
-1.28373e-06
7.94721e-05
-7.81883e-05
-5.43357e-06
0.000226297
-0.000222147
-1.28868e-05
0.000366418
-0.000358965
-2.39347e-05
0.000496028
-0.00048498
-3.86149e-05
0.000613029
-0.000598349
-5.6675e-05
0.000717536
-0.000699476
-7.76033e-05
0.00081175
-0.000790822
-0.000100714
0.0008994
-0.000876289
-0.000125251
0.000984834
-0.000960296
-0.000150487
0.00107208
-0.00104684
-0.000175768
0.0011641
-0.00113882
-0.000200515
0.00126236
-0.00123761
-0.000224179
0.00136662
-0.00134296
-0.000246154
0.0014749
-0.00145293
0.00158352
-0.00156385
-0.00026582
-6.54164e-07
8.01262e-05
-3.22427e-06
0.000228867
-8.3401e-06
0.000371534
-1.64643e-05
0.000504152
-2.77735e-05
0.000624339
-4.21084e-05
0.000731871
-5.89928e-05
0.000828634
-7.77115e-05
0.000918118
-9.7416e-05
0.00100454
-0.000117223
0.00109189
-0.000136275
0.00118315
-0.00015375
0.00127983
-0.000168833
0.00138171
-0.000180673
0.00148674
0.00159124
-0.000188388
-4.71574e-08
8.01734e-05
-1.05439e-06
0.000229874
-3.8313e-06
0.000374311
-8.99007e-06
0.000509311
-1.68361e-05
0.000632185
-2.73007e-05
0.000742335
-3.99458e-05
0.000841279
-5.40309e-05
0.000932203
-6.86157e-05
0.00101912
-8.26624e-05
0.00110593
-9.51061e-05
0.0011956
-0.000104876
0.0012896
-0.000110893
0.00138772
-0.000112064
0.00148791
0.00158641
-0.000107242
5.41865e-07
7.96315e-05
1.04409e-06
0.000229372
5.73325e-07
0.000374782
-1.61757e-06
0.000511502
-5.95119e-06
0.000636518
-1.24443e-05
0.000748828
-2.06995e-05
0.000849535
-2.99574e-05
0.000941461
-3.91932e-05
0.00102836
-4.72205e-05
0.00111396
-5.2771e-05
0.00120115
-5.45318e-05
0.00129136
-5.11565e-05
0.00138435
-4.13219e-05
0.00147808
0.00156884
-2.37489e-05
1.0882e-06
7.85433e-05
3.03788e-06
0.000227422
4.80704e-06
0.000373013
5.54506e-06
0.000510764
4.72952e-06
0.000637334
2.26235e-06
0.000751296
-1.5014e-06
0.000853298
-5.79226e-06
0.000945752
-9.51097e-06
0.00103208
-1.13348e-05
0.00111578
-9.80392e-06
0.00119962
-3.37316e-06
0.00128493
9.54631e-06
0.00137143
3.05294e-05
0.0014571
0.00153842
6.09494e-05
1.59045e-06
7.69529e-05
4.89772e-06
0.000224115
8.80848e-06
0.000369102
1.23952e-05
0.000507177
1.50545e-05
0.000634675
1.66164e-05
0.000749734
1.73917e-05
0.000852523
1.81522e-05
0.000944992
2.00548e-05
0.00103017
2.45418e-05
0.0011113
3.32448e-05
0.00119091
4.79183e-05
0.00127026
7.03873e-05
0.00134896
0.000102391
0.00142509
0.00149527
0.00014554
2.04089e-06
7.4912e-05
6.59642e-06
0.000219559
1.25181e-05
0.00036318
1.88318e-05
0.000500864
2.48746e-05
0.000628632
3.0416e-05
0.000744192
3.57225e-05
0.000847217
4.15575e-05
0.000939157
4.912e-05
0.00102261
5.99491e-05
0.00110047
7.58249e-05
0.00117504
9.86873e-05
0.00124739
0.000130567
0.00131708
0.00017338
0.00138228
0.0014398
0.000228852
2.43328e-06
7.24787e-05
8.10965e-06
0.000213883
1.58815e-05
0.000355409
2.47597e-05
0.000491985
3.4046e-05
0.000619346
4.34622e-05
0.000734776
5.32328e-05
0.000837446
6.41038e-05
0.000928286
7.72978e-05
0.00100942
9.44265e-05
0.00108334
0.000117389
0.00115207
0.000148279
0.0012165
0.000189308
0.00127605
0.000242546
0.00132904
0.00137255
0.000309798
2.76256e-06
6.97162e-05
9.41649e-06
0.000207229
1.88503e-05
0.000345975
3.0092e-05
0.000480744
4.2433e-05
0.000607005
5.55638e-05
0.000721645
6.96711e-05
0.000823339
8.5476e-05
0.000912481
0.000104206
0.000990688
0.00012752
0.00106003
0.000157403
0.00112219
0.00019607
0.00117784
0.000245879
0.00122624
0.000309035
0.00126588
0.00129418
0.000387401
3.02484e-06
6.66913e-05
1.04997e-05
0.000199754
2.13831e-05
0.000335091
3.4751e-05
0.000467376
4.99117e-05
0.000591844
6.65421e-05
0.000705015
8.47978e-05
0.000805083
0.00010537
0.000891909
0.000129474
0.000966583
0.000158789
0.00103071
0.000195354
0.00108563
0.00024147
0.00113172
0.000299605
0.00116811
0.000372082
0.00119341
0.00120544
0.00046082
3.21739e-06
6.34739e-05
1.13462e-05
0.000191625
2.34457e-05
0.000322992
3.86709e-05
0.000452151
5.63728e-05
0.000574142
7.62348e-05
0.000685153
9.83909e-05
0.000782927
0.000123499
0.0008668
0.000152751
0.000937332
0.000187817
0.000995645
0.000230762
0.00104268
0.000283933
0.00107855
0.000349878
0.00110216
0.000431019
0.00111226
0.0011071
0.000529361
3.3386e-06
6.01353e-05
1.19466e-05
0.000183018
2.50128e-05
0.000309926
4.17989e-05
0.000435364
6.1725e-05
0.000554216
8.45014e-05
0.000662376
0.000110253
0.000757176
0.000139605
0.000837448
0.000173712
0.000903225
0.00021422
0.000955138
0.000263184
0.000993717
0.000322967
0.00101877
0.000396166
0.00102897
0.000485284
0.00102315
0.000999899
0.000592487
3.38794e-06
5.67474e-05
1.22959e-05
0.00017411
2.60675e-05
0.000296154
4.40968e-05
0.000417335
6.58976e-05
0.000532415
9.12278e-05
0.000637046
0.000120217
0.000728187
0.000153463
0.000804202
0.000192076
0.000864611
0.000237658
0.000909556
0.000292232
0.000939143
0.000358148
0.00095285
0.000438027
0.000949087
0.000534441
0.000926732
0.000884498
0.000649842
3.36591e-06
5.33815e-05
1.23934e-05
0.000165082
2.66028e-05
0.000281944
4.55429e-05
0.000398395
6.88437e-05
0.000509114
9.63313e-05
0.000609559
0.000128155
0.000696363
0.000164893
0.000767464
0.00020761
0.000821894
0.000257852
0.000859314
0.000317591
0.000879404
0.000389142
0.000881299
0.000475136
0.000863093
0.000578205
0.000823663
0.000761415
0.000701288
3.27404e-06
5.01074e-05
1.22426e-05
0.000156114
2.66215e-05
0.000267566
4.6133e-05
0.000378884
7.05433e-05
0.000484704
9.9766e-05
0.000580336
0.000133987
0.000662143
0.000173775
0.000727676
0.000220152
0.000775517
0.000274604
0.000804863
0.000339041
0.000814966
0.000415732
0.000804608
0.000507319
0.000771507
0.00061649
0.000714492
0.000630946
0.000746958
3.1149e-06
4.69925e-05
1.18516e-05
0.000147377
2.61369e-05
0.00025328
4.58822e-05
0.000359138
7.10063e-05
0.00045958
0.000101528
0.000549814
0.000137687
0.000625984
0.000180056
0.000685307
0.000229624
0.000725949
0.00028782
0.000746667
0.000356493
0.000746293
0.000437867
0.000723234
0.00053461
0.000674763
0.000649483
0.000599619
0.00049309
0.00078734
2.89221e-06
4.41003e-05
1.12334e-05
0.000139036
2.51742e-05
0.000239339
4.48265e-05
0.000339486
7.02758e-05
0.000434131
0.000101662
0.000518427
0.000139295
0.000588352
0.00018377
0.000640831
0.000236058
0.000673661
0.000297543
0.000685182
0.00037003
0.000673806
0.000455715
0.000637549
0.000557329
0.000573149
0.00067774
0.000479208
0.000347457
0.000823373
2.61096e-06
4.14894e-05
1.04065e-05
0.00013124
2.37704e-05
0.000225976
4.30246e-05
0.000320232
6.84314e-05
0.000408724
0.000100266
0.000486592
0.000138928
0.00054969
0.000185053
0.000594706
0.000239617
0.000619097
0.000303989
0.00062081
0.000379956
0.00059784
0.00046973
0.000547774
0.000576162
0.000466717
0.000702288
0.000353082
0.000193199
0.000856546
2.27764e-06
3.92117e-05
9.39484e-06
0.000124123
2.19764e-05
0.000213394
4.05597e-05
0.000301649
6.55924e-05
0.000383691
9.74987e-05
0.000454686
0.000136784
0.000510405
0.000184155
0.000547335
0.000240621
0.00056263
0.000307577
0.000553854
0.000386845
0.000518572
0.00048072
0.000453899
0.000592245
0.000355193
0.000724722
0.000220604
2.89753e-05
0.000888946
1.90048e-06
3.73112e-05
8.22918e-06
0.000117794
1.98572e-05
0.000201766
3.75411e-05
0.000283965
6.19207e-05
0.000359311
9.35816e-05
0.000423025
0.000133159
0.000470828
0.000181457
0.000499037
0.000239568
0.000504519
0.000308965
0.000484457
0.000391583
0.000435954
0.000489892
0.00035559
0.000607207
0.000237878
0.000747236
8.05749e-05
-0.000147008
0.00092322
1.48963e-06
3.58216e-05
6.94695e-06
0.000112337
1.74927e-05
0.00019122
3.41051e-05
0.000267352
5.76222e-05
0.000335794
8.88054e-05
0.000391842
0.000128444
0.00043119
0.000177481
0.00045
0.000237144
0.000444856
0.000309063
0.000412538
0.00039538
0.000349637
0.000498859
0.00025211
0.000623153
0.000113584
0.000772554
-6.88265e-05
-0.000336839
0.000962385
1.05728e-06
3.47643e-05
5.59254e-06
0.000107802
1.49778e-05
0.000181835
3.04147e-05
0.000251915
5.29466e-05
0.000313262
8.35271e-05
0.000361262
0.00012313
0.000391587
0.000172886
0.000400244
0.000234226
0.000383516
0.000309029
0.000337735
0.000399754
0.000258912
0.000509586
0.000142278
0.000642542
-1.93709e-05
0.000803705
-0.00022999
-0.000542604
0.00100947
6.17673e-07
3.41467e-05
4.21692e-06
0.000104202
1.24213e-05
0.000173631
2.66575e-05
0.000237679
4.81835e-05
0.000291736
7.81658e-05
0.000331279
0.0001178
0.000351952
0.00016846
0.000349584
0.000231861
0.000320115
0.000310229
0.000259367
0.000406455
0.000162686
0.000524256
2.44773e-05
0.000667962
-0.000163077
0.000843657
-0.000405685
-0.000765952
0.001067
1.86912e-07
3.39598e-05
2.87654e-06
0.000101513
9.94309e-06
0.000166564
2.30412e-05
0.000224581
4.36552e-05
0.000271122
7.31903e-05
0.000301744
0.000113108
0.000312035
0.000165088
0.000297604
0.000231214
0.000253988
0.00031416
0.000176422
0.000417338
5.95075e-05
0.000545063
-0.000103248
0.000701824
-0.000319837
0.000894845
-0.000598706
-0.00100756
0.00113645
-2.18302e-07
3.41781e-05
1.63144e-06
9.9663e-05
7.67061e-06
0.000160525
1.97862e-05
0.000212466
3.97049e-05
0.000251204
6.91009e-05
0.000272348
0.000109749
0.000271387
0.000163704
0.000243649
0.000233499
0.000184193
0.000322332
8.75889e-05
0.000434188
-5.23487e-05
0.000573953
-0.000243013
0.000746018
-0.000491902
0.000958698
-0.000811386
-0.00126659
0.00121773
-5.79167e-07
3.47572e-05
5.43424e-07
9.85404e-05
5.73325e-06
0.000155335
1.71163e-05
0.000201083
3.66804e-05
0.00023164
6.64032e-05
0.000242625
0.000108423
0.000229368
0.000165233
0.00018684
0.000239881
0.000109544
0.000336136
-8.66564e-06
0.000458528
-0.000174741
0.00061236
-0.000396845
0.000801615
-0.000681157
0.00103528
-0.00104505
-0.00154027
0.00130896
-8.79077e-07
3.56363e-05
-3.26072e-07
9.79874e-05
4.25555e-06
0.000150753
1.52463e-05
0.000190092
3.49149e-05
0.000211971
6.55775e-05
0.000211963
0.000109784
0.000185161
0.000170517
0.000126106
0.000251378
2.86828e-05
0.000356693
-0.000113981
0.000491428
-0.000309475
0.000660993
-0.00056641
0.000868667
-0.000888831
0.00112314
-0.00129952
-0.00182383
0.0014067
-1.10276e-06
3.67391e-05
-9.31696e-07
9.78163e-05
3.34901e-06
0.000146473
1.43698e-05
0.000179071
3.47061e-05
0.000191635
6.70469e-05
0.000179622
0.000114392
0.000137816
0.000180246
6.02525e-05
0.000268758
-5.98291e-05
0.000384734
-0.000229957
0.000533369
-0.00045811
0.000719721
-0.000752762
0.000946157
-0.00111527
0.0012193
-0.00157267
-0.00211108
0.00150655
-1.23703e-06
3.79761e-05
-1.22204e-06
9.78014e-05
3.10739e-06
0.000142143
1.46463e-05
0.000167532
3.62965e-05
0.000169985
7.11469e-05
0.000144771
0.000122672
8.62909e-05
0.000194896
-1.19719e-05
0.000292464
-0.000157397
0.000420509
-0.000358002
0.000584166
-0.000621767
0.0007876
-0.000956196
0.00103216
-0.00135983
0.00131969
-0.0018602
-0.00239562
0.00160423
-1.2728e-06
3.92489e-05
-1.16719e-06
9.76958e-05
3.59863e-06
0.000137377
1.61921e-05
0.000154939
3.9858e-05
0.000146319
7.81029e-05
0.000106526
0.000134878
2.95157e-05
0.000214693
-9.17865e-05
0.000322574
-0.000265278
0.000463757
-0.000499184
0.000642954
-0.000800965
0.000862941
-0.00117618
0.00112404
-0.00162092
0.00142007
-0.00215624
-0.00267277
0.00169722
-1.20523e-06
4.04541e-05
-7.48954e-07
9.72395e-05
4.86203e-06
0.000131766
1.90728e-05
0.000140728
4.54821e-05
0.000119909
8.80169e-05
6.39915e-05
0.000151083
-3.35504e-05
0.000239597
-0.000180301
0.000358802
-0.000384483
0.000513734
-0.000654116
0.00070826
-0.000995491
0.000943329
-0.00141125
0.00121805
-0.00189564
0.00151796
-0.00245615
-0.00294371
0.00178891
-1.03426e-06
4.14884e-05
4.66393e-08
9.61586e-05
6.90646e-06
0.000124907
2.3302e-05
0.000124332
5.31778e-05
9.00337e-05
0.000100868
1.63017e-05
0.000171181
-0.000103864
0.000269326
-0.000278445
0.000400538
-0.000515695
0.000569305
-0.000822884
0.000778179
-0.00120436
0.00102586
-0.00165893
0.00130874
-0.00217853
0.00160793
-0.00275534
-0.00329481
0.00195903
-7.66524e-07
4.22549e-05
1.17276e-06
9.42193e-05
9.70999e-06
0.000116369
2.88452e-05
0.000105197
6.28785e-05
5.60004e-05
0.000116521
-3.73411e-05
0.000194909
-0.000182252
0.000303384
-0.000386919
0.000446912
-0.000659223
0.000629055
-0.00100503
0.000850588
-0.0014259
0.00110772
-0.00191607
0.00139328
-0.00246409
0.00168801
-0.00305007
-0.00361127
0.00200447
-4.08663e-07
4.26636e-05
2.64562e-06
9.1165e-05
1.3232e-05
0.000105783
3.56259e-05
8.28032e-05
7.44529e-05
1.71734e-05
0.000134752
-9.76399e-05
0.000221879
-0.00026938
0.00034112
-0.000506161
0.000496879
-0.000814982
0.000691409
-0.00119956
0.000923329
-0.00165782
0.00118621
-0.00217895
0.00146936
-0.00274724
0.00175453
-0.00333523
-0.00389881
0.00204207
4.20133e-08
4.26216e-05
4.42109e-06
8.67859e-05
1.741e-05
9.27942e-05
4.35369e-05
5.66763e-05
8.77231e-05
-2.70128e-05
0.000155267
-0.000165183
0.000251615
-0.000365729
0.000381779
-0.000636325
0.000549287
-0.00098249
0.00075473
-0.001405
0.000994313
-0.0018974
0.00125904
-0.00244368
0.00153562
-0.00302382
0.00180687
-0.00360648
-0.0041603
0.00206836
5.45729e-07
4.20758e-05
6.46076e-06
8.08709e-05
2.21713e-05
7.70837e-05
5.24524e-05
2.63951e-05
0.000102482
-7.70421e-05
0.000177732
-0.000240434
0.000283588
-0.000471585
0.000424545
-0.000777281
0.000602938
-0.00116088
0.000817395
-0.00161946
0.00106161
-0.00214162
0.00132433
-0.00270639
0.00159071
-0.0032902
0.00184503
-0.0038608
-0.00439683
0.00208156
1.1139e-06
4.09619e-05
8.72972e-06
7.32551e-05
2.744e-05
5.83734e-05
6.22394e-05
-8.40424e-06
0.00011851
-0.000133312
0.000201797
-0.000323721
0.000317246
-0.000587035
0.000468579
-0.000928614
0.000656635
-0.00134894
0.000877864
-0.00184068
0.00112354
-0.0023873
0.00138062
-0.00296348
0.00163383
-0.0035434
0.00186933
-0.00409631
-0.00460939
0.0020819
1.72939e-06
3.92325e-05
1.11931e-05
6.37913e-05
3.31434e-05
3.64231e-05
7.27671e-05
-4.80279e-05
0.000135588
-0.000196133
0.000227105
-0.000415238
0.000352031
-0.000711961
0.000513043
-0.00108963
0.000709218
-0.00154511
0.000934725
-0.00206619
0.00117869
-0.00263126
0.00142695
-0.00321173
0.0016647
-0.00378116
0.00188046
-0.00431207
-0.00479928
0.00207034
2.38367e-06
3.68489e-05
1.38209e-05
5.23541e-05
3.92158e-05
1.10282e-05
8.3914e-05
-9.27261e-05
0.000153507
-0.000265726
0.000253311
-0.000515042
0.000387389
-0.000846039
0.000557113
-0.00125935
0.000759589
-0.00174759
0.000986742
-0.00229335
0.00122598
-0.0028705
0.00146275
-0.00344851
0.00168352
-0.00400193
0.00187939
-0.00450794
-0.00496806
0.00204817
3.07071e-06
3.37782e-05
1.65894e-05
3.88353e-05
4.56011e-05
-1.79834e-05
9.55699e-05
-0.000142695
0.000172067
-0.000342224
0.000280072
-0.000623046
0.000422773
-0.000988741
0.000599992
-0.00143657
0.000806737
-0.00195434
0.00103288
-0.00251949
0.00126467
-0.00310228
0.0014879
-0.00367173
0.00169087
-0.0042049
0.00186733
-0.00468439
-0.00511754
0.00201681
3.78694e-06
2.99912e-05
1.94811e-05
2.31412e-05
5.22527e-05
-5.07551e-05
0.000107636
-0.000198078
0.00019108
-0.000425668
0.000307054
-0.00073902
0.000457645
-0.00113933
0.000640915
-0.00161984
0.000849766
-0.00216319
0.00107234
-0.00274206
0.00129436
-0.0033243
0.0015026
-0.00387998
0.00168758
-0.00438988
0.00184557
-0.00484238
-0.00524964
0.00197767
4.53086e-06
2.54604e-05
2.24835e-05
5.18859e-06
5.91318e-05
-8.74034e-05
0.000120019
-0.000258965
0.000210358
-0.000516007
0.000333921
-0.000862583
0.000491471
-0.00129688
0.000679168
-0.00180753
0.000887911
-0.00237193
0.00110456
-0.00295872
0.00131495
-0.00353468
0.00150737
-0.0040724
0.00167466
-0.00455717
0.00181543
-0.00498315
-0.00536629
0.00193207
5.30253e-06
2.01578e-05
2.5588e-05
-1.50969e-05
6.62037e-05
-0.000128019
0.000132632
-0.000325393
0.000229714
-0.000613089
0.000360335
-0.000993204
0.000523733
-0.00146028
0.0007141
-0.0019979
0.000920565
-0.00257839
0.00112923
-0.00316739
0.00132662
-0.00373207
0.00150289
-0.00424866
0.00165322
-0.0047075
0.00177819
-0.00510812
-0.00546932
0.00188122
6.10279e-06
1.4055e-05
2.87874e-05
-3.77815e-05
7.34347e-05
-0.000172666
0.000145381
-0.00039734
0.000248952
-0.000716659
0.000385949
-0.0011302
0.000553928
-0.00162826
0.000745144
-0.00218912
0.000947289
-0.00278054
0.00114626
-0.00336636
0.00132976
-0.00391557
0.00149
-0.0044089
0.00162436
-0.00484186
0.00173503
-0.0052188
-0.00556044
0.00182616
6.93251e-06
7.12253e-06
3.20741e-05
-6.29231e-05
8.07881e-05
-0.00022138
0.000158168
-0.000474719
0.000267865
-0.000826357
0.000410416
-0.00127275
0.000581589
-0.00179943
0.000771832
-0.00237936
0.000967819
-0.00297653
0.00115577
-0.00355431
0.00132492
-0.00408472
0.0014696
-0.00455358
0.00158915
-0.00496141
0.00168703
-0.00531667
-0.00564118
0.00176777
7.79201e-06
-6.69481e-07
3.54378e-05
-9.05689e-05
8.82214e-05
-0.000274164
0.000170881
-0.000557379
0.000286236
-0.000941712
0.000433393
-0.00141991
0.000606294
-0.00197233
0.000793812
-0.00256688
0.000982056
-0.00316477
0.00115803
-0.00373029
0.00131277
-0.00423946
0.00144262
-0.00468343
0.00154862
-0.00506741
0.0016351
-0.00540316
-0.00571288
0.00170681
8.68047e-06
-9.34995e-06
3.8865e-05
-0.000120753
9.56842e-05
-0.000330983
0.000183401
-0.000645096
0.000303839
-0.00106215
0.000454547
-0.00157062
0.000627686
-0.00214547
0.000810852
-0.00275005
0.000990058
-0.00334398
0.00115348
-0.00389371
0.00129403
-0.00438001
0.00140997
-0.00479937
0.00150366
-0.0051611
0.00158007
-0.00547957
-0.00577669
0.00164387
9.59574e-06
-1.89457e-05
4.23374e-05
-0.000153495
0.000103118
-0.000391763
0.000195595
-0.000737573
0.000320444
-0.001187
0.000473573
-0.00172375
0.00064548
-0.00231738
0.000822841
-0.00292741
0.000992012
-0.00351315
0.00114261
-0.00404431
0.00126946
-0.00450686
0.00137248
-0.00490239
0.00145511
-0.00524373
0.0015226
-0.00554705
-0.00583355
0.00157946
1.05341e-05
-2.94798e-05
4.58322e-05
-0.000188793
0.000110455
-0.000456386
0.000207322
-0.000834441
0.000335826
-0.0013155
0.000490201
-0.00187812
0.000659471
-0.00248665
0.000829782
-0.00309772
0.000988216
-0.00367158
0.00112601
-0.00418211
0.00123981
-0.00462065
0.00133096
-0.00499354
0.00140366
-0.00531643
0.00146325
-0.00560664
-0.00588426
0.00151396
1.14902e-05
-4.097e-05
4.93219e-05
-0.000226625
0.000117622
-0.000524686
0.00021844
-0.000935258
0.000349772
-0.00144683
0.000504206
-0.00203256
0.000669542
-0.00265198
0.000831782
-0.00325996
0.000979044
-0.00381884
0.00110427
-0.00430733
0.00120578
-0.00472217
0.0012861
-0.00507385
0.00134992
-0.00538025
0.00140249
-0.00565922
-0.00592946
0.00144769
1.24576e-05
-5.34276e-05
5.27756e-05
-0.000266943
0.000124541
-0.000596451
0.000228803
-0.00103952
0.000362087
-0.00158012
0.000515417
-0.00218588
0.000675656
-0.00281222
0.000829033
-0.00341333
0.000964929
-0.00395474
0.00107799
-0.0044204
0.00116805
-0.00481222
0.00123852
-0.00514433
0.0012944
-0.00543612
0.00134069
-0.00570552
-0.00596965
0.00138088
1.34284e-05
-6.68559e-05
5.6159e-05
-0.000309674
0.00013113
-0.000671422
0.000238276
-0.00114667
0.000372606
-0.00171445
0.000523718
-0.002337
0.000677855
-0.00296636
0.000821793
-0.00355727
0.000946336
-0.00407928
0.00104777
-0.00452184
0.00112722
-0.00489166
0.00118878
-0.00520589
0.00123752
-0.00548487
0.00127815
-0.00574615
-0.00600522
0.00131373
1.43939e-05
-8.12498e-05
5.94364e-05
-0.000354716
0.000137308
-0.000749293
0.000246729
-0.00125609
0.000381192
-0.00184891
0.00052905
-0.00248486
0.000676247
-0.00311356
0.000810374
-0.0036914
0.00092374
-0.00419265
0.00101416
-0.00461226
0.00108384
-0.00496134
0.00113733
-0.00525938
0.00117964
-0.00552718
0.00121511
-0.00578162
-0.00603648
0.00124638
1.53447e-05
-9.65945e-05
6.25707e-05
-0.000401942
0.000142996
-0.000829719
0.00025405
-0.00136714
0.000387744
-0.00198261
0.00053141
-0.00262852
0.000670995
-0.00325314
0.00079512
-0.00381552
0.000897615
-0.00429514
0.000977685
-0.00469233
0.00103839
-0.00502204
0.00108457
-0.00530556
0.00112105
-0.00556366
0.00115176
-0.00581233
-0.00606367
0.00117894
1.62711e-05
-0.000112866
6.55253e-05
-0.000451196
0.000148122
-0.000912316
0.000260141
-0.00147916
0.0003922
-0.00211466
0.000530845
-0.00276717
0.000662307
-0.0033846
0.000776394
-0.00392961
0.00086842
-0.00438717
0.000938813
-0.00476272
0.000991298
-0.00507453
0.00103083
-0.00534509
0.00106197
-0.00559481
0.00108824
-0.00583859
-0.00608694
0.00111152
1.7163e-05
-0.000130029
6.82643e-05
-0.000502298
0.000152618
-0.000996669
0.000264928
-0.00159147
0.00039453
-0.00224427
0.000527443
-0.00290008
0.000650426
-0.00350759
0.000754564
-0.00403375
0.000836588
-0.00446919
0.000897972
-0.00482411
0.000942927
-0.00511948
0.000976385
-0.00537855
0.00100261
-0.00562103
0.00102468
-0.00586067
-0.00610644
0.00104417
1.80106e-05
-0.000148039
7.0754e-05
-0.000555041
0.000156425
-0.00108234
0.000268354
-0.0017034
0.000394744
-0.00237066
0.000521331
-0.00302667
0.000635612
-0.00362187
0.000729996
-0.00412813
0.000802524
-0.00454172
0.000855545
-0.00487713
0.00089359
-0.00515753
0.000921471
-0.00540643
0.000943102
-0.00564266
0.000961178
-0.00587875
-0.00612223
0.000976975
1.88042e-05
-0.000166843
7.29634e-05
-0.0006092
0.000159495
-0.00116887
0.000270387
-0.00181429
0.000392877
-0.00249315
0.000512666
-0.00314646
0.00061814
-0.00372734
0.000703042
-0.00421304
0.000766598
-0.00460528
0.000811864
-0.00492239
0.000843551
-0.00518921
0.000866274
-0.00542915
0.000883582
-0.00565997
0.000897806
-0.00589297
-0.00613439
0.000909967
1.95344e-05
-0.000186378
7.48645e-05
-0.00066453
0.000161791
-0.0012558
0.000271014
-0.00192352
0.000388997
-0.00261113
0.000501622
-0.00325908
0.000598289
-0.00382401
0.000674037
-0.00428879
0.000729146
-0.00466038
0.000767221
-0.00496047
0.000793036
-0.00521503
0.000810949
-0.00544706
0.000824149
-0.00567317
0.00083463
-0.00590345
-0.00614296
0.000843196
2.01928e-05
-0.000206571
7.64336e-05
-0.000720771
0.000163284
-0.00134265
0.000270243
-0.00203047
0.000383193
-0.00272408
0.000488391
-0.00336428
0.000576333
-0.00391195
0.000643294
-0.00435575
0.000690467
-0.00470756
0.000721868
-0.00499187
0.000742232
-0.00523539
0.000755626
-0.00546046
0.000764885
-0.00568243
0.000771702
-0.00591027
-0.00614796
0.000776699
2.07714e-05
-0.000227342
7.7651e-05
-0.000777651
0.00016396
-0.00142896
0.000268102
-0.00213462
0.000375571
-0.00283155
0.000473174
-0.00346188
0.00055254
-0.00399132
0.000611101
-0.00441431
0.000650831
-0.00474729
0.000676022
-0.00501706
0.000691298
-0.00525067
0.000700409
-0.00546957
0.000705857
-0.00568788
0.000709068
-0.00591348
-0.0061494
0.000710512
2.12631e-05
-0.000248605
7.85016e-05
-0.000834889
0.000163815
-0.00151427
0.000264631
-0.00223543
0.000366253
-0.00293317
0.000456171
-0.0035518
0.000527162
-0.00406231
0.000577723
-0.00446487
0.000610471
-0.00478003
0.000629869
-0.00503646
0.000640364
-0.00526116
0.000645385
-0.00547459
0.000647123
-0.00568962
0.000646768
-0.00591312
-0.0061473
0.000644668
2.1664e-05
-0.000270269
7.89788e-05
-0.000892204
0.000162859
-0.00159815
0.000259897
-0.00233247
0.00035538
-0.00302865
0.000437595
-0.00363401
0.000500451
-0.00412516
0.000543408
-0.00450783
0.000569603
-0.00480623
0.000583576
-0.00505043
0.000589551
-0.00526714
0.000590637
-0.00547568
0.000588739
-0.00568772
0.000584846
-0.00590923
-0.00614166
0.000579207
2.19655e-05
-0.000292235
7.90692e-05
-0.000949308
0.000161097
-0.00168018
0.00025395
-0.00242532
0.000343071
-0.00311777
0.00041762
-0.00370856
0.000472607
-0.00418015
0.000508348
-0.00454357
0.000528387
-0.00482627
0.000537256
-0.0050593
0.000538931
-0.00526882
0.000536206
-0.00547295
0.000530727
-0.00568224
0.000523314
-0.00590182
-0.00613249
0.000514138
2.21656e-05
-0.0003144
7.8775e-05
-0.00100592
0.000158557
-0.00175996
0.000246876
-0.00251364
0.000329474
-0.00320037
0.000396446
-0.00377554
0.000443847
-0.00422755
0.000472744
-0.00457246
0.000486986
-0.00484051
0.000491033
-0.00506335
0.00048859
-0.00526637
0.000482151
-0.00546651
0.000473133
-0.00567322
0.000462211
-0.00589089
-0.00611978
0.0004495
2.22615e-05
-0.000336662
7.80989e-05
-0.00106175
0.000155271
-0.00183713
0.000238756
-0.00259713
0.000314729
-0.00327635
0.000374249
-0.00383506
0.000414355
-0.00426766
0.000436764
-0.00459487
0.000445535
-0.00484928
0.000445002
-0.00506281
0.000438593
-0.00525996
0.000428518
-0.00545644
0.000415989
-0.00566069
0.000401564
-0.00587647
-0.00610353
0.00038532
2.22516e-05
-0.000358914
7.70476e-05
-0.00111655
0.000151276
-0.00191136
0.000229678
-0.00267553
0.000298974
-0.00334564
0.000351196
-0.00388728
0.000384303
-0.00430076
0.000400556
-0.00461113
0.000404147
-0.00485287
0.000399245
-0.00505791
0.000388995
-0.00524971
0.000375344
-0.00544279
0.000359324
-0.00564467
0.000341399
-0.00585854
-0.00608376
0.000321622
2.21354e-05
-0.000381049
7.56313e-05
-0.00117005
0.000146614
-0.00198234
0.000219732
-0.00274865
0.00028234
-0.00340825
0.000327444
-0.00393238
0.000353841
-0.00432716
0.00036425
-0.00462153
0.00036292
-0.00485154
0.000353829
-0.00504882
0.000339842
-0.00523573
0.000322661
-0.00542561
0.000303165
-0.00562517
0.00028174
-0.00583712
-0.00606044
0.000258422
2.19134e-05
-0.000402962
7.38634e-05
-0.001222
0.00014133
-0.00204981
0.000209005
-0.00281632
0.000264955
-0.0034642
0.000303135
-0.00397056
0.000323106
-0.00434713
0.000327956
-0.00462638
0.000321939
-0.00484553
0.000308814
-0.00503569
0.000291174
-0.00521809
0.000270499
-0.00540493
0.000247532
-0.00560221
0.00022261
-0.0058122
-0.00603356
0.000195736
2.1587e-05
-0.000424549
7.17599e-05
-0.00127217
0.000135473
-0.00211352
0.000197588
-0.00287844
0.000246937
-0.00351355
0.000278398
-0.00400202
0.000292217
-0.00436095
0.000291775
-0.00462594
0.000281276
-0.00483503
0.00026425
-0.00501867
0.000243028
-0.00519686
0.000218886
-0.00538079
0.000192448
-0.00557577
0.000164023
-0.00578377
-0.00600313
0.00013359
2.11586e-05
-0.000445708
6.93389e-05
-0.00132035
0.000129093
-0.00217328
0.000185567
-0.00293491
0.0002284
-0.00355638
0.000253353
-0.00402698
0.000261282
-0.00436888
0.000255789
-0.00462045
0.00024099
-0.00482023
0.000220179
-0.00499786
0.000195438
-0.00517212
0.000167859
-0.00535321
0.000137955
-0.00554587
0.000105963
-0.00575178
-0.00596912
7.19496e-05
2.06314e-05
-0.000466339
6.66203e-05
-0.00136634
0.00012224
-0.0022289
0.000173025
-0.0029857
0.000209447
-0.0035928
0.000228107
-0.00404564
0.000230395
-0.00437117
0.000220071
-0.00461012
0.000201135
-0.00480129
0.000176638
-0.00497336
0.000148432
-0.00514392
0.000117449
-0.00532223
8.41302e-05
-0.00551255
4.84939e-05
-0.00571614
-0.00593039
9.76831e-06
2.00091e-05
-0.000486348
6.36254e-05
-0.00140995
0.000114965
-0.00228024
0.000160042
-0.00303078
0.000190175
-0.00362293
0.000202754
-0.00405822
0.000199636
-0.00436805
0.000184684
-0.00459517
0.000161753
-0.00477836
0.000133657
-0.00494526
0.00010203
-0.00511229
6.76642e-05
-0.00528786
3.09596e-05
-0.00547584
-7.70657e-06
-0.00567748
-0.00588868
-4.94174e-05
1.92962e-05
-0.000505645
6.03762e-05
-0.00145103
0.000107318
-0.00232718
0.000146693
-0.00307015
0.000170671
-0.00364691
0.000177381
-0.00406493
0.000169078
-0.00435975
0.000149682
-0.00457578
0.000122883
-0.00475156
9.12638e-05
-0.00491365
5.62571e-05
-0.00507728
1.85179e-05
-0.00525012
-2.16286e-05
-0.0054357
-6.41683e-05
-0.00563494
-0.00584416
-0.000108692
1.84977e-05
-0.000524142
5.68953e-05
-0.00148943
9.93465e-05
-0.00236963
0.000133049
-0.00310386
0.000151017
-0.00366488
0.000152064
-0.00406597
0.000138784
-0.00434647
0.00011511
-0.0045521
8.45574e-05
-0.00472101
4.94828e-05
-0.00487857
1.11278e-05
-0.00503893
-2.99419e-05
-0.00520905
-7.34909e-05
-0.00539215
-0.000119465
-0.00558896
-0.00579611
-0.000167509
1.76188e-05
-0.000541761