/*--------------------------------*- C++ -*----------------------------------*\
  =========                 |
  \\      /  F ield         | OpenFOAM: The Open Source CFD Toolbox
   \\    /   O peration     | Website:  https://openfoam.org
    \\  /    A nd           | Version:  7
     \\/     M anipulation  |
\*---------------------------------------------------------------------------*/
FoamFile
{
    version     2.0;
    format      ascii;
    class       volVectorField;
    location    "140";
    object      U;
}
// * * * * * * * * * * * * * * * * * * * * * * * * * * * * * * * * * * * * * //

dimensions      [0 1 -1 0 0 0 0];

internalField   nonuniform List<vector> 
20050
(
(-0.000679043 0.0342751 5.23561e-21)
(-0.00310907 0.0927478 -9.54475e-22)
(-0.00777311 0.142714 -1.19293e-20)
(-0.0142892 0.1836 -1.78903e-20)
(-0.0225155 0.215661 -1.61873e-21)
(-0.0321158 0.239968 1.09764e-20)
(-0.0426157 0.258157 -1.22616e-20)
(-0.0534895 0.272102 3.15571e-21)
(-0.0642294 0.283553 -8.71481e-21)
(-0.074404 0.293869 1.60866e-20)
(-0.0836857 0.303884 1.37836e-20)
(-0.0918459 0.313901 -1.68962e-20)
(-0.0987363 0.323764 -8.73199e-21)
(-0.104203 0.332942 9.34025e-21)
(-0.108028 0.340637 -1.00145e-20)
(-0.0014092 0.0346721 8.67573e-21)
(-0.00461204 0.09406 -5.85873e-21)
(-0.00917515 0.145031 -2.65854e-21)
(-0.015061 0.186922 1.79249e-20)
(-0.0222671 0.219879 2.21824e-20)
(-0.0305823 0.244873 -5.44993e-20)
(-0.0396318 0.263475 3.31685e-20)
(-0.0489505 0.277536 3.50289e-20)
(-0.0580528 0.288828 4.57773e-20)
(-0.0664929 0.29876 -4.35692e-20)
(-0.0738989 0.308223 2.96036e-20)
(-0.0799768 0.317571 2.79527e-20)
(-0.0845072 0.326684 1.62787e-20)
(-0.0872637 0.335047 -5.27619e-20)
(-0.0878755 0.341889 4.42244e-20)
(-0.0021494 0.0347845 -3.56656e-20)
(-0.00616571 0.0947032 -4.48901e-20)
(-0.0106756 0.146443 3.384e-20)
(-0.0159616 0.189216 4.27204e-20)
(-0.0221482 0.22303 -2.7169e-20)
(-0.0291434 0.248725 -5.11938e-20)
(-0.0366716 0.267782 3.2222e-20)
(-0.0443316 0.282005 -9.28831e-20)
(-0.0516641 0.293169 -4.47783e-20)
(-0.0582136 0.302717 -3.695e-20)
(-0.0635675 0.311595 -5.19887e-20)
(-0.0673684 0.320208 9.59489e-21)
(-0.0693294 0.328478 3.90004e-20)
(-0.0691593 0.335921 1.80368e-19)
(-0.066288 0.341806 -7.06945e-20)
(-0.00288276 0.0346213 4.67298e-21)
(-0.00773615 0.0946898 8.98992e-20)
(-0.0122407 0.146953 3.54208e-20)
(-0.0169686 0.190467 -6.20339e-20)
(-0.0221536 0.225079 1.48981e-20)
(-0.0278137 0.251477 5.7576e-20)
(-0.0337697 0.271021 5.37135e-20)
(-0.0396865 0.285448 3.54565e-20)
(-0.0451365 0.296512 -6.73848e-20)
(-0.0496603 0.30568 1.88848e-19)
(-0.0528101 0.313945 -8.20594e-20)
(-0.0541703 0.321763 1.15757e-19)
(-0.0533913 0.329101 -3.87523e-20)
(-0.0501322 0.335526 -1.51893e-19)
(-0.0435714 0.340372 5.90587e-20)
(-0.00359205 0.0341964 1.29164e-19)
(-0.00928982 0.0940429 -4.95006e-20)
(-0.0138381 0.146575 -3.38999e-21)
(-0.0180595 0.190673 3.55396e-20)
(-0.0222773 0.226006 2.26037e-20)
(-0.0266071 0.253091 2.96667e-20)
(-0.030961 0.273144 -1.16641e-19)
(-0.0350711 0.287809 -1.03938e-20)
(-0.0385466 0.298802 6.8901e-21)
(-0.0409316 0.307598 -1.86084e-19)
(-0.041751 0.315226 1.67791e-19)
(-0.0405386 0.322196 -1.17616e-19)
(-0.0368882 0.328526 -5.47874e-20)
(-0.0304268 0.333843 -3.07366e-20)
(-0.0200594 0.337592 -7.66308e-20)
(-0.00426265 0.03353 -7.65295e-20)
(-0.0107961 0.0927942 -3.15702e-20)
(-0.0154365 0.145336 -9.91622e-20)
(-0.019212 0.189845 -1.71717e-20)
(-0.0225131 0.225804 -6.86795e-20)
(-0.0255374 0.253539 -5.60902e-20)
(-0.0282807 0.274108 -6.97581e-20)
(-0.0305424 0.289039 4.13823e-20)
(-0.0319737 0.299987 4.95661e-20)
(-0.0321298 0.308421 1.8306e-20)
(-0.0305187 0.315399 3.50062e-20)
(-0.0266327 0.321478 5.81747e-20)
(-0.0200179 0.326735 -1.00693e-19)
(-0.0102862 0.330868 -6.73745e-20)
(0.00396101 0.333472 2.26298e-19)
(-0.00488219 0.032645 -4.76832e-20)
(-0.0122279 0.0909855 -4.86318e-20)
(-0.0170071 0.143277 2.16702e-19)
(-0.0204053 0.188009 1.14381e-19)
(-0.0228547 0.224475 3.37778e-21)
(-0.0246175 0.252806 3.83338e-20)
(-0.0257638 0.273881 1.02608e-19)
(-0.0261582 0.289093 -6.82081e-20)
(-0.0254981 0.300021 4.93689e-20)
(-0.0233592 0.308108 6.37537e-20)
(-0.0192429 0.31443 -2.03564e-19)
(-0.012612 0.319589 -3.88836e-20)
(-0.0029734 0.323722 -1.7841e-19)
(0.0100499 0.326613 1.12927e-19)
(0.0282045 0.328034 -1.42074e-19)
(-0.00544063 0.0315674 6.24452e-20)
(-0.0135623 0.0886672 -4.83172e-20)
(-0.018525 0.140448 -1.67883e-19)
(-0.0216202 0.185204 -1.85089e-19)
(-0.0232961 0.222041 -2.22436e-19)
(-0.02386 0.250889 5.73262e-20)
(-0.0234442 0.27244 7.38685e-20)
(-0.0219752 0.287938 1.49145e-19)
(-0.0192003 0.298864 -7.2533e-20)
(-0.0147237 0.30662 -6.36221e-20)
(-0.00805271 0.31229 1.22806e-19)
(0.00136638 0.316514 -1.27566e-19)
(0.0140578 0.319488 1.24618e-19)
(0.0303557 0.321089 -1.98029e-19)
(0.052397 0.32131 1.32405e-19)
(-0.0059306 0.0303259 -1.04069e-20)
(-0.0147815 0.0858972 5.00832e-20)
(-0.0199693 0.136915 2.49531e-19)
(-0.0228403 0.181483 2.37653e-19)
(-0.0238321 0.218534 9.71086e-20)
(-0.0232763 0.247798 -2.99776e-20)
(-0.021354 0.269775 -1.20909e-19)
(-0.0180484 0.285546 5.47145e-20)
(-0.0131586 0.296482 2.73262e-20)
(-0.00632573 0.303926 -8.10269e-20)
(0.00292564 0.308955 -2.57477e-19)
(0.015151 0.312241 -8.07491e-20)
(0.0308976 0.314039 2.22538e-19)
(0.0504238 0.314319 3.46328e-20)
(0.07629 0.313341 -2.74217e-19)
(-0.0063476 0.0289515 -9.68994e-20)
(-0.0158726 0.0827393 -2.62419e-19)
(-0.0213245 0.132749 -2.89114e-19)
(-0.0240525 0.176914 -1.75678e-19)
(-0.0244583 0.214002 1.23815e-19)
(-0.0228767 0.243558 2.10318e-20)
(-0.0195226 0.265887 4.71144e-20)
(-0.0144291 0.281902 -4.51169e-20)
(-0.00744756 0.292848 4.18988e-19)
(0.00173715 0.299996 1.40399e-19)
(0.0135716 0.304403 2.34303e-19)
(0.0285985 0.306764 3.27708e-19)
(0.0473807 0.307386 -2.40675e-19)
(0.0700684 0.306325 3.82999e-19)
(0.0996681 0.304164 5.54227e-20)
(-0.00669015 0.0274759 9.69366e-20)
(-0.016829 0.0792623 1.50195e-19)
(-0.0225804 0.128034 1.27548e-19)
(-0.0252475 0.171573 -1.48576e-19)
(-0.0251716 0.208507 1.20542e-19)
(-0.0226698 0.238207 2.0055e-20)
(-0.0179756 0.260791 -3.41742e-19)
(-0.0111632 0.277002 3.04244e-19)
(-0.00213528 0.287946 -2.49267e-19)
(0.00937438 0.29481 -7.14621e-20)
(0.0237734 0.298617 -1.99437e-21)
(0.0415772 0.300075 1.95105e-19)
(0.0633583 0.299537 2.5492e-19)
(0.0891287 0.297135 -2.25504e-19)
(0.122355 0.293811 5.27158e-20)
(-0.00695981 0.0259319 -1.75055e-19)
(-0.0176501 0.0755378 5.22334e-20)
(-0.0237334 0.122856 -1.16606e-19)
(-0.0264203 0.165549 -9.54253e-21)
(-0.0259701 0.202124 1.43718e-19)
(-0.0226624 0.231799 -1.7744e-19)
(-0.0167336 0.254518 2.36774e-19)
(-0.00828941 0.270852 -2.88922e-19)
(0.00271918 0.281766 -3.69051e-19)
(0.0165061 0.288351 1.08603e-19)
(0.0334316 0.291583 2.26427e-19)
(0.0539712 0.292168 -2.75317e-19)
(0.0787024 0.290503 2.36433e-19)
(0.107473 0.286771 -4.19494e-19)
(0.144218 0.282306 3.02865e-19)
(-0.00716117 0.024352 4.63089e-19)
(-0.0183413 0.0716395 -2.98207e-19)
(-0.0247858 0.117311 1.37713e-19)
(-0.0275702 0.158938 1.99964e-19)
(-0.0268528 0.194941 -2.324e-19)
(-0.0228584 0.224403 3.41282e-19)
(-0.0158107 0.247112 -4.77586e-20)
(-0.00583654 0.263476 -4.2578e-19)
(0.00706935 0.274314 1.23822e-19)
(0.0230674 0.280613 6.14584e-20)
(0.0424648 0.28329 -3.1379e-19)
(0.0656861 0.28304 2.64142e-19)
(0.0933125 0.280289 -8.66369e-19)
(0.125006 0.275253 7.22746e-19)
(0.165187 0.26966 -2.63784e-19)
(-0.00730174 0.0227681 -3.29125e-19)
(-0.0189143 0.0676409 5.09545e-20)
(-0.0257465 0.111494 -2.62116e-19)
(-0.0287008 0.151845 -2.25176e-19)
(-0.0278198 0.187053 -2.37621e-19)
(-0.023258 0.2161 -3.81047e-19)
(-0.0152125 0.238634 4.72153e-19)
(-0.00382064 0.254911 5.72122e-19)
(0.0108856 0.265607 4.0845e-20)
(0.0290141 0.271599 -2.82737e-19)
(0.0508163 0.273737 2.06849e-20)
(0.0766574 0.27269 2.45052e-19)
(0.107126 0.268905 -1.05017e-19)
(0.141678 0.262599 -3.18472e-20)
(0.185265 0.255878 3.94357e-19)
(-0.00739174 0.0212107 2.04216e-19)
(-0.0193864 0.0636142 2.58717e-19)
(-0.0266298 0.105503 7.95912e-20)
(-0.0298193 0.144377 3.03668e-19)
(-0.0288708 0.178569 1.29053e-19)
(-0.0238565 0.206986 2.51212e-19)
(-0.0149343 0.229162 -2.9913e-20)
(-0.00224134 0.245212 -2.54311e-19)
(0.0141604 0.255681 1.21151e-19)
(0.0343301 0.261329 4.31896e-19)
(0.0584637 0.262934 1.53344e-19)
(0.0868635 0.261125 -1.95796e-19)
(0.120136 0.25636 3.72258e-19)
(0.157506 0.248829 -2.55949e-19)
(0.204563 0.240956 2.83181e-20)
(-0.00744387 0.0197086 -3.57014e-20)
(-0.0197797 0.0596285 -1.00089e-19)
(-0.0274549 0.0994316 2.44148e-19)
(-0.0309355 0.136644 1.47759e-19)
(-0.0300042 0.169602 2.98e-19)
(-0.0246419 0.197168 -1.61708e-19)
(-0.0149573 0.218786 -3.5707e-19)
(-0.00107731 0.234454 -1.63098e-19)
(0.0169152 0.244589 -2.28752e-19)
(0.0390368 0.249841 -5.16857e-19)
(0.0654327 0.250906 -2.88469e-19)
(0.0963423 0.248366 -8.01808e-20)
(0.13241 0.242679 -3.56004e-19)
(0.1726 0.233969 -5.9709e-21)
(0.223336 0.224898 1.96492e-19)
(-0.00747287 0.0182883 -1.46549e-19)
(-0.0201205 0.0557484 -8.94301e-20)
(-0.0282443 0.0933729 1.22844e-20)
(-0.03206 0.128756 -6.2984e-19)
(-0.0312146 0.160269 -5.90007e-19)
(-0.0255927 0.186761 -2.28775e-19)
(-0.0152458 0.207615 4.37439e-19)
(-0.000280648 0.22273 -2.09192e-19)
(0.0192084 0.232408 2.01528e-19)
(0.0432051 0.237194 2.74266e-19)
(0.0718128 0.237702 9.8643e-20)
(0.105214 0.234456 -1.82811e-19)
(0.144126 0.227906 2.08707e-19)
(0.187199 0.218066 1.73783e-19)
(0.242034 0.207736 -2.58972e-19)
(-0.00749508 0.0169731 -3.70052e-20)
(-0.0204378 0.0520325 1.18253e-19)
(-0.0290223 0.0874128 -3.42156e-19)
(-0.0332023 0.120819 7.84321e-19)
(-0.0324905 0.15069 5.54795e-19)
(-0.0266743 0.175891 9.16796e-20)
(-0.0157415 0.195771 -2.73368e-19)
(0.000229901 0.210152 1.0966e-19)
(0.0211457 0.219238 1.3894e-19)
(0.0469694 0.223476 -3.40191e-19)
(0.0777779 0.2234 4.09651e-19)
(0.11371 0.219466 1.63929e-19)
(0.155602 0.21212 -2.69844e-19)
(0.201716 0.201199 1.87937e-19)
(0.261348 0.189553 7.52623e-20)
(-0.00752781 0.015783 6.01416e-20)
(-0.0207615 0.0485323 3.00599e-19)
(-0.0298124 0.0816298 -1.39585e-20)
(-0.0343672 0.112935 -4.52181e-19)
(-0.033811 0.140984 -3.23469e-19)
(-0.0278346 0.164688 3.33548e-19)
(-0.0163587 0.183389 4.61388e-19)
(0.000576587 0.196854 -6.80072e-20)
(0.0228905 0.205207 -1.99802e-19)
(0.0505435 0.208808 5.08068e-19)
(0.0836075 0.208114 -4.11978e-19)
(0.122198 0.203512 2.14631e-19)
(0.167336 0.195449 2.87441e-19)
(0.216781 0.183496 -8.9876e-19)
(0.282243 0.170525 1.15923e-19)
(-0.00758858 0.0147342 1.67078e-19)
(-0.0211211 0.0452905 -1.34372e-19)
(-0.0306347 0.0760931 -1.05786e-21)
(-0.0355525 0.105199 1.00092e-19)
(-0.0351414 0.131269 1.28225e-19)
(-0.0289998 0.153288 -3.68018e-19)
(-0.0169781 0.170616 -1.76188e-19)
(0.000930736 0.182989 -3.53757e-19)
(0.0246754 0.19047 -3.40241e-19)
(0.0542355 0.193343 2.95782e-19)
(0.0897071 0.192001 -3.30282e-19)
(0.13121 0.186754 -4.11792e-20)
(0.180028 0.17808 9.8683e-20)
(0.233267 0.16515 -4.1093e-20)
(0.305947 0.150947 3.69166e-19)
(-0.00769426 0.0138382 -5.22047e-20)
(-0.0215429 0.0423401 -3.52273e-19)
(-0.0315027 0.0708609 -2.96501e-19)
(-0.0367448 0.0976958 -6.14451e-20)
(-0.0364299 0.121657 5.5593e-20)
(-0.0300694 0.141827 -1.02092e-20)
(-0.0174411 0.157607 -6.60569e-20)
(0.00152017 0.168728 -4.93659e-20)
(0.0268118 0.175208 1.80863e-19)
(0.0584605 0.177274 -1.3335e-19)
(0.0966221 0.175261 3.8584e-19)
(0.141456 0.169409 -4.19491e-19)
(0.194588 0.160268 -3.12314e-19)
(0.252286 0.146425 2.24904e-19)
(0.33388 0.131257 -2.82358e-19)
(-0.00786007 0.0131014 -1.34566e-19)
(-0.0220481 0.0397033 4.50772e-20)
(-0.0324211 0.065979 2.52107e-19)
(-0.0379164 0.0904993 -1.29028e-19)
(-0.0376033 0.112251 2.05447e-19)
(-0.0309123 0.130438 -6.63989e-20)
(-0.0175451 0.144526 -3.41095e-19)
(0.00263443 0.154258 4.43734e-19)
(0.0296957 0.159631 1.95822e-19)
(0.0637453 0.160827 -5.45309e-19)
(0.105039 0.158143 5.26789e-20)
(0.153814 0.151748 -9.59031e-21)
(0.212099 0.142335 6.3039e-19)
(0.275141 0.127656 1.32531e-19)
(0.367496 0.112028 3.80442e-19)
(-0.00809849 0.0125247 6.62501e-21)
(-0.0226509 0.0373908 3.00827e-19)
(-0.033382 0.0614793 -1.42805e-19)
(-0.0390223 0.0836706 1.96076e-19)
(-0.0385645 0.103148 3.65734e-19)
(-0.0313639 0.119254 4.63083e-19)
(-0.0170415 0.131538 1.38107e-19)
(0.00462596 0.139778 -3.08973e-20)
(0.0338063 0.143965 5.47683e-19)
(0.0707218 0.144261 6.12089e-19)
(0.115768 0.140934 5.47312e-20)
(0.169296 0.134094 5.91193e-19)
(0.233743 0.124655 -2.90982e-21)
(0.303213 0.10924 -5.27443e-19)
(0.408053 0.0939333 -3.6988e-19)
(-0.00841828 0.0121033 1.62478e-19)
(-0.0233558 0.0354009 3.26698e-19)
(-0.0343636 0.0573794 5.48623e-20)
(-0.0399981 0.0772564 3.74392e-19)
(-0.0391906 0.094428 -4.4635e-19)
(-0.0312258 0.108394 -5.87404e-20)
(-0.0156367 0.118805 -9.30148e-20)
(0.00790535 0.125489 6.58955e-19)
(0.0396952 0.128455 -8.953e-19)
(0.0801055 0.127857 -6.05154e-19)
(0.129701 0.123954 2.27976e-19)
(0.188975 0.116805 -2.90795e-19)
(0.260684 0.107632 -8.0239e-20)
(0.337811 0.0916181 2.47667e-19)
(0.456332 0.0776636 9.06494e-19)
(-0.00882348 0.0118265 1.52571e-19)
(-0.0241564 0.0337197 -5.94734e-19)
(-0.0353282 0.0536814 1.29262e-19)
(-0.0407592 0.0712869 -5.76204e-19)
(-0.0393339 0.0861597 2.86067e-19)
(-0.0302684 0.0979694 -1.89817e-19)
(-0.0129986 0.106482 -2.04566e-19)
(0.0129293 0.111594 -4.88872e-19)
(0.0479645 0.113346 1.73085e-19)
(0.0926573 0.111906 2.46388e-19)
(0.147753 0.107536 -1.49686e-20)
(0.213889 0.100261 2.38368e-19)
(0.293925 0.0916628 -1.26186e-19)
(0.379996 0.0752614 -4.84332e-20)
(0.512382 0.0638385 -6.65756e-20)
(-0.00931259 0.0116775 -6.67914e-19)
(-0.0250341 0.0323207 2.79012e-20)
(-0.0362219 0.0503719 -5.34643e-20)
(-0.0412016 0.0657754 9.5153e-20)
(-0.038824 0.0783922 -4.27758e-19)
(-0.0282365 0.088072 5.1404e-19)
(-0.00876755 0.0947078 -1.4631e-20)
(0.0201812 0.0982793 -6.18946e-19)
(0.0592338 0.0988761 -5.66234e-19)
(0.109131 0.0966937 -4.8156e-19)
(0.170778 0.0920096 -2.18875e-19)
(0.244927 0.0848362 -1.38987e-19)
(0.334164 0.0770996 -4.70858e-19)
(0.430402 0.0606519 -3.26292e-19)
(0.57536 0.0529082 4.07314e-19)
(-0.00987802 0.0116342 3.8115e-19)
(-0.0259574 0.0311663 3.01815e-19)
(-0.0369752 0.0474228 3.54896e-19)
(-0.0412043 0.0607174 -1.04669e-19)
(-0.037473 0.0711553 1.87529e-19)
(-0.0248588 0.0787736 -2.58012e-19)
(-0.00257172 0.0836017 1.31428e-19)
(0.0301449 0.0857137 8.0048e-19)
(0.0740998 0.0852617 3.01726e-19)
(0.130213 0.0824833 6.40383e-19)
(0.199484 0.0776763 2.41488e-19)
(0.282715 0.0708797 -4.43757e-20)
(0.381691 0.0642155 4.24809e-19)
(0.489086 0.0482704 -4.55123e-19)
(0.643508 0.045096 -5.38254e-19)
(-0.0105062 0.01167 -3.32562e-19)
(-0.0268831 0.0302093 -5.35796e-19)
(-0.0375038 0.0447913 1.11856e-19)
(-0.0406323 0.0560899 -2.09903e-19)
(-0.035082 0.0644577 2.48866e-19)
(-0.0198585 0.0701219 -5.13854e-19)
(0.00595387 0.0732551 1.47714e-19)
(0.0432763 0.0740346 -2.26542e-19)
(0.0930924 0.072686 -2.14344e-19)
(0.15646 0.0694997 -2.87937e-19)
(0.234364 0.0647926 -4.91413e-19)
(0.327528 0.0586881 4.98623e-20)
(0.436339 0.0531901 4.36624e-19)
(0.55541 0.0385961 3.58685e-19)
(0.714248 0.0404394 2.5692e-19)
(-0.0111776 0.0117554 2.43974e-19)
(-0.027757 0.0293946 -3.75969e-20)
(-0.0377122 0.0424217 1.77609e-19)
(-0.0393414 0.0518536 5.65584e-19)
(-0.0314487 0.0582863 -6.07883e-19)
(-0.0129666 0.0621385 5.37469e-19)
(0.0171482 0.0637287 -5.0161e-19)
(0.0599735 0.0633444 8.09222e-20)
(0.116635 0.0612909 2.13312e-19)
(0.188249 0.057918 1.90519e-20)
(0.275634 0.0535546 3.27001e-19)
(0.379243 0.0484771 3.44273e-19)
(0.497538 0.0441119 -2.39265e-19)
(0.628031 0.0321133 -5.83141e-19)
(0.784429 0.0388487 8.70794e-19)
(-0.0118671 0.0118584 -1.49562e-19)
(-0.0285152 0.0286611 3.84342e-19)
(-0.0374966 0.040249 -2.35256e-19)
(-0.0371837 0.0479541 -1.58797e-19)
(-0.0263756 0.0526086 3.22322e-19)
(-0.00393348 0.0548196 -6.35269e-20)
(0.0313064 0.0550526 1.9688e-19)
(0.0805537 0.0537077 1.15095e-18)
(0.145014 0.0511738 1.48861e-19)
(0.225745 0.0478596 7.59644e-20)
(0.323209 0.0440923 -1.4055e-19)
(0.437332 0.0403514 -2.06952e-19)
(0.56441 0.0370055 -1.73264e-19)
(0.705068 0.0292085 2.37506e-19)
(0.851252 0.0395764 -1.32575e-18)
(-0.0125456 0.0119471 4.70663e-19)
(-0.0290862 0.0279451 4.04272e-19)
(-0.0367486 0.0382018 1.3248e-19)
(-0.0340118 0.0443258 -3.09269e-20)
(-0.0196766 0.0473745 1.96434e-19)
(0.00746133 0.0481386 -1.49283e-19)
(0.0486673 0.0472278 -9.03339e-20)
(0.105236 0.0451549 -1.40164e-19)
(0.178362 0.0423906 -6.38259e-19)
(0.268885 0.0393959 1.52116e-19)
(0.376698 0.0364752 5.99828e-20)
(0.500883 0.0342966 6.57862e-20)
(0.635758 0.0319104 5.04434e-19)
(0.784211 0.0297303 -3.33691e-20)
(0.914378 0.0395395 2.38661e-19)
(-0.0131809 0.0119908 -7.43838e-19)
(-0.0293927 0.0271831 -2.8797e-19)
(-0.0353582 0.0362073 -7.43748e-20)
(-0.0296839 0.040896 -6.21813e-21)
(-0.0111826 0.0425224 -3.40463e-19)
(0.0214024 0.0420519 1.54859e-19)
(0.0694049 0.0402333 1.53841e-20)
(0.134136 0.0376887 4.48179e-19)
(0.216653 0.0349644 -1.67121e-19)
(0.317391 0.0325598 -1.52566e-19)
(0.435433 0.0307288 -2.07551e-20)
(0.568674 0.0302295 -1.33716e-20)
(0.709907 0.0289501 -4.67217e-19)
(0.862154 0.032239 1.22461e-19)
(0.977411 0.0342143 -3.14786e-19)
(-0.0137405 0.0119616 5.42321e-19)
(-0.0293573 0.0263189 1.65053e-19)
(-0.0332133 0.0341924 -3.35277e-19)
(-0.0240659 0.037589 1.5588e-19)
(-0.00074457 0.0379847 -6.06156e-19)
(0.0380359 0.0365061 1.19314e-19)
(0.0936281 0.0340345 2.06707e-19)
(0.167266 0.0312948 -4.65486e-19)
(0.259717 0.0288978 6.23874e-19)
(0.370792 0.0273593 3.61078e-19)
(0.498528 0.0268522 2.41428e-19)
(0.639338 0.0280792 6.9622e-20)
(0.784865 0.0282075 -9.00042e-21)
(0.934903 0.0340406 -1.27117e-19)
(1.04908 0.0279261 5.69435e-19)
(-0.0141903 0.0118371 -6.10547e-19)
(-0.0289039 0.0253017 -5.44032e-19)
(-0.0302068 0.0320891 5.02911e-20)
(-0.0170324 0.0343353 1.57648e-19)
(0.0117662 0.033696 5.66495e-19)
(0.0574699 0.0314476 -1.86737e-19)
(0.121383 0.0285944 -7.20704e-19)
(0.204545 0.0259538 -5.57215e-19)
(0.307255 0.0241847 -3.4802e-19)
(0.428465 0.0237886 -6.47413e-19)
(0.564941 0.0248205 2.54801e-19)
(0.711454 0.0277848 1.4451e-19)
(0.858676 0.0295117 1.33746e-19)
(1.0034 0.0363871 3.10382e-19)
(1.11393 0.0293005 1.63989e-19)
(-0.0144957 0.0115979 4.07256e-19)
(-0.0279557 0.0240894 3.66567e-19)
(-0.0262377 0.0298436 1.49762e-19)
(-0.00846871 0.0310754 -4.36558e-19)
(0.0264584 0.0296005 -2.8313e-19)
(0.0797778 0.0268315 2.05723e-19)
(0.152661 0.0238835 2.77804e-19)
(0.245811 0.0216523 5.43433e-19)
(0.358859 0.0208206 1.62304e-19)
(0.489663 0.0218348 9.47857e-20)
(0.63354 0.0245872 -5.64633e-19)
(0.783607 0.029276 -4.18245e-19)
(0.92978 0.0326247 6.74322e-20)
(1.06695 0.0400737 -1.39624e-19)
(1.1702 0.0335291 3.42313e-19)
(-0.014625 0.0112339 1.20927e-19)
(-0.0264371 0.0226529 -2.67569e-19)
(-0.0212095 0.0274144 -2.63159e-19)
(0.00172984 0.0277649 5.15872e-20)
(0.043423 0.0256588 2.33939e-19)
(0.105002 0.0226301 4.17593e-19)
(0.187402 0.0198899 -2.44819e-19)
(0.290829 0.0183916 2.46658e-19)
(0.414029 0.0188089 1.01798e-19)
(0.55355 0.0214805 -5.29705e-19)
(0.70315 0.0260828 1.05911e-19)
(0.85445 0.0324408 5.60475e-20)
(0.996956 0.0372833 -1.67223e-19)
(1.12472 0.045011 -2.92311e-19)
(1.21904 0.039347 -6.41829e-19)
(-0.0145514 0.0107393 7.53669e-20)
(-0.0242776 0.0209742 -1.02678e-19)
(-0.0150293 0.0247783 2.6052e-19)
(0.0136596 0.0243802 -2.31861e-19)
(0.0627352 0.0218544 4.21636e-20)
(0.133159 0.01884 -1.08344e-19)
(0.225505 0.016625 -1.3976e-19)
(0.339299 0.0161925 8.23037e-20)
(0.472187 0.0181619 3.12056e-20)
(0.619228 0.022701 4.91906e-19)
(0.772612 0.0292145 2.10018e-19)
(0.922769 0.0371261 2.35817e-19)
(1.05926 0.0432261 6.38138e-19)
(1.17626 0.0509933 -1.9001e-19)
(1.26045 0.0461765 3.53394e-19)
(-0.0142479 0.0101129 -2.27921e-19)
(-0.0214119 0.0190505 4.91047e-19)
(-0.00761014 0.0219305 1.39066e-19)
(0.0274085 0.0209208 6.17758e-19)
(0.0844554 0.0181974 1.45238e-19)
(0.164236 0.015486 -5.21832e-19)
(0.266822 0.0141269 2.25374e-19)
(0.390861 0.0150949 5.05736e-19)
(0.532689 0.0188973 -4.60383e-19)
(0.685761 0.0254598 -1.16705e-19)
(0.840819 0.0338663 -8.4446e-21)
(0.987536 0.0431491 -2.64845e-19)
(1.11605 0.0502051 -3.66236e-19)
(1.2214 0.0577923 3.52245e-19)
(1.29493 0.0536062 1.30747e-19)
(-0.0136899 0.00935936 -7.77831e-20)
(-0.0177779 0.0168921 -2.73935e-19)
(0.00112976 0.0188861 3.88693e-19)
(0.0430568 0.0174112 -2.72986e-19)
(0.108629 0.0147262 6.86308e-20)
(0.198196 0.0126218 -6.38131e-21)
(0.311163 0.0124589 3.18833e-19)
(0.445096 0.0151536 -4.01447e-19)
(0.594838 0.021031 1.07946e-18)
(0.752212 0.0297024 2.26056e-19)
(0.906766 0.0398998 -2.10683e-19)
(1.04794 0.0503112 1.82091e-20)
(1.16695 0.0579906 -5.95113e-20)
(1.26025 0.0651894 7.4071e-20)
(1.32307 0.0613725 -4.97129e-19)
(-0.012855 0.00848779 4.91349e-20)
(-0.0133171 0.0145209 -3.22132e-19)
(0.0112671 0.0156793 -3.01736e-19)
(0.0606751 0.0139003 -1.85295e-19)
(0.135285 0.0115068 -3.2193e-19)
(0.234969 0.0103281 -1.61253e-19)
(0.358291 0.0117044 -4.63221e-19)
(0.501527 0.0164298 1.62048e-19)
(0.657896 0.024568 -7.62598e-19)
(0.817671 0.0353521 -1.49274e-19)
(0.969583 0.047159 -5.60976e-19)
(1.10339 0.05841 4.0566e-19)
(1.21185 0.0663771 3.24708e-19)
(1.29309 0.0729963 -5.09465e-23)
(1.34557 0.0692963 7.94122e-19)
(-0.0117221 0.00751098 3.9199e-20)
(-0.00797414 0.0119702 3.24108e-19)
(0.0228727 0.012362 4.77688e-19)
(0.0803235 0.0104599 6.22312e-20)
(0.164431 0.00862986 -2.34725e-19)
(0.274451 0.00870747 2.0681e-19)
(0.407915 0.0119593 2.16399e-20)
(0.559621 0.0189817 -2.22896e-19)
(0.721102 0.029495 -1.87432e-19)
(0.881291 0.0423092 -1.85825e-19)
(1.02856 0.0554762 4.71254e-19)
(1.15355 0.0672509 3.11677e-19)
(1.25084 0.0751879 -3.72268e-19)
(1.32036 0.0810615 2.79676e-19)
(1.36315 0.0772646 2.76636e-20)
(-0.0102711 0.00644448 1.02503e-19)
(-0.00169729 0.00928225 -7.09805e-19)
(0.0360103 0.00900154 -4.98341e-19)
(0.102047 0.00718146 -2.87848e-20)
(0.196047 0.00620644 1.08722e-19)
(0.316493 0.00787757 2.76712e-19)
(0.459686 0.0133228 -9.64166e-20)
(0.618796 0.0228549 1.83101e-19)
(0.783702 0.0357748 4.52209e-19)
(0.942316 0.0504536 1.62556e-19)
(1.08319 0.0646806 1.72735e-19)
(1.19827 0.0766558 -7.40951e-20)
(1.28417 0.0842771 -1.96964e-19)
(1.3426 0.0892707 -6.48849e-19)
(1.37653 0.0852107 -3.47655e-20)
(-0.00848213 0.00530596 -3.79259e-19)
(0.00556162 0.00650752 7.76053e-19)
(0.0507345 0.00567861 -1.46197e-19)
(0.125875 0.00417228 -4.63242e-20)
(0.230082 0.0043618 -1.59201e-19)
(0.360899 0.00796284 -3.02231e-19)
(0.513204 0.0158873 2.11041e-19)
(0.678439 0.0280741 -3.84447e-19)
(0.844973 0.0433451 -1.53868e-19)
(1.00011 0.0596503 -1.10583e-19)
(1.1331 0.074606 -3.50613e-19)
(1.23759 0.0864688 7.66008e-20)
(1.31224 0.0935301 2.47909e-19)
(1.36035 0.0975433 3.5201e-20)
(1.38636 0.0931017 -5.21188e-19)
(-0.00633578 0.00411485 1.00163e-19)
(0.0138465 0.00370268 5.15363e-20)
(0.0670892 0.00248406 9.56678e-19)
(0.151811 0.00155117 4.22783e-19)
(0.266449 0.0032292 1.83485e-19)
(0.407421 0.00908627 3.11628e-20)
(0.568015 0.0197303 -5.56231e-19)
(0.737923 0.0346389 6.2888e-19)
(0.90425 0.0521206 3.40172e-20)
(1.05419 0.0697569 1.43794e-19)
(1.17813 0.0850977 -1.31049e-19)
(1.27168 0.0965594 -4.04744e-19)
(1.33549 0.102861 -6.02752e-19)
(1.37421 0.105827 7.97364e-19)
(1.39325 0.100928 1.10206e-19)
(-0.00381291 0.00289202 -5.80173e-21)
(0.0231961 0.000929604 -3.7353e-19)
(0.0851046 -0.000483635 -3.58486e-19)
(0.179835 -0.000556071 -2.99497e-19)
(0.305018 0.00294346 2.04375e-19)
(0.455759 0.0113617 -1.26937e-19)
(0.623628 0.0249078 4.06015e-19)
(0.796628 0.0425217 -3.17862e-19)
(0.960952 0.0619973 1.12611e-19)
(1.10417 0.0806306 -2.37848e-19)
(1.21826 0.0960177 5.17166e-20)
(1.30085 0.106823 -1.71606e-19)
(1.35442 0.112212 1.6331e-19)
(1.38472 0.114094 -4.57924e-19)
(1.39774 0.108696 -1.66571e-19)
(-0.000894981 0.0016597 -5.34733e-19)
(0.0336428 -0.0017457 4.76301e-19)
(0.104795 -0.00312085 -5.8151e-20)
(0.209899 -0.00202087 2.14249e-19)
(0.345616 0.00363504 -3.38699e-19)
(0.505569 0.0148873 3.00642e-19)
(0.679524 0.03145 -3.45866e-19)
(0.853966 0.05167 -2.05392e-19)
(1.01459 0.0728594 6.16216e-20)
(1.14986 0.0921346 -1.8607e-19)
(1.25358 0.107248 -2.69365e-19)
(1.32544 0.117179 7.51904e-19)
(1.36954 0.121543 -9.24192e-20)
(1.39238 0.122331 4.91033e-19)
(1.40028 0.116421 -1.13384e-19)
(0.00243547 0.000441443 1.0008e-19)
(0.0452112 -0.00425391 -7.76021e-20)
(0.126156 -0.00532108 -4.73633e-19)
(0.24192 -0.00271573 -6.78011e-20)
(0.388028 0.00542492 5.86507e-19)
(0.556463 0.0197409 -4.11493e-19)
(0.73518 0.0393605 6.07365e-19)
(0.9094 0.0620098 -3.10675e-19)
(1.0648 0.0845855 3.82579e-19)
(1.19115 0.104143 2.93094e-19)
(1.28429 0.11869 -1.9184e-19)
(1.34587 0.127572 -2.90155e-19)
(1.38131 0.130835 3.28027e-19)
(1.39766 0.130539 -3.60398e-19)
(1.40124 0.124121 -1.92327e-19)
(0.00619421 -0.000737769 3.68792e-19)
(0.0579169 -0.00652306 -5.95723e-20)
(0.149164 -0.00697688 2.57746e-19)
(0.275783 -0.00251765 -3.14189e-19)
(0.431998 0.00842037 -7.20859e-19)
(0.608026 0.0259771 1.05899e-19)
(0.790081 0.0486173 -1.67006e-19)
(0.962462 0.0734511 5.61201e-19)
(1.11131 0.0970545 -1.84055e-19)
(1.22805 0.116544 7.35998e-21)
(1.31066 0.130266 2.54118e-19)
(1.36255 0.137962 2.09899e-19)
(1.39021 0.140083 -5.00069e-19)
(1.40095 0.138726 2.96529e-19)
(1.40094 0.131817 3.47289e-19)
(0.0103946 -0.00185151 -1.59784e-19)
(0.0717643 -0.00847917 -7.90533e-20)
(0.173772 -0.00798166 -2.4335e-19)
(0.311341 -0.00131103 1.6165e-19)
(0.477233 0.0127118 3.3083e-19)
(0.659824 0.033626 -3.42409e-20)
(0.843739 0.0591754 3.09845e-19)
(1.01276 0.0858934 -3.1911e-19)
(1.15396 0.11015 3.40806e-19)
(1.26069 0.129242 -3.62843e-19)
(1.33301 0.141919 4.00247e-19)
(1.3759 0.148328 -3.77427e-19)
(1.39665 0.149289 -1.29622e-19)
(1.4026 0.146906 1.38805e-19)
(1.39962 0.139529 4.65069e-20)
(0.0150468 -0.00287194 1.2187e-19)
(0.0867461 -0.0100469 -1.40832e-20)
(0.19991 -0.00823132 -3.18269e-19)
(0.348415 0.00100984 2.41716e-19)
(0.523412 0.0183706 9.86921e-20)
(0.71142 0.0426936 9.57724e-20)
(0.89571 0.0709711 -9.99842e-20)
(1.06 0.0992309 -7.04127e-20)
(1.19268 0.123765 -5.93354e-19)
(1.28922 0.142155 3.64199e-19)
(1.35167 0.153605 -2.34466e-19)
(1.38632 0.158659 -4.91682e-20)
(1.40099 0.158462 7.87113e-19)
(1.40289 0.155094 -6.13863e-19)
(1.39749 0.147274 -4.28129e-19)
(0.0201572 -0.00376981 -2.13714e-20)
(0.102842 -0.0111503 1.83339e-19)
(0.227486 -0.00762582 3.03689e-19)
(0.386795 0.00453866 -3.97895e-20)
(0.570192 0.0254478 -2.24163e-19)
(0.762385 0.0531632 2.31244e-19)
(0.945602 0.083926 -2.37311e-19)
(1.10394 0.113357 -1.33402e-19)
(1.22749 0.137801 3.92326e-19)
(1.31387 0.155221 2.75306e-19)
(1.36698 0.165296 4.7621e-20)
(1.39417 0.168955 1.99254e-19)
(1.40356 0.167616 -4.10841e-19)
(1.40206 0.163303 2.66422e-19)
(1.39469 0.155064 4.83527e-19)
(0.0257279 -0.00451472 -7.45779e-20)
(0.120017 -0.0117135 -5.04665e-19)
(0.256384 -0.00607075 -3.19362e-19)
(0.426247 0.00935538 -3.21013e-19)
(0.617217 0.0339739 -2.16574e-19)
(0.812313 0.0649983 1.12047e-19)
(0.993083 0.0979516 4.14011e-19)
(1.14446 0.128168 -1.38874e-19)
(1.25846 0.152175 2.3907e-19)
(1.3349 0.168387 -4.01195e-20)
(1.37928 0.176975 6.31028e-20)
(1.3998 0.17922 -1.10112e-19)
(1.40462 0.176765 4.3291e-20)
(1.40029 0.171547 -6.36416e-20)
(1.39134 0.16291 -1.75193e-19)
(0.0317558 -0.00507535 1.19765e-19)
(0.138221 -0.0116618 5.33778e-19)
(0.286467 -0.0034789 -1.10547e-19)
(0.466515 0.0155248 2.58568e-19)
(0.66413 0.0439589 5.07795e-20)
(0.860825 0.0781451 3.84199e-20)
(1.03788 0.112953 -1.99173e-19)
(1.18146 0.143566 2.31445e-19)
(1.28573 0.16681 -3.44052e-19)
(1.35257 0.181614 -1.8379e-19)
(1.3889 0.188632 -6.23837e-20)
(1.40349 0.189463 -4.45177e-20)
(1.40441 0.185921 -1.66977e-19)
(1.39775 0.179837 -2.39521e-20)
(1.38752 0.170817 8.34819e-20)
(0.0382325 -0.00541987 -3.78126e-20)
(0.157392 -0.0109231 2.39809e-20)
(0.317577 0.000228224 3.04827e-19)
(0.507326 0.0230956 2.95496e-19)
(0.710575 0.0553936 1.22898e-19)
(0.907585 0.092536 -2.15618e-19)
(1.07979 0.128833 7.04652e-20)
(1.21495 0.159458 1.8422e-19)
(1.30946 0.181645 -2.77957e-20)
(1.36715 0.194874 3.45828e-20)
(1.39614 0.200266 7.2163e-20)
(1.40551 0.199695 2.06707e-20)
(1.40311 0.195098 -1.64021e-19)
(1.39454 0.18818 -6.52038e-21)
(1.3833 0.178787 1.86984e-19)
(0.0451439 -0.00551633 2.48084e-20)
(0.17745 -0.00942856 -1.02119e-19)
(0.349535 0.00511891 -1.74058e-19)
(0.548398 0.0320995 -3.49976e-19)
(0.756211 0.0682505 -3.74032e-20)
(0.952294 0.108092 1.68796e-19)
(1.11867 0.145494 -8.73266e-20)
(1.24496 0.175761 -2.27405e-19)
(1.32983 0.196627 -2.11163e-19)
(1.37892 0.208146 9.88624e-20)
(1.40125 0.211877 -5.46228e-20)
(1.40607 0.209925 -2.60346e-19)
(1.40089 0.204304 2.54421e-19)
(1.39075 0.19658 2.58604e-19)
(1.37871 0.18682 -1.27813e-19)
(0.0524702 -0.00533325 1.08875e-20)
(0.198303 -0.00711409 -2.01229e-19)
(0.382151 0.0112499 8.77973e-20)
(0.589443 0.0425512 1.66664e-19)
(0.800716 0.082486 3.38261e-20)
(0.994701 0.124727 -8.10276e-21)
(1.15441 0.162839 1.02754e-19)
(1.27157 0.192397 8.09934e-20)
(1.34707 0.211712 1.05574e-20)
(1.38813 0.221414 -7.06708e-20)
(1.40449 0.223467 9.79058e-21)
(1.40537 0.220161 9.95487e-20)
(1.39786 0.213546 -9.41376e-20)
(1.38646 0.205038 -7.1123e-20)
(1.37378 0.194911 -1.17174e-19)
(0.0601857 -0.0048401 1.38345e-19)
(0.219844 -0.00392176 1.88695e-20)
(0.41522 0.0186653 1.81153e-20)
(0.630173 0.0544484 -4.63849e-20)
(0.843792 0.0980423 -1.87869e-19)
(1.0346 0.142348 3.47504e-20)
(1.18697 0.180775 -3.59713e-20)
(1.29488 0.209299 9.29575e-20)
(1.36137 0.226862 2.22438e-19)
(1.39502 0.234669 -3.90588e-22)
(1.40607 0.235041 8.47057e-20)
(1.40357 0.230411 -1.34993e-20)
(1.39412 0.222825 3.66709e-20)
(1.38172 0.213551 -9.26276e-20)
(1.36854 0.203053 1.11058e-19)
(0.0682587 -0.00400789 -2.67641e-20)
(0.241957 0.000199158 1.168e-20)
(0.448526 0.0273954 5.42082e-20)
(0.670305 0.0677724 3.06611e-20)
(0.885169 0.114849 -1.3182e-19)
(1.07183 0.160858 2.53748e-20)
(1.21635 0.199213 -1.36599e-19)
(1.31504 0.226403 2.26151e-20)
(1.37294 0.242047 -9.96675e-20)
(1.39981 0.247901 2.67181e-20)
(1.40616 0.246601 -3.34871e-20)
(1.40078 0.240677 1.20159e-19)
(1.38974 0.232142 5.65055e-20)
(1.37654 0.222113 1.93133e-20)
(1.36298 0.211236 -4.1264e-20)