/*--------------------------------*- C++ -*----------------------------------*\
  =========                 |
  \\      /  F ield         | OpenFOAM: The Open Source CFD Toolbox
   \\    /   O peration     | Website:  https://openfoam.org
    \\  /    A nd           | Version:  7
     \\/     M anipulation  |
\*---------------------------------------------------------------------------*/
FoamFile
{
    version     2.0;
    format      ascii;
    class       surfaceScalarField;
    location    "300";
    object      phi;
}
// * * * * * * * * * * * * * * * * * * * * * * * * * * * * * * * * * * * * * //

dimensions      [0 3 -1 0 0 0 0];

internalField   nonuniform List<scalar> 
8878
(
-0.00419264
-0.000235064
-0.000234841
-0.00404803
-0.00415873
-0.000268758
-0.000198447
-0.00380708
-0.000232032
-0.0039074
-0.00026661
-0.00401346
-0.00412325
-0.00030209
-0.000192799
-0.00368023
-0.000226752
-0.00377313
-0.00026187
-0.00387228
-0.00029801
-0.00397732
-0.00408621
-0.00033505
-0.000185108
-0.00356033
-0.000219254
-0.00364609
-0.000254684
-0.00373769
-0.000291329
-0.00383564
-0.00032903
-0.00393961
-0.00404761
-0.000367627
-0.000175508
-0.00344668
-0.000209774
-0.00352606
-0.00024534
-0.00361052
-0.000282235
-0.0037008
-0.000320397
-0.00379748
-0.000359657
-0.00390035
-0.00400746
-0.000399809
-0.000164062
-0.00333835
-0.000198437
-0.0034123
-0.000234082
-0.00349042
-0.000271052
-0.00357355
-0.000309394
-0.00366246
-0.000349063
-0.00375781
-0.000389878
-0.00385954
-0.00396575
-0.000431584
-0.000150823
-0.00323421
-0.000185288
-0.00330389
-0.000221021
-0.00337657
-0.00025803
-0.00345341
-0.000296384
-0.00353519
-0.000336154
-0.00362269
-0.000377314
-0.00371665
-0.00041968
-0.00381717
-0.0039225
-0.000462939
-0.000135891
-0.00313248
-0.000170364
-0.00319974
-0.000206182
-0.00326807
-0.000243257
-0.00333949
-0.000281613
-0.00341505
-0.000321332
-0.00349548
-0.000362506
-0.00358151
-0.000405139
-0.00367401
-0.000449049
-0.00377326
-0.00387769
-0.000493859
-0.000119466
-0.00303012
-0.000153754
-0.0030982
-0.000189587
-0.00316391
-0.00022674
-0.00323092
-0.000265144
-0.00330109
-0.000304829
-0.00337537
-0.000345891
-0.00345441
-0.000388445
-0.00353896
-0.000432526
-0.00362993
-0.00047797
-0.00372782
-0.00383133
-0.000524329
-0.000101884
-0.00292198
-0.000135641
-0.00299637
-0.000171314
-0.00306252
-0.000208488
-0.00312673
-0.000246962
-0.00319244
-0.00028668
-0.00326137
-0.000327677
-0.00333437
-0.00037006
-0.00341203
-0.000413965
-0.00349506
-0.000459466
-0.00358443
-0.000506429
-0.00368086
-0.00378342
-0.000554333
-8.36562e-05
-0.00279992
-0.000116342
-0.00288929
-0.000151533
-0.00296118
-0.000188569
-0.00302549
-0.000227066
-0.00308824
-0.000266846
-0.00315266
-0.000307862
-0.00322036
-0.000350156
-0.00329208
-0.000393838
-0.00336835
-0.000439063
-0.00344983
-0.000485951
-0.00353755
-0.000534412
-0.00363239
-0.00373398
-0.000583858
-6.54821e-05
-0.00265229
-9.63482e-05
-0.00276905
-0.000130543
-0.0028551
-0.000167139
-0.00292458
-0.000205515
-0.00298711
-0.000245317
-0.00304843
-0.000286389
-0.00311159
-0.000328691
-0.00317805
-0.000372267
-0.0032485
-0.000417227
-0.00332339
-0.000463742
-0.00340332
-0.000511975
-0.00348931
-0.00056191
-0.00358246
-0.003683
-0.000612891
-4.82134e-05
-0.002464
-7.63395e-05
-0.00262416
-0.000108814
-0.00273658
-0.000144484
-0.00281943
-0.000182457
-0.00288661
-0.00022215
-0.00294742
-0.000263241
-0.00300734
-0.000305589
-0.00306925
-0.000349165
-0.00313448
-0.00039401
-0.00320366
-0.000440231
-0.00327717
-0.000488003
-0.00335554
-0.000537539
-0.00343978
-0.000588915
-0.00353108
-0.00363049
-0.000641423
-5.71642e-05
-0.0024396
-8.70083e-05
-0.00259432
-0.00012105
-0.00270254
-0.000158159
-0.00278232
-0.000197483
-0.00284728
-0.000238473
-0.00290643
-0.000280835
-0.00296498
-0.000324446
-0.00302563
-0.000369283
-0.00308964
-0.000415385
-0.00315755
-0.000462853
-0.0032297
-0.000511857
-0.00330654
-0.000562651
-0.00338898
-0.00061543
-0.0034783
-0.00357647
-0.000669448
-3.97547e-05
-0.00219787
-6.59674e-05
-0.00241338
-9.74836e-05
-0.0025628
-0.000133052
-0.00266697
-0.000171568
-0.0027438
-0.000212215
-0.00280664
-0.000254481
-0.00286416
-0.000298097
-0.00292136
-0.000342956
-0.00298078
-0.000389042
-0.00304356
-0.000436395
-0.0031102
-0.0004851
-0.00318099
-0.000535316
-0.00325632
-0.000587327
-0.00333697
-0.000641468
-0.00342416
-0.00352096
-0.000696972
-2.49874e-05
-0.0018813
-4.66412e-05
-0.00217621
-7.46177e-05
-0.00238541
-0.000107761
-0.00252966
-0.000144817
-0.00262991
-0.000184707
-0.00270391
-0.000226652
-0.00276469
-0.000270171
-0.00282064
-0.000315023
-0.00287651
-0.000361116
-0.00293468
-0.000408441
-0.00299623
-0.000457036
-0.00306161
-0.000506976
-0.00313105
-0.000558395
-0.00320491
-0.000611594
-0.00328377
-0.000667063
-0.00336869
-0.00346396
-0.000724063
-2.99587e-05
-0.00186486
-5.34166e-05
-0.00215275
-8.31104e-05
-0.00235571
-0.000117837
-0.00249493
-0.000156342
-0.00259141
-0.000197574
-0.00266268
-0.00024079
-0.00272148
-0.000285542
-0.00277589
-0.000331611
-0.00283044
-0.000378921
-0.00288737
-0.000427474
-0.00294768
-0.000477308
-0.00301177
-0.000528485
-0.00307988
-0.000581109
-0.00315228
-0.000635488
-0.00322939
-0.000692273
-0.00331191
-0.00340542
-0.000750817
-1.66686e-05
-0.00146405
-3.48582e-05
-0.00184667
-6.0076e-05
-0.00212754
-9.1441e-05
-0.00232435
-0.000127707
-0.00245867
-0.000167624
-0.00255149
-0.000210167
-0.00262014
-0.000254627
-0.00267702
-0.000300589
-0.00272993
-0.000347856
-0.00278317
-0.000396368
-0.00283886
-0.000446136
-0.00289791
-0.000497203
-0.00296071
-0.000549624
-0.00302746
-0.000603479
-0.00309843
-0.000659065
-0.00317381
-0.000717121
-0.00325385
-0.00334527
-0.000777269
-7.20866e-06
-0.000964349
-1.97866e-05
-0.00145147
-3.96816e-05
-0.00182677
-6.66151e-05
-0.0021006
-9.96057e-05
-0.00229136
-0.000137369
-0.00242091
-0.00017866
-0.0025102
-0.000222482
-0.00257631
-0.000268161
-0.00263134
-0.00031531
-0.00268278
-0.000363756
-0.00273473
-0.000413451
-0.00278917
-0.000464417
-0.00284694
-0.000516707
-0.00290842
-0.00057038
-0.00297378
-0.000625521
-0.00304329
-0.000682416
-0.00311691
-0.000741627
-0.00319464
-0.00328322
-0.000803678
-8.78438e-06
-0.000957237
-2.28627e-05
-0.0014374
-4.44251e-05
-0.00180521
-7.30299e-05
-0.002072
-0.000107601
-0.00225679
-0.00014682
-0.00238169
-0.000189448
-0.00246757
-0.000234519
-0.00253124
-0.00028139
-0.00258447
-0.000329704
-0.00263447
-0.000379305
-0.00268513
-0.000430162
-0.00273831
-0.000482307
-0.0027948
-0.000535802
-0.00285492
-0.000590723
-0.00291886
-0.000647201
-0.00298681
-0.00070557
-0.00305854
-0.000766565
-0.00313365
-0.0032208
-0.000828982
-2.13442e-06
-0.000361763
-1.03387e-05
-0.000949033
-2.58881e-05
-0.00142185
-4.90787e-05
-0.00178202
-7.93101e-05
-0.00204177
-0.000115417
-0.00222068
-0.00015605
-0.00234105
-0.00019998
-0.00242364
-0.000246268
-0.00248495
-0.000294305
-0.00253643
-0.000343759
-0.00258501
-0.000394494
-0.00263439
-0.00044649
-0.00268631
-0.000499789
-0.0027415
-0.00055446
-0.00280025
-0.000610603
-0.00286272
-0.000668403
-0.00292901
-0.000728011
-0.00299893
-0.000788563
-0.0030731
-0.0031537
-0.000855663
-2.59446e-06
-0.000359169
-1.18776e-05
-0.00093975
-2.88704e-05
-0.00140485
-5.3651e-05
-0.00175724
-8.54655e-05
-0.00200995
-0.000123064
-0.00218308
-0.00016507
-0.00229905
-0.000210266
-0.00237844
-0.000257742
-0.00243748
-0.000306918
-0.00248726
-0.000357487
-0.00253444
-0.000409332
-0.00258255
-0.000462442
-0.0026332
-0.000516866
-0.00268708
-0.000572681
-0.00274443
-0.000629993
-0.00280541
-0.000688966
-0.00287003
-0.000749655
-0.00293825
-0.000812085
-0.00301067
-0.00308718
-0.000878612
-3.0498e-06
-0.000356119
-1.33949e-05
-0.000929405
-3.18014e-05
-0.00138645
-5.81326e-05
-0.00173091
-9.14863e-05
-0.0019766
-0.000130533
-0.00214404
-0.000173873
-0.00225571
-0.0002203
-0.00233202
-0.000268932
-0.00238885
-0.000319219
-0.00243697
-0.000370879
-0.00248278
-0.000423809
-0.00252962
-0.000478008
-0.002579
-0.000533529
-0.00263155
-0.000590454
-0.00268751
-0.000648888
-0.00274697
-0.000708964
-0.00280996
-0.000770755
-0.00287646
-0.000834514
-0.00294691
-0.00302048
-0.000901209
-3.49978e-06
-0.000352619
-1.48891e-05
-0.000918015
-3.46786e-05
-0.00136666
-6.25207e-05
-0.00170306
-9.73697e-05
-0.00194175
-0.000137821
-0.00210358
-0.000182455
-0.00221107
-0.000230078
-0.00228439
-0.000279837
-0.00233909
-0.000331209
-0.0023856
-0.000383934
-0.00243006
-0.000437923
-0.00247563
-0.000493185
-0.00252374
-0.000549776
-0.00257496
-0.000607778
-0.00262951
-0.000667294
-0.00268746
-0.000728436
-0.00274882
-0.000791294
-0.0028136
-0.000856119
-0.00288208
-0.00295329
-0.000923309
-3.94383e-06
-0.000348675
-1.63585e-05
-0.000905601
-3.74995e-05
-0.00134552
-6.68123e-05
-0.00167375
-0.000103113
-0.00190545
-0.000144927
-0.00206177
-0.000190815
-0.00216519
-0.000239601
-0.00223561
-0.000290455
-0.00228823
-0.000342885
-0.00233317
-0.000396649
-0.00237629
-0.000451672
-0.00242061
-0.00050797
-0.00246744
-0.000565603
-0.00251733
-0.000624653
-0.00257046
-0.000685215
-0.0026269
-0.000747391
-0.00268664
-0.000811276
-0.00274971
-0.000877062
-0.0028163
-0.00288543
-0.000944919
-4.38142e-06
-0.000344294
-1.78015e-05
-0.000892181
-4.02618e-05
-0.00132306
-7.10052e-05
-0.00164301
-0.000108714
-0.00186774
-0.000151848
-0.00201864
-0.000198953
-0.00211808
-0.000248866
-0.00218569
-0.000300787
-0.00223631
-0.000354246
-0.00227971
-0.000409023
-0.00232152
-0.000465055
-0.00236457
-0.000522364
-0.00241014
-0.000581011
-0.00245868
-0.000641078
-0.00251039
-0.000702656
-0.00256532
-0.000765837
-0.00262346
-0.000830713
-0.00268484
-0.000897424
-0.00274958
-0.00281681
-0.000966046
-4.81202e-06
-0.000339482
-1.92167e-05
-0.000877776
-4.29634e-05
-0.00129931
-7.50968e-05
-0.00161087
-0.000114171
-0.00182867
-0.000158583
-0.00197422
-0.000206867
-0.0020698
-0.000257874
-0.00213469
-0.00031083
-0.00218336
-0.000365292
-0.00222525
-0.000421056
-0.00226575
-0.000478071
-0.00230756
-0.000536364
-0.00235184
-0.000595998
-0.00239905
-0.000657054
-0.00244934
-0.000719619
-0.00250275
-0.000783779
-0.0025593
-0.000849618
-0.002619
-0.000917243
-0.00268196
-0.00274737
-5.23513e-06
-0.000334247
-2.06026e-05
-0.000862409
-4.56024e-05
-0.00127431
-7.9085e-05
-0.00157739
-0.000119482
-0.00178827
-0.000165131
-0.00192858
-0.000214555
-0.00202037
-0.000266623
-0.00208262
-0.000320585
-0.00212939
-0.000376022
-0.00216981
-0.000432747
-0.00220903
-0.000490719
-0.00224959
-0.00054997
-0.00229259
-0.000610565
-0.00233845
-0.000672583
-0.00238732
-0.000736108
-0.00243923
-0.000801223
-0.00249418
-0.000868003
-0.00255222
-0.000936536
-0.00261343
-0.00267706
-5.65027e-06
-0.000328597
-2.19582e-05
-0.000846101
-4.81768e-05
-0.00124809
-8.2968e-05
-0.0015426
-0.000124644
-0.00174659
-0.000171489
-0.00188173
-0.000222017
-0.00196985
-0.000275112
-0.00202952
-0.000330051
-0.00207445
-0.000386435
-0.00211343
-0.000444095
-0.00215137
-0.000502998
-0.00219068
-0.000563181
-0.00223241
-0.00062471
-0.00227693
-0.000687665
-0.00232436
-0.000752126
-0.00237477
-0.000818172
-0.00242814
-0.000885875
-0.00248451
-0.000955312
-0.00254399
-0.00260586
-6.05694e-06
-0.00032254
-2.3282e-05
-0.000828876
-5.0685e-05
-0.00122069
-8.67438e-05
-0.00150654
-0.000129657
-0.00170368
-0.000177658
-0.00183373
-0.000229252
-0.00191825
-0.000283342
-0.00197543
-0.000339227
-0.00201857
-0.000396532
-0.00205612
-0.0004551
-0.0020928
-0.000514908
-0.00213088
-0.000575997
-0.00217132
-0.000638435
-0.00221449
-0.0007023
-0.0022605
-0.000767673
-0.00230939
-0.000834629
-0.00236118
-0.000903239
-0.0024159
-0.000973572
-0.00247366
-6.4547e-06
-0.000316085
-2.45729e-05
-0.000810757
-5.31254e-05
-0.00119214
-9.04109e-05
-0.00146926
-0.00013452
-0.00165957
-0.000183635
-0.00178461
-0.00023626
-0.00186563
-0.000291312
-0.00192038
-0.000348114
-0.00196177
-0.000406311
-0.00199792
-0.000465761
-0.00203335
-0.000526448
-0.00207019
-0.000588417
-0.00210935
-0.000651739
-0.00215117
-0.00071649
-0.00219575
-0.00078275
-0.00224313
-0.000850596
-0.00229334
-0.000920094
-0.00234641
-0.00240243
-6.84312e-06
-0.000309242
-2.583e-05
-0.000791771
-5.54964e-05
-0.00116247
-9.39677e-05
-0.00143079
-0.000139229
-0.00161431
-0.000189421
-0.00173442
-0.00024304
-0.00181201
-0.000299021
-0.0018644
-0.000356711
-0.00190408
-0.000415772
-0.00193886
-0.000476077
-0.00197304
-0.000537618
-0.00200865
-0.000600442
-0.00204653
-0.000664621
-0.00208699
-0.000730233
-0.00213013
-0.000797358
-0.00217601
-0.000866071
-0.00222462
-0.00093644
-0.00227604
-0.00233034
-7.22176e-06
-0.00030202
-2.70521e-05
-0.00077194
-5.77968e-05
-0.00113172
-9.74128e-05
-0.00139117
-0.000143786
-0.00156793
-0.000195014
-0.0016832
-0.000249591
-0.00175743
-0.000306469
-0.00180752
-0.000365017
-0.00184553
-0.000424915
-0.00187897
-0.000486049
-0.00191191
-0.000548416
-0.00194628
-0.000612069
-0.00198287
-0.00067708
-0.00202198
-0.000743529
-0.00206369
-0.000811495
-0.00210804
-0.000881054
-0.00215506
-0.000952276
-0.00220481
-7.59025e-06
-0.00029443
-2.82383e-05
-0.000751292
-6.00252e-05
-0.00109994
-0.000100745
-0.00135045
-0.000148188
-0.00152049
-0.000200413
-0.00163097
-0.000255913
-0.00170193
-0.000313657
-0.00174978
-0.000373032
-0.00178615
-0.00043374
-0.00181826
-0.000495675
-0.00184997
-0.000558843
-0.00188311
-0.000623299
-0.00191842
-0.000689117
-0.00195616
-0.000756377
-0.00199643
-0.00082516
-0.00203926
-0.000895543
-0.00208468
-0.00213276
-7.94821e-06
-0.000286482
-2.93878e-05
-0.000729853
-6.21805e-05
-0.00106714
-0.000103963
-0.00130867
-0.000152435
-0.00147202
-0.000205619
-0.00157779
-0.000262006
-0.00164554
-0.000320582
-0.0016912
-0.000380757
-0.00172598
-0.000442246
-0.00175677
-0.000504956
-0.00178726
-0.000568898
-0.00181917
-0.000634131
-0.00185319
-0.00070073
-0.00188956
-0.000768776
-0.00192838
-0.000838352
-0.00196968
-0.000909535
-0.0020135
-0.00205989
-8.29527e-06
-0.000278186
-3.04996e-05
-0.000707648
-6.42615e-05
-0.00103338
-0.000107066
-0.00126586
-0.000156526
-0.00142256
-0.000210629
-0.00152368
-0.000267869
-0.0015883
-0.000327247
-0.00163182
-0.000388191
-0.00166504
-0.000450433
-0.00169453
-0.00051389
-0.0017238
-0.00057858
-0.00175448
-0.000644563
-0.0017872
-0.000711917
-0.00182221
-0.000780724
-0.00185957
-0.000851068
-0.00189934
-0.000923028
-0.00194154
-0.00198624
-8.63111e-06
-0.000269555
-3.15731e-05
-0.000684706
-6.62672e-05
-0.000998688
-0.000110052
-0.00122208
-0.000160459
-0.00137215
-0.000215445
-0.0014687
-0.000273502
-0.00153025
-0.000333649
-0.00157168
-0.000395333
-0.00160335
-0.0004583
-0.00163156
-0.000522478
-0.00165963
-0.000587888
-0.00168907
-0.000654595
-0.0017205
-0.000722677
-0.00175412
-0.00079222
-0.00179003
-0.000863306
-0.00182825
-0.000936019
-0.00186882
-8.95541e-06
-0.0002606
-3.26074e-05
-0.000661054
-6.81966e-05
-0.000963099
-0.000112922
-0.00117735
-0.000164235
-0.00132084
-0.000220065
-0.00141287
-0.000278905
-0.00147141
-0.00033979
-0.00151079
-0.000402184
-0.00154096
-0.000465848
-0.0015679
-0.000530718
-0.00159476
-0.000596822
-0.00162297
-0.000664225
-0.00165309
-0.00073301
-0.00168534
-0.00080326
-0.00171978
-0.000875063
-0.00175645
-0.00179538
-9.26786e-06
-0.000251332
-3.36019e-05
-0.00063672
-7.00489e-05
-0.000926652
-0.000115673
-0.00113173
-0.000167853
-0.00126866
-0.000224489
-0.00135623
-0.000284077
-0.00141182
-0.000345668
-0.0014492
-0.000408742
-0.00147788
-0.000473075
-0.00150356
-0.00053861
-0.00152922
-0.00060538
-0.0015562
-0.000673453
-0.00158502
-0.000742912
-0.00161588
-0.000813844
-0.00164885
-0.000886337
-0.00168396
-0.00172124
-9.56817e-06
-0.000241764
-3.45559e-05
-0.000611733
-7.18232e-05
-0.000889385
-0.000118306
-0.00108524
-0.000171312
-0.00121565
-0.000228716
-0.00129883
-0.000289019
-0.00135152
-0.000351284
-0.00138694
-0.000415009
-0.00141416
-0.000479981
-0.00143859
-0.000546153
-0.00146305
-0.000613561
-0.00148879
-0.000682276
-0.00151631
-0.000752383
-0.00154577
-0.000823969
-0.00157726
-0.000897125
-0.0016108
-0.00164643
-9.85608e-06
-0.000231908
-3.54688e-05
-0.00058612
-7.35186e-05
-0.000851335
-0.000120819
-0.00103794
-0.000174611
-0.00116186
-0.000232746
-0.00124069
-0.000293729
-0.00129053
-0.000356637
-0.00132403
-0.000420983
-0.00134981
-0.000486566
-0.00137301
-0.000553346
-0.00139627
-0.000621364
-0.00142077
-0.000690693
-0.00144698
-0.00076142
-0.00147505
-0.000833633
-0.00150505
-0.000907424
-0.00153701
-1.01313e-05
-0.000221776
-3.634e-05
-0.000559911
-7.51346e-05
-0.00081254
-0.000123211
-0.000989868
-0.000177749
-0.00110732
-0.000236579
-0.00118186
-0.000298208
-0.00122891
-0.000361726
-0.00126051
-0.000426664
-0.00128487
-0.000492829
-0.00130684
-0.000560189
-0.00132891
-0.000628789
-0.00135217
-0.000698704
-0.00137706
-0.000770022
-0.00140373
-0.000842834
-0.00143223
-0.00146261
-1.03937e-05
-0.000211383
-3.7169e-05
-0.000533136
-7.66703e-05
-0.000773039
-0.000125483
-0.000941055
-0.000180728
-0.00105208
-0.000240215
-0.00112238
-0.000302455
-0.00116666
-0.000366553
-0.00119641
-0.000432051
-0.00121938
-0.000498769
-0.00124013
-0.000566681
-0.001261
-0.000635834
-0.00128302
-0.000706306
-0.00130659
-0.000778187
-0.00133185
-0.000851569
-0.00135885
-0.00138764
-1.06429e-05
-0.00020074
-3.79553e-05
-0.000505823
-7.81252e-05
-0.000732869
-0.000127633
-0.000891547
-0.000183545
-0.000996168
-0.000243652
-0.00106227
-0.00030647
-0.00110385
-0.000371116
-0.00113177
-0.000437145
-0.00115335
-0.000504387
-0.00117288
-0.000572821
-0.00119256
-0.000642498
-0.00121334
-0.000713499
-0.00123559
-0.000785914
-0.00125943
-0.000859836
-0.00128493
-0.00131211
-1.08788e-05
-0.000189861
-3.86984e-05
-0.000478004
-7.94987e-05
-0.000692069
-0.000129662
-0.000841384
-0.0001862
-0.000939629
-0.000246892
-0.00100158
-0.000310254
-0.00104049
-0.000375416
-0.0010666
-0.000441945
-0.00108682
-0.000509681
-0.00110515
-0.000578608
-0.00112363
-0.00064878
-0.00114317
-0.000720281
-0.00116409
-0.0007932
-0.00118651
-0.000867633
-0.0012105
-0.00123607
-1.11011e-05
-0.00017876
-3.93979e-05
-0.000449707
-8.07901e-05
-0.000650677
-0.000131567
-0.000790607
-0.000188694
-0.000882502
-0.000249933
-0.000940338
-0.000313804
-0.000976614
-0.000379451
-0.00100096
-0.00044645
-0.00101982
-0.00051465
-0.00103695
-0.000584041
-0.00105424
-0.00065468
-0.00107253
-0.00072665
-0.00109212
-0.000800044
-0.00111312
-0.000874958
-0.00113558
-1.13098e-05
-0.00016745
-4.00533e-05
-0.000420963
-8.19991e-05
-0.000608731
-0.00013335
-0.000739256
-0.000191026
-0.000824826
-0.000252775
-0.000878589
-0.000317123
-0.000912266
-0.000383222
-0.000934858
-0.000450661
-0.000952379
-0.000519295
-0.000968314
-0.00058912
-0.000984419
-0.000660195
-0.00100145
-0.000732605
-0.00101971
-0.000806444
-0.00103928
-0.00106022
-1.15045e-05
-0.000155946
-4.06643e-05
-0.000391804
-8.3125e-05
-0.00056627
-0.000135009
-0.000687373
-0.000193194
-0.00076664
-0.000255418
-0.000816366
-0.000320208
-0.000847475
-0.000386728
-0.000868339
-0.000454576
-0.000884531
-0.000523615
-0.000899276
-0.000593844
-0.00091419
-0.000665325
-0.000929973
-0.000738145
-0.000946888
-0.000812399
-0.000965028
-0.000984432
-1.16852e-05
-0.00014426
-4.12306e-05
-0.000362258
-8.41675e-05
-0.000523333
-0.000136544
-0.000634997
-0.0001952
-0.000707983
-0.000257862
-0.000753704
-0.000323061
-0.000782276
-0.00038997
-0.00080143
-0.000458196
-0.000816304
-0.000527609
-0.000829863
-0.000598212
-0.000843587
-0.00067007
-0.000858116
-0.000743269
-0.000873688
-0.000817907
-0.00089039
-0.000908257
-1.18516e-05
-0.000132409
-4.17517e-05
-0.000332358
-8.51262e-05
-0.000479959
-0.000137954
-0.000582169
-0.000197043
-0.000648895
-0.000260106
-0.000690641
-0.00032568
-0.000716701
-0.000392946
-0.000734164
-0.00046152
-0.00074773
-0.000531277
-0.000760106
-0.000602224
-0.00077264
-0.000674427
-0.000785912
-0.000747976
-0.00080014
-0.000822967
-0.000815399
-0.000831723
-1.20037e-05
-0.000120405
-4.22274e-05
-0.000302135
-8.60007e-05
-0.000436186
-0.00013924
-0.000528929
-0.000198722
-0.000589413
-0.00026215
-0.000627213
-0.000328066
-0.000650786
-0.000395657
-0.000666573
-0.000464547
-0.00067884
-0.000534618
-0.000690035
-0.000605878
-0.000701379
-0.000678397
-0.000713393
-0.000752265
-0.000726272
-0.000827578
-0.000740086
-0.000754863
-1.21414e-05
-0.000108264
-4.26574e-05
-0.000271618
-8.67907e-05
-0.000392052
-0.000140401
-0.000475318
-0.000200237
-0.000529577
-0.000263995
-0.000563456
-0.000330218
-0.000584563
-0.000398102
-0.000598689
-0.000467278
-0.000609663
-0.000537631
-0.000619682
-0.000609175
-0.000629835
-0.000681979
-0.000640589
-0.000756134
-0.000652118
-0.000831738
-0.000664482
-0.000677707
-1.22644e-05
-9.59993e-05
-4.30415e-05
-0.000240841
-8.74958e-05
-0.000347598
-0.000141437
-0.000421377
-0.000201588
-0.000469426
-0.000265639
-0.000499405
-0.000332136
-0.000518065
-0.000400281
-0.000530544
-0.000469712
-0.000540233
-0.000540317
-0.000549077
-0.000612114
-0.000558039
-0.000685171
-0.000567531
-0.000759583
-0.000577706
-0.000835446
-0.000588618
-0.000600288
-1.23728e-05
-8.36265e-05
-4.33796e-05
-0.000209835
-8.81158e-05
-0.000302862
-0.000142347
-0.000367145
-0.000202775
-0.000408999
-0.000267083
-0.000435097
-0.000333821
-0.000451328
-0.000402195
-0.00046217
-0.000471849
-0.000470579
-0.000542676
-0.00047825
-0.000614693
-0.000486021
-0.000687974
-0.000494251
-0.00076261
-0.00050307
-0.000838702
-0.000512526
-0.000522638
-1.24664e-05
-7.116e-05
-4.36713e-05
-0.00017863
-8.86505e-05
-0.000257883
-0.000143132
-0.000312664
-0.000203798
-0.000348333
-0.000268327
-0.000370568
-0.000335271
-0.000384384
-0.000403842
-0.000393598
-0.000473688
-0.000400733
-0.000544705
-0.000407233
-0.000616914
-0.000413813
-0.000690386
-0.000420778
-0.000765216
-0.00042824
-0.000841505
-0.000436238
-0.000444788
-1.25452e-05
-5.86148e-05
-4.39165e-05
-0.000147259
-8.90996e-05
-0.000212699
-0.000143791
-0.000257973
-0.000204656
-0.000287468
-0.00026937
-0.000305854
-0.000336487
-0.000317267
-0.000405223
-0.000324862
-0.00047523
-0.000330726
-0.000546406
-0.000336056
-0.000618774
-0.000341445
-0.000692408
-0.000347145
-0.0007674
-0.000353247
-0.000843853
-0.000359785
-0.000366772
-1.26091e-05
-4.60057e-05
-4.41151e-05
-0.000115753
-8.94631e-05
-0.000167351
-0.000144323
-0.000203113
-0.000205349
-0.000226442
-0.000270212
-0.00024099
-0.000337469
-0.000250011
-0.000406338
-0.000255993
-0.000476474
-0.00026059
-0.000547779
-0.000264752
-0.000620275
-0.000268949
-0.000694038
-0.000273382
-0.000769161
-0.000278124
-0.000845746
-0.000283201
-1.26581e-05
-3.33476e-05
-4.4267e-05
-8.41436e-05
-8.97408e-05
-0.000121878
-0.000144729
-0.000148124
-0.000205877
-0.000165294
-0.000270854
-0.000176014
-0.000338216
-0.000182649
-0.000407185
-0.000187023
-0.00047742
-0.000190356
-0.000548822
-0.00019335
-0.000621416
-0.000196355
-0.000695276
-0.000199521
-0.000770499
-0.000202902
-0.000206516
-1.2692e-05
-2.06556e-05
-4.43722e-05
-5.24634e-05
-8.99325e-05
-7.63174e-05
-0.00014501
-9.30474e-05
-0.000206241
-0.000104062
-0.000271295
-0.00011096
-0.000338729
-0.000115215
-0.000407767
-0.000117985
-0.000478068
-0.000120055
-0.000549536
-0.000121882
-0.000622196
-0.000123695
-0.000696123
-0.000125594
-0.000771412
-0.000127612
-0.000129763
-1.2711e-05
-7.94465e-06
-4.44305e-05
-2.07439e-05
-9.00383e-05
-3.07096e-05
-0.000145163
-3.79224e-05
-0.00020644
-4.27855e-05
-0.000271535
-4.58651e-05
-0.000339007
-4.77431e-05
-0.000408081
-4.89107e-05
-0.000478417
-4.97185e-05
-0.00054992
-5.03787e-05
-0.000622615
-5.10006e-05
-0.000696577
-5.16312e-05
-0.000771902
-5.22873e-05
-5.29735e-05
-1.27148e-05
4.7702e-06
-4.44418e-05
1.09831e-05
-9.0058e-05
1.49065e-05
-0.000145191
1.72103e-05
-0.000206474
1.84976e-05
-0.000271574
1.92353e-05
-0.000339051
1.97334e-05
-0.000408129
2.01676e-05
-0.000478469
2.06214e-05
-0.000549975
2.11278e-05
-0.000622674
2.16977e-05
-0.00069664
2.23348e-05
-0.000771968
2.30412e-05
2.38192e-05
-1.27038e-05
1.7474e-05
-4.44065e-05
4.26858e-05
-8.99919e-05
6.04919e-05
-0.000145092
7.23104e-05
-0.000206343
7.97488e-05
-0.000271413
8.43051e-05
-0.00033886
8.71807e-05
-0.00040791
8.92177e-05
-0.000478222
9.09336e-05
-0.000549701
9.26067e-05
-0.000622372
9.43683e-05
-0.00069631
9.62729e-05
-0.00077161
9.83416e-05
0.000100583
-1.26777e-05
3.01517e-05
-4.43243e-05
7.43324e-05
-8.98398e-05
0.000106007
-0.000144867
0.000127337
-0.000206047
0.000140929
-0.000271051
0.000149308
-0.000338435
0.000154565
-0.000407425
0.000158207
-0.000477678
0.000161187
-0.000549098
0.000164027
-0.00062171
0.00016698
-0.000695588
0.000170151
-0.000770828
0.000173582
0.000177287
-1.26367e-05
4.27884e-05
-4.41954e-05
0.000105891
-8.96018e-05
0.000151414
-0.000144516
0.000182251
-0.000205587
0.000202001
-0.000270488
0.000214209
-0.000337776
0.000221853
-0.000406673
0.000227105
-0.000476835
0.000231349
-0.000548165
0.000235357
-0.000620687
0.000239501
-0.000694474
0.000243939
-0.000769623
0.00024873
-0.000846233
0.000253897
0.000259452
-1.25806e-05
5.5369e-05
-4.40197e-05
0.00013733
-8.9278e-05
0.000196672
-0.000144038
0.000237011
-0.000204962
0.000262924
-0.000269724
0.000278972
-0.000336882
0.000289011
-0.000405654
0.000295877
-0.000475695
0.000301389
-0.000546904
0.000306566
-0.000619304
0.000311901
-0.000692969
0.000317605
-0.000767994
0.000323755
-0.000844479
0.000330382
0.000337501
-1.25097e-05
6.78787e-05
-4.37974e-05
0.000168618
-8.88686e-05
0.000241743
-0.000143435
0.000291577
-0.000204172
0.000323662
-0.00026876
0.00034356
-0.000335754
0.000356005
-0.00040437
0.000364492
-0.000474257
0.000371276
-0.000545313
0.000377622
-0.00061756
0.000384148
-0.000691072
0.000391116
-0.000765942
0.000398625
-0.000842269
0.00040671
0.000415391
-1.24239e-05
8.03027e-05
-4.35287e-05
0.000199723
-8.83738e-05
0.000286588
-0.000142705
0.000345909
-0.000203218
0.000384174
-0.000267596
0.000407938
-0.000334392
0.000422801
-0.000402819
0.000432919
-0.000472521
0.000440978
-0.000543394
0.000448495
-0.000615458
0.000456212
-0.000688784
0.000464443
-0.000763467
0.000473307
-0.000839605
0.000482849
0.00049309
-1.23234e-05
9.26261e-05
-4.32137e-05
0.000230613
-8.77936e-05
0.000331168
-0.000141851
0.000399966
-0.0002021
0.000444423
-0.000266231
0.000472069
-0.000332796
0.000489366
-0.000401002
0.000501124
-0.000470488
0.000510465
-0.000541147
0.000519154
-0.000612995
0.000528061
-0.000686106
0.000537553
-0.00076057
0.000547771
-0.000836488
0.000558767
0.000570563
-1.22082e-05
0.000104834
-4.28526e-05
0.000261257
-8.71284e-05
0.000375444
-0.00014087
0.000453708
-0.000200817
0.00050437
-0.000264666
0.000535919
-0.000330967
0.000555667
-0.000398919
0.000569076
-0.000468158
0.000579703
-0.000538571
0.000589568
-0.000610175
0.000599664
-0.000683038
0.000610416
-0.000757252
0.000621986
-0.000832917
0.000634431
0.000647781
-1.20784e-05
0.000116913
-4.24456e-05
0.000291624
-8.63785e-05
0.000419377
-0.000139765
0.000507095
-0.000199371
0.000563976
-0.000262902
0.000599449
-0.000328904
0.000621669
-0.00039657
0.000636743
-0.000465531
0.000648664
-0.000535668
0.000659706
-0.000606995
0.000670991
-0.00067958
0.000683001
-0.000753514
0.000695919
-0.000828894
0.000709811
0.000724709
-1.19342e-05
0.000128847
-4.1993e-05
0.000321683
-8.55442e-05
0.000462928
-0.000138535
0.000560086
-0.000197761
0.000623202
-0.000260938
0.000662626
-0.000326607
0.000687338
-0.000393956
0.000704092
-0.000462608
0.000717315
-0.000532439
0.000729537
-0.000603458
0.000742011
-0.000675734
0.000755277
-0.000749356
0.00076954
-0.00082442
0.000784876
0.000801317
-1.17756e-05
0.000140622
-4.1495e-05
0.000351403
-8.46258e-05
0.000506059
-0.000137181
0.00061264
-0.000195988
0.00068201
-0.000258774
0.000725411
-0.000324077
0.000752642
-0.000391078
0.000771092
-0.000459388
0.000785626
-0.000528882
0.00079903
-0.000599564
0.000812693
-0.000671501
0.000827213
-0.000744779
0.000842819
-0.000819496
0.000859593
0.000877573
-1.16027e-05
0.000152225
-4.09519e-05
0.000380752
-8.36237e-05
0.000548731
-0.000135702
0.000664719
-0.000194052
0.00074036
-0.000256411
0.00078777
-0.000321315
0.000817545
-0.000387934
0.000837711
-0.000455873
0.000853566
-0.000525
0.000868157
-0.000595314
0.000883008