/*--------------------------------*- C++ -*----------------------------------*\
  =========                 |
  \\      /  F ield         | OpenFOAM: The Open Source CFD Toolbox
   \\    /   O peration     | Website:  https://openfoam.org
    \\  /    A nd           | Version:  7
     \\/     M anipulation  |
\*---------------------------------------------------------------------------*/
FoamFile
{
    version     2.0;
    format      ascii;
    class       volVectorField;
    location    "300";
    object      U;
}
// * * * * * * * * * * * * * * * * * * * * * * * * * * * * * * * * * * * * * //

dimensions      [0 1 -1 0 0 0 0];

internalField   nonuniform List<vector> 
4575
(
(1.1708 0.350665 -1.00807e-20)
(1.16756 0.369483 3.57932e-20)
(1.16154 0.354188 -3.26684e-20)
(1.16823 0.409475 -4.30772e-20)
(1.16264 0.390653 1.97974e-20)
(1.15765 0.373018 3.95455e-21)
(1.1521 0.357474 3.27181e-20)
(1.1632 0.433516 -2.8849e-20)
(1.15706 0.413401 8.19043e-20)
(1.152 0.394212 -3.07859e-21)
(1.14754 0.376292 -1.14312e-20)
(1.14249 0.360514 4.68704e-21)
(1.15792 0.459148 4.87164e-20)
(1.15128 0.437541 -2.83657e-20)
(1.14568 0.41703 -4.00464e-20)
(1.14116 0.397487 1.07927e-20)
(1.13724 0.379296 -2.58346e-20)
(1.13271 0.363298 -1.72108e-20)
(1.15218 0.486406 -2.80529e-20)
(1.14521 0.463272 -8.0044e-21)
(1.13913 0.441243 -2.06922e-21)
(1.13407 0.420351 -2.60504e-21)
(1.13011 0.400468 6.04934e-22)
(1.12675 0.382018 -1.89111e-20)
(1.12278 0.365816 1.25367e-20)
(1.14567 0.515275 7.20096e-20)
(1.13861 0.490623 -1.87416e-20)
(1.13226 0.467039 -2.11549e-21)
(1.12677 0.444608 3.54651e-20)
(1.12227 0.423352 9.04579e-21)
(1.11886 0.403145 2.64083e-20)
(1.11608 0.38445 2.97738e-20)
(1.11268 0.368059 5.31515e-21)
(1.13793 0.54565 9.46669e-21)
(1.13116 0.519582 1.89663e-20)
(1.12478 0.494444 3.62537e-20)
(1.11908 0.470435 4.1959e-21)
(1.1142 0.447625 9.63201e-21)
(1.11026 0.426023 -2.73142e-20)
(1.10743 0.405507 1.66816e-20)
(1.10524 0.386582 -2.18044e-20)
(1.10244 0.370019 -4.58897e-21)
(1.12828 0.57719 -9.38595e-20)
(1.12243 0.550055 -1.04701e-19)
(1.11638 0.523448 -4.74761e-20)
(1.11072 0.497856 -4.87914e-20)
(1.10569 0.473448 -5.80709e-21)
(1.10143 0.450281 -4.35663e-21)
(1.09808 0.428355 -7.59431e-21)
(1.09583 0.407547 -8.58037e-21)
(1.09422 0.388405 -2.47607e-20)
(1.09205 0.371685 9.59692e-21)
(1.11556 0.609086 -1.56021e-20)
(1.11178 0.581723 6.85519e-20)
(1.10664 0.553968 9.43122e-20)
(1.10135 0.52686 1.50185e-20)
(1.09643 0.500843 5.95089e-20)
(1.0921 0.476065 -3.00527e-21)
(1.08849 0.452567 2.94278e-20)
(1.08573 0.430336 -9.22084e-21)
(1.08406 0.409256 -9.80267e-21)
(1.08304 0.389911 1.54302e-20)
(1.08152 0.37305 2.49374e-22)
(1.09783 0.639718 2.95079e-20)
(1.09811 0.61381 4.29812e-20)
(1.09496 0.585705 2.66773e-20)
(1.09058 0.557375 -6.60692e-20)
(1.08608 0.529801 -4.87207e-20)
(1.08193 0.503392 -2.93127e-20)
(1.07834 0.478273 -4.76964e-20)
(1.07539 0.454469 -9.79593e-21)
(1.07324 0.431958 -5.85108e-21)
(1.07214 0.410625 -2.87441e-22)
(1.0717 0.391091 5.30844e-21)
(1.07086 0.374103 -1.8547e-21)
(1.07199 0.666214 -4.14034e-20)
(1.07957 0.644736 -1.45045e-19)
(1.08029 0.617915 -9.89063e-20)
(1.07783 0.589121 -2.83854e-20)
(1.07426 0.560259 4.19956e-20)
(1.07059 0.532258 3.23334e-20)
(1.06725 0.50549 6.29167e-22)
(1.06441 0.48006 2.34564e-20)
(1.06215 0.455979 -3.30505e-21)
(1.06061 0.433212 5.52654e-21)
(1.06008 0.411649 3.29955e-21)
(1.06023 0.391938 -3.65545e-21)
(1.06006 0.374834 1.69076e-21)
(1.03346 0.684001 -5.01875e-20)
(1.05318 0.671664 8.4334e-20)
(1.06089 0.649057 8.75687e-20)
(1.06214 0.621385 3.02377e-20)
(1.06044 0.591956 2.82044e-20)
(1.05771 0.562608 -1.22771e-20)
(1.0549 0.534218 -5.91153e-21)
(1.0524 0.507125 -1.53903e-21)
(1.05033 0.481414 2.40532e-20)
(1.04878 0.457084 5.3559e-21)
(1.04787 0.434088 1.60094e-21)
(1.04792 0.41232 -3.04159e-21)
(1.04861 0.392444 5.74481e-21)
(1.04915 0.375231 8.2433e-21)
(0.976136 0.686497 -2.8136e-20)
(1.01454 0.690033 1.31156e-20)
(1.0339 0.676336 -8.56034e-21)
(1.04183 0.652666 7.52402e-20)
(1.04369 0.624206 -6.54539e-20)
(1.04279 0.594196 -9.18178e-21)
(1.04095 0.564407 -3.03011e-22)
(1.03903 0.535667 9.06272e-21)
(1.03739 0.508283 1.94623e-20)
(1.03613 0.482324 -1.58775e-20)
(1.03531 0.457775 -4.0676e-21)
(1.03504 0.434578 -4.21732e-22)
(1.03566 0.412631 4.45584e-21)
(1.03689 0.392602 1.31673e-20)
(1.03814 0.375282 -1.54316e-20)
(0.95769 0.693207 -9.55589e-21)
(0.995063 0.695204 -3.40399e-20)
(1.01418 0.680212 -9.48147e-21)
(1.02243 0.65555 -6.916e-20)
(1.02496 0.626364 8.84352e-20)
(1.02492 0.595828 2.1357e-21)
(1.024 0.565644 2.11705e-20)
(1.02301 0.536594 -7.48141e-22)
(1.02224 0.508954 -2.05561e-21)
(1.02181 0.482778 4.26234e-21)
(1.02174 0.458039 -4.45241e-21)
(1.02215 0.434671 -2.55136e-21)
(1.02332 0.412575 1.96413e-20)
(1.02507 0.392403 -9.29544e-21)
(1.02705 0.374968 2.83371e-21)
(0.875425 0.672478 -4.8311e-20)
(0.938603 0.698989 -3.62411e-20)
(0.975075 0.699498 -2.95176e-20)
(0.994055 0.683279 4.2146e-20)
(1.00272 0.657695 -2.65772e-21)
(1.00599 0.627848 -4.94193e-20)
(1.00685 0.59684 2.69155e-20)
(1.00689 0.566308 7.23192e-21)
(1.00684 0.536987 -1.31499e-20)
(1.00698 0.509127 -4.91701e-21)
(1.0074 0.482766 1.31102e-21)
(1.00811 0.457868 8.50432e-22)
(1.00921 0.434356 5.7493e-21)
(1.01095 0.412143 1.57689e-20)
(1.01318 0.391833 -4.44378e-20)
(1.0159 0.37426 1.06273e-20)
(0.760029 0.617576 1.12808e-21)
(0.857475 0.678856 5.04268e-20)
(0.918929 0.703826 6.42223e-20)
(0.954624 0.7029 3.81476e-20)
(0.973577 0.685525 -1.97422e-20)
(0.982734 0.659089 2.71653e-20)
(0.986804 0.628646 -8.25841e-21)
(0.988609 0.597221 -2.82898e-20)
(0.989633 0.566389 -5.33585e-21)
(0.990552 0.536837 -3.62277e-22)
(0.99162 0.508792 -4.73311e-21)
(0.992907 0.482278 -2.53715e-21)
(0.994421 0.457248 2.1244e-20)
(0.996239 0.433622 -1.86549e-20)
(0.998564 0.411325 1.14645e-20)
(1.00124 0.390875 5.2537e-20)
(1.0047 0.373115 3.43483e-20)
(0.744103 0.624291 -7.48279e-20)
(0.838876 0.684252 -2.24456e-20)
(0.898723 0.7077 5.18282e-20)
(0.933758 0.705397 -6.65355e-20)
(0.952786 0.686937 -4.96828e-20)
(0.962512 0.659722 -2.05274e-20)
(0.967436 0.628747 2.46155e-20)
(0.970222 0.596962 5.76056e-21)
(0.972258 0.565876 2.29086e-21)
(0.974164 0.536135 -1.20981e-20)
(0.976175 0.507941 1.02756e-20)
(0.978348 0.481304 -2.52893e-21)
(0.980691 0.456171 -2.51968e-20)
(0.983264 0.432459 -1.03438e-20)
(0.986184 0.410111 -3.23887e-20)
(0.98929 0.389509 2.02497e-20)
(0.993534 0.371475 -4.10183e-20)
(0.591491 0.524151 7.44587e-20)
(0.7275 0.630042 1.06633e-19)
(0.819683 0.688644 3.9655e-20)
(0.878037 0.710596 -1.44636e-20)
(0.912525 0.706976 6.53953e-21)
(0.931723 0.687506 2.62929e-20)
(0.942089 0.659585 2.47458e-20)
(0.947916 0.628143 -5.7412e-21)
(0.951717 0.596054 2.44541e-22)
(0.954786 0.564763 1.13672e-21)
(0.957697 0.534874 1.52951e-20)
(0.960663 0.506565 -5.15167e-22)
(0.963738 0.479837 -7.62864e-21)
(0.966931 0.454625 -5.73991e-21)
(0.970291 0.430851 1.96445e-20)
(0.973822 0.408486 4.06091e-20)
(0.977375 0.387711 -6.72904e-20)
(0.982554 0.369293 4.8048e-20)
(0.394414 0.368162 1.46553e-19)
(0.577942 0.529734 -6.60035e-20)
(0.710275 0.634808 -7.29264e-20)
(0.799953 0.692018 -2.63775e-20)
(0.856925 0.712502 3.16518e-20)
(0.890975 0.707628 2.40686e-20)
(0.91043 0.687223 1.97229e-20)
(0.921501 0.65867 -1.25491e-20)
(0.928275 0.626827 1.63557e-21)
(0.93312 0.59449 4.94856e-21)
(0.937242 0.563042 -9.03757e-21)
(0.941171 0.533046 -1.03449e-20)
(0.945104 0.50466 -9.19131e-21)
(0.949089 0.47787 -1.12125e-21)
(0.953149 0.452603 3.74438e-20)
(0.957315 0.428786 -1.44405e-20)
(0.961473 0.406413 -2.99654e-20)
(0.96559 0.385421 -1.4791e-21)
(0.972006 0.366561 -6.96872e-20)
(0.385103 0.372655 -5.64887e-20)
(0.563805 0.534435 6.22629e-20)
(0.692485 0.63857 8.55361e-20)
(0.779742 0.694358 -3.25885e-20)
(0.83544 0.713407 4.78261e-21)
(0.869153 0.707345 -3.42302e-20)
(0.888948 0.686081 -9.45149e-21)
(0.900784 0.65697 3.55339e-22)
(0.908544 0.624792 -1.02334e-20)
(0.914458 0.592264 -1.86732e-20)
(0.91965 0.560707 -5.13727e-21)
(0.924609 0.530648 4.10705e-22)
(0.929515 0.502221 -1.38315e-20)
(0.934418 0.475402 1.23808e-20)
(0.939347 0.450104 3.37592e-20)
(0.944316 0.426258 1.11406e-20)
(0.94912 0.403856 -6.09786e-20)
(0.954042 0.382495 -2.14702e-21)
(0.961833 0.363038 2.11289e-20)
(0.147423 0.149401 1.6881e-20)
(0.375333 0.376494 2.17538e-20)
(0.549131 0.538236 -5.50892e-20)
(0.674184 0.641311 -2.25346e-20)
(0.759107 0.695653 -2.3605e-20)
(0.813637 0.713303 -1.70046e-20)
(0.847109 0.706121 1.93685e-20)
(0.86732 0.684075 -7.72567e-21)
(0.879974 0.65448 1.334e-20)
(0.888755 0.622033 3.38388e-20)
(0.89576 0.589371 2.45173e-20)
(0.902035 0.557755 -1.17361e-20)
(0.908032 0.527675 -7.01259e-21)
(0.913917 0.499248 -3.99727e-21)
(0.919738 0.472434 -3.80848e-20)
(0.925533 0.447136 -1.97269e-20)
(0.93128 0.423288 -2.18288e-20)
(0.936769 0.400863 7.31488e-20)
(0.9428 0.378972 -1.70897e-20)
(0.95106 0.357152 6.36258e-20)
(0.14363 0.151171 2.23167e-20)
(0.365139 0.37966 -7.81911e-21)
(0.533968 0.541119 2.8713e-20)
(0.655429 0.643019 -5.73656e-21)
(0.738105 0.695892 1.3233e-20)
(0.791566 0.712183 1.0212e-20)
(0.82489 0.70395 -2.42679e-21)
(0.845586 0.681201 8.1368e-21)
(0.859106 0.651196 -4.26828e-20)
(0.868939 0.618547 1.13205e-20)
(0.877053 0.585807 -1.42214e-20)
(0.884422 0.554182 1.81967e-20)
(0.891464 0.524127 1.8414e-20)
(0.898331 0.495738 3.03558e-20)
(0.905071 0.468968 1.19594e-20)
(0.91172 0.44371 3.40702e-20)
(0.918232 0.419899 1.68853e-20)
(0.92446 0.397508 -4.03587e-21)
(0.931462 0.37566 3.67359e-20)
(0.939791 0.354074 6.35298e-21)
(0.139644 0.152655 -1.54101e-20)
(0.354559 0.382137 -1.85205e-20)
(0.518366 0.543068 -1.51652e-20)
(0.636276 0.64368 7.5633e-21)
(0.716792 0.695069 -6.23657e-21)
(0.769283 0.710043 -3.76254e-21)
(0.802542 0.70083 1.53452e-20)
(0.823789 0.677457 1.01034e-20)
(0.838218 0.647116 2.93176e-20)
(0.849129 0.61433 2.37753e-20)
(0.858367 0.58157 -5.93964e-20)
(0.866838 0.549987 1.33713e-21)
(0.874928 0.520001 -5.99493e-20)
(0.882779 0.491693 -3.457e-21)
(0.890437 0.465005 -2.6476e-20)
(0.897935 0.439828 4.11156e-20)
(0.905212 0.416095 -6.30238e-20)
(0.912168 0.393764 -1.57658e-20)
(0.919869 0.371953 -2.38628e-20)
(0.928237 0.350443 -8.57301e-20)
(0.135482 0.153846 9.16108e-21)
(0.343628 0.383912 -2.05445e-20)
(0.502377 0.544072 6.88922e-21)
(0.616783 0.643286 -2.23738e-21)
(0.695225 0.693177 5.28037e-21)
(0.746838 0.70688 -5.89581e-21)
(0.780113 0.69676 1.38974e-20)
(0.801968 0.67284 -4.43886e-20)
(0.817345 0.642239 -3.63806e-20)
(0.829355 0.609382 -6.94511e-20)
(0.839729 0.57666 4.39841e-20)
(0.849308 0.545168 -3.39659e-21)
(0.858449 0.515297 -1.15257e-20)
(0.867284 0.487111 -2.1401e-20)
(0.875859 0.460546 -3.082e-20)
(0.884203 0.43549 1.70568e-20)
(0.89225 0.411877 5.12142e-20)
(0.899938 0.38965 -2.78631e-20)
(0.908273 0.367957 3.62249e-20)
(0.916859 0.346689 1.01029e-19)
(0.131159 0.154737 8.03033e-21)
(0.332386 0.384971 7.59597e-21)
(0.486052 0.544119 4.0524e-21)
(0.597004 0.641831 3.67312e-21)
(0.67346 0.690214 9.3218e-21)
(0.724283 0.702693 2.44476e-20)
(0.757649 0.691739 -1.88686e-20)
(0.780165 0.667353 -1.55016e-20)
(0.796522 0.636566 -1.26569e-20)
(0.80965 0.603703 4.68395e-20)
(0.821168 0.571075 -1.18494e-19)
(0.831858 0.539726 -5.03562e-20)
(0.842051 0.510014 1.20835e-20)
(0.85187 0.481993 1.78835e-20)
(0.86136 0.455592 6.35602e-20)
(0.870547 0.430698 -8.82864e-20)
(0.879369 0.407243 2.57538e-20)
(0.887783 0.385161 1.49818e-20)
(0.896736 0.363642 -2.1171e-20)
(0.905661 0.342699 -7.6189e-20)
(0.126692 0.155321 8.86829e-21)
(0.320872 0.385307 -1.02712e-20)
(0.469441 0.543203 4.11177e-21)
(0.576997 0.639311 1.40984e-20)
(0.651551 0.68618 -1.57981e-20)
(0.701671 0.697484 -3.94755e-20)
(0.735195 0.68577 7.14452e-21)
(0.75842 0.660998 3.01889e-20)
(0.775785 0.630097 8.12532e-20)
(0.790046 0.597293 -8.62375e-20)
(0.802714 0.564817 7.17205e-20)
(0.814515 0.53366 8.75891e-20)
(0.825758 0.504155 7.18282e-20)
(0.836558 0.476342 5.29809e-20)
(0.84696 0.450144 -1.12137e-19)
(0.85699 0.42545 -1.39874e-21)
(0.866587 0.402192 -2.94532e-20)
(0.875726 0.380295 1.13131e-19)
(0.885301 0.358999 -4.36835e-21)
(0.894639 0.338412 -5.43425e-20)
(0.122097 0.155592 1.04524e-20)
(0.309124 0.38491 3.97584e-21)
(0.452597 0.541318 3.68974e-21)
(0.556818 0.635723 -7.51305e-21)
(0.629555 0.681075 -1.43172e-20)
(0.679052 0.691255 -6.11325e-22)
(0.712798 0.678858 -1.9579e-20)
(0.736773 0.653777 -3.32716e-20)
(0.755169 0.622836 2.89042e-20)
(0.770573 0.590156 6.86931e-20)
(0.784393 0.557889 1.70829e-21)
(0.797305 0.526974 3.06047e-20)
(0.809596 0.497721 -4.74584e-20)
(0.821373 0.470158 -5.83161e-20)
(0.832684 0.444204 1.46241e-19)
(0.843553 0.419749 5.83129e-20)
(0.853925 0.396725 -5.98722e-20)
(0.863789 0.37505 -6.72268e-20)
(0.873993 0.354018 -7.50393e-20)
(0.883791 0.333805 -7.13799e-21)
(0.117392 0.155547 -3.40221e-20)
(0.297182 0.383775 -7.19937e-21)
(0.435571 0.53846 -1.62401e-20)
(0.536522 0.63107 -3.43651e-20)
(0.607525 0.674904 6.16241e-20)
(0.656477 0.684014 -5.56311e-20)
(0.690501 0.671007 8.17318e-20)
(0.715264 0.645696 -7.64569e-22)
(0.734711 0.614788 -2.57531e-20)
(0.751264 0.582296 2.30021e-20)
(0.766237 0.550292 1.70803e-20)
(0.780255 0.519671 -8.44263e-20)
(0.793588 0.490715 8.84933e-20)
(0.806337 0.463443 5.3979e-20)
(0.818551 0.437774 -2.02981e-20)
(0.830257 0.413595 -3.94328e-20)
(0.841403 0.390841 3.37914e-20)
(0.851991 0.369424 -5.87876e-20)
(0.862832 0.34869 -8.07353e-20)
(0.873122 0.328865 7.59769e-20)
(0.112594 0.155183 5.86548e-20)
(0.285085 0.381898 -3.39135e-20)
(0.418414 0.534631 -1.96584e-20)
(0.516165 0.625353 2.30172e-20)
(0.585517 0.667672 7.75591e-21)
(0.633994 0.675766 2.06987e-20)
(0.66835 0.662225 2.37891e-20)
(0.693931 0.636761 6.15544e-20)
(0.714443 0.605958 7.48638e-20)
(0.732149 0.573717 -7.09993e-20)
(0.748271 0.542033 8.63122e-20)
(0.763391 0.511753 -9.80451e-20)
(0.777758 0.48314 1.26686e-20)
(0.791474 0.456202 -3.76407e-20)
(0.804585 0.430855 2.7534e-20)
(0.817123 0.406991 2.57352e-20)
(0.82904 0.38454 -1.56483e-20)
(0.840351 0.363415 1.46996e-19)
(0.851831 0.34301 -1.99798e-20)
(0.862636 0.323584 -6.5274e-20)
(0.10772 0.154496 -4.72555e-20)
(0.272873 0.379279 6.12259e-20)
(0.401178 0.529831 -1.50973e-20)
(0.495802 0.618579 -7.2764e-20)
(0.563582 0.659388 5.385e-20)
(0.611652 0.66652 -1.98505e-20)
(0.646387 0.65252 -6.72296e-20)
(0.672814 0.626982 -1.00673e-20)
(0.694401 0.596354 -1.55881e-19)
(0.71326 0.564426 1.48971e-19)
(0.730526 0.533116 -1.47902e-20)
(0.746738 0.503227 4.0764e-20)
(0.762132 0.475001 4.99131e-20)
(0.776805 0.448438 1.97511e-20)
(0.790806 0.423453 -1.32149e-19)
(0.804169 0.399937 2.97156e-20)
(0.816854 0.377825 2.69397e-20)
(0.828885 0.357024 -8.92814e-20)
(0.841006 0.336975 3.25247e-20)
(0.852341 0.317958 1.25e-20)
(0.102786 0.153486 -4.62487e-20)
(0.260585 0.375918 -4.54274e-20)
(0.383913 0.524065 8.9665e-20)
(0.475487 0.610756 6.49726e-20)
(0.541773 0.650061 -5.25185e-20)
(0.5895 0.656288 4.75289e-21)
(0.624656 0.641904 4.51159e-20)
(0.651949 0.616366 1.32503e-20)
(0.674619 0.585983 -2.16076e-21)
(0.694628 0.55443 2.52972e-20)
(0.713028 0.523548 -4.0568e-20)
(0.730323 0.494099 -6.01818e-21)
(0.746733 0.466304 -1.55227e-19)
(0.762352 0.440156 -1.17979e-19)
(0.777235 0.41557 -1.98676e-20)
(0.791416 0.392439 -1.62148e-20)
(0.804862 0.370697 -1.79205e-20)
(0.817609 0.35025 -3.62234e-20)
(0.830369 0.330583 -4.13855e-20)
(0.0978117 0.152152 1.05244e-20)
(0.24826 0.371817 1.05936e-19)
(0.366669 0.51734 -4.21363e-20)
(0.455272 0.601893 -6.54299e-20)
(0.520141 0.639704 -4.50579e-21)
(0.567585 0.645082 9.26618e-20)
(0.603198 0.630388 -9.54015e-20)
(0.631375 0.604927 1.89115e-20)
(0.655129 0.574857 -1.4665e-20)
(0.676281 0.543738 -1.46707e-19)
(0.695806 0.513337 -1.37276e-19)
(0.714171 0.484375 2.46317e-20)
(0.731584 0.457054 2.15896e-19)
(0.748139 0.431362 3.12297e-20)
(0.763892 0.407212 8.40693e-20)
(0.778881 0.3845 -1.29456e-19)
(0.793081 0.363159 -3.01756e-20)
(0.806538 0.343096 1.48092e-19)
(0.819932 0.323836 6.4515e-20)
(0.0928129 0.150494 4.24842e-20)
(0.235938 0.36698 4.15811e-20)
(0.349496 0.509664 -9.96646e-20)
(0.435211 0.592003 -4.80891e-21)
(0.498738 0.628331 -4.14994e-20)
(0.545952 0.632917 -5.74983e-20)
(0.582055 0.617986 1.87677e-20)
(0.611128 0.592675 -5.45689e-20)
(0.635965 0.562985 1.03413e-19)
(0.658251 0.53236 -6.46751e-20)
(0.678886 0.502492 4.5769e-20)
(0.698306 0.474064 1.04011e-19)
(0.716708 0.44726 -6.9334e-20)
(0.734185 0.422063 1.72006e-20)
(0.750796 0.398385 8.4123e-20)
(0.766584 0.376126 1.04e-19)
(0.781528 0.355217 -5.38636e-20)
(0.795687 0.335565 -3.00318e-20)
(0.809707 0.316735 4.54572e-20)
(0.0878074 0.148514 -1.00627e-19)
(0.223656 0.361413 3.77444e-20)
(0.332442 0.501049 1.13417e-19)
(0.415354 0.5811 1.31287e-20)
(0.477611 0.615958 -1.67828e-20)
(0.524647 0.619808 -3.01981e-20)
(0.561267 0.604714 -1.52853e-20)
(0.591245 0.579624 6.76166e-20)
(0.617159 0.550381 -9.90747e-20)
(0.640565 0.520307 2.31537e-19)
(0.662296 0.491024 9.59714e-20)
(0.682754 0.463175 -3.11996e-20)
(0.702129 0.43693 -9.58367e-21)
(0.720513 0.412266 4.09317e-20)
(0.737968 0.389096 -1.11849e-19)
(0.754541 0.367321 9.17066e-21)
(0.770219 0.346874 -7.04244e-20)
(0.785069 0.327662 -3.06251e-20)
(0.0828124 0.146215 -2.01333e-20)
(0.211454 0.355126 -1.19881e-19)
(0.315556 0.491507 8.30192e-20)
(0.395753 0.569202 -1.2271e-20)
(0.456811 0.602603 6.34643e-20)
(0.503714 0.605774 2.06381e-20)
(0.540873 0.590587 -3.76943e-21)
(0.571759 0.565791 4.68822e-20)
(0.598742 0.537057 -2.7883e-20)
(0.623254 0.507592 -8.4672e-20)
(0.64606 0.478943 9.16756e-20)
(0.667539 0.451719 9.6419e-20)
(0.687868 0.426073 -1.76318e-22)
(0.707142 0.401979 -2.12949e-20)
(0.725426 0.379352 -1.19016e-20)
(0.74277 0.358094 8.73761e-20)
(0.759169 0.338138 7.64361e-20)
(0.774699 0.319391 2.11269e-20)
(0.0778449 0.143599 9.72714e-20)
(0.199368 0.348127 1.38298e-19)
(0.298884 0.481055 -7.8141e-20)
(0.376456 0.556326 -5.80944e-21)
(0.436383 0.588286 -1.13111e-19)
(0.483195 0.590835 6.95732e-20)
(0.520912 0.575625 -2.80583e-20)
(0.552705 0.551191 -5.309e-20)
(0.580746 0.52303 -2.00064e-20)
(0.606344 0.494228 -3.12281e-21)
(0.630206 0.466262 -1.9934e-19)
(0.652683 0.439706 -2.49889e-19)
(0.673947 0.4147 -3.80388e-20)
(0.694093 0.391213 8.44769e-20)
(0.713188 0.369162 -3.28013e-20)
(0.731288 0.348452 -1.63968e-19)
(0.748395 0.329014 1.51963e-19)
(0.764591 0.31076 2.15597e-20)
(0.0729217 0.14067 -1.60962e-19)
(0.187435 0.340429 5.45206e-20)
(0.282473 0.46971 -4.40235e-20)
(0.357511 0.542494 6.01017e-20)
(0.416373 0.573029 1.13081e-19)
(0.463133 0.57501 -7.1082e-20)
(0.501421 0.559847 1.3006e-19)
(0.534118 0.535843 -4.47486e-20)
(0.563199 0.508316 6.68796e-20)
(0.589863 0.48023 1.25529e-19)
(0.614758 0.452995 6.7726e-20)
(0.638211 0.427149 2.80189e-19)
(0.660388 0.402822 1.26964e-19)
(0.681385 0.379978 -1.00884e-20)
(0.701273 0.358536 -6.56535e-21)
(0.720112 0.338404 2.08853e-20)
(0.737909 0.319513 -1.68631e-19)
(0.754756 0.301776 -8.88928e-20)
(0.0680593 0.137435 9.04505e-20)
(0.175691 0.332046 -2.46177e-20)
(0.266368 0.45749 -1.16235e-19)
(0.338965 0.527728 -1.05199e-19)
(0.396826 0.556855 -1.90798e-20)
(0.443569 0.558324 1.40677e-20)
(0.482437 0.543274 -1.67294e-19)
(0.516028 0.519766 1.24801e-19)
(0.546133 0.492931 -5.66583e-20)
(0.573838 0.465614 -1.29186e-19)
(0.59974 0.439156 -3.07677e-20)
(0.624145 0.414062 -1.15734e-19)
(0.647212 0.390451 -2.38187e-19)
(0.669038 0.368286 2.02674e-20)
(0.689698 0.347485 1.83554e-19)
(0.709256 0.327959 -7.90806e-20)
(0.727729 0.309641 9.44649e-20)
(0.063274 0.133898 -1.58791e-20)
(0.164172 0.322992 -2.16604e-19)
(0.250612 0.444419 2.15431e-19)
(0.320863 0.512053 -5.34224e-20)
(0.377786 0.53979 7.49345e-20)
(0.42454 0.540801 4.4469e-20)
(0.463994 0.525929 1.78651e-19)
(0.498468 0.50298 -2.13117e-19)
(0.529574 0.476895 1.65813e-19)
(0.558295 0.450397 1.30164e-19)
(0.585177 0.42476 -3.7215e-20)
(0.610506 0.400459 -1.92263e-20)
(0.634437 0.377601 6.96182e-20)
(0.657069 0.356147 -1.18207e-19)
(0.678481 0.336019 -1.55636e-19)
(0.698738 0.317128 5.81165e-20)
(0.717866 0.299409 -5.84712e-20)
(0.0585818 0.130066 -1.60193e-20)
(0.152912 0.313284 7.12946e-20)
(0.235247 0.430518 8.083e-20)
(0.30325 0.495496 -1.39274e-19)
(0.359293 0.521861 7.02745e-20)
(0.406085 0.522466 -1.79182e-19)
(0.446126 0.507836 -1.38104e-20)
(0.481469 0.485507 9.97597e-21)
(0.51355 0.460228 -1.70566e-20)
(0.543258 0.434598 -1.63878e-19)
(0.571091 0.409825 -7.39826e-21)
(0.597316 0.386356 -2.58594e-20)
(0.622085 0.364286 1.54098e-19)
(0.645498 0.343577 -4.72805e-20)
(0.667637 0.32415 -1.33349e-20)
(0.688572 0.305922 7.7088e-20)
(0.708335 0.288828 2.21263e-19)
(0.053998 0.125947 -3.04974e-20)
(0.141944 0.302942 -1.78965e-20)
(0.220315 0.415814 -8.80386e-20)
(0.286168 0.478083 5.25046e-20)
(0.341388 0.503095 1.44837e-19)
(0.388242 0.503347 -7.84427e-20)
(0.428867 0.489019 -1.23655e-19)
(0.465059 0.467371 1.1993e-19)
(0.498088 0.44295 -3.92827e-20)
(0.528752 0.418234 1.07999e-19)
(0.557504 0.394367 4.85352e-20)
(0.584596 0.371767 -2.80806e-20)
(0.610174 0.350521 -1.04776e-19)
(0.63434 0.330587 1.28112e-19)
(0.657182 0.311892 -3.17494e-20)
(0.678773 0.294353 -1.35629e-19)
(0.69915 0.277908 -4.54842e-20)
(0.0495378 0.12155 5.99037e-20)
(0.131301 0.291984 2.16042e-20)
(0.205856 0.400333 -1.67559e-20)
(0.269657 0.459846 -4.72114e-20)
(0.324109 0.483524 -3.37444e-20)
(0.371044 0.483471 1.93556e-19)
(0.412248 0.469506 3.41018e-20)
(0.449266 0.448595 9.18043e-20)
(0.483214 0.425084 6.69182e-20)
(0.514801 0.401328 -1.79602e-19)
(0.544439 0.378407 -9.25227e-20)
(0.572364 0.356712 1.68744e-19)
(0.598721 0.336321 -5.28817e-21)
(0.623614 0.317194 -1.32906e-19)
(0.647133 0.299258 3.33565e-20)
(0.669355 0.282435 1.58669e-19)
(0.0452157 0.116883 6.92356e-20)
(0.121012 0.280434 -8.795e-20)
(0.191906 0.384104 -3.90415e-20)
(0.253757 0.440816 -8.71179e-21)
(0.307494 0.463178 -1.11133e-19)
(0.354526 0.46287 -5.7947e-20)
(0.396298 0.449324 -2.41392e-20)
(0.434119 0.429205 -1.83101e-19)
(0.468952 0.406652 -1.36859e-19)
(0.501426 0.383899 1.78475e-19)
(0.531915 0.361962 9.7167e-20)
(0.560641 0.341208 -7.45628e-20)
(0.587746 0.321704 -8.50687e-20)
(0.613336 0.303413 9.04262e-20)
(0.637504 0.286263 -5.05243e-20)
(0.660331 0.270179 7.15691e-20)
(0.0410458 0.111957 8.43524e-20)
(0.111109 0.268314 -1.32093e-19)
(0.178504 0.367157 3.72329e-20)
(0.238505 0.421026 6.46048e-20)
(0.291578 0.442091 -6.56154e-22)
(0.338719 0.441574 -7.84093e-20)
(0.381048 0.428502 6.70266e-20)
(0.419642 0.409226 2.44004e-20)
(0.455326 0.387679 -7.18433e-20)
(0.48865 0.365969 4.7205e-20)
(0.519953 0.345054 -1.22632e-19)
(0.549444 0.325273 -2.67182e-20)
(0.577264 0.306688 1.07965e-19)
(0.60352 0.28926 3.78288e-20)
(0.628309 0.272921 5.81753e-20)
(0.651715 0.2576 -1.08239e-19)
(0.0370415 0.106781 -8.42237e-20)
(0.10162 0.255647 -3.37523e-20)
(0.165684 0.349524 6.50576e-20)
(0.223937 0.400511 -1.32874e-19)
(0.276395 0.420297 -6.36219e-20)
(0.323655 0.419616 1.353e-19)
(0.366523 0.407069 2.11835e-19)
(0.405861 0.388687 5.93549e-20)
(0.442358 0.36819 7.87904e-20)
(0.476492 0.347563 -8.70719e-22)
(0.508571 0.327704 3.61202e-20)
(0.538791 0.308927 1.24796e-19)
(0.567291 0.291289 -1.7869e-20)
(0.594182 0.274752 -2.15267e-19)
(0.619562 0.259249 1.85112e-21)
(0.643519 0.244714 1.16011e-20)
(0.0332158 0.101368 2.68162e-20)
(0.0925723 0.242461 -6.71311e-20)
(0.153478 0.331238 2.32057e-19)
(0.210087 0.379306 9.87228e-22)
(0.261977 0.397831 8.43795e-20)
(0.309363 0.397029 8.1253e-20)
(0.352752 0.385057 -7.87048e-20)
(0.392799 0.367616 9.55129e-21)
(0.430069 0.348211 -4.9745e-20)
(0.464973 0.328704 1.23103e-20)
(0.497787 0.309934 -1.46567e-21)
(0.528698 0.292192 -5.58068e-20)
(0.557843 0.275529 -2.45395e-20)
(0.585335 0.259906 1.43192e-19)
(0.611276 0.245262 -1.0563e-19)
(0.635755 0.231534 6.94041e-20)
(0.0295809 0.0957284 -5.72442e-20)
(0.0839913 0.228782 -6.29302e-20)
(0.141919 0.312334 -3.36704e-20)
(0.196987 0.357449 7.85275e-20)
(0.248354 0.374731 -6.55377e-20)
(0.295869 0.373848 -1.1304e-19)
(0.339757 0.362497 -6.69734e-20)
(0.380478 0.346042 -1.2751e-19)
(0.41848 0.327768 1.02412e-19)
(0.454111 0.309417 -8.20898e-20)
(0.487618 0.291767 1.72117e-20)
(0.519181 0.275088 1.1944e-20)
(0.548935 0.259425 -5.06207e-20)
(0.576994 0.244741 5.7801e-20)
(0.603463 0.230979 8.56474e-20)
(0.0261484 0.0898757 1.25092e-19)
(0.0759016 0.214638 1.23883e-19)
(0.131036 0.292848 -9.20282e-20)
(0.184666 0.334979 -7.68481e-20)
(0.235554 0.351034 2.09781e-20)
(0.2832 0.350109 4.48718e-20)
(0.327562 0.339424 -1.53939e-19)
(0.36892 0.323996 2.45182e-20)
(0.40761 0.30689 -1.00084e-19)
(0.443923 0.289726 8.35884e-20)
(0.478081 0.273226 1.94298e-20)
(0.510255 0.257637 -8.70352e-20)
(0.540579 0.242998 -1.93136e-20)
(0.56917 0.229276 4.51096e-20)
(0.596135 0.216416 2.09189e-20)
(0.0229294 0.0838228 -5.74552e-20)
(0.0683262 0.200058 1.46265e-20)
(0.120856 0.272818 1.72558e-19)
(0.173155 0.311935 9.45253e-20)
(0.223604 0.32678 6.20747e-20)
(0.27138 0.325849 1.15224e-19)
(0.316189 0.315869 1.5562e-20)
(0.358143 0.301507 1.06447e-20)
(0.397476 0.285604 -7.99213e-22)
(0.434425 0.269659 -1.06863e-19)
(0.469191 0.254336 5.50144e-20)
(0.501934 0.239861 -8.70498e-20)
(0.53279 0.22627 5.63423e-20)
(0.561876 0.21353 -8.8821e-20)
(0.589302 0.201591 -5.12133e-20)
(0.0199339 0.0775833 -1.23867e-20)
(0.0612864 0.185074 8.44655e-20)
(0.111406 0.252281 -9.79061e-20)
(0.162477 0.288359 -4.35976e-20)
(0.212528 0.302008 3.87311e-20)
(0.260431 0.301104 -8.5056e-20)
(0.305659 0.291868 6.34432e-20)
(0.348167 0.278608 8.77014e-21)
(0.388095 0.263941 5.13929e-20)
(0.425633 0.249243 -1.95346e-21)
(0.46096 0.235121 -4.84588e-20)
(0.494231 0.221784 4.67549e-20)
(0.525578 0.209261 -1.18569e-19)
(0.555123 0.197523 1.62486e-19)
(0.582976 0.186523 6.1099e-20)
(0.0171714 0.0711713 -3.60533e-20)
(0.0548019 0.169715 -3.66665e-20)
(0.102709 0.231278 -5.3921e-20)
(0.152659 0.264291 6.15927e-20)
(0.20235 0.276759 -3.28546e-20)
(0.250373 0.275913 -1.61501e-20)
(0.295989 0.267457 -3.18711e-20)
(0.339006 0.255332 -3.98252e-20)
(0.379482 0.241929 -1.08299e-19)
(0.417561 0.228504 4.6306e-20)
(0.453403 0.215608 -6.34784e-20)
(0.487156 0.203429 1.14329e-19)
(0.518955 0.191994 7.58165e-20)
(0.54892 0.181276 -1.31245e-19)
(0.577164 0.171231 -1.29627e-19)
(0.0146507 0.0646014 3.65133e-20)
(0.0488908 0.154014 -9.48124e-20)
(0.0947877 0.209848 -6.41854e-21)
(0.143722 0.239776 -8.43544e-20)
(0.19309 0.251076 -9.29478e-20)
(0.241227 0.250316 1.33544e-19)
(0.287196 0.242671 1.80837e-20)
(0.330678 0.231711 6.41031e-20)
(0.371652 0.2196 6.62664e-20)
(0.410222 0.207471 -1.53812e-20)
(0.446531 0.195822 8.91071e-20)
(0.480723 0.184821 -5.1568e-20)
(0.51293 0.174492 -6.55694e-20)
(0.543277 0.164809 1.02659e-19)
(0.571877 0.155735 1.14598e-19)
(0.0123797 0.0578887 -3.72141e-20)
(0.0435697 0.138004 8.31436e-20)
(0.087661 0.188034 -8.84255e-20)
(0.135685 0.214856 5.59647e-20)
(0.184767 0.225 5.15333e-20)
(0.233008 0.224353 -7.21598e-20)
(0.279296 0.217547 3.32244e-20)
(0.323196 0.20778 3.67669e-20)
(0.364616 0.196985 -1.13187e-19)
(0.403627 0.186173 5.43751e-20)
(0.440355 0.17579 6.03248e-21)
(0.47494 0.165983 5.00623e-20)
(0.507514 0.156776 -6.37059e-20)
(0.538202 0.148144 7.84941e-21)
(0.567121 0.140054 -4.82663e-21)
(0.0103654 0.0510486 -3.99316e-20)
(0.0388532 0.121719 5.13226e-20)
(0.0813469 0.165876 9.3702e-20)
(0.128568 0.189577 -1.14575e-20)
(0.177398 0.198576 6.34222e-20)
(0.225732 0.198063 -7.84173e-20)
(0.272303 0.192123 1.91871e-20)
(0.316572 0.183572 -6.64029e-20)
(0.358387 0.174114 1.21824e-22)
(0.397786 0.164639 -1.02331e-19)
(0.434884 0.155538 -7.30372e-20)
(0.469816 0.146942 3.83311e-20)
(0.502714 0.138871 9.91338e-21)
(0.533704 0.131303 -2.58279e-20)
(0.562903 0.124208 3.39744e-20)
(0.00861416 0.0440969 3.5702e-20)
(0.0347543 0.105193 1.17129e-20)
(0.075861 0.143419 2.85177e-20)
(0.122386 0.163983 -4.17876e-20)
(0.170997 0.171846 -1.87601e-20)
(0.219412 0.171488 -3.49786e-20)
(0.266229 0.166435 3.32249e-21)
(0.310818 0.159122 2.36834e-20)
(0.352974 0.15102 7.18028e-20)
(0.392709 0.142898 8.61945e-20)
(0.430127 0.135095 3.2762e-20)
(0.465359 0.127723 -7.73653e-21)
(0.498537 0.120799 -1.6374e-20)
(0.529788 0.114306 -4.05223e-20)
(0.559231 0.108218 4.82288e-21)
(0.00713139 0.0370495 7.40173e-21)
(0.0312843 0.0884603 -4.9014e-20)
(0.0712169 0.120706 -6.66613e-20)
(0.117152 0.13812 -2.30948e-21)
(0.165578 0.144856 -4.85978e-21)
(0.214061 0.144669 2.33392e-20)
(0.261084 0.140524 -7.17247e-20)
(0.305942 0.134465 -2.75079e-20)
(0.348385 0.127735 -4.5997e-20)
(0.388404 0.12098 1.78355e-21)
(0.426091 0.114487 1.47179e-20)
(0.461575 0.108351 3.234e-20)
(0.494989 0.102585 -6.28654e-21)
(0.52646 0.0971774 2.72035e-20)
(0.556109 0.092105 -1.30931e-20)
(0.00592165 0.0299228 -3.18418e-20)
(0.0284526 0.0715569 1.84398e-20)
(0.0674259 0.0977795 -1.83256e-20)
(0.112878 0.112034 2.25796e-20)
(0.161151 0.117649 1.71914e-20)
(0.209687 0.117649 4.76621e-21)
(0.256877 0.114426 5.53865e-20)
(0.301953 0.109638 -1.46565e-20)
(0.344629 0.104292 1.27972e-20)
(0.384877 0.0989164 1.48814e-20)
(0.422783 0.0937435 1.01456e-20)
(0.458472 0.0888519 -2.69853e-20)
(0.492077 0.0842539 3.48784e-20)
(0.523726 0.0799386 2.5764e-20)
(0.553541 0.0758891 -9.95583e-21)
(0.00498867 0.0227334 9.75917e-21)
(0.0262669 0.0545183 2.31588e-20)
(0.0644971 0.0746855 -5.15567e-21)
(0.109573 0.0857725 -3.57374e-20)
(0.157725 0.0902726 1.80381e-20)
(0.206299 0.090469 5.19032e-20)
(0.253615 0.0881807 -4.08164e-20)
(0.298856 0.0846746 -2.31457e-21)
(0.34171 0.080724 1.00967e-20)
(0.382134 0.0767363 2.20216e-20)
(0.420206 0.072892 2.03567e-21)
(0.456052 0.0692526 -6.7951e-21)
(0.489804 0.0658287 -1.08035e-20)
(0.52159 0.0626125 -1.12107e-20)
(0.00433526 0.0154978 4.40758e-21)
(0.024733 0.0373805 -1.20958e-20)
(0.0624375 0.0514684 4.91227e-21)
(0.107244 0.059382 1.51562e-20)
(0.155306 0.0627709 -8.65599e-21)
(0.203903 0.0631724 -2.66115e-20)
(0.251303 0.0618279 1.25994e-20)
(0.296658 0.059612 -2.91924e-22)
(0.339634 0.057064 -3.48642e-20)
(0.380178 0.0544709 2.07252e-20)
(0.418366 0.0519611 -1.36914e-20)
(0.45432 0.0495794 1.0635e-20)
(0.488173 0.0473345 -8.57718e-21)
(0.520053 0.045222 4.42344e-21)
(0.00396338 0.00823286 -1.96569e-22)
(0.023855 0.0201797 6.96233e-21)
(0.0612519 0.0281732 2.8645e-21)