/*--------------------------------*- C++ -*----------------------------------*\
  =========                 |
  \\      /  F ield         | OpenFOAM: The Open Source CFD Toolbox
   \\    /   O peration     | Website:  https://openfoam.org
    \\  /    A nd           | Version:  7
     \\/     M anipulation  |
\*---------------------------------------------------------------------------*/
FoamFile
{
    version     2.0;
    format      ascii;
    class       surfaceScalarField;
    location    "220";
    object      phi;
}
// * * * * * * * * * * * * * * * * * * * * * * * * * * * * * * * * * * * * * //

dimensions      [0 3 -1 0 0 0 0];

internalField   nonuniform List<scalar> 
8923
(
0.000245448
-0.00739313
0.00721384
0.000465411
-0.00501495
0.00479499
0.000691637
-0.00189714
0.00167091
0.000908351
0.00148319
-0.0016999
0.00109988
0.00459615
-0.00478768
0.00125101
0.00697593
-0.00712706
0.00135304
0.00847213
-0.00857416
0.00140697
0.00923359
-0.00928752
0.00142376
0.00950447
-0.00952126
0.00141094
0.00949092
-0.0094781
0.00136042
0.00949236
-0.00944184
0.00127203
0.00974347
-0.00965508
0.00118439
0.00983226
-0.00974461
0.00115401
0.00872099
-0.00869061
0.00120282
0.00579151
-0.00584031
0.00130896
0.00160179
-0.00170793
0.0014354
-0.00263072
0.00250428
0.00154809
-0.00594784
0.00583514
0.00162564
-0.00806726
0.00798972
0.00166643
-0.00919004
0.00914925
0.00168029
-0.00959973
0.00958587
0.00166804
-0.0096467
0.00965895
-0.00983072
0.00987872
0.000198871
-0.00755874
0.000416457
-0.00523254
0.000647843
-0.00212852
0.000873474
0.00125756
0.00107539
0.00439423
0.00123683
0.0068145
0.00134785
0.00836111
0.00140911
0.00917234
0.00143167
0.0094819
0.00142265
0.00949994
0.00137425
0.00954076
0.00128807
0.00982964
0.00120364
0.00991669
0.0011754
0.00874922
0.00122277
0.00574414
0.00132413
0.00150043
0.00144428
-0.00275086
0.00155083
-0.00605439
0.00162309
-0.00813953
0.00165948
-0.00922643
0.00166995
-0.0096102
0.00165545
-0.0096322
-0.00978116
0.000155381
-0.00770924
0.000368937
-0.00544609
0.00060448
-0.00236407
0.000838421
0.00102362
0.0010504
0.00418225
0.00122201
0.00664289
0.00134204
0.00824107
0.00141077
0.00910361
0.00143928
0.0094534
0.00143423
0.00950499
0.0013882
0.00958679
0.00130455
0.00991329
0.00122344
0.0099978
0.00119711
0.00877555
0.00124268
0.00569857
0.00133897
0.00140414
0.00145265
-0.00286454
0.00155298
-0.00615472
0.00162001
-0.00820656
0.00165209
-0.00925851
0.00165927
-0.00961739
0.00164267
-0.00961559
-0.00973023
0.00011537
-0.00784195
0.000323111
-0.00565383
0.000561725
-0.00260268
0.000803295
0.000782047
0.00102497
0.00396057
0.00120655
0.00646131
0.00133559
0.00811203
0.00141194
0.00902726
0.00144655
0.00941878
0.00144565
0.00950589
0.00140226
0.00963018
0.00132143
0.00999412
0.00124373
0.0100755
0.00121908
0.0088002
0.0012625
0.00565515
0.00135346
0.00131318
0.00146051
-0.00297159
0.00155457
-0.00624877
0.00161641
-0.0082684
0.00164428
-0.00928638
0.00164828
-0.00962139
0.0016297
-0.009597
-0.0096781
7.91955e-05
-0.00795539
0.000279241
-0.00585388
0.00051975
-0.00284319
0.000768202
0.000533595
0.000999125
0.00372965
0.00119048
0.00626996
0.0013285
0.00797401
0.00141258
0.00894318
0.00145346
0.0093779
0.00145688
0.00950246
0.0014164
0.00967067
0.00133869
0.0100718
0.00126446
0.0101497
0.00124125
0.00882342
0.0012822
0.0056142
0.00136759
0.00122778
0.00146787
-0.00307187
0.0015556
-0.0063365
0.0016123
-0.0083251
0.00163607
-0.00931014
0.001637
-0.00962232
0.00161656
-0.00957656
-0.00962495
4.71587e-05
-0.00804818
0.000237588
-0.00604431
0.000478721
-0.00308432
0.000733245
0.000279071
0.000972927
0.00348997
0.00117379
0.0060691
0.00132074
0.00782706
0.00141266
0.00885126
0.00145996
0.00933059
0.00146788
0.00949454
0.00143059
0.00970796
0.00135627
0.0101462
0.00128556
0.0102204
0.00126356
0.00884542
0.00130174
0.00557602
0.00138135
0.00114817
0.00147474
-0.00316526
0.0015561
-0.00641787
0.00160771
-0.00837671
0.00162747
-0.0093299
0.00162542
-0.00962028
0.00160325
-0.00955439
-0.00957094
1.94109e-05
-0.008119
0.00019842
-0.00622332
0.000438804
-0.00332471
0.000698533
1.93415e-05
0.000946422
0.00324208
0.00115649
0.00585903
0.0013123
0.00767125
0.00141216
0.00875139
0.00146603
0.00927673
0.00147862
0.00948195
0.00144478
0.00974181
0.00137412
0.0102168
0.00130698
0.0102876
0.00128596
0.00886644
0.00132109
0.00554089
0.00139471
0.00107454
0.0014811
-0.00325165
0.00155607
-0.00649283
0.00160265
-0.00842329
0.00161851
-0.00934576
0.00161358
-0.00961535
0.0015898
-0.00953061
-0.00951626
-3.84559e-06
-0.00816677
0.000162028
-0.00638919
0.000400166
-0.00356285
0.000664157
-0.000244649
0.000919653
0.00298658
0.0011386
0.00564008
0.00130318
0.00750668
0.00141106
0.00864351
0.00147161
0.00921618
0.00148906
0.0094645
0.00145894
0.00977193
0.0013922
0.0102835
0.00132865
0.0103511
0.00130839
0.00888669
0.0013402
0.00550908
0.00140767
0.00100707
0.00148698
-0.00333095
0.00155552
-0.00656137
0.00159712
-0.00846489
0.00160918
-0.00935782
0.00160148
-0.00960765
0.00157619
-0.00950532
-0.00946106
-2.00311e-05
-0.00819314
0.000128727
-0.00653795
0.000362976
-0.00379709
0.000630192
-0.000511864
0.000892669
0.00272411
0.00112012
0.00541263
0.00129335
0.00733345
0.00140931
0.00852756
0.00147667
0.00914882
0.00149914
0.00944203
0.00147302
0.00979805
0.00141045
0.0103461
0.0013505
0.0104111
0.00133079
0.00890639
0.00135904
0.00548083
0.00142021
0.000945899
0.00149236
-0.0034031
0.00155446
-0.00662346
0.00159114
-0.00850157
0.00159952
-0.00936621
0.00158913
-0.00959726
0.00156245
-0.00947864
-0.0094055
-3.14473e-05
-0.00819771
9.88168e-05
-0.00666821
0.000327338
-0.00402561
0.000596772
-0.000781299
0.000865509
0.00245537
0.00110106
0.00517707
0.00128281
0.0071517
0.00140689
0.00840348
0.00148116
0.00907454
0.00150884
0.00941435
0.00148698
0.00981991
0.0014288
0.0104043
0.00137245
0.0104674
0.00135311
0.00892574
0.00137758
0.00545636
0.00143232
0.000891163
0.00149726
-0.00346804
0.0015529
-0.0066791
0.00158471
-0.00853338
0.00158952
-0.00937101
0.00157654
-0.00958428
0.00154857
-0.00945068
-0.00934974
-3.75685e-05
-0.00818104
7.25941e-05
-0.00677838
0.000293431
-0.00424645
0.000563963
-0.00105183
0.000838222
0.00218111
0.00108144
0.00493386
0.00127154
0.0069616
0.00140376
0.00827126
0.00148504
0.00899326
0.00151809
0.00938131
0.00150075
0.00983725
0.00144718
0.0104579
0.00139445
0.0105202
0.00137528
0.00894492
0.00139578
0.00543585
0.00144397
0.000842968
0.00150167
-0.00352574
0.00155086
-0.00672829
0.00157786
-0.00856038
0.00157919
-0.00937234
0.00156372
-0.00956881
0.00153456
-0.00942151
0.00147874
-0.00929392
-0.00946832
-3.83125e-05
-0.00814471
5.03504e-05
-0.00686704
0.000261448
-0.00445755
0.000531845
-0.00132223
0.00081085
0.00190211
0.00106126
0.00468345
0.00125953
0.00676333
0.00139989
0.00813091
0.00148826
0.00890488
0.00152684
0.00934273
0.00151428
0.0098498
0.00146554
0.0105066
0.00141642
0.0105693
0.00139724
0.0089641
0.0014136
0.00541949
0.00145516
0.000801405
0.00150559
-0.00357617
0.00154834
-0.00677103
0.00157058
-0.00858262
0.00156855
-0.00937032
0.00155068
-0.00955095
0.00152041
-0.00939124
0.00146468
-0.00923819
-0.0093809
-3.37327e-05
-0.00808853
3.23626e-05
-0.00693313
0.000231596
-0.00465678
0.000500497
-0.00159113
0.000783435
0.00161917
0.00104054
0.00442634
0.00124677
0.0065571
0.00139524
0.00798244
0.00149077
0.00880935
0.00153505
0.00929845
0.00152752
0.00985733
0.00148379
0.0105503
0.00143828
0.0106148
0.00141895
0.00898344
0.00143101
0.00540743
0.00146587
0.000766544
0.00150903
-0.00361933
0.00154534
-0.00680734
0.00156288
-0.00860016
0.0015576
-0.00936503
0.00153742
-0.00953077
0.00150613
-0.00935995
0.00145063
-0.00918269
-0.0092939
-2.40521e-05
-0.00801375
1.88865e-05
-0.00697607
0.000204104
-0.004842
0.000470008
-0.00185703
0.000756019
0.00133316
0.00101929
0.00416308
0.00123324
0.00634314
0.00138978
0.0078259
0.00149252
0.00870662
0.00154265
0.00924832
0.00154039
0.00985959
0.00150186
0.0105889
0.00145997
0.0106567
0.00144034
0.00900307
0.00144798
0.00539978
0.00147609
0.000738435
0.00151198
-0.00365522
0.00154188
-0.00683724
0.00155477
-0.00861305
0.00154634
-0.0093566
0.00152395
-0.00950838
0.00149171
-0.00932772
0.00143656
-0.00912754
-0.00920749
-9.77515e-06
-0.00792221
1.01773e-05
-0.00699602
0.000179231
-0.00501105
0.000440475
-0.00211828
0.000728645
0.00104499
0.000997528
0.00389419
0.00121894
0.00612172
0.00138348
0.00766136
0.00149346
0.00859663
0.0015496
0.00919218
0.00155284
0.00985635
0.00151969
0.010622
0.0014814
0.010695
0.00146136
0.00902312
0.00146447
0.00539666
0.0014858
0.000717111
0.00151445
-0.00368387
0.00153796
-0.00686076
0.00154626
-0.00862135
0.00153479
-0.00934512
0.00151027
-0.00948387
0.00147716
-0.0092946
0.00142248
-0.00907286
-0.00912184
9.15478e-06
-0.0078162
6.63031e-06
-0.0069935
0.000157272
-0.0051617
0.000412012
-0.00237302
0.000701361
0.000755637
0.000975279
0.00362027
0.00120387
0.00589313
0.00137631
0.00748892
0.00149355
0.00847939
0.00155582
0.00912991
0.00156479
0.00984737
0.00153719
0.0106496
0.00150251
0.0107296
0.00148195
0.00904368
0.00148046
0.00539816
0.00149498
0.000702589
0.00151642
-0.00370531
0.00153359
-0.00687793
0.00153735
-0.00862511
0.00152293
-0.00933071
0.00149639
-0.00945732
0.00146246
-0.00926068
0.00140838
-0.00901878
-0.00903711
3.45929e-05
-0.00770035
8.73554e-06
-0.00696764
0.000138548
-0.00529151
0.000384759
-0.00261923
0.000674218
0.000466178
0.000952564
0.00334193
0.00118801
0.00565769
0.00136822
0.00730871
0.00149273
0.00835488
0.00156127
0.00906137
0.00157618
0.00983246
0.00155428
0.0106715
0.00152323
0.0107607
0.00150208
0.00906483
0.00149592
0.00540432
0.00150364
0.000694869
0.00151791
-0.00371958
0.00152878
-0.00688881
0.00152805
-0.00862437
0.00151079
-0.00931345
0.0014823
-0.00942883
0.00144762
-0.00922599
0.00139423
-0.00896539
-0.00895345
6.30814e-05
-0.00757641
1.63102e-05
-0.00692087
0.000123387
-0.00539859
0.000358897
-0.00285474
0.000647299
0.000177776
0.00092941
0.00305982
0.00117136
0.00541574
0.00135919
0.00712088
0.00149095
0.00822313
0.00156588
0.00898644
0.00158694
0.0098114
0.0015709
0.0106876
0.00154349
0.0107881
0.00152168
0.00908664
0.00151081
0.00541519
0.00151174
0.000693934
0.00151891
-0.00372674
0.00152353
-0.00689343
0.00151835
-0.0086192
0.00149834
-0.00929344
0.00146801
-0.0093985
0.00143262
-0.00919061
0.00138003
-0.0089128
-0.00887103
9.4516e-05
-0.00744656
2.88862e-05
-0.00685524
0.000112107
-0.00548181
0.000334628
-0.00307726
0.000620663
-0.000108259
0.000905842
0.00277464
0.00115393
0.00516765
0.0013492
0.00692562
0.00148816
0.00808417
0.00156959
0.00890501
0.00159699
0.00978399
0.00158696
0.0106976
0.00156321
0.0108119
0.00154071
0.00910914
0.00152511
0.00543079
0.00151929
0.000699751
0.00151941
-0.00372686
0.00151784
-0.00689185
0.00150827
-0.00860963
0.00148561
-0.00927078
0.00145352
-0.00936641
0.00141747
-0.00915456
0.00136575
-0.00886108
-0.00879
0.000128392
-0.00731297
4.61125e-05
-0.00677296
0.000104977
-0.00554067
0.000312289
-0.00328457
0.000594251
-0.00039022
0.000881895
0.00248699
0.00113571
0.00491384
0.0013382
0.00672312
0.00148432
0.00793805
0.00157235
0.00881698
0.00160627
0.00975007
0.00160239
0.0107015
0.00158234
0.0108319
0.00155913
0.00913235
0.0015388
0.00545112
0.00152628
0.000712273
0.00151943
-0.00372001
0.00151171
-0.00688414
0.0014978
-0.00859572
0.00147258
-0.00924556
0.00143882
-0.00933265
0.00140216
-0.00911789
0.00135139
-0.00881032
-0.0087105
0.000164124
-0.00717771
6.76193e-05
-0.00667646
0.000102193
-0.00557524
0.000291905
-0.00347428
0.000568371
-0.000666686
0.000857599
0.00219777
0.0011167
0.00465474
0.00132618
0.00651365
0.00147938
0.00778485
0.00157408
0.00872227
0.00161471
0.00970944
0.00161711
0.0106991
0.0016008
0.0108482
0.00157688
0.00915627
0.00155185
0.00547615
0.00153269
0.00073144
0.00151895
-0.00370627
0.00150516
-0.00687035
0.00148695
-0.0085775
0.00145925
-0.00921786
0.00142393
-0.00929732
0.00138667
-0.00908064
0.00133693
-0.00876058
-0.00863269
0.000201104
-0.00704266
9.2965e-05
-0.00656832
0.000103878
-0.00558616
0.000273872
-0.00364428
0.000543063
-0.000935877
0.000833008
0.00190782
0.00109691
0.00439083
0.0013131
0.00629746
0.00147329
0.00762467
0.00157475
0.00862081
0.00162223
0.00966196
0.00163105
0.0106903
0.00161855
0.0108607
0.00159393
0.00918089
0.00156425
0.00550583
0.00153852
0.000757174
0.00151798
-0.00368573
0.00149819
-0.00685056
0.00147572
-0.00855503
0.00144563
-0.00918777
0.00140882
-0.00926052
0.00137102
-0.00904283
0.00132235
-0.0087119
-0.00855671
0.000238729
-0.00690949
0.000121632
-0.00645122
0.000110072
-0.0055746
0.000258589
-0.00379279
0.000518487
-0.00119578
0.000808175
0.00161813
0.00107635
0.00412265
0.00129895
0.00607486
0.001466
0.00745761
0.00157428
0.00851254
0.00162877
0.00960746
0.00164414
0.0106749
0.0016355
0.0108693
0.00161024
0.00920615
0.00157597
0.0055401
0.00154376
0.000789384
0.00151651
-0.00365849
0.0014908
-0.00682485
0.00146412
-0.00852835
0.0014317
-0.00915535
0.00139351
-0.00922233
0.00135518
-0.00900451
0.00130762
-0.00866434
-0.00848268
0.000276422
-0.0067796
0.00015304
-0.00632784
0.000120704
-0.00554226
0.000246391
-0.00391848
0.00049485
-0.00144423
0.000783156
0.00132983
0.00105503
0.00385078
0.0012837
0.00584619
0.00145749
0.00728382
0.00157262
0.00839741
0.00163426
0.00954583
0.0016563
0.0106529
0.00165162
0.010874
0.00162577
0.00923199
0.00158699
0.00557889
0.00154841
0.000827964
0.00151456
-0.00362464
0.00148298
-0.00679327
0.00145213
-0.0084975
0.00141747
-0.00912068
0.00137798
-0.00918284
0.00133916
-0.00896569
0.00129274
-0.00861792
-0.00841073
0.000313643
0.000186565
-0.00620076
0.000135581
-0.00549128
0.000237565
-0.00402046
0.000472385
-0.00167905
0.000758021
0.00104419
0.00103295
0.00357585
0.00126734
0.0056118
0.00144771
0.00710346
0.00156971
0.00827541
0.00163862
0.00947691
0.00166748
0.010624
0.00166684
0.0108747
0.00164049
0.00925835
0.0015973
0.00562208
0.00155247
0.000872798
0.00151212
-0.00358429
0.00147476
-0.00675591
0.00143978
-0.00846253
0.00140293
-0.00908383
0.00136224
-0.00914216
0.00132295
-0.00892641
0.00127769
-0.00857266
-0.008341
0.000221559
-0.00607242
0.0001544
-0.00542412
0.000232349
-0.00409841
0.000451361
-0.00189807
0.000732861
0.00076269
0.00101013
0.00329859
0.00124984
0.00537209
0.00143661
0.00691669
0.00156551
0.00814651
0.00164181
0.00940061
0.0016776
0.0105882
0.00168112
0.0108711
0.00165436
0.0092851
0.00160689
0.00566955
0.00155594
0.000923749
0.00150919
-0.00353754
0.00146611
-0.00671284
0.00142705
-0.00842346
0.00138807
-0.00904485
0.00134627
-0.00910036
0.00130655
-0.00888668
0.00126244
-0.00852855
-0.00827358
0.000257372
-0.00594501
0.000176751
-0.0053435
0.000230915
-0.00415258
0.000432083
-0.00209924
0.000707794
0.000486979
0.00098659
0.00301979
0.00123119
0.00512749
0.00142417
0.00672371
0.00155996
0.00801072
0.00164375
0.00931681
0.00168661
0.0105454
0.0016944
0.0108634
0.00166736
0.00931215
0.00161573
0.00572117
0.00155882
0.000980669
0.00150577
-0.0034845
0.00145706
-0.00666413
0.00141395
-0.00838035
0.0013729
-0.00900381
0.00133008
-0.00905754
0.00128994
-0.00884654
0.00124699
-0.00848561
-0.00820857
0.000293372
-0.0058205
0.000202137
-0.00525226
0.000233345
-0.00418378
0.000414891
-0.00228078
0.000683
0.00021887
0.000962366
0.00274043
0.00121138
0.00487847
0.00141035
0.00652473
0.00155301
0.00786806
0.00164439
0.00922544
0.00169443
0.0104953
0.00170663
0.0108512
0.00167944
0.00933934
0.00162384
0.00577677
0.00156111
0.0010434
0.00150189
-0.00342527
0.0014476
-0.00660985
0.00140048
-0.00833322
0.00135741
-0.00896074
0.00131365
-0.00901378
0.00127312
-0.00880601
0.00123132
-0.0084438
-0.00814607
0.000328962
-0.00570054
0.000229991
-0.00515329
0.000239623
-0.00419342
0.0004001
-0.00244126
0.000658658
-3.9688e-05
0.000937502
0.00246158
0.00119041
0.00462557
0.00139513
0.00632001
0.00154463
0.00771856
0.00164367
0.0091264
0.00170102
0.010438
0.00171778
0.0108344
0.0016906
0.00936652
0.00163121
0.00583616
0.00156284
0.00111176
0.00149753
-0.00335996
0.00143774
-0.00655005
0.00138664
-0.00828212
0.00134159
-0.00891569
0.00129698
-0.00896918
0.0012561
-0.00876512
0.0012154
-0.0084031
-0.00808615
0.000363593
-0.00558648
0.000259696
-0.00504939
0.000249607
-0.00418333
0.000388128
-0.00257978
0.000634832
-0.000286391
0.000912073
0.00218434
0.00116827
0.00436937
0.00137849
0.00610979
0.00153476
0.00756229
0.00164152
0.00901964
0.00170632
0.0103732
0.0017278
0.0108129
0.0017008
0.00939351
0.00163783
0.00589913
0.00156402
0.00118557
0.00149272
-0.00328865
0.00142747
-0.00648481
0.00137243
-0.00822707
0.00132544
-0.0088687
0.00128007
-0.0089238
0.00123886
-0.00872391
0.00119924
-0.00836349
-0.00802888
0.000396774
-0.00547936
0.000290613
-0.00494323
0.000263042
-0.00415575
0.000378931
-0.00269567
0.000612033
-0.000519494
0.000886176
0.0019102
0.001145
0.00411054
0.00136041
0.00589439
0.00152338
0.00739931
0.00163792
0.0089051
0.00171028
0.0103008
0.00173664
0.0107866
0.00171003
0.00942013
0.00164372
0.00596544
0.00156468
0.00126461
0.00148747
-0.00321144
0.00141681
-0.00641415
0.00135785
-0.00816812
0.00130896
-0.00881981
0.0012629
-0.00887774
0.00122139
-0.00868241
0.00118281
-0.00832491
-0.00797428
0.000428077
-0.00537992
0.000322103
-0.00483726
0.000279566
-0.00411322
0.000372782
-0.00278888
0.000590457
-0.000737169
0.000859962
0.00164069
0.00112063
0.00384988
0.00134088
0.00567414
0.00151045
0.00722974
0.00163279
0.00878277
0.00171284
0.0102207
0.00174428
0.0107551
0.00171826
0.00944615
0.0016489
0.00603481
0.00156484
0.00134866
0.00148179
-0.00312839
0.00140575
-0.0063381
0.00134291
-0.00810528
0.00129214
-0.00876903
0.00124546
-0.00883107
0.0012037
-0.00864064
0.00116611
-0.00828731
-0.00792241
0.000457134
-0.00528863
0.000353539
-0.00473367
0.000298733
-0.00405841
0.000369849
-0.00286
0.000570432
-0.000937752
0.000833627
0.0013775
0.00109522
0.00358829
0.00131991
0.00544945
0.00149595
0.00705369
0.00162611
0.00865261
0.00171397
0.0101329
0.00175067
0.0107184
0.00172549
0.00947133
0.00165339
0.0061069
0.00156457
0.00143749
0.00147571
-0.00303954
0.00139429
-0.00625668
0.0013276
-0.00803859
0.00127497
-0.00871641
0.00122776
-0.00878386
0.00118578
-0.00859867
0.00114912
-0.00825065
-0.00787327
0.000483654
-0.00520568
0.000384342
-0.00463435
0.000320032
-0.0039941
0.000370141
-0.00291011
0.000552291
-0.0011199
0.00080741
0.00112238
0.00106887
0.00332682
0.00129752
0.0052208
0.00147987
0.00687135
0.00161783
0.00851464
0.00171361
0.0100371
0.00175578
0.0106762
0.00173171
0.0094954
0.00165727
0.00618135
0.00156391
0.00153084
0.00146925
-0.00294487
0.00138244
-0.00616988
0.00131192
-0.00796806
0.00125746
-0.00866195
0.00120977
-0.00873617
0.00116763
-0.00855652
0.00113184
-0.00821486
-0.00782685
0.000507475
-0.00513104
0.000414026
-0.0045409
0.00034294
-0.00392302
0.00037354
-0.00294071
0.000536323
-0.00128268
0.000781602
0.000877102
0.00104175
0.00306668
0.00127378
0.00498876
0.00146219
0.00668293
0.00160793
0.0083689
0.00171173
0.00993331
0.00175958
0.0106284
0.00173694
0.00951804
0.0016606
0.00625768
0.00156296
0.00162849
0.00146244
-0.00284435
0.00137022
-0.00607766
0.00129589
-0.00789373
0.00123962
-0.00860568
0.00119152
-0.00868808
0.00114925
-0.00851424
0.00111427
-0.00817988
-0.00778314
0.000528502
-0.00506444
0.000442169
-0.00445457
0.000366909
-0.00384776
0.000379822
-0.00295362
0.000522764
-0.00142563
0.000756552
0.000643315
0.00101407
0.00280916
0.00124879
0.00475404
0.00144296
0.00648876
0.00159638
0.00821548
0.0017083
0.00982139
0.00176202
0.0105747
0.0017412
0.00953887
0.00166353
0.00633535
0.00156181
0.0017302
0.0014553
-0.00273783
0.00135763
-0.00598
0.00127954
-0.00781564
0.00122147
-0.00854761
0.00117301
-0.00863961
0.00113064
-0.00847188
0.00109641
-0.00814565
-0.00774209
0.000546296
0.000468106
-0.00437638
0.000391171
-0.00377082
0.000388508
-0.00295096
0.000511681
-0.0015488
0.000732619
0.000422377
0.000986133
0.00255565
0.0012227
0.00451747
0.00142223
0.00628924
0.0015832
0.00805451
0.0017033
0.00970129
0.00176311
0.0105149
0.00174464
0.00955733
0.00166637
0.00641361
0.00156074
0.00183584
0.00144793
-0.00262503
0.00134465
-0.00587671
0.00126274
-0.00773374
0.00120286
-0.00848772
0.00115409
-0.00859084
0.00111171
-0.0084295
0.00107818
-0.00811212
-0.00770368
0.000490975
-0.00430728
0.000414824
-0.00369467
0.000398946
-0.00293508
0.000502903
-0.00165276
0.000710027
0.000215253
0.000958232
0.00230744
0.00119577
0.00427994
0.00140012
0.00608488
0.00156845
0.00788619
0.0016968
0.00957294
0.001763
0.0104487
0.0017478
0.00957254
0.00166996
0.00649145
0.00156034
0.00194546
0.00144049
-0.00250518
0.00133113
-0.00576735
0.00124528
-0.00764788
0.00118358
-0.00842603
0.00113461
-0.00854187
0.00109233
-0.00838722
0.0010595
-0.00807928
-0.00766786
0.000511884
-0.00424761
0.000438519
-0.0036213
0.000411607
-0.00290817
0.000496673
-0.00173782
0.000688953
2.2972e-05
0.000930932
0.00206546
0.0011684
0.00404247
0.00137692
0.00587637
0.00155234
0.00771077
0.00168905
0.00943622
0.00176219
0.0103755
0.00175156
0.00958317
0.00167495
0.00656807
0.00156051
0.00205989
0.00143274
-0.00237741
0.00131722
-0.00565184
0.00122761
-0.00755827
0.00116421
-0.00836262
0.00111508
-0.00849275
0.00107295
-0.00834508
0.00104072
-0.00804705
-0.00763455
0.00053536
-0.00419667
0.000465926
-0.00355187
0.000429653
-0.0028719
0.000497026
-0.0018052
0.000672998
-0.000153
0.000907152
0.00183131
0.00114288
0.00380674
0.00135433
0.00566491
0.00153616
0.00752895
0.00168103
0.00929136
0.00176144
0.0102951
0.00175602
0.00958859
0.00167928
0.00664481
0.00155818
0.00218099
0.00142345
-0.00224268
0.00130394
-0.00553232
0.00121185
-0.00746618
0.00114698
-0.00829776
0.00109748
-0.00844325
0.00105519
-0.00830279
0.0010232
-0.00801507
-0.00760339
0.00373278
-0.0037443
0.00320194
-0.00302103
0.00267551
-0.00234546
0.00235481
-0.0014845
0.00236884
-0.000167028
0.00260218
0.00159797
0.00292849
0.00348043
0.00322869
0.00536471
0.00348612
0.00727152
0.00377301
0.00900447
0.00417101
0.00989712
0.00475187
0.00900772
0.00546381
0.00593287
0.006061
0.00158381
0.00642427
-0.00260596
0.00652122
-0.00562927
0.00641755
-0.00736251
0.00620407
-0.00808427
0.00594228
-0.00818146
0.00566429
-0.0080248
0.00540321
-0.00775399
0.00515461
-0.00735478
-0.00696459
0.00410742
-0.00334621
0.00365018
-0.00256379
0.00314169
-0.00183698
0.00274027
-0.00108308
0.00258326
-1.00194e-05
0.00272075
0.00146048
0.00299442
0.00320676
0.0032963
0.00506283
0.00360639
0.00696142
0.00397211
0.00863876
0.00446032
0.0094089
0.00512317
0.00834487
0.00585651
0.00519953
0.00647086
0.000969456
0.00679373
-0.00292883
0.00683959
-0.00567513
0.00667977
-0.00720269
0.00642196
-0.00782646
0.00613324
-0.00789274
0.0058383
-0.00772985
0.00556296
-0.00747866
0.00530783
-0.00709964
-0.00668008
0.0044552
-0.00298767
0.00407244
-0.00218102
0.00362068
-0.00138522
0.00318152
-0.000643915
0.00292506
0.000246435
0.00292216
0.00146338
0.00311788
0.00301104
0.0034111
0.00476961
0.00376572
0.00660681
0.00420364
0.00820083
0.00478736
0.00882518
0.0055394
0.00759283
0.00631526
0.00442368
0.00689177
0.000392939
0.00716627
-0.00320332
0.00714785
-0.00565671
0.00693591
-0.00699075
0.00664137
-0.00753192
0.00633062
-0.00758199
0.00602111
-0.00742035
0.005732
-0.00718955
0.00546971
-0.00683735
-0.00639974
0.00478215
-0.00266049
0.00446581
-0.00186469
0.00409873
-0.00101813
0.0036879
-0.000233084
0.00336016
0.000574173
0.00323638
0.00158716
0.00333596
0.00291146
0.00360053
0.00450504
0.00398501
0.00622233
0.00449425
0.00769159
0.00517602
0.00814341
0.00600442
0.00676443
0.00679299
0.00363511
0.00733292
-0.000146988
0.00753341
-0.00340381
0.00744638
-0.00556968
0.00718368
-0.00672805
0.00685542
-0.00720366
0.0065255
-0.00725207
0.00620477
-0.00709962
0.0059044
-0.00688918
0.00563559
-0.00656854
-0.00612467
0.00509469
-0.00236031
0.00483079
-0.00160079
0.0045515
-0.000738844
0.0042151
0.00010332
0.00388281
0.00090646
0.00367725
0.00179272
0.00368186
0.00290686
0.00389789
0.004289
0.00429451
0.00582571
0.00486773
0.00711836
0.00563423
0.00737691
0.00651449
0.00588417
0.00729272
0.00285688
0.007768
-0.000622262
0.00788477
-0.00352059
0.00772809
-0.005413
0.00741951
-0.00641948
0.00706324
-0.00684739
0.00671822
-0.00690706
0.00638976
-0.00677116
0.00608073
-0.00658015
0.00580577
-0.00629358
-0.0058553
0.00539705
-0.00208527
0.0051715
-0.00137523
0.00496715
-0.000534494
0.00472794
0.000342522
0.00445416
0.00118024
0.00423156
0.00201532
0.00417107
0.00296735
0.00433296
0.00412711
0.00472391
0.00543477
0.00534142
0.00650085
0.00616565
0.00655267
0.00706466
0.00498517
0.00779828
0.00212325
0.00818443
-0.00100841
0.00821031
-0.00354647
0.00798771
-0.00519039
0.00764116
-0.00607292
0.00726399
-0.00647022
0.00690831
-0.00655138
0.0065756
-0.00643845
0.00626083
-0.00626538
0.00598024
-0.00601299
-0.0055916
0.00569218
-0.00183482
0.0054952
-0.00117826
0.00534592
-0.000385208
0.00520022
0.000488219
0.00502411
0.00135635
0.00485246
0.00218698
0.00478292
0.00303689
0.00491054
0.00399949
0.00528618
0.00505912
0.00592165
0.00586539
0.00676602
0.0057083
0.00763894
0.00411226
0.00828805
0.00147414
0.00856583
-0.00128619
0.00850086
-0.0034815
0.00822151
-0.00491104
0.00784737
-0.00569878
0.00745736
-0.00608021
0.00709563
-0.00618965
0.00676195
-0.00610477
0.00644455
-0.00594797
0.0061591
-0.00572754
-0.00533299
0.00598173
-0.00160836
0.00580829
-0.00100482
0.00569567
-0.000272589
0.00562251
0.000561379
0.00555016
0.0014287
0.00547454
0.0022626
0.00545646
0.00305497
0.0055911
0.00386484
0.00595846
0.00469177
0.00658883
0.00523502
0.00740912
0.00488801
0.00820531
0.00331606
0.00873509
0.000944364
0.00889622
-0.00144732
0.00874979
-0.00333508
0.00842784
-0.0045891
0.00803811
-0.00530905
0.00764362
-0.00568572
0.00728036
-0.00582639
0.00694857
-0.00577298
0.00663168
-0.00563108
0.00634252
-0.00543839
-0.00507836
0.00626676
-0.00140461
0.0061144
-0.000852458
0.00602633
-0.000184524
0.00600062
0.00058709
0.00601225
0.00141707
0.00604146
0.00223339
0.00611238
0.00298405
0.00629545
0.00368178
0.00667348
0.00431373
0.00728431
0.00462419
0.0080401
0.00413222
0.00871862
0.00263754
0.00911211
0.00055087
0.00916389
-0.00149909
0.0089547
-0.00312589
0.00860768
-0.00424208
0.0082146
-0.00491597
0.00782348
-0.0052946
0.00746288
-0.00546579
0.00713529
-0.00544539
0.00682193
-0.00531772
0.00653072
-0.00514718
-0.00482628
0.00654813
-0.00122193
0.00641518
-0.00071951
0.0063452
-0.000114542
0.0063472
0.000585096
0.00641337
0.00135089
0.00652669
0.00212007
0.00668872
0.00282202
0.00693898
0.00343153
0.00734197
0.00391074
0.0079252
0.00404096
0.0085914
0.00346602
0.00913576
0.00209318
0.00940001
0.000286621
0.00936568
-0.00146475
0.00911848
-0.00287869
0.00876457
-0.00388818
0.00837909
-0.00453049
0.00799803
-0.00491353
0.00764374
-0.0051115
0.00732211
-0.00512376
0.0070149
-0.00501051
0.00672385
-0.00485613
-0.00457534
0.00682662
-0.00105857
0.0067113
-0.000604186
0.00665618
-5.94235e-05
0.00667384
0.000567435
0.00676883
0.00125591
0.00693383
0.00195507
0.00716241
0.00259344
0.00747034
0.0031236
0.00789586
0.00348521
0.00844429
0.00349253
0.00901441
0.00289591
0.00943494
0.00167264
0.00959749
0.000124071
0.00950909
-0.00137635
0.009249
-0.00261859
0.00890385
-0.00354304
0.00853441
-0.00416105
0.00816845
-0.00454757
0.00782355
-0.0047666
0.00750914
-0.00480935
0.00721013
-0.00471151
0.0069219
-0.0045679
-0.00432457
0.00710279
-0.000913032
0.00700329
-0.00050469
0.0069607
-1.68353e-05
0.00698785
0.000540285
0.00709472
0.00114905
0.00728238
0.00176741
0.00754466
0.00233115
0.00788402
0.00278425
0.00831506
0.00305417
0.00882037
0.00298722
0.00930167
0.0024146
0.00962519
0.00134912
0.00972147
2.77982e-05
0.0096096
-0.00126449
0.00935668
-0.00236567
0.00903139
-0.00321774
0.00868343
-0.00381309
0.00833591
-0.00420005
0.0080029
-0.00443359
0.00769663
-0.00450307
0.00740719
-0.00442207
0.00712466
-0.00428537
-0.00407379
0.00737682
-0.000783925