/*--------------------------------*- C++ -*----------------------------------*\
  =========                 |
  \\      /  F ield         | OpenFOAM: The Open Source CFD Toolbox
   \\    /   O peration     | Website:  https://openfoam.org
    \\  /    A nd           | Version:  7
     \\/     M anipulation  |
\*---------------------------------------------------------------------------*/
FoamFile
{
    version     2.0;
    format      ascii;
    class       volScalarField;
    location    "240";
    object      p;
}
// * * * * * * * * * * * * * * * * * * * * * * * * * * * * * * * * * * * * * //

dimensions      [0 2 -2 0 0 0 0];

internalField   nonuniform List<scalar> 
36600
(
-0.376565
-0.37848
-0.379499
-0.380282
-0.380903
-0.381391
-0.381798
-0.382157
-0.38249
-0.382813
-0.383129
-0.383438
-0.383737
-0.38402
-0.384283
-0.384525
-0.384755
-0.385
-0.385196
-0.385433
-0.373373
-0.375205
-0.376162
-0.376878
-0.377418
-0.377809
-0.378098
-0.378319
-0.378493
-0.378634
-0.378749
-0.378837
-0.378896
-0.378923
-0.378917
-0.37888
-0.378826
-0.378791
-0.378709
-0.378669
-0.370308
-0.372046
-0.372938
-0.373583
-0.374041
-0.374335
-0.37451
-0.374596
-0.374614
-0.374578
-0.374495
-0.374368
-0.374194
-0.373973
-0.373706
-0.373399
-0.373072
-0.37277
-0.372424
-0.372117
-0.367367
-0.369002
-0.369825
-0.370398
-0.370774
-0.370972
-0.371034
-0.370987
-0.370853
-0.370646
-0.370372
-0.370034
-0.369635
-0.369174
-0.368655
-0.368089
-0.3675
-0.366944
-0.366351
-0.365786
-0.364544
-0.366071
-0.366822
-0.367322
-0.367616
-0.36772
-0.367671
-0.367496
-0.367214
-0.366839
-0.366379
-0.365839
-0.365221
-0.364528
-0.363767
-0.362952
-0.362112
-0.361316
-0.360492
-0.359679
-0.361836
-0.36325
-0.363928
-0.364354
-0.364567
-0.364578
-0.364422
-0.364122
-0.363696
-0.363159
-0.362519
-0.361782
-0.360952
-0.360035
-0.359041
-0.357988
-0.356909
-0.355886
-0.354849
-0.353796
-0.359236
-0.360535
-0.36114
-0.361492
-0.361625
-0.361547
-0.361286
-0.360864
-0.360299
-0.359604
-0.358789
-0.357862
-0.356827
-0.355695
-0.354477
-0.353195
-0.351889
-0.350651
-0.349418
-0.348132
-0.356739
-0.357923
-0.358454
-0.358734
-0.358789
-0.358623
-0.358261
-0.357722
-0.357021
-0.356173
-0.355189
-0.354076
-0.352844
-0.351503
-0.35007
-0.34857
-0.347047
-0.345604
-0.344193
-0.342681
-0.35434
-0.355411
-0.35587
-0.356079
-0.356058
-0.355807
-0.355346
-0.354693
-0.353861
-0.352864
-0.351715
-0.350423
-0.348999
-0.347457
-0.345816
-0.344107
-0.342376
-0.340737
-0.339165
-0.337428
-0.352032
-0.352994
-0.353383
-0.353523
-0.353429
-0.353096
-0.35254
-0.351776
-0.350816
-0.349675
-0.348365
-0.346899
-0.345288
-0.343551
-0.34171
-0.339801
-0.337871
-0.336043
-0.33433
-0.332347
-0.34981
-0.350669
-0.350991
-0.351066
-0.350901
-0.350488
-0.34984
-0.348968
-0.347885
-0.346603
-0.345136
-0.343499
-0.341707
-0.33978
-0.337746
-0.335643
-0.333525
-0.33152
-0.329685
-0.327466
-0.34767
-0.348432
-0.348692
-0.348704
-0.348472
-0.347983
-0.347246
-0.346269
-0.345064
-0.343644
-0.342024
-0.34022
-0.33825
-0.336138
-0.333916
-0.331628
-0.329331
-0.327161
-0.325171
-0.322883
-0.345606
-0.34628
-0.346483
-0.346437
-0.34614
-0.345578
-0.344754
-0.343676
-0.342353
-0.340797
-0.339027
-0.337058
-0.334914
-0.332621
-0.330216
-0.327747
-0.32528
-0.322959
-0.32083
-0.318434
-0.343614
-0.344212
-0.344362
-0.344262
-0.343905
-0.343272
-0.342365
-0.341187
-0.339748
-0.33806
-0.336141
-0.334011
-0.331695
-0.329224
-0.326639
-0.323995
-0.321363
-0.318897
-0.316649
-0.314122
-0.341692
-0.342225
-0.342328
-0.342179
-0.341764
-0.341065
-0.340077
-0.338802
-0.337249
-0.33543
-0.333365
-0.331075
-0.32859
-0.325943
-0.323181
-0.320365
-0.317571
-0.314964
-0.312606
-0.309966
-0.339838
-0.340317
-0.340381
-0.340186
-0.339719
-0.338955
-0.337889
-0.33652
-0.334855
-0.332907
-0.330697
-0.328249
-0.325596
-0.322776
-0.319839
-0.316853
-0.313901
-0.311155
-0.308693
-0.305961
-0.338051
-0.33849
-0.33852
-0.338285
-0.337768
-0.336944
-0.335801
-0.33434
-0.332564
-0.330489
-0.328136
-0.325533
-0.322713
-0.319721
-0.316611
-0.313457
-0.31035
-0.307467
-0.304908
-0.302101
-0.33633
-0.336743
-0.336746
-0.336476
-0.335914
-0.335031
-0.333814
-0.332262
-0.330379
-0.328178
-0.325684
-0.322926
-0.319942
-0.316779
-0.313498
-0.310177
-0.306915
-0.303898
-0.301248
-0.298382
-0.334678
-0.335078
-0.335061
-0.334761
-0.334156
-0.333217
-0.331929
-0.330288
-0.328298
-0.325974
-0.323341
-0.320431
-0.317284
-0.313953
-0.310502
-0.307016
-0.3036
-0.30045
-0.297711
-0.294801
-0.333098
-0.333498
-0.333466
-0.333141
-0.332497
-0.331504
-0.330147
-0.328419
-0.326325
-0.32388
-0.32111
-0.31805
-0.314744
-0.311247
-0.307628
-0.303978
-0.300409
-0.297126
-0.294299
-0.291355
-0.331592
-0.332005
-0.331966
-0.331619
-0.330939
-0.329894
-0.328469
-0.326657
-0.324461
-0.321897
-0.318994
-0.315788
-0.312326
-0.308667
-0.304883
-0.301071
-0.297349
-0.293931
-0.291014
-0.288039
-0.330167
-0.330605
-0.330563
-0.330198
-0.329485
-0.328391
-0.3269
-0.325004
-0.322709
-0.320031
-0.316999
-0.313651
-0.310039
-0.306222
-0.302278
-0.298306
-0.294431
-0.290875
-0.287863
-0.284848
-0.32883
-0.329302
-0.329262
-0.328882
-0.328138
-0.326997
-0.325442
-0.323466
-0.321075
-0.318286
-0.315129
-0.311646
-0.307889
-0.303922
-0.299823
-0.295696
-0.291669
-0.28797
-0.284854
-0.281774
-0.327586
-0.328103
-0.328069
-0.327677
-0.326903
-0.325716
-0.324099
-0.322045
-0.319562
-0.316667
-0.313392
-0.309781
-0.305888
-0.301779
-0.297534
-0.293257
-0.28908
-0.285233
-0.282
-0.278807
-0.326447
-0.327014
-0.326989
-0.326586
-0.325785
-0.324552
-0.322875
-0.320747
-0.318176
-0.315181
-0.311795
-0.308065
-0.304046
-0.299806
-0.295425
-0.291008
-0.286684
-0.282681
-0.279317
-0.275938
-0.325421
-0.326044
-0.326029
-0.325616
-0.324788
-0.323512
-0.321777
-0.319578
-0.316923
-0.313834
-0.310347
-0.306508
-0.302375
-0.298016
-0.293514
-0.288967
-0.284501
-0.280338
-0.276825
-0.273156
-0.324519
-0.3252
-0.325196
-0.324773
-0.323918
-0.3226
-0.320809
-0.318542
-0.31581
-0.312636
-0.309056
-0.30512
-0.300887
-0.296425
-0.291815
-0.287153
-0.282554
-0.278224
-0.274548
-0.270455
-0.323752
-0.324491
-0.324497
-0.324063
-0.323181
-0.321822
-0.319977
-0.317647
-0.314844
-0.311592
-0.307931
-0.303911
-0.299592
-0.295044
-0.290344
-0.285584
-0.280864
-0.276362
-0.272512
-0.267835
-0.323132
-0.323925
-0.323939
-0.323493
-0.322584
-0.321183
-0.319288
-0.316899
-0.314031
-0.310711
-0.30698
-0.302889
-0.298501
-0.293885
-0.289115
-0.284275
-0.279447
-0.274773
-0.270742
-0.265301
-0.32267
-0.323511
-0.323529
-0.323069
-0.322131
-0.32069
-0.318746
-0.316303
-0.313378
-0.309999
-0.30621
-0.302064
-0.297623
-0.292957
-0.288136
-0.283236
-0.278318
-0.273471
-0.269262
-0.262872
-0.322378
-0.323258
-0.323276
-0.322798
-0.321829
-0.320348
-0.318358
-0.315866
-0.312891
-0.309463
-0.305628
-0.30144
-0.296964
-0.292266
-0.287414
-0.282473
-0.277481
-0.272464
-0.268087
-0.260575
-0.322265
-0.323173
-0.323185
-0.322684
-0.321683
-0.320162
-0.318129
-0.315593
-0.312574
-0.309108
-0.305238
-0.301024
-0.296527
-0.291815
-0.286949
-0.281985
-0.276935
-0.271753
-0.26722
-0.258445
-0.322342
-0.323264
-0.323262
-0.322734
-0.321697
-0.320137
-0.318062
-0.315486
-0.312432
-0.308936
-0.305044
-0.300815
-0.296313
-0.291602
-0.286739
-0.281767
-0.276673
-0.271333
-0.266653
-0.256527
-0.322617
-0.323536
-0.323512
-0.322952
-0.321876
-0.320275
-0.31816
-0.315549
-0.312466
-0.308949
-0.305045
-0.300814
-0.296318
-0.291622
-0.286774
-0.281808
-0.276681
-0.271194
-0.266365
-0.254877
-0.323097
-0.323996
-0.32394
-0.323341
-0.322222
-0.320578
-0.318426
-0.315782
-0.312676
-0.309145
-0.305239
-0.301015
-0.296538
-0.291866
-0.287044
-0.282095
-0.276943
-0.271333
-0.266332
-0.253576
-0.323788
-0.324647
-0.324549
-0.323903
-0.322737
-0.321048
-0.318858
-0.316185
-0.31306
-0.309522
-0.30562
-0.301413
-0.296962
-0.292323
-0.287536
-0.282613
-0.277443
-0.27175
-0.266534
-0.252744
-0.324693
-0.325491
-0.325341
-0.32464
-0.323421
-0.321685
-0.319455
-0.316755
-0.313615
-0.310074
-0.306183
-0.301998
-0.297579
-0.292981
-0.288236
-0.28335
-0.278169
-0.272453
-0.266915
-0.252399
-0.325815
-0.32653
-0.326317
-0.325552
-0.324273
-0.322486
-0.320216
-0.317488
-0.314334
-0.310794
-0.306916
-0.302758
-0.298376
-0.293822
-0.289127
-0.284294
-0.279127
-0.273494
-0.267379
-0.252199
-0.327153
-0.327765
-0.327476
-0.326638
-0.325292
-0.323448
-0.321135
-0.318378
-0.315211
-0.311672
-0.307811
-0.30368
-0.299337
-0.294831
-0.290193
-0.285438
-0.280348
-0.275027
-0.268138
-0.25243
-0.328707
-0.329195
-0.328817
-0.327897
-0.326475
-0.324569
-0.322208
-0.31942
-0.316237
-0.312699
-0.308854
-0.304751
-0.300447
-0.295989
-0.291413
-0.286758
-0.281832
-0.277139
-0.270159
-0.258403
-0.330474
-0.330817
-0.330339
-0.329325
-0.32782
-0.325844
-0.323429
-0.320605
-0.317404
-0.313865
-0.310033
-0.305957
-0.301688
-0.297276
-0.292761
-0.288213
-0.283485
-0.279474
-0.273675
-0.279309
-0.332451
-0.332631
-0.33204
-0.330921
-0.329322
-0.327268
-0.324793
-0.321928
-0.318704
-0.31516
-0.311337
-0.307282
-0.303043
-0.29867
-0.294207
-0.28975
-0.285196
-0.281711
-0.276632
-0.284737
-0.334633
-0.334631
-0.333916
-0.332681
-0.330978
-0.328837
-0.326295
-0.323381
-0.320129
-0.316574
-0.312755
-0.308714
-0.304497
-0.300151
-0.295722
-0.291323
-0.286878
-0.283626
-0.278789
-0.28614
-0.337016
-0.336817
-0.335964
-0.334603
-0.332785
-0.330548
-0.327929
-0.32496
-0.321672
-0.3181
-0.314277
-0.310243
-0.306035
-0.301699
-0.297278
-0.292892
-0.288477
-0.285216
-0.280392
-0.286315
-0.339597
-0.339185
-0.338184
-0.336685
-0.334741
-0.332397
-0.329692
-0.326659
-0.323329
-0.319731
-0.315896
-0.311857
-0.307644
-0.303296
-0.298852
-0.294425
-0.289956
-0.286504
-0.281523
-0.285628
-0.342371
-0.341732
-0.340573
-0.338923
-0.336843
-0.334383
-0.331583
-0.328478
-0.325096
-0.321464
-0.317606
-0.313548
-0.309312
-0.304927
-0.300422
-0.295897
-0.29129
-0.287509
-0.282242
-0.28442
-0.345335
-0.344457
-0.343129
-0.341319
-0.339092
-0.336505
-0.333601
-0.330414
-0.326971
-0.323295
-0.319403
-0.31531
-0.311029
-0.306575
-0.301968
-0.297287
-0.292466
-0.288255
-0.282615
-0.28294
-0.348486
-0.347359
-0.345852
-0.343872
-0.341488
-0.338765
-0.335747
-0.33247
-0.328957
-0.325225
-0.321284
-0.317137
-0.312784
-0.308229
-0.303474
-0.29858
-0.293475
-0.288768
-0.282698
-0.281333
-0.351824
-0.350438
-0.348742
-0.346582
-0.344032
-0.341163
-0.338024
-0.334647
-0.331053
-0.327254
-0.323247
-0.319024
-0.31457
-0.309874
-0.304925
-0.299763
-0.294316
-0.289072
-0.282541
-0.279679
-0.355348
-0.353693
-0.351801
-0.349452
-0.346727
-0.343705
-0.340435
-0.336949
-0.333265
-0.329383
-0.325291
-0.320966
-0.316378
-0.3115
-0.306308
-0.300828
-0.29499
-0.289187
-0.28218
-0.278018
-0.359059
-0.357126
-0.35503
-0.352485
-0.349577
-0.346394
-0.342986
-0.339382
-0.335595
-0.331615
-0.327416
-0.322959
-0.318199
-0.313095
-0.307613
-0.301768
-0.295499
-0.289131
-0.281647
-0.276368
-0.362958
-0.360739
-0.358432
-0.355684
-0.352587
-0.349236
-0.345682
-0.341951
-0.338047
-0.33395
-0.329618
-0.324996
-0.320024
-0.314648
-0.30883
-0.302579
-0.295849
-0.288918
-0.280964
-0.274731
-0.367047
-0.364533
-0.36201
-0.359053
-0.355761
-0.352237
-0.348529
-0.344661
-0.340625
-0.336389
-0.331895
-0.327071
-0.321843
-0.316149
-0.30995
-0.303257
-0.296044
-0.288561
-0.280148
-0.273103
-0.371329
-0.368512
-0.365767
-0.362596
-0.359104
-0.355401
-0.351532
-0.347515
-0.343331
-0.338932
-0.334243
-0.329176
-0.323646
-0.317588
-0.310966
-0.3038
-0.296089
-0.288067
-0.279212
-0.271474
-0.375805
-0.372678
-0.369705
-0.366317
-0.362622
-0.358734
-0.354697
-0.350517
-0.346165
-0.341575
-0.336653
-0.3313
-0.325422
-0.318953
-0.311871
-0.304208
-0.29599
-0.287446
-0.278167
-0.269833
-0.380479
-0.377032
-0.373829
-0.37022
-0.366317
-0.362241
-0.358026
-0.35367
-0.349126
-0.344312
-0.339119
-0.333433
-0.327158
-0.320236
-0.312658
-0.304479
-0.295751
-0.286704
-0.277018
-0.268168
-0.38535
-0.381576
-0.378138
-0.374307
-0.370194
-0.365923
-0.361521
-0.356971
-0.35221
-0.347138
-0.341628
-0.335561
-0.328842
-0.321426
-0.313323
-0.304613
-0.295375
-0.285843
-0.27577
-0.266468
-0.39042
-0.38631
-0.382636
-0.378579
-0.374255
-0.369783
-0.365182
-0.360418
-0.355411
-0.35004
-0.344169
-0.337672
-0.330462
-0.322513
-0.313861
-0.30461
-0.294867
-0.284869
-0.274426
-0.264721
-0.395687
-0.391233
-0.38732
-0.383038
-0.378499
-0.37382
-0.369006
-0.364006
-0.358719
-0.353008
-0.346726
-0.339749
-0.332004
-0.323488
-0.314267
-0.304469
-0.294228
-0.283783
-0.272988
-0.26292
-0.401149
-0.396343
-0.392191
-0.387682
-0.382925
-0.378032
-0.372989
-0.367726
-0.362122
-0.356025
-0.349281
-0.341776
-0.333454
-0.324343
-0.314537
-0.304192
-0.293462
-0.282586
-0.271454
-0.261053
-0.4068
-0.401637
-0.397244
-0.392508
-0.38753
-0.382412
-0.377122
-0.371567
-0.365606
-0.359074
-0.351818
-0.343736
-0.3348
-0.325068
-0.314667
-0.303776
-0.292568
-0.281278
-0.269823
-0.259115
-0.412634
-0.407108
-0.402474
-0.397511
-0.392307
-0.386953
-0.381394
-0.375514
-0.369152
-0.362136
-0.354317
-0.345612
-0.336028
-0.325655
-0.314653
-0.303221
-0.291547
-0.279859
-0.268095
-0.257096
-0.418641
-0.412748
-0.407874
-0.402684
-0.397249
-0.391646
-0.385792
-0.37955
-0.372741
-0.365188
-0.356755
-0.347387
-0.337124
-0.326096
-0.314491
-0.302526
-0.290398
-0.278327
-0.266267
-0.254992
-0.424811
-0.418548
-0.413435
-0.408017
-0.402344
-0.396475
-0.390299
-0.383654
-0.37635
-0.368208
-0.359113
-0.349043
-0.338077
-0.326383
-0.314176
-0.301687
-0.289119
-0.276679
-0.264334
-0.252795
-0.431129
-0.424495
-0.419145
-0.413497
-0.407578
-0.401424
-0.394895
-0.387805
-0.379953
-0.37117
-0.361367
-0.350561
-0.338873
-0.326507
-0.313703
-0.300702
-0.287707
-0.274913
-0.262294
-0.2505
-0.437579
-0.430573
-0.424989
-0.41911
-0.412936
-0.406475
-0.399557
-0.391975
-0.383524
-0.37405
-0.363496
-0.351925
-0.339501
-0.326461
-0.313068
-0.299567
-0.28616
-0.273024
-0.260141
-0.248101
-0.444141
-0.436766
-0.43095
-0.424839
-0.418396
-0.411604
-0.404259
-0.396138
-0.387035
-0.37682
-0.365478
-0.353117
-0.339947
-0.326237
-0.312264
-0.298278
-0.284472
-0.271007
-0.257872
-0.245593
-0.450793
-0.443053
-0.43701
-0.430663
-0.423939
-0.416787
-0.408974
-0.400263
-0.390456
-0.379454
-0.367289
-0.35412
-0.3402
-0.325826
-0.311287
-0.296829
-0.28264
-0.268859
-0.25548
-0.242968
-0.457511
-0.449412
-0.443145
-0.436559
-0.429536
-0.421995
-0.413671
-0.404319
-0.393757
-0.381926
-0.368909
-0.354918
-0.340249
-0.32522
-0.310129
-0.295216
-0.280657
-0.266572
-0.25296
-0.240223
-0.464268
-0.455817
-0.449331
-0.4425
-0.435161
-0.427197
-0.418317
-0.408272
-0.396906
-0.384208
-0.370316
-0.355496
-0.340081
-0.32441
-0.308783
-0.293432
-0.278517
-0.264142
-0.250306
-0.237352
-0.471032
-0.462241
-0.455539
-0.448457
-0.440782
-0.432358
-0.422875
-0.412087
-0.399872
-0.386272
-0.371488
-0.355836
-0.339685
-0.323388
-0.307242
-0.291469
-0.276215
-0.261561
-0.247513
-0.234348
-0.477773
-0.468654
-0.46174
-0.4544
-0.446364
-0.437444
-0.42731
-0.415728
-0.402623
-0.388093
-0.372405
-0.355924
-0.339049
-0.322143
-0.305498
-0.289321
-0.273742
-0.258824
-0.244573
-0.231205
-0.484455
-0.475021
-0.467901
-0.460293
-0.451872
-0.442417
-0.431583
-0.419162
-0.405127
-0.389646
-0.373047
-0.355745
-0.338162
-0.320668
-0.303544
-0.286981
-0.271092
-0.255922
-0.24148
-0.227919
-0.491041
-0.48131
-0.473986
-0.4661
-0.457268
-0.447236
-0.435655
-0.42235
-0.407353
-0.390905
-0.373395
-0.355284
-0.337013
-0.318951
-0.301369
-0.284439
-0.268257
-0.252851
-0.238229
-0.224484
-0.497493
-0.487481
-0.479957
-0.471783
-0.462511
-0.45186
-0.439487
-0.425257
-0.409272
-0.391846
-0.373431
-0.354527
-0.33559
-0.316985
-0.298967
-0.28169
-0.265231
-0.249602
-0.234812
-0.220893
-0.503769
-0.493496
-0.485776
-0.4773
-0.467558
-0.456248
-0.443039
-0.427849
-0.410854
-0.392446
-0.373137
-0.353461
-0.333883
-0.314759
-0.296327
-0.278723
-0.262004
-0.246168
-0.231223
-0.217142
-0.509828
-0.499314
-0.491401
-0.482607
-0.472366
-0.460356
-0.446271
-0.430089
-0.41207
-0.392682
-0.372496
-0.352072
-0.331879
-0.312264
-0.293442
-0.275531
-0.25857
-0.242544
-0.227456
-0.213224
-0.515623
-0.504891
-0.496787
-0.487662
-0.47689
-0.464141
-0.449142
-0.431944
-0.412893
-0.392535
-0.371491
-0.350346
-0.329569
-0.309489
-0.290303
-0.272106
-0.254922
-0.238721
-0.223505
-0.209136
-0.521112
-0.510184
-0.501891
-0.492419
-0.481086
-0.46756
-0.451615
-0.433382
-0.413297
-0.391982
-0.370107
-0.348273
-0.326942
-0.306426
-0.2869
-0.26844
-0.251051
-0.234693
-0.219363
-0.20487
-0.526247
-0.515147
-0.506666
-0.496831
-0.484906
-0.47057
-0.453651
-0.43437
-0.413257
-0.391006
-0.36833
-0.345839
-0.323987
-0.303064
-0.283225
-0.264524
-0.24695
-0.230454
-0.215026
-0.200424
-0.530983
-0.519736
-0.511068
-0.500852
-0.488307
-0.47313
-0.455215
-0.43488
-0.412749
-0.389589
-0.366144
-0.343032
-0.320694
-0.299396
-0.279271
-0.260352
-0.242614
-0.225997
-0.210487
-0.195793
-0.535271
-0.523902
-0.515048
-0.504435
-0.491243
-0.475196
-0.456269
-0.434882
-0.411753
-0.387713
-0.363537
-0.339843
-0.317053
-0.295412
-0.275028
-0.255916
-0.238035
-0.221318
-0.205742
-0.190971
-0.539065
-0.5276
-0.518561
-0.507534
-0.49367
-0.476732
-0.456783
-0.43435
-0.410247
-0.385363
-0.360497
-0.33626
-0.313056
-0.291104
-0.270489
-0.251208
-0.233206
-0.21641
-0.200785
-0.185955
-0.542319
-0.530785
-0.521559
-0.510103
-0.495544
-0.477697
-0.456723
-0.433261
-0.408214
-0.382526
-0.357012
-0.332275
-0.308694
-0.286464
-0.265647
-0.246223
-0.228123
-0.211269
-0.195613
-0.180743
-0.544988
-0.53341
-0.523997
-0.512097
-0.496825
-0.478058
-0.456062
-0.431591
-0.405635
-0.379187
-0.353071
-0.327877
-0.303959
-0.281485
-0.260496
-0.240955
-0.22278
-0.205889
-0.190221
-0.175329
-0.547026
-0.53543
-0.525831
-0.513475
-0.497474
-0.477779
-0.454772
-0.429319
-0.402496
-0.375335
-0.348665
-0.323058
-0.298842
-0.27616
-0.255029
-0.235398
-0.217173
-0.200267
-0.184607
-0.169713
-0.548392
-0.536804
-0.527018
-0.514194
-0.497452
-0.476829
-0.452828
-0.426428
-0.398783
-0.37096
-0.343786
-0.317812
-0.293339
-0.270482
-0.24924
-0.229546
-0.211296
-0.194398
-0.178765
-0.16389
-0.549042
-0.537488
-0.527517
-0.514215
-0.496726
-0.475181
-0.450208
-0.4229
-0.394484
-0.366052
-0.338426
-0.312132
-0.287442
-0.264447
-0.243126
-0.223397
-0.205146
-0.18828
-0.172695
-0.157859
-0.548939
-0.537444
-0.527287
-0.513501
-0.495263
-0.472807
-0.446892
-0.418723
-0.389588
-0.360603
-0.332578
-0.306012
-0.281147
-0.25805
-0.236681
-0.216946
-0.19872
-0.181908
-0.166394
-0.15162
-0.548045
-0.536634
-0.526293
-0.512018
-0.493033
-0.469685
-0.442864
-0.413882
-0.384088
-0.354608
-0.326237
-0.299447
-0.27445
-0.251288
-0.229903
-0.21019
-0.192014
-0.175282
-0.159861
-0.145179
-0.546325
-0.535022
-0.524499
-0.509735
-0.490011
-0.465793
-0.438109
-0.40837
-0.377975
-0.34806
-0.3194
-0.292434
-0.267347
-0.244156
-0.222789
-0.203127
-0.185027
-0.168397
-0.153096
-0.13853
-0.543748
-0.532577
-0.521875
-0.506624
-0.486173
-0.461116
-0.432616
-0.402177
-0.371246
-0.340958
-0.312063
-0.284971
-0.259836
-0.236655
-0.215338
-0.195755
-0.177757
-0.161252
-0.146092
-0.131628
-0.540286
-0.529269
-0.518392
-0.502659
-0.481499
-0.455639
-0.426374
-0.395299
-0.363897
-0.333297
-0.304224
-0.277055
-0.251916
-0.228782
-0.207549
-0.188076
-0.170206
-0.153851
-0.138834
-0.124397
-0.535911
-0.525071
-0.514026
-0.497819
-0.475972
-0.44935
-0.419377
-0.387732
-0.355926
-0.325078
-0.295884
-0.268688
-0.243588
-0.220538
-0.199422
-0.180089
-0.162375
-0.146198
-0.131327
-0.116853
-0.530603
-0.519961
-0.508754
-0.492085
-0.46958
-0.442241
-0.411622
-0.379475
-0.347333
-0.316301
-0.287043
-0.259869
-0.234851
-0.211925
-0.19096
-0.171797
-0.154268
-0.138294
-0.123599
-0.109338
-0.524343
-0.513919
-0.502558
-0.485444
-0.462312
-0.434308
-0.403106
-0.370528
-0.338121
-0.306969
-0.277703
-0.250601
-0.225709
-0.202943
-0.182164
-0.163202
-0.145887
-0.130142
-0.115637
-0.101657
-0.517114
-0.50693
-0.495425
-0.477884
-0.454162
-0.425548
-0.393832
-0.360896
-0.328293
-0.297086
-0.267869
-0.240888
-0.216164
-0.193598
-0.173037
-0.154307
-0.137236
-0.121743
-0.107462
-0.0937645
-0.508907
-0.49898
-0.487343
-0.469397
-0.445128
-0.415961
-0.383802
-0.350581
-0.317855
-0.286656
-0.257544
-0.230733
-0.206221
-0.183891
-0.163584
-0.145117
-0.128317
-0.113103
-0.0990733
-0.0856581
-0.499712
-0.490062
-0.478305
-0.459981
-0.435208
-0.405553
-0.373023
-0.339593
-0.306813
-0.275686
-0.246736
-0.220144
-0.195885
-0.17383
-0.15381
-0.135636
-0.119134
-0.104224
-0.0904704
-0.0773451
-0.489527
-0.480171
-0.468309
-0.449635
-0.424408
-0.394329
-0.361503
-0.327939
-0.295177
-0.264185
-0.235451
-0.209126
-0.185163
-0.163421
-0.14372
-0.12587
-0.109694
-0.0951129
-0.0816557
-0.0688332
-0.47835
-0.469305
-0.457354
-0.438363
-0.412733
-0.382299
-0.349252
-0.315631
-0.282957
-0.252163
-0.223699
-0.197688
-0.174063
-0.152669
-0.133322
-0.115825
-0.100001
-0.0857745
-0.0726337
-0.0601299
-0.466185
-0.457467
-0.445445
-0.426171
-0.400194
-0.369475
-0.336285
-0.302682
-0.270165
-0.23963
-0.21149
-0.185839
-0.162593
-0.141585
-0.122624
-0.105509
-0.0900645
-0.0762154
-0.0634104
-0.0512422
-0.453039
-0.444664
-0.432589
-0.413071
-0.386804
-0.355871
-0.322616
-0.289106
-0.256814
-0.226599
-0.198836
-0.173591
-0.150764
-0.130177
-0.111634
-0.0949302
-0.0798914
-0.0664431
-0.0539931
-0.0421777
-0.438923
-0.430906
-0.418799
-0.399076
-0.372579
-0.341506
-0.308262
-0.274919
-0.242921
-0.213083
-0.185748
-0.160955
-0.138586
-0.118456
-0.100363
-0.0840986
-0.0694909
-0.0564662
-0.0443899
-0.0329443
-0.423851
-0.416206
-0.40409
-0.384203
-0.357537
-0.326397
-0.293243
-0.260141
-0.228501
-0.199099
-0.172242
-0.147944
-0.126072
-0.106433
-0.0888206
-0.0730243
-0.058873
-0.046294
-0.0346099
-0.0235511
-0.407841
-0.400582
-0.388479
-0.368472
-0.3417
-0.310569
-0.27758
-0.244789
-0.213572
-0.184663
-0.158332
-0.134571
-0.113234
-0.0941207
-0.0770197
-0.0617185
-0.0480487
-0.035937
-0.0246634
-0.0140078
-0.390915
-0.384053
-0.371988
-0.351906
-0.325093
-0.294046
-0.261295
-0.228885
-0.198156
-0.169793
-0.144034
-0.120853
-0.100087
-0.0815322
-0.0649724
-0.0501935
-0.0370296
-0.0254067
-0.0145617
-0.00432568
-0.373097
-0.366645
-0.354641
-0.334532
-0.307744
-0.276854
-0.24441
-0.212456
-0.182272
-0.154507
-0.129367
-0.106804
-0.0866464
-0.0686815
-0.0526922
-0.0384621
-0.0258284
-0.0147156
-0.00431743
0.00548211
-0.354415
-0.348383
-0.336468
-0.316379
-0.289683
-0.25901
-0.226959
-0.195522
-0.165942
-0.138825
-0.114348
-0.0924427
-0.0729269
-0.0555836
-0.0401932
-0.0265379
-0.0144587
-0.00387677
0.00605559
0.0154003
-0.334899
-0.329298
-0.317497
-0.29748
-0.270943
-0.240547
-0.208966
-0.17811
-0.14919
-0.12277
-0.0989978
-0.0777863
-0.0589455
-0.0422538
-0.0274898
-0.0144352
-0.00293445
0.00709545
0.0165421
0.0254111
-0.314581
-0.309422
-0.297763
-0.277869
-0.251529
-0.221523
-0.19046
-0.160248
-0.13204
-0.106364
-0.0833358
-0.0628537
-0.0447194
-0.0287082
-0.0145973
-0.00216844
0.00872961
0.0181863
0.0271257
0.0354938
-0.293495
-0.288793
-0.277306
-0.257569
-0.231506
-0.201948
-0.171473
-0.141962
-0.114519
-0.0896295
-0.0673836
-0.0476644
-0.0302667
-0.0149634
-0.00153116
0.0102474
0.0205186
0.0293807
0.0377883
0.0456228
-0.27168
-0.26745
-0.256164
-0.236613
-0.210912
-0.181859
-0.152037
-0.123284
-0.0966537
-0.0725916
-0.0511636
-0.0322386
-0.0156057
-0.00103634
0.0116931
0.0227976
0.0324179
0.0406636
0.0485103
0.0557636
-0.249173
-0.245432
-0.23435
-0.21508
-0.189778
-0.161294
-0.132186
-0.104244
-0.0784711
-0.0552755
-0.0346987
-0.0165974
-0.000755724
0.0130558
0.02506
0.0354678
0.0444135
0.052021
0.0592707
0.0658755
-0.226008
-0.22279
-0.211933
-0.192986
-0.168145
-0.140291
-0.111954
-0.0848728
-0.0600003
-0.0377072
-0.0180128
-0.000762428
0.0142638
0.0272954
0.0385538
0.048244
0.0564923
0.0634411
0.0700538
0.0759258
-0.202221
-0.199582
-0.188963
-0.170377
-0.146055
-0.11889
-0.0913776
-0.0652036
-0.0412709
-0.0199139
-0.00113051
0.015244
0.0294327
0.0416646
0.0521592
0.0611125
0.068642
0.0749165
0.0808559
0.0858871
-0.177909
-0.175824
-0.165483
-0.147297
-0.123549
-0.0971287
-0.0704926
-0.0452698
-0.0223134
-0.00192319
0.0159229
0.0313989
0.0447301
0.0561454
0.0658607
0.07406
0.0808528
0.0864493
0.0916741
0.0956607
-0.153155
-0.151528
-0.141535
-0.123794
-0.100672
-0.0750495
-0.0493367
-0.0251054
-0.00315901
0.0162363
0.0331213
0.0476784
0.0601349
0.070719
0.0796428
0.087075
0.093125
0.0980595
0.102474
0.104983
-0.127945
-0.126789
-0.11717
-0.0999148
-0.0774699
-0.0526937
-0.0279483
-0.00474548
0.0161603
0.0345353
0.050438
0.0640581
0.0756248
0.0853659
0.0934888
0.100148
0.105473
0.109787
0.113214
0.113613
-0.102328
-0.101664
-0.0924361
-0.0757085
-0.0539871
-0.0301038
-0.00636622
0.0157744
0.035612
0.0529441
0.0678454
0.0805126
0.0911767
0.100065
0.10738
0.113269
0.117907
0.121642
0.123916
0.122178
-0.0763654
-0.0762027
-0.0673865
-0.0512245
-0.0302708
-0.00732287
0.01537
0.036418
0.055163
0.0714321
0.0853156
0.0970162
0.106766
0.114793
0.121294
0.126421
0.130399
0.133516
0.134514
0.133316
-0.05011
-0.0504567
-0.0420722
-0.0265125
-0.0063679
0.0156056
0.0372203
0.0571488
0.0747796
0.0899684
0.10282
0.113542
0.122369
0.129526
0.13521
0.139577
0.142881
0.145326
0.145589
0.145097
-0.0236189
-0.0244802
-0.0165471
-0.00162373
0.0176738
0.0386374
0.0591443
0.0779297
0.0944278
0.108522
0.120329
0.130063
0.137958
0.14424
0.149102
0.152708
0.15532
0.157073
0.156748
0.156335
0.00305101
0.00167196
0.00913485
0.0233905
0.0418064
0.0617283
0.0811014
0.0987235
0.114073
0.12706
0.137814
0.146552
0.15351
0.15891
0.162947
0.165789
0.167694
0.168762
0.167898
0.167272
0.029843
0.0279444
0.0349195
0.0484786
0.0659814
0.0848337
0.103051
0.119493
0.133682
0.145552
0.155245
0.162981
0.168997
0.173512
0.176721
0.178794
0.179984
0.18037
0.178963
0.177985
0.0567
0.0542812
0.0607524
0.0735885
0.0901505
0.107909
0.124951
0.1402
0.153219
0.163966
0.172593
0.179324
0.184393
0.188022
0.1904
0.1917
0.192169
0.191872
0.189904
0.188494
0.0835646
0.0806262
0.0865787
0.0986685
0.114265
0.13091
0.146762
0.160807
0.17265
0.18227
0.189828
0.195552
0.199675
0.202415
0.203961
0.204486
0.20423
0.203248
0.200703
0.198812
0.110379
0.106923
0.112344
0.123667
0.138278
0.153791
0.168442
0.181277
0.19194
0.200431
0.206921
0.211638
0.214814
0.216667
0.217383
0.217132
0.216149
0.214478
0.211345
0.208941
0.137087
0.133116
0.137993
0.148531
0.16214
0.176509
0.189952
0.201572
0.211055
0.218419
0.223842
0.227554
0.229788
0.230756
0.230642
0.229617
0.227906
0.225546
0.221819
0.218882
0.163631
0.159148
0.163472
0.173211
0.185803
0.19902
0.211249
0.221656
0.229961
0.236201
0.240562
0.243275
0.24457
0.244657
0.243718
0.241921
0.239484
0.236437
0.232114
0.22863
0.189954
0.184963
0.188728
0.197655
0.209221
0.22128
0.232296
0.241492
0.248624
0.253747
0.257053
0.258774
0.259136
0.258349
0.25659
0.254026
0.250867
0.247136
0.242217
0.238177
0.216
0.210507
0.213705
0.221813
0.232347
0.243246
0.253051
0.261043
0.267011
0.271026
0.273287
0.274023
0.273462
0.271809
0.269238
0.265913
0.262038
0.257629
0.252118
0.247517
0.241713
0.235725
0.238353
0.245636
0.255134
0.264875
0.273477
0.280274
0.285089
0.288008
0.289234
0.288998
0.287524
0.285014
0.281641
0.277564
0.27298
0.2679
0.261805
0.256641
0.267038
0.260562
0.262619
0.269073
0.277537
0.286127
0.293534
0.299149
0.302825
0.304662
0.304867
0.303673
0.301299
0.297945
0.29378
0.288961
0.283677
0.277937
0.271265
0.265538
0.291921
0.284966
0.28645
0.292077
0.299511
0.306958
0.313185
0.317634
0.320187
0.320959
0.320161
0.318023
0.314763
0.310579
0.305635
0.300086
0.294115
0.287725