/*--------------------------------*- C++ -*----------------------------------*\
  =========                 |
  \\      /  F ield         | OpenFOAM: The Open Source CFD Toolbox
   \\    /   O peration     | Website:  https://openfoam.org
    \\  /    A nd           | Version:  7
     \\/     M anipulation  |
\*---------------------------------------------------------------------------*/
FoamFile
{
    version     2.0;
    format      ascii;
    class       surfaceScalarField;
    location    "220";
    object      phi;
}
// * * * * * * * * * * * * * * * * * * * * * * * * * * * * * * * * * * * * * //

dimensions      [0 3 -1 0 0 0 0];

internalField   nonuniform List<scalar> 
14031
(
0.00112912
0.00736177
-0.00732587
0.00111576
0.00544997
-0.00543661
0.00112705
0.00270093
-0.00271222
0.00115943
-0.000381706
0.000349331
0.00120412
-0.00323363
0.00318894
0.0012499
-0.00546434
0.00541857
0.00128849
-0.00695024
0.00691165
0.00131633
-0.00776488
0.00773703
0.0013309
-0.00811054
0.00809597
0.00132841
-0.00828896
0.00829145
0.00130685
-0.00855768
0.00857924
0.00126952
-0.00890031
0.00893764
0.0012248
-0.00896692
0.00901164
0.00118271
-0.00829233
0.00833442
0.00115156
-0.00661057
0.00664172
0.00113704
-0.00401659
0.00403111
0.00114206
-0.000910135
0.000905112
0.00116561
0.00216694
-0.00219048
0.00120126
0.00473947
-0.00477513
0.00123768
0.00658638
-0.0066228
0.00126225
0.00781268
-0.00783725
0.00126668
0.00866937
-0.0086738
0.00124994
0.00929297
-0.00927624
0.00121745
0.00955449
-0.00952201
0.00117869
0.00916345
-0.00912469
0.00114417
0.00785303
-0.0078185
0.0011224
0.00557168
-0.00554992
0.00111846
0.00255585
-0.0025519
-0.000736282
0.000722344
0.00114056
0.00739823
0.00112541
0.00546511
0.001134
0.00269234
0.00116335
-0.000411055
0.00120523
-0.00327551
0.00124863
-0.00550775
0.00128526
-0.00698687
0.00131156
-0.00779118
0.00132496
-0.00812394
0.00132152
-0.00828552
0.00129906
-0.00853522
0.00126093
-0.00886218
0.00121584
-0.00892183
0.00117415
-0.00825065
0.00114432
-0.00658074
0.00113183
-0.0040041
0.00113925
-0.000917549
0.00116513
0.00214105
0.00120277
0.00470184
0.00124067
0.00654847
0.00126633
0.00778702
0.00127164
0.00866407
0.00125557
0.00930903
0.00122343
0.00958664
0.00118451
0.00920237
0.00114917
0.00788836
0.00112597
0.00559489
0.0011202
0.00256162
-0.000748418
0.00115205
0.00743527
0.00113508
0.00548209
0.0011409
0.00268651
0.00116716
-0.000437313
0.00120617
-0.00331452
0.00124717
-0.00554875
0.00128185
-0.00702155
0.00130661
-0.00781594
0.00131888
-0.00813621
0.00131454
-0.00828117
0.00129122
-0.0085119
0.00125235
-0.00882331
0.00120692
-0.00887639
0.00116563
-0.00820936
0.00113708
-0.00655219
0.00112661
-0.00399363
0.00113637
-0.000927316
0.00116456
0.00211286
0.00120415
0.00466225
0.00124353
0.00650908
0.00127031
0.00776025
0.00127653
0.00865785
0.00126118
0.00932438
0.00122942
0.0096184
0.00119036
0.00924144
0.00115422
0.00792451
0.00112955
0.00561956
0.00112193
0.00256923
-0.000758723
0.00116361
0.00747291
0.00114475
0.00550096
0.00114774
0.00268352
0.00117084
-0.000460415
0.00120694
-0.00335062
0.00124552
-0.00558733
0.00127825
-0.00705428
0.00130149
-0.00783918
0.00131265
-0.00814737
0.00130745
-0.00827598
0.00128335
-0.0084878
0.00124378
-0.00878375
0.00119803
-0.00883064
0.00115715
-0.00816848
0.00112987
-0.00652491
0.00112136
-0.00398512
0.00113344
-0.000939395
0.0011639
0.00208241
0.0012054
0.00462075
0.00124626
0.00646822
0.00127418
0.00773233
0.00128135
0.00865068
0.00126677
0.00933896
0.00123542
0.00964974
0.00119625
0.00928061
0.0011593
0.00796145
0.00113316
0.00564569
0.00112367
0.00257872
-0.00076717
0.00117522
0.00751116
0.00115442
0.00552176
0.00115452
0.00268343
0.0011744
-0.0004803
0.00120755
-0.00338376
0.0012437
-0.00562348
0.00127448
-0.00708506
0.0012962
-0.0078609
0.00130628
-0.00815745
0.00130028
-0.00826998
0.00127544
-0.00846296
0.00123524
-0.00874354
0.0011892
-0.00878461
0.00114871
-0.00812799
0.00112267
-0.00649886
0.0011161
-0.00397855
0.00113045
-0.000953745
0.00116313
0.00204972
0.00120653
0.00457735
0.00124885
0.0064259
0.00127793
0.00770326
0.00128609
0.00864252
0.00127231
0.00935274
0.00124143
0.00968062
0.00120216
0.00931988
0.00116442
0.0079992
0.0011368
0.00567331
0.00112542
0.0025901
-0.000773731
0.00118687
0.00755005
0.0011641
0.00554453
0.00116125
0.00268628
0.00117786
-0.000496909
0.001208
-0.0034139
0.00124169
-0.00565717
0.00127053
-0.00711389
0.00129076
-0.00788114
0.00129978
-0.00816647
0.00129302
-0.00826322
0.00126751
-0.00843745
0.00122671
-0.00870274
0.00118041
-0.00873831
0.00114032
-0.0080879
0.00111549
-0.00647404
0.00111081
-0.00397387
0.00112739
-0.000970321
0.00116225
0.00201486
0.00120752
0.00453209
0.0012513
0.00638211
0.00128156
0.00767301
0.00129075
0.00863332
0.00127782
0.00936567
0.00124744
0.009711
0.00120811
0.00935922
0.00116957
0.00803774
0.00114047
0.00570241
0.00112717
0.0026034
-0.00077838
0.00119856
0.00758959
0.00117378
0.00556931
0.00116793
0.00269213
0.00118121
-0.000510187
0.0012083
-0.003441
0.00123952
-0.00568839
0.00126641
-0.00714078
0.00128515
-0.00789988
0.00129315
-0.00817446
0.00128568
-0.00825575
0.00125955
-0.00841132
0.00121821
-0.00866139
0.00117167
-0.00869177
0.00113197
-0.0080482
0.00110833
-0.00645039
0.0011055
-0.00397104
0.00112425
-0.000989078
0.00116126
0.00197785
0.00120836
0.00448499
0.00125361
0.00633686
0.00128506
0.00764155
0.00129533
0.00862306
0.00128329
0.0093777
0.00125345
0.00974084
0.00121408
0.00939859
0.00117476
0.00807706
0.00114417
0.00573301
0.00112894
0.00261863
-0.000781091
0.00121028
0.00762978
0.00118346
0.00559613
0.00117455
0.00270104
0.00118445
-0.00052008
0.00120845
-0.00346501
0.00123718
-0.00571712
0.00126213
-0.00716573
0.0012794
-0.00791716
0.00128639
-0.00818145
0.00127826
-0.00824762
0.00125158
-0.00838464
0.00120974
-0.00861955
0.00116299
-0.00864502
0.00112367
-0.00800888
0.00110118
-0.00642789
0.00110016
-0.00397002
0.00112105
-0.00100997
0.00116016
0.00193874
0.00120906
0.00443609
0.00125576
0.00629016
0.00128844
0.00760888
0.00129981
0.00861169
0.00128871
0.0093888
0.00125945
0.0097701
0.00122007
0.00943797
0.00117999
0.00811714
0.00114789
0.0057651
0.00113071
0.00263581
-0.000781839
0.00122201
0.00767061
0.00119312
0.00562503
0.00118113
0.00271303
0.00118759
-0.00052654
0.00120847
-0.00348589
0.00123468
-0.00574333
0.00125769
-0.00718874
0.0012735
-0.00793297
0.00127951
-0.00818746
0.00127077
-0.00823888
0.00124359
-0.00835746
0.0012013
-0.00857727
0.00115437
-0.00859809
0.00111542
-0.00796994
0.00109404
-0.00640651
0.00109478
-0.00397075
0.00111776
-0.00103295
0.00115892
0.00189757
0.0012096
0.00438541
0.00125775
0.00624202
0.00129167
0.00757495
0.00130419
0.00859917
0.00129408
0.00939891
0.00126545
0.00979874
0.00122609
0.00947733
0.00118524
0.00815799
0.00115165
0.00579869
0.00113251
0.00265495
-0.0007806
0.00123376
0.0077121
0.00120277
0.00565601
0.00118765
0.00272816
0.00119063
-0.000529519
0.00120834
-0.0035036
0.00123202
-0.00576701
0.0012531
-0.00720981
0.00126747
-0.00794734
0.00127252
-0.00819251
0.0012632
-0.00822956
0.00123558
-0.00832984
0.00119289
-0.00853458
0.0011458
-0.00855099
0.00110722
-0.00793137
0.00108692
-0.00638622
0.00108937
-0.0039732
0.00111438
-0.00105796
0.00115756
0.00185439
0.00120999
0.00433298
0.00125958
0.00619242
0.00129477
0.00753976
0.00130848
0.00858546
0.00129939
0.00940799
0.00127143
0.00982671
0.00123212
0.00951664
0.00119053
0.00819957
0.00115544
0.00583379
0.00113432
0.00267608
-0.000777351
0.00124549
0.00775423
0.00121241
0.0056891
0.00119412
0.00274645
0.00119357
-0.000528975
0.00120808
-0.0035181
0.00122921
-0.00578815
0.00124835
-0.00722895
0.00126129
-0.00796028
0.00126541
-0.00819663
0.00125556
-0.00821971
0.00122756
-0.00830183
0.00118453
-0.00849155
0.00113729
-0.00850376
0.00109907
-0.00789315
0.00107982
-0.00636696
0.00108392
-0.00397731
0.00111092
-0.00108495
0.00115607
0.00180925
0.00121021
0.00427884
0.00126124
0.00614139
0.00129772
0.00750328
0.00131265
0.00857053
0.00130464
0.009416
0.00127738
0.00985397
0.00123816
0.00955586
0.00119585
0.00824188
0.00115926
0.00587038
0.00113615
0.00269919
-0.000772069
0.00125722
0.007797
0.00122201
0.0057243
0.00120053
0.00276793
0.00119642
-0.000524868
0.00120768
-0.00352936
0.00122625
-0.00580672
0.00124347
-0.00724617
0.00125498
-0.0079718
0.00125819
-0.00819984
0.00124785
-0.00820937
0.00121952
-0.00827351
0.00117619
-0.00844822
0.00112884
-0.00845641
0.00109097
-0.00785528
0.00107272
-0.00634871
0.00107844
-0.00398303
0.00110736
-0.00111388
0.00115443
0.00176218
0.00121026
0.00422301
0.00126273
0.00608893
0.00130052
0.00746549
0.00131671
0.00855435
0.00130982
0.00942289
0.00128332
0.00988047
0.00124421
0.00959496
0.0012012
0.00828489
0.00116312
0.00590846
0.001138
0.0027243
-0.000764733
0.00126892
0.00784037
0.00123159
0.00576162
0.00120689
0.00279264
0.00119918
-0.000517162
0.00120717
-0.00353735
0.00122315
-0.0058227
0.00123844
-0.00726146
0.00124855
-0.0079819
0.00125086
-0.00820215
0.00124008
-0.00819858
0.00121148
-0.00824491
0.0011679
-0.00840464
0.00112045
-0.00840896
0.00108292
-0.00781774
0.00106563
-0.00633142
0.0010729
-0.0039903
0.00110371
-0.00114468
0.00115265
0.00171324
0.00121014
0.00416551
0.00126404
0.00603503
0.00130316
0.00742637
0.00132064
0.00853686
0.00131492
0.00942861
0.00128922
0.00990617
0.00125027
0.00963392
0.00120657
0.00832859
0.001167
0.00594803
0.00113988
0.00275142
-0.000755322
0.00128058
0.00788434
0.00124113
0.00580107
0.00121319
0.00282058
0.00120185
-0.000505826
0.00120653
-0.00354202
0.00121991
-0.00583608
0.00123327
-0.00727482
0.00124199
-0.00799062
0.00124342
-0.00820359
0.00123223
-0.00818739
0.00120343
-0.0082161
0.00115965
-0.00836086
0.00111212
-0.00836144
0.00107492
-0.00778054
0.00105856
-0.00631506
0.00106733
-0.00399907
0.00109995
-0.00117731
0.00115072
0.00166247
0.00120984
0.00410639
0.00126516
0.0059797
0.00130563
0.0073859
0.00132445
0.00851804
0.00131994
0.00943312
0.00129508
0.00993103
0.00125632
0.00967268
0.00121197
0.00837294
0.00117092
0.00598908
0.00114178
0.00278056
-0.00074382
0.00129219
0.00792888
0.00125062
0.00584263
0.00121943
0.00285177
0.00120443
-0.00049083
0.00120577
-0.00354336
0.00121653
-0.00584685
0.00122797
-0.00728627
0.0012353
-0.00799795
0.00123589
-0.00820417
0.00122432
-0.00817583
0.00119536
-0.00818714
0.00115143
-0.00831693
0.00110386
-0.00831387
0.00106697
-0.00774365
0.00105149
-0.00629958
0.0010617
-0.00400928
0.00109608
-0.00121169
0.00114863
0.00160993
0.00120935
0.00404568
0.0012661
0.00592295
0.00130793
0.00734407
0.00132813
0.00849784
0.00132487
0.00943637
0.0013009
0.009955
0.00126237
0.00971121
0.00121738
0.00841793
0.00117486
0.0060316
0.00114371
0.00281171
-0.000730207
0.00130373
0.00797395
0.00126007
0.00588629
0.00122561
0.00288623
0.00120693
-0.00047215
0.00120489
-0.00354132
0.00121302
-0.00585497
0.00122254
-0.0072958
0.0012285
-0.0080039
0.00122825
-0.00820391
0.00121635
-0.00816394
0.00118729
-0.00815808
0.00114325
-0.00827289
0.00109565
-0.00826627
0.00105906
-0.00770706
0.00104442
-0.00628494
0.00105602
-0.00402088
0.00109211
-0.00124779
0.00114638
0.00155565
0.00120867
0.00398339
0.00126683
0.00586479
0.00131006
0.00730084
0.00133166
0.00847625
0.0013297
0.00943832
0.00130667
0.00997803
0.00126841
0.00974948
0.00122281
0.00846353
0.00117883
0.00607558
0.00114566
0.00284489
-0.000714467
0.0013152
0.00801952
0.00126945
0.00593205
0.00123172
0.00292396
0.00120934
-0.000449766
0.0012039
-0.00353588
0.00120937
-0.00586044
0.00121698
-0.00730341
0.00122158
-0.0080085
0.00122051
-0.00820283
0.00120831
-0.00815174
0.0011792
-0.00812897
0.00113511
-0.00822879
0.0010875
-0.00821866
0.0010512
-0.00767076
0.00103736
-0.00627109
0.00105028
-0.00403379
0.00108801
-0.00128552
0.00114397
0.0014997
0.00120779
0.00391956
0.00126737
0.00580521
0.001312
0.00725622
0.00133504
0.00845321
0.00133443
0.00943892
0.00131238
0.0100001
0.00127442
0.00978744
0.00122825
0.0085097
0.00118283
0.00612099
0.00114764
0.00288008
-0.000696588
0.00132659
0.00806556
0.00127876
0.00597987
0.00123777
0.00296495
0.00121166
-0.000423661
0.00120281
-0.00352703
0.0012056
-0.00586324
0.0012113
-0.00730911
0.00121455
-0.00801176
0.00121267
-0.00820095
0.00120021
-0.00813928
0.00117111
-0.00809988
0.001127
-0.00818469
0.00107941
-0.00817106
0.00104339
-0.00763475
0.0010303
-0.00625801
0.00104448
-0.00404797
0.0010838
-0.00132484
0.00114139
0.00144211
0.00120672
0.00385423
0.0012677
0.00574423
0.00131375
0.00721017
0.00133826
0.00842869
0.00133905
0.00943814
0.00131803
0.0100211
0.00128042
0.00982505
0.00123369
0.00855643
0.00118686
0.00616783
0.00114964
0.00291729
-0.000676555
0.00133786
0.00811201
0.001288
0.00602974
0.00124374
0.00300921
0.0012139
-0.000393822
0.0012016
-0.00351472
0.00120171
-0.00586334
0.00120549
-0.00731289
0.00120741
-0.00801368
0.00120473
-0.00819827
0.00119203
-0.00812658
0.00116299
-0.00807084
0.00111893
-0.00814062
0.00107137
-0.0081235
0.00103562
-0.007599
0.00102325
-0.00624563
0.00103863
-0.00406335
0.00107947
-0.00136568
0.00113863
0.00138295
0.00120544
0.00378743
0.00126782
0.00568185
0.0013153
0.00716268
0.00134132
0.00840267
0.00134354
0.00943592
0.0013236
0.010041
0.00128638
0.00986227
0.00123914
0.00860367
0.0011909
0.00621607
0.00115168
0.00295652
-0.000654357
0.00134902
0.00815882
0.00129715
0.00608162
0.00124964
0.00305671
0.00121606
-0.000360241
0.00120029
-0.00349896
0.00119769
-0.00586074
0.00119956
-0.00731476
0.00120016
-0.00801427
0.0011967
-0.00819481
0.00118379
-0.00811367
0.00115486
-0.00804191
0.00111089
-0.00809665
0.00106338
-0.00807599
0.0010279
-0.00756352
0.00101619
-0.00623393
0.00103271
-0.00407987
0.00107501
-0.00140798
0.0011357
0.00132226
0.00120395
0.00371917
0.00126772
0.00561809
0.00131665
0.00711375
0.00134421
0.00837512
0.00134791
0.00943222
0.00132909
0.0100599
0.00129231
0.00989905
0.00124459
0.00865138
0.00119497
0.0062657
0.00115373
0.00299775
-0.000629986
0.00136005
0.00820595
0.0013062
0.00613546
0.00125546
0.00310746
0.00121813
-0.000322914
0.00119888
-0.00347971
0.00119356
-0.00585542
0.00119352
-0.00731472
0.0011928
-0.00801356
0.00118858
-0.00819059
0.00117548
-0.00810058
0.00114671
-0.00801314
0.00110288
-0.00805282
0.00105545
-0.00802856
0.00102021
-0.00752828
0.00100913
-0.00622285
0.00102672
-0.00409746
0.00107042
-0.00145167
0.00113258
0.00126009
0.00120224
0.00364951
0.00126739
0.00555294
0.00131779
0.00706335
0.00134692
0.00834599
0.00135214
0.009427
0.00133449
0.0100775
0.00129819
0.00993535
0.00125003
0.00869954
0.00119905
0.00631668
0.00115581
0.00304099
-0.000603432
0.00137093
0.00825333
0.00131516
0.00619124
0.0012612
0.00316142
0.00122012
-0.00028184
0.00119737
-0.00345696
0.00118931
-0.00584736
0.00118735
-0.00731276
0.00118534
-0.00801154
0.00118036
-0.00818561
0.00116711
-0.00808732
0.00113854
-0.00798458
0.0010949
-0.00800918
0.00104756
-0.00798122
0.00101256
-0.00749327
0.00100207
-0.00621236
0.00102067
-0.00411607
0.00106569
-0.00149669
0.00112928
0.0011965
0.00120032
0.00357847
0.00126684
0.00548642
0.00131871
0.00701148
0.00134944
0.00831527
0.00135622
0.00942021
0.0013398
0.0100939
0.00130402
0.00997113
0.00125546
0.00874811
0.00120314
0.006369
0.00115792
0.00308621
-0.000574691
0.00138165
0.0083009
0.00132399
0.00624889
0.00126684
0.00321857
0.00122203
-0.000237022
0.00119576
-0.00343069
0.00118495
-0.00583654
0.00118107
-0.00730889
0.00117777
-0.00800824
0.00117205
-0.00817989
0.00115866
-0.00807393
0.00113035
-0.00795627
0.00108694
-0.00796577
0.00103972
-0.007934
0.00100494
-0.00745849
0.000995001
-0.00620242
0.00101455
-0.00413562
0.00106083
-0.00154297
0.00112579
0.00113155
0.00119817
0.00350609
0.00126605
0.00541854
0.00131941
0.00695812
0.00135176
0.00828292
0.00136015
0.00941183
0.00134499
0.0101091
0.00130979
0.0100063
0.00126087
0.00879704
0.00120725
0.00642261
0.00116005
0.00313341
-0.000543758
0.00139219
0.00834859
0.00133271
0.00630837
0.0012724
0.00327888
0.00122385
-0.00018847
0.00119406
-0.00340091
0.00118047
-0.00582295
0.00117468
-0.0073031
0.0011701
-0.00800366
0.00116365
-0.00817344
0.00115013
-0.00806041
0.00112212
-0.00792826
0.00107901
-0.00792266
0.00103193
-0.00788692
0.000997355
-0.00742392
0.000987923
-0.00619299
0.00100836
-0.00415606
0.00105583
-0.00159044
0.0011221
0.00106528
0.0011958
0.00343239
0.00126503
0.00534931
0.00131988
0.00690326
0.00135389
0.00824891
0.00136392
0.0094018
0.00135007
0.0101229
0.0013155
0.0100409
0.00126625
0.00884629
0.00121136
0.00647751
0.0011622
0.00318257
-0.000510631
0.00140254
0.00839633
0.00134129
0.00636962
0.00127786
0.00334231
0.00122558
-0.000136195
0.00119226
-0.00336759
0.00117589
-0.00580657
0.00116818
-0.00729539
0.00116233
-0.00799781
0.00115515
-0.00816626
0.00114154
-0.0080468
0.00111386
-0.00790058
0.00107109
-0.00787988
0.00102417
-0.00784
0.000989797
-0.00738954
0.000980835
-0.00618403
0.0010021
-0.00417732
0.00105069
-0.00163903
0.00111822
0.000997753
0.00119319
0.00335741
0.00126376
0.00527874
0.00132012
0.00684691
0.0013558
0.00821323
0.00136751
0.00939009
0.00135503
0.0101354
0.00132113
0.0100748
0.0012716
0.00889581
0.00121547
0.00653364
0.00116437
0.00323367
-0.000475311
0.00141268
0.00844404
0.00134973
0.00643258
0.00128321
0.00340883
0.00122723
-8.02127e-05
0.00119038
-0.00333073
0.00117119
-0.00578739
0.00116156
-0.00728576
0.00115446
-0.0079907
0.00114657
-0.00815837
0.00113286
-0.00803309
0.00110557
-0.00787329
0.00106318
-0.0078375
0.00101645
-0.00779326
0.000982263
-0.00735536
0.000973734
-0.0061755
0.000995762
-0.00419935
0.00104541
-0.00168868
0.00111414
0.000929026
0.00119036
0.0032812
0.00126224
0.00520685
0.00132011
0.00678904
0.00135749
0.00817585
0.00137092
0.00937666
0.00135986
0.0101465
0.00132668
0.010108
0.00127692
0.00894557
0.00121958
0.00659098
0.00116655
0.0032867
-0.000437798
0.00142261
0.00849165
0.00135802
0.00649717
0.00128846
0.00347838
0.0012288
-2.05445e-05
0.0011884
-0.00329033
0.0011664
-0.00576539
0.00115484
-0.0072742
0.00114648
-0.00798235
0.00113789
-0.00814978
0.00112411
-0.00801932
0.00109723
-0.00784641
0.00105529
-0.00779555
0.00100876
-0.00774674
0.00097475
-0.00732134
0.000966617
-0.00616737
0.000989351
-0.00422208
0.00103999
-0.00173932
0.00110986
0.000859156
0.00118728
0.00320378
0.00126048
0.00513366
0.00131986
0.00672966
0.00135896
0.00813674
0.00137415
0.00936147
0.00136454
0.0101561
0.00133213
0.0101404
0.00128219
0.00899551
0.00122368
0.0066495
0.00116875
0.00334163
-0.000398096
0.00143229
0.00853906
0.00136614
0.00656331
0.0012936
0.00355092
0.00123027
4.27854e-05
0.00118633
-0.00324639
0.0011615
-0.00574056
0.001148
-0.00726071
0.00113841
-0.00797275
0.00112912
-0.00814049
0.00111528
-0.00800548
0.00108885
-0.00781998
0.0010474
-0.0077541
0.0010011
-0.00770045
0.000967255
-0.00728749
0.000959481
-0.0061596
0.000982864
-0.00424547
0.00103442
-0.00179088
0.00110538
0.0007882
0.00118396
0.0031252
0.00125845
0.00505917
0.00131935
0.00666877
0.00136019
0.0080959
0.00137717
0.00934449
0.00136907
0.0101642
0.00133749
0.010172
0.00128742
0.00904558
0.00122777
0.00670914
0.00117096
0.00339844
-0.000356213
0.00144172
0.00858619
0.00137409
0.00663094
0.00129862
0.0036264
0.00123166
0.000109749
0.00118417
-0.00319891
0.0011565
-0.00571288
0.00114106
-0.00724528
0.00113024
-0.00796193
0.00112026
-0.00813051
0.00110637
-0.00799158
0.00108042
-0.00779403
0.0010395
-0.00771318
0.000993474
-0.00765442
0.000959774
-0.00725379
0.000952324
-0.00615215
0.0009763
-0.00426944
0.00102871
-0.00184329
0.00110069
0.000716219
0.0011804
0.00304549
0.00125616
0.00498341
0.00131858
0.00660635
0.00136119
0.00805329
0.00137999
0.00932568
0.00137344
0.0101707
0.00134274
0.0102027
0.00129258
0.00909574
0.00123184
0.00676987
0.00117318
0.0034571
-0.000312155
0.00145089
0.00863294
0.00138186
0.00669996
0.00130352
0.00370474
0.00123296
0.000180313
0.00118193
-0.00314788
0.00115139
-0.00568234
0.00113401
-0.0072279
0.00112197
-0.00794988
0.00111131
-0.00811986
0.00109737
-0.00797764
0.00107193
-0.0077686
0.0010316
-0.00767285
0.000985865
-0.00760868
0.000952302
-0.00722023
0.000945142
-0.00614498
0.000969659
-0.00429396
0.00102285
-0.00189649
0.0010958
0.000643272
0.0011766
0.00296469
0.00125361
0.00490639
0.00131754
0.00654243
0.00136193
0.0080089
0.0013826
0.00930502
0.00137764
0.0101757
0.00134787
0.0102324
0.00129768
0.00914593
0.0012359
0.00683166
0.00117541
0.00351758
-0.000265932
0.00145977
0.00867923
0.00138944
0.00677029
0.00130829
0.00378588
0.00123417
0.000254442
0.00117961
-0.00309333
0.00114619
-0.00564892
0.00112686
-0.00720856
0.0011136
-0.00793662
0.00110227
-0.00810853
0.00108829
-0.00796366
0.00106339
-0.0077437
0.00102369
-0.00763315
0.000978274
-0.00756326
0.000944838
-0.0071868
0.000937931
-0.00613808
0.000962938
-0.00431897
0.00101685
-0.0019504
0.0010907
0.000569421
0.00117255
0.00288285
0.00125079
0.00482815
0.00131623
0.00647699
0.00136242
0.00796272
0.00138497
0.00928246
0.00138165
0.010179
0.00135287
0.0102612
0.00130271
0.0091961
0.00123992
0.00689444
0.00117764
0.00357986
-0.000217557
0.00146835
0.00139681
0.00684183
0.00131294
0.00386976
0.00123528
0.000332093
0.0011772
-0.00303525
0.0011409
-0.00561262
0.0011196
-0.00718726
0.00110513
-0.00792215
0.00109313
-0.00809654
0.00107911
-0.00794964
0.00105478
-0.00771937
0.00101577
-0.00759414
0.000970698
-0.00751819
0.000937377
-0.00715347
0.000930688
-0.00613139
0.000956138
-0.00434442
0.00101071
-0.00200497
0.0010854
0.000494727
0.00116825
0.0028
0.0012477
0.00474869
0.00131465
0.00641004
0.00136264
0.00791473
0.00138711
0.00925798
0.00138548
0.0101806
0.00135774
0.010289
0.00130765
0.00924619
0.00124391
0.00695819
0.00117987
0.0036439
-0.000167044
0.00140397
0.00691448
0.00131744
0.00395629
0.00123632
0.00041322
0.00117471
-0.00297365
0.0011355
-0.0055734
0.00111223
-0.00716399
0.00109656
-0.00790648
0.0010839
-0.00808388
0.00106985
-0.00793558
0.0010461
-0.00769561
0.00100782
-0.00755586
0.000963133
-0.00747351
0.000929915
-0.00712026
0.00092341
-0.00612488
0.000949256
-0.00437026
0.00100442
-0.00206014
0.0010799
0.000419251
0.0011637
0.0027162
0.00124434
0.00466805
0.00131279
0.00634159
0.00136259
0.00786493
0.00138901
0.00923156
0.00138911
0.0101806
0.00136247
0.0103156
0.00131251
0.00929614
0.00124786
0.00702284
0.0011821
0.00370967
-0.00011441
0.00141091
0.00698814
0.00132181
0.0040454
0.00123725
0.000497772
0.00117215
-0.00290854
0.00113002
-0.00553128
0.00110476
-0.00713872
0.00108789
-0.00788961
0.00107458
-0.00807058
0.0010605
-0.0079215
0.00103734
-0.00767246
0.000999835
-0.00751835
0.000955573
-0.00742925
0.00092245
-0.00708713
0.000916092
-0.00611853
0.000942292
-0.00439647
0.000997995
-0.00211584
0.00107419
0.000343055
0.0011589
0.00263149
0.0012407
0.00458625
0.00131064
0.00627165
0.00136226
0.0078133
0.00139066
0.00920316
0.00139253
0.0101787
0.00136704
0.0103411
0.00131728
0.0093459
0.00125177
0.00708834
0.00118432
0.00377712
-5.96714e-05
0.00141762
0.00706269
0.00132603
0.00413699
0.0012381
0.0005857
0.0011695
-0.00283994
0.00112444
-0.00548621
0.00109718
-0.00711146
0.00107912
-0.00787154
0.00106517
-0.00805664
0.00105105
-0.00790738
0.00102851
-0.00764992
0.00099182
-0.00748166
0.000948015
-0.00738544
0.000914979
-0.0070541
0.00090873
-0.00611228
0.000935242
-0.00442298
0.000991429
-0.00217203
0.00106828
0.000266201
0.00115386
0.00254592
0.00123678
0.00450333
0.0013082
0.00620023
0.00136165
0.00775985
0.00139205
0.00917276
0.00139574
0.010175
0.00137145
0.0103654
0.00132194
0.00939541
0.00125563
0.00715465
0.00118652
0.00384623
-2.84995e-06
0.00142408
0.00713802
0.0013301
0.00423097
0.00123886
0.00067694
0.00116678
-0.00276786
0.00111877
-0.0054382
0.0010895
-0.00708218
0.00107025
-0.00785229
0.00105566
-0.00804205
0.00104151
-0.00789322
0.0010196
-0.00762801
0.000983762
-0.00744583
0.000940455
-0.00734213
0.000907499
-0.00702114
0.000901321
-0.0061061
0.000928106
-0.00444976
0.000984726
-0.00222865
0.00106218
0.000188749
0.00114856
0.00245953
0.00123258
0.00441931
0.00130547
0.00612734
0.00136075
0.00770456
0.00139317
0.00914034
0.00139871
0.0101695
0.00137568
0.0103884
0.00132649
0.00944461
0.00125943
0.00722171
0.00118872
0.00391694
5.60325e-05
0.0014303
0.00721402
0.00133402
0.00432724
0.00123953
0.000771432
0.00116399
-0.00269232
0.00111302
-0.00538723
0.00108171
-0.00705087
0.00106127
-0.00783186
0.00104606
-0.00802684
0.00103187
-0.00787903
0.00101059
-0.00760674
0.000975656
-0.00741089
0.000932886
-0.00729936
0.000900007
-0.00698826
0.000893861
-0.00609995
0.000920879
-0.00447678
0.000977887
-0.00228566
0.00105588
0.000110755
0.00114302
0.00237239
0.0012281
0.00433423
0.00130244
0.00605301
0.00135956
0.00764744
0.00139401
0.00910589
0.00140145
0.010162
0.00137974
0.0104101
0.00133092
0.00949343
0.00126317
0.00728946
0.00119089
0.00398921
0.000116952
0.00143625
0.00729056
0.00133779
0.0044257
0.00124012
0.000869106
0.00116113
-0.00261334
0.00110717
-0.00533327
0.00107382
-0.00701752
0.0010522
-0.00781024
0.00103636
-0.008011
0.00102213
-0.00786479
0.0010015
-0.00758611
0.000967494
-0.00737689
0.000925304
-0.00725717
0.0008925
-0.00695546
0.000886347
-0.0060938
0.000913559
-0.00450399
0.000970915
-0.00234301
0.00104939
3.2276e-05
0.00113724
0.00228454
0.00122335
0.00424813
0.00129911
0.00597725
0.00135806
0.00758849
0.00139457
0.00906937
0.00140394
0.0101527
0.00138361
0.0104305
0.00133522
0.00954182
0.00126683
0.00735785
0.00119304
0.004063
0.000179882
0.00144193
0.0073675
0.00134141
0.00452622
0.00124062
0.000969893
0.0011582
-0.00253092
0.00110125
-0.00527632
0.00106583
-0.0069821
0.00104302
-0.00778743
0.00102656
-0.00799454
0.00101228
-0.00785051
0.000992303
-0.00756613
0.000959271
-0.00734385
0.000917704
-0.00721561
0.000884978
-0.00692273
0.000878775
-0.0060876
0.000906143
-0.00453136
0.000963811
-0.00240068
0.00104273
-4.66381e-05
0.00113123
0.00219604
0.00121831
0.00416105
0.00129547
0.00590009
0.00135625
0.00752771
0.00139484
0.00903078
0.00140618
0.0101413
0.00138727
0.0104494
0.00133938
0.00958971
0.00127043
0.0074268
0.00119517
0.00413826
0.000244796
0.00144734
0.00744472
0.00134487
0.00462869
0.00124104
0.00107372
0.00115521
-0.00244508
0.00109523
-0.00521635
0.00105773
-0.0069446
0.00103374
-0.00776344
0.00101667
-0.00797747
0.00100234
-0.00783618
0.00098301
-0.0075468
0.00095098
-0.00731182
0.00091008
-0.00717471
0.000877436
-0.00689009
0.000871143
-0.0060813
0.000898626
-0.00455884
0.000956578
-0.00245863
0.00103588
-0.000125938
0.00112498
0.00210694
0.001213
0.00407303
0.00129154
0.00582155
0.00135413
0.00746512
0.00139481
0.0089901
0.00140816
0.010128
0.00139073
0.0104668
0.00134341
0.00963703
0.00127394
0.00749626
0.00119727
0.00421493
0.000311662
0.00145246
0.00752207
0.00134817
0.00473298
0.0012414
0.00118049
0.00115215
-0.00235584
0.00108914
-0.00515334
0.00104953
-0.00690499
0.00102436
-0.00773826
0.00100668
-0.0079598
0.000992297
-0.0078218
0.000973612
-0.00752811
0.000942613
-0.00728083
0.000902427
-0.00713452
0.000869874
-0.00685754
0.000863448
-0.00607488
0.000891004
-0.0045864
0.000949212
-0.00251684
0.00102886
-0.000205587
0.00111851
0.00201729
0.00120742
0.00398412
0.0012873
0.00574167
0.0013517
0.00740072
0.00139447
0.00894733
0.00140986
0.0101126
0.00139397
0.0104827
0.00134728
0.00968373
0.00127737
0.00756617
0.00119933
0.00429297
0.000380453
0.00145728
0.0075994
0.00135133
0.00483893
0.00124168
0.00129014
0.00114905
-0.0022632
0.00108297
-0.00508726
0.00104123
-0.00686325
0.00101486
-0.00771189
0.000996593
-0.00794153
0.000982147
-0.00780735
0.000964105
-0.00751007
0.000934165
-0.00725089
0.000894738
-0.00709509
0.000862289
-0.00682509
0.000855689
-0.00606828
0.000883272
-0.00461398
0.000941714
-0.00257528
0.00102168
-0.000285555
0.00111182
0.00192715
0.00120157
0.00389437
0.00128276
0.00566048
0.00134895
0.00733453
0.00139383
0.00890245
0.00141129
0.0100951
0.00139699
0.010497
0.00135099
0.00972973
0.00128071
0.00763645
0.00120136
0.00437232
0.000451134
0.00146181
0.00767656
0.00135435
0.0049464
0.00124191
0.00140257
0.00114589
-0.00216717
0.00107672
-0.00501809
0.00103283
-0.00681936
0.00100527
-0.00768433
0.000986404
-0.00792267
0.00097189
-0.00779284
0.000954486
-0.00749266
0.00092563
-0.00722203
0.000887008
-0.00705647
0.000854679
-0.00679276
0.000847865
-0.00606147
0.000875426
-0.00464154
0.000934082
-0.00263394
0.00101435
-0.000365822
0.00110494
0.00183656
0.00119547
0.00380384
0.00127793
0.00557803
0.00134588
0.00726658
0.00139286
0.00885547
0.00141243
0.0100755
0.00139977
0.0105096
0.00135453
0.00977496
0.00128395
0.00770703
0.00120335
0.00445292
0.000523673
0.00146605
0.00775338
0.00135724
0.00505521
0.00124211
0.0015177
0.00114269
-0.00206775
0.00107039
-0.0049458
0.00102432
-0.00677329
0.000995562
-0.00765557
0.000976114
-0.00790322
0.000961527
-0.00777825
0.000944752
-0.00747589
0.000917001
-0.00719428
0.00087923
-0.0070187
0.000847042
-0.00676057
0.000839975
-0.0060544
0.000867462
-0.00466903
0.000926312
-0.00269279
0.00100686
-0.000446374
0.00109786
0.00174556
0.00118913
0.00371257
0.0012728
0.00549435
0.00134249
0.00719689
0.00139158
0.00880638
0.00141327
0.0100538
0.00140231
0.0105206
0.0013579
0.00981937
0.00128709
0.00777784
0.0012053
0.00453471
0.000598038
0.00146999
0.00782967
0.00136002
0.00516518
0.00124227
0.00163545
0.00113944
-0.00196492
0.00106399
-0.00487035
0.00101572
-0.00672502
0.000985756
-0.00762561
0.000965728
-0.00788319
0.000951061
-0.00776358
0.000934903
-0.00745973
0.000908275
-0.00716765
0.000871401
-0.00698183
0.000839377
-0.00672855
0.000832022
-0.00604704
0.000859377
-0.00469638
0.000918404
-0.00275182
0.000999241
-0.000527211
0.00109062
0.00165418
0.00118257
0.00362062
0.0012674
0.00540952
0.00133879
0.0071255
0.00138997
0.0087552
0.00141382
0.01003
0.0014046
0.0105298
0.0013611
0.00986287
0.00129013
0.00784882
0.0012072
0.00461764
0.000674196
0.00147366
0.00790523
0.00136272
0.00527612
0.00124243
0.00175575
0.00113616
-0.00185866
0.00105753
-0.00479171
0.00100702
-0.00667452
0.000975849
-0.00759443
0.000955247
-0.00786259
0.000940491
-0.00774883
0.000924936
-0.00744418
0.000899445
-0.00714216
0.000863513
-0.00694589
0.000831681
-0.00669671
0.000824005
-0.00603937
0.000851166
-0.00472355
0.000910349
-0.002811
0.000991484
-0.000608347
0.00108324
0.00156243
0.00117581
0.00352805
0.00126175
0.00532358
0.00133479
0.00705245
0.00138806
0.00870194
0.00141407