/*--------------------------------*- C++ -*----------------------------------*\
  =========                 |
  \\      /  F ield         | OpenFOAM: The Open Source CFD Toolbox
   \\    /   O peration     | Website:  https://openfoam.org
    \\  /    A nd           | Version:  7
     \\/     M anipulation  |
\*---------------------------------------------------------------------------*/
FoamFile
{
    version     2.0;
    format      ascii;
    class       volScalarField;
    location    "20";
    object      p;
}
// * * * * * * * * * * * * * * * * * * * * * * * * * * * * * * * * * * * * * //

dimensions      [0 2 -2 0 0 0 0];

internalField   nonuniform List<scalar> 
4575
(
-0.384657
-0.37763
-0.372219
-0.390422
-0.383046
-0.377419
-0.371468
-0.365183
-0.396227
-0.388508
-0.382669
-0.376491
-0.36993
-0.362953
-0.355376
-0.347044
-0.402049
-0.393993
-0.387947
-0.381537
-0.374686
-0.367331
-0.35927
-0.350344
-0.340469
-0.32966
-0.318041
-0.305818
-0.407857
-0.399476
-0.393225
-0.386579
-0.379421
-0.37166
-0.363074
-0.35351
-0.342908
-0.331325
-0.31893
-0.305972
-0.292735
-0.279488
-0.266457
-0.413623
-0.404927
-0.398477
-0.391589
-0.384105
-0.375905
-0.366756
-0.356511
-0.345144
-0.332759
-0.319575
-0.305882
-0.29199
-0.278179
-0.264675
-0.251636
-0.239162
-0.227296
-0.216055
-0.419313
-0.410316
-0.403671
-0.396535
-0.388704
-0.380034
-0.370279
-0.359312
-0.347146
-0.333937
-0.319955
-0.30553
-0.290995
-0.276638
-0.262678
-0.249264
-0.236482
-0.224363
-0.212922
-0.202211
-0.424893
-0.415611
-0.408776
-0.401384
-0.393184
-0.384008
-0.373608
-0.36188
-0.348885
-0.334835
-0.320051
-0.304902
-0.289739
-0.274853
-0.260457
-0.246686
-0.233612
-0.221253
-0.209623
-0.198723
-0.430327
-0.420777
-0.413755
-0.406098
-0.397506
-0.387791
-0.376705
-0.36418
-0.35033
-0.335427
-0.319844
-0.303983
-0.288211
-0.272816
-0.258004
-0.243893
-0.230544
-0.217959
-0.206153
-0.195072
-0.435576
-0.425777
-0.418572
-0.41064
-0.401633
-0.391342
-0.379533
-0.366178
-0.351453
-0.335691
-0.319315
-0.302758
-0.286397
-0.270517
-0.255309
-0.240878
-0.22727
-0.214474
-0.202504
-0.191255
-0.440601
-0.430573
-0.423189
-0.414972
-0.405523
-0.394622
-0.382054
-0.367842
-0.352226
-0.335604
-0.318447
-0.301214
-0.284287
-0.267945
-0.252364
-0.237633
-0.223783
-0.210792
-0.19867
-0.187265
-0.445361
-0.435125
-0.427566
-0.419051
-0.409135
-0.397591
-0.384232
-0.369138
-0.352622
-0.335145
-0.317224
-0.299338
-0.281871
-0.265092
-0.24916
-0.23415
-0.220075
-0.206906
-0.194647
-0.183097
-0.449813
-0.439392
-0.431661
-0.422836
-0.412427
-0.400208
-0.386029
-0.370036
-0.352615
-0.334294
-0.315629
-0.297117
-0.279138
-0.261948
-0.245689
-0.230421
-0.216141
-0.20281
-0.190429
-0.178749
-0.453915
-0.443333
-0.435431
-0.426283
-0.415357
-0.402433
-0.387409
-0.370504
-0.352182
-0.333033
-0.313649
-0.294538
-0.276077
-0.258504
-0.241944
-0.226439
-0.211973
-0.198498
-0.18601
-0.174214
-0.457622
-0.446904
-0.438834
-0.42935
-0.417882
-0.404227
-0.388337
-0.370514
-0.3513
-0.331343
-0.311269
-0.291592
-0.272679
-0.254752
-0.237916
-0.222196
-0.207565
-0.193966
-0.181385
-0.169489
-0.460892
-0.450062
-0.441827
-0.431994
-0.419961
-0.405551
-0.388781
-0.370039
-0.349947
-0.329209
-0.308477
-0.288268
-0.268936
-0.250683
-0.233598
-0.217688
-0.202912
-0.189206
-0.176551
-0.16457
-0.46368
-0.452765
-0.444366
-0.43417
-0.421552
-0.406368
-0.388709
-0.369054
-0.348103
-0.326614
-0.30526
-0.284555
-0.264838
-0.246291
-0.228983
-0.212906
-0.198007
-0.184216
-0.171502
-0.159455
-0.465944
-0.45497
-0.446408
-0.435838
-0.422616
-0.406642
-0.388091
-0.367534
-0.345751
-0.323546
-0.301607
-0.280444
-0.260377
-0.241568
-0.224065
-0.207846
-0.192845
-0.178989
-0.166236
-0.154139
-0.467642
-0.456634
-0.44791
-0.436956
-0.423114
-0.406339
-0.386899
-0.365458
-0.342874
-0.319991
-0.297509
-0.275928
-0.255548
-0.236508
-0.218838
-0.202502
-0.187423
-0.173523
-0.160749
-0.148622
-0.468731
-0.457717
-0.448833
-0.437483
-0.423009
-0.405429
-0.385107
-0.362807
-0.339457
-0.315938
-0.292957
-0.270999
-0.250342
-0.231104
-0.213296
-0.196869
-0.181735
-0.167812
-0.155037
-0.142899
-0.469173
-0.458178
-0.449135
-0.437381
-0.422266
-0.403881
-0.382692
-0.359563
-0.335488
-0.311379
-0.287944
-0.265651
-0.244755
-0.225352
-0.207436
-0.190944
-0.175779
-0.161855
-0.149099
-0.136968
-0.468929
-0.45798
-0.448779
-0.436615
-0.420854
-0.401668
-0.379634
-0.35571
-0.330954
-0.306303
-0.282461
-0.259877
-0.23878
-0.219247
-0.201253
-0.184723
-0.169551
-0.155649
-0.142932
-0.130829
-0.467963
-0.457084
-0.447729
-0.435149
-0.418741
-0.398767
-0.375913
-0.351235
-0.325847
-0.300705
-0.276504
-0.253673
-0.232415
-0.212786
-0.194744
-0.178203
-0.163048
-0.14919
-0.136534
-0.124481
-0.46624
-0.455457
-0.44595
-0.432953
-0.415902
-0.395155
-0.371515
-0.346127
-0.320158
-0.294578
-0.270069
-0.247035
-0.225657
-0.205965
-0.187906
-0.171381
-0.156268
-0.142475
-0.129905
-0.117925
-0.46373
-0.453067
-0.443411
-0.429998
-0.412311
-0.390814
-0.366424
-0.340376
-0.313882
-0.287918
-0.263152
-0.239962
-0.218502
-0.198784
-0.180739
-0.164258
-0.14921
-0.135503
-0.123042
-0.111147
-0.460403
-0.449885
-0.440084
-0.426258
-0.407948
-0.385727
-0.360631
-0.333976
-0.307014
-0.280723
-0.255752
-0.232451
-0.21095
-0.191242
-0.173242
-0.156832
-0.141873
-0.128275
-0.115937
-0.104095
-0.456234
-0.445883
-0.435943
-0.42171
-0.402794
-0.379883
-0.354128
-0.326923
-0.299552
-0.272992
-0.247868
-0.224502
-0.203001
-0.183338
-0.165415
-0.149105
-0.134262
-0.120799
-0.108596
-0.0967054
-0.451199
-0.441038
-0.430966
-0.416335
-0.396834
-0.373271
-0.346908
-0.319213
-0.291495
-0.264724
-0.239499
-0.216116
-0.194656
-0.175074
-0.15726
-0.141079
-0.126377
-0.113078
-0.101041
-0.0890609
-0.445279
-0.43533
-0.425133
-0.410117
-0.390058
-0.365884
-0.338969
-0.310846
-0.282845
-0.255922
-0.23065
-0.207296
-0.185917
-0.166452
-0.14878
-0.132756
-0.118222
-0.105104
-0.0932298
-0.0814242
-0.438458
-0.428742
-0.418428
-0.403043
-0.382455
-0.357718
-0.33031
-0.301824
-0.273604
-0.246588
-0.221322
-0.198043
-0.176788
-0.157476
-0.139976
-0.124139
-0.109804
-0.0969035
-0.0851747
-0.0736435
-0.430724
-0.421259
-0.41084
-0.395104
-0.374023
-0.348772
-0.320933
-0.292151
-0.263776
-0.236728
-0.21152
-0.188364
-0.167271
-0.148147
-0.130856
-0.115236
-0.101125
-0.0884615
-0.0769195
-0.0656655
-0.422066
-0.412873
-0.402359
-0.386294
-0.364758
-0.339048
-0.310843
-0.281833
-0.253369
-0.226347
-0.201251
-0.178262
-0.157372
-0.138472
-0.121426
-0.106048
-0.0921891
-0.0797847
-0.0684648
-0.412479
-0.403577
-0.392981
-0.376612
-0.354662
-0.328551
-0.300047
-0.270877
-0.242389
-0.215453
-0.190521
-0.167746
-0.147099
-0.128463
-0.111684
-0.0965824
-0.0830018
-0.07088
-0.401962
-0.393368
-0.382705
-0.366059
-0.343741
-0.317288
-0.288553
-0.259294
-0.230848
-0.204056
-0.179339
-0.156822
-0.136461
-0.118121
-0.101642
-0.0868454
-0.390515
-0.382246
-0.371532
-0.354639
-0.332001
-0.305269
-0.276374
-0.247094
-0.218755
-0.192166
-0.167713
-0.145502
-0.125463
-0.107455
-0.0913095
-0.378145
-0.370217
-0.359469
-0.342362
-0.319454
-0.292508
-0.263522
-0.234292
-0.206124
-0.179794
-0.155658
-0.133793
-0.114116
-0.0964746
-0.36486
-0.357287
-0.346524
-0.329238
-0.306115
-0.27902
-0.250014
-0.220903
-0.192969
-0.166955
-0.143184
-0.121709
-0.102431
-0.350672
-0.34347
-0.332711
-0.315283
-0.291999
-0.264822
-0.235867
-0.206944
-0.179306
-0.153662
-0.130304
-0.10926
-0.335598
-0.32878
-0.318045
-0.300515
-0.277126
-0.249935
-0.221104
-0.192432
-0.165152
-0.139932
-0.117033
-0.319657
-0.313235
-0.302547
-0.284954
-0.261518
-0.234384
-0.205747
-0.177386
-0.150526
-0.125781
-0.302872
-0.296857
-0.286239
-0.268624
-0.245202
-0.218192
-0.189806
-0.161837
-0.135448
-0.285268
-0.279671
-0.269146
-0.251554
-0.228209
-0.201377
-0.173318
-0.145801
-0.266874
-0.261703
-0.251296
-0.233775
-0.21057
-0.183959
-0.156312
-0.24772
-0.242986
-0.232723
-0.215319
-0.192276
-0.166009
-0.227838
-0.223554
-0.213462
-0.196214
-0.173393
-0.207261
-0.203446
-0.193548
-0.176468
-0.153979
-0.186025
-0.1827
-0.173001
-0.156168
-0.164162
-0.161365
-0.151874
-0.14171
-0.139494
-0.130222
-0.118759
-0.117102
-0.0953932
-0.0716023
-0.0716026
-0.0953936
-0.118759
-0.117102
-0.141711
-0.139494
-0.130223
-0.164163
-0.161366
-0.151875
-0.186025
-0.182701
-0.173001
-0.156168
-0.207261
-0.203447
-0.193549
-0.176468
-0.153979
-0.227838
-0.223555
-0.213462
-0.196214
-0.173394
-0.147531
-0.247721
-0.242986
-0.232723
-0.21532
-0.192277
-0.166009
-0.266875
-0.261704
-0.251297
-0.233775
-0.210571
-0.18396
-0.156312
-0.285268
-0.279671
-0.269147
-0.251554
-0.228209
-0.201378
-0.173319
-0.145801
-0.302872
-0.296858
-0.28624
-0.268625
-0.245202
-0.218192
-0.189807
-0.161837
-0.135449
-0.319658
-0.313236
-0.302548
-0.284954
-0.261519
-0.234384
-0.205748
-0.177386
-0.150526
-0.125782
-0.335599
-0.328781
-0.318046
-0.300515
-0.277127
-0.249936
-0.221105
-0.192433
-0.165152
-0.139932
-0.117033
-0.350673
-0.343471
-0.332712
-0.315284
-0.292
-0.264822
-0.235868
-0.206945
-0.179306
-0.153662
-0.130304
-0.109261
-0.36486
-0.357288
-0.346525
-0.329239
-0.306116
-0.27902
-0.250014
-0.220903
-0.192969
-0.166955
-0.143184
-0.121709
-0.102432
-0.378146
-0.370217
-0.35947
-0.342363
-0.319455
-0.292509
-0.263523
-0.234293
-0.206124
-0.179795
-0.155659
-0.133794
-0.114117
-0.0964751
-0.390516
-0.382247
-0.371533
-0.35464
-0.332002
-0.30527
-0.276374
-0.247095
-0.218755
-0.192166
-0.167714
-0.145503
-0.125463
-0.107456
-0.0913099
-0.401963
-0.393369
-0.382706
-0.36606
-0.343742
-0.317289
-0.288554
-0.259294
-0.230848
-0.204057
-0.179339
-0.156823
-0.136461
-0.118122
-0.101643
-0.0868458
-0.41248
-0.403578
-0.392983
-0.376613
-0.354663
-0.328552
-0.300048
-0.270878
-0.24239
-0.215454
-0.190522
-0.167746
-0.1471
-0.128464
-0.111684
-0.0965829
-0.0830022
-0.0708804
-0.422067
-0.412874
-0.40236
-0.386295
-0.364759
-0.339049
-0.310844
-0.281834
-0.25337
-0.226348
-0.201252
-0.178263
-0.157373
-0.138472
-0.121427
-0.106049
-0.0921895
-0.0797851
-0.0684651
-0.430725
-0.421261
-0.410841
-0.395105
-0.374024
-0.348773
-0.320934
-0.292152
-0.263777
-0.236728
-0.211521
-0.188365
-0.167272
-0.148148
-0.130857
-0.115236
-0.101125
-0.0884619
-0.0769199
-0.0656659
-0.43846
-0.428743
-0.418429
-0.403044
-0.382457
-0.357719
-0.330311
-0.301825
-0.273605
-0.246589
-0.221323
-0.198044
-0.176788
-0.157476
-0.139977
-0.12414
-0.109804
-0.096904
-0.0851751
-0.0736438
-0.44528
-0.435331
-0.425134
-0.410118
-0.390059
-0.365885
-0.33897
-0.310847
-0.282846
-0.255922
-0.230651
-0.207296
-0.185918
-0.166453
-0.14878
-0.132756
-0.118223
-0.105104
-0.0932303
-0.0814246
-0.4512
-0.441039
-0.430967
-0.416336
-0.396836
-0.373272
-0.346909
-0.319214
-0.291496
-0.264725
-0.2395
-0.216117
-0.194657
-0.175074
-0.157261
-0.141079
-0.126377
-0.113078
-0.101041
-0.0890613
-0.456235
-0.445884
-0.435945
-0.421711
-0.402795
-0.379884
-0.354129
-0.326924
-0.299553
-0.272993
-0.247868
-0.224503
-0.203002
-0.183338
-0.165416
-0.149106
-0.134262
-0.120799
-0.108596
-0.0967058
-0.460404
-0.449886
-0.440086
-0.426259
-0.407949
-0.385729
-0.360632
-0.333977
-0.307015
-0.280724
-0.255753
-0.232452
-0.210951
-0.191242
-0.173243
-0.156833
-0.141874
-0.128276
-0.115938
-0.104096
-0.463731
-0.453069
-0.443413
-0.43
-0.412312
-0.390815
-0.366425
-0.340377
-0.313883
-0.287919
-0.263153
-0.239963
-0.218503
-0.198785
-0.18074
-0.164259
-0.14921
-0.135504
-0.123042
-0.111147
-0.466241
-0.455459
-0.445952
-0.432955
-0.415903
-0.395156
-0.371516
-0.346128
-0.320159
-0.294579
-0.27007
-0.247036
-0.225657
-0.205966
-0.187907
-0.171382
-0.156269
-0.142476
-0.129906
-0.117925
-0.467964
-0.457086
-0.44773
-0.435151
-0.418743
-0.398768
-0.375915
-0.351236
-0.325848
-0.300706
-0.276505
-0.253674
-0.232416
-0.212786
-0.194745
-0.178203
-0.163048
-0.14919
-0.136535
-0.124481
-0.46893
-0.457981
-0.448781
-0.436616
-0.420855
-0.40167
-0.379635
-0.355711
-0.330955
-0.306304
-0.282462
-0.259877
-0.238781
-0.219248
-0.201254
-0.184724
-0.169551
-0.155649
-0.142932
-0.130829
-0.469175
-0.45818
-0.449137
-0.437383
-0.422268
-0.403882
-0.382694
-0.359564
-0.335489
-0.31138
-0.287945
-0.265652
-0.244755
-0.225353
-0.207437
-0.190945
-0.17578
-0.161856
-0.1491
-0.136969
-0.468733
-0.457719
-0.448835
-0.437484
-0.42301
-0.40543
-0.385108
-0.362809
-0.339459
-0.31594
-0.292959
-0.271
-0.250343
-0.231105
-0.213297
-0.19687
-0.181736
-0.167813
-0.155038
-0.142899
-0.467643
-0.456636
-0.447912
-0.436957
-0.423115
-0.406341
-0.3869
-0.36546
-0.342875
-0.319992
-0.29751
-0.275929
-0.255549
-0.236509
-0.218839
-0.202503
-0.187424
-0.173523
-0.160749
-0.148622
-0.465946
-0.454972
-0.446409
-0.43584
-0.422618
-0.406643
-0.388092
-0.367535
-0.345753
-0.323547
-0.301608
-0.280445
-0.260378
-0.241569
-0.224066
-0.207847
-0.192846
-0.17899
-0.166237
-0.15414
-0.463682
-0.452767
-0.444367
-0.434172
-0.421554
-0.406369
-0.388711
-0.369055
-0.348105
-0.326615
-0.305261
-0.284556
-0.264839
-0.246292
-0.228984
-0.212907
-0.198007
-0.184216
-0.171503
-0.159455
-0.460893
-0.450064
-0.441829
-0.431995
-0.419963
-0.405552
-0.388783
-0.37004
-0.349948
-0.32921
-0.308478
-0.288269
-0.268937
-0.250684
-0.233599
-0.217689
-0.202912
-0.189207
-0.176551
-0.164571
-0.457624
-0.446905
-0.438836
-0.429352
-0.417884
-0.404229
-0.388339
-0.370515
-0.351301
-0.331345
-0.31127
-0.291593
-0.27268
-0.254753
-0.237917
-0.222197
-0.207566
-0.193966
-0.181386
-0.169489
-0.453917
-0.443335
-0.435433
-0.426285
-0.415359
-0.402435
-0.38741
-0.370505
-0.352184
-0.333034
-0.31365
-0.29454
-0.276078
-0.258505
-0.241945
-0.226439
-0.211974
-0.198499
-0.18601
-0.174214
-0.449815
-0.439394
-0.431663
-0.422837
-0.412429
-0.40021
-0.38603
-0.370037
-0.352617
-0.334296
-0.315631
-0.297118
-0.279139
-0.261949
-0.24569
-0.230422
-0.216142
-0.202811
-0.190429
-0.178749
-0.445363
-0.435127
-0.427568
-0.419052
-0.409136
-0.397593
-0.384233
-0.36914
-0.352623
-0.335146
-0.317225
-0.299339
-0.281872
-0.265093
-0.249161
-0.234151
-0.220076
-0.206907
-0.194648
-0.183098
-0.440603
-0.430575
-0.423191
-0.414973
-0.405524
-0.394624
-0.382056
-0.367844
-0.352227
-0.335605
-0.318449
-0.301216
-0.284289
-0.267946
-0.252365
-0.237634
-0.223784
-0.210792
-0.198671
-0.187265
-0.435578
-0.425779
-0.418574
-0.410642
-0.401635
-0.391344
-0.379535
-0.36618
-0.351454
-0.335692
-0.319316
-0.30276
-0.286398
-0.270518
-0.25531
-0.240879
-0.227271
-0.214475
-0.202504
-0.191255
-0.430329
-0.420779
-0.413757
-0.4061
-0.397508
-0.387793
-0.376707
-0.364182
-0.350332
-0.335428
-0.319845
-0.303985
-0.288212
-0.272818
-0.258005
-0.243894
-0.230545
-0.217959
-0.206153
-0.195073
-0.424895
-0.415613
-0.408777
-0.401385
-0.393186
-0.38401
-0.37361
-0.361882
-0.348886
-0.334836
-0.320053
-0.304904
-0.289741
-0.274855
-0.260458
-0.246687
-0.233613
-0.221254
-0.209624
-0.198723
-0.419315
-0.410318
-0.403673
-0.396537
-0.388706
-0.380036
-0.370281
-0.359314
-0.347148
-0.333939
-0.319957
-0.305532
-0.290996
-0.276639
-0.262679
-0.249265
-0.236483
-0.224364
-0.212923
-0.202212
-0.413625
-0.404929
-0.398479
-0.391591
-0.384107
-0.375907
-0.366757
-0.356513
-0.345146
-0.332761
-0.319576
-0.305883
-0.291991
-0.27818
-0.264676
-0.251637
-0.239163
-0.227297
-0.216056
-0.407859
-0.399478
-0.393227
-0.386581
-0.379423
-0.371661
-0.363076
-0.353512
-0.34291
-0.331327
-0.318931
-0.305974
-0.292737
-0.279489
-0.266458
-0.40205
-0.393995
-0.387949
-0.381539
-0.374688
-0.367333
-0.359271
-0.350345
-0.34047
-0.329662
-0.318043
-0.396229
-0.38851
-0.382671
-0.376493
-0.369932
-0.362954
-0.355378
-0.347046
-0.390424
-0.383048
-0.377421
-0.37147
-0.365185
-0.384659
-0.377632
-0.372221
-0.169734
-0.173859
-0.177836
-0.181668
-0.185361
-0.188916
-0.155929
-0.159899
-0.163754
-0.167497
-0.171132
-0.174659
-0.143717
-0.147526
-0.151247
-0.154879
-0.158427
-0.161892
-0.133062
-0.136695
-0.140259
-0.143755
-0.147185
-0.150551
-0.123627
-0.127085
-0.130488
-0.133837
-0.137135
-0.140382
-0.115284
-0.118563
-0.121799
-0.124993
-0.128147
-0.131262
-0.107853
-0.110956
-0.114026
-0.117063
-0.12007
-0.123045
-0.101226
-0.104158
-0.107063
-0.109944
-0.1128
-0.115633
-0.0952885
-0.0980547
-0.100801
-0.103528
-0.106236
-0.108926
-0.0899584
-0.0925657
-0.0951576
-0.0977348
-0.100298
-0.102847
-0.085158
-0.0876136
-0.0900575
-0.0924902
-0.0949123
-0.0973243
-0.0808203
-0.0831319
-0.0854347
-0.0877292
-0.0900159
-0.0922951
-0.0768942
-0.0790689
-0.0812372
-0.0833994
-0.0855561
-0.0877074
-0.0733271
-0.0753725
-0.0774134
-0.07945
-0.0814827
-0.0835118
-0.0700777
-0.0720013
-0.0739217
-0.0758392
-0.0777541
-0.0796668
-0.0671122
-0.0689206
-0.0707268
-0.0725313
-0.0743343
-0.076136
-0.0643975
-0.0660972
-0.0677957
-0.0694933
-0.0711902
-0.0728865
-0.0619034
-0.0635011
-0.0650983
-0.0666951
-0.0682918
-0.0698885
-0.0596087
-0.0611102
-0.0626117
-0.0641134
-0.0656153
-0.0671177
-0.0686208
-0.0574915
-0.0589025
-0.0603138
-0.0617255
-0.0631379
-0.0645511
-0.0659653
-0.0555332
-0.0568588
-0.058185
-0.059512
-0.0608399
-0.0621688
-0.0634988
-0.0537161
-0.0549616
-0.0562079
-0.057455
-0.0587032
-0.0599526
-0.0612033
-0.0520261
-0.0531962
-0.0543673
-0.0555394
-0.0567125
-0.0578869
-0.0590626
-0.0504522
-0.0515514
-0.0526515
-0.0537527
-0.054855
-0.0559585
-0.0570634
-0.0489828
-0.050015
-0.0510483
-0.0520826
-0.0531181
-0.0541548
-0.0551929
-0.0476078
-0.0485771
-0.0495474
-0.0505188
-0.0514913
-0.052465
-0.05344
-0.0463183
-0.0472284
-0.0481395
-0.0490516
-0.0499648
-0.0508791
-0.0517947
-0.0451066
-0.045961
-0.0468164
-0.0476727
-0.0485301
-0.0493885
-0.0502481
-0.0439672
-0.0447692
-0.045572
-0.0463758
-0.0471805
-0.0479862
-0.0487929
-0.0428951
-0.0436476
-0.0444009
-0.0451551
-0.0459101
-0.046666
-0.0474228
-0.0418831
-0.0425891
-0.0432958
-0.0440033
-0.0447116
-0.0454207
-0.0461306
-0.0409285
-0.0415907
-0.0422535
-0.0429171
-0.0435813
-0.0442463
-0.0449119
-0.0400266
-0.0406475
-0.0412691
-0.0418912
-0.042514
-0.0431374
-0.0437614
-0.0391737
-0.0397559
-0.0403386
-0.0409219
-0.0415056
-0.04209
-0.0426748
-0.0383679
-0.0389136
-0.0394598
-0.0400064
-0.0405534
-0.0411009
-0.0416489
-0.0376063
-0.0381176
-0.0386294
-0.0391415
-0.039654
-0.0401669
-0.0406801
-0.0368862
-0.0373653
-0.0378447
-0.0383244
-0.0388044
-0.0392847
-0.0397654
-0.036206
-0.0366547
-0.0371037
-0.037553
-0.0380025
-0.0384523
-0.0389022
-0.0355635
-0.0359838
-0.0364043
-0.036825
-0.0372459
-0.0376669
-0.0380881
-0.0349576
-0.0353512
-0.035745
-0.0361388
-0.0365328
-0.0369269
-0.0373211
-0.0343867
-0.0347553
-0.0351239
-0.0354926
-0.0358614
-0.0362303
-0.0365992
-0.0338492
-0.0341943
-0.0345395
-0.0348847
-0.0352299
-0.0355752
-0.0359204
-0.0333446
-0.0336678
-0.033991
-0.0343142
-0.0346374
-0.0349606
-0.0352837
-0.0328715
-0.0331743
-0.033477
-0.0337797
-0.0340823
-0.0343849
-0.0346873
-0.032429
-0.0327127
-0.0329964
-0.0332799
-0.0335634
-0.0338468
-0.03413
-0.0320164
-0.0322824
-0.0325483
-0.0328141
-0.0330798
-0.0333453
-0.0336107
-0.0316328
-0.0318823
-0.0321318
-0.0323811
-0.0326303
-0.0328793
-0.0331282
-0.0312776
-0.0315119
-0.0317462
-0.0319803
-0.0322142
-0.032448
-0.0326815
-0.0309501
-0.0311705
-0.0313907
-0.0316108
-0.0318307
-0.0320504
-0.0322699
-0.0306498
-0.0308574
-0.0310648
-0.0312721
-0.0314791
-0.031686
-0.0318926
-0.0303763
-0.0305722
-0.0307679
-0.0309635
-0.0311588
-0.031354
-0.0315489
-0.0301292
-0.0303146
-0.0304997
-0.0306847
-0.0308695
-0.031054
-0.0312383
-0.0299082
-0.030084
-0.0302598
-0.0304353
-0.0306105
-0.0307856
-0.0309604
-0.0297133
-0.0298808
-0.0300481
-0.0302152
-0.0303821
-0.0305488
-0.0307151
-0.0295441
-0.0297043
-0.0298643
-0.0300241
-0.0301837
-0.030343
-0.0305021
-0.0294016
-0.0295556
-0.0297094
-0.0298629
-0.0300163
-0.0301693
-0.0303222
-0.029285
-0.0294339
-0.0295825
-0.029731
-0.0298792
-0.0300271
-0.0301749
-0.0291966
-0.0293414
-0.029486
-0.0296304
-0.0297745
-0.0299184
-0.030062
-0.0291352
-0.0292771
-0.0294189
-0.0295605
-0.0297018
-0.0298429
-0.0299838
-0.0291047
-0.0292447
-0.0293846
-0.0295243
-0.0296637
-0.0298029
-0.0299419
-0.0595924
-0.0669387
-0.0741202
-0.0811292
-0.0879212
-0.094738
-0.10135
-0.107674
-0.113775
-0.119699
-0.125457
-0.131044
-0.136458
-0.141702
-0.146778
-0.15169
-0.156439
-0.161027
-0.165458
-0.0561391
-0.0626341
-0.0689863
-0.075183
-0.0812013
-0.0869452
-0.09283
-0.0985567
-0.104071
-0.109426
-0.114654
-0.119755
-0.124726
-0.129564
-0.134272
-0.138852
-0.143305
-0.147635
-0.151842
-0.0518954
-0.0577194
-0.0634293
-0.0690247
-0.0745037
-0.0798593
-0.0849815
-0.0901606
-0.0952563
-0.100207
-0.105028
-0.109739
-0.114345
-0.118846
-0.123241
-0.127533
-0.131725
-0.135818
-0.139815
-0.0488291
-0.0540562
-0.0591866
-0.0642187
-0.0691487
-0.0739714
-0.0786732
-0.0833599
-0.0879924
-0.0925192
-0.0969416
-0.101275
-0.105526
-0.109697
-0.113786
-0.117794
-0.121725
-0.125578
-0.129357
-0.0458869
-0.0506119
-0.05526
-0.0598316
-0.064327
-0.0687451
-0.0730824
-0.0772995
-0.0815402
-0.0857205
-0.0898108
-0.0938225
-0.0977672
-0.101648
-0.105465
-0.109219
-0.112911
-0.116541
-0.120113
-0.0434898
-0.047778
-0.0520031
-0.0561652
-0.0602645
-0.0643004
-0.0682713
-0.0721709
-0.0760429
-0.0798832
-0.0836626
-0.0873787
-0.0910393
-0.0946491
-0.0982089
-0.101719
-0.10518
-0.108594
-0.111962
-0.041379
-0.0452866
-0.0491435
-0.0529506
-0.0567087
-0.0604183
-0.0640791
-0.0676882
-0.0712181
-0.0747572
-0.0782612
-0.0817124
-0.085116
-0.0884785
-0.0918021
-0.0950869
-0.0983335
-0.101543
-0.104715
-0.039588
-0.0431595
-0.0466891
-0.0501772
-0.0536242
-0.0570299
-0.0603938
-0.0637154
-0.0669912
-0.0702873
-0.0735429
-0.076748
-0.0799135
-0.0830473
-0.086151
-0.0892245
-0.0922679
-0.095282
-0.0982678
-0.0380536
-0.0413304
-0.0445741
-0.0477854
-0.0509653
-0.0541148
-0.0572348
-0.0603251
-0.0633827
-0.0663673
-0.0693643
-0.0723497
-0.0753055
-0.0782317
-0.0811322
-0.084009
-0.0868625
-0.0896932
-0.0925016
-0.0367394
-0.0397515
-0.0427363
-0.0456942
-0.0486256
-0.051531
-0.0544103
-0.0572633
-0.0600894
-0.0628836
-0.0656889
-0.0684726
-0.0712275
-0.0739585
-0.0766699
-0.0793631
-0.0820381
-0.0846953
-0.0873352
-0.0356162
-0.0383926
-0.0411469
-0.0438796
-0.0465913
-0.0492826
-0.0519537
-0.054605
-0.0572363
-0.0598457
-0.062442
-0.0650288
-0.0675989
-0.070151
-0.0726871
-0.0752085
-0.077716
-0.0802098
-0.0826903
-0.034657
-0.0372217
-0.0397686
-0.0422982
-0.0448112
-0.0473079
-0.0497889
-0.0522546
-0.0547049
-0.0571389
-0.0595424
-0.0619507
-0.0643527
-0.0667407
-0.0691147
-0.0714768
-0.073828
-0.0761688
-0.0784994
-0.0338355
-0.0362086
-0.0385673
-0.0409121
-0.0432432
-0.0455611
-0.0478661
-0.0501585
-0.0524381
-0.054705
-0.056956
-0.0592122
-0.0614575
-0.0636894
-0.0659105
-0.0681229
-0.0703272
-0.0725237
-0.0747126
-0.0331324
-0.0353321
-0.0375202
-0.0396971
-0.0418631
-0.0440186
-0.0461638
-0.048299
-0.0504243
-0.0525397
-0.0546445
-0.0567522
-0.058851
-0.0609391
-0.0630189
-0.0650921
-0.0671594
-0.0692208
-0.0712766
-0.0325308
-0.0345733
-0.0366067
-0.0386314
-0.0406476
-0.0426558
-0.0446564
-0.0466496
-0.0486358
-0.0506151
-0.0525866
-0.0545368
-0.0564929
-0.0584495
-0.0604004
-0.062345
-0.0642845
-0.0662195
-0.0681505
-0.0320127
-0.0339113
-0.0358027
-0.0376872
-0.0395648
-0.041436
-0.043301
-0.0451599
-0.047013
-0.0488603
-0.0507016
-0.0525344
-0.0543697
-0.0562021
-0.0580295
-0.0598524
-0.0616717
-0.063488
-0.0653014
-0.0315655
-0.0333326
-0.035094
-0.0368499
-0.0386005
-0.0403459
-0.0420865
-0.0438224
-0.0455538
-0.0472806
-0.0490031
-0.0507204
-0.052444
-0.0541619
-0.0558737
-0.0575823
-0.0592888
-0.0609934
-0.0626963
-0.0311787
-0.0328254
-0.0344676
-0.0361057
-0.0377397
-0.0393699
-0.0409965
-0.0426197
-0.0442397
-0.0458566
-0.0474705
-0.049081
-0.0506869
-0.0522935
-0.0538992
-0.055503
-0.057105
-0.0587055
-0.0603049
-0.0308417
-0.0323776
-0.0339101
-0.0354394
-0.0369657
-0.0384891
-0.0400099
-0.0415281
-0.0430441
-0.0445578
-0.0460694
-0.0475786
-0.0490807
-0.050586
-0.0520926
-0.0535979
-0.0551018
-0.0566046
-0.0581068
-0.0305457
-0.0319793
-0.0334104
-0.0348391
-0.0362655
-0.0376899
-0.0391122
-0.0405327
-0.0419515
-0.0433686
-0.0447842
-0.0461982
-0.0476095
-0.0490226
-0.0504357
-0.0518478
-0.0532591
-0.05467
-0.0560807
-0.0302838
-0.0316231
-0.0329605
-0.0342961
-0.0356302
-0.0369627
-0.0382939
-0.0396238
-0.0409525
-0.0422802
-0.0436068
-0.0449326
-0.046257
-0.0475839
-0.0489097
-0.0502343
-0.0515586
-0.0528832
-0.054208
-0.0300498
-0.0313017
-0.0325522
-0.0338015
-0.0350497
-0.0362969
-0.0375431
-0.0387885
-0.040033
-0.0412769
-0.04252
-0.0437626
-0.0450047
-0.046252
-0.0474971
-0.0487403
-0.0499834
-0.051227
-0.0524713
-0.0298397
-0.0310108
-0.032181
-0.0333506
-0.0345195
-0.0356878
-0.0368557
-0.0380233
-0.0391906
-0.0403577
-0.0415249
-0.042692
-0.0438588
-0.0450193
-0.046184
-0.0473516
-0.0485198
-0.0496881
-0.0508567
-0.0296474
-0.0307432
-0.0318386
-0.0329335
-0.0340281
-0.0351224
-0.0362165
-0.0373104
-0.0384042
-0.0394979
-0.0405917
-0.0416855
-0.0427794
-0.0438723
-0.044967
-0.046063
-0.0471595
-0.0482564
-0.0493539
-0.0294701
-0.030496
-0.0315217
-0.0325473
-0.0335727
-0.0345982
-0.0356236
-0.0366491
-0.0376747
-0.0387005
-0.0397265
-0.0407527
-0.0417793
-0.0428057
-0.0438336
-0.0448621
-0.0458912
-0.046921
-0.0479514
-0.029305
-0.0302658
-0.0312266
-0.0321875
-0.0331485
-0.0341096
-0.035071
-0.0360325
-0.0369944
-0.0379565
-0.0389191
-0.039882
-0.0408454
-0.0418091
-0.0427743
-0.0437398
-0.0447056
-0.0456721
-0.0466395
-0.0291489
-0.0300489
-0.0309491
-0.0318494
-0.03275
-0.0336508
-0.0345519
-0.0354533
-0.036355
-0.037257
-0.0381594
-0.039062
-0.0399651
-0.0408687
-0.0417795
-0.0426877
-0.0435941
-0.0445011
-0.0454092
-0.029002
-0.0298455
-0.0306893
-0.0315336
-0.0323783
-0.0332233
-0.0340689
-0.034915
-0.0357616
-0.0366088
-0.0374567
-0.0383053
-0.0391545
-0.0400043
-0.0408482
-0.0416964
-0.0425478
-0.0434002
-0.0442531
-0.0288598
-0.0296503
-0.0304412
-0.0312325
-0.0320243
-0.0328165
-0.0336093
-0.0344024
-0.0351961
-0.0359903
-0.0367851
-0.0375804
-0.0383762
-0.0391726
-0.039969
-0.0407668
-0.0415658
-0.0423656
-0.043166
-0.028723
-0.029464
-0.0302054
-0.0309474
-0.0316898
-0.0324328
-0.0331763
-0.0339203
-0.0346649
-0.03541
-0.0361557
-0.0369019
-0.0376488
-0.0383962
-0.039144
-0.0398927
-0.0406423
-0.0413925
-0.0421434
-0.0285899
-0.0292845
-0.0299796
-0.0306752
-0.0313714
-0.0320681
-0.0327654
-0.0334632
-0.0341615
-0.0348604
-0.0355599
-0.0362599
-0.0369606
-0.0376618
-0.0383635
-0.0390661
-0.0397694
-0.0404733
-0.0411778
-0.0284604
-0.0291116
-0.0297633
-0.0304156
-0.0310684
-0.0317218
-0.0323757
-0.0330302
-0.0336852
-0.0343408
-0.0349969
-0.0356536
-0.0363108
-0.0369687
-0.037627
-0.0382862
-0.0389459
-0.0396062
-0.040267
-0.0283336
-0.028944
-0.029555
-0.0301666
-0.0307787
-0.0313914
-0.0320046
-0.0326183
-0.0332326
-0.0338474
-0.0344627
-0.0350786
-0.0356949
-0.0363118
-0.0369293
-0.0375483
-0.0381674
-0.0387865
-0.0394062
-0.0282098
-0.0287822
-0.0293551
-0.0299285
-0.0305025
-0.0310771
-0.0316522
-0.0322278
-0.0328039
-0.0333806
-0.0339577
-0.0345354
-0.0351136
-0.0356923
-0.0362714
-0.0368502
-0.03743
-0.0380107
-0.038592
-0.0280884
-0.0286249
-0.029162
-0.0296997
-0.0302378
-0.0307765
-0.0313157
-0.0318554
-0.0323955
-0.0329362
-0.0334773
-0.0340189
-0.034561
-0.0351035
-0.0356465
-0.0361896
-0.0367333
-0.0372778
-0.0378226
-0.0279697
-0.0284727
-0.0289762
-0.0294802
-0.0299848
-0.0304898
-0.0309953
-0.0315013
-0.0320077
-0.0325146
-0.033022
-0.0335297
-0.0340379
-0.0345465
-0.0350554
-0.0355647
-0.0360745
-0.0365847
-0.0370953
-0.0278536
-0.0283251
-0.0287971
-0.0292696
-0.0297426
-0.030216
-0.0306899
-0.0311642
-0.031639
-0.0321141
-0.0325897
-0.0330656
-0.033542
-0.0340186
-0.0344957
-0.0349731
-0.0354508
-0.0359289
-0.0364074
-0.0277405
-0.0281824
-0.0286249
-0.0290678
-0.0295111
-0.0299549
-0.0303991
-0.0308438
-0.0312888
-0.0317341
-0.0321799
-0.032626
-0.0330724
-0.0335191
-0.0339662
-0.0344136
-0.0348612
-0.0353092
-0.0357574
-0.0276304
-0.0280447
-0.0284594
-0.0288745
-0.0292901
-0.0297061
-0.0301224
-0.0305391
-0.0309562
-0.0313736
-0.0317914
-0.0322094
-0.0326278
-0.0330464
-0.0334653
-0.0338845
-0.0343039
-0.0347236
-0.0351434
-0.0275238
-0.0279121
-0.0283008
-0.0286899
-0.0290794
-0.0294693
-0.0298596
-0.0302501
-0.030641
-0.0310322
-0.0314237
-0.0318155
-0.0322075
-0.0325997
-0.0329922
-0.0333849
-0.0337778
-0.0341709
-0.0345642
-0.0274207
-0.0277847
-0.028149
-0.0285138
-0.0288788
-0.0292443
-0.02961
-0.0299761
-0.0303424
-0.030709
-0.0310759
-0.0314429
-0.0318102
-0.0321778
-0.0325455
-0.0329133
-0.0332817
-0.03365
-0.0340183
-0.0273217
-0.0276629
-0.0280045
-0.0283464
-0.0286886
-0.0290312
-0.029374
-0.0297171
-0.0300605
-0.0304041
-0.0307479
-0.031092
-0.0314362
-0.0317806
-0.0321251
-0.0324698
-0.0328143
-0.0331591
-0.0335041
-0.0272268
-0.0275467
-0.0278669
-0.0281875
-0.0285083
-0.0288295
-0.0291508
-0.0294725
-0.0297943
-0.0301164
-0.0304387
-0.0307611
-0.0310837
-0.0314064
-0.0317292
-0.0320522
-0.0323751
-0.0326982
-0.0330214
-0.0271363
-0.0274364
-0.0277367
-0.0280373
-0.0283382
-0.0286394
-0.0289407
-0.0292423
-0.0295441
-0.0298461
-0.0301482
-0.0304505
-0.0307528
-0.0310553
-0.0313579
-0.0316606
-0.0319632
-0.032266
-0.0325687
-0.0270505
-0.027332
-0.0276138
-0.0278958
-0.0281781
-0.0284606
-0.0287433
-0.0290262
-0.0293093
-0.0295925
-0.0298759
-0.0301593
-0.0304429
-0.0307265
-0.0310102
-0.031294
-0.0315777
-0.0318615
-0.0321453
-0.0269697
-0.0272339
-0.0274984
-0.0277632
-0.0280282
-0.0282933
-0.0285587
-0.0288242
-0.0290898
-0.0293556
-0.0296215
-0.0298875
-0.0301535
-0.0304197
-0.0306858
-0.030952
-0.0312181
-0.0314842
-0.0317503
-0.0268939
-0.0271421
-0.0273906
-0.0276393
-0.0278882
-0.0281373
-0.0283865
-0.0286359
-0.0288854
-0.029135
-0.0293847
-0.0296345
-0.0298843
-0.0301341
-0.0303839
-0.0306338
-0.0308836
-0.0311334
-0.0313831
-0.0268233
-0.0270567
-0.0272904
-0.0275243
-0.0277583
-0.0279925
-0.0282268
-0.0284613
-0.0286959
-0.0289305
-0.0291652
-0.0294
-0.0296347
-0.0298695
-0.0301043
-0.0303391
-0.0305738
-0.0308085
-0.0310431
-0.0265384
-0.026758
-0.0269779
-0.0271979
-0.027418
-0.0276384
-0.0278589
-0.0280795
-0.0283002
-0.028521
-0.0287418
-0.0289627
-0.0291837
-0.0294046
-0.0296255
-0.0298465
-0.0300673
-0.0302882
-0.0305089
-0.0307295
-0.0264911
-0.0266982
-0.0269056
-0.027113
-0.0273207
-0.0275285
-0.0277364
-0.0279444
-0.0281525
-0.0283606