/*--------------------------------*- C++ -*----------------------------------*\
  =========                 |
  \\      /  F ield         | OpenFOAM: The Open Source CFD Toolbox
   \\    /   O peration     | Website:  https://openfoam.org
    \\  /    A nd           | Version:  7
     \\/     M anipulation  |
\*---------------------------------------------------------------------------*/
FoamFile
{
    version     2.0;
    format      ascii;
    class       volScalarField;
    location    "280";
    object      p;
}
// * * * * * * * * * * * * * * * * * * * * * * * * * * * * * * * * * * * * * //

dimensions      [0 2 -2 0 0 0 0];

internalField   nonuniform List<scalar> 
4575
(
0.245023
0.254209
0.263177
0.277906
0.271918
0.28696
0.280421
0.295761
0.288677
0.304298
0.296674
0.321599
0.312557
0.304402
0.330074
0.320527
0.311851
0.338231
0.328196
0.319009
0.346057
0.33555
0.325866
0.364204
0.35354
0.34258
0.332413
0.371829
0.360668
0.349273
0.33864
0.379063
0.367427
0.355619
0.344537
0.385896
0.373809
0.361607
0.350096
0.392314
0.379801
0.367228
0.355307
0.411258
0.398308
0.385394
0.372471
0.360162
0.41722
0.403866
0.390577
0.377327
0.364654
0.422707
0.408978
0.395342
0.381789
0.368775
0.42771
0.413636
0.39968
0.385848
0.372519
0.43222
0.417831
0.403583
0.389497
0.375878
0.436229
0.421555
0.407045
0.392728
0.378849
0.439727
0.424801
0.410057
0.395537
0.381424
0.44271
0.427563
0.412615
0.397917
0.3836
0.445169
0.429835
0.414713
0.399863
0.385372
0.447101
0.431611
0.416347
0.401372
0.386737
0.448501
0.432889
0.417513
0.402439
0.387691
0.465238
0.449364
0.433664
0.418207
0.403062
0.388233
0.46562
0.449689
0.433934
0.418427
0.403238
0.38836
0.465426
0.449472
0.433698
0.418172
0.402966
0.388071
0.464654
0.448714
0.432953
0.417441
0.402246
0.387365
0.463303
0.447414
0.431701
0.416233
0.401076
0.386242
0.461375
0.445572
0.429941
0.41455
0.399458
0.384702
0.44319
0.427675
0.412391
0.397393
0.382747
0.44027
0.424905
0.40976
0.394882
0.380378
0.436816
0.421634
0.406659
0.391929
0.377598
0.432831
0.417866
0.403092
0.388536
0.374409
0.42832
0.413605
0.399062
0.384707
0.370814
0.423289
0.408856
0.394575
0.380448
0.366817
0.417744
0.403626
0.389637
0.375762
0.362423
0.411693
0.397921
0.384252
0.370657
0.357637
0.405143
0.391748
0.378429
0.365138
0.352464
0.398104
0.385116
0.372175
0.359213
0.34691
0.390585
0.378033
0.365499
0.352889
0.340981
0.370509
0.358408
0.346174
0.334686
0.362554
0.350912
0.339078
0.32803
0.354178
0.343022
0.331609
0.321023
0.345393
0.334747
0.323777
0.313673
0.336211
0.326098
0.315593
0.305987
0.317088
0.307067
0.297977
0.307727
0.29821
0.28965
0.298029
0.289033
0.281017
0.288005
0.279548
0.272088
0.269767
0.262872
0.259702
0.253381
0.249365
0.243624
0.233612
0.223354
0.212861
0.117156
0.118306
0.120498
0.123609
0.127512
0.13216
0.137434
0.143297
0.1496
0.15629
0.16315
0.170078
0.176749
0.182999
0.188337
0.192552
0.194909
0.195247
0.19242
0.186621
0.175786
0.116563
0.11767
0.119773
0.122751
0.12647
0.130877
0.135842
0.141316
0.147139
0.153239
0.159387
0.165464
0.171133
0.176222
0.180242
0.182994
0.183775
0.18247
0.178051
0.17076
0.15905
0.115898
0.116959
0.118963
0.121797
0.125317
0.129464
0.134101
0.139166
0.144488
0.149982
0.155408
0.160636
0.165325
0.169305
0.172099
0.173537
0.172967
0.170333
0.164774
0.156584
0.144734
0.115159
0.116169
0.118069
0.120748
0.124058
0.127932
0.132225
0.136865
0.141673
0.146549
0.151249
0.155634
0.159368
0.162283
0.163931
0.164159
0.162406
0.158633
0.152196
0.14334
0.131459
0.114345
0.1153
0.117091
0.119606
0.122697
0.126287
0.130226
0.134432
0.138719
0.142978
0.146962
0.150528
0.153351
0.155265
0.15587
0.155021
0.152264
0.147561
0.14047
0.131167
0.119332
0.113454
0.114352
0.116028
0.118373
0.121236
0.124533
0.128112
0.131878
0.135645
0.139292
0.14258
0.145358
0.147326
0.14832
0.147994
0.146213
0.142629
0.137203
0.129661
0.12013
0.108484
0.112485
0.113323
0.11488
0.117049
0.119679
0.122676
0.125889
0.129213
0.132463
0.135511
0.138128
0.140158
0.141334
0.141491
0.140348
0.137776
0.133528
0.127566
0.119746
0.110174
0.0988544
0.111439
0.112214
0.113648
0.115636
0.118026
0.12072
0.123565
0.126449
0.129191
0.131657
0.133633
0.134963
0.13541
0.13482
0.132969
0.12974
0.124972
0.118637
0.110684
0.101214
0.0903132
0.110314
0.111024
0.112333
0.114135
0.116283
0.118671
0.121149
0.123598
0.125846
0.127753
0.129123
0.129802
0.12959
0.128341
0.125886
0.122127
0.116967
0.110396
0.10243
0.093167
0.0827405
0.109111
0.109755
0.110936
0.11255
0.114454
0.116536
0.118651
0.120674
0.122444
0.123819
0.124622
0.124705
0.123903
0.122083
0.119124
0.114947
0.109511
0.102819
0.0949353
0.0859538
0.0760368
0.107831
0.108407
0.109459
0.110884
0.112544
0.114322
0.116081
0.117691
0.119003
0.119876
0.120154
0.119699
0.118375
0.116069
0.112699
0.108207
0.102593
0.0958743
0.0881472
0.0795014
0.0701133
0.106475
0.106982
0.107905
0.10914
0.110558
0.112038
0.113449
0.114662
0.11554
0.115944
0.115742
0.114805
0.113028
0.110316
0.10662
0.101902
0.0961947
0.089527
0.0820137
0.07374
0.0648872
0.105045
0.105483
0.106277
0.107324
0.108502
0.109691
0.110766
0.111601
0.11207
0.112043
0.111405
0.110044
0.107879
0.104834
0.10089
0.096026
0.090296
0.0837399
0.0764828
0.0686036
0.060282
0.103542
0.103912
0.104577
0.10544
0.106384
0.10729
0.108044
0.108521
0.108609
0.108188
0.107161
0.105431
0.10294
0.0996321
0.095508
0.0905652
0.0848719
0.0784751
0.0715041
0.0640306
0.0562282
0.10197
0.102272
0.102811
0.103492
0.104209
0.104845
0.105293
0.105435
0.105172
0.104395
0.103024
0.100979
0.098221
0.0947115
0.0904691
0.0855045
0.0798959
0.0736945
0.0670293
0.0599641
0.0526637
0.100331
0.100566
0.100982
0.101488
0.101986
0.102364
0.102523
0.102355
0.101772
0.100677
0.099008
0.0966981
0.0937272
0.0900719
0.0857644
0.0808258
0.0753404
0.0693608
0.0630127
0.0563519
0.0495326
0.0986283
0.0987994
0.0990954
0.0994331
0.0997216
0.0998556
0.0997463
0.0992937
0.0984217
0.0970473
0.0951223
0.0925957
0.0894614
0.0857097
0.0813827
0.0765097
0.0711773
0.0654379
0.0594119
0.0531467
0.0467854
0.0968668
0.0969758
0.0971567
0.0973333
0.0974236
0.0973297
0.096972
0.0962607
0.0951316
0.0935148
0.0913752
0.0886762
0.0854234
0.0816186
0.077311
0.0725355
0.0673788
0.0618917
0.0561873
0.0503055
0.0443778
0.0950507
0.0951003
0.0951713
0.0951956
0.0950997
0.0947946
0.0942098
0.0932665
0.0919116
0.0900881
0.087773
0.0849421
0.0816109
0.0777905
0.0735349
0.0688825
0.0639179
0.0586895
0.0533024
0.0477895
0.0422709
0.0931847
0.0931782
0.0931451
0.0930265
0.0927578
0.0922589
0.0914689
0.0903201
0.0887699
0.086774
0.0843195
0.0813936
0.0780196
0.0742158
0.070039
0.0655294
0.0607684
0.0558009
0.0507241
0.0455639
0.0404297
0.091274
0.0912148
0.0910845
0.0908332
0.0904053
0.0897307
0.0887577
0.0874295
0.0857138
0.0835775
0.0810172
0.0780295
0.0746437
0.0708838
0.0668076
0.0624557
0.0579053
0.0531977
0.0484216
0.0435972
0.0388235
0.0893243
0.0892161
0.0889956
0.0886224
0.0880498
0.0872179
0.0860839
0.0846019
0.082749
0.0805024
0.0778668
0.0748469
0.0714763
0.067783
0.0638245
0.0596411
0.055305
0.0508535
0.0463674
0.0418614
0.0374249
0.0873413
0.0871882
0.086885
0.0864011
0.0856986
0.0847277
0.0834545
0.0818434
0.07988
0.0775511
0.0748679
0.0718416
0.0685092
0.0649013
0.061074
0.0570663
0.0529452
0.0487442
0.044536
0.0403311
0.0362098
0.0853312
0.0851373
0.0847593
0.0841761
0.0833586
0.082267
0.0808758
0.0791591
0.0771104
0.0747246
0.0720185
0.0690087
0.065734
0.0622265
0.0585404
0.0547127
0.0508052
0.0468473
0.0429047
0.0389838
0.0351566
0.0833001
0.0830698
0.082625
0.0819541
0.0810366
0.0798421
0.0783534
0.0765535
0.0744427
0.0720231
0.0693161
0.0663423
0.0631414
0.0597463
0.0562084
0.0525626
0.0488654
0.0451425
0.0414527
0.0377991
0.0342462
0.0812546
0.0809921
0.0804888
0.0797418
0.0787389
0.0774589
0.0758922
0.0740298
0.0718782
0.0694457
0.066757
0.0638359
0.0607221
0.0574485
0.0540635
0.0505996
0.0471079
0.043611
0.0401611
0.0367587
0.0334616
0.079201
0.0789107
0.078357
0.0775454
0.0764713
0.0751225
0.0734962
0.0715907
0.0694179
0.0669909
0.0643371
0.0614826
0.0584666
0.0553212
0.0520916
0.0488078
0.045516
0.0422356
0.039013
0.0358465
0.0327875
0.0771459
0.076832
0.076236
0.0753709
0.0742396
0.0728377
0.071169
0.0692381
0.0670614
0.0646563
0.0620518
0.0592755
0.0563654
0.0533528
0.0502795
0.0471729
0.0440745
0.0410008
0.0379929
0.0350476
0.0322104
0.0750957
0.0747624
0.074132
0.0732241
0.0720487
0.0706087
0.0689135
0.0669733
0.0648083
0.0624391
0.059896
0.0572071
0.0544093
0.0515323
0.0486146
0.0456812
0.042769
0.0398923
0.0370871
0.0343489
0.0317181
0.0730567
0.0727081
0.0720507
0.0711104
0.0699034
0.068439
0.0667319
0.0647969
0.0626573
0.0603361
0.0578644
0.0552703
0.0525892
0.049849
0.0470851
0.04432
0.0415867
0.0388971
0.0362829
0.0337386
0.0313
0.0710352
0.0706751
0.069998
0.069035
0.0678079
0.0663318
0.0646259
0.062709
0.0606067
0.0583438
0.0559516
0.0534579
0.0508962
0.0482928
0.04568
0.0430779
0.0405157
0.0380035
0.035569
0.0332061
0.0309463
0.069037
0.0686691
0.067979
0.0670024
0.065766
0.0642898
0.0625968
0.0607093
0.0586544
0.0564583
0.054152
0.0517627
0.0493219
0.0468543
0.0443888
0.0419439
0.039545
0.0372007
0.0349352
0.0327418
0.0306483
0.0670681
0.0666957
0.065999
0.0650171
0.063781
0.0623151
0.0606455
0.058797
0.0567981
0.0546758
0.0524602
0.0501779
0.0478583
0.0455243
0.0432022
0.0409082
0.0386648
0.0364792
0.0343722
0.0323373
0.0303985
0.0651337
0.0647601
0.0640625
0.063083
0.0618559
0.0604095
0.0587723
0.0569712
0.0550354
0.0529921
0.0508708
0.0486969
0.0464978
0.0442947
0.0421112
0.0399617
0.0378661
0.0358301
0.0338719
0.0319848
0.0301899
0.0632392
0.0628672
0.0621738
0.0612035
0.0599933
0.0585744
0.0569774
0.0552305
0.0533634
0.0514033
0.0493785
0.0473134
0.0452332
0.0431576
0.0411076
0.0390962
0.0371406
0.0352456
0.0334268
0.0316776
0.0300164
0.0613893
0.0610215
0.060337
0.0593819
0.0581954
0.0568109
0.0552604
0.0535734
0.0517795
0.0499054
0.0479782
0.0460212
0.0440578
0.0421057
0.040184
0.038304
0.0364809
0.0347185
0.0330302
0.0314096
0.0298726
0.0595885
0.0592271
0.0585555
0.0576209
0.0564639
0.0551196
0.0536211
0.0519983
0.0502806
0.0484943
0.0466651
0.0448148
0.0429652
0.0411324
0.0393335
0.0375784
0.0358804
0.0342425
0.0326762
0.0311754
0.0297538
0.0578409
0.0574878
0.0568327
0.0559229
0.0548003
0.0535009
0.0520585
0.0505033
0.0488641
0.0471662
0.0454343
0.0436888
0.0419496
0.0402315
0.0385497
0.036913
0.0353329
0.0338118
0.0323596
0.0309703
0.0296558
0.0561502
0.055807
0.0551712
0.0542901
0.0532058
0.0519551
0.0505721
0.0490866
0.047527
0.0459176
0.0442816
0.0426382
0.0410056
0.0393974
0.0378271
0.0363023
0.0348331
0.0334214
0.0320755
0.03079
0.0295749
0.0545196
0.0541878
0.0535736
0.0527241
0.0516812
0.0504821
0.0491606
0.0477463
0.0462665
0.0447447
0.0432027
0.0416583
0.0401283
0.038625
0.0371604
0.0357412
0.0343762
0.0330667
0.03182
0.0306308
0.0295078
0.0529521
0.0526326
0.052042
0.0512263
0.0502272
0.0490817
0.047823
0.0464803
0.0450799
0.0436442
0.0421937
0.0407449
0.0393132
0.0379096
0.0365449
0.0352252
0.0339577
0.0327438
0.0315894
0.0304896
0.0294519
0.0514502
0.0511439
0.0505782
0.049798
0.0488442
0.0477534
0.0465581
0.0452868
0.0439647
0.0426131
0.041251
0.039894
0.0385559
0.037247
0.0359766
0.0347502
0.033574
0.0324491
0.0313804
0.0303636
0.0294048
0.0500161
0.0497235
0.0491835
0.0484399
0.0475324
0.0464967
0.0453647
0.0441639
0.0429184
0.0416482
0.0403713
0.039102
0.0378529
0.0366333
0.0354516
0.0343126
0.0332217
0.0321796
0.0311905
0.0302504
0.0293645
0.0486515
0.0483729
0.0478593
0.0471527
0.0462917
0.045311
0.0442416
0.0431098
0.0419385
0.0407469
0.0395515
0.0383655
0.0372007
0.0360653
0.0349668
0.0339094
0.0328978
0.0319326
0.0310172
0.030148
0.0293293
0.0473581
0.0470937
0.0466065
0.0459368
0.0451221
0.0441956
0.0431874
0.0421225
0.0410229
0.0399065
0.0387887
0.0376818
0.0365963
0.0355398
0.034519
0.0335377
0.0325998
0.0317058
0.0308585
0.0300548
0.029298
0.0461371
0.0458867
0.0454257
0.0447927
0.0440233
0.0431498
0.0422009
0.0412006
0.0401696
0.0391248
0.0380804
0.0370479
0.0360369
0.0350542
0.0341059
0.0331951
0.0323255
0.0314973
0.0307128
0.0299693
0.0292694
0.0449895
0.0447529
0.0443176
0.0437202
0.042995
0.0421729
0.041281
0.0403425
0.0393767
0.0383996
0.0374244
0.0364617
0.0355203
0.0346063
0.0337251
0.0328797
0.0320731
0.0313055
0.0305788
0.0298905
0.0292427
0.043916
0.0436929
0.0432825
0.0427197
0.042037
0.041264
0.0404265
0.0395466
0.0386425
0.0377291
0.0368187
0.0359211
0.0350443
0.034194
0.0333749
0.0325897
0.031841
0.031129
0.0304552
0.0298175
0.0292174
0.0429175
0.0427072
0.0423207
0.0417909
0.0411488
0.0404225
0.0396366
0.0388118
0.0379655
0.0371115
0.0362615
0.0354243
0.0346072
0.0338156
0.0330536
0.0323237
0.0316281
0.0309669
0.0303414
0.0297497
0.029193
0.0419945
0.0417965
0.0414326
0.0409341
0.0403303
0.0396479
0.0389102
0.038137
0.0373444
0.0365456
0.0357513
0.0349697
0.0342076
0.0334697
0.03276
0.0320805
0.0314332
0.0308183
0.0302367
0.0296867
0.0291693
0.0411476
0.040961
0.0406183
0.0401491
0.0395811
0.0389396
0.0382468
0.0375212
0.0367783
0.0360302
0.0352869
0.0345562
0.0338442
0.0331553
0.032493
0.0318592
0.0312557
0.0306826
0.0301406
0.0296283
0.0291464
0.0403773
0.0402014
0.0398784
0.0394363
0.0389013
0.0382975
0.0376458
0.0369639
0.0362663
0.0355644
0.0348675
0.0341829
0.0335162
0.0328714
0.0322519
0.0316592
0.031095
0.0305594
0.030053
0.0295744
0.0291241
0.0396845
0.0395183
0.0392133
0.0387958
0.0382909
0.0377214
0.0371071
0.0364647
0.0358079
0.0351476
0.0344924
0.033849
0.0332229
0.0326176
0.0320361
0.0314802
0.0309509
0.0304486
0.0299737
0.029525
0.0291028
0.03907
0.0389126
0.0386237
0.0382284
0.0377505
0.0372115
0.0366306
0.0360234
0.0354029
0.0347795
0.0341612
0.0335544
0.0329639
0.0323935
0.0318455
0.0313218
0.0308232
0.0303502
0.0299028
0.0294804
0.0290827
0.0385351
0.0383854
0.0381107
0.0377349
0.0372806
0.0367686
0.0362167
0.0356403
0.0350515
0.0344601
0.0338739
0.0332988
0.0327394
0.032199
0.0316801
0.0311841
0.030712
0.0302642
0.0298406
0.0294407
0.0290642
0.0380814
0.0379382
0.0376757
0.0373166
0.0368825
0.0363934
0.0358664
0.0353161
0.0347542
0.03419
0.033631
0.0330826
0.0325494
0.0320344
0.0315399
0.0310674
0.0306176
0.0301909
0.0297874
0.0294064
0.0290477
0.037711
0.0375733
0.0373207
0.0369753
0.0365579
0.0360875
0.0355809
0.0350519
0.034512
0.03397
0.0334331
0.0329066
0.0323946
0.0319003
0.0314257
0.0309721
0.0305404
0.0301309
0.0297436
0.0293779
0.0290335
0.0374267
0.0372932
0.0370483
0.0367135
0.0363089
0.035853
0.035362
0.0348494
0.0343264
0.0338014
0.0332814
0.0327716
0.032276
0.0317974
0.031338
0.030899
0.0304811
0.0300847
0.0297097
0.0293557
0.0290223
0.0372321
0.0371015
0.036862
0.0365344
0.0361386
0.0356927
0.0352124
0.0347111
0.0341995
0.0336862
0.0331778
0.0326794
0.0321949
0.0317271
0.031278
0.0308489
0.0304404
0.0300529
0.0296864
0.0293403
0.0290144
0.0371319
0.0370027
0.036766
0.0364422
0.036051
0.0356102
0.0351354
0.0346399
0.0341342
0.0336269
0.0331245
0.0326319
0.0321532
0.0316909
0.0312471
0.0308231
0.0304195
0.0300366
0.0296743
0.0293324
0.0290102
0.118878
0.120042
0.122316
0.125559
0.129682
0.134705
0.140532
0.147271
0.154807
0.1633
0.17261
0.182985
0.194243
0.206635
0.219962
0.234548
0.25006
0.267031
0.284926
0.304293
0.324467
0.346265
0.368413
0.118974
0.120141
0.122419
0.125668
0.129799
0.134831
0.140669
0.147421
0.15497
0.163478
0.172801
0.183186
0.194463
0.206875
0.220227
0.234841
0.250472
0.267374
0.28527
0.304641
0.324815
0.346606
0.368734
0.119063
0.120232
0.122515
0.125769
0.129908
0.134948
0.140795
0.147558
0.155119
0.163638
0.172962
0.183355
0.194667
0.207103
0.22045
0.235061
0.250669
0.267581
0.285461
0.304804
0.324932
0.346661
0.3687
0.119145
0.120316
0.122603
0.125863
0.130007
0.135055
0.140911
0.147682
0.155254
0.16378
0.173086
0.183592
0.194832
0.207267
0.220614
0.235216
0.250792
0.267683
0.285516
0.304795
0.324831
0.346444
0.36832
0.11922
0.120393
0.122684
0.125948
0.130099
0.135153
0.141015
0.147794
0.155375
0.163901
0.173338
0.183712
0.194965
0.207392
0.220726
0.235306
0.250839
0.267681
0.285437
0.304615
0.324512
0.345955
0.367596
0.119287
0.120463
0.122756
0.126025
0.130181
0.135241
0.141109
0.147894
0.155482
0.164004
0.173421
0.183813
0.195068
0.207479
0.220787
0.23533
0.250802
0.267573
0.285222
0.304266
0.323977
0.345196
0.36653
0.119348
0.120525
0.122822
0.126094
0.130255
0.13532
0.141192
0.147982
0.155572
0.164139
0.173501
0.183895
0.195138
0.207524
0.220796
0.235288
0.250683
0.267359
0.284872
0.303746
0.323225
0.344167
0.365122
0.119402
0.12058
0.122879
0.126155
0.13032
0.135389
0.141264
0.148058
0.155636
0.164208
0.173569
0.183952
0.195175
0.20753
0.220753
0.235181
0.250481
0.26704
0.284387
0.303057
0.322259
0.34287
0.363377
0.119448
0.120628
0.122929
0.126208
0.130376
0.135448
0.141326
0.148123
0.155704
0.164263
0.173617
0.183982
0.195181
0.207495
0.22066
0.23501
0.250196
0.266615
0.283768
0.302199
0.321079
0.341308
0.361295
0.119487
0.120668
0.122972
0.126253
0.130424
0.135499
0.141377
0.148175
0.155768
0.164302
0.173643
0.183987
0.195154
0.207419
0.220515
0.234773
0.249829
0.266087
0.283016
0.301174
0.319687
0.339481
0.358882
0.119519
0.120701
0.123006
0.12629
0.130463
0.13554
0.141418
0.148211
0.155804
0.164326
0.173649
0.183967
0.195094
0.207304
0.220319
0.234473
0.24938
0.265454
0.282132
0.299983
0.318084
0.337394
0.35614
0.119544
0.120727
0.123034
0.126319
0.130494
0.135571
0.141448
0.148226
0.155826
0.164333
0.173635
0.183922
0.195004
0.207149
0.220072
0.234108
0.24885
0.264718
0.281116
0.298627
0.316272
0.335048
0.353073
0.119563
0.120746
0.123053
0.12634
0.130516
0.135594
0.141468
0.148235
0.155832
0.164323
0.1736
0.183851
0.194881
0.206954
0.219776
0.233679
0.248238
0.26388
0.279969
0.297108
0.314254
0.332446
0.349686
0.119574
0.120758
0.123066
0.126353
0.13053
0.135607
0.141479
0.148281
0.155823
0.164296
0.173546
0.183755
0.194727
0.206719
0.219429
0.233187
0.247546
0.26294
0.278693
0.295426
0.312031
0.329591
0.345984
0.119578
0.120762
0.12307
0.126358
0.130535
0.135612
0.141477
0.14827
0.155801
0.164253
0.173471
0.183634
0.194542
0.206446
0.219032
0.232632
0.246773
0.261898
0.277287
0.293583
0.309605
0.326488
0.341971
0.119575
0.120759
0.123068
0.126355
0.130532
0.135607
0.141463
0.14825
0.155766
0.164193
0.173376
0.183489
0.194326
0.206133
0.218586
0.232015
0.245921
0.260757
0.275754
0.291582
0.30698
0.323139
0.337654
0.119565
0.120749
0.123058
0.126345
0.13052
0.135593
0.141429
0.148219
0.155718
0.164118
0.173261
0.183319
0.19408
0.205782
0.218091
0.231335
0.244989
0.259515
0.274095
0.289423
0.304157
0.319548
0.333037
0.119548
0.120732
0.12304
0.126327
0.130501
0.135572
0.141365
0.148174
0.155655
0.164025
0.173127
0.183124
0.193802
0.205392
0.217548
0.230594
0.24398
0.258176
0.272311
0.28711
0.30114
0.31572
0.328127
0.119524
0.120708
0.123016
0.126301
0.130473
0.135544
0.141457
0.148117
0.15558
0.163917
0.172973
0.182906
0.193495
0.204964
0.216956
0.229791
0.242892
0.256738
0.270403
0.284643
0.29793
0.311659
0.322931
0.119493
0.120677
0.122984
0.126268
0.130437
0.135505
0.141379
0.148049
0.155491
0.163793
0.1728
0.182663
0.193158
0.204498
0.216316
0.228928
0.241728
0.255203
0.268372
0.282024
0.294532
0.307369
0.317456
0.119456
0.120639
0.122945
0.126227
0.130393
0.135457
0.141311
0.147971
0.155389
0.163653
0.172608
0.182397
0.192791
0.203994
0.215629
0.228004
0.240487
0.253573
0.266221
0.279257
0.290948
0.302854
0.311708
0.119411
0.120594
0.122899
0.126179
0.130341
0.135394
0.141239
0.147882
0.155274
0.163498
0.172397
0.182107
0.192394
0.203453
0.214895
0.227021
0.239171
0.251848
0.263949
0.276342
0.287182
0.298121
0.305696
0.11936
0.120543
0.122846
0.126123
0.130282
0.135304
0.141156
0.147781
0.155145
0.163327
0.172167
0.181794
0.191969
0.202875
0.214115
0.225978
0.23778
0.250028
0.26156
0.273283
0.283236
0.293173
0.299426
0.119303
0.120484
0.122785
0.12606
0.130216
0.135256
0.141061
0.14767
0.155005
0.16314
0.171919
0.181457
0.191515
0.202261
0.213289
0.224876
0.236316
0.248116
0.259055
0.270082
0.279114
0.288017
0.292906
0.119238
0.120419
0.122718
0.12599
0.130141
0.135159
0.140958
0.147548
0.154851
0.162939
0.171652
0.181098
0.191032
0.20161
0.212417
0.223717
0.234779
0.246112
0.256435
0.266741
0.274819
0.282657
0.286145
0.119167
0.120348
0.122644
0.125913
0.130056
0.135064
0.140848
0.147416
0.154685
0.162723
0.171368
0.180717
0.190521
0.200924
0.2115
0.2225
0.23317
0.244017
0.253702
0.263262
0.270355
0.277099
0.279151
0.119089
0.120269
0.122563
0.125829
0.129959
0.134964
0.140728
0.147273
0.154507
0.162492
0.171065
0.180313
0.189983
0.200202
0.210539
0.221226
0.23149
0.241832
0.250857
0.259648
0.265726
0.271349
0.271931
0.119005
0.120184
0.122476
0.125738
0.129862
0.134854
0.1406
0.14712
0.154317
0.162247
0.170745
0.179887
0.189417
0.199446
0.209534
0.219895
0.229739
0.239558
0.247904
0.255901
0.260934
0.265413
0.264494
0.118914
0.120093
0.122382
0.125641
0.129776
0.134736
0.140463
0.146957
0.154114
0.161987
0.170407
0.17944
0.188824
0.198654
0.208485
0.218509
0.22792
0.237197
0.244844
0.252024
0.255983
0.259296
0.256848
0.118817
0.119995
0.122281
0.125534
0.129658
0.13461
0.140318
0.146783
0.153901
0.161714
0.170052
0.178971
0.188204
0.197829
0.207394
0.217067
0.226033
0.234748
0.241678
0.248018
0.250878
0.253006
0.248999
0.118714
0.119891
0.122175
0.125416
0.129535
0.134476
0.140164
0.1466
0.153675
0.161427
0.169681
0.178481
0.187557
0.19697
0.20626
0.215571
0.224078
0.232214
0.238409
0.243887
0.245621
0.246548
0.240956
0.118604
0.119781
0.122062
0.12531
0.129406
0.134336
0.140002
0.146408
0.153439
0.161126
0.169292
0.177971
0.186885
0.196077
0.205084
0.214021
0.222056
0.229595
0.235039
0.239631
0.240217
0.239929
0.232724
0.118488
0.119665
0.121941
0.125184
0.129272
0.134187
0.139832
0.146206
0.153191
0.160812
0.168888
0.17744
0.186186
0.195152
0.203866
0.212418
0.219969
0.226892
0.231571
0.235253
0.23467
0.233154
0.224308
0.118366
0.119542
0.121813
0.125049
0.12913
0.134032
0.139654
0.145994
0.152932
0.160485
0.168467
0.176889
0.185463
0.194194
0.202607
0.210762
0.217818
0.224106
0.228006
0.230755
0.228985
0.22623
0.215713
0.118237
0.119414
0.121687
0.12491
0.128982
0.133869
0.139467
0.145774
0.152663
0.160145
0.168031
0.176318
0.184714
0.193205
0.201308
0.209054
0.215601
0.221238
0.224345
0.226136
0.223164
0.219159
0.118103
0.119279
0.121548
0.124766
0.128828
0.133698
0.139272
0.145543
0.152381
0.15979
0.167576
0.175725
0.183936
0.192179
0.199963
0.20729
0.213317
0.218284
0.220587
0.221395
0.217213
0.211946
0.117963
0.119139
0.121402
0.124615
0.128666
0.13352
0.139069
0.145302
0.152088
0.159421
0.167104
0.175109
0.183131
0.191118
0.198575
0.205472
0.210967
0.21525
0.21674
0.216542
0.211148
0.204604
0.117817
0.118996
0.121253
0.124462
0.128504
0.133342
0.138868
0.145066
0.151802
0.159061
0.166641
0.174504
0.182335
0.190065
0.197189
0.203649
0.208601
0.212186
0.212848
0.211614
0.204999
0.197161
0.117665
0.118845
0.121102
0.124308
0.128344
0.133172
0.138679
0.144848
0.151539
0.158731
0.166214
0.173939
0.181581
0.189051
0.195835
0.201842
0.206227
0.209076
0.208867
0.206532
0.198645
0.189458
0.117507
0.118684
0.120932
0.124126
0.128142
0.132943
0.138412
0.144527
0.151144
0.158235
0.165584
0.173125
0.18053
0.187686
0.194074
0.199565
0.203329
0.205385
0.204286
0.200806
0.191731
0.109638
0.110645
0.112555
0.11525
0.118622
0.122628
0.12715
0.132165
0.137522
0.143181
0.148923
0.154672
0.160086
0.165048
0.169015
0.171869
0.172728
0.17166
0.167084
0.159942
0.14661
0.109983
0.110995
0.112921
0.115641
0.119047
0.123099
0.127684
0.132781
0.138243
0.144042
0.149962
0.155943
0.161649
0.166988
0.171419
0.174865
0.176424
0.17624
0.172641
0.166754
0.15473
0.14147
0.110321
0.111334
0.113268
0.116002
0.11943
0.123515
0.128142
0.133299
0.138841
0.144747
0.150808
0.156978
0.162929
0.168592
0.173433
0.177411
0.179621
0.180269
0.177638
0.172974
0.162341
0.150573
0.110655
0.111669
0.113614
0.116364
0.119817
0.123936
0.12861
0.133829
0.139455
0.145471
0.151676
0.158036
0.164231
0.170209
0.175447
0.179935
0.182765
0.184202
0.182493
0.178977
0.169685
0.159341
0.110984
0.112001
0.113956
0.116724
0.120203
0.124358
0.129081
0.134365
0.140075
0.146204
0.152554
0.159104
0.165539
0.171832
0.17746
0.182449
0.185887
0.188097
0.187293
0.184893
0.176932
0.167991
0.111308
0.112328
0.114294
0.117079
0.120583
0.124775
0.129545
0.134893
0.140686
0.146925
0.153416
0.160152
0.166823
0.173422
0.179432
0.184913
0.188948
0.191914
0.192007
0.190696
0.184067
0.176507
0.111627
0.11265
0.114627
0.117429
0.120959
0.125185
0.130002
0.135412
0.141286
0.147632
0.154261
0.161178
0.168079
0.174977
0.18136
0.187321
0.191939
0.195645
0.196623
0.196375
0.191068
0.184871
0.111941
0.112965
0.114955
0.117774
0.121329
0.125589
0.130451
0.135924
0.141876
0.148328
0.155092
0.162185
0.16931
0.1765
0.183247
0.189675
0.194866
0.199292
0.201141
0.201928
0.197929
0.193081
0.180096
0.112249
0.113277
0.115277
0.118113
0.121693
0.125988
0.130895
0.136427
0.142458
0.149012
0.155907
0.163173
0.170517
0.177991
0.185093
0.191977
0.197727
0.202854
0.205561
0.207358
0.204647
0.201137
0.189954
0.112552
0.113583
0.115595
0.118448
0.122051
0.12638
0.131331
0.136922
0.143029
0.149684
0.156707
0.164142
0.1717
0.17945
0.186898
0.194226
0.200522
0.206331
0.209881
0.212661
0.211219
0.209034
0.199617
0.112849
0.113885
0.115907
0.118777
0.122404
0.126766
0.13176
0.137409
0.14359
0.150343
0.157492
0.165091
0.172856
0.180877
0.188661
0.196421
0.20325
0.209721
0.214098
0.217837
0.217639
0.216764
0.209083
0.113141
0.11418
0.116215
0.1191
0.122751
0.127145
0.132182
0.137887
0.144141
0.15099
0.158261
0.16602
0.173987
0.18227
0.190382
0.19856
0.205911
0.213025
0.218211
0.222885
0.223903
0.224323
0.218346
0.113428
0.11447
0.116518
0.119418
0.123092
0.127518
0.132596
0.138357
0.144681
0.151624
0.159014
0.166929
0.175092
0.183629
0.192061
0.200645
0.208503
0.21624
0.222217
0.227802
0.23001
0.231704
0.2274
0.113708
0.114755
0.116814
0.11973
0.123426
0.127883
0.133002
0.138818
0.145211
0.152245
0.15975
0.167816
0.176171
0.184955
0.193696
0.202674
0.211026
0.219367
0.226115
0.232586
0.235953
0.238901
0.236238
0.113983
0.115033
0.117096
0.120036
0.123754
0.128242
0.133401
0.139269
0.14573
0.152852
0.16047
0.168683
0.177222
0.186246
0.195288
0.204646
0.213478
0.222404
0.229902
0.237236
0.241732
0.245908
0.244853
0.114251
0.115307
0.117382
0.120336
0.124076
0.128594
0.133791
0.139711
0.146237
0.153446
0.161173
0.169528
0.178247
0.187502
0.196835
0.206561
0.215859
0.22535
0.233576
0.241748
0.247341
0.25272
0.253236
0.114514
0.115574
0.117661
0.120629
0.124391
0.128938
0.134173
0.140144
0.146733
0.154026
0.161859
0.170352
0.179245
0.188723
0.198339
0.208419
0.218168
0.228205
0.237137
0.246121
0.252778
0.259329
0.261381
0.114771
0.115835
0.117933
0.120916
0.124699
0.129275
0.134547
0.140566
0.147218
0.154592
0.162527
0.171154
0.180214
0.189909
0.199797
0.210218
0.220404
0.230966
0.240582
0.250352
0.258039
0.265732
0.26928
0.115022
0.116091
0.118198
0.121197
0.125001
0.129605
0.134912
0.140979
0.147691
0.155144
0.163178
0.171933
0.181156
0.191058
0.201209
0.211959
0.222566
0.233635
0.243909
0.25444
0.263122
0.271922
0.276924
0.115266
0.11634
0.118457
0.121471
0.125295
0.129927
0.135269
0.141382
0.148152
0.155681
0.16381
0.17269
0.182069
0.192171
0.202576
0.213641
0.224654
0.236209
0.247118
0.258382
0.268023
0.277895
0.284306
0.115505
0.116583
0.11871
0.121739
0.125583
0.13024
0.135617
0.141775
0.148601
0.156203
0.164425
0.173424
0.182954
0.193247
0.203896
0.215263
0.226666
0.238687
0.250206
0.262175
0.272739
0.283646
0.291419
0.115736
0.11682
0.118957
0.122
0.125863
0.130546
0.135956
0.142157
0.149038
0.156711
0.165021
0.174135
0.18381
0.194287
0.205169
0.216825
0.228602
0.24107
0.253172
0.265818
0.277267
0.28917
0.298256
0.115962
0.117051
0.119197
0.122254
0.126136
0.130844
0.136285
0.142529
0.149462
0.157203
0.165599
0.174823
0.184636
0.195288
0.206395
0.218327
0.230461
0.243355
0.256015
0.269308
0.281603
0.294462
0.304809
0.116181
0.117275
0.11943
0.122501
0.126401
0.131134
0.136606
0.14289
0.149873
0.15768
0.166158
0.175487
0.185433
0.196252
0.207573
0.219767
0.232242
0.245542
0.258733
0.272644
0.285747
0.299519
0.311072
0.116394
0.117492
0.119656
0.122741
0.126659
0.131415
0.136917
0.14324
0.150272
0.158142
0.166698
0.176127
0.1862
0.197179
0.208703
0.221146
0.233945
0.24763
0.261326
0.275824
0.289694
0.304335
0.317038
0.1166
0.117703
0.119876
0.122974
0.126909
0.131688
0.137218
0.143579
0.150657
0.158587
0.167218
0.176743
0.186937
0.198066
0.209784
0.222463
0.235568
0.249618
0.263792
0.278845
0.293441
0.308908
0.322702
0.1168
0.117908
0.120089
0.123199
0.127151
0.131952
0.13751
0.143907
0.15103
0.159017
0.167719
0.177335
0.187644
0.198916
0.210816
0.223717
0.237112
0.251506
0.266129
0.281707
0.296988
0.313233
0.328058
0.116993
0.118106
0.120295
0.123418
0.127385
0.132208
0.137793
0.144224
0.151389
0.159431
0.168201
0.177903
0.18832
0.199726
0.211799
0.224909
0.238576
0.253293
0.268337
0.284408
0.30033
0.317306
0.333101
0.117179
0.118297
0.120494
0.123629
0.127612
0.132455
0.138065
0.144529
0.151735
0.159829
0.168663
0.178446
0.188965
0.200497
0.212733
0.226037
0.239958
0.254977
0.270415
0.286945
0.303467
0.321126
0.337825
0.117358
0.118481
0.120686
0.123832
0.12783
0.132693
0.138327
0.144823
0.152068
0.160211
0.169104
0.178964
0.18958
0.201229
0.213616
0.227102
0.24126
0.256559
0.272362
0.289319
0.306396
0.324688
0.342226
0.117531
0.118658
0.120871
0.124028
0.12804
0.132922
0.13858
0.145105
0.152387
0.160576
0.169526
0.179457
0.190163
0.201922
0.214449
0.228103
0.242479
0.258037
0.274177
0.291527
0.309115
0.32799
0.346301
0.117697
0.118828
0.121049
0.124216
0.128242
0.133142
0.138822
0.145376
0.152692
0.160924
0.169928
0.179925
0.190714
0.202575
0.215231
0.22904
0.243616
0.259411
0.275859
0.293568
0.311622
0.33103
0.350044
0.117856
0.118991
0.121218
0.124397
0.128436
0.133353
0.139054
0.145635
0.152983
0.161256
0.170309
0.180368
0.191234
0.203188
0.215963
0.229913
0.244671
0.260681
0.277408
0.295441
0.313916
0.333804
0.353454
0.118008
0.119148
0.121381
0.12457
0.128622
0.133555
0.139275
0.145882
0.15326
0.161571
0.170669
0.180785
0.191723
0.203761
0.216643
0.230721
0.245642
0.261846
0.278823
0.297146
0.315996
0.336311
0.356526
0.118153
0.119297
0.121538
0.124735
0.128799
0.133747
0.139487
0.146116
0.153524
0.161869