/*--------------------------------*- C++ -*----------------------------------*\
  =========                 |
  \\      /  F ield         | OpenFOAM: The Open Source CFD Toolbox
   \\    /   O peration     | Website:  https://openfoam.org
    \\  /    A nd           | Version:  7
     \\/     M anipulation  |
\*---------------------------------------------------------------------------*/
FoamFile
{
    version     2.0;
    format      ascii;
    class       surfaceScalarField;
    location    "120";
    object      phi;
}
// * * * * * * * * * * * * * * * * * * * * * * * * * * * * * * * * * * * * * //

dimensions      [0 3 -1 0 0 0 0];

internalField   nonuniform List<scalar> 
13975
(
2.97987e-06
-3.50052e-05
-0.000123474
3.09899e-06
-3.81042e-05
1.2493e-05
-0.000132868
2.84423e-05
-0.000249117
-0.000386846
3.21672e-06
-4.13209e-05
1.29119e-05
-0.000142563
2.92935e-05
-0.000265499
5.24275e-05
-0.00040998
8.21472e-05
-0.000574875
0.00011798
-0.000757926
-0.000955741
3.33264e-06
-4.46536e-05
1.33197e-05
-0.000152551
3.01129e-05
-0.000282292
5.37076e-05
-0.000433575
8.38513e-05
-0.000605018
0.000119974
-0.000794049
0.000161153
-0.00099692
0.000206136
-0.00120887
0.000253408
-0.00142446
-0.00163802
3.44625e-06
-4.80998e-05
1.37146e-05
-0.000162819
3.08965e-05
-0.000299474
5.49129e-05
-0.000457591
8.54226e-05
-0.000635528
0.000121756
-0.000830383
0.000162894
-0.00103806
0.000207496
-0.00125347
0.000253992
-0.00147096
0.000300721
-0.00168475
0.000346088
-0.00188958
0.000388725
-0.00208119
-0.00225668
3.557e-06
-5.16568e-05
1.40948e-05
-0.000173357
3.16405e-05
-0.000317019
5.60373e-05
-0.000481988
8.68528e-05
-0.000666343
0.000123319
-0.000866849
0.00016432
-0.00107906
0.000208437
-0.00129759
0.000254053
-0.00151657
0.000299501
-0.00173019
0.000343225
-0.00193331
0.000383933
-0.0021219
0.000420696
-0.00229345
0.000453001
-0.00244697
0.000480732
-0.00258293
0.000504108
-0.00270295
-0.00280943
3.66434e-06
-5.53212e-05
1.44583e-05
-0.000184151
3.23411e-05
-0.000334902
5.70749e-05
-0.000506722
8.81342e-05
-0.000697403
0.000124653
-0.000903367
0.000165423
-0.00111983
0.000208955
-0.00134112
0.000253595
-0.00156121
0.000297681
-0.00177428
0.000339706
-0.00197533
0.00037846
-0.00216065
0.00041312
-0.00232811
0.000443281
-0.00247713
0.000468923
-0.00260857
0.000490344
-0.00272437
0.000508053
-0.00282714
0.000522678
-0.00291977
0.000534869
-0.00300513
0.000545238
-0.00308577
-0.00316385
3.76779e-06
-5.9089e-05
1.48033e-05
-0.000195186
3.29948e-05
-0.000353094
5.80204e-05
-0.000531748
8.92603e-05
-0.000728643
0.000125751
-0.000939858
0.000166199
-0.00116028
0.00020905
-0.00138398
0.000252624
-0.00160479
0.000295276
-0.00181693
0.000335556
-0.00201561
0.000372342
-0.00219744
0.000404917
-0.00236068
0.00043298
-0.00250519
0.000456603
-0.0026322
0.000476147
-0.00274392
0.000492163
-0.00284316
0.000505288
-0.0029329
0.000516163
-0.003016
0.000525373
-0.00309498
0.000533411
-0.00317189
0.000540662
-0.00324829
0.000547404
-0.00332525
0.000553827
-0.00340341
-0.00348303
0.000560044
3.86687e-06
-6.29558e-05
1.51283e-05
-0.000206448
3.35984e-05
-0.000371564
5.88689e-05
-0.000557018
9.02252e-05
-0.000759999
0.000126609
-0.000976243
0.000166645
-0.00120031
0.000208724
-0.00142605
0.000251151
-0.00164721
0.000292306
-0.00185809
0.000330804
-0.00205411
0.000365617
-0.00223225
0.000396133
-0.0023912
0.00042215
-0.00253121
0.000443823
-0.00265387
0.00046157
-0.00276167
0.000475973
-0.00285756
0.000487672
-0.0029446
0.000497295
-0.00302562
0.000505399
-0.00310308
0.000512444
-0.00317893
0.000518781
-0.00325463
0.00052466
-0.00333113
0.000530246
-0.003409
-0.00348842
0.000535635
3.96113e-06
-6.69169e-05
1.54317e-05
-0.000217918
3.41487e-05
-0.000390281
5.96159e-05
-0.000582485
9.10237e-05
-0.000791407
0.000127222
-0.00101244
0.000166759
-0.00123985
0.000207982
-0.00146728
0.000249187
-0.00168842
0.00028879
-0.00189769
0.000325481
-0.0020908
0.000358325
-0.0022651
0.000386813
-0.00241968
0.000410839
-0.00255523
0.000430632
-0.00267366
0.000446661
-0.00277769
0.000459526
-0.00287042
0.000469869
-0.00295494
0.000478297
-0.00303405
0.00048534
-0.00311013
0.000491425
-0.00318502
0.000496871
-0.00326007
0.000501901
-0.00333616
0.000506657
-0.00341375
-0.00349298
0.00051122
4.05013e-06
-7.09671e-05
1.57119e-05
-0.00022958
3.4643e-05
-0.000409212
6.02576e-05
-0.0006081
9.16518e-05
-0.000822801
0.000127587
-0.00104838
0.000166543
-0.0012788
0.000206828
-0.00150756
0.000246744
-0.00172834
0.000284752
-0.0019357
0.000319618
-0.00212566
0.000350504
-0.00229598
0.000377002
-0.00244618
0.000399095
-0.00257733
0.000417078
-0.00269165
0.000431462
-0.00279208
0.000442862
-0.00288182
0.000451912
-0.00296399
0.000459198
-0.00304134
0.000465221
-0.00311615
0.000470373
-0.00319017
0.000474947
-0.00326464
0.000479137
-0.00334035
0.000483069
-0.00341769
-0.00349672
0.000486808
4.13346e-06
-7.51005e-05
1.59676e-05
-0.000241414
3.50787e-05
-0.000428323
6.07906e-05
-0.000633812
9.21062e-05
-0.000854117
0.000127703
-0.00108397
0.000165997
-0.0013171
0.000205272
-0.00154684
0.00024384
-0.0017669
0.000280216
-0.00197207
0.000313246
-0.00215869
0.000342193
-0.00232493
0.000366743
-0.00247073
0.000386961
-0.00259754
0.000403205
-0.00270789
0.000416015
-0.00280489
0.000426017
-0.00289183
0.000433832
-0.00297181
0.000440023
-0.00304753
0.000445059
-0.00312119
0.000449304
-0.00319442
0.00045302
-0.00326836
0.000456381
-0.00334371
0.000459492
-0.0034208
-0.00349963
0.000462407
4.21072e-06
-7.93113e-05
1.61975e-05
-0.000253401
3.54537e-05
-0.000447579
6.12121e-05
-0.00065957
9.23847e-05
-0.000885289
0.000127569
-0.00111916
0.000165127
-0.00135466
0.000203323
-0.00158503
0.000240492
-0.00180407
0.000275206
-0.00200679
0.000306399
-0.00218989
0.00033343
-0.00235196
0.000356077
-0.00249338
0.000374482
-0.00261595
0.000389053
-0.00272246
0.000400358
-0.00281619
0.000409023
-0.00290049
0.000415656
-0.00297844
0.000420794
-0.00305267
0.000424875
-0.00312527
0.000428233
-0.00319777
0.000431104
-0.00327123
0.00043364
-0.00334625
0.000435933
-0.00342309
-0.00350172
0.000438024
4.28153e-06
-8.35928e-05
1.64005e-05
-0.00026552
3.57659e-05
-0.000466944
6.15199e-05
-0.000685324
9.24856e-05
-0.000916255
0.000127186
-0.00115386
0.000163937
-0.00139141
0.000200992
-0.00162209
0.000236717
-0.0018398
0.000269749
-0.00203982
0.000299109
-0.00221925
0.000324252
-0.0023771
0.000345044
-0.00251417
0.000361696
-0.0026326
0.000374661
-0.00273543
0.000384524
-0.00282606
0.00039191
-0.00290788
0.00039741
-0.00298394
0.000401531
-0.00305679
0.000404682
-0.00312842
0.00040717
-0.00320026
0.000409207
-0.00327327
0.000410924
-0.00334797
0.0004124
-0.00342457
-0.00350299
0.000413667
4.34554e-06
-8.79383e-05
1.65755e-05
-0.00027775
3.60136e-05
-0.000486383
6.17122e-05
-0.000711023
9.24085e-05
-0.000946951
0.000126557
-0.00118801
0.000162434
-0.00142728
0.000198292
-0.00165795
0.000232535
-0.00187404
0.00026387
-0.00207116
0.000291409
-0.00224679
0.000314696
-0.00240039
0.000333683
-0.00253316
0.000348642
-0.00264756
0.000360063
-0.00274685
0.000368545
-0.00283454
0.000374706
-0.00291404
0.000379114
-0.00298835
0.000382251
-0.00305993
0.000384497
-0.00313066
0.000386129
-0.00320189
0.000387339
-0.00327448
0.000388241
-0.00334887
0.000388901
-0.00342523
-0.00350343
0.000389343
4.4031e-06
-9.23414e-05
1.67229e-05
-0.00029007
3.61976e-05
-0.000505857
6.17906e-05
-0.000736616
9.2157e-05
-0.000977318
0.000125689
-0.00122154
0.00016063
-0.00146223
0.000195242
-0.00169256
0.000227973
-0.00190677
0.000257604
-0.00210079
0.000283335
-0.00227252
0.000304803
-0.00242186
0.000322036
-0.00255039
0.000335361
-0.00266089
0.000345299
-0.00275678
0.000352457
-0.0028417
0.00035744
-0.00291902
0.000360796
-0.0029917
0.000362978
-0.00306211
0.000364336
-0.00313202
0.000365126
-0.00320268
0.000365515
-0.00327487
0.000365604
-0.00334896
0.000365448
-0.00342507
-0.00350305
0.000365064
4.45265e-06
-9.67941e-05
1.68394e-05
-0.000302456
3.63128e-05
-0.000525331
6.17491e-05
-0.000762052
9.17253e-05
-0.00100729
0.000124577
-0.00125439
0.000158526
-0.00149617
0.000191847
-0.00172588
0.00022304
-0.00193796
0.000250964
-0.00212871
0.000274908
-0.00229646
0.000294596
-0.00244155
0.000310125
-0.00256592
0.000321874
-0.00267263
0.000330386
-0.0027653
0.000336272
-0.00284758
0.000340123
-0.00292287
0.000342461
-0.00299404
0.000343712
-0.00306336
0.000344201
-0.00313251
0.000344156
-0.00320264
0.00034373
-0.00327444
0.000343009
-0.00334824
0.000342037
-0.0034241
-0.00350184
0.000340826
4.49457e-06
-0.000101289
1.69256e-05
-0.000314887
3.63603e-05
-0.000544765
6.15902e-05
-0.000787282
9.11186e-05
-0.00103682
0.000123232
-0.0012865
0.000156135
-0.00152908
0.000188127
-0.00175787
0.000217764
-0.0019676
0.000243983
-0.00215493
0.000266164
-0.00231864
0.000284111
-0.0024595
0.000297989
-0.0025798
0.000308217
-0.00268286
0.000315359
-0.00277244
0.000320021
-0.00285224
0.000322779
-0.00292563
0.000324131
-0.00299539
0.000324474
-0.0030637
0.000324106
-0.00313214
0.000323236
-0.00320177
0.000321998
-0.0032732
0.000320468
-0.00334671
0.00031868
-0.00342231
-0.0034998
0.00031664
4.52863e-06
-0.000105817
1.69808e-05
-0.00032734
3.63397e-05
-0.000564124
6.13143e-05
-0.000812257
9.03394e-05
-0.00106585
0.000121658
-0.00131782
0.000153469
-0.00156089
0.000184099
-0.0017885
0.000212165
-0.00199567
0.000236688
-0.00217945
0.000257132
-0.00233909
0.000273381
-0.00247574
0.000285658
-0.00259208
0.000294419
-0.00269162
0.000300241
-0.00277826
0.000303725
-0.00285573
0.000305428
-0.00292733
0.00030582
-0.00299578
0.000305274
-0.00306316
0.000304062
-0.00313093
0.000302373
-0.00320008
0.000300326
-0.00327116
0.000297987
-0.00334437
0.000295382
-0.00341971
-0.00349693
0.000292514
4.55463e-06
-0.000110372
1.70048e-05
-0.00033979
3.62508e-05
-0.00058337
6.09223e-05
-0.000836928
8.93907e-05
-0.00109432
0.000119864
-0.0013483
0.000150538
-0.00159156
0.000179778
-0.00181774
0.000206267
-0.00202216
0.000229105
-0.00220229
0.000247842
-0.00235782
0.000262435
-0.00249034
0.000273161
-0.0026028
0.000280507
-0.00269897
0.000285058
-0.00278281
0.000287405
-0.00285808
0.000288084
-0.00292801
0.000287542
-0.00299524
0.000286122
-0.00306174
0.000284076
-0.00312888
0.000281574
-0.00319758
0.00027872
-0.0032683
0.000275572
-0.00334122
0.00027215
-0.00341628
-0.00349323
0.000268451
4.5724e-06
-0.000114944
1.69972e-05
-0.000352215
3.60935e-05
-0.000602467
6.04155e-05
-0.00086125
8.82765e-05
-0.00112218
0.000117855
-0.00137787
0.000147356
-0.00162106
0.000175183
-0.00184557
0.000200089
-0.00204706
0.000221258
-0.00222346
0.00023832
-0.00237489
0.0002513
-0.00250332
0.000260525
-0.00261203
0.000266505
-0.00270495
0.000269829
-0.00278613
0.000271077
-0.00285932
0.000270763
-0.0029277
0.000269308
-0.00299379
0.000267029
-0.00305946
0.000264157
-0.00312601
0.000260845
-0.00319427
0.000257186
-0.00326464
0.000253228
-0.00333726
0.000248988
-0.00341204
-0.0034887
0.000244459
4.5818e-06
-0.000119526
1.69579e-05
-0.000364591
3.58684e-05
-0.000621377
5.97957e-05
-0.000885178
8.70009e-05
-0.00114938
0.000115641
-0.00140651
0.000143933
-0.00164936
0.00017033
-0.00187196
0.000193655
-0.00207039
0.000213173
-0.00224298
0.000228592
-0.00239031
0.000240003
-0.00251473
0.000247773
-0.0026198
0.000252434
-0.00270961
0.000254574
-0.00278827
0.000254758
-0.00285951
0.000253478
-0.00292642
0.000251128
-0.00299144
0.000248002
-0.00305633
0.000244311
-0.00312232
0.000240193
-0.00319015
0.00023573
-0.00326018
0.000230962
-0.00333249
0.000225903
-0.00340698
-0.00348334
0.000220543
4.58275e-06
-0.000124109
1.68869e-05
-0.000376895
3.5576e-05
-0.000640066
5.9065e-05
-0.000908667
8.55687e-05
-0.00117589
0.000113229
-0.00143417
0.000140284
-0.00167641
0.000165237
-0.00189692
0.000186984
-0.00209213
0.000204872
-0.00226086
0.000218684
-0.00240412
0.000228569
-0.00252461
0.00023493
-0.00262616
0.000238316
-0.00271299
0.00023931
-0.00278927
0.000238462
-0.00285866
0.00023624
-0.0029242
0.000233012
-0.00298821
0.00022905
-0.00305237
0.000224546
-0.00311782
0.000219624
-0.00318522
0.000214356
-0.00325491
0.000208779
-0.00332692
0.0002029
-0.0034011
-0.00347715
0.000196709
4.57518e-06
-0.000128684
1.67842e-05
-0.000389104
3.52171e-05
-0.000658499
5.82259e-05
-0.000931675
8.39853e-05
-0.00120164
0.000110629
-0.00146082
0.000136421
-0.0017022
0.00015992
-0.00192042
0.000180098
-0.00211231
0.000196379
-0.00227715
0.000208619
-0.00241636
0.000217019
-0.00253301
0.000222017
-0.00263116
0.000224169
-0.00271515
0.000224054
-0.00278915
0.000222203
-0.00285681
0.00021906
-0.00292105
0.000214968
-0.00298412
0.00021018
-0.00304758
0.000204867
-0.0031125
0.000199143
-0.0031795
0.000193071
-0.00324884
0.000186683
-0.00332053
0.000179983
-0.0033944
-0.00347013
0.000172961
4.55906e-06
-0.000133243
1.66501e-05
-0.000401195
3.47929e-05
-0.000676642
5.72813e-05
-0.000954164
8.22563e-05
-0.00122662
0.000107849
-0.00148641
0.000132357
-0.00172671
0.000154397
-0.00194246
0.000173016
-0.00213093
0.000187716
-0.00229185
0.000198419
-0.00242706
0.000205377
-0.00253997
0.000209053
-0.00263483
0.00021001
-0.0027161
0.00020882
-0.00278796
0.000205992
-0.00285398
0.000201947
-0.00291701
0.000197006
-0.00297917
0.000191398
-0.00304197
0.000185281
-0.00310639
0.000178755
-0.00317297
0.00017188
-0.00324197
0.00016468
-0.00331333
0.000157159
-0.00338688
-0.00346228
0.000149305
4.53438e-06
-0.000137777
1.64849e-05
-0.000413145
3.43046e-05
-0.000694462
5.62344e-05
-0.000976094
8.03875e-05
-0.00125077
0.0001049
-0.00151092
0.000128105
-0.00174992
0.000148684
-0.00196304
0.000165757
-0.002148
0.000178903
-0.00230499
0.000188106
-0.00243626
0.000193662
-0.00254553
0.000196056
-0.00263723
0.000195856
-0.0027159
0.000193621
-0.00278573
0.000189841
-0.0028502
0.000184911
-0.00291208
0.000179131
-0.00297339
0.00017271
-0.00303555
0.000165792
-0.00309947
0.000158467
-0.00316565
0.000150787
-0.00323429
0.000142775
-0.00330532
0.00013443
-0.00337854
-0.00345359
0.000125746
4.50119e-06
-0.000142279
1.6289e-05
-0.000424933
3.37537e-05
-0.000711926
5.50886e-05
-0.000997429
7.83852e-05
-0.00127407
0.00010179
-0.00153433
0.000123679
-0.0017718
0.000142798
-0.00198215
0.000158341
-0.00216355
0.00016996
-0.00231661
0.000177699
-0.002444
0.000181892
-0.00254972
0.000183043
-0.00263838
0.000181721
-0.00271458
0.000178469
-0.00278248
0.000173758
-0.00284549
0.00016796
-0.00290628
0.000161351
-0.00296679
0.000154123
-0.00302833
0.000146406
-0.00309175
0.000138282
-0.00315752
0.000129797
-0.0032258
0.000120971
-0.00329649
0.000111803
-0.00336937
-0.00344408
0.000102287
4.45954e-06
-0.000146738
1.6063e-05
-0.000436537
3.3142e-05
-0.000729005
5.38476e-05
-0.00101813
7.62559e-05
-0.00129648
9.85305e-05
-0.0015566
0.000119092
-0.00179237
0.000136754
-0.00199982
0.000150785
-0.00217758
0.000160907
-0.00232673
0.000167217
-0.00245031
0.000170085
-0.00255259
0.00017003
-0.00263832
0.000167617
-0.00271217
0.000163376
-0.00277823
0.000157753
-0.00283987
0.000151101
-0.00289963
0.000143671
-0.00295936
0.000135642
-0.0030203
0.000127128
-0.00308324
0.000118205
-0.0031486
0.000108915
-0.00321651
9.92748e-05
-0.00328685
8.9281e-05
-0.00335938
-0.00343373
7.89332e-05
4.40953e-06
-0.000151148
1.58075e-05
-0.000447935
3.24712e-05
-0.000745669
5.25151e-05
-0.00103818
7.40061e-05
-0.00131797
9.51297e-05
-0.00157773
0.000114357
-0.00181159
0.000130568
-0.00201603
0.000143107
-0.00219012
0.00015176
-0.00233539
0.000156677
-0.00245523
0.000158257
-0.00255417
0.000157031
-0.0026371
0.000153557
-0.0027087
0.00014835
-0.00277303
0.000141835
-0.00283335
0.00013434
-0.00289213
0.000126098
-0.00295111
0.000117271
-0.00301147
0.000107964
-0.00307393
9.82425e-05
-0.00313888
8.81464e-05
-0.00320642
7.76891e-05
-0.00327639
6.68692e-05
-0.00334856
-0.00342254
5.56845e-05
4.35126e-06
-0.000155499
1.55231e-05
-0.000459106
3.17434e-05
-0.000761889
5.10953e-05
-0.00105753
7.16426e-05
-0.00133852
9.15979e-05
-0.00159768
0.000109486
-0.00182948
0.000124255
-0.0020308
0.000135322
-0.00220118
0.000142536
-0.0023426
0.000146095
-0.00245879
0.000146422
-0.0025545
0.000144058
-0.00263473
0.000139552
-0.00270419
0.000133401
-0.00276688
0.00012601
-0.00282596
0.000117683
-0.00288381
0.000108637
-0.00294207
9.90164e-05
-0.00300185
8.89164e-05
-0.00306383
7.83981e-05
-0.00312836
6.74962e-05
-0.00319551
5.62208e-05
-0.00326512
4.45688e-05
-0.0033369
-0.00341051
3.25388e-05
4.28489e-06
-0.000159784
1.52107e-05
-0.000470032
3.09605e-05
-0.000777639
4.95923e-05
-0.00107616
6.9172e-05
-0.0013581
8.79448e-05
-0.00161645
0.000104491
-0.00184603
0.00011783
-0.00204414
0.000127447
-0.0022108
0.000133253
-0.00234841
0.000135486
-0.00246102
0.000134595
-0.00255361
0.000131124
-0.00263126
0.000125612
-0.00269868
0.000118538
-0.0027598
0.000110285
-0.00281771
0.000101137
-0.00287466
9.12926e-05
-0.00293222
8.0882e-05
-0.00299144
6.99914e-05
-0.00305294
5.86768e-05
-0.00311705
4.69714e-05
-0.00318381
3.48851e-05
-0.00325303
2.23762e-05
-0.0033244
-0.00339757
9.43004e-06
4.21056e-06
-0.000163994
1.48711e-05
-0.000480693
3.01249e-05
-0.000792893
4.80102e-05
-0.00109405
6.66013e-05
-0.00137669
8.41798e-05
-0.00163403
9.93851e-05
-0.00186123
0.000111306
-0.00205606
0.000119496
-0.00221899
0.000123923
-0.00235283
0.000124865
-0.00246196
0.000122788
-0.00255153
0.000118238
-0.00262671
0.000111745
-0.00269219
0.000103767
-0.00275182
9.46663e-05
-0.00280861
8.47071e-05
-0.0028647
7.40696e-05
-0.00292159
6.28724e-05
-0.00298024
5.11928e-05
-0.00304126
3.9082e-05
-0.00310494
2.65729e-05
-0.0031713
1.3695e-05
-0.00324015
5.29206e-07
-0.00331123
-0.00338366
-1.33805e-05
4.12848e-06
-0.000168123
1.45053e-05
-0.00049107
2.92389e-05
-0.000807627
4.63535e-05
-0.00111116
6.39372e-05
-0.00139427
8.03124e-05
-0.00165041
9.41793e-05
-0.0018751
0.000104696
-0.00206657
0.000111483
-0.00222578
0.000114562
-0.00235591
0.000114243
-0.00246164
0.000111013
-0.0025483
0.000105412
-0.00262111
9.79598e-05
-0.00268473
8.90953e-05
-0.00274296
7.91597e-05
-0.00279867
6.83973e-05
-0.00285394
5.69726e-05
-0.00291016
4.49918e-05
-0.00296826
3.25245e-05
-0.00302879
1.96178e-05
-0.00309203
6.30449e-06
-0.00315799
-7.39805e-06
-0.00322645
-2.15408e-05
-0.00329709
-0.00336918
-3.60165e-05
4.03884e-06
-0.000172162
1.41141e-05
-0.000501145
2.83047e-05
-0.000821817
4.46266e-05
-0.00112748
6.11865e-05
-0.00141083
7.63517e-05
-0.00166557
8.88849e-05
-0.00188763
9.80136e-05
-0.0020757
0.000103422
-0.00223119
0.000105181
-0.00235767
0.000103635
-0.0024601
9.9279e-05
-0.00254394
9.26542e-05
-0.00261449
8.42641e-05
-0.00267634
7.45293e-05
-0.00273322
6.37702e-05
-0.00278791
5.22127e-05
-0.00284238
4.00056e-05
-0.00289795
2.72443e-05
-0.0029555
1.39908e-05
-0.00301554
2.89054e-07
-0.00307833
-1.38284e-05
-0.00314387
-2.83462e-05
-0.00321193
-4.32828e-05
-0.00328215
-0.00335387
-5.85917e-05
3.94187e-06
-0.000176104
1.36986e-05
-0.000510902
2.73248e-05
-0.000835444
4.28337e-05
-0.00114299
5.83559e-05
-0.00142635
7.23067e-05
-0.00167952
8.35129e-05
-0.00189884
9.12703e-05
-0.00208346
9.53251e-05
-0.00223524
9.57941e-05
-0.00235814
9.30494e-05
-0.00245735
8.75972e-05
-0.00253849
7.99726e-05
-0.00260686
7.06647e-05
-0.00266703
6.00745e-05
-0.00272263
4.85028e-05
-0.00277634
3.61573e-05
-0.00283004
2.31728e-05
-0.00288497
9.63389e-06
-0.00294196
-4.40411e-06
-0.0030015
-1.89e-05
-0.00306383
-3.38218e-05
-0.00312895
-4.91513e-05
-0.0031966
-6.48919e-05
-0.00326641
-0.00333773
-8.10365e-05
3.8378e-06
-0.000179941
1.32598e-05
-0.000520324
2.63017e-05
-0.000848485
4.09794e-05
-0.00115767
5.5452e-05
-0.00144083
6.81861e-05
-0.00169226
7.80737e-05
-0.00190873
8.44777e-05
-0.00208986
8.72036e-05
-0.00223797
8.64113e-05
-0.00235735
8.24977e-05
-0.00245344
7.59761e-05
-0.00253197
6.73749e-05
-0.00259826
5.71676e-05
-0.00265683
4.5736e-05
-0.0027112
3.33617e-05
-0.00276397
2.02353e-05
-0.00281691
6.47797e-06
-0.00287121
-7.83559e-06
-0.00292765
-2.26562e-05
-0.00298668
-3.79457e-05
-0.00304854
-5.36714e-05
-0.00311322
-6.98114e-05
-0.00318046
-8.63629e-05
-0.00324986
-0.00332075
-0.000103338
3.72688e-06
-0.000183668
1.27988e-05
-0.000529395
2.52379e-05
-0.000860925
3.90679e-05
-0.0011715
5.24812e-05
-0.00145424
6.39983e-05
-0.00170378
7.25771e-05
-0.00191731
7.76466e-05
-0.00209493
7.90686e-05
-0.00223939
7.70433e-05
-0.00235532
7.19891e-05
-0.00244839
6.44239e-05
-0.0025244
5.48678e-05
-0.0025887
4.37785e-05
-0.00264574
3.15187e-05
-0.00269894
1.8351e-05
-0.0027508
4.45026e-06
-0.00280301
-1.00752e-05
-0.00285669
-2.51603e-05
-0.00291256
-4.07618e-05
-0.00297108
-5.68439e-05
-0.00303246
-7.3373e-05
-0.00309669
-9.03236e-05
-0.00316351
-0.000107689
-0.00323249
-0.00330295
-0.000125489
3.60937e-06
-0.000187278
1.23167e-05
-0.000538103
2.41358e-05
-0.000872744
3.71037e-05
-0.00118447
4.94498e-05
-0.00146658
5.97516e-05
-0.00171408
6.70327e-05
-0.00192459
7.07873e-05
-0.00209869
7.09306e-05
-0.00223953
6.76999e-05
-0.00235209
6.15323e-05
-0.00244222
5.2948e-05
-0.00251582
4.24577e-05
-0.00257821
3.05026e-05
-0.00263378
1.74267e-05
-0.00268587
3.47458e-06
-0.00273685
-1.11941e-05
-0.00278834
-2.64833e-05
-0.0028414
-4.23367e-05
-0.00289671
-5.87168e-05
-0.0029547
-7.55903e-05
-0.00301559
-9.29226e-05
-0.00307936
-0.000110684
-0.00314575
-0.000128864
-0.00321431
-0.00328433
-0.000147484
3.48555e-06
-0.000190763
1.18147e-05
-0.000546432
2.29981e-05
-0.000883927
3.50909e-05
-0.00119656
4.63641e-05
-0.00147786
5.54536e-05
-0.00172317
6.14497e-05
-0.00193058
6.39093e-05
-0.00210115
6.27991e-05
-0.00223842
5.839e-05
-0.00234768
5.11352e-05
-0.00243496
4.15552e-05
-0.00250624
3.01502e-05
-0.00256681
1.73446e-05
-0.00262098
3.46398e-06
-0.00267199
-1.1264e-05
-0.00272212
-2.66945e-05
-0.00277291
-4.27428e-05
-0.00282535
-5.9361e-05
-0.00288009
-7.65174e-05
-0.00293754
-9.4181e-05
-0.00299792
-0.000112316
-0.00306122
-0.000130888
-0.00312718
-0.000149882
-0.00319532
-0.000169321
3.35571e-06
-0.000194119
1.12938e-05
-0.00055437
2.1827e-05
-0.00089446
3.30339e-05
-0.00120777
4.323e-05
-0.00148805
5.11121e-05
-0.00173105
5.58365e-05
-0.00193531
5.70219e-05
-0.00210233
5.4683e-05
-0.00223608
4.9122e-05
-0.00234212
4.08052e-05
-0.00242665
3.02518e-05
-0.00249569
1.79504e-05
-0.00255451
4.3087e-06
-0.00260734
-1.03656e-05
-0.00265731
-2.58616e-05
-0.00270662
-4.20478e-05
-0.00275672
-5.88504e-05
-0.00280855
-7.62298e-05
-0.00286271
-9.41597e-05
-0.00291961
-0.000112612
-0.00297947
-0.000131548
-0.00304229
-0.000150931
3.22011e-06
-0.000197339
1.07552e-05
-0.000561905
2.06253e-05
-0.00090433
3.09367e-05
-0.00121808
4.00534e-05
-0.00149717
4.67341e-05
-0.00173773
5.02014e-05
-0.00193877
5.01335e-05
-0.00210226
4.65907e-05
-0.00223254
3.99034e-05
-0.00233543
3.05489e-05
-0.00241729
1.90434e-05
-0.00248418
5.86309e-06
-0.00254133
-8.6011e-06
-0.00259287
-2.4059e-05
-0.00264185
-4.0315e-05
-0.00269037
-5.7251e-05
-0.00273979
-7.4803e-05
-0.002791
-9.29395e-05
-0.00284457
-0.00011164
-0.00290091
-0.000130878
-0.00296023
3.07908e-06
-0.000200418
1.02e-05
-0.000569026
1.93953e-05
-0.000913526
2.88034e-05
-0.00122749
3.68398e-05
-0.00150521
4.23267e-05
-0.00174322
4.45522e-05
-0.001941
4.32521e-05
-0.00210096
3.853e-05
-0.00222782
3.07414e-05
-0.00232764
2.03726e-05
-0.00240692
7.93519e-06
-0.00247174
-6.10751e-06
-0.00252728
-2.13813e-05
-0.0025776
-3.76129e-05
-0.00262562
-5.46216e-05
-0.00267336
-7.23012e-05
-0.00272211
-9.05976e-05
-0.0027727
-0.000109487
-0.00282569
-0.000128954
-0.00288145
2.93288e-06
-0.000203351
9.62942e-06
-0.000575723
1.81393e-05
-0.000922035
2.66378e-05
-0.00123599
3.35946e-05
-0.00151216
3.78965e-05
-0.00174752
3.88962e-05
-0.001942
3.63853e-05
-0.00209845
3.05079e-05
-0.00222194
2.16425e-05
-0.00231878
1.02818e-05
-0.00239556
-3.06814e-06
-0.00245839
-1.79575e-05
-0.00251239
-3.40287e-05
-0.00256153
-5.10245e-05
-0.00260863
-6.87786e-05
-0.00265561
-8.71958e-05
-0.00270369
-0.000106231
-0.00275366
-0.000125868
-0.00280605
2.78184e-06
-0.000206133
9.04453e-06
-0.000581985
1.68599e-05
-0.000929851
2.44439e-05
-0.00124357
3.03231e-05
-0.00151804
3.34496e-05
-0.00175064
3.32402e-05
-0.00194179
2.95401e-05
-0.00209475
2.25312e-05
-0.00221493
1.26126e-05
-0.00230886
2.81845e-07
-0.00238323
-1.39623e-05
-0.00244415
-2.96835e-05
-0.00249667
-4.65403e-05
-0.00254467
-6.42914e-05
-0.00259088
-8.27835e-05
-0.00263711
-0.000101932
-0.00268454
-0.000121701
2.62624e-06
-0.000208759
8.44647e-06
-0.000587806
1.55594e-05
-0.000936964
2.22253e-05
-0.00125024
2.70302e-05
-0.00152285
2.89922e-05
-0.00175261
2.75907e-05
-0.00194039
2.2723e-05
-0.00208989
1.46061e-05
-0.00220682
3.65726e-06
-0.00229791
-9.62306e-06
-0.00236995
-2.47435e-05
-0.00242903
-4.12821e-05
-0.00248014
-5.89134e-05
-0.00252704
-7.7411e-05
-0.00257238
-9.66342e-05
-0.00261789
2.46639e-06
-0.000211225
7.83635e-06
-0.000593176
1.42399e-05
-0.000943367
1.99857e-05
-0.00125598
2.37208e-05
-0.00152658
2.45298e-05
-0.00175342
2.1954e-05
-0.00193781
1.59401e-05
-0.00208387
6.73815e-06
-0.00219761
-5.21856e-06
-0.00228596
-1.94282e-05
-0.00235574
-3.54081e-05
-0.00241305
-5.27505e-05
-0.00246279
-7.11455e-05
-0.00250864
-9.03812e-05
-0.00255314
2.3026e-06
-0.000213528
7.21526e-06
-0.000598088
1.29038e-05
-0.000949056
1.77284e-05
-0.00126081
2.03994e-05
-0.00152925
2.00678e-05
-0.00175308
1.63356e-05
-0.00193408
9.19718e-06
-0.00207673
-1.06658e-06
-0.00218735
-1.40101e-05
-0.00227301
-2.91298e-05
-0.00234062
-4.59529e-05
-0.00239623
-6.40859e-05
-0.00244466
-8.32344e-05
-0.00248949
2.13516e-06
-0.000215663
6.5843e-06
-0.000602537
1.15532e-05
-0.000954025
1.54568e-05
-0.00126471
1.70703e-05
-0.00153087
1.56114e-05
-0.00175163
1.07411e-05
-0.00192921
2.49965e-06
-0.00206849
-8.80527e-06
-0.00217605
-2.27134e-05
-0.0022591
-3.87243e-05
-0.00232461
-5.6375e-05
-0.00237857
-7.52861e-05
-0.00242575
1.96437e-06
-0.000217628
5.9445e-06
-0.000606517
1.01902e-05
-0.000958271
1.31741e-05
-0.00126769
1.37378e-05
-0.00153143
1.11654e-05
-0.00174905
5.17503e-06
-0.00192322
-4.14818e-06
-0.00205917
-1.64714e-05
-0.00216372
-3.13243e-05
-0.00224425
-4.82086e-05
-0.00230773
-6.66717e-05
-0.00236011
1.79056e-06
-0.000219418
5.29693e-06
-0.000610024
8.81687e-06
-0.00096179
1.08834e-05
-0.00126976
1.04058e-05
-0.00153095
6.73479e-06
-0.00174538
-3.50979e-07
-0.00191613
-1.07408e-05
-0.00204878
-2.40617e-05
-0.0021504
-3.98393e-05
-0.00222847
-5.75793e-05
-0.00228999
1.61406e-06
-0.000221032
4.64261e-06
-0.000613052
7.43515e-06
-0.000964583
8.58763e-06
-0.00127091
7.07801e-06
-0.00152944
2.32268e-06
-0.00174063
-5.85127e-06
-0.00190796
-1.72756e-05
-0.00203735
-3.15722e-05
-0.0021361
-4.8255e-05
-0.00221179
-0.00227141
1.43523e-06
-0.000222467
3.98256e-06
-0.0006156
6.047e-06
-0.000966647
6.28976e-06
-0.00127116
3.75781e-06
-0.00152691
-2.06634e-06
-0.0017348
-1.13028e-05
-0.00189872
-2.37473e-05
-0.00202491
-3.89993e-05
-0.00212085
-5.65687e-05
-0.00219422
1.25449e-06
-0.000223722
3.31777e-06
-0.000617663
4.65419e-06
-0.000967984
3.9927e-06
-0.00127049
4.53379e-07
-0.00152337
-6.42905e-06
-0.00172792
-1.67089e-05
-0.00188844
-3.01523e-05
-0.00201147
-4.63399e-05
-0.00210467
1.07199e-06
-0.000224794
2.64918e-06
-0.00061924
3.25857e-06
-0.000968593
1.69812e-06
-0.00126893
-2.84536e-06
-0.00151883
-1.07614e-05
-0.00172
-2.20652e-05
-0.00187714
-3.64874e-05
-0.00199704
8.88105e-07
-0.000225682
1.97768e-06
-0.00062033
1.86183e-06
-0.000968477
-5.89059e-07
-0.00126648
-6.12218e-06
-0.0015133
-1.50595e-05
-0.00171107
-2.73686e-05
-0.00186483
7.0308e-07
-0.000226385
1.3042e-06
-0.000620931
4.65645e-07
-0.000967639
-2.8727e-06
-0.00126314
-9.37894e-06
-0.00150679
-1.93201e-05
-0.00170113
5.16901e-07
-0.000226902
6.294e-07
-0.000621043
-9.29693e-07
-0.00096608
-5.14407e-06
-0.00125893
-1.26122e-05
-0.00149932
-0.0016902
3.28732e-07
-0.000227231
-5.21696e-08
-0.000620662
-2.32204e-06
-0.00096381
-7.40303e-06
-0.00125385
-1.58197e-05
-0.00149091
1.31079e-07
-0.000227362
-7.23299e-07
-0.000619808
-3.70821e-06
-0.000960825
-9.64745e-06
-0.00124791
-6.81246e-08
-0.000227294
-1.40017e-06
-0.000618476
-5.08817e-06
-0.000957137
-0.00124112
-2.4493e-07
-0.000227049
-2.07234e-06
-0.000616649
-6.46038e-06
-0.000952749
-4.31485e-07
-0.000226617
-2.74223e-06
-0.000614338
-6.20417e-07
-0.000225997
-0.000611549
-8.09316e-07
-0.000225188
-0.00022419
0.000236314
0.000237215
-7.0905e-07
0.000237924
0.000645014
-5.16828e-07
0.000238441
0.000647607
-3.25723e-07
0.000238766
-2.43203e-06
0.000649714
0.00100484
-1.42849e-07
0.000238909
-1.7507e-06
0.000651321
-5.91884e-06
0.001009
0.00130902
4.64794e-08
0.000238863
-1.06518e-06
0.000652433
-4.52303e-06
0.00101246
0.00131564
2.56639e-07
0.000238606
-3.7605e-07
0.000653066
-3.11864e-06
0.0010152
-8.87501e-06
0.00132139
0.00157132
4.51194e-07
0.000238155
3.12551e-07
0.000653204
-1.70706e-06
0.00101722
-6.5933e-06
0.00132628
-1.49133e-05
0.00157964
0.00178024
6.42548e-07
0.000237512
1.00329e-06
0.000652844
-2.87933e-07
0.00101852
-4.29569e-06
0.00133029
-1.16566e-05
0.00158701
-2.2589e-05
0.00179117
0.00194849
8.32935e-07
0.00023668
1.6927e-06
0.000651984
1.13322e-06
0.00101907
-1.98401e-06
0.0013334
-8.37149e-06
0.00159339
-1.83096e-05
0.00180111
0.00196189
1.02257e-06
0.000235657
2.38157e-06
0.000650625
2.55918e-06
0.0010189
3.45216e-07
0.00133562
-5.06007e-06
0.0015988
-1.39867e-05
0.00181004
-2.63923e-05
0.00197429
0.0020989
1.21128e-06
0.000234446
3.06913e-06
0.000648767
3.98616e-06
0.00101798
2.67448e-06
0.00133693
-1.72488e-06
0.0016032
-9.62287e-06
0.00181794
-2.10194e-05
0.00198569
-3.56215e-05
0.0021135
0.00220966
1.39874e-06
0.000233047
3.75445e-06
0.000646411
5.41389e-06
0.00101632
5.01715e-06
0.00133733
1.63088e-06
0.00160658
-5.22115e-06
0.00182479
-1.55889e-05
0.00199606
-2.92132e-05
0.00212712
-4.56423e-05
0.00222608
0.00230123
1.58461e-06
0.000231462
4.43671e-06
0.000643559
6.84052e-06
0.00101392
7.36523e-06
0.0013368
5.00373e-06
0.00160895
-7.80725e-07
0.00183057
-1.01033e-05
0.00200538
-2.27293e-05
0.00213975
-3.82274e-05
0.00224158
-5.60786e-05
0.00231908
0.00237974
1.76871e-06
0.000229694
5.11495e-06
0.000640213
8.26414e-06
0.00101077
9.71662e-06
0.00133535
8.39228e-06
0.00161027
3.68496e-06
0.00183528
-4.56664e-06
0.00201363
-1.61729e-05
0.00215135
-3.07197e-05
0.00225613
-4.76917e-05
0.00233605
-6.65767e-05
0.00239863
0.00245015
1.95065e-06
0.000227743
5.78819e-06
0.000636376
9.68298e-06
0.00100687
1.20687e-05
0.00133296
1.1793e-05
0.00161055