/*--------------------------------*- C++ -*----------------------------------*\
  =========                 |
  \\      /  F ield         | OpenFOAM: The Open Source CFD Toolbox
   \\    /   O peration     | Website:  https://openfoam.org
    \\  /    A nd           | Version:  7
     \\/     M anipulation  |
\*---------------------------------------------------------------------------*/
FoamFile
{
    version     2.0;
    format      ascii;
    class       volVectorField;
    location    "120";
    object      U;
}
// * * * * * * * * * * * * * * * * * * * * * * * * * * * * * * * * * * * * * //

dimensions      [0 1 -1 0 0 0 0];

internalField   nonuniform List<vector> 
7156
(
(1.1334 0.334041 1.62296e-20)
(1.13473 0.361114 -7.28326e-20)
(1.13082 0.348129 -5.76779e-20)
(1.12644 0.336383 -8.08759e-20)
(1.13073 0.377492 1.71827e-20)
(1.12704 0.363643 8.74026e-20)
(1.12346 0.350474 -8.31139e-22)
(1.11937 0.338575 -3.28057e-20)
(1.12637 0.394679 3.65495e-20)
(1.12256 0.380065 6.62189e-20)
(1.11922 0.366001 1.07595e-19)
(1.11599 0.352657 3.39721e-20)
(1.1122 0.340613 -7.78158e-22)
(1.12178 0.412841 -3.12863e-20)
(1.11771 0.397301 1.98181e-20)
(1.11425 0.382455 -8.72128e-20)
(1.11127 0.368184 -9.559e-20)
(1.10839 0.354671 2.29119e-20)
(1.10493 0.342492 5.81322e-20)
(1.12204 0.449231 1.96341e-20)
(1.11702 0.432025 1.16493e-22)
(1.11263 0.415517 2.0731e-20)
(1.10891 0.399728 3.35751e-20)
(1.1058 0.384658 -1.22601e-20)
(1.10319 0.370186 -2.24595e-20)
(1.10069 0.356513 -5.79299e-20)
(1.09755 0.344206 1.64453e-20)
(1.1172 0.470427 2.9074e-20)
(1.11201 0.452248 -4.21232e-20)
(1.10736 0.434756 1.18089e-20)
(1.10334 0.417984 4.48607e-20)
(1.09997 0.401954 -5.29823e-20)
(1.09722 0.386666 3.94949e-20)
(1.095 0.372 2.285e-20)
(1.09287 0.358176 2.4278e-20)
(1.09009 0.345753 -1.05828e-20)
(1.11181 0.49264 -1.18779e-19)
(1.10661 0.473511 7.13789e-22)
(1.10182 0.455029 -6.75346e-20)
(1.09756 0.437262 -1.26786e-20)
(1.0939 0.420237 -5.85459e-20)
(1.0909 0.403975 1.47708e-20)
(1.08852 0.388476 2.07163e-20)
(1.08668 0.373624 6.14374e-20)
(1.08495 0.359656 -1.44436e-21)
(1.08253 0.347126 -1.22344e-20)
(1.10564 0.515793 -1.02753e-19)
(1.10063 0.495791 4.23379e-20)
(1.09585 0.476339 -2.50485e-20)
(1.09148 0.457568 1.20763e-19)
(1.08761 0.439537 -5.57858e-20)
(1.08434 0.422269 4.33034e-20)
(1.0817 0.405784 -1.78734e-20)
(1.07969 0.390082 1.04082e-20)
(1.07824 0.37505 -7.13358e-20)
(1.07692 0.360947 6.82651e-21)
(1.07488 0.348322 -5.28569e-21)
(1.09831 0.539712 -1.16585e-19)
(1.09384 0.519018 2.54167e-20)
(1.08927 0.498663 6.50145e-20)
(1.08494 0.478904 6.86457e-20)
(1.08099 0.459859 -6.54492e-20)
(1.07753 0.441576 5.77354e-20)
(1.07465 0.424077 -7.90903e-20)
(1.07238 0.407377 7.22664e-20)
(1.07074 0.391479 -4.87925e-20)
(1.0697 0.376276 4.386e-20)
(1.06879 0.362046 -2.84042e-20)
(1.06714 0.349336 1.67068e-20)
(1.08932 0.564049 5.62625e-20)
(1.08589 0.543025 3.40451e-20)
(1.08185 0.521938 4.99241e-20)
(1.07775 0.50125 -4.40403e-21)
(1.07387 0.481199 -4.50773e-20)
(1.07037 0.461893 -4.10179e-20)
(1.06733 0.443373 -2.61724e-20)
(1.06484 0.425653 1.18355e-20)
(1.06294 0.408749 2.07339e-21)
(1.06168 0.392664 -1.22515e-20)
(1.06104 0.377296 2.20612e-20)
(1.06055 0.362946 2.22878e-21)
(1.05932 0.350163 -1.56773e-20)
(1.07788 0.58819 4.83156e-20)
(1.07629 0.567479 -1.62882e-19)
(1.07326 0.546004 9.98278e-20)
(1.06969 0.524546 -7.31961e-20)
(1.06606 0.503543 -6.3418e-20)
(1.06266 0.483217 2.62237e-20)
(1.05962 0.463666 4.86022e-20)
(1.05701 0.444922 7.35825e-20)
(1.05492 0.426994 -4.64791e-20)
(1.0534 0.409896 -3.32475e-20)
(1.05251 0.393632 1.22917e-20)
(1.05227 0.378106 -2.54762e-20)
(1.05222 0.363645 -5.49837e-21)
(1.05141 0.350799 8.0296e-21)
(1.06429 0.59178 5.34619e-20)
(1.06304 0.570542 1.24703e-19)
(1.06045 0.548642 5.73528e-20)
(1.05735 0.526834 2.42241e-20)
(1.05423 0.505535 3.13399e-20)
(1.05132 0.484952 -6.38241e-21)
(1.04875 0.46517 -2.04109e-21)
(1.04658 0.446216 -6.42846e-20)
(1.04489 0.428094 1.56656e-22)
(1.04376 0.410813 2.30692e-20)
(1.04324 0.39438 3.02821e-21)
(1.0434 0.378704 1.11436e-20)
(1.04378 0.364138 -2.05318e-21)
(1.04343 0.351239 -4.96743e-21)
(1.04875 0.614932 3.28476e-20)
(1.05044 0.594966 6.56067e-20)
(1.04957 0.573231 -6.39517e-20)
(1.04745 0.550931 -5.42639e-20)
(1.04487 0.528795 4.60454e-20)
(1.04226 0.507219 -5.20973e-20)
(1.03986 0.486396 1.80405e-20)
(1.03777 0.466401 -1.65915e-20)
(1.03605 0.447252 -1.13779e-20)
(1.03478 0.428948 4.13482e-20)
(1.03403 0.411498 -7.32488e-21)
(1.03388 0.394904 -8.16181e-21)
(1.03444 0.379085 7.36276e-22)
(1.03525 0.36442 -9.42504e-21)
(1.03536 0.35148 -1.79556e-21)
(1.02807 0.6354 7.32121e-21)
(1.03441 0.618299 -4.34564e-20)
(1.03637 0.597742 -3.9309e-20)
(1.03591 0.575538 -4.23686e-20)
(1.03428 0.552864 1.79394e-20)
(1.03223 0.530422 -1.60222e-20)
(1.03016 0.50859 5.935e-20)
(1.02828 0.487544 -1.4408e-20)
(1.02668 0.467351 -1.27748e-20)
(1.02543 0.448023 7.39005e-21)
(1.02458 0.429552 -1.63347e-20)
(1.02422 0.411945 -3.99708e-21)
(1.02444 0.395202 7.19788e-21)
(1.02538 0.379247 -5.71509e-21)
(1.02662 0.364488 9.47274e-21)
(1.02721 0.351516 4.26482e-21)
(1.00008 0.650966 -1.533e-19)
(1.01337 0.639019 -5.5607e-20)
(1.01981 0.621214 -5.47527e-21)
(1.02209 0.600099 2.13827e-21)
(1.02207 0.577456 -6.16773e-20)
(1.02096 0.554434 6.87836e-22)
(1.01946 0.531709 1.85003e-20)
(1.01794 0.50964 -1.52232e-20)
(1.01659 0.488389 2.07434e-20)
(1.01551 0.468015 1.08883e-20)
(1.01473 0.448524 2.93289e-21)
(1.01432 0.429902 1.51829e-21)
(1.01434 0.412151 9.76046e-21)
(1.01492 0.395269 -2.5915e-20)
(1.01623 0.379188 2.56651e-21)
(1.0179 0.36434 2.45784e-20)
(1.01898 0.351342 9.80545e-22)
(0.961964 0.658619 -1.94047e-19)
(0.985208 0.654913 -7.60245e-20)
(0.998374 0.642144 6.02068e-21)
(1.00497 0.623672 1.11197e-19)
(1.0076 0.602031 -6.83378e-21)
(1.00807 0.578979 3.09815e-20)
(1.0075 0.555634 -1.74887e-20)
(1.00656 0.532649 -1.317e-20)
(1.00561 0.510363 -1.03214e-20)
(1.00481 0.488926 -6.35588e-21)
(1.00425 0.468388 5.16865e-21)
(1.00396 0.448749 -3.57189e-21)
(1.00398 0.429992 2.97629e-22)
(1.0044 0.412112 6.34687e-21)
(1.00535 0.395105 1.76799e-20)
(1.00702 0.378906 7.43285e-22)
(1.0091 0.363972 1.04163e-21)
(1.01068 0.350953 8.72096e-21)
(0.910373 0.654527 -2.69222e-20)
(0.947193 0.662958 2.20359e-20)
(0.970012 0.658324 2.24288e-19)
(0.983111 0.644768 -1.52718e-20)
(0.989913 0.625664 -6.27169e-20)
(0.99294 0.603531 1.7082e-20)
(0.993911 0.580099 -3.57473e-21)
(0.993907 0.556459 4.55455e-20)
(0.993553 0.533237 -2.77588e-20)
(0.993179 0.510754 -6.19989e-21)
(0.992942 0.489149 6.29098e-22)
(0.99291 0.468465 -1.05359e-21)
(0.993117 0.448694 -1.2826e-20)
(0.993599 0.429818 7.72947e-21)
(0.994422 0.411825 -4.46054e-20)
(0.995722 0.394705 2.81369e-20)
(0.997737 0.3784 -1.45284e-20)
(1.0002 0.363382 -2.73193e-20)
(1.0023 0.350341 -5.26739e-20)
(0.896031 0.659287 2.3325e-20)
(0.932057 0.666725 1.90473e-19)
(0.954513 0.661192 -1.34799e-19)
(0.967602 0.646885 2.25772e-20)
(0.974656 0.627185 3.64342e-21)
(0.978111 0.604593 4.5825e-20)
(0.979615 0.580812 -1.38454e-20)
(0.980196 0.556902 2.25978e-20)
(0.980442 0.533466 3.17244e-21)
(0.98066 0.510807 2.38538e-21)
(0.980996 0.489053 4.9326e-21)
(0.981508 0.468239 5.64921e-21)
(0.982224 0.448354 4.90888e-20)
(0.983172 0.429374 -2.23949e-20)
(0.984408 0.411284 3.08963e-20)
(0.986065 0.394067 -6.61639e-20)
(0.988406 0.377668 3.47105e-21)
(0.991228 0.362566 -6.69435e-21)
(0.993845 0.349499 6.12455e-20)
(0.828026 0.639257 -1.40573e-19)
(0.881285 0.663444 -8.78593e-20)
(0.916581 0.66991 -1.15943e-19)
(0.938736 0.66351 -3.78455e-20)
(0.951867 0.648487 3.28979e-20)
(0.959216 0.628228 4.7005e-20)
(0.963133 0.605211 -3.42168e-20)
(0.965196 0.581111 -1.18854e-20)
(0.96638 0.556958 -5.70962e-21)
(0.96724 0.533331 3.42516e-21)
(0.968063 0.510517 4.62947e-21)
(0.968982 0.488633 6.52674e-21)
(0.970049 0.467706 -1.26593e-20)
(0.971285 0.447723 -2.85265e-21)
(0.972712 0.428656 -2.97651e-20)
(0.974372 0.410485 3.82546e-21)
(0.976392 0.393187 9.77109e-20)
(0.979043 0.376708 1.82999e-20)
(0.98219 0.361523 -2.38602e-20)
(0.985328 0.348414 -7.3111e-21)
(0.739363 0.597677 -5.07077e-21)
(0.814064 0.643776 -7.82606e-20)
(0.866163 0.66699 6.48936e-20)
(0.900792 0.672504 7.89903e-20)
(0.922703 0.665271 3.24151e-20)
(0.935928 0.64957 2.99426e-20)
(0.943612 0.628787 -4.18147e-20)
(0.948022 0.605381 -2.55758e-20)
(0.950667 0.580991 5.35767e-21)
(0.952472 0.556622 3.65477e-21)
(0.95396 0.532828 2.12372e-21)
(0.955399 0.50988 -1.96566e-21)
(0.956909 0.487884 5.2331e-21)
(0.95854 0.466862 3.30357e-20)
(0.960308 0.446797 -1.31966e-20)
(0.962226 0.427659 -2.02998e-20)
(0.964325 0.409422 6.26509e-20)
(0.966718 0.392058 -6.59049e-21)
(0.969669 0.375518 -3.64233e-20)
(0.973099 0.360247 7.00938e-20)
(0.976756 0.347068 3.12859e-20)
(0.726636 0.602422 -8.3249e-20)
(0.799698 0.647668 1.16037e-19)
(0.850694 0.669915 -9.38964e-20)
(0.884715 0.674503 -7.68798e-20)
(0.90644 0.666469 2.29507e-20)
(0.919806 0.650128 -2.18279e-20)
(0.927864 0.628859 7.27403e-21)
(0.932795 0.605096 1.95012e-20)
(0.936043 0.580448 1.3635e-21)
(0.938485 0.55589 3.84812e-21)
(0.940613 0.531952 -5.99734e-21)
(0.942676 0.508891 2.20301e-20)
(0.944788 0.486802 -3.39846e-20)
(0.946992 0.465703 1.42905e-20)
(0.949301 0.445572 -4.39938e-20)
(0.951723 0.426377 5.10373e-20)
(0.954277 0.40809 -1.41857e-20)
(0.95706 0.390676 5.3463e-20)
(0.960305 0.374093 7.66439e-20)
(0.963975 0.358729 -4.01226e-20)
(0.968139 0.34543 -7.73056e-20)
(0.615482 0.533834 3.06682e-20)
(0.713491 0.606552 2.25627e-20)
(0.784957 0.650925 -1.34496e-19)
(0.834904 0.672213 1.58615e-19)
(0.868376 0.675898 4.35119e-20)
(0.889969 0.667099 2.49416e-20)
(0.903522 0.650155 -2.19754e-20)
(0.911989 0.628438 8.6082e-21)
(0.917469 0.604353 -4.13697e-21)
(0.921339 0.579478 -1.54404e-21)
(0.924432 0.554757 -1.75195e-20)
(0.927211 0.530699 -6.38975e-21)
(0.929908 0.507546 -4.07755e-20)
(0.932628 0.485384 2.48007e-20)
(0.935411 0.464224 -1.27312e-19)
(0.93827 0.444042 4.85251e-20)
(0.941207 0.424806 -7.66765e-20)
(0.944236 0.406481 -1.05795e-19)
(0.947433 0.389033 -8.63299e-20)
(0.950973 0.372427 -8.09709e-20)
(0.954837 0.356958 3.14438e-20)
(0.959507 0.343457 2.58811e-20)
(0.477704 0.432635 1.98288e-20)
(0.604083 0.537962 1.31875e-20)
(0.699958 0.610056 1.45463e-21)
(0.769868 0.653538 -5.2281e-21)
(0.818822 0.673875 -1.62035e-20)
(0.851802 0.676684 -5.67674e-21)
(0.873314 0.667156 -2.17071e-20)
(0.887096 0.649649 1.4992e-21)
(0.896006 0.627521 -1.8499e-21)
(0.902059 0.603149 8.69993e-22)
(0.90657 0.578076 8.21897e-21)
(0.910327 0.55322 5.58735e-20)
(0.913766 0.529067 1.94382e-20)
(0.917103 0.505843 2.49576e-20)
(0.920438 0.483627 -2.87398e-21)
(0.923807 0.462423 7.19978e-20)
(0.927222 0.442206 -3.69216e-20)
(0.930685 0.422941 9.06182e-20)
(0.934205 0.40459 -4.09183e-20)
(0.937843 0.387119 1.06556e-20)
(0.941689 0.370512 7.17819e-20)
(0.945726 0.354921 -4.65524e-20)
(0.950966 0.341105 1.29254e-20)
(0.468631 0.436375 4.50494e-20)
(0.592306 0.541509 2.19079e-20)
(0.686063 0.612924 4.22946e-20)
(0.75446 0.655499 -1.98149e-20)
(0.802475 0.674895 3.75354e-21)
(0.835017 0.676857 1.36088e-20)
(0.856498 0.666636 -1.33819e-20)
(0.87055 0.648604 2.13918e-21)
(0.879934 0.626104 -1.65871e-21)
(0.886583 0.601479 1.28848e-20)
(0.891751 0.57624 7.156e-21)
(0.896183 0.551275 -5.25623e-20)
(0.90029 0.527051 -3.29194e-20)
(0.904275 0.503778 2.52131e-20)
(0.908229 0.481528 -6.78744e-20)
(0.912188 0.460298 7.06228e-21)
(0.916164 0.440062 8.71558e-20)
(0.920158 0.420779 4.64728e-20)
(0.924184 0.40241 -2.17394e-20)
(0.928288 0.384924 -1.4376e-19)
(0.932458 0.368324 8.26358e-20)
(0.936716 0.352583 8.28184e-20)
(0.942685 0.338363 -8.73134e-20)
(0.305268 0.296829 -1.60597e-20)
(0.459225 0.43962 -1.81924e-20)
(0.580177 0.544462 -1.91611e-21)
(0.671836 0.615147 -4.89687e-20)
(0.738763 0.656802 6.91437e-20)
(0.785891 0.67527 -4.06693e-20)
(0.818049 0.676413 -1.86588e-20)
(0.839544 0.665536 6.61245e-21)
(0.853905 0.647019 -1.94941e-20)
(0.863791 0.624184 2.74053e-20)
(0.871057 0.599341 -2.58095e-20)
(0.876896 0.573967 -9.32753e-21)
(0.882014 0.548921 1.98534e-20)
(0.886796 0.52465 8.20239e-20)
(0.891433 0.50135 -4.01924e-20)
(0.896011 0.479085 4.61979e-20)
(0.900563 0.457848 -3.31057e-20)
(0.905102 0.437607 -4.02206e-20)
(0.909631 0.418321 -7.36723e-20)
(0.91417 0.399941 1.26437e-19)
(0.918748 0.382441 1.81456e-19)
(0.92327 0.365832 -1.5069e-19)
(0.927907 0.349848 -1.35945e-19)
(0.934677 0.335108 6.47268e-20)
(0.298927 0.299295 1.08591e-20)
(0.449508 0.442362 -1.20716e-20)
(0.567721 0.546814 4.01345e-21)
(0.657304 0.616719 -3.53662e-21)
(0.722804 0.657439 4.68166e-21)
(0.769097 0.674993 1.41435e-20)
(0.800922 0.675348 -2.53859e-22)
(0.822477 0.663853 -1.94986e-21)
(0.837181 0.644891 -5.68888e-21)
(0.847596 0.621759 -1.809e-20)
(0.855498 0.596732 2.15616e-20)
(0.86202 0.571254 2.85936e-20)
(0.867833 0.546155 -5.01594e-20)
(0.873296 0.521861 -6.06504e-20)
(0.87859 0.498557 5.41096e-20)
(0.883795 0.476297 1.23878e-20)
(0.888942 0.455071 3.53817e-20)
(0.894043 0.434843 3.43598e-20)
(0.899107 0.415568 -2.99973e-20)
(0.904157 0.397189 -1.6901e-19)
(0.909201 0.37968 -1.46556e-19)
(0.914114 0.36305 -5.95058e-20)
(0.91938 0.34669 1.72143e-19)
(0.926305 0.330152 9.1113e-20)
(0.111279 0.115901 -1.90986e-20)
(0.292357 0.301401 2.51473e-20)
(0.439501 0.444591 -2.49372e-20)
(0.554965 0.548555 7.45068e-21)
(0.642496 0.617632 -8.28818e-21)
(0.706613 0.657408 -2.32501e-21)
(0.752122 0.674063 -3.22848e-21)
(0.783662 0.673659 -5.99984e-21)
(0.805319 0.661585 3.28848e-20)
(0.8204 0.642219 3.12299e-20)
(0.831368 0.618827 -4.33408e-20)
(0.839922 0.593652 -3.0596e-20)
(0.84714 0.5681 -1.31497e-20)
(0.853654 0.542975 6.06367e-20)
(0.859804 0.518684 7.42402e-20)
(0.865758 0.495398 -3.63536e-20)
(0.871591 0.473164 -2.70195e-22)
(0.877334 0.451968 5.55159e-20)
(0.882998 0.431771 3.80787e-20)
(0.888594 0.412524 9.20475e-20)
(0.894145 0.394165 2.43339e-20)
(0.899644 0.376663 1.34831e-19)
(0.90499 0.360032 1.31981e-19)
(0.910865 0.343653 -1.14982e-19)
(0.917875 0.327157 -7.20112e-20)
(0.108778 0.116812 3.93306e-21)
(0.285574 0.303142 7.84573e-21)
(0.429227 0.446298 -1.98372e-21)
(0.541935 0.549679 1.07171e-20)
(0.62744 0.617881 3.40983e-21)
(0.690219 0.656702 -4.29878e-24)
(0.734992 0.672475 2.9468e-21)
(0.766295 0.671346 1.13774e-20)
(0.788093 0.658731 -1.19801e-20)
(0.803581 0.639 1.8979e-20)
(0.815125 0.615388 1.10148e-20)
(0.824346 0.590098 6.39386e-20)
(0.832269 0.564504 -1.98667e-20)
(0.839491 0.539381 -1.72404e-19)
(0.846331 0.515116 6.90281e-20)
(0.852948 0.491871 -1.84535e-20)
(0.85941 0.469685 5.93316e-20)
(0.86575 0.448539 -1.44049e-19)
(0.871977 0.428392 -1.31817e-19)
(0.878102 0.409192 -1.00297e-19)
(0.884146 0.390874 -2.15382e-21)
(0.890091 0.373406 -4.65187e-20)
(0.895853 0.356792 9.46016e-20)
(0.902137 0.340419 -9.94006e-20)
(0.909148 0.323969 -5.28087e-20)
(0.106187 0.117575 -3.02055e-21)
(0.278593 0.304509 -3.14124e-21)
(0.418707 0.447477 -4.17629e-21)
(0.528659 0.55018 -8.27984e-21)
(0.612166 0.61746 6.6409e-21)
(0.673649 0.65532 -3.13163e-20)
(0.717736 0.670229 2.68018e-20)
(0.748845 0.668407 3.53805e-20)
(0.770823 0.655291 -1.55848e-20)
(0.786746 0.635235 -6.08696e-20)
(0.798885 0.61144 7.81059e-20)
(0.808787 0.586071 -1.20226e-19)
(0.817424 0.560465 3.29811e-20)
(0.825358 0.535371 3.72353e-20)
(0.832892 0.511158 -1.91904e-19)
(0.840172 0.487977 4.26977e-20)
(0.847266 0.46586 -1.23172e-19)
(0.854201 0.444785 2.55511e-19)
(0.86099 0.424707 -7.66341e-20)
(0.867642 0.405574 3.41975e-19)
(0.874177 0.387319 1.51824e-20)
(0.880567 0.36991 -5.06965e-20)
(0.886743 0.353345 -1.60564e-19)
(0.893383 0.33703 1.02844e-19)
(0.900491 0.320725 2.86752e-20)
(0.103512 0.118186 5.33004e-21)
(0.27143 0.305497 7.46685e-21)
(0.407966 0.448121 4.4127e-21)
(0.515162 0.550051 8.70581e-22)
(0.596702 0.616367 -1.10846e-20)
(0.656933 0.653259 3.93815e-20)
(0.70038 0.667322 -4.05116e-20)
(0.731339 0.664841 8.0273e-22)
(0.75353 0.651263 2.72686e-20)
(0.769915 0.630923 -3.92557e-20)
(0.782668 0.606983 -2.30812e-21)
(0.793262 0.581569 1.50793e-19)
(0.802619 0.555982 -6.0647e-20)
(0.81127 0.530945 1.68992e-20)
(0.819499 0.50681 1.61353e-19)
(0.827443 0.483716 3.30393e-21)
(0.835168 0.461689 -2.35474e-20)
(0.842699 0.440705 -1.23559e-21)
(0.850048 0.420717 1.18404e-19)
(0.857227 0.401671 -2.54138e-19)
(0.86425 0.3835 1.10138e-20)
(0.871087 0.366174 4.33672e-20)
(0.877678 0.349685 7.29486e-20)
(0.88467 0.333465 1.45919e-19)
(0.891955 0.317362 -8.98331e-20)
(0.10076 0.118643 -1.04258e-20)
(0.264101 0.306101 1.19917e-21)
(0.397026 0.448224 -1.69509e-20)
(0.501473 0.549289 4.62066e-21)
(0.581076 0.614598 -1.08347e-20)
(0.640099 0.650517 -4.00362e-20)
(0.682951 0.663756 -3.93477e-20)
(0.713801 0.660649 -9.89751e-20)
(0.736238 0.64665 1.34972e-20)
(0.753108 0.626065 -1.40559e-20)
(0.766491 0.602019 -1.30588e-20)
(0.777787 0.576593 -8.80853e-20)
(0.787869 0.551056 2.18606e-20)
(0.79724 0.526104 9.84337e-20)
(0.806165 0.502071 -1.84807e-19)
(0.814774 0.479087 3.50904e-20)
(0.823128 0.457173 5.96629e-20)
(0.831254 0.4363 1.17502e-19)
(0.839164 0.416422 7.51397e-20)
(0.846866 0.397483 4.63158e-20)
(0.854378 0.379418 -2.91756e-20)
(0.861664 0.362196 1.62743e-19)
(0.868673 0.345806 7.18762e-20)
(0.876024 0.329711 -1.95759e-19)
(0.883538 0.313828 -6.99317e-20)
(0.0979373 0.118944 -5.05262e-21)
(0.256624 0.306316 -2.90065e-20)
(0.385909 0.447783 2.29464e-20)
(0.487618 0.54789 -4.86919e-20)
(0.565318 0.612152 1.90521e-20)
(0.623175 0.647095 1.06957e-19)
(0.665477 0.65953 9.54491e-20)
(0.696255 0.655832 -4.53891e-20)
(0.718969 0.641452 -8.2273e-20)
(0.736346 0.620663 4.64926e-23)
(0.750372 0.596547 -2.11576e-20)
(0.762379 0.571145 1.79613e-20)
(0.773191 0.545688 -1.16962e-19)
(0.783283 0.520848 -5.0995e-20)
(0.792904 0.496943 1.11889e-19)
(0.802177 0.474092 -1.18948e-20)
(0.81116 0.452312 -1.13339e-19)
(0.819879 0.431572 -8.89624e-20)
(0.828347 0.411824 1.33854e-19)
(0.836573 0.393012 6.91404e-20)
(0.844572 0.375072 -2.15774e-20)
(0.85231 0.357975 -5.60614e-20)
(0.85974 0.341705 1.12865e-19)
(0.86746 0.325758 5.73748e-20)
(0.875236 0.310106 2.40162e-19)
(0.0950504 0.119086 2.02955e-20)
(0.249014 0.306138 -2.51855e-21)
(0.374641 0.446793 -4.63722e-21)
(0.473625 0.545852 5.22094e-20)
(0.549455 0.609027 -3.08893e-21)
(0.60619 0.642993 -1.03531e-19)
(0.647983 0.654646 -6.484e-20)
(0.678727 0.650393 3.39279e-20)
(0.701745 0.635671 5.84931e-20)
(0.719649 0.614718 1.66417e-19)
(0.734331 0.590571 5.55462e-20)
(0.747054 0.565225 -4.58394e-20)
(0.758599 0.539879 2.08179e-19)
(0.769412 0.515178 -2.12498e-20)
(0.779728 0.491426 -4.43101e-20)
(0.789664 0.468731 -5.58727e-20)
(0.799274 0.447107 -4.12604e-20)
(0.808584 0.426521 -3.57329e-19)
(0.817608 0.406923 -3.26143e-19)
(0.826357 0.388257 7.89094e-20)
(0.834844 0.370463 6.59627e-20)
(0.843035 0.353509 7.79845e-20)
(0.850891 0.33738 -2.57875e-19)
(0.858988 0.321598 -1.42055e-19)
(0.867051 0.306184 -2.0019e-19)
(0.0921061 0.119067 -1.09774e-20)
(0.241288 0.305564 2.17065e-20)
(0.363243 0.445253 3.72319e-20)
(0.45952 0.543174 -5.86687e-20)
(0.533516 0.605225 5.45776e-20)
(0.589171 0.638213 5.35841e-20)
(0.630497 0.649107 4.40361e-20)
(0.66124 0.644333 4.6228e-20)
(0.684589 0.629309 -2.59652e-20)
(0.703037 0.608233 -1.3325e-19)
(0.718384 0.584091 -7.2487e-20)
(0.731829 0.558836 -1.70152e-20)
(0.744109 0.533631 3.8809e-20)
(0.755642 0.509096 1.40269e-19)
(0.766652 0.485521 -1.69608e-19)
(0.777248 0.463007 1.3617e-19)
(0.787482 0.44156 8.50089e-21)
(0.797382 0.421148 3.15213e-19)
(0.80696 0.40172 2.15069e-19)
(0.816229 0.38322 -2.13784e-20)
(0.825203 0.365589 -1.7223e-19)
(0.833849 0.348797 -1.91168e-19)
(0.842133 0.332826 1.09411e-19)
(0.850615 0.317227 3.66197e-19)
(0.858983 0.302055 -8.33306e-20)
(0.0891116 0.118886 -7.12733e-21)
(0.233464 0.304593 -3.89997e-20)
(0.351739 0.44316 -5.61149e-20)
(0.445331 0.539856 3.45365e-20)
(0.51753 0.600747 -3.41025e-20)
(0.572147 0.632757 -6.73551e-20)
(0.613044 0.642915 -9.96723e-20)
(0.643819 0.637657 8.77437e-20)
(0.667521 0.622372 2.51739e-20)
(0.686529 0.60121 1.40118e-19)
(0.702551 0.577111 1.7451e-19)
(0.716721 0.55198 -1.76288e-20)
(0.729735 0.526945 1.0271e-19)
(0.741988 0.502605 -3.07804e-19)
(0.753688 0.479232 8.86086e-20)
(0.764941 0.45692 5.21417e-20)
(0.775797 0.435673 2.84796e-20)
(0.786282 0.415455 -2.34955e-19)
(0.796413 0.396216 6.21269e-20)
(0.8062 0.377902 2.17347e-20)
(0.81566 0.360452 3.21395e-19)
(0.824761 0.34384 -1.70452e-19)
(0.833475 0.328043 1.33847e-19)
(0.842347 0.31264 -1.27175e-19)
(0.851032 0.297715 2.01546e-19)
(0.0860737 0.118542 -3.79512e-20)
(0.225559 0.303222 5.90699e-20)
(0.340154 0.440514 1.02003e-19)
(0.431084 0.535898 -2.94881e-20)
(0.501524 0.595594 -5.28384e-20)
(0.555144 0.626628 1.56689e-20)
(0.595651 0.636075 1.44572e-19)
(0.626487 0.630368 -1.14416e-19)
(0.650565 0.614861 4.21546e-20)
(0.670145 0.593655 -6.36598e-20)
(0.686848 0.569634 8.93324e-21)
(0.701745 0.54466 -2.16118e-20)
(0.715493 0.519825 -1.92516e-19)
(0.728462 0.495705 8.05789e-20)
(0.74085 0.472559 2.96584e-20)
(0.752755 0.450473 -2.02235e-21)
(0.764229 0.429446 -8.4085e-20)
(0.775297 0.409443 7.86602e-20)
(0.785976 0.390414 -1.08338e-19)
(0.79628 0.372302 1.59169e-19)
(0.806224 0.355052 -3.45557e-19)
(0.81578 0.338635 1.36842e-19)
(0.824926 0.323028 -3.15259e-19)
(0.834191 0.307836 5.09188e-20)
(0.8432 0.293161 -2.11197e-19)
(0.0829994 0.118033 6.63231e-21)
(0.217589 0.30145 -1.01917e-20)
(0.328509 0.437315 -6.96004e-20)
(0.416806 0.531302 -6.13017e-20)
(0.485527 0.58977 2.74326e-20)
(0.53819 0.61983 5.0828e-20)
(0.578342 0.628591 -2.07706e-19)
(0.609268 0.622471 1.32253e-19)
(0.63374 0.606782 -4.50784e-20)
(0.653904 0.58557 2.05629e-20)
(0.671293 0.561664 -5.57907e-20)
(0.686919 0.536879 -1.31429e-19)
(0.701398 0.512274 2.48292e-20)
(0.71508 0.488401 1.84035e-19)
(0.72815 0.465506 -1.48426e-19)
(0.740704 0.443668 1.03164e-19)
(0.752791 0.422884 1.59117e-19)
(0.764437 0.403116 3.67657e-20)
(0.775661 0.384314 -3.11434e-19)
(0.786478 0.366424 -1.50903e-19)
(0.796904 0.34939 1.52775e-19)
(0.806914 0.333185 7.11637e-20)
(0.816491 0.317782 2.19686e-19)
(0.82615 0.302812 -2.76008e-19)
(0.835491 0.288393 1.72154e-19)
(0.0798958 0.11736 -3.11217e-20)
(0.209571 0.299277 8.536e-20)
(0.316829 0.433564 8.74385e-21)
(0.402524 0.526071 1.28289e-19)
(0.469565 0.583279 -4.56817e-20)
(0.521311 0.612369 -5.52038e-20)
(0.561143 0.620469 1.30315e-20)
(0.592185 0.613972 9.09733e-20)
(0.617069 0.59814 -4.65259e-20)
(0.637826 0.576961 -9.27654e-20)
(0.655904 0.553205 3.38434e-20)
(0.672257 0.528642 5.51065e-20)
(0.687464 0.504295 5.67073e-21)
(0.701854 0.480696 -5.19319e-20)
(0.715602 0.458076 -3.15465e-20)
(0.728799 0.436509 1.09777e-19)
(0.741494 0.415988 -2.761e-19)
(0.753714 0.396474 -1.37942e-20)
(0.765479 0.377919 5.65474e-19)
(0.776805 0.360268 1.81254e-19)
(0.78771 0.343467 1.74021e-19)
(0.798171 0.327488 1.11767e-19)
(0.808179 0.312305 1.17175e-19)
(0.818231 0.297569 1.92294e-19)
(0.827907 0.283411 5.18125e-20)
(0.07677 0.116521 9.95544e-21)
(0.201523 0.296704 4.66602e-20)
(0.305137 0.429263 7.63698e-20)
(0.388264 0.520209 -1.20644e-19)
(0.453666 0.576126 1.03015e-19)
(0.504535 0.604251 1.77299e-20)
(0.544079 0.611715 -1.01827e-20)
(0.575261 0.604876 -1.10924e-19)
(0.600571 0.588942 -4.97534e-20)
(0.621929 0.567833 6.90569e-20)
(0.640698 0.544263 -2.06407e-20)
(0.657776 0.519952 4.87271e-20)
(0.673706 0.495893 2.87927e-19)
(0.688799 0.472593 -1.18132e-19)
(0.703218 0.450273 -1.25373e-20)
(0.717053 0.428998 -7.58119e-20)
(0.730349 0.408761 -1.06943e-19)
(0.743138 0.389522 6.02352e-20)
(0.755438 0.371231 -2.32873e-19)
(0.767269 0.353836 -1.47229e-19)
(0.778649 0.337285 -7.68649e-20)
(0.789559 0.321548 -2.37832e-19)
(0.799996 0.306597 -3.21388e-19)
(0.810439 0.292108 2.39079e-19)
(0.820452 0.278215 -6.63662e-20)
(0.073629 0.115517 3.84813e-20)
(0.193461 0.293732 -2.33996e-20)
(0.293456 0.424415 -1.41086e-19)
(0.374053 0.513719 1.83387e-19)
(0.437856 0.568316 -1.20444e-19)
(0.487886 0.595482 1.61988e-20)
(0.527174 0.602336 -6.22586e-21)
(0.558517 0.595192 -6.01514e-20)
(0.584267 0.579193 -1.36767e-19)
(0.606231 0.558192 -1.17409e-19)
(0.625693 0.534842 2.71961e-20)
(0.643492 0.510816 -6.34644e-20)
(0.66014 0.487072 -2.47627e-19)
(0.675927 0.464097 1.52596e-19)
(0.691011 0.4421 2.21931e-19)
(0.705476 0.42114 -1.53367e-19)
(0.719368 0.401207 3.66753e-19)
(0.732718 0.382261 1.93536e-20)
(0.745549 0.364254 -6.76588e-20)
(0.757879 0.347132 -1.59467e-19)
(0.769731 0.330845 -3.07334e-19)
(0.781086 0.315365 -1.32187e-19)
(0.791948 0.300661 -2.51231e-19)
(0.80278 0.286429 -2.93226e-19)
(0.813131 0.272808 6.60499e-20)
(0.0704799 0.114348 4.9823e-20)
(0.185403 0.290362 -7.02396e-20)
(0.281808 0.419024 7.49116e-20)
(0.359915 0.506608 -1.13302e-19)
(0.422163 0.559858 1.10521e-19)
(0.471392 0.586069 -1.36633e-19)
(0.510452 0.592339 4.82614e-20)
(0.541977 0.584926 7.45284e-20)
(0.568178 0.568901 2.44827e-20)
(0.590752 0.548045 6.84958e-20)
(0.610903 0.524949 8.58953e-20)
(0.629419 0.501239 -1.87291e-19)
(0.646778 0.477838 1.31454e-19)
(0.663253 0.455213 1.578e-20)
(0.678994 0.433562 -6.34637e-20)
(0.694081 0.412938 2.08745e-19)
(0.708562 0.39333 -1.70333e-19)
(0.722467 0.374697 -8.823e-20)
(0.735821 0.35699 -3.09153e-20)
(0.748646 0.340158 2.92307e-19)
(0.760964 0.324151 4.31298e-19)
(0.77276 0.308942 -1.10969e-19)
(0.784043 0.294497 2.61483e-19)
(0.795259 0.280533 5.84776e-20)
(0.0673298 0.113016 -6.58173e-20)
(0.177365 0.286598 -7.47618e-20)
(0.270216 0.413095 -6.25827e-20)
(0.345877 0.498882 9.05201e-20)
(0.406612 0.550758 -5.72479e-20)
(0.455076 0.576022 1.84088e-20)
(0.493937 0.581734 3.66641e-21)
(0.525662 0.574087 2.49713e-19)
(0.552323 0.558073 -2.10765e-19)
(0.57551 0.537399 -1.22219e-20)
(0.596347 0.514591 -2.55997e-19)
(0.615573 0.491226 1.587e-19)
(0.633635 0.468196 -1.54284e-19)
(0.65079 0.445946 -1.43482e-19)
(0.667179 0.424663 -1.16574e-20)
(0.68288 0.404397 -1.28966e-19)
(0.697941 0.385133 1.03825e-19)
(0.712394 0.366831 -3.85767e-21)
(0.726265 0.349443 3.036e-19)
(0.739577 0.332917 -1.63478e-19)
(0.752356 0.317206 -8.96536e-20)
(0.764587 0.302281 1.2662e-19)
(0.776287 0.288108 -2.73905e-20)
(0.787882 0.274425 1.92957e-19)
(0.0641857 0.11152 -2.73005e-20)
(0.169364 0.282442 8.33368e-20)
(0.258704 0.406632 1.15002e-19)
(0.331964 0.490549 -2.40556e-19)
(0.391228 0.541025 -8.82992e-21)
(0.438964 0.565349 7.01676e-22)
(0.477652 0.57053 -2.8407e-20)
(0.509593 0.562683 -1.70243e-19)
(0.536721 0.546718 1.89842e-19)
(0.560521 0.526261 -1.81277e-20)
(0.582041 0.503774 2.25265e-19)
(0.60197 0.480785 2.99771e-20)
(0.620726 0.458151 2.50984e-19)
(0.638551 0.436301 3.15535e-20)
(0.655578 0.41541 -5.10097e-20)
(0.671884 0.395522 -2.77249e-19)
(0.687516 0.376622 -1.21314e-19)
(0.702509 0.35867 -1.94151e-20)
(0.716889 0.341616 -1.46327e-19)
(0.730682 0.325413 -2.95586e-20)
(0.743914 0.310012 2.362e-19)
(0.756576 0.295385 8.95355e-20)
(0.768686 0.281498 2.46362e-19)
(0.780655 0.268105 -2.58186e-19)
(0.0610546 0.109862 1.97798e-20)
(0.161416 0.277899 3.22008e-20)
(0.247292 0.399642 1.53707e-20)
(0.318199 0.481616 5.39948e-20)
(0.376038 0.530669 -5.97368e-20)
(0.423081 0.554061 3.61033e-20)
(0.461619 0.558736 -3.88971e-20)
(0.493791 0.550725 2.57244e-20)
(0.521392 0.534845 2.10404e-19)
(0.545803 0.514641 1.4192e-20)
(0.568 0.492507 -1.22949e-19)
(0.588623 0.469922 3.14721e-19)
(0.608063 0.447712 -1.56733e-19)
(0.626548 0.426285 -8.56451e-20)
(0.644203 0.405807 1.07925e-19)
(0.661104 0.386319 -6.51752e-20)
(0.677299 0.367802 1.1808e-19)
(0.692822 0.350216 7.23555e-21)
(0.707703 0.333515 1.38565e-19)
(0.721969 0.31765 -1.49297e-19)
(0.735648 0.302574 6.01608e-20)
(0.748733 0.288258 1.39394e-19)
(0.761247 0.274669 -3.3536e-19)
(0.0579433 0.108043 -1.79825e-20)
(0.153538 0.272973 -1.06736e-19)
(0.236002 0.392133 -2.76254e-19)
(0.304609 0.472093 2.5582e-19)
(0.361066 0.519699 1.12725e-19)
(0.407449 0.542168 8.7461e-20)
(0.445862 0.546364 -3.21098e-20)
(0.478276 0.538222 2.44917e-19)
(0.506354 0.522464 6.29399e-21)
(0.531373 0.502547 -3.65967e-19)
(0.554239 0.480797 -3.04503e-19)
(0.575547 0.458645 -6.60849e-20)
(0.595661 0.436884 3.36575e-19)
(0.614793 0.415904 5.29881e-21)
(0.633066 0.395861 -3.1174e-20)
(0.650551 0.376792 8.38685e-20)
(0.667298 0.358677 -8.56005e-20)
(0.683342 0.341477 -1.03424e-19)
(0.698715 0.325144 -1.48844e-19)
(0.713446 0.309632 1.79557e-19)
(0.727564 0.294895 -3.04294e-19)
(0.741065 0.280904 -3.09391e-19)
(0.753977 0.267625 4.08574e-19)
(0.0548588 0.106066 9.26679e-20)
(0.145745 0.267669 1.53574e-20)
(0.224856 0.384113 2.53191e-19)
(0.291215 0.461989 -1.26146e-19)
(0.346335 0.508127 1.56953e-19)
(0.392092 0.529681 -6.83876e-20)
(0.430401 0.533424 -6.32497e-21)
(0.463069 0.525185 -2.20994e-19)
(0.491626 0.509584 8.23695e-20)
(0.517249 0.489988 2.38818e-19)
(0.540776 0.468653 2.33955e-19)
(0.562757 0.446962 1.93595e-19)
(0.583532 0.425675 -2.13653e-19)
(0.6033 0.405165 5.49621e-20)
(0.622178 0.385579 -3.51135e-19)
(0.640236 0.366948 2.27846e-19)
(0.657524 0.349254 1.97207e-19)
(0.67408 0.332456 -7.16716e-20)
(0.689935 0.316508 -1.92307e-19)
(0.705122 0.301364 -1.5073e-19)
(0.71967 0.28698 -1.27907e-19)
(0.733579 0.273327 5.7764e-20)
(0.746881 0.260369 -6.82409e-20)
(0.0518077 0.103933 9.50762e-20)
(0.138054 0.261994 1.40688e-19)
(0.213875 0.375589 -1.61012e-19)
(0.278042 0.451316 -9.30631e-20)
(0.33187 0.495965 -2.40494e-19)
(0.377034 0.516613 -2.20002e-20)
(0.415258 0.519928 5.87498e-20)
(0.448189 0.511626 -8.75301e-20)
(0.477224 0.496216 -1.10256e-19)
(0.503445 0.476974 3.0712e-19)
(0.527623 0.456085 3.41804e-20)
(0.550266 0.434881 -3.04647e-19)
(0.57169 0.414093 1.02552e-19)
(0.592081 0.394076 -8.38126e-20)
(0.611551 0.374967 1.49202e-19)
(0.63017 0.356795 8.77163e-20)
(0.647988 0.339538 -1.96243e-19)
(0.665043 0.323159 3.22751e-19)
(0.681371 0.307611 1.04561e-19)
(0.697004 0.292851 9.33015e-20)
(0.711974 0.278833 -3.13808e-20)
(0.726283 0.26553 4.18999e-19)
(0.739966 0.252907 -1.77332e-20)
(0.0487967 0.101646 -1.10847e-19)
(0.130479 0.255953 1.35498e-19)
(0.203079 0.366572 8.71681e-20)
(0.265113 0.440085 9.13741e-21)
(0.317694 0.483225 1.15019e-19)
(0.362295 0.502977 -1.21654e-19)
(0.400453 0.50589 3.29466e-20)
(0.433654 0.497557 -1.92711e-20)
(0.463167 0.482372 -3.62248e-20)