/*--------------------------------*- C++ -*----------------------------------*\
  =========                 |
  \\      /  F ield         | OpenFOAM: The Open Source CFD Toolbox
   \\    /   O peration     | Website:  https://openfoam.org
    \\  /    A nd           | Version:  7
     \\/     M anipulation  |
\*---------------------------------------------------------------------------*/
FoamFile
{
    version     2.0;
    format      ascii;
    class       surfaceScalarField;
    location    "100";
    object      phi;
}
// * * * * * * * * * * * * * * * * * * * * * * * * * * * * * * * * * * * * * //

dimensions      [0 3 -1 0 0 0 0];

internalField   nonuniform List<scalar> 
13975
(
3.38002e-06
-4.03831e-05
-0.000142695
3.50106e-06
-4.38842e-05
1.40105e-05
-0.000153205
3.17011e-05
-0.000287118
-0.00044511
3.61962e-06
-4.75038e-05
1.44224e-05
-0.000164008
3.25171e-05
-0.000305213
5.78248e-05
-0.000470418
8.99786e-05
-0.00065766
0.000128252
-0.00086361
-0.00108363
3.7352e-06
-5.1239e-05
1.4819e-05
-0.000175091
3.32922e-05
-0.000323686
5.89934e-05
-0.000496119
9.14585e-05
-0.000690125
0.000129856
-0.000902007
0.000172973
-0.00112675
0.000219273
-0.00135833
0.000267005
-0.0015902
-0.00181594
3.84733e-06
-5.50864e-05
1.51985e-05
-0.000186442
3.40227e-05
-0.00034251
6.00727e-05
-0.000522169
9.27857e-05
-0.000722838
0.000131226
-0.000940447
0.000174085
-0.00116961
0.00021975
-0.00140399
0.00026644
-0.00163689
0.000312373
-0.00186187
0.000355951
-0.00207349
0.000395912
-0.00226775
-0.00244243
3.95551e-06
-5.90419e-05
1.55591e-05
-0.000198046
3.47052e-05
-0.000361656
6.10576e-05
-0.000548521
9.39536e-05
-0.000755734
0.000132355
-0.000978848
0.000174862
-0.00121212
0.000219798
-0.00144893
0.000265356
-0.00168245
0.000309778
-0.00190629
0.000351531
-0.00211524
0.00038945
-0.00230567
0.000422811
-0.00247579
0.000451338
-0.00262559
0.000475148
-0.00275651
0.000494659
-0.00287107
-0.00297235
4.05929e-06
-6.31012e-05
1.58994e-05
-0.000209886
3.53365e-05
-0.000381093
6.19433e-05
-0.000575128
9.49565e-05
-0.000788747
0.000133238
-0.00101713
0.000175302
-0.00125418
0.000219419
-0.00149305
0.000263766
-0.00172679
0.000306617
-0.00194915
0.000346515
-0.00215514
0.000382394
-0.00234155
0.000413642
-0.00250704
0.000440087
-0.00265203
0.000461933
-0.00277836
0.00047965
-0.00288879
0.000493869
-0.00298657
0.000505271
-0.00307499
0.000514511
-0.00315707
0.00052216
-0.00323537
-0.00331191
4.15819e-06
-6.72593e-05
1.62176e-05
-0.000221946
3.59135e-05
-0.000400789
6.27254e-05
-0.00060194
9.57896e-05
-0.000821811
0.000133871
-0.00105521
0.000175406
-0.00129572
0.000218617
-0.00153626
0.00026168
-0.00176986
0.000302912
-0.00199038
0.000340934
-0.00219316
0.000374783
-0.0023754
0.000403957
-0.00253622
0.000428382
-0.00267646
0.000448338
-0.00279831
0.000464343
-0.0029048
0.000477046
-0.00299927
0.000487125
-0.00308507
0.000495211
-0.00316515
0.000501846
-0.003242
0.000507462
-0.00331753
0.000512379
-0.00339307
0.000516817
-0.00346951
0.000520918
-0.00354725
-0.00362638
0.000524762
4.25179e-06
-7.15111e-05
1.65124e-05
-0.000234206
3.64335e-05
-0.00042071
6.34001e-05
-0.000628907
9.64489e-05
-0.00085486
0.000134252
-0.00109301
0.000175174
-0.00133664
0.0002174
-0.00157849
0.000259116
-0.00181157
0.000298686
-0.00202995
0.000334819
-0.00222929
0.000366656
-0.00240724
0.000393799
-0.00256336
0.000416269
-0.00269893
0.000434409
-0.00281646
0.00044878
-0.00291917
0.000460041
-0.00301054
0.000468859
-0.00309389
0.000475843
-0.00317214
0.000481502
-0.00324766
0.000486236
-0.00332226
0.000490334
-0.00339717
0.000493991
-0.00347316
0.000497331
-0.00355059
-0.00362947
0.000500421
4.33966e-06
-7.58508e-05
1.67823e-05
-0.000246649
3.6894e-05
-0.000440822
6.39642e-05
-0.000655977
9.69315e-05
-0.000887828
0.000134379
-0.00113046
0.000174608
-0.00137687
0.000215777
-0.00161965
0.000256087
-0.00185188
0.000293964
-0.00206782
0.000328204
-0.00226353
0.000358052
-0.00243708
0.000383213
-0.00258852
0.00040379
-0.00271951
0.000420189
-0.00283285
0.000432999
-0.00293198
0.000442885
-0.00302042
0.000450502
-0.0031015
0.000456429
-0.00317807
0.000461147
-0.00325238
0.000465021
-0.00332613
0.000468314
-0.00340046
0.000471196
-0.00347605
0.000473777
-0.00355317
-0.0036318
0.00047611
4.42141e-06
-8.02722e-05
1.70261e-05
-0.000259254
3.72927e-05
-0.000461089
6.44149e-05
-0.000683099
9.72352e-05
-0.000920648
0.000134253
-0.00116748
0.000173714
-0.00141633
0.000213758
-0.0016597
0.000252614
-0.00189074
0.000288772
-0.00210398
0.000321121
-0.00229588
0.00034901
-0.00246497
0.000372238
-0.00261175
0.000390989
-0.00273826
0.000405716
-0.00284758
0.000417035
-0.00294329
0.00042561
-0.003029
0.000432077
-0.00310797
0.00043699
-0.00318298
0.000440795
-0.00325619
0.000443828
-0.00332917
0.000446326
-0.00340296
0.00044844
-0.00347816
0.000450261
-0.00355499
-0.00363338
0.000451837
4.49666e-06
-8.47689e-05
1.72426e-05
-0.000272
3.76277e-05
-0.000481474
6.475e-05
-0.000710221
9.73586e-05
-0.000953256
0.000133875
-0.001204
0.000172496
-0.00145495
0.000211355
-0.00169856
0.000248714
-0.0019281
0.000283136
-0.0021384
0.000313603
-0.00232635
0.000339566
-0.00249094
0.000360915
-0.0026331
0.000377902
-0.00275524
0.000391027
-0.00286071
0.000400921
-0.00295319
0.000408243
-0.00303632
0.000413608
-0.00311334
0.000417542
-0.00318691
0.000420459
-0.0032591
0.000422668
-0.00333138
0.00042438
-0.00340467
0.000425728
-0.00347951
0.00042679
-0.00355605
-0.00363419
0.000427605
4.56505e-06
-8.93339e-05
1.74308e-05
-0.000284865
3.78973e-05
-0.00050194
6.4968e-05
-0.000737292
9.73013e-05
-0.00098559
0.000133247
-0.00123994
0.000170962
-0.00149266
0.000208581
-0.00173618
0.000244409
-0.00196392
0.000277084
-0.00217108
0.000305684
-0.00235495
0.000329757
-0.00251501
0.00034928
-0.00265262
0.000364568
-0.00277053
0.000376156
-0.00287229
0.000384685
-0.00296172
0.000390808
-0.00304244
0.000395114
-0.00311764
0.0003981
-0.0031899
0.000400152
-0.00326116
0.000401549
-0.00333277
0.000402482
-0.00340561
0.000403066
-0.00348009
0.000403369
-0.00355636
-0.00363425
0.00040342
4.62626e-06
-9.39602e-05
1.75897e-05
-0.000297829
3.81003e-05
-0.000522451
6.50676e-05
-0.000764259
9.70638e-05
-0.00101759
0.000132373
-0.00127525
0.000169121
-0.00152941
0.000205451
-0.00177251
0.000239719
-0.00199819
0.000270642
-0.002202
0.000297394
-0.0023817
0.000319618
-0.00253723
0.00033737
-0.00267037
0.00035102
-0.00278418
0.000361133
-0.00288241
0.000368356
-0.00296894
0.000373327
-0.00304741
0.000376613
-0.00312093
0.00037868
-0.00319196
0.000379883
-0.00326236
0.00038048
-0.00333337
0.000380639
-0.00340577
0.000380461
-0.00347991
0.000380002
-0.0035559
-0.00363353
0.000379288
4.67999e-06
-9.86402e-05
1.77185e-05
-0.000310867
3.82355e-05
-0.000542968
6.50484e-05
-0.000791072
9.66471e-05
-0.00104918
0.000131257
-0.00130986
0.000166981
-0.00156513
0.00020198
-0.00180751
0.000234665
-0.00203088
0.000263837
-0.00223117
0.000288765
-0.00240663
0.000309182
-0.00255765
0.000325217
-0.00268641
0.000337289
-0.00279625
0.000345987
-0.00289111
0.000351957
-0.00297491
0.000355821
-0.00305128
0.00035812
-0.00312323
0.000359291
-0.00319314
0.000359663
-0.00326273
0.000359468
-0.00333317
0.000358856
-0.00340515
0.000357916
-0.00347897
0.000356695
-0.00355468
-0.00363205
0.000355211
4.72673e-06
-0.000103367
1.78182e-05
-0.000323959
3.83044e-05
-0.000563454
6.49132e-05
-0.000817681
9.60569e-05
-0.00108033
0.000129909
-0.00134371
0.000164557
-0.00159978
0.000198189
-0.00184114
0.000229275
-0.00206196
0.000256703
-0.0022586
0.000279834
-0.00242976
0.000298488
-0.0025763
0.00031286
-0.00270078
0.000323412
-0.00280681
0.00033075
-0.00289844
0.000335516
-0.00297968
0.000338314
-0.00305407
0.000339656
-0.00312457
0.000339953
-0.00319343
0.000339506
-0.00326228
0.000338526
-0.00333219
0.000337146
-0.00340377
0.000335444
-0.00347727
0.000333458
-0.00355269
-0.00362979
0.000331202
4.76483e-06
-0.000108132
1.78852e-05
-0.000337079
3.83021e-05
-0.000583871
6.46567e-05
-0.000844036
9.52886e-05
-0.00111096
0.000128327
-0.00137675
0.000161852
-0.00163331
0.000194083
-0.00187337
0.000223559
-0.00209144
0.000249253
-0.0022843
0.000270618
-0.00245113
0.000287553
-0.00259324
0.000300316
-0.00271354
0.000309404
-0.00281589
0.000315434
-0.00290447
0.000319042
-0.00298329
0.000320808
-0.00305584
0.000321222
-0.00312498
0.000320662
-0.00319287
0.000319407
-0.00326103
0.000317647
-0.00333043
0.000315501
-0.00340163
0.000313036
-0.00347481
0.000310284
-0.00354994
-0.00362676
0.000307254
4.7948e-06
-0.000112927
1.79205e-05
-0.000350205
3.82307e-05
-0.000604181
6.42826e-05
-0.000870088
9.43489e-05
-0.00114103
0.000126522
-0.00140893
0.000158881
-0.00166567
0.000189686
-0.00190417
0.000217546
-0.0021193
0.00024152
-0.00230827
0.000261151
-0.00247076
0.000276413
-0.0026085
0.000287619
-0.00272475
0.000295295
-0.00282357
0.000300067
-0.00290924
0.000302557
-0.00298578
0.000303326
-0.00305661
0.000302834
-0.00312449
0.000301434
-0.00319147
0.00029938
-0.00325898
0.000296844
-0.0033279
0.000293933
-0.00339872
0.000290704
-0.00347158
0.000287184
-0.00354642
-0.00362295
0.000283376
4.81649e-06
-0.000117743
1.7924e-05
-0.000363312
3.80903e-05
-0.000624347
6.37924e-05
-0.00089579
9.32419e-05
-0.00117048
0.000124501
-0.00144018
0.000155656
-0.00169682
0.000185015
-0.00193353
0.000211256
-0.00214554
0.000233529
-0.00233054
0.000251459
-0.00248869
0.000265094
-0.00262213
0.000274794
-0.00273445
0.000281109
-0.00282989
0.000284668
-0.0029128
0.000286079
-0.00298719
0.00028588
-0.00305641
0.000284503
-0.00312311
0.000282275
-0.00318925
0.00027943
-0.00325613
0.000276122
-0.00332459
0.000272446
-0.00339504
0.000268452
-0.00346758
0.000264161
-0.00354213
-0.00361836
0.000259573
4.82975e-06
-0.000122573
1.78954e-05
-0.000376378
3.78811e-05
-0.000644333
6.31878e-05
-0.000921096
9.19717e-05
-0.00119926
0.000122272
-0.00147048
0.000152191
-0.00172674
0.000180086
-0.00196143
0.000204712
-0.00217017
0.000225304
-0.00235114
0.00024157
-0.00250495
0.000253623
-0.00263419
0.000261865
-0.00274269
0.000266868
-0.00283489
0.000269256
-0.00291519
0.000269623
-0.00298756
0.000268481
-0.00305527
0.000266237
-0.00312087
0.000263194
-0.0031862
0.000259564
-0.0032525
0.000255486
-0.00332051
0.000251045
-0.0033906
0.000246284
-0.00346282
0.000241219
-0.00353706
-0.003613
0.00023585
4.83447e-06
-0.000127407
1.78348e-05
-0.000389378
3.76038e-05
-0.000664102
6.2471e-05
-0.000945964
9.05435e-05
-0.00122733
0.000119844
-0.00149979
0.000148499
-0.0017554
0.000174917
-0.00198785
0.000197934
-0.00219318
0.000216869
-0.00237007
0.000231507
-0.00251959
0.000242023
-0.0026447
0.000248855
-0.00274952
0.00025259
-0.00283862
0.000253847
-0.00291645
0.000253201
-0.00298691
0.000251141
-0.00305321
0.000248047
-0.00311778
0.000244197
-0.00318235
0.000239786
-0.00324809
0.00023494
-0.00331567
0.000229734
-0.00338539
0.000224204
-0.00345729
0.000218364
-0.00353122
-0.00360684
0.000212211
4.8306e-06
-0.000132238
1.77422e-05
-0.00040229
3.72594e-05
-0.000683619
6.16447e-05
-0.000970349
8.89624e-05
-0.00125465
0.000117227
-0.00152805
0.000144591
-0.00178276
0.000169526
-0.00201278
0.000190943
-0.0022146
0.000208246
-0.00238737
0.000221294
-0.00253264
0.000230316
-0.00265372
0.000235784
-0.00275499
0.000238293
-0.00284113
0.000238455
-0.00291661
0.000236827
-0.00298528
0.000233869
-0.00305025
0.000229938
-0.00311384
0.00022529
-0.00317771
0.000220103
-0.0032429
0.000214489
-0.00331005
0.000208516
-0.00337942
0.000202217
-0.00345099
0.000195599
-0.00352461
-0.0035999
0.000188661
4.8181e-06
-0.000137056
1.76177e-05
-0.00041509
3.68488e-05
-0.00070285
6.07116e-05
-0.000994212
8.72342e-05
-0.00128117
0.000114429
-0.00155525
0.000140483
-0.00180881
0.000163928
-0.00203623
0.000183759
-0.00223443
0.000199457
-0.00240307
0.000210953
-0.00254414
0.000218524
-0.0026613
0.000222672
-0.00275914
0.000223995
-0.00284246
0.000223096
-0.00291571
0.000220509
-0.00298269
0.000216673
-0.00304641
0.000211917
-0.00310909
0.000206479
-0.00317227
0.000200518
-0.00323694
0.000194138
-0.00330367
0.000187397
-0.00337268
0.000180325
-0.00344392
0.000172928
-0.00351721
-0.00359218
0.000165203
4.79697e-06
-0.000141853
1.74619e-05
-0.000427754
3.63734e-05
-0.000721762
5.9675e-05
-0.00101751
8.53649e-05
-0.00130686
0.00011146
-0.00158134
0.000136186
-0.00183354
0.000158142
-0.00205818
0.0001764
-0.00225269
0.000190522
-0.00241719
0.000200504
-0.00255412
0.000206667
-0.00266746
0.000209535
-0.00276201
0.000209709
-0.00284263
0.00020778
-0.00291378
0.000204259
-0.00297917
0.000199561
-0.00304172
0.000193992
-0.00310352
0.000187768
-0.00316604
0.000181037
-0.00323021
0.000173889
-0.00329653
0.00016638
-0.00336517
0.000158533
-0.00343607
0.000150355
-0.00350903
-0.00358366
0.000141841
4.76723e-06
-0.00014662
1.7275e-05
-0.000440262
3.58347e-05
-0.000740322
5.85384e-05
-0.00104022
8.33607e-05
-0.00133168
0.000108329
-0.00160631
0.000131715
-0.00185692
0.000152183
-0.00207865
0.000168887
-0.00226939
0.000181462
-0.00242977
0.000189966
-0.00256262
0.000194761
-0.00267226
0.000196389
-0.00276363
0.00019545
-0.00284169
0.000192518
-0.00291085
0.000188086
-0.00297474
0.00018254
-0.00303617
0.000176167
-0.00309715
0.000169164
-0.00315904
0.000161663
-0.00322271
0.000153748
-0.00328861
0.000145468
-0.00335689
0.000136845
-0.00342745
0.000127884
-0.00350007
-0.00357436
0.000118581
4.72894e-06
-0.000151349
1.70576e-05
-0.000452591
3.52343e-05
-0.000758498
5.73053e-05
-0.00106229
8.12281e-05
-0.00135561
0.000105047
-0.00163013
0.000127081
-0.00187896
0.000146068
-0.00209764
0.000161235
-0.00228456
0.000172294
-0.00244083
0.000179358
-0.00256969
0.000182825
-0.00267572
0.00018325
-0.00276406
0.000181229
-0.00283967
0.000177322
-0.00290694
0.000171997
-0.00296942
0.000165618
-0.00302979
0.000158448
-0.00308998
0.000150669
-0.00315126
0.0001424
-0.00321444
0.000133718
-0.00327993
0.000124666
-0.00334784
0.000115265
-0.00341805
0.000105517
-0.00349032
-0.00356427
9.54243e-05
4.6822e-06
-0.000156031
1.68104e-05
-0.000464719
3.45741e-05
-0.000776262
5.59797e-05
-0.00108369
7.89737e-05
-0.0013786
0.000101624
-0.00165278
0.0001223
-0.00189963
0.000139811
-0.00211515
0.000153464
-0.00229821
0.000163037
-0.0024504
0.000168697
-0.00257535
0.000170873
-0.0026779
0.00017013
-0.00276332
0.000167059
-0.0028366
0.0001622
-0.00290208
0.000155999
-0.00296322
0.000148798
-0.00302259
0.000140839
-0.00308202
0.000132288
-0.00314271
0.000123253
-0.00320541
0.000113803
-0.00327048
0.000103978
-0.00333801
9.37953e-05
-0.00340787
8.32599e-05
-0.00347979
-0.00355338
7.23723e-05
4.62711e-06
-0.000160658
1.65339e-05
-0.000476626
3.38561e-05
-0.000793584
5.45656e-05
-0.0011044
7.66043e-05
-0.00140064
9.80676e-05
-0.00167424
0.000117382
-0.00191895
0.000133428
-0.0021312
0.000145588
-0.00231037
0.000153706
-0.00245852
0.000157998
-0.00257964
0.00015892
-0.00267882
0.000157042
-0.00276144
0.000152948
-0.00283251
0.00014716
-0.00289629
0.0001401
-0.00295616
0.000132088
-0.00301458
0.000123347
-0.00307328
0.000114027
-0.00313339
0.000104226
-0.0031956
9.40071e-05
-0.00326026
8.34065e-05
-0.00332741
7.24398e-05
-0.0033969
6.11141e-05
-0.00346846
-0.00354169
4.94236e-05
4.56381e-06
-0.000165222
1.62291e-05
-0.000488291
3.30823e-05
-0.000810437
5.30672e-05
-0.00112439
7.41267e-05
-0.0014217
9.43893e-05
-0.0016945
0.00011234
-0.0019369
0.000126933
-0.00214579
0.000137623
-0.00232106
0.000144318
-0.00246521
0.000147277
-0.0025826
0.000146978
-0.00267852
0.000143998
-0.00275846
0.000138907
-0.00282742
0.00013221
-0.0028896
0.000124305
-0.00294825
0.000115492
-0.00300576
0.000105973
-0.00306376
9.58874e-05
-0.0031233
8.53221e-05
-0.00318504
7.43346e-05
-0.00324927
6.2958e-05
-0.00331604
5.12057e-05
-0.00338515
3.90795e-05
-0.00345633
-0.00352918
2.65744e-05
4.49246e-06
-0.000169715
1.58966e-05
-0.000499695
3.2255e-05
-0.000826796
5.14887e-05
-0.00114362
7.15477e-05
-0.00144176
9.05981e-05
-0.00171355
0.000107186
-0.00195349
0.000120339
-0.00215894
0.000129584
-0.00233031
0.000134887
-0.00247052
0.000136546
-0.00258426
0.000135061
-0.00267704
0.000131007
-0.0027544
0.000124945
-0.00282135
0.000117356
-0.00288201
0.000108621
-0.00293952
9.90138e-05
-0.00299616
8.8724e-05
-0.00305347
7.78745e-05
-0.00311246
6.65455e-05
-0.00317371
5.47895e-05
-0.00323752
4.26386e-05
-0.00330389
3.01069e-05
-0.00337262
1.71617e-05
-0.00344339
-0.00351563
3.61059e-06
4.41324e-06
-0.000174128
1.55375e-05
-0.00051082
3.13765e-05
-0.000842635
4.98344e-05
-0.00116208
6.88741e-05
-0.0014608
8.67035e-05
-0.00173138
0.000101932
-0.00196872
0.000113661
-0.00217067
0.000121484
-0.00233813
0.000125426
-0.00247446
0.000125819
-0.00258465
0.000123178
-0.00267439
0.000118079
-0.0027493
0.000111067
-0.00281434
0.000102605
-0.00287355
9.30505e-05
-0.00292996
8.26588e-05
-0.00298576
7.16021e-05
-0.00304241
5.99915e-05
-0.00310084
4.78997e-05
-0.00316162
3.53752e-05
-0.00322499
2.24502e-05
-0.00329096
9.14447e-06
-0.00335931
-4.52532e-06
-0.00342972
-0.00350148
-1.86741e-05
4.32636e-06
-0.000178454
1.51526e-05
-0.000521646
3.04491e-05
-0.000857931
4.81087e-05
-0.00117974
6.61127e-05
-0.0014788
8.27147e-05
-0.00174799
9.65896e-05
-0.00198259
0.00010691
-0.00218099
0.000113338
-0.00234456
0.000115948
-0.00247707
0.000115107
-0.00258381
0.000111341
-0.00267063
0.000105223
-0.00274319
9.72824e-05
-0.0028064
8.79628e-05
-0.00286423
7.76e-05
-0.0029196
6.64306e-05
-0.00297459
5.46112e-05
-0.00303059
4.22418e-05
-0.00308848
2.93879e-05
-0.00314876
1.60947e-05
-0.0032117
2.39413e-06
-0.00327726
-1.16951e-05
-0.00334522
-2.61894e-05
-0.00341522
-0.00348663
-4.10416e-05
4.23203e-06
-0.000182686
1.47431e-05
-0.000532157
2.94752e-05
-0.000872663
4.63161e-05
-0.00119658
6.32701e-05
-0.00149576
7.86405e-05
-0.00176336
9.11687e-05
-0.00199512
0.000100099
-0.00218992
0.000105156
-0.00234962
0.000106466
-0.00247838
0.000104421
-0.00258176
9.95588e-05
-0.00266577
9.24454e-05
-0.00273607
8.35965e-05
-0.00279755
7.34339e-05
-0.00285406
6.22732e-05
-0.00290844
5.03329e-05
-0.00296265
3.77548e-05
-0.00301801
2.46288e-05
-0.00307535
1.10135e-05
-0.00313515
-3.04833e-06
-0.00319764
-1.75245e-05
-0.00326278
-3.23968e-05
-0.00333035
-4.76683e-05
-0.00339995
-0.00347098
-6.33205e-05
4.13048e-06
-0.000186817
1.43098e-05
-0.000542336
2.84572e-05
-0.000886811
4.44608e-05
-0.00121258
6.0353e-05
-0.00151165
7.44896e-05
-0.00177749
8.568e-05
-0.00200631
9.3238e-05
-0.00219748
9.69516e-05
-0.00235333
9.6989e-05
-0.00247842
9.37704e-05
-0.00257854
8.78395e-05
-0.00265984
7.97546e-05
-0.00272799
7.00153e-05
-0.00278781
5.90232e-05
-0.00284307
4.70741e-05
-0.00289649
3.43691e-05
-0.00294995
2.10363e-05
-0.00300468
7.15563e-06
-0.00306147
-7.22002e-06
-0.00312077
-2.20506e-05
-0.00318281
-3.73037e-05
-0.00324753
-5.29587e-05
-0.00331469
-6.90122e-05
-0.0033839
-0.00345453
-8.54676e-05
4.02196e-06
-0.000190839
1.38539e-05
-0.000552168
2.73977e-05
-0.000900355
4.25473e-05
-0.00122773
5.73678e-05
-0.00152647
7.02706e-05
-0.0017904
8.01334e-05
-0.00201617
8.63389e-05
-0.00220368
8.87342e-05
-0.00235572
8.75287e-05
-0.00247721
8.3165e-05
-0.00257418
7.61911e-05
-0.00265286
6.71566e-05
-0.00271895
5.65439e-05
-0.0027772
4.47351e-05
-0.00283126
3.20064e-05
-0.00288376
1.85424e-05
-0.00293649
4.45861e-06
-0.0029906
-1.01743e-05
-0.00304684
-2.53094e-05
-0.00310564
-4.09087e-05
-0.00316721
-5.69394e-05
-0.0032315
-7.33777e-05
-0.00329826
-9.02172e-05
-0.00336706
-0.00343727
-0.000107473
3.90673e-06
-0.000194745
1.33765e-05
-0.000561638
2.62992e-05
-0.000913277
4.05799e-05
-0.00124201
5.43208e-05
-0.00154021
6.59916e-05
-0.00180207
7.45384e-05
-0.00202472
7.94117e-05
-0.00220856
8.05143e-05
-0.00235683
7.80942e-05
-0.00247479
7.2613e-05
-0.0025687
6.46209e-05
-0.00264487
5.46572e-05
-0.00270899
4.31872e-05
-0.00276573
3.05732e-05
-0.00281865
1.70732e-05
-0.00287026
2.85599e-06
-0.00292227
-1.1975e-05
-0.00297577
-2.7358e-05
-0.00303145
-4.32512e-05
-0.00308975
-5.96192e-05
-0.00315084
-7.64279e-05
-0.00321469
-9.36503e-05
-0.00328103
-0.000111278
-0.00334943
-0.00341922
-0.00012933
3.78507e-06
-0.000198531
1.28787e-05
-0.000570732
2.51641e-05
-0.000925563
3.85628e-05
-0.00125541
5.12183e-05
-0.00155287
6.16603e-05
-0.00181251
6.8904e-05
-0.00203196
7.24657e-05
-0.00221212
7.23014e-05
-0.00235666
6.86941e-05
-0.00247118
6.2122e-05
-0.00256213
5.31352e-05
-0.00263588
4.22617e-05
-0.00269812
2.99494e-05
-0.00275342
1.65414e-05
-0.00280524
2.27774e-06
-0.002856
-1.26871e-05
-0.0029073
-2.82617e-05
-0.00296019
-4.43922e-05
-0.00301532
-6.10423e-05
-0.0030731
-7.81783e-05
-0.0031337
-9.57653e-05
-0.0031971
-0.000113773
-0.00326303
-0.000132189
-0.00333102
-0.00340037
-0.000151035
3.65723e-06
-0.000202188
1.23615e-05
-0.000579436
2.3995e-05
-0.000937196
3.65004e-05
-0.00126792
4.80661e-05
-0.00156443
5.72843e-05
-0.00182173
6.32388e-05
-0.00203792
6.55101e-05
-0.00221439
6.41042e-05
-0.00235526
5.93368e-05
-0.00246642
5.16992e-05
-0.00255449
4.174e-05
-0.00262592
2.99751e-05
-0.00268635
1.68345e-05
-0.00274028
2.64272e-06
-0.00279105
-1.23769e-05
-0.00284098
-2.80843e-05
-0.0028916
-4.43985e-05
-0.00294388
-6.12739e-05
-0.00299845
-7.8679e-05
-0.00305569
-9.65824e-05
-0.0031158
-0.000114948
-0.00317874
-0.000133741
-0.00324423
-0.000152946
-0.00331181
-0.00338073
-0.000172584
3.52352e-06
-0.000205711
1.18263e-05
-0.000587739
2.27943e-05
-0.000948164
3.43966e-05
-0.00127952
4.48701e-05
-0.00157491
5.28708e-05
-0.00182973
5.7551e-05
-0.0020426
5.85532e-05
-0.00221539
5.59311e-05
-0.00235263
5.00295e-05
-0.00246051
4.1351e-05
-0.00254581
3.04408e-05
-0.00261501
1.78016e-05
-0.00267371
3.84597e-06
-0.00272632
-1.11196e-05
-0.00277608
-2.68882e-05
-0.00282521
-4.33328e-05
-0.00287515
-6.03828e-05
-0.00292683
-7.8e-05
-0.00298083
-9.61581e-05
-0.00303753
-0.000114828
-0.00309713
-0.000133972
-0.0031596
-0.000153551
-0.00322465
-0.000173545
-0.00329182
-0.000193972
3.38422e-06
-0.000209095
1.12739e-05
-0.000595628
2.15645e-05
-0.000958455
3.22556e-05
-0.00129021
4.16359e-05
-0.00158429
4.84267e-05
-0.00183652
5.18482e-05
-0.00204602
5.16029e-05
-0.00221515
4.77895e-05
-0.00234882
4.07791e-05
-0.0024535
3.10833e-05
-0.00253612
1.92423e-05
-0.00260317
5.74525e-06
-0.00266021
-9.0128e-06
-0.00271156
-2.4743e-05
-0.00276035
-4.12536e-05
-0.0028087
-5.84303e-05
-0.00285797
-7.62118e-05
-0.00290905
-9.45674e-05
-0.00296247
-0.000113476
-0.00301862
-0.000132911
-0.00307769
-0.000152833
-0.00313967
-0.000173198
3.23963e-06
-0.000212335
1.07057e-05
-0.000603094
2.03079e-05
-0.000968057
3.00811e-05
-0.00129998
3.83689e-05
-0.00159257
4.39586e-05
-0.00184211
4.61378e-05
-0.0020482
4.46668e-05
-0.00221368
3.96865e-05
-0.00234384
3.15921e-05
-0.00244541
2.09016e-05
-0.00252542
8.14913e-06
-0.00259042
-6.19032e-06
-0.00264588
-2.17389e-05
-0.00269602
-3.82247e-05
-0.00274387
-5.54708e-05
-0.00279145
-7.33742e-05
-0.00284007
-9.18829e-05
-0.00289054
-0.000110973
-0.00294338
-0.000130629
-0.00299897
-0.000150827
-0.0030575
3.09003e-06
-0.000215425
1.01227e-05
-0.000610127
1.9027e-05
-0.000976961
2.78772e-05
-0.00130883
3.50742e-05
-0.00159977
3.94727e-05
-0.00184651
4.04265e-05
-0.00204915
3.77518e-05
-0.002211
3.16287e-05
-0.00233772
2.24743e-05
-0.00243625
1.08108e-05
-0.00251376
-2.83475e-06
-0.00257677
-1.80018e-05
-0.00263071
-3.43297e-05
-0.00267969
-5.15626e-05
-0.00272663
-6.95375e-05
-0.00277348
-8.81623e-05
-0.00282145
-0.000107393
-0.00287131
-0.000127214
-0.00292356
-0.000147615
-0.00297857
2.93574e-06
-0.000218361
9.52608e-06
-0.000616717
1.7724e-05
-0.000985159
2.56474e-05
-0.00131676
3.17569e-05
-0.00160588
3.4975e-05
-0.00184972
3.47208e-05
-0.0020489
3.08641e-05
-0.00220714
2.36221e-05
-0.00233048
1.34308e-05
-0.00242606
8.15475e-07
-0.00250115
-1.37056e-05
-0.00256225
-2.96863e-05
-0.00261473
-4.67825e-05
-0.00266259
-6.47544e-05
-0.00270866
-8.34516e-05
-0.00275478
-0.000102792
-0.00280211
-0.000122741
-0.00285136
-0.000143288
-0.00290302
2.77704e-06
-0.000221138
8.91688e-06
-0.000622857
1.64013e-05
-0.000992644
2.33953e-05
-0.00132375
2.84218e-05
-0.00161091
3.04712e-05
-0.00185177
2.90269e-05
-0.00204745
2.40101e-05
-0.00220213
1.56723e-05
-0.00232214
4.46675e-06
-0.00241486
-9.08048e-06
-0.0024876
-2.44601e-05
-0.00254687
-4.1241e-05
-0.00259795
-5.90953e-05
-0.00264474
-7.77981e-05
-0.00268996
-9.72111e-05
-0.00273537
-0.000117262
-0.00278205
-0.000137924
2.61423e-06
-0.000223752
8.2962e-06
-0.000628539
1.5061e-05
-0.000999409
2.11244e-05
-0.00132982
2.50733e-05
-0.00161486
2.59667e-05
-0.00185267
2.33505e-05
-0.00204484
1.71956e-05
-0.00219597
7.7832e-06
-0.00231273
-4.41307e-06
-0.00240266
-1.8873e-05
-0.00247314
-3.50953e-05
-0.00253065
-5.26635e-05
-0.00258038
-7.1266e-05
-0.00262614
-9.06917e-05
-0.00267053
-0.000110814
-0.00271525
2.44762e-06
-0.0002262
7.66514e-06
-0.000633757
1.37053e-05
-0.00100545
1.8838e-05
-0.00133495
2.17158e-05
-0.00161773
2.14662e-05
-0.00185242
1.76967e-05
-0.00204107
1.04267e-05
-0.0021887
-2.22528e-08
-0.00230228
-1.32035e-05
-0.00238948
-2.85592e-05
-0.00245778
-4.56084e-05
-0.0025136
-6.39517e-05
-0.00256203
-8.32924e-05
-0.00260679
-0.000103434
-0.00265039
2.27749e-06
-0.000228477
7.02472e-06
-0.000638504
1.23363e-05
-0.00101076
1.65393e-05
-0.00133915
1.83536e-05
-0.00161955
1.69747e-05
-0.00185104
1.20704e-05
-0.00203616
3.7042e-06
-0.00218034
-7.78767e-06
-0.00229079
-2.19055e-05
-0.00237536
-3.81357e-05
-0.00244155
-5.59971e-05
-0.00249574
-7.51032e-05
-0.00254293
-9.5173e-05
-0.00258672
2.10415e-06
-0.000230581
6.37601e-06
-0.000642776
1.09561e-05
-0.00101534
1.42314e-05
-0.00134243
1.49905e-05
-0.00162031
1.24969e-05
-0.00184855
6.47644e-06
-0.00203014
-2.96384e-06
-0.0021709
-1.54608e-05
-0.00227829
-3.05114e-05
-0.00236031
-4.75999e-05
-0.00242446
-6.62586e-05
-0.00247708
-8.61163e-05
-0.00252307
1.92791e-06
-0.000232509
5.71998e-06
-0.000646568
9.56655e-06
-0.00101919
1.19172e-05
-0.00134478
1.16303e-05
-0.00162002
8.03698e-06
-0.00184495
9.21963e-07
-0.00202303
-9.57393e-06
-0.0021604
-2.30559e-05
-0.00226481
-3.90187e-05
-0.00234435
-5.69487e-05
-0.00240653
-7.63911e-05
-0.00245764
1.74909e-06
-0.000234258
5.05767e-06
-0.000649877
8.16964e-06
-0.0010223
9.59964e-06
-0.00134621
8.27668e-06
-0.0016187
3.59855e-06
-0.00184027
-4.59664e-06
-0.00201483
-1.61224e-05
-0.00214887
-3.0569e-05
-0.00225036
-4.74246e-05
-0.00232749
-6.61799e-05
-0.00238778
1.56806e-06
-0.000235826
4.39005e-06
-0.000652699
6.76716e-06
-0.00102468
7.28134e-06
-0.00134672
4.93317e-06
-0.00161635
-8.11073e-07
-0.00183453
-1.00678e-05
-0.00200558
-2.26054e-05
-0.00213634
-3.79969e-05
-0.00223497
-5.57265e-05
-0.00230976
-0.00236821
1.38517e-06
-0.000237212
3.71809e-06
-0.000655031
5.36092e-06
-0.00102632
4.96495e-06
-0.00134633
1.60328e-06
-0.00161299
-5.19837e-06
-0.00182773
-1.54914e-05
-0.00199528
-2.90199e-05
-0.00212281
-4.53362e-05
-0.00221865
-6.39222e-05
-0.00229118
1.20059e-06
-0.000238412
3.04271e-06
-0.000656874
3.95274e-06
-0.00102723
2.65254e-06
-0.00134503
-1.71165e-06
-0.00160862
-9.54968e-06
-0.00181989
-2.08633e-05
-0.00198397
-3.53624e-05
-0.00210831
-5.25845e-05
-0.00220143
1.01469e-06
-0.000239427
2.36474e-06
-0.000658224
2.54447e-06
-0.00102741
3.51977e-07
-0.00134283
-5.00818e-06
-0.00160326
-1.38658e-05
-0.00181103
-2.61801e-05
-0.00197166
-4.16302e-05
-0.00209286
8.2779e-07
-0.000240255
1.68504e-06
-0.000659081
1.13633e-06
-0.00102686
-1.94972e-06
-0.00133975
-8.28287e-06
-0.00159693
-1.81431e-05
-0.00180117
-3.14392e-05
-0.00195836
6.40027e-07
-0.000240895
1.00443e-06
-0.000659445
-2.67619e-07
-0.00102559
-4.23554e-06
-0.00133578
-1.1533e-05
-0.00158963
-2.23788e-05
-0.00179033
4.51202e-07
-0.000241346
3.22101e-07
-0.000659316
-1.67095e-06
-0.00102359
-6.50855e-06
-0.00133094
-1.4756e-05
-0.00158138
-0.00177851
2.59114e-07
-0.000241605
-3.58732e-07
-0.000658698
-3.06728e-06
-0.00102089
-8.76639e-06
-0.00132524
-1.79498e-05
-0.0015722
5.12115e-08
-0.000241656
-1.04041e-06
-0.000657607
-4.45692e-06
-0.00101747
-1.10072e-05
-0.00131869
-1.37068e-07
-0.000241519
-1.71893e-06
-0.000656025
-5.83833e-06
-0.00101335
-0.0013113
-3.17264e-07
-0.000241202
-2.39319e-06
-0.000653949
-7.21028e-06
-0.00100853
-5.06251e-07
-0.000240696
-3.06468e-06
-0.00065139
-6.96412e-07
-0.000239999
-0.000648354
-8.86135e-07
-0.000239113
-0.000238038
0.00022213
0.000222944
-6.23155e-07
0.000223567
0.000607299
-4.3195e-07
0.000223999
0.00060962
-2.43197e-07
0.000224242
-2.07467e-06
0.000611451
0.000947648
-6.41947e-08
0.000224307
-1.39442e-06
0.000612782
-5.09283e-06
0.000951346
0.00123709
1.3822e-07
0.000224168
-7.0919e-07
0.000613629
-3.69637e-06
0.000954333
0.00124304
3.37197e-07
0.000223831
-3.22094e-08
0.000613998
-2.29355e-06
0.000956594
-7.38288e-06
0.00124813
0.00148797
5.28074e-07
0.000223303
6.60574e-07
0.000613866
-8.83517e-07
0.000958139
-5.09624e-06
0.00125235
-1.2583e-05
0.00149546
0.00168973
7.17025e-07
0.000222586
1.34436e-06
0.000613238
5.29946e-07
0.000958953
-2.79634e-06
0.00125567
-9.30996e-06
0.00150197
-1.92818e-05
0.00169971
0.00185369
9.04877e-07
0.000221681
2.02747e-06
0.000612116
1.94537e-06
0.000959035
-4.82496e-07
0.0012581
-6.01203e-06
0.0015075
-1.49692e-05
0.00170866
0.00186604
1.0917e-06
0.00022059
2.709e-06
0.000610499
3.36201e-06
0.000958382
1.83543e-06
0.00125963
-2.69231e-06
0.00151203
-1.0617e-05
0.00171659
-2.19547e-05
0.00187738
0.00200078
1.27717e-06
0.000219312
3.38802e-06
0.000608388
4.77848e-06
0.000956992
4.16277e-06
0.00126024
6.49907e-07
0.00151554
-6.22847e-06
0.00172347
-1.65314e-05
0.00188768
-3.00221e-05
0.00201427
0.00211065
1.46103e-06
0.000217851
4.06359e-06
0.000605785
6.19296e-06
0.000954862
6.49418e-06
0.00125994
4.00281e-06
0.00151803
-1.80616e-06
0.00172928
-1.10556e-05
0.00189693
-2.35371e-05
0.00202675
-3.88505e-05
0.00212597
0.00220212
1.64303e-06
0.000216208
4.73475e-06
0.000602693
7.60359e-06
0.000951993
8.82774e-06
0.00125872
7.3722e-06
0.00151949
2.64513e-06
0.001734
-5.53162e-06
0.00190511
-1.69811e-05
0.0020382
-3.13308e-05
0.00214032
-4.80881e-05
0.00221888
0.00228088
1.82274e-06
0.000214386
5.40047e-06
0.000599116
9.00848e-06
0.000948385
1.11605e-05
0.00125656
1.07514e-05
0.0015199
7.12362e-06
0.00173763
5.9177e-08
0.00191217
-1.0357e-05
0.00204862
-2.37231e-05
0.00215368
-3.95677e-05
0.00223472
-5.73944e-05
0.00229871
0.00235162
1.99979e-06
0.000212386
6.05969e-06
0.000595056
1.04057e-05
0.000944039
1.34895e-05
0.00125348