/*--------------------------------*- C++ -*----------------------------------*\
  =========                 |
  \\      /  F ield         | OpenFOAM: The Open Source CFD Toolbox
   \\    /   O peration     | Website:  https://openfoam.org
    \\  /    A nd           | Version:  7
     \\/     M anipulation  |
\*---------------------------------------------------------------------------*/
FoamFile
{
    version     2.0;
    format      ascii;
    class       volVectorField;
    location    "100";
    object      U;
}
// * * * * * * * * * * * * * * * * * * * * * * * * * * * * * * * * * * * * * //

dimensions      [0 1 -1 0 0 0 0];

internalField   nonuniform List<vector> 
7156
(
(0.0274466 -0.00531429 1.85257e-20)
(0.0959096 -0.013751 1.05303e-20)
(0.0299669 -0.00536211 -1.66263e-19)
(0.103283 -0.0134949 6.22727e-20)
(0.190803 -0.0151537 1.92011e-19)
(0.290609 -0.0119674 -1.33456e-19)
(0.0325797 -0.00534923 3.97525e-20)
(0.110876 -0.0130579 1.33228e-19)
(0.203129 -0.0138361 1.28944e-20)
(0.307308 -0.00946168 -1.27444e-20)
(0.421002 -0.000242715 -1.57913e-19)
(0.54111 0.0132804 -1.4882e-20)
(0.663963 0.0302879 2.01826e-19)
(0.0352822 -0.00527125 -1.2223e-19)
(0.118675 -0.0124295 -1.13374e-19)
(0.215716 -0.0122117 -1.65168e-19)
(0.324255 -0.00654953 -8.02228e-20)
(0.441699 0.00413989 9.97531e-20)
(0.564747 0.0191965 1.21042e-19)
(0.689546 0.0376762 -1.33851e-19)
(0.81197 0.0584608 -1.21347e-19)
(0.927966 0.0803142 -8.25651e-20)
(1.03394 0.101987 3.26759e-20)
(0.0380706 -0.00512385 6.68002e-20)
(0.126669 -0.0115996 8.69012e-20)
(0.228539 -0.0102679 6.30696e-20)
(0.341413 -0.00321914 3.21221e-20)
(0.462514 0.00901358 -5.86228e-21)
(0.588343 0.0256446 -1.40483e-19)
(0.714879 0.0456024 7.47004e-20)
(0.837891 0.0676545 9.89328e-21)
(0.953316 0.0904775 -1.22209e-20)
(1.05766 0.112772 1.97622e-19)
(1.14833 0.13339 -5.15177e-21)
(1.22383 0.151432 -2.8915e-20)
(1.28382 0.166318 5.82337e-20)
(0.0409412 -0.00490284 1.58432e-20)
(0.134843 -0.0105586 -1.34432e-19)
(0.241573 -0.00799317 -1.57317e-20)
(0.358743 0.000539837 1.4878e-19)
(0.483395 0.0143849 -3.06671e-20)
(0.611839 0.0326254 7.31065e-20)
(0.739897 0.05406 -7.71571e-20)
(0.863258 0.0773443 2.05878e-20)
(0.977881 0.101074 -2.78287e-20)
(1.0804 0.12391 3.46308e-21)
(1.16844 0.144706 -4.93919e-20)
(1.2408 0.162609 -1.35893e-19)
(1.29743 0.177105 7.01652e-20)
(1.33929 0.18802 -2.09753e-20)
(1.36806 0.195472 1.23452e-19)
(1.38587 0.199791 -7.90677e-21)
(1.39497 0.201441 -1.9063e-19)
(0.0438893 -0.00460415 4.35523e-20)
(0.143182 -0.00929767 6.73215e-20)
(0.25479 -0.00537716 -1.70124e-20)
(0.376208 0.00473628 -6.61317e-20)
(0.504293 0.0202583 -1.27375e-20)
(0.635176 0.040137 1.3328e-19)
(0.764539 0.0630403 5.58298e-20)
(0.888015 0.0875149 -1.30552e-20)
(1.00161 0.112083 6.11586e-20)
(1.10212 0.135376 -6.10518e-20)
(1.18741 0.156265 5.66049e-20)
(1.25658 0.173946 5.11757e-21)
(1.30986 0.187985 -6.15765e-20)
(1.34848 0.198292 -8.60623e-20)
(1.37433 0.205064 -1.20264e-19)
(1.38963 0.208701 -8.67669e-20)
(1.39669 0.20971 1.26051e-19)
(1.39764 0.208629 -2.6105e-20)
(1.39432 0.205966 -7.11783e-20)
(1.38819 0.202162 -4.27216e-20)
(1.38036 0.197571 -6.37638e-20)
(0.04691 -0.00422389 -5.49846e-20)
(0.151671 -0.00780826 2.45798e-20)
(0.268164 -0.00241047 6.98276e-20)
(0.393766 0.00937745 3.04218e-20)
(0.525157 0.0266365 7.9165e-20)
(0.658295 0.0481758 -1.19524e-19)
(0.788744 0.0725326 -2.83159e-20)
(0.912105 0.0981492 2.41486e-20)
(1.02446 0.123483 3.73529e-20)
(1.1228 0.147148 1.28627e-19)
(1.20524 0.168042 -4.04677e-20)
(1.27117 0.185424 6.64789e-20)
(1.32115 0.198942 -3.69403e-20)
(1.35662 0.208594 -3.39471e-20)
(1.37966 0.21466 6.10872e-20)
(1.3926 0.2176 9.21218e-20)
(1.39776 0.217964 -8.08976e-20)
(1.39728 0.216314 -2.58189e-20)
(1.39291 0.213165 1.67856e-20)
(1.38607 0.208953 1.09718e-19)
(1.37777 0.204022 1.74273e-19)
(1.36869 0.198631 8.0387e-20)
(1.35927 0.192968 1.95586e-20)
(1.34971 0.187164 1.02128e-19)
(1.34003 0.181038 -1.95107e-20)
(0.0499981 -0.00375839 1.33072e-19)
(0.160292 -0.00608272 -5.8509e-20)
(0.281664 0.000915035 -4.78851e-20)
(0.411377 0.0144689 4.54773e-20)
(0.545936 0.0335201 -2.15373e-19)
(0.68114 0.0567359 3.10531e-20)
(0.812456 0.0825242 5.37233e-20)
(0.935478 0.109229 8.76443e-21)
(1.0464 0.135253 -5.43706e-20)
(1.14241 0.159203 -1.30102e-19)
(1.22191 0.180016 -1.57154e-21)
(1.28461 0.197023 -5.26589e-20)
(1.33132 0.209961 5.93163e-21)
(1.36375 0.218918 1.28129e-19)
(1.38411 0.224252 4.36169e-20)
(1.39482 0.226483 -4.5211e-20)
(1.39824 0.226202 1.50512e-19)
(1.39644 0.223986 -1.98377e-20)
(1.39114 0.220356 7.85257e-20)
(1.38366 0.21574 -1.35128e-19)
(1.37494 0.210472 -4.74129e-20)
(1.36562 0.204796 -1.05517e-19)
(1.35605 0.198889 1.05723e-19)
(1.34641 0.192859 -3.01964e-20)
(1.33669 0.186581 -3.91567e-20)
(0.0531475 -0.00320418 -4.07904e-20)
(0.169027 -0.00411411 2.37367e-20)
(0.29526 0.00460624 1.07493e-20)
(0.428997 0.0200146 -1.24062e-19)
(0.566577 0.0409077 1.16393e-20)
(0.703655 0.0658094 -3.06545e-20)
(0.835619 0.0930006 -5.92618e-21)
(0.958088 0.120734 5.57761e-20)
(1.06739 0.147368 2.54404e-20)
(1.16094 0.171517 7.88482e-20)
(1.23744 0.192165 4.24284e-20)
(1.2969 0.208725 2.23384e-21)
(1.34041 0.221028 -1.9089e-23)
(1.3699 0.229253 -4.72023e-20)
(1.38771 0.233835 5.35929e-20)
(1.39635 0.235349 -5.51723e-21)
(1.39815 0.234421 -5.18557e-20)
(1.39516 0.231645 -1.26426e-19)
(1.38902 0.227538 -2.02618e-20)
(1.38098 0.222523 -6.18042e-21)
(1.37191 0.21692 -5.24804e-20)
(1.36237 0.210959 9.43526e-20)
(1.35269 0.204805 -7.67228e-20)
(1.34298 0.198547 -2.6655e-20)
(1.33324 0.192113 6.09187e-20)
(0.0563522 -0.00255809 2.1811e-20)
(0.177857 -0.0018963 -3.65334e-20)
(0.30892 0.00866865 6.26242e-20)
(0.446585 0.0260165 9.47112e-20)
(0.587031 0.0487959 1.87753e-20)
(0.725785 0.0753862 4.46444e-20)
(0.858182 0.103946 -9.46497e-20)
(0.97989 0.132644 -3.93938e-20)
(1.0874 0.159807 1.63638e-20)
(1.17838 0.184066 2.16357e-22)
(1.25183 0.204467 -8.97174e-21)
(1.30807 0.220513 4.10828e-20)
(1.34846 0.23213 3.4998e-20)
(1.37511 0.23959 5.47703e-20)
(1.39052 0.243402 -7.43975e-20)
(1.39721 0.244195 -2.11061e-20)
(1.39753 0.242621 -2.05584e-21)
(1.39345 0.239288 8.07206e-20)
(1.38657 0.23471 -4.70158e-20)
(1.37804 0.2293 4.34262e-20)
(1.36867 0.223364 -5.06784e-20)
(1.35896 0.217118 -4.13034e-20)
(1.34918 0.210714 -2.9186e-20)
(1.33943 0.204225 4.00421e-20)
(1.32968 0.19763 2.37258e-21)
(0.0596055 -0.00181721 -3.11663e-20)
(0.186762 0.000575945 -2.88149e-20)
(0.322612 0.0131064 -8.96331e-20)
(0.464097 0.032475 5.53252e-20)
(0.607248 0.057179 5.40846e-20)
(0.747478 0.0854544 -3.69101e-20)
(0.880095 0.115341 7.45326e-20)
(1.00085 0.144936 -1.32452e-21)
(1.10641 0.172544 2.92087e-21)
(1.19472 0.196826 -2.75346e-20)
(1.26509 0.216903 2.30097e-20)
(1.31814 0.232369 -2.12333e-20)
(1.35549 0.243254 -5.5697e-20)
(1.37944 0.249921 -1.13983e-20)
(1.39257 0.252949 8.02683e-21)
(1.39745 0.253016 2.92924e-20)
(1.3964 0.2508 2.47826e-20)
(1.39135 0.246915 -1.22646e-20)
(1.38381 0.241871 -2.51952e-20)
(1.37485 0.236069 1.85298e-20)
(1.36522 0.2298 3.48288e-20)
(1.35537 0.223269 3.52177e-20)
(1.34553 0.216614 2.28228e-21)
(1.33575 0.209891 3.92606e-20)
(1.326 0.203129 -8.67458e-21)
(0.0629004 -0.000978951 1.26445e-20)
(0.195722 0.00330697 2.46933e-20)
(0.336304 0.0179222 2.44e-20)
(0.481491 0.0393884 -1.02507e-20)
(0.627177 0.0660498 -1.97803e-20)
(0.768684 0.0960002 2.35576e-20)
(0.901314 0.127169 -1.46986e-20)
(1.02092 0.157588 1.4964e-20)
(1.1244 0.185555 -4.61071e-20)
(1.20996 0.209776 2.00965e-20)
(1.27724 0.229451 1.27729e-20)
(1.32714 0.244278 3.91188e-20)
(1.36155 0.254389 2.84335e-20)
(1.3829 0.260238 -1.13943e-20)
(1.39389 0.262471 -1.12729e-20)
(1.3971 0.26181 3.22583e-21)
(1.39481 0.258955 -1.57284e-20)
(1.38888 0.254523 6.49841e-21)
(1.38075 0.249018 1.73839e-20)
(1.37143 0.242827 -2.09686e-20)
(1.36159 0.236228 9.30397e-21)
(1.35163 0.229409 -2.53463e-20)
(1.34173 0.222499 2.356e-20)
(1.33194 0.21554 -2.96685e-20)
(1.3222 0.208608 1.15935e-20)
(0.0662297 -4.10558e-05 -2.01493e-20)
(0.204716 0.00630014 2.16393e-21)
(0.349963 0.0231172 1.43042e-20)
(0.498724 0.0467534 -2.43027e-20)
(0.646771 0.0753989 -5.00626e-21)
(0.789353 0.107008 -2.71864e-20)
(0.921797 0.139407 -2.98047e-20)
(1.04009 0.170575 -8.87395e-21)
(1.14135 0.198816 4.16528e-21)
(1.2241 0.222891 7.61594e-21)
(1.28828 0.242092 -2.73751e-20)
(1.3351 0.256224 -6.83675e-21)
(1.36666 0.265524 -2.73672e-20)
(1.38555 0.270533 -1.61148e-20)
(1.39453 0.271963 1.17612e-20)
(1.39619 0.270574 -1.01778e-20)
(1.39277 0.267084 -1.97626e-20)
(1.38605 0.262111 -1.8383e-20)
(1.37741 0.25615 -1.76342e-21)
(1.36777 0.249572 -2.6427e-20)
(1.35776 0.242642 1.00105e-21)
(1.34772 0.235536 3.10339e-20)
(1.33779 0.228368 4.18019e-22)
(1.328 0.221169 -7.9214e-21)
(1.31828 0.214063 8.17353e-21)
(0.0695858 0.000998381 9.65149e-21)
(0.213723 0.00955784 3.70413e-21)
(0.363554 0.0286912 -4.36502e-21)
(0.515754 0.0545649 4.13058e-21)
(0.665982 0.0852149 -1.82228e-21)
(0.809441 0.118461 7.74814e-21)
(0.941503 0.152033 -2.143e-21)
(1.05832 0.183873 1.74565e-21)
(1.15725 0.212302 -6.0622e-21)
(1.23714 0.23615 -7.06241e-21)
(1.29825 0.254807 -3.86687e-21)
(1.34205 0.268192 1.22433e-20)
(1.37086 0.276647 5.71586e-21)
(1.38742 0.280798 -6.65843e-21)
(1.39452 0.281419 5.90475e-21)
(1.39475 0.279305 -7.28124e-22)
(1.3903 0.275185 1.10715e-20)
(1.38289 0.269676 4.91538e-21)
(1.37379 0.263262 1.6657e-21)
(1.3639 0.256301 1.55923e-20)
(1.35375 0.24904 -2.94083e-21)
(1.34364 0.241644 -1.28332e-20)
(1.3337 0.234216 -6.44877e-22)
(1.32393 0.226774 1.9896e-21)
(1.31424 0.219489 -5.90368e-21)
(0.0729611 0.00214091 5.22034e-21)
(0.222721 0.0130814 6.26316e-21)
(0.377046 0.0346424 -7.03223e-21)
(0.532539 0.0628158 1.01149e-20)
(0.684767 0.0954848 -3.31311e-21)
(0.828904 0.13034 3.24873e-21)
(0.960399 0.165025 -6.63837e-22)
(1.07558 0.197458 1.752e-21)
(1.1721 0.225989 -3.93192e-21)
(1.24909 0.249529 -1.04367e-20)
(1.30715 0.267578 -6.63705e-22)
(1.34801 0.280168 1.0627e-20)
(1.37419 0.287748 7.71978e-21)
(1.38853 0.291028 -7.37838e-21)
(1.39389 0.290836 5.20443e-21)
(1.3928 0.287998 1.20835e-21)
(1.38742 0.283253 7.09337e-21)
(1.37939 0.277214 5.24328e-21)
(1.36992 0.270352 3.29762e-21)
(1.3598 0.263008 1.3556e-20)
(1.34955 0.255417 -1.43685e-22)
(1.33941 0.247731 -1.31008e-20)
(1.32947 0.240039 -3.71446e-21)
(1.31973 0.232352 3.66016e-21)
(1.31007 0.224884 -2.73598e-21)
(0.0763476 0.0033877 -1.29781e-20)
(0.231688 0.0168713 -5.70898e-21)
(0.390404 0.0409675 5.86009e-21)
(0.549038 0.0714975 -1.42517e-20)
(0.703081 0.106194 8.14226e-22)
(0.847702 0.142624 -4.35272e-20)
(0.978451 0.178359 -2.62662e-20)
(1.09187 0.211302 -7.9102e-21)
(1.18588 0.239851 1.37235e-20)
(1.25996 0.263007 -1.10999e-20)
(1.31501 0.280385 -2.07168e-20)
(1.35301 0.292138 -1.26446e-20)
(1.37667 0.298817 -1.29063e-20)
(1.38893 0.301213 -1.10377e-20)
(1.39266 0.300207 6.05357e-21)
(1.39038 0.296649 -1.19333e-20)
(1.38416 0.291286 -2.38699e-20)
(1.37559 0.284723 -6.89713e-21)
(1.36578 0.277416 -1.1786e-20)
(1.35549 0.269692 -2.0199e-20)
(1.34516 0.26177 -3.92641e-21)
(1.33501 0.253791 2.29336e-20)
(1.3251 0.245832 3.58721e-21)
(1.31539 0.237897 -6.05733e-21)
(1.30578 0.230243 2.11798e-20)
(0.0797368 0.00473952 8.74086e-21)
(0.240602 0.0209267 -1.11235e-20)
(0.403595 0.0476617 4.2773e-20)
(0.565211 0.0805996 -2.3905e-20)
(0.720882 0.117326 -8.07422e-21)
(0.865796 0.155293 3.1953e-20)
(0.995632 0.19201 -1.13014e-20)
(1.10715 0.225382 6.03126e-21)
(1.1986 0.253865 -1.73582e-20)
(1.26976 0.276563 -6.47105e-21)
(1.32184 0.293213 4.27018e-21)
(1.35709 0.304088 3.8638e-20)
(1.37835 0.309844 2.3857e-20)
(1.38865 0.311347 9.70799e-21)
(1.39086 0.309527 -1.40365e-20)
(1.38749 0.305255 -5.5387e-21)
(1.38053 0.29928 3.78139e-21)
(1.37148 0.292197 1.89097e-21)
(1.3614 0.284448 5.84249e-21)
(1.35097 0.276345 -1.05502e-20)
(1.34059 0.268092 -2.59254e-21)
(1.33045 0.259819 -1.73231e-20)
(1.32057 0.251591 2.86227e-21)
(1.31092 0.243406 -2.09821e-20)
(1.30136 0.235562 4.07643e-21)
(0.0831204 0.00619672 -3.99113e-20)
(0.249439 0.0252459 -3.04745e-20)
(0.416586 0.0547186 -4.80299e-20)
(0.581019 0.0901098 2.14303e-20)
(0.73813 0.128862 3.74654e-20)
(0.883152 0.168322 -5.40304e-21)
(1.01191 0.205952 6.12784e-20)
(1.12143 0.239669 1.42985e-20)
(1.21025 0.268005 -3.14032e-20)
(1.27851 0.290174 -1.6034e-20)
(1.32769 0.306042 2.40152e-20)
(1.36026 0.316005 -2.84273e-20)
(1.37924 0.320819 -6.14919e-20)
(1.3877 0.321424 1.42929e-20)
(1.38853 0.318791 -1.36176e-20)
(1.38416 0.31381 6.62186e-20)
(1.37654 0.307229 2.73437e-21)
(1.36708 0.299632 1.36207e-20)
(1.35677 0.291446 -2.46174e-20)
(1.34624 0.282965 4.65033e-21)
(1.33584 0.27438 3.13741e-20)
(1.32572 0.265811 1.47657e-20)
(1.3159 0.257311 1.33207e-20)
(1.30631 0.248874 2.35872e-20)
(1.29682 0.240836 3.66225e-21)
(0.0864897 0.00775921 4.79961e-20)
(0.258179 0.0298258 -3.5831e-20)
(0.429346 0.0621306 1.06894e-19)
(0.596424 0.100014 3.52929e-20)
(0.754787 0.140784 7.5806e-20)
(0.899737 0.181689 -6.96108e-21)
(1.02728 0.220158 -4.1687e-20)
(1.13469 0.254138 -6.58405e-20)
(1.22085 0.282247 1.54739e-20)
(1.28621 0.303821 -3.58566e-20)
(1.33255 0.318857 3.7508e-21)
(1.36257 0.327876 2.82716e-20)
(1.37937 0.331733 6.15347e-20)
(1.38612 0.331436 4.42941e-20)
(1.38567 0.327993 -8.91435e-20)
(1.38041 0.32231 -1.74307e-20)
(1.3722 0.31513 1.99231e-20)
(1.36239 0.307024 4.65922e-20)
(1.3519 0.298403 -3.61133e-20)
(1.3413 0.289545 5.05803e-20)
(1.3309 0.280628 -3.97914e-20)
(1.32083 0.271761 -3.36703e-20)
(1.31107 0.262987 -6.24351e-21)
(1.30157 0.254297 9.33379e-21)
(1.29214 0.246061 -2.91889e-20)
(0.0898364 0.00942648 -8.91796e-20)
(0.266798 0.0346627 3.70075e-20)
(0.441841 0.0698882 -2.12479e-20)
(0.611391 0.110298 -8.13336e-20)
(0.770819 0.153069 -9.71495e-21)
(0.915522 0.195368 -1.30405e-20)
(1.0417 0.234601 -2.17254e-20)
(1.14693 0.268762 1.07041e-19)
(1.2304 0.296567 3.45555e-20)
(1.29289 0.317482 2.5561e-20)
(1.33647 0.331642 2.28423e-20)
(1.36402 0.339689 -1.98519e-20)
(1.37878 0.342576 7.61793e-20)
(1.38394 0.341375 -9.31943e-20)
(1.38232 0.337128 6.40829e-20)
(1.37625 0.330748 9.86701e-21)
(1.36753 0.322976 -6.98578e-20)
(1.35743 0.314366 -1.18435e-19)
(1.3468 0.305313 1.00771e-20)
(1.33616 0.29608 -1.1844e-20)
(1.32579 0.286831 -3.30606e-21)
(1.31577 0.277664 2.15602e-20)
(1.3061 0.268614 -6.5346e-20)
(1.29668 0.259668 2.06664e-20)
(1.28733 0.251234 3.80999e-20)
(0.0931519 0.0111976 1.35745e-19)
(0.275274 0.0397514 -5.94279e-20)
(0.454043 0.077981 -7.04176e-20)
(0.625884 0.120944 -2.82785e-20)
(0.786192 0.165697 -8.10002e-20)
(0.93048 0.209333 4.60305e-21)
(1.05517 0.249255 4.98419e-20)
(1.15813 0.283515 -1.65985e-20)
(1.2389 0.310941 -8.65822e-20)
(1.29857 0.331137 -1.14393e-19)
(1.33947 0.344379 -2.1946e-20)
(1.36467 0.351431 -1.70116e-20)
(1.3775 0.353339 -2.12833e-20)
(1.38117 0.351234 1.23425e-19)
(1.37848 0.346188 7.22345e-20)
(1.3717 0.339121 -6.07981e-20)
(1.36254 0.330762 1.1109e-19)
(1.3522 0.321654 6.21421e-20)
(1.34146 0.312172 2.55588e-20)
(1.33081 0.302564 -8.45663e-20)
(1.32049 0.292982 -8.82415e-20)
(1.31055 0.283515 -3.36002e-20)
(1.30097 0.274186 7.64232e-20)
(1.29165 0.264984 -4.99723e-20)
(1.2824 0.256347 -6.77855e-21)
(0.0964275 0.0130712 -6.51414e-20)
(0.283587 0.0450859 4.24321e-20)
(0.46592 0.0863969 2.75632e-20)
(0.63987 0.131935 9.63425e-20)
(0.800876 0.178642 2.40734e-20)
(0.944588 0.223558 -1.06164e-19)
(1.06767 0.26409 -2.91879e-20)
(1.1683 0.29837 3.15663e-21)
(1.24636 0.325346 2.88576e-20)
(1.30326 0.344767 1.46427e-19)
(1.34156 0.357053 -5.57874e-20)
(1.36452 0.36309 7.18659e-20)
(1.37554 0.364012 5.72256e-21)
(1.37784 0.361006 -6.2206e-20)
(1.37419 0.355167 -1.8073e-20)
(1.36677 0.34742 9.58707e-20)
(1.35723 0.338483 -7.14407e-20)
(1.3467 0.328881 5.56433e-20)
(1.3359 0.318973 -5.78328e-20)
(1.32526 0.308991 1.34848e-19)
(1.315 0.299075 1.32776e-19)
(1.30516 0.289307 7.66904e-20)
(1.29569 0.279699 -5.74398e-20)
(1.28648 0.270238 -4.84162e-20)
(1.27733 0.261398 -2.88367e-20)
(0.0996547 0.0150456 4.70966e-20)
(0.291715 0.0506591 1.01631e-19)
(0.477444 0.0951225 -7.55302e-20)
(0.653318 0.143249 -3.13176e-20)
(0.814841 0.191882 1.00208e-20)
(0.957825 0.238014 6.98844e-20)
(1.07919 0.27908 6.6496e-20)
(1.17745 0.3133 -1.39332e-20)
(1.2528 0.339757 1.10297e-19)
(1.30698 0.358352 -8.10217e-20)
(1.34278 0.369649 4.64787e-20)
(1.3636 0.374654 -2.15418e-20)
(1.37293 0.374586 -9.95646e-20)
(1.37397 0.370682 -2.90235e-20)
(1.36944 0.364059 -4.43722e-20)
(1.36147 0.35564 -1.10321e-19)
(1.35162 0.346131 9.37603e-20)
(1.34093 0.33604 7.12153e-21)
(1.3301 0.325709 1.20924e-19)
(1.31951 0.315355 -3.51825e-20)
(1.30933 0.305105 -2.60569e-20)
(1.2996 0.295035 3.36264e-20)
(1.29025 0.285145 4.73313e-20)
(1.28117 0.275426 4.47192e-21)
(1.27213 0.266382 3.78619e-20)
(0.102825 0.0171185 -1.58061e-20)
(0.299637 0.056463 -2.85355e-20)
(0.488587 0.104143 1.4648e-20)
(0.666199 0.154868 7.19767e-20)
(0.828062 0.205391 6.04797e-20)
(0.970172 0.252674 2.184e-20)
(1.08973 0.294196 -1.04052e-19)
(1.18556 0.328279 3.76302e-20)
(1.25823 0.354152 -1.7605e-20)
(1.30975 0.371872 -3.27855e-20)
(1.34315 0.382151 -6.1443e-20)
(1.36195 0.386111 -5.29429e-20)
(1.36969 0.385051 6.23807e-20)
(1.36958 0.380255 1.52366e-20)
(1.36427 0.372856 -2.15813e-20)
(1.35582 0.363774 7.91143e-20)
(1.3457 0.353701 -1.42804e-20)
(1.33491 0.343126 7.45116e-20)
(1.32408 0.332374 4.65985e-20)
(1.31355 0.321648 4.13835e-20)
(1.30348 0.311066 5.02711e-20)
(1.29388 0.300692 -7.98884e-20)
(1.28466 0.29052 -3.66825e-20)
(1.27572 0.280541 -8.38018e-21)
(1.26679 0.271292 2.09474e-20)
(0.105931 0.0192873 1.42632e-19)
(0.307334 0.0624887 2.87376e-20)
(0.499323 0.113444 -1.56977e-20)
(0.678485 0.16677 6.78256e-20)
(0.840515 0.219141 7.31477e-20)
(0.981614 0.267509 -1.53816e-19)
(1.09927 0.309408 1.03506e-19)
(1.19266 0.343281 -2.60369e-20)
(1.26267 0.368507 -1.55781e-20)
(1.3116 0.38531 2.32436e-19)
(1.34269 0.394544 -2.66122e-20)
(1.35958 0.397448 9.34327e-20)
(1.36586 0.395397 -4.74558e-20)
(1.36469 0.389716 -5.45576e-20)
(1.35869 0.38155 3.20686e-20)
(1.34982 0.371814 -6.53497e-20)
(1.33949 0.361184 1.86922e-20)
(1.32864 0.35013 -1.49359e-19)
(1.31784 0.338961 -2.19687e-19)
(1.3074 0.327865 2.43795e-20)
(1.29745 0.316949 -1.28735e-19)
(1.28798 0.306272 2.9058e-20)
(1.27891 0.295818 4.27793e-20)
(1.27012 0.285579 1.07579e-19)
(1.26132 0.276123 5.25001e-20)
(0.108963 0.021549 -1.39973e-19)
(0.314785 0.068726 -2.29088e-19)
(0.509626 0.123007 -5.94994e-20)
(0.69015 0.17893 -1.638e-19)
(0.852179 0.233107 1.2532e-19)
(0.992139 0.28249 1.33903e-19)
(1.10782 0.32469 -2.09311e-19)
(1.19874 0.358279 2.0924e-20)
(1.26612 0.382801 7.78897e-21)
(1.31254 0.398646 -1.75897e-19)
(1.34142 0.406814 1.12622e-19)
(1.35652 0.408654 -1.8249e-19)
(1.36143 0.405615 -1.83596e-20)
(1.35931 0.399057 5.83143e-20)
(1.35269 0.390135 7.49299e-20)
(1.34348 0.379754 7.14563e-20)
(1.33299 0.368574 -7.84188e-20)
(1.32212 0.357047 1.29177e-19)
(1.31137 0.345463 3.69253e-20)
(1.30104 0.333998 4.51622e-20)
(1.29123 0.32275 -1.23244e-19)
(1.28192 0.31177 -9.13227e-20)
(1.27301 0.301032 3.23288e-20)
(1.26437 0.290532 -6.79016e-20)
(1.25573 0.280871 1.88802e-21)
(0.111914 0.0239002 -3.14019e-20)
(0.321973 0.0751644 1.32965e-19)
(0.519473 0.132815 -2.87419e-20)
(0.701171 0.191326 6.00175e-21)
(0.863036 0.24726 -1.21098e-19)
(1.00173 0.297588 -2.75904e-21)
(1.11538 0.340012 7.80545e-20)
(1.20382 0.373247 2.23736e-20)
(1.26862 0.397011 -1.22965e-19)
(1.3126 0.411862 -3.51974e-20)
(1.33937 0.418945 -2.96566e-19)
(1.35278 0.419717 3.01916e-20)
(1.35645 0.415695 2.14095e-19)
(1.35347 0.408269 -2.05906e-19)
(1.34631 0.398601 -1.28179e-19)
(1.33681 0.387585 -1.11265e-19)
(1.32621 0.375863 4.29614e-20)
(1.31534 0.363867 -1.64232e-19)
(1.30468 0.351872 8.13128e-20)
(1.29448 0.34004 -8.5027e-20)
(1.28482 0.32846 9.08343e-20)
(1.27568 0.317178 7.0371e-20)
(1.26695 0.306157 2.68909e-20)
(1.25849 0.295393 -3.97742e-20)
(1.25 0.285529 2.45328e-21)
(0.114776 0.026337 -1.91089e-19)
(0.32888 0.081792 5.94977e-20)
(0.528841 0.142848 2.23185e-21)
(0.711527 0.203932 9.20543e-20)
(0.87307 0.261572 7.36276e-21)
(1.0104 0.312774 1.0107e-19)
(1.12194 0.355345 -4.93698e-20)
(1.20791 0.388161 2.17387e-19)
(1.27017 0.411116 -1.48535e-19)
(1.3118 0.424939 2.37561e-19)
(1.33657 0.430923 1.96898e-19)
(1.3484 0.430626 2.30002e-19)
(1.35091 0.425626 -1.66626e-19)
(1.34716 0.417344 1.72345e-19)
(1.33955 0.406941 9.77701e-21)
(1.32982 0.3953 -1.42943e-19)
(1.31916 0.383044 1.68593e-20)
(1.30833 0.370584 8.22636e-20)
(1.29777 0.358181 -4.92391e-20)
(1.28772 0.345985 -7.28139e-20)
(1.27823 0.334075 -1.26883e-19)
(1.26927 0.322491 1.00623e-19)
(1.26073 0.311186 -4.36563e-20)
(1.25245 0.300156 -1.04617e-20)
(1.24411 0.290096 -1.65202e-19)
(0.117541 0.0288554 2.82991e-19)
(0.335487 0.0885966 -7.09679e-20)
(0.537709 0.153088 5.89518e-20)
(0.721197 0.216724 -1.75261e-19)
(0.882265 0.276014 -4.12543e-20)
(1.01811 0.328017 -4.44292e-20)
(1.12751 0.370662 -9.81039e-20)
(1.21102 0.402994 -3.95682e-19)
(1.27079 0.425093 1.72907e-19)
(1.31015 0.437862 -8.05547e-20)
(1.33303 0.442733 -1.96983e-19)
(1.34339 0.441367 -5.41352e-20)
(1.34485 0.4354 5.47989e-20)
(1.34042 0.426272 -1.52817e-19)
(1.33242 0.415147 9.43155e-20)
(1.32251 0.402891 8.1201e-21)
(1.31183 0.390107 4.78759e-21)
(1.30107 0.377191 -1.60967e-20)
(1.29065 0.364383 1.6568e-19)
(1.28076 0.351824 -1.03873e-21)
(1.27146 0.339587 3.26094e-19)
(1.2627 0.327703 -1.0731e-19)
(1.25435 0.316117 -1.09216e-19)
(1.24627 0.304826 1.39704e-19)
(1.23805 0.294568 1.38127e-19)
(0.120203 0.0314508 -4.47464e-21)
(0.34178 0.0955648 1.7101e-19)
(0.546059 0.163514 -1.86168e-20)
(0.730164 0.229675 1.4174e-19)
(0.890612 0.290557 -2.38272e-20)
(1.02489 0.343287 -8.80324e-20)
(1.13211 0.385935 4.40915e-21)
(1.21316 0.417722 2.88025e-19)
(1.2705 0.438921 -2.14391e-20)
(1.3077 0.450611 -1.57945e-19)
(1.32878 0.454362 1.39688e-19)
(1.33778 0.45193 -5.88768e-20)
(1.33828 0.445004 5.50737e-20)
(1.33325 0.435044 2.0492e-19)
(1.32493 0.423208 -5.83001e-20)
(1.3149 0.410348 4.64337e-20)
(1.30423 0.397046 -6.54067e-20)
(1.29358 0.383677 -1.62797e-19)
(1.28331 0.37047 1.65264e-20)
(1.2736 0.357551 -7.29085e-20)
(1.26451 0.344988 -5.62862e-20)
(1.25595 0.332807 -5.05528e-21)
(1.24782 0.320944 2.49893e-19)
(1.23994 0.309414 -5.72731e-21)
(1.23186 0.298934 3.16121e-20)
(0.122754 0.0341184 -2.2598e-19)
(0.347744 0.102683 -2.32461e-20)
(0.553872 0.174103 1.00873e-19)
(0.738413 0.242759 -1.39151e-19)
(0.8981 0.305171 3.15892e-20)
(1.03072 0.358556 8.8422e-20)
(1.13572 0.401134 4.69995e-21)
(1.21434 0.43232 -2.70446e-19)
(1.26933 0.45258 1.07451e-19)
(1.30444 0.46317 -8.75099e-20)
(1.32384 0.465796 1.67417e-19)
(1.33157 0.462303 3.51505e-20)
(1.33122 0.45443 1.88582e-19)
(1.32567 0.443651 -9.72445e-20)
(1.31708 0.431118 1.61396e-20)
(1.30699 0.417664 3.56773e-20)
(1.29637 0.403851 -3.26042e-20)
(1.28585 0.390037 4.74791e-20)
(1.27575 0.376434 9.51179e-20)
(1.26625 0.363159 2.88717e-19)
(1.25737 0.350272 -1.61168e-19)
(1.24904 0.337796 -5.94762e-20)
(1.24114 0.325657 -1.53165e-19)
(1.23348 0.313896 -7.44101e-20)
(1.22558 0.303204 -1.07505e-19)
(0.125188 0.0368531 1.59029e-19)
(0.353364 0.109937 2.99506e-20)
(0.561133 0.184835 -1.52454e-19)
(0.745931 0.255948 1.78865e-20)
(0.904723 0.319827 -8.52612e-20)
(1.0356 0.373793 3.91312e-22)
(1.13837 0.416234 6.56748e-20)
(1.21459 0.446763 1.57353e-19)
(1.26729 0.46605 -8.37943e-20)
(1.30041 0.475521 6.69341e-20)
(1.31822 0.477019 -1.58478e-19)
(1.3248 0.472474 -2.29909e-19)
(1.32368 0.463666 -2.908e-19)
(1.31768 0.452082 -1.26195e-19)
(1.3089 0.438865 4.87852e-20)
(1.29878 0.424829 2.22048e-20)
(1.28825 0.410515 3.24307e-19)
(1.27788 0.396261 -6.10982e-20)
(1.26798 0.382266 1.39819e-20)
(1.2587 0.368639 -1.07806e-19)
(1.25005 0.355432 1.20696e-19)
(1.24197 0.342663 5.06476e-20)
(1.23431 0.330252 1.02279e-19)
(1.22687 0.318258 -2.3317e-20)
(1.21919 0.30736 -3.74489e-20)
(0.127499 0.0396493 -1.519e-19)
(0.358627 0.11731 -4.44452e-20)
(0.567826 0.195687 1.24565e-19)
(0.752705 0.269215 -3.90232e-19)
(0.910475 0.334495 -8.94334e-20)
(1.03955 0.388969 3.10451e-20)
(1.14007 0.431207 -5.45397e-20)
(1.21393 0.461029 1.22631e-19)
(1.26441 0.479309 2.54177e-20)
(1.29564 0.487649 1.2529e-19)
(1.31196 0.488019 2.18785e-19)
(1.31748 0.482431 3.35086e-19)
(1.31568 0.472702 1.45237e-19)
(1.30931 0.460329 -8.22739e-20)
(1.30039 0.446442 3.26217e-20)
(1.29029 0.431835 -3.11819e-20)
(1.27988 0.417028 -1.91214e-19)
(1.26969 0.402342 1.85151e-19)
(1.26001 0.387961 -3.33336e-19)
(1.25096 0.373984 3.2538e-20)
(1.24256 0.36046 -4.22196e-20)
(1.23472 0.347402 8.02749e-20)
(1.22732 0.334722 -9.57524e-20)
(1.22012 0.322496 -1.58513e-20)
(1.21267 0.311395 1.04247e-19)
(0.129681 0.0425013 -2.22911e-19)
(0.363521 0.124789 1.64932e-20)
(0.57394 0.206635 5.28307e-20)
(0.758728 0.282532 2.43119e-19)
(0.915354 0.349145 2.95691e-19)
(1.04255 0.404055 1.59653e-19)
(1.14082 0.446025 -1.49593e-19)
(1.21236 0.475093 -2.49358e-19)
(1.2607 0.492339 -2.08913e-19)
(1.29013 0.499537 1.95929e-20)
(1.30507 0.498782 -2.09887e-19)
(1.30962 0.492162 -5.81324e-20)
(1.30723 0.481529 -8.94325e-20)
(1.30056 0.468382 1.76204e-19)
(1.29155 0.453839 7.39546e-20)
(1.28151 0.438673 -2.71744e-19)
(1.27126 0.423383 1.26143e-19)
(1.26127 0.40827 6.17054e-20)
(1.25182 0.393508 2.27169e-19)
(1.24302 0.379186 1.31028e-19)
(1.23488 0.365349 -1.46561e-19)
(1.22731 0.352005 -1.65834e-19)
(1.22018 0.33906 1.03553e-19)
(1.21324 0.326605 1.19034e-19)
(1.20602 0.315306 -3.95145e-20)
(0.131728 0.0454032 1.59862e-19)
(0.368036 0.132357 6.39519e-21)
(0.579462 0.217657 -2.83178e-19)
(0.763991 0.29587 -4.31972e-21)
(0.91936 0.363747 -4.24071e-19)
(1.04463 0.419022 1.09411e-20)
(1.14064 0.460663 -6.77797e-20)
(1.2099 0.488933 1.51669e-19)
(1.25619 0.50512 2.20881e-19)
(1.28391 0.511169 5.48498e-20)
(1.29758 0.509294 4.46831e-20)
(1.30126 0.501655 -1.01784e-19)
(1.29834 0.490134 1.18499e-20)
(1.29144 0.476231 1.17614e-19)
(1.2824 0.461047 -1.1438e-19)
(1.27246 0.445333 1.41209e-19)
(1.26239 0.429569 -1.18036e-19)
(1.25263 0.414038 -1.14269e-19)
(1.24343 0.398901 -1.24236e-19)
(1.2349 0.384239 -1.42179e-19)
(1.22703 0.370092 1.20549e-19)
(1.21974 0.356466 1.54267e-19)
(1.21289 0.343261 -3.5103e-20)
(1.20622 0.330579 -3.03427e-20)
(1.19924 0.319086 -1.79392e-20)
(0.133635 0.0483489 -2.84854e-19)
(0.372161 0.139997 1.64844e-19)
(0.584384 0.228728 2.63885e-19)
(0.76849 0.309203 2.5831e-19)
(0.922493 0.378272 1.65545e-19)
(1.04579 0.43384 -1.95372e-19)
(1.13955 0.475094 1.61985e-19)
(1.20659 0.502526 5.56321e-21)
(1.25089 0.517633 -1.77905e-19)
(1.27701 0.522528 -2.04539e-19)
(1.28949 0.519542 2.63154e-19)
(1.29239 0.5109 -7.76221e-20)
(1.28904 0.498508 -1.46604e-19)
(1.28196 0.483865 -9.89619e-20)
(1.27294 0.468055 -7.48395e-21)
(1.26314 0.451807 8.7507e-20)
(1.25328 0.435579 1.10532e-19)
(1.24377 0.419638 -4.99152e-20)
(1.23485 0.404131 1.93117e-19)
(1.22659 0.389134 2.13678e-20)
(1.21901 0.374682 1.474e-20)
(1.21201 0.360779 -9.73378e-20)
(1.20545 0.347317 -1.30667e-19)
(1.19907 0.334415 2.21759e-20)
(1.19233 0.322732 -1.10668e-19)
(0.135398 0.0513317 2.45732e-19)
(0.375888 0.147692 1.16176e-20)
(0.588698 0.239825 -3.17932e-19)
(0.772221 0.322501 4.8301e-21)
(0.924757 0.39269 -1.25484e-19)
(1.04604 0.448482 1.58455e-19)
(1.13756 0.489294 1.81404e-19)
(1.20243 0.51585 -1.29872e-19)
(1.24484 0.529859 -1.29603e-19)
(1.26945 0.5336 1.06412e-19)
(1.28084 0.529513 -1.79909e-19)
(1.28304 0.519883 2.63407e-19)
(1.27933 0.50664 6.12072e-20)
(1.27214 0.491275 -2.47425e-20)
(1.26318 0.474855 3.02427e-19)
(1.25356 0.458086 -7.66741e-20)
(1.24394 0.441404 -8.30442e-20)
(1.2347 0.42506 4.37312e-20)
(1.22606 0.409191 -9.45626e-21)
(1.2181 0.393864 -1.60126e-19)
(1.21081 0.379112 -8.43267e-20)
(1.20412 0.364936 -8.22485e-20)
(1.19787 0.351223 1.56632e-19)
(1.19179 0.338105 -2.27393e-20)
(1.18531 0.326239 1.88584e-19)
(0.137012 0.0543453 1.28595e-19)
(0.379209 0.155426 -5.06162e-19)
(0.592396 0.250923 6.64749e-20)
(0.775181 0.335736 -2.45898e-19)
(0.926156 0.406972 4.53315e-19)
(1.04538 0.46292 -2.00181e-19)
(1.1347 0.503236 1.18774e-19)
(1.19745 0.528883 -4.77742e-20)
(1.23804 0.541782 1.33263e-19)
(1.26124 0.544369 -1.00337e-19)
(1.27164 0.539194 4.08614e-20)
(1.27324 0.528595 7.11628e-20)
(1.26923 0.514519 1.16786e-19)
(1.26199 0.498451 -3.10443e-19)
(1.25314 0.481437 1.31628e-19)
(1.24372 0.46416 8.05528e-20)
(1.23436 0.447035 -3.55088e-20)
(1.22542 0.430297 -5.74277e-20)
(1.21708 0.414073 -2.7982e-20)
(1.20942 0.398422 5.33273e-20)
(1.20245 0.383376 2.88237e-20)
(1.19607 0.368931 2.12282e-19)
(1.19015 0.354972 -8.62596e-20)
(1.18437 0.341645 -1.7106e-20)
(1.17816 0.329601 -1.51909e-19)
(0.138473 0.0573828 -1.10284e-19)
(0.382119 0.163181 8.58659e-21)
(0.595476 0.261998 2.02844e-19)
(0.777373 0.34888 -1.54438e-19)
(0.926697 0.421089 1.08235e-19)
(1.04385 0.477126 1.01238e-19)
(1.13096 0.516896 -2.00146e-19)
(1.19167 0.541605 3.34831e-20)
(1.23054 0.553382 6.06312e-21)
(1.25242 0.554821 2.81512e-19)
(1.26191 0.548571 1.75431e-20)
(1.26298 0.537022 -2.67193e-19)
(1.25875 0.522135 -2.36059e-19)
(1.25151 0.505384 2.32796e-19)
(1.24281 0.487792 -2.96617e-19)
(1.23363 0.47002 5.49525e-20)
(1.22456 0.452463 -1.47009e-20)
(1.21593 0.435341 3.922e-20)
(1.20791 0.418769 1.02e-19)
(1.20057 0.402801 -9.08792e-20)