/*--------------------------------*- C++ -*----------------------------------*\
  =========                 |
  \\      /  F ield         | OpenFOAM: The Open Source CFD Toolbox
   \\    /   O peration     | Website:  https://openfoam.org
    \\  /    A nd           | Version:  7
     \\/     M anipulation  |
\*---------------------------------------------------------------------------*/
FoamFile
{
    version     2.0;
    format      ascii;
    class       volScalarField;
    location    "60";
    object      p;
}
// * * * * * * * * * * * * * * * * * * * * * * * * * * * * * * * * * * * * * //

dimensions      [0 2 -2 0 0 0 0];

internalField   nonuniform List<scalar> 
7156
(
-0.272192
-0.270204
-0.268493
-0.267392
-0.267463
-0.269119
-0.272697
-0.278199
-0.285244
-0.292951
-0.299987
-0.304705
-0.30559
-0.301526
-0.292172
-0.278022
-0.260233
-0.24046
-0.22025
-0.201884
-0.187071
-0.177781
-0.175332
-0.180017
-0.190205
-0.202695
-0.213575
-0.219496
-0.218436
-0.209926
-0.269926
-0.268246
-0.267011
-0.266556
-0.267431
-0.270024
-0.274633
-0.281211
-0.289308
-0.297962
-0.305756
-0.310961
-0.31202
-0.3078
-0.297991
-0.283145
-0.264476
-0.243708
-0.222454
-0.202991
-0.187044
-0.176575
-0.172937
-0.176522
-0.18584
-0.197793
-0.208503
-0.21459
-0.213977
-0.206135
-0.267687
-0.266309
-0.265541
-0.26572
-0.267383
-0.270896
-0.276519
-0.284154
-0.293284
-0.302868
-0.311405
-0.317084
-0.318306
-0.313923
-0.303652
-0.288111
-0.268566
-0.246811
-0.224522
-0.203977
-0.186917
-0.175289
-0.170477
-0.17297
-0.181412
-0.19282
-0.203355
-0.209606
-0.209443
-0.202271
-0.265475
-0.264394
-0.264083
-0.264881
-0.267316
-0.271729
-0.278347
-0.287018
-0.297162
-0.307658
-0.316922
-0.323063
-0.324441
-0.319886
-0.309156
-0.292919
-0.272505
-0.24977
-0.226457
-0.204846
-0.186692
-0.173927
-0.167959
-0.169365
-0.176929
-0.187782
-0.198135
-0.204549
-0.204836
-0.198336
-0.263292
-0.2625
-0.262635
-0.264037
-0.267226
-0.272519
-0.280109
-0.289796
-0.300933
-0.312323
-0.322299
-0.32889
-0.330418
-0.325687
-0.314498
-0.297569
-0.276292
-0.252589
-0.228263
-0.205602
-0.186374
-0.172494
-0.165387
-0.165714
-0.172397
-0.182687
-0.19285
-0.199423
-0.200158
-0.194332
-0.261138
-0.260627
-0.261196
-0.263186
-0.267109
-0.273261
-0.2818
-0.29248
-0.304588
-0.316852
-0.327527
-0.334557
-0.336225
-0.331325
-0.319676
-0.302061
-0.279931
-0.25527
-0.229945
-0.20625
-0.185967
-0.170995
-0.162769
-0.162025
-0.167823
-0.17754
-0.187504
-0.194232
-0.195414
-0.190259
-0.259014
-0.258776
-0.259765
-0.262326
-0.266962
-0.273949
-0.283414
-0.295061
-0.308118
-0.321237
-0.332595
-0.340057
-0.341858
-0.336793
-0.324688
-0.306395
-0.283423
-0.257818
-0.231508
-0.206795
-0.185478
-0.169435
-0.160108
-0.158304
-0.163215
-0.172349
-0.182102
-0.188979
-0.190605
-0.186121
-0.256922
-0.256946
-0.258342
-0.261455
-0.266782
-0.27458
-0.284943
-0.297534
-0.311515
-0.32547
-0.3375
-0.345375
-0.347319
-0.342086
-0.329534
-0.310572
-0.286772
-0.260237
-0.232956
-0.207243
-0.184912
-0.16782
-0.157413
-0.154558
-0.15858
-0.16712
-0.176652
-0.183669
-0.185735
-0.181919
-0.254861
-0.255138
-0.256925
-0.260571
-0.266565
-0.275148
-0.286383
-0.299889
-0.314771
-0.329541
-0.342235
-0.350503
-0.352599
-0.347203
-0.334212
-0.314594
-0.28998
-0.262531
-0.234295
-0.207601
-0.184274
-0.166156
-0.154689
-0.150794
-0.153926
-0.16186
-0.171157
-0.178307
-0.180807
-0.177655
-0.252832
-0.25335
-0.255513
-0.259672
-0.26631
-0.27565
-0.287729
-0.302123
-0.317879
-0.333445
-0.346761
-0.355471
-0.357692
-0.35214
-0.338722
-0.318461
-0.293051
-0.264705
-0.235532
-0.207873
-0.183572
-0.164449
-0.151942
-0.147018
-0.149259
-0.156577
-0.165624
-0.172895
-0.175824
-0.173331
-0.250835
-0.251584
-0.254106
-0.258756
-0.266013
-0.276083
-0.288975
-0.304228
-0.320834
-0.337171
-0.351107
-0.360241
-0.362595
-0.356895
-0.343064
-0.322177
-0.295987
-0.266765
-0.236672
-0.208068
-0.182812
-0.162706
-0.149179
-0.14324
-0.144588
-0.151278
-0.160059
-0.16744
-0.170789
-0.168948
-0.248872
-0.249838
-0.252703
-0.257823
-0.265673
-0.276442
-0.290118
-0.306201
-0.323626
-0.340712
-0.355265
-0.364808
-0.367303
-0.361467
-0.347238
-0.325742
-0.298794
-0.268715
-0.237723
-0.208193
-0.182001
-0.160934
-0.146408
-0.139464
-0.139919
-0.14597
-0.154468
-0.161944
-0.165705
-0.16451
-0.246943
-0.248114
-0.251304
-0.256871
-0.265287
-0.276726
-0.291154
-0.308038
-0.326244
-0.344073
-0.359223
-0.369172
-0.371814
-0.365855
-0.351243
-0.32916
-0.301475
-0.270562
-0.238689
-0.208253
-0.181147
-0.159139
-0.143634
-0.1357
-0.135262
-0.140661
-0.148857
-0.156413
-0.160573
-0.160019
-0.245047
-0.24641
-0.249908
-0.255898
-0.264854
-0.276932
-0.29208
-0.309719
-0.328706
-0.34724
-0.362976
-0.373328
-0.376125
-0.370056
-0.355081
-0.332431
-0.304034
-0.272309
-0.239579
-0.208258
-0.180256
-0.157328
-0.140865
-0.131954
-0.130623
-0.135358
-0.143233
-0.150851
-0.155398
-0.155475
-0.243186
-0.244727
-0.248515
-0.254906
-0.264372
-0.277058
-0.29289
-0.311262
-0.33099
-0.35021
-0.36652
-0.377275
-0.380234
-0.37407
-0.358752
-0.335559
-0.306474
-0.273964
-0.240399
-0.208213
-0.179336
-0.15551
-0.138108
-0.128233
-0.12601
-0.130069
-0.137603
-0.145264
-0.150184
-0.150882
-0.241359
-0.243066
-0.247125
-0.253891
-0.263841
-0.277102
-0.293585
-0.312658
-0.333093
-0.352978
-0.369852
-0.381008
-0.384138
-0.377897
-0.362257
-0.338546
-0.3088
-0.27553
-0.241155
-0.208127
-0.178395
-0.15369
-0.135369
-0.124545
-0.121431
-0.124801
-0.131973
-0.139655
-0.144935
-0.146242
-0.239569
-0.241426
-0.245737
-0.252855
-0.263259
-0.277063
-0.294164
-0.313902
-0.335013
-0.355544
-0.372969
-0.384525
-0.387836
-0.381534
-0.365597
-0.341394
-0.311016
-0.277014
-0.241854
-0.208007
-0.17744
-0.151876
-0.132657
-0.120897
-0.116893
-0.119563
-0.126351
-0.134031
-0.139655
-0.141557
-0.237814
-0.239808
-0.244352
-0.251797
-0.262628
-0.27694
-0.294623
-0.314993
-0.336751
-0.357903
-0.375868
-0.387823
-0.391327
-0.384983
-0.368772
-0.344107
-0.313125
-0.278421
-0.242501
-0.207859
-0.176478
-0.150076
-0.129977
-0.117297
-0.112405
-0.114361
-0.120743
-0.128396
-0.134345
-0.136829
-0.236096
-0.238211
-0.24297
-0.250722
-0.261942
-0.276734
-0.294964
-0.315929
-0.338304
-0.360056
-0.378548
-0.390902
-0.394609
-0.388243
-0.371785
-0.346685
-0.315131
-0.279755
-0.243104
-0.20769
-0.175518
-0.148297
-0.127337
-0.113751
-0.107975
-0.109205
-0.115157
-0.122756
-0.129009
-0.132061
-0.234415
-0.236636
-0.241595
-0.249624
-0.261206
-0.276443
-0.295184
-0.316711
-0.339672
-0.361999
-0.381008
-0.393761
-0.397681
-0.391314
-0.374635
-0.349133
-0.317039
-0.281022
-0.243668
-0.207508
-0.174566
-0.146546
-0.124744
-0.110267
-0.103609
-0.104101
-0.109599
-0.117117
-0.123651
-0.127254
-0.23277
-0.235085
-0.240223
-0.248505
-0.260421
-0.276069
-0.295286
-0.317338
-0.340853
-0.363733
-0.383246
-0.396398
-0.400544
-0.394197
-0.377324
-0.351451
-0.318851
-0.282226
-0.244199
-0.207319
-0.173629
-0.14483
-0.122204
-0.106851
-0.0993156
-0.0990579
-0.104078
-0.111485
-0.118276
-0.122411
-0.231163
-0.233566
-0.238849
-0.247366
-0.259587
-0.275613
-0.295269
-0.317812
-0.34185
-0.365259
-0.385262
-0.398813
-0.403198
-0.396891
-0.379854
-0.353643
-0.320571
-0.283372
-0.244702
-0.207129
-0.172713
-0.143155
-0.119725
-0.103511
-0.0951019
-0.0940831
-0.0986013
-0.105865
-0.112886
-0.117535
-0.232067
-0.237482
-0.24621
-0.258705
-0.275075
-0.295135
-0.318133
-0.342662
-0.366576
-0.387058
-0.401007
-0.405641
-0.399398
-0.382227
-0.355711
-0.322203
-0.284464
-0.245182
-0.206944
-0.171826
-0.141529
-0.117312
-0.100252
-0.0909752
-0.0891845
-0.0931759
-0.100265
-0.107486
-0.112629
-0.230592
-0.236124
-0.245036
-0.257778
-0.274458
-0.294887
-0.318304
-0.343291
-0.367686
-0.388634
-0.402981
-0.407876
-0.401718
-0.384442
-0.357658
-0.32375
-0.285506
-0.245645
-0.206769
-0.170973
-0.139957
-0.114971
-0.0970807
-0.0869425
-0.0843698
-0.0878097
-0.0946914
-0.102081
-0.107694
-0.229145
-0.234774
-0.243846
-0.256806
-0.273764
-0.294526
-0.318326
-0.343741
-0.368592
-0.389991
-0.404736
-0.409903
-0.403853
-0.386502
-0.359485
-0.325214
-0.286502
-0.246094
-0.20661
-0.170161
-0.138446
-0.11271
-0.0940038
-0.0830106
-0.0796466
-0.0825104
-0.0891505
-0.0966756
-0.102734
-0.227726
-0.233432
-0.242642
-0.255792
-0.272995
-0.294055
-0.318204
-0.344014
-0.369296
-0.391133
-0.406273
-0.411723
-0.405802
-0.38841
-0.361194
-0.326599
-0.287456
-0.246535
-0.206472
-0.169393
-0.137002
-0.110533
-0.0910267
-0.0791859
-0.0750225
-0.0772858
-0.0836497
-0.0912751
-0.0977518
-0.226335
-0.232102
-0.241425
-0.254737
-0.272155
-0.293477
-0.31794
-0.344113
-0.369802
-0.392061
-0.407595
-0.413338
-0.407569
-0.390165
-0.362789
-0.327908
-0.288371
-0.24697
-0.206358
-0.168676
-0.135629
-0.108446
-0.0881549
-0.0754747
-0.0705046
-0.0721435
-0.0781961
-0.0858849
-0.0927511
-0.224973
-0.230783
-0.240198
-0.253645
-0.271245
-0.292797
-0.317539
-0.344042
-0.370112
-0.392778
-0.408706
-0.414749
-0.409154
-0.39177
-0.364271
-0.329144
-0.28925
-0.247404
-0.206273
-0.168014
-0.134332
-0.106453
-0.0853936
-0.0718828
-0.0661001
-0.0670913
-0.0727971
-0.0805108
-0.0877328
-0.223641
-0.229478
-0.238962
-0.252518
-0.270269
-0.292017
-0.317004
-0.343806
-0.370231
-0.393288
-0.409607
-0.41596
-0.41056
-0.393227
-0.365643
-0.330308
-0.290096
-0.247841
-0.206221
-0.167411
-0.133117
-0.10456
-0.0827475
-0.0684158
-0.0618158
-0.0621368
-0.0674603
-0.0751588
-0.0827001
-0.222341
-0.228188
-0.237721
-0.251359
-0.269232
-0.291143
-0.316341
-0.34341
-0.370163
-0.393595
-0.410304
-0.416973
-0.411787
-0.394538
-0.366906
-0.331403
-0.290912
-0.248281
-0.206205
-0.16687
-0.131987
-0.102772
-0.0802213
-0.0650788
-0.0576581
-0.0572874
-0.0621932
-0.0698355
-0.0777198
-0.221075
-0.226915
-0.236475
-0.250171
-0.268136
-0.290178
-0.315555
-0.342858
-0.369914
-0.393704
-0.410798
-0.417791
-0.412839
-0.395704
-0.368062
-0.332431
-0.2917
-0.24873
-0.206228
-0.166395
-0.130945
-0.10109
-0.0778191
-0.0618766
-0.0536332
-0.0525505
-0.0570034
-0.0645471
-0.0726758
-0.219843
-0.225661
-0.235228
-0.248957
-0.266986
-0.289128
-0.31465
-0.342157
-0.369489
-0.393618
-0.411096
-0.418417
-0.413717
-0.396728
-0.369114
-0.333396
-0.292462
-0.249188
-0.206292
-0.165988
-0.129995
-0.0995207
-0.0755445
-0.0588136
-0.0497468
-0.0479332
-0.0518986
-0.0593006
-0.067637
-0.218648
-0.224428
-0.233981
-0.24772
-0.265786
-0.287996
-0.313632
-0.341313
-0.368894
-0.393344
-0.411204
-0.418854
-0.414424
-0.397612
-0.370064
-0.334297
-0.293201
-0.249659
-0.206399
-0.165653
-0.12914
-0.0980653
-0.073401
-0.0558938
-0.0460042
-0.0434425
-0.0468864
-0.0541036
-0.0626103
-0.0703899
-0.21749
-0.223217
-0.232739
-0.246464
-0.264539
-0.286789
-0.312507
-0.340331
-0.368134
-0.392885
-0.411127
-0.419106
-0.414963
-0.398357
-0.370913
-0.335139
-0.293918
-0.250143
-0.206552
-0.16539
-0.128381
-0.0967268
-0.0713914
-0.0531208
-0.0424105
-0.0390848
-0.0419744
-0.0489634
-0.057599
-0.0657873
-0.216371
-0.222032
-0.231502
-0.245192
-0.263251
-0.285512
-0.311282
-0.339218
-0.367216
-0.392248
-0.410871
-0.419177
-0.415335
-0.398967
-0.371664
-0.335921
-0.294614
-0.250642
-0.206752
-0.165202
-0.12772
-0.0955074
-0.0695184
-0.0504976
-0.0389701
-0.0348664
-0.0371699
-0.0438877
-0.0526081
-0.0611698
-0.215293
-0.220873
-0.230275
-0.243907
-0.261925
-0.284169
-0.309962
-0.33798
-0.366146
-0.391438
-0.410443
-0.419071
-0.415544
-0.399442
-0.372318
-0.336646
-0.295292
-0.251157
-0.206999
-0.165089
-0.12716
-0.0944087
-0.067784
-0.0480271
-0.0356871
-0.0307932
-0.0324803
-0.038884
-0.0476439
-0.0565422
-0.214258
-0.219742
-0.229059
-0.242613
-0.260566
-0.282766
-0.308552
-0.336624
-0.364931
-0.390461
-0.409854
-0.41879
-0.415593
-0.399787
-0.372877
-0.337315
-0.295952
-0.25169
-0.207296
-0.165052
-0.126699
-0.093432
-0.0661898
-0.0457115
-0.032565
-0.0268704
-0.0279126
-0.03396
-0.0427132
-0.0519095
-0.213268
-0.218644
-0.227857
-0.241314
-0.259178
-0.281308
-0.30706
-0.335156
-0.363576
-0.389322
-0.40912
-0.418341
-0.415485
-0.400002
-0.373343
-0.33793
-0.296595
-0.252241
-0.207641
-0.165092
-0.12634
-0.092578
-0.0647371
-0.0435527
-0.0296069
-0.0231032
-0.0234733
-0.0291234
-0.0378231
-0.0472771
-0.217578
-0.226673
-0.240012
-0.257765
-0.2798
-0.305491
-0.333584
-0.362088
-0.388025
-0.408265
-0.417726
-0.415223
-0.40009
-0.373718
-0.338492
-0.297222
-0.25281
-0.208036
-0.165208
-0.126081
-0.0918469
-0.0634268
-0.0415521
-0.0268156
-0.019496
-0.0191689
-0.0243817
-0.0329812
-0.0426509
-0.216548
-0.225508
-0.238712
-0.256333
-0.278248
-0.303851
-0.331913
-0.360474
-0.386574
-0.407316
-0.416949
-0.414809
-0.400055
-0.374004
-0.339002
-0.297834
-0.253399
-0.20848
-0.1654
-0.125923
-0.0912385
-0.0622589
-0.0397107
-0.0241933
-0.0160528
-0.0150053
-0.0197424
-0.0281949
-0.0380373
-0.215557
-0.224367
-0.237417
-0.254884
-0.276656
-0.302146
-0.33015
-0.35874
-0.384974
-0.406301
-0.416012
-0.414248
-0.399897
-0.374202
-0.339461
-0.298432
-0.254005
-0.208972
-0.165668
-0.125865
-0.0907519
-0.0612332
-0.0380287
-0.0217414
-0.012777
-0.0109879
-0.0152124
-0.023472
-0.0334431
-0.214605
-0.223252
-0.23613
-0.253424
-0.275031
-0.300381
-0.328302
-0.356891
-0.383228
-0.405105
-0.41491
-0.41354
-0.39962
-0.374315
-0.33987
-0.299014
-0.25463
-0.209513
-0.16601
-0.125904
-0.0903858
-0.0603491
-0.0365066
-0.0194615
-0.00967198
-0.00712193
-0.0107989
-0.0188203
-0.0288754
-0.213697
-0.222166
-0.234856
-0.251956
-0.273375
-0.298563
-0.326373
-0.354933
-0.381342
-0.402909
-0.413636
-0.412689
-0.399227
-0.374344
-0.340231
-0.299583
-0.255275
-0.210103
-0.166429
-0.126043
-0.0901419
-0.059608
-0.0351459
-0.0173561
-0.00674155
-0.00341293
-0.00650905
-0.0142481
-0.024342
-0.212833
-0.221111
-0.233597
-0.250485
-0.271695
-0.296695
-0.324368
-0.352872
-0.37933
-0.400467
-0.412194
-0.411696
-0.398719
-0.374293
-0.340549
-0.300145
-0.255945
-0.210748
-0.166927
-0.126284
-0.0900213
-0.0590108
-0.0339476
-0.0154265
-0.00398801
0.000135396
-0.00234848
-0.0097627
-0.0198512
-0.212017
-0.220092
-0.232357
-0.249015
-0.269995
-0.294785
-0.322295
-0.350714
-0.377209
-0.398396
-0.410594
-0.410568
-0.398102
-0.374163
-0.340818
-0.300689
-0.256626
-0.211431
-0.167487
-0.12661
-0.0900072
-0.0585428
-0.0328991
-0.0136626
-0.00140448
0.00352671
0.00168321
-0.00536683
-0.0154068
-0.211251
-0.219114
-0.231147
-0.247559
-0.26829
-0.292849
-0.320173
-0.348484
-0.374999
-0.39628
-0.408863
-0.40932
-0.397378
-0.373943
-0.341014
-0.301178
-0.257274
-0.212103
-0.16806
-0.126975
-0.0900598
-0.0581703
-0.0319745
-0.0120465
0.00101915
0.00676466
0.0055858
-0.00106252
-0.0110091
-0.210538
-0.218179
-0.229967
-0.246118
-0.266582
-0.290889
-0.318004
-0.346182
-0.372693
-0.394095
-0.406996
-0.407941
-0.396538
-0.373628
-0.341143
-0.30163
-0.257915
-0.212801
-0.16869
-0.127425
-0.0902245
-0.0579376
-0.0312172
-0.0106226
0.00323709
0.00980411
0.00931716
0.00311239
-0.00670911
-0.209871
-0.21726
-0.228769
-0.244621
-0.264777
-0.288787
-0.315647
-0.343647
-0.370115
-0.39171
-0.40485
-0.406345
-0.395582
-0.373313
-0.34139
-0.30231
-0.258874
-0.213875
-0.169727
-0.128288
-0.0907963
-0.0581001
-0.0308415
-0.00956327
0.00511671
0.0125438
0.0127922
0.00707419
-0.0025492
-0.209252
-0.216353
-0.227539
-0.243039
-0.262828
-0.286479
-0.313019
-0.340781
-0.36716
-0.388837
-0.402397
-0.404553
-0.39458
-0.373115
-0.341907
-0.303382
-0.260304
-0.215457
-0.17127
-0.12963
-0.091804
-0.0586496
-0.0307957
-0.00876642
0.00680687
0.0151601
0.0161854
0.0109668
0.0015072
-0.215722
-0.226744
-0.242052
-0.261627
-0.285052
-0.311383
-0.338985
-0.365301
-0.386699
-0.400757
-0.403196
-0.393583
-0.372488
-0.34159
-0.303281
-0.260317
-0.215488
-0.171232
-0.129439
-0.0913822
-0.057903
-0.0295957
-0.00695504
0.00937607
0.018548
0.0202949
0.0155719
0.00627818
-0.214645
-0.225863
-0.241411
-0.261254
-0.284959
-0.31158
-0.339476
-0.366115
-0.387924
-0.400914
-0.402644
-0.392271
-0.370426
-0.338822
-0.299891
-0.256441
-0.211274
-0.166804
-0.124854
-0.0866341
-0.0529277
-0.0242781
-0.00110525
0.0161004
0.0266244
0.0300705
0.0270698
0.0192818
-0.215351
-0.22666
-0.242106
-0.2616
-0.28466
-0.310248
-0.33662
-0.36125
-0.380764
-0.392631
-0.393345
-0.382326
-0.360236
-0.328751
-0.290266
-0.247523
-0.203213
-0.159615
-0.118426
-0.0807608
-0.0473024
-0.0184928
0.00528983
0.0235054
0.0353386
0.0401772
0.0383048
0.0309136
-0.216444
-0.227803
-0.24305
-0.262027
-0.284189
-0.308471
-0.333157
-0.355883
-0.373614
-0.383579
-0.383028
-0.371325
-0.349078
-0.317903
-0.280111
-0.238331
-0.195106
-0.152566
-0.112285
-0.0752893
-0.0421958
-0.0133827
0.0108116
0.0298453
0.0428809
0.0491612
0.0486792
0.0423821
-0.217456
-0.228766
-0.243698
-0.262037
-0.283188
-0.306074
-0.32903
-0.34981
-0.365527
-0.373601
-0.371763
-0.359371
-0.337027
-0.306295
-0.269392
-0.2288
-0.186882
-0.145603
-0.106404
-0.0702267
-0.037638
-0.00897717
0.0154529
0.0351381
0.049267
0.0570091
0.0581019
0.0531056
-0.218292
-0.229428
-0.2439
-0.261441
-0.281422
-0.302756
-0.323825
-0.342475
-0.356122
-0.362367
-0.359288
-0.346315
-0.324049
-0.293991
-0.258227
-0.219057
-0.178653
-0.138807
-0.100838
-0.0656139
-0.0336654
-0.00531089
0.0191765
0.039324
0.0543664
0.0634473
0.0660875
0.0624977
-0.218783
-0.22962
-0.243482
-0.260064
-0.278708
-0.29833
-0.317387
-0.333858
-0.345427
-0.349923
-0.345718
-0.332335
-0.310363
-0.28121
-0.246805
-0.209251
-0.17052
-0.132242
-0.0956212
-0.0614645
-0.0302745
-0.0023638
0.0220128
0.0424293
0.0581777
0.0684108
0.0724963
0.0703321
-0.218732
-0.229148
-0.242264
-0.257745
-0.274921
-0.292725
-0.309707
-0.324021
-0.333574
-0.336454
-0.33129
-0.317692
-0.296221
-0.268176
-0.235307
-0.199514
-0.162573
-0.125959
-0.0907762
-0.0577772
-0.0274462
-9.87385e-05
0.0240159
0.0445158
0.0607565
0.0719265
0.0772991
0.0765081
-0.217998
-0.227882
-0.240137
-0.254407
-0.270026
-0.285974
-0.300892
-0.313109
-0.32077
-0.322213
-0.316284
-0.302667
-0.281886
-0.255109
-0.223905
-0.189967
-0.154887
-0.119997
-0.0863117
-0.0545391
-0.0251503
0.00153164
0.0252517
0.0456633
0.0621861
0.0740627
0.0804871
0.0809579
-0.216521
-0.225781
-0.237089
-0.250077
-0.264097
-0.278209
-0.291127
-0.301362
-0.307298
-0.307505
-0.301009
-0.287555
-0.267612
-0.242215
-0.212748
-0.180711
-0.147521
-0.114381
-0.0822263
-0.051728
-0.023348
0.00258228
0.0257945
0.0459644
0.0625704
0.0749237
0.0821705
0.0836969
-0.214314
-0.222888
-0.233198
-0.244876
-0.257304
-0.269631
-0.280668
-0.289079
-0.293483
-0.292657
-0.285777
-0.272631
-0.253628
-0.229669
-0.201962
-0.171824
-0.140516
-0.109123
-0.0785098
-0.0493151
-0.0219945
0.00311292
0.0257226
0.045519
0.0620303
0.0745915
0.0824544
0.0848169
-0.211448
-0.219301
-0.228599
-0.238984
-0.249879
-0.260499
-0.269797
-0.276571
-0.279644
-0.277974
-0.270863
-0.258129
-0.24012
-0.217608
-0.191637
-0.163361
-0.133897
-0.104226
-0.0751456
-0.0472677
-0.0210421
0.00318523
0.0251147
0.0444295
0.0606989
0.0733031
0.0815047
0.0844755
-0.208022
-0.215148
-0.223453
-0.232595
-0.242048
-0.251087
-0.258794
-0.264122
-0.266054
-0.263705
-0.256483
-0.244226
-0.227222
-0.206127
-0.181836
-0.155356
-0.127676
-0.0996815
-0.0721124
-0.0455513
-0.020443
0.00286057
0.0240477
0.0427957
0.0587012
0.0711757
0.0795113
0.0828767
-0.204139
-0.210557
-0.217914
-0.225891
-0.234008
-0.241611
-0.247895
-0.251956
-0.252919
-0.25003
-0.242784
-0.231036
-0.215017
-0.19528
-0.172591
-0.147823
-0.121852
-0.0954784
-0.0693865
-0.0441312
-0.0201509
0.00219784
0.0225943
0.04071
0.0561549
0.0683641
0.0766698
0.080248
-0.199897
-0.20564
-0.212112
-0.219015
-0.225918
-0.232237
-0.237264
-0.240227
-0.240373
-0.237058
-0.22985
-0.218617
-0.203544
-0.18509
-0.163909
-0.14076
-0.116416
-0.0915997
-0.0669432
-0.0429741
-0.0201227
0.00125191
0.0208226
0.0382559
0.0531694
0.0650141
0.0731652
0.0768175
-0.195376
-0.200488
-0.206147
-0.212077
-0.217891
-0.223071
-0.227003
-0.229021
-0.228483
-0.224836
-0.217712
-0.206987
-0.192806
-0.175554
-0.155785
-0.134157
-0.111354
-0.0880261
-0.0647578
-0.0420486
-0.0203187
7.26672e-05
0.0187942
0.0355093
0.0498416
0.0612533
0.0691634
0.0727946
-0.190641
-0.195174
-0.200093
-0.205152
-0.209999
-0.214181
-0.217164
-0.218378
-0.21727
-0.213371
-0.206361
-0.196128
-0.182785
-0.166651
-0.148198
-0.127995
-0.106646
-0.0847372
-0.0628064
-0.0413258
-0.0207029
-0.00129506
0.0165646
0.0325374
0.0462322
0.0571914
0.0648069
0.068359
-0.185745
-0.189748
-0.194005
-0.198288
-0.202285
-0.205598
-0.207767
-0.2083
-0.206724
-0.202637
-0.195765
-0.186005
-0.173446
-0.158351
-0.141122
-0.122252
-0.102272
-0.0817124
-0.0610664
-0.0407788
-0.0212429
-0.00281146
0.0141831
0.029403
0.0424627
0.0529245
0.060214
0.0636568
-0.180728
-0.184254
-0.187919
-0.191518
-0.194772
-0.197336
-0.198809
-0.198769
-0.196813
-0.192595
-0.18588
-0.176575
-0.164748
-0.150617
-0.134526
-0.1169
-0.0982104
-0.0789311
-0.0595163
-0.0403834
-0.0219098
-0.00444114
0.0116932
0.0261586
0.0385791
0.048531
0.0554811
0.0588028
-0.175625
-0.178723
-0.181863
-0.184862
-0.187472
-0.189391
-0.190275
-0.189759
-0.187498
-0.183198
-0.176656
-0.167787
-0.156645
-0.143411
-0.128378
-0.111916
-0.0944388
-0.0763734
-0.058136
-0.0401171
-0.0226772
-0.00615269
0.00913256
0.0228492
0.0346331
0.0440765
0.0506857
0.0538859
-0.170466
-0.173181
-0.175859
-0.178334
-0.180388
-0.181758
-0.182144
-0.181237
-0.178739
-0.174399
-0.168042
-0.159593
-0.149093
-0.136695
-0.122648
-0.107273
-0.090936
-0.0740202
-0.0569066
-0.0399593
-0.0235215
-0.00791813
0.00653452
0.0195146
0.0306713
0.0396152
0.0458903
0.0489748
-0.165277
-0.167652
-0.169924
-0.171944
-0.173521
-0.174424
-0.174397
-0.173172
-0.170494
-0.166151
-0.15999
-0.151946
-0.142051
-0.130433
-0.117305
-0.102947
-0.0876812
-0.0718531
-0.0558101
-0.0398912
-0.0244212
-0.00971246
0.00392843
0.0161891
0.0267333
0.0351919
0.0411453
0.044123
-0.160081
-0.162155
-0.164071
-0.165699
-0.166869
-0.16738
-0.167011
-0.165532
-0.162726
-0.15841
-0.152454
-0.144801
-0.135476
-0.124588
-0.112318
-0.0989122
-0.0846544
-0.0698544
-0.0548299
-0.0398952
-0.0253569
-0.0115134
0.00134015
0.0129024
0.0228529
0.0308441
0.0364911
0.0393723
-0.154898
-0.156706
-0.158315
-0.159606
-0.16043
-0.160614
-0.159966
-0.15829
-0.155399
-0.151137
-0.145394
-0.138119
-0.129334
-0.119129
-0.107662
-0.0951472
-0.0818364
-0.0680076
-0.0539501
-0.0399554
-0.0263111
-0.013301
-0.00120772
0.00968016
0.0190587
0.0266028
0.0319604
0.0347557
-0.149747
-0.151323
-0.152665
-0.153668
-0.154202
-0.154116
-0.153244
-0.151419
-0.148481
-0.144296
-0.138772
-0.131863
-0.123588
-0.114025
-0.10331
-0.0916301
-0.0792092
-0.0662967
-0.0531562
-0.0400568
-0.0272679
-0.0150579
-0.00369554
0.00654427
0.0153748
0.0224934
0.0275794
0.0302989
-0.144644
-0.146017
-0.14713
-0.147889
-0.148181
-0.147875
-0.146828
-0.144895
-0.141942
-0.137854
-0.132552
-0.125998
-0.118207
-0.109248
-0.0992374
-0.0883404
-0.0767556
-0.0647069
-0.0524344
-0.0401861
-0.0282133
-0.0167686
-0.00610635
0.00351327
0.011821
0.0185365
0.0233685
0.0260214
-0.139604
-0.140801
-0.141718
-0.142273
-0.142365
-0.141882
-0.140701
-0.138697
-0.135756
-0.131782
-0.126704
-0.120494
-0.113163
-0.104771
-0.0954219
-0.085259
-0.0744593
-0.0632243
-0.0517721
-0.040331
-0.0291346
-0.0184197
-0.0084257
0.000602546
0.00841336
0.0147482
0.0193435
0.021938
-0.134641
-0.135685
-0.136436
-0.13682
-0.13675
-0.136128
-0.134848
-0.132805
-0.1299
-0.12605
-0.1212
-0.115322
-0.108429
-0.100572
-0.0918425
-0.0823678
-0.0723052
-0.0618358
-0.0511578
-0.0404807
-0.0300211
-0.0199999
-0.0106417
-0.00217541
0.00516476
0.0111413
0.015516
0.0180591
-0.129764
-0.130677
-0.131288
-0.131532
-0.131333
-0.130604
-0.129257
-0.1272
-0.124349
-0.120636
-0.116012
-0.110456
-0.103979
-0.0966264
-0.0884794
-0.0796502
-0.0702793
-0.0605295
-0.0505809
-0.0406255
-0.0308634
-0.0214999
-0.0127447
-0.00481079
0.00208492
0.00772468
0.0118943
0.0143916
-0.124983
-0.125785
-0.12628
-0.12641
-0.126108
-0.125302
-0.123914
-0.121865
-0.119085
-0.115516
-0.111118
-0.105872
-0.0997911
-0.0929147
-0.0853145
-0.0770906
-0.0683683
-0.0592944
-0.0500321
-0.040757
-0.0316536
-0.0229121
-0.0147271
-0.00729625
-0.000819471
0.00450447
0.00848324
0.0109392
-0.120308
-0.121015
-0.121413
-0.121452
-0.121073
-0.120214
-0.118806
-0.116784
-0.114089
-0.11067
-0.106495
-0.101549
-0.0958447
-0.0894174
-0.082331
-0.0746745
-0.0665603
-0.0581204
-0.0495029
-0.0408681
-0.0323855
-0.0242306
-0.0165835
-0.00962679
-0.0035441
0.001484
0.00528496
0.00770294
-0.115744
-0.116372
-0.116691
-0.116659
-0.116223
-0.115331
-0.113923
-0.111944
-0.109343
-0.106078
-0.102123
-0.0974672
-0.0921207
-0.0861172
-0.0795133
-0.0723888
-0.0648442
-0.0569985
-0.0489859
-0.0409526
-0.0330538
-0.0254512
-0.0183104
-0.0117996
-0.00608674
-0.00133566
0.00229931
0.0046815
-0.111298
-0.111859
-0.112116
-0.112029
-0.111556
-0.110647
-0.109254
-0.10733
-0.104831
-0.101724
-0.0979851
-0.0936075
-0.0886016
-0.0829978
-0.0768472
-0.0702211
-0.0632099
-0.0559206
-0.0484749
-0.0410057
-0.0336549
-0.026571
-0.0199059
-0.0138136
-0.00844744
-0.00395561
-0.000475953
0.00187177
-0.106974
-0.107479
-0.107686
-0.107561
-0.107063
-0.106153
-0.104788
-0.10293
-0.10054
-0.0975907
-0.0940635
-0.0899535
-0.0852712
-0.0800447
-0.0743197
-0.0681606
-0.0616483
-0.0548796
-0.0479643
-0.0410234
-0.0341863
-0.0275885
-0.0213694
-0.0156695
-0.010628
-0.00637876
-0.00304478
-0.000730999
-0.102776
-0.103235
-0.103404
-0.103251
-0.102743
-0.101843
-0.100518
-0.0987325
-0.0964559
-0.0936642
-0.0903433
-0.0864901
-0.0821152
-0.0772442
-0.071919
-0.066197
-0.0601513
-0.0538691
-0.0474497
-0.0410028
-0.0346462
-0.0285036
-0.022702
-0.0173692
-0.0126316
-0.00860945
-0.00541256
-0.00313284
-0.0987054
-0.099128
-0.0992681
-0.0990984
-0.0985896
-0.0977112
-0.0964337
-0.0947274
-0.0925663
-0.0899311
-0.0868106
-0.0832034
-0.07912
-0.0745843
-0.0696341
-0.0643212
-0.0587116
-0.0528837
-0.0469273
-0.0409418
-0.0350343
-0.029317
-0.0239058
-0.0189161
-0.0144626
-0.0106533
-0.0075858
-0.00534083
-0.0947656
-0.0951583
-0.0952779
-0.0951003
-0.0945999
-0.0937506
-0.0925274
-0.0909043
-0.0888601
-0.0863792
-0.0834526
-0.0800807
-0.0762737
-0.0720538
-0.0674553
-0.0625252
-0.0573228
-0.0519187
-0.0463943
-0.0408392
-0.0353506
-0.0300304
-0.0249837
-0.0203147
-0.0161269
-0.0125169
-0.00957196
-0.00736281
-0.0909571
-0.0913261
-0.0914322
-0.0912541
-0.0907692
-0.0899549
-0.0887907
-0.0872537
-0.0853268
-0.0829971
-0.0802579
-0.0771105
-0.0735653
-0.0696427
-0.0653739
-0.0608016
-0.0559792
-0.0509704
-0.0458484
-0.0406945
-0.0355963
-0.0306462
-0.0259393
-0.0215702
-0.0176311
-0.014208
-0.0113791
-0.0092072
-0.0872805
-0.087631
-0.0877292
-0.0875565
-0.0870935
-0.0863204
-0.0852164
-0.0837672
-0.081957
-0.0797748
-0.0772159
-0.0742825
-0.0709848
-0.0673418
-0.063382
-0.059144
-0.054676
-0.0500354
-0.0452882
-0.0405076
-0.035773
-0.0311676
-0.0267776
-0.0226885
-0.0189823
-0.0157342
-0.0130159
-0.0108828
-0.0837357
-0.084072
-0.0841671
-0.0840044
-0.0835668
-0.0828367
-0.0817978
-0.0804373
-0.0787419
-0.0767027
-0.0743168
-0.071587
-0.0685231
-0.065143
-0.0614725
-0.0575467
-0.053409
-0.0491112
-0.0447126
-0.0402794
-0.0358829
-0.0315984
-0.0275036
-0.0236758
-0.0201879
-0.017104
-0.0144912
-0.0123986
-0.0803221
-0.0806478
-0.0807435
-0.0805944
-0.0801854
-0.0795013
-0.0785287
-0.0772563
-0.0756731
-0.0737723
-0.071552
-0.0690155
-0.0661723
-0.063039
-0.0596393
-0.0560048
-0.0521748
-0.0481958
-0.0441214
-0.040011
-0.0359288
-0.0319426
-0.0281226
-0.0245387
-0.0212568
-0.0183258
-0.0158139
-0.0137638
-0.0770387
-0.0773567
-0.0774559
-0.0773232
-0.0769452
-0.0763093
-0.075403
-0.0742168
-0.0727429
-0.0709757
-0.0689136
-0.0665603
-0.063925
-0.0610232
-0.0578767
-0.0545139
-0.0509704
-0.0472879
-0.0435147
-0.039704
-0.0359136
-0.0322046
-0.02864
-0.0252839
-0.0221992
-0.0194076
-0.0169929
-0.0149873
-0.0738841
-0.0741966
-0.0743016
-0.0741874
-0.0738422
-0.0732548
-0.0724145
-0.0713132
-0.0699454
-0.0683059
-0.0663942
-0.0642142
-0.0617747
-0.05909
-0.05618
-0.0530705
-0.0497934
-0.0463865
-0.0428929
-0.0393605
-0.035841
-0.032389
-0.0290611
-0.0259158
-0.0230289
-0.0203565
-0.018037
-0.0160785
-0.0708566
-0.0711655
-0.071278
-0.0711836
-0.0708718
-0.0703328
-0.0695577
-0.0685394
-0.0672735
-0.065756
-0.0639872
-0.061971
-0.0597156
-0.0572342
-0.0545449
-0.0516713
-0.048642
-0.045491
-0.0422569
-0.0389827
-0.0357146
-0.0325011
-0.0293919
-0.026433
-0.0236461
-0.0211736
-0.0189552
-0.0170461
-0.0679541
-0.0682608
-0.068382
-0.0683082
-0.0680302
-0.0675394
-0.0668283
-0.0658899
-0.064721
-0.0633202
-0.061687
-0.0598251
-0.0577424
-0.0554512
-0.0529679
-0.0503139
-0.0475149
-0.0446014
-0.0416081
-0.0385733
-0.0355384
-0.0325467
-0.0296419
-0.0268666
-0.0242588
-0.0218895
-0.0197591
-0.0178997
-0.0651744
-0.06548
-0.0656106
-0.0655578
-0.0653133
-0.0648697
-0.0642203
-0.0633592
-0.0622837
-0.0609933
-0.0594879
-0.0577713
-0.0558506
-0.0537371
-0.0514459
-0.048996
-0.0464109
-0.0437179
-0.0409478
-0.0381351
-0.0353166
-0.032531
-0.0298175
-0.0272154
-0.0247629
-0.0225038
-0.0204572
-0.0186477
-0.0625152
-0.0628204
-0.0629608
-0.062929
-0.0627174
-0.0623196
-0.0617296
-0.060943
-0.0599563
-0.05877
-0.0573852
-0.0558051
-0.0540361
-0.0520885
-0.0499761
-0.0477161
-0.0453295
-0.0428409
-0.0402778
-0.0376709
-0.0350533
-0.0324593
-0.0299242
-0.0274834
-0.0251718
-0.0230223
-0.0210577
-0.0192986
-0.0599739
-0.0602791
-0.0604295
-0.0604182
-0.0602387
-0.059885
-0.0593521
-0.0586361
-0.0577344
-0.0566464
-0.0553748
-0.0539224
-0.0522952
-0.0505023
-0.0485563
-0.0464727
-0.0442703
-0.0419711
-0.0395999
-0.0371838
-0.0347525
-0.0323365
-0.0299675
-0.0276768
-0.0254955
-0.0234518
-0.021568
-0.0198603
-0.0575477
-0.0578533
-0.0580136
-0.0580223
-0.0578736
-0.0575622
-0.0570836
-0.0564346
-0.0556131
-0.0546181
-0.0534525
-0.0521197
-0.0506248
-0.048976
-0.0471847
-0.0452648
-0.0432333
-0.0411096
-0.038916
-0.0366768
-0.0344182
-0.0321676
-0.029953
-0.0278025
-0.0257432
-0.0238002
-0.0219938
-0.0203392
-0.055234
-0.05554
-0.0557099
-0.0557378
-0.0556186
-0.0553474
-0.0549204
-0.0543348
-0.0535886
-0.0526815
-0.0516151
-0.0503937
-0.049022
-0.0475074
-0.0458598
-0.0440917
-0.0422184
-0.0402574
-0.0382283
-0.0361529
-0.0340545
-0.0319574
-0.0298866
-0.0278669
-0.0259224
-0.0240749
-0.0223428
-0.0207416
-0.05303
-0.0533364
-0.0535154
-0.0535616
-0.0534703
-0.0532372
-0.0528589
-0.0523328
-0.0516575
-0.0508327
-0.0498594
-0.0487416
-0.0474846