/*--------------------------------*- C++ -*----------------------------------*\
  =========                 |
  \\      /  F ield         | OpenFOAM: The Open Source CFD Toolbox
   \\    /   O peration     | Website:  https://openfoam.org
    \\  /    A nd           | Version:  7
     \\/     M anipulation  |
\*---------------------------------------------------------------------------*/
FoamFile
{
    version     2.0;
    format      ascii;
    class       volScalarField;
    location    "80";
    object      p;
}
// * * * * * * * * * * * * * * * * * * * * * * * * * * * * * * * * * * * * * //

dimensions      [0 2 -2 0 0 0 0];

internalField   nonuniform List<scalar> 
4575
(
-0.37413
-0.374451
-0.374765
-0.375129
-0.375588
-0.376178
-0.376927
-0.377858
-0.378988
-0.380339
-0.381935
-0.383808
-0.385996
-0.38855
-0.391544
-0.394981
-0.398915
-0.375659
-0.375933
-0.376217
-0.376564
-0.377022
-0.37763
-0.378416
-0.379407
-0.380623
-0.382088
-0.38383
-0.385886
-0.3883
-0.391128
-0.394453
-0.398288
-0.402686
-0.377176
-0.3774
-0.37765
-0.377978
-0.378432
-0.379053
-0.379871
-0.380915
-0.382209
-0.383779
-0.385657
-0.387883
-0.390507
-0.393591
-0.397225
-0.401432
-0.406256
-0.378669
-0.378843
-0.379057
-0.379362
-0.379808
-0.380436
-0.38128
-0.38237
-0.383732
-0.385397
-0.387398
-0.38978
-0.392596
-0.395916
-0.399835
-0.404385
-0.409596
-0.380131
-0.380253
-0.380427
-0.380706
-0.381139
-0.381769
-0.382632
-0.38376
-0.385181
-0.386928
-0.389039
-0.391561
-0.394552
-0.398084
-0.402261
-0.407123
-0.412678
-0.381553
-0.381621
-0.381753
-0.382003
-0.382418
-0.383043
-0.383917
-0.385073
-0.386543
-0.388361
-0.390567
-0.393211
-0.396355
-0.400076
-0.404484
-0.409625
-0.415475
-0.382929
-0.382941
-0.383029
-0.383244
-0.383635
-0.38425
-0.385127
-0.386301
-0.387808
-0.389683
-0.391968
-0.394717
-0.397993
-0.401877
-0.406485
-0.411874
-0.417963
-0.384252
-0.384206
-0.384247
-0.384423
-0.384785
-0.385381
-0.386252
-0.387435
-0.388966
-0.390884
-0.393232
-0.396065
-0.399451
-0.403473
-0.408251
-0.413854
-0.420143
-0.385412
-0.385402
-0.385535
-0.385862
-0.386431
-0.387286
-0.388467
-0.390009
-0.391955
-0.394348
-0.397247
-0.40072
-0.404851
-0.409768
-0.415538
-0.422021
-0.386553
-0.38649
-0.386575
-0.38686
-0.387395
-0.388224
-0.38939
-0.390931
-0.392888
-0.39531
-0.398253
-0.401789
-0.406004
-0.411029
-0.416934
-0.423551
-0.387628
-0.387508
-0.38754
-0.387776
-0.388268
-0.389062
-0.390201
-0.391726
-0.39368
-0.396111
-0.399079
-0.402654
-0.406925
-0.412026
-0.418033
-0.424733
-0.388633
-0.388453
-0.388428
-0.388608
-0.389048
-0.389796
-0.390896
-0.392391
-0.394326
-0.396749
-0.39972
-0.403311
-0.407611
-0.412758
-0.418834
-0.425573
-0.389567
-0.389326
-0.389237
-0.389356
-0.389735
-0.390426
-0.391474
-0.392925
-0.394824
-0.39722
-0.400175
-0.403759
-0.408062
-0.413226
-0.419338
-0.426076
-0.390432
-0.390125
-0.389969
-0.390018
-0.390328
-0.390951
-0.391935
-0.393328
-0.395175
-0.397527
-0.400445
-0.404
-0.408281
-0.413432
-0.41955
-0.426252
-0.391227
-0.390852
-0.390623
-0.390596
-0.390828
-0.391373
-0.392281
-0.393601
-0.395381
-0.397672
-0.400533
-0.404038
-0.408273
-0.413384
-0.41948
-0.426111
-0.391954
-0.391509
-0.391204
-0.391094
-0.391239
-0.391695
-0.392515
-0.393749
-0.395447
-0.397659
-0.400447
-0.403881
-0.408047
-0.413091
-0.419139
-0.425669
-0.3921
-0.391713
-0.391514
-0.391564
-0.391921
-0.392642
-0.393778
-0.395378
-0.397497
-0.400192
-0.403536
-0.407613
-0.412567
-0.418541
-0.424941
-0.392628
-0.392156
-0.391862
-0.391809
-0.392058
-0.392668
-0.393693
-0.395183
-0.397193
-0.399781
-0.403017
-0.406984
-0.411826
-0.417705
-0.423945
-0.393099
-0.392538
-0.392143
-0.39198
-0.392112
-0.392601
-0.393503
-0.394871
-0.396759
-0.399224
-0.402337
-0.406177
-0.410886
-0.416647
-0.422699
-0.393518
-0.392864
-0.392364
-0.392083
-0.392091
-0.39245
-0.393219
-0.394454
-0.396207
-0.398537
-0.401512
-0.405208
-0.409765
-0.41539
-0.421222
-0.393143
-0.392532
-0.392128
-0.392004
-0.392225
-0.392852
-0.393944
-0.395553
-0.397736
-0.40056
-0.404098
-0.408484
-0.413956
-0.419531
-0.393381
-0.392655
-0.392124
-0.391861
-0.391937
-0.392415
-0.393355
-0.39481
-0.396838
-0.399501
-0.402869
-0.407067
-0.412367
-0.417641
-0.393586
-0.392743
-0.39208
-0.391673
-0.391598
-0.39192
-0.392702
-0.393998
-0.395862
-0.398356
-0.401543
-0.405537
-0.41065
-0.415568
-0.393769
-0.392805
-0.392006
-0.391452
-0.391221
-0.391383
-0.392002
-0.393133
-0.394829
-0.397147
-0.400145
-0.403919
-0.408831
-0.413325
-0.392852
-0.391914
-0.39121
-0.39082
-0.390819
-0.391272
-0.392235
-0.393759
-0.395898
-0.3987
-0.40224
-0.406938
-0.410923
-0.392893
-0.391816
-0.39096
-0.39041
-0.390244
-0.390529
-0.391323
-0.392675
-0.394631
-0.397234
-0.400525
-0.405
-0.408377
-0.392941
-0.391723
-0.390715
-0.390005
-0.389673
-0.389791
-0.390417
-0.391597
-0.393372
-0.395773
-0.398801
-0.403046
-0.405698
-0.391649
-0.390489
-0.389619
-0.389125
-0.389078
-0.389538
-0.390548
-0.392142
-0.394341
-0.397094
-0.401105
-0.402904
-0.391606
-0.390296
-0.38927
-0.388615
-0.388407
-0.388704
-0.389549
-0.390966
-0.392964
-0.395427
-0.399204
-0.400013
-0.391608
-0.390151
-0.388972
-0.388161
-0.387796
-0.387937
-0.38862
-0.389863
-0.391661
-0.393823
-0.397367
-0.397053
-0.390069
-0.388741
-0.38778
-0.387264
-0.387253
-0.38778
-0.388853
-0.390453
-0.392302
-0.395611
-0.394054
-0.390062
-0.388593
-0.387487
-0.386827
-0.386671
-0.387048
-0.387954
-0.389355
-0.390881
-0.393949
-0.391056
-0.388542
-0.387299
-0.386502
-0.386207
-0.386438
-0.387181
-0.388381
-0.389578
-0.392382
-0.388108
-0.388602
-0.38723
-0.386302
-0.385875
-0.385965
-0.386547
-0.387542
-0.388412
-0.390907
-0.385268
-0.388786
-0.387292
-0.386241
-0.385687
-0.385641
-0.386063
-0.386845
-0.387404
-0.389521
-0.382628
-0.387498
-0.38633
-0.385654
-0.385473
-0.385738
-0.386297
-0.386577
-0.388222
-0.380307
-0.387855
-0.386576
-0.385782
-0.385468
-0.38558
-0.385906
-0.385955
-0.386968
-0.378319
-0.386985
-0.386075
-0.38563
-0.385593
-0.38569
-0.3856
-0.385685
-0.376359
-0.387557
-0.386532
-0.385955
-0.38578
-0.385687
-0.385646
-0.384572
-0.374748
-0.387148
-0.386436
-0.386126
-0.385895
-0.386138
-0.38443
-0.378135
-0.387913
-0.387054
-0.386596
-0.386234
-0.386735
-0.38544
-0.393828
-0.387787
-0.387147
-0.386614
-0.387177
-0.385996
-0.395991
-0.38774
-0.386963
-0.387299
-0.385842
-0.394639
-0.38834
-0.387232
-0.387117
-0.385184
-0.392161
-0.387393
-0.386666
-0.384123
-0.388981
-0.385975
-0.382732
-0.38545
-0.385078
-0.381083
-0.38179
-0.379235
-0.378125
-0.374521
-0.318843
-0.327355
-0.321694
-0.339017
-0.328686
-0.324517
-0.339849
-0.32975
-0.327212
-0.347834
-0.340411
-0.330467
-0.329601
-0.355304
-0.347963
-0.340659
-0.330749
-0.331393
-0.355239
-0.347911
-0.340555
-0.330505
-0.332171
-0.361193
-0.355074
-0.34769
-0.340066
-0.329647
-0.3314
-0.365869
-0.360915
-0.354823
-0.347331
-0.339198
-0.327984
-0.326361
-0.365436
-0.360576
-0.354507
-0.346897
-0.338157
-0.325761
-0.307185
-0.368652
-0.364945
-0.36018
-0.354151
-0.346475
-0.337236
-0.325138
-0.30294
-0.367981
-0.364388
-0.359725
-0.353765
-0.346124
-0.3367
-0.325507
-0.30394
-0.369869
-0.367245
-0.363763
-0.359206
-0.35334
-0.345805
-0.336401
-0.325814
-0.304826
-0.368964
-0.366442
-0.363065
-0.358615
-0.352858
-0.345454
-0.336165
-0.325895
-0.305403
-0.369764
-0.368003
-0.365573
-0.362293
-0.357949
-0.352306
-0.345042
-0.335925
-0.325871
-0.306104
-0.368676
-0.366992
-0.364645
-0.361454
-0.357211
-0.351683
-0.344564
-0.335662
-0.325797
-0.306964
-0.368664
-0.367558
-0.365941
-0.363666
-0.360557
-0.35641
-0.350999
-0.344031
-0.335371
-0.32569
-0.307905
-0.367474
-0.366422
-0.364862
-0.362651
-0.359617
-0.355561
-0.350269
-0.34346
-0.33506
-0.325581
-0.308887
-0.366288
-0.365282
-0.363771
-0.361617
-0.358653
-0.354686
-0.349519
-0.342878
-0.334752
-0.325514
-0.309902
-0.365701
-0.365122
-0.364154
-0.362687
-0.360586
-0.357688
-0.353807
-0.348779
-0.342316
-0.334478
-0.325532
-0.310954
-0.364538
-0.363989
-0.363055
-0.361628
-0.359577
-0.356749
-0.352969
-0.348063
-0.341805
-0.334269
-0.325679
-0.312043
-0.363428
-0.362907
-0.362004
-0.360615
-0.358615
-0.355858
-0.352182
-0.34742
-0.341379
-0.334159
-0.326009
-0.313147
-0.362584
-0.362386
-0.36189
-0.361016
-0.359666
-0.357721
-0.355042
-0.351478
-0.346875
-0.341069
-0.33419
-0.326535
-0.31422
-0.361603
-0.361425
-0.360953
-0.36011
-0.358802
-0.356915
-0.354321
-0.35088
-0.346451
-0.340899
-0.33437
-0.327016
-0.315492
-0.360716
-0.360558
-0.36011
-0.359299
-0.358037
-0.356217
-0.353717
-0.35041
-0.34617
-0.340889
-0.334715
-0.32765
-0.317412
-0.359836
-0.359933
-0.359796
-0.359373
-0.358599
-0.357388
-0.35564
-0.353245
-0.350084
-0.346047
-0.341047
-0.335235
-0.328502
-0.319316
-0.359151
-0.359265
-0.359148
-0.358753
-0.358019
-0.356865
-0.355199
-0.352918
-0.349915
-0.346092
-0.341381
-0.335926
-0.329537
-0.321148
-0.358588
-0.358717
-0.358622
-0.358259
-0.357569
-0.356479
-0.354903
-0.352745
-0.349911
-0.346311
-0.341893
-0.336789
-0.330755
-0.323032
-0.358152
-0.358298
-0.358226
-0.357897
-0.357257
-0.356237
-0.354758
-0.352733
-0.350076
-0.346708
-0.342585
-0.337827
-0.332156
-0.325023
-0.357494
-0.357847
-0.358009
-0.357963
-0.357671
-0.357086
-0.356142
-0.354768
-0.352884
-0.350413
-0.347283
-0.343457
-0.339041
-0.333738
-0.327143
-0.357313
-0.357677
-0.357856
-0.357836
-0.357586
-0.357059
-0.356198
-0.354936
-0.3532
-0.350921
-0.348035
-0.344508
-0.34043
-0.335498
-0.329405
-0.35727
-0.357643
-0.357839
-0.357848
-0.357642
-0.357178
-0.356405
-0.35526
-0.353679
-0.351599
-0.348961
-0.345735
-0.341995
-0.337437
-0.331824
-0.357363
-0.357744
-0.357959
-0.357998
-0.357838
-0.357442
-0.356761
-0.35574
-0.354319
-0.352443
-0.350057
-0.347133
-0.343732
-0.339555
-0.334413
-0.357031
-0.357591
-0.357981
-0.358213
-0.358285
-0.358174
-0.357848
-0.357263
-0.35637
-0.355116
-0.353448
-0.351318
-0.3487
-0.345641
-0.341852
-0.337179
-0.357395
-0.357953
-0.358349
-0.3586
-0.358705
-0.358645
-0.358393
-0.357909
-0.357148
-0.356064
-0.354609
-0.352739
-0.350429
-0.347718
-0.344327
-0.34013
-0.357889
-0.358444
-0.358847
-0.359116
-0.359254
-0.359248
-0.359072
-0.358691
-0.358067
-0.357156
-0.355918
-0.354312
-0.352315
-0.349958
-0.346976
-0.343266
-0.358511
-0.35906
-0.359468
-0.359755
-0.359928
-0.359977
-0.359879
-0.359605
-0.35912
-0.358387
-0.357369
-0.35603
-0.354351
-0.352354
-0.349794
-0.346584
-0.359253
-0.359795
-0.360206
-0.360513
-0.360721
-0.360825
-0.360808
-0.360642
-0.360299
-0.359746
-0.358952
-0.357885
-0.356528
-0.3549
-0.352774
-0.350081
-0.360109
-0.360642
-0.361056
-0.361381
-0.361625
-0.361786
-0.36185
-0.361795
-0.361597
-0.361227
-0.360659
-0.359867
-0.358836
-0.357585
-0.355906
-0.353744
-0.361072
-0.361593
-0.36201
-0.362352
-0.362632
-0.362851
-0.362998
-0.363055
-0.363002
-0.362817
-0.362479
-0.361965
-0.361265
-0.360398
-0.359177
-0.357561
-0.362132
-0.362641
-0.363059
-0.363418
-0.363734
-0.364011
-0.364241
-0.364411
-0.364506
-0.364507
-0.364399
-0.364166
-0.363801
-0.363325
-0.362572
-0.361515
-0.362657
-0.363281
-0.363776
-0.364194
-0.364569
-0.364921
-0.365256
-0.36557
-0.365854
-0.366096
-0.366285
-0.366409
-0.366457
-0.36643
-0.366349
-0.366073
-0.365585
-0.363916
-0.36451
-0.364988
-0.365405
-0.365796
-0.366183
-0.366576
-0.366973
-0.367371
-0.367761
-0.368137
-0.368492
-0.368823
-0.369135
-0.369453
-0.369658
-0.369746
-0.365247
-0.365808
-0.366269
-0.366683
-0.367088
-0.36751
-0.367959
-0.36844
-0.368951
-0.369488
-0.37005
-0.370636
-0.371248
-0.371899
-0.372617
-0.373305
-0.373972
-0.366638
-0.367165
-0.367606
-0.368016
-0.368435
-0.36889
-0.369395
-0.369958
-0.37058
-0.371263
-0.372009
-0.372823
-0.373715
-0.374701
-0.375818
-0.376989
-0.378234
-0.36808
-0.36857
-0.368989
-0.369394
-0.369825
-0.370311
-0.370871
-0.371514
-0.372245
-0.373071
-0.373998
-0.375038
-0.376204
-0.377522
-0.379034
-0.380683
-0.382499
-0.369561
-0.370011
-0.370407
-0.370805
-0.371247
-0.371763
-0.372375
-0.373095
-0.373933
-0.374898
-0.376002
-0.377262
-0.378697
-0.38034
-0.382241
-0.384359
-0.386734
-0.37107
-0.371479
-0.37185
-0.372239
-0.372689
-0.373233
-0.373894
-0.374688
-0.375629
-0.376729
-0.378004
-0.379477
-0.381174
-0.383133
-0.385412
-0.387987
-0.390905
-0.372597
-0.372963
-0.373306
-0.373684
-0.374139
-0.374708
-0.375415
-0.37628
-0.377319
-0.378548
-0.379988
-0.381665
-0.383613
-0.385877
-0.388521
-0.391537
-0.394977
-0.410628
-0.426213
-0.451593
-0.472329
-0.49021
-0.489651
-0.468468
-0.424277
-0.369977
-0.317476
-0.4156
-0.4328
-0.460293
-0.483128
-0.502694
-0.502931
-0.481029
-0.434696
-0.37726
-0.321481
-0.420359
-0.439054
-0.468581
-0.493383
-0.514577
-0.515588
-0.49301
-0.44459
-0.384009
-0.32503
-0.424863
-0.444932
-0.476399
-0.503032
-0.525797
-0.527576
-0.504382
-0.453844
-0.39032
-0.32814
-0.429071
-0.45039
-0.483702
-0.512019
-0.536305
-0.538852
-0.51509
-0.46254
-0.396133
-0.330831
-0.432953
-0.455392
-0.490458
-0.520284
-0.546057
-0.549372
-0.525113
-0.470678
-0.401462
-0.333129
-0.436477
-0.459905
-0.496643
-0.527774
-0.554989
-0.559122
-0.534456
-0.478247
-0.406326
-0.335063
-0.439591
-0.46393
-0.501973
-0.534716
-0.563098
-0.568075
-0.543096
-0.485243
-0.410745
-0.336663
-0.442283
-0.467445
-0.506697
-0.540833
-0.570365
-0.576202
-0.551015
-0.49167
-0.414738
-0.337962
-0.444576
-0.470413
-0.510786
-0.546127
-0.576773
-0.583487
-0.558206
-0.497533
-0.418324
-0.338991
-0.446461
-0.472836
-0.514218
-0.550608
-0.582313
-0.589925
-0.564664
-0.502833
-0.421525
-0.339784
-0.44793
-0.474721
-0.516994
-0.554285
-0.586989
-0.595513
-0.570387
-0.507578
-0.424359
-0.340375
-0.448989
-0.47608
-0.519124
-0.557174
-0.590808
-0.600255
-0.575375
-0.511773
-0.426847
-0.340792
-0.449651
-0.476927
-0.520625
-0.559296
-0.593786
-0.604162
-0.579632
-0.515426
-0.429007
-0.341067
-0.449936
-0.47728
-0.52152
-0.560678
-0.595946
-0.607247
-0.583166
-0.518544
-0.430855
-0.341227
-0.449869
-0.477165
-0.521838
-0.561355
-0.597315
-0.609529
-0.585987
-0.521139
-0.43241
-0.341297
-0.44948
-0.476607
-0.52161
-0.561363
-0.597926
-0.61103
-0.588107
-0.523218
-0.433686
-0.3413
-0.448802
-0.475638
-0.520874
-0.560745
-0.597815
-0.611777
-0.58954
-0.524794
-0.434698
-0.341256
-0.447871
-0.474291
-0.519666
-0.559543
-0.597021
-0.611798
-0.590306
-0.525879
-0.435459
-0.341182
-0.446728
-0.472601
-0.518026
-0.557805
-0.595585
-0.611124
-0.590423
-0.526486
-0.435982
-0.341094
-0.445412
-0.470604
-0.515993
-0.555575
-0.59355
-0.609787
-0.589912
-0.526627
-0.436278
-0.341005
-0.443962
-0.468337
-0.513606
-0.5529
-0.590957
-0.607821
-0.588795
-0.526318
-0.436359
-0.340924
-0.442418
-0.465838
-0.510901
-0.549824
-0.587849
-0.605258
-0.587097
-0.525574
-0.436235
-0.340859
-0.440814
-0.463143
-0.507913
-0.54639
-0.584265
-0.602132
-0.58484
-0.524412
-0.435916
-0.340817
-0.439182
-0.46029
-0.504674
-0.542638
-0.580244
-0.598476
-0.58205
-0.522847
-0.435412
-0.3408
-0.437545
-0.457312
-0.501211
-0.5386
-0.57582
-0.59432
-0.578753
-0.520899
-0.434731
-0.340811
-0.253892
-0.43592
-0.454243
-0.497548
-0.534299
-0.57103
-0.589695
-0.574974
-0.518585
-0.433881
-0.34085
-0.254028
-0.434314
-0.451115
-0.493703
-0.529784
-0.565912
-0.584631
-0.57074
-0.515925
-0.432873
-0.340918
-0.254347
-0.432722
-0.447956
-0.489686
-0.525284
-0.560509
-0.579159
-0.566077
-0.512939
-0.431713
-0.341012
-0.254841
-0.431127
-0.444789
-0.485518
-0.520992
-0.554831
-0.573302
-0.561015
-0.509648
-0.430411
-0.341129
-0.255501
-0.429496
-0.441635
-0.481202
-0.514276
-0.548857
-0.567085
-0.55558
-0.506075
-0.428973
-0.341264
-0.256315
-0.427781
-0.438505
-0.47683
-0.509266
-0.542586
-0.560527
-0.549802
-0.502242
-0.427408
-0.341411
-0.257269
-0.42592
-0.435409
-0.472389
-0.503864
-0.536018
-0.553658
-0.543714
-0.498175
-0.42573
-0.341578
-0.258367
-0.423835
-0.43234
-0.467828
-0.498208
-0.529213
-0.546499
-0.537346
-0.493906
-0.423964
-0.34178
-0.259617
-0.42144
-0.429275
-0.463153
-0.492435
-0.522195
-0.539079
-0.530731
-0.489447
-0.422088
-0.341966
-0.260952
-0.418647
-0.426186
-0.458505
-0.486586
-0.515021
-0.531458
-0.5239
-0.484762
-0.419987
-0.341963
-0.262177
-0.415371
-0.423055
-0.454115
-0.480685
-0.50772
-0.523686
-0.516921
-0.47993
-0.417752
-0.341882
-0.263417
-0.411525
-0.419764
-0.448446
-0.474492
-0.500054
-0.515631
-0.509911
-0.475424
-0.41622
-0.3428
-0.265808
-0.193018
-0.406912
-0.416101
-0.443211
-0.467673
-0.491782
-0.507068
-0.502739
-0.47128
-0.415571
-0.344971
-0.269619
-0.197347
-0.401206
-0.412602
-0.438179
-0.46192
-0.484586
-0.498863
-0.494586
-0.464531
-0.410933
-0.342403
-0.268639
-0.197313
-0.386281
-0.407984
-0.434309
-0.456277
-0.47577
-0.486637
-0.479108
-0.44723
-0.393616
-0.326603
-0.255193
-0.186249
-0.378413
-0.397954
-0.419062
-0.435533
-0.448598
-0.453409
-0.442239
-0.41066
-0.3609
-0.299774
-0.23468
-0.171363
-0.369071
-0.383942
-0.399254
-0.41132
-0.41949
-0.419788
-0.406456
-0.37625
-0.330848
-0.275567
-0.216414
-0.158255
-0.356557
-0.367082
-0.376976
-0.385268
-0.389818
-0.386933
-0.372377
-0.343841
-0.302606
-0.252809
-0.199299
-0.146143
-0.340771
-0.348372
-0.353812
-0.358835
-0.360684
-0.355671
-0.3406
-0.313921
-0.276648
-0.231944
-0.183657
-0.135177
-0.322901
-0.328684
-0.330823
-0.333128
-0.332949
-0.326598
-0.311531
-0.286751
-0.25309
-0.212959
-0.169403
-0.125241
-0.303995
-0.308669
-0.308553
-0.308729
-0.307033
-0.299905
-0.285186
-0.262246
-0.231816
-0.195751
-0.156454
-0.116262
-0.284809
-0.288788
-0.287244
-0.285856
-0.283047
-0.275521
-0.261367
-0.240184
-0.212636
-0.180177
-0.144705
-0.10815
-0.26586
-0.269328
-0.266989
-0.264527
-0.260932
-0.253267
-0.239815
-0.2203
-0.195333
-0.166078
-0.134042
-0.100813
-0.247469
-0.250593
-0.247824
-0.244668
-0.240556
-0.232941
-0.220272
-0.202336
-0.179692
-0.153295
-0.124349
-0.0941639
-0.229818
-0.232753
-0.229737
-0.226177
-0.221774
-0.214344
-0.2025
-0.186056
-0.165517
-0.141681
-0.115523
-0.0881211
-0.212985
-0.215688
-0.212681
-0.20895
-0.204439
-0.197298
-0.186292
-0.171254
-0.152632
-0.131102
-0.107464
-0.0826107
-0.197026
-0.19954
-0.196637
-0.192896
-0.18842
-0.181642
-0.171471
-0.157753
-0.140882
-0.12144
-0.100086
-0.0775655
-0.181961
-0.184317
-0.181578
-0.177938
-0.173602
-0.167237
-0.157885
-0.145403
-0.130137
-0.112588
-0.0933098
-0.0729249
-0.16779
-0.170008
-0.167474
-0.164007
-0.159881
-0.153961
-0.145404
-0.134076
-0.120282
-0.104454
-0.0870642
-0.0686345
-0.154498
-0.156594
-0.154284
-0.151038
-0.14717
-0.14171
-0.133914
-0.123662
-0.111217
-0.0969582
-0.0812869
-0.064646
-0.142061
-0.144046
-0.141969
-0.13897
-0.135388
-0.130389
-0.123319
-0.114065
-0.102858
-0.0900284
-0.0759224
-0.0609171
-0.130448
-0.13233
-0.130484
-0.127746
-0.124461
-0.119916
-0.113532
-0.105202
-0.0951292
-0.0836027
-0.0709224
-0.057411
-0.119624
-0.121408
-0.119787
-0.117311
-0.114326
-0.11022
-0.104478
-0.0970024
-0.0879667
-0.0776273
-0.0662446
-0.0540962
-0.109548
-0.111242
-0.109831
-0.107611
-0.104921
-0.101234
-0.0960927
-0.0894019
-0.0813141
-0.0720553
-0.0618528
-0.0509463
-0.100182
-0.101792
-0.100578
-0.0985982
-0.0961917
-0.0929021
-0.0883164
-0.0823456
-0.0751224
-0.066846
-0.0577158
-0.0479392
-0.0914828
-0.0930108
-0.0919794
-0.0902302
-0.0880938
-0.0851724
-0.0810976
-0.0757851
-0.0693489
-0.0619645
-0.0538071
-0.0450568
-0.0834098
-0.0848583
-0.0839931
-0.0824635
-0.0805792
-0.0779969
-0.0743902
-0.0696777
-0.0639562
-0.0573804
-0.0501044
-0.0422849
-0.0759234
-0.0772967
-0.0765827
-0.0752535
-0.0736017
-0.071332
-0.0681531
-0.0639857
-0.0589118
-0.0530677
-0.046589
-0.0396122
-0.0689853
-0.0702876
-0.0697107
-0.0685621
-0.0671229
-0.0651401
-0.0623501
-0.0586758
-0.0541872
-0.0490039
-0.0432452
-0.03703
-0.062559
-0.063793
-0.0633367
-0.0623569
-0.061112
-0.0593883
-0.0569476
-0.0537181
-0.0497574
-0.0451697
-0.0400602
-0.0345321
-0.0566089
-0.0577775
-0.0574282
-0.056601
-0.0555322
-0.0540411
-0.051915
-0.049086
-0.0456003
-0.0415486
-0.0370231
-0.032114
-0.0511019
-0.0522081
-0.0519544
-0.0512648
-0.0503538
-0.0490689
-0.047226
-0.0447562
-0.0416966
-0.0381261
-0.0341253
-0.0297726
-0.0460071
-0.0470538
-0.0468831
-0.0463146
-0.0455474
-0.0444482
-0.0428557
-0.0407067
-0.0380291
-0.0348898
-0.0313594
-0.0275062
-0.041295
-0.0422848
-0.0421861
-0.0417261
-0.0410888
-0.0401538
-0.0387806
-0.0369192
-0.034583
-0.0318291
-0.0287195
-0.0253138
-0.0369384
-0.0378738
-0.0378376
-0.0374736
-0.0369502
-0.0361642
-0.0349793
-0.0333783
-0.0313449
-0.0289342
-0.0262005
-0.023195
-0.0329116
-0.0337953
-0.0338126
-0.0335332
-0.0331116
-0.032463
-0.0314764
-0.0300745
-0.0283033
-0.0261968
-0.0237979
-0.02115
-0.029191
-0.0300252
-0.030088
-0.0298823
-0.0295489
-0.0290151
-0.0281766
-0.0269787
-0.025444
-0.0236087
-0.0215082
-0.019179
-0.0257543
-0.0265413
-0.0266423
-0.0265006
-0.0262437
-0.0258096
-0.0251059
-0.0240865
-0.022758
-0.0211642
-0.019328
-0.0172824
-0.0225813
-0.0233232
-0.0234559
-0.0233693
-0.0231788
-0.0228318
-0.022247
-0.021384
-0.0202484
-0.0188589
-0.0172551
-0.0154609
-0.0196528
-0.0203516
-0.0205103
-0.020471
-0.0203378
-0.0200664
-0.019585
-0.0188566
-0.0178828
-0.0166827
-0.0152854
-0.0137145
-0.0169514
-0.0176091
-0.0177886
-0.0177897
-0.0177056
-0.0174993
-0.0171076
-0.0164963
-0.0156653
-0.0146315
-0.0134165
-0.0120435
-0.0144608
-0.0150794
-0.0152753
-0.0153104
-0.0152682
-0.0151177
-0.0148033
-0.014294
-0.013588
-0.0126999
-0.011648
-0.0104486
-0.012166
-0.0127473
-0.0129557
-0.0130193
-0.0130126
-0.0129096
-0.0126617
-0.0122407
-0.0116439
-0.010883
-0.00997322
-0.0089285
-0.0100533
-0.0105991
-0.0108165
-0.0109037
-0.0109267
-0.010864
-0.010673
-0.0103283
-0.00982635
-0.00917659
-0.00839168
-0.00748368
-0.00810991
-0.00862183
-0.0088453
-0.00895173
-0.00899945
-0.00897054
-0.00882805
-0.00854894
-0.00812925
-0.00757639
-0.00690086
-0.00611273
-0.00632398
-0.00680377
-0.00703076
-0.00715261
-0.00722058
-0.00721986
-0.00711838
-0.00689549
-0.00654689
-0.00607831
-0.00549844
-0.00481555
-0.00468471
-0.00513403
-0.00536235
-0.00549631
-0.00558064
-0.00560318
-0.0055362
-0.00536126
-0.00507389
-0.00467844
-0.00418195
-0.00359126
-0.00318215
-0.00360261
-0.00383043
-0.0039736
-0.00407094
-0.00411245
-0.00407428
-0.00394004
-0.00370522
-0.003373
-0.00294907
-0.00243896
-0.00180715
-0.00220035
-0.00242613
-0.00257602
-0.00268346
-0.00274025
-0.00272595
-0.00262607
-0.00243618
-0.0021585
-0.00179752
-0.00135772
-0.000551339
-0.000918848
-0.00114134
-0.00129585
-0.00141089
-0.00147978
-0.00148507
-0.00141404
-0.0012624
-0.00103159
-0.000725097
-0.000346473
0.000592916
0.000249548
3.1335e-05
-0.000125999
-0.000246539
-0.00032481
-0.000346012
-0.000299047
-0.00017983
1.08431e-05
0.000270324
0.000595869
0.00163256
0.00131179
0.00109861
0.000939937
0.000815677
0.000730315
0.000696339
0.000723369
0.000815245
0.000971677
0.00119074
0.00147036
0.00257388
0.00227416
0.00206655
0.00190775
0.00178124
0.0016907
0.00164662
0.00165726
0.00172621
0.00185355
0.00203798
0.002278
0.00342248
0.00314227
0.00294058
0.00278261
0.00265503
0.00256091
0.00250896
0.00250626
0.00255608
0.00265885
0.00281373
0.00301971
0.00418336
0.00392111
0.0037255
0.00356909
0.00344138
0.00334495
0.00328701
0.00327354
0.00330753
0.00338964
0.00351946
0.00369639
0.00486086
0.00461499
0.00442546
0.00427114
0.00414401
0.00404629
0.00398388
0.00396183
0.00398283
0.00404769
0.00415638
0.00430863
0.00545868
0.00522761
0.00504399
0.00489209
0.00476605
0.00466781
0.00460219
0.00457337
0.00458378
0.00463438
0.00472538
0.00485681
0.00597983
0.00576193
0.00558393
0.00543461
0.00530998
0.00521179
0.00514393
0.00510987
0.00511176
0.00515065
0.005227
0.00534105
0.00642665
0.00622027
0.00604743
0.00590069
0.00577764
0.00567987
0.00561052
0.00557246
0.00556759
0.00559702
0.00566138
0.00576112
0.00680067
0.00660411
0.00643586
0.00629156
0.00617009
0.00607295
0.00600269
0.00596163
0.0059515
0.00597343
0.00602819
0.00611638
0.00710265
0.00691413
0.00674979
0.00660764
0.00648762
0.00639119
0.00632039
0.00627718
0.00626307
0.00627923
0.00632653
0.00640569
0.00733239
0.00715005
0.0069888
0.00684841
0.0067296
0.00663382
0.00656275
0.00651804
0.00650108
0.00651302
0.00655483
0.0066273
0.00748851
0.00731046
0.00715137
0.00701224
0.00689431
0.00679902
0.00672784
0.00668219
0.00666336
0.00667253
0.00671069
0.0067787
0.00756878
0.00739283
0.00723487
0.0070964
0.00697893
0.0068839
0.00681267
0.00676655
0.00674679
0.00675456
0.00679088
0.00685663
-0.355782
-0.359401
-0.363225
-0.367341
-0.37187
-0.376991
-0.38296
-0.390205
-0.398879
-0.411557
-0.342229
-0.346782
-0.35157
-0.356629
-0.361983
-0.367655
-0.373607
-0.379956
-0.385968
-0.394792
-0.324068
-0.3284
-0.332833
-0.337379
-0.342053
-0.346894
-0.35191
-0.357352
-0.362696
-0.370436
-0.305257
-0.309504
-0.313861
-0.318347
-0.322982
-0.327798
-0.332777
-0.338057
-0.343207
-0.349663
-0.287071
-0.291234
-0.295481
-0.299821
-0.304256
-0.308798
-0.313431
-0.318241
-0.323013
-0.328524
-0.269023
-0.272996
-0.277036
-0.281151
-0.285347
-0.289637
-0.294018
-0.298536
-0.303099
-0.308019
-0.251544
-0.255331
-0.259181
-0.263098
-0.267088
-0.271155
-0.275301
-0.279541
-0.283854
-0.288315
-0.234758
-0.238343
-0.241982
-0.24568
-0.24944
-0.253266
-0.257163
-0.261135
-0.265193
-0.269302
-0.218684
-0.222055
-0.225476
-0.22895
-0.23248
-0.236069
-0.239722
-0.243439
-0.24724
-0.251049
-0.203377
-0.206531
-0.209731
-0.212978
-0.216276
-0.219627
-0.223035
-0.226499
-0.23004
-0.233573
-0.188849
-0.191786
-0.194763
-0.197783
-0.200849
-0.203963
-0.207129
-0.210344
-0.213629
-0.2169
-0.175105
-0.177827
-0.180585
-0.183382
-0.18622
-0.189101
-0.192028
-0.195
-0.198033
-0.20105
-0.162138
-0.164651
-0.167196
-0.169776
-0.172393
-0.175047
-0.177743
-0.180478
-0.183267
-0.186039
-0.149933
-0.152245
-0.154586
-0.156957
-0.159361
-0.161799
-0.164273
-0.166781
-0.169337
-0.171876
-0.138469
-0.14059
-0.142737
-0.14491
-0.147112
-0.149344
-0.151607
-0.153901
-0.156237
-0.158554
-0.127719
-0.12966
-0.131624
-0.133611
-0.135624
-0.137662
-0.139727
-0.14182
-0.143948
-0.146058
-0.117654
-0.119427
-0.12122
-0.123033
-0.124868
-0.126725
-0.128606
-0.130511
-0.132446
-0.134363
-0.108242
-0.109858
-0.111492
-0.113143
-0.114813
-0.116502
-0.118213
-0.119943
-0.1217
-0.123438
-0.0994489
-0.10092
-0.102407
-0.103908
-0.105426
-0.10696
-0.108513
-0.110082
-0.111675
-0.113249
-0.091242
-0.09258
-0.0939305
-0.0952942
-0.0966718
-0.0980638
-0.099471
-0.100893
-0.102335
-0.103759
-0.0835879
-0.0848031
-0.086029
-0.0872662
-0.0885152
-0.0897765
-0.0910508
-0.0923379
-0.0936413
-0.0949281
-0.0775567
-0.0786685
-0.0797899
-0.0809214
-0.0820633
-0.0832162
-0.08438
-0.0855577
-0.0867195
-0.0708088
-0.0718163
-0.0728319
-0.073856
-0.074889
-0.0759313
-0.0769828
-0.078046
-0.0790942
-0.0645284
-0.0654408
-0.0663601
-0.0672865
-0.0682203
-0.069162
-0.0701114
-0.0710707
-0.0720157
-0.058686
-0.0595119
-0.0603435
-0.0611811
-0.0620249
-0.0628752
-0.0637319
-0.064597
-0.0654485
-0.0532535
-0.0540007
-0.0547527
-0.0555096
-0.0562717
-0.0570392
-0.0578121
-0.0585918
-0.059359
-0.0482042
-0.04888
-0.0495598
-0.0502436
-0.0509316
-0.0516242
-0.0523211
-0.0530237
-0.0537145
-0.0435129
-0.044124
-0.0447383
-0.0453559
-0.0459769
-0.0466016
-0.0472299
-0.0478628
-0.0484848
-0.039156
-0.0397085
-0.0402635
-0.0408211
-0.0413816
-0.0419449
-0.0425112
-0.0430813
-0.0436412
-0.0351112
-0.0356106
-0.0361119
-0.0366154
-0.037121
-0.037629
-0.0381394
-0.0386527
-0.0391567
-0.0313577
-0.031809
-0.0322618
-0.0327163
-0.0331725
-0.0336305
-0.0340903
-0.0345526
-0.0350062
-0.027876
-0.0282837
-0.0286927
-0.0291029
-0.0295144
-0.0299274
-0.0303417
-0.0307578
-0.0311661
-0.0246477
-0.0250162
-0.0253855
-0.0257557
-0.0261269
-0.0264992
-0.0268724
-0.0272471
-0.0276145
-0.021656
-0.0219889
-0.0223224
-0.0226565
-0.0229913
-0.0233268
-0.0236631
-0.0240004
-0.024331
-0.0188848
-0.0191855
-0.0194867
-0.0197882
-0.0200901
-0.0203926
-0.0206955
-0.0209991
-0.0212967
-0.0163193
-0.0165911
-0.016863
-0.017135
-0.0174074
-0.0176799
-0.0179528
-0.0182261
-0.0184939
-0.0139459
-0.0141914
-0.0144369
-0.0146824
-0.0149279
-0.0151736
-0.0154194
-0.0156653
-0.0159064
-0.0117516
-0.0119734
-0.012195
-0.0124165
-0.012638
-0.0128594
-0.0130807
-0.013302
-0.013519
-0.00972455
-0.00992486
-0.010125
-0.0103248
-0.0105245
-0.010724
-0.0109233
-0.0111226
-0.0113178
-0.00785364
-0.00803459
-0.00821522
-0.00839556
-0.00857561
-0.00875539
-0.00893489
-0.00911415
-0.00928992
-0.00612859
-0.00629204
-0.00645512
-0.00661782
-0.00678017
-0.00694215
-0.0071038
-0.0072651
-0.0074233
-0.00453986
-0.00468751
-0.00483473
-0.00498153
-0.0051279
-0.00527386
-0.00541942
-0.00556456
-0.00570696
-0.0030786
-0.00321199
-0.00334491
-0.00347735
-0.00360934
-0.00374086
-0.00387193
-0.00400252
-0.0041307
-0.00173664
-0.00185716
-0.00197717
-0.00209669
-0.0022157
-0.00233422
-0.00245225
-0.00256977
-0.00268515
-0.00050642
-0.000615335
-0.000723725
-0.000831589
-0.00093893
-0.00104575
-0.00115205
-0.00125781
-0.00136169
0.000619007
0.000520543
0.000422622
0.000325241
0.0002284
0.000132099
3.63346e-05
-5.88662e-05
-0.000152417
0.00164603
0.00155696
0.00146845
0.00138049
0.00129308
0.00120623
0.00111992
0.00103418
0.000949898
0.00258047
0.00249984
0.00241978
0.00234027
0.00226131
0.00218291
0.00210507
0.00202781
0.00195183
0.00342762
0.00335456
0.00328205
0.0032101
0.0031387
0.00306787
0.00299759
0.0029279
0.00285933
0.00419225
0.00412593
0.00406016
0.00399495
0.00393029
0.0038662
0.00380266
0.00373969
0.00367774
0.0048786
0.00481827
0.00475849
0.00469926
0.00464058
0.00458245
0.00452488
0.00446788
0.00441178
0.00543531
0.0053808
0.00532685
0.00527344
0.00522058
0.00516827
0.00511652
0.00506558
0.00598027
0.00593039
0.00588105
0.00583224
0.00578398
0.00573626
0.00568909
0.00564266
0.00645573
0.00640985
0.00636449
0.00631967
0.00627538
0.00623162
0.0061884
0.00614586
0.00686376
0.00682127
0.0067793
0.00673785
0.00669693
0.00665653
0.00661667
0.00657742
0.00720561
0.00716593
0.00712677
0.00708812
0.00704999
0.00701237
0.00697528
0.00693876
0.00748192
0.00744449
0.00740756
0.00737114
0.00733523
0.00729982
0.00726493
0.00723058
0.0076925
0.00765674
0.00762148
0.00758672
0.00755245
0.00751868
0.00748542
0.00745267
0.0078358
0.00780116
0.007767
0.00773333
0.00770015
0.00766746
0.00763527
0.00760357
0.00791065
0.00787648
0.00784278
0.00780955
0.0077768
0.00774453
0.00771274
0.00768144
0.0143758
0.0143191
0.0142629