/*--------------------------------*- C++ -*----------------------------------*\
  =========                 |
  \\      /  F ield         | OpenFOAM: The Open Source CFD Toolbox
   \\    /   O peration     | Website:  https://openfoam.org
    \\  /    A nd           | Version:  7
     \\/     M anipulation  |
\*---------------------------------------------------------------------------*/
FoamFile
{
    version     2.0;
    format      ascii;
    class       volVectorField;
    location    "140";
    object      U;
}
// * * * * * * * * * * * * * * * * * * * * * * * * * * * * * * * * * * * * * //

dimensions      [0 1 -1 0 0 0 0];

internalField   nonuniform List<vector> 
4575
(
(0.0353921 -0.00650986 2.37858e-20)
(0.126505 -0.0159414 2.39749e-20)
(0.238761 -0.0159296 8.83799e-20)
(0.0393485 -0.00652508 2.78077e-20)
(0.137973 -0.0152433 9.77925e-20)
(0.257284 -0.0136948 7.60496e-20)
(0.39313 -0.00477058 2.09741e-20)
(0.540204 0.0108464 1.92268e-19)
(0.0434809 -0.00641899 -1.25919e-19)
(0.149825 -0.0141879 -4.39568e-20)
(0.276245 -0.0108937 -1.41032e-19)
(0.418232 0.000222796 -7.61478e-20)
(0.569989 0.0182067 -3.8824e-20)
(0.724228 0.0414187 -1.19668e-19)
(0.872964 0.067645 -7.3552e-20)
(1.00866 0.0944733 1.29576e-19)
(0.047781 -0.00618116 4.13962e-20)
(0.162031 -0.0127522 -6.63747e-20)
(0.295582 -0.00750081 1.1029e-19)
(0.44357 0.00596547 5.07595e-20)
(0.59971 0.0263995 -7.13413e-20)
(0.756285 0.0518561 8.60904e-20)
(0.905101 0.0798535 2.11641e-20)
(1.03872 0.107808 -3.75009e-20)
(1.15164 0.133394 4.42393e-20)
(1.24097 0.154879 -3.39174e-20)
(1.30659 0.171303 -9.41165e-20)
(1.35062 0.182468 -9.09674e-21)
(0.0522395 -0.0058015 -2.05622e-20)
(0.174554 -0.010915 1.07312e-20)
(0.315233 -0.00349373 -1.00133e-19)
(0.46905 0.0124721 6.3237e-20)
(0.629247 0.0354246 5.80888e-20)
(0.787725 0.0631057 -8.13287e-20)
(0.936153 0.0927757 3.67289e-20)
(1.06729 0.121706 -7.02468e-20)
(1.17613 0.14756 -9.8255e-20)
(1.26049 0.168713 3.49016e-20)
(1.32092 0.184386 6.3042e-21)
(1.36013 0.194577 5.26927e-20)
(1.38205 0.19986 8.09492e-20)
(1.39098 0.201131 -3.8485e-21)
(1.39091 0.199372 1.35192e-20)
(0.0568455 -0.00527034 -2.28828e-20)
(0.187358 -0.0086565 -2.75632e-20)
(0.335131 0.0011467 1.05707e-19)
(0.494577 0.0197527 -1.29861e-20)
(0.658485 0.0452766 6.21694e-22)
(0.818427 0.0751447 -5.49632e-20)
(0.966018 0.106374 -9.6355e-21)
(1.0943 0.136121 3.76816e-20)
(1.19884 0.162073 1.26485e-19)
(1.27816 0.182745 -3.99267e-20)
(1.3335 0.197555 6.72323e-21)
(1.36811 0.206702 2.10721e-20)
(1.38622 0.210924 -4.04669e-20)
(1.39224 0.211225 -2.57247e-20)
(1.3901 0.20864 6.75479e-21)
(1.38294 0.204084 3.35279e-20)
(1.37301 0.198277 -8.28485e-21)
(1.36175 0.191756 -5.06172e-22)
(1.34997 0.184853 2.92662e-20)
(0.0615866 -0.0045786 3.98321e-20)
(0.200403 -0.00595924 7.68363e-20)
(0.355204 0.00643606 5.19591e-20)
(0.520051 0.0278123 -2.80459e-20)
(0.687308 0.0559449 1.02078e-19)
(0.848278 0.0879459 5.936e-20)
(0.994605 0.120609 -8.74199e-20)
(1.1197 0.151008 -2.99738e-20)
(1.21976 0.176892 4.14883e-22)
(1.29402 0.196941 -2.41424e-20)
(1.34442 0.210786 -6.86956e-20)
(1.37464 0.218828 1.12419e-20)
(1.38922 0.221964 1.16348e-22)
(1.39259 0.221291 -6.89859e-20)
(1.38862 0.217885 3.12141e-20)
(1.38029 0.212663 -1.66095e-20)
(1.36965 0.206322 -7.26148e-20)
(1.35801 0.199368 3.47849e-20)
(1.34604 0.192083 -7.30747e-20)
(1.33398 0.184466 3.15901e-20)
(0.0664492 -0.00371781 -1.39882e-20)
(0.213645 -0.00280785 -3.30527e-20)
(0.375379 0.0123861 -5.41296e-20)
(0.545376 0.0366514 -2.56726e-21)
(0.715607 0.0674137 -4.95612e-21)
(0.877174 0.101478 -5.59558e-20)
(1.02184 0.135438 1.2746e-20)
(1.14345 0.166322 1.17169e-20)
(1.23889 0.191975 -2.38437e-20)
(1.30813 0.211268 1.9173e-21)
(1.35373 0.224055 3.6161e-20)
(1.37982 0.230943 -4.70273e-21)
(1.39113 0.232972 2.67866e-20)
(1.39211 0.231325 1.18218e-20)
(1.38653 0.227108 -6.43195e-20)
(1.37718 0.221228 4.84297e-21)
(1.36596 0.214357 3.84804e-20)
(1.35401 0.20697 -9.11652e-21)
(1.34189 0.1993 1.67122e-21)
(1.32979 0.191445 -6.16192e-21)
(0.0714184 -0.00268032 -1.27686e-20)
(0.227038 0.000810567 -1.16882e-20)
(0.395582 0.0190048 -2.03773e-20)
(0.570453 0.0462652 -1.31876e-20)
(0.743274 0.0796621 -3.39111e-20)
(0.905016 0.115704 3.85962e-20)
(1.04764 0.150817 7.51323e-20)
(1.16553 0.182017 2.57656e-20)
(1.25626 0.20728 1.29845e-20)
(1.32054 0.225694 -3.04553e-20)
(1.36153 0.237344 -3.19406e-22)
(1.38373 0.243034 1.92057e-20)
(1.39203 0.243944 -2.43444e-20)
(1.39087 0.241327 9.22761e-21)
(1.38386 0.236307 3.05825e-20)
(1.37364 0.229776 -1.04859e-20)
(1.36194 0.222378 -1.838e-20)
(1.34975 0.214556 -1.6888e-20)
(1.33754 0.206498 5.97275e-20)
(1.32541 0.198396 2.09061e-20)
(0.0764783 -0.00145928 -2.26818e-20)
(0.240535 0.00490629 2.57684e-20)
(0.415735 0.0262957 -5.75676e-21)
(0.595185 0.0566441 1.78745e-20)
(0.770206 0.0926649 -1.57703e-20)
(0.931715 0.130587 -9.46917e-21)
(1.07196 0.166699 -3.64362e-20)
(1.18591 0.198047 4.17244e-21)
(1.27188 0.22277 9.96924e-21)
(1.3313 0.24019 2.20739e-20)
(1.36787 0.250631 -8.49525e-21)
(1.38644 0.255091 -6.55201e-21)
(1.39198 0.254874 5.96781e-21)
(1.3889 0.251292 -1.03746e-20)
(1.38066 0.245478 2.33336e-20)
(1.3697 0.238304 1.53447e-20)
(1.35761 0.230382 -2.60905e-21)
(1.34525 0.222121 -1.69553e-21)
(1.33298 0.213672 -1.60995e-20)
(1.32084 0.205313 -2.01182e-20)
(0.0816118 -4.88218e-05 4.88037e-21)
(0.254086 0.00948682 -8.0312e-21)
(0.435762 0.0342586 5.40142e-21)
(0.619477 0.0677739 -7.28923e-21)
(0.796307 0.106392 -2.74548e-20)
(0.957194 0.146085 1.24915e-20)
(1.09475 0.183038 6.01294e-21)
(1.20459 0.214366 -2.79591e-20)
(1.28578 0.238406 -1.73405e-20)
(1.34046 0.254728 -1.63033e-21)
(1.37283 0.2639 -2.34483e-20)
(1.38802 0.267104 2.39035e-20)
(1.39106 0.265756 -3.85377e-23)
(1.38627 0.261216 -3.10653e-21)
(1.37695 0.254617 -5.90888e-21)
(1.36539 0.246806 2.87327e-21)
(1.35299 0.238362 1.9754e-21)
(1.3405 0.22966 -7.85458e-22)
(1.3282 0.220816 -5.91948e-21)
(1.31608 0.212192 7.21295e-21)
(0.0868008 0.0015559 1.62404e-21)
(0.26764 0.0145568 5.28332e-21)
(0.455585 0.0428887 2.89494e-21)
(0.643237 0.0796355 -1.32184e-21)
(0.821486 0.12081 1.81063e-20)
(0.981379 0.162152 -3.97374e-21)
(1.11597 0.199785 6.20518e-21)
(1.22157 0.230931 1.34871e-20)
(1.29801 0.254151 -2.39252e-21)
(1.34809 0.269282 5.86621e-22)
(1.37648 0.277133 6.43295e-21)
(1.38853 0.279061 -3.38633e-21)
(1.38931 0.276583 4.35103e-21)
(1.38301 0.271094 7.73435e-22)
(1.37277 0.26372 -8.0553e-21)
(1.3607 0.255278 3.85224e-22)
(1.34807 0.246313 1.02604e-20)
(1.3355 0.237165 -2.13153e-21)
(1.32321 0.227922 3.1228e-21)
(1.31112 0.219024 -3.50047e-21)
(0.0920269 0.00335866 6.61774e-22)
(0.281146 0.0201178 7.76689e-21)
(0.475129 0.0521772 4.12681e-21)
(0.666377 0.0922054 -8.22131e-22)
(0.84566 0.135881 1.66497e-20)
(1.00421 0.178743 -4.61615e-21)
(1.1356 0.216892 8.49521e-21)
(1.23686 0.247698 1.12254e-20)
(1.30859 0.269971 -2.28081e-21)
(1.35424 0.283828 5.04245e-22)
(1.37889 0.290314 7.28942e-21)
(1.38805 0.290952 -2.89924e-21)
(1.38678 0.287348 2.84252e-21)
(1.37915 0.280921 -6.95137e-22)
(1.36813 0.272781 -6.57905e-21)
(1.35566 0.263712 -1.9197e-22)
(1.34286 0.254226 1.02032e-20)
(1.33026 0.244629 -1.99103e-21)
(1.31801 0.234982 3.69906e-21)
(1.30597 0.225802 -3.96488e-21)
(0.0972706 0.0053621 5.78053e-21)
(0.294552 0.0261685 -9.96909e-21)
(0.494317 0.0621113 4.97788e-21)
(0.688812 0.105456 -3.94214e-21)
(0.86875 0.151565 -2.63501e-20)
(1.02563 0.195808 1.05092e-20)
(1.15361 0.234309 4.70847e-21)
(1.25047 0.264622 -3.16569e-20)
(1.31758 0.285832 -1.30681e-20)
(1.35898 0.29834 -1.00428e-23)
(1.38011 0.303426 -1.9632e-20)
(1.38662 0.302768 1.61936e-20)
(1.38352 0.298044 -3.60661e-21)
(1.37474 0.290689 2.23634e-21)
(1.36307 0.281792 -8.66355e-21)
(1.35028 0.272101 6.50014e-21)
(1.33736 0.262093 4.1404e-21)
(1.32477 0.252042 -7.10125e-22)
(1.31258 0.241989 -7.99111e-21)
(1.30062 0.232519 7.29291e-21)
(0.102512 0.00756763 -1.24693e-20)
(0.307805 0.0327044 -5.35145e-21)
(0.513076 0.0726738 -7.6777e-21)
(0.710459 0.119355 2.57914e-20)
(0.890687 0.167816 1.33227e-22)
(1.0456 0.213297 -1.31889e-20)
(1.16999 0.251988 -5.27625e-20)
(1.26243 0.281661 5.06671e-21)
(1.32502 0.3017 5.76242e-21)
(1.36236 0.312796 2.52025e-20)
(1.38021 0.316455 3.70596e-21)
(1.3843 0.314496 -2.07074e-20)
(1.37957 0.308662 1.92432e-20)
(1.36979 0.300391 -7.66861e-21)
(1.35758 0.290745 2.87251e-20)
(1.34455 0.280435 -2.5601e-21)
(1.33158 0.269905 1.47878e-21)
(1.31903 0.259397 1.2473e-21)
(1.30694 0.248933 -2.13866e-20)
(1.29507 0.239166 -1.28746e-20)
(0.10773 0.00997541 -4.67962e-21)
(0.320854 0.0397178 -2.56882e-20)
(0.531333 0.0838436 1.99044e-20)
(0.731244 0.133867 -2.47754e-20)
(0.911407 0.184588 -4.36434e-20)
(1.06408 0.231159 3.73883e-20)
(1.18474 0.269879 6.04039e-20)
(1.27276 0.298775 2.12142e-20)
(1.33095 0.317545 1.44732e-20)
(1.36444 0.327172 -4.08969e-20)
(1.37923 0.329383 3.08316e-20)
(1.38113 0.326126 3.54617e-21)
(1.37496 0.319192 -3.80327e-20)
(1.36434 0.310017 1.46143e-20)
(1.35169 0.29963 5.16482e-20)
(1.33849 0.288705 -3.50524e-20)
(1.32552 0.277652 -9.95195e-21)
(1.31304 0.266683 -9.53823e-21)
(1.30107 0.255804 4.35792e-20)
(1.28932 0.245734 2.49055e-20)
(0.112905 0.0125843 3.25753e-20)
(0.333645 0.0471982 -5.19544e-20)
(0.54902 0.0955959 -7.42233e-20)
(0.751095 0.148952 3.285e-21)
(0.930854 0.201831 -1.2793e-20)
(1.08104 0.249341 -5.12858e-20)
(1.19786 0.287933 -8.53119e-21)
(1.28148 0.315921 2.53126e-20)
(1.33543 0.333334 -4.0091e-20)
(1.36526 0.341447 3.22671e-20)
(1.37724 0.342196 3.69585e-20)
(1.37715 0.337646 -2.29116e-20)
(1.36972 0.329625 9.20751e-21)
(1.35839 0.319558 4.63657e-20)
(1.3454 0.308438 -6.11379e-20)
(1.3321 0.296901 1.06606e-20)
(1.31917 0.285324 2.87014e-20)
(1.30681 0.27389 -8.61161e-21)
(1.29498 0.262593 -8.95125e-21)
(1.28336 0.252215 -1.48978e-21)
(0.118015 0.015392 4.78636e-20)
(0.346129 0.0551318 8.368e-20)
(0.56607 0.107902 4.36233e-20)
(0.769947 0.164569 -5.0772e-20)
(0.948978 0.219495 1.29915e-19)
(1.09645 0.26779 1.96089e-20)
(1.20935 0.306102 -5.31392e-20)
(1.28864 0.333061 -3.76113e-20)
(1.33849 0.349037 -2.96281e-20)
(1.36489 0.355598 9.64065e-21)
(1.37427 0.354878 -3.23221e-20)
(1.37241 0.349043 1.09832e-21)
(1.36389 0.339949 -2.13885e-20)
(1.35196 0.329002 -2.88353e-20)
(1.33873 0.317157 -4.87134e-21)
(1.32539 0.30501 -3.02978e-21)
(1.31253 0.292909 -5.30716e-20)
(1.30031 0.281008 3.98444e-20)
(1.28866 0.269289 -6.00079e-20)
(1.2772 0.258599 -3.50905e-20)
(0.12304 0.0183947 -5.80111e-20)
(0.358257 0.063502 -2.24405e-20)
(0.58242 0.120731 9.77656e-20)
(0.78774 0.180672 2.44059e-20)
(0.965739 0.237526 -8.16846e-20)
(1.11031 0.286453 -4.64266e-20)
(1.21924 0.324337 -1.51466e-20)
(1.29426 0.350154 9.62668e-20)
(1.34018 0.364625 6.76755e-20)
(1.36337 0.369604 -2.2911e-20)
(1.37038 0.367412 -1.31815e-20)
(1.36694 0.360303 3.25021e-20)
(1.35748 0.350153 -3.52297e-20)
(1.34507 0.338338 1.60784e-20)
(1.33167 0.325776 7.0389e-21)
(1.31835 0.313022 -8.61087e-21)
(1.30561 0.300396 6.48726e-20)
(1.29357 0.288025 -2.71279e-20)
(1.28211 0.27588 5.43343e-20)
(1.27083 0.264877 -1.94102e-20)
(0.12796 0.0215876 -3.24929e-20)
(0.369981 0.0722895 -5.64562e-20)
(0.598011 0.134046 -8.78127e-20)
(0.80442 0.197212 5.18987e-20)
(0.981099 0.255869 2.78689e-20)
(1.12261 0.305274 -3.90044e-20)
(1.22753 0.34259 6.37461e-20)
(1.29839 0.367162 -9.65881e-20)
(1.34057 0.380069 -1.01056e-19)
(1.36076 0.383444 6.00145e-20)
(1.3656 0.379781 2.21509e-20)
(1.36076 0.371414 -2.42985e-20)
(1.35051 0.360222 3.61876e-20)
(1.33774 0.347553 2.82516e-20)
(1.32424 0.334281 -2.05416e-20)
(1.31099 0.320924 -7.00475e-21)
(1.29841 0.307773 -4.96895e-20)
(1.28656 0.294931 1.02518e-20)
(1.27532 0.282355 -4.19058e-20)
(1.26425 0.271037 -7.00579e-21)
(0.132755 0.0249645 2.70336e-20)
(0.381254 0.081472 -4.41817e-20)
(0.612789 0.14781 7.91425e-20)
(0.819939 0.21414 1.31162e-19)
(0.995032 0.27447 -1.84889e-19)
(1.13333 0.3242 1.59645e-19)
(1.23425 0.360816 4.20594e-20)
(1.30106 0.384048 -5.99064e-20)
(1.33968 0.395339 6.97149e-20)
(1.35708 0.397095 4.06627e-20)
(1.35998 0.39197 4.97721e-20)
(1.35392 0.382361 -8.49984e-20)
(1.34301 0.370145 -1.7519e-20)
(1.32997 0.356635 4.10878e-20)
(1.31644 0.342661 1.54418e-20)
(1.30331 0.328703 7.11782e-20)
(1.29091 0.315028 8.86621e-20)
(1.2793 0.301712 -2.15791e-20)
(1.26831 0.2887 3.74882e-20)
(1.25747 0.277069 4.24149e-20)
(0.137405 0.0285179 -7.70811e-21)
(0.392034 0.091025 -1.02407e-19)
(0.626702 0.161982 -1.38149e-19)
(0.834253 0.231404 -1.76808e-19)
(1.00751 0.29327 -1.68149e-20)
(1.14249 0.343178 6.2356e-20)
(1.23943 0.378966 -1.17684e-20)
(1.30231 0.400774 2.02242e-20)
(1.33756 0.410408 -3.07707e-20)
(1.3524 0.410536 5.09203e-20)
(1.35354 0.40396 -7.65188e-20)
(1.34643 0.393128 9.87196e-20)
(1.33499 0.379906 5.60555e-20)
(1.32177 0.365568 2.55294e-20)
(1.30828 0.350901 -3.74427e-20)
(1.2953 0.336347 -3.9359e-20)
(1.28313 0.322149 -3.74638e-20)
(1.27177 0.308357 2.71515e-21)
(1.26106 0.2949 4.94213e-20)
(1.25047 0.282965 -5.17441e-20)
(0.14189 0.0322394 -1.38112e-20)
(0.402279 0.100922 7.99572e-20)
(0.639703 0.17652 9.84494e-20)
(0.847328 0.248949 -1.50412e-20)
(1.01853 0.312214 4.43278e-20)
(1.1501 0.362153 1.1657e-20)
(1.24308 0.396996 -6.20684e-20)
(1.30219 0.417305 4.83982e-20)
(1.33427 0.425248 4.46082e-20)
(1.34675 0.423746 -7.66312e-20)
(1.34633 0.415734 1.2171e-19)
(1.33832 0.403699 -1.0036e-19)
(1.32647 0.389491 5.72492e-20)
(1.31315 0.374339 -8.26674e-20)
(1.29976 0.358987 1.20649e-19)
(1.28698 0.343842 -7.58239e-20)
(1.27507 0.329124 -2.21386e-20)
(1.26399 0.314856 -2.95932e-20)
(1.25356 0.300947 -6.20968e-20)
(1.2432 0.288718 8.01324e-22)
(0.146193 0.0361193 9.97257e-20)
(0.41195 0.111132 9.97337e-20)
(0.651751 0.191377 -1.41101e-19)
(0.859131 0.26672 -8.41432e-20)
(1.02807 0.331243 1.22459e-19)
(1.15615 0.381073 -4.78933e-20)
(1.24526 0.414861 6.88061e-20)
(1.30073 0.433604 2.91391e-20)
(1.32984 0.439832 -6.68085e-20)
(1.34016 0.436703 -1.63572e-19)
(1.33837 0.427274 -2.86289e-20)
(1.32961 0.414059 -5.97404e-20)
(1.31746 0.398884 -8.76027e-20)
(1.30413 0.382933 7.00919e-21)
(1.29089 0.366905 -8.53766e-21)
(1.27834 0.351176 -8.73071e-21)
(1.26671 0.335943 6.92657e-20)
(1.25594 0.321203 4.97771e-20)
(1.24583 0.306854 5.0674e-21)
(1.23561 0.294319 2.89471e-20)
(0.150296 0.0401467 -2.40277e-20)
(0.421013 0.121626 1.76629e-19)
(0.662809 0.206506 6.74809e-20)
(0.869637 0.284662 1.34259e-19)
(1.03613 0.3503 4.27552e-20)
(1.16068 0.399885 1.58882e-20)
(1.24597 0.432516 -1.00399e-19)
(1.29797 0.449637 -3.19181e-20)
(1.32431 0.454131 1.53621e-20)
(1.33269 0.449385 1.21697e-19)
(1.32969 0.43856 -3.92622e-20)
(1.32032 0.42419 4.78855e-20)
(1.30797 0.408069 1.01113e-19)
(1.2947 0.391334 2.28059e-20)
(1.28166 0.37464 -1.95646e-20)
(1.2694 0.358333 2.64557e-20)
(1.25808 0.34259 5.04852e-20)
(1.24764 0.327385 2.34013e-20)
(1.23788 0.312651 5.8501e-20)
(1.22779 0.299754 4.5213e-20)
(0.154183 0.04431 -6.25639e-20)
(0.429433 0.132369 -9.06169e-20)
(0.672843 0.221859 5.63666e-20)
(0.878828 0.302716 1.85309e-20)
(1.0427 0.369327 3.63187e-20)
(1.1637 0.418537 -1.45436e-19)
(1.24527 0.449919 5.19533e-20)
(1.29397 0.46537 -1.10343e-19)
(1.31774 0.468121 -6.04559e-20)
(1.32435 0.461771 6.96308e-20)
(1.32032 0.449575 -7.23749e-21)
(1.31048 0.434076 4.53257e-21)
(1.29803 0.417029 -1.23357e-19)
(1.28488 0.399526 -4.94704e-20)
(1.27209 0.382177 4.11475e-20)
(1.26014 0.365299 -7.08316e-20)
(1.24916 0.349049 -3.77333e-20)
(1.2391 0.333376 -3.74551e-20)
(1.22968 0.318295 -6.61432e-20)
(1.21987 0.30505 -1.53957e-19)
(0.157838 0.0485966 3.65384e-20)
(0.437181 0.143328 -4.25476e-20)
(0.681825 0.237385 -2.28167e-19)
(0.886689 0.320825 1.20664e-19)
(1.04781 0.388268 -1.47561e-19)
(1.16524 0.436978 -2.05976e-20)
(1.24319 0.467027 -1.95894e-19)
(1.28876 0.480769 2.05637e-19)
(1.31015 0.481772 1.15767e-19)
(1.3152 0.473838 -6.63154e-21)
(1.3103 0.460299 4.06453e-20)
(1.3001 0.443697 -5.0748e-20)
(1.28763 0.425748 -4.16497e-21)
(1.27468 0.407493 2.29023e-20)
(1.26218 0.3895 -2.3804e-20)
(1.25057 0.372059 4.52003e-20)
(1.23997 0.355309 -6.03297e-20)
(1.2303 0.339177 -5.33213e-20)
(1.22124 0.32374 2.98259e-20)
(1.2118 0.310169 4.09516e-20)
(0.161246 0.0529928 8.32898e-20)
(0.44423 0.154466 7.88123e-20)
(0.689734 0.253033 5.97175e-20)
(0.893211 0.338932 -1.5941e-21)
(1.05144 0.407065 -3.8264e-20)
(1.16532 0.455157 2.54767e-19)
(1.23977 0.483799 1.4211e-19)
(1.28238 0.495801 9.50165e-20)
(1.3016 0.495061 1.33418e-19)
(1.30526 0.485565 1.65358e-20)
(1.29963 0.470713 -1.08907e-19)
(1.28919 0.453037 -1.20209e-20)
(1.2768 0.434209 -2.36421e-20)
(1.26409 0.415218 -7.62104e-20)
(1.25193 0.396594 -2.87687e-20)
(1.2407 0.378599 -3.95557e-20)
(1.2305 0.361355 1.23403e-19)
(1.22124 0.344775 -1.88519e-21)
(1.21258 0.328981 3.52842e-20)
(1.20353 0.315087 2.84889e-20)
(0.164394 0.0574843 -2.80373e-20)
(0.450558 0.165745 -4.57174e-20)
(0.696548 0.268752 -9.77413e-20)
(0.89839 0.356979 -1.61928e-20)
(1.05363 0.425663 -1.5693e-19)
(1.16398 0.473027 -1.10871e-19)
(1.23505 0.500195 3.61815e-20)
(1.27487 0.510434 -2.60311e-19)
(1.29211 0.50796 -1.39367e-19)
(1.29456 0.496929 3.35133e-20)
(1.28835 0.480797 -1.78722e-20)
(1.27779 0.462077 9.84195e-20)
(1.26554 0.442394 1.33719e-19)
(1.25314 0.422686 3.35548e-20)
(1.24136 0.403443 9.13213e-20)
(1.23054 0.384904 -4.81859e-20)
(1.22076 0.367174 6.70781e-20)
(1.21194 0.350156 3.71625e-20)
(1.20371 0.334007 3.27076e-20)
(1.19506 0.319798 -6.29009e-20)
(0.16727 0.0620563 4.19089e-20)
(0.456143 0.177128 -4.63217e-21)
(0.702256 0.284489 -1.5153e-19)
(0.902228 0.374908 -1.31394e-22)
(1.05438 0.444007 3.53297e-19)
(1.16124 0.490538 6.96396e-20)
(1.22906 0.516175 5.19448e-20)
(1.26629 0.524636 1.5122e-19)
(1.28173 0.520444 -1.20754e-19)
(1.28313 0.50791 -1.28607e-19)
(1.27649 0.490532 -1.9538e-21)
(1.26589 0.470799 -9.09324e-20)
(1.25388 0.450285 -5.01809e-20)
(1.24183 0.429879 1.34951e-19)
(1.23046 0.410032 -3.51108e-20)
(1.22008 0.39096 1.73711e-21)
(1.21075 0.372754 -4.84049e-20)
(1.2024 0.355305 -7.49411e-20)
(1.19462 0.338807 5.26509e-21)
(1.18639 0.324291 7.30946e-20)
(0.169863 0.066693 -2.01989e-19)
(0.460969 0.188575 1.1859e-19)
(0.706846 0.30019 2.60444e-19)
(0.904729 0.392661 8.05867e-20)
(1.05373 0.462042 -4.16486e-19)
(1.15714 0.507645 -1.69775e-19)
(1.22186 0.531701 -1.31426e-19)
(1.25667 0.538378 -4.73926e-20)
(1.27049 0.532488 1.59403e-19)
(1.27101 0.518485 1.66259e-20)
(1.26405 0.499898 -3.38853e-20)
(1.25353 0.479184 5.93626e-20)
(1.24181 0.457865 8.84479e-21)
(1.23017 0.436781 -1.6222e-19)
(1.21925 0.416345 4.96342e-20)
(1.20934 0.396752 6.59302e-20)
(1.20048 0.378079 3.24203e-20)
(1.19262 0.360209 4.33223e-20)
(1.18531 0.343372 -7.76943e-20)
(1.17753 0.328558 -3.87745e-20)
(0.172163 0.0713783 -1.39286e-20)
(0.465022 0.200047 5.98844e-20)
(0.710314 0.315804 2.9642e-20)
(0.905904 0.410183 8.61848e-20)
(1.05169 0.479716 2.32785e-19)
(1.15173 0.524301 -1.4995e-19)
(1.21348 0.546737 -9.4905e-21)
(1.24605 0.551629 1.41204e-19)
(1.25843 0.544067 -1.70538e-19)
(1.25823 0.528632 5.5087e-20)
(1.25108 0.508874 1.41962e-19)
(1.24072 0.487214 3.21363e-20)
(1.22936 0.465117 -7.11741e-20)
(1.21817 0.443375 1.18591e-19)
(1.20774 0.422367 -1.38922e-19)
(1.19831 0.402266 5.56346e-21)
(1.18995 0.383138 -3.2542e-20)
(1.1826 0.364858 5.97332e-20)
(1.1758 0.34769 5.24543e-20)
(0.174163 0.0760956 2.61875e-20)
(0.468292 0.211503 9.60794e-20)
(0.712659 0.331277 9.34967e-20)
(0.905767 0.427418 -5.82138e-20)
(1.0483 0.496977 5.21026e-21)
(1.14503 0.540463 1.39239e-19)
(1.20396 0.561245 2.44783e-19)
(1.23447 0.564359 -2.43386e-20)
(1.24559 0.555157 2.29631e-20)
(1.24481 0.538331 -6.96088e-20)
(1.23758 0.517443 -1.46475e-19)
(1.22747 0.49487 2.34844e-20)
(1.21653 0.472023 8.29397e-20)
(1.20584 0.449646 -1.67393e-20)
(1.19593 0.428083 -1.54614e-20)
(1.18702 0.407489 -5.62542e-20)
(1.17917 0.387918 -1.02207e-20)
(1.17235 0.369238 -2.18777e-20)
(0.175854 0.0808281 -9.07222e-20)
(0.470772 0.222902 -2.20337e-19)
(0.713884 0.346557 -3.2216e-19)
(0.904337 0.444311 5.83725e-21)
(1.04358 0.513775 -1.76815e-21)
(1.1371 0.556089 -1.27142e-19)
(1.19336 0.575192 6.84954e-20)
(1.22198 0.576541 -7.26027e-20)
(1.23201 0.565734 1.37885e-19)
(1.23078 0.547561 1.37659e-19)
(1.22359 0.525583 6.14903e-20)
(1.2138 0.502133 -1.62431e-20)
(1.20334 0.478566 2.37002e-20)
(1.1932 0.455577 -5.98666e-20)
(1.18383 0.433478 1.02338e-19)
(1.17546 0.412406 -4.71826e-20)
(0.177232 0.0855584 9.84762e-20)
(0.472458 0.234206 2.98107e-19)
(0.713996 0.361593 1.15763e-19)
(0.901634 0.460808 -2.23977e-20)
(1.03758 0.53006 -1.22954e-19)
(1.12797 0.571135 -2.63345e-20)
(1.18172 0.588543 -3.26569e-20)
(1.20863 0.588148 -1.02418e-20)
(1.21771 0.575774 -4.0375e-20)
(1.21618 0.556299 -1.3535e-19)
(1.20912 0.533276 -1.1199e-19)
(1.19974 0.508987 7.99972e-20)
(1.18981 0.484729 -1.1502e-19)
(1.18025 0.461152 -6.4876e-21)
(1.17146 0.438538 3.1146e-20)
(0.178293 0.0902693 9.66336e-21)
(0.473349 0.245372 1.94742e-20)
(0.713005 0.376334 2.66692e-19)
(0.897684 0.476859 -1.47981e-19)
(1.03033 0.545787 3.45202e-19)
(1.11769 0.585565 1.54773e-19)
(1.16908 0.601267 -2.07584e-19)
(1.19444 0.599152 -1.90446e-20)
(1.20274 0.585256 -1.65325e-19)
(1.20103 0.564528 -4.07875e-20)
(1.1942 0.540503 4.37255e-20)
(1.18529 0.515413 6.20622e-20)
(1.17595 0.490496 1.1829e-19)
(1.167 0.466357 1.40042e-20)
(0.179032 0.0949432 7.92141e-20)
(0.473448 0.256363 -3.59064e-19)
(0.710927 0.390731 -7.88458e-20)
(0.892517 0.492412 -5.89226e-20)
(1.02187 0.560909 -2.17096e-19)
(1.10631 0.599338 -2.10986e-19)
(1.15549 0.613334 -6.56206e-20)
(1.17946 0.609527 -8.32251e-20)
(1.18712 0.594157 2.33422e-19)
(1.18536 0.572225 8.10588e-21)
(1.17886 0.547246 -1.49829e-19)
(1.17048 0.521393 -2.07683e-19)
(1.16177 0.495849 9.81701e-20)
(0.179449 0.0995631 6.39696e-21)
(0.472758 0.267137 5.30147e-20)
(0.707779 0.404733 -1.61475e-19)
(0.886163 0.507418 9.35751e-20)
(1.01224 0.575383 1.03346e-20)
(1.09387 0.612419 2.6506e-19)
(1.141 0.624712 1.02753e-19)
(1.16374 0.619252 1.62514e-19)
(1.17091 0.602455 -1.05979e-19)
(1.16919 0.579372 1.91243e-19)
(1.1631 0.553486 1.25439e-19)
(1.15532 0.526911 2.59265e-20)
(0.179544 0.104112 -1.61286e-19)
(0.471289 0.277658 3.6654e-19)
(0.703582 0.418295 1.90684e-19)
(0.878657 0.52183 6.93036e-20)
(1.00149 0.589167 -3.65494e-20)
(1.08042 0.624775 -2.20941e-19)
(1.12563 0.635372 3.20675e-20)
(1.14731 0.6283 -2.96893e-20)
(1.15412 0.61013 -1.11997e-19)
(1.15257 0.585951 -1.33746e-19)
(1.14696 0.559206 7.33023e-20)
(0.179318 0.108573 -3.49546e-20)
(0.46905 0.287887 -9.6427e-20)
(0.698359 0.431371 -2.19392e-19)
(0.870037 0.535602 -1.12211e-19)
(0.989664 0.602222 -1.30334e-19)
(1.066 0.636372 1.13928e-19)
(1.10946 0.645292 -4.59343e-20)
(1.13022 0.636648 2.87499e-20)
(1.1368 0.617163 -1.85669e-20)
(1.13551 0.591943 -6.43266e-20)
(0.178773 0.112932 3.28763e-19)
(0.466053 0.297789 1.19043e-20)
(0.69214 0.443914 -9.74064e-20)
(0.860347 0.548691 9.15174e-20)
(0.976807 0.61451 -1.56393e-20)
(1.05066 0.647177 -4.20147e-20)
(1.09253 0.654442 -9.95912e-20)
(1.11251 0.644277 1.37287e-20)
(1.11898 0.623534 1.20014e-19)
(0.177913 0.117172 -7.34708e-20)
(0.462313 0.307328 8.21444e-20)
(0.684957 0.455884 2.16704e-20)
(0.849635 0.561063 1.95962e-19)
(0.962951 0.625988 -2.70687e-20)
(1.03446 0.657163 -1.24575e-19)
(1.07487 0.662799 2.2301e-19)
(1.09422 0.651165 7.57444e-21)
(0.17674 0.121279 -3.09674e-19)
(0.45785 0.316469 -7.9039e-21)
(0.676845 0.467232 1.8673e-19)
(0.837924 0.572675 -2.07196e-20)
(0.948159 0.636637 2.85881e-19)
(1.01746 0.666296 -6.01187e-22)
(1.05655 0.67034 -2.40334e-19)
(0.17526 0.125238 1.85804e-19)
(0.452684 0.32518 -1.46319e-19)
(0.667838 0.477929 -2.21091e-19)
(0.825249 0.583475 -3.44412e-20)
(0.932496 0.646421 -1.90679e-19)
(0.999692 0.674557 8.49125e-20)
(0.17348 0.129034 -7.31397e-20)
(0.446836 0.333423 9.57051e-20)
(0.657963 0.487937 -2.93917e-20)
(0.811678 0.593444 -3.6059e-20)
(0.916009 0.655303 7.03155e-21)
(0.1714 0.132648 -1.18881e-19)
(0.440332 0.341174 -1.14777e-19)
(0.647257 0.497209 2.46649e-19)
(0.797269 0.602551 7.17285e-20)
(0.898749 0.66326 1.79643e-20)
(0.169019 0.136049 1.47569e-19)
(0.433217 0.34841 2.24439e-19)
(0.635773 0.505723 -5.63551e-20)
(0.782066 0.610758 -5.58654e-20)
(0.166367 0.139208 -1.02699e-19)
(0.425518 0.355084 -1.78385e-19)
(0.623548 0.513455 -8.36043e-20)
(0.163475 0.142138 1.0525e-19)
(0.417246 0.361162 1.87104e-19)
(0.610623 0.520372 7.98607e-20)
(0.160344 0.144834 -5.54553e-20)
(0.408429 0.366629 3.48304e-21)
(0.156978 0.147283 5.51231e-20)
(0.153385 0.149472 1.53193e-20)
(0.144809 -0.141347 -3.92009e-20)
(0.148015 -0.139117 6.90537e-21)
(0.150992 -0.136638 -5.35691e-20)
(0.387173 -0.34875 -1.0243e-19)
(0.15374 -0.133923 9.57153e-20)
(0.395033 -0.343182 6.62611e-20)
(0.581174 -0.498308 -1.36716e-20)
(0.156245 -0.130969 -6.58112e-20)
(0.402337 -0.337017 -1.72627e-19)
(0.592782 -0.491293 -6.56841e-20)
(0.158477 -0.127779 1.00999e-19)
(0.409068 -0.330295 1.45691e-19)
(0.603664 -0.483489 -1.40515e-20)
(0.74644 -0.58838 -3.12052e-20)
(0.160419 -0.12438 -1.18725e-19)
(0.41519 -0.323051 -4.38124e-20)
(0.613776 -0.474922 7.63708e-20)
(0.760099 -0.580123 5.88879e-20)
(0.860976 -0.643218 3.567e-20)
(0.162069 -0.120799 3.04854e-20)
(0.420664 -0.31531 -2.58656e-20)
(0.623068 -0.465615 6.76739e-20)
(0.772927 -0.570999 -8.79783e-20)
(0.87663 -0.635286 -5.7885e-21)
(0.94304 -0.665533 4.71312e-20)
(0.163423 -0.117051 2.26545e-19)
(0.425467 -0.307098 -1.25316e-19)
(0.631505 -0.455614 -1.65218e-19)
(0.784864 -0.561039 -6.76398e-20)
(0.89147 -0.626454 -9.00651e-20)
(0.95994 -0.658297 -3.20667e-21)
(0.164477 -0.113153 -1.20233e-19)
(0.429577 -0.29845 -5.44412e-21)
(0.639058 -0.444956 8.66608e-20)
(0.795851 -0.550269 1.05884e-20)
(0.905436 -0.616752 1.80989e-19)
(0.976086 -0.650187 -1.44975e-20)
(1.01742 -0.658289 1.1681e-20)
(0.165223 -0.109118 -4.87901e-20)
(0.432971 -0.289401 2.06599e-20)
(0.645689 -0.433676 3.67e-20)
(0.805854 -0.538733 8.29164e-20)
(0.918464 -0.606204 -4.97735e-20)
(0.991432 -0.64123 1.71004e-20)
(1.03422 -0.651029 1.17217e-19)
(1.05611 -0.643214 -1.12715e-20)
(0.165659 -0.104962 2.48385e-19)
(0.435633 -0.279983 -6.09655e-20)
(0.651363 -0.421814 -7.73906e-20)
(0.814836 -0.526465 4.15899e-20)
(0.930505 -0.594851 2.22979e-20)
(1.00592 -0.631456 -4.07765e-20)
(1.05032 -0.642975 -7.97527e-21)
(1.07301 -0.636733 -2.05094e-20)
(1.08195 -0.619325 2.03327e-20)
(0.165781 -0.100701 -1.10561e-19)
(0.437547 -0.270233 1.23308e-20)
(0.656048 -0.409414 -1.19015e-19)
(0.822753 -0.51351 -1.49104e-19)
(0.941523 -0.58273 -5.63971e-20)
(1.01948 -0.620885 -3.64138e-21)
(1.06565 -0.634154 6.40495e-20)
(1.0893 -0.629539 -4.36004e-20)
(1.09853 -0.613482 1.2913e-20)
(1.09949 -0.591065 7.37611e-20)
(0.165587 -0.0963487 -1.16264e-19)
(0.4387 -0.260186 2.38935e-19)
(0.659718 -0.396522 1.38158e-19)
(0.829561 -0.49991 5.81345e-20)
(0.95147 -0.569873 -2.07655e-20)
(1.03208 -0.609551 -1.17022e-19)
(1.08017 -0.624592 -6.47627e-20)
(1.10494 -0.621651 -2.8168e-20)
(1.11458 -0.607006 -3.28812e-20)
(1.11544 -0.585705 -1.09615e-19)
(1.11188 -0.561297 5.48505e-20)
(0.165077 -0.0919238 2.11428e-20)
(0.439084 -0.249881 -3.27028e-20)
(0.662348 -0.383183 2.45084e-20)
(0.835222 -0.485709 -5.76977e-20)
(0.960294 -0.55632 1.13951e-19)
(1.04367 -0.597487 1.81451e-19)
(1.09382 -0.614313 5.16176e-20)
(1.11986 -0.613091 1.21663e-19)
(1.13006 -0.599916 -5.92217e-20)
(1.13093 -0.579789 1.22036e-19)
(1.12702 -0.556293 2.56982e-20)
(1.12113 -0.531686 9.32664e-20)
(0.164249 -0.087443 -7.49283e-20)
(0.43869 -0.239356 -1.60093e-19)
(0.663916 -0.369445 -1.1926e-19)
(0.839701 -0.470954 3.44771e-20)
(0.967951 -0.542111 -1.70909e-19)
(1.0542 -0.584726 -1.89033e-19)
(1.10657 -0.603345 -1.99857e-20)
(1.13404 -0.603882 -4.45933e-20)
(1.14494 -0.59223 1.38908e-19)
(1.14594 -0.573334 -2.89894e-20)
(1.14176 -0.550801 -7.5795e-20)
(1.13539 -0.526951 -1.12962e-19)
(1.12848 -0.503099 -6.21801e-20)
(0.163106 -0.0829239 -5.98519e-20)
(0.437514 -0.228651 -4.45936e-20)
(0.664407 -0.355355 1.82668e-19)
(0.842967 -0.455695 -1.06586e-19)
(0.974397 -0.52729 2.54159e-19)
(1.06362 -0.571303 9.67134e-20)
(1.11836 -0.591716 -5.64991e-20)
(1.14743 -0.594047 -8.54814e-20)
(1.15918 -0.583971 -1.15283e-19)
(1.16043 -0.56636 4.51452e-20)
(1.15609 -0.54484 6.83326e-21)
(1.1493 -0.521787 3.58235e-20)
(1.14185 -0.498579 7.0511e-20)
(1.13467 -0.475922 1.34652e-20)
(0.161652 -0.0783842 1.18482e-19)
(0.435554 -0.217807 1.78496e-19)
(0.663805 -0.340965 8.28272e-21)
(0.844991 -0.43998 9.81636e-20)
(0.979593 -0.511902 -2.22158e-19)
(1.07189 -0.557256 5.04438e-20)
(1.12915 -0.579456 -3.14125e-20)
(1.15998 -0.58361 -6.4761e-21)
(1.17274 -0.575159 -4.45407e-20)
(1.17437 -0.558886 -8.08217e-20)
(1.16997 -0.538426 -1.86673e-20)
(1.16283 -0.516211 3.67577e-20)
(1.15491 -0.493681 -1.02127e-19)
(1.14719 -0.47159 2.35744e-20)
(1.14017 -0.450289 -4.15703e-20)
(0.159891 -0.0738413 -2.12016e-20)
(0.432811 -0.206863 -2.74049e-19)
(0.6621 -0.326325 -2.02315e-19)
(0.845747 -0.423863 -1.19605e-20)
(0.983499 -0.495993 4.06808e-20)
(1.07895 -0.542623 -7.09628e-20)
(1.13888 -0.566597 -1.79809e-21)
(1.17166 -0.572598 1.74904e-20)
(1.1856 -0.565816 2.31365e-20)
(1.18775 -0.550931 1.23197e-19)
(1.18338 -0.531579 4.4626e-20)
(1.17598 -0.510241 -8.83789e-21)
(1.16763 -0.48842 9.71575e-21)
(1.15941 -0.466922 -1.15023e-20)
(1.15189 -0.446133 4.67447e-20)