/*--------------------------------*- C++ -*----------------------------------*\
  =========                 |
  \\      /  F ield         | OpenFOAM: The Open Source CFD Toolbox
   \\    /   O peration     | Website:  https://openfoam.org
    \\  /    A nd           | Version:  7
     \\/     M anipulation  |
\*---------------------------------------------------------------------------*/
FoamFile
{
    version     2.0;
    format      ascii;
    class       volScalarField;
    location    "40";
    object      p;
}
// * * * * * * * * * * * * * * * * * * * * * * * * * * * * * * * * * * * * * //

dimensions      [0 2 -2 0 0 0 0];

internalField   nonuniform List<scalar> 
7156
(
-0.0465365
-0.0563422
-0.0480549
-0.0399495
-0.0579977
-0.0493077
-0.0411887
-0.0332428
-0.0599953
-0.0506311
-0.0421394
-0.0341984
-0.0264198
-0.0623088
-0.0522788
-0.0431232
-0.0348409
-0.027087
-0.0194838
-0.0767618
-0.0649739
-0.0542205
-0.0444134
-0.0354781
-0.0274158
-0.0198583
-0.0124384
-0.0806966
-0.0680334
-0.0564889
-0.0459754
-0.0364037
-0.0277001
-0.0198683
-0.0125162
-0.00528733
-0.0851352
-0.0715265
-0.0591254
-0.0478389
-0.0375786
-0.0282545
-0.0197939
-0.0122029
-0.00506497
0.00196536
-0.0901191
-0.0754938
-0.062167
-0.0500435
-0.0390295
-0.0290356
-0.0199712
-0.0117648
-0.00442466
0.00249066
0.00931531
-0.0956846
-0.0799757
-0.0656528
-0.0526245
-0.0407941
-0.0300666
-0.0203522
-0.0115594
-0.00361809
0.0034613
0.0101456
0.0167578
-0.101855
-0.0850081
-0.069622
-0.0556193
-0.0429059
-0.0313836
-0.0209566
-0.0115345
-0.00302517
0.00464024
0.0114492
0.0178943
0.0242874
-0.108625
-0.0906148
-0.0741101
-0.0590658
-0.0454007
-0.0330183
-0.021819
-0.0117061
-0.00258907
0.00562518
0.0130039
0.0195329
0.0257308
0.0318984
-0.0967933
-0.0791417
-0.0629995
-0.0483156
-0.035005
-0.0229692
-0.0121072
-0.00232215
0.0064774
0.014385
0.0214663
0.0277058
0.0336483
0.0395841
-0.103493
-0.0847166
-0.0674455
-0.0516856
-0.0373799
-0.0244403
-0.0127663
-0.00225593
0.00718824
0.0156579
0.0232472
0.0300203
0.0359607
0.0416396
0.0473366
-0.110584
-0.0907886
-0.0724058
-0.0555365
-0.0401779
-0.026268
-0.0137152
-0.00241768
0.00772734
0.0168177
0.0249452
0.0322047
0.0386586
0.0442901
0.0496966
0.0551467
-0.117814
-0.0972342
-0.0778384
-0.0598724
-0.0434254
-0.0284867
-0.014989
-0.00283851
0.00806834
0.0178347
0.0265586
0.0343321
0.0412501
0.0473735
0.052686
0.0578103
0.0630034
-0.124762
-0.103811
-0.0836265
-0.0646556
-0.0471286
-0.0311235
-0.0166221
-0.00355289
0.00818074
0.0186833
0.0280582
0.0364034
0.043811
0.0503761
0.0561571
0.06114
0.0659711
0.0708936
-0.130796
-0.110109
-0.0895372
-0.0697757
-0.0512535
-0.0341865
-0.0186422
-0.00459511
0.00803046
0.0193332
0.0294184
0.0383896
0.0463445
0.0533748
0.0595752
0.0650017
0.0696438
0.0741683
0.0788005
-0.115511
-0.0951736
-0.0750096
-0.0556966
-0.0376459
-0.0210592
-0.00599345
0.00758331
0.0197507
0.0306092
0.0402647
0.0488207
0.056374
0.0630161
0.0688403
0.0738997
0.078189
0.0823903
0.0867016
-0.119168
-0.0999307
-0.0799731
-0.0602445
-0.0414044
-0.0238469
-0.00775965
0.00681047
0.0199017
0.0315972
0.041999
0.0512133
0.0593432
0.0664846
0.072728
0.078165
0.0828441
0.0867681
0.0906244
0.0945683
-0.12004
-0.102974
-0.0840754
-0.0645256
-0.0452585
-0.0269148
-0.00987119
0.0056985
0.019757
0.0323484
0.0435591
0.0534924
0.0622548
0.0699485
0.0766685
0.082504
0.0875431
0.091829
0.0953752
0.0988608
0.102374
-0.103272
-0.0864965
-0.0679644
-0.0488496
-0.0300689
-0.0122439
0.00426637
0.0193014
0.0328331
0.0449113
0.0556251
0.0650791
0.0733796
0.0806282
0.0869183
0.0923377
0.0969693
0.100849
0.104008
0.107098
0.110093
-0.0997064
-0.086214
-0.0697559
-0.0516178
-0.0329639
-0.0146934
0.00259203
0.0185505
0.0330348
0.0460257
0.0575781
0.0677839
0.0767485
0.0845782
0.0913735
0.0972265
0.102223
0.106439
0.109902
0.11267
0.115336
0.117649
-0.0913188
-0.0821139
-0.0688899
-0.0527741
-0.0350559
-0.0168878
0.000850164
0.0175761
0.0329656
0.0468842
0.0593211
0.0703362
0.0800236
0.0884897
0.0958404
0.102175
0.107586
0.112155
0.115948
0.11899
0.121379
0.123558
0.124861
-0.0732349
-0.0642568
-0.0513222
-0.0355732
-0.0182996
-0.000640788
0.0165434
0.0326914
0.0474959
0.0608349
0.0727056
0.0831726
0.0923322
0.100291
0.107156
0.113025
0.117988
0.122126
0.125496
0.128126
0.130167
0.131742
0.131548
-0.059121
-0.0548958
-0.0461591
-0.0335345
-0.0181755
-0.00137032
0.0157571
0.0323676
0.0479205
0.0621251
0.0748717
0.0861651
0.0960742
0.104697
0.112142
0.118514
0.123911
0.128424
0.13213
0.13508
0.137327
0.13906
0.139916
0.138072
-0.040329
-0.0363265
-0.0278457
-0.0155508
-0.000604076
0.0157104
0.0322856
0.0483041
0.0632459
0.0768369
0.0889793
0.0996852
0.109028
0.117106
0.12403
0.129904
0.134825
0.138884
0.142157
0.144694
0.146584
0.148005
0.148043
0.146354
-0.0206107
-0.0213247
-0.0175513
-0.00934089
0.00260521
0.0171184
0.032921
0.0489244
0.0643338
0.0786497
0.0916147
0.103142
0.113251
0.122019
0.129547
0.135943
0.141313
0.145754
0.149357
0.152196
0.154326
0.155857
0.156942
0.156589
0.155418
-0.00108933
-0.00213461
0.00140325
0.0093296
0.0209087
0.0349683
0.0502392
0.0656528
0.0804372
0.0941139
0.106442
0.117345
0.126849
0.135035
0.142005
0.147868
0.15273
0.156688
0.159831
0.162236
0.163958
0.165122
0.165849
0.165186
0.16414
0.0185916
0.0172144
0.0205106
0.0281399
0.0393349
0.0529219
0.0676428
0.0824499
0.096595
0.10962
0.121301
0.131571
0.140463
0.14806
0.154468
0.159794
0.164144
0.167615
0.170295
0.172263
0.173577
0.174366
0.174731
0.173776
0.17266
0.0384046
0.0366956
0.0397442
0.047064
0.0578586
0.0709554
0.0851092
0.0992946
0.112788
0.125151
0.136175
0.145805
0.154078
0.161082
0.166922
0.171707
0.175541
0.178522
0.180738
0.182266
0.183169
0.183576
0.183575
0.182323
0.181047
0.0583218
0.0562815
0.0590768
0.0660756
0.0764546
0.0890449
0.102616
0.116166
0.128995
0.140687
0.151047
0.16003
0.16768
0.174086
0.179355
0.183595
0.186911
0.189399
0.191148
0.192234
0.192722
0.192742
0.19237
0.190808
0.189318
0.0783152
0.0759447
0.0784815
0.0851483
0.0950975
0.107166
0.12014
0.133043
0.145198
0.15621
0.1659
0.174231
0.181253
0.187058
0.191752
0.195444
0.19824
0.200233
0.201513
0.202155
0.202226
0.201853
0.201105
0.19922
0.197483
0.0983566
0.0956574
0.0979308
0.104255
0.113762
0.125295
0.13766
0.149903
0.161376
0.171702
0.180716
0.188391
0.194782
0.199982
0.2041
0.207243
0.209516
0.211013
0.211822
0.212018
0.211669
0.210899
0.20977
0.207553
0.205547
0.118418
0.115392
0.117397
0.12337
0.132422
0.143408
0.155152
0.166727
0.17751
0.187144
0.195478
0.202495
0.208252
0.212846
0.216385
0.218978
0.220728
0.221727
0.222064
0.221814
0.221042
0.219872
0.218358
0.215802
0.213511
0.13847
0.13512
0.136853
0.142466
0.151053
0.16148
0.172593
0.183493
0.19358
0.202518
0.210169
0.216525
0.221647
0.225634
0.228595
0.230637
0.231863
0.232365
0.23223
0.231531
0.230336
0.228764
0.226861
0.223961
0.221376
0.158486
0.154813
0.156271
0.161517
0.169628
0.179487
0.189961
0.200179
0.209565
0.217805
0.224772
0.230466
0.234953
0.238333
0.240715
0.242207
0.242909
0.242914
0.242307
0.241161
0.239541
0.237565
0.235273
0.232026
0.229138
0.178436
0.174444
0.175624
0.180495
0.188123
0.197405
0.207234
0.216764
0.225447
0.232986
0.239269
0.244301
0.248154
0.250928
0.252733
0.253676
0.253856
0.253365
0.252286
0.250692
0.248648
0.246269
0.243586
0.239992
0.236796
0.198293
0.193985
0.194884
0.199375
0.206512
0.215211
0.224388
0.233228
0.241206
0.248044
0.253643
0.258015
0.261235
0.263406
0.264635
0.265031
0.26469
0.263705
0.262157
0.260117
0.257649
0.254866
0.251794
0.247854
0.244345
0.218028
0.213407
0.214024
0.21813
0.22477
0.23288
0.241402
0.24955
0.256823
0.262961
0.267877
0.271591
0.274182
0.275751
0.276408
0.276259
0.275401
0.273924
0.271908
0.269425
0.266536
0.263351
0.259891
0.255605
0.251781
0.237613
0.232684
0.233016
0.236733
0.242872
0.25039
0.258254
0.265709
0.272277
0.277718
0.281955
0.285015
0.286979
0.287951
0.288039
0.287349
0.285977
0.284012
0.281532
0.278607
0.2753
0.271715
0.267869
0.263241
0.2591
0.25702
0.251788
0.251835
0.255159
0.260794
0.267716
0.274922
0.281684
0.287551
0.292297
0.295859
0.298269
0.299612
0.299991
0.299516
0.298289
0.296407
0.293957
0.291017
0.287655
0.283932
0.27995
0.275722
0.270754
0.276223
0.270691
0.270452
0.273383
0.27851
0.284836
0.291384
0.297456
0.302624
0.306682
0.309574
0.31134
0.312067
0.311859
0.310825
0.309067
0.30668
0.30375
0.300354
0.296559
0.292424
0.288049
0.283443
0.27814
0.295193
0.289366
0.288843
0.291378
0.295997
0.301726
0.307619
0.313005
0.31748
0.320854
0.323083
0.324211
0.324328
0.32354
0.321953
0.31967
0.316785
0.31338
0.309534
0.30531
0.300769
0.296005
0.291026
0.285392
0.313904
0.307788
0.306981
0.309119
0.313231
0.318365
0.323606
0.32831
0.332098
0.334796
0.336369
0.336868
0.336383
0.335022
0.33289
0.330089
0.32671
0.322838
0.318547
0.3139
0.308958
0.303811
0.298463
0.332329
0.325929
0.324839
0.326583
0.330188
0.334731
0.339324
0.343353
0.346462
0.348492
0.349418
0.349296
0.348218
0.346291
0.343622
0.34031
0.336446
0.332113
0.327384
0.322321
0.316983
0.311458
0.305748
0.350443
0.343764
0.342394
0.343745
0.346846
0.350801
0.354753
0.358115
0.360554
0.361925
0.362213
0.361479
0.359818
0.357335
0.354137
0.350323
0.345982
0.341195
0.336035
0.330563
0.324836
0.31894
0.312875
0.368219
0.361268
0.359621
0.36058
0.363181
0.366555
0.369872
0.372577
0.374355
0.375078
0.37474
0.373405
0.37117
0.368141
0.364424
0.360116
0.355307
0.350075
0.344492
0.338619
0.33251
0.32625
0.319836
0.385633
0.378416
0.376494
0.377066
0.379173
0.381972
0.384664
0.386721
0.38785
0.387936
0.386984
0.385059
0.382261
0.378697
0.374471
0.36968
0.364412
0.358744
0.352747
0.34648
0.339997
0.33338
0.40266
0.395184
0.392991
0.39318
0.394798
0.39703
0.399108
0.400528
0.401021
0.400484
0.398929
0.396427
0.393079
0.388991
0.384268
0.379004
0.373286
0.367192
0.36079
0.354138
0.34729
0.340323
0.419275
0.411547
0.409088
0.4089
0.410036
0.411712
0.413185
0.413982
0.413852
0.412705
0.410561
0.407496
0.403611
0.399011
0.393802
0.388076
0.38192
0.37541
0.368612
0.361585
0.354381
0.347074
0.435456
0.427483
0.424763
0.424204
0.424867
0.425996
0.426879
0.427066
0.426327
0.424585
0.421868
0.418253
0.413844
0.408746
0.403063
0.396888
0.390305
0.383389
0.376207
0.368814
0.361263
0.353624
0.45118
0.442969
0.439993
0.43907
0.439271
0.439865
0.440171
0.439763
0.438431
0.43611
0.432834
0.428685
0.423767
0.418185
0.412042
0.40543
0.398432
0.391122
0.383565
0.375817
0.367929
0.466424
0.457984
0.454758
0.453479
0.453227
0.4533
0.453043
0.452058
0.450149
0.447266
0.443448
0.43878
0.433368
0.427316
0.420727
0.413691
0.40629
0.398599
0.390679
0.382587
0.374372
0.481167
0.472505
0.469036
0.467411
0.466717
0.466283
0.46548
0.463934
0.461467
0.458039
0.453696
0.448527
0.442636
0.43613
0.429108
0.421662
0.413873
0.405812
0.397542
0.389116
0.380585
0.495388
0.486513
0.482809
0.480846
0.479724
0.478798
0.477466
0.475377
0.47237
0.468416
0.463566
0.457912
0.45156
0.444615
0.437177
0.429336
0.421171
0.412754
0.404145
0.395399
0.386563
0.509068
0.499988
0.496055
0.493766
0.49223
0.490828
0.488985
0.486372
0.482845
0.478384
0.473047
0.466927
0.46013
0.452764
0.444925
0.436703
0.428177
0.419417
0.410483
0.401428
0.392299
0.522187
0.512911
0.508758
0.506153
0.504217
0.502357
0.500023
0.496906
0.492879
0.487932
0.482126
0.475559
0.468336
0.460565
0.452341
0.443755
0.434882
0.425793
0.416547
0.407196
0.534727
0.525264
0.520899
0.517991
0.51567
0.51337
0.510565
0.506966
0.50246
0.497047
0.490793
0.483798
0.476169
0.46801
0.459419
0.450483
0.44128
0.431877
0.422333
0.412699
0.54667
0.537029
0.532462
0.529262
0.526574
0.523853
0.520597
0.516538
0.511576
0.505719
0.499039
0.491636
0.483618
0.47509
0.466149
0.456881
0.447363
0.43766
0.427832
0.417929
0.558
0.54819
0.543429
0.539953
0.536914
0.533793
0.530108
0.525611
0.520215
0.513937
0.506851
0.499061
0.490675
0.481798
0.472525
0.462942
0.453124
0.443138
0.43304
0.422882
0.5687
0.558731
0.553788
0.550048
0.546677
0.543175
0.539085
0.534174
0.528368
0.521691
0.514223
0.506067
0.497333
0.488125
0.478538
0.468658
0.458557
0.448303
0.437951
0.427551
0.578756
0.568637
0.563522
0.559534
0.555848
0.551988
0.547516
0.542215
0.536023
0.528971
0.521143
0.512644
0.503583
0.494065
0.484183
0.474022
0.463656
0.45315
0.442559
0.431933
0.588153
0.577896
0.572618
0.568397
0.564416
0.560221
0.555391
0.549725
0.543172
0.53577
0.527605
0.518785
0.509418
0.499609
0.489452
0.47903
0.468416
0.457674
0.44686
0.436022
0.59688
0.586492
0.581064
0.576625
0.572371
0.567863
0.562699
0.556694
0.549806
0.542078
0.5336
0.524482
0.514831
0.504753
0.494339
0.483674
0.47283
0.46187
0.450848
0.604922
0.594416
0.588848
0.584208
0.5797
0.574903
0.569432
0.563114
0.555916
0.547888
0.539122
0.529728
0.519816
0.509489
0.49884
0.487951
0.476894
0.465732
0.45452
0.61227
0.601655
0.595959
0.591135
0.586394
0.581333
0.57558
0.568976
0.561495
0.553192
0.544163
0.534518
0.524367
0.513813
0.502948
0.491854
0.480604
0.469258
0.457871
0.618913
0.6082
0.602388
0.597396
0.592445
0.587144
0.581137
0.574273
0.566536
0.557985
0.548718
0.538845
0.528478
0.517719
0.506659
0.495381
0.483955
0.472443
0.460898
0.624841
0.61404
0.608125
0.602984
0.597844
0.592329
0.586094
0.578999
0.571034
0.562261
0.552781
0.542705
0.532145
0.521202
0.509969
0.498525
0.486943
0.475282
0.463597
0.630047
0.619169
0.613163
0.60789
0.602584
0.596881
0.590446
0.583147
0.574981
0.566014
0.556347
0.546093
0.535363
0.52426
0.512873
0.501285
0.489565
0.477774
0.465965
0.634523
0.623579
0.617494
0.612108
0.606659
0.600794
0.594187
0.586713
0.578374
0.569239
0.559412
0.549005
0.538129
0.526887
0.51537
0.503657
0.491819
0.479916
0.468001
0.638263
0.627264
0.621113
0.615632
0.610064
0.604063
0.597312
0.589692
0.581208
0.571934
0.561972
0.551437
0.54044
0.529082
0.517455
0.505638
0.493701
0.481704
0.4697
0.641262
0.630219
0.624015
0.618458
0.612794
0.606684
0.599817
0.59208
0.58348
0.574093
0.564024
0.553386
0.542291
0.530841
0.519126
0.507226
0.49521
0.483138
0.471063
0.643516
0.632439
0.626196
0.620581
0.614845
0.608654
0.601699
0.593874
0.585188
0.575716
0.565566
0.554851
0.543683
0.532163
0.520381
0.508418
0.496343
0.484215
0.472086
0.645021
0.633922
0.627652
0.621999
0.616215
0.609969
0.602956
0.595072
0.586328
0.5768
0.566595
0.555829
0.544612
0.533045
0.52122
0.509215
0.4971
0.484934
0.47277
0.645775
0.634665
0.628382
0.62271
0.616902
0.610628
0.603586
0.595672
0.586899
0.577343
0.567112
0.55632
0.545078
0.533488
0.52164
0.509615
0.49748
0.485295
0.473112
0.645778
0.634668
0.628385
0.622713
0.616904
0.610631
0.603589
0.595675
0.586901
0.577345
0.567114
0.556322
0.54508
0.53349
0.521642
0.509616
0.497481
0.485297
0.473114
0.645029
0.63393
0.62766
0.622007
0.616223
0.609976
0.602964
0.595079
0.586334
0.576807
0.566602
0.555835
0.544618
0.533051
0.521226
0.509221
0.497105
0.48494
0.472775
0.643529
0.632453
0.626209
0.620595
0.614858
0.608666
0.601711
0.593886
0.585199
0.575727
0.565577
0.554861
0.543693
0.532173
0.520391
0.508428
0.496352
0.484224
0.472095
0.641281
0.630238
0.624034
0.618477
0.612812
0.606702
0.599834
0.592096
0.583497
0.574109
0.564039
0.553401
0.542306
0.530855
0.519139
0.507239
0.495222
0.48315
0.471075
0.638288
0.627289
0.621138
0.615656
0.610088
0.604086
0.597334
0.589713
0.581229
0.571954
0.561991
0.551456
0.540458
0.5291
0.517472
0.505655
0.493717
0.48172
0.469716
0.634553
0.62361
0.617524
0.612138
0.606688
0.600822
0.594213
0.586739
0.578399
0.569264
0.559435
0.549028
0.538152
0.526909
0.515391
0.503677
0.491839
0.479935
0.468019
0.630083
0.619205
0.613198
0.607925
0.602618
0.596914
0.590478
0.583178
0.575011
0.566043
0.556375
0.54612
0.53539
0.524285
0.512898
0.501309
0.489589
0.477797
0.465988
0.624883
0.614082
0.608166
0.603024
0.597883
0.592367
0.586131
0.579034
0.571068
0.562294
0.552813
0.542737
0.532175
0.521232
0.509997
0.498553
0.48697
0.475309
0.463623
0.61896
0.608246
0.602434
0.597442
0.592489
0.587187
0.581178
0.574313
0.566575
0.558023
0.548755
0.538881
0.528512
0.517752
0.506691
0.495412
0.483985
0.472473
0.460927
0.612322
0.601707
0.596011
0.591186
0.586444
0.581381
0.575627
0.569021
0.561539
0.553235
0.544204
0.534558
0.524405
0.51385
0.502984
0.49189
0.480638
0.469292
0.457904
0.60498
0.594474
0.588905
0.584264
0.579754
0.574956
0.569483
0.563164
0.555964
0.547935
0.539167
0.529772
0.519859
0.50953
0.49888
0.48799
0.476932
0.46577
0.454556
0.596943
0.586556
0.581127
0.576687
0.572431
0.567921
0.562756
0.556749
0.549859
0.542129
0.53365
0.52453
0.514878
0.504798
0.494383
0.483717
0.472872
0.46191
0.450888
0.588223
0.577965
0.572686
0.568464
0.564482
0.560285
0.555452
0.549784
0.54323
0.535826
0.527659
0.518837
0.509469
0.499659
0.4895
0.479076
0.468461
0.457718
0.446903
0.436063
0.578831
0.568712
0.563595
0.559606
0.555919
0.552057
0.547582
0.542279
0.536085
0.529032
0.521201
0.512701
0.503638
0.494118
0.484235
0.474072
0.463705
0.453198
0.442606
0.431978
0.56878
0.558811
0.553867
0.550126
0.546752
0.543249
0.539156
0.534243
0.528434
0.521755
0.514285
0.506128
0.497392
0.488182
0.478594
0.468712
0.45861
0.448354
0.438001
0.4276
0.558085
0.548275
0.543514
0.540036
0.536996
0.533871
0.530184
0.525685
0.520287
0.514006
0.506918
0.499126
0.490738
0.481859
0.472584
0.463
0.45318
0.443192
0.433094
0.422933
0.546762
0.53712
0.532552
0.529351
0.526661
0.523937
0.520679
0.516617
0.511652
0.505792
0.49911
0.491705
0.483685
0.475155
0.466213
0.456943
0.447423
0.437718
0.427889
0.417984
0.534824
0.525361
0.520995
0.518085
0.515762
0.513459
0.510651
0.507049
0.502541
0.497125
0.490869
0.483871
0.47624
0.468079
0.459486
0.450549
0.441343
0.431938
0.422393
0.412757
0.52229
0.513014
0.508859
0.506253
0.504314
0.502451
0.500114
0.496995
0.492964
0.488014
0.482206
0.475636
0.468412
0.460638
0.452412
0.443824
0.434949
0.425859
0.416611
0.407258
0.509177
0.500097
0.496162
0.493871
0.492332
0.490927
0.489082
0.486465
0.482935
0.478471
0.473131
0.467008
0.46021
0.452841
0.445
0.436776
0.428248
0.419485
0.41055
0.401493
0.392363
0.495502
0.486627
0.482921
0.480956
0.479832
0.478903
0.477568
0.475475
0.472464
0.468507
0.463655
0.457999
0.451644
0.444696
0.437256
0.429413
0.421246
0.412826
0.404216
0.395468
0.38663
0.481287
0.472625
0.469155
0.467527
0.466831
0.466393
0.465587
0.464037
0.461566
0.458135
0.453789
0.448617
0.442723
0.436215
0.429191
0.421743
0.413951
0.405888
0.397616
0.389189
0.380656
0.466549
0.458109
0.454882
0.453601
0.453345
0.453415
0.453155
0.452166
0.450253
0.447367
0.443546
0.438875
0.433459
0.427405
0.420813
0.413775
0.406372
0.398678
0.390757
0.382662
0.374445
0.451311
0.4431
0.440123
0.439198
0.439395
0.439985
0.440287
0.439876
0.43854
0.436216
0.432936
0.428784
0.423863
0.418278
0.412132
0.405517
0.398517
0.391205
0.383646
0.375896
0.368006
0.435593
0.42762
0.424898
0.424337
0.424997
0.426122
0.427001
0.427184
0.426441
0.424696
0.421974
0.418356
0.413944
0.408843
0.403158
0.39698
0.390395
0.383476
0.376291
0.368896
0.361343
0.353702
0.419418
0.41169
0.409229
0.409039
0.410171
0.411843
0.413312
0.414105
0.41397
0.41282
0.410672
0.407604
0.403715
0.399113
0.3939
0.388172
0.382013
0.3755
0.3687
0.361671
0.354464
0.347155
0.402808
0.395332
0.393138
0.393324
0.394938
0.397167
0.39924
0.400656
0.401144
0.400603
0.399044
0.396539
0.393187
0.389096
0.38437
0.379103
0.373383
0.367286
0.360881
0.354227
0.347377
0.340408
0.385787
0.37857
0.376647
0.377216
0.379318
0.382113
0.384801
0.386853
0.387978
0.38806
0.387103
0.385175
0.382374
0.378806
0.374577
0.369783
0.364512
0.358842
0.352842
0.346572
0.340088
0.333468
0.368379
0.361428
0.359779
0.360735
0.363333
0.366702
0.370015
0.372714
0.374488
0.375207
0.374865
0.373526
0.371287
0.368254
0.364534
0.360223
0.355411
0.350177
0.344591
0.338715
0.332604
0.326341
0.319924
0.350609
0.34393
0.342558
0.343905
0.347003
0.350953
0.3549
0.358258
0.360691
0.362058
0.362342
0.361604
0.359939
0.357452
0.354251
0.350433
0.346089
0.3413
0.336137
0.330662
0.324933
0.319034
0.312966
0.332501
0.3261
0.325009
0.326749
0.33035
0.334888
0.339476
0.343501
0.346605
0.34863
0.349551
0.349425
0.348343
0.346412
0.34374
0.340424
0.336558
0.332221
0.327489
0.322424
0.317083
0.311555
0.305843
0.314081
0.307965
0.307156
0.309291
0.313399
0.318528
0.323763
0.328463
0.332246
0.334939
0.336507
0.337002
0.336513
0.335147
0.333012
0.330207
0.326825
0.32295
0.318656
0.314007
0.309061
0.303911
0.298561
0.295376
0.289549
0.289024
0.291555
0.29617
0.301894
0.307782
0.313162
0.317632
0.321001
0.323225
0.324349
0.324462
0.32367
0.322079
0.319793
0.316904
0.313496
0.309647
0.30542
0.300875
0.296109
0.291127
0.285491
0.276412
0.270879
0.270639
0.273566
0.278689
0.285009
0.291552
0.297619
0.302782
0.306834
0.309721
0.311482
0.312205
0.311993
0.310954
0.309193
0.306803
0.303869
0.30047
0.296672
0.292534
0.288156
0.283547
0.278242
0.257215
0.251982
0.252027
0.255348
0.260978
0.267895
0.275096
0.281852
0.287713
0.292454
0.296011
0.298416
0.299754
0.300129
0.29965
0.298419
0.296534
0.29408
0.291137
0.287771
0.284045
0.28006
0.275829
0.270859
0.237813
0.232885
0.233215
0.236928
0.243063
0.250574
0.258433
0.265881
0.272444
0.277879
0.282111
0.285166
0.287125
0.288093
0.288177
0.287483
0.286108
0.284138
0.281655
0.278727
0.275416
0.271828
0.267979
0.263349
0.259205
0.218234
0.213614
0.214228
0.21833
0.224966
0.233071
0.241586
0.249728
0.256995
0.263127
0.268038
0.271747
0.274332
0.275897
0.27655
0.276397
0.275535
0.274054
0.272035
0.269548
0.266656
0.263468
0.260004
0.255716
0.25189
0.198505
0.194197
0.195094
0.199582
0.206714
0.215407
0.224577
0.233411
0.241383
0.248215
0.253808
0.258175
0.26139
0.263556
0.264781
0.265172
0.264828
0.263839
0.262287
0.260243
0.257773
0.254986
0.251911
0.247968
0.244457
0.178654
0.174662
0.17584
0.180708
0.18833
0.197607
0.207428
0.216952
0.225629
0.233162
0.239439
0.244465
0.248313
0.251083
0.252883
0.253821
0.253997
0.253502
0.25242
0.250822
0.248775
0.246392
0.243706
0.24011
0.236911
0.15871
0.155037
0.156493
0.161735
0.169841
0.179694
0.190161
0.200372
0.209752
0.217985
0.224946
0.230635
0.235117
0.238492
0.240869
0.242357
0.243055
0.243056
0.242444
0.241294
0.239671
0.237692
0.235396
0.232147
0.229256
0.1387
0.13535
0.137081
0.14269
0.151271
0.161692
0.172798
0.183691
0.193771
0.202703
0.210349
0.216698
0.221815
0.225797
0.228753
0.230791
0.232012
0.23251
0.232371
0.231668
0.230469
0.228894
0.226987
0.224085
0.221496
0.118654
0.115628
0.117631
0.1236
0.132646
0.143626
0.155362
0.166931
0.177707
0.187334
0.195662
0.202673
0.208424
0.213013
0.216547
0.219136
0.22088
0.221876
0.222209
0.221955
0.221179
0.220005
0.218487
0.215928
0.213635
0.0985988
0.0958994
0.0981705
0.104491
0.113992
0.125519
0.137876
0.150112
0.161578
0.171897
0.180905
0.188574
0.194959
0.200154
0.204266
0.207405
0.209673
0.211165
0.21197
0.212162
0.211809
0.211036
0.209903
0.207683
0.205673
0.0785633
0.0761926
0.0787272
0.0853897
0.0953332
0.107395
0.120362
0.133257
0.145405
0.15641
0.166093
0.174418
0.181434
0.187233
0.191922
0.19561
0.1984
0.200389
0.201664
0.202302
0.202369
0.201992
0.201241
0.199353
0.197613
0.0585759
0.0565354
0.0593285
0.0663229
0.076696
0.0892794
0.102843
0.116385
0.129207
0.140892
0.151245
0.160222
0.167866
0.174266
0.179529
0.183764
0.187075
0.189558
0.191303
0.192385
0.192869
0.192885
0.192509
0.190944
0.189451
0.0386647
0.0369555
0.0400018
0.0473172
0.0581057
0.0711955
0.0853416
0.0995192
0.113004
0.125361
0.136378
0.146001
0.154268
0.161266
0.167101
0.17188
0.17571
0.178685
0.180897
0.182421
0.183319
0.183722
0.183717
0.182462
0.181183
0.0188578
0.0174804
0.0207742
0.028399
0.0395878
0.0531676
0.0678806
0.0826797
0.096817
0.109835
0.121508
0.131771
0.140657
0.148249
0.15465
0.159971
0.164316
0.167782
0.170458
0.172421
0.17373
0.174515
0.174876
0.173918
0.172798
-0.000817208
-0.00186268
0.00167279
0.0095946
0.0211675
0.0352196
0.0504825
0.065888
0.0806643
0.0943333
0.106654
0.11755
0.127048
0.135227
0.142191
0.148049
0.152906
0.156859
0.159997
0.162397
0.164115
0.165275
0.165998
0.165331
0.164282
-0.0203326
-0.0210467
-0.0172758
-0.00906998
0.00286975
0.0173753
0.0331698
0.0491649
0.064566
0.078874
0.0918315
0.103352
0.113454
0.122216
0.129737
0.136128
0.141493
0.145929
0.149526
0.152361
0.154486
0.156013
0.157094
0.156737
0.155563
-0.040045
-0.036045
-0.0275689
-0.0152805
-0.000341459
0.0159647
0.0325313
0.0485415
0.0634751
0.0770585
0.0891936
0.0998926
0.109228
0.117301
0.124219
0.130087
0.135003
0.139057
0.142326
0.144858
0.146744
0.14816
0.148194
0.146501
-0.058831
-0.0546083
-0.0458764
-0.0332584
-0.0179072
-0.00111057
0.0160081
0.0326101
0.0481547
0.0623514
0.0750905
0.0863769
0.0962793
0.104896
0.112335
0.118701
0.124093
0.128601
0.132302
0.135247
0.13749
0.139218
0.14007
0.138222
-0.0729415
-0.0639681
-0.0510403
-0.0352992
-0.0180344
-0.000384446
0.0167909
0.0329305
0.0477269
0.0610583
0.0729218
0.083382
0.0925352
0.100488
0.107347
0.11321
0.118168
0.122302
0.125666
0.128292
0.130328
0.131899
0.131701
-0.0910194
-0.0818194
-0.0686021
-0.0524945
-0.0347851
-0.0166261
0.00110286
0.0178202
0.0332014
0.0471123
0.0595418
0.0705499
0.0802307
0.0886905
0.0960354
0.102365
0.10777
0.112334
0.116122
0.119159
0.121543
0.123718
0.125017
-0.0994059
-0.0859205
-0.0694706
-0.0513415
-0.0326969
-0.0144355
0.00284102
0.0187911
0.0332674
0.0462508
0.0577961
0.0679951
0.0769534
0.084777
0.0915665
0.097414
0.102405
0.106616
0.110074
0.112838
0.115499
0.117808
-0.102972
-0.0862055
-0.0676827
-0.0485773
-0.0298059
-0.0119899
0.00451171
0.0195386
0.0330626
0.0451336
0.0558405
0.0652879
0.0735823
0.0808249
0.0871094
0.0925234
0.0971498
0.101025
0.104179
0.107264
0.110254
-0.119735
-0.102678
-0.0837882
-0.064248
-0.0449904
-0.0266559
-0.00962108
0.0059403
0.0199909
0.0325749
0.0437786
0.0537052
0.0624612
0.070149
0.0768632
0.0826932
0.0877269
0.0920078
0.0955491
0.0990297
0.102538
-0.118866
-0.0996379
-0.0796901
-0.0599712
-0.0411406
-0.023592
-0.00751325
0.00704884
0.0201325
0.0318208
0.0422158
0.0514236
0.0595473
0.0666828
0.0729207
0.0783522
0.0830261
0.0869451
0.0907963
0.0947351
-0.115212
-0.0948853
-0.0747312
-0.0554278
-0.0373862
-0.0208082
-0.00575065
0.00781836
0.0199784
0.03083
0.0404789
0.0490286
0.0565759
0.0632122
0.0690309
0.0740849
0.0783691
0.0825652
0.0868713
-0.109815
-0.0892536
-0.0695019
-0.050989
-0.0339309
-0.018395
-0.00435578
0.00826231
0.0195579
0.0296364
0.0386012
0.0465499
0.0535743
0.0597691
0.0651902
0.069827
0.0743462
0.0789731
-0.124463
-0.103522
-0.0833478
-0.0643864
-0.0468684
-0.0308718
-0.0163785
-0.00331693
0.00840946
0.0189051
0.0282735
0.0366124
0.044014
0.0505733
0.0563488
0.0613264
0.0661519
0.071069
-0.117521
-0.0969505
-0.0775644
-0.0596077
-0.0431693
-0.0282388
-0.014749
-0.00260581
0.00829401
0.0180537
0.0267712
0.0345385
0.0414507
0.0475684
0.0528754
0.0579941
0.0631817
-0.110296
-0.0905099
-0.0721364
-0.055276
-0.0399258
-0.0260238
-0.0134785
-0.00218817
0.00795003
0.0170338
0.0251551
0.0324086
0.0388567
0.0444826
0.0498834
0.0553279
-0.10321
-0.0844426
-0.0671806
-0.0514292
-0.0371316
-0.0241997
-0.0125329
-0.00202955
0.00740798
0.0158713
0.0234544
0.0302216
0.0361563
0.0418295
0.0475207
-0.0965148
-0.0788724
-0.0627389
-0.0480632
-0.0347604
-0.022732
-0.0118772
-0.00209884
0.00669421
0.0145955
0.0216708
0.0279045
0.0338412
0.0397711
-0.090341
-0.0738452
-0.0588093
-0.0451521
-0.0327773
-0.0215852
-0.0114793
-0.00236881
0.00583908
0.0132117
0.0197348
0.0259267
0.0320884
-0.101577
-0.084739
-0.0693614
-0.0553667
-0.0426611
-0.0311462
-0.0207261
-0.0113108
-0.00280794
0.00485123
0.0116542
0.0180933
0.0244803
-0.0954112
-0.079711
-0.0653963
-0.0523759
-0.0405529
-0.0298326
-0.020125
-0.0113388
-0.00340388
0.0036694
0.0103476
0.0169536
-0.0898503
-0.0752334
-0.0619146
-0.0497987
-0.0387919
-0.028805
-0.0197473
-0.0115473
-0.00421344
0.00269564
0.00951408
-0.0848708
-0.0712703
-0.0588768
-0.0475978
-0.0373446
-0.0280273
-0.0195733
-0.0119886
-0.00485697
0.00216706
-0.0804365
-0.0677812
-0.0562443
-0.0457379
-0.0361731
-0.0274762
-0.0196508
-0.0123052
-0.0050827
-0.0647257
-0.0539796
-0.0441795
-0.035251
-0.0271952
-0.0196443
-0.0122308
-0.0620645
-0.0520416
-0.0428929
-0.0346172
-0.0268699
-0.0192733
-0.0597548
-0.0503975
-0.0419126
-0.0339782
-0.0262064
-0.0577609
-0.0490778
-0.0409656
-0.0330264
-0.0561092
-0.0478287
-0.0397301
-0.0463141
0.132327
0.125589
0.118135
0.111026
0.103789
0.0963532
0.088871
0.0813981
0.0739356
0.0664965
0.0590995
0.0517564
0.0444744
0.0372597
0.0301179
0.0230536
0.0160709
0.00917321
0.00236391
-0.00435398
-0.0109776
-0.0175044
-0.0239317
-0.0302573
-0.0364788
-0.0425943
0.122367
0.11529
0.10703
0.0998507
0.0929967
0.0859852
0.0789442
0.0719924
0.0651227
0.058316
0.0515756
0.044908
0.0383146
0.0317954
0.0253515
0.0189843
0.012695
0.00648488
0.000355417
-0.00569202
-0.011656
-0.0175353
-0.0233286
-0.0290348
-0.034653
-0.0401824
0.111249
0.104284
0.0962915
0.0895639
0.0833364
0.0769878
0.0705842
0.0642679
0.0580444
0.0518836
0.0457793
0.0397371
0.0337596
0.027847
0.0219998
0.0162194
0.0105075
0.00486536
-0.000705619
-0.00620416
-0.0116291
-0.0169793
-0.0222537
-0.0274517
-0.0325722
-0.0376148
0.10022
0.0936778
0.0863335
0.0802069
0.0745679
0.0688134
0.0629867
0.0572293
0.0515591
0.0459484
0.0403884
0.0348846
0.029441
0.0240582
0.0187366
0.0134772
0.00828091
0.00314866
-0.0019189
-0.00692116
-0.0118576
-0.0167277
-0.0215312
-0.0262676
-0.0309367
-0.0355382
0.0902668
0.0842665
0.0775995
0.0720257
0.0668888
0.0616458
0.0563311
0.0510758
0.0459015
0.0407842
0.0357147
0.0306967
0.0257341
0.0208274
0.0159764
0.0111813
0.00644267
0.0017609
-0.00286377
-0.0074311
-0.0119409
-0.016393
-0.0207874
-0.0251238
-0.0294022
-0.0336226
0.0813878
0.0758765
0.0698085
0.0647118
0.0600035
0.0552043
0.0503431
0.0455362
0.0408044
0.0361269
0.0314942
0.0269089
0.0223741
0.0178901
0.0134564
0.00907282
0.00473963
0.00045687
-0.00377544
-0.00795732
-0.0120888
-0.01617
-0.0202009
-0.0241817
-0.0281126
-0.0319936
0.0733878
0.0683084
0.0627813
0.0581214
0.0538039
0.0494088
0.0449615
0.0405641
0.036235
0.0319557
0.0277173
0.0235217
0.0193712
0.015266
0.0112055
0.00718942
0.00321763
-0.000709904
-0.00459334
-0.00843286
-0.0122286
-0.0159809
-0.0196898
-0.0233556
-0.0269785
-0.0305588
0.0661501
0.0614668
0.0564329
0.0521735
0.0482131
0.044184
0.0401105
0.0360821
0.0321147
0.028192
0.024306
0.0204581
0.0166503
0.0128826
0.00915425
0.005465