/*--------------------------------*- C++ -*----------------------------------*\
  =========                 |
  \\      /  F ield         | OpenFOAM: The Open Source CFD Toolbox
   \\    /   O peration     | Website:  https://openfoam.org
    \\  /    A nd           | Version:  7
     \\/     M anipulation  |
\*---------------------------------------------------------------------------*/
FoamFile
{
    version     2.0;
    format      ascii;
    class       surfaceScalarField;
    location    "40";
    object      phi;
}
// * * * * * * * * * * * * * * * * * * * * * * * * * * * * * * * * * * * * * //

dimensions      [0 3 -1 0 0 0 0];

internalField   nonuniform List<scalar> 
13974
(
-0.00319416
-0.00011976
-0.0001054
-0.00303166
-0.000123594
-0.00310267
-0.0031755
-0.000142257
-0.000107423
-0.00294525
-0.000126006
-0.00301308
-0.000145054
-0.00308362
-0.00315598
-0.000164573
-0.000108082
-0.00286222
-0.000126999
-0.00292633
-0.000146431
-0.00299365
-0.000166332
-0.00306372
-0.00313561
-0.000186703
-0.00010748
-0.00278289
-0.000126642
-0.00284306
-0.00014639
-0.00290658
-0.000166668
-0.00297337
-0.000187422
-0.00304296
-0.00311439
-0.000208642
-8.70389e-05
-0.00265372
-0.000105719
-0.00270723
-0.000125046
-0.00276357
-0.000145013
-0.00282309
-0.000165589
-0.00288601
-0.000186713
-0.00295225
-0.000208319
-0.00302136
-0.00309232
-0.000230385
-8.40863e-05
-0.00258449
-0.000102876
-0.00263493
-0.00012232
-0.00268778
-0.000142425
-0.00274346
-0.000163191
-0.00280233
-0.000184591
-0.00286461
-0.000206559
-0.00293028
-0.000229017
-0.0029989
-0.00306941
-0.000251928
-8.01206e-05
-0.00251773
-9.89984e-05
-0.00256561
-0.000118537
-0.0026154
-0.000138736
-0.00266758
-0.000159612
-0.00272259
-0.000181172
-0.00278077
-0.000203392
-0.00284239
-0.000226202
-0.00290747
-0.000249511
-0.00297559
-0.00304566
-0.000273266
-7.51864e-05
-0.00245286
-9.41199e-05
-0.0024988
-0.000113739
-0.00254599
-0.000134019
-0.00259512
-0.000154967
-0.00264664
-0.000176606
-0.00270095
-0.000198951
-0.00275842
-0.000221984
-0.00281936
-0.000245635
-0.00288382
-0.000269796
-0.00295143
-0.00302106
-0.000294394
-6.93494e-05
-0.00238903
-8.82792e-05
-0.00243393
-0.000107953
-0.00247913
-0.000128306
-0.00252564
-0.000149319
-0.0025741
-0.000171008
-0.00262495
-0.000193401
-0.00267855
-0.000216523
-0.0027353
-0.000240364
-0.00279552
-0.000264851
-0.00285933
-0.000289865
-0.00292642
-0.00299562
-0.000315306
-6.27084e-05
-0.00232504
-8.15358e-05
-0.00237021
-0.000101212
-0.00241425
-0.000121618
-0.00245872
-0.000142697
-0.00250456
-0.000164437
-0.00255236
-0.000186858
-0.00260253
-0.000209996
-0.00265542
-0.000233885
-0.00271141
-0.000258524
-0.00277088
-0.000283845
-0.00283401
-0.000309713
-0.00290055
-0.00296933
-0.000335997
-5.54055e-05
-0.0022591
-7.39822e-05
-0.00230647
-9.35687e-05
-0.00235062
-0.000113981
-0.00239384
-0.000135112
-0.00243759
-0.000156911
-0.00248276
-0.00017937
-0.0025299
-0.000202514
-0.00257938
-0.000226387
-0.00263154
-0.000251032
-0.00268677
-0.000276461
-0.00274545
-0.000302609
-0.00280786
-0.000329331
-0.00287383
-0.0029422
-0.00035646
-6.57536e-05
-0.00224098
-8.51113e-05
-0.00228711
-0.000105446
-0.00233028
-0.000126587
-0.0023727
-0.000148435
-0.00241574
-0.000170946
-0.00246025
-0.000194117
-0.00250673
-0.000217976
-0.00255552
-0.000242572
-0.00260695
-0.000267961
-0.00266138
-0.000294167
-0.00271924
-0.000321136
-0.00278089
-0.000348712
-0.00284625
-0.00291423
-0.000376689
-5.70352e-05
-0.00217125
-7.59676e-05
-0.00222204
-9.60934e-05
-0.00226698
-0.000117167
-0.00230921
-0.000139027
-0.00235084
-0.000161584
-0.00239318
-0.000184801
-0.00243704
-0.000208676
-0.00248286
-0.000233241
-0.00253096
-0.00025855
-0.00258164
-0.000284669
-0.00263526
-0.000311639
-0.00269227
-0.000339419
-0.00275311
-0.000367849
-0.00281782
-0.0028854
-0.000396676
-4.80655e-05
-0.0020939
-6.6316e-05
-0.002153
-8.60451e-05
-0.00220231
-0.000106927
-0.0022461
-0.000128728
-0.00228741
-0.000151299
-0.00232827
-0.000174559
-0.00236993
-0.000198474
-0.00241312
-0.000223046
-0.00245828
-0.000248309
-0.0025057
-0.000274319
-0.00255563
-0.000301154
-0.00260842
-0.000328871
-0.00266455
-0.000357451
-0.00272453
-0.000386733
-0.00278854
-0.00285572
-0.000416415
-3.91326e-05
-0.00200454
-5.63885e-05
-0.00207664
-7.54727e-05
-0.00213392
-9.59839e-05
-0.0021818
-0.000117609
-0.00222448
-0.000140128
-0.00226489
-0.000163403
-0.00230499
-0.000187358
-0.00234597
-0.000211964
-0.00238852
-0.000237227
-0.00243302
-0.000263179
-0.00247974
-0.00028988
-0.00252893
-0.000317415
-0.00258089
-0.000345862
-0.00263611
-0.000375225
-0.00269517
-0.000405354
-0.00275841
-0.00282518
-0.000435896
-3.05595e-05
-0.00189789
-4.64689e-05
-0.00198863
-6.46018e-05
-0.00205851
-8.45028e-05
-0.00211402
-0.000105782
-0.00216052
-0.000128139
-0.00220212
-0.000151366
-0.00224166
-0.000175336
-0.00228102
-0.000199979
-0.00232133
-0.000225271
-0.00236322
-0.000251217
-0.00240708
-0.000277851
-0.00245311
-0.000305233
-0.00250154
-0.000333453
-0.00255267
-0.000362608
-0.00260695
-0.000392735
-0.00266504
-0.000423705
-0.00272744
-0.00279377
-0.000455112
-2.26773e-05
-0.00176798
-3.68801e-05
-0.00188368
-5.37115e-05
-0.0019718
-7.27026e-05
-0.00203952
-9.34041e-05
-0.00209331
-0.000115437
-0.00213849
-0.000138515
-0.00217904
-0.000162441
-0.00221774
-0.000187097
-0.00225637
-0.000212421
-0.002296
-0.000238392
-0.00233725
-0.000265017
-0.00238045
-0.000292326
-0.0024258
-0.00032038
-0.00247349
-0.00034927
-0.00252378
-0.00037911
-0.00257711
-0.000409976
-0.00263418
-0.000441777
-0.00269564
-0.00276149
-0.000474056
-2.796e-05
-0.0017558
-4.31244e-05
-0.00186852
-6.08577e-05
-0.00195407
-8.06885e-05
-0.00201969
-0.000102174
-0.00207183
-0.000124948
-0.00211572
-0.000148734
-0.00215525
-0.00017335
-0.00219312
-0.000198685
-0.00223103
-0.000224683
-0.00227
-0.000251327
-0.00231061
-0.000278624
-0.00235315
-0.000306604
-0.00239782
-0.000335321
-0.00244477
-0.000364868
-0.00249423
-0.000395372
-0.00254661
-0.000426947
-0.0026026
-0.000459563
-0.00266302
-0.00272833
-0.000492721
-2.00265e-05
-0.00159871
-3.31838e-05
-0.00174265
-4.92892e-05
-0.00185241
-6.79046e-05
-0.00193545
-8.85572e-05
-0.00199903
-0.000110812
-0.00204957
-0.000134312
-0.00209222
-0.000158797
-0.00213077
-0.000184092
-0.00216783
-0.000210098
-0.00220503
-0.000236763
-0.00224334
-0.000264074
-0.0022833
-0.000292039
-0.00232519
-0.000320684
-0.00236918
-0.00035006
-0.0024154
-0.000380254
-0.00246404
-0.000411399
-0.00251546
-0.000443651
-0.00257035
-0.000477061
-0.00262961
-0.00269429
-0.000511102
-1.33363e-05
-0.00140646
-2.4222e-05
-0.00158783
-3.83457e-05
-0.00172852
-5.53718e-05
-0.00183539
-7.48497e-05
-0.00191597
-9.63065e-05
-0.00197758
-0.000119314
-0.00202657
-0.000143529
-0.002068
-0.000168701
-0.0021056
-0.000194667
-0.00214186
-0.000221335
-0.00217836
-0.00024866
-0.00221601
-0.000276632
-0.00225533
-0.00030526
-0.00229656
-0.000334567
-0.00233987
-0.000364598
-0.00238537
-0.000395432
-0.0024332
-0.000427202
-0.00248369
-0.000460096
-0.00253746
-0.000494272
-0.00259544
-0.00265936
-0.000529202
-1.65203e-05
-0.00139798
-2.83723e-05
-0.00157598
-4.34426e-05
-0.00171345
-6.13694e-05
-0.00181746
-8.16908e-05
-0.00189565
-0.000103934
-0.00195533
-0.000127681
-0.00200282
-0.000152597
-0.00204309
-0.000178444
-0.00207975
-0.000205072
-0.00211523
-0.000232393
-0.00215104
-0.000260372
-0.00218804
-0.000288999
-0.0022267
-0.000318284
-0.00226728
-0.000348251
-0.0023099
-0.000378937
-0.00235468
-0.000410411
-0.00240173
-0.000442793
-0.00245131
-0.000476299
-0.00250395
-0.000511212
-0.00256052
-0.00262352
-0.000547052
-1.0272e-05
-0.00116797
-1.96742e-05
-0.00138858
-3.24747e-05
-0.00156318
-4.84721e-05
-0.00169746
-6.72796e-05
-0.00179865
-8.84257e-05
-0.0018745
-0.000111439
-0.00193232
-0.000135909
-0.00197835
-0.000161514
-0.00201748
-0.000188026
-0.00205324
-0.000215305
-0.00208795
-0.000243273
-0.00212307
-0.000271897
-0.00215941
-0.000301172
-0.00219742
-0.00033111
-0.00223734
-0.000361734
-0.00227928
-0.000393077
-0.00232334
-0.000425194
-0.00236961
-0.000458187
-0.00241832
-0.000492284
-0.00246985
-0.00052791
-0.0025249
-0.00258674
-0.000564688
-5.55745e-06
-0.000894219
-1.24797e-05
-0.00116105
-2.27955e-05
-0.00137826
-3.65267e-05
-0.00154945
-5.34315e-05
-0.00168055
-7.31002e-05
-0.00177899
-9.50525e-05
-0.00185255
-0.000118819
-0.00190855
-0.000143998
-0.00195317
-0.000170279
-0.0019912
-0.000197446
-0.00202607
-0.000225367
-0.00206003
-0.000253971
-0.00209446
-0.000283232
-0.00213015
-0.000313148
-0.00216751
-0.000343734
-0.00220675
-0.000375013
-0.002248
-0.000407016
-0.00229133
-0.000439786
-0.00233684
-0.000473402
-0.0023847
-0.000508089
-0.00243517
-0.00054438
-0.00248861
-0.00254901
-0.000582109
-6.91574e-06
-0.000889647
-1.46676e-05
-0.0011533
-2.58821e-05
-0.00136705
-4.05258e-05
-0.0015348
-5.83187e-05
-0.00166276
-7.88291e-05
-0.00175847
-0.000101569
-0.00182981
-0.000126073
-0.00188405
-0.000151947
-0.0019273
-0.000178891
-0.00196426
-0.000206701
-0.00199826
-0.000235254
-0.00203148
-0.000264487
-0.00206523
-0.000294376
-0.00210026
-0.000324926
-0.00213696
-0.000356152
-0.00217552
-0.000388081
-0.00221607
-0.000420746
-0.00225867
-0.000454183
-0.00230341
-0.000488458
-0.00235043
-0.000523776
-0.00239985
-0.000560629
-0.00245175
-0.00251012
-0.000599525
-3.00652e-06
-0.000572617
-8.26403e-06
-0.000884389
-1.68342e-05
-0.00114473
-2.89318e-05
-0.00135495
-4.44698e-05
-0.00151926
-6.31314e-05
-0.0016441
-8.44644e-05
-0.00173714
-0.000107975
-0.0018063
-0.000133199
-0.00185882
-0.000159753
-0.00190074
-0.000187349
-0.00193666
-0.000215791
-0.00196982
-0.000244967
-0.0020023
-0.000274818
-0.00203538
-0.000305327
-0.00206975
-0.000336501
-0.00210578
-0.00036836
-0.00214367
-0.000400933
-0.0021835
-0.000434256
-0.00222535
-0.00046837
-0.00226929
-0.000503348
-0.00231545
-0.0005394
-0.0023638
-0.000577089
-0.00241406
-0.00247067
-0.00061653
-3.66339e-06
-0.000569661
-9.59771e-06
-0.000878455
-1.89734e-05
-0.00113535
-3.19381e-05
-0.00134199
-4.83519e-05
-0.00150285
-6.78627e-05
-0.00162459
-8.99994e-05
-0.001715
-0.000114262
-0.00178204
-0.000140192
-0.00183289
-0.000167412
-0.00187352
-0.000195646
-0.00190843
-0.00022471
-0.00194075
-0.000254498
-0.00197252
-0.000284958
-0.00200492
-0.000316078
-0.00203863
-0.000347867
-0.002074
-0.000380348
-0.00211118
-0.000413554
-0.00215029
-0.000447526
-0.00219138
-0.000482313
-0.0022345
-0.000518016
-0.00227975
-0.000554751
-0.00232706
-0.000592184
-0.00237663
-0.00242958
-0.00063328
-8.94239e-07
-0.000209342
-4.31822e-06
-0.000566237
-1.09222e-05
-0.000871851
-2.10919e-05
-0.00112518
-3.4908e-05
-0.00132817
-5.21798e-05
-0.00148558
-7.25208e-05
-0.00160424
-9.54424e-05
-0.00169208
-0.00012044
-0.00175704
-0.000147059
-0.00180628
-0.000174932
-0.00184565
-0.000203792
-0.00187957
-0.000233467
-0.00191108
-0.000263856
-0.00194213
-0.000294915
-0.00197386
-0.000326635
-0.00200691
-0.000359029
-0.0020416
-0.000392121
-0.00207809
-0.000425948
-0.00211646
-0.000460551
-0.00215677
-0.000495989
-0.00219907
-0.000532356
-0.00224338
-0.000569728
-0.00228969
-0.000608161
-0.0023382
-0.00238894
-0.000648803
-1.07985e-06
-0.000208262
-4.96781e-06
-0.000562349
-1.22331e-05
-0.000864585
-2.31839e-05
-0.00111423
-3.78354e-05
-0.00131352
-5.59467e-05
-0.00146747
-7.7099e-05
-0.00158309
-0.000100787
-0.0016684
-0.000126502
-0.00173133
-0.000153794
-0.00177898
-0.000182306
-0.00181714
-0.000211781
-0.00185009
-0.000242054
-0.00188081
-0.000273034
-0.00191115
-0.000304682
-0.00194221
-0.000336992
-0.0019746
-0.00036998
-0.00200861
-0.000403672
-0.0020444
-0.000438105
-0.00208203
-0.000473322
-0.00212156
-0.000509382
-0.00216301
-0.000546363
-0.0022064
-0.000584336
-0.00225172
-0.000623428
-0.00229911
-0.00234826
-0.0006641
-1.26422e-06
-0.000206998
-5.61157e-06
-0.000558002
-1.35291e-05
-0.000856668
-2.52481e-05
-0.00110251
-4.07186e-05
-0.00129805
-5.96511e-05
-0.00144853
-8.15956e-05
-0.00156115
-0.000106031
-0.00164396
-0.000132447
-0.00170491
-0.000160398
-0.00175103
-0.000189535
-0.001788
-0.000219612
-0.00182002
-0.000250473
-0.00184995
-0.000282033
-0.00187959
-0.000314259
-0.00190999
-0.000347149
-0.00194171
-0.000380719
-0.00197504
-0.000414999
-0.00201012
-0.000450024
-0.00204701
-0.000485838
-0.00208574
-0.000522496
-0.00212635
-0.000560063
-0.00216883
-0.000598603
-0.00221318
-0.000638232
-0.00225948
-0.00230736
-0.000679138
-1.44719e-06
-0.00020555
-6.2489e-06
-0.0005532
-1.48094e-05
-0.000848107
-2.72831e-05
-0.00109004
-4.3556e-05
-0.00128178
-6.32913e-05
-0.0014288
-8.60093e-05
-0.00153843
-0.000111175
-0.00161879
-0.000138275
-0.00167781
-0.000166869
-0.00172244
-0.000196617
-0.00175825
-0.000227283
-0.00178935
-0.000258721
-0.00181851
-0.000290851
-0.00184746
-0.000323645
-0.00187719
-0.000357103
-0.00190825
-0.000391244
-0.0019409
-0.000426099
-0.00197527
-0.000461703
-0.0020114
-0.000498099
-0.00204935
-0.000535335
-0.00208911
-0.00057347
-0.0021307
-0.000612557
-0.00217409
-0.000652683
-0.00221935
-0.00226611
-0.000693927
-1.62859e-06
-0.000203922
-6.87927e-06
-0.00054795
-1.6073e-05
-0.000838914
-2.92876e-05
-0.00107682
-4.63461e-05
-0.00126472
-6.68659e-05
-0.00140828
-9.03387e-05
-0.00151496
-0.000116216
-0.00159292
-0.000143983
-0.00165004
-0.000173205
-0.00169322
-0.000203552
-0.00172791
-0.000234795
-0.00175811
-0.000266797
-0.00178651
-0.000299486
-0.00181477
-0.000332837
-0.00184384
-0.000366853
-0.00187424
-0.000401555
-0.0019062
-0.000436973
-0.00193985
-0.000473142
-0.00197523
-0.000510105
-0.00201238
-0.000547905
-0.00205131
-0.000586592
-0.00209201
-0.000626213
-0.00213447
-0.000666829
-0.00217874
-0.00222447
-0.000708471
-1.80826e-06
-0.000202113
-7.50211e-06
-0.000542256
-1.73188e-05
-0.000829097
-3.12603e-05
-0.00106288
-4.90876e-05
-0.00124689
-7.03736e-05
-0.00138699
-9.45825e-05
-0.00149075
-0.000121154
-0.00156634
-0.000149572
-0.00162163
-0.000179407
-0.00166338
-0.000210338
-0.00169697
-0.000242147
-0.0017263
-0.000274703
-0.00175395
-0.000307939
-0.00178153
-0.000341836
-0.00180995
-0.000376399
-0.00183968
-0.000411649
-0.00187095
-0.000447618
-0.00190388
-0.000484341
-0.00193851
-0.000521857
-0.00197487
-0.000560207
-0.00201296
-0.000599435
-0.00205278
-0.00063958
-0.00209432
-0.000680687
-0.00213763
-0.00218239
-0.00072277
-1.98604e-06
-0.000200127
-8.11693e-06
-0.000536125
-1.85461e-05
-0.000818668
-3.32001e-05
-0.00104823
-5.17793e-05
-0.00122831
-7.38131e-05
-0.00136496
-9.87398e-05
-0.00146582
-0.000125988
-0.0015391
-0.00015504
-0.00159257
-0.000185474
-0.00163295
-0.000216976
-0.00166547
-0.000249338
-0.00169394
-0.000282435
-0.00172085
-0.000316209
-0.00174776
-0.000350641
-0.00177551
-0.000385739
-0.00180458
-0.000421527
-0.00183516
-0.000458036
-0.00186737
-0.000495299
-0.00190125
-0.000533356
-0.00193681
-0.000572244
-0.00197407
-0.000612003
-0.00201302
-0.000652666
-0.00205366
-0.000694268
-0.00209603
-0.00213984
-0.000736817
-2.16177e-06
-0.000197966
-8.72321e-06
-0.000529563
-1.9754e-05
-0.000807637
-3.5106e-05
-0.00103288
-5.44199e-05
-0.001209
-7.71832e-05
-0.0013422
-0.000102809
-0.0014402
-0.000130716
-0.00151119
-0.000160387
-0.0015629
-0.000191404
-0.00160193
-0.000223465
-0.00163341
-0.000256367
-0.00166103
-0.000289995
-0.00168722
-0.000324294
-0.00171346
-0.00035925
-0.00174056
-0.000394874
-0.00176895
-0.000431188
-0.00179885
-0.000468224
-0.00183033
-0.000506017
-0.00186345
-0.000544603
-0.00189823
-0.000584019
-0.00193466
-0.000624299
-0.00197274
-0.000665475
-0.00201248
-0.000707574
-0.00205393
-0.00209681
-0.000750607
-2.33527e-06
-0.00019563
-9.32049e-06
-0.000522578
-2.09417e-05
-0.000796016
-3.69769e-05
-0.00101684
-5.70084e-05
-0.00118897
-8.04828e-05
-0.00131872
-0.00010679
-0.00141389
-0.000135339
-0.00148264
-0.000165612
-0.00153263
-0.000197199
-0.00157034
-0.000229804
-0.00160081
-0.000263235
-0.0016276
-0.000297382
-0.00165308
-0.000332195
-0.00167864
-0.000367664
-0.00170509
-0.000403801
-0.00173282
-0.000440631
-0.00176202
-0.000478184
-0.00179278
-0.000516495
-0.00182514
-0.000555599
-0.00185912
-0.000595532
-0.00189472
-0.000636325
-0.00193195
-0.000678008
-0.0019708
-0.000720607
-0.00201133
-0.00205328
-0.000764133
-2.50641e-06
-0.000193124
-9.90829e-06
-0.000515176
-2.21085e-05
-0.000783816
-3.88118e-05
-0.00100014
-5.95436e-05
-0.00116823
-8.3711e-05
-0.00129455
-0.000110681
-0.00138692
-0.000139854
-0.00145347
-0.000170714
-0.00150177
-0.000202856
-0.0015382
-0.000235993
-0.00156767
-0.00026994
-0.00159366
-0.000304594
-0.00161842
-0.000339911
-0.00164333
-0.000375882
-0.00166912
-0.000412522
-0.00169618
-0.000449856
-0.00172468
-0.000487914
-0.00175472
-0.000526732
-0.00178632
-0.000566344
-0.00181951
-0.000606784
-0.00185429
-0.000648082
-0.00189065
-0.000690268
-0.00192862
-0.000733365
-0.00196823
-0.00200926
-0.00077739
-2.67502e-06
-0.000190449
-1.04862e-05
-0.000507365
-2.32535e-05
-0.000771048
-4.06099e-05
-0.000982781
-6.20246e-05
-0.00114682
-8.68668e-05
-0.00126971
-0.000114482
-0.0013593
-0.000144263
-0.00142369
-0.000175693
-0.00147034
-0.000208376
-0.00150552
-0.000242031
-0.00153401
-0.000276483
-0.00155921
-0.000311633
-0.00158327
-0.000347442
-0.00160752
-0.000383904
-0.00163266
-0.000421035
-0.00165905
-0.000458862
-0.00168686
-0.000497415
-0.00171617
-0.000536729
-0.00174701
-0.000576838
-0.0017794
-0.000617775
-0.00181335
-0.000659571
-0.00184886
-0.000702253
-0.00188593
-0.000745847
-0.00192464
-0.00196473
-2.84097e-06
-0.000187608
-1.10538e-05
-0.000499152
-2.43762e-05
-0.000757726
-4.23702e-05
-0.000964787
-6.44505e-05
-0.00112474
-8.99494e-05
-0.00124421
-0.000118192
-0.00133106
-0.000148563
-0.00139332
-0.000180549
-0.00143835
-0.000213758
-0.00147231
-0.000247919
-0.00149985
-0.000282862
-0.00152426
-0.000318497
-0.00154764
-0.000354786
-0.00157123
-0.000391728
-0.00159571
-0.00042934
-0.00162143
-0.000467649
-0.00164855
-0.000506686
-0.00167713
-0.000546486
-0.00170721
-0.000587082
-0.0017388
-0.000628507
-0.00177192
-0.000670791
-0.00180657
-0.000713963
-0.00184276
-0.00075805
-0.00188055
-0.00191971
-3.0041e-06
-0.000184604
-1.16106e-05
-0.000490546
-2.54759e-05
-0.000743861
-4.4092e-05
-0.00094617
-6.68204e-05
-0.00110201
-9.29579e-05
-0.00121808
-0.00012181
-0.00130221
-0.000152755
-0.00136237
-0.000185281
-0.00140583
-0.000219003
-0.00143859
-0.000253656
-0.0014652
-0.000289078
-0.00148884
-0.000325185
-0.00151153
-0.000361944
-0.00153447
-0.000399355
-0.0015583
-0.000437436
-0.00158335
-0.000476216
-0.00160977
-0.000515726
-0.00163762
-0.000556001
-0.00166694
-0.000597074
-0.00169773
-0.000638977
-0.00173002
-0.000681743
-0.0017638
-0.000725398
-0.00179911
-0.000769971
-0.00183598
-0.0018742
-3.16428e-06
-0.00018144
-1.21563e-05
-0.000481554
-2.65519e-05
-0.000729465
-4.57745e-05
-0.000926948
-6.91336e-05
-0.00107865
-9.58916e-05
-0.00119132
-0.000125336
-0.00127276
-0.000156838
-0.00133087
-0.000189889
-0.00137278
-0.000224109
-0.00140437
-0.000259241
-0.00143007
-0.000295131
-0.00145295
-0.000331699
-0.00147496
-0.000368916
-0.00149725
-0.000406784
-0.00152043
-0.000445324
-0.00154481
-0.000484564
-0.00157053
-0.000524536
-0.00159765
-0.000565275
-0.0016262
-0.000606814
-0.00165619
-0.000649186
-0.00168765
-0.000692423
-0.00172057
-0.000736554
-0.00175498
-0.000781609
-0.00179092
-3.32139e-06
-0.000178118
-1.26906e-05
-0.000472185
-2.76037e-05
-0.000714552
-4.7417e-05
-0.000907134
-7.13892e-05
-0.00105468
-9.87498e-05
-0.00116396
-0.000128769
-0.00124274
-0.000160812
-0.00129883
-0.000194372
-0.00133922
-0.000229076
-0.00136966
-0.000264675
-0.00139447
-0.00030102
-0.0014166
-0.000338037
-0.00143795
-0.0003757
-0.00145959
-0.000414015
-0.00148212
-0.000453002
-0.00150583
-0.000492691
-0.00153084
-0.000533114
-0.00155722
-0.000574306
-0.001585
-0.000616301
-0.0016142
-0.000659133
-0.00164482
-0.000702833
-0.00167687
-0.000747431
-0.00171038
-0.0017454
-3.4753e-06
-0.000174643
-1.3213e-05
-0.000462447
-2.86308e-05
-0.000699134
-4.90188e-05
-0.000886746
-7.35866e-05
-0.00103011
-0.000101532
-0.00113601
-0.000132108
-0.00121217
-0.000164676
-0.00126626
-0.00019873
-0.00130516
-0.000233904
-0.00133449
-0.000269956
-0.00135842
-0.000306744
-0.00137982
-0.000344199
-0.00140049
-0.000382297
-0.00142149
-0.000421047
-0.00144337
-0.00046047
-0.0014664
-0.000500596
-0.00149071
-0.00054146
-0.00151636
-0.000583095
-0.00154337
-0.000625536
-0.00157176
-0.000668816
-0.00160154
-0.000712969
-0.00163271
-0.000758025
-0.00166532
-0.0016994
-3.62589e-06
-0.000171017
-1.37233e-05
-0.000452349
-2.96325e-05
-0.000683225
-5.05792e-05
-0.0008658
-7.57251e-05
-0.00100497
-0.000104237
-0.0011075
-0.000135353
-0.00118105
-0.000168429
-0.00123318
-0.000202963
-0.00127063
-0.000238593
-0.00129886
-0.000275086
-0.00132192
-0.000312305
-0.0013426
-0.000350184
-0.00136261
-0.000388706
-0.00138297
-0.000427879
-0.0014042
-0.000467727
-0.00142656
-0.00050828
-0.00145016
-0.000549573
-0.00147507
-0.00059164
-0.0015013
-0.000634515
-0.00152888
-0.000678235
-0.00155782
-0.000722831
-0.00158812
-0.000768336
-0.00161982
-3.77304e-06
-0.000167244
-1.42212e-05
-0.000441901
-3.06085e-05
-0.000666838
-5.20977e-05
-0.00084431
-7.78042e-05
-0.000979259
-0.000106865
-0.00107844
-0.000138504
-0.00114941
-0.000172072
-0.00119961
-0.00020707
-0.00123563
-0.000243143
-0.00126279
-0.000280063
-0.001285
-0.0003177
-0.00130496
-0.000355993
-0.00132432
-0.000394927
-0.00134404
-0.000434512
-0.00136461
-0.000474773
-0.00138629
-0.000515742
-0.00140919
-0.000557452
-0.00143336
-0.00059994
-0.00145882
-0.00064324
-0.00148558
-0.000687387
-0.00151367
-0.000732416
-0.00154309
-0.00157387
-3.91665e-06
-0.000163327
-1.47062e-05
-0.000431112
-3.15582e-05
-0.000649986
-5.35738e-05
-0.000822295
-7.98232e-05
-0.000953009
-0.000109416
-0.00104885
-0.00014156
-0.00111727
-0.000175604
-0.00116557
-0.000211051
-0.00120019
-0.000247553
-0.00122628
-0.000284887
-0.00124767
-0.000322931
-0.00126692
-0.000361625
-0.00128562
-0.000400959
-0.0013047
-0.000440945
-0.00132463
-0.000481608
-0.00134563
-0.00052298
-0.00136782
-0.000565097
-0.00139124
-0.000607994
-0.00141592
-0.000651708
-0.00144187
-0.000696272
-0.0014691
-0.000741724
-0.00149764
-0.0015275
-4.05661e-06
-0.000159271
-1.51782e-05
-0.00041999
-3.24812e-05
-0.000632683
-5.50067e-05
-0.000799769
-8.17815e-05
-0.000926234
-0.000111888
-0.00101874
-0.00014452
-0.00108464
-0.000179024
-0.00113107
-0.000214906
-0.0011643
-0.000251823
-0.00118937
-0.000289559
-0.00120993
-0.000327996
-0.00122848
-0.00036708
-0.00124654
-0.000406803
-0.00126498
-0.000447177
-0.00128425
-0.00048823
-0.00130458
-0.000529995
-0.00132606
-0.000572507
-0.00134873
-0.000615802
-0.00137262
-0.000659917
-0.00139775
-0.000704889
-0.00142413
-0.000750751
-0.00145178
-0.00148071
-4.19281e-06
-0.000155078
-1.56369e-05
-0.000408546
-3.33771e-05
-0.000614942
-5.63962e-05
-0.00077675
-8.36788e-05
-0.000898952
-0.000114281
-0.000988138
-0.000147385
-0.00105153
-0.000182333
-0.00109612
-0.000218635
-0.001128
-0.000255953
-0.00115205
-0.000294078
-0.00117181
-0.000332895
-0.00118966
-0.000372358
-0.00120708
-0.000412456
-0.00122488
-0.000453208
-0.0012435
-0.000494639
-0.00126315
-0.000536785
-0.00128391
-0.000579681
-0.00130583
-0.000623363
-0.00132894
-0.000667868
-0.00135325
-0.000713234
-0.00137877
-0.000759497
-0.00140551
-4.32516e-06
-0.000150753
-1.60819e-05
-0.000396789
-3.42454e-05
-0.000596779
-5.77416e-05
-0.000753254
-8.55144e-05
-0.000871179
-0.000116595
-0.000957057
-0.000150154
-0.00101797
-0.00018553
-0.00106074
-0.000222237
-0.0010913
-0.000259943
-0.00111434
-0.000298443
-0.00113331
-0.000337629
-0.00115048
-0.000377457
-0.00116725
-0.00041792
-0.00118442
-0.000459037
-0.00120238
-0.000500835
-0.00122135
-0.00054335
-0.0012414
-0.000586617
-0.00126257
-0.000630674
-0.00128488
-0.000675559
-0.00130836
-0.000721308
-0.00133302
-0.00135886
-4.45358e-06
-0.000146299
-1.65132e-05
-0.00038473
-3.50858e-05
-0.000578206
-5.90425e-05
-0.000729298
-8.7288e-05
-0.000842933
-0.000118829
-0.000925516
-0.000152826
-0.000983976
-0.000188615
-0.00102495
-0.000225713
-0.0010542
-0.000263792
-0.00107626
-0.000302655
-0.00109445
-0.000342197
-0.00111093
-0.000382378
-0.00112707
-0.000423194
-0.0011436
-0.000464663
-0.00116092
-0.000506817
-0.0011792
-0.000549689
-0.00119852
-0.000593316
-0.00121894
-0.000637736
-0.00124046
-0.000682988
-0.00126311
-0.000729109
-0.0012869
-0.00131183
-4.57796e-06
-0.000141721
-1.69303e-05
-0.000372377
-3.5898e-05
-0.000559239
-6.02985e-05
-0.000704897
-8.89991e-05
-0.000814233
-0.000120984
-0.000893531
-0.000155402
-0.000949558
-0.000191588
-0.000988766
-0.000229061
-0.00101673
-0.0002675
-0.00103783
-0.000306713
-0.00105523
-0.000346599
-0.00107105
-0.00038712
-0.00108655
-0.000428277
-0.00110245
-0.000470087
-0.0011191
-0.000512584
-0.0011367
-0.0005558
-0.00115531
-0.000599776
-0.00117496
-0.000644547
-0.00119569
-0.000690154
-0.0012175
-0.000736634
-0.00124042
-0.00126444
-4.69823e-06
-0.000137023
-1.73332e-05
-0.000359742
-3.66815e-05
-0.00053989
-6.15093e-05
-0.000680069
-9.06474e-05
-0.000785095
-0.000123058
-0.00086112
-0.000157881
-0.000914735
-0.000194448
-0.000952198
-0.000232283
-0.000978892
-0.000271068
-0.00099904
-0.000310617
-0.00101568
-0.000350834
-0.00103083
-0.000391684
-0.0010457
-0.000433168
-0.00106096
-0.000475308
-0.00107696
-0.000518135
-0.00109387
-0.000561685
-0.00111176
-0.000605996
-0.00113065
-0.000651106
-0.00115058
-0.000697056
-0.00117155
-0.000743884
-0.00119359
-4.8143e-06
-0.000132209
-1.77215e-05
-0.000346835
-3.7436e-05
-0.000520176
-6.26743e-05
-0.000654831
-9.22324e-05
-0.000755537
-0.000125052
-0.000828301
-0.000160262
-0.000879525
-0.000197196
-0.000915265
-0.000235377
-0.000940711
-0.000274495
-0.000959922
-0.000314367
-0.000975811
-0.000354902
-0.000990296
-0.000396068
-0.00100453
-0.000437868
-0.00101916
-0.000480325
-0.00103451
-0.00052347
-0.00105073
-0.000567341
-0.00106789
-0.000611975
-0.00108602
-0.000657412
-0.00110514
-0.000703692
-0.00112527
-0.00114643
-4.92609e-06
-0.000127283
-1.80951e-05
-0.000333666
-3.81613e-05
-0.000500109
-6.37933e-05
-0.000629199
-9.37538e-05
-0.000725576
-0.000126965
-0.00079509
-0.000162546
-0.000843943
-0.00019983
-0.000877981
-0.000238344
-0.000902197
-0.00027778
-0.000920485
-0.000317963
-0.000935629
-0.000358804
-0.000949455
-0.000400273
-0.000963063
-0.000442376
-0.000977058
-0.000485137
-0.000991747
-0.000528588
-0.00100728
-0.000572767
-0.00102371
-0.000617713
-0.00104107
-0.000663464
-0.00105939
-0.000710062
-0.00107868
-0.00109894
-5.03355e-06
-0.000122249
-1.84538e-05
-0.000320246
-3.88571e-05
-0.000479706
-6.4866e-05
-0.00060319
-9.52113e-05
-0.000695231
-0.000128796
-0.000761505
-0.000164733
-0.000808006
-0.000202352
-0.000840363
-0.000241183
-0.000863366
-0.000280924
-0.000880743
-0.000321404
-0.000895149
-0.000362537
-0.000908322
-0.000404298
-0.000921303
-0.000446692
-0.000934664
-0.000489744
-0.000948694
-0.000533489
-0.000963531
-0.000577964
-0.000979233
-0.000623208
-0.00099583
-0.000669261
-0.00101334
-0.000716164
-0.00103177
-0.00105115
-5.13658e-06
-0.000117112
-1.87974e-05
-0.000306585
-3.9523e-05
-0.000458981
-6.58919e-05
-0.000576821
-9.66045e-05
-0.000664518
-0.000130546
-0.000727563
-0.000166821
-0.000771731
-0.000204759
-0.000802425
-0.000243894
-0.000824232
-0.000283927
-0.00084071
-0.00032469
-0.000854386
-0.000366104
-0.000866909
-0.000408142
-0.000879264
-0.000450814
-0.000891991
-0.000494146
-0.000905362
-0.000538172
-0.000919505
-0.00058293
-0.000934475
-0.00062846
-0.0009503
-0.000674802
-0.000966997
-0.000721998
-0.000984578
-0.00100306
-5.23513e-06
-0.000111877
-1.91258e-05
-0.000292694
-4.01588e-05
-0.000437948
-6.68708e-05
-0.000550109
-9.79332e-05
-0.000633456
-0.000132214
-0.000693282
-0.000168812
-0.000735133
-0.000207054
-0.000764183
-0.000246477
-0.000784809
-0.000286788
-0.000800399
-0.000327822
-0.000813352
-0.000369502
-0.000825229
-0.000411806
-0.00083696
-0.000454744
-0.000849053
-0.000498343
-0.000861764
-0.000542637
-0.000875211
-0.000587665
-0.000889447
-0.000633468
-0.000904498
-0.000680086
-0.000920379
-0.000727561
-0.000937103
-5.32914e-06
-0.000106548
-1.94387e-05
-0.000278585
-4.07643e-05
-0.000416622
-6.78025e-05
-0.000523071
-9.9197e-05
-0.000602061
-0.000133801
-0.000658679
-0.000170704
-0.00069823
-0.000209235
-0.000725652
-0.000248932
-0.000745112
-0.000289507
-0.000759824
-0.000330798
-0.00077206
-0.000372732
-0.000783295
-0.000415289
-0.000794403
-0.00045848
-0.000805862
-0.000502332
-0.000817911
-0.000546882
-0.000830661
-0.000592168
-0.000844161
-0.000638231
-0.000858435
-0.000685111
-0.000873498
-0.000889362
-5.41854e-06
-0.00010113
-1.9736e-05
-0.000264267
-4.13393e-05
-0.000395019
-6.86866e-05
-0.000495724
-0.000100396
-0.000570352
-0.000135305
-0.00062377
-0.000172498
-0.000661037
-0.000211302
-0.000686848
-0.000251258
-0.000705155
-0.000292083
-0.000718999
-0.000333619
-0.000730525
-0.000375794
-0.00074112
-0.00041859
-0.000751607
-0.000462021
-0.000762432
-0.000506115
-0.000773818
-0.000550907
-0.000785868
-0.000596438
-0.00079863
-0.000642747
-0.000812125
-0.000689878
-0.000826367
-0.000841368
-5.50329e-06
-9.56264e-05
-2.00176e-05
-0.000249753
-4.18834e-05
-0.000373153
-6.95229e-05
-0.000468084
-0.000101529
-0.000538346
-0.000136726
-0.000588573
-0.000174192
-0.000623571
-0.000213254
-0.000647786
-0.000253457
-0.000664953
-0.000294518
-0.000677938
-0.000336284
-0.000688759
-0.000378687
-0.000698717
-0.00042171
-0.000708583
-0.000465368
-0.000718774
-0.00050969
-0.000729496
-0.000554712
-0.000740846
-0.000600474
-0.000752868
-0.000647018
-0.000765581
-0.000694385
-0.000779
-0.000793134
-5.58331e-06
-9.00431e-05
-2.02833e-05
-0.000235053
-4.23966e-05
-0.000351039
-7.03112e-05
-0.00044017
-0.000102597
-0.00050606
-0.000138065
-0.000553105
-0.000175788
-0.000585848
-0.000215093
-0.000608481
-0.000255526
-0.00062452
-0.00029681
-0.000636654
-0.000338794
-0.000646775
-0.000381411
-0.0006561
-0.000424648
-0.000665346
-0.000468521
-0.000674902
-0.000513057
-0.000684959
-0.000558296
-0.000695608
-0.000604277
-0.000706887
-0.000651041
-0.000718817
-0.000698631
-0.000731409
-0.000744675
-5.65858e-06
-8.43845e-05
-2.0533e-05
-0.000220179
-4.28786e-05
-0.000328694
-7.10513e-05
-0.000411997
-0.000103599
-0.000473512
-0.000139321
-0.000517383
-0.000177285