/*--------------------------------*- C++ -*----------------------------------*\
  =========                 |
  \\      /  F ield         | OpenFOAM: The Open Source CFD Toolbox
   \\    /   O peration     | Website:  https://openfoam.org
    \\  /    A nd           | Version:  7
     \\/     M anipulation  |
\*---------------------------------------------------------------------------*/
FoamFile
{
    version     2.0;
    format      ascii;
    class       volScalarField;
    location    "180";
    object      p;
}
// * * * * * * * * * * * * * * * * * * * * * * * * * * * * * * * * * * * * * //

dimensions      [0 2 -2 0 0 0 0];

internalField   nonuniform List<scalar> 
4575
(
-0.0888074
-0.103292
-0.121393
-0.13432
-0.134257
-0.121055
-0.102001
-0.0848226
-0.0730719
-0.0663968
-0.064813
-0.069496
-0.0790495
-0.0876932
-0.0892745
-0.0824234
-0.0714231
-0.0612981
-0.0539895
-0.0499143
-0.0497554
-0.0523498
-0.0544701
-0.0535034
-0.0872289
-0.101036
-0.118552
-0.131193
-0.13126
-0.118527
-0.100117
-0.0836246
-0.0725104
-0.0664029
-0.0653868
-0.0706805
-0.080823
-0.089895
-0.0916073
-0.0845417
-0.0730608
-0.0623537
-0.0544862
-0.0498708
-0.0491651
-0.0512577
-0.0530075
-0.0519258
-0.0856103
-0.0987382
-0.11567
-0.128031
-0.128235
-0.115975
-0.0982087
-0.0823987
-0.0719186
-0.0663795
-0.0659337
-0.0718409
-0.0825763
-0.0920832
-0.0939341
-0.0866579
-0.0746938
-0.0633989
-0.0549703
-0.0498183
-0.0485735
-0.0501738
-0.0515603
-0.050364
-0.083957
-0.0964048
-0.112754
-0.124839
-0.125187
-0.113402
-0.0962767
-0.0811448
-0.0712955
-0.0663247
-0.0664512
-0.0729738
-0.0843054
-0.0942537
-0.0962517
-0.0887701
-0.0763213
-0.0644339
-0.0554425
-0.0497578
-0.0479817
-0.0490998
-0.0501302
-0.0488191
-0.0822742
-0.0940417
-0.109809
-0.121621
-0.122119
-0.11081
-0.0943224
-0.079863
-0.0706404
-0.066237
-0.0669366
-0.0740755
-0.0860063
-0.0964029
-0.098557
-0.0908763
-0.0779426
-0.0654588
-0.0559034
-0.0496904
-0.0473911
-0.0480371
-0.0487184
-0.0472922
-0.0805675
-0.091655
-0.106841
-0.118384
-0.119034
-0.108202
-0.0923469
-0.0785533
-0.0699523
-0.0661147
-0.0673874
-0.0751429
-0.0876751
-0.0985266
-0.100847
-0.0929746
-0.079557
-0.0664738
-0.0563536
-0.0496171
-0.046803
-0.0469869
-0.0473261
-0.0457842
-0.0788419
-0.0892507
-0.103857
-0.115131
-0.115937
-0.10558
-0.0903515
-0.077216
-0.0692306
-0.0659564
-0.0678012
-0.0761725
-0.0893078
-0.100621
-0.103118
-0.0950629
-0.0811637
-0.0674791
-0.0567938
-0.0495387
-0.0462186
-0.0459506
-0.0459547
-0.0442961
-0.0771028
-0.0868346
-0.100863
-0.111868
-0.112831
-0.102946
-0.0883376
-0.0758514
-0.0684748
-0.0657606
-0.0681757
-0.077161
-0.0909007
-0.102683
-0.105367
-0.0971393
-0.082762
-0.068475
-0.0572246
-0.0494563
-0.0456388
-0.0449294
-0.0446051
-0.0428288
-0.075355
-0.0844125
-0.0978629
-0.1086
-0.10972
-0.100303
-0.0863067
-0.0744599
-0.0676843
-0.065526
-0.0685084
-0.0781052
-0.0924499
-0.104707
-0.107591
-0.0992017
-0.0843513
-0.0694615
-0.0576468
-0.0493708
-0.0450648
-0.0439242
-0.0432786
-0.0413833
-0.0736036
-0.0819901
-0.0948641
-0.105332
-0.106608
-0.0976543
-0.0842603
-0.0730423
-0.066859
-0.0652514
-0.0687971
-0.0790019
-0.0939517
-0.106691
-0.109787
-0.101248
-0.0859308
-0.0704391
-0.0580609
-0.049283
-0.0444976
-0.0429361
-0.041976
-0.0399604
-0.0795729
-0.0918718
-0.102068
-0.103502
-0.0950015
-0.0822002
-0.0715991
-0.0659987
-0.0649356
-0.0690398
-0.0798482
-0.0954025
-0.108631
-0.111952
-0.103277
-0.0874998
-0.071408
-0.0584676
-0.0491937
-0.0439379
-0.0419661
-0.0406983
-0.0385609
-0.0771663
-0.0888912
-0.0988145
-0.100408
-0.0923474
-0.080128
-0.0701313
-0.0651032
-0.0645778
-0.0692344
-0.0806411
-0.0967989
-0.110523
-0.114083
-0.105286
-0.0890577
-0.0723684
-0.0588676
-0.0491037
-0.0433867
-0.0410148
-0.0394462
-0.0371856
-0.0747754
-0.0859278
-0.095575
-0.0973055
-0.0896946
-0.0780456
-0.0686398
-0.0641726
-0.064177
-0.0693791
-0.0813778
-0.0981375
-0.112364
-0.116177
-0.107272
-0.0906035
-0.0733206
-0.0592616
-0.0490139
-0.0428446
-0.0400831
-0.0382206
-0.0358352
-0.0724053
-0.0829866
-0.0923545
-0.0942129
-0.0870458
-0.075955
-0.0671257
-0.0632073
-0.0637325
-0.069472
-0.0820557
-0.099415
-0.11415
-0.118231
-0.109235
-0.0921368
-0.074265
-0.0596502
-0.0489249
-0.0423125
-0.0391715
-0.0370221
-0.0345105
-0.0700606
-0.0800726
-0.0891577
-0.0911362
-0.0844042
-0.073858
-0.0655903
-0.0622075
-0.0632439
-0.0695118
-0.0826723
-0.100629
-0.115879
-0.120242
-0.111173
-0.0936565
-0.0752017
-0.0600341
-0.0488374
-0.0417909
-0.0382806
-0.0358513
-0.033212
-0.067746
-0.0771906
-0.0859891
-0.0880805
-0.0817724
-0.0717568
-0.064035
-0.0611739
-0.0627106
-0.0694968
-0.0832254
-0.101775
-0.117546
-0.122207
-0.113082
-0.0951621
-0.0761311
-0.0604139
-0.0487522
-0.0412803
-0.037411
-0.0347087
-0.0319404
-0.0654658
-0.0743451
-0.0828533
-0.0850497
-0.0791531
-0.0696535
-0.0624612
-0.060107
-0.0621324
-0.0694258
-0.0837127
-0.102852
-0.11915
-0.124123
-0.114962
-0.0966527
-0.0770534
-0.0607903
-0.0486698
-0.0407814
-0.0365629
-0.0335947
-0.0306963
-0.0632239
-0.0715405
-0.0797546
-0.082046
-0.0765489
-0.0675503
-0.0608705
-0.0590077
-0.0615092
-0.0692978
-0.0841324
-0.103857
-0.120688
-0.125988
-0.11681
-0.0981275
-0.0779688
-0.0611639
-0.0485909
-0.0402945
-0.0357367
-0.0325097
-0.0294801
-0.0610241
-0.068781
-0.0766973
-0.0790728
-0.0739626
-0.0654494
-0.0592647
-0.057877
-0.060841
-0.0691118
-0.0844826
-0.104787
-0.122157
-0.1278
-0.118624
-0.0995856
-0.0788776
-0.0615354
-0.0485161
-0.0398201
-0.0349326
-0.031454
-0.0282923
-0.0588699
-0.0660705
-0.0736853
-0.076134
-0.0713969
-0.0633531
-0.0576456
-0.0567159
-0.0601281
-0.0688672
-0.0847619
-0.105641
-0.123554
-0.129556
-0.120403
-0.101026
-0.0797799
-0.0619052
-0.0484459
-0.0393584
-0.0341507
-0.0304278
-0.0271335
-0.0567644
-0.0634126
-0.0707225
-0.0732329
-0.0688545
-0.0612639
-0.0560151
-0.0555256
-0.0593709
-0.0685633
-0.0849688
-0.106416
-0.124877
-0.131253
-0.122145
-0.102449
-0.0806759
-0.0622742
-0.0483809
-0.0389099
-0.0333913
-0.0294312
-0.0260038
-0.0547104
-0.0608106
-0.0678125
-0.070373
-0.0663382
-0.059184
-0.0543752
-0.0543077
-0.0585699
-0.0681998
-0.0851023
-0.107112
-0.126125
-0.13289
-0.123848
-0.103851
-0.0815656
-0.0626427
-0.0483215
-0.0384747
-0.0326542
-0.0284644
-0.0249037
-0.0527106
-0.0582678
-0.0649586
-0.0675575
-0.0638506
-0.0571159
-0.052728
-0.0530635
-0.0577257
-0.0677765
-0.0851613
-0.107725
-0.127295
-0.134465
-0.125511
-0.105234
-0.0824492
-0.0630114
-0.0482682
-0.0380531
-0.0319395
-0.0275271
-0.0238335
-0.050767
-0.0557869
-0.0621641
-0.0647893
-0.0613946
-0.0550619
-0.0510756
-0.0517947
-0.0568394
-0.0672935
-0.0851452
-0.108256
-0.128387
-0.135975
-0.127131
-0.106596
-0.0833267
-0.0633809
-0.0482216
-0.0376453
-0.031247
-0.0266195
-0.0227932
-0.0488817
-0.0533703
-0.0594319
-0.0620715
-0.0589728
-0.0530246
-0.0494204
-0.050503
-0.0559119
-0.066751
-0.0850534
-0.108703
-0.129397
-0.137419
-0.128706
-0.107935
-0.0841981
-0.0637516
-0.048182
-0.0372514
-0.0305767
-0.0257414
-0.0217832
-0.0470564
-0.0510204
-0.0567647
-0.0594071
-0.056588
-0.0510063
-0.0477646
-0.0491905
-0.0549444
-0.0661495
-0.0848856
-0.109065
-0.130326
-0.138795
-0.130236
-0.109251
-0.0850632
-0.0641241
-0.0481498
-0.0368716
-0.0299282
-0.0248926
-0.0208035
-0.0452923
-0.0487388
-0.0541649
-0.0567993
-0.0542431
-0.0490095
-0.0461105
-0.0478589
-0.0539382
-0.0654894
-0.0846417
-0.109342
-0.131173
-0.140101
-0.131719
-0.110543
-0.0859221
-0.0644989
-0.0481255
-0.0365059
-0.0293013
-0.0240727
-0.0198542
-0.0435907
-0.0465271
-0.0516347
-0.0542506
-0.0519407
-0.0470366
-0.0444604
-0.0465105
-0.052895
-0.0647717
-0.0843217
-0.109533
-0.131935
-0.141337
-0.133153
-0.11181
-0.0867745
-0.0648764
-0.0481095
-0.0361545
-0.0286958
-0.0232816
-0.0189354
-0.0419525
-0.0443864
-0.0491758
-0.0517637
-0.0496837
-0.0450901
-0.0428169
-0.0451473
-0.0518162
-0.0639973
-0.0839261
-0.109638
-0.132613
-0.1425
-0.134537
-0.11305
-0.0876201
-0.065257
-0.048102
-0.0358174
-0.0281113
-0.0225188
-0.0180468
-0.0403782
-0.0423174
-0.0467898
-0.049341
-0.0474748
-0.0431726
-0.0411823
-0.0437717
-0.0507038
-0.0631673
-0.0834551
-0.109657
-0.133207
-0.143591
-0.135868
-0.114263
-0.0884588
-0.0656412
-0.0481036
-0.0354947
-0.0275473
-0.0217839
-0.0171885
-0.0388683
-0.0403206
-0.0444777
-0.0469845
-0.0453168
-0.0412865
-0.039559
-0.042386
-0.0495595
-0.062283
-0.0829096
-0.109591
-0.133715
-0.144607
-0.137147
-0.115447
-0.08929
-0.0660293
-0.0481143
-0.0351864
-0.0270036
-0.0210765
-0.0163604
-0.0374235
-0.0383964
-0.0422407
-0.0446963
-0.0432124
-0.0394344
-0.0379496
-0.0409926
-0.0483855
-0.0613461
-0.0822904
-0.109439
-0.134139
-0.145548
-0.138371
-0.116601
-0.0901133
-0.0664215
-0.0481347
-0.0348926
-0.0264797
-0.020396
-0.0155622
-0.0360445
-0.036545
-0.0400797
-0.0424787
-0.041165
-0.0376193
-0.0363567
-0.039594
-0.047184
-0.0603581
-0.0815984
-0.109203
-0.134477
-0.146413
-0.139538
-0.117724
-0.0909286
-0.0668188
-0.0481654
-0.0346136
-0.0259754
-0.0197421
-0.0147939
-0.0347308
-0.0347656
-0.0379941
-0.0403331
-0.0391767
-0.0358442
-0.0347832
-0.038193
-0.0459573
-0.0593209
-0.0808349
-0.108882
-0.13473
-0.147201
-0.140648
-0.118816
-0.091736
-0.0672216
-0.0482069
-0.0343494
-0.0254902
-0.0191141
-0.0140554
-0.0334777
-0.0330532
-0.035979
-0.0382563
-0.0372471
-0.034111
-0.0332315
-0.0367922
-0.0447079
-0.0582365
-0.0800012
-0.108478
-0.134899
-0.147912
-0.141701
-0.119876
-0.0925337
-0.0676276
-0.0482569
-0.034098
-0.0250218
-0.0185096
-0.0133444
-0.0322814
-0.0314062
-0.0340304
-0.0362425
-0.0354
-0.0324179
-0.0317019
-0.0353927
-0.0434373
-0.0571068
-0.0790993
-0.107994
-0.134987
-0.148552
-0.142702
-0.120901
-0.0933147
-0.0680303
-0.0483106
-0.0338565
-0.024568
-0.0179257
-0.0126584
-0.0311669
-0.0298494
-0.032175
-0.0343168
-0.0335831
-0.030772
-0.0301984
-0.0339976
-0.0421479
-0.0559338
-0.0781312
-0.10743
-0.134994
-0.149114
-0.143632
-0.121877
-0.0940763
-0.068437
-0.0483785
-0.0336341
-0.0241372
-0.0173718
-0.012007
-0.0301899
-0.0284235
-0.030469
-0.0325623
-0.0318799
-0.0292334
-0.0287583
-0.0326334
-0.0408586
-0.0547249
-0.0770915
-0.106766
-0.134871
-0.14952
-0.144426
-0.122796
-0.0948593
-0.0689048
-0.0485104
-0.0334659
-0.0237572
-0.0168782
-0.0114256
-0.0292626
-0.0270155
-0.0287937
-0.0309012
-0.030343
-0.0278364
-0.0274224
-0.0313363
-0.0395984
-0.0534936
-0.0759653
-0.105952
-0.134554
-0.149743
-0.14512
-0.123746
-0.0957386
-0.0694717
-0.0487145
-0.0333438
-0.0234087
-0.0164196
-0.0108898
-0.0279248
-0.0252162
-0.0266044
-0.0286088
-0.0282668
-0.026081
-0.0258799
-0.0298697
-0.0381799
-0.0521714
-0.0748591
-0.105312
-0.13463
-0.150533
-0.146326
-0.124903
-0.0965408
-0.069809
-0.0486653
-0.0330128
-0.0228638
-0.0157274
-0.0100741
-0.0209962
-0.0209304
-0.0216443
-0.0209021
-0.0196794
-0.0203487
-0.0246248
-0.0331279
-0.0480983
-0.0729574
-0.106437
-0.138575
-0.155926
-0.151597
-0.128118
-0.0978691
-0.0696933
-0.047762
-0.0317337
-0.0211797
-0.0135159
-0.00727226
-0.0163704
-0.015821
-0.0165201
-0.0162012
-0.0152588
-0.0160775
-0.0206399
-0.0295743
-0.0452979
-0.0711697
-0.105753
-0.138762
-0.156583
-0.151593
-0.12856
-0.0975794
-0.0686515
-0.0462377
-0.0299126
-0.0191328
-0.0113631
-0.00510124
-0.0121243
-0.0110607
-0.0115816
-0.0113859
-0.0109032
-0.0122613
-0.0172583
-0.0266992
-0.0429843
-0.0692282
-0.104043
-0.137543
-0.156222
-0.151819
-0.128494
-0.0969454
-0.067397
-0.044578
-0.0280415
-0.0171256
-0.00930006
-0.00302869
-0.00821711
-0.00668416
-0.00692545
-0.00682977
-0.00669621
-0.00840624
-0.0136696
-0.023428
-0.0401022
-0.0666468
-0.101891
-0.136264
-0.155754
-0.151509
-0.12775
-0.0957521
-0.0657969
-0.0427364
-0.0260983
-0.0151275
-0.00729123
-0.000983117
-0.00464368
-0.00272857
-0.00275331
-0.00279499
-0.00286431
-0.0047317
-0.0100522
-0.0199011
-0.036784
-0.0636261
-0.099461
-0.134601
-0.154429
-0.150165
-0.126143
-0.0939566
-0.0638504
-0.0407201
-0.0240901
-0.0131423
-0.00535362
0.000939749
-0.001407
0.000802541
0.000946584
0.000789296
0.00055839
-0.00137336
-0.00662593
-0.0164186
-0.0333482
-0.0603333
-0.0964965
-0.131971
-0.151946
-0.147719
-0.123639
-0.0915367
-0.0615475
-0.0385337
-0.0220261
-0.0111781
-0.00349598
0.00272733
0.00150202
0.00392858
0.00421611
0.00395997
0.0035893
0.00165046
-0.00346151
-0.0131021
-0.0299047
-0.0567116
-0.0927388
-0.128225
-0.1483
-0.144144
-0.120206
-0.0884742
-0.0588846
-0.0361856
-0.0199176
-0.00924338
-0.00172148
0.0043838
0.00409931
0.00667259
0.00708628
0.00674564
0.00626024
0.00435696
-0.000558755
-0.00995806
-0.026426
-0.0526741
-0.0881532
-0.123404
-0.143452
-0.139397
-0.115824
-0.0847654
-0.0558653
-0.0336868
-0.0177771
-0.00734753
-3.34246e-05
0.00590861
0.00640451
0.00905932
0.00958767
0.00918239
0.008557
0.006769
0.00209433
-0.00697519
-0.0228934
-0.0482365
-0.0828001
-0.117494
-0.137344
-0.133456
-0.1105
-0.0804236
-0.0525008
-0.031051
-0.0156184
-0.0055009
0.00156357
0.00730038
0.00844012
0.0111167
0.0117507
0.0113107
0.0106161
0.0089156
0.00450631
-0.00416239
-0.0193427
-0.0434651
-0.0766997
-0.110453
-0.129951
-0.126332
-0.104265
-0.0754808
-0.0488121
-0.0282946
-0.0134559
-0.0037144
0.00306412
0.00855799
0.0102306
0.0128755
0.013604
0.0131632
0.0124209
0.0108214
0.00668261
-0.00154259
-0.0158257
-0.0384016
-0.0698484
-0.102274
-0.121291
-0.118077
-0.0971831
-0.0699894
-0.0448301
-0.0254362
-0.0113043
-0.00199875
0.0044625
0.00968026
0.0118011
0.0143687
0.0151751
0.0147682
0.0140034
0.012508
0.00862897
0.000868241
-0.0123705
-0.0330667
-0.0622729
-0.0930081
-0.111437
-0.108781
-0.0893481
-0.0640229
-0.0405965
-0.0224972
-0.00917749
-0.000363674
0.00575324
0.0106664
0.0131762
0.0156307
0.0164935
0.0161485
0.01539
0.0139959
0.0103565
0.00307316
-0.00898249
-0.0274887
-0.054043
-0.0827622
-0.100521
-0.0985832
-0.0808865
-0.0576743
-0.0361636
-0.0195011
-0.00708869
0.00118298
0.00693207
0.0115168
0.014379
0.0166957
0.0175917
0.0173266
0.0166045
0.0153069
0.0118857
0.00509473
-0.00565422
-0.0217085
-0.0452665
-0.0717033
-0.0887338
-0.087672
-0.0719556
-0.0510542
-0.031593
-0.0164732
-0.00504934
0.00263594
0.00799691
0.0122344
0.0154298
0.0175959
0.0185046
0.0183283
0.0176729
0.0164703
0.0132522
0.00697723
-0.00236044
-0.0157689
-0.0360862
-0.0600648
-0.0763394
-0.0762827
-0.0627368
-0.0442856
-0.0269538
-0.013441
-0.00306892
0.00399318
0.0089489
0.0128254
0.0163451
0.0183599
0.0192676
0.0191834
0.0186242
0.0175245
0.0145155
0.00879603
0.000951585
-0.0097103
-0.0266855
-0.0481464
-0.0636602
-0.0646898
-0.0534288
-0.0374981
-0.0223193
-0.0104332
-0.00115487
0.00525617
0.00979311
0.0133004
0.0171376
0.0190114
0.0199129
0.0199242
0.0194904
0.0185167
0.0157637
0.0106636
0.0043632
-0.00357573
-0.0172927
-0.0362987
-0.051061
-0.0531913
-0.0442357
-0.0308204
-0.0177635
-0.00747934
0.000687403
0.00642982
0.0105389
0.0136747
0.0178168
0.0195683
0.0204673
0.0205818
0.0203024
0.0195338
0.0171021
0.0127197
0.00797402
0.0025783
-0.00817165
-0.0249076
-0.0389236
-0.0420797
-0.0353518
-0.0243729
-0.0133567
-0.00460897
0.00245426
0.00752201
0.0111995
0.0139691
0.0183911
0.0200429
0.0209499
0.0211808
0.0210828
0.0205825
0.0186115
0.0150943
0.011871
0.0086679
0.00038947
-0.0143603
-0.0275989
-0.0316163
-0.0269489
-0.0182602
-0.00916167
-0.00185058
0.00414353
0.00854301
0.011791
0.0142082
0.0188692
0.0204433
0.0213728
0.0217346
0.0218433
0.0216674
0.0203216
0.0178407
0.0160595
0.0145491
0.00809721
-0.00497858
-0.0173591
-0.0220104
-0.0191666
-0.0125666
-0.00522996
0.000769408
0.00575389
0.00950445
0.0123316
0.0144181
0.0192599
0.0207752
0.0217416
0.0222457
0.0225772
0.0227877
0.022175
0.0208551
0.0203658
0.0199758
0.0146963
0.00304361
-0.00836402
-0.013402
-0.0121052
-0.0073529
-0.00159983
0.00322785
0.0072841
0.0104177
0.0128407
0.0146252
0.019572
0.0210429
0.0220577
0.0227094
0.0232667
0.0238644
0.0240148
0.0238517
0.0244131
0.02462
0.0200248
0.00966323
-0.00066207
-0.00586249
-0.00582521
-0.00265638
0.00170479
0.00550622
0.00873228
0.0112923
0.013336
0.0148529
0.0198135
0.0212496
0.0223189
0.0231167
0.023894
0.0248284
0.0256625
0.0264766
0.0277677
0.0281978
0.0240587
0.0149573
0.00577585
0.000592428
-0.000350071
0.00150781
0.00467377
0.00759175
0.0100955
0.0121342
0.013831
0.0151177
0.019991
0.0213983
0.0225216
0.0234552
0.0244356
0.0256376
0.0269817
0.0284689
0.0301546
0.030611
0.0269029
0.0190586
0.0110152
0.00598499
0.00432865
0.00514423
0.00730932
0.00947807
0.0113699
0.0129464
0.0143335
0.0154264
0.0201096
0.0214912
0.022662
0.0237107
0.024866
0.0262458
0.0279022
0.0297479
0.0315601
0.0319701
0.0287377
0.0221094
0.0151443
0.0103734
0.0082485
0.00827424
0.00962347
0.0111653
0.0125509
0.0137285
0.0148452
0.0157784
0.0201733
0.0215304
0.0227376
0.0238716
0.025086
0.0266339
0.0284349
0.0303931
0.0321552
0.0325024
0.0297664
0.0242543
0.018281
0.013854
0.0114729
0.010932
0.011635
0.0126595
0.013634
0.0144772
0.0153632
0.0161652
0.0201855
0.0215175
0.0227486
0.0239447
0.0252381
0.0268181
0.0286346
0.0305476
0.032163
0.0324498
0.0301843
0.0256533
0.0205743
0.0165438
0.014079
0.0131595
0.0133666
0.0139708
0.0146165
0.0151873
0.0158803
0.0165729
0.0201493
0.0214541
0.0226954
0.0239278
0.0252581
0.0268189
0.0285692
0.0303513
0.0317802
0.032015
0.0301659
0.0264705
0.0221815
0.0185419
0.0161516
0.0150028
0.0148426
0.0151119
0.0154977
0.0158532
0.0163865
0.016985
0.0200679
0.0213425
0.0225808
0.0238252
0.0251573
0.0266638
0.0283034
0.0299174
0.0311549
0.0313483
0.0298532
0.026854
0.0232546
0.0200286
0.0177776
0.0165084
0.0160872
0.0160967
0.0162791
0.0164688
0.0168719
0.0173862
0.0199446
0.0211856
0.022409
0.0236451
0.0249525
0.0263829
0.027892
0.0293298
0.0303901
0.0305533
0.0293522
0.0269262
0.0239256
0.0211305
0.0190315
0.0177203
0.0171243
0.0169385
0.0169639
0.0170288
0.0173274
0.0177639
0.0197834
0.0209874
0.0221854
0.0233973
0.0246619
0.0260045
0.0273789
0.0286488
0.0295544
0.0296976
0.0287385
0.0267814
0.0242931
0.0218923
0.0199754
0.0186792
0.0179766
0.0176505
0.0175568
0.0175291
0.0177442
0.0181079
0.0195881
0.0207528
0.0219175
0.0230928
0.0243026
0.0255533
0.0267983
0.0279166
0.0286923
0.0288243
0.0280635
0.0264887
0.0244343
0.0223864
0.0206642
0.0194222
0.0186655
0.0182444
0.0180631
0.0179673
0.0181152
0.0184098
0.0193631
0.0204867
0.0216122
0.0227426
0.023891
0.025051
0.0261764
0.0271623
0.0278322
0.02796
0.0273616
0.0260988
0.0244092
0.0226723
0.021145
0.0199823
0.0192109
0.0187315
0.0184885
0.0183429
0.0184358
0.0186649
0.019113
0.0201942
0.0212764
0.0223575
0.0234419
0.0245152
0.0255332
0.0264062
0.0269916
0.0271204
0.0266558
0.0256477
0.0242633
0.0227982
0.0214579
0.0203892
0.0196314
0.0191226
0.0188387
0.0186572
0.0187039
0.0188725
0.0188421
0.0198806
0.0209176
0.0219472
0.0229678
0.0239602
0.0248836
0.025662
0.0261809
0.0263146
0.0259614
0.0251608
0.0240309
0.0228021
0.0216367
0.0206684
0.019944
0.0194278
0.0191195
0.0189126
0.0189203
0.0190343
0.0185547
0.019551
0.0205422
0.02152
0.0224788
0.0233976
0.0242387
0.0249388
0.025406
0.0255478
0.0252872
0.0246565
0.0237389
0.0227139
0.0217087
0.0208423
0.0201641
0.0196568
0.0193371
0.019113
0.0190875
0.0191524
0.0193763
0.0182551
0.0192102
0.0201562
0.0210834
0.0219839
0.0228363
0.0236065
0.0242422
0.0246699
0.0248216
0.0246387
0.0241478
0.0234071
0.0225568
0.0216966
0.0209298
0.0203056
0.0198187
0.0194975
0.0192632
0.0192091
0.0192305
0.0194002
0.0179473
0.0188624
0.0197646
0.0206435
0.0214898
0.0222831
0.0229928
0.0235759
0.0239737
0.0241364
0.0240188
0.0236434
0.0230507
0.0223499
0.0216193
0.0209473
0.0203809
0.0199221
0.0196068
0.0193679
0.0192896
0.0192734
0.0193912
0.017635
0.0185116
0.019372
0.0202055
0.0210022
0.0217432
0.0224014
0.0229417
0.0233172
0.0234912
0.0234291
0.0231494
0.0226807
0.0221078
0.0214923
0.0209086
0.0204008
0.0199751
0.0196711
0.019432
0.0193338
0.0192857
0.0193553
0.0173216
0.0181616
0.0189824
0.0197736
0.020525
0.0212203
0.021835
0.0223405
0.0226994
0.0228849
0.0228699
0.0226702
0.0223051
0.0218418
0.0213279
0.0208254
0.020375
0.019985
0.0196961
0.0194605
0.0193461
0.0192714
0.0192977
0.0170103
0.0178155
0.0185991
0.0193512
0.0200614
0.0207172
0.0212951
0.0217724
0.0221193
0.0223158
0.0223412
0.0222081
0.0219304
0.0215606
0.0211359
0.0207074
0.020312
0.0199587
0.0196873
0.019458
0.0193312
0.0192346
0.0192229
0.0167038
0.0174762
0.0182252
0.0189415
0.0196134
0.0202362
0.0207828
0.0212369
0.0215751
0.0217823
0.0218421
0.0217651
0.0215611
0.0212712
0.0209245
0.0205627
0.020219
0.0199021
0.0196498
0.0194292
0.0192932
0.019179
0.0191346
0.0164044
0.0171461
0.0178631
0.0185477
0.0191941
0.0197791
0.0202983
0.0207335
0.0210654
0.0212825
0.0213719
0.0213423
0.0212006
0.0209787
0.0207
0.0203982
0.0201024
0.0198209
0.0195884
0.019378
0.0192358
0.0191081
0.019036
0.0161141
0.0168269
0.0175144
0.018169
0.0187838
0.0193444
0.0198412
0.0202611
0.0205885
0.0208148
0.0209297
0.0209402
0.0208513
0.0206876
0.020468
0.0202196
0.0199679
0.0197201
0.0195075
0.0193085
0.0191627
0.0190247
0.0189294
0.0158347
0.0165204
0.0171805
0.0178077
0.0183955
0.0189334
0.0194115
0.0198189
0.0201432
0.0203779
0.0205147
0.0205591
0.0205149
0.0204013
0.020233
0.0200318
0.0198201
0.0196039
0.0194111
0.019224
0.0190769
0.0189316
0.0188175
0.0155678
0.016228
0.0168627
0.0174652
0.0180292
0.0185467
0.0190088
0.0194059
0.0197282
0.0199703
0.0201259
0.0201991
0.020193
0.0201223
0.0199983
0.0198389
0.0196633
0.0194764
0.0193027
0.0191279
0.0189813
0.0188311
0.018702
0.0153146
0.0159509
0.0165621
0.0171423
0.0176854
0.0181849
0.0186327
0.0190212
0.0193421
0.0195909
0.0197627
0.0198604
0.0198865
0.0198523
0.0197669
0.0196444
0.0195011
0.0193411
0.0191856
0.0190232
0.0188785
0.0187255
0.0185847
0.0150761
0.0156901
0.0162797
0.0168395
0.0173642
0.0178473
0.0182827
0.018664
0.018984
0.0192388
0.0194244
0.019543
0.0195963
0.0195924
0.0195412
0.0194512
0.0193368
0.0192012
0.0190629
0.0189125
0.0187709
0.0186168
0.018467
0.0148532
0.0154463
0.0160161
0.0165573
0.0170654
0.0175343
0.0179588
0.0183338
0.018653
0.018913
0.0191105
0.0192469
0.0193235
0.0193466
0.0193238
0.019262
0.0191731
0.0190596
0.0189372
0.0187985
0.0186607
0.0185069
0.0183504
0.0146464
0.0152203
0.0157717
0.0162962
0.0167893
0.0172458
0.0176611
0.0180302
0.0183487
0.0186131
0.0188207
0.0189722
0.0190687
0.0191147
0.0191164
0.019079
0.0190126
0.0189189
0.0188112
0.0186834
0.0185501
0.0183974
0.0182363
0.0144564
0.0150124
0.0155471
0.0160563
0.016536
0.0169816
0.0173885
0.0177527
0.0180704
0.0183386
0.0185547
0.018719
0.0188324
0.0188979
0.0189206
0.0189044
0.0188576
0.0187814
0.018687
0.0185696
0.0184411
0.0182902
0.0181259
0.0142835
0.0148231
0.0153426
0.0158381
0.0163058
0.0167415
0.0171414
0.0175013
0.017818
0.0180892
0.0183126
0.0184876
0.0186152
0.0186973
0.0187379
0.0187399
0.0187101
0.0186494
0.0185671
0.0184591
0.0183355
0.0181869
0.0180207
0.014128
0.0146527
0.0151585
0.0156417
0.0160988
0.0165258
0.0169193
0.0172756
0.0175915
0.0178651
0.0180943
0.0182783
0.0184179
0.018514
0.0185697
0.0185872
0.0185721
0.0185249
0.0184532
0.0183539
0.0182353
0.018089
0.017922
0.0139903
0.0145017
0.0149953
0.0154675
0.0159152
0.0163346
0.0167225
0.0170756
0.0173911
0.0176666
0.0179006
0.0180924
0.0182415
0.018349
0.0184175
0.0184481
0.0184455
0.0184099
0.0183475
0.0182557
0.0181407
0.017998
0.0178309
0.0138707
0.0143703
0.0148532
0.0153159
0.0157554
0.0161682
0.0165513
0.0169016
0.0172165
0.0174937
0.0177316
0.0179292
0.0180865
0.0182036
0.0182826
0.018324
0.018332
0.0183061
0.0182518
0.0181666
0.0180561
0.0179157
0.0177489
0.0137694
0.0142589
0.0147327
0.0151873
0.0156199
0.0160271
0.0164062
0.016754
0.0170683
0.0173467
0.0175878
0.0177902
0.017954
0.0180788
0.0181663
0.0182167
0.0182332
0.0182154
0.0181679
0.0180884
0.0179816
0.0178435
0.0176773
0.0136869
0.0141681
0.0146343
0.0150823
0.0155092
0.0159119
0.0162876
0.0166335
0.0169472
0.0172266
0.0174701
0.0176763
0.0178451
0.0179759
0.0180701
0.0181275
0.0181508
0.0181396
0.0180974
0.0180226
0.017919
0.017783
0.0176173
0.0136238
0.0140985
0.0145589
0.0150018
0.0154244
0.0158235
0.0161967
0.016541
0.0168543
0.0171342
0.0173795
0.0175885
0.017761
0.0178964
0.0179955
0.0180581
0.0180866
0.0180802
0.0180422
0.017971
0.0178698
0.0177354
0.0175704
0.0135806
0.0140509
0.0145073
0.0149467
0.0153663
0.015763
0.0161344
0.0164776
0.0167906
0.0170709
0.0173174
0.0175282
0.0177033
0.0178416
0.017944
0.0180102
0.0180421
0.018039
0.0180039
0.017935
0.0178355
0.0177023
0.0175378
0.0135584
0.0140265
0.0144808
0.0149183
0.0153364
0.0157319
0.0161024
0.016445
0.0167578
0.0170384
0.0172854
0.0174972
0.0176735
0.0178133
0.0179174
0.0179854
0.018019
0.0180176
0.0179839
0.0179163
0.0178176
0.0176851
0.0175209
0.019568
0.0197716
0.0199658
0.0201487
0.0203185
0.0204737
0.0206128
0.020735
0.0208388
0.0209237
0.0209886
0.0210329
0.0210553
0.0210552
0.0210308
0.0209815
0.0209049
0.0208003
0.0206651
0.0204987
0.0202987
0.0200652
0.0197965
0.0195806
0.0197861
0.0199819
0.020166
0.0203365
0.0204922
0.0206316
0.0207538
0.0208575
0.0209424
0.021007
0.0210513
0.0210735
0.0210735
0.0210491
0.0209999
0.0209235
0.020819
0.0206838
0.0205171
0.0203166
0.0200825
0.0198129
0.0196055
0.0198148
0.0200134
0.0201997
0.0203717
0.0205283
0.020668
0.0207903
0.0208938
0.0209783
0.0210426
0.0210866
0.0211088
0.0211087
0.0210845
0.0210357
0.0209595
0.0208551
0.0207198
0.0205527
0.0203514
0.020116
0.0198448
0.0196428
0.0198574
0.0200602
0.0202494
0.0204234
0.0205811
0.0207212
0.0208433
0.0209464
0.0210304
0.0210942
0.0211378
0.0211596
0.0211597
0.0211358
0.0210874
0.0210117
0.0209077
0.0207723
0.0206046
0.0204022
0.0201648
0.019891
0.0196931
0.0199143
0.0201222
0.020315
0.0204912
0.02065
0.0207904
0.0209121
0.0210144
0.0210975
0.0211603
0.0212034
0.0212249
0.0212251
0.0212017
0.0211541
0.0210791
0.0209756
0.0208404
0.0206719
0.020468
0.0202279
0.0199506
0.0197572
0.0199862
0.0201998
0.0203965
0.020575
0.0207347
0.0208749
0.0209957
0.0210967
0.0211784
0.02124
0.0212822
0.0213034
0.0213038
0.0212811
0.0212345
0.0211607
0.0210581
0.0209232
0.020754
0.0205482
0.0203047
0.0200231
0.0198363
0.0200739
0.0202936
0.0204942
0.0206746
0.0208347
0.0209741
0.0210934
0.0211923
0.021272
0.0213319
0.021373
0.0213936
0.0213945
0.0213728
0.0213278
0.0212557
0.0211544
0.0210202
0.0208502
0.0206423
0.0203945
0.0201075
0.0199319
0.0201785
0.0204044
0.0206085
0.0207903
0.0209499
0.0210875
0.0212042
0.0213002
0.0213772
0.0214347
0.0214743
0.0214945
0.021496
0.0214757
0.0214328
0.0213631
0.0212639
0.0211309
0.0209602
0.0207498
0.020497
0.0202032
0.0200454
0.0203012
0.0205329
0.0207399
0.020922
0.0210799
0.0212144
0.0213273
0.0214192
0.0214925
0.021547
0.0215849
0.0216044
0.0216069
0.0215886
0.0215487
0.0214824
0.021386
0.0212549
0.0210838
0.0208706
0.0206116
0.0203097
0.0201786
0.0204434
0.0206802
0.0208889
0.0210698
0.0212245
0.0213543
0.0214618
0.0215482
0.0216168
0.0216674
0.0217032
0.0217221
0.021726
0.0217104
0.0216745
0.0216126
0.0215204
0.021392
0.0212208
0.0210046
0.0207382
0.0204264
0.0203336
0.0206066
0.0208473
0.021056
0.021234
0.0213834
0.0215064
0.0216067
0.021686
0.0217485
0.0217944
0.0218277
0.021846
0.0218517
0.0218397
0.0218093
0.0217533
0.0216666
0.0215421
0.0213712
0.0211517
0.0208765
0.0205527
0.0205122
0.0207924
0.0210352
0.0212419
0.0214143
0.021556
0.0216698
0.0217606
0.0218309
0.021886
0.0219263
0.0219566
0.0219744
0.0219826
0.0219754
0.0219519
0.0219037
0.0218243
0.0217053
0.0215354
0.0213122
0.0210264
0.0206882
0.0207167
0.0210023
0.0212451
0.0214469
0.0216109
0.0217417
0.0218435
0.0219223
0.0219815
0.0220275
0.0220611
0.0220881
0.0221055
0.0221172
0.0221161
0.0221015
0.0220633
0.0219935
0.0218817
0.0217137
0.0214865
0.0211879
0.0208321
0.0209494
0.0212382
0.0214778
0.0216713
0.0218233
0.0219397
0.0220261
0.02209
0.0221357
0.0221711