/*--------------------------------*- C++ -*----------------------------------*\
  =========                 |
  \\      /  F ield         | OpenFOAM: The Open Source CFD Toolbox
   \\    /   O peration     | Website:  https://openfoam.org
    \\  /    A nd           | Version:  7
     \\/     M anipulation  |
\*---------------------------------------------------------------------------*/
FoamFile
{
    version     2.0;
    format      ascii;
    class       surfaceScalarField;
    location    "180";
    object      phi;
}
// * * * * * * * * * * * * * * * * * * * * * * * * * * * * * * * * * * * * * //

dimensions      [0 3 -1 0 0 0 0];

internalField   nonuniform List<scalar> 
8924
(
0.00148185
-0.0103825
0.0104685
0.00141422
-0.00982095
0.00988857
0.00138945
-0.00754179
0.00756656
0.00141028
-0.00371914
0.00369832
0.00146466
0.000670109
-0.000724495
0.00153419
0.00454997
-0.0046195
0.00160118
0.00727362
-0.0073406
0.00164919
0.00882113
-0.00886914
0.00166177
0.00968643
-0.00969901
0.00163006
0.0104211
-0.0103894
0.0015632
0.011025
-0.0109581
0.00148812
0.0108546
-0.0107795
0.00143406
0.0091698
-0.00911575
0.00141691
0.00585427
-0.00583711
0.00143806
0.00156235
-0.0015835
0.00148719
-0.00268619
0.00263706
0.00154135
-0.00604421
0.00599005
0.00157129
-0.00834264
0.00831269
0.00156003
-0.00986761
0.00987887
0.00151477
-0.0108592
0.0109045
0.00146111
-0.010859
0.0109127
0.00142558
-0.00933459
0.00937012
0.00142285
-0.00613156
0.0061343
-0.00192192
0.00189453
0.00146563
-0.0102953
0.00139801
-0.00975333
0.00137557
-0.00751935
0.00140059
-0.00374416
0.00145982
0.00061088
0.00153402
0.00447577
0.00160498
0.00720266
0.00165597
0.00877014
0.00167066
0.00967174
0.00164051
0.0104512
0.00157471
0.0110908
0.00149978
0.0109295
0.00144418
0.0092254
0.00142368
0.00587477
0.00144053
0.0015455
0.00148568
-0.00273133
0.00153707
-0.0060956
0.00156548
-0.00837106
0.00155337
-0.0098555
0.00150779
-0.0108137
0.00145463
-0.0108059
0.00142075
-0.00930071
0.00142055
-0.00613136
-0.00195177
0.00144959
-0.0102069
0.00138189
-0.00968563
0.0013616
-0.00749906
0.00139065
-0.0037732
0.00145462
0.00054691
0.00153344
0.00439695
0.00160838
0.00712772
0.0016624
0.00871611
0.00167932
0.00965482
0.00165087
0.0104797
0.00158627
0.0111554
0.00151152
0.0110043
0.00145434
0.00928258
0.0014304
0.00589871
0.00144286
0.00153304
0.00148395
-0.00277242
0.00153257
-0.00614422
0.00155951
-0.00839799
0.00154664
-0.00984263
0.00150079
-0.0107678
0.00144814
-0.0107532
0.00141587
-0.00926844
0.00141814
-0.00613363
-0.00198404
0.00143375
-0.0101175
0.00136589
-0.00961778
0.00134756
-0.00748073
0.00138046
-0.0038061
0.00144906
0.000478307
0.00153245
0.00431356
0.00161136
0.00704882
0.00166846
0.00865901
0.00168772
0.00963556
0.00166113
0.0105063
0.00159786
0.0112187
0.00152333
0.0110788
0.00146453
0.00934138
0.00143708
0.00592615
0.00144506
0.00152507
0.00148203
-0.00280939
0.00152786
-0.00619005
0.00155337
-0.0084235
0.00153983
-0.00982908
0.00149377
-0.0107218
0.00144165
-0.0107011
0.00141094
-0.00923773
0.00141561
-0.00613829
-0.00201868
0.00141811
-0.010027
0.00135001
-0.00954967
0.00133344
-0.00746415
0.00137001
-0.00384268
0.00144313
0.000405183
0.00153104
0.00422565
0.00161391
0.00696596
0.00167415
0.00859876
0.00169586
0.00961385
0.00167127
0.0105309
0.00160945
0.0112805
0.00153521
0.011153
0.00147475
0.00940185
0.00144372
0.00595718
0.00144715
0.00152164
0.00147992
-0.00284217
0.00152294
-0.00623307
0.00154708
-0.00844764
0.00153294
-0.00981494
0.00148673
-0.0106756
0.00143515
-0.0106495
0.00140596
-0.00920854
0.00141296
-0.00614529
-0.00205563
0.0014027
-0.00993569
0.00133427
-0.00948125
0.00131925
-0.00744913
0.0013593
-0.00388273
0.00143683
0.000327659
0.00152919
0.00413328
0.00161601
0.00687914
0.00167944
0.00853532
0.00170372
0.00958957
0.00168128
0.0105533
0.00162105
0.0113407
0.00154714
0.0112269
0.00148499
0.009464
0.00145032
0.00599185
0.00144912
0.00152283
0.00147764
-0.00287069
0.00151782
-0.00627325
0.00154063
-0.00847044
0.00152597
-0.00980029
0.00147968
-0.0106293
0.00142863
-0.0105985
0.00140091
-0.00918083
0.00141017
-0.00615454
-0.00209486
0.00138752
-0.0098436
0.00131869
-0.00941242
0.001305
-0.00743543
0.00134833
-0.00392607
0.00143013
0.000245861
0.00152689
0.00403652
0.00161764
0.00678839
0.00168432
0.00846864
0.00171129
0.0095626
0.00169114
0.0105734
0.00163263
0.0113992
0.00155911
0.0113005
0.00149524
0.00952787
0.00145687
0.00603021
0.001451
0.0015287
0.0014752
-0.00289489
0.00151251
-0.00631055
0.00153403
-0.00849196
0.00151893
-0.00978519
0.00147259
-0.0105829
0.00142209
-0.0105479
0.00139579
-0.00915453
0.00140723
-0.00616598
-0.00213633
0.00137258
-0.00975086
0.00130328
-0.00934311
0.00129069
-0.00742284
0.00133709
-0.00397247
0.00142303
0.000159923
0.00152412
0.00393544
0.0016188
0.00669371
0.00168878
0.00839867
0.00171853
0.00953284
0.00170084
0.0105911
0.00164418
0.0114559
0.00157109
0.0113735
0.00150549
0.00959347
0.00146339
0.00607232
0.00145278
0.00153931
0.0014726
-0.00291471
0.00150701
-0.00634496
0.00152727
-0.00851222
0.00151182
-0.00976973
0.00146549
-0.0105366
0.00141552
-0.010498
0.00139059
-0.00912961
0.00140414
-0.00617953
-0.00217998
0.00135789
-0.00965759
0.00128805
-0.00927328
0.00127635
-0.00741114
0.00132559
-0.00402171
0.00141553
6.99865e-05
0.00152086
0.0038301
0.00161946
0.00659511
0.00169278
0.00832535
0.00172545
0.00950018
0.00171035
0.0106062
0.00165567
0.0115106
0.00158308
0.0114461
0.00151575
0.00966081
0.00146986
0.0061182
0.00145448
0.00155469
0.00146985
-0.00293008
0.00150132
-0.00637643
0.00152037
-0.00853127
0.00150462
-0.00975398
0.00145835
-0.0104903
0.00140891
-0.0104485
0.0013853
-0.009106
0.00140089
-0.00619512
-0.00222578
0.00134344
0.00127301
-0.00920285
0.00126196
-0.0074001
0.00131382
-0.00407357
0.0014076
-2.37974e-05
0.00151711
0.00372059
0.00161961
0.00649262
0.00169632
0.00824864
0.00173201
0.00946449
0.00171966
0.0106186
0.00166709
0.0115632
0.00159506
0.0115182
0.00152599
0.00972989
0.0014763
0.00616789
0.00145609
0.0015749
0.00146697
-0.00294096
0.00149546
-0.00640492
0.00151332
-0.00854914
0.00149736
-0.00973802
0.00145118
-0.0104442
0.00140227
-0.0103996
0.00137992
-0.00908365
0.00139747
-0.00621267
-0.00227368
0.00125818
-0.00913179
0.00124756
-0.00738948
0.00130178
-0.00412779
0.00139925
-0.000121269
0.00151285
0.00360699
0.00161922
0.00638625
0.00169937
0.00816848
0.00173819
0.00942568
0.00172874
0.010628
0.00167841
0.0116135
0.00160701
0.0115896
0.0015362
0.00980069
0.00148269
0.00622139
0.00145763
0.00159996
0.00146396
-0.00294729
0.00148943
-0.00643039
0.00150612
-0.00856583
0.00149001
-0.0097219
0.00144398
-0.0103981
0.00139558
-0.0103512
0.00137443
-0.0090625
0.00139387
-0.00623211
-0.00232365
0.00124356
-0.00906007
0.00123315
-0.00737907
0.00128948
-0.00418412
0.00139047
-0.000222257
0.00150807
0.0034894
0.00161829
0.00627603
0.00170192
0.00808485
0.00174397
0.00938362
0.00173757
0.0106344
0.00168961
0.0116614
0.00161891
0.0116603
0.00154638
0.00987322
0.00148904
0.00627874
0.0014591
0.00162989
0.00146083
-0.00294902
0.00148323
-0.00645279
0.00149877
-0.00858137
0.00148258
-0.00970571
0.00143674
-0.0103523
0.00138884
-0.0103033
0.00136883
-0.00904249
0.00139009
-0.00625337
-0.00237564
0.00122916
-0.00898767
0.00121874
-0.00736865
0.00127692
-0.0042423
0.00138124
-0.000326583
0.00150275
0.00336789
0.00161679
0.00616198
0.00170395
0.00799769
0.00174934
0.00933823
0.00174613
0.0106376
0.00170067
0.0117069
0.00163073
0.0117302
0.00155651
0.00994744
0.00149533
0.00633992
0.0014605
0.00166473
0.00145758
-0.0029461
0.00147687
-0.00647207
0.00149127
-0.00859578
0.00147506
-0.0096895
0.00142945
-0.0103067
0.00138204
-0.0102559
0.00136311
-0.00902356
0.00138611
-0.00627636
-0.00242962
0.00121499
-0.0089146
0.00120435
-0.00735802
0.0012641
-0.00430205
0.00137157
-0.000434053
0.00149688
0.00324259
0.00161471
0.00604415
0.00170543
0.00790697
0.00175426
0.0092894
0.00175438
0.0106375
0.00171156
0.0117497
0.00164247
0.0117993
0.00156659
0.0100233
0.00150157
0.00640493
0.00146183
0.00170447
0.00145423
-0.0029385
0.00147035
-0.00648818
0.00148362
-0.00860905
0.00146746
-0.00967334
0.00142212
-0.0102613
0.00137518
-0.010209
0.00135727
-0.00900566
0.00138193
-0.00630102
-0.00248554
0.00120105
-0.00884085
0.00118999
-0.00734695
0.00125104
-0.0043631
0.00136146
-0.000544467
0.00149045
0.0031136
0.00161204
0.00592257
0.00170635
0.00781267
0.00175872
0.00923702
0.00176231
0.0106339
0.00172226
0.0117898
0.0016541
0.0118674
0.00157659
0.0101008
0.00150776
0.00647377
0.0014631
0.00174913
0.00145078
-0.00292619
0.00146367
-0.00650107
0.00147581
-0.00862118
0.00145976
-0.00965729
0.00141474
-0.0102163
0.00136824
-0.0101625
0.00135129
-0.0089887
0.00137754
-0.00632726
-0.00254337
0.00118736
-0.00876646
0.00117569
-0.00733529
0.00123774
-0.00442516
0.00135089
-0.000657614
0.00148345
0.00298103
0.00160875
0.00579727
0.00170668
0.00771474
0.00176269
0.00918101
0.00176988
0.0106267
0.00173273
0.0118269
0.0016656
0.0119346
0.00158651
0.0101799
0.00151387
0.0065464
0.00146431
0.00179869
0.00144724
-0.00290912
0.00145685
-0.00651068
0.00146785
-0.00863217
0.00145197
-0.00964142
0.0014073
-0.0101716
0.00136124
-0.0101164
0.00134517
-0.00897264
0.00137293
-0.00635502
-0.00260307
0.00117389
-0.00869147
0.00116144
-0.00732283
0.00122422
-0.00448794
0.00133987
-0.000773264
0.00147588
0.00284502
0.00160484
0.00566831
0.0017064
0.00761317
0.00176614
0.00912127
0.00177708
0.0106158
0.00174296
0.011861
0.00167694
0.0120006
0.00159633
0.0102606
0.00151992
0.00662281
0.00146545
0.00185316
0.00144361
-0.00288728
0.00144989
-0.00651696
0.00145973
-0.00864201
0.00144408
-0.00962578
0.00139981
-0.0101274
0.00135415
-0.0100707
0.00133891
-0.0089574
0.0013681
-0.00638422
-0.00266458
0.00116066
-0.00861591
0.00114727
-0.00730945
0.00121049
-0.00455115
0.00132841
-0.000891183
0.00146772
0.00270571
0.00160028
0.00553575
0.00170551
0.00750795
0.00176905
0.00905772
0.00178387
0.010601
0.00175291
0.011892
0.00168811
0.0120654
0.00160603
0.0103426
0.00152588
0.00670295
0.00146653
0.00191251
0.0014399
-0.00286065
0.00144279
-0.00651985
0.00145145
-0.00865066
0.00143608
-0.00961041
0.00139226
-0.0100836
0.00134697
-0.0100255
0.00133249
-0.00894292
0.00136305
-0.00641477
-0.00272789
0.00114766
-0.00853987
0.0011332
-0.00729499
0.00119656
-0.00461451
0.00131649
-0.00101112
0.00145897
0.00256323
0.00159507
0.00539965
0.00170396
0.00739906
0.0017714
0.00899029
0.00179022
0.0105822
0.00176255
0.0119197
0.00169908
0.0121289
0.0016156
0.0104261
0.00153176
0.00678679
0.00146755
0.00197673
0.0014361
-0.0028292
0.00143555
-0.0065193
0.001443
-0.00865812
0.00142797
-0.00959538
0.00138463
-0.0100402
0.0013397
-0.00998053
0.00132591
-0.00892913
0.00135775
-0.00644662
-0.00279294
0.00113487
-0.0084634
0.00111922
-0.00727934
0.00118245
-0.00467774
0.00130414
-0.00113281
0.00144962
0.00241776
0.00158919
0.00526007
0.00170176
0.00728649
0.00177316
0.00891888
0.0017961
0.0105592
0.00177186
0.0119439
0.00170982
0.0121909
0.00162503
0.0105109
0.00153755
0.00687427
0.0014685
0.00204578
0.00143224
-0.00279293
0.00142818
-0.00651525
0.0014344
-0.00866433
0.00141974
-0.00958072
0.00137694
-0.00999742
0.00133234
-0.00993593
0.00131916
-0.00891594
0.00135222
-0.00647968
-0.00285969
0.0011223
-0.0083866
0.00110536
-0.0072624
0.00116818
-0.00474056
0.00129135
-0.00125598
0.00143966
0.00226945
0.00158264
0.00511709
0.00169887
0.00717025
0.00177431
0.00884344
0.00180148
0.0105321
0.00178081
0.0119646
0.00172032
0.0122514
0.0016343
0.0105969
0.00154324
0.00696534
0.00146939
0.00211962
0.0014283
-0.00275184
0.00142069
-0.00650764
0.00142563
-0.00866927
0.00141139
-0.00956647
0.00136918
-0.00995521
0.00132489
-0.00989163
0.00131224
-0.0089033
0.00134644
-0.00651388
-0.0029281
0.00110992
-0.00830955
0.00109162
-0.0072441
0.00115377
-0.00480271
0.00127815
-0.00138036
0.00142911
0.00211849
0.00157539
0.00497081
0.00169529
0.00705035
0.00177482
0.00876391
0.00180635
0.0105005
0.00178936
0.0119816
0.00173054
0.0123102
0.0016434
0.0106841
0.00154881
0.00705993
0.00147021
0.00219823
0.00142429
-0.00270593
0.00141308
-0.00649642
0.00141669
-0.00867289
0.0014029
-0.00955268
0.00136134
-0.00991365
0.00131733
-0.00984762
0.00130515
-0.00889112
0.00134041
-0.00654914
-0.00299813
0.00109772
-0.00823235
0.001078
-0.00722439
0.00113925
-0.00486395
0.00126454
-0.00150565
0.00141795
0.00196507
0.00156744
0.00482132
0.00169099
0.00692681
0.00177467
0.00868024
0.00181065
0.0104645
0.00179749
0.0119947
0.00174047
0.0123672
0.0016523
0.0107722
0.00155426
0.00715797
0.00147095
0.00228154
0.00142022
-0.0026552
0.00140534
-0.00648154
0.00140759
-0.00867514
0.00139428
-0.00953937
0.00135341
-0.00987278
0.00130966
-0.00980387
0.00129787
-0.00887933
0.00133412
-0.00658539
-0.00306973
0.00108569
-0.00815511
0.00106451
-0.00720321
0.00112462
-0.00492406
0.00125054
-0.00163157
0.0014062
0.00180941
0.00155879
0.00466873
0.00168595
0.00679965
0.00177383
0.00859236
0.00181437
0.010424
0.00180516
0.012004
0.00175008
0.0124223
0.001661
0.0108613
0.00155959
0.00725938
0.00147162
0.00236951
0.00141609
-0.00259967
0.00139749
-0.00646294
0.00139832
-0.00867597
0.00138552
-0.00952657
0.0013454
-0.00983266
0.00130189
-0.00976036
0.00129041
-0.00886784
0.00132757
-0.00662255
-0.00314286
0.0010738
-0.00807794
0.00105114
-0.00718056
0.00110992
-0.00498284
0.00123616
-0.00175781
0.00139385
0.00165172
0.00154943
0.00451315
0.00168018
0.0066689
0.00177228
0.00850026
0.00181748
0.0103788
0.00181235
0.0120091
0.00175935
0.0124753
0.00166947
0.0109512
0.00156477
0.00736408
0.00147221
0.00246207
0.00141189
-0.00253936
0.00138954
-0.00644059
0.00138887
-0.0086753
0.0013766
-0.0095143
0.0013373
-0.00979336
0.00129402
-0.00971708
0.00128275
-0.00885658
0.00132075
-0.00666054
-0.00321748
0.00106203
-0.00800094
0.00103789
-0.00715641
0.00109515
-0.00504009
0.00122144
-0.0018841
0.00138092
0.00149224
0.00153935
0.00435472
0.00167364
0.00653462
0.00177
0.0084039
0.00181995
0.0103288
0.00181903
0.01201
0.00176824
0.0125261
0.00167769
0.0110418
0.00156981
0.00747196
0.00147271
0.00255917
0.00140763
-0.00247427
0.00138147
-0.00641443
0.00137926
-0.00867309
0.00136753
-0.00950257
0.00132909
-0.00975493
0.00128603
-0.00967401
0.00127491
-0.00884546
0.00131366
-0.0066993
-0.00329354
0.00105038
-0.00792425
0.00102475
-0.00713079
0.00108034
-0.00509568
0.00120639
-0.00201016
0.00136742
0.00133121
0.00152856
0.00419358
0.00166632
0.00639685
0.00176697
0.00830326
0.00182174
0.0102741
0.00182516
0.0120066
0.00177675
0.0125745
0.00168566
0.0111328
0.00157469
0.00758292
0.00147313
0.00266072
0.00140332
-0.00240446
0.0013733
-0.00638441
0.00136947
-0.00866926
0.00135828
-0.00949139
0.00132079
-0.00971743
0.00127794
-0.00963116
0.00126688
-0.00883439
0.0013063
-0.00673873
-0.003371
0.0010388
-0.00784799
0.00101171
-0.0071037
0.00106549
-0.00514945
0.00119104
-0.00213572
0.00135336
0.0011689
0.00151705
0.00402989
0.00165823
0.00625567
0.00176316
0.00819832
0.00182284
0.0102144
0.00183072
0.0119987
0.00178483
0.0126204
0.00169335
0.0112243
0.0015794
0.00769687
0.00147346
0.00276667
0.00139894
-0.00232993
0.00136503
-0.0063505
0.00135951
-0.00866374
0.00134887
-0.00948075
0.00131237
-0.00968093
0.00126973
-0.00958852
0.00125865
-0.00882331
0.00129867
-0.00677875
-0.00344981
0.00102729
-0.00777229
0.000998755
-0.00707517
0.00105061
-0.00520131
0.00117542
-0.00226053
0.00133876
0.00100556
0.00150483
0.00386382
0.00164935
0.00611115
0.00175857
0.00808911
0.00182321
0.0101498
0.00183568
0.0119862
0.00179246
0.0126636
0.00170075
0.011316
0.00158394
0.00781367
0.0014737
0.00287691
0.0013945
-0.00225074
0.00135667
-0.00631267
0.00134938
-0.00865645
0.00133928
-0.00947065
0.00130384
-0.0096455
0.00126142
-0.0095461
0.00125022
-0.0088121
0.00129076
-0.00681928
-0.00352993
0.00101582
-0.00769729
0.000985867
-0.00704521
0.00103572
-0.00525116
0.00115956
-0.00238437
0.00132366
0.000841463
0.00149191
0.00369556
0.00163967
0.00596339
0.00175316
0.00797562
0.00182283
0.0100801
0.00184001
0.011969
0.00179963
0.012704
0.00170783
0.0114078
0.00158829
0.00793321
0.00147383
0.00299137
0.00139001
-0.00216692
0.00134821
-0.00627086
0.00133908
-0.00864732
0.00132951
-0.00946108
0.00129519
-0.00961118
0.001253
-0.00950391
0.00124161
-0.00880071
0.00128256
-0.00686024
-0.00361131
0.00100437
-0.00762315
0.00097303
-0.00701387
0.0010208
-0.00529893
0.00114348
-0.00250705
0.00130807
0.000676871
0.00147831
0.00352533
0.0016292
0.0058125
0.00174693
0.00785788
0.00182167
0.0100053
0.00184368
0.011947
0.0018063
0.0127414
0.00171459
0.0114995
0.00159245
0.00805535
0.00147387
0.00310995
0.00138546
-0.0020785
0.00133966
-0.00622506
0.0013286
-0.00863626
0.00131954
-0.00945202
0.00128641
-0.00957806
0.00124448
-0.00946198
0.0012328
-0.00878903
0.00127408
-0.00690152
-0.00369392
0.000992926
-0.00755002
0.000960227
-0.00698117
0.00100585
-0.00534455
0.0011272
-0.0026284
0.00129204
0.000512035
0.00146404
0.00335333
0.00161793
0.00565861
0.00173986
0.00773595
0.00181971
0.0099255
0.00184667
0.0119201
0.00181246
0.0127756
0.001721
0.011591
0.00159641
0.00817995
0.00147381
0.00323255
0.00138085
-0.00198555
0.00133102
-0.00617523
0.00131796
-0.0086232
0.00130938
-0.00944344
0.0012775
-0.00954618
0.00123584
-0.00942032
0.00122381
-0.00877699
0.00126532
-0.00694304
-0.0037777
0.000981457
-0.00747806
0.000947441
-0.00694715
0.000990851
-0.00538796
0.00111075
-0.00274831
0.0012756
0.000347187
0.00144913
0.0031798
0.00160587
0.00550187
0.00173195
0.00760987
0.00181693
0.00984052
0.00184894
0.0118881
0.00181807
0.0128065
0.00172705
0.011682
0.00160016
0.00830684
0.00147364
0.00335907
0.00137618
-0.00188809
0.00132229
-0.00612134
0.00130715
-0.00860806
0.00129902
-0.00943531
0.00126844
-0.00951561
0.0012271
-0.00937898
0.00121463
-0.00876452
0.00125628
-0.00698469
-0.00386262
0.000969946
-0.00740746
0.000934658
-0.00691186
0.000975798
-0.0054291
0.00109415
-0.00286666
0.00125881
0.000182525
0.00143363
0.00300497
0.00159305
0.00534245
0.00172318
0.00747974
0.00181331
0.00975039
0.00185047
0.0118509
0.00182311
0.0128338
0.00173273
0.0117724
0.0016037
0.00843587
0.00147337
0.0034894
0.00137146
-0.00178617
0.00131349
-0.00606336
0.00129617
-0.00859074
0.00128845
-0.00942759
0.00125924
-0.0094864
0.00121826
-0.009338
0.00120527
-0.00875153
0.00124695
-0.00702636
-0.00394864
0.000958375
-0.0073384
0.000921868
-0.00687536
0.000960674
-0.00546791
0.0010774
-0.00298338
0.00124171
1.82066e-05
0.0014176
0.00282909
0.00157949
0.00518056
0.00171357
0.00734566
0.00180883
0.00965513
0.00185124
0.0118085
0.00182756
0.0128575
0.00173801
0.011862
0.00160703
0.00856685
0.00147301
0.00362342
0.00136668
-0.00167984
0.0013046
-0.00600128
0.00128502
-0.00857117
0.00127767
-0.00942024
0.00124988
-0.00945861
0.00120931
-0.00929742
0.00119575
-0.00873797
0.00123733
-0.00706795
-0.00403569
0.000946714
-0.00727106
0.000909054
-0.0068377
0.000945453
-0.00550431
0.0010605
-0.00309842
0.00122437
-0.000145667
0.0014011
0.00265236
0.00156525
0.00501641
0.00170313
0.00720779
0.00180348
0.00955477
0.00185122
0.0117608
0.0018314
0.0128773
0.00174289
0.0119505
0.00161015
0.00869958
0.00147255
0.00376103
0.00136185
-0.00156914
0.00129564
-0.00593508
0.00127373
-0.00854925
0.00126668
-0.0094132
0.00124037
-0.00943229
0.00120025
-0.0092573
0.00118606
-0.00872378
0.00122744
-0.00710933
-0.00412374
0.000934901
-0.00720564
0.000896169
-0.00679897
0.000930071
-0.00553821
0.0010434
-0.00321175
0.00120681
-0.000309075
0.00138423
0.00247494
0.00155041
0.00485023
0.00169189
0.00706631
0.00179728
0.00944939
0.00185041
0.0117076
0.00183462
0.0128931
0.00174738
0.0120377
0.0016131
0.00883386
0.00147204
0.00390209
0.00135698
-0.00145408
0.00128661
-0.0058647
0.00126226
-0.00852491
0.00125547
-0.00940641
0.00123066
-0.00940749
0.00119107
-0.00921771
0.0011762
-0.0087089
0.00121726
-0.00715039
-0.00421274
0.000922908
-0.00714237
0.000883208
-0.00675927
0.000914483
-0.00556948
0.00102601
-0.00332328
0.001189
-0.000472069
0.00136705
0.00229689
0.00153505
0.00468224
0.00167993
0.00692143
0.00179023
0.00933908
0.00184882
0.011649
0.00183724
0.0129047
0.00175155
0.0121234
0.00161598
0.00896944
0.00147154
0.00404653
0.0013521
-0.00133464
0.00127748
-0.00579008
0.00125058
-0.00849801
0.00124398
-0.0093998
0.00122075
-0.00938426
0.00118177
-0.00917873
0.00116617
-0.0086933
0.00120677
-0.007191
-0.00430261
0.000910945
-0.00708145
0.000870422
-0.00671874
0.000898961
-0.00559802
0.00100852
-0.00343284
0.00117112
-0.000634664
0.00134979
0.00211822
0.0015194
0.00451262
0.00166741
0.00677343
0.00178247
0.00922402
0.00184652
0.011585
0.00183934
0.0129118
0.00175547
0.0122073
0.00161878
0.00910613
0.00147094
0.00419436
0.00134707
-0.00121077
0.0012682
-0.00571121
0.00123873
-0.00846854
0.00123229
-0.00939336
0.00121069
-0.00936266
0.00117239
-0.00914042
0.00115604
-0.00867695
0.00119607
-0.00723103
-0.00439328
0.000900031
0.000859055
-0.00667777
0.000884974
-0.00562394
0.000992489
-0.00354036
0.00115452
-0.000796694
0.00133361
0.00193913
0.00150453
0.0043417
0.00165525
0.00662271
0.00177466
0.00910461
0.00184391
0.0115157
0.00184097
0.0129148
0.00175877
0.0122895
0.00162068
0.00924422
0.0014692
0.00434585
0.00134105
-0.00108263
0.00125844
-0.0056286
0.00122681
-0.00843691
0.00122072
-0.00938727
0.00120083
-0.00934277
0.00116332
-0.00910291
0.00114622
-0.00865986
0.00118559
-0.0072704
-0.00448473
0.00432248
-0.00634034
0.0040827
-0.00538417
0.00402869
-0.00348634
0.00416834
-0.000936353
0.00442671
0.00168076
0.00471638
0.00405203
0.00495099
0.0063881
0.00509249
0.00896311
0.0051515
0.0114567
0.00515475
0.0129115
0.0051331
0.0123111
0.0051286
0.00924871
0.00516123
0.00431322
0.00521198
-0.00113338
0.00524824
-0.00566485
0.00526209
-0.00845076
0.00522647
-0.00935165
0.00509037
-0.00920668
0.00487342
-0.00888596
0.00467751
-0.00846395
0.00460219
-0.00719508
-0.00452828
0.00448602
-0.00600497
0.00423745
-0.0051356
0.00417205
-0.00342094
0.00429884
-0.00106314
0.00456012
0.00141948
0.00485421
0.00375794
0.00509883
0.00614348
0.00525969
0.00880225
0.00534345
0.011373
0.00536666
0.0128883
0.00535391
0.0123239
0.00535083
0.00925179
0.00538979
0.00427426
0.00544291
-0.0011865
0.00546767
-0.00568962
0.00546192
-0.00844502
0.00541183
-0.00930156
0.00526783
-0.00906268
0.00504111
-0.00865924
0.00483093
-0.00825377
0.00474469
-0.00710885
-0.00457087
0.00465768
-0.00567171
0.00440089
-0.0048788
0.0043224
-0.00334246
0.00444204
-0.00118278
0.00470074
0.00116078
0.00499855
0.00346013
0.00525391
0.00588812
0.00543391
0.00862225
0.00554062
0.0112663
0.00558354
0.0128454
0.00558344
0.012324
0.00559056
0.00924467
0.00563791
0.00422691
0.00569187
-0.00124045
0.00570161
-0.00569935
0.00567269
-0.0084161
0.00560576
-0.00923463
0.00545315
-0.00891008
0.00521642
-0.00842251
0.00499098
-0.00802832
0.00489253
-0.00701039
-0.00461089
0.00483803
-0.00534293
0.00457405
-0.00461482
0.00448269
-0.0032511
0.004593
-0.00129308
0.00484758
0.000906199
0.00514815
0.00315956
0.00541494
0.00562133
0.00561524
0.00842195
0.00574614
0.0111354
0.00581054
0.012781
0.00582578
0.0123087
0.00584538
0.00922508
0.00590241
0.00416988
0.00595574
-0.00129378
0.00594905
-0.00569266
0.0058945
-0.00836155
0.00580808
-0.00914821
0.00564601
-0.00874801
0.00539954
-0.00817605
0.00515799
-0.00778677
0.00504549
-0.00689789
-0.00464771
0.00502742
-0.0050217
0.00475784
-0.00434524
0.00465243
-0.00314569
0.00475037
-0.00139102
0.00499898
0.000657587
0.00530181
0.00285673
0.00558104
0.0053421
0.00580326
0.00819973
0.00596048
0.0109781
0.00604826
0.0126932
0.00608056
0.0122764
0.00611472
0.00919092
0.00618255
0.00410205
0.00623436
-0.00134559
0.0062099
-0.0056682
0.00612723
-0.00827888
0.00601857
-0.00903954
0.0058461
-0.00857554
0.00559046
-0.00792041
0.0053324
-0.0075287
0.00520409
-0.00676959
-0.00468006
0.00522537
-0.00471134
0.00495209
-0.00407196
0.00483112
-0.00302472
0.00491352
-0.00147343
0.0051539
0.000417207
0.00545867
0.00255196
0.00575142
0.00504935
0.00599747
0.00795368
0.00618311
0.0107925
0.00629566
0.0125807
0.00634724
0.0122248
0.00639898
0.00913918
0.00647804
0.00402298
0.0065272
-0.00139475
0.00648351
-0.00562451
0.00637049
-0.00816586
0.00623689
-0.00890594
0.00605304
-0.00839169
0.00578904
-0.00765641
0.00551451
-0.00725417
0.00536866
-0.00662373
-0.00470637
0.00543106
-0.00441513
0.00515664
-0.00379754
0.00501877
-0.00288685
0.00508195
-0.00153661
0.00531149
0.000187668
0.00561784
0.00224561
0.00592525
0.00474193
0.006197
0.00768193
0.00641256
0.0105769
0.00655134
0.0124419
0.00662561
0.0121506
0.00669804
0.00906676
0.00678836
0.00393266
0.00683332
-0.00143971
0.0067689
-0.00556009
0.00662363
-0.0080206
0.00646256
-0.00874487
0.00626631
-0.00819544
0.00599503
-0.00738513
0.00570456
-0.0069637
0.0055396
-0.00645876
-0.00472477
0.00564342
-0.00413611
0.00537133
-0.00352546
0.00521581
-0.00273132
0.00525563
-0.00157643
0.00547103
-2.77285e-05
0.00577825
0.00193839
0.0061014
0.00441878
0.00640041
0.00738292
0.00664694
0.0103304
0.00681392
0.0122749
0.00691493
0.0120496
0.00701114
0.00897055
0.00711257
0.00383124
0.00715139
-0.00147854
0.00706469
-0.00547338
0.00688572
-0.00784163
0.00669497
-0.00855412
0.00648528
-0.00798575
0.00620801
-0.00710786
0.00590274
-0.00665843
0.00571742
-0.00627344
-0.00473314
0.00586108
-0.00387666
0.00559571
-0.00326009
0.00542306
-0.00255868
0.00543532
-0.00158868
0.00563221
-0.000224621
0.00593881
0.00163179
0.00627847
0.00407913
0.0066059
0.00705549
0.0068842
0.0100521
0.00708166
0.0120775
0.00721376
0.0119175
0.00733699
0.00884732
0.00744923
0.003719
0.0074796
-0.00150891
0.00736909
-0.00536287
0.00715549
-0.00762802
0.00693333
-0.00833196
0.00670922
-0.00776164
0.00642745
-0.00682609
0.00610912
-0.0063401
0.00590268
-0.006067
-0.00472917
0.00608244
-0.00363798
0.00582888
-0.00300653
0.00564155
-0.00237135
0.00562263
-0.00156976
0.00579558
-0.000397566
0.00609883
0.00132854
0.00645502
0.00372294
0.00681135
0.00669915
0.00712178
0.00974168
0.00735212
0.0118471
0.00752005
0.0117495
0.00767369
0.00869367
0.00779622
0.00359648
0.00781561
-0.00152831
0.00767986
-0.00522712
0.00743137
-0.00737954
0.0071767
-0.00807729
0.00693732
-0.00752226
0.00665267
-0.00654144
0.00632368
-0.00601112
0.006096
-0.00583932
-0.00471048
0.00630588
-0.00341971
0.00606933
-0.00276998
0.00587207
-0.00217409
0.0058201
-0.00151779
0.00596285
-0.000540321
0.00625836
0.00103303
0.00662967
0.00335163
0.00701422
0.0063146
0.00735651
0.00939938
0.00762226
0.0115814
0.00783102
0.0115408
0.00801848
0.00850621
0.00815067
0.00346429
0.00815649
-0.00153412
0.00799432
-0.00506495
0.00771148
-0.0070967
0.007424
-0.0077898
0.00716869
-0.00726695
0.00688285
-0.0062556
0.00654623
-0.0056745
0.00629796
-0.00559104
-0.00467481
0.00653
-0.00321969
0.00631488
-0.00255485
0.0061147
-0.00197391
0.00603052
-0.00143361
0.00613723
-0.000647028
0.00641852
0.00075174
0.00680121
0.00296894
0.00721151
0.0059043
0.00758465
0.00902624
0.00788845
0.0112776
0.00814317
0.011286
0.00836755
0.00828183
0.00850891
0.00332293
0.00849865
-0.00152387
0.00830941
-0.00487571
0.00799368
-0.00678096
0.00767403
-0.00747016
0.00740242
-0.00699533
0.00711711
-0.00597029
0.0067764
-0.00533379
0.00650908
-0.00532372
-0.00462015
0.00675399
-0.0030342
0.00656292
-0.00236377
0.00636835
-0.00177934
0.00625652
-0.00132179
0.00632268
-0.000713185
0.00658142
0.000493001
0.00696861
0.00258175
0.0073999
0.00547301
0.00780202
0.00862412
0.00814647
0.0109331
0.00845216
0.0109804
0.00871648
0.00801752
0.00886616
0.00317326
0.00883803
-0.00149574
0.00862173
-0.00465942
0.0082756
-0.00643483
0.00792553
-0.00712009
0.00763761
-0.00670741
0.00735446
-0.00568715
0.00701365
-0.00499299
0.00672974
-0.0050398
-0.00454495
0.00697783
-0.00285856
0.00681086
-0.0021968
0.00663057
-0.00159905
0.00649938
-0.0011906
0.0065233
-0.00073711
0.00674977
0.000266532
0.00713108
0.00220045