/*--------------------------------*- C++ -*----------------------------------*\
  =========                 |
  \\      /  F ield         | OpenFOAM: The Open Source CFD Toolbox
   \\    /   O peration     | Website:  https://openfoam.org
    \\  /    A nd           | Version:  7
     \\/     M anipulation  |
\*---------------------------------------------------------------------------*/
FoamFile
{
    version     2.0;
    format      ascii;
    class       volVectorField;
    location    "180";
    object      U;
}
// * * * * * * * * * * * * * * * * * * * * * * * * * * * * * * * * * * * * * //

dimensions      [0 1 -1 0 0 0 0];

internalField   nonuniform List<vector> 
4575
(
(0.801036 -0.533455 -1.17951e-22)
(0.756461 -0.49546 -4.90895e-23)
(0.730563 -0.373166 9.36454e-23)
(0.730067 -0.180002 1.74059e-23)
(0.751689 0.0332734 -7.27548e-23)
(0.786556 0.214872 2.54135e-22)
(0.824564 0.336489 1.04278e-22)
(0.857573 0.400219 1.1357e-23)
(0.876399 0.430935 4.22905e-23)
(0.872561 0.454563 -2.37788e-23)
(0.84474 0.471826 1.1072e-22)
(0.803834 0.45625 1.81725e-23)
(0.767868 0.378903 3.68037e-23)
(0.750148 0.23801 -2.00709e-22)
(0.754035 0.0628636 -1.14236e-22)
(0.777135 -0.104746 -6.73831e-24)
(0.810296 -0.232569 -5.80081e-23)
(0.838147 -0.316237 -7.80505e-23)
(0.845119 -0.368389 7.3991e-23)
(0.828716 -0.398948 -6.28274e-23)
(0.798946 -0.392142 1.86468e-23)
(0.773108 -0.331034 2.47716e-23)
(0.762374 -0.213305 2.67742e-23)
(0.771533 -0.065228 -3.26945e-23)
(0.800893 -0.529081 -1.49423e-22)
(0.755089 -0.492107 -5.11593e-22)
(0.727905 -0.372049 2.58256e-22)
(0.726482 -0.181181 -3.8668e-22)
(0.747606 0.0304756 1.48657e-22)
(0.782555 0.211398 3.38608e-22)
(0.8213 0.333201 -2.03241e-22)
(0.85537 0.397868 1.19671e-22)
(0.875154 0.430222 -6.20014e-23)
(0.872014 0.455813 7.86152e-23)
(0.844758 0.474581 1.50425e-22)
(0.804578 0.459331 -8.94046e-23)
(0.769418 0.381098 2.06306e-22)
(0.752166 0.238699 -2.19e-22)
(0.756015 0.0620205 2.80567e-22)
(0.778705 -0.106687 2.01162e-22)
(0.811421 -0.234696 1.06743e-22)
(0.839024 -0.317431 6.34091e-23)
(0.845871 -0.368036 -2.2169e-22)
(0.829304 -0.397362 -1.34842e-23)
(0.799318 -0.390292 -2.50634e-22)
(0.773297 -0.329878 4.56383e-23)
(0.762563 -0.213329 -1.11257e-22)
(0.771786 -0.0662862 -2.56892e-22)
(0.80094 -0.524636 2.04579e-22)
(0.753926 -0.488744 2.63152e-22)
(0.725425 -0.371036 7.50864e-23)
(0.723042 -0.182555 4.71862e-22)
(0.743648 0.0274503 -9.1425e-22)
(0.778667 0.207705 1.99127e-22)
(0.818135 0.329725 -3.07344e-22)
(0.853254 0.395375 -1.69648e-22)
(0.873998 0.429405 -4.38701e-22)
(0.871573 0.456985 2.99445e-22)
(0.844916 0.47728 -3.93505e-22)
(0.805494 0.462398 4.65426e-23)
(0.771145 0.383351 1.93464e-22)
(0.754344 0.239522 -3.47708e-22)
(0.758137 0.0613506 6.21862e-22)
(0.780397 -0.108467 -3.12191e-22)
(0.812644 -0.236712 6.15089e-22)
(0.839995 -0.318563 3.12603e-22)
(0.846725 -0.367647 1.97452e-22)
(0.830007 -0.395758 1.20527e-23)
(0.799813 -0.388453 3.80243e-22)
(0.773608 -0.328773 -4.66877e-22)
(0.762857 -0.213435 9.54441e-23)
(0.772122 -0.067426 3.676e-22)
(0.801176 -0.520125 -5.29954e-22)
(0.752979 -0.485366 4.94755e-22)
(0.72313 -0.370119 -8.49754e-22)
(0.71975 -0.184115 -1.27837e-21)
(0.739816 0.024203 2.21135e-21)
(0.774892 0.203795 -1.45943e-21)
(0.815071 0.326062 5.41128e-22)
(0.851225 0.392739 5.49081e-22)
(0.872931 0.428482 -5.8011e-22)
(0.871238 0.458072 8.4082e-22)
(0.845213 0.479917 -2.12175e-22)
(0.806582 0.465448 5.4855e-22)
(0.773043 0.385665 -3.3658e-22)
(0.756678 0.240482 1.34943e-21)
(0.760401 0.0608577 1.73138e-22)
(0.782213 -0.110084 -3.7327e-22)
(0.813968 -0.238616 -7.43239e-22)
(0.841059 -0.319633 -7.29022e-22)
(0.847683 -0.367224 -1.12692e-22)
(0.830822 -0.394137 6.01386e-23)
(0.80043 -0.386625 -1.55928e-22)
(0.774037 -0.327718 5.56102e-22)
(0.763254 -0.213621 -5.37644e-23)
(0.772541 -0.0686455 1.11376e-22)
(0.801604 -0.515553 4.5892e-22)
(0.752251 -0.481971 -1.96493e-22)
(0.721025 -0.369286 8.44979e-23)
(0.716611 -0.185854 1.78466e-22)
(0.736112 0.0207394 -1.03145e-21)
(0.771232 0.199671 1.86286e-21)
(0.812103 0.322214 5.10774e-22)
(0.84928 0.389957 5.43675e-23)
(0.87195 0.427445 4.04047e-22)
(0.871005 0.459068 -7.74376e-22)
(0.845647 0.482487 -5.90576e-23)
(0.807836 0.468479 -6.45092e-22)
(0.775108 0.38804 -7.26613e-22)
(0.759164 0.241584 -1.43549e-21)
(0.762804 0.0605451 -1.33633e-21)
(0.784152 -0.111535 1.63038e-21)
(0.815393 -0.240406 6.2277e-22)
(0.842215 -0.320643 9.83545e-23)
(0.848742 -0.36677 1.33566e-22)
(0.831748 -0.392502 -1.89366e-22)
(0.801165 -0.384809 5.86123e-22)
(0.774582 -0.326711 -4.24853e-22)
(0.76375 -0.213885 3.45741e-22)
(0.773039 -0.0699426 3.91061e-22)
(0.802222 -0.510924 -5.12412e-22)
(0.75175 -0.478553 -1.05745e-21)
(0.719116 -0.368528 -3.01764e-23)
(0.713627 -0.187762 9.02953e-22)
(0.73254 0.0170656 -1.80717e-22)
(0.767686 0.195337 -3.51974e-22)
(0.809231 0.318182 -1.41853e-21)
(0.847417 0.387028 3.33068e-23)
(0.871053 0.426292 9.63845e-23)
(0.870874 0.459967 -1.00245e-21)
(0.846216 0.484983 5.00599e-22)
(0.809254 0.47149 -1.91144e-22)
(0.777336 0.390479 9.12128e-23)
(0.761798 0.242829 1.75913e-21)
(0.765346 0.0604159 -4.64432e-23)
(0.786217 -0.112817 -6.69509e-22)
(0.816919 -0.242082 -2.97064e-22)
(0.843464 -0.321595 8.36534e-22)
(0.849904 -0.366287 -1.32909e-23)
(0.832785 -0.390854 -3.30269e-23)
(0.802015 -0.383004 2.34861e-22)
(0.775241 -0.325749 -9.45325e-22)
(0.764343 -0.214224 -2.72426e-22)
(0.773613 -0.0713154 -9.12373e-22)
(0.80303 -0.506245 1.89686e-22)
(0.751478 -0.475109 1.75477e-22)
(0.717411 -0.367834 3.61089e-22)
(0.710802 -0.189828 -1.58733e-21)
(0.729099 0.013188 3.27119e-21)
(0.764254 0.190796 1.12609e-21)
(0.806454 0.313965 -4.12754e-23)
(0.845633 0.38395 -1.02856e-21)
(0.870237 0.425016 4.54062e-22)
(0.870842 0.460762 8.19799e-22)
(0.846918 0.487402 7.40778e-22)
(0.810831 0.474479 -1.78769e-22)
(0.779722 0.392982 -8.92101e-22)
(0.764578 0.24422 -6.79037e-22)
(0.768025 0.0604729 -6.37209e-24)
(0.788406 -0.113927 -1.32125e-21)
(0.818548 -0.243641 1.55677e-22)
(0.844804 -0.32249 -3.68022e-22)
(0.851166 -0.365778 -6.33778e-22)
(0.83393 -0.389196 2.47589e-22)
(0.802979 -0.38121 -4.92637e-22)
(0.776009 -0.324832 8.86295e-22)
(0.765029 -0.214634 7.20522e-23)
(0.774261 -0.0727621 8.41966e-22)
(0.804026 -0.501522 -5.14503e-22)
(0.75144 -0.471635 -5.1037e-22)
(0.715915 -0.367193 1.55556e-21)
(0.70814 -0.192043 9.49865e-22)
(0.725792 0.00911335 -2.58075e-21)
(0.760935 0.186051 5.18591e-22)
(0.803768 0.309567 -1.58109e-22)
(0.843927 0.38072 2.2322e-21)
(0.869499 0.423615 -3.22951e-21)
(0.870905 0.461447 5.73126e-22)
(0.84775 0.489736 -1.29325e-21)
(0.812563 0.477443 2.23334e-21)
(0.782261 0.395551 1.07936e-22)
(0.767499 0.245759 1.2332e-21)
(0.770838 0.0607186 5.1825e-22)
(0.790721 -0.114861 -1.8379e-22)
(0.820281 -0.245083 3.71039e-22)
(0.846234 -0.323329 1.68908e-22)
(0.852527 -0.365246 6.82105e-22)
(0.835183 -0.387528 -6.58457e-22)
(0.804054 -0.379427 -5.07192e-22)
(0.776885 -0.323956 1.39229e-22)
(0.765805 -0.215112 -1.27285e-21)
(0.774981 -0.0742807 2.65002e-22)
(0.805209 -0.49676 9.83411e-22)
(0.751638 -0.468128 5.36463e-22)
(0.714635 -0.366593 -2.6445e-21)
(0.705646 -0.194395 2.1565e-22)
(0.722621 0.00484888 -1.65468e-24)
(0.757729 0.181107 -1.13731e-21)
(0.801172 0.304986 3.18229e-22)
(0.842296 0.377338 -3.86168e-22)
(0.868835 0.422082 6.04305e-22)
(0.871061 0.462016 -1.83658e-21)
(0.848709 0.491981 1.39498e-21)
(0.814445 0.48038 9.79768e-23)
(0.784947 0.398185 -2.17172e-21)
(0.770555 0.247449 5.55542e-22)
(0.773782 0.0611555 4.76818e-21)
(0.793162 -0.115619 -2.88033e-22)
(0.822116 -0.246405 -1.46337e-21)
(0.847753 -0.324113 1.55049e-21)
(0.853987 -0.364693 -5.25146e-22)
(0.836542 -0.385853 -3.63289e-22)
(0.805236 -0.377655 7.12856e-22)
(0.777864 -0.32312 1.47554e-22)
(0.766668 -0.215657 1.75636e-21)
(0.775768 -0.0758693 -3.74312e-22)
(0.806575 -0.491965 -1.73613e-21)
(0.752074 -0.464584 2.84675e-22)
(0.713578 -0.366024 2.80642e-21)
(0.703323 -0.196872 -9.56538e-22)
(0.719586 0.000402724 8.75625e-22)
(0.754635 0.175968 3.65001e-22)
(0.798664 0.300226 -1.38417e-22)
(0.840735 0.373801 -8.42248e-22)
(0.868243 0.420414 -5.70866e-22)
(0.871308 0.462463 1.46197e-21)
(0.849791 0.494132 3.24492e-22)
(0.816471 0.483287 1.28083e-21)
(0.787774 0.400886 -2.22812e-21)
(0.773743 0.24929 1.08197e-21)
(0.776856 0.0617851 -2.29757e-21)
(0.795726 -0.116196 1.26965e-21)
(0.824056 -0.247606 -4.44325e-22)
(0.849361 -0.324843 2.05996e-21)
(0.855543 -0.364121 -2.40908e-21)
(0.838005 -0.384171 -8.77078e-22)
(0.806523 -0.375894 1.33288e-22)
(0.778943 -0.322322 -1.79805e-22)
(0.767614 -0.216265 -5.41584e-22)
(0.776622 -0.0775261 -3.80469e-22)
(0.752749 -0.461001 1.16388e-21)
(0.71275 -0.365474 5.21214e-22)
(0.701176 -0.199463 1.25298e-21)
(0.716689 -0.0042164 -2.16201e-21)
(0.751651 0.170637 1.46837e-21)
(0.796241 0.295287 -1.62337e-21)
(0.839244 0.370108 1.61514e-22)
(0.867718 0.418605 4.74125e-22)
(0.87164 0.462781 -4.87398e-22)
(0.850992 0.496182 -2.37866e-22)
(0.818637 0.486162 -1.79634e-21)
(0.790736 0.403653 1.33599e-21)
(0.777057 0.251284 -2.66986e-22)
(0.780054 0.0626091 -9.01975e-22)
(0.798415 -0.11659 -2.52201e-21)
(0.826101 -0.248684 -4.34806e-22)
(0.851055 -0.325519 -7.53452e-23)
(0.857193 -0.363534 1.67259e-21)
(0.839572 -0.382485 1.56702e-21)
(0.807912 -0.374142 9.19728e-23)
(0.780119 -0.321558 -6.32625e-23)
(0.76864 -0.216933 -6.85109e-22)
(0.777538 -0.0792493 2.22626e-22)
(0.753662 -0.457377 -8.39968e-22)
(0.712157 -0.364931 7.66344e-22)
(0.69921 -0.202156 -2.14192e-21)
(0.713932 -0.00900118 -1.5561e-22)
(0.748778 0.165121 1.6509e-21)
(0.793901 0.290171 8.21584e-23)
(0.837817 0.366257 4.11936e-22)
(0.867257 0.416652 1.21269e-22)
(0.872055 0.462965 1.94499e-21)
(0.852307 0.498127 -1.85206e-22)
(0.820935 0.489003 -8.78692e-22)
(0.793828 0.406487 -5.88959e-22)
(0.780492 0.253431 3.50032e-22)
(0.783373 0.0636291 -2.33451e-21)
(0.801227 -0.1168 -1.05196e-21)
(0.82825 -0.249636 -3.05258e-22)
(0.852835 -0.326143 -2.97224e-21)
(0.858936 -0.362933 2.57124e-21)
(0.841241 -0.380796 -2.58555e-21)
(0.8094 -0.372399 -6.87219e-22)
(0.781387 -0.320828 5.84684e-22)
(0.769743 -0.217658 -5.67236e-22)
(0.778515 -0.0810371 3.36482e-22)
(0.754811 -0.453711 4.31158e-22)
(0.711806 -0.364385 1.68916e-21)
(0.69743 -0.204937 4.84239e-22)
(0.711316 -0.0139406 -1.49752e-21)
(0.746015 0.159423 1.28687e-21)
(0.791642 0.28488 -2.21851e-21)
(0.836452 0.362247 1.39894e-21)
(0.866855 0.414551 -1.97319e-21)
(0.872549 0.463008 3.65056e-22)
(0.853732 0.499962 2.66461e-21)
(0.82336 0.491806 -3.38316e-21)
(0.797043 0.409385 1.05358e-22)
(0.784042 0.255732 -2.47769e-21)
(0.786809 0.0648463 6.10398e-21)
(0.804159 -0.116823 -2.36443e-22)
(0.830504 -0.250461 -1.64679e-21)
(0.854699 -0.326713 1.41102e-21)
(0.860768 -0.36232 1.43691e-22)
(0.84301 -0.379105 -1.37697e-22)
(0.810983 -0.370665 8.81108e-22)
(0.782744 -0.320128 -9.17548e-22)
(0.77092 -0.218437 1.34725e-21)
(0.779549 -0.0828876 -8.96292e-23)
(0.756195 -0.450003 3.88204e-21)
(0.711704 -0.363825 -8.76888e-22)
(0.695844 -0.207792 3.84202e-22)
(0.708843 -0.0190334 7.35237e-22)
(0.743359 0.153549 -1.06217e-22)
(0.789461 0.279417 -2.37658e-21)
(0.835145 0.358078 -6.33311e-22)
(0.866509 0.412297 4.22075e-22)
(0.873118 0.462905 -1.05743e-21)
(0.855262 0.50168 -3.31648e-21)
(0.825906 0.494568 2.70086e-21)
(0.800374 0.412348 1.78976e-21)
(0.787701 0.258187 5.83956e-21)
(0.790358 0.0662611 -2.34701e-21)
(0.807211 -0.116657 5.07067e-22)
(0.832862 -0.251156 7.31117e-22)
(0.856645 -0.32723 -1.166e-21)
(0.862689 -0.361698 8.84849e-23)
(0.844878 -0.377413 4.67944e-22)
(0.81266 -0.368938 -8.26042e-22)
(0.784186 -0.319456 8.31625e-22)
(0.772166 -0.219267 -6.75613e-22)
(0.780637 -0.0847992 1.224e-22)
(0.757808 -0.446253 -4.66699e-21)
(0.711854 -0.36324 -4.79473e-21)
(0.694455 -0.210709 3.07849e-21)
(0.706516 -0.02427 1.45632e-21)
(0.740812 0.147506 -3.39686e-21)
(0.787357 0.273782 4.28209e-21)
(0.833892 0.353747 -3.17456e-23)
(0.866214 0.409887 1.07683e-21)
(0.873756 0.462649 -7.17534e-22)
(0.856891 0.503276 6.35864e-22)
(0.828566 0.497287 6.72824e-22)
(0.803816 0.415373 7.73842e-22)
(0.791463 0.260795 -3.16138e-21)
(0.794014 0.0678741 -2.57357e-21)
(0.810379 -0.116301 3.91311e-21)
(0.835325 -0.25172 2.01996e-21)
(0.858673 -0.327695 2.3746e-22)
(0.864693 -0.361069 -3.14767e-22)
(0.846843 -0.375722 2.49041e-21)
(0.814428 -0.367218 6.46755e-22)
(0.78571 -0.31881 -4.2044e-22)
(0.77348 -0.220145 6.92227e-22)
(0.781777 -0.0867698 -4.86016e-22)
(0.759647 -0.442461 7.07945e-22)
(0.712262 -0.36262 2.42144e-21)
(0.693273 -0.213673 2.66631e-21)
(0.704337 -0.0296293 -3.25421e-22)
(0.738372 0.141298 1.65848e-21)
(0.785326 0.26798 -2.32702e-21)
(0.832691 0.349255 -1.77425e-21)
(0.865966 0.407316 2.3398e-21)
(0.87446 0.462236 -1.29114e-22)
(0.858614 0.504745 2.19974e-21)
(0.831334 0.499957 -4.76607e-21)
(0.807361 0.41846 -1.8062e-21)
(0.795323 0.263556 -7.44612e-22)
(0.797773 0.0696853 2.43692e-21)
(0.813662 -0.115753 -1.64622e-21)
(0.837893 -0.252148 -2.60683e-21)
(0.860781 -0.328106 1.79745e-21)
(0.866779 -0.360434 -8.67312e-22)
(0.848903 -0.374032 -8.70655e-22)
(0.816284 -0.365503 -9.78239e-22)
(0.787311 -0.318186 1.187e-22)
(0.774856 -0.221068 -6.2649e-22)
(0.782966 -0.0887978 6.71938e-22)
(0.761705 -0.438629 -1.55827e-21)
(0.712931 -0.361957 7.09886e-22)
(0.692303 -0.216669 -8.22318e-22)
(0.702309 -0.0351047 -5.43329e-22)
(0.73604 0.134932 3.99559e-22)
(0.783365 0.262012 -3.07385e-21)
(0.831535 0.344601 2.94841e-22)
(0.86576 0.404581 1.21178e-21)
(0.875224 0.46166 -1.65373e-21)
(0.860424 0.506083 3.62502e-21)
(0.834202 0.502577 -4.18915e-21)
(0.811004 0.421607 2.97435e-21)
(0.799274 0.266469 4.37467e-21)
(0.801629 0.0716947 -4.53508e-22)
(0.817057 -0.115012 2.53225e-21)
(0.840564 -0.252441 1.48897e-22)
(0.862968 -0.328462 6.31406e-22)
(0.868943 -0.359796 -1.34775e-21)
(0.851056 -0.372346 -4.56112e-22)
(0.818226 -0.363794 -8.86212e-22)
(0.788985 -0.317583 -7.35183e-22)
(0.776292 -0.222033 3.96687e-22)
(0.7842 -0.0908813 1.08527e-21)
(0.763976 -0.434759 1.64855e-22)
(0.713862 -0.361243 -3.05009e-21)
(0.691554 -0.219684 1.94263e-21)
(0.700436 -0.0406856 3.27734e-22)
(0.733814 0.128416 3.40978e-21)
(0.781474 0.255882 9.55128e-22)
(0.830423 0.339784 -2.30693e-21)
(0.865591 0.40168 -8.72053e-22)
(0.876044 0.460915 -1.23473e-21)
(0.862316 0.507283 -9.54349e-22)
(0.837165 0.505142 8.39771e-22)
(0.814736 0.42481 -2.52589e-21)
(0.803309 0.269532 1.50326e-21)
(0.805577 0.0739018 -5.53629e-21)
(0.82056 -0.114077 2.55441e-22)
(0.843338 -0.252594 -3.14956e-22)
(0.865231 -0.328763 -2.78465e-21)
(0.871183 -0.359156 1.9133e-21)
(0.8533 -0.370665 1.00245e-21)
(0.820252 -0.362087 -2.66984e-22)
(0.790728 -0.316997 1.47046e-22)
(0.777784 -0.223038 8.52868e-22)
(0.785477 -0.0930184 -1.65879e-21)
(0.766452 -0.430854 -2.17101e-21)
(0.715057 -0.360469 -5.93188e-22)
(0.691033 -0.222703 -2.81513e-21)
(0.698723 -0.0463573 3.67984e-21)
(0.731695 0.121756 -4.47779e-22)
(0.779649 0.249593 -1.52235e-21)
(0.829349 0.334805 1.95348e-21)
(0.865455 0.398608 -1.25021e-21)
(0.876914 0.459996 1.0162e-21)
(0.864283 0.50834 4.69653e-21)
(0.840214 0.507647 -2.54357e-21)
(0.818553 0.428067 3.98421e-21)
(0.807423 0.272745 1.95178e-21)
(0.809611 0.0763057 -1.52302e-21)
(0.824167 -0.112946 4.41078e-21)
(0.846215 -0.252605 7.50665e-23)
(0.867571 -0.329007 5.00413e-22)
(0.873494 -0.358516 -3.15044e-22)
(0.855632 -0.368989 -9.23963e-22)
(0.822361 -0.360384 -4.01681e-22)
(0.792536 -0.316426 6.97015e-22)
(0.779328 -0.224078 -9.37221e-24)
(0.786794 -0.0952073 1.97748e-22)
(0.769126 -0.426917 6.74554e-22)
(0.716513 -0.359629 3.79528e-21)
(0.690749 -0.225711 -5.04907e-21)
(0.697174 -0.0521095 2.50796e-21)
(0.729685 0.114961 -2.48252e-21)
(0.777889 0.243149 8.53435e-22)
(0.828311 0.329664 -1.30064e-21)
(0.865347 0.395363 3.83186e-21)
(0.877828 0.458899 -1.99525e-21)
(0.866319 0.509249 -5.03756e-21)
(0.843343 0.510089 -1.29089e-21)
(0.822445 0.431376 -5.05036e-22)
(0.811608 0.276106 4.99597e-21)
(0.813725 0.0789056 2.24978e-21)
(0.827876 -0.11162 -1.2267e-21)
(0.849192 -0.252472 -3.35531e-22)
(0.869985 -0.329193 -2.32667e-21)
(0.875873 -0.357877 3.98058e-22)
(0.85805 -0.367321 1.31874e-21)
(0.82455 -0.358681 5.77793e-22)
(0.794406 -0.315868 2.60748e-22)
(0.780922 -0.225151 5.4479e-22)
(0.788148 -0.097446 7.56562e-23)
(0.771989 -0.422952 -9.41061e-22)
(0.718227 -0.358719 1.31928e-21)
(0.69071 -0.228695 -3.07933e-21)
(0.695795 -0.0579296 1.55837e-21)
(0.727783 0.108038 2.01995e-21)
(0.776191 0.236554 2.37731e-21)
(0.827304 0.324363 -3.98138e-23)
(0.865262 0.391943 -3.20829e-21)
(0.878781 0.457619 2.42015e-21)
(0.868416 0.510005 -1.89872e-22)
(0.846546 0.512464 -8.97271e-22)
(0.826408 0.434733 3.0336e-21)
(0.815858 0.279611 -7.59716e-21)
(0.817914 0.0817003 -7.21002e-21)
(0.831682 -0.110098 5.03924e-21)
(0.852269 -0.252193 1.85222e-21)
(0.872473 -0.32932 -1.13661e-21)
(0.878316 -0.35724 -1.22949e-22)
(0.860551 -0.365662 -1.98279e-21)
(0.826819 -0.356979 1.02331e-21)
(0.796333 -0.315318 -6.96335e-22)
(0.782561 -0.226255 2.56814e-22)
(0.789537 -0.0997327 -9.03825e-22)
(0.775036 -0.418963 8.05819e-22)
(0.720195 -0.357733 8.07951e-22)
(0.690921 -0.231642 4.09598e-21)
(0.694593 -0.0638013 2.72976e-22)
(0.725991 0.100997 1.4008e-22)
(0.774554 0.229813 -2.73288e-21)
(0.826324 0.3189 2.01577e-21)
(0.865195 0.388346 3.83551e-22)
(0.879767 0.456151 1.51447e-21)
(0.870569 0.510602 1.49798e-23)
(0.849814 0.514765 7.35885e-23)
(0.830434 0.438135 -3.63984e-21)
(0.820167 0.28326 3.17284e-21)
(0.822172 0.0846884 1.83587e-21)
(0.835581 -0.10838 -5.71447e-21)
(0.855445 -0.251766 -9.21343e-23)
(0.875033 -0.329384 3.11933e-21)
(0.880821 -0.356607 -5.2973e-22)
(0.863132 -0.364014 6.67202e-22)
(0.829166 -0.355276 3.39294e-22)
(0.798315 -0.314775 2.06996e-21)
(0.784241 -0.227385 -1.58081e-21)
(0.790958 -0.102065 -5.56354e-23)
(0.778257 -0.414954 -4.56695e-22)
(0.722408 -0.356668 -5.4432e-22)
(0.691391 -0.234539 3.14602e-21)
(0.693577 -0.0697107 -5.49405e-21)
(0.724313 0.0938478 -1.41702e-21)
(0.772976 0.222931 -7.1311e-22)
(0.825367 0.31328 -1.6493e-21)
(0.865142 0.384569 -1.93283e-21)
(0.88078 0.454492 1.86379e-21)
(0.87277 0.511036 -4.10893e-21)
(0.853141 0.516989 3.27883e-21)
(0.834517 0.441577 4.51313e-22)
(0.824529 0.287048 1.00567e-21)
(0.826492 0.087868 2.70129e-21)
(0.839569 -0.106465 3.99214e-21)
(0.858717 -0.251187 -5.23267e-21)
(0.877664 -0.329385 -4.12585e-22)
(0.883384 -0.355979 1.79582e-22)
(0.865789 -0.362378 -6.47495e-22)
(0.831591 -0.353571 -8.8757e-22)
(0.800348 -0.314235 -3.91459e-22)
(0.78596 -0.22854 2.13164e-22)
(0.792407 -0.104442 1.01126e-21)
(0.781646 -0.410932 2.31507e-22)
(0.724858 -0.355522 1.29593e-21)
(0.692123 -0.237375 -9.43875e-22)
(0.692753 -0.0756443 2.76576e-21)
(0.72275 0.0865994 1.8803e-21)
(0.771457 0.215913 7.75352e-22)
(0.824431 0.307502 1.82048e-21)
(0.865096 0.380611 -1.40928e-21)
(0.881815 0.452637 1.59609e-22)
(0.875012 0.511302 -2.82907e-21)
(0.85652 0.519131 1.88454e-21)
(0.83865 0.445055 -4.65866e-21)
(0.828936 0.290974 -1.0185e-21)
(0.83087 0.0912371 5.46737e-21)
(0.843641 -0.104355 -6.92924e-21)
(0.862084 -0.250455 3.69038e-22)
(0.880365 -0.329321 3.16466e-21)
(0.886001 -0.355356 -2.20151e-21)
(0.868519 -0.360756 1.32684e-21)
(0.834093 -0.351863 -2.00369e-22)
(0.802429 -0.313695 1.34275e-21)
(0.787712 -0.229715 -1.92694e-21)
(0.793884 -0.106861 1.07592e-21)
(0.785196 -0.406899 3.7113e-21)
(0.727536 -0.354293 -1.42576e-21)
(0.69312 -0.240139 -3.32431e-21)
(0.692133 -0.081588 -3.02361e-22)
(0.721308 0.0792631 -2.67791e-22)
(0.769995 0.208765 -1.84953e-21)
(0.823512 0.301569 -4.57607e-22)
(0.865054 0.376472 -2.75801e-22)
(0.882864 0.450583 2.31399e-21)
(0.877288 0.511394 5.13985e-22)
(0.859944 0.521184 2.29266e-21)
(0.842826 0.448565 -6.41043e-21)
(0.833382 0.295033 4.09656e-21)
(0.835299 0.0947935 -4.5902e-21)
(0.847793 -0.102049 7.17733e-21)
(0.865543 -0.249569 -1.64829e-21)
(0.883135 -0.329187 4.39694e-23)
(0.888669 -0.354739 -9.5662e-22)
(0.871318 -0.35915 4.18064e-22)
(0.83667 -0.350152 -8.6248e-22)
(0.804557 -0.313153 -1.59755e-21)
(0.789495 -0.230909 2.21485e-21)
(0.795384 -0.109319 9.17205e-22)
(0.7889 -0.402863 6.45908e-23)
(0.730429 -0.352979 1.44191e-21)
(0.694382 -0.242821 -1.51382e-21)
(0.691725 -0.0875271 -5.69569e-22)
(0.719991 0.0718502 1.39361e-21)
(0.76859 0.201494 9.94717e-22)
(0.822606 0.295484 -2.79299e-22)
(0.865011 0.37215 -1.08964e-21)
(0.883923 0.448327 -9.1414e-22)
(0.879592 0.511307 -3.79115e-21)
(0.863406 0.523144 9.39491e-22)
(0.847039 0.452101 5.45776e-21)
(0.837862 0.299222 -4.92241e-21)
(0.839773 0.0985347 8.18701e-22)
(0.852021 -0.0995491 -2.33732e-21)
(0.869092 -0.248525 -2.11295e-21)
(0.885971 -0.328983 4.94611e-21)
(0.891386 -0.354127 2.23841e-21)
(0.874182 -0.357562 -1.81703e-21)
(0.839322 -0.348436 1.51209e-21)
(0.806728 -0.312604 -1.74555e-21)
(0.791303 -0.232117 -1.56283e-21)
(0.796906 -0.111816 -8.61678e-22)
(0.792752 -0.398829 -6.49402e-22)
(0.733527 -0.351582 2.59221e-21)
(0.695906 -0.245412 1.29367e-22)
(0.69154 -0.0934476 3.15275e-22)
(0.718807 0.0643727 -1.65985e-21)
(0.767245 0.194107 2.71943e-21)
(0.821711 0.289249 -1.97514e-22)
(0.864961 0.367645 -4.32669e-22)
(0.884984 0.445866 8.3014e-22)
(0.881916 0.511038 2.61761e-22)
(0.866898 0.525005 1.09788e-21)
(0.851282 0.455659 -1.8777e-21)
(0.842369 0.303537 5.85112e-21)
(0.844289 0.102458 -1.30307e-21)
(0.856319 -0.0968553 -3.59895e-23)
(0.872729 -0.247322 -4.95786e-22)
(0.888874 -0.328704 -3.97412e-21)
(0.894147 -0.353522 9.23513e-22)
(0.877106 -0.355993 -1.47598e-21)
(0.842048 -0.346716 6.96321e-22)
(0.808943 -0.312046 8.52236e-22)
(0.793132 -0.233337 1.95906e-21)
(0.798447 -0.114349 -8.00145e-23)
(0.796745 -0.394802 2.52129e-21)
(0.736819 -0.350101 -5.73648e-21)
(0.697686 -0.247906 1.88182e-21)
(0.691588 -0.0993361 -3.23684e-21)
(0.717764 0.0568431 2.04178e-21)
(0.765959 0.186611 -3.32084e-21)
(0.820825 0.282869 2.43382e-21)
(0.864901 0.362957 2.33695e-21)
(0.886041 0.443197 -1.85951e-22)
(0.884253 0.51058 2.25328e-21)
(0.870415 0.526761 -1.95686e-21)
(0.85555 0.459233 2.31025e-21)
(0.846897 0.307974 -1.03155e-22)
(0.84884 0.10656 -7.17908e-21)
(0.860684 -0.093969 1.01062e-21)
(0.876451 -0.245958 4.81258e-21)
(0.891841 -0.328349 2.85269e-21)
(0.896951 -0.352922 5.25718e-22)
(0.880087 -0.354447 -1.13062e-21)
(0.844845 -0.34499 2.74763e-22)
(0.811201 -0.311475 -7.44189e-23)
(0.794979 -0.234566 -5.18117e-22)
(0.800005 -0.116916 -9.20227e-22)
(0.800873 -0.390789 1.52231e-21)
(0.740295 -0.348536 -1.69766e-21)
(0.699713 -0.250296 -1.00268e-21)
(0.691878 -0.10518 -4.28259e-23)
(0.716872 0.0492741 1.68092e-21)
(0.764738 0.179015 4.92263e-22)
(0.819946 0.276348 -1.25033e-21)
(0.864825 0.358088 -8.39623e-22)
(0.887089 0.440317 4.92829e-23)
(0.886596 0.50993 -3.12041e-21)
(0.87395 0.528405 -5.1179e-22)
(0.859836 0.462817 3.06241e-21)
(0.851441 0.312528 2.19204e-21)
(0.853422 0.110838 -1.85207e-21)
(0.865112 -0.0908916 5.24852e-22)
(0.880255 -0.244432 4.2565e-21)
(0.894871 -0.327914 -1.21972e-21)
(0.899793 -0.352327 -9.83157e-22)
(0.883121 -0.352924 1.36226e-21)
(0.847714 -0.343258 7.34714e-22)
(0.8135 -0.310889 1.78719e-23)
(0.796839 -0.2358 -9.03933e-22)
(0.801577 -0.119514 2.71794e-22)
(0.805127 -0.386797 -9.00149e-23)
(0.743945 -0.346889 1.69018e-22)
(0.701972 -0.252578 -1.18463e-21)
(0.692417 -0.110967 -2.53175e-21)
(0.716145 0.0416788 5.18933e-21)
(0.763587 0.171328 -2.33068e-21)
(0.819074 0.26969 -1.22781e-21)
(0.86473 0.353037 1.01242e-21)
(0.888122 0.437226 8.75689e-22)
(0.888938 0.509083 -8.89798e-22)
(0.877496 0.529933 1.65871e-21)
(0.864134 0.466406 -2.92909e-21)
(0.855995 0.317194 5.63251e-22)
(0.858032 0.115289 -4.57634e-22)
(0.869598 -0.0876244 6.50585e-22)
(0.884138 -0.242742 -1.53638e-21)
(0.897962 -0.327395 -2.65904e-21)
(0.902672 -0.351738 6.22247e-22)
(0.886202 -0.351426 -1.14435e-21)
(0.850651 -0.341522 1.65722e-21)
(0.815843 -0.310284 8.50936e-22)
(0.798709 -0.237036 4.88216e-22)
(0.803161 -0.122143 -7.06532e-22)
(0.8095 -0.382832 1.06498e-21)
(0.747762 -0.345161 6.18104e-22)
(0.70445 -0.254746 3.73511e-21)
(0.693209 -0.116688 -6.25021e-22)
(0.715598 0.0340706 -1.50937e-21)
(0.762515 0.16356 2.42114e-21)
(0.818211 0.2629 -6.10375e-22)
(0.864613 0.347808 5.86572e-22)
(0.889132 0.433921 -2.38642e-21)
(0.891273 0.508034 3.1667e-21)
(0.881046 0.531337 -8.15073e-22)
(0.868437 0.469992 2.23427e-21)
(0.860555 0.321968 -3.2168e-21)
(0.862666 0.119908 -2.69784e-21)
(0.874139 -0.0841693 -9.4387e-22)
(0.888096 -0.240887 -6.92475e-23)
(0.901114 -0.326791 1.71212e-21)
(0.905584 -0.351151 -9.71869e-22)
(0.889328 -0.349957 -1.33054e-21)
(0.853655 -0.33978 5.26947e-22)
(0.818229 -0.309656 -3.75918e-23)
(0.800584 -0.238271 -1.05944e-21)
(0.804752 -0.1248 2.8012e-22)
(0.813984 -0.378902 -2.02913e-22)
(0.75174 -0.343354 -3.91887e-21)
(0.707129 -0.256798 -8.29887e-22)
(0.694253 -0.122333 6.26062e-22)
(0.715247 0.0264622 5.7904e-22)
(0.761535 0.155721 1.19638e-21)
(0.81736 0.255985 -2.88002e-21)
(0.864472 0.342402 1.33402e-21)
(0.890115 0.430402 -2.68829e-21)
(0.893592 0.50678 1.61453e-21)
(0.884594 0.532611 -3.14412e-21)
(0.872741 0.473569 1.81346e-21)
(0.865116 0.326843 3.26421e-21)
(0.867323 0.124692 6.60395e-21)
(0.878732 -0.0805278 3.62721e-21)
(0.892127 -0.238865 -3.78797e-21)
(0.904324 -0.326097 -2.33413e-21)
(0.908527 -0.350567 -1.61506e-21)
(0.892493 -0.348516 -1.96032e-22)
(0.856723 -0.338035 -1.13508e-21)
(0.82066 -0.309003 1.29839e-22)
(0.802461 -0.2395 2.2712e-22)
(0.806348 -0.127483 8.84412e-23)
(0.818568 -0.375015 -2.17845e-21)
(0.755872 -0.341469 3.78301e-22)
(0.709992 -0.25873 1.71747e-21)
(0.695544 -0.127895 -5.07122e-22)
(0.715112 0.0188656 -2.88578e-22)
(0.760663 0.147822 -7.207e-22)
(0.816528 0.248952 1.032e-21)
(0.864305 0.336823 -1.8786e-21)
(0.891066 0.426669 1.85541e-21)
(0.89589 0.505317 -1.22764e-21)
(0.888134 0.533749 2.02734e-21)
(0.877039 0.47713 -1.93074e-21)
(0.869674 0.331814 -1.89107e-21)
(0.872002 0.129637 -4.38814e-21)
(0.883375 -0.0767016 6.20545e-21)
(0.896227 -0.236675 8.90277e-22)
(0.90759 -0.32531 -2.28985e-23)
(0.911498 -0.349984 1.09075e-21)
(0.895694 -0.347108 2.19586e-21)
(0.859852 -0.336286 -1.07592e-22)
(0.823136 -0.308322 -1.34839e-21)
(0.804339 -0.240721 1.16947e-23)
(0.807944 -0.13019 -1.68431e-22)
(0.823244 -0.371179 -4.06273e-21)
(0.760153 -0.339508 3.12705e-21)
(0.713023 -0.26054 1.31659e-21)
(0.69707 -0.13337 -2.00106e-21)
(0.71521 0.011291 2.10967e-21)
(0.759926 0.139875 5.58917e-22)
(0.81573 0.241809 1.67748e-21)
(0.864115 0.331074 -3.04362e-21)
(0.89198 0.42272 -1.50108e-21)
(0.898161 0.50364 8.61883e-22)
(0.891659 0.534745 2.88846e-21)
(0.881325 0.480667 -7.41436e-21)
(0.874228 0.336874 1.80455e-21)
(0.876705 0.13474 -1.99515e-21)
(0.888065 -0.0726917 -1.35889e-21)
(0.900393 -0.234317 3.2335e-21)
(0.910911 -0.324429 -2.79629e-21)
(0.914495 -0.349402 1.326e-21)
(0.898927 -0.345733 -5.49526e-22)
(0.863041 -0.334535 -7.70614e-22)
(0.82566 -0.307611 9.95366e-22)
(0.806217 -0.241929 -5.92431e-22)
(0.809535 -0.13292 -1.19957e-23)
(0.828001 -0.367401 6.29527e-22)
(0.76458 -0.337471 -8.42983e-22)
(0.716206 -0.262221 2.11108e-22)
(0.698811 -0.138751 -2.2391e-21)
(0.71556 0.00375446 4.96057e-22)
(0.759356 0.13189 2.23775e-21)
(0.814989 0.234564 -3.45838e-21)
(0.863911 0.325161 4.32325e-21)
(0.892857 0.418558 1.81559e-21)
(0.900399 0.501747 -3.3879e-21)
(0.895165 0.535591 4.98193e-21)
(0.885595 0.484175 1.86823e-21)
(0.878779 0.342017 1.19997e-21)
(0.881436 0.139994 -3.55865e-21)
(0.892801 -0.0685017 -2.79782e-21)
(0.90462 -0.231791 1.91435e-21)
(0.914285 -0.323448 -3.53715e-22)
(0.917515 -0.348817 2.3953e-21)
(0.902187 -0.344393 -3.77469e-21)
(0.866285 -0.332783 1.59899e-21)
(0.828232 -0.306865 1.00066e-21)
(0.808092 -0.24312 1.8539e-22)
(0.811116 -0.135669 -1.84404e-22)
(0.832828 -0.36368 2.45102e-21)
(0.769147 -0.335353 1.06373e-21)
(0.719531 -0.263762 2.84727e-22)
(0.700744 -0.14402 -1.13652e-21)
(0.716172 -0.00371963 -1.25269e-22)
(0.758995 0.123885 -2.27042e-21)
(0.814342 0.227231 3.00312e-22)
(0.86371 0.319091 7.19779e-22)
(0.893698 0.414185 -4.37777e-22)
(0.902601 0.499635 -2.22164e-21)
(0.898647 0.536281 -3.19376e-21)
(0.889846 0.487642 6.27452e-21)
(0.883332 0.347231 8.45713e-22)
(0.886205 0.145388 -5.2878e-21)
(0.897585 -0.0641414 -2.28692e-21)
(0.908905 -0.229096 1.8226e-21)
(0.917709 -0.32236 1.72067e-23)
(0.920556 -0.34822 1.2117e-21)
(0.905471 -0.343082 1.45012e-21)
(0.869582 -0.331026 -6.20539e-22)
(0.830854 -0.306078 -1.03267e-21)
(0.809968 -0.244284 -4.1008e-22)
(0.812681 -0.138431 3.71931e-22)
(0.837714 -0.360038 3.40711e-22)
(0.773848 -0.333175 9.15824e-22)
(0.722989 -0.265172 -1.05872e-21)
(0.702837 -0.149184 -1.25945e-21)
(0.717052 -0.0111456 1.8873e-21)
(0.758894 0.115881 1.29988e-21)
(0.813846 0.219831 -1.56049e-21)
(0.86355 0.312881 -6.60175e-22)
(0.894518 0.409609 -8.83771e-22)
(0.90477 0.497304 2.62135e-22)
(0.902104 0.536806 -1.09552e-21)
(0.89408 0.491052 2.73808e-21)
(0.887902 0.352493 3.6357e-21)
(0.891026 0.150905 -2.54152e-21)
(0.902416 -0.0596099 2.3262e-21)
(0.913245 -0.22622 -1.6516e-21)
(0.921182 -0.321153 2.63706e-21)
(0.923616 -0.347605 -2.56127e-21)
(0.908774 -0.341803 -2.89854e-22)
(0.872928 -0.329269 9.29891e-22)
(0.833526 -0.305252 -5.6754e-22)
(0.811843 -0.245423 3.67282e-22)
(0.814223 -0.141207 -6.3678e-23)
(0.842647 -0.356552 1.30842e-21)
(0.778677 -0.330998 -2.35197e-21)
(0.726578 -0.266525 7.76968e-22)