/*--------------------------------*- C++ -*----------------------------------*\
  =========                 |
  \\      /  F ield         | OpenFOAM: The Open Source CFD Toolbox
   \\    /   O peration     | Website:  https://openfoam.org
    \\  /    A nd           | Version:  7
     \\/     M anipulation  |
\*---------------------------------------------------------------------------*/
FoamFile
{
    version     2.0;
    format      ascii;
    class       volVectorField;
    location    "40";
    object      U;
}
// * * * * * * * * * * * * * * * * * * * * * * * * * * * * * * * * * * * * * //

dimensions      [0 1 -1 0 0 0 0];

internalField   nonuniform List<vector> 
4575
(
(-0.00780124 0.00117669 3.36345e-22)
(-0.0121285 0.00136488 5.82211e-22)
(-0.0170158 0.00150233 -4.18327e-21)
(-0.0223033 0.00159602 7.00882e-22)
(-0.027856 0.00165274 -2.69302e-21)
(-0.0335605 0.00167918 -5.65162e-21)
(-0.0393249 0.00168181 4.71664e-21)
(-0.0450784 0.00166692 1.36989e-21)
(-0.0507711 0.00164049 -1.60601e-21)
(-0.0563731 0.00160816 1.9282e-21)
(-0.0618733 0.00157512 2.58066e-21)
(-0.0672781 0.0015459 -1.59547e-21)
(-0.0726084 0.00152423 -2.10969e-21)
(-0.0778973 0.00151276 -4.95756e-21)
(-0.0831967 0.00151269 -3.76638e-22)
(-0.0885167 0.00152368 -8.10186e-22)
(-0.093795 0.00154556 -1.56024e-21)
(-0.00787388 0.00344232 -6.51038e-21)
(-0.0122059 0.00399571 2.94157e-21)
(-0.0170923 0.00440121 1.74287e-20)
(-0.0223738 0.00467887 -1.04742e-20)
(-0.0279158 0.00484837 1.73709e-21)
(-0.0336054 0.00492907 8.13931e-21)
(-0.0393508 0.00493987 -2.99501e-24)
(-0.0450814 0.00489917 4.60426e-21)
(-0.0507476 0.00482461 -5.96496e-21)
(-0.0563194 0.00473292 6.10871e-21)
(-0.0617861 0.00463953 -5.14622e-21)
(-0.0671543 0.00455812 -1.9581e-21)
(-0.0724454 0.00449994 9.65448e-21)
(-0.077693 0.00447314 -2.96745e-21)
(-0.08295 0.00448156 4.51623e-22)
(-0.088227 0.00452435 -5.36027e-21)
(-0.0934592 0.00460143 -5.65148e-22)
(-0.00801823 0.00569615 1.64473e-20)
(-0.0123596 0.00661294 -1.28629e-20)
(-0.0172443 0.00728506 -1.95415e-20)
(-0.022514 0.00774554 1.73604e-20)
(-0.0280348 0.00802683 -4.63176e-21)
(-0.0336946 0.00816088 -2.27211e-21)
(-0.0394021 0.00817899 -1.12252e-20)
(-0.0450871 0.00811158 2.99778e-21)
(-0.0507002 0.00798797 1.05158e-20)
(-0.0562119 0.00783601 -2.11044e-21)
(-0.0616116 0.00768145 8.25367e-21)
(-0.0669066 0.00754721 -6.66834e-21)
(-0.0721191 0.00745228 -1.98162e-21)
(-0.0772838 0.00741047 1.52112e-20)
(-0.0824557 0.00742845 -9.27087e-22)
(-0.0876464 0.00750503 2.29202e-20)
(-0.0927863 0.00764039 -5.32007e-21)
(-0.00823369 0.00793047 -1.53419e-20)
(-0.0125892 0.00920766 9.04684e-21)
(-0.0174714 0.010144 -1.66202e-21)
(-0.0227233 0.0107854 -2.90217e-20)
(-0.0282126 0.0111768 -2.99813e-21)
(-0.0338279 0.0113627 -6.07274e-21)
(-0.0394787 0.0113866 -9.37349e-22)
(-0.0450954 0.011291 -1.01304e-20)
(-0.050629 0.0111168 1.12107e-20)
(-0.0560504 0.010903 -1.6226e-20)
(-0.0613496 0.0106859 -4.84729e-22)
(-0.0665347 0.0104977 4.23858e-21)
(-0.071629 0.0103655 -3.2188e-20)
(-0.076669 0.0103092 -2.54166e-20)
(-0.0817128 0.0103385 1.35019e-20)
(-0.0867736 0.0104522 -1.77605e-20)
(-0.0917745 0.010651 4.35232e-22)
(-0.00851937 0.0101377 -7.61926e-22)
(-0.0128938 0.0117711 4.60013e-21)
(-0.0177726 0.0129684 6.85076e-22)
(-0.0230012 0.0137879 1.48536e-20)
(-0.0284486 0.0142871 1.71581e-20)
(-0.0340048 0.0145227 7.11561e-21)
(-0.0395802 0.0145504 2.45852e-20)
(-0.045106 0.0144245 -2.76522e-20)
(-0.0505337 0.0141975 -5.7015e-21)
(-0.0558349 0.0139196 1.17291e-20)
(-0.061 0.0136378 -1.9973e-20)
(-0.0660383 0.0133941 8.91705e-21)
(-0.0709745 0.013224 2.02392e-20)
(-0.0758476 0.0131537 4.76646e-21)
(-0.0807197 0.0131967 6.68222e-21)
(-0.0856064 0.0133519 -1.04922e-20)
(-0.0904209 0.0136216 1.12939e-21)
(-0.00887409 0.0123105 1.32941e-20)
(-0.0132721 0.0142947 1.13807e-20)
(-0.018147 0.0157487 5.06766e-21)
(-0.0233466 0.0167429 9.3277e-21)
(-0.028742 0.0173469 -6.39013e-21)
(-0.0342245 0.0176294 -3.85044e-20)
(-0.039706 0.0176581 -3.3632e-20)
(-0.0451186 0.0174991 -2.13389e-20)
(-0.0504143 0.0172165 7.90058e-21)
(-0.0555651 0.0168716 -4.40991e-21)
(-0.0605626 0.0165224 3.28668e-20)
(-0.065417 0.0162209 -1.15738e-20)
(-0.0701549 0.0160116 9.24806e-21)
(-0.0748182 0.015928 1.31789e-20)
(-0.0794743 0.0159875 -7.25899e-21)
(-0.0841419 0.0161902 6.21019e-20)
(-0.0887219 0.0165403 -2.27631e-20)
(-0.00929637 0.0144418 -8.33703e-21)
(-0.0137227 0.0167703 3.66701e-21)
(-0.0185932 0.0184757 5.51766e-21)
(-0.0237583 0.0196402 1.80153e-20)
(-0.0290916 0.0203453 3.89125e-21)
(-0.0344863 0.0206715 1.28402e-21)
(-0.0398556 0.020698 6.03928e-20)
(-0.0451326 0.0205024 4.43293e-20)
(-0.0502701 0.0201605 -2.59613e-20)
(-0.0552408 0.0197451 -3.74233e-21)
(-0.0600369 0.0193248 -9.87605e-21)
(-0.06467 0.0189626 9.54999e-21)
(-0.0691689 0.0187123 -4.94698e-20)
(-0.0735788 0.0186158 -1.01285e-20)
(-0.0779736 0.0186953 -1.48944e-20)
(-0.0823762 0.0189524 -3.53189e-20)
(-0.0866723 0.019395 1.8822e-20)
(-0.00978447 0.0165248 -1.10544e-20)
(-0.0142439 0.0191899 -9.81401e-21)
(-0.0191093 0.0211406 1.5244e-20)
(-0.0242347 0.0224704 -2.52086e-20)
(-0.0294961 0.0232723 -3.36698e-21)
(-0.0347889 0.023638 4.55477e-20)
(-0.0400279 0.0236583 -2.84564e-20)
(-0.0451473 0.0234222 -1.14396e-20)
(-0.0501006 0.0230168 1.32038e-20)
(-0.0548613 0.0225261 -3.40562e-21)
(-0.0594222 0.0220304 -1.72868e-21)
(-0.0637963 0.0216036 1.39429e-20)
(-0.0680149 0.0213101 -3.62794e-20)
(-0.0721269 0.0212005 1.24072e-20)
(-0.076214 0.0213035 -9.23395e-21)
(-0.0803042 0.0216235 -2.03318e-20)
(-0.0842656 0.0221731 7.16579e-21)
(-0.0148335 0.021546 3.5478e-20)
(-0.0196935 0.0237348 -3.60321e-20)
(-0.0247739 0.0252241 -1.73018e-20)
(-0.0299537 0.0261177 -2.93977e-20)
(-0.0351307 0.0265184 -3.1442e-20)
(-0.0402215 0.026528 -2.02647e-20)
(-0.0451614 0.0262466 -2.67904e-20)
(-0.0499047 0.0257726 4.76684e-20)
(-0.0544255 0.0252014 -5.16782e-21)
(-0.0587173 0.0246249 -1.06415e-20)
(-0.0627944 0.0241286 -5.44695e-20)
(-0.0666907 0.0237884 2.9931e-20)
(-0.0704592 0.0236654 7.28562e-21)
(-0.0741906 0.0237955 1.7962e-20)
(-0.0779199 0.0241875 1.19485e-20)
(-0.0814938 0.0248613 -3.13063e-20)
(-0.0154892 0.0238314 3.16138e-20)
(-0.0203433 0.0262504 -2.41558e-20)
(-0.0253735 0.0278925 5.10727e-20)
(-0.0304622 0.0288721 2.80304e-21)
(-0.0355097 0.0293026 4.51429e-20)
(-0.0404345 0.0292963 -2.57357e-20)
(-0.0451731 0.0289644 4.05304e-20)
(-0.0496808 0.0284159 -3.92592e-20)
(-0.0539318 0.027758 -3.46112e-20)
(-0.0579204 0.0270941 2.89269e-20)
(-0.0616621 0.0265224 1.00504e-19)
(-0.0651933 0.026131 -5.43775e-20)
(-0.0685717 0.0259931 4.38527e-20)
(-0.0718979 0.0261538 9.92072e-21)
(-0.0752155 0.0266279 -3.65706e-20)
(-0.0783467 0.0274456 3.00028e-20)
(-0.0162082 0.0260395 -2.45413e-20)
(-0.0210558 0.0286796 5.62196e-20)
(-0.0260308 0.0304672 -9.98092e-21)
(-0.0310188 0.0315265 1.22235e-21)
(-0.0359232 0.031981 -6.23688e-20)
(-0.0406643 0.0319533 3.85782e-20)
(-0.0451801 0.0315647 8.69877e-21)
(-0.0494265 0.0309353 -1.121e-20)
(-0.0533779 0.0301833 1.37841e-20)
(-0.0570291 0.0294246 -5.33964e-20)
(-0.0603965 0.0287701 -2.91724e-20)
(-0.063519 0.0283217 6.02666e-20)
(-0.066459 0.0281662 -3.30491e-20)
(-0.0693285 0.0283603 -4.636e-20)
(-0.0721819 0.0289273 8.45031e-20)
(-0.0748119 0.0299113 -1.12845e-22)
(-0.0169874 0.028164 -1.59755e-20)
(-0.0218279 0.0310155 -1.82817e-20)
(-0.0267424 0.0329405 -7.54879e-20)
(-0.0316203 0.0340725 9.08106e-21)
(-0.0363679 0.0345447 -3.06501e-20)
(-0.0409077 0.0344893 1.05038e-19)
(-0.0451791 0.0340375 -5.97508e-20)
(-0.0491385 0.0333199 3.59318e-20)
(-0.0527605 0.0324659 -1.07673e-20)
(-0.0560398 0.0316035 5.80561e-20)
(-0.0589934 0.0308573 4.67948e-21)
(-0.0616625 0.0303444 -4.79102e-20)
(-0.0641145 0.0301672 -8.43818e-21)
(-0.0664736 0.0303966 2.02249e-21)
(-0.0688078 0.0310671 -3.47703e-21)
(-0.0708746 0.0322422 5.60289e-20)
(-0.0178234 0.0301993 -3.81192e-21)
(-0.0226559 0.0332515 -3.05627e-20)
(-0.0275045 0.035305 6.64596e-20)
(-0.0322626 0.0365023 -7.30459e-21)
(-0.0368397 0.0369854 7.72604e-20)
(-0.0411605 0.0368956 -8.40954e-20)
(-0.0451658 0.0363736 2.17073e-20)
(-0.0488125 0.0355599 2.51665e-20)
(-0.052075 0.0345947 -7.46267e-22)
(-0.0549474 0.0336187 -4.06078e-22)
(-0.0574471 0.0327706 -4.50886e-20)
(-0.0596173 0.0321837 6.005e-21)
(-0.0615298 0.0319787 5.81164e-20)
(-0.0633224 0.0322435 7.3416e-20)
(-0.06508 0.0330283 -8.55996e-20)
(-0.0665167 0.034421 -5.38201e-20)
(-0.0187124 0.0321401 5.88895e-20)
(-0.0235355 0.0353815 5.86517e-20)
(-0.0283124 0.0375541 -2.24136e-20)
(-0.0329408 0.0388086 9.58299e-20)
(-0.0373333 0.0392953 -9.49311e-20)
(-0.0414173 0.0391642 4.11743e-20)
(-0.0451346 0.0385646 4.10215e-20)
(-0.0484425 0.0376463 -3.12793e-21)
(-0.051315 0.0365603 5.00342e-22)
(-0.0537452 0.0354594 5.05577e-21)
(-0.0557502 0.0344973 -3.52965e-20)
(-0.0573745 0.033825 3.43008e-20)
(-0.0586944 0.0335836 -1.73392e-20)
(-0.0598615 0.0338823 -3.82186e-20)
(-0.0609826 0.0347906 4.85201e-20)
(-0.061717 0.0364288 9.94725e-21)
(-0.01965 0.0339816 -3.92805e-20)
(-0.0244619 0.0373999 -4.01982e-20)
(-0.0291609 0.0396815 6.39314e-20)
(-0.0336491 0.0409847 -3.17007e-20)
(-0.0378426 0.0414676 2.47268e-20)
(-0.0416712 0.0412879 2.65341e-21)
(-0.0450781 0.040603 -6.43381e-21)
(-0.0480208 0.0395714 1.57118e-20)
(-0.0504722 0.0383541 -3.00119e-20)
(-0.0524243 0.0371161 1.53916e-20)
(-0.0538927 0.0360262 4.86354e-20)
(-0.0549228 0.0352547 -6.96713e-20)
(-0.0555945 0.0349659 -4.37151e-20)
(-0.0560743 0.0352941 5.63908e-20)
(-0.0564968 0.0363337 -3.24616e-20)
(-0.05645 0.0382454 -4.92913e-20)
(-0.0206316 0.0357196 -9.59768e-21)
(-0.0254296 0.0393018 -3.4431e-20)
(-0.0300438 0.0416817 -6.28695e-20)
(-0.0343806 0.0430248 -4.67271e-20)
(-0.0383598 0.0434962 -9.18996e-20)
(-0.0419138 0.0432605 9.1135e-21)
(-0.0449872 0.0424825 -7.82578e-21)
(-0.0475374 0.0413287 -6.10141e-20)
(-0.049536 0.0399693 5.17169e-20)
(-0.0509728 0.038581 6.20683e-20)
(-0.0518616 0.0373482 -3.07775e-21)
(-0.0522474 0.0364612 3.64914e-20)
(-0.0522132 0.0361108 -1.80999e-20)
(-0.0519401 0.0364613 2.83827e-21)
(-0.0516001 0.0376374 4.90532e-20)
(-0.050686 0.0398492 1.15356e-19)
(-0.0264325 0.0410826 4.67825e-20)
(-0.0309539 0.0435498 -1.66876e-20)
(-0.0351271 0.0449235 -4.71644e-20)
(-0.0388758 0.0453755 7.48275e-20)
(-0.042135 0.0450767 -1.96409e-20)
(-0.0448505 0.0441981 1.40102e-20)
(-0.0469796 0.0429131 7.43618e-20)
(-0.0484924 0.0414007 -1.01057e-19)
(-0.0493755 0.0398484 -2.70635e-20)
(-0.04964 0.0384559 -5.21335e-20)
(-0.0493295 0.0374352 1.03685e-19)
(-0.0485285 0.0370059 3.17475e-21)
(-0.047433 0.0373681 5.49476e-20)
(-0.0462653 0.0386823 -1.95338e-20)
(-0.0443896 0.0412173 -1.09243e-19)
(-0.0274636 0.0427384 2.87524e-20)
(-0.0318829 0.0452811 -1.56742e-21)
(-0.0358791 0.0466763 1.22123e-19)
(-0.0393796 0.0471011 4.5686e-20)
(-0.0423221 0.0467321 -8.20365e-20)
(-0.044654 0.0457457 3.80127e-21)
(-0.0463319 0.0443213 -2.70312e-21)
(-0.0473239 0.0426451 1.06966e-19)
(-0.0476132 0.0409149 -1.17072e-19)
(-0.0472065 0.0393453 3.16342e-20)
(-0.0461449 0.0381701 1.14486e-21)
(-0.044513 0.0376414 -7.76474e-20)
(-0.0425202 0.0380017 -7.9057e-20)
(-0.0404599 0.0394521 -9.3656e-21)
(-0.0375195 0.0423305 1.10881e-19)
(-0.028515 0.0442655 -1.08816e-19)
(-0.0328216 0.0468718 -2.93315e-20)
(-0.0366254 0.0482788 -6.38519e-20)
(-0.0398581 0.048669 -2.93831e-20)
(-0.0424603 0.0482233 5.11343e-20)
(-0.0443804 0.0471228 1.01883e-19)
(-0.0455748 0.0455515 -1.11609e-19)
(-0.0460089 0.0437016 -4.08078e-20)
(-0.0456615 0.0417799 1.448e-19)
(-0.044534 0.040015 -5.14144e-20)
(-0.0426632 0.0386632 -7.25156e-20)
(-0.0401317 0.0380116 9.01067e-20)
(-0.0371601 0.0383531 1.86174e-20)
(-0.0341418 0.0399358 1.74238e-20)
(-0.0300346 0.0431978 -7.13707e-20)
(-0.0295779 0.0456606 1.91651e-20)
(-0.033759 0.0483183 1.25376e-19)
(-0.0373533 0.0497278 -7.72072e-20)
(-0.0402963 0.0500761 1.81965e-20)
(-0.0425318 0.0495479 -3.5355e-20)
(-0.0440094 0.0483279 -1.39377e-19)
(-0.0446848 0.0466036 8.24543e-20)
(-0.0445206 0.0445716 6.5045e-20)
(-0.0434905 0.0424459 -1.12788e-19)
(-0.041589 0.0404677 2.5856e-20)
(-0.0388466 0.0389155 1.00929e-19)
(-0.0353411 0.0381144 3.87905e-20)
(-0.031298 0.0384145 1.33789e-20)
(-0.0272381 0.040116 -7.69546e-20)
(-0.021896 0.0438875 -3.67615e-20)
(-0.0346833 0.0496175 -1.72492e-20)
(-0.0380479 0.0510201 1.14974e-20)
(-0.0406766 0.0513198 7.18321e-20)
(-0.0425157 0.0507044 8.87793e-20)
(-0.0435165 0.0493611 -4.0026e-21)
(-0.0436338 0.0474793 -1.87503e-20)
(-0.0428269 0.0452587 -1.07391e-19)
(-0.0410637 0.0429184 7.87289e-20)
(-0.0383304 0.0407104 -6.82216e-21)
(-0.034649 0.0389336 -4.51222e-20)
(-0.0300896 0.0379524 -2.21278e-19)
(-0.0248736 0.0381766 7.68534e-20)
(-0.0196129 0.0399489 4.03908e-21)
(-0.012995 0.0443933 -4.56215e-20)
(-0.0355807 0.0507666 -1.04885e-19)
(-0.0386927 0.0521532 6.41132e-20)
(-0.0409786 0.0523982 -7.18802e-21)
(-0.042388 0.051692 -1.40242e-19)
(-0.0428732 0.0502232 2.62753e-20)
(-0.0423883 0.0481822 1.44458e-20)
(-0.0408891 0.0457694 -2.45735e-20)
(-0.0383369 0.043207 6.34905e-20)
(-0.0347085 0.0407547 1.21e-19)
(-0.0300148 0.03873 -7.71309e-20)
(-0.0243175 0.0375353 6.13795e-20)
(-0.0178431 0.0376409 1.46346e-20)
(-0.0111866 0.0394698 8.24898e-20)
(-0.00314257 0.0445676 3.63632e-20)
(-0.036436 0.051763 1.19643e-19)
(-0.0392687 0.0531248 -8.46212e-20)
(-0.0411794 0.0533098 2.51609e-20)
(-0.0421208 0.0525107 1.01818e-19)
(-0.0420464 0.0509164 9.53304e-20)
(-0.0409093 0.0487171 3.62841e-20)
(-0.0386617 0.0461123 1.55182e-19)
(-0.0352578 0.0433244 -2.09007e-20)
(-0.030664 0.0406178 -1.57316e-19)
(-0.0248776 0.0383246 7.57631e-20)
(-0.0179474 0.0368832 -3.96129e-20)
(-0.01011 0.03683 -9.04284e-20)
(-0.00193677 0.0387174 -6.28884e-20)
(0.00775755 0.0443474 -6.21013e-20)
(-0.0372323 0.0526046 -1.52845e-19)
(-0.0397547 0.0539328 5.76865e-20)
(-0.0412529 0.0540535 -5.18388e-20)
(-0.0416824 0.0531608 -8.5486e-20)
(-0.040998 0.0514437 2.96055e-21)
(-0.0391516 0.0490907 -2.06814e-19)
(-0.0360915 0.0462985 -1.56863e-19)
(-0.0317648 0.0432873 4.8491e-20)
(-0.0261265 0.0403221 2.4017e-20)
(-0.0191586 0.0377448 -5.04376e-20)
(-0.010893 0.0360251 1.91608e-19)
(-0.00156915 0.0357646 -2.94846e-20)
(0.00823949 0.0376669 7.87347e-20)
(0.0197777 0.0437997 6.94636e-20)
(-0.0401272 0.0545756 8.00879e-20)
(-0.04117 0.0546286 -4.65824e-21)
(-0.0410374 0.0536434 3.57043e-20)
(-0.0396849 0.0518087 1.05973e-19)
(-0.0370635 0.0493103 2.16572e-19)
(-0.0331175 0.046341 1.69942e-20)
(-0.0277866 0.0431155 -9.17383e-20)
(-0.021014 0.0398954 1.63144e-20)
(-0.0127657 0.0370266 1.5539e-19)
(-0.00305294 0.0350024 -1.03315e-19)
(0.00788914 0.0344862 4.43006e-22)
(0.0194674 0.0363336 7.66239e-20)
(0.0330383 0.0429664 -4.66648e-20)
(-0.0403602 0.0550513 -2.04924e-20)
(-0.0408983 0.0550341 -4.4594e-20)
(-0.0401458 0.0539595 7.12595e-20)
(-0.0380588 0.0520153 -8.07177e-20)
(-0.0345868 0.0493845 -2.54243e-20)
(-0.0296702 0.0462542 -2.77197e-21)
(-0.0232413 0.0428317 6.43929e-20)
(-0.015232 0.0393706 -5.69891e-20)
(-0.00559165 0.0362139 -1.05427e-19)
(0.00569088 0.0338697 -3.16462e-20)
(0.0183916 0.0330545 -4.49101e-20)
(0.0318848 0.034769 -1.34514e-19)
(0.0476937 0.0418852 -3.94907e-20)
(-0.0404251 0.0553584 -9.63681e-20)
(-0.0404021 0.0552696 5.42332e-20)
(-0.0389636 0.0541104 -1.58497e-19)
(-0.0360659 0.0520678 -7.7685e-20)
(-0.0316565 0.0493219 1.24801e-21)
(-0.0256717 0.0460535 6.57074e-20)
(-0.0180368 0.0424604 -4.21236e-20)
(-0.00867297 0.0387846 1.05152e-19)
(0.00248618 0.0353586 -2.52146e-20)
(0.0154748 0.0326939 3.21426e-20)
(0.0300855 0.0315479 1.18911e-19)
(0.0456478 0.0330501 1.5391e-20)
(0.0639189 0.0406138 7.33954e-20)
(-0.0396425 0.0553344 -1.06332e-19)
(-0.0374428 0.0540971 3.01026e-20)
(-0.0336472 0.0519704 2.86106e-21)
(-0.0282009 0.0491313 -7.51125e-20)
(-0.0210357 0.0457546 5.4665e-20)
(-0.0120706 0.0420275 -4.19279e-20)
(-0.00121678 0.038177 -7.45977e-20)
(0.0116058 0.0345183 -9.53338e-20)
(0.0264533 0.0315538 2.28919e-20)
(0.0431381 0.0300636 3.11895e-20)
(0.0609321 0.0312793 -2.93309e-20)
(0.0819065 0.0392396 1.21367e-19)
(-0.038577 0.055228 -3.02308e-20)
(-0.0355308 0.0539208 2.47052e-19)
(-0.0307386 0.0517268 1.75908e-20)
(-0.024142 0.0488211 -2.6406e-20)
(-0.0156684 0.0453727 -1.70053e-19)
(-0.00523038 0.0415584 3.21073e-20)
(0.00726872 0.0375884 -8.04163e-20)
(0.0219198 0.0337543 5.20939e-20)
(0.0387977 0.0305369 4.67922e-20)
(0.0577361 0.0287171 -1.74582e-19)
(0.077931 0.0295863 -5.33083e-20)
(0.101863 0.0378847 -1.81416e-19)
(-0.0371602 0.0549498 1.04808e-20)
(-0.0331714 0.0535827 -7.4395e-20)
(-0.0272709 0.0513409 1.05598e-19)
(-0.0193959 0.0483991 5.91325e-22)
(-0.00946842 0.0449222 1.27542e-19)
(0.00260466 0.0410776 8.46418e-20)
(0.0169262 0.0370584 1.38981e-20)
(0.0335937 0.033129 1.71005e-19)
(0.0526947 0.0297362 -1.52051e-19)
(0.0740824 0.0276382 6.90654e-20)
(0.0968535 0.028128 5.29613e-20)
(0.124004 0.0367121 4.49444e-20)
(-0.0303041 0.0530839 -1.23445e-19)
(-0.0231704 0.0508162 -9.29935e-20)
(-0.0138733 0.0478725 4.31227e-20)
(-0.00232851 0.044416 -1.21242e-19)
(0.0115626 0.0406073 8.08735e-21)
(0.027907 0.0366241 4.51674e-20)
(0.0468031 0.032702 3.39301e-20)
(0.068343 0.0292453 1.02515e-19)
(0.0923929 0.0269659 2.10929e-20)
(0.11792 0.027085 -7.4363e-20)
(0.148544 0.0359292 7.85358e-20)
(-0.0268649 0.0524261 1.0669e-19)
(-0.0183594 0.0501563 -5.39354e-20)
(-0.00748035 0.047248 1.64957e-21)
(0.00586381 0.0438658 2.91932e-20)
(0.0217771 0.0401669 6.05999e-20)
(0.0403681 0.0363177 -7.19676e-21)
(0.0617303 0.0325273 -1.63457e-20)
(0.0859491 0.0291528 -8.24973e-20)
(0.112891 0.026841 -5.41744e-20)
(0.141359 0.0266557 -5.02364e-20)
(0.175691 0.0357898 7.92974e-20)
(-0.0127559 0.0493654 3.75741e-20)
(-0.000119059 0.0465324 1.31275e-20)
(0.0152247 0.043282 -5.84089e-20)
(0.0333851 0.0397729 -1.33038e-19)
(0.0544695 0.0361662 6.59824e-20)
(0.07856 0.0326501 -3.22697e-20)
(0.105722 0.0295367 -7.76858e-21)
(0.135802 0.0273964 1.31022e-19)
(0.167402 0.0270468 1.34353e-19)
(0.205625 0.0365937 -2.02408e-19)
(-0.00627468 0.0484491 3.80705e-21)
(0.00831155 0.0457331 -9.06494e-20)
(0.0258728 0.0426745 1.18855e-19)
(0.0465244 0.0394391 7.64812e-20)
(0.0703707 0.0361904 -1.462e-19)
(0.0974746 0.0331048 -1.2184e-19)
(0.127867 0.0304595 2.75329e-20)
(0.161345 0.0287475 1.57065e-19)
(0.19628 0.0284624 7.09263e-20)
(0.238489 0.0386829 3.76043e-20)
(0.00117243 0.0474149 -1.76587e-19)
(0.0179147 0.0448592 -1.58811e-19)
(0.0379274 0.0420539 -1.55278e-20)
(0.0613318 0.0391779 -7.90573e-21)
(0.0882268 0.0364053 5.16965e-20)
(0.118649 0.0339139 3.31958e-20)
(0.152582 0.0319631 4.21884e-20)
(0.189727 0.0309803 -1.94195e-19)
(0.228229 0.0310873 -5.2538e-20)
(0.274372 0.0424222 1.35447e-19)
(0.0287949 0.0439225 6.99019e-20)
(0.051507 0.0414329 -6.38785e-20)
(0.0779395 0.0390012 -8.75848e-20)
(0.108184 0.0368216 -1.10038e-20)
(0.142244 0.0350874 8.62274e-20)
(0.180045 0.0340669 -5.63555e-20)
(0.221134 0.0341403 2.10607e-20)
(0.263496 0.035065 4.64144e-20)
(0.313316 0.0481567 1.14496e-19)
(0.0410567 0.0429391 3.20518e-20)
(0.066727 0.0408274 -4.29927e-20)
(0.0964724 0.0389227 1.01135e-19)
(0.130375 0.037447 -8.70487e-21)
(0.168401 0.0366246 -2.2326e-20)
(0.210407 0.0367671 -3.49015e-20)
(0.255713 0.0382249 5.3721e-20)
(0.302315 0.0404983 -1.32576e-19)
(0.355258 0.0562362 -1.75755e-19)
(0.0836976 0.0402585 1.60417e-19)
(0.117044 0.0389591 -1.4278e-20)
(0.154913 0.0382876 -3.07403e-20)
(0.197232 0.0385132 -4.18815e-21)
(0.24379 0.0400327 7.41095e-20)
(0.293575 0.043175 1.28942e-19)
(0.344864 0.0475411 -3.5456e-20)
(0.399716 0.0673201 1.27648e-19)
(0.102521 0.0397538 -5.42576e-20)
(0.139752 0.0391327 -3.93731e-20)
(0.181885 0.0393498 -1.27478e-19)
(0.228813 0.040727 -3.39747e-20)
(0.280282 0.0437821 2.76775e-21)
(0.334891 0.0488309 -8.85531e-20)
(0.391517 0.0564678 4.30698e-20)
(0.445684 0.0824152 -9.04441e-20)
(0.16467 0.039473 -6.38456e-20)
(0.211336 0.040643 1.53788e-19)
(0.26315 0.0432246 9.29917e-20)
(0.319876 0.0478571 2.26995e-20)
(0.379893 0.0548492 -9.57845e-20)
(0.443538 0.0671756 -5.12319e-21)
(0.494727 0.099614 -1.50698e-19)
(0.191847 0.0400212 -3.00813e-20)
(0.243261 0.0421894 2.76419e-20)
(0.300146 0.0459709 -4.86644e-20)
(0.362323 0.0520668 -5.53348e-20)
(0.42825 0.0606958 1.15199e-19)
(0.501501 0.077844 -3.67722e-20)
(0.557351 0.107677 2.48502e-21)
(0.277606 0.0440348 -6.11972e-20)
(0.339615 0.0489826 1.72363e-20)
(0.40716 0.056346 -2.14951e-20)
(0.478656 0.0658749 -1.17091e-20)
(0.559154 0.0840867 2.52928e-20)
(0.62403 0.101651 2.79575e-19)
(0.381325 0.0523398 2.55479e-21)
(0.453912 0.0608175 -1.14772e-19)
(0.530277 0.070866 -3.02717e-20)
(0.615445 0.0889714 1.42837e-19)
(0.685209 0.0991703 -1.62259e-19)
(0.425023 0.0561531 1.17084e-19)
(0.502168 0.0656723 3.64701e-20)
(0.582572 0.0762004 2.06064e-19)
(0.670544 0.0940767 -1.30361e-19)
(0.742654 0.100552 2.16363e-19)
(0.551543 0.0710614 4.54969e-20)
(0.635103 0.0821376 2.66705e-20)
(0.724449 0.0997816 -2.24119e-19)
(0.797651 0.104476 -1.27164e-19)
(0.68743 0.0887785 3.7955e-20)
(0.776922 0.106197 1.75762e-19)
(0.850213 0.1103 -1.21887e-19)
(0.739091 0.0961352 -1.31881e-19)
(0.827624 0.113322 8.40565e-20)
(0.900047 0.117536 3.9282e-20)
(0.876181 0.121076 -1.3285e-19)
(0.946822 0.12575 1.87017e-19)
(0.990232 0.134577 -9.36471e-20)
(0.990155 -0.134583 -7.09658e-20)
(0.876102 -0.121077 -2.12911e-19)
(0.946742 -0.125754 1.26249e-19)
(0.739013 -0.0961315 -1.42668e-19)
(0.827543 -0.113321 1.13238e-19)
(0.899963 -0.117539 -3.73897e-20)
(0.687351 -0.0887729 -8.07167e-20)
(0.776839 -0.106194 2.41087e-19)
(0.850127 -0.110301 -5.74047e-20)
(0.551471 -0.0710511 3.14678e-21)
(0.635023 -0.0821299 -2.12422e-20)
(0.724364 -0.0997774 -2.34168e-19)
(0.797562 -0.104475 -1.28222e-19)
(0.42496 -0.0561386 -1.24545e-20)
(0.502096 -0.0656596 3.53493e-20)
(0.582492 -0.0761903 1.44859e-19)
(0.670457 -0.0940703 -4.83755e-20)
(0.742563 -0.100549 1.51343e-19)
(0.381263 -0.0523225 7.61216e-20)
(0.453841 -0.0608019 -7.49111e-20)
(0.530197 -0.0708534 -1.31585e-19)
(0.615357 -0.0889627 2.22663e-19)
(0.685115 -0.0991655 -1.44805e-19)
(0.277553 -0.0440132 -1.09566e-20)
(0.339554 -0.0489621 -1.3598e-19)
(0.40709 -0.0563273 5.04889e-20)
(0.478576 -0.0658593 9.03878e-20)
(0.559065 -0.0840754 2.59375e-21)
(0.623935 -0.101644 1.92604e-19)
(0.191803 -0.0399956 1.31692e-19)
(0.243209 -0.0421644 -3.27857e-20)
(0.300085 -0.0459469 -9.31431e-20)
(0.362253 -0.0520446 -2.2553e-20)
(0.42817 -0.0606766 1.44732e-19)
(0.50141 -0.0778294 5.10321e-21)
(0.557253 -0.107666 -6.86058e-20)
(0.164627 -0.0394438 2.98625e-20)
(0.211285 -0.0406143 9.34366e-20)
(0.26309 -0.0431969 4.85797e-20)
(0.319806 -0.0478312 5.53977e-20)
(0.379813 -0.0548261 -1.63684e-19)
(0.443446 -0.0671567 3.63282e-20)
(0.494625 -0.0995984 -1.3411e-19)
(0.102486 -0.0397208 8.32412e-21)
(0.139709 -0.0390996 -7.32551e-20)
(0.181834 -0.0393172 -3.32289e-20)
(0.228754 -0.0406954 -7.39065e-20)
(0.280213 -0.0437522 -3.12925e-20)
(0.334811 -0.0488034 1.16529e-20)
(0.391426 -0.0564443 -7.04033e-20)
(0.445581 -0.0823937 -4.56454e-21)
(0.0836627 -0.0402217 1.1591e-19)
(0.117002 -0.0389222 1.08722e-20)
(0.154863 -0.0382511 5.03316e-20)
(0.197173 -0.0384776 -7.3962e-20)
(0.243722 -0.0399986 1.13247e-19)
(0.293495 -0.0431432 2.97696e-20)
(0.344773 -0.047513 4.14239e-20)
(0.399612 -0.0672938 1.43577e-19)
(0.041029 -0.0428989 9.08834e-20)
(0.0666924 -0.0407867 8.83036e-21)
(0.0964305 -0.0388818 3.8315e-20)
(0.130325 -0.0374065 5.1927e-20)
(0.168343 -0.0365849 -2.23745e-20)
(0.210339 -0.0367289 -8.82279e-20)
(0.255634 -0.0381888 4.3104e-20)
(0.302225 -0.0404658 -5.45816e-20)
(0.355154 -0.0562057 -1.52108e-19)
(0.0287675 -0.0438785 9.4578e-20)
(0.0514728 -0.0413883 -2.98846e-20)
(0.077898 -0.0389565 -3.23022e-20)
(0.108134 -0.0367771 -1.02814e-19)
(0.142186 -0.0350437 1.39313e-19)
(0.179977 -0.0340245 -3.97124e-20)
(0.221056 -0.0341 -2.58584e-20)
(0.263407 -0.0350282 3.6468e-20)
(0.313214 -0.0481224 1.13454e-19)
(0.00115192 -0.0473683 2.03746e-19)
(0.0178878 -0.0448114 -1.49876e-19)
(0.0378937 -0.0420056 -1.12965e-19)
(0.0612908 -0.0391293 -7.47418e-20)
(0.088178 -0.036357 1.61225e-19)
(0.118592 -0.0338663 -8.99878e-22)
(0.152515 -0.0319168 4.18789e-20)
(0.18965 -0.0309361 -1.53711e-19)
(0.228141 -0.0310467 9.56824e-21)
(0.274271 -0.0423843 7.08213e-20)
(-0.00629465 -0.0483988 -1.59086e-20)
(0.00828519 -0.0456817 -4.02697e-20)
(0.0258397 -0.0426224 6.32547e-20)
(0.0464841 -0.0393868 8.12024e-20)
(0.0703227 -0.0361383 -1.95887e-19)
(0.0974183 -0.0330535 -7.66394e-20)
(0.127802 -0.0304096 7.52943e-20)
(0.16127 -0.0286997 9.17758e-20)
(0.196194 -0.0284181 9.92649e-20)
(0.23839 -0.0386417 5.33741e-21)
(-0.0227995 -0.0515597 -3.39793e-20)
(-0.0127752 -0.0493115 -2.21253e-20)
(-0.000144736 -0.0464775 1.15376e-19)
(0.0151923 -0.0432263 -1.16652e-19)
(0.0333456 -0.0397171 -6.60254e-20)
(0.0544225 -0.0361107 2.95173e-20)
(0.0785048 -0.0325953 5.17263e-20)
(0.105658 -0.0294834 -4.51529e-20)
(0.135729 -0.0273453 6.92334e-20)
(0.167318 -0.0269993 9.51712e-20)
(0.205528 -0.0365494 -9.09632e-20)
(-0.0268775 -0.0523704 1.32382e-19)
(-0.0183779 -0.0500989 -1.02011e-19)
(-0.00750521 -0.0471896 1.17041e-19)
(0.00583231 -0.0438068 -1.47929e-20)
(0.0217387 -0.0401078 4.75423e-20)
(0.0403222 -0.036259 -2.87488e-20)
(0.0616766 -0.0324694 -2.62365e-20)
(0.0858869 -0.0290964 1.64814e-20)
(0.11282 -0.0267869 -1.71378e-19)
(0.141277 -0.0266052 1.68332e-20)
(0.175597 -0.0357425 7.67675e-20)
(-0.0303159 -0.0530247 -2.12317e-19)
(-0.0231881 -0.0507555 2.53799e-20)
(-0.0138972 -0.0478108 -4.91684e-20)
(-0.00235892 -0.0443539 -5.16996e-20)
(0.0115254 -0.0405451 -1.9975e-20)
(0.0278626 -0.0365624 1.44158e-19)
(0.0467511 -0.0326412 -2.85627e-20)
(0.0682828 -0.0291861 -3.08973e-20)
(0.0923237 -0.0269092 9.70083e-20)
(0.117841 -0.0270318 -3.99628e-20)
(0.148454 -0.0358792 -1.47903e-20)
(-0.0371656 -0.0548896 3.76822e-20)
(-0.0331822 -0.0535203 -2.08593e-20)
(-0.0272875 -0.051277 4.86825e-20)
(-0.0194186 -0.0483344 3.14101e-21)
(-0.00949756 -0.0448571 1.60653e-19)
(0.00256888 -0.0410126 1.19416e-19)
(0.0168835 -0.036994 1.76936e-20)
(0.0335437 -0.0330657 1.74273e-20)
(0.0526367 -0.0296746 1.78693e-20)
(0.0740158 -0.0275791 3.48783e-20)
(0.0967775 -0.0280724 4.02373e-20)
(0.123917 -0.0366596 5.51082e-20)
(-0.0385815 -0.0551645 1.17996e-20)
(-0.0355406 -0.0538553 1.46084e-19)
(-0.0307541 -0.0516599 1.34746e-19)
(-0.0241635 -0.0487535 -2.62032e-20)
(-0.0156961 -0.0453049 -2.06143e-19)
(-0.0052645 -0.0414909 -3.43415e-20)
(0.00722791 -0.0375216 -8.31942e-20)
(0.021872 -0.0336888 1.22965e-19)
(0.0387423 -0.0304732 2.98228e-20)
(0.0576724 -0.028656 -1.47269e-19)
(0.0778584 -0.0295286 -6.78817e-20)
(0.10178 -0.0378299 -2.6444e-19)
(-0.0396459 -0.0552678 -5.51365e-20)
(-0.0374515 -0.0540285 5.18862e-20)
(-0.0336615 -0.0519006 -4.33644e-20)
(-0.028221 -0.049061 -9.34194e-20)
(-0.0210618 -0.0456843 6.88476e-20)
(-0.0121028 -0.0419577 -1.87643e-20)
(-0.00125546 -0.0381081 -7.56449e-20)
(0.0115604 -0.0344508 -9.85607e-20)
(0.0264007 -0.0314883 4.90843e-20)
(0.0430777 -0.0300008 3.10937e-20)
(0.0608631 -0.0312197 -4.47163e-20)
(0.0818274 -0.0391827 1.29539e-19)
(-0.0404228 -0.0552916 1.31129e-20)
(-0.0404045 -0.0552 8.84879e-20)
(-0.0389712 -0.054039 -2.03481e-19)
(-0.0360789 -0.0519955 -8.10282e-20)
(-0.0316751 -0.0492492 2.99852e-20)
(-0.025696 -0.045981 1.05067e-20)
(-0.018067 -0.0423886 -3.63781e-20)
(-0.00870933 -0.0387139 9.90078e-20)
(0.00244345 -0.0352894 -7.54837e-21)
(0.0154253 -0.0326269 6.02782e-20)
(0.0300286 -0.0314836 2.79431e-20)
(0.0455829 -0.032989 1.23344e-19)
(0.0638444 -0.0405553 5.3635e-20)
(-0.040357 -0.0549815 -4.01705e-20)
(-0.0408997 -0.0549617 2.28262e-20)
(-0.0401521 -0.0538855 6.95549e-20)
(-0.0380704 -0.0519405 -6.88355e-20)
(-0.0346038 -0.0493096 -7.47862e-20)
(-0.0296927 -0.0461797 9.72365e-22)
(-0.0232694 -0.0427581 1.72078e-20)
(-0.0152659 -0.0392984 9.1816e-21)
(-0.00563152 -0.0361434 -7.12116e-20)
(0.00564464 -0.0338014 -6.85513e-20)
(0.0183385 -0.0329891 -1.88583e-20)
(0.0318241 -0.0347066 -1.27174e-19)
(0.0476241 -0.0418254 -4.17934e-20)
(-0.0401231 -0.0545028 2.49883e-20)
(-0.0411704 -0.0545534 1.56982e-20)
(-0.0410425 -0.0535668 6.26159e-22)
(-0.0396951 -0.0517316 1.57671e-19)
(-0.0370788 -0.0492334 1.93697e-19)
(-0.033138 -0.0462647 2.99719e-20)
(-0.0278124 -0.0430404 -6.63641e-20)
(-0.0210453 -0.0398218 2.58935e-20)
(-0.0128026 -0.0369549 1.35547e-19)
(-0.00309575 -0.0349332 -1.26063e-19)
(0.00783998 -0.0344198 -1.84186e-20)
(0.0194112 -0.0362701 5.20089e-20)
(0.0329738 -0.0429057 -8.11991e-20)
(-0.0372236 -0.0525327 5.2375e-20)
(-0.0397497 -0.0538573 3.25355e-20)
(-0.0412523 -0.0539758 -4.76154e-20)
(-0.0416863 -0.0530819 -9.16674e-20)
(-0.0410067 -0.0513645 -4.87671e-20)
(-0.0391652 -0.0490119 -2.07859e-19)
(-0.03611 -0.0462207 -9.27583e-20)
(-0.0317883 -0.0432109 9.24947e-21)
(-0.0261551 -0.0402474 3.65128e-21)
(-0.0191924 -0.0376723 -1.71637e-20)
(-0.0109322 -0.0359552 1.34577e-19)
(-0.00161417 -0.0356976 7.28921e-20)
(0.00818793 -0.0376026 -3.20768e-20)
(0.0197184 -0.0437384 1.09459e-19)
(-0.0364266 -0.0516884 1.08812e-19)
(-0.0392629 -0.0530466 -8.58995e-20)
(-0.0411777 -0.0532296 4.09984e-20)
(-0.0421235 -0.0524296 8.99761e-20)
(-0.0420536 -0.0508353 2.15868e-20)
(-0.0409212 -0.0486367 8.43131e-20)
(-0.0386782 -0.0460331 1.72905e-19)
(-0.035279 -0.0432468 -1.365e-20)
(-0.0306898 -0.0405423 -1.35374e-19)
(-0.0249082 -0.0382514 5.90611e-20)
(-0.017983 -0.0368128 -7.56522e-20)