/*--------------------------------*- C++ -*----------------------------------*\
  =========                 |
  \\      /  F ield         | OpenFOAM: The Open Source CFD Toolbox
   \\    /   O peration     | Website:  https://openfoam.org
    \\  /    A nd           | Version:  7
     \\/     M anipulation  |
\*---------------------------------------------------------------------------*/
FoamFile
{
    version     2.0;
    format      ascii;
    class       surfaceScalarField;
    location    "80";
    object      phi;
}
// * * * * * * * * * * * * * * * * * * * * * * * * * * * * * * * * * * * * * //

dimensions      [0 3 -1 0 0 0 0];

internalField   nonuniform List<scalar> 
72657
(
-5.95451e-07
3.92419e-05
-3.86465e-05
-2.41642e-06
0.000109426
-0.000107605
-5.52975e-06
0.000174056
-0.000170943
-9.97172e-06
0.000232622
-0.00022818
-1.57405e-05
0.000284881
-0.000279112
-2.27947e-05
0.00033092
-0.000323865
-3.10572e-05
0.000371144
-0.000362881
-4.04225e-05
0.000406255
-0.000396889
-5.07687e-05
0.000437187
-0.00042684
-6.19701e-05
0.000465018
-0.000453817
-7.39113e-05
0.000490876
-0.000478934
-8.65e-05
0.000515835
-0.000503246
-9.96777e-05
0.000540847
-0.000527669
-0.000113428
0.000566676
-0.000552926
-0.000127781
0.000593876
-0.000579523
-0.000142811
0.000622769
-0.000607739
-0.000158636
0.000653456
-0.000637631
-0.00017541
0.000685817
-0.000669043
-0.000193309
0.000719488
-0.000701589
0.00075381
-0.000734566
-0.000212553
-4.59881e-07
3.97018e-05
-1.92885e-06
0.000110895
-4.51182e-06
0.000176639
-8.27913e-06
0.000236389
-1.32584e-05
0.00028986
-1.94322e-05
0.000337093
-2.67412e-05
0.000378453
-3.50912e-05
0.000414605
-4.43639e-05
0.000446459
-5.44304e-05
0.000475085
-6.51643e-05
0.000501609
-7.64552e-05
0.000527126
-8.822e-05
0.000552611
-0.000100411
0.000578867
-0.000113021
0.000606485
-0.000126083
0.000635832
-0.000139673
0.000667046
-0.000153901
0.000700045
-0.00016891
0.000734497
0.000769792
-0.000184893
-3.24966e-07
4.00268e-05
-1.44124e-06
0.000112011
-3.48941e-06
0.000178687
-6.57187e-06
0.000239471
-1.07441e-05
0.000294032
-1.60116e-05
0.000342361
-2.2332e-05
0.000384773
-2.96212e-05
0.000421894
-3.77643e-05
0.000454602
-4.66276e-05
0.000483948
-5.60724e-05
0.000511054
-6.59682e-05
0.000537022
-7.62044e-05
0.000562848
-8.66989e-05
0.000589362
-9.74041e-05
0.000617191
-0.000108309
0.000646737
-0.000119442
0.000678178
-0.000130868
0.000711471
-0.000142696
0.000746325
0.000782182
-0.000155086
-1.91684e-07
4.02185e-05
-9.56955e-07
0.000112776
-2.46934e-06
0.0001802
-4.86099e-06
0.000241863
-8.21339e-06
0.000297385
-1.25535e-05
0.000346701
-1.78549e-05
0.000390074
-2.40433e-05
0.000428082
-3.10059e-05
0.000461565
-3.86036e-05
0.000491546
-4.6684e-05
0.000519135
-5.50951e-05
0.000545433
-6.36968e-05
0.000571449
-7.23701e-05
0.000598035
-8.10242e-05
0.000625845
-8.96008e-05
0.000655313
-9.80775e-05
0.000686655
-0.000106474
0.000719867
-0.000114859
0.00075471
0.000790685
-0.000123361
-6.11591e-08
4.02796e-05
-4.79424e-07
0.000113195
-1.45865e-06
0.000181179
-3.15787e-06
0.000243562
-5.68249e-06
0.000299909
-9.07945e-06
0.000350098
-1.33372e-05
0.000394332
-1.83903e-05
0.000433135
-2.41277e-05
0.000467302
-3.04039e-05
0.000497822
-3.70526e-05
0.000525783
-4.38987e-05
0.000552279
-5.0771e-05
0.000578322
-5.75118e-05
0.000604776
-6.39852e-05
0.000632318
-7.00825e-05
0.000661411
-7.57292e-05
0.000692302
-8.08953e-05
0.000725034
-8.56131e-05
0.000759428
0.000795048
-8.99763e-05
6.63982e-08
4.02132e-05
-1.22012e-08
0.000113273
-4.64494e-07
0.000181631
-1.47423e-06
0.000244572
-3.16835e-06
0.000301604
-5.61202e-06
0.000352542
-8.80748e-06
0.000397528
-1.26972e-05
0.000437025
-1.71713e-05
0.000471777
-2.20781e-05
0.000502729
-2.72361e-05
0.000530941
-3.24469e-05
0.00055749
-3.75073e-05
0.000583382
-4.22196e-05
0.000609488
-4.64007e-05
0.000636499
-4.98901e-05
0.0006649
-5.25592e-05
0.000694971
-5.43267e-05
0.000726801
-5.51914e-05
0.000760292
0.000795067
-5.52108e-05
1.88793e-07
4.00244e-05
4.41511e-07
0.00011302
5.06034e-07
0.000181567
1.78163e-07
0.0002449
-6.88268e-07
0.00030247
-2.17459e-06
0.000354028
-4.29553e-06
0.000399648
-7.00072e-06
0.00043973
-1.01812e-05
0.000474957
-1.36786e-05
0.000506226
-1.72964e-05
0.000534559
-2.08128e-05
0.000561006
-2.3992e-05
0.000586561
-2.65956e-05
0.000612092
-2.83924e-05
0.000638296
-2.91686e-05
0.000665676
-2.87402e-05
0.000694542
-2.69701e-05
0.000725031
-2.38334e-05
0.000757156
0.000790631
-1.93967e-05
3.05907e-07
3.97185e-05
8.78061e-07
0.000112448
1.44573e-06
0.000180999
1.7872e-06
0.000244558
1.74016e-06
0.000302517
1.20893e-06
0.000354559
1.68068e-07
0.000400689
-1.3391e-06
0.000441237
-3.20361e-06
0.000476822
-5.26054e-06
0.000508283
-7.29886e-06
0.000536597
-9.07328e-06
0.000562781
-1.03159e-05
0.000587804
-1.07475e-05
0.000612524
-1.00882e-05
0.000637637
-8.06969e-06
0.000663658
-4.45299e-06
0.000690925
9.42763e-07
0.000719635
8.27078e-06
0.000749828
0.000781682
1.72195e-05
4.1669e-07
3.93018e-05
1.29433e-06
0.000111571
2.34768e-06
0.000179946
3.34125e-06
0.000243565
4.09927e-06
0.000301759
4.51427e-06
0.000354144
4.55119e-06
0.000400652
4.24835e-06
0.00044154
3.71383e-06
0.000477356
3.11901e-06
0.000508878
2.689e-06
0.000537027
2.69174e-06
0.000562778
3.42661e-06
0.000587069
5.21326e-06
0.000610737
8.38001e-06
0.00063447
1.32502e-05
0.000658788
2.01224e-05
0.000684053
2.92405e-05
0.000710517
4.07108e-05
0.000738357
0.000767902
5.44905e-05
5.20298e-07
3.87815e-05
1.68711e-06
0.000110404
3.20503e-06
0.000178428
4.82848e-06
0.000241941
6.37151e-06
0.000300216
7.71722e-06
0.000352798
8.82287e-06
0.000399547
9.72196e-06
0.000440641
1.05225e-05
0.000476556
1.14017e-05
0.000507999
1.2598e-05
0.000535831
1.44006e-05
0.000560975
1.71392e-05
0.00058433
2.11729e-05
0.000606703
2.68778e-05
0.000628765
3.46323e-05
0.000651033
4.47942e-05
0.000673891
5.76603e-05
0.000697651
7.33882e-05
0.00072263
0.000749382
9.19087e-05
6.15905e-07
3.81656e-05
2.05335e-06
0.000108966
4.01111e-06
0.00017647
6.23744e-06
0.000239715
8.53958e-06
0.000297914
1.07938e-05
0.000350544
1.29513e-05
0.000397389
1.5042e-05
0.00043855
1.71736e-05
0.000474424
1.95289e-05
0.000505643
2.23583e-05
0.000533002
2.59709e-05
0.000557363
3.07251e-05
0.000579576
3.70176e-05
0.000600411
4.52712e-05
0.000620511
5.59187e-05
0.000640386
6.93778e-05
0.000660432
8.60031e-05
0.000681026
0.000105991
0.000702642
0.000726122
0.000129251
7.02748e-07
3.74629e-05
2.39015e-06
0.000107279
4.75957e-06
0.000174101
7.55719e-06
0.000236918
1.05868e-05
0.000294884
1.37206e-05
0.00034741
1.69058e-05
0.000394204
2.01692e-05
0.000435287
2.36189e-05
0.000470974
2.74424e-05
0.00050182
3.19007e-05
0.000528544
3.73212e-05
0.000551942
4.40886e-05
0.000572809
5.26351e-05
0.000591864
6.34284e-05
0.000609718
7.69551e-05
0.000626859
9.36926e-05
0.000643695
0.000114055
0.000660663
0.000138278
0.000678419
0.000698157
0.000166243
7.80125e-07
3.66828e-05
2.69482e-06
0.000105364
5.44454e-06
0.000171351
8.7774e-06
0.000233585
1.24974e-05
0.000291164
1.64754e-05
0.000343432
2.06564e-05
0.000390023
2.50656e-05
0.000430878
2.98115e-05
0.000466228
3.50854e-05
0.000496546
4.11578e-05
0.000522471
4.8372e-05
0.000544728
5.71367e-05
0.000564044
6.7917e-05
0.000581084
8.12231e-05
0.000596412
9.75938e-05
0.000610488
0.000117567
0.000623722
0.000141618
0.000636612
0.000170024
0.000650012
0.000665549
0.000202632
8.47422e-07
3.58353e-05
2.96496e-06
0.000103247
6.06063e-06
0.000168255
9.88859e-06
0.000229757
1.42567e-05
0.000286796
1.90372e-05
0.000338652
2.41751e-05
0.000384885
2.9695e-05
0.000425358
3.57062e-05
0.000460217
4.24034e-05
0.000489849
5.00648e-05
0.00051481
5.90474e-05
0.000535745
6.97811e-05
0.00055331
8.27608e-05
0.000568104
9.85364e-05
0.000580636
0.000117697
0.000591327
0.000140841
0.000600578
0.000168509
0.000608945
0.000201024
0.000617497
0.000628377
0.000238195
9.04115e-07
3.49312e-05
3.19848e-06
0.000100952
6.60314e-06
0.000164851
1.08823e-05
0.000225478
1.58513e-05
0.000281827
2.13868e-05
0.000333116
2.74357e-05
0.000378836
3.40238e-05
0.00041877
4.12612e-05
0.00045298
4.93455e-05
0.000481765
5.85612e-05
0.000505594
6.92767e-05
0.00052503
8.194e-05
0.000540647
9.70725e-05
0.000552972
0.000115261
0.000562448
0.000137142
0.000569446
0.000163375
0.000574345
0.000194568
0.000577751
0.000231099
0.000580967
0.000586732
0.000272744
9.49785e-07
3.39814e-05
3.39367e-06
9.85085e-05
7.06802e-06
0.000161176
1.17513e-05
0.000220794
1.72696e-05
0.000276309
2.3507e-05
0.000326879
3.04149e-05
0.000371928
3.80214e-05
0.000411163
4.64382e-05
0.000444563
5.58653e-05
0.000472338
6.6592e-05
0.000494867
7.8996e-05
0.000512626
9.35402e-05
0.000526103
0.000110769
0.000535743
0.000131302
0.000541915
0.000155822
0.000544925
0.000185049
0.000545118
0.000219664
0.000543137
0.000260107
0.000540524
0.000540706
0.000306132
9.84109e-07
3.29973e-05
3.54914e-06
9.59435e-05
7.45205e-06
0.000157273
1.24894e-05
0.000215757
1.85016e-05
0.000270297
2.53832e-05
0.000319998
3.30923e-05
0.000364219
4.1661e-05
0.000402595
5.12035e-05
0.00043502
6.19219e-05
0.000461619
7.41091e-05
0.00048268
8.81498e-05
0.000498585
0.000104519
0.000509734
0.00012378
0.000516482
0.000146583
0.000519113
0.000173653
0.000517855
0.000205771
0.000513
0.000243695
0.000505213
0.000287943
0.000496276
0.000490386
0.000338263
1.00686e-06
3.19905e-05
3.66389e-06
9.32865e-05
7.75272e-06
0.000153185
1.30918e-05
0.000210418
1.95394e-05
0.000263849
2.70033e-05
0.000312534
3.5451e-05
0.000355771
4.49205e-05
0.000393125
5.55291e-05
0.000424412
6.74812e-05
0.000449667
8.10726e-05
0.000469089
9.66928e-05
0.000482965
0.000114826
0.0004916
0.000136052
0.000495256
0.000161047
0.000494118
0.000190576
0.000488326
0.000225479
0.000478097
0.000266601
0.000464091
0.000314552
0.000448325
0.000435838
0.0003691
1.0179e-06
3.09726e-05
3.73727e-06
9.05671e-05
7.9684e-06
0.000148953
1.35552e-05
0.000204831
2.03772e-05
0.000257027
2.83585e-05
0.000304552
3.74785e-05
0.000346651
4.77829e-05
0.000382821
5.93934e-05
0.000412801
7.25172e-05
0.000436543
8.74523e-05
0.000454154
0.000104592
0.000465825
0.000124428
0.000471765
0.000147552
0.000472132
0.000174661
0.000467009
0.000206561
0.000456426
0.000244152
0.000440507
0.000288368
0.000419875
0.000339933
0.00039676
0.000377103
0.000398669
1.0172e-06
2.99554e-05
3.76908e-06
8.78152e-05
8.09834e-06
0.000144624
1.38778e-05
0.000199052
2.10118e-05
0.000249893
2.94436e-05
0.000296121
3.91669e-05
0.000336928
5.02372e-05
0.000371751
6.27825e-05
0.000400256
7.70133e-05
0.000422313
9.32299e-05
0.000437937
0.000111829
0.000447227
0.000133306
0.000450287
0.000158265
0.000447173
0.000187422
0.000437851
0.000221618
0.000422231
0.00026181
0.000400314
0.000309035
0.00037265
0.000364147
0.000341649
0.000314177
0.000427072
1.00485e-06
2.89505e-05
3.75955e-06
8.50605e-05
8.1429e-06
0.000140241
1.40601e-05
0.000193134
2.14429e-05
0.00024251
3.02573e-05
0.000287306
4.05136e-05
0.000326672
5.22795e-05
0.000359985
6.5691e-05
0.000386844
8.09633e-05
0.00040704
9.84e-05
0.0004205
0.0001184
0.000427227
0.000141464
0.000427223
0.000168205
0.000420432
0.000199357
0.000406699
0.000235791
0.000385797
0.000278526
0.000357579
0.000328702
0.000322474
0.000387327
0.000283024
0.000247012
0.000454492
9.81055e-07
2.79695e-05
3.70948e-06
8.23321e-05
8.1036e-06
0.000135847
1.41041e-05
0.000187134
2.16735e-05
0.000234941
3.08028e-05
0.000278177
4.1522e-05
0.000315952
5.39134e-05
0.000347593
6.81233e-05
0.000372635
8.43735e-05
0.00039079
0.000102972
0.000401902
0.000124322
0.000405877
0.000148929
0.000402615
0.000177415
0.000391946
0.000210529
0.000373585
0.000249174
0.000347152
0.000294427
0.000312326
0.000347537
0.000269364
0.000409685
0.000220876
0.000175498
0.000481199
9.46188e-07
2.70233e-05
3.6202e-06
7.96581e-05
7.98318e-06
0.000131484
1.40143e-05
0.000181103
2.17096e-05
0.000227245
3.1088e-05
0.000268799
4.2202e-05
0.000304838
5.5151e-05
0.000334644
7.00944e-05
0.000357691
8.72633e-05
0.000373621
0.000106973
0.000382192
0.000129632
0.000383218
0.000155753
0.000376494
0.000185968
0.000361731
0.000221043
0.00033851
0.00026191
0.000306285
0.000309701
0.000264534
0.00036578
0.000213285
0.000431515
0.000155141
9.94601e-05
0.000507553
9.0076e-07
2.61225e-05
3.49363e-06
7.70652e-05
7.78571e-06
0.000127192
1.37975e-05
0.000175091
2.1561e-05
0.000219482
3.11261e-05
0.000259233
4.25705e-05
0.000293394
5.60139e-05
0.000321201
7.16316e-05
0.000342074
8.96676e-05
0.000355585
0.000110447
0.000361413
0.000134389
0.000359276
0.000162016
0.000348866
0.000193973
0.000329775
0.000231045
0.000301438
0.000274193
0.000263137
0.000324606
0.000214122
0.000383753
0.000154138
0.000453204
8.56901e-05
1.86599e-05
0.000534004
8.4546e-07
2.52771e-05
3.33238e-06
7.45783e-05
7.51673e-06
0.000123007
1.34628e-05
0.000169145
2.12415e-05
0.000211703
3.0936e-05
0.000249539
4.26524e-05
0.000281678
5.65338e-05
0.000307319
7.27752e-05
0.000325832
9.16376e-05
0.000336723
0.000113461
0.000339589
0.000138679
0.000334058
0.000167831
0.000319715
0.000201578
0.000296027
0.00024073
0.000262287
0.000286279
0.000217588
0.000339463
0.000160938
0.000401856
9.17442e-05
0.000475223
1.23228e-05
-6.72037e-05
0.000561087
7.81167e-07
2.44959e-05
3.13974e-06
7.22197e-05
7.18331e-06
0.000118964
1.30225e-05
0.000163306
2.07691e-05
0.000203957
3.05427e-05
0.000239765
4.24807e-05
0.00026974
5.67533e-05
0.000293047
7.35797e-05
0.000309006
9.32425e-05
0.00031706
0.000116103
0.000316729
0.000142615
0.000307546
0.000173342
0.000288988
0.00020897
0.000260399
0.000250339
0.000220918
0.000298475
0.000169452
0.000354663
0.000104749
0.000420567
2.58409e-05
0.000498129
-6.52398e-05
-0.000158482
0.000589407
7.08965e-07
2.37869e-05
2.9198e-06
7.00089e-05
6.79419e-06
0.000115089
1.24912e-05
0.000157609
2.01663e-05
0.000196282
2.99775e-05
0.000229954
4.20972e-05
0.00025762
5.67268e-05
0.000278417
7.41142e-05
0.000291618
9.45701e-05
0.000296604
0.000118484
0.000292815
0.000146338
0.000279691
0.000178729
0.000256598
0.000216378
0.00022275
0.000260161
0.000177135
0.000311147
0.000118466
0.000370659
4.52374e-05
0.000440427
-4.39278e-05
0.000522544
-0.000147357
-0.000255555
0.000619617
6.3016e-07
2.31568e-05
2.6774e-06
6.79616e-05
6.35978e-06
0.000111407
1.18869e-05
0.000152082
1.94598e-05
0.000188709
2.92782e-05
0.000220136
4.15527e-05
0.000245346
5.65204e-05
0.000263449
7.44637e-05
0.000273675
9.57279e-05
0.00027534
0.000120739
0.000267804
0.000150019
0.000250411
0.000184205
0.000222411
0.000224068
0.000182887
0.00027053
0.000130672
0.000324704
6.42924e-05
0.000387949
-1.80072e-05
0.000462029
-0.000118008
0.000549136
-0.000234463
-0.000358805
0.000652386
5.46281e-07
2.26105e-05
2.41821e-06
6.60897e-05
5.89218e-06
0.000107933
1.12302e-05
0.000146744
1.86812e-05
0.000181258
2.84893e-05
0.000210328
4.09069e-05
0.000232928
5.62122e-05
0.000248144
7.47281e-05
0.000255159
9.68426e-05
0.000253225
0.000123027
0.00024162
0.000153854
0.000219584
0.000190016
0.000186249
0.000232343
0.000140561
0.000281815
8.12e-05
0.000339593
6.5138e-06
0.000407063
-8.54769e-05
0.000485982
-0.000196927
0.000578578
-0.000327059
-0.000468574
0.000688348
4.59086e-07
2.21514e-05
2.14865e-06
6.44001e-05
5.40516e-06
0.000104676
1.05448e-05
0.000141604
1.78664e-05
0.000173936
2.76614e-05
0.000200533
4.02284e-05
0.000220361
5.5892e-05
0.000232481
7.50226e-05
0.000236028
9.80593e-05
0.000230189
0.00012553
0.00021415
0.000158069
0.000187045
0.000196437
0.000147881
0.000241534
9.54642e-05
0.000294411
2.83234e-05
0.000356279
-5.53542e-05
0.000428536
-0.000157734
0.00051288
-0.000281272
0.000611509
-0.000425688
-0.00058512
0.000728054
3.70549e-07
2.17808e-05
1.87593e-06
6.28948e-05
4.91403e-06
0.000101638
9.85674e-06
0.000136661
1.70551e-05
0.000166738
2.68511e-05
0.000190737
3.95938e-05
0.000207618
5.56598e-05
0.000216415
7.54753e-05
0.000216213
9.95395e-05
0.000206125
0.000128447
0.000185242
0.000162907
0.000152584
0.000203761
0.000107027
0.000251991
4.7234e-05
0.000308724
-2.84091e-05
0.00037522
-0.000121851
0.000452874
-0.000235388
0.000543259
-0.000371656
0.000648476
-0.000530905
-0.000708553
0.000771909
2.82837e-07
2.1498e-05
1.60785e-06
6.15697e-05
4.43542e-06
9.88108e-05
9.19459e-06
0.000131902
1.62909e-05
0.000159641
2.612e-05
0.000180908
3.90863e-05
0.000194652
5.5625e-05
0.000199876
7.62257e-05
0.000195612
0.000101458
0.000180893
0.000131994
0.000154707
0.000168629
0.000115949
0.000212297
6.3359e-05
0.00026407
-4.53928e-06
0.000325153
-8.94922e-05
0.000396849
-0.000193547
0.000480525
-0.000319064
0.00057755
-0.000468681
0.000689882
-0.000643237
-0.000838782
0.000820111
1.98281e-07
2.12997e-05
1.35278e-06
6.04152e-05
3.98705e-06
9.61765e-05
8.58861e-06
0.000127301
1.56198e-05
0.00015261
2.55335e-05
0.000170994
3.87946e-05
0.000181391
5.59033e-05
0.000182767
7.74212e-05
0.000174094
0.000103997
0.000154316
0.000136393
0.000122311
0.0001755
7.68421e-05
0.00022235
1.65084e-05
0.000278113
-6.03024e-05
0.000344067
-0.000155446
0.000421539
-0.000271019
0.000511837
-0.000409361
0.00061604
-0.000572885
0.000735932
-0.000763129
-0.000975448
0.000872598
1.1931e-07
2.11804e-05
1.11939e-06
5.94152e-05
3.58728e-06
9.37086e-05
8.07022e-06
0.000122818
1.50896e-05
0.000145591
2.51596e-05
0.000160924
3.88104e-05
0.00016774
5.66143e-05
0.000164963
7.9213e-05
0.000151496
0.000107345
0.000126185
0.000141868
8.77879e-05
0.000183778
3.49316e-05
0.000234213
-3.39262e-05
0.000294433
-0.000120523
0.000365779
-0.000226792
0.000449576
-0.000354816
0.000547029
-0.000506814
0.000658841
-0.000684696
0.0007866
-0.000890888
-0.00111787
0.00092902
4.84241e-08
2.1132e-05
9.16488e-07
5.85471e-05
3.25473e-06
9.13704e-05
7.67117e-06
0.000118401
1.47488e-05
0.000138513
2.50668e-05
0.000150606
3.92261e-05
0.000153581
5.78778e-05
0.000146312
8.17513e-05
0.000127622
0.000111682
9.62543e-05
0.000148632
5.08374e-05
0.000193706
-1.01426e-05
0.000248144
-8.83641e-05
0.00031329
-0.000185669
0.000390523
-0.000304025
0.00048113
-0.000445423
0.00058616
-0.000611844
0.000705861
-0.000804397
0.000841604
-0.00102663
-0.00126499
0.000988723
-1.17972e-08
2.11438e-05
7.52741e-07
5.77826e-05
3.00766e-06
8.91155e-05
7.42268e-06
0.000113986
1.46448e-05
0.000131291
2.5322e-05
0.000139929
4.01316e-05
0.000138771
5.98093e-05
0.000126634
8.51791e-05
0.000102252
0.000117179
6.42542e-05
0.000156881
1.11353e-05
0.000205496
-5.87573e-05
0.000264357
-0.000147225
0.000334873
-0.000256185
0.000418431
-0.000387582
0.000516231
-0.000543224
0.000629103
-0.000724715
0.000756798
-0.000932091
0.000900397
-0.00117023
-0.00141536
0.00105077
-5.96302e-08
2.12034e-05
6.36358e-07
5.70866e-05
2.86353e-06
8.68883e-05
7.35448e-06
0.000109495
1.48227e-05
0.000123823
2.59889e-05
0.000128763
4.16113e-05
0.000123149
6.25161e-05
0.000105729
8.9627e-05
7.51415e-05
0.000123989
2.98926e-05
0.00016678
-3.16565e-05
0.000219314
-0.00011129
0.000282999
-0.000210911
0.000359281
-0.000332467
0.000449511
-0.000477812
0.000554752
-0.000648465
0.000675537
-0.000845501
0.000811131
-0.00106768
0.000962119
-0.00132122
-0.00156733
0.00111408
-9.21358e-08
2.12956e-05
5.74987e-07
5.64194e-05
2.83832e-06
8.4625e-05
7.49385e-06
0.00010484
1.53238e-05
0.000115993
2.7125e-05
0.000116961
4.37411e-05
0.000106533
6.60932e-05
8.3377e-05
9.52073e-05
4.60273e-05
0.000132235
-7.13477e-06
0.000178457
-7.78792e-05
0.000235272
-0.000168105
0.000304143
-0.000279782
0.000386508
-0.000414832
0.000483635
-0.00057494
0.000596401
-0.000761231
0.00072498
-0.00097408
0.000868222
-0.00121093
0.00102558
-0.00147857
-0.00171943
0.00117769
-1.07873e-07
2.14034e-05
5.75213e-07
5.57364e-05
2.94607e-06
8.22541e-05
7.8647e-06
9.9921e-05
1.6184e-05
0.000107674
2.87803e-05
0.000104365
4.65859e-05
8.8727e-05
7.06191e-05
5.93437e-05
0.000102009
1.46372e-05
0.00014201
-4.71352e-05
0.000191993
-0.000127863
0.000253421
-0.000229533
0.000327773
-0.000354133
0.000416433
-0.000503493
0.000520528
-0.000679034
0.000640698
-0.000881401
0.000776781
-0.00111016
0.000927499
-0.00136164
0.00108982
-0.0016409
-0.00187022
0.00124061
-1.05299e-07
2.15087e-05
6.42474e-07
5.49886e-05
3.1984e-06
7.96982e-05
8.48682e-06
9.46326e-05
1.74331e-05
9.87273e-05
3.09952e-05
9.08029e-05
5.01964e-05
6.95258e-05
7.61532e-05
3.3387e-05
0.000110095
-1.93045e-05
0.000153368
-9.04086e-05
0.000207419
-0.000181914
0.000273741
-0.000295855
0.000353786
-0.000434178
0.000448823
-0.00059853
0.000559761
-0.000789972
0.000686948
-0.00100859
0.000829933
-0.00125315
0.000987909
-0.00151962
0.00115568
-0.00180867
-0.00201546
0.00130092
-8.34732e-08
2.15922e-05
7.80651e-07
5.41245e-05
3.60386e-06
7.6875e-05
9.37495e-06
8.88615e-05
1.9093e-05
8.90093e-05
3.37991e-05
7.60968e-05
5.46081e-05
4.87168e-05
8.27329e-05
5.26217e-06
0.000119496
-5.60681e-05
0.000166325
-0.000137237
0.000224712
-0.000240301
0.000296147
-0.000367289
0.000381995
-0.000520026
0.00048334
-0.000699874
0.000600788
-0.00090742
0.000734297
-0.0011421
0.000882994
-0.00140184
0.00104604
-0.00168266
0.00122042
-0.00198305
-0.00224174
0.0014467
-4.15388e-08
2.16337e-05
9.92874e-07
5.30901e-05
4.16885e-06
7.3699e-05
1.05396e-05
8.24908e-05
2.11785e-05
7.83704e-05
3.72103e-05
6.0065e-05
5.98403e-05
2.60867e-05
9.03732e-05
-2.52707e-05
0.000130215
-9.591e-05
0.000180852
-0.000187874
0.000243796
-0.000303244
0.000320482
-0.000443976
0.000412132
-0.000611676
0.000519561
-0.000807304
0.000642983
-0.00103084
0.000781851
-0.00128097
0.00093473
-0.00155472
0.00110022
-0.00184815
0.00127444
-0.00215727
-0.00244337
0.00147607
2.1859e-08
2.16119e-05
1.28019e-06
5.18317e-05
4.89586e-06
7.00833e-05
1.19852e-05
7.54014e-05
2.36955e-05
6.66601e-05
4.12346e-05
4.25259e-05
6.58951e-05
1.42622e-06
9.90657e-05
-5.84412e-05
0.000142222
-0.000139066
0.000196885
-0.000242538
0.000264545
-0.000370905
0.000346537
-0.000525968
0.000443866
-0.000709005
0.000557006
-0.000920444
0.000685692
-0.00115953
0.000828781
-0.00142405
0.000984164
-0.00171011
0.00114939
-0.00201338
0.0013198
-0.00232768
-0.00262734
0.00150377
1.04088e-07
2.15078e-05
1.64214e-06
5.02937e-05
5.78471e-06
6.59408e-05
1.37113e-05
6.74749e-05
2.66426e-05
5.37288e-05
4.58668e-05
2.33016e-05
7.27587e-05
-2.54657e-05
0.00010878
-9.4463e-05
0.000155458
-0.000185743
0.000214319
-0.000301399
0.000286791
-0.000443377
0.000374048
-0.000613225
0.000476817
-0.000811773
0.000595154
-0.00103878
0.000728251
-0.00129263
0.000874321
-0.00157012
0.00103057
-0.00186636
0.0011936
-0.00217641
0.00135844
-0.00249252
-0.00279678
0.00152788
2.06414e-07
2.13014e-05
2.07735e-06
4.84227e-05
6.83251e-06
6.11856e-05
1.57129e-05
5.85945e-05
3.00106e-05
3.94311e-05
5.10908e-05
2.22148e-06
8.04024e-05
-5.47773e-05
0.000119468
-0.000133528
0.00016984
-0.000236115
0.000233019
-0.000364578
0.000310324
-0.000520682
0.000402712
-0.000705613
0.000510562
-0.000919623
0.000633457
-0.00116168
0.000770002
-0.00142917
0.000917767
-0.00171789
0.00107334
-0.00202193
0.00123262
-0.00233569
0.00139057
-0.00265047
-0.00295339
0.00154718
3.27573e-07
2.09738e-05
2.58321e-06
4.61671e-05
8.03403e-06
5.57348e-05
1.79809e-05
4.86476e-05
3.37844e-05
2.36275e-05
5.68813e-05
-2.08753e-05
8.87848e-05
-8.66809e-05
0.00013106
-0.000175804
0.000185261
-0.000290316
0.000252824
-0.000432141
0.000334907
-0.000602766
0.000432193
-0.000802899
0.000544657
-0.00103209
0.00067136
-0.00128838
0.00081031
-0.00156812
0.000958474
-0.00186605
0.00111194
-0.0021754
0.00126617
-0.00248993
0.00141629
-0.00280058
-0.00309816
0.00156106
4.66456e-07
2.05073e-05
3.15623e-06
4.34773e-05
9.38219e-06
4.95088e-05
2.05028e-05
3.7527e-05
3.79435e-05
6.18683e-06
6.32052e-05
-4.6137e-05
9.78534e-05
-0.000121329
0.000143476
-0.000221426
0.000201597
-0.000348438
0.000273548
-0.000504091
0.000360277
-0.000689496
0.000462136
-0.000904757
0.000578644
-0.00114859
0.000708315
-0.00141805
0.000848578
-0.00170838
0.00099587
-0.00201334
0.00114592
-0.00232545
0.00129404
-0.00263805
0.00143569
-0.00294222
-0.00323171
0.00156923
6.21836e-07
1.98855e-05
3.79237e-06
4.03068e-05
1.08685e-05
4.24327e-05
2.32637e-05
2.51318e-05
4.24632e-05
-1.30127e-05
7.00234e-05
-7.36972e-05
0.000107547
-0.000158853
0.000156621
-0.0002705
0.000218709
-0.000410526
0.000294991
-0.000580373
0.000386155
-0.00078066
0.00049217
-0.00101077
0.000612064
-0.00126849
0.000743797
-0.00154978
0.00088426
-0.00184885
0.00102947
-0.00215855
0.00117496
-0.00247094
0.00131612
-0.0027792
0.00144888
-0.00307499
-0.00335451
0.00157169
7.92438e-07
1.90931e-05
4.48729e-06
3.66119e-05
1.24838e-05
3.44362e-05
2.6247e-05
1.13686e-05
4.73161e-05
-3.40817e-05
7.72923e-05
-0.000103673
0.000117798
-0.000199358
0.000170394
-0.000323096
0.000236446
-0.000476578
0.000316939
-0.000660865
0.000412251
-0.000875972
0.000521923
-0.00112044
0.000644471
-0.00139104
0.000777315
-0.00168263
0.000916879
-0.00198841
0.00105889
-0.00230056
0.00119884
-0.00261089
0.00133239
-0.00291275
0.00145608
-0.00319869
-0.00346706
0.00156864
9.77018e-07
1.81161e-05
5.23657e-06
3.23524e-05
1.42184e-05
2.54544e-05
2.94352e-05
-3.84824e-06
5.24728e-05
-5.71193e-05
8.49649e-05
-0.000136166
0.000128534
-0.000242928
0.000184686
-0.000379248
0.00025465
-0.000546542
0.00033917
-0.000745385
0.000438269
-0.000975071
0.000551027
-0.0012332
0.000675439
-0.00151545
0.000808426
-0.00181561
0.000946035
-0.00212602
0.00108384
-0.00243836
0.00121745
-0.00274451
0.00134296
-0.00303825
0.00145758
-0.00331331
-0.0035699
0.00156042
1.17443e-06
1.69416e-05
6.03596e-06
2.74908e-05
1.60627e-05
1.54276e-05
3.28105e-05
-2.05961e-05
5.79031e-05
-8.2212e-05
9.29925e-05
-0.000171255
0.000139679
-0.000289615
0.000199383
-0.000438952
0.000273157
-0.000620315
0.000361459
-0.000833688
0.000463917
-0.00107753
0.000579125
-0.00134841
0.000704574
-0.0016409
0.000836743
-0.00194778
0.000971412
-0.00226069
0.00110414
-0.00257109
0.00123081
-0.00287118
0.00134803
-0.00315547
0.00145373
-0.003419
-0.00366361
0.00154744
1.38366e-06
1.5558e-05
6.88148e-06
2.1993e-05
1.80074e-05
4.30171e-06
3.63551e-05
-3.89437e-05
6.35763e-05
-0.000109433
0.000101325
-0.000209004
0.000151156
-0.000339445
0.000214368
-0.000502164
0.000291798
-0.000697745
0.000383578
-0.000925467
0.000488903
-0.00118285
0.000605879
-0.00146539
0.000731519
-0.00176654
0.000861942
-0.0020782
0.000992783
-0.00239153
0.00111972
-0.00269802
0.00123902
-0.00299049
0.00134789
-0.00326435
0.00144495
-0.00351606
-0.00374883
0.00153017
1.60387e-06
1.39541e-05
7.76956e-06
1.58273e-05
2.00439e-05
-7.97257e-06
4.00516e-05
-5.89515e-05
6.94616e-05
-0.000138843
0.000109911
-0.000249453
0.000162882
-0.000392417
0.00022952
-0.000568802
0.000310403
-0.000778629
0.000405299
-0.00102036
0.000512948
-0.0012905
0.000630974
-0.00158341
0.000755963
-0.00189153
0.000883771
-0.00220601
0.00101001
-0.00251777
0.00113059
-0.0028186
0.00124227
-0.00310217
0.00134289
-0.00336497
0.0014317
-0.00360487
-0.00382621
0.00150909
1.83439e-06
1.21197e-05
8.69702e-06
8.96468e-06
2.21637e-05
-2.14393e-05
4.38832e-05
-8.0671e-05
7.55281e-05
-0.000170488
0.000118699
-0.000292624
0.000174778
-0.000448495
0.000244717
-0.000638742
0.000328802
-0.000862713
0.000426399
-0.00111796
0.000535786
-0.00139989
0.000654127
-0.00170175
0.000777649
-0.00201505
0.000902048
-0.00233041
0.00102303
-0.00263875
0.00113686
-0.00293244
0.00124083
-0.00320614
0.00133342
-0.00345755
0.00141445
-0.00368591
-0.00389644
0.00148468
2.0747e-06
1.0045e-05
9.661e-06
1.37838e-06
2.43592e-05
-3.61375e-05
4.78332e-05
-0.000104145
8.17448e-05
-0.0002044
0.000127637
-0.000338516
0.000186758
-0.000507616
0.000259836
-0.00071182
0.000346822
-0.000949699
0.000446662
-0.0012178
0.00055717
-0.0015104
0.00067509
-0.00181967
0.000796373
-0.00213633
0.000916662
-0.0024507
0.00103187
-0.00275395
0.0011387
-0.00303927
0.00123501
-0.00330245
0.00131988
-0.00354242
0.00139367
-0.0037597
-0.00396018
0.0014574
2.32442e-06
7.7206e-06
1.0659e-05
-6.95616e-06
2.66227e-05
-5.21012e-05
5.18848e-05
-0.000129407
8.80801e-05
-0.000240595
0.000136669
-0.000387105
0.000198737
-0.000569684
0.00027475
-0.000787833
0.000364296
-0.00103924
0.000465881
-0.00131938
0.000576875
-0.00162139
0.000693655
-0.00193645
0.000811987
-0.00225466
0.000927572