/*--------------------------------*- C++ -*----------------------------------*\
  =========                 |
  \\      /  F ield         | OpenFOAM: The Open Source CFD Toolbox
   \\    /   O peration     | Website:  https://openfoam.org
    \\  /    A nd           | Version:  7
     \\/     M anipulation  |
\*---------------------------------------------------------------------------*/
FoamFile
{
    version     2.0;
    format      ascii;
    class       volVectorField;
    location    "80";
    object      U;
}
// * * * * * * * * * * * * * * * * * * * * * * * * * * * * * * * * * * * * * //

dimensions      [0 1 -1 0 0 0 0];

internalField   nonuniform List<vector> 
36600
(
(-0.00037103 0.0225376 -1.0048e-21)
(-0.00175608 0.0605397 -5.23373e-21)
(-0.00437298 0.0927671 6.28704e-22)
(-0.00795425 0.119438 9.32835e-22)
(-0.0124207 0.140911 1.6403e-21)
(-0.0176574 0.157691 -1.19626e-20)
(-0.0235192 0.170392 2.03521e-21)
(-0.0298519 0.179702 -7.92528e-21)
(-0.0365002 0.18634 -1.68526e-20)
(-0.0433185 0.191 1.42699e-20)
(-0.0501804 0.194311 4.20528e-21)
(-0.0569858 0.196808 -5.00723e-21)
(-0.0636659 0.198904 6.09896e-21)
(-0.0701848 0.200893 8.28501e-21)
(-0.0765383 0.202954 -5.19338e-21)
(-0.0827486 0.205161 -6.99527e-21)
(-0.0888608 0.207509 -1.67091e-20)
(-0.0949556 0.209918 -1.29152e-21)
(-0.101034 0.212251 -2.83011e-21)
(-0.106983 0.2143 -5.60448e-21)
(-0.000781692 0.0228322 -4.93612e-21)
(-0.00271634 0.0614182 3.99112e-21)
(-0.00556292 0.0942147 -4.63684e-21)
(-0.00915262 0.121423 -1.81841e-20)
(-0.0134505 0.143381 8.33572e-21)
(-0.0183814 0.160576 4.99774e-20)
(-0.0238363 0.173609 -3.04614e-20)
(-0.0296898 0.183165 5.08302e-21)
(-0.0358092 0.18996 2.43249e-20)
(-0.0420648 0.194696 2.03637e-23)
(-0.0483395 0.198017 1.42218e-20)
(-0.0545364 0.20047 -1.86749e-20)
(-0.0605839 0.202488 1.94382e-20)
(-0.0664385 0.204384 -1.6558e-20)
(-0.0720844 0.206352 -6.43187e-21)
(-0.0775299 0.208485 3.21649e-20)
(-0.0828044 0.210784 -1.01756e-20)
(-0.0879747 0.21318 1.52427e-21)
(-0.0930341 0.21554 -1.89241e-20)
(-0.0978409 0.217667 -2.1109e-21)
(-0.0012007 0.023041 -3.83499e-20)
(-0.0037031 0.0620854 4.82072e-21)
(-0.00679649 0.0953644 7.28085e-21)
(-0.0104078 0.123053 4.60477e-20)
(-0.0145441 0.145465 -3.65046e-20)
(-0.0191688 0.163063 -5.61865e-20)
(-0.0242076 0.17643 5.06313e-20)
(-0.0295638 0.186241 -1.37333e-20)
(-0.0351273 0.193208 -6.76818e-21)
(-0.0407843 0.198036 -3.42127e-20)
(-0.046427 0.201377 9.32923e-21)
(-0.0519617 0.203794 3.29208e-20)
(-0.0573139 0.205735 -6.60513e-21)
(-0.0624323 0.207531 2.67105e-20)
(-0.0672894 0.209393 -2.2001e-20)
(-0.0718789 0.211427 -6.55662e-21)
(-0.0762145 0.21365 5.17327e-20)
(-0.0803497 0.216001 -3.21368e-21)
(-0.0842697 0.218355 8.10533e-20)
(-0.0877958 0.220532 -1.96221e-20)
(-0.00162365 0.0231645 6.28604e-20)
(-0.00470638 0.062541 -2.73666e-20)
(-0.00806135 0.0962137 -1.8744e-20)
(-0.0117072 0.124325 -4.30567e-20)
(-0.0156901 0.147155 2.5696e-20)
(-0.0200102 0.16514 -4.90356e-21)
(-0.0246266 0.17884 -8.49131e-20)
(-0.0294706 0.188912 -8.93167e-21)
(-0.0344543 0.196062 -1.82726e-20)
(-0.0394797 0.200995 -2.98728e-21)
(-0.0444487 0.204368 -3.13515e-20)
(-0.0492707 0.206754 3.52911e-20)
(-0.0538685 0.208617 -5.18813e-20)
(-0.058183 0.210304 -1.57139e-21)
(-0.0621745 0.212043 1.4017e-20)
(-0.0658224 0.213955 -1.083e-19)
(-0.0691245 0.216072 -8.71291e-20)
(-0.0721215 0.218343 4.73209e-20)
(-0.0747918 0.220658 -6.27676e-20)
(-0.0769087 0.222856 1.41036e-21)
(-0.00204627 0.023204 -8.37065e-21)
(-0.00571638 0.0627864 1.0823e-19)
(-0.00934526 0.0967622 5.0159e-20)
(-0.0130381 0.125234 -2.13948e-21)
(-0.0168772 0.148445 1.31033e-20)
(-0.0208964 0.166797 1.86012e-21)
(-0.0250869 0.180824 4.35318e-20)
(-0.029407 0.191162 5.10775e-20)
(-0.0337902 0.198505 2.14971e-20)
(-0.0381546 0.203553 7.5212e-20)
(-0.0424117 0.206966 -8.60098e-20)
(-0.0464742 0.209325 -1.7938e-20)
(-0.0502625 0.211107 3.76182e-20)
(-0.0537096 0.212675 -6.51934e-20)
(-0.0567642 0.214272 2.96826e-20)
(-0.059391 0.216037 6.82041e-20)
(-0.0615723 0.218014 1.60649e-20)
(-0.0633364 0.220172 2.37537e-20)
(-0.0646576 0.222413 -3.74328e-20)
(-0.0652487 0.224602 4.52461e-21)
(-0.00246446 0.0231614 -4.14417e-20)
(-0.0067236 0.0628247 2.57331e-20)
(-0.0106363 0.097012 -4.10301e-20)
(-0.0143884 0.125779 3.76348e-20)
(-0.018094 0.149329 3.26137e-20)
(-0.0218183 0.168025 1.46225e-20)
(-0.0255823 0.182371 2.7512e-20)
(-0.0293699 0.192976 -1.90024e-20)
(-0.0331356 0.200518 -1.1655e-19)
(-0.0368133 0.205689 -1.03418e-19)
(-0.0403241 0.209149 -6.67308e-20)
(-0.0435844 0.211483 2.50161e-20)
(-0.0465125 0.213181 -1.4171e-20)
(-0.049034 0.214618 1.0741e-19)
(-0.0510858 0.216054 -3.85013e-20)
(-0.0526188 0.217644 3.13606e-20)
(-0.0535994 0.219449 4.53121e-20)
(-0.0540447 0.221455 -2.55313e-20)
(-0.0539298 0.223589 2.23875e-19)
(-0.0528919 0.225742 -8.48555e-20)
(-0.00287414 0.0230392 5.03676e-20)
(-0.00771885 0.0626608 -6.13475e-20)
(-0.0119229 0.0969672 -9.29918e-20)
(-0.0157457 0.125963 -2.35375e-20)
(-0.0193295 0.149807 1.05443e-20)
(-0.022767 0.168821 1.60628e-20)
(-0.0261069 0.183471 5.32256e-20)
(-0.0293569 0.194341 1.17048e-20)
(-0.0324919 0.202086 3.71721e-21)
(-0.0354609 0.207386 1.85798e-19)
(-0.0381951 0.210897 1.3849e-19)
(-0.0406149 0.213208 -8.24604e-20)
(-0.0426369 0.214816 -1.2025e-20)
(-0.0441796 0.21611 -3.23803e-20)
(-0.0451691 0.217364 3.19006e-20)
(-0.0455425 0.21875 -1.68513e-19)
(-0.0452509 0.220349 -3.55508e-20)
(-0.0443 0.222166 -5.28634e-20)
(-0.0426738 0.224157 -1.2797e-19)
(-0.0399204 0.226258 6.9902e-20)
(-0.00327172 0.022841 8.5141e-21)
(-0.00869346 0.0623007 -3.00843e-20)
(-0.0131941 0.0966343 8.39765e-20)
(-0.0170989 0.12579 -3.14125e-20)
(-0.0205731 0.14988 -2.83519e-20)
(-0.0237342 0.16918 4.45714e-20)
(-0.0266551 0.184119 -7.44718e-20)
(-0.0293659 0.195246 -9.99623e-21)
(-0.0318605 0.203194 1.38448e-19)
(-0.034103 0.208626 -8.77389e-20)
(-0.0360346 0.212191 -3.5819e-20)
(-0.0375802 0.214479 4.19264e-20)
(-0.0386551 0.215992 -1.09303e-20)
(-0.0391718 0.217129 -5.69889e-21)
(-0.0390457 0.21818 4.67211e-20)
(-0.0382008 0.219334 -1.24358e-19)
(-0.036574 0.220692 4.28313e-20)
(-0.0341589 0.222283 -3.27341e-20)
(-0.0309507 0.224088 -7.42119e-20)
(-0.0264168 0.22614 2.61944e-20)
(-0.00365385 0.0225707 -2.37008e-20)
(-0.00963945 0.0617526 1.65421e-19)
(-0.0144396 0.0960217 -3.63245e-20)
(-0.0184368 0.125267 -4.28587e-20)
(-0.021815 0.149551 1.02299e-19)
(-0.0247117 0.169103 -1.0521e-19)
(-0.0272216 0.184309 -5.12968e-20)
(-0.029395 0.195684 -8.82768e-20)
(-0.0312435 0.203831 -9.57129e-20)
(-0.0327459 0.209396 -6.27105e-20)
(-0.0338534 0.213016 -8.41918e-20)
(-0.0344957 0.215278 1.51956e-19)
(-0.034588 0.216689 -1.66852e-20)
(-0.034037 0.217656 -3.51351e-20)
(-0.0327485 0.218483 -1.82756e-19)
(-0.030634 0.219376 1.02332e-19)
(-0.0276163 0.220458 2.51106e-20)
(-0.0236826 0.221784 6.42869e-20)
(-0.0188238 0.223367 4.38485e-20)
(-0.0124495 0.225351 -1.18455e-19)
(-0.00401754 0.0222327 -7.37767e-20)
(-0.0105495 0.0610258 9.70662e-20)
(-0.0156499 0.0951403 5.39445e-20)
(-0.0197494 0.124404 2.41873e-20)
(-0.0230457 0.148827 9.14933e-20)
(-0.0256921 0.168592 -7.07688e-20)
(-0.0278017 0.18404 1.51474e-19)
(-0.0294426 0.195648 8.36591e-21)
(-0.0306432 0.203988 1.3772e-19)
(-0.031396 0.209684 -7.97499e-20)
(-0.0316622 0.213357 1.27311e-19)
(-0.0313772 0.215591 -1.25289e-19)
(-0.0304564 0.216892 -1.12101e-19)
(-0.028802 0.217676 9.55833e-20)
(-0.0263109 0.218257 3.38093e-19)
(-0.0228828 0.21886 -1.86613e-19)
(-0.0184276 0.219629 1.53309e-19)
(-0.0129256 0.22065 3.5667e-20)
(-0.00636821 0.221983 -1.3376e-19)
(0.00190038 0.223858 1.12708e-19)
(-0.00436019 0.0218323 1.34363e-19)
(-0.0114173 0.0601312 -7.44597e-20)
(-0.0168167 0.0940029 2.50613e-20)
(-0.021028 0.123212 9.31138e-20)
(-0.0242569 0.147718 -7.08756e-20)
(-0.0266686 0.167654 1.64761e-19)
(-0.028391 0.183314 -2.96293e-20)
(-0.0295076 0.195136 3.65366e-21)
(-0.0300619 0.203658 -1.90371e-19)
(-0.0300596 0.209479 1.19491e-19)
(-0.0294721 0.213203 2.74873e-20)
(-0.0282405 0.215404 -3.58411e-20)
(-0.0262815 0.216587 4.48106e-20)
(-0.0234937 0.217174 -1.76674e-19)
(-0.0197662 0.217489 -9.80166e-20)
(-0.0149878 0.217773 2.07186e-19)
(-0.00905593 0.218194 -1.16095e-19)
(-0.00194469 0.218871 -1.66952e-19)
(0.00634718 0.219915 3.0965e-19)
(0.0165503 0.221662 -3.3852e-22)
(-0.00467969 0.0213749 1.12776e-19)
(-0.0122374 0.059081 -1.37091e-19)
(-0.0179327 0.0926242 -1.41473e-19)
(-0.0222644 0.121706 -6.68509e-20)
(-0.0254411 0.146235 -4.6248e-20)
(-0.0276349 0.166296 -5.36479e-20)
(-0.0289853 0.182135 -2.24469e-19)
(-0.0295886 0.194147 2.73451e-20)
(-0.0295019 0.202837 -9.37276e-20)
(-0.0287431 0.208773 3.25712e-19)
(-0.0272936 0.212543 -1.88137e-19)
(-0.0251008 0.214705 1.14732e-19)
(-0.0220836 0.215764 -3.51029e-20)
(-0.0181381 0.216139 1.92137e-19)
(-0.0131465 0.216168 1.5679e-20)
(-0.00698784 0.216106 -1.6494e-19)
(0.000452285 0.216143 -2.98552e-20)
(0.00920582 0.216436 7.13727e-21)
(0.0192597 0.217153 -1.24095e-20)
(0.0314254 0.218761 2.12946e-19)
(-0.00497437 0.0208666 -1.4045e-19)
(-0.0130055 0.0578884 -1.3118e-19)
(-0.018992 0.0910208 5.38472e-20)
(-0.0234519 0.119903 1.3312e-19)
(-0.0265915 0.144394 -1.10935e-20)
(-0.0285855 0.164529 -8.97625e-20)
(-0.0295809 0.180508 1.97657e-19)
(-0.0296847 0.192684 -2.20353e-20)
(-0.0289652 0.201523 2.36228e-19)
(-0.0274521 0.207564 -2.60847e-19)
(-0.0251364 0.21137 6.83551e-20)
(-0.0219724 0.213488 8.0535e-20)
(-0.0178818 0.214412 -2.54099e-21)
(-0.0127594 0.214565 -1.39036e-21)
(-0.00648179 0.214288 -1.52273e-19)
(0.00108095 0.213852 2.02504e-20)
(0.0100542 0.213472 2.044e-19)
(0.0204761 0.213339 2.64445e-19)
(0.032313 0.213689 -3.14675e-19)
(0.0464603 0.215148 -2.03759e-19)
(-0.00524311 0.0203138 5.88853e-20)
(-0.0137182 0.056568 8.75597e-20)
(-0.0199897 0.0892108 1.05274e-19)
(-0.0245851 0.117821 -1.76015e-19)
(-0.0277027 0.142212 1.70736e-19)
(-0.0295153 0.162368 1.72185e-19)
(-0.0301744 0.178445 -6.66932e-20)
(-0.0297944 0.190752 2.88992e-19)
(-0.0284534 0.199717 -2.90299e-19)
(-0.0261915 0.205847 1.27633e-19)
(-0.0230092 0.20968 1.29186e-19)
(-0.0188678 0.211744 -9.91849e-21)
(-0.013693 0.212526 1.62024e-21)
(-0.00737924 0.212444 1.68714e-20)
(0.000201322 0.211845 -1.18585e-19)
(0.00918658 0.21101 1.18577e-19)
(0.0197124 0.210178 -6.11409e-20)
(0.0318232 0.20958 -1.37459e-19)
(0.0454595 0.209522 1.78163e-19)
(0.0616022 0.210821 3.74421e-20)
(-0.00548528 0.0197233 -3.38963e-20)
(-0.0143734 0.055135 4.1336e-20)
(-0.0209226 0.087214 -8.81322e-20)
(-0.0256595 0.115482 -1.3009e-19)
(-0.0287698 0.139707 -1.13927e-19)
(-0.0304201 0.159828 -1.18081e-19)
(-0.0307625 0.175957 1.90201e-19)
(-0.0299162 0.188359 -9.5632e-20)
(-0.0279672 0.197423 7.56068e-20)
(-0.0249648 0.203623 8.18366e-21)
(-0.0209186 0.20747 -2.01978e-20)
(-0.0157974 0.209472 5.01629e-20)
(-0.00953134 0.210102 -9.80169e-20)
(-0.00201567 0.209774 5.09868e-20)
(0.00688072 0.208836 1.64462e-19)
(0.0173027 0.207579 -2.39489e-19)
(0.0293963 0.206264 -1.5393e-19)
(0.043213 0.20516 2.02522e-19)
(0.0586629 0.204653 -1.19363e-19)
(0.0768129 0.205779 -1.87052e-19)
(-0.00570078 0.019102 1.25062e-19)
(-0.0149701 0.0536054 -1.23788e-19)
(-0.0217887 0.0850511 9.93711e-20)
(-0.0266724 0.112908 1.57217e-19)
(-0.0297894 0.136901 -2.77757e-20)
(-0.0312962 0.156929 -1.01022e-19)
(-0.0313421 0.17306 -1.87083e-19)
(-0.0300481 0.185516 -1.40909e-19)
(-0.0275063 0.194649 -2.80778e-19)
(-0.0237739 0.200897 2.80703e-20)
(-0.0188691 0.204741 -2.46134e-20)
(-0.0127683 0.20667 -1.95045e-19)
(-0.00540687 0.207139 1.68183e-19)
(0.0033182 0.206555 2.05366e-19)
(0.0135403 0.205265 -1.06625e-20)
(0.0254106 0.203565 1.258e-19)
(0.0390847 0.201736 -6.29562e-20)
(0.0546229 0.200088 9.78829e-21)
(0.071901 0.199086 1.79371e-19)
(0.0920728 0.200025 4.36003e-19)
(-0.00589006 0.0184569 -5.44056e-20)
(-0.0155085 0.0519957 -3.66204e-20)
(-0.0225872 0.082744 1.0237e-19)
(-0.0276219 0.110122 -1.40647e-19)
(-0.0307588 0.133819 -7.86928e-20)
(-0.0321405 0.153693 1.3736e-19)
(-0.0319098 0.169771 -4.96095e-20)
(-0.0301874 0.182237 -1.42078e-19)
(-0.0270689 0.191404 2.28634e-19)
(-0.0226185 0.197673 -6.0898e-20)
(-0.0168622 0.201498 4.42125e-20)
(-0.00978397 0.20334 2.37511e-19)
(-0.00132487 0.203639 -3.27938e-19)
(0.00861537 0.202791 -8.95719e-20)
(0.0201716 0.201136 -1.7551e-19)
(0.0335007 0.198976 3.55687e-19)
(0.048768 0.196605 1.07626e-20)
(0.0660446 0.194374 1.96662e-19)
(0.085169 0.19283 -7.13182e-20)
(0.107385 0.193564 -4.12523e-19)
(-0.00605411 0.0177951 -1.25965e-19)
(-0.01599 0.0503227 1.76326e-19)
(-0.0233191 0.080315 2.4098e-21)
(-0.028508 0.10715 -1.56513e-21)
(-0.0316766 0.130485 1.76687e-19)
(-0.0329504 0.150142 8.43263e-20)
(-0.0324625 0.166111 -4.57164e-21)
(-0.0303304 0.178539 3.67491e-19)
(-0.0266516 0.1877 1.393e-19)
(-0.0214956 0.193961 -2.53741e-19)
(-0.0148955 0.197745 1.21852e-20)
(-0.0068428 0.199487 -8.77256e-21)
(0.00271552 0.199607 3.46886e-19)
(0.0138765 0.198486 -3.85652e-19)
(0.0267756 0.196459 1.06382e-19)
(0.0415751 0.193823 3.97612e-21)
(0.0584507 0.190887 -2.71401e-19)
(0.0774868 0.188035 -2.83061e-19)
(0.0984832 0.185902 -3.46537e-20)
(0.122779 0.186407 4.185e-19)
(-0.00619445 0.0171238 4.05131e-20)
(-0.0164172 0.0486033 -1.25645e-19)
(-0.0239866 0.0777871 1.19222e-19)
(-0.0293315 0.104018 -1.76164e-19)
(-0.0325423 0.126925 2.15727e-19)
(-0.0337237 0.146302 -3.18855e-19)
(-0.0329964 0.162103 -8.69425e-20)
(-0.0304722 0.174441 -1.9218e-19)
(-0.0262485 0.183553 -8.96301e-20)
(-0.0203988 0.189774 1.57975e-19)
(-0.0129623 0.193492 3.19252e-19)
(-0.0039375 0.195119 -3.55376e-19)
(0.0067226 0.19505 -1.32592e-19)
(0.0191114 0.193651 4.76384e-19)
(0.0333648 0.191244 -1.72337e-19)
(0.0496502 0.188123 -2.47963e-19)
(0.0681545 0.184601 3.14525e-19)
(0.0889795 0.181095 6.65291e-20)
(0.111885 0.178322 6.26396e-20)
(0.138317 0.178568 -2.70078e-19)
(-0.0063131 0.01645 1.57053e-20)
(-0.0167938 0.0468543 -6.53983e-20)
(-0.0245933 0.0751833 2.08768e-19)
(-0.0300948 0.100752 -2.66324e-19)
(-0.0333559 0.123168 -2.17532e-19)
(-0.0344582 0.142199 5.63517e-20)
(-0.0335068 0.157771 3.71696e-19)
(-0.030606 0.169964 -2.31812e-19)
(-0.0258511 0.178982 5.52473e-20)
(-0.0193177 0.185125 -1.08937e-19)
(-0.0110503 0.188753 -4.36088e-19)
(-0.00105367 0.190246 2.61884e-19)
(0.0107136 0.189979 2.09703e-19)
(0.0243411 0.188297 -3.70406e-19)
(0.0399652 0.185507 8.64547e-20)
(0.057759 0.181895 3.43952e-19)
(0.0779216 0.177773 1.3409e-19)
(0.100577 0.173582 4.7382e-20)
(0.125443 0.170118 -2.79279e-19)
(0.154098 0.17007 -1.37774e-19)
(-0.00641258 0.0157803 -1.09984e-19)
(-0.0171245 0.0450922 -1.95004e-19)
(-0.0251438 0.0725265 -1.11207e-19)
(-0.030801 0.0973786 1.45279e-19)
(-0.0341182 0.119241 -8.26974e-21)
(-0.0351514 0.137862 2.90841e-20)
(-0.0339881 0.153142 -5.12747e-20)
(-0.0307229 0.165132 3.47171e-20)
(-0.0254472 0.174007 2.17869e-19)
(-0.0182371 0.180034 2.73212e-19)
(-0.00914091 0.183542 -1.20833e-20)
(0.00183144 0.184883 -5.94859e-20)
(0.0147161 0.184408 -3.46348e-19)
(0.0295998 0.18244 2.58264e-19)
(0.0466194 0.179269 -2.21479e-20)
(0.0659545 0.175165 -1.53338e-19)
(0.0878183 0.170436 -7.68643e-19)
(0.112363 0.165537 2.72696e-19)
(0.139261 0.161329 1.5789e-20)
(0.170259 0.160944 -1.70944e-19)
(-0.00649581 0.0151215 1.011e-19)
(-0.017415 0.043333 2.54669e-19)
(-0.0256439 0.0698392 -1.90825e-19)
(-0.0314539 0.0939248 -9.10738e-20)
(-0.03483 0.115173 7.52434e-20)
(-0.0358002 0.133319 -1.79477e-19)
(-0.0344332 0.148244 -3.0998e-19)
(-0.0308114 0.159973 1.9184e-19)
(-0.0250206 0.168653 -2.2013e-20)
(-0.0171359 0.174522 -4.30846e-19)
(-0.00720762 0.177878 8.20905e-20)
(0.00475043 0.179048 4.5491e-20)
(0.0187705 0.178355 -7.88667e-20)
(0.0349371 0.1761 2.0717e-19)
(0.0533889 0.172552 4.01951e-19)
(0.0743129 0.167964 -2.61427e-19)
(0.0979386 0.162627 2.12819e-19)
(0.124453 0.157004 5.03704e-20)
(0.153481 0.152006 2.9799e-19)
(0.186988 0.151236 1.34825e-19)
(-0.00656612 0.0144795 -1.10948e-19)
(-0.0176716 0.041592 -1.31357e-20)
(-0.0260998 0.0671431 2.70116e-19)
(-0.0320578 0.0904165 2.63968e-19)
(-0.0354916 0.110994 -5.34087e-20)
(-0.0364007 0.128601 -3.34401e-20)
(-0.0348326 0.143105 3.53056e-19)
(-0.0308564 0.154513 -2.52865e-19)
(-0.0245503 0.162945 7.58928e-20)
(-0.0159863 0.168612 3.12065e-19)
(-0.00521515 0.171785 2.96312e-19)
(0.00774732 0.172762 1.13953e-19)
(0.0229312 0.171841 4.96563e-19)
(0.0404204 0.1693 -6.83862e-20)
(0.0603569 0.165385 -5.22166e-19)
(0.082937 0.160326 2.56249e-19)
(0.108408 0.154394 -1.3572e-19)
(0.137 0.148044 -3.18687e-19)
(0.168282 0.142213 -2.26162e-19)
(0.204516 0.141008 -2.29412e-19)
(-0.00662715 0.0138602 7.07212e-20)
(-0.0179014 0.0398834 1.42753e-19)
(-0.0265186 0.0644588 -9.84072e-20)
(-0.032617 0.0868789 -1.20567e-19)
(-0.0361034 0.10673 -1.22992e-19)
(-0.0369473 0.123737 -3.29754e-20)
(-0.0351744 0.137758 -4.50102e-19)
(-0.0308387 0.148783 1.72076e-19)
(-0.024009 0.156913 -1.56597e-19)
(-0.0147525 0.162333 -2.61393e-19)
(-0.00311785 0.165289 9.03171e-21)
(0.0108793 0.166051 -6.50151e-19)
(0.0272692 0.164894 -5.015e-19)
(0.0461375 0.16207 1.56947e-19)
(0.0676315 0.157803 7.9944e-20)
(0.0919592 0.152296 -1.69645e-19)
(0.119388 0.14579 6.59658e-19)
(0.150199 0.138726 -1.03828e-19)
(0.183891 0.13203 2.83754e-19)
(0.223126 0.130344 2.57722e-19)
(-0.00668276 0.0132688 -9.69445e-20)
(-0.0181118 0.0382203 -3.10598e-19)
(-0.0269071 0.0618055 9.70105e-20)
(-0.0331355 0.0833363 5.37594e-21)
(-0.0366641 0.102411 4.02839e-19)
(-0.0374324 0.118758 -2.37036e-19)
(-0.0354431 0.132234 -2.0067e-19)
(-0.030734 0.142816 2.37926e-19)
(-0.0233629 0.150589 -1.40876e-20)
(-0.0133895 0.155716 1.0916e-19)
(-0.000858272 0.15842 3.2692e-19)
(0.0142184 0.158946 6.79073e-19)
(0.031874 0.157545 5.4096e-20)
(0.0521986 0.154445 -2.97107e-19)
(0.0753482 0.149845 5.36026e-20)
(0.101545 0.143922 5.21066e-19)
(0.131077 0.136881 -3.54207e-19)
(0.164286 0.129134 2.02624e-21)
(0.200577 0.121558 2.75696e-19)
(0.243148 0.119352 -1.70719e-19)
(-0.00673697 0.0127098 -9.23592e-20)
(-0.0183101 0.0366144 3.65896e-19)
(-0.0272722 0.0592011 -2.75815e-19)
(-0.0336164 0.0798112 -5.55592e-20)
(-0.037171 0.0980618 -9.2364e-20)
(-0.0378454 0.113693 -2.36439e-19)
(-0.0356191 0.126564 2.33152e-19)
(-0.0305123 0.136645 -6.12077e-20)
(-0.0225699 0.144007 -1.33955e-19)
(-0.0118421 0.148797 2.16709e-19)
(0.00163429 0.151213 -2.4978e-19)
(0.0178534 0.151483 -8.02391e-20)
(0.0368554 0.149831 -9.00545e-21)
(0.058739 0.146464 2.07938e-19)
(0.0836717 0.141559 -1.86893e-19)
(0.111892 0.135262 -3.54268e-19)
(0.143711 0.127739 -1.07964e-19)
(0.179538 0.119365 -1.57356e-19)
(0.21865 0.110915 -4.82074e-19)
(0.264951 0.108173 -1.45616e-19)
(-0.00679381 0.012187 1.30694e-19)
(-0.0185038 0.0350758 -1.60566e-19)
(-0.02762 0.0566611 -1.97675e-19)
(-0.0340615 0.0763246 -1.84754e-19)
(-0.037619 0.0937093 6.09104e-20)
(-0.0381726 0.108573 3.43365e-20)
(-0.035678 0.120781 8.28979e-20)
(-0.0301369 0.130305 -2.8543e-19)
(-0.0215795 0.137204 1.62403e-19)
(-0.0100436 0.141612 -4.80512e-19)
(0.00444509 0.143709 -2.39042e-19)
(0.021891 0.143702 3.25832e-21)
(0.0423455 0.141796 2.0726e-19)
(0.0659201 0.138177 -1.35287e-19)
(0.0927976 0.132999 3.4391e-19)
(0.123236 0.126382 -8.41968e-20)
(0.157566 0.11845 1.09955e-19)
(0.196273 0.109532 4.14105e-19)
(0.238459 0.100242 5.52984e-20)
(0.28893 0.096982 2.67651e-19)
(-0.00685722 0.0117035 -2.75632e-19)
(-0.0186996 0.0336128 2.14874e-19)
(-0.0279555 0.0541993 2.38722e-19)
(-0.0344706 0.0728952 -1.36625e-19)
(-0.0380002 0.0893769 2.30475e-19)
(-0.0383958 0.103425 2.19788e-19)
(-0.0355895 0.114919 -3.95744e-20)
(-0.0295635 0.123832 -2.16877e-19)
(-0.0203309 0.13022 -3.18126e-19)
(-0.00791447 0.134205 9.20092e-20)
(0.00767508 0.135952 8.97541e-21)
(0.0264572 0.135652 -2.33524e-19)
(0.0484991 0.133491 1.71484e-19)
(0.0739298 0.129639 -1.33711e-19)
(0.102951 0.12423 -2.43677e-19)
(0.135843 0.117358 -3.16383e-19)
(0.17295 0.109107 7.77859e-20)
(0.214839 0.0997607 1.06928e-19)
(0.260376 0.0896977 -1.04387e-19)
(0.31549 0.0859877 4.40896e-19)
(-0.0069309 0.0112616 -2.16689e-19)
(-0.0189037 0.0322318 -1.97545e-19)
(-0.0282821 0.0518267 1.5383e-19)
(-0.0348414 0.0695396 8.85467e-20)
(-0.0383033 0.0850865 3.5344e-20)
(-0.0384923 0.0982769 -6.41763e-20)
(-0.0353172 0.109009 -4.51815e-20)
(-0.0287394 0.117263 1.01273e-19)
(-0.0187532 0.123096 -8.99782e-20)
(-0.00536214 0.12662 7.45708e-19)
(0.0114415 0.127991 5.3673e-20)
(0.0316974 0.127385 -8.16524e-20)
(0.055494 0.124975 -5.35096e-19)
(0.0829823 0.120914 1.03462e-19)
(0.114387 0.115323 -2.60847e-19)
(0.150007 0.108275 1.72948e-19)
(0.190198 0.0998132 1.57954e-19)
(0.235606 0.0901865 -6.0379e-19)
(0.284783 0.0794558 -1.88672e-19)
(0.345017 0.0754323 -6.58733e-19)
(-0.00701817 0.0108623 1.04918e-19)
(-0.0191207 0.0309368 2.03918e-19)
(-0.0286013 0.049552 -3.62414e-19)
(-0.0351682 0.0662716 -2.73913e-19)
(-0.0385127 0.0808578 1.36497e-19)
(-0.038434 0.0931546 1.27546e-19)
(-0.0348176 0.103083 -2.60867e-19)
(-0.0276034 0.110637 -2.3072e-20)
(-0.0167637 0.115875 3.13413e-20)
(-0.00228043 0.118908 -2.24579e-19)
(0.0158781 0.119881 3.21291e-19)
(0.0377766 0.118962 2.24521e-21)
(0.0635298 0.116312 3.99529e-19)
(0.0933151 0.112076 2.69379e-19)
(0.127381 0.10636 4.4885e-20)
(0.166046 0.0992266 5.64853e-19)
(0.209661 0.0906819 -5.12308e-19)
(0.258944 0.0809539 2.37447e-19)
(0.312053 0.0696988 1.87033e-19)
(0.377845 0.0655836 1.62829e-19)
(-0.0071218 0.0105058 5.02097e-19)
(-0.0193542 0.0297298 -3.43983e-19)
(-0.0289122 0.047381 8.29292e-20)
(-0.0354421 0.0631021 2.65413e-19)
(-0.0386084 0.076708 -2.82696e-19)
(-0.0381869 0.0880822 1.39962e-20)
(-0.0340401 0.0971732 2.08915e-19)
(-0.0260849 0.103992 3.7913e-19)
(-0.0142696 0.108604 3.78279e-19)
(0.00145021 0.111119 -3.70578e-19)
(0.0211342 0.111681 -2.8361e-19)
(0.0448772 0.110448 1.33241e-19)
(0.0728251 0.107577 -3.7937e-19)
(0.105184 0.103205 2.52525e-20)
(0.142228 0.0974338 1.45026e-19)
(0.184285 0.0903166 1.09976e-19)
(0.231688 0.0818321 3.45348e-19)
(0.285205 0.0722106 7.36111e-20)
(0.342522 0.0606104 -2.61285e-19)
(0.414218 0.0567251 2.83214e-19)
(-0.00724389 0.0101914 -4.7544e-19)
(-0.0196057 0.0286105 3.42027e-19)
(-0.0292108 0.0453164 8.2302e-20)
(-0.0356504 0.0600394 -2.62508e-19)
(-0.0385657 0.0726518 1.09343e-19)
(-0.0377111 0.0830816 -5.21313e-20)
(-0.0329265 0.091309 -3.94704e-20)
(-0.0241045 0.0973654 -3.19662e-19)
(-0.0111665 0.101327 -4.98294e-19)
(0.00596194 0.103309 3.20015e-19)
(0.027373 0.103453 -1.63949e-19)
(0.0531967 0.101915 5.15995e-21)
(0.0836128 0.0988494 9.08554e-20)
(0.118858 0.0943911 1.91442e-19)
(0.159227 0.0886421 -2.33585e-20)
(0.205048 0.0816549 -5.36272e-20)
(0.256611 0.0733875 -2.7651e-19)
(0.314698 0.0641025 -1.8513e-19)
(0.376471 0.052368 -1.74892e-19)
(0.454251 0.0491408 2.84716e-19)
(-0.00738567 0.00991696 3.79695e-19)
(-0.0198746 0.027576 -9.63074e-20)
(-0.0294901 0.0433584 3.23157e-19)
(-0.0357761 0.0570882 7.74176e-20)
(-0.0383545 0.0687008 -1.68404e-19)
(-0.0369605 0.0781723 2.69735e-20)
(-0.0314114 0.0855186 -3.49621e-19)
(-0.0215743 0.090795 1.57033e-19)
(-0.00734072 0.0940928 8.34745e-20)
(0.0113975 0.095534 1.2501e-20)
(0.0347695 0.0952636 1.13768e-19)
(0.0629429 0.0934388 3.99227e-20)
(0.0961342 0.0902149 -1.81404e-19)
(0.134608 0.0857298 -4.20457e-19)
(0.178671 0.0800907 2.11117e-19)
(0.228635 0.0733563 -1.06899e-19)
(0.284722 0.0654736 -2.68327e-20)
(0.347663 0.0567677 4.47634e-19)
(0.414095 0.0451368 4.72229e-19)
(0.497893 0.0430994 -7.25561e-19)
(-0.00754742 0.00967956 -9.73785e-20)
(-0.0201579 0.0266211 -1.03222e-19)
(-0.0297395 0.0415036 -2.02465e-19)
(-0.0357977 0.0542503 1.46186e-19)
(-0.0379396 0.0648635 2.62354e-19)
(-0.0358829 0.0733712 -3.34416e-19)
(-0.0294225 0.0798283 5.27684e-19)
(-0.0183985 0.0843171 -1.01789e-19)
(-0.00267003 0.0869469 1.447e-20)
(0.0179081 0.087851 -3.43652e-19)
(0.0435052 0.0871808 1.15678e-20)
(0.074329 0.0850982 -2.77689e-19)
(0.11063 0.0817632 3.68962e-19)
(0.152697 0.0773208 2.40934e-19)
(0.200834 0.0718884 -4.68088e-19)
(0.255311 0.065537 -3.97409e-19)
(0.316254 0.0582138 9.18457e-20)
(0.384249 0.0503292 5.34797e-19)
(0.45549 0.0390657 2.48206e-19)
(0.544894 0.038835 1.34738e-19)
(-0.00772829 0.00947509 2.94066e-20)
(-0.02045 0.0257384 1.00208e-19)
(-0.0299448 0.0397462 1.18759e-19)
(-0.0356897 0.0515241 -9.84122e-20)
(-0.0372808 0.0611451 2.42626e-19)
(-0.0344204 0.0686921 3.21073e-19)
(-0.0268814 0.0742615 4.8597e-21)
(-0.0144752 0.0779658 -4.03455e-19)
(0.00297354 0.0799351 -3.18469e-19)
(0.0256501 0.0803172 3.29877e-19)
(0.0537652 0.0792734 -5.3223e-19)
(0.0875657 0.0769734 -4.8487e-19)
(0.127333 0.0735854 -4.79383e-20)
(0.173367 0.069265 -2.44407e-20)
(0.225951 0.0641441 1.66006e-19)
(0.285282 0.0583098 1.08659e-19)
(0.351358 0.0517239 1.40923e-19)
(0.424491 0.0448861 -6.60606e-19)
(0.500642 0.0342833 -1.84945e-19)
(0.594795 0.0365169 4.83292e-19)
(-0.00792624 0.00929857 -1.79354e-19)
(-0.0207428 0.0249185 1.69876e-19)
(-0.0300882 0.0380772 -1.2419e-19)
(-0.0354218 0.0489049 -6.0821e-20)
(-0.0363329 0.0575476 -1.63934e-19)
(-0.0325103 0.0641455 -1.2271e-19)
(-0.0237048 0.0688388 -2.16221e-19)
(-0.00969828 0.0717727 3.52859e-19)
(0.00972147 0.0731008 1.38478e-19)
(0.0347801 0.0729881 -3.35193e-19)
(0.0657302 0.0716091 -4.02848e-19)
(0.102854 0.0691439 2.13614e-19)
(0.146454 0.0657719 -1.97376e-19)
(0.196826 0.0616614 -2.75424e-19)
(0.254206 0.0569621 -3.5485e-20)
(0.318678 0.0517788 2.79934e-19)
(0.390084 0.0461082 -1.88162e-19)
(0.4683 0.040506 7.09567e-20)
(0.549413 0.0308973 1.60886e-19)
(0.646933 0.0362169 4.08911e-19)
(-0.00813806 0.00914423 -1.86129e-20)
(-0.021025 0.0241499 -4.19293e-19)
(-0.0301482 0.0364853 1.00819e-19)
(-0.0349598 0.046385 2.21834e-19)
(-0.0350467 0.0540697 -4.06511e-20)
(-0.0300858 0.0597386 -2.61771e-19)
(-0.0198061 0.0635775 2.84507e-19)
(-0.00395902 0.0657662 3.21532e-19)
(0.0177048 0.0664844 1.21629e-19)
(0.0454517 0.0659166 5.95989e-19)
(0.079572 0.0642528 -2.7384e-19)
(0.120376 0.0616865 9.78413e-20)
(0.168175 0.0584093 -1.32527e-19)
(0.223234 0.0546038 3.17316e-19)
(0.285714 0.0504382 -2.76081e-20)
(0.355539 0.0460345 -7.30888e-20)
(0.432366 0.0414527 -1.1578e-19)
(0.51545 0.0372196 1.82579e-19)
(0.60151 0.0290222 -4.61039e-19)
(0.700386 0.0379609 -6.27679e-19)
(-0.00835936 0.00900555 -1.03549e-19)
(-0.0212828 0.0234196 -3.68591e-20)
(-0.0300997 0.0349568 -3.34316e-19)
(-0.0342658 0.0439539 2.02113e-19)
(-0.0333693 0.0507069 -2.03705e-19)
(-0.027077 0.0554751 -2.04109e-19)
(-0.0150966 0.0584912 -1.83698e-20)
(0.00285097 0.0599712 -3.24562e-19)
(0.0270517 0.0601227 -5.07596e-19)
(0.0578095 0.0591518 1.37055e-19)
(0.0954465 0.057266 1.51856e-19)
(0.140289 0.0546732 -6.3637e-20)
(0.192634 0.0515784 4.95346e-19)
(0.252693 0.048177 -4.46818e-20)
(0.32051 0.0446547 -9.82943e-20)
(0.395806 0.0411473 -1.41747e-20)
(0.478025 0.0378124 2.4494e-19)
(0.565617 0.035008 4.36179e-19)
(0.656474 0.0288547 -1.22496e-19)
(0.753812 0.0419313 4.55824e-19)
(-0.00858442 0.00887544 3.23254e-19)
(-0.0215 0.0227133 -5.05641e-20)
(-0.0299145 0.0334763 2.94614e-19)
(-0.0332986 0.0415986 -2.98465e-19)
(-0.0312449 0.0474519 4.35253e-19)
(-0.0234121 0.0513556 3.59484e-19)
(-0.00948757 0.0535901 -2.91502e-19)
(0.0108375 0.0544086 -5.35366e-19)
(0.0378833 0.0540483 8.76372e-19)
(0.0719855 0.0527383 2.13571e-19)
(0.113488 0.0507047 -1.64612e-19)
(0.162714 0.0481703 -1.60875e-19)
(0.219924 0.0453521 -1.67403e-19)
(0.285236 0.0424554 -1.23226e-19)
(0.35854 0.0396779 -4.05981e-19)
(0.439311 0.0371606 -1.10609e-19)
(0.526761 0.0351847 8.9314e-21)
(0.618467 0.0337736 -3.00088e-19)
(0.713904 0.030675 1.48561e-19)
(0.805758 0.0481813 -3.22389e-19)
(-0.00880645 0.00874663 -5.15982e-19)
(-0.0216578 0.022016 3.37581e-19)
(-0.0295617 0.0320267 -4.96664e-19)
(-0.0320143 0.0393042 -2.67024e-19)
(-0.0286159 0.0442947 9.83169e-20)
(-0.0190189 0.0473775 -3.88228e-19)
(-0.00289177 0.0488806 6.00445e-19)
(0.0201015 0.0490954 1.03087e-20)
(0.0503105 0.0482894 -3.2567e-19)
(0.0880943 0.0467159 -2.80993e-19)
(0.133802 0.0446195 -4.95846e-19)
(0.187734 0.0422372 -6.02449e-21)
(0.250078 0.039795 -6.92664e-20)
(0.320819 0.0375021 -2.00086e-19)
(0.399648 0.0355576 4.89128e-19)
(0.485759 0.0340908 3.01321e-19)
(0.578118 0.0334938 7.49563e-20)
(0.673614 0.0333388 -3.20483e-19)
(0.773693 0.0344553 -1.61953e-20)
(0.856997 0.0542195 -5.25764e-19)
(-0.00901773 0.0086118 1.83255e-19)
(-0.0217351 0.0213124 -3.36757e-19)
(-0.0290078 0.0305904 4.28416e-19)
(-0.0303669 0.0370546 5.95092e-19)
(-0.0254235 0.0412237 -1.91318e-19)
(-0.0138256 0.0435358 2.45498e-20)
(0.00477467 0.0443664 -5.06162e-19)
(0.0307365 0.0440451 -1.2422e-19)
(0.0644316 0.0428701 -3.8205e-19)
(0.10623 0.041119 4.92029e-19)
(0.156466 0.0390548 4.50653e-19)
(0.215387 0.036926 -7.93505e-20)
(0.28307 0.0349629 -5.91576e-20)
(0.359323 0.0333701 -9.43822e-20)
(0.443584 0.0323327 8.76969e-20)
(0.534729 0.031942 -1.57201e-19)
(0.631438 0.0326383 -1.82106e-19)
(0.730231 0.0335321 3.86184e-19)
(0.834657 0.0389418 -1.2442e-19)
(0.912607 0.0528185 1.98415e-20)
(-0.00920966 0.0084637 4.83245e-20)
(-0.0217093 0.0205873 6.83602e-20)
(-0.0282175 0.0291495 -2.24062e-19)
(-0.0283091 0.0348328 -6.12694e-19)
(-0.0216085 0.0382257 9.82804e-20)
(-0.00776214 0.0398238 2.93513e-19)
(0.0135909 0.0400486 1.32341e-19)
(0.042827 0.0392679 5.60645e-19)
(0.0803294 0.0378104 -3.4773e-19)
(0.126462 0.0359779 -4.46507e-19)
(0.181521 0.0340495 -8.07175e-20)
(0.245664 0.0322821 1.99058e-19)