/*--------------------------------*- C++ -*----------------------------------*\
  =========                 |
  \\      /  F ield         | OpenFOAM: The Open Source CFD Toolbox
   \\    /   O peration     | Website:  https://openfoam.org
    \\  /    A nd           | Version:  7
     \\/     M anipulation  |
\*---------------------------------------------------------------------------*/
FoamFile
{
    version     2.0;
    format      ascii;
    class       surfaceScalarField;
    location    "80";
    object      phi;
}
// * * * * * * * * * * * * * * * * * * * * * * * * * * * * * * * * * * * * * //

dimensions      [0 3 -1 0 0 0 0];

internalField   nonuniform List<scalar> 
8882
(
6.19588e-06
-4.86926e-05
2.5256e-05
-0.000189922
-0.000379517
6.50658e-06
-5.51992e-05
2.63328e-05
-0.000209748
6.00832e-05
-0.000413267
0.000107738
-0.000664023
-0.000956773
6.81109e-06
-6.20103e-05
2.73703e-05
-0.000230307
6.20847e-05
-0.000447982
0.00011067
-0.000712608
0.0001718
-0.0010179
0.000242937
-0.0013535
0.000320438
-0.00170564
-0.00205881
7.10753e-06
-6.91178e-05
2.83616e-05
-0.000251561
6.39548e-05
-0.000483575
0.000113324
-0.000761977
0.000174814
-0.00107939
0.000245558
-0.00142424
0.000321667
-0.00178175
0.000398736
-0.00213588
0.000472537
-0.00247187
0.000539675
-0.00277855
0.00059801
-0.0030497
-0.00328424
7.39406e-06
-7.65119e-05
2.92996e-05
-0.000273467
6.56795e-05
-0.000519955
0.000115679
-0.000811976
0.000177315
-0.00114103
0.000247408
-0.00149434
0.00032186
-0.0018562
0.000396225
-0.00221024
0.000466419
-0.00254206
0.000529339
-0.00284147
0.000583203
-0.00310356
0.000627566
-0.0033286
0.00066307
-0.00352087
0.000691053
-0.00368702
-0.00383455
7.66882e-06
-8.41807e-05
3.01777e-05
-0.000295975
6.72458e-05
-0.000557023
0.000117719
-0.000862449
0.000179285
-0.00120259
0.000248479
-0.00156353
0.000321031
-0.00192875
0.0003925
-0.00228171
0.000458985
-0.00260855
0.000517693
-0.00290018
0.000567194
-0.00315306
0.000607357
-0.00336877
0.000639043
-0.00355255
0.000663696
-0.00371168
0.000682954
-0.00385381
0.000698349
-0.00398587
0.000711138
-0.00411342
0.000722239
-0.00424045
-0.00436939
7.92993e-06
-9.21106e-05
3.09897e-05
-0.000319035
6.86418e-05
-0.000594675
0.000119426
-0.000913233
0.000180711
-0.00126388
0.000248768
-0.00163159
0.000319199
-0.00199918
0.000387611
-0.00235012
0.000450318
-0.00267126
0.000504849
-0.00295471
0.000550112
-0.00319833
0.000586263
-0.00340492
0.000614345
-0.00358064
0.00063588
-0.00373321
0.000652487
-0.00387041
0.000665623
-0.003999
0.000676445
-0.00412425
0.00068577
-0.00424978
0.000694122
-0.00437774
-0.00450916
0.000701741
8.17557e-06
-0.000100286
3.17293e-05
-0.000342589
6.98569e-05
-0.000632802
0.000120788
-0.000964164
0.000181583
-0.00132468
0.000248281
-0.00169829
0.000316393
-0.0020673
0.000381616
-0.00241534
0.000440507
-0.00273015
0.000490917
-0.00300512
0.000532082
-0.00323949
0.000564408
-0.00343724
0.000589093
-0.00360532
0.000607702
-0.00375182
0.000621819
-0.00388453
0.000632818
-0.00401
0.000641755
-0.00413318
0.000649356
-0.00425738
0.000656068
-0.00438445
-0.00451517
0.000662081
8.40398e-06
-0.00010869
3.23913e-05
-0.000366576
7.08817e-05
-0.000671293
0.000121795
-0.00101508
0.000181899
-0.00138478
0.000247029
-0.00176342
0.000312648
-0.00213291
0.000374578
-0.00247727
0.000429639
-0.00278521
0.000476008
-0.00305149
0.000513221
-0.0032767
0.000541909
-0.00346593
0.000563389
-0.0036268
0.000579247
-0.00376768
0.000591017
-0.0038963
0.000599984
-0.00401897
0.000607106
-0.00414031
0.000613023
-0.00426329
0.000618115
-0.00438955
-0.00451959
0.000622531
8.61352e-06
-0.000117304
3.29704e-05
-0.000390933
7.17083e-05
-0.000710031
0.000122441
-0.00106581
0.000181659
-0.001444
0.000245028
-0.00182679
0.000308003
-0.00219589
0.000366563
-0.00253583
0.000417807
-0.00283645
0.000460226
-0.00309391
0.000493638
-0.00331012
0.000518869
-0.00349116
0.000537325
-0.00364526
0.000550592
-0.00378095
0.00056014
-0.00390585
0.000567163
-0.00402599
0.000572526
-0.00414567
0.000576791
-0.00426756
0.000580279
-0.00439303
-0.00452241
0.000583103
8.80265e-06
-0.000126106
3.34625e-05
-0.000415593
7.23306e-05
-0.000748899
0.00012272
-0.0011162
0.000180868
-0.00150215
0.000242301
-0.00188822
0.000302504
-0.00225609
0.000357642
-0.00259097
0.000405098
-0.00288391
0.000443671
-0.00313248
0.000473438
-0.00333988
0.000495386
-0.00351311
0.000510985
-0.00366086
0.000521803
-0.00379176
0.000529237
-0.00391328
0.000534391
-0.00403115
0.000538042
-0.00414932
0.00054068
-0.0042702
0.000542575
-0.00439493
-0.00452365
0.00054381
8.96997e-06
-0.000135076
3.38636e-05
-0.000440487
7.27438e-05
-0.000787779
0.000122632
-0.00116609
0.000179533
-0.00155905
0.000238874
-0.00194756
0.0002962
-0.00231342
0.000347883
-0.00264265
0.000391599
-0.00292763
0.000426441
-0.00316732
0.000452714
-0.00336616
0.000471544
-0.00353194
0.000484441
-0.00367375
0.000492937
-0.00380026
0.000498352
-0.0039187
0.0005017
-0.00403449
0.000503676
-0.0041513
0.000504706
-0.00427123
0.000505016
-0.00439524
-0.0045233
0.000504663
9.11529e-06
-0.000144192
3.41728e-05
-0.000465544
7.2948e-05
-0.000826554
0.000122182
-0.00121532
0.000177675
-0.00161454
0.000234783
-0.00200467
0.000289147
-0.00236778
0.000337365
-0.00269087
0.000377404
-0.00296766
0.000408633
-0.00319855
0.000431563
-0.00338909
0.000447432
-0.00354781
0.000457766
-0.00368409
0.000464052
-0.00380655
0.00046753
-0.00392218
0.000469124
-0.00403609
0.000469454
-0.00415163
0.00046889
-0.00427066
0.00046762
-0.00439397
-0.00452136
0.000465681
9.23552e-06
-0.000153427
3.43836e-05
-0.000490692
7.29353e-05
-0.000865106
0.000121366
-0.00126375
0.000175297
-0.00166847
0.000230049
-0.00205942
0.000281384
-0.00241912
0.000326143
-0.00273563
0.000362577
-0.0030041
0.000390315
-0.00322629
0.000410049
-0.00340882
0.000423102
-0.00356086
0.000431002
-0.00369199
0.000435178
-0.00381072
0.000436788
-0.00392379
0.000436672
-0.00403597
0.00043538
-0.00415034
0.000433233
-0.00426852
0.000430386
-0.00439112
-0.00451783
0.000426859
9.33075e-06
-0.000162758
3.44962e-05
-0.000515858
7.27085e-05
-0.000903318
0.000120194
-0.00131124
0.000172423
-0.0017207
0.000224714
-0.00211171
0.000272973
-0.00246738
0.000314293
-0.00277695
0.000347204
-0.00303701
0.000371574
-0.00325066
0.000388253
-0.0034255
0.000398625
-0.00357123
0.000404206
-0.00369757
0.000406359
-0.00381287
0.00040616
-0.00392359
0.00040437
-0.00403418
0.000401475
-0.00414744
0.000397752
-0.00426479
0.00039333
-0.0043867
-0.00451272
0.000388216
9.40019e-06
-0.000172158
3.45095e-05
-0.000540967
7.22691e-05
-0.000941078
0.000118676
-0.00135764
0.000169076
-0.0017711
0.000218813
-0.00216145
0.000263966
-0.00251253
0.000301881
-0.00281487
0.000331358
-0.00306649
0.000352483
-0.00327178
0.000366241
-0.00343926
0.000374058
-0.00357905
0.000377423
-0.00370093
0.00037763
-0.00381308
0.000375673
-0.00392163
0.000372237
-0.00403074
0.000367753
-0.00414296
0.00036246
-0.0042595
0.000356464
-0.0043807
-0.00450601
0.000349762
9.44324e-06
-0.000181601
3.44231e-05
-0.000565947
7.16196e-05
-0.000978274
0.00011682
-0.00140284
0.000165276
-0.00181956
0.000212388
-0.00220856
0.000254417
-0.00255456
0.000288971
-0.00284942
0.000315107
-0.00309262
0.000333109
-0.00328978
0.000344072
-0.00345022
0.00034945
-0.00358443
0.000350691
-0.00370217
0.000349019
-0.00381141
0.000345346
-0.00391796
0.000340289
-0.00402569
0.000334227
-0.00413689
0.000327367
-0.00425264
0.000319795
-0.00437313
-0.00449772
0.000311505
9.45947e-06
-0.000191061
3.42371e-05
-0.000590724
7.07639e-05
-0.0010148
0.00011464
-0.00144672
0.00016105
-0.00186597
0.000205475
-0.00225299
0.000244379
-0.00259346
0.000275625
-0.00288067
0.000298516
-0.00311551
0.000313512
-0.00330478
0.000321801
-0.00345851
0.000324844
-0.00358747
0.000324045
-0.00370138
0.000320552
-0.00380792
0.000315199
-0.0039126
0.00030854
-0.00401903
0.000300908
-0.00412926
0.000292482
-0.00424422
0.000283334
-0.00436398
-0.00448785
0.000273457
9.44862e-06
-0.000200509
3.39523e-05
-0.000615228
6.97071e-05
-0.00105056
0.000112148
-0.00148916
0.000156423
-0.00191024
0.000198115
-0.00229468
0.000233902
-0.00262925
0.000261901
-0.00290867
0.000281644
-0.00313526
0.00029375
-0.00331689
0.000299476
-0.00346423
0.000300281
-0.00358828
0.000297515
-0.00369861
0.00029225
-0.00380265
0.000285249
-0.0039056
0.000277003
-0.00401078
0.000267806
-0.00412007
0.000257816
-0.00423422
0.000247089
-0.00435326
-0.00447638
0.000235625
9.4106e-06
-0.00020992
3.35701e-05
-0.000639388
6.84552e-05
-0.00108544
0.00010936
-0.00153007
0.000151421
-0.0019523
0.000190347
-0.0023336
0.000223036
-0.00266194
0.000247855
-0.00293348
0.000264547
-0.00315195
0.000273872
-0.00332621
0.000277139
-0.0034675
0.000275795
-0.00358693
0.000271127
-0.00369394
0.000264135
-0.00379566
0.00025551
-0.00389698
0.00024569
-0.00400096
0.000234934
-0.00410931
0.000223376
-0.00422267
0.000211069
-0.00434095
-0.00446333
0.000198017
9.34548e-06
-0.000219265
3.30923e-05
-0.000663134
6.7015e-05
-0.00111936
0.000106291
-0.00156934
0.000146072
-0.00199208
0.000182209
-0.00236974
0.000211828
-0.00269156
0.000233537
-0.00295519
0.000247276
-0.00316569
0.000253924
-0.00333286
0.000254831
-0.00346841
0.000251415
-0.00358352
0.000244904
-0.00368743
0.000236222
-0.00378698
0.000225995
-0.00388675
0.000214612
-0.00398958
0.000202298
-0.004097
0.000189173
-0.00420954
0.000175281
-0.00432706
-0.00444869
0.00016064
9.25345e-06
-0.000228519
3.25213e-05
-0.000686402
6.53945e-05
-0.00115224
0.000102959
-0.00160691
0.000140403
-0.00202953
0.00017374
-0.00240308
0.000200324
-0.00271814
0.000218996
-0.00297386
0.000229877
-0.00317657
0.000233949
-0.00333693
0.000232584
-0.00346704
0.000227169
-0.0035781
0.000218866
-0.00367913
0.000208528
-0.00377664
0.000196718
-0.00387494
0.00018378
-0.00397664
0.00016991
-0.00408313
0.000155214
-0.00419485
0.000139735
-0.00431158
-0.00443245
0.000123495
9.1349e-06
-0.000237654
3.18598e-05
-0.000709127
6.36017e-05
-0.00118398
9.93789e-05
-0.00164268
0.000134442
-0.00206459
0.000164976
-0.00243361
0.000188567
-0.00274173
0.000204277
-0.00298958
0.000212394
-0.00318468
0.000213983
-0.00333852
0.000210431
-0.00346349
0.000203081
-0.00357075
0.000193032
-0.00366908
0.000181066
-0.00376468
0.00016769
-0.00386156
0.000153204
-0.00396215
0.000137779
-0.0040677
0.000121505
-0.00417857
0.000104439
-0.00429451
-0.00441459
8.65766e-05
8.99028e-06
-0.000246644
3.11111e-05
-0.000731248
6.16458e-05
-0.00121451
9.55693e-05
-0.00167661
0.000128214
-0.00209723
0.000155953
-0.00246135
0.000176597
-0.00276238
0.000189422
-0.0030024
0.000194864
-0.00319013
0.00019406
-0.00333772
0.000188396
-0.00345783
0.000179172
-0.00356153
0.000167417
-0.00365732
0.00015385
-0.00375111
0.000138921
-0.00384664
0.000122896
-0.00394613
0.00010592
-0.00405073
8.80661e-05
-0.00416072
6.93879e-05
-0.00427583
-0.00439507
4.9876e-05
8.82023e-06
-0.000255464
3.02786e-05
-0.000752706
5.95359e-05
-0.00124377
9.15476e-05
-0.00170862
0.000121748
-0.00212744
0.000146703
-0.00248631
0.000164452
-0.00278012
0.00017447
-0.00301242
0.000177325
-0.00319298
0.000174211
-0.0033346
0.000166506
-0.00345012
0.000155459
-0.00355048
0.000142035
-0.0036439
0.000126889
-0.00373596
0.000110422
-0.00383017
9.28642e-05
-0.00392857
7.43467e-05
-0.00403221
5.49404e-05
-0.00414131
3.45678e-05
-0.00425546
-0.00437369
1.31821e-05
8.62544e-06
-0.00026409
2.93661e-05
-0.000773447
5.72817e-05
-0.00127169
8.73312e-05
-0.00173867
0.000115069
-0.00215517
0.000137261
-0.0025085
0.000152169
-0.00279503
0.000159455
-0.0030197
0.000159807
-0.00319333
0.000154462
-0.00332926
0.000144781
-0.00344044
0.00013196
-0.00353766
0.0001169
-0.00362884
0.000100195
-0.00371926
8.21998e-05
-0.00381217
6.31142e-05
-0.00390949
4.30561e-05
-0.00401215
2.21535e-05
-0.00412041
6.97027e-07
-0.004234
-0.00435038
-2.26148e-05
8.40674e-06
-0.000272496
2.83776e-05
-0.000793418
5.48931e-05
-0.0012982
8.29376e-05
-0.00176671
0.000108201
-0.00218044
0.000127655
-0.00252795
0.00013978
-0.00280716
0.000144411
-0.00302434
0.00014234
-0.00319126
0.000134837
-0.00332176
0.000123239
-0.00342884
0.000108689
-0.00352311
9.20212e-05
-0.00361217
7.37756e-05
-0.00370101
5.42633e-05
-0.00379266
3.3655e-05
-0.00388888
1.20576e-05
-0.00399055
-1.04435e-05
-0.00409791
-3.39603e-05
-0.00421049
-0.00432624
-5.80957e-05
8.16502e-06
-0.000280662
2.73171e-05
-0.00081257
5.23798e-05
-0.00132326
7.83839e-05
-0.00179272
0.000101169
-0.00220322
0.000117917
-0.0025447
0.000127316
-0.00281656
0.000129366
-0.00302639
0.000124949
-0.00318685
0.000115357
-0.00331216
0.000101899
-0.00341539
8.56575e-05
-0.00350687
6.74095e-05
-0.00359392
4.76401e-05
-0.00368124
2.66213e-05
-0.00377164
4.49666e-06
-0.00386675
-1.86363e-05
-0.00396742
-4.27086e-05
-0.00407384
-6.77302e-05
-0.00418547
-0.0043005
-9.347e-05
7.90123e-06
-0.000288563
2.61892e-05
-0.000830858
4.97518e-05
-0.00134683
7.36869e-05
-0.00181665
9.39959e-05
-0.00222353
0.000108071
-0.00255878
0.000114805
-0.00282329
0.000114347
-0.00302593
0.000107659
-0.00318016
9.60426e-05
-0.00330055
8.07728e-05
-0.00340012
6.28778e-05
-0.00348897
4.30739e-05
-0.00357412
2.1796e-05
-0.00365996
-7.23479e-07
-0.00374912
-2.4353e-05
-0.00384312
-4.90204e-05
-0.00394275
-7.46535e-05
-0.0040482
-0.000101202
-0.00415892
-0.00427314
-0.000128564
7.61642e-06
-0.000296179
2.49981e-05
-0.00084824
4.70191e-05
-0.00136885
6.88629e-05
-0.0018385
8.67035e-05
-0.00224137
9.81453e-05
-0.00257022
0.000102275
-0.00282742
9.93802e-05
-0.00302303
9.04892e-05
-0.00317127
7.6909e-05
-0.00328697
5.98751e-05
-0.00338308
4.03597e-05
-0.00346946
1.90222e-05
-0.00355278
-3.74918e-06
-0.00363719
-2.77503e-05
-0.00372512
-5.28866e-05
-0.00381799
-7.90851e-05
-0.00391655
-0.000106272
-0.00402102
-0.000134374
-0.00413082
-0.00424417
-0.00016334
7.31168e-06
-0.000303491
2.37484e-05
-0.000864676
4.41914e-05
-0.00138929
6.39276e-05
-0.00185823
7.93129e-05
-0.00225676
8.81623e-05
-0.00257907
8.97491e-05
-0.00282901
8.44866e-05
-0.00301777
7.34596e-05
-0.00316024
5.79717e-05
-0.00327148
3.9217e-05
-0.00336433
1.81118e-05
-0.00344835
-4.73857e-06
-0.00352993
-2.89869e-05
-0.00361294
-5.44658e-05
-0.00369964
-8.1097e-05
-0.00379136
-0.000108821
-0.00388883
-0.000137561
-0.00399228
-0.000167228
-0.00410115
-0.000197784
6.98809e-06
-0.000310479
2.24445e-05
-0.000880133
4.12784e-05
-0.00140813
5.88964e-05
-0.00187585
7.18438e-05
-0.0022697
7.81445e-05
-0.00258537
7.72493e-05
-0.00282811
6.96864e-05
-0.00301021
5.65867e-05
-0.00314714
3.92437e-05
-0.00325414
1.88084e-05
-0.00334389
-3.85843e-06
-0.00342569
-2.82003e-05
-0.00350559
-5.39136e-05
-0.00358723
-8.08582e-05
-0.0036727
-0.000108976
-0.00376324
-0.000138221
-0.00385958
-0.000168511
-0.00396199
6.64683e-06
-0.000317126
2.1091e-05
-0.000894577
3.82895e-05
-0.00142532
5.37836e-05
-0.00189134
6.43148e-05
-0.00228023
6.81126e-05
-0.00258917
6.47962e-05
-0.0028248
5.49978e-05
-0.00300041
3.98853e-05
-0.00313203
2.07368e-05
-0.00323499
-1.3426e-06
-0.00332181
-2.55426e-05
-0.00340149
-5.13586e-05
-0.00347977
-7.85224e-05
-0.00356007
-0.000106921
-0.0036443
-0.000136517
-0.00373364
-0.000167275
6.28906e-06
-0.000323415
1.96922e-05
-0.00090798
3.52337e-05
-0.00144087
4.86034e-05
-0.00190471
5.67435e-05
-0.00228837
5.80854e-05
-0.00259051
5.24081e-05
-0.00281912
4.04371e-05
-0.00298844
2.33688e-05
-0.00311496
2.46112e-06
-0.00321408
-2.12257e-05
-0.00329813
-4.69359e-05
-0.00337578
-7.42077e-05
-0.0034525
-0.000102808
-0.00353147
-0.000132648
-0.00361446
5.91596e-06
-0.000329331
1.82527e-05
-0.000920317
3.21199e-05
-0.00145473
4.33689e-05
-0.00191596
4.91461e-05
-0.00229415
4.80807e-05
-0.00258944
4.01019e-05
-0.00281114
2.60189e-05
-0.00297435
7.04895e-06
-0.00309599
-1.55741e-05
-0.00319146
-4.08366e-05
-0.00327286
-6.80326e-05
-0.00334858
-9.67425e-05
-0.00342379
-0.000126764
-0.00350145
5.52874e-06
-0.00033486
1.67767e-05
-0.000931565
2.89568e-05
-0.00146691
3.80928e-05
-0.0019251
4.15381e-05
-0.0022976
3.81146e-05
-0.00258602
2.7893e-05
-0.00280092
1.17563e-05
-0.00295822
-9.06388e-06
-0.00307517
-3.33611e-05
-0.00316716
-6.01686e-05
-0.00324606
-8.88278e-05
-0.00331992
-0.000118959
-0.00339366
5.12862e-06
-0.000339988
1.52685e-05
-0.000941705
2.57525e-05
-0.0014774
3.27869e-05
-0.00193213
3.39337e-05
-0.00229874
2.82022e-05
-0.00258029
1.5795e-05
-0.00278851
-2.33758e-06
-0.00294008
-2.49603e-05
-0.00305255
-5.0893e-05
-0.00314123
-7.92162e-05
-0.00321773
-0.000109317
-0.00328982
4.71685e-06
-0.000344705
1.37323e-05
-0.00095072
2.2515e-05
-0.00148618
2.74625e-05
-0.00193708
2.63463e-05
-0.00229763
1.8357e-05
-0.0025723
3.82306e-06
-0.00277398
-1.62563e-05
-0.00292001
-4.06326e-05
-0.00302817
-6.81637e-05
-0.0031137
-9.79749e-05
-0.00318792
4.29474e-06
-0.000349
1.21722e-05
-0.000958598
1.92518e-05
-0.00149326
2.21303e-05
-0.00193996
1.87889e-05
-0.00229429
8.59074e-06
-0.0025621
-8.01841e-06
-0.00275737
-2.99867e-05
-0.00289804
-5.60732e-05
-0.00300208
-8.51676e-05
-0.0030846
3.86374e-06
-0.000352863
1.05922e-05
-0.000965326
1.597e-05
-0.00149864
1.68004e-05
-0.00194079
1.12736e-05
-0.00228876
-1.06472e-06
-0.00254976
-1.97116e-05
-0.00273872
-4.35222e-05
-0.00287423
-7.1276e-05
-0.00297433
3.42541e-06
-0.000356289
8.99624e-06
-0.000970897
1.26765e-05
-0.00150232
1.1482e-05
-0.0019396
3.81171e-06
-0.00228109
-1.06578e-05
-0.00253529
-3.12543e-05
-0.00271812
-5.6855e-05
-0.00284863
2.98042e-06
-0.000359269
7.388e-06
-0.000975305
9.37894e-06
-0.00150431
6.18242e-06
-0.0019364
-3.59367e-06
-0.00227131
-2.01191e-05
-0.00251877
-4.26337e-05
-0.00269561
2.53008e-06
-0.000361799
5.77063e-06
-0.000978545
6.08425e-06
-0.00150462
9.41761e-07
-0.00193126
-1.09333e-05
-0.00225944
-2.94629e-05
-0.00250024
2.07569e-06
-0.000363875
4.1484e-06
-0.000980618
2.79115e-06
-0.00150326
-4.32299e-06
-0.00192414
-1.81944e-05
-0.00224557
1.61771e-06
-0.000365493
2.52521e-06
-0.000981525
-4.61109e-07
-0.00150028
-9.51595e-06
-0.00191509
-0.00222971
1.15585e-06
-0.000366649
8.95748e-07
-0.000981265
-3.75668e-06
-0.00149563
-1.46637e-05
-0.00190418
6.85706e-07
-0.000367334
-7.32494e-07
-0.000979847
-7e-06
-0.00148936
1.59874e-07
-0.000367494
-2.36158e-06
-0.000977326
-0.0014815
-2.98291e-07
-0.000367196
-3.97553e-06
-0.000973648
-7.35697e-07
-0.00036646
-0.000365263
0.000347402
0.000348677
-8.17807e-07
0.000349495
0.000926302
-3.76537e-07
0.000349872
-4.14338e-06
0.000930069
0.0014103
6.13521e-08
0.00034981
-2.55252e-06
0.000932683
0.00141811
5.74743e-07
0.000349236
-9.47423e-07
0.000934205
-7.17972e-06
0.00142434
0.00181495
1.03955e-06
0.000348196
6.56188e-07
0.000934589
-3.9761e-06
0.00142898
-1.46619e-05
0.00182564
0.00212812
1.49309e-06
0.000346703
2.25819e-06
0.000933824
-7.3783e-07
0.00143197
-9.56875e-06
0.00183447
-2.50037e-05
0.00214356
0.00237042
1.94196e-06
0.000344761
3.85431e-06
0.000931911
2.48032e-06
0.00143335
-4.43485e-06
0.00184139
-1.78888e-05
0.00215701
0.00239033
2.38652e-06
0.000342375
5.44608e-06
0.000928852
5.71995e-06
0.00143307
7.63247e-07
0.00184634
-1.06958e-05
0.00216847
-2.86418e-05
0.00240828
0.00258119
2.82618e-06
0.000339548
7.03018e-06
0.000924648
8.95754e-06
0.00143114
5.93205e-06
0.00184937
-3.43346e-06
0.00217784
-1.93673e-05
0.00242421
-4.11843e-05
0.00260301
0.00273183
3.25965e-06
0.000336289
8.60268e-06
0.000919305
1.21931e-05
0.00142755
1.11511e-05
0.00185041
3.88485e-06
0.0021851
-9.98661e-06
0.00243808
-2.98657e-05
0.00262288
-5.47135e-05
0.00275667
0.00285628
3.6861e-06
0.000332603
1.01604e-05
0.00091283
1.54193e-05
0.0014223
1.6381e-05
0.00184945
1.12528e-05
0.00219023
-4.67601e-07
0.0024498
-1.83951e-05
0.00264081
-4.14306e-05
0.00277971
-6.84121e-05
0.00288326
0.00296574
4.10452e-06
0.000328498
1.16996e-05
0.000905235
1.86283e-05
0.00141537
2.16136e-05
0.00184646
1.86581e-05
0.00219319
9.06756e-06
0.00245939
-6.79055e-06
0.00265667
-2.79581e-05
0.00280088
-5.32452e-05
0.00290854
-8.15686e-05
0.00299406
0.00306831
4.51328e-06
0.000323985
1.32161e-05
0.000896532
2.18129e-05
0.00140677
2.68389e-05
0.00184144
2.60948e-05
0.00219393
1.87183e-05
0.00246677
4.94797e-06
0.00267044
-1.43054e-05
0.00282013
-3.78536e-05
0.00293209
-6.45867e-05
0.0030208
-9.36305e-05
0.00309736
0.00316937
4.91102e-06
0.000319074
1.4706e-05
0.000886737
2.49659e-05
0.00139651
3.20471e-05
0.00183436
3.35493e-05
0.00219243
2.84315e-05
0.00247189
1.68049e-05
0.00268207
-4.71997e-07
0.00283741
-2.22443e-05
0.00295386
-4.73514e-05
0.0030459
-7.48811e-05
0.00312489
-0.00010421
0.00319869
0.00327223
5.29646e-06
0.000313777
1.61653e-05
0.000875869
2.80797e-05
0.0013846
3.72269e-05
0.00182521
4.10072e-05
0.00218865
3.81955e-05
0.0024747
2.8768e-05
0.00269149
1.35062e-05
0.00285267
-6.42816e-06
0.0029738
-2.98692e-05
0.00306934
-5.5856e-05
0.00315087
-8.37184e-05
0.00322656
-0.000113059
0.00330157
0.00337893
5.66838e-06
0.000308109
1.75896e-05
0.000863947
3.11462e-05
0.00137104
4.23664e-05
0.00181399
4.84542e-05
0.00218256
4.79959e-05
0.00247516
4.08241e-05
0.00269867
2.7642e-05
0.00286585
9.58762e-06
0.00299185
-1.2148e-05
0.00309108
-3.65611e-05
0.00317529
-6.29342e-05
0.00325293
-9.08295e-05
0.00332946
-0.000120027
0.00340813
0.00349079
6.02561e-06
0.000302083
1.89747e-05
0.000850998
3.41569e-05
0.00135586
4.74535e-05
0.00180069
5.58753e-05
0.00217414
5.78165e-05
0.00247322
5.29575e-05
0.00270352
4.19127e-05
0.0028769
2.57916e-05
0.00300797
5.80392e-06
0.00311107
-1.70033e-05
0.00319809
-4.18632e-05
0.00327779
-6.82948e-05
0.0033559
-9.60448e-05
0.00343588
-0.00012501
0.00351975
0.00360875
6.36696e-06
0.000295716
2.03164e-05
0.000837049
3.71032e-05
0.00133907
5.2475e-05
0.00178532
6.32545e-05
0.00216336
6.76399e-05
0.00246883
6.51512e-05
0.00270601
5.63037e-05
0.00288574
4.21713e-05
0.00302211
2.39769e-05
0.00312926
2.80969e-06
0.00321926
-2.05115e-05
0.00330111
-4.54609e-05
0.00338085
-7.17482e-05
0.00346216
-9.92425e-05
0.00354725
-0.000127891
0.0036374
-0.000157649
0.00373338
0.0038354
6.69129e-06
0.000289025
2.16103e-05
0.00082213
3.99763e-05
0.0013207
5.74175e-05
0.00176788
7.05745e-05
0.0021502
7.74471e-05
0.00246196
7.73867e-05
0.00270607
7.07989e-05
0.00289233
5.87128e-05
0.00303419
4.23599e-05
0.00314561
2.28701e-05
0.00323875
1.11193e-06
0.00332287
-2.23343e-05
0.00340429
-4.71441e-05
0.00348697
-7.31554e-05
0.00357326
-0.000100295
0.00366454
-0.000128504
0.00376159
-0.000157701
0.00386459
0.003973
6.99748e-06
0.000282028
2.2852e-05
0.000806275
4.27669e-05
0.00130079
6.22666e-05
0.00174838
7.78171e-05
0.00213465
8.7218e-05
0.00245256
8.96437e-05
0.00270365
8.53798e-05
0.00289659
7.54009e-05
0.00304417
6.09408e-05
0.00316007
4.31676e-05
0.00325652
2.3004e-05
0.00334303
1.0761e-06
0.00342622
-2.22395e-05
0.00351029
-4.6756e-05
0.00359777
-7.23764e-05
0.00369016
-9.90314e-05
0.00378824
-0.000126639
0.0038922
-0.000155122
0.00400148
0.00411436
-0.000184458
7.28444e-06
0.000274743
2.40372e-05
0.000789522
4.54657e-05
0.00127936
6.70077e-05
0.00172684
8.4963e-05
0.0021167
9.69306e-05
0.00244059
0.0001019
0.00269868
0.000100026
0.00289847
9.22183e-05
0.00305198
7.97055e-05
0.00317259
6.36913e-05
0.00327254
4.51516e-05
0.00336157
2.47686e-05
0.0034466
2.95768e-06
0.0035321
-2.00525e-05
0.00362078
-4.4146e-05
0.00371425
-6.9241e-05
0.00381334
-9.52574e-05
0.00391822
-0.000122133
0.00402836
0.00414206
-0.000149838
7.55111e-06
0.000267192
2.51614e-05
0.000771912
4.80632e-05
0.00125646
7.16252e-05
0.00170327
9.19918e-05
0.00209633
0.000106561
0.00242602
0.000114132
0.00269111
0.000114716
0.00289789
0.000109146
0.00305755
9.86385e-05
0.00318309
8.44289e-05
0.00328675
6.75461e-05
0.00337846
4.87286e-05
0.00346542
2.84417e-05
0.00355239
6.94671e-06
0.00364228
-1.56126e-05
0.00373681
-3.91437e-05
0.00383687
-6.35662e-05
0.00394264
-8.8841e-05
0.00405363
0.00416813
-0.000114908
7.79649e-06
0.000259396
2.62205e-05
0.000753488
5.05498e-05
0.00123213
7.61035e-05
0.00167772
9.8882e-05
0.00207355
0.000116086
0.00240882
0.000126314
0.00268088
0.000129424
0.00289478
0.000126162
0.00306081
0.000117722
0.00319153
0.000105367
0.0032991
9.01764e-05
0.00339365
7.2949e-05
0.00348265
5.4201e-05
0.00357113
3.42337e-05
0.00366225
1.32145e-05
0.00375783
-8.7515e-06
0.00385883
-3.15741e-05
0.00396546
-5.52581e-05
0.00407732
0.00419256
-7.96905e-05
8.01963e-06
0.000251376
2.72101e-05
0.000734298
5.29159e-05
0.00120642
8.04263e-05
0.00165021
0.000105611
0.00204837
0.000125476
0.00238895
0.000138417
0.00266794
0.000144124
0.00288907
0.000143243
0.00306169
0.000136937
0.00319784
0.000126489
0.00330955
0.00011303
0.0034071
9.74196e-05
0.00349826
8.02277e-05
0.00358833
6.17982e-05
0.00368068
4.23264e-05
0.0037773
2.19282e-05
0.00387923
6.67529e-07
0.00398672
-2.13604e-05
0.00409934
0.00421545
-4.42482e-05
8.21967e-06
0.000243156
2.81264e-05
0.000714391
5.51519e-05
0.0011794
8.45768e-05
0.00162079
0.000112156
0.00202079
0.000134706
0.0023664
0.00015041
0.00265223
0.000158785
0.00288069
0.000160363
0.00306011
0.000156261
0.00320194
0.000147778
0.00331804
0.000136094
0.00341879
0.000122129
0.00351222
0.000106512
0.00360394
8.96313e-05
0.00369756
7.17135e-05
0.00379522
5.28915e-05
0.00389806
3.32592e-05
0.00400636
1.28099e-05
0.00411979
0.00423723
-8.96937e-06
8.39581e-06
0.000234761
2.89653e-05
0.000693821
5.72483e-05
0.00115112
8.85385e-05
0.0015895
0.000118492
0.00199083
0.000143743
0.00234115
0.000162263
0.00263371
0.000173377
0.00286958
0.000177492
0.003056
0.00017567
0.00320376
0.000169214
0.00332449
0.000159352
0.00342865
0.000147064
0.00352451
0.000133042
0.00361797
0.000117723
0.00371288
0.000101366
0.00381158
8.41216e-05
0.0039153
6.60736e-05
0.0040244
4.72375e-05
0.00413863
0.00425694
2.75231e-05
8.54734e-06
0.000226213
2.97233e-05
0.000672646
5.91959e-05
0.00112164
9.22943e-05
0.0015564
0.000124595
0.00195853
0.000152557
0.00231319
0.000173938
0.00261233
0.000187864
0.00285565
0.000194599
0.00304927
0.000195136
0.00320323
0.000190775
0.00332885
0.000182786
0.00343664
0.000172212
0.00353508
0.000159808
0.00363037
0.000146063
0.00372662
0.000131274
0.00382637
0.000115613
0.00393096
9.91725e-05
0.00404084
8.19994e-05
0.0041558
0.00427488
6.40643e-05
8.67369e-06
0.00021754
3.0397e-05
0.000650922
6.09857e-05
0.00109105
9.58275e-05
0.00152156
0.000130439
0.00192392
0.000161116
0.00228251
0.0001854
0.00258805
0.000202208
0.00283884
0.000211647
0.00303983
0.000214628
0.00320025
0.000212435
0.00333105
0.000206377
0.0034427
0.000197557
0.0035439
0.000186795
0.00364113
0.000174639
0.00373878
0.000161426
0.00383958
0.000147353
0.00394503
0.000132527
0.00405567
0.000116995
0.00417133
0.00429113
0.000100745
8.77436e-06
0.000208765
3.09833e-05
0.000628713
6.26093e-05
0.00105943
9.91212e-05
0.00148504
0.000135997
0.00188705
0.000169384
0.00224913
0.000196608
0.00256083
0.000216367
0.00281908
0.000228598
0.0030276
0.000234112
0.00319473
0.000234168
0.00333099
0.000230102
0.00344676
0.00022308
0.00355093
0.00021399
0.00365022
0.000203438
0.00374933
0.000191808
0.00385121
0.000179326
0.00395752
0.000166113
0.00406888
0.000152214
0.00418523
0.00430572
0.000137625
8.84902e-06
0.000199916
3.14796e-05
0.000606083
6.40585e-05
0.00102685
0.000102159
0.00144694
0.000141244
0.00184796
0.000177326
0.00221304
0.00020752
0.00253063
0.000230299
0.00279631
0.00024541
0.00301248
0.000253551
0.00318659
0.00025594
0.0033286
0.000253937
0.00344877
0.000248763
0.0035561
0.000241376
0.00365761
0.000232448
0.00375826
0.00022241
0.00386125
0.000211519
0.00396841
0.000199915
0.00408049
0.000187647
0.0041975
0.00431866
0.000174707
8.89745e-06
0.000191019
3.18836e-05
0.000583097
6.5326e-05
0.000993406
0.000104926
0.00140734
0.000146154
0.00180673
0.000184907
0.00217429
0.000218093
0.00249745
0.000243954
0.00277045
0.000262036
0.0029944
0.000272902
0.00317573
0.000277718
0.00332378
0.000277853
0.00344863
0.000274583
0.00355937
0.000268937
0.00366326
0.000261653
0.00376554
0.000253216
0.00386968
0.00024392
0.0039777
0.000233922
0.00409049
0.000223283
0.00420814
0.00432995
0.000211989
8.91958e-06
0.000182099
3.21935e-05
0.000559823
6.64051e-05
0.000959195
0.000107406
0.00136634
0.0001507
0.00176344
0.000192088
0.0021329
0.000228281
0.00246125
0.000257284
0.00274144
0.000278426
0.00297326
0.00029212
0.00316203
0.000299461
0.00331644
0.000301817
0.00344628
0.000300515
0.00356067
0.000296652
0.00366712
0.000291037
0.00377116
0.000284214
0.00387651
0.000276516
0.0039854
0.000268124
0.00409888
0.000259111
0.00421715
0.0043396
0.000249462
8.91549e-06
0.000173184
3.24081e-05
0.00053633
6.72903e-05
0.000924313
0.000109585
0.00132405
0.000154858
0.00171817
0.000198833
0.00208893
0.000238037
0.00242205
0.000270233
0.00270925
0.000294525
0.00294897
0.000311153
0.0031454
0.000321125
0.00330647
0.000325796
0.00344161
0.000326531
0.00355994
0.0003245
0.00366915
0.000320584
0.00377507
0.000315389
0.0038817
0.000309294
0.0039915
0.000302509
0.00410566
0.00029512
0.00422454
0.00434761
0.000287116
8.88543e-06
0.000164298
3.25265e-05
0.000512689
6.79765e-05
0.000888863
0.000111451
0.00128057
0.000158602
0.00167101
0.000205103
0.00204243
0.00024731
0.00237984
0.000282746
0.00267381
0.000310274
0.00292144
0.000329947
0.00312573
0.000342662
0.00329376
0.000349746
0.00343452
0.0003526
0.00355708
0.000352455
0.00366929
0.000350273
0.00377725
0.000346725
0.00388525
0.000342241
0.00399598
0.000337063
0.00411084
0.000331298
0.00423031
0.00435396
0.00032494
8.8298e-06
0.000155468
3.25486e-05
0.00048897
6.84603e-05
0.000852951
0.000112992
0.00123604
0.00016191
0.0016221
0.000210862
0.00199348
0.000256051
0.00233465
0.000294764
0.0026351
0.000325611
0.00289059
0.00034844
0.0031029
0.000364018
0.00327818
0.000373625
0.00342491
0.000378684
0.00355202
0.000380492
0.00366749
0.000380084
0.00377766
0.000378206
0.00388713
0.000375343
0.00399884
0.000371775
0.00411441
0.000367633
0.00423445
0.00435867
0.000362922
8.74917e-06
0.000146719
3.24748e-05
0.000465245
6.87392e-05
0.000816686
0.000114199
0.00119058
0.000164759
0.00157154
0.000216073
0.00194216
0.000264209
0.00228652
0.000306224
0.00259308
0.00034047
0.00285635
0.000366566
0.0030768
0.000385131
0.00325961
0.00039738
0.00341267
0.000404744
0.00354466
0.000408576
0.00366365
0.000409992
0.00377625
0.000409812
0.00388731
0.000408583
0.00400007
0.00040663
0.00411636
0.000404111
0.00423697
0.00436174
0.000401046
8.64428e-06
0.000138075
3.23062e-05
0.000441583
6.8812e-05
0.000780181
0.000115063
0.00114433
0.00016713
0.00151947
0.0002207