/*--------------------------------*- C++ -*----------------------------------*\
  =========                 |
  \\      /  F ield         | OpenFOAM: The Open Source CFD Toolbox
   \\    /   O peration     | Website:  https://openfoam.org
    \\  /    A nd           | Version:  7
     \\/     M anipulation  |
\*---------------------------------------------------------------------------*/
FoamFile
{
    version     2.0;
    format      ascii;
    class       volScalarField;
    location    "20";
    object      p;
}
// * * * * * * * * * * * * * * * * * * * * * * * * * * * * * * * * * * * * * //

dimensions      [0 2 -2 0 0 0 0];

internalField   nonuniform List<scalar> 
4575
(
-0.274179
-0.2781
-0.282877
-0.288137
-0.293793
-0.299254
-0.3039
-0.306715
-0.306593
-0.302194
-0.292314
-0.276057
-0.253153
-0.2242
-0.190708
-0.154738
-0.118472
-0.0838215
-0.052245
-0.024666
-0.00155314
0.017013
0.0312446
-0.274176
-0.278098
-0.282878
-0.288144
-0.293807
-0.299279
-0.30394
-0.306773
-0.30667
-0.302293
-0.292434
-0.276194
-0.253302
-0.224352
-0.190857
-0.154878
-0.1186
-0.0839365
-0.0523466
-0.0247546
-0.00162943
0.0169479
0.0311897
-0.274169
-0.278093
-0.282879
-0.288154
-0.293834
-0.299328
-0.304018
-0.306886
-0.306824
-0.302489
-0.292672
-0.276468
-0.253599
-0.224657
-0.191155
-0.155158
-0.118856
-0.0841668
-0.05255
-0.0249321
-0.00178218
0.0168178
0.0310798
-0.274157
-0.278084
-0.282878
-0.288169
-0.293872
-0.299399
-0.304131
-0.307052
-0.307049
-0.302778
-0.293026
-0.276875
-0.25404
-0.22511
-0.191598
-0.155576
-0.11924
-0.0845113
-0.0528547
-0.0251982
-0.00201123
0.0166226
0.0309148
-0.27414
-0.278071
-0.282875
-0.288186
-0.293919
-0.299489
-0.304277
-0.307266
-0.307343
-0.303156
-0.293488
-0.277408
-0.25462
-0.225706
-0.192183
-0.156128
-0.119748
-0.0849684
-0.0532595
-0.0255522
-0.00231637
0.0163622
0.0306947
-0.274117
-0.278053
-0.282868
-0.288203
-0.293973
-0.299596
-0.304452
-0.307525
-0.307698
-0.303615
-0.294052
-0.278059
-0.255331
-0.22644
-0.192904
-0.156812
-0.120377
-0.0855362
-0.0537632
-0.0259936
-0.00269729
0.0160368
0.0304191
-0.274088
-0.278028
-0.282856
-0.288218
-0.29403
-0.299714
-0.30465
-0.307821
-0.308108
-0.304147
-0.294708
-0.278821
-0.256165
-0.227303
-0.193755
-0.15762
-0.121124
-0.0862121
-0.0543647
-0.026521
-0.0031536
0.0156463
0.0300881
-0.274051
-0.277995
-0.282836
-0.288229
-0.294088
-0.29984
-0.304865
-0.308147
-0.308564
-0.304743
-0.295447
-0.279682
-0.257112
-0.228288
-0.194729
-0.15855
-0.121985
-0.0869934
-0.0550625
-0.0271331
-0.00368482
0.0151908
0.0297013
-0.274005
-0.277953
-0.282808
-0.288232
-0.294142
-0.299968
-0.305091
-0.308497
-0.309057
-0.305392
-0.296257
-0.280631
-0.25816
-0.229383
-0.195819
-0.159593
-0.122956
-0.0878769
-0.0558534
-0.02783
-0.00429041
0.0146705
0.0292586
-0.27395
-0.2779
-0.282768
-0.288226
-0.294189
-0.300094
-0.305323
-0.308861
-0.309578
-0.306084
-0.297126
-0.281656
-0.2593
-0.230579
-0.197014
-0.160743
-0.124031
-0.0888599
-0.0567356
-0.0286093
-0.00496971
0.0140855
0.0287599
-0.273883
-0.277835
-0.282716
-0.288206
-0.294224
-0.300212
-0.305552
-0.309232
-0.310116
-0.306807
-0.298043
-0.282745
-0.260518
-0.231865
-0.198307
-0.161994
-0.125205
-0.0899393
-0.0577059
-0.0294697
-0.00572198
0.0134361
0.0282051
0.0389982
-0.273805
-0.277756
-0.282647
-0.288171
-0.294244
-0.300318
-0.305773
-0.309601
-0.310663
-0.307549
-0.298994
-0.283884
-0.261802
-0.233231
-0.199688
-0.163337
-0.126474
-0.0911078
-0.0587645
-0.03041
-0.00654636
0.0127226
0.0275942
0.0384799
-0.273715
-0.277662
-0.282562
-0.288117
-0.294245
-0.300405
-0.305979
-0.30996
-0.311207
-0.308301
-0.299968
-0.285062
-0.26314
-0.234664
-0.201148
-0.164767
-0.127831
-0.0923632
-0.0599063
-0.0314284
-0.00744185
0.0119455
0.0269274
0.0379129
-0.27361
-0.277552
-0.282458
-0.288042
-0.294224
-0.300469
-0.306163
-0.310302
-0.311741
-0.309039
-0.300951
-0.286266
-0.264519
-0.236155
-0.202678
-0.166275
-0.129271
-0.0937029
-0.0611286
-0.0325231
-0.00840735
0.0111054
0.0262048
0.0372974
-0.273492
-0.277426
-0.282334
-0.287944
-0.294176
-0.300507
-0.30632
-0.310618
-0.312253
-0.309726
-0.301934
-0.287482
-0.265929
-0.237692
-0.204267
-0.167856
-0.130784
-0.0951236
-0.0624287
-0.033692
-0.00944158
0.010203
0.0254268
0.0366334
-0.273359
-0.277281
-0.282188
-0.287821
-0.294101
-0.300513
-0.306445
-0.310903
-0.312736
-0.310578
-0.302906
-0.288701
-0.267357
-0.239264
-0.20591
-0.169497
-0.13237
-0.0966187
-0.0638038
-0.034933
-0.0105432
0.00923915
0.0245939
0.035921
-0.273211
-0.277118
-0.28202
-0.287671
-0.293994
-0.300484
-0.306532
-0.311149
-0.313183
-0.311226
-0.303855
-0.289911
-0.268792
-0.240863
-0.207598
-0.171189
-0.134025
-0.0981839
-0.0652506
-0.0362439
-0.0117105
0.00821488
0.0237066
0.0351606
-0.273048
-0.276936
-0.281829
-0.287493
-0.293854
-0.300418
-0.306578
-0.311352
-0.313587
-0.311866
-0.304773
-0.291101
-0.270224
-0.242478
-0.209309
-0.172937
-0.135738
-0.0998153
-0.0667657
-0.0376222
-0.012942
0.00713133
0.0227657
0.0343526
-0.272871
-0.276736
-0.281614
-0.287286
-0.29368
-0.300312
-0.306579
-0.311506
-0.313942
-0.312467
-0.30565
-0.292263
-0.271645
-0.244096
-0.211049
-0.174726
-0.137506
-0.101508
-0.068346
-0.0390654
-0.0142357
0.0059898
0.0217721
0.0334978
-0.272678
-0.276517
-0.281376
-0.28705
-0.29347
-0.300163
-0.306532
-0.311608
-0.314243
-0.313014
-0.30648
-0.293388
-0.273041
-0.245709
-0.212811
-0.17655
-0.139322
-0.103259
-0.0699878
-0.0405709
-0.0155898
0.00479173
0.0207269
0.0325968
-0.272471
-0.27628
-0.281114
-0.286785
-0.293224
-0.299972
-0.306435
-0.311655
-0.314485
-0.313502
-0.307256
-0.294463
-0.274407
-0.247316
-0.214582
-0.178402
-0.141181
-0.105062
-0.0716877
-0.042136
-0.0170021
0.0035387
0.0196312
0.0316505
-0.272251
-0.276024
-0.28083
-0.28649
-0.292942
-0.299737
-0.306287
-0.311644
-0.314664
-0.313925
-0.307968
-0.295491
-0.275738
-0.248905
-0.216355
-0.180276
-0.143078
-0.106914
-0.0734421
-0.0437578
-0.0184704
0.00223243
0.0184863
0.0306599
-0.272017
-0.275752
-0.280523
-0.286168
-0.292623
-0.299457
-0.306087
-0.311574
-0.314779
-0.314281
-0.308616
-0.29646
-0.277024
-0.250468
-0.218124
-0.182167
-0.145007
-0.10881
-0.0752475
-0.0454334
-0.0199924
0.000874717
0.0172938
0.0296261
-0.27177
-0.275464
-0.280195
-0.285817
-0.29227
-0.299133
-0.305834
-0.311443
-0.314827
-0.314567
-0.309195
-0.297366
-0.27826
-0.251999
-0.219883
-0.184068
-0.146964
-0.110746
-0.0771002
-0.0471599
-0.0215658
-0.000532494
0.0160551
0.0285505
-0.271511
-0.27516
-0.279847
-0.285439
-0.291881
-0.298766
-0.305529
-0.311251
-0.314808
-0.314781
-0.309701
-0.298204
-0.27944
-0.253493
-0.221627
-0.185974
-0.148944
-0.112717
-0.0789966
-0.0489342
-0.023188
-0.00198719
0.0147718
0.0274343
-0.274841
-0.279478
-0.285035
-0.29146
-0.298357
-0.305172
-0.310998
-0.314719
-0.314921
-0.310131
-0.298971
-0.28056
-0.254944
-0.223348
-0.18788
-0.150941
-0.114719
-0.0809331
-0.0507534
-0.0248565
-0.00348728
0.0134458
0.0262789
-0.274509
-0.279092
-0.284607
-0.291005
-0.297907
-0.304764
-0.310685
-0.314562
-0.314987
-0.310484
-0.299664
-0.281617
-0.256349
-0.225044
-0.189781
-0.152952
-0.116749
-0.0829061
-0.0526143
-0.0265687
-0.00503061
0.0120787
0.0250858
-0.274163
-0.278688
-0.284156
-0.29052
-0.297417
-0.304307
-0.310313
-0.314335
-0.314977
-0.310759
-0.300281
-0.282607
-0.257703
-0.226709
-0.191673
-0.154972
-0.118802
-0.0849121
-0.054514
-0.0283221
-0.00661498
0.0106725
0.0238567
-0.273805
-0.278269
-0.283682
-0.290006
-0.296888
-0.303801
-0.309882
-0.31404
-0.314892
-0.310954
-0.30082
-0.283526
-0.259002
-0.22834
-0.193551
-0.156996
-0.120874
-0.0869476
-0.0564493
-0.030114
-0.00823817
0.00922904
0.022593
-0.273436
-0.277833
-0.283188
-0.289463
-0.296323
-0.303249
-0.309393
-0.313694
-0.314734
-0.31107
-0.301279
-0.284374
-0.260244
-0.229933
-0.195411
-0.159022
-0.122962
-0.0890093
-0.0584174
-0.0319418
-0.00989793
0.00775021
0.0212965
-0.273056
-0.277384
-0.282674
-0.288894
-0.295722
-0.302652
-0.30885
-0.313314
-0.314502
-0.311105
-0.301658
-0.285149
-0.261425
-0.231484
-0.197251
-0.161044
-0.125062
-0.0910938
-0.060415
-0.0338029
-0.0115919
0.00623804
0.0199688
-0.272664
-0.276921
-0.282142
-0.2883
-0.295088
-0.302011
-0.308252
-0.312704
-0.314196
-0.311062
-0.301957
-0.285848
-0.262545
-0.232991
-0.199065
-0.16306
-0.12717
-0.0931976
-0.0624393
-0.0356945
-0.0133178
0.00469456
0.0186117
-0.272262
-0.276444
-0.281592
-0.287682
-0.294422
-0.301329
-0.307604
-0.312195
-0.313816
-0.310939
-0.302175
-0.286473
-0.263602
-0.234452
-0.200852
-0.165067
-0.129284
-0.0953182
-0.0644878
-0.0376145
-0.0150738
0.00312137
0.0172266
-0.271849
-0.275955
-0.281025
-0.287041
-0.293724
-0.300606
-0.306906
-0.311592
-0.313363
-0.310739
-0.302314
-0.287022
-0.264594
-0.235866
-0.202612
-0.167064
-0.131402
-0.0974548
-0.0665598
-0.0395624
-0.0168591
0.00151927
0.0158144
-0.271425
-0.275452
-0.280441
-0.286377
-0.292997
-0.299843
-0.306158
-0.310914
-0.312842
-0.310462
-0.302374
-0.287496
-0.265523
-0.237231
-0.20434
-0.169046
-0.133521
-0.0996029
-0.068651
-0.0415339
-0.01867
-0.000108633
0.0143775
-0.270991
-0.274939
-0.279844
-0.285695
-0.292244
-0.299047
-0.305363
-0.310185
-0.312257
-0.310113
-0.302356
-0.287892
-0.266379
-0.238534
-0.206019
-0.170994
-0.135618
-0.101741
-0.0707413
-0.0435116
-0.020492
-0.00175046
0.0129253
-0.270548
-0.274417
-0.279236
-0.284998
-0.29147
-0.29822
-0.304528
-0.309405
-0.311606
-0.309689
-0.302256
-0.288204
-0.267153
-0.239764
-0.207638
-0.172895
-0.137683
-0.103859
-0.0728229
-0.0454889
-0.0223194
-0.00340138
0.0114622
-0.273864
-0.27859
-0.284255
-0.290642
-0.29733
-0.303638
-0.308534
-0.310857
-0.309173
-0.302079
-0.288464
-0.26791
-0.241014
-0.209313
-0.174882
-0.139854
-0.106092
-0.0750177
-0.0475714
-0.0242398
-0.0051308
0.00993509
-0.273249
-0.277873
-0.28343
-0.289717
-0.296329
-0.302639
-0.307552
-0.310012
-0.308585
-0.301873
-0.288756
-0.268772
-0.242442
-0.211227
-0.177149
-0.142323
-0.108622
-0.0774925
-0.0499052
-0.026377
-0.00704127
0.0082612
-0.272748
-0.277306
-0.282785
-0.288997
-0.295544
-0.301747
-0.306799
-0.309346
-0.308079
-0.301628
-0.288868
-0.269308
-0.24342
-0.212606
-0.178842
-0.144224
-0.110625
-0.0795054
-0.0518553
-0.0282115
-0.0087259
0.00674585
-0.27233
-0.276873
-0.282327
-0.288528
-0.295112
-0.301346
-0.306247
-0.30874
-0.30745
-0.301
-0.288298
-0.268887
-0.243248
-0.212763
-0.179371
-0.145125
-0.111862
-0.08102
-0.0535751
-0.0300599
-0.0106281
0.00485887
0.0167318
-0.271197
-0.275638
-0.280878
-0.286707
-0.292712
-0.298376
-0.302748
-0.304651
-0.302835
-0.296061
-0.283352
-0.264321
-0.239428
-0.209957
-0.17771
-0.144616
-0.112413
-0.0824761
-0.0557458
-0.0327439
-0.0136333
0.00169961
0.0135582
-0.269574
-0.273898
-0.278904
-0.284392
-0.289986
-0.295036
-0.298729
-0.299972
-0.2976
-0.290488
-0.277774
-0.259137
-0.23502
-0.206612
-0.175581
-0.143723
-0.11267
-0.0837248
-0.0577868
-0.0353642
-0.0166275
-0.00148525
0.0103348
-0.267252
-0.271449
-0.276208
-0.28132
-0.286389
-0.290831
-0.293855
-0.294449
-0.291541
-0.284125
-0.27145
-0.253261
-0.229986
-0.20272
-0.172995
-0.142469
-0.112661
-0.0847926
-0.0597172
-0.0379281
-0.0196043
-0.00467947
0.00708395
-0.264074
-0.268131
-0.272617
-0.277316
-0.281839
-0.285647
-0.28799
-0.287939
-0.284525
-0.276856
-0.264289
-0.246629
-0.224285
-0.198256
-0.169935
-0.140838
-0.112365
-0.0856505
-0.0615027
-0.0403991
-0.0225291
-0.0078535
0.00382912
-0.259978
-0.263876
-0.268066
-0.272331
-0.276303
-0.27947
-0.281141
-0.280478
-0.276611
-0.268764
-0.25639
-0.239347
-0.21802
-0.193311
-0.166472
-0.138876
-0.111801
-0.086298
-0.0631266
-0.0427502
-0.0253695
-0.0109731
0.000603338
-0.255001
-0.258716
-0.262591
-0.266414
-0.269844
-0.272388
-0.273421
-0.2722
-0.267958
-0.260019
-0.247927
-0.231583
-0.211341
-0.188007
-0.162697
-0.136642
-0.111002
-0.0867428
-0.064579
-0.04496
-0.0280973
-0.0140075
-0.00256228
-0.249277
-0.252786
-0.256332
-0.259716
-0.262616
-0.264572
-0.265022
-0.263314
-0.258778
-0.250836
-0.239106
-0.223522
-0.204408
-0.182473
-0.158705
-0.134198
-0.11
-0.0869962
-0.0658549
-0.0470122
-0.0306899
-0.0169309
-0.00564166
-0.242985
-0.246271
-0.249484
-0.252436
-0.254832
-0.256248
-0.256178
-0.254058
-0.249311
-0.241443
-0.230137
-0.215351
-0.197375
-0.176832
-0.154585
-0.131605
-0.108831
-0.0870726
-0.0669537
-0.0488963
-0.0331307
-0.0197238
-0.00861418
-0.236306
-0.239359
-0.242245
-0.244785
-0.246711
-0.247639
-0.247119
-0.244663
-0.239779
-0.232047
-0.221206
-0.20723
-0.190377
-0.171187
-0.150415
-0.128915
-0.107526
-0.0869872
-0.0678786
-0.050607
-0.035409
-0.0223721
-0.0114644
-0.229389
-0.23221
-0.234784
-0.236941
-0.238439
-0.238937
-0.238036
-0.235315
-0.230358
-0.222809
-0.212455
-0.19928
-0.183511
-0.165617
-0.146253
-0.126168
-0.106113
-0.0867549
-0.068635
-0.052143
-0.0375187
-0.0248669
-0.0141816
-0.222344
-0.224942
-0.227225
-0.229036
-0.230155
-0.23028
-0.229063
-0.226144
-0.221168
-0.213838
-0.203977
-0.191579
-0.176844
-0.160175
-0.14214
-0.123397
-0.104612
-0.0863895
-0.0692305
-0.0535066
-0.0394579
-0.0272032
-0.0167587
-0.215244
-0.217635
-0.219655
-0.221158
-0.221947
-0.221758
-0.220289
-0.217229
-0.21228
-0.205194
-0.195823
-0.18417
-0.170409
-0.15489
-0.138102
-0.120622
-0.10304
-0.0859035
-0.0696732
-0.054702
-0.0412276
-0.0293792
-0.0191918
-0.20814
-0.210342
-0.212127
-0.213363
-0.213871
-0.213423
-0.211759
-0.208611
-0.203727
-0.196901
-0.188013
-0.177069
-0.164223
-0.149776
-0.134153
-0.117857
-0.101411
-0.0853082
-0.069972
-0.0557352
-0.0428309
-0.0313954
-0.0214792
-0.201065
-0.203097
-0.204677
-0.205684
-0.205959
-0.205304
-0.203495
-0.200304
-0.195517
-0.188963
-0.180545
-0.170275
-0.158285
-0.144837
-0.130299
-0.115111
-0.0997349
-0.0846137
-0.0701358
-0.0566132
-0.0442723
-0.0332539
-0.023621
-0.194044
-0.195926
-0.197328
-0.198142
-0.198228
-0.197412
-0.195504
-0.192307
-0.187643
-0.18137
-0.17341
-0.163777
-0.152588
-0.14007
-0.126543
-0.11239
-0.0980199
-0.0838294
-0.0701735
-0.0573434
-0.0455574
-0.0349581
-0.0256182
-0.187098
-0.188848
-0.190098
-0.190753
-0.190688
-0.189753
-0.187784
-0.184615
-0.180095
-0.174107
-0.166591
-0.157562
-0.147123
-0.135472
-0.122885
-0.109699
-0.0962733
-0.0829639
-0.0700937
-0.0579336
-0.0466921
-0.0365118
-0.0274728
-0.180245
-0.181879
-0.183002
-0.183527
-0.183345
-0.182326
-0.18033
-0.177216
-0.172857
-0.167159
-0.160072
-0.151614
-0.141878
-0.131034
-0.119324
-0.10704
-0.0945015
-0.0820253
-0.069905
-0.0583915
-0.0476828
-0.0379198
-0.0291875
-0.173502
-0.175035
-0.176052
-0.176473
-0.176204
-0.175132
-0.173137
-0.1701
-0.165917
-0.160508
-0.153836
-0.14592
-0.136842
-0.126751
-0.115857
-0.104417
-0.0927101
-0.0810213
-0.0696157
-0.0587249
-0.0485361
-0.0391868
-0.0307654
-0.166883
-0.168329
-0.169257
-0.169598
-0.169267
-0.168168
-0.166199
-0.163259
-0.15926
-0.15414
-0.147868
-0.140465
-0.132004
-0.122616
-0.112483
-0.10183
-0.0909045
-0.079959
-0.0692338
-0.0589417
-0.0492588
-0.0403183
-0.0322101
-0.160403
-0.161773
-0.162629
-0.162908
-0.162537
-0.161434
-0.15951
-0.156681
-0.152875
-0.148039
-0.142154
-0.135237
-0.127355
-0.118623
-0.1092
-0.0992828
-0.0890895
-0.0788453
-0.0687669
-0.0590495
-0.0498577
-0.0413196
-0.0335254
-0.154071
-0.155376
-0.156174
-0.156409
-0.156017
-0.154927
-0.153065
-0.150359
-0.146749
-0.142195
-0.136679
-0.130223
-0.122885
-0.114766
-0.106006
-0.096776
-0.0872695
-0.0776866
-0.0682225
-0.0590557
-0.0503395
-0.0421964
-0.0347156
-0.1479
-0.149148
-0.149899
-0.150104
-0.149707
-0.148646
-0.146858
-0.144284
-0.140873
-0.136593
-0.131434
-0.125414
-0.118586
-0.11104
-0.102898
-0.0943112
-0.0854487
-0.076489
-0.0676077
-0.0589677
-0.0507112
-0.0429545
-0.0357852
-0.141899
-0.143097
-0.143812
-0.143998
-0.143608
-0.142588
-0.140885
-0.138448
-0.135237
-0.131225
-0.126406
-0.120798
-0.11445
-0.10744
-0.0998762
-0.0918897
-0.0836309
-0.0752582
-0.0669293
-0.0587925
-0.0509794
-0.0435998
-0.0367388
-0.136075
-0.137229
-0.137915
-0.138093
-0.13772
-0.136751
-0.135139
-0.132844
-0.12983
-0.126079
-0.121585
-0.116368
-0.110471
-0.103962
-0.0969377
-0.0895127
-0.0818197
-0.0739996
-0.0661938
-0.0585371
-0.0511509
-0.0441383
-0.0375814
-0.130434
-0.13155
-0.132214
-0.132391
-0.132043
-0.131132
-0.129617
-0.127464
-0.124646
-0.121146
-0.116963
-0.112115
-0.106641
-0.100602
-0.0940812
-0.0871811
-0.0800184
-0.0727183
-0.0654075
-0.0582083
-0.0512322
-0.0445758
-0.0383179
-0.124981
-0.126063
-0.126711
-0.126893
-0.126576
-0.125727
-0.124313
-0.122303
-0.119676
-0.116418
-0.112531
-0.108032
-0.102955
-0.097355
-0.0913053
-0.084896
-0.0782302
-0.0714191
-0.0645763
-0.0578124
-0.0512298
-0.0449185
-0.0389536
-0.11972
-0.120771
-0.121406
-0.121598
-0.121318
-0.120535
-0.119222
-0.117354
-0.114912
-0.111888
-0.108282
-0.104111
-0.0994074
-0.0942182
-0.0886087
-0.0826583
-0.0764579
-0.0701065
-0.0637058
-0.0573557
-0.0511499
-0.0451722
-0.0394936
-0.114655
-0.115676
-0.116303
-0.116508
-0.116265
-0.115551
-0.114339
-0.11261
-0.110349
-0.107547
-0.104208
-0.100347
-0.0959932
-0.0911884
-0.0859902
-0.0804687
-0.0747044
-0.0687849
-0.0628015
-0.0568443
-0.0509989
-0.0453429
-0.0399432
-0.109786
-0.11078
-0.111399
-0.111619
-0.111417
-0.110771
-0.109661
-0.108067
-0.105978
-0.103389
-0.100303
-0.0967342
-0.092708
-0.0882627
-0.0834488
-0.0783282
-0.0729721
-0.0674584
-0.0618685
-0.056284
-0.0507827
-0.0454363
-0.0403078
-0.105114
-0.106082
-0.106696
-0.106932
-0.106771
-0.106193
-0.105181
-0.103718
-0.101795
-0.0994085
-0.0965612
-0.0932666
-0.0895477
-0.0854384
-0.0809835
-0.0762375
-0.0712635
-0.0661307
-0.0609118
-0.0556803
-0.0505071
-0.0454583
-0.0405925
-0.100638
-0.101582
-0.10219
-0.102444
-0.102324
-0.101813
-0.100895
-0.0995588
-0.0977943
-0.0955989
-0.0929767
-0.0899397
-0.0865085
-0.0827133
-0.0785935
-0.0741975
-0.069581
-0.0648055
-0.0599361
-0.0550387
-0.0501779
-0.0454144
-0.0408028
-0.0963588
-0.0972783
-0.097882
-0.0981521
-0.0980717
-0.0976255
-0.0967999
-0.0955836
-0.0939694
-0.0919551
-0.0895448
-0.0867493
-0.0835872
-0.0800852
-0.0762782
-0.072209
-0.0679269
-0.0634865
-0.0589458
-0.0543643
-0.0498006
-0.0453101
-0.0409439
-0.0922733
-0.0931688
-0.0937679
-0.0940539
-0.0940118
-0.0936278
-0.0928896
-0.0917877
-0.0903157
-0.0884721
-0.0862606
-0.0836913
-0.0807806
-0.0775522
-0.074037
-0.0702728
-0.0663032
-0.0621768
-0.0579453
-0.0536622
-0.0493804
-0.0451509
-0.0410209
-0.0883793
-0.0892511
-0.0898451
-0.0901462
-0.0901404
-0.0898154
-0.0891602
-0.0881663
-0.0868284
-0.0851451
-0.08312
-0.080762
-0.0780859
-0.0751126
-0.0718695
-0.0683897
-0.0647121
-0.0608796
-0.0569386
-0.0529369
-0.0489226
-0.0449421
-0.0410391
-0.0846741
-0.0855221
-0.0861105
-0.0864253
-0.0864536
-0.0861842
-0.0856071
-0.0847149
-0.0835029
-0.0819698
-0.0801189
-0.0779582
-0.0755007
-0.072765
-0.0697752
-0.0665606
-0.0631555
-0.0595982
-0.0559298
-0.0521933
-0.0484322
-0.0446888
-0.0410033
-0.0811542
-0.0819784
-0.0825606
-0.0828875
-0.0829474
-0.08273
-0.0822262
-0.0814292
-0.0803348
-0.0789421
-0.0772537
-0.0752767
-0.0730228
-0.0705081
-0.067754
-0.0647864
-0.0616355
-0.0583353
-0.0549225
-0.0514357
-0.047914
-0.044396
-0.0409188
-0.077816
-0.0786165
-0.0791916
-0.079529
-0.0796178
-0.0794487
-0.079013
-0.0783048
-0.0773201
-0.076058
-0.0745209
-0.0727148
-0.0706499
-0.0683407
-0.0658057
-0.0630679
-0.0601539
-0.0570938
-0.0539205
-0.0506683
-0.0473727
-0.0440687
-0.0407902
-0.0746554
-0.0754322
-0.0759994
-0.0763457
-0.0764608
-0.0763361
-0.0759635
-0.0753376
-0.0744548
-0.0733141
-0.0719173
-0.0702698
-0.0683805
-0.0662618
-0.0639303
-0.061406
-0.0587126
-0.0558766
-0.0529272
-0.0498954
-0.0468128
-0.0437115
-0.0406223
-0.0716684
-0.0724214
-0.07298
-0.0733334
-0.0734725
-0.0733881
-0.0730735
-0.0725237
-0.0717352
-0.0707068
-0.0694401
-0.0679395
-0.0662127
-0.0642707
-0.0621278
-0.0598018
-0.0573133
-0.0546862
-0.0519461
-0.0491208
-0.0462388
-0.0433291
-0.04042
-0.0688506
-0.0695799
-0.070129
-0.0704879
-0.0706483
-0.0706002
-0.0703389
-0.0698591
-0.0691577
-0.0682331
-0.0670865
-0.0657216
-0.0641451
-0.0623665
-0.0603983
-0.0582561
-0.0559581
-0.0535252
-0.0509804
-0.0483484
-0.0456549
-0.042926
-0.0401876
-0.0661975
-0.0669033
-0.0674423
-0.0678049
-0.0679825
-0.067968
-0.0677557
-0.0673405
-0.066719
-0.0658899
-0.064854
-0.0636144
-0.0621766
-0.0605489
-0.0587422
-0.05677
-0.0546485
-0.0523961
-0.0500333
-0.0475819
-0.0450651
-0.0425065
-0.0399298
-0.0637049
-0.0643873
-0.0649155
-0.0652802
-0.0654731
-0.0654886
-0.0653206
-0.0649642
-0.064416
-0.0636746
-0.0627405
-0.061616
-0.0603059
-0.0588172
-0.0571595
-0.0553446
-0.0533865
-0.0513016
-0.0491078
-0.0468249
-0.0444735
-0.042075
-0.0396509
-0.0613683
-0.0620278
-0.0625445
-0.06291
-0.0631167
-0.0631586
-0.0630303
-0.0627272
-0.0622459
-0.0615847
-0.0607438
-0.0597249
-0.0585321
-0.0571714
-0.0556509
-0.0539809
-0.0521738
-0.0502439
-0.0482071
-0.046081
-0.0438841
-0.0416356
-0.0393551
-0.0591835
-0.0598205
-0.0603254
-0.0606906
-0.0609088
-0.0609741
-0.0608814
-0.0606265
-0.060206
-0.0596179
-0.058862
-0.0579399
-0.0568545
-0.0556112
-0.0542167
-0.0526802
-0.0510122
-0.0492254
-0.0473341
-0.0453535
-0.0433005
-0.0411923
-0.0390466
-0.0571465
-0.0577615
-0.0582545
-0.0586182
-0.0588459
-0.0589317
-0.0588709
-0.0586594
-0.0582937
-0.057772
-0.0570937
-0.0562597
-0.0552726
-0.0541366
-0.0528577
-0.0514435
-0.0499036
-0.0482487
-0.0464916
-0.0446459
-0.0427265
-0.040749
-0.0387295
-0.0552534
-0.0558471
-0.056328
-0.0566893
-0.0569246
-0.0570283
-0.0569958
-0.0568231
-0.0565071
-0.0560454
-0.0554374
-0.0546836
-0.0537859
-0.0527479
-0.0515745
-0.0502724
-0.0488497
-0.0473161
-0.0456826
-0.0439614
-0.0421657
-0.0403097
-0.0384078
-0.0535007
-0.0540738
-0.0545426
-0.0549007
-0.0551419
-0.055261
-0.0552535
-0.0551156
-0.054844
-0.0544365
-0.0538921
-0.0532108
-0.0523943
-0.0514453
-0.050368
-0.0491681
-0.0478527
-0.04643
-0.0449099
-0.0433032
-0.0416217
-0.0398781
-0.0380854
-0.051885
-0.0524385
-0.0528954
-0.0532495
-0.0534953
-0.0536276
-0.053642
-0.0535348
-0.053303
-0.052944
-0.0524568
-0.0518411
-0.0510979
-0.0502295
-0.0492393
-0.0481323
-0.0469144
-0.0455929
-0.0441765
-0.0426747
-0.041098
-0.0394579
-0.0377661
-0.0504035
-0.0509383
-0.0513835
-0.0517333
-0.0519824
-0.0521258
-0.0521593
-0.0520794
-0.0518828
-0.0515672
-0.0511311
-0.0505741
-0.0498969
-0.0491011
-0.0481896
-0.0471665
-0.0460369
-0.0448073
-0.0434851
-0.0420789
-0.040598
-0.0390527
-0.0374538
-0.0490537
-0.049571
-0.0500049
-0.0503501
-0.0506014
-0.0507541
-0.0508042
-0.050748
-0.0505825
-0.0503054
-0.0499148
-0.0494103
-0.048792
-0.0480613
-0.0472203
-0.0462726
-0.0452226
-0.0440758
-0.0428388
-0.0415192
-0.0401253
-0.0386663
-0.037152
-0.0478338
-0.0483347
-0.0487579
-0.0490983
-0.0493509
-0.0495114
-0.0495756
-0.0495401
-0.0494019
-0.0491586
-0.0488083
-0.0483502
-0.0477842
-0.0471113
-0.0463332
-0.0454528
-0.0444738
-0.0434012
-0.0422406
-0.0409987
-0.0396831
-0.0383021
-0.0368645
-0.0467425
-0.0472283
-0.0476414
-0.047977
-0.0482303
-0.048397
-0.0484732
-0.0484556
-0.0483411
-0.0481273
-0.0478122
-0.0473948
-0.0468748
-0.0462528
-0.0455301
-0.0447092
-0.0437931
-0.0427862
-0.0416935
-0.0405209
-0.0392751
-0.0379637
-0.0365948
-0.0457789
-0.0462511
-0.046655
-0.0469859
-0.0472393
-0.0474111
-0.0474975
-0.047495
-0.0474008
-0.0472124
-0.0469277
-0.0465457
-0.0460656
-0.0454879
-0.0448135
-0.0440445
-0.0431834
-0.0422341
-0.0412008
-0.040089
-0.0389048
-0.0376548
-0.0363466
-0.0449435
-0.0454036
-0.0457992
-0.0461257
-0.0463788
-0.0465546
-0.0466493
-0.0466595
-0.0465825
-0.0464156
-0.0461568
-0.0458048
-0.0453589
-0.0448191
-0.0441861
-0.0434616
-0.0426478
-0.041748
-0.040766
-0.0397067
-0.0385756
-0.0373789
-0.0361233
-0.0442371
-0.0446868
-0.0450751
-0.0453977
-0.0456504
-0.0458292
-0.0459306
-0.0459513
-0.0458883
-0.0457393
-0.0455021
-0.0451751
-0.0447577
-0.0442495
-0.0436512
-0.0429639
-0.0421898
-0.0413315
-0.0403927
-0.0393776
-0.0382913
-0.0371395
-0.0359285
-0.0436619
-0.044103
-0.0444853
-0.0448045
-0.0450566
-0.0452378
-0.0453444
-0.0453733
-0.0453216
-0.0451869
-0.0449669
-0.0446601
-0.0442655
-0.0437829
-0.0432125
-0.0425554
-0.0418133
-0.0409887
-0.0400848
-0.0391056
-0.0380557
-0.0369404
-0.0357657
-0.0432214
-0.0436558
-0.0440334
-0.0443499
-0.0446014
-0.0447842
-0.0448947
-0.0449298
-0.0448866
-0.0447626
-0.0445557
-0.0442641
-0.0438869
-0.0434237
-0.0428745
-0.0422403
-0.0415226
-0.0407237
-0.0398465
-0.0388947
-0.0378726
-0.0367853
-0.0356384
-0.0429204
-0.0433503
-0.0437245
-0.0440391
-0.0442902
-0.0444741
-0.0445871
-0.0446263
-0.0445888
-0.0444721
-0.044274
-0.0439928
-0.0436274
-0.0431773
-0.0426426
-0.042024
-0.0413229
-0.0405414
-0.0396824
-0.0387492
-0.0377462
-0.036678
-0.0355501
-0.0427655
-0.043193
-0.0435655
-0.0438792
-0.04413
-0.0443143
-0.0444287
-0.04447
-0.0444355
-0.0443225
-0.0441289
-0.043853
-0.0434936
-0.0430503
-0.0425229
-0.0419123
-0.0412198
-0.0404473
-0.0395976
-0.038674
-0.0376807
-0.0366224
-0.0355043
-0.0427649
-0.0431923
-0.0435649
-0.0438786
-0.0441294
-0.0443138
-0.0444282
-0.0444695
-0.044435
-0.044322
-0.0441284
-0.0438525
-0.0434932
-0.0430499
-0.0425226
-0.041912
-0.0412194
-0.040447
-0.0395973
-0.0386738
-0.0376805
-0.0366221
-0.0429198
-0.0433496
-0.0437239
-0.0440385
-0.0442897
-0.0444735
-0.0445866
-0.0446258
-0.0445883
-0.0444716
-0.0442736
-0.0439924
-0.043627
-0.0431769
-0.0426422
-0.0420236
-0.0413226
-0.0405411
-0.0396821
-0.038749
-0.0377459
-0.0366778
-0.0432207
-0.0436552
-0.0440327
-0.0443493
-0.0446008
-0.0447836
-0.0448942
-0.0449293
-0.0448861
-0.0447621
-0.0445552
-0.0442637
-0.0438865
-0.0434233
-0.0428741
-0.04224
-0.0415223
-0.0407234
-0.0398462
-0.0388944
-0.0378723
-0.0367851
-0.0436613
-0.0441024
-0.0444847
-0.0448039
-0.045056
-0.0452372
-0.0453439
-0.0453728
-0.0453211
-0.0451864
-0.0449664
-0.0446596
-0.0442651
-0.0437825
-0.0432121
-0.042555
-0.0418129
-0.0409884
-0.0400845
-0.0391053
-0.0380554
-0.0369402
-0.0442364
-0.0446861
-0.0450745
-0.0453971
-0.0456498
-0.0458287
-0.0459301
-0.0459508
-0.0458879
-0.0457388
-0.0455016
-0.0451747
-0.0447573
-0.0442491
-0.0436508
-0.0429636
-0.0421895
-0.0413312
-0.0403924
-0.0393774
-0.0382911
-0.0371393
-0.0449428
-0.0454029
-0.0457985
-0.0461251
-0.0463783
-0.0465541
-0.0466487
-0.046659
-0.046582
-0.0464151
-0.0461564
-0.0458044
-0.0453585
-0.0448187
-0.0441858
-0.0434613
-0.0426475
-0.0417477
-0.0407658
-0.0397065
-0.0385754
-0.0373786
-0.0457783
-0.0462505
-0.0466544
-0.0469853
-0.0472388
-0.0474106
-0.0474969
-0.0474945
-0.0474003
-0.0472119
-0.0469273
-0.0465452
-0.0460652
-0.0454875
-0.0448132
-0.0440441
-0.0431831
-0.0422338
-0.0412006
-0.0400888
-0.0389045
-0.0376546
-0.0467418
-0.0472276
-0.0476408
-0.0479764
-0.0482297
-0.0483964
-0.0484727
-0.0484551
-0.0483406
-0.0481268
-0.0478117
-0.0473944
-0.0468744
-0.0462524
-0.0455298
-0.0447089
-0.0437929
-0.042786
-0.0416932
-0.0405207
-0.0392749
-0.0379636
-0.0478332
-0.048334
-0.0487573
-0.0490977
-0.0493503
-0.0495108
-0.049575
-0.0495396
-0.0494014
-0.0491581
-0.0488079
-0.0483498
-0.0477838
-0.0471109
-0.0463329
-0.0454525
-0.0444735
-0.0434009
-0.0422403
-0.0409985
-0.0396829
-0.0383019
-0.049053
-0.0495703
-0.0500043
-0.0503495
-0.0506008
-0.0507535
-0.0508036
-0.0507475
-0.050582
-0.0503049
-0.0499144
-0.0494099
-0.0487917
-0.0480609
-0.04722
-0.0462723
-0.0452223
-0.0440756
-0.0428386
-0.041519
-0.0401251
-0.0386661
-0.0504028
-0.0509376
-0.0513828
-0.0517327
-0.0519818
-0.0521252
-0.0521588
-0.0520788
-0.0518823
-0.0515667
-0.0511307
-0.0505737
-0.0498965
-0.0491008
-0.0481893
-0.0471662
-0.0460367
-0.0448071
-0.0434849
-0.0420787
-0.0405979
-0.0390526
-0.0518842
-0.0524378
-0.0528947
-0.0532489
-0.0534947
-0.053627
-0.0536414
-0.0535343
-0.0533025
-0.0529436
-0.0524564
-0.0518407
-0.0510975
-0.0502291
-0.049239
-0.048132
-0.0469141
-0.0455927
-0.0441763
-0.0426745
-0.0410979
-0.0394577
-0.0534999
-0.0540731
-0.054542
-0.0549
-0.0551413
-0.0552604
-0.055253
-0.0551151
-0.0548435
-0.054436
-0.0538916
-0.0532105
-0.052394
-0.051445
-0.0503678
-0.0491679
-0.0478524
-0.0464298
-0.0449098
-0.0433031
-0.0416216
-0.0398779
-0.0552526
-0.0558463
-0.0563273
-0.0566886
-0.0569239
-0.0570276
-0.0569952
-0.0568226
-0.0565066
-0.056045
-0.055437
-0.0546832
-0.0537856
-0.0527476
-0.0515743
-0.0502722
-0.0488495
-0.047316
-0.0456825
-0.0439613
-0.0421656
-0.0403096
-0.0571457
-0.0577607
-0.0582538
-0.0586175
-0.0588452
-0.0589311
-0.0588703
-0.0586588
-0.0582933
-0.0577716
-0.0570933
-0.0562594
-0.0552723
-0.0541363
-0.0528575
-0.0514434
-0.0499034
-0.0482486
-0.0464915
-0.0446458
-0.0427264
-0.0407489
-0.0591827
-0.0598197
-0.0603247
-0.0606899
-0.0609082
-0.0609735
-0.0608809
-0.060626
-0.0602055
-0.0596174
-0.0588617
-0.0579395
-0.0568543
-0.0556109
-0.0542165
-0.05268
-0.0510121
-0.0492253
-0.047334
-0.0453535
-0.0433004
-0.0411922
-0.0613674
-0.0620269
-0.0625437
-0.0629093
-0.063116
-0.0631579
-0.0630297
-0.0627267
-0.0622454
-0.0615843
-0.0607434
-0.0597246
-0.0585318
-0.0571712
-0.0556507
-0.0539808
-0.0521737
-0.0502438
-0.0482071
-0.046081
-0.043884
-0.0416356
-0.063704
-0.0643865
-0.0649147
-0.0652794
-0.0654724
-0.0654879
-0.06532
-0.0649637
-0.0644155
-0.0636743
-0.0627401
-0.0616157
-0.0603056
-0.0588171
-0.0571594
-0.0553445
-0.0533865
-0.0513015
-0.0491078
-0.0468249
-0.0444735
-0.042075
-0.0661966
-0.0669024
-0.0674415
-0.0678041
-0.0679819
-0.0679674
-0.0677551
-0.0673399
-0.0667185
-0.0658896
-0.0648537
-0.0636141
-0.0621764
-0.0605487
-0.0587421
-0.05677
-0.0546485
-0.0523962
-0.0500333
-0.0475819
-0.0450651
-0.0425066
-0.0688496
-0.069579
-0.0701281
-0.070487
-0.0706475
-0.0705995
-0.0703383
-0.0698586
-0.0691572
-0.0682327
-0.0670862
-0.0657214
-0.064145
-0.0623665
-0.0603983
-0.0582561
-0.0559581
-0.0535252
-0.0509805
-0.0483485
-0.0456549
-0.042926
-0.0716674
-0.0724204
-0.072979
-0.0733325
-0.0734717
-0.0733873
-0.0730729
-0.0725231
-0.0717347
-0.0707065
-0.0694398
-0.0679393
-0.0662126
-0.0642706
-0.0621278
-0.0598018
-0.0573135
-0.0546863
-0.0519462
-0.0491209
-0.0462389
-0.0433292
-0.0746544
-0.0754311
-0.0759985
-0.0763448
-0.07646
-0.0763353
-0.0759629
-0.0753371
-0.0744544
-0.0733138
-0.0719171
-0.0702697
-0.0683804
-0.0662619
-0.0639304
-0.0614062
-0.0587127
-0.0558768
-0.0529274
-0.0498956
-0.046813
-0.0437116
-0.0778148
-0.0786154
-0.0791906
-0.0795281
-0.079617
-0.0794479
-0.0790124