/*--------------------------------*- C++ -*----------------------------------*\
  =========                 |
  \\      /  F ield         | OpenFOAM: The Open Source CFD Toolbox
   \\    /   O peration     | Website:  https://openfoam.org
    \\  /    A nd           | Version:  7
     \\/     M anipulation  |
\*---------------------------------------------------------------------------*/
FoamFile
{
    version     2.0;
    format      ascii;
    class       surfaceScalarField;
    location    "20";
    object      phi;
}
// * * * * * * * * * * * * * * * * * * * * * * * * * * * * * * * * * * * * * //

dimensions      [0 3 -1 0 0 0 0];

internalField   nonuniform List<scalar> 
8923
(
-0.000567317
4.03906e-05
-1.22859e-07
-0.00061007
4.28243e-05
-7.20318e-08
-0.000654802
4.47329e-05
-8.92904e-10
-0.000700653
4.57618e-05
8.93065e-08
-0.000746192
4.5344e-05
1.94877e-07
-0.000789502
4.30013e-05
3.09486e-07
-0.000828098
3.81719e-05
4.24193e-07
-0.000859058
3.04324e-05
5.27255e-07
-0.000879073
1.94079e-05
6.07275e-07
-0.000884678
4.94943e-06
6.54934e-07
-0.000872679
-1.26443e-05
6.45186e-07
-0.000840586
-3.26821e-05
5.89207e-07
-0.000787171
-5.38985e-05
4.83818e-07
-0.000712993
-7.45145e-05
3.36741e-07
-0.000620333
-9.28236e-05
1.6374e-07
-0.000512685
-0.00010763
-1.91463e-08
-0.000394037
-0.000118452
-1.95113e-07
-0.000268286
-0.000125399
-3.51805e-07
-0.000138924
-0.000128882
-4.80066e-07
-8.93344e-06
-0.00012942
-5.70628e-07
0.000119221
-0.000127531
-6.23177e-07
0.00024358
-0.000123724
-6.3467e-07
-0.000118464
-6.09932e-07
-0.000563969
8.03658e-05
-0.000606411
8.5267e-05
-0.000650821
8.91421e-05
-0.000696341
9.1282e-05
-0.000741547
9.05506e-05
-0.000784533
8.59864e-05
-0.000822819
7.64585e-05
-0.000853497
6.11099e-05
-0.000873268
3.91797e-05
-0.00087868
1.03606e-05
-0.000866546
-2.4778e-05
-0.00083438
-6.48476e-05
-0.000780955
-0.000107324
-0.000706825
-0.000148644
-0.000614269
-0.00018538
-0.000506772
-0.000215126
-0.00038832
-0.000236905
-0.000262798
-0.000250921
-0.000133691
-0.00025799
-3.97363e-06
-0.000259137
0.000123899
-0.000255404
0.00024797
-0.000247795
-0.000237251
-0.000557306
0.00011976
-0.000599133
0.000127094
-0.000642901
0.00013291
-0.000687764
0.000136145
-0.00073231
0.000135097
-0.000774649
0.000128324
-0.000812321
0.000114131
-0.000842439
9.12275e-05
-0.000861728
5.84695e-05
-0.000866757
1.53897e-05
-0.000854359
-3.71767e-05
-0.000822052
-9.71546e-05
-0.000768608
-0.000160768
-0.000694578
-0.000222674
-0.000602229
-0.00027773
-0.000495038
-0.000322317
-0.000376974
-0.000354968
-0.000251909
-0.000375986
-0.000123308
-0.00038659
5.86875e-06
-0.000388314
0.000133179
-0.000382714
0.00025668
-0.000371296
-0.000355468
-0.000547395
0.000158291
-0.000588309
0.000168008
-0.000631125
0.000175726
-0.000675012
0.000180032
-0.000718579
0.000178665
-0.000759959
0.000169704
-0.000796722
0.000150894
-0.000826013
0.000120518
-0.000844593
7.70492e-05
-0.000849062
1.98587e-05
-0.000836278
-4.99604e-05
-0.000803771
-0.000129662
-0.00075031
-0.000214228
-0.000676436
-0.000296548
-0.000584404
-0.000369762
-0.000477672
-0.000429048
-0.000360191
-0.000472449
-0.000235805
-0.000500372
-0.000107957
-0.000514439
2.04189e-05
-0.00051669
0.000146899
-0.000509194
0.000269557
-0.000493955
-0.000472845
-0.00053433
0.000195689
-0.000574044
0.000207722
-0.00061561
0.000217292
-0.000658216
0.000222638
-0.0007005
0.000220948
-0.000740623
0.000209828
-0.000776198
0.000186469
-0.00080441
0.00014873
-0.000822067
9.47062e-05
-0.000825813
2.36045e-05
-0.000812539
-6.32343e-05
-0.000779785
-0.000162416
-0.00072632
-0.000267693
-0.000652671
-0.000370198
-0.00056107
-0.000461363
-0.000454955
-0.000535163
-0.000338247
-0.000589158
-0.000214758
-0.000623861
-8.78981e-05
-0.000641299
3.94277e-05
-0.000644015
0.000164822
-0.000634589
0.00028638
-0.000615513
-0.000589126
-0.000518237
0.000231696
-0.000556479
0.000245964
-0.000596512
0.000257324
-0.000637548
0.000263675
-0.000678259
0.000261659
-0.000716848
0.000248416
-0.000750972
0.000220593
-0.000777873
0.000175631
-0.000794414
0.000111247
-0.000797292
2.64831e-05
-0.000783441
-7.7086e-05
-0.000750412
-0.000195445
-0.000696971
-0.000321133
-0.000623624
-0.000443545
-0.000532578
-0.000552409
-0.000427239
-0.000640502
-0.000311491
-0.000704905
-0.00018911
-0.000746242
-6.34635e-05
-0.000766946
6.25779e-05
-0.000770057
0.000186648
-0.000758659
0.000306868
-0.000735733
-0.000704074
-0.000499268
0.000266074
-0.000535784
0.00028248
-0.000574018
0.000295558
-0.000613216
0.000302873
-0.000652087
0.00030053
-0.000688883
0.000285212
-0.000721318
0.000253028
-0.000746696
0.000201009
-0.000761949
0.0001265
-0.000763837
2.83716e-05
-0.000749341
-9.1583e-05
-0.000716026
-0.000228759
-0.000662654
-0.000374506
-0.0005897
-0.000516498
-0.000499338
-0.000642771
-0.000394937
-0.000744903
-0.000280336
-0.000819505
-0.000159264
-0.000867314
-3.50421e-05
-0.000891168
8.94964e-05
-0.000894595
0.000212024
-0.000881187
0.000330689
-0.000854397
-0.000817476
-0.000477595
0.000298603
-0.000512151
0.000317037
-0.000548345
0.000331752
-0.000585457
0.000339984
-0.000622244
0.000337318
-0.000657013
0.000319981
-0.000687544
0.000283559
-0.000711214
0.000224679
-0.000725032
0.000140318
-0.00072583
2.91697e-05
-0.000710641
-0.000106772
-0.00067705
-0.00026235
-0.000623804
-0.000427752
-0.000551347
-0.000588955
-0.000461808
-0.00073231
-0.000358508
-0.000848204
-0.000245236
-0.000932777
-0.000125667
-0.000986884
-3.02369e-06
-0.00101381
0.000119768
-0.00101739
0.000240556
-0.00100197
0.00035747
-0.000971312
-0.000929144
-0.000453412
0.000329086
-0.0004858
0.000349424
-0.000519734
0.000365687
-0.000554538
0.000374788
-0.000589023
0.000371803
-0.000621557
0.000352515
-0.000649996
0.000311998
-0.000671798
0.000246481
-0.000684057
0.000152577
-0.000683687
2.88e-05
-0.000667781
-0.000122679
-0.000633937
-0.000296194
-0.000580892
-0.000480798
-0.000509045
-0.000660802
-0.000420474
-0.000820881
-0.000318441
-0.000950237
-0.000206677
-0.00104454
-8.87924e-05
-0.00110477
3.19971e-05
-0.0011346
0.000152949
-0.00113834
0.000271819
-0.00112084
0.000386814
-0.00108631
-0.00103891
-0.00042693
0.000357349
-0.000456963
0.000379457
-0.000488446
0.00039717
-0.000520746
0.000407088
-0.000552737
0.000403794
-0.000582856
0.000382634
-0.000609042
0.000338183
-0.000628841
0.00026628
-0.000639444
0.00016318
-0.000637851
2.72072e-05
-0.000621219
-0.000139311
-0.000587164
-0.000330248
-0.000534406
-0.000533556
-0.000463294
-0.000731914
-0.000375839
-0.000908336
-0.000275239
-0.00105084
-0.000165156
-0.00115462
-4.91281e-05
-0.0012208
6.96733e-05
-0.0012534
0.000188581
-0.00125725
0.000305378
-0.00123764
0.000418306
-0.00119923
-0.00114665
-0.000398368
0.000383248
-0.000425889
0.000406978
-0.000454755
0.000426037
-0.000484385
0.000436718
-0.000513719
0.000433128
-0.000541271
0.000410186
-0.000565068
0.000361981
-0.000582757
0.000283969
-0.000591629
0.000172051
-0.000588777
2.43561e-05
-0.000571429
-0.000156659
-0.000537218
-0.000364459
-0.000484843
-0.000585932
-0.000414593
-0.000802163
-0.000328408
-0.000994521
-0.000229407
-0.00114984
-0.000121172
-0.00126286
-7.10736e-06
-0.00133486
0.000109489
-0.00137
0.000226204
-0.00137396
0.000340792
-0.00135223
0.000451527
-0.00130997
0.000557104
-0.00125222
-0.00118362
-0.000367954
0.000406663
-0.000392834
0.000431858
-0.000418948
0.00045215
-0.000445768
0.000463538
-0.00047231
0.00045967
-0.000497171
0.000435047
-0.000518474
0.000383284
-0.000533969
0.000299464
-0.000541056
0.000179138
-0.00053693
2.023e-05
-0.000518889
-0.0001747
-0.000484585
-0.000398763
-0.000432693
-0.000637823
-0.00036344
-0.000871417
-0.000278677
-0.00107928
-0.000181437
-0.00124708
-7.52099e-05
-0.00136909
3.66084e-05
-0.00144668
0.000150977
-0.00148437
0.000265366
-0.00148835
0.000377627
-0.00146449
0.000486063
-0.00141841
0.000589392
-0.00135555
-0.00128095
-0.000335919
0.000427505
-0.000358058
0.000453997
-0.000381312
0.000475403
-0.000405214
0.000487441
-0.000428859
0.000483314
-0.000450932
0.00045712
-0.00046966
0.000402013
-0.000482902
0.000312706
-0.00048817
0.000184406
-0.000482767
1.48266e-05
-0.000464068
-0.000193399
-0.00042974
-0.000433091
-0.000378437
-0.000689126
-0.000310311
-0.000939543
-0.000227123
-0.00116247
-0.000131801
-0.0013424
-2.77131e-05
-0.00147317
8.17283e-05
-0.00155612
0.000193691
-0.00159633
0.000305637
-0.0016003
0.000415468
-0.00157432
0.000521518
-0.00152445
0.000622522
-0.00145656
-0.00137604
-0.000302491
0.000445714
-0.00032182
0.000473326
-0.000342137
0.00049572
-0.000363042
0.000508345
-0.000383712
0.000503984
-0.000402928
0.000476336
-0.000419026
0.00041811
-0.000429974
0.000323655
-0.000433411
0.000187843
-0.000426737
8.15267e-06
-0.000407424
-0.000212712
-0.000373143
-0.000467372
-0.000322531
-0.000739738
-0.000255662
-0.00100641
-0.000174195
-0.00124394
-8.09398e-05
-0.00143566
2.08341e-05
-0.00157495
0.000127783
-0.00166307
0.00023721
-0.00170576
0.000346607
-0.00170969
0.000453922
-0.00168164
0.000557513
-0.00162805
0.000656134
-0.00155518
-0.00146883
-0.000267891
0.000461261
-0.000284371
0.000489806
-0.000301706
0.000513056
-0.000319563
0.000526203
-0.000337209
0.00052163
-0.000353526
0.000492653
-0.00036696
0.000431544
-0.000375597
0.000332292
-0.000377203
0.000189448
-0.000369282
2.32148e-07
-0.000349397
-0.000232597
-0.000315232
-0.000501537
-0.000265409
-0.000789561
-0.00019992
-0.0010719
-0.000120311
-0.00132355
-2.92322e-05
-0.00152673
6.9978e-05
-0.00167416
0.00017437
-0.00176746
0.000281148
-0.00181253
0.000387903
-0.00181645
0.000492625
-0.00178636
0.000593698
-0.00172912
0.000689893
-0.00165137
-0.00155929
-0.000232332
0.000474146
-0.000245954
0.000503428
-0.000260291
0.000527393
-0.00027508
0.000540991
-0.000289681
0.000536231
-0.000303079
0.000506051
-0.000313838
0.000442303
-0.000320164
0.000338618
-0.00031993
0.000189214
-0.000310835
-8.86285e-06
-0.000290397
-0.000253035
-0.000256417
-0.000535517
-0.000207474
-0.000838503
-0.000143478
-0.0011359
-6.58477e-05
-0.00140118
2.28668e-05
-0.00161545
0.000119445
-0.00177074
0.000221126
-0.00186914
0.000325151
-0.00191656
0.00042918
-0.00192048
0.000531245
-0.00188842
0.000629753
-0.00182763
0.000723489
-0.00174511
-0.00164741
-0.00019601
0.000484398
-0.000206797
0.000514215
-0.00021815
0.000538745
-0.000229878
0.00055272
-0.000241438
0.00054779
-0.000251923
0.000516536
-0.000260017
0.000450397
-0.000264047
0.000342649
-0.000262023
0.00018719
-0.000251739
-1.91471e-05
-0.000230813
-0.00027396
-0.000197077
-0.000569253
-0.000149096
-0.000886484
-8.66908e-05
-0.0011983
-1.10249e-05
-0.00147685
7.49564e-05
-0.00170143
0.000168873
-0.00186465
0.000267725
-0.00196799
0.000368903
-0.00201774
0.000470132
-0.00202171
0.000569484
-0.00198778
0.000665389
-0.00192353
0.000756643
-0.00183636
-0.00173317
-0.000159105
0.000492078
-0.000167109
0.000522219
-0.000175521
0.000547157
-0.000184224
0.000561423
-0.000192773
0.000556339
-0.000200373
0.000524136
-0.000205829
0.000455853
-0.000207595
0.000344415
-0.000203811
0.000183406
-0.000192376
-3.05827e-05
-0.000170999
-0.000295337
-0.000137562
-0.00060269
-9.06091e-05
-0.000933437
-2.98409e-05
-0.00125907
4.33752e-05
-0.00155006
0.000126866
-0.00178492
0.000217957
-0.00195574
0.000313877
-0.00206391
0.000412122
-0.00211598
0.000510486
-0.00212007
0.000607078
-0.00208437
0.000700351
-0.0020168
0.000789109
-0.00192512
-0.00181658
-0.000121776
0.000497274
-0.000127078
0.00052752
-0.000132621
0.000552701
-0.000138362
0.000567164
-0.000143955
0.000561932
-0.000148718
0.000528899
-0.000151582
0.000458717
-0.000151125
0.000343958
-0.000145617
0.000177898
-0.000133068
-4.3132e-05
-0.000111279
-0.000317126
-7.81826e-05
-0.000635786
-3.22836e-05
-0.000979336
2.66513e-05
-0.00131801
9.74767e-05
-0.00162089
0.000178281
-0.00186573
0.000266432
-0.00204389
0.000359324
-0.00215681
0.000454562
-0.00221122
0.000550003
-0.00221551
0.000643796
-0.00217816
0.000734413
-0.00210742
0.000820668
-0.00201138
-0.00189764
-8.41583e-05
0.000500098
-8.68661e-05
0.000530228
-8.96406e-05
0.000555475
-9.25086e-05
0.000570032
-9.52234e-05
0.000564647
-9.72189e-05
0.000530895
-9.75506e-05
0.000459049
-9.49248e-05
0.000341332
-8.77383e-05
0.000170711
-7.41118e-05
-5.67585e-05
-5.19398e-05
-0.000339298
-1.91735e-05
-0.000668552
2.55135e-05
-0.00102402
8.24927e-05
-0.00137498
0.000150958
-0.00168935
0.00022895
-0.00194372
0.000314061
-0.002129
0.000403843
-0.00224659
0.000496006
-0.00230338
0.000588475
-0.00230798
0.000679437
-0.00226912
0.000767382
-0.00219537
0.000851131
-0.00209512
-0.00197636
-4.6362e-05
0.000500692
-4.66121e-05
0.000530478
-4.67438e-05
0.000555607
-4.68533e-05
0.000570141
-4.67914e-05
0.000564585
-4.61073e-05
0.00053021
-4.39821e-05
0.000456923
-3.9251e-05
0.000336601
-3.0435e-05
0.000161895
-1.57543e-05
-7.14393e-05
6.82053e-06
-0.000361873
3.90299e-05
-0.000700762
8.24888e-05
-0.00106748
0.000137602
-0.0014301
0.000203571
-0.00175532
0.000278655
-0.0020188
0.00036064
-0.00221099
0.000447238
-0.00233319
0.000536267
-0.00239241
0.000625723
-0.00239744
0.000713829
-0.00235723
0.000799092
-0.00228063
0.000880339
-0.00217637
-0.00205276
-8.47667e-06
0.000499216
-6.4376e-06
0.000528439
-4.08303e-06
0.000553252
-1.59524e-06
0.000567654
1.12352e-06
0.000561866
4.40731e-06
0.000526927
8.90946e-06
0.000452421
1.56734e-05
0.000329837
2.60573e-05
0.000151512
4.17119e-05
-8.70938e-05
6.45235e-05
-0.000384685
9.63421e-05
-0.00073258
0.000138577
-0.00110972
0.00019172
-0.00148324
0.000255112
-0.00181871
0.000327205
-0.0020909
0.000405989
-0.00228977
0.000489337
-0.00241653
0.000575185
-0.00247826
0.000661595
-0.00248385
0.000746826
-0.00244246
0.000829403
-0.00236321
0.000908156
-0.00225513
-0.00212685
2.94555e-05
0.000495857
3.36187e-05
0.000524276
3.82951e-05
0.000548576
4.3265e-05
0.000562684
4.84902e-05
0.000556641
5.41959e-05
0.000521221
6.09501e-05
0.000445667
6.96603e-05
0.000321127
8.15473e-05
0.000139625
9.81477e-05
-0.000103694
0.000121238
-0.000407775
0.000152578
-0.000763921
0.00019354
-0.00115068
0.000244655
-0.00153436
0.000305402
-0.00187946
0.000374434
-0.00215993
0.000449949
-0.00236529
0.000529996
-0.00249658
0.000612623
-0.00256089
0.000695962
-0.00256719
0.000778308
-0.00252481
0.000858199
-0.0024431
0.000934471
-0.0023314
-0.00219866
6.73896e-05
0.000490819
7.3466e-05
0.000518199
8.02622e-05
0.00054178
8.75085e-05
0.000555438
9.50793e-05
0.00054907
0.000103092
0.000513209
0.00011199
0.000436769
0.000122554
0.000310563
0.000135878
0.000126301
0.000153379
-0.000121195
0.000176715
-0.000431112
0.000207551
-0.000794756
0.000247205
-0.00119033
0.000296244
-0.0015834
0.000354285
-0.0019375
0.000420192
-0.00222583
0.000492384
-0.00243748
0.000569086
-0.00257328
0.000648464
-0.00264027
0.000728717
-0.00264744
0.000808172
-0.00260426
0.000885384
-0.00252031
0.000959191
-0.0024052
-0.00226822
0.00010532
0.000113088
0.000510432
0.000121789
0.000533079
0.00013111
0.000546117
0.000140845
0.000539335
0.000151006
0.000503047
0.000161917
0.000425858
0.000174232
0.000298248
0.000188915
0.000111618
0.000207264
-0.000139544
0.000230813
-0.00045466
0.000261114
-0.000825058
0.000299426
-0.00122864
0.000346343
-0.00163031
0.000401623
-0.00199278
0.000464352
-0.00228856
0.000533176
-0.00250631
0.000606501
-0.00264661
0.000682611
-0.00271637
0.000759769
-0.0027246
0.000836337
-0.00268083
0.000910882
-0.00259485
0.000982246
-0.00247657
-0.00233556
0.000152486
0.000501209
0.000162859
0.000522705
0.000174036
0.000534941
0.000185735
0.000527635
0.000197873
0.000490909
0.000210652
0.000413079
0.000224602
0.000284299
0.000240559
9.56604e-05
0.000259696
-0.000158681
0.000283414
-0.000478379
0.000313148
-0.000854792
0.000350079
-0.00126558
0.000394827
-0.00167506
0.000447295
-0.00204525
0.000506801
-0.00234807
0.000572222
-0.00257173
0.000642149
-0.00271653
0.00071498
-0.00278921
0.000789045
-0.00279866
0.000862736
-0.00275452
0.000934633
-0.00266675
0.00100358
-0.00254551
-0.0024007
0.000191683
0.000490781
0.000203483
0.000510906
0.000216279
0.000522144
0.000229729
0.000514185
0.000243655
0.000476984
0.000258144
0.000398589
0.000273602
0.000268841
0.000290737
7.85259e-05
0.000310591
-0.000178535
0.000334428
-0.000502215
0.00036355
-0.000883914
0.000399057
-0.00130108
0.000441587
-0.00171759
0.000491197
-0.00209486
0.00054744
-0.00240431
0.000609435
-0.00263372
0.000675952
-0.00278305
0.000745507
-0.00285876
0.000816488
-0.00286964
0.000887318
-0.00282535
0.000956589
-0.00273602
0.00102315
-0.00261207
-0.00246369
0.000230721
0.000479405
0.00024369
0.000497937
0.000257859
0.000507976
0.00027283
0.000499213
0.000288341
0.000461473
0.00030437
0.00038256
0.000321198
0.000252014
0.000339402
6.03217e-05
0.000359892
-0.000199026
0.000383783
-0.000526106
0.000412239
-0.000912371
0.000446267
-0.00133511
0.000486527
-0.00175785
0.000533234
-0.00214157
0.000586185
-0.00245726
0.000644739
-0.00269228
0.000707847
-0.00284616
0.000774135
-0.00292505
0.00084205
-0.00293756
0.000910044
-0.00289335
0.000976719
-0.0028027
0.00104092
-0.00267628
-0.00252456
0.000269657
0.000467346
0.000283529
0.000484065
0.000298812
0.000492692
0.000315066
0.00048296
0.000331947
0.000444592
0.000349331
0.000365176
0.000367375
0.00023397
0.000386527
4.11697e-05
0.000407559
-0.000220058
0.000431426
-0.000549974
0.000459147
-0.000940091
0.000491631
-0.0013676
0.000529564
-0.00179578
0.000573326
-0.00218533
0.000622962
-0.0025069
0.000678071
-0.00274739
0.000737781
-0.00290587
0.000800822
-0.00298809
0.000865697
-0.00300243
0.000930885
-0.00295853
0.000995
-0.00286681
0.00105689
-0.00273817
-0.00258336
0.000308557
0.00045487
0.000323063
0.000469559
0.000339196
0.000476559
0.000356481
0.000465675
0.000374507
0.000426566
0.000393049
0.000346633
0.000412138
0.000214882
0.000432097
2.12101e-05
0.000453569
-0.00024153
0.000477317
-0.000573721
0.000504216
-0.00096699
0.000535081
-0.00139846
0.000570624
-0.00183132
0.000611402
-0.00222611
0.000657709
-0.00255321
0.000709381
-0.00279906
0.000765714
-0.0029622
0.000825537
-0.00304791
0.000887406
-0.0030643
0.000949826
-0.00302095
0.00101142
-0.00292841
0.00107104
-0.00279779
-0.00264014
0.000347495
0.000442246
0.000362362
0.000454692
0.000379076
0.000459845
0.000397135
0.000447615
0.000416071
0.00040763
0.000435561
0.000327143
0.000455528
0.000194915
0.000476139
5.98545e-07
0.000497915
-0.000263306
0.000521426
-0.000597232
0.0005474
-0.000992964
0.000576555
-0.00142762
0.000609643
-0.00186441
0.000647401
-0.00226386
0.000690374
-0.00259618
0.000738626
-0.00284731
0.000791613
-0.00301519
0.000848257
-0.00310455
0.000907162
-0.00312321
0.000966856
-0.00308065
0.00102597
-0.00298752
0.00108337
-0.00285519
-0.00269494
0.000386541
0.000429737
0.000401499
0.000439733
0.000418524
0.00044282
0.000437099
0.000429041
0.000456701
0.000388028
0.000476922
0.000306922
0.000497545
0.000174292
0.000518695
-2.05518e-05
0.000540593
-0.000285204
0.000563732
-0.000620371
0.000588658
-0.00101789
0.000616001
-0.00145496
0.000646564
-0.00189497
0.000681271
-0.00229857
0.000720914
-0.00263582
0.000765775
-0.00289217
0.000815457
-0.00306487
0.000868968
-0.00315807
0.000924957
-0.0031792
0.000981975
-0.00313767
0.00103867
-0.00304422
0.0010939
-0.00291041
-0.00274782
0.000425761
0.000417603
0.000440546
0.000424948
0.000457615
0.000425751
0.000476442
0.000410214
0.000496463
0.000368007
0.000517184
0.000286201
0.000538289
0.000153188
0.000559735
-4.1998e-05
0.00058161
-0.000307078
0.000604216
-0.000642977
0.000627952
-0.00104163
0.00065337
-0.00148038
0.000681335
-0.00192294
0.000712967
-0.0023302
0.000749294
-0.00267215
0.000790803
-0.00293368
0.000837232
-0.0031113
0.000887664
-0.0032085
0.000940793
-0.00323233
0.000995189
-0.00319206
0.00104951
-0.00309854
0.00110262
-0.00296352
-0.00279883
0.000465212
0.000406093
0.000479566
0.000410594
0.000496418
0.000408899
0.000515238
0.000391394
0.000535426
0.000347819
0.000556412
0.000265215
0.000577781
0.000131819
0.000599321
-6.35375e-05
0.000620965
-0.000328723
0.00064286
-0.000664872
0.000665246
-0.00106401
0.000688616
-0.00150375
0.000713913
-0.00194824
0.000742451
-0.00235874
0.000775488
-0.00270519
0.000813694
-0.00297189
0.00085693
-0.00315454
0.000904346
-0.00325591
0.000954675
-0.00328265
0.00100651
-0.0032439
0.00105852
-0.00315056
0.00110958
-0.00301458
-0.00284803
0.000504929
0.000395448
0.000518606
0.000396917
0.000534988
0.000392517
0.000553546
0.000372836
0.00057365
0.000327714
0.000594656
0.000244209
0.000616043
0.000110432
0.000637454
-8.49481e-05
0.000658661
-0.00034993
0.000679643
-0.000685854
0.000700504
-0.00108487
0.000721699
-0.00152494
0.000744261
-0.0019708
0.000769701
-0.00238418
0.000799485
-0.00273497
0.000834451
-0.00300685
0.000874561
-0.00319465
0.000919031
-0.00330038
0.000966625
-0.00333025
0.00101596
-0.00329324
0.00106573
-0.00320032
0.00111479
-0.00306364
-0.00289549
0.000544928
0.000385895
0.000557694
0.000384152
0.000573363
0.000376848
0.000591412
0.000354788
0.000611181
0.000307944
0.000631959
0.000223432
0.000653114
8.92761e-05
0.000674152
-0.000105986
0.000694689
-0.000370467
0.000714541
-0.000705706
0.000733693
-0.00110402
0.000752586
-0.00154383
0.00077236
-0.00199057
0.000794711
-0.00240653
0.000821297
-0.00276156
0.000853094
-0.00303865
0.000890156
-0.00323171
0.00093175
-0.00334198
0.000976679
-0.00337518
0.00102359
-0.00334014
0.00107117
-0.0032479
0.00111829
-0.00311076
-0.00294127
0.000585206
0.000596845
0.000372513
0.000611576
0.000362117
0.000628877
0.000337486
0.000648067
0.000288755
0.000668357
0.000203142
0.000689024
6.86085e-05
0.000709436
-0.000126397
0.000729047
-0.000390078
0.000747527
-0.000724187
0.000764771
-0.00112127
0.00078123
-0.00156029
0.000798161
-0.0020075
0.000817438
-0.00242581
0.000840883
-0.002785
0.00086959
-0.00306736
0.000903685
-0.0032658
0.000942485
-0.00338078
0.000984826
-0.00341752
0.00102937
-0.00338469
0.00107484
-0.00329337
0.0011201
-0.00315603
-0.00298542
0.00063608
0.000362194
0.000649669
0.000348527
0.000666005
0.000321151
0.000684378
0.000270382
0.000703918
0.000183602
0.000723819
4.87072e-05
0.000743339
-0.000145917
0.000761734
-0.000408473
0.000778559
-0.000741012
0.000793654
-0.00113636
0.000807508
-0.00157415
0.000821513
-0.00202151
0.00083771
-0.00244201
0.00085806
-0.00280535
0.000883753
-0.00309305
0.000914975
-0.00329703
0.000951079
-0.00341688
0.000990934
-0.00345737
0.00103323
-0.00342698
0.00107668
-0.00333682
0.00112018
-0.00319952
-0.00302805
0.000675311
0.000353383
0.000687558
0.00033628
0.000702711
0.000305998
0.000720027
0.000253066
0.000738567
0.000165062
0.000757413
2.98615e-05
0.000775729
-0.000164233
0.000792612
-0.000425356
0.000807522
-0.000755922
0.000820268
-0.00114911
0.00083141
-0.00158529
0.000842472
-0.00203257
0.000855637
-0.00245517
0.000872978
-0.00282269
0.000895753
-0.00311582
0.000924192
-0.00332546
0.00095769
-0.00345038
0.000995141
-0.00349482
0.00103526
-0.0034671
0.00107678
-0.00337834
0.00111859
-0.00324133
-0.00306923
0.000714209
0.000346303
0.000724881
0.000325608
0.000738601
0.000292279
0.000754585
0.000237082
0.000771831
0.000147816
0.00078941
1.22832e-05
0.00080626
-0.000181083
0.000821475
-0.000440571
0.000834409
-0.000768856
0.000844865
-0.00115957
0.000853462
-0.00159389
0.000861818
-0.00204093
0.000872187
-0.00246554
0.000886691
-0.0028372
0.000906631
-0.00313576
0.000932294
-0.00335113
0.000963134
-0.00348122
0.000998107
-0.0035298
0.00103597
-0.00350496
0.00107549
-0.00341786
0.00111555
-0.0032814
-0.00310893
0.00304643
0.000324072
0.00308637
0.000285666
0.00314439
0.000234261
0.00322039
0.000161078
0.00331281
5.54023e-05
0.00341975
-9.46656e-05
0.00353907
-0.000300402
0.00366634
-0.000567836
0.00379658
-0.000899102
0.00392427
-0.00128725
0.00404471
-0.00171433
0.00415588
-0.0021521
0.00425865
-0.00256831
0.00435555
-0.0029341
0.0044489
-0.00322911
0.00453983
-0.00344206
0.00462831
-0.0035697
0.00471369
-0.00361518
0.00479529
-0.00358656
0.00487264
-0.00349521
0.00494556
-0.00335433
0.00501414
-0.00317751
-0.00297745
0.00377356
0.000321096
0.0037962
0.000263025
0.00383852
0.000191941
0.00389996
9.96412e-05
0.00398
-2.46369e-05
0.00407532
-0.00018999
0.00418252
-0.000407602
0.00429732
-0.000682632
0.00441431
-0.00101609
0.00452796
-0.0014009
0.00463377
-0.00182014
0.00472956
-0.00224788
0.00481549
-0.00265424
0.00489317
-0.00301178
0.00496429
-0.00330023
0.00503002
-0.00350779
0.00509101
-0.00363068
0.00514766
-0.00367183
0.00520043
-0.00363933
0.00524989
-0.00354467
0.00529667
-0.00340111
0.00534134
-0.00322218
-0.00302042
0.00456967
0.000339302
0.00457229
0.000260411
0.00459568
0.000168551
0.00463941
5.59065e-05
0.00470172
-8.69402e-05
0.00478047
-0.000268741
0.00487141
-0.000498544
0.00496983
-0.000781052
0.00507009
-0.00111635
0.00516644
-0.00149725
0.0052541
-0.0019078
0.00533032
-0.00232411
0.00539454
-0.00271846
0.00544775
-0.00306499
0.00549156
-0.00334404
0.00552763
-0.00354387
0.00555757
-0.00366062
0.00558292
-0.00369718
0.00560519
-0.0036616
0.00562579
-0.00356527
0.00564591
-0.00342123
0.00566642
-0.00324269
-0.00304187
0.00540017
0.000375776
0.00538418
0.000276407
0.0053887
0.00016403
0.00541308
3.15221e-05
0.00545597
-0.000129825
0.0055148
-0.000327574
0.00558548
-0.000569224
0.00566306
-0.00085863
0.00574174
-0.00119503
0.00581561
-0.00157112
0.00587966
-0.00197185
0.00593073
-0.00237518
0.00596785
-0.00275558
0.00599183
-0.00308897
0.00600455
-0.00335675
0.00600838
-0.0035477
0.0060059
-0.00365814
0.00599962
-0.00369091
0.00599191
-0.00365388
0.00598475
-0.00355811
0.00597967
-0.00341614
0.00597766
-0.00324068
-0.00304342
0.00621614
0.000422818
0.00618723
0.000305318
0.00617672
0.000174541
0.00618406
2.41751e-05
0.00620825
-0.000154009
0.00624659
-0.000365917
0.00629519
-0.000617824
0.00634914
-0.000912586
0.00640275
-0.00124864
0.00645019
-0.00161856
0.00648648
-0.00200814
0.00650844
-0.00239714
0.00651509
-0.00276222
0.00650738
-0.00308127
0.00648768
-0.00333704
0.00645907
-0.0035191
0.00642496
-0.00362402
0.00638863
-0.00365458
0.00635301
-0.00361826
0.00632045
-0.00352555
0.00629262
-0.00338831
0.00627048
-0.00321854
-0.00302735
0.0069664
0.000470313
0.00693299
0.000338729
0.00691423
0.000193305
0.00690987
2.85367e-05
0.00691899
-0.000163137
0.00693918
-0.000386102
0.00696677
-0.000645418
0.00699716
-0.000942969
0.00702498
-0.00127646
0.00704482
-0.0016384
0.0070521
-0.00201542
0.00704398
-0.00238901
0.00701978
-0.00273803
0.00698089
-0.00304238
0.00693019
-0.00328634
0.00687141
-0.00346032
0.00680857
-0.00356118
0.00674546
-0.00359148
0.00668535
-0.00355815
0.00663074
-0.00347093
0.0065833
-0.00334087
0.00654392
-0.00317916
-0.00299621
0.00761269
0.000509395
0.00758298
0.00036844
0.00756336
0.000212919
0.00755377
3.81251e-05
0.00755328
-0.000162643
0.00755979
-0.000392611
0.00756997
-0.000655597
0.00757962
-0.000952621
0.00758396
-0.0012808
0.00757822
-0.00163266
0.00755849
-0.00199569
0.00752254
-0.00235307
0.00747027
-0.00268575
0.00740356
-0.00297567
0.0073258
-0.00320859
0.00724121
-0.00337574
0.00715421
-0.00347418
0.00706888
-0.00350614
0.00698861
-0.00347788
0.00691594
-0.00339827
0.00685248
-0.00327741
0.00679897
-0.00312565
-0.00295269
0.00813936
0.000535084
0.00811876
0.000389032
0.00810389
0.000227796
0.00809461
4.74077e-05
0.00808987
-0.00015791
0.00808782
-0.000390558
0.00808544
-0.000653219
0.008079
-0.000946184
0.00806437
-0.00126617
0.00803754
-0.00160583
0.00799541
-0.00195357
0.0079365
-0.00229416
0.00786131
-0.00261056
0.00777225
-0.00288661
0.00767312
-0.00310945
0.00756843
-0.00327105
0.00746281
-0.00336856
0.00736045
-0.00340378
0.00726477
-0.0033822
0.00717825
-0.00331175
0.00710241
-0.00320157
0.00703788
-0.00306113
-0.00289941
0.00855314
0.000546654
0.00854343
0.000398738
0.00853589
0.000235334
0.0085302
5.31002e-05
0.0085251
-0.000152813
0.0085188
-0.000384256
0.00850857
-0.000642983
0.00849108
-0.000928702
0.00846283
-0.00123792
0.00842057
-0.00156356
0.00836198
-0.00189498
0.00828628
-0.00221846
0.00819455
-0.00251883
0.00808958
-0.00278164
0.00797541
-0.00299529
0.00785673
-0.00315237
0.0077382
-0.00325003
0.007624
-0.00328958
0.00751751
-0.00327571
0.00742113
-0.00321537
0.00733631
-0.00311675
0.00726363
-0.00298844
-0.00283873
0.00887527
0.000546327
0.00887534
0.000398666
0.00887508
0.000235598
0.0088739
5.42792e-05
0.00887033
-0.00014925
0.00886255
-0.000376476
0.00884804
-0.000628473
0.00882384
-0.000904497
0.00878694
-0.00120101
0.00873474
-0.00151136
0.00866559
-0.00182583
0.00857928
-0.00213215
0.00847728
-0.00241683
0.00836262
-0.00266698
0.00823946
-0.00287212
0.00811244
-0.00302535
0.00798619
-0.00312377
0.00786479
-0.00316818
0.00775153
-0.00316245
0.00764875
-0.0031126
0.00755788
-0.00302587
0.00747945
-0.00291002
-0.00277265
0.00913191
0.000537519
0.0091392
0.000391377
0.00914456
0.000230235
0.00914718
5.16555e-05
0.00914544
-0.000147506
0.00913745
-0.00036849
0.00912087
-0.000611889
0.00909301
-0.000876643
0.0090513
-0.0011593
0.00899363
-0.00145369
0.00891884
-0.00175104
0.0088271
-0.00204041
0.00872012
-0.00230985
0.00860101
-0.00254787
0.00847383
-0.00274495
0.00834314
-0.00289466
0.00821338
-0.00299401
0.00808851
-0.00304332
0.00797173
-0.00304568
0.00786534
-0.00300621
0.00777073
-0.00293126
0.00768851
-0.0028278
-0.00270274
0.00934697
0.000523531
0.00935871
0.000379635
0.00936758
0.000221372
0.00937259
4.66462e-05
0.00937205
-0.000146967
0.00936409
-0.00036053
0.00934649
-0.00059429
0.00931683
-0.000846985
0.00927285
-0.00111532
0.00921283
-0.00139367
0.00913594
-0.00167414
0.00904257
-0.00194705
0.00893451
-0.00220179
0.00881477
-0.00242813
0.00868727
-0.00261744
0.00855631
-0.0027637
0.00842615
-0.00286385
0.00830058
-0.00291775
0.00818269
-0.00292778
0.00807473
-0.00289825
0.00797814
-0.00283467
0.00789357
-0.00274323
-0.00263022
0.00953868
0.000506897
0.00955262
0.000365698
0.0095631
0.000210889
0.00956907
4.0675e-05
0.00956887
-0.00014676
0.00956067
-0.000352328
0.00954239
-0.000576017
0.00951187
-0.000816459
0.0094671
-0.00107056
0.00940664
-0.00133321
0.00932988
-0.00159738
0.00923731
-0.00185448
0.00913068
-0.00209516
0.00901283
-0.00231028
0.00888741
-0.00249202
0.00875846
-0.00263475
0.00862997
-0.00273536
0.00850555
-0.00279333
0.00838819
-0.00281042
0.0082801
-0.00279016
0.00818275
-0.00273732
0.00809687
-0.00265735
-0.00255595
0.0097191
0.000489274
0.0097337
0.000351101
0.00974447
0.000200122
0.00975032