/*--------------------------------*- C++ -*----------------------------------*\
  =========                 |
  \\      /  F ield         | OpenFOAM: The Open Source CFD Toolbox
   \\    /   O peration     | Website:  https://openfoam.org
    \\  /    A nd           | Version:  7
     \\/     M anipulation  |
\*---------------------------------------------------------------------------*/
FoamFile
{
    version     2.0;
    format      ascii;
    class       volScalarField;
    location    "20";
    object      p;
}
// * * * * * * * * * * * * * * * * * * * * * * * * * * * * * * * * * * * * * //

dimensions      [0 2 -2 0 0 0 0];

internalField   nonuniform List<scalar> 
4575
(
-0.0575659
-0.0597906
-0.0491782
-0.0735863
-0.0617679
-0.0509387
-0.0406023
-0.0768651
-0.0639179
-0.0524293
-0.0418912
-0.0318457
-0.0807193
-0.0666114
-0.0540197
-0.0428834
-0.0326552
-0.0229163
-0.0852199
-0.0698322
-0.0561119
-0.0439007
-0.0331391
-0.0232389
-0.0138227
-0.0904533
-0.0736443
-0.0586825
-0.045377
-0.0335711
-0.0232058
-0.0136517
-0.00457435
-0.0964982
-0.0781302
-0.0617879
-0.0472816
-0.0344178
-0.0230418
-0.0130943
-0.00390428
0.00481786
-0.103425
-0.0833662
-0.0655073
-0.0496636
-0.0356419
-0.0232463
-0.0123245
-0.00281616
0.00599153
0.0143415
-0.111269
-0.0894218
-0.0699145
-0.0525989
-0.037285
-0.0237763
-0.0118752
-0.00143195
0.00761602
0.0160226
0.0239818
-0.119981
-0.0963352
-0.0750785
-0.0561596
-0.0394206
-0.0246666
-0.0116986
-0.000317712
0.00962265
0.0181888
0.0261743
0.0337217
-0.129345
-0.104066
-0.0810403
-0.0604139
-0.0421188
-0.0259882
-0.0118231
0.000577239
0.0114125
0.0208254
0.0288882
0.036431
0.0435412
-0.138856
-0.112413
-0.087767
-0.0654056
-0.0454479
-0.0278104
-0.0123185
0.00122975
0.0130367
0.0233013
0.0321623
0.0396997
0.0467756
0.0534152
-0.147575
-0.120894
-0.095073
-0.0711095
-0.049454
-0.0302012
-0.0132533
0.00157107
0.0144762
0.025665
0.035335
0.0436195
0.050609
0.0571888
0.0633103
-0.128603
-0.1025
-0.0773546
-0.0541193
-0.0332092
-0.0146954
0.00153276
0.0156626
0.0279
0.0384477
0.0474998
0.0551835
0.0616026
0.0676508
0.0731871
-0.134092
-0.109174
-0.0837073
-0.0592872
-0.0368233
-0.0166957
0.00104687
0.0165273
0.0299375
0.0414844
0.0513698
0.0597827
0.0668422
0.0726695
0.0781466
0.0830139
-0.135387
-0.113681
-0.0893255
-0.0645483
-0.0409014
-0.0192497
6.07236e-05
0.0170024
0.031709
0.0443767
0.0552126
0.0644169
0.0721707
0.0785838
0.0838029
0.088673
0.0927619
-0.114069
-0.0928323
-0.0690942
-0.045058
-0.022229
-0.00142742
0.0170338
0.0331471
0.0470562
0.0589605
0.0690673
0.0775743
0.0846512
0.0903992
0.0950044
0.0992252
0.102329
-0.108137
-0.0923041
-0.0715873
-0.0485191
-0.025272
-0.00330259
0.0166138
0.0341962
0.049456
0.0625459
0.0736685
0.0830307
0.0908271
0.0972134
0.102289
0.106293
0.109767
0.111456
-0.09419
-0.0855605
-0.0701374
-0.0499885
-0.0276399
-0.00522681
0.0158445
0.0348435
0.05152
0.0659035
0.0781549
0.0884793
0.097084
0.10416
0.109849
0.114267
0.117709
0.120265
0.119929
-0.0708655
-0.0625893
-0.0476145
-0.0280797
-0.00649703
0.0150403
0.0351781
0.0532302
0.0689765
0.0824632
0.0938588
0.103371
0.111207
0.117554
0.122547
0.126345
0.129268
0.130766
0.128396
-0.0475274
-0.0471781
-0.0392718
-0.0247822
-0.00590539
0.0148682
0.0354913
0.0546634
0.0717423
0.0865365
0.099108
0.109632
0.118319
0.125377
0.130988
0.135292
0.138495
0.140868
0.141215
0.139443
-0.0230302
-0.0231745
-0.0156567
-0.00168804
0.0164896
0.036414
0.0560878
0.0742652
0.0903471
0.10417
0.11581
0.12545
0.133301
0.139571
0.144441
0.148056
0.15065
0.152421
0.152118
0.151071
0.00173784
0.00109391
0.00820483
0.0216191
0.0390594
0.0580978
0.0767907
0.0939476
0.109012
0.121847
0.132542
0.141286
0.148291
0.153765
0.157888
0.160812
0.162778
0.163925
0.1631
0.162158
0.0267222
0.0255749
0.0322612
0.04509
0.0617574
0.0798767
0.0975606
0.113674
0.127703
0.139536
0.149275
0.157113
0.163264
0.167936
0.171307
0.173534
0.174857
0.175382
0.174071
0.172948
0.0518683
0.0502154
0.0564602
0.0686746
0.0845372
0.101708
0.118358
0.133409
0.146388
0.157207
0.16598
0.172905
0.178196
0.182059
0.184673
0.186198
0.186868
0.186771
0.184964
0.183523
0.0771211
0.0749619
0.0807493
0.092323
0.107352
0.123547
0.139143
0.153116
0.165033
0.174828
0.182629
0.188634
0.19306
0.196111
0.197965
0.198781
0.198792
0.198068
0.195745
0.193907
0.102425
0.09976
0.105076
0.115985
0.130154
0.145352
0.159875
0.172757
0.183603
0.192369
0.199192
0.204275
0.207833
0.210069
0.211159
0.211263
0.210608
0.209253
0.206397
0.204115
0.127725
0.124555
0.129386
0.13961
0.152897
0.167079
0.180516
0.192297
0.202066
0.209799
0.215641
0.2198
0.222489
0.223908
0.224234
0.223624
0.222299
0.220309
0.216908
0.214152
0.152965
0.149294
0.153628
0.163147
0.175534
0.188684
0.201024
0.211699
0.220387
0.227086
0.231948
0.235183
0.237003
0.237607
0.237168
0.235844
0.233847
0.23122
0.227267
0.224018
0.17809
0.17392
0.177748
0.186547
0.198019
0.210125
0.221361
0.230926
0.238534
0.244199
0.248084
0.250397
0.251351
0.251143
0.249942
0.247904
0.245236
0.241972
0.237463
0.233708
0.203044
0.19838
0.201695
0.20976
0.220304
0.231359
0.241487
0.249943
0.256473
0.261109
0.264021
0.265417
0.26551
0.264493
0.262533
0.259785
0.256448
0.252549
0.247485
0.227773
0.22262
0.225414
0.232737
0.242344
0.252343
0.261365
0.268714
0.274172
0.277785
0.27973
0.280217
0.279455
0.277636
0.274924
0.27147
0.267468
0.262938
0.257323
0.252222
0.246587
0.248856
0.255428
0.264094
0.273036
0.280954
0.287204
0.291597
0.294198
0.295185
0.294771
0.293163
0.29055
0.287092
0.28294
0.278279
0.273126
0.266965
0.276337
0.270227
0.271969
0.277787
0.285509
0.293397
0.300218
0.305378
0.308718
0.310316
0.310358
0.309054
0.306611
0.303214
0.299021
0.294179
0.288867
0.283097
0.300066
0.293488
0.294702
0.299764
0.306546
0.313386
0.31912
0.323202
0.325503
0.326113
0.325223
0.323043
0.319777
0.315607
0.310689
0.305168
0.299215
0.292839
0.323356
0.31632
0.317007
0.321314
0.32716
0.332962
0.337622
0.340643
0.34192
0.341559
0.339753
0.336712
0.332637
0.327709
0.32208
0.315891
0.309308
0.302338
0.346156
0.338672
0.338836
0.342392
0.347311
0.352087
0.35569
0.357667
0.35794
0.356627
0.353923
0.350038
0.345172
0.3395
0.333174
0.326332
0.319132
0.311581
0.368416
0.360496
0.36014
0.362953
0.366956
0.370724
0.373288
0.374243
0.373534
0.371289
0.367707
0.362998
0.357358
0.350961
0.343954
0.336473
0.328671
0.390087
0.381742
0.380874
0.382954
0.386056
0.388834
0.390384
0.39034
0.388672
0.38552
0.381083
0.37557
0.369177
0.362072
0.354403
0.3463
0.337911
0.411123
0.402365
0.400994
0.402353
0.404572
0.406383
0.406943
0.405927
0.403327
0.399292
0.394024
0.387732
0.380607
0.372816
0.364503
0.355796
0.346837
0.431476
0.422319
0.420455
0.421109
0.422466
0.423336
0.422934
0.420975
0.417472
0.412582
0.40651
0.399462
0.391628
0.383173
0.374237
0.364947
0.355437
0.451103
0.441561
0.439217
0.439183
0.439703
0.43966
0.438326
0.435455
0.431081
0.425366
0.418517
0.410741
0.402224
0.393128
0.383591
0.373737
0.469961
0.460049
0.457238
0.456538
0.456246
0.455321
0.45309
0.449342
0.444128
0.437619
0.430024
0.421548
0.412374
0.402662
0.392548
0.382154
0.488008
0.477742
0.474481
0.473136
0.472063
0.47029
0.467197
0.462607
0.456589
0.44932
0.441011
0.431864
0.422061
0.41176
0.401094
0.390182
0.505206
0.494603
0.490908
0.488945
0.487122
0.484537
0.48062
0.475227
0.468442
0.460449
0.451458
0.441672
0.43127
0.420407
0.409215
0.397809
0.521517
0.510594
0.506485
0.50393
0.501392
0.498034
0.493334
0.487178
0.479664
0.470983
0.461346
0.450954
0.439983
0.428588
0.416896
0.405023
0.536906
0.525681
0.521178
0.51806
0.514844
0.510754
0.505314
0.498437
0.490235
0.480905
0.470658
0.459693
0.448186
0.436288
0.424126
0.551339
0.53983
0.534956
0.531307
0.527452
0.522673
0.516537
0.508982
0.500135
0.490196
0.479376
0.467875
0.455865
0.443496
0.430892
0.564785
0.553012
0.547789
0.543643
0.539189
0.533767
0.526981
0.518795
0.509346
0.498839
0.487486
0.475484
0.463006
0.450197
0.437182
0.577214
0.565198
0.559651
0.555042
0.550033
0.544015
0.536627
0.527856
0.517851
0.506819
0.494972
0.482508
0.469596
0.456382
0.442987
0.588601
0.576362
0.570515
0.565481
0.559962
0.553396
0.545456
0.536149
0.525634
0.51412
0.501822
0.488934
0.475625
0.462039
0.448296
0.598921
0.586479
0.58036
0.574939
0.568956
0.561891
0.553451
0.543658
0.53268
0.52073
0.508022
0.49475
0.481082
0.467158
0.4531
0.60815
0.595527
0.589164
0.583395
0.576996
0.569486
0.560597
0.550369
0.538976
0.526636
0.513562
0.499947
0.485956
0.471732
0.457391
0.61627
0.603487
0.596909
0.590833
0.584066
0.576163
0.566879
0.556268
0.544512
0.531828
0.518432
0.504514
0.490241
0.475751
0.461162
0.623263
0.610342
0.603578
0.597236
0.590153
0.581912
0.572287
0.561346
0.549275
0.536296
0.522622
0.508444
0.493927
0.479209
0.464406
0.629113
0.616078
0.609157
0.602593
0.595245
0.586719
0.576809
0.565592
0.553259
0.540032
0.526126
0.51173
0.497009
0.482099
0.467118
0.633809
0.620681
0.613635
0.606892
0.59933
0.590576
0.580438
0.568999
0.556455
0.543029
0.528936
0.514366
0.499481
0.484418
0.469293
0.637339
0.624142
0.617001
0.610124
0.602401
0.593476
0.583165
0.571559
0.558857
0.545282
0.531049
0.516347
0.501339
0.486161
0.639697
0.626454
0.619249
0.612282
0.604452
0.595412
0.584986
0.573269
0.56046
0.546786
0.532459
0.517669
0.502579
0.487324
0.640877
0.627611
0.620375
0.613362
0.605478
0.596381
0.585898
0.574124
0.561263
0.547538
0.533165
0.518331
0.5032
0.487906
0.640877
0.627611
0.620375
0.613362
0.605478
0.596381
0.585898
0.574124
0.561263
0.547538
0.533165
0.518331
0.5032
0.487906
0.639697
0.626454
0.619249
0.612282
0.604452
0.595412
0.584986
0.573269
0.56046
0.546786
0.532459
0.517669
0.502579
0.487324
0.637339
0.624142
0.617001
0.610124
0.602401
0.593476
0.583165
0.571559
0.558856
0.545282
0.531048
0.516347
0.501339
0.486161
0.633809
0.620681
0.613635
0.606892
0.59933
0.590576
0.580438
0.568999
0.556454
0.543029
0.528936
0.514366
0.499481
0.484418
0.469293
0.629113
0.616078
0.609157
0.602593
0.595244
0.586719
0.576809
0.565592
0.553259
0.540032
0.526126
0.51173
0.497009
0.482099
0.467118
0.623263
0.610342
0.603578
0.597236
0.590153
0.581911
0.572287
0.561346
0.549275
0.536296
0.522622
0.508444
0.493927
0.479208
0.464406
0.61627
0.603487
0.596909
0.590832
0.584066
0.576163
0.566879
0.556268
0.544511
0.531828
0.518432
0.504514
0.49024
0.475751
0.461161
0.60815
0.595527
0.589164
0.583395
0.576996
0.569486
0.560597
0.550369
0.538976
0.526636
0.513562
0.499947
0.485956
0.471731
0.45739
0.598921
0.586478
0.58036
0.574938
0.568955
0.561891
0.553451
0.543658
0.53268
0.52073
0.508022
0.49475
0.481081
0.467158
0.453099
0.588601
0.576362
0.570515
0.565481
0.559962
0.553395
0.545456
0.536149
0.525633
0.51412
0.501822
0.488934
0.475625
0.462039
0.448295
0.577214
0.565198
0.559651
0.555042
0.550033
0.544015
0.536627
0.527856
0.517851
0.506818
0.494972
0.482508
0.469596
0.456382
0.442987
0.564784
0.553012
0.547789
0.543643
0.539189
0.533767
0.526981
0.518795
0.509346
0.498839
0.487486
0.475484
0.463005
0.450197
0.437182
0.551338
0.53983
0.534956
0.531307
0.527451
0.522673
0.516537
0.508982
0.500135
0.490195
0.479376
0.467874
0.455864
0.443495
0.430892
0.536906
0.525681
0.521178
0.51806
0.514844
0.510754
0.505314
0.498436
0.490235
0.480904
0.470657
0.459693
0.448186
0.436288
0.424126
0.521517
0.510594
0.506485
0.503929
0.501391
0.498034
0.493334
0.487177
0.479664
0.470983
0.461346
0.450953
0.439983
0.428587
0.416896
0.405022
0.505206
0.494603
0.490908
0.488944
0.487121
0.484537
0.48062
0.475227
0.468441
0.460448
0.451457
0.441671
0.431269
0.420406
0.409214
0.397808
0.488008
0.477742
0.474481
0.473136
0.472063
0.47029
0.467197
0.462607
0.456589
0.44932
0.441011
0.431863
0.422061
0.41176
0.401094
0.390181
0.469961
0.460048
0.457238
0.456537
0.456246
0.455321
0.453089
0.449341
0.444127
0.437618
0.430024
0.421547
0.412373
0.402661
0.392548
0.382153
0.451103
0.44156
0.439216
0.439183
0.439702
0.439659
0.438325
0.435455
0.43108
0.425365
0.418516
0.41074
0.402223
0.393127
0.38359
0.373737
0.431476
0.422318
0.420455
0.421109
0.422466
0.423336
0.422933
0.420974
0.417472
0.412581
0.406509
0.399462
0.391628
0.383173
0.374237
0.364946
0.355436
0.411122
0.402364
0.400993
0.402353
0.404571
0.406383
0.406942
0.405926
0.403327
0.399291
0.394024
0.387731
0.380606
0.372815
0.364502
0.355795
0.346837
0.390087
0.381741
0.380873
0.382954
0.386055
0.388834
0.390383
0.390339
0.388672
0.385519
0.381082
0.375569
0.369176
0.362072
0.354402
0.346299
0.33791
0.368415
0.360495
0.360139
0.362953
0.366955
0.370723
0.373288
0.374242
0.373533
0.371288
0.367706
0.362997
0.357357
0.35096
0.343953
0.336472
0.32867
0.346155
0.338672
0.338835
0.342392
0.34731
0.352087
0.355689
0.357666
0.357939
0.356626
0.353922
0.350037
0.345171
0.339499
0.333173
0.326331
0.319131
0.311579
0.323355
0.316319
0.317006
0.321314
0.327159
0.332961
0.337621
0.340642
0.341919
0.341558
0.339752
0.336711
0.332636
0.327708
0.322079
0.31589
0.309307
0.302337
0.300065
0.293487
0.294701
0.299763
0.306545
0.313385
0.319119
0.323201
0.325501
0.326112
0.325221
0.323042
0.319776
0.315606
0.310688
0.305167
0.299214
0.292838
0.276336
0.270226
0.271968
0.277785
0.285508
0.293396
0.300217
0.305377
0.308717
0.310315
0.310357
0.309053
0.30661
0.303212
0.299019
0.294177
0.288866
0.283096
0.276397
0.252221
0.246585
0.248855
0.255427
0.264093
0.273035
0.280953
0.287203
0.291596
0.294196
0.295184
0.29477
0.293162
0.290548
0.287091
0.282939
0.278278
0.273124
0.266963
0.227772
0.222619
0.225413
0.232736
0.242343
0.252342
0.261363
0.268713
0.27417
0.277784
0.279729
0.280215
0.279454
0.277634
0.274922
0.271468
0.267466
0.262937
0.257322
0.203043
0.198378
0.201693
0.209759
0.220302
0.231357
0.241486
0.249942
0.256471
0.261108
0.264019
0.265416
0.265508
0.264491
0.262532
0.259784
0.256446
0.252547
0.247484
0.243215
0.178088
0.173918
0.177747
0.186546
0.198017
0.210123
0.221359
0.230925
0.238532
0.244198
0.248082
0.250396
0.25135
0.251141
0.24994
0.247902
0.245234
0.24197
0.237461
0.233707
0.152963
0.149292
0.153626
0.163145
0.175533
0.188682
0.201022
0.211697
0.220385
0.227084
0.231946
0.235181
0.237001
0.237606
0.237167
0.235842
0.233845
0.231219
0.227265
0.224016
0.127723
0.124553
0.129384
0.139608
0.152896
0.167077
0.180514
0.192295
0.202064
0.209797
0.21564
0.219798
0.222487
0.223907
0.224232
0.223622
0.222297
0.220307
0.216906
0.21415
0.102423
0.0997579
0.105074
0.115983
0.130152
0.14535
0.159873
0.172755
0.183601
0.192367
0.19919
0.204273
0.207831
0.210067
0.211157
0.211261
0.210606
0.209251
0.206395
0.204113
0.0771188
0.0749596
0.080747
0.0923208
0.10735
0.123545
0.139141
0.153114
0.16503
0.174826
0.182626
0.188632
0.193058
0.196109
0.197963
0.198779
0.19879
0.198066
0.195743
0.193905
0.0518658
0.0502129
0.0564577
0.0686722
0.0845349
0.101705
0.118356
0.133407
0.146386
0.157204
0.165978
0.172902
0.178194
0.182057
0.184671
0.186195
0.186866
0.186769
0.184962
0.183521
0.0267195
0.0255722
0.0322585
0.0450874
0.0617549
0.0798742
0.0975582
0.113672
0.127701
0.139533
0.149272
0.157111
0.163262
0.167934
0.171305
0.173532
0.174855
0.17538
0.174069
0.172946
0.001735
0.00109101
0.00820196
0.0216163
0.0390566
0.0580951
0.0767881
0.093945
0.109009
0.121844
0.13254
0.141283
0.148289
0.153763
0.157886
0.16081
0.162776
0.163923
0.163097
0.162156
-0.0230332
-0.0231776
-0.0156598
-0.00169105
0.0164867
0.0364111
0.056085
0.0742625
0.0903444
0.104167
0.115808
0.125448
0.133299
0.139568
0.144438
0.148054
0.150648
0.152419
0.152116
0.151069
-0.0475307
-0.0471814
-0.0392751
-0.0247855
-0.0059085
0.0148652
0.0354884
0.0546606
0.0717394
0.0865337
0.0991053
0.10963
0.118317
0.125374
0.130986
0.13529
0.138493
0.140866
0.141213
0.139441
-0.0708691
-0.0625928
-0.0476179
-0.0280831
-0.00650025
0.0150372
0.0351751
0.0532272
0.0689736
0.0824603
0.093856
0.103368
0.111204
0.117551
0.122545
0.126343
0.129266
0.130764
0.128393
-0.0941938
-0.0855643
-0.070141
-0.0499921
-0.0276433
-0.00523012
0.0158413
0.0348403
0.0515169
0.0659005
0.078152
0.0884764
0.0970812
0.104157
0.109846
0.114265
0.117706
0.120262
0.119926
-0.108141
-0.092308
-0.071591
-0.0485228
-0.0252755
-0.00330599
0.0166105
0.034193
0.0494528
0.0625429
0.0736655
0.0830277
0.0908243
0.0972106
0.102286
0.10629
0.109765
0.111453
-0.114073
-0.0928363
-0.069098
-0.0450617
-0.0222326
-0.00143091
0.0170304
0.0331438
0.0470529
0.0589574
0.0690642
0.0775713
0.0846483
0.0903964
0.0950017
0.0992226
0.102326
-0.135391
-0.113685
-0.0893295
-0.0645522
-0.0409052
-0.0192534
5.71599e-05
0.0169989
0.0317057
0.0443734
0.0552094
0.0644138
0.0721677
0.0785809
0.0838001
0.0886703
0.0927592
-0.134097
-0.109179
-0.0837115
-0.0592912
-0.0368272
-0.0166995
0.00104324
0.0165237
0.0299341
0.0414811
0.0513666
0.0597796
0.0668392
0.0726666
0.0781438
0.0830111
-0.128608
-0.102505
-0.0773588
-0.0541233
-0.0332131
-0.0146992
0.00152907
0.015659
0.0278965
0.0384443
0.0474966
0.0551804
0.0615996
0.0676478
0.0731843
-0.120899
-0.0950774
-0.0711138
-0.0494581
-0.0302051
-0.0132571
0.00156734
0.0144726
0.0256616
0.0353316
0.0436162
0.0506058
0.0571858
0.0633074
-0.138861
-0.112417
-0.0877715
-0.0654099
-0.045452
-0.0278144
-0.0123224
0.001226
0.013033
0.0232978
0.032159
0.0396964
0.0467724
0.0534122
-0.12935
-0.10407
-0.0810448
-0.0604182
-0.042123
-0.0259922
-0.0118271
0.000573467
0.0114088
0.0208219
0.0288848
0.0364278
0.043538
-0.119985
-0.0963398
-0.075083
-0.056164
-0.0394248
-0.0246706
-0.0117025
-0.000321488
0.00961901
0.0181853
0.026171
0.0337185
-0.111273
-0.0894265
-0.0699191
-0.0526033
-0.0372893
-0.0237804
-0.0118791
-0.00143572
0.0076124
0.0160191
0.0239785
-0.10343
-0.083371
-0.0655118
-0.049668
-0.0356461
-0.0232504
-0.0123284
-0.0028199
0.00598795
0.014338
-0.0965031
-0.0781349
-0.0617925
-0.0472859
-0.034422
-0.0230458
-0.0130982
-0.00390798
0.00481433
-0.0904581
-0.073649
-0.058687
-0.0453813
-0.0335753
-0.0232098
-0.0136555
-0.00457799
-0.0852248
-0.0698369
-0.0561164
-0.043905
-0.0331432
-0.0232428
-0.0138264
-0.0807241
-0.066616
-0.0540241
-0.0428877
-0.0326592
-0.0229201
-0.0768699
-0.0639225
-0.0524336
-0.0418954
-0.0318496
-0.073591
-0.0617724
-0.050943
-0.0406063
-0.059795
-0.0491824
-0.0575702
0.121274
0.11283
0.103753
0.0950573
0.0861392
0.0769559
0.0677291
0.0585332
0.0493674
0.0402516
0.0312161
0.0222807
0.0134572
0.00475565
-0.0038151
-0.0122475
-0.0205355
-0.0286737
-0.0366575
-0.044483
-0.0521469
0.109752
0.100971
0.0908886
0.0821793
0.073882
0.0653754
0.0568395
0.0484479
0.0401927
0.032044
0.0240064
0.0160909
0.00830042
0.000634379
-0.00690651
-0.0143208
-0.0216072
-0.0287647
-0.0357922
-0.0426887
-0.0494531
0.0969667
0.0884942
0.0788325
0.0708004
0.0634608
0.0559697
0.0483972
0.0409542
0.03366
0.0264678
0.0193645
0.0123586
0.0054552
-0.00134585
-0.00804448
-0.0146392
-0.0211282
-0.02751
-0.0337832
-0.0399467
-0.0459994
0.0844335
0.0766008
0.0678579
0.0606724
0.0541762
0.0475452
0.0408022
0.0341545
0.0276438
0.0212292
0.0148917
0.00863793
0.00247484
-0.00359639
-0.00957618
-0.015464
-0.0212591
-0.0269605
-0.0325681
-0.0380815
-0.0435005
0.0733122
0.0662654
0.0584977
0.0521004
0.0463145
0.0404107
0.0343953
0.0284544
0.0226357
0.016906
0.0112453
0.00565664
0.000146456
-0.00528409
-0.010636
-0.0159097
-0.0211051
-0.0262221
-0.0312609
-0.0362217
-0.0411048
0.0636315
0.057301
0.0503914
0.0446627
0.0394631
0.0341667
0.0287734
0.0234429
0.0182204
0.0130787
0.00799867
0.0029815
-0.00196789
-0.00684847
-0.0116614
-0.0164076
-0.0210874
-0.0257011
-0.0302491
-0.0347319
-0.0391501
0.0551272
0.0494162
0.0432593
0.0381235
0.0334405
0.0286785
0.0238362
0.0190485
0.0143548
0.00973219
0.00516375
0.000649308
-0.00380742
-0.00820573
-0.0125468
-0.0168318
-0.0210613
-0.0252359
-0.0293561
-0.0334226
-0.0374362
0.0476052
0.0424422
0.036952
0.032347
0.0281246
0.0238343
0.0194771
0.0151671
0.0109373
0.00676867
0.00264633
-0.00143024
-0.00545818
-0.00943699
-0.0133678
-0.0172517
-0.0210894
-0.0248814
-0.0286284
-0.032331
-0.0359899
0.0409419
0.0362713
0.0313692
0.0272342
0.02342
0.0195453
0.0156141
0.0117236
0.00790115
0.00413053
0.000399114
-0.00329378
-0.00694589
-0.0105569
-0.0141279
-0.0176599
-0.0211536
-0.0246097
-0.0280288
-0.0314116
-0.0347588
0.0350304
0.0308013
0.0264143
0.0226919
0.0192376
0.0157286
0.0121716
0.00864936
0.00518476
0.00176377
-0.00162435
-0.00498026
-0.00830216
-0.0115899
-0.0148443
-0.0180665
-0.0212571
-0.0244166
-0.0275457
-0.030645
-0.0337151
0.0297702
0.0259348
0.0219981
0.0186375
0.0155009
0.0123146
0.00908703
0.00588911
0.00273983
-0.000372945
-0.00345835
-0.00651698
-0.0095474
-0.0125495
-0.0155241
-0.0184721
-0.021394
-0.0242905
-0.027162
-0.0300092
-0.0328326
0.025072
0.0215873
0.0180446
0.0150021
0.0121467
0.00924573
0.0063092
0.00339775
0.000527189
-0.00231297
-0.00513049
-0.00792593
-0.0106981
-0.0134468
-0.016173
-0.0188773
-0.0215603
-0.0242224
-0.0268642
-0.0294862
-0.0320889
0.0208604
0.0176882
0.014491
0.0117288
0.00912285
0.00647511
0.00379634
0.00113869
-0.00148468
-0.00408286
-0.00666246
-0.00922392
-0.0117662
-0.0142894
-0.016794
-0.0192807
-0.0217501
-0.0242024
-0.0266382
-0.0290578
-0.0314618
0.0170716
0.0141783
0.0112848
0.00877029
0.0063862
0.00396372
0.00151398
-0.000918095
-0.00332152
-0.00570415
-0.00807163
-0.0104243
-0.0127614
-0.0150828
-0.017389
-0.0196807
-0.0219583
-0.024222
-0.0264724
-0.0287097
-0.0309343
0.0136518
0.0110077
0.00838183
0.00608676
0.00390062
0.00167912
-0.000566485
-0.00279739
-0.00500442
-0.00719437
-0.00937206
-0.0115378
-0.0136908
-0.0158311
-0.0179591
-0.0200754
-0.0221802
-0.0242739
-0.0263568
-0.0284293
-0.0304916
0.0105551
0.00813425
0.00574494
0.0036449
0.00163588
-0.000405723
-0.00246877
-0.00451967
-0.00655071
-0.0085678
-0.010575
-0.0125727
-0.01456
-0.0165372
-0.0185044
-0.0204621
-0.0224107
-0.0243504
-0.0262814
-0.028204
-0.0301186
0.00774293
0.00552224
0.00334276
0.00141663
-0.000433405
-0.00231347
-0.00421271
-0.00610197
-0.00797476
-0.00983623
-0.0116899
-0.0135358
-0.0153736
-0.0172032
-0.0190248
-0.0208389
-0.0226457
-0.0244453
-0.0262381
-0.0280243
-0.029804
0.00518214
0.00314148
0.00114872
-0.000621765
-0.00232865
-0.00406321
-0.00581498
-0.00755862
-0.00928865
-0.0110095
-0.0127243
-0.014433
-0.0161352
-0.0178309
-0.0195204
-0.0212038
-0.0228815
-0.0245536
-0.0262203
-0.0278818
-0.0295382
0.00284467
0.000966317
-0.000859705
-0.00249044
-0.00406804
-0.00567112
-0.00728972
-0.00890175
-0.0105026
-0.0120961
-0.0136848
-0.0152689
-0.0168479
-0.0184218
-0.0199908
-0.0215551
-0.0231149
-0.0246704
-0.0262217
-0.027769
-0.0293124
0.000706517
-0.00102515
-0.00270179
-0.00420663
-0.0056671
-0.00715103
-0.00864899
-0.0101417
-0.0116252
-0.0131029
-0.014577
-0.0160476
-0.0175143
-0.018977
-0.0204359
-0.0218912
-0.0233431
-0.0247917
-0.0262371
-0.0276794
-0.0291187
-0.00125298
-0.00285172
-0.0043941
-0.00578516
-0.00713921
-0.00851486
-0.0099032
-0.0112874
-0.0126641
-0.0140363
-0.0154058
-0.0167727
-0.0181366
-0.0194976
-0.0208557
-0.0222111
-0.0235639
-0.0249142
-0.0262622
-0.0276078
-0.0289513
-0.00305164
-0.00452962
-0.00595096
-0.00723887
-0.00849596
-0.00977292
-0.0110614
-0.0123466
-0.0136258
-0.0149015
-0.0161753
-0.0174473
-0.018717
-0.0199846
-0.0212501
-0.0225136
-0.0237753
-0.0250351
-0.0262932
-0.0275497
-0.0288046
-0.00470499
-0.00607298
-0.00738487
-0.00857901
-0.00974754
-0.0109343
-0.0121316
-0.0133263
-0.0145163
-0.0157036
-0.0168896
-0.0180744
-0.0192577
-0.0204394
-0.0216197
-0.0227986
-0.0239762
-0.0251526
-0.0263278
-0.0275019
-0.0286749
-0.00622656
-0.00749415
-0.00870678
-0.00981545
-0.0109029
-0.012007
-0.0131207
-0.0142326
-0.0153406
-0.0164467
-0.017552
-0.0186567
-0.0197603
-0.0208629
-0.0219645
-0.0230653
-0.0241652
-0.0252643
-0.0263627
-0.0274604
-0.0285574
-0.00762827
-0.00880398
-0.00992637
-0.0109569
-0.0119699
-0.0129982
-0.0140352
-0.0150709
-0.0161036
-0.0171349
-0.0181659
-0.0191966
-0.0202267
-0.0212562
-0.0222851
-0.0233136
-0.0243416
-0.0253692
-0.0263963
-0.0274231
-0.0284496
-0.00892067
-0.0100121
-0.0110523
-0.0120112
-0.0129557
-0.0139142
-0.0148806
-0.0158462
-0.0168095
-0.0177718
-0.0187342
-0.0196966
-0.0206587
-0.0216206
-0.0225822
-0.0235437
-0.024505
-0.0254662
-0.0264272
-0.0273882
-0.028349
-0.0101131
-0.0111271
-0.0120921
-0.0129854
-0.0138667
-0.0147609
-0.0156622
-0.0165631
-0.0174622
-0.0183608
-0.0192597
-0.0201588
-0.021058
-0.0219572
-0.0228564
-0.0237556
-0.0246549
-0.0255544
-0.0264539
-0.0273535
-0.0282532
-0.0112141
-0.0121568
-0.013053
-0.0138858
-0.0147087
-0.0155435
-0.0163848
-0.0172259
-0.0180657
-0.0189053
-0.0197453
-0.0205859
-0.0214266
-0.0222676
-0.0231089
-0.0239504
-0.0247921
-0.0256342
-0.0264765
-0.027319
-0.0281619
-0.0122311
-0.013108
-0.0139411
-0.0147181
-0.0154871
-0.0162668
-0.0170525
-0.0178383
-0.0186231
-0.0194079
-0.0201934
-0.0209795
-0.021766
-0.0225529
-0.0233401
-0.0241278
-0.0249159
-0.0257044
-0.0264932
-0.0272825
-0.0280721
-0.013171
-0.0139872
-0.0147622
-0.0154877
-0.0162066
-0.0169354
-0.0176695
-0.0184039
-0.0191377
-0.0198717
-0.0206065
-0.021342
-0.022078
-0.0228145
-0.0235515
-0.024289
-0.025027
-0.0257656
-0.0265046
-0.0272441
-0.0279841
-0.01404
-0.0147999
-0.0155215
-0.0161993
-0.0168718
-0.0175531
-0.0182395
-0.0189262
-0.0196126
-0.0202993
-0.0209869
-0.0216752
-0.0223641
-0.0230537
-0.0237438
-0.0244345
-0.0251258
-0.0258177
-0.0265101
-0.0272031
-0.0278966
-0.0148438
-0.0155515
-0.0162238
-0.0168574
-0.0174867
-0.0181241
-0.0187659
-0.0194083
-0.0200505
-0.0206932
-0.0213368
-0.0219812
-0.0226263
-0.023272
-0.0239184
-0.0245654
-0.0252131
-0.0258613
-0.0265102
-0.0271596
-0.0278096
-0.0155874
-0.0162468
-0.0168735
-0.0174661
-0.0180552
-0.0186516
-0.0192521
-0.0198531
-0.0204542
-0.0210559
-0.0216584
-0.0222618
-0.0228659
-0.0234708
-0.0240762
-0.0246824
-0.0252892
-0.0258967
-0.0265048
-0.0271134
-0.0277227
-0.0162758
-0.0168902
-0.0174748
-0.0180292
-0.0185809
-0.0191391
-0.019701
-0.0202636
-0.0208263
-0.0213897
-0.021954
-0.022519
-0.0230849
-0.0236515
-0.0242188
-0.0247867
-0.0253554
-0.0259246
-0.0264945
-0.0270651
-0.0276362
-0.0169131
-0.0174858
-0.0180313
-0.0185502
-0.0190669
-0.0195895
-0.0201155
-0.0206422
-0.0211691
-0.0216967
-0.0222252
-0.0227545
-0.0232846
-0.0238154
-0.0243469
-0.0248791
-0.0254119
-0.0259455
-0.0264796
-0.0270144
-0.0275497
-0.0175035
-0.0180373
-0.0185465
-0.0190324
-0.0195165
-0.0200058
-0.0204982
-0.0209914
-0.0214849
-0.0219791
-0.0224741
-0.02297
-0.0234666
-0.0239639
-0.0244619
-0.0249606
-0.02546
-0.02596
-0.0264607
-0.0269619
-0.0274637
-0.0180505
-0.0185481
-0.0190237
-0.0194787
-0.0199323
-0.0203906
-0.0208517
-0.0213135
-0.0217758
-0.0222387
-0.0227024
-0.023167
-0.0236323
-0.0240983
-0.0245649
-0.0250323
-0.0255003
-0.0259689
-0.0264381
-0.0269079
-0.0273783
-0.0185575
-0.0190215
-0.0194657
-0.019892
-0.020317
-0.0207463
-0.0211781
-0.0216107
-0.0220437
-0.0224774
-0.0229119
-0.0233471
-0.0237831
-0.0242198
-0.0246571
-0.0250951
-0.0255337
-0.0259729
-0.0264126
-0.026853
-0.0272938
-0.0190276
-0.0194602
-0.0198752
-0.0202747
-0.0206731
-0.0210752
-0.0214797
-0.0218849
-0.0222906
-0.0226969
-0.023104
-0.0235118
-0.0239204
-0.0243296
-0.0247394
-0.0251499
-0.0255609
-0.0259725
-0.0263847
-0.0267974
-0.0272107
-0.0194636
-0.0198669
-0.0202549
-0.0206292
-0.0210027
-0.0213795
-0.0217584
-0.022138
-0.0225181
-0.0228989
-0.0232803
-0.0236625
-0.0240454
-0.0244289
-0.024813
-0.0251977
-0.0255829
-0.0259687
-0.026355
-0.0267419
-0.0271292
-0.0198679
-0.0202441
-0.0206068
-0.0209577
-0.0213078
-0.0216609
-0.022016
-0.0223717
-0.0227279
-0.0230847
-0.0234422
-0.0238004
-0.0241592
-0.0245186
-0.0248786
-0.0252392
-0.0256003
-0.0259619
-0.026324