/*--------------------------------*- C++ -*----------------------------------*\
  =========                 |
  \\      /  F ield         | OpenFOAM: The Open Source CFD Toolbox
   \\    /   O peration     | Website:  https://openfoam.org
    \\  /    A nd           | Version:  7
     \\/     M anipulation  |
\*---------------------------------------------------------------------------*/
FoamFile
{
    version     2.0;
    format      ascii;
    class       surfaceScalarField;
    location    "20";
    object      phi;
}
// * * * * * * * * * * * * * * * * * * * * * * * * * * * * * * * * * * * * * //

dimensions      [0 3 -1 0 0 0 0];

internalField   nonuniform List<scalar> 
8878
(
-0.00401039
-0.00015471
-0.00015991
-0.00386582
-0.00398053
-0.000189772
-0.000132688
-0.00362271
-0.000162315
-0.00372582
-0.000192938
-0.0038352
-0.00394899
-0.000224475
-0.000131966
-0.00349729
-0.00016206
-0.00359261
-0.000193315
-0.00369456
-0.000225599
-0.00380291
-0.00391579
-0.000258805
-0.000129021
-0.00337895
-0.000159404
-0.00346691
-0.000191063
-0.00356095
-0.000223936
-0.00366169
-0.000257879
-0.00376897
-0.00388092
-0.000292748
-0.000124007
-0.00326688
-0.00015459
-0.00334836
-0.000186476
-0.00343502
-0.000219685
-0.00352774
-0.000254167
-0.00362721
-0.000289765
-0.00373337
-0.00384439
-0.000326291
-0.000117018
-0.00316007
-0.000147765
-0.00323614
-0.000179804
-0.00331632
-0.000213174
-0.00340165
-0.000247916
-0.003493
-0.000283993
-0.00359113
-0.00032124
-0.00369612
-0.00380621
-0.00035942
-0.000108141
-0.00305719
-0.000139
-0.00312921
-0.000171179
-0.00320396
-0.000204658
-0.00328284
-0.000239491
-0.00336682
-0.000275745
-0.00345675
-0.000313401
-0.00355348
-0.000352291
-0.00365723
-0.00376639
-0.00039212
-9.75192e-05
-0.00295628
-0.000128366
-0.00302634
-0.000160651
-0.00309692
-0.000194246
-0.00317036
-0.000229145
-0.00324794
-0.000265421
-0.00333054
-0.000303163
-0.00341901
-0.000342378
-0.00351426
-0.000382902
-0.00361671
-0.00372491
-0.000424375
-8.53954e-05
-0.00285411
-0.000115989
-0.00292568
-0.000148274
-0.00299406
-0.000181969
-0.00306323
-0.000216962
-0.00313537
-0.000253263
-0.00321164
-0.000290959
-0.00329285
-0.000330161
-0.0033798
-0.000370911
-0.00347351
-0.000413056
-0.00357457
-0.0036818
-0.000456171
-7.21486e-05
-0.00274552
-0.000102094
-0.00282417
-0.00013416
-0.00289362
-0.000167863
-0.00296035
-0.000202948
-0.00302814
-0.000239324
-0.00309899
-0.000277008
-0.00317396
-0.0003161
-0.00325376
-0.000356733
-0.00333917
-0.000398988
-0.00343126
-0.000442739
-0.00353081
-0.00363705
-0.000487489
-5.83151e-05
-0.00262275
-8.70404e-05
-0.00271679
-0.000118517
-0.00279269
-0.000152028
-0.00286011
-0.000187128
-0.00292525
-0.000223587
-0.00299169
-0.000261329
-0.00306125
-0.000300379
-0.00313491
-0.000340842
-0.00321329
-0.000382875
-0.00329714
-0.0004266
-0.00338753
-0.000471936
-0.00348548
-0.00359067
-0.000518315
-4.45825e-05
-0.00247512
-7.13438e-05
-0.00259598
-0.000101684
-0.00268645
-0.000134658
-0.00275972
-0.000169589
-0.00282518
-0.000206066
-0.00288878
-0.000243882
-0.00295387
-0.000282975
-0.00302216
-0.000323373
-0.00309451
-0.000365187
-0.00317148
-0.000408587
-0.00325374
-0.00045374
-0.00334238
-0.000500635
-0.00343858
-0.00354267
-0.000548636
-3.17384e-05
-0.00228933
-5.56785e-05
-0.00245118
-8.41587e-05
-0.0025675
-0.000116074
-0.00265454
-0.000150514
-0.00272528
-0.000186839
-0.00278885
-0.000224672
-0.00285094
-0.00026383
-0.00291471
-0.000304259
-0.00298173
-0.000345992
-0.00305278
-0.000389136
-0.00312833
-0.000433869
-0.003209
-0.000480407
-0.00329584
-0.000528828
-0.00339016
-0.00349305
-0.000578444
-4.08351e-05
-0.00226906
-6.66001e-05
-0.00242541
-9.67533e-05
-0.00253735
-0.000130205
-0.00262109
-0.000166079
-0.0026894
-0.000203775
-0.00275115
-0.000242945
-0.00281177
-0.000283428
-0.00287423
-0.000325181
-0.00293998
-0.000368235
-0.00300972
-0.000412692
-0.00308388
-0.000458731
-0.00316297
-0.000506607
-0.00324797
-0.000556515
-0.00334025
-0.00344184
-0.000607727
-2.76258e-05
-0.00203464
-4.97995e-05
-0.00224689
-7.73403e-05
-0.00239787
-0.000109122
-0.00250557
-0.000144072
-0.00258613
-0.00018135
-0.00265212
-0.000220392
-0.00271211
-0.00026088
-0.00277129
-0.000302672
-0.00283243
-0.000345735
-0.00289692
-0.000390101
-0.00296536
-0.000435862
-0.00303812
-0.000483183
-0.00311565
-0.000532355
-0.00319879
-0.000583707
-0.0032889
-0.00338905
-0.000636494
-1.67469e-05
-0.00173322
-3.45948e-05
-0.0020168
-5.86243e-05
-0.00222286
-8.78923e-05
-0.0023686
-0.000121258
-0.0024722
-0.000157671
-0.00254972
-0.000196323
-0.00261347
-0.000236686
-0.00267175
-0.000278473
-0.0027295
-0.000321559
-0.00278935
-0.00036592
-0.00285255
-0.00041159
-0.00291969
-0.000458648
-0.00299106
-0.00050724
-0.00306705
-0.000557674
-0.00314836
-0.000610436
-0.00323614
-0.00333467
-0.000664816
-2.17436e-05
-0.00172011
-4.14659e-05
-0.00199707
-6.73026e-05
-0.00219702
-9.82503e-05
-0.00233766
-0.000133159
-0.00243729
-0.000170997
-0.00251188
-0.000210994
-0.00257348
-0.000252655
-0.00263009
-0.00029572
-0.00268644
-0.000340082
-0.00274499
-0.00038573
-0.00280691
-0.000432697
-0.00287272
-0.000481053
-0.0029427
-0.000530916
-0.00301719
-0.000582601
-0.00309667
-0.000636758
-0.00318198
-0.00327866
-0.000692775
-1.17819e-05
-0.00134437
-2.66798e-05
-0.00170521
-4.82324e-05
-0.00197552
-7.58281e-05
-0.00216942
-0.000108409
-0.00230507
-0.000144818
-0.00240089
-0.000184048
-0.00247265
-0.00022536
-0.00253216
-0.000268295
-0.00258715
-0.000312616
-0.00264211
-0.000358238
-0.00269936
-0.000405157
-0.00275999
-0.000453416
-0.00282446
-0.000503076
-0.00289304
-0.000554231
-0.00296604
-0.000607189
-0.00304371
-0.000662688
-0.00312648
-0.00322097
-0.000720373
-4.92528e-06
-0.000882054
-1.49014e-05
-0.00133439
-3.15496e-05
-0.00168856
-5.48881e-05
-0.00195218
-8.41952e-05
-0.00214012
-0.000118363
-0.00227091
-0.000156232
-0.00236302
-0.000196818
-0.00243207
-0.000239417
-0.00248957
-0.000283601
-0.00254297
-0.000329157
-0.00259656
-0.000376018
-0.0026525
-0.000424192
-0.00271181
-0.000473733
-0.00277492
-0.000524704
-0.00284207
-0.000577205
-0.00291353
-0.000631531
-0.00298939
-0.000688236
-0.00306978
-0.00316127
-0.000747937
-6.48896e-06
-0.000876632
-1.79858e-05
-0.00132289
-3.63479e-05
-0.0016702
-6.14277e-05
-0.0019271
-9.23988e-05
-0.00210915
-0.000128109
-0.0022352
-0.000167397
-0.00232373
-0.000209306
-0.00239016
-0.000253162
-0.00244571
-0.000298569
-0.00249756
-0.000345338
-0.00254979
-0.000393415
-0.00260443
-0.000442824
-0.0026624
-0.000493627
-0.00272412
-0.000545906
-0.00278979
-0.000599806
-0.00285964
-0.000655673
-0.00293352
-0.000714222
-0.00301123
-0.00310117
-0.000774327
-1.52022e-06
-0.000330152
-8.03657e-06
-0.000870115
-2.10263e-05
-0.0013099
-4.10642e-05
-0.00165016
-6.78398e-05
-0.00190033
-0.000100428
-0.00207656
-0.000137636
-0.00219799
-0.000178305
-0.00228306
-0.000221502
-0.00234696
-0.000266587
-0.00240062
-0.000313191
-0.00245096
-0.000361147
-0.00250183
-0.000410417
-0.00255516
-0.000461034
-0.00261179
-0.00051307
-0.00267208
-0.000566628
-0.00273623
-0.000621908
-0.00280436
-0.000679101
-0.00287633
-0.000737559
-0.00295277
-0.00303556
-0.000803162
-1.97443e-06
-0.000328178
-9.57219e-06
-0.000862518
-2.4029e-05
-0.00129545
-4.57052e-05
-0.00162849
-7.41321e-05
-0.0018719
-0.000108291
-0.0020424
-0.000146953
-0.00215933
-0.000188964
-0.00224105
-0.000233415
-0.00230251
-0.0002797
-0.00235434
-0.000327475
-0.00240318
-0.000376593
-0.00245271
-0.000427029
-0.00250472
-0.000478825
-0.00255999
-0.000532057
-0.00261885
-0.000586839
-0.00268145
-0.000643345
-0.00274785
-0.000701669
-0.002818
-0.000761948
-0.00289249
-0.00297101
-0.000826504
-2.42536e-06
-0.000325752
-1.10896e-05
-0.000853853
-2.69854e-05
-0.00127955
-5.0261e-05
-0.00160521
-8.02942e-05
-0.00184187
-0.000115978
-0.00200671
-0.000156051
-0.00211925
-0.000199365
-0.00219773
-0.000245038
-0.00225684
-0.000292493
-0.00230689
-0.000341412
-0.00235426
-0.000391666
-0.00240246
-0.000443242
-0.00245315
-0.000496186
-0.00250705
-0.00055058
-0.00256446
-0.000606535
-0.0026255
-0.000664193
-0.00269019
-0.000723653
-0.00275855
-0.000785208
-0.00283094
-0.00290646
-0.000849753
-2.87202e-06
-0.00032288
-1.25868e-05
-0.000844139
-2.98923e-05
-0.00126225
-5.47276e-05
-0.00158037
-8.63221e-05
-0.00181027
-0.000123485
-0.00196955
-0.000164926
-0.00207781
-0.000209506
-0.00215315
-0.000256369
-0.00220997
-0.000304964
-0.00225829
-0.000354999
-0.00230423
-0.000406363
-0.00235109
-0.000459051
-0.00240046
-0.000513114
-0.00245298
-0.000568636
-0.00250893
-0.000625722
-0.00256841
-0.000684493
-0.00263142
-0.000745053
-0.00269798
-0.00080766
-0.00276833
-0.00284148
-0.000872647
-3.31369e-06
-0.000319566
-1.40617e-05
-0.00083339
-3.27467e-05
-0.00124356
-5.91016e-05
-0.00155402
-9.22124e-05
-0.00177716
-0.00013081
-0.00193095
-0.000173578
-0.00203504
-0.000219386
-0.00210735
-0.000267404
-0.00216196
-0.000317111
-0.00220858
-0.000368236
-0.0022531
-0.000420682
-0.00229865
-0.000474454
-0.00234669
-0.000529608
-0.00239783
-0.000586225
-0.00245232
-0.000644406
-0.00251023
-0.000704257
-0.00257157
-0.00076588
-0.00263636
-0.000829464
-0.00270475
-0.00277581
-0.000895128
-3.74974e-06
-0.000315817
-1.55126e-05
-0.000821628
-3.55455e-05
-0.00122353
-6.33796e-05
-0.00152619
-9.79618e-05
-0.00174258
-0.000137949
-0.00189097
-0.000182002
-0.00199099
-0.000229002
-0.00206035
-0.000278144
-0.00211281
-0.000328932
-0.0021578
-0.000381119
-0.00220092
-0.000434621
-0.00224515
-0.00048945
-0.00229186
-0.000545665
-0.00234162
-0.000603347
-0.00239463
-0.000662591
-0.00245098
-0.000723494
-0.00251067
-0.000786148
-0.00257371
-0.000850689
-0.00264021
-0.00270934
-0.00091716
-4.17958e-06
-0.000311637
-1.69376e-05
-0.00080887
-3.82864e-05
-0.00120218
-6.75585e-05
-0.00149691
-0.000103567
-0.00170657
-0.0001449
-0.00184964
-0.000190198
-0.00194569
-0.000238353
-0.00201219
-0.000288586
-0.00206258
-0.000340427
-0.00210595
-0.000393648
-0.0021477
-0.000448179
-0.00219062
-0.000504037
-0.002236
-0.000561284
-0.00228437
-0.000620002
-0.00233592
-0.000680281
-0.00239071
-0.000742208
-0.00244874
-0.00080587
-0.00251004
-0.000871367
-0.00257471
-0.00264199
-4.60262e-06
-0.000307035
-1.83351e-05
-0.000795137
-4.09666e-05
-0.00117955
-7.16356e-05
-0.00146624
-0.000109027
-0.00166918
-0.00015166
-0.001807
-0.000198163
-0.00189919
-0.000247438
-0.00196291
-0.00029873
-0.00201129
-0.000351594
-0.00205309
-0.000405822
-0.00209347
-0.000461354
-0.00213508
-0.000518214
-0.00217914
-0.000576467
-0.00222612
-0.000636192
-0.00227619
-0.000697477
-0.00232942
-0.000760405
-0.00238581
-0.000825055
-0.00244539
-0.000891509
-0.00250825
-0.00257371
-5.0183e-06
-0.000302016
-1.97036e-05
-0.000780452
-4.35841e-05
-0.00115567
-7.56083e-05
-0.00143422
-0.000114337
-0.00163045
-0.000158229
-0.00176311
-0.000205896
-0.00185152
-0.000256255
-0.00191256
-0.000308574
-0.00195897
-0.000362433
-0.00199923
-0.000417639
-0.00203826
-0.000474145
-0.00207858
-0.00053198
-0.0021213
-0.000591211
-0.00216689
-0.000651917
-0.00221548
-0.000714182
-0.00226716
-0.000778089
-0.00232191
-0.000843709
-0.00237977
-0.000911118
-0.00244085
-0.00250449
-5.42605e-06
-0.00029659
-2.10416e-05
-0.000764836
-4.61365e-05
-0.00113057
-7.94742e-05
-0.00140088
-0.000119496
-0.00159043
-0.000164604
-0.001718
-0.000213396
-0.00180273
-0.000264804
-0.00186115
-0.000318118
-0.00190566
-0.000372942
-0.00194441
-0.000429099
-0.0019821
-0.000486552
-0.00202112
-0.000545335
-0.00206252
-0.000605516
-0.0021067
-0.000667176
-0.00215382
-0.000730398
-0.00220393
-0.00079526
-0.00225704
-0.000861833
-0.0023132
-0.000930191
-0.00237249
-5.82536e-06
-0.000290765
-2.23477e-05
-0.000748314
-4.8622e-05
-0.0011043
-8.32312e-05
-0.00136627
-0.000124503
-0.00154916
-0.000170784
-0.00167172
-0.000220662
-0.00175285
-0.000273083
-0.00180873
-0.000327361
-0.00185138
-0.000383121
-0.00188865
-0.000440201
-0.00192502
-0.000498573
-0.00196275
-0.000558277
-0.00200282
-0.000619383
-0.0020456
-0.000681971
-0.00209124
-0.000746123
-0.00213978
-0.000811919
-0.00219125
-0.000879428
-0.00224569
-0.00230319
-6.21572e-06
-0.000284549
-2.36207e-05
-0.000730909
-5.10387e-05
-0.00107688
-8.68773e-05
-0.00133044
-0.000129354
-0.00150668
-0.000176766
-0.00162431
-0.000227692
-0.00170193
-0.000281092
-0.00175533
-0.000336303
-0.00179617
-0.000392969
-0.00183198
-0.000450943
-0.00186705
-0.000510208
-0.00190349
-0.000570806
-0.00194222
-0.00063281
-0.0019836
-0.0006963
-0.00202775
-0.000761359
-0.00207472
-0.000828065
-0.00212454
-0.000896492
-0.00217726
-0.00223297
-6.59663e-06
-0.000277952
-2.48593e-05
-0.000712646
-5.33848e-05
-0.00104835
-9.04106e-05
-0.00129341
-0.00013405
-0.00146304
-0.000182551
-0.00157581
-0.000234486
-0.00164999
-0.000288831
-0.00170098
-0.000344943
-0.00174005
-0.000402485
-0.00177444
-0.000461327
-0.00180821
-0.000521456
-0.00184336
-0.000582921
-0.00188075
-0.000645796
-0.00192072
-0.000710162
-0.00196338
-0.000776102
-0.00200878
-0.000843697
-0.00205695
-0.00091302
-0.00210794
-6.96766e-06
-0.000270985
-2.60624e-05
-0.000693552
-5.56588e-05
-0.00101876
-9.38295e-05
-0.00125524
-0.000138587
-0.00141828
-0.000188136
-0.00152626
-0.000241043
-0.00159709
-0.000296298
-0.00164573
-0.000353279
-0.00168307
-0.00041167
-0.00171605
-0.00047135
-0.00174853
-0.000532316
-0.00178239
-0.000594621
-0.00181845
-0.00065834
-0.001857
-0.000723556
-0.00189816
-0.000790353
-0.00194198
-0.000858812
-0.00198849
-0.00203774
-7.32836e-06
-0.000263656
-2.72289e-05
-0.000673651
-5.78592e-05
-0.000988127
-9.71324e-05
-0.00121597
-0.000142966
-0.00137245
-0.000193522
-0.0014757
-0.000247363
-0.00154324
-0.000303493
-0.0015896
-0.000361313
-0.00162525
-0.000420522
-0.00165684
-0.000481012
-0.00168804
-0.000542788
-0.00172062
-0.000605905
-0.00175533
-0.00067044
-0.00179247
-0.00073648
-0.00183213
-0.000804107
-0.00187436
-0.000873407
-0.00191919
-0.00196669
-7.67832e-06
-0.000255978
-2.83578e-05
-0.000652972
-5.99846e-05
-0.0009565
-0.000100318
-0.00117563
-0.000147184
-0.00132558
-0.000198706
-0.00142418
-0.000253444
-0.00148851
-0.000310416
-0.00153263
-0.000369043
-0.00156663
-0.00042904
-0.00159684
-0.000490312
-0.00162677
-0.000552869
-0.00165806
-0.000616771
-0.00169143
-0.000682096
-0.00172714
-0.000748932
-0.00176529
-0.000817364
-0.00180592
-0.000887478
-0.00184907
-0.00189481
-8.01714e-06
-0.000247961
-2.94482e-05
-0.000631541
-6.20338e-05
-0.000923915
-0.000103385
-0.00113428
-0.00015124
-0.00127773
-0.000203688
-0.00137173
-0.000259286
-0.00143291
-0.000317067
-0.00147484
-0.00037647
-0.00150722
-0.000437225
-0.00153609
-0.00049925
-0.00156474
-0.00056256
-0.00159475
-0.000627218
-0.00162677
-0.000693306
-0.00166105
-0.00076091
-0.00169769
-0.000830121
-0.00173671
-0.000901023
-0.00177817
-8.34447e-06
-0.000239617
-3.04992e-05
-0.000609386
-6.40055e-05
-0.000890409
-0.000106331
-0.00109196
-0.000155134
-0.00122893
-0.000208468
-0.0013184
-0.000264888
-0.00137649
-0.000323444
-0.00141629
-0.000383591
-0.00144708
-0.000445076
-0.0014746
-0.000507825
-0.00150199
-0.000571859
-0.00153072
-0.000637245
-0.00156139
-0.000704067
-0.00159423
-0.000772413
-0.00162934
-0.000842373
-0.00166675
-0.00170651
-8.65995e-06
-0.000230957
-3.151e-05
-0.000586536
-6.58985e-05
-0.00085602
-0.000109157
-0.0010487
-0.000158864
-0.00117922
-0.000213044
-0.00126422
-0.000270251
-0.00131928
-0.000329548
-0.00135699
-0.000390408
-0.00138622
-0.000452592
-0.00141242
-0.000516035
-0.00143855
-0.000580765
-0.00146599
-0.000646851
-0.0014953
-0.000714378
-0.0015267
-0.000783437
-0.00156028
-0.000854119
-0.00159607
-0.00163411
-8.96324e-06
-0.000221993
-3.24798e-05
-0.000563019
-6.7712e-05
-0.000820788
-0.000111861
-0.00100455
-0.00016243
-0.00112865
-0.000217416
-0.00120923
-0.000275373
-0.00126132
-0.000335377
-0.00129699
-0.000396919
-0.00132467
-0.000459772
-0.00134957
-0.00052388
-0.00137444
-0.000589277
-0.00140059
-0.000656033
-0.00142854
-0.000724237
-0.0014585
-0.00079398
-0.00149054
-0.000865356
-0.0015247
-0.00156101
-9.25405e-06
-0.000212739
-3.34078e-05
-0.000538865
-6.94449e-05
-0.000784751
-0.000114441
-0.000959551
-0.000165831
-0.00107726
-0.000221584
-0.00115348
-0.000280254
-0.00120265
-0.000340932
-0.00123631
-0.000403124
-0.00126248
-0.000466616
-0.00128608
-0.00053136
-0.0013097
-0.000597393
-0.00133456
-0.000664791
-0.00136115
-0.000733641
-0.00138965
-0.000804039
-0.00142014
-0.000876079
-0.00145266
-9.53207e-06
-0.000203207
-3.42934e-05
-0.000514104
-7.10963e-05
-0.000747948
-0.000116898
-0.00091375
-0.000169066
-0.00102509
-0.000225546
-0.001097
-0.000284894
-0.00114331
-0.000346213
-0.00117499
-0.000409023
-0.00119967
-0.000473123
-0.00122198
-0.000538472
-0.00124435
-0.000605113
-0.00126792
-0.000673122
-0.00129314
-0.00074259
-0.00132018
-0.000813613
-0.00134912
-0.00137998
-9.79703e-06
-0.00019341
-3.51359e-05
-0.000488765
-7.26653e-05
-0.000710418
-0.00011923
-0.000867185
-0.000172135
-0.000972185
-0.000229303
-0.00103983
-0.000289292
-0.00108332
-0.000351218
-0.00111306
-0.000414615
-0.00113628
-0.000479292
-0.0011573
-0.000545217
-0.00117842
-0.000612434
-0.0012007
-0.000681025
-0.00122455
-0.000751081
-0.00125013
-0.000822699
-0.0012775
-0.0013067
-1.00487e-05
-0.000183362
-3.59348e-05
-0.000462879
-7.41513e-05
-0.000672202
-0.000121436
-0.000819901
-0.000175036
-0.000918585
-0.000232854
-0.000982016
-0.000293448
-0.00102272
-0.000355948
-0.00105056
-0.000419899
-0.00107232
-0.000485123
-0.00109207
-0.000551592
-0.00111195
-0.000619357
-0.00113293
-0.000688499
-0.0011554
-0.000759112
-0.00117951
-0.000831294
-0.00120532
-0.00123285
-1.02867e-05
-0.000173075
-3.66895e-05
-0.000436476
-7.55534e-05
-0.000633338
-0.000123516
-0.000771938
-0.00017777
-0.00086433
-0.000236198
-0.000923588
-0.000297362
-0.000961558
-0.000360401
-0.000987526
-0.000424876
-0.00100785
-0.000490615
-0.00102634
-0.000557599
-0.00104497
-0.00062588
-0.00106465
-0.000695542
-0.00108574
-0.000766681
-0.00110837
-0.000839396
-0.0011326
-0.00115846
-1.0511e-05
-0.000162564
-3.73994e-05
-0.000409588
-7.6871e-05
-0.000593866
-0.000125469
-0.000723341
-0.000180335
-0.000809464
-0.000239335
-0.000864589
-0.000301033
-0.00089986
-0.000364579
-0.00092398
-0.000429544
-0.000942884
-0.000495768
-0.000960112
-0.000563234
-0.000977502
-0.000632001
-0.000995885
-0.000702153
-0.00101559
-0.000773787
-0.00103674
-0.000847004
-0.00105939
-1.07213e-05
-0.000151843
-3.80641e-05
-0.000382245
-7.81035e-05
-0.000553827
-0.000127294
-0.00067415
-0.000182732
-0.000754026
-0.000242265
-0.000805056
-0.000304461
-0.000837664
-0.00036848
-0.000859961
-0.000433904
-0.00087746
-0.00050058
-0.000893436
-0.000568499
-0.000909583
-0.000637719
-0.000926664
-0.00070833
-0.000944981
-0.000780427
-0.000964643
-0.000985698
-1.09174e-05
-0.000140925
-3.86832e-05
-0.000354479
-7.92502e-05
-0.00051326
-0.000128991
-0.000624409
-0.000184959
-0.000698058
-0.000244987
-0.000745028
-0.000307645
-0.000775005
-0.000372103
-0.000795502
-0.000437954
-0.00081161
-0.000505051
-0.000826339
-0.000573391
-0.000841244
-0.000643034
-0.000857021
-0.000714071
-0.000873944
-0.0007866
-0.000892114
-0.000911574
-1.1099e-05
-0.000129826
-3.92562e-05
-0.000326322
-8.03108e-05
-0.000472206
-0.00013056
-0.00057416
-0.000187016
-0.000641602
-0.000247501
-0.000684544
-0.000310586
-0.00071192
-0.00037545
-0.000730638
-0.000441694
-0.000745365
-0.000509181
-0.000758852
-0.00057791
-0.000772515
-0.000647945
-0.000786986
-0.000719376
-0.000802512
-0.000792305
-0.000819185
-0.000837044
-1.12662e-05
-0.00011856
-3.97827e-05
-0.000297806
-8.12846e-05
-0.000430704
-0.000131999
-0.000523445
-0.000188904
-0.000584698
-0.000249806
-0.000623642
-0.000313282
-0.000648444
-0.000378518
-0.000665402
-0.000445125
-0.000678758
-0.000512969
-0.000691008
-0.000582055
-0.000703429
-0.000652449
-0.000716591
-0.000724244
-0.000730717
-0.00079754
-0.000745889
-0.000762142
-1.14186e-05
-0.000107141
-4.02625e-05
-0.000268962
-8.21713e-05
-0.000388795
-0.000133309
-0.000472307
-0.000190621
-0.000527386
-0.000251903
-0.00056236
-0.000315735
-0.000584613
-0.000381309
-0.000599828
-0.000448245
-0.000611823
-0.000516414
-0.000622838
-0.000585826
-0.000634018
-0.000656548
-0.00064587
-0.000728673
-0.000658592
-0.000802303
-0.000672259
-0.0006869
-1.15561e-05
-9.55853e-05
-4.06952e-05
-0.000239823
-8.29704e-05
-0.00034652
-0.00013449
-0.000420788
-0.000192167
-0.000469709
-0.000253791
-0.000500735
-0.000317942
-0.000520461
-0.000383822
-0.000533949
-0.000451054
-0.000544591
-0.000519517
-0.000554375
-0.000589222
-0.000564313
-0.000660239
-0.000574853
-0.000732662
-0.000586169
-0.000806594
-0.000598326
-0.000611353
-1.16787e-05
-8.39065e-05
-4.10804e-05
-0.000210421
-8.36816e-05
-0.000303918
-0.000135539
-0.00036893
-0.000193542
-0.000411707
-0.00025547
-0.000438808
-0.000319905
-0.000456026
-0.000386056
-0.000467798
-0.000453551
-0.000477095
-0.000522276
-0.00048565
-0.000592242
-0.000494347
-0.000663521
-0.000503573
-0.00073621
-0.000513481
-0.000810411
-0.000524126
-0.000535532
-1.17863e-05
-7.21203e-05
-4.14181e-05
-0.000180789
-8.43046e-05
-0.000261032
-0.000136459
-0.000316776
-0.000194746
-0.00035342
-0.000256939
-0.000376614
-0.000321623
-0.000391341
-0.000388011
-0.000401411
-0.000455738
-0.000409368
-0.000524691
-0.000416697
-0.000594885
-0.000424152
-0.000666395
-0.000432063
-0.000739317
-0.00044056
-0.000813753
-0.000449689
-0.000459473
-1.18786e-05
-6.02417e-05
-4.17079e-05
-0.00015096
-8.4839e-05
-0.000217901
-0.000137247
-0.000264368
-0.000195778
-0.000294889
-0.000258199
-0.000314193
-0.000323096
-0.000326444
-0.000389687
-0.00033482
-0.000457612
-0.000341443
-0.000526761
-0.000347548
-0.000597152
-0.00035376
-0.00066886
-0.000360355
-0.000741981
-0.000367439
-0.000816619
-0.000375051
-0.000383209
-1.19557e-05
-4.8286e-05
-4.19497e-05
-0.000120966
-8.52848e-05
-0.000174566
-0.000137904
-0.000211749
-0.000196638
-0.000236155
-0.000259249
-0.000251582
-0.000324324
-0.000261368
-0.000391084
-0.00026806
-0.000459174
-0.000273353
-0.000528487
-0.000278236
-0.000599042
-0.000283206
-0.000670915
-0.000288483
-0.000744202
-0.000294152
-0.000819009
-0.000300244
-0.000306773
-1.20174e-05
-3.62686e-05
-4.21433e-05
-9.084e-05
-8.56416e-05
-0.000131067
-0.00013843
-0.00015896
-0.000197327
-0.000177259
-0.000260089
-0.00018882
-0.000325307
-0.000196151
-0.000392202
-0.000201164
-0.000460425
-0.000205131
-0.000529868
-0.000208792
-0.000600554
-0.000212519
-0.000672559
-0.000216478
-0.000745979
-0.000220731
-0.000820922
-0.000225302
-1.20637e-05
-2.42049e-05
-4.22886e-05
-6.06152e-05
-8.59093e-05
-8.74466e-05
-0.000138825
-0.000106044
-0.000197843
-0.000118241
-0.000260719
-0.000125944
-0.000326043
-0.000130827
-0.000393041
-0.000134167
-0.000461362
-0.00013681
-0.000530904
-0.00013925
-0.000601689
-0.000141735
-0.000673792
-0.000144375
-0.000747313
-0.00014721
-0.000150258
-1.20946e-05
-1.21103e-05
-4.23854e-05
-3.03244e-05
-8.60879e-05
-4.37441e-05
-0.000139088
-5.30439e-05
-0.000198188
-5.91413e-05
-0.00026114
-6.29915e-05
-0.000326535
-6.54322e-05
-0.0003936
-6.71011e-05
-0.000461987
-6.84225e-05
-0.000531595
-6.96423e-05
-0.000602445
-7.0885e-05
-0.000674615
-7.22049e-05
-0.000748202
-7.36231e-05
-7.51472e-05
-1.21101e-05
-1.92153e-10
-4.24339e-05
-5.58123e-10
-8.61771e-05
-8.91032e-10
-0.00013922
-1.1723e-09
-0.00019836
-1.39595e-09
-0.00026135
-1.56684e-09
-0.00032678
-1.69702e-09
-0.000393879
-1.80102e-09
-0.0004623
-1.89194e-09
-0.00053194
-1.9792e-09
-0.000602823
-2.06837e-09
-0.000675026
-2.16208e-09
-0.000748647
-2.26125e-09
-2.36604e-09
-1.21101e-05
1.21099e-05
-4.24339e-05
3.03232e-05
-8.61771e-05
4.37424e-05
-0.00013922
5.30415e-05
-0.00019836
5.91385e-05
-0.00026135
6.29884e-05
-0.00032678
6.54288e-05
-0.00039388
6.70975e-05
-0.0004623
6.84187e-05
-0.00053194
6.96384e-05
-0.000602823
7.08808e-05
-0.000675026
7.22006e-05
-0.000748647
7.36185e-05
7.51425e-05
-1.20946e-05
2.42045e-05
-4.23855e-05
6.06141e-05
-8.60879e-05
8.74448e-05
-0.000139088
0.000106042
-0.000198188
0.000118238
-0.00026114
0.00012594
-0.000326535
0.000130824
-0.0003936
0.000134163
-0.000461988
0.000136806
-0.000531595
0.000139246
-0.000602445
0.000141731
-0.000674615
0.00014437
-0.000748202
0.000147206
0.000150254
-1.20637e-05
3.62683e-05
-4.22886e-05
9.08389e-05
-8.59094e-05
0.000131066
-0.000138825
0.000158958
-0.000197843
0.000177256
-0.000260719
0.000188817
-0.000326043
0.000196148
-0.000393041
0.000201161
-0.000461362
0.000205128
-0.000530904
0.000208788
-0.000601689
0.000212515
-0.000673792
0.000216474
-0.000747313
0.000220727
0.000225297
-1.20174e-05
4.82857e-05
-4.21433e-05
0.000120965
-8.56417e-05
0.000174564
-0.00013843
0.000211747
-0.000197327
0.000236152
-0.000260089
0.000251579
-0.000325307
0.000261365
-0.000392203
0.000268056
-0.000460425
0.00027335
-0.000529868
0.000278232
-0.000600555
0.000283201
-0.000672559
0.000288478
-0.00074598
0.000294147
-0.000820922
0.000300239
0.000306768
-1.19557e-05
6.02413e-05
-4.19497e-05
0.000150959
-8.52849e-05
0.000217899
-0.000137904
0.000264366
-0.000196638
0.000294886
-0.000259249
0.00031419
-0.000324324
0.00032644
-0.000391085
0.000334817
-0.000459175
0.00034144
-0.000528487
0.000347544
-0.000599042
0.000353756
-0.000670915
0.000360351
-0.000744202
0.000367434
-0.000819009
0.000375046
0.000383204
-1.18786e-05
7.21199e-05
-4.17079e-05
0.000180788
-8.48391e-05
0.00026103
-0.000137247
0.000316774
-0.000195778
0.000353417
-0.000258199
0.000376611
-0.000323097
0.000391338
-0.000389687
0.000401407
-0.000457612
0.000409365
-0.000526761
0.000416694
-0.000597153
0.000424148
-0.00066886
0.000432059
-0.000741981
0.000440555
-0.00081662
0.000449685
0.000459468
-1.17863e-05
8.39062e-05
-4.14181e-05
0.00021042
-8.43046e-05
0.000303917
-0.000136459
0.000368928
-0.000194746
0.000411704
-0.000256939
0.000438805
-0.000321624
0.000456022
-0.000388011
0.000467795
-0.000455738
0.000477091
-0.000524691
0.000485647
-0.000594886
0.000494343
-0.000666396
0.000503569
-0.000739317
0.000513476
-0.000813753
0.000524121
0.000535528
-1.16788e-05
9.55849e-05
-4.10805e-05
0.000239822
-8.36817e-05
0.000346518
-0.000135539
0.000420786
-0.000193542
0.000469707
-0.00025547
0.000500732
-0.000319906
0.000520458
-0.000386056
0.000533945
-0.000453552
0.000544587
-0.000522276
0.000554371
-0.000592242
0.000564309
-0.000663522
0.000574848
-0.00073621
0.000586165
-0.000810411
0.000598322
0.000611348
-1.15562e-05
0.000107141
-4.06952e-05
0.000268961
-8.29705e-05
0.000388793
-0.00013449
0.000472305
-0.000192167
0.000527384
-0.000253791
0.000562357
-0.000317943
0.000584609
-0.000383822
0.000599824
-0.000451054
0.000611819
-0.000519517
0.000622834
-0.000589222
0.000634014
-0.000660239
0.000645865
-0.000732662
0.000658588
-0.000806595
0.000672254
0.000686896
-1.14186e-05
0.00011856
-4.02626e-05
0.000297805
-8.21714e-05
0.000430702
-0.00013331
0.000523443
-0.000190621
0.000584695
-0.000251903
0.000623639
-0.000315735
0.000648441
-0.000381309
0.000665399
-0.000448245
0.000678755
-0.000516415
0.000691004
-0.000585827
0.000703425
-0.000656548
0.000716587
-0.000728673
0.000730713
-0.000802304
0.000745885
0.000762137
-1.12662e-05
0.000129826
-3.97828e-05
0.000326321
-8.12847e-05
0.000472204
-0.000132
0.000574158
-0.000188904
0.0006416
-0.000249806
0.000684541
-0.000313283
0.000711917
-0.000378519
0.000730635
-0.000445125
0.000745361
-0.00051297
0.000758848
-0.000582056
0.000772511
-0.00065245
0.000786982
-0.000724245
0.000802508
-0.000797541
0.00081918
0.000837039
-1.10991e-05
0.000140925
-3.92563e-05
0.000354479
-8.03109e-05
0.000513259
-0.00013056
0.000624407
-0.000187017
0.000698056
-0.000247501
0.000745026
-0.000310586
0.000775002
-0.00037545
0.000795499
-0.000441695
0.000811606
-0.000509182
0.000826335
-0.00057791
0.00084124
-0.000647945
0.000857017
-0.000719377
0.000873939
-0.000792306
0.000892109
0.000911569
-1.09174e-05
0.000151842
-3.86833e-05
0.000382244
-7.92504e-05
0.000553826
-0.000128992
0.000674148
-0.000184959
0.000754024
-0.000244987
0.000805053
-0.000307645
0.000837661
-0.000372104
0.000859958
-0.000437954
0.000877457
-0.000505052
0.000893433
-0.000573391