/*--------------------------------*- C++ -*----------------------------------*\
  =========                 |
  \\      /  F ield         | OpenFOAM: The Open Source CFD Toolbox
   \\    /   O peration     | Website:  https://openfoam.org
    \\  /    A nd           | Version:  7
     \\/     M anipulation  |
\*---------------------------------------------------------------------------*/
FoamFile
{
    version     2.0;
    format      ascii;
    class       surfaceScalarField;
    location    "120";
    object      phi;
}
// * * * * * * * * * * * * * * * * * * * * * * * * * * * * * * * * * * * * * //

dimensions      [0 3 -1 0 0 0 0];

internalField   nonuniform List<scalar> 
8878
(
-0.00422344
-0.000257204
-0.000255696
-0.00407998
-0.00418878
-0.000290356
-0.000217224
-0.0038416
-0.000251608
-0.00394031
-0.000286952
-0.00404464
-0.00415258
-0.000323156
-0.0002103
-0.00371546
-0.00024506
-0.00380684
-0.000280958
-0.00390441
-0.000317846
-0.00400775
-0.00411483
-0.000355593
-0.000201354
-0.00359616
-0.000236312
-0.0036805
-0.00027253
-0.00377063
-0.000309936
-0.003867
-0.000348367
-0.00396932
-0.00407555
-0.000387654
-0.000190522
-0.00348304
-0.000225604
-0.00356108
-0.000261962
-0.00364414
-0.000299624
-0.00373296
-0.00033853
-0.0038281
-0.000378503
-0.00392934
-0.00403472
-0.000419329
-0.000177863
-0.00337521
-0.000213062
-0.00344784
-0.000249504
-0.00352464
-0.000287246
-0.0036064
-0.000326335
-0.00369388
-0.000366727
-0.00378771
-0.000408239
-0.00388783
-0.00399235
-0.000450605
-0.000163425
-0.00327155
-0.000198727
-0.00333991
-0.000235265
-0.00341131
-0.00027305
-0.00348685
-0.000312156
-0.0035673
-0.000352653
-0.00365338
-0.000394517
-0.00374584
-0.000437563
-0.00384479
-0.00394845
-0.000481467
-0.0001473
-0.00317038
-0.000182632
-0.00323622
-0.000219265
-0.00330327
-0.000257126
-0.00337345
-0.000296238
-0.00344774
-0.000336689
-0.00352685
-0.000378571
-0.0036115
-0.000421888
-0.00370253
-0.00046646
-0.00380021
-0.00390301
-0.000511901
-0.000129679
-0.0030687
-0.000164857
-0.0031352
-0.000201525
-0.00319956
-0.000239474
-0.00326532
-0.000278643
-0.00333428
-0.000319067
-0.00340732
-0.000360841
-0.00348507
-0.000404082
-0.00356826
-0.000448828
-0.00365778
-0.000494915
-0.00375413
-0.00385603
-0.00054189
-0.000110888
-0.00296144
-0.000145579
-0.00303401
-0.000182115
-0.00309866
-0.000220102
-0.00316157
-0.000259352
-0.00322607
-0.000299816
-0.00329381
-0.000341534
-0.0033656
-0.000384611
-0.00344199
-0.000429183
-0.00352368
-0.000475327
-0.00361164
-0.000522914
-0.00370654
-0.00380753
-0.00057142
-9.14263e-05
-0.00284044
-0.000125104
-0.00292776
-0.000161198
-0.00299792
-0.000199072
-0.00306079
-0.00023836
-0.00312228
-0.000278897
-0.00318554
-0.000320643
-0.00325207
-0.00036364
-0.0033226
-0.000407998
-0.00339764
-0.00045387
-0.00347781
-0.000501378
-0.00356413
-0.000550443
-0.00365747
-0.0037575
-0.000600473
-7.19901e-05
-0.00269388
-0.000103912
-0.00280852
-0.000139064
-0.00289261
-0.000176536
-0.00296045
-0.000215725
-0.0030216
-0.000256299
-0.00308171
-0.000298109
-0.00314373
-0.000341123
-0.00320905
-0.000385384
-0.00327834
-0.000431003
-0.00335202
-0.000478145
-0.00343067
-0.000526977
-0.0035153
-0.000577493
-0.00360696
-0.00370595
-0.000629039
-5.34415e-05
-0.00250628
-8.26804e-05
-0.00266465
-0.000116173
-0.00277502
-0.000152767
-0.00285601
-0.000191588
-0.00292163
-0.000232073
-0.00298111
-0.000273915
-0.00303987
-0.000316983
-0.00310066
-0.000361254
-0.00316478
-0.000406768
-0.00323283
-0.00045363
-0.00330516
-0.000502012
-0.00338229
-0.000552125
-0.00346518
-0.000604058
-0.00355503
-0.0036529
-0.00065711
-6.22647e-05
-0.00248074
-9.31818e-05
-0.00263373
-0.000128205
-0.00274
-0.000166208
-0.00281801
-0.000206353
-0.00288148
-0.000248112
-0.00293936
-0.000291206
-0.00299677
-0.00033552
-0.00305634
-0.000381035
-0.00311927
-0.000427792
-0.00318607
-0.000475885
-0.00325706
-0.000525482
-0.00333269
-0.000576832
-0.00341383
-0.000630141
-0.00350172
-0.00359836
-0.000684678
-4.36226e-05
-0.00223865
-7.09392e-05
-0.00245342
-0.00010349
-0.00260118
-0.000140006
-0.00270348
-0.000179385
-0.00277863
-0.000220828
-0.00284004
-0.000263841
-0.00289634
-0.00030817
-0.00295244
-0.000353714
-0.0030108
-0.000400464
-0.00307252
-0.000448456
-0.00313808
-0.000497773
-0.00320774
-0.000548567
-0.0032819
-0.000601115
-0.00336129
-0.00065576
-0.00344707
-0.00354237
-0.000711751
-2.76774e-05
-0.00191978
-5.04179e-05
-0.00221591
-7.94602e-05
-0.00242438
-0.000113601
-0.00256704
-0.000151571
-0.00266552
-0.000192295
-0.00273791
-0.000235012
-0.00279732
-0.000279258
-0.0028521
-0.000324803
-0.0029069
-0.000371565
-0.00296404
-0.000419538
-0.00302454
-0.000468759
-0.00308886
-0.000519299
-0.0031572
-0.000571283
-0.00322991
-0.000625002
-0.00330757
-0.000680952
-0.00339112
-0.00348492
-0.0007384
-3.25913e-05
-0.00190234
-5.71008e-05
-0.0021914
-8.78231e-05
-0.00239366
-0.000123511
-0.00253135
-0.000162897
-0.00262613
-0.000204937
-0.00269587
-0.0002489
-0.00275336
-0.000294358
-0.00280664
-0.000341103
-0.00286015
-0.000389066
-0.00291607
-0.000438252
-0.00297536
-0.000488698
-0.00303841
-0.000540464
-0.00310544
-0.000593644
-0.00317673
-0.000648534
-0.00325268
-0.000705781
-0.00333388
-0.00342597
-0.000764736
-1.82735e-05
-0.0014964
-3.74318e-05
-0.00188318
-6.36668e-05
-0.00216516
-9.6024e-05
-0.0023613
-0.000133217
-0.00249416
-0.000173984
-0.00258536
-0.000217307
-0.00265254
-0.000262492
-0.00270817
-0.00030914
-0.00275999
-0.000357066
-0.00281223
-0.000406214
-0.00286693
-0.000456599
-0.00292497
-0.000508265
-0.00298674
-0.000561265
-0.00305244
-0.000615671
-0.00312233
-0.000671766
-0.00319658
-0.000730275
-0.00327537
-0.00336544
-0.000790803
-7.98021e-06
-0.000987663
-2.13597e-05
-0.00148302
-4.2195e-05
-0.00186235
-7.01117e-05
-0.00213725
-0.000104059
-0.00232735
-0.000142716
-0.0024555
-0.000184826
-0.00254325
-0.000229403
-0.00260797
-0.000275785
-0.00266179
-0.000323601
-0.00271217
-0.000372687
-0.00276314
-0.000423002
-0.00281661
-0.000474571
-0.00287341
-0.000527447
-0.00293387
-0.000581689
-0.0029982
-0.000637378
-0.00306664
-0.000694791
-0.00313917
-0.000754463
-0.00321569
-0.00330305
-0.00081685
-9.54293e-06
-0.000980006
-2.44025e-05
-0.00146816
-4.68769e-05
-0.00183987
-7.64316e-05
-0.00210769
-0.000111925
-0.00229186
-0.000152005
-0.00241542
-0.000195424
-0.00249983
-0.000241224
-0.00256217
-0.000288776
-0.00261424
-0.000337737
-0.00266321
-0.000387962
-0.00271292
-0.000439422
-0.00276515
-0.000492155
-0.00282067
-0.000546223
-0.0028798
-0.000601702
-0.00294272
-0.000658726
-0.00300962
-0.000717631
-0.00308026
-0.000779137
-0.00315419
-0.00324049
-0.000841702
-2.34456e-06
-0.000371241
-1.10833e-05
-0.000971267
-2.73935e-05
-0.00145185
-5.14678e-05
-0.0018158
-8.26166e-05
-0.00207654
-0.000119612
-0.00225486
-0.000161074
-0.00237396
-0.000205767
-0.00245514
-0.000252761
-0.00251517
-0.000301458
-0.00256554
-0.00035154
-0.00261313
-0.00040288
-0.00266158
-0.000455464
-0.00271257
-0.000509335
-0.0027668
-0.000564564
-0.00282457
-0.000621253
-0.00288603
-0.000679591
-0.00295128
-0.000739729
-0.00302013
-0.000800724
-0.00309319
-0.00317283
-0.000868382
-2.80151e-06
-0.00036844
-1.26074e-05
-0.000961461
-3.03404e-05
-0.00143412
-5.59768e-05
-0.00179016
-8.86767e-05
-0.00204384
-0.000127132
-0.00221641
-0.000169937
-0.00233115
-0.000215868
-0.00240921
-0.000264025
-0.00246702
-0.00031384
-0.00251572
-0.000365019
-0.00256195
-0.000417452
-0.00260914
-0.000471133
-0.00265888
-0.000526114
-0.00271182
-0.000582471
-0.00276821
-0.000640315
-0.00282819
-0.000699809
-0.00289178
-0.000761002
-0.00295893
-0.000823902
-0.00303029
-0.00310577
-0.000890957
-3.25342e-06
-0.000365186
-1.41094e-05
-0.000950605
-3.32352e-05
-0.001415
-6.03945e-05
-0.001763
-9.46021e-05
-0.00200964
-0.000134473
-0.00217654
-0.000178582
-0.00228704
-0.000225719
-0.00236207
-0.000275009
-0.00241773
-0.000325915
-0.00246482
-0.000378166
-0.0025097
-0.000431667
-0.00255564
-0.000486421
-0.00260413
-0.000542483
-0.00265576
-0.000599935
-0.00271076
-0.000658884
-0.00276924
-0.000719466
-0.0028312
-0.000781745
-0.00289665
-0.000845979
-0.00296606
-0.00303858
-0.000913174
-3.6997e-06
-0.000361487
-1.55875e-05
-0.000938717
-3.60754e-05
-0.00139451
-6.47181e-05
-0.00173436
-0.00010039
-0.00197396
-0.000141636
-0.00213529
-0.00018701
-0.00224167
-0.000235316
-0.00231376
-0.00028571
-0.00236733
-0.000337681
-0.00241285
-0.000390979
-0.0024564
-0.000445522
-0.0025011
-0.000501323
-0.00254833
-0.000558439
-0.00259864
-0.000616953
-0.00265225
-0.000676969
-0.00270922
-0.000738599
-0.00276957
-0.000801933
-0.00283332
-0.000867224
-0.00290077
-0.00297091
-0.000934891
-4.13982e-06
-0.000357347
-1.70403e-05
-0.000925817
-3.88587e-05
-0.00137269
-6.8945e-05
-0.00170427
-0.000106039
-0.00193687
-0.000148616
-0.00209271
-0.000195217
-0.00219507
-0.000244661
-0.00226432
-0.000296128
-0.00231586
-0.000349137
-0.00235984
-0.000403456
-0.00240208
-0.000459017
-0.00244554
-0.000515837
-0.00249151
-0.000573979
-0.0025405
-0.000633525
-0.0025927
-0.000694572
-0.00264817
-0.00075722
-0.00270692
-0.000821566
-0.00276897
-0.000887805
-0.00283453
-0.0029026
-0.000956117
-4.57327e-06
-0.000352773
-1.84662e-05
-0.000911924
-4.15828e-05
-0.00134957
-7.30728e-05
-0.00167278
-0.000111546
-0.0018984
-0.000155414
-0.00204885
-0.000203204
-0.00214728
-0.000253751
-0.00221377
-0.000306263
-0.00226335
-0.000360282
-0.00230582
-0.000415596
-0.00234677
-0.000472148
-0.00238899
-0.000529963
-0.0024337
-0.000589103
-0.00248136
-0.000649651
-0.00253215
-0.000711697
-0.00258613
-0.000775335
-0.00264328
-0.000840656
-0.00270365
-0.000907805
-0.00276738
-0.00283354
-0.00097686
-4.99954e-06
-0.000347774
-1.98639e-05
-0.00089706
-4.42459e-05
-0.00132519
-7.70992e-05
-0.00163993
-0.000116908
-0.00185859
-0.000162026
-0.00200373
-0.000210968
-0.00209834
-0.000262585
-0.00216216
-0.000316112
-0.00220983
-0.000371114
-0.00225082
-0.000427398
-0.00229048
-0.000484916
-0.00233147
-0.000543699
-0.00237491
-0.00060381
-0.00242125
-0.000665331
-0.00247063
-0.000728349
-0.00252311
-0.00079295
-0.00257868
-0.000859218
-0.00263739
-0.000927263
-0.00269934
-0.00276368
-5.41814e-06
-0.000342356
-2.1232e-05
-0.000881246
-4.68458e-05
-0.00129958
-8.10223e-05
-0.00160575
-0.000122125
-0.00181749
-0.000168452
-0.0019574
-0.000218509
-0.00204828
-0.000271163
-0.0021095
-0.000325675
-0.00215531
-0.000381634
-0.00219486
-0.000438861
-0.00223326
-0.00049732
-0.00227301
-0.000557044
-0.00231519
-0.0006181
-0.00236019
-0.000680567
-0.00240816
-0.00074453
-0.00245915
-0.00081007
-0.00251314
-0.000877263
-0.00257019
-0.000946198
-0.0026304
-0.00269298
-5.82861e-06
-0.000336527
-2.25693e-05
-0.000864505
-4.9381e-05
-0.00127276
-8.48401e-05
-0.00157029
-0.000127195
-0.00177513
-0.000174691
-0.00190991
-0.000225825
-0.00199715
-0.000279485
-0.00205584
-0.000334952
-0.00209985
-0.00039184
-0.00213797
-0.000449984
-0.00217511
-0.000509357
-0.00221364
-0.000569997
-0.00225455
-0.000631972
-0.00229822
-0.00069536
-0.00234478
-0.000760243
-0.00239426
-0.000826698
-0.00244669
-0.000894798
-0.00250209
-0.00096462
-0.00256058
-0.00262142
-6.23045e-06
-0.000330297
-2.38745e-05
-0.000846861
-5.18497e-05
-0.00124479
-8.85509e-05
-0.00153359
-0.000132116
-0.00173157
-0.00018074
-0.00186128
-0.000232917
-0.00194497
-0.000287549
-0.00200121
-0.000343943
-0.00204345
-0.000401732
-0.00208018
-0.000460767
-0.00211608
-0.000521029
-0.00215338
-0.000582559
-0.00219302
-0.000645426
-0.00223535
-0.00070971
-0.00228049
-0.000775488
-0.00232848
-0.000842838
-0.00237934
-0.000911828
-0.0024331
-0.00098253
-0.00248988
-6.62325e-06
-0.000323673
-2.51467e-05
-0.000828338
-5.42503e-05
-0.00121569
-9.21531e-05
-0.00149569
-0.000136886
-0.00168683
-0.0001866
-0.00181157
-0.000239783
-0.00189179
-0.000295355
-0.00194564
-0.000352646
-0.00198616
-0.000411309
-0.00202152
-0.000471209
-0.00205618
-0.000532333
-0.00209225
-0.000594728
-0.00213062
-0.000658463
-0.00217162
-0.000723617
-0.00221534
-0.000790268
-0.00226183
-0.000858491
-0.00231112
-0.000928354
-0.00236324
-0.0024183
-7.00657e-06
-0.000316667
-2.63847e-05
-0.00080896
-5.65816e-05
-0.00118549
-9.56452e-05
-0.00145663
-0.000141505
-0.00164097
-0.000192269
-0.0017608
-0.000246423
-0.00183763
-0.000302903
-0.00188916
-0.000361062
-0.001928
-0.000420571
-0.00196201
-0.00048131
-0.00199544
-0.000543271
-0.00203029
-0.000606504
-0.00206739
-0.000671081
-0.00210704
-0.00073708
-0.00214934
-0.000804581
-0.00219433
-0.000873656
-0.00224204
-0.000944375
-0.00229252
-0.00234587
-7.38001e-06
-0.000309287
-2.75876e-05
-0.000788752
-5.88421e-05
-0.00115423
-9.90259e-05
-0.00141644
-0.000145972
-0.00159403
-0.000197747
-0.00170903
-0.000252836
-0.00178254
-0.000310192
-0.0018318
-0.00036919
-0.001869
-0.000429518
-0.00190168
-0.000491068
-0.00193389
-0.00055384
-0.00196752
-0.000617886
-0.00200335
-0.00068328
-0.00204165
-0.0007501
-0.00208252
-0.000818426
-0.00212601
-0.000888333
-0.00217213
-0.00095989
-0.00222096
-7.7432e-06
-0.000301544
-2.87544e-05
-0.000767741
-6.10306e-05
-0.00112196
-0.000102294
-0.00137518
-0.000150285
-0.00154604
-0.000203033
-0.00165628
-0.000259021
-0.00172656
-0.000317222
-0.0017736
-0.000377029
-0.0018092
-0.00043815
-0.00184056
-0.000500484
-0.00187155
-0.000564041
-0.00190396
-0.000628874
-0.00193851
-0.000695059
-0.00197546
-0.000762676
-0.0020149
-0.000831804
-0.00205688
-0.000902519
-0.00210142
-0.00214859
-8.09576e-06
-0.000293448
-2.98844e-05
-0.000745952
-6.31459e-05
-0.0010887
-0.000105448
-0.00133288
-0.000154443
-0.00149704
-0.000208125
-0.0016026
-0.000264979
-0.0016697
-0.000323993
-0.00171459
-0.00038458
-0.00174861
-0.000446465
-0.00177868
-0.000509557
-0.00180846
-0.000573872
-0.00183965
-0.000639466
-0.00187292
-0.000706417
-0.00190851
-0.000774805
-0.00194651
-0.000844711
-0.00198697
-0.000916212
-0.00202992
-0.00207542
-8.43735e-06
-0.000285011
-3.09766e-05
-0.000723413
-6.5187e-05
-0.00105449
-0.000108488
-0.00128958
-0.000158446
-0.00144708
-0.000213025
-0.00154802
-0.00027071
-0.00161202
-0.000330504
-0.00165479
-0.000391843
-0.00168727
-0.000454463
-0.00171606
-0.000518286
-0.00174464
-0.000583332
-0.0017746
-0.000649661
-0.00180659
-0.000717352
-0.00184082
-0.000786486
-0.00187738
-0.000857145
-0.00191631
-0.000929409
-0.00195765
-0.00200147
-8.76764e-06
-0.000276243
-3.20303e-05
-0.00070015
-6.71529e-05
-0.00101936
-0.000111411
-0.00124532
-0.000162292
-0.0013962
-0.00021773
-0.00149258
-0.000276211
-0.00155354
-0.000336755
-0.00159425
-0.000398815
-0.00162521
-0.000462144
-0.00165273
-0.000526671
-0.00168011
-0.000592421
-0.00170885
-0.000659459
-0.00173955
-0.000727863
-0.00177242
-0.000797717
-0.00180753
-0.000869104
-0.00184493
-0.000942107
-0.00188465
-9.08632e-06
-0.000267157
-3.30449e-05
-0.000676192
-6.90425e-05
-0.000983366
-0.000114218
-0.00120014
-0.000165982
-0.00134444
-0.000222241
-0.00143632
-0.000281484
-0.00149429
-0.000342746
-0.00153299
-0.000405499
-0.00156246
-0.000469507
-0.00158872
-0.000534711
-0.00161491
-0.000601139
-0.00164242
-0.000668858
-0.00167183
-0.000737948
-0.00170332
-0.000808496
-0.00173698
-0.000880586
-0.00177284
-0.00181093
-9.3931e-06
-0.000257764
-3.40195e-05
-0.000651565
-7.08551e-05
-0.000946531
-0.000116907
-0.00115409
-0.000169514
-0.00129183
-0.000226557
-0.00137928
-0.000286528
-0.00143432
-0.000348477
-0.00147104
-0.000411892
-0.00149904
-0.000476552
-0.00152406
-0.000542404
-0.00154905
-0.000609482
-0.00157535
-0.000677856
-0.00160346
-0.000747607
-0.00163357
-0.000818822
-0.00166576
-0.000891588
-0.00170007
-0.00173653
-9.68769e-06
-0.000248076
-3.49536e-05
-0.000626299
-7.25898e-05
-0.000908895
-0.000119477
-0.0011072
-0.000172888
-0.00123842
-0.000230678
-0.00132149
-0.000291342
-0.00137366
-0.000353947
-0.00140843
-0.000417995
-0.00143499
-0.000483278
-0.00145878
-0.000549751
-0.00148258
-0.000617452
-0.00150765
-0.000686452
-0.00153446
-0.000756835
-0.00156319
-0.000828691
-0.00159391
-0.000902105
-0.00162666
-0.00166147
-9.96983e-06
-0.000238106
-3.58466e-05
-0.000600423
-7.42458e-05
-0.000870495
-0.000121929
-0.00105952
-0.000176103
-0.00118425
-0.000234603
-0.00126299
-0.000295927
-0.00131233
-0.000359156
-0.0013452
-0.000423807
-0.00137034
-0.000489684
-0.0013929
-0.00055675
-0.00141552
-0.000625045
-0.00143935
-0.000694645
-0.00146486
-0.000765633
-0.0014922
-0.000838101
-0.00152144
-0.000912137
-0.00155262
-1.02393e-05
-0.000227867
-3.66978e-05
-0.000573964
-7.58224e-05
-0.000831371
-0.00012426
-0.00101108
-0.000179158
-0.00112935
-0.000238331
-0.00120382
-0.000300281
-0.00125038
-0.000364103
-0.00128138
-0.000429328
-0.00130512
-0.000495771
-0.00132646
-0.000563401
-0.00134789
-0.000632262
-0.00137049
-0.000702433
-0.00139469
-0.000773998
-0.00142064
-0.00084705
-0.00144839
-0.00147799
-1.04958e-05
-0.000217371
-3.75069e-05
-0.000546953
-7.73189e-05
-0.000791559
-0.000126471
-0.00096193
-0.000182054
-0.00107377
-0.000241863
-0.00114401
-0.000304405
-0.00118784
-0.000368788
-0.001217
-0.000434557
-0.00123935
-0.000501537
-0.00125948
-0.000569702
-0.00127972
-0.000639102
-0.00130109
-0.000709814
-0.00132398
-0.000781928
-0.00134852
-0.000855535
-0.00137478
-0.0014028
-1.07391e-05
-0.000206632
-3.82732e-05
-0.000519419
-7.87347e-05
-0.000751097
-0.000128561
-0.000912103
-0.000184789
-0.00101754
-0.000245198
-0.0010836
-0.000308299
-0.00112474
-0.000373211
-0.00115209
-0.000439494
-0.00117307
-0.000506981
-0.00119199
-0.000575653
-0.00121105
-0.000645562
-0.00123118
-0.000716788
-0.00125275
-0.000789421
-0.00127589
-0.000863555
-0.00130065
-0.00132707
-1.09691e-05
-0.000195663
-3.89963e-05
-0.000491392
-8.00691e-05
-0.000710025
-0.000130529
-0.000861643
-0.000187363
-0.000960703
-0.000248336
-0.00102263
-0.000311961
-0.00106112
-0.000377372
-0.00108668
-0.000444139
-0.0011063
-0.000512103
-0.00112403
-0.000581252
-0.0011419
-0.000651642
-0.00116079
-0.000723352
-0.00118104
-0.000796476
-0.00120276
-0.000871107
-0.00122602
-0.00125083
-1.11855e-05
-0.000184477
-3.96758e-05
-0.000462901
-8.13217e-05
-0.000668379
-0.000132375
-0.00081059
-0.000189776
-0.000903302
-0.000251275
-0.000961126
-0.000315392
-0.000997
-0.00038127
-0.0010208
-0.00044849
-0.00103908
-0.000516902
-0.00105562
-0.0005865
-0.0010723
-0.00065734
-0.00108995
-0.000729506
-0.00110887
-0.00080309
-0.00112918
-0.000878189
-0.00115092
-1.13882e-05
-0.000173089
-4.03113e-05
-0.000433978
-8.2492e-05
-0.000626198
-0.000134098
-0.000758985
-0.000192027
-0.000845373
-0.000254017
-0.000899136
-0.000318592
-0.000932425
-0.000384904
-0.000954487
-0.000452547
-0.000971435
-0.000521379
-0.000986785
-0.000591395
-0.00100229
-0.000662656
-0.00101869
-0.000735247
-0.00103628
-0.000809262
-0.00105516
-0.00107538
-1.15769e-05
-0.000161512
-4.09023e-05
-0.000404653
-8.35793e-05
-0.000583521
-0.000135698
-0.000706866
-0.000194116
-0.000786954
-0.000256561
-0.000836691
-0.000321559
-0.000867427
-0.000388275
-0.000887771
-0.000456311
-0.0009034
-0.000525531
-0.000917565
-0.000595936
-0.00093188
-0.000667588
-0.000947037
-0.000740575
-0.000963296
-0.000814991
-0.000980749
-0.00099944
-1.17516e-05
-0.00014976
-4.14486e-05
-0.000374956
-8.45833e-05
-0.000540386
-0.000137174
-0.000654276
-0.000196043
-0.000728085
-0.000258906
-0.000773828
-0.000324294
-0.000802038
-0.000391382
-0.000820683
-0.00045978
-0.000835002
-0.000529358
-0.000847987
-0.000600122
-0.000861116
-0.000672136
-0.000875023
-0.000745488
-0.000889944
-0.000820273
-0.000905964
-0.000923121
-1.19121e-05
-0.000137848
-4.19498e-05
-0.000344918
-8.55036e-05
-0.000496832
-0.000138526
-0.000601254
-0.000197806
-0.000668804
-0.000261052
-0.000710583
-0.000326797
-0.000736292
-0.000394225
-0.000753256
-0.000462954
-0.000766274
-0.00053286
-0.00077808
-0.000603953
-0.000790024
-0.000676298
-0.000802678
-0.000749984
-0.000816257
-0.000825109
-0.000830839
-0.000846458
-1.20582e-05
-0.00012579
-4.24056e-05
-0.000314571
-8.63398e-05
-0.000452898
-0.000139753
-0.00054784
-0.000199407
-0.000609151
-0.000262998
-0.000646991
-0.000329067
-0.000670224
-0.000396803
-0.00068552
-0.000465832
-0.000697245
-0.000536036
-0.000707876
-0.000607427
-0.000718633
-0.000680073
-0.000730032
-0.000754064
-0.000742266
-0.000829497
-0.000755405
-0.000769482
-1.21898e-05
-0.0001136
-4.28157e-05
-0.000283945
-8.70916e-05
-0.000408622
-0.000140856
-0.000494076
-0.000200844
-0.000549163
-0.000264746
-0.000583089
-0.000331104
-0.000603865
-0.000399116
-0.000617508
-0.000468415
-0.000627946
-0.000538886
-0.000637405
-0.000610545
-0.000646974
-0.000683461
-0.000657116
-0.000757725
-0.000668002
-0.000833435
-0.000679695
-0.000692223
-1.23068e-05
-0.000101294
-4.318e-05
-0.000253072
-8.77586e-05
-0.000364044
-0.000141834
-0.00044
-0.000202117
-0.00048888
-0.000266293
-0.000518913
-0.000332908
-0.00053725
-0.000401164
-0.000549252
-0.000470701
-0.000558409
-0.000541409
-0.000566697
-0.000613305
-0.000575078
-0.00068646
-0.000583961
-0.000760966
-0.000593496
-0.000836922
-0.000603739
-0.000614715
-1.24092e-05
-8.88843e-05
-4.34981e-05
-0.000221983
-8.83406e-05
-0.000319201
-0.000142686
-0.000385655
-0.000203227
-0.00042834
-0.000267641
-0.000454499
-0.000334478
-0.000470413
-0.000402947
-0.000480783
-0.000472691
-0.000488666
-0.000543605
-0.000495783
-0.000615707
-0.000502976
-0.00068907
-0.000510597
-0.000763787
-0.000518779
-0.000839958
-0.000527569
-0.000536989
-1.24968e-05
-7.63876e-05
-4.37699e-05
-0.00019071
-8.88373e-05
-0.000274134
-0.000143413
-0.000331079
-0.000204172
-0.000367581
-0.000268789
-0.000389882
-0.000335815
-0.000403387
-0.000404464
-0.000412135
-0.000474384
-0.000418746
-0.000545472
-0.000424694
-0.00061775
-0.000430698
-0.000691291
-0.000437057
-0.000766187
-0.000443883
-0.00084254
-0.000451216
-0.000459077
-1.25695e-05
-6.3818e-05
-4.39953e-05
-0.000159284
-8.92486e-05
-0.00022888
-0.000144014
-0.000276313
-0.000204953
-0.000306643
-0.000269736
-0.000325099
-0.000336917
-0.000336206
-0.000405714
-0.000343338
-0.000475779
-0.000348681
-0.000547012
-0.000353462
-0.000619434
-0.000358275
-0.000693121
-0.00036337
-0.000768166
-0.000368838
-0.000844669
-0.000374713
-0.000381011
-1.26274e-05
-5.11907e-05
-4.41741e-05
-0.000127737
-8.95742e-05
-0.00018348
-0.000144489
-0.000221397
-0.000205569
-0.000245563
-0.000270483
-0.000260185
-0.000337786
-0.000268902
-0.000406699
-0.000274425
-0.000476877
-0.000278502
-0.000548223
-0.000282116
-0.000620759
-0.000285739
-0.00069456
-0.000289569
-0.000769721
-0.000293677
-0.000846343
-0.000298092
-1.26702e-05
-3.85204e-05
-4.43061e-05
-9.61013e-05
-8.9814e-05
-0.000137972
-0.000144838
-0.000166373
-0.000206021
-0.00018438
-0.000271029
-0.000195177
-0.00033842
-0.000201511
-0.000407417
-0.000205428
-0.000477678
-0.000208242
-0.000549105
-0.000210689
-0.000621723
-0.000213121
-0.000695608
-0.000215684
-0.000770854
-0.000218431
-0.000221384
-1.26981e-05
-2.58223e-05
-4.43914e-05
-6.4408e-05
-8.99678e-05
-9.23961e-05
-0.000145061
-0.00011128
-0.000206308
-0.000123134
-0.000271375
-0.00013011
-0.00033882
-0.000134066
-0.000407869
-0.000136379
-0.00047818
-0.000137931
-0.000549658
-0.000139211
-0.000622327
-0.000140451
-0.000696264
-0.000141747
-0.000771563
-0.000143133
-0.000144621
-1.2711e-05
-1.31113e-05
-4.44298e-05
-3.26892e-05
-9.00357e-05
-4.67902e-05
-0.000145158
-5.61578e-05
-0.00020643
-6.18616e-05
-0.000271519
-6.50203e-05
-0.000338986
-6.65997e-05
-0.000408054
-6.73103e-05
-0.000478384
-6.76008e-05
-0.000549881
-6.77141e-05
-0.000622571
-6.77622e-05
-0.000696528
-6.77898e-05
-0.000771848
-6.78125e-05
-6.78368e-05
-1.27088e-05
-4.02506e-07
-4.44213e-05
-9.76705e-07
-9.00175e-05
-1.19392e-06
-0.000145127
-1.04789e-06
-0.000206387
-6.02326e-07
-0.000271463
5.62127e-08
-0.000338916
8.53458e-07
-0.000407972
1.74543e-06
-0.00047829
2.7172e-06
-0.000549776
3.77125e-06
-0.000622453
4.91551e-06
-0.0006964
6.15637e-06
-0.000771709
7.49687e-06
8.93745e-06
-1.26917e-05
1.22892e-05
-4.43661e-05
3.06977e-05
-8.99135e-05
4.43535e-05
-0.000144971
5.40098e-05
-0.000206179
6.06055e-05
-0.000271207
6.50836e-05
-0.000338613
6.82599e-05
-0.000407624
7.07563e-05
-0.000477898
7.29915e-05
-0.00054934
7.52135e-05
-0.000621975
7.75505e-05
-0.000695879
8.00599e-05
-0.000771146
8.27638e-05
8.56694e-05
-1.26595e-05
2.49487e-05
-4.4264e-05
6.23022e-05
-8.97235e-05
8.98131e-05
-0.000144689
0.000108975
-0.000205806
0.000121723
-0.000270749
0.000130026
-0.000338075
0.000135586
-0.000407009
0.00013969
-0.000477208
0.000143191
-0.000548576
0.000146581
-0.000621137
0.000150111
-0.000694966
0.000153889
-0.000770159
0.000157956
0.000162327
-1.26124e-05
3.75611e-05
-4.41151e-05
9.38049e-05
-8.94476e-05
0.000135146
-0.00014428
0.000163807
-0.000205269
0.000182712
-0.00027009
0.000194847
-0.000337302
0.000202798
-0.000406127
0.000208515
-0.000476219
0.000213283
-0.000547481
0.000217844
-0.000619937
0.000222567
-0.000693661
0.000227613
-0.000768747
0.000233043
-0.000845298
0.000238877
0.000245124
-1.25503e-05
5.01114e-05
-4.39195e-05
0.000125174
-8.90858e-05
0.000180312
-0.000143745
0.000218466
-0.000204566
0.000243534
-0.00026923
0.000259511
-0.000336295
0.000269862
-0.000404977
0.000277198
-0.000474932
0.000283237
-0.000546057
0.000288969
-0.000618376
0.000294886
-0.000691963
0.0003012
-0.000766912
0.000307991
-0.000843323
0.000315289
0.000323103
-1.24733e-05
6.25847e-05
-4.36773e-05
0.000156378
-8.86382e-05
0.000225273
-0.000143083
0.000272911
-0.000203699
0.00030415
-0.00026817
0.000323982
-0.000335052
0.000336744
-0.000403562
0.000345707
-0.000473346
0.000353022
-0.000544304
0.000359927
-0.000616455
0.000367037
-0.000689874
0.000374618
-0.000764653
0.00038277
-0.000840893
0.000391529
0.000400909
-1.23815e-05
7.49662e-05
-4.33886e-05
0.000187385
-8.81051e-05
0.000269989
-0.000142296
0.000327102
-0.000202667
0.000364521
-0.000266909
0.000388224
-0.000333576
0.000403412
-0.000401879
0.00041401
-0.000471463
0.000422606
-0.000542222
0.000430686
-0.000614174
0.00043899
-0.000687392
0.000447837
-0.00076197
0.000457348
-0.000838007
0.000467566
0.000478509
-1.22749e-05
8.72411e-05
-4.30536e-05
0.000218164
-8.74867e-05
0.000314422
-0.000141383
0.000380998
-0.00020147
0.000424608
-0.000265447
0.0004522
-0.000331865
0.000469829
-0.00039993
0.000482075
-0.000469281
0.000491958
-0.00053981
0.000501215
-0.000611532
0.000510712
-0.00068452
0.000520824
-0.000758865
0.000531693
-0.000834666
0.000543368
0.000555871
-1.21536e-05
9.93946e-05
-4.26724e-05
0.000248683
-8.67831e-05
0.000358533
-0.000140344
0.000434559
-0.000200109
0.000484374
-0.000263784
0.000515875
-0.000329919
0.000535964
-0.000397714
0.00054987
-0.000466802
0.000561046
-0.00053707
0.000571482
-0.000608531
0.000582173
-0.000681256
0.000593549
-0.000755337
0.000605773
-0.000830872
0.000618903
0.000632963
-1.20177e-05
0.000111412
-4.22454e-05
0.000278911
-8.59946e-05
0.000402282
-0.00013918
0.000487745
-0.000198584
0.000543778
-0.000261921
0.000579212
-0.000327739
0.000601782
-0.000395232
0.000617362
-0.000464025
0.000629839
-0.000534001
0.000641458
-0.000605171
0.000653343
-0.000677603
0.000665981
-0.000751388
0.000679558
-0.000826624
0.000694139
0.000709753
-1.18674e-05
0.00012328
-4.17727e-05
0.000308816
-8.51216e-05
0.000445631
-0.000137891
0.000540514
-0.000196895
0.000602782
-0.000259858
0.000642175
-0.000325326
0.00066725
-0.000392483
0.000684519
-0.00046095
0.000698307
-0.000530604
0.000711112
-0.000601451
0.00072419
-0.000673559
0.000738089
-0.000747017
0.000753016
-0.000821924
0.000769045
0.000786208
-1.17028e-05
0.000134983
-4.12545e-05
0.000338368
-8.41643e-05
0.000488541
-0.000136477
0.000592826
-0.000195042
0.000661347
-0.000257595
0.000704728
-0.000322678
0.000732333
-0.000389469
0.00075131
-0.000457579
0.000766417
-0.000526879
0.000780412
-0.000597373
0.000794685
-0.000669127
0.000809843
-0.000742227
0.000826117
-0.000816772
0.00084359
0.000862298
-1.15239e-05
0.000146506
-4.06913e-05
0.000367535
-8.31232e-05
0.000530973
-0.000134939
0.000644642
-0.000193026
0.000719434
-0.000255131
0.000766834
-0.000319796
0.000796998
-0.000386188
0.000817703
-0.000453911
0.000834139
-0.000522827
0.000849328
-0.000592938
0.000864796