/*--------------------------------*- C++ -*----------------------------------*\
  =========                 |
  \\      /  F ield         | OpenFOAM: The Open Source CFD Toolbox
   \\    /   O peration     | Website:  https://openfoam.org
    \\  /    A nd           | Version:  7
     \\/     M anipulation  |
\*---------------------------------------------------------------------------*/
FoamFile
{
    version     2.0;
    format      ascii;
    class       volScalarField;
    location    "100";
    object      p;
}
// * * * * * * * * * * * * * * * * * * * * * * * * * * * * * * * * * * * * * //

dimensions      [0 2 -2 0 0 0 0];

internalField   nonuniform List<scalar> 
4575
(
0.201457
0.212119
0.222552
0.237917
0.232749
0.248456
0.2427
0.258734
0.252395
0.268739
0.261823
0.286985
0.278458
0.270975
0.296943
0.287881
0.279841
0.306575
0.296995
0.288409
0.315869
0.305789
0.296671
0.334989
0.324812
0.314251
0.304617
0.344099
0.333393
0.322371
0.312237
0.352812
0.3416
0.330137
0.319522
0.361116
0.349422
0.337541
0.326463
0.368999
0.356849
0.344572
0.333053
0.389051
0.376451
0.363872
0.351221
0.339283
0.396494
0.383462
0.37048
0.357479
0.345147
0.403457
0.390021
0.376665
0.363339
0.350636
0.409931
0.396122
0.382419
0.368791
0.355744
0.415906
0.401755
0.387735
0.373831
0.360466
0.421375
0.406913
0.392605
0.37845
0.364796
0.42633
0.41159
0.397023
0.382644
0.368728
0.430765
0.415779
0.400984
0.386407
0.37226
0.434675
0.419476
0.404483
0.389735
0.375386
0.438054
0.422675
0.407516
0.392623
0.378103
0.440899
0.425374
0.410079
0.395069
0.38041
0.459016
0.443206
0.427569
0.41217
0.397069
0.382302
0.460866
0.444974
0.429258
0.413787
0.398623
0.38378
0.462139
0.4462
0.43044
0.414928
0.399728
0.384842
0.462834
0.446885
0.431115
0.415592
0.400385
0.385488
0.462951
0.447028
0.431282
0.415781
0.400594
0.385717
0.462491
0.446631
0.430942
0.415495
0.400355
0.38553
0.445695
0.430099
0.414736
0.399669
0.38493
0.444224
0.428753
0.413505
0.398541
0.383917
0.442221
0.426909
0.411807
0.396971
0.382495
0.439691
0.42457
0.409646
0.394964
0.380666
0.436639
0.421742
0.407025
0.392524
0.378434
0.433071
0.418431
0.40395
0.389657
0.375803
0.428994
0.414642
0.400427
0.386366
0.372778
0.424416
0.410382
0.396463
0.38266
0.369364
0.419346
0.405661
0.392064
0.378543
0.365567
0.413792
0.400486
0.38724
0.374025
0.361394
0.407765
0.394866
0.381998
0.369113
0.356851
0.388812
0.376347
0.363814
0.351945
0.382333
0.370298
0.358139
0.346685
0.375441
0.36386
0.352097
0.341078
0.368148
0.357044
0.345698
0.335133
0.360465
0.349862
0.338953
0.328859
0.342325
0.331871
0.322265
0.334446
0.324465
0.315362
0.326236
0.316746
0.308159
0.317709
0.308726
0.300667
0.300417
0.292895
0.291832
0.284855
0.282982
0.276557
0.268011
0.259228
0.250219
0.106483
0.107461
0.109313
0.11193
0.11519
0.119049
0.123384
0.128153
0.133204
0.138471
0.143733
0.148879
0.153574
0.157648
0.160593
0.162201
0.161702
0.158951
0.152738
0.143312
0.128457
0.105319
0.106244
0.107986
0.110441
0.113483
0.117056
0.121032
0.125355
0.129863
0.13447
0.138947
0.143162
0.146774
0.149601
0.151142
0.151195
0.149035
0.144548
0.136669
0.125635
0.109826
0.104082
0.104949
0.106574
0.108857
0.111666
0.114938
0.118539
0.1224
0.12635
0.130292
0.133985
0.137289
0.139861
0.14152
0.141784
0.140478
0.136938
0.131107
0.122103
0.110204
0.0943919
0.102767
0.103573
0.105075
0.107178
0.109744
0.112704
0.115919
0.119309
0.122694
0.125967
0.128882
0.131293
0.132861
0.133412
0.132497
0.129957
0.12523
0.11827
0.108442
0.0959678
0.0803184
0.101374
0.102116
0.103492
0.105407
0.107724
0.110366
0.113188
0.116101
0.118923
0.121534
0.123691
0.12524
0.125862
0.125383
0.123407
0.119783
0.114067
0.10621
0.0958027
0.0829911
0.0675479
0.0999046
0.10058
0.101824
0.103547
0.10561
0.107928
0.110355
0.112792
0.115056
0.117019
0.118445
0.119177
0.118921
0.117506
0.114598
0.110054
0.103546
0.0950227
0.0842535
0.0713344
0.0562273
0.0983576
0.098964
0.100075
0.101602
0.103406
0.105397
0.107429
0.109393
0.11111
0.112445
0.113176
0.113141
0.112082
0.109832
0.106121
0.100817
0.0936971
0.0847147
0.0737718
0.0609454
0.0463228
0.0967341
0.0972702
0.0982459
0.0995734
0.101117
0.102781
0.104419
0.105918
0.107104
0.107838
0.107913
0.10717
0.105386
0.102403
0.0980135
0.0921012
0.0845305
0.0752676
0.0643104
0.0517335
0.0377016
0.0950352
0.0954998
0.0963386
0.0974653
0.0987483
0.100086
0.101338
0.102384
0.103059
0.103222
0.102686
0.101298
0.0988683
0.0952556
0.0903069
0.0839264
0.0760483
0.0666568
0.0558166
0.0436043
0.0302272
0.0932625
0.0936549
0.0943561
0.095282
0.0963058
0.0973227
0.0981959
0.0988045
0.0989924
0.0986208
0.0975229
0.0955545
0.0925614
0.0884192
0.0830238
0.0763025
0.0682435
0.0588502
0.0482319
0.0364668
0.0237827
0.0914182
0.091738
0.0923021
0.0930285
0.0937964
0.0944992
0.0950063
0.0951963
0.0949251
0.094058
0.0924497
0.089968
0.0864917
0.0819161
0.0761788
0.0692304
0.0611
0.0518089
0.0414943
0.0302343
0.0182639
0.0895046
0.0897522
0.0901805
0.0907102
0.0912276
0.0916257
0.0917814
0.0915749
0.0908752
0.0895548
0.0874895
0.0845618
0.0806805
0.0757622
0.0697786
0.0627032
0.0545948
0.0454896
0.0355408
0.0248246
0.0135738
0.087525
0.0877012
0.0879958
0.0883331
0.0886071
0.0887122
0.0885336
0.0879556
0.0868607
0.085131
0.0826629
0.0793555
0.0751441
0.0699669
0.0638236
0.0567078
0.0486993
0.0398461
0.0303083
0.0201587
0.00962142
0.0854829
0.085589
0.085753
0.0859037
0.0859432
0.085769
0.0852756
0.0843533
0.0828983
0.0808044
0.0779877
0.0743647
0.0698941
0.0645347
0.0583082
0.0512259
0.0433815
0.034831
0.0257353
0.016162
0.0063228
0.0833823
0.0834202
0.0834577
0.0834288
0.0832443
0.0828066
0.0820197
0.080782
0.0790034
0.076591
0.0734788
0.0696014
0.0649376
0.0594651
0.0532226
0.0462358
0.0386069
0.0303966
0.021762
0.0127649
0.00360148
0.0812277
0.0811999
0.0811158
0.0809156
0.0805193
0.0798354
0.0787781
0.0772552
0.0751903
0.0725043
0.0691484
0.065074
0.0602776
0.0547533
0.0485527
0.0417128
0.0343393
0.0264957
0.0183316
0.00990252
0.00138803
0.0790241
0.0789335
0.0787336
0.0783716
0.0777769
0.0768656
0.0755622
0.0737852
0.0714713
0.0685559
0.0650056
0.0607879
0.0559137
0.0503914
0.0442819
0.0376301
0.0305425
0.0230824
0.0153904
0.00751517
-0.000380389
0.076777
0.076627
0.0763178
0.0758045
0.0750261
0.0739073
0.0723831
0.0703832
0.0678575
0.0647553
0.0610571
0.0567452
0.0518424
0.0463686
0.0403909
0.0339599
0.0271798
0.0201124
0.0128879
0.0055481
-0.00176045
0.0744922
0.0742866
0.0738754
0.0732222
0.0722756
0.07097
0.0692508
0.0670595
0.0643582
0.0611097
0.057307
0.0529454
0.0480572
0.0426716
0.0368593
0.0306739
0.0242158
0.0175438
0.0107772
0.00395125
-0.0028032
0.0721759
0.0719188
0.0714135
0.0706325
0.0695342
0.068063
0.0661749
0.063823
0.060981
0.0576244
0.0537572
0.0493858
0.0445499
0.0392856
0.0336652
0.0277436
0.0216157
0.0153368
0.00901485
0.00267905
-0.00355442
0.0698344
0.0695303
0.0689393
0.0680433
0.0668102
0.065195
0.0631638
0.0606813
0.0577319
0.0543029
0.0504075
0.0460615
0.04131
0.0361944
0.0307864
0.0251408
0.0193464
0.0134539
0.00756074
0.00169015
-0.00405517
0.0674746
0.0671282
0.0664604
0.0654623
0.0641118
0.0623741
0.0602252
0.0576409
0.0546156
0.0511468
0.0472558
0.0429659
0.0383261
0.0333809
0.0282005
0.0228382
0.0173762
0.0118605
0.00637813
0.00094715
-0.00434212
0.0651034
0.0647195
0.063984
0.0628973
0.0614467
0.0596076
0.0573657
0.0547071
0.051635
0.0481563
0.0442985
0.0400911
0.0355854
0.0308276
0.0258852
0.0208094
0.0156753
0.0105243
0.00543343
0.000416314
-0.004448
0.0627278
0.0623115
0.0615176
0.0603557
0.0588221
0.0569023
0.0545911
0.0518838
0.0487919
0.0453299
0.0415307
0.0374281
0.0330746
0.0285167
0.0238189
0.0190291
0.0142157
0.00941536
0.00469606
6.73055e-05
-0.0044019
0.060355
0.0599112
0.0590683
0.0578445
0.0562448
0.0542643
0.0519061
0.0491742
0.0460869
0.0426653
0.0389463
0.034967
0.0307798
0.0264307
0.0219803
0.0174734
0.0129714
0.00850643
0.00413829
-0.000127075
-0.00422968
0.0579921
0.0575257
0.0566432
0.0553705
0.0537211
0.0516989
0.0493146
0.04658
0.0435192
0.0401588
0.0365384
0.0326973
0.0286869
0.0245522
0.0203493
0.0161196
0.011918
0.00777244
0.00373506
-0.000191132
-0.00395417
0.0556461
0.0551621
0.054249
0.0529402
0.0512567
0.0492106
0.0468196
0.0441022
0.0410874
0.037806
0.0342995
0.0306082
0.0267821
0.0228642
0.0189065
0.0149466
0.0110332
0.0071906
0.00346383
-0.000146513
-0.00359554
0.0533239
0.052827
0.0518923
0.0505593
0.0488565
0.0468032
0.0444233
0.0417409
0.038789
0.0356017
0.0322214
0.0286887
0.0250515
0.0213507
0.0176338
0.0139347
0.0102967
0.00674025
0.00330436
-1.24249e-05
-0.00317148
0.0510323
0.0505271
0.049579
0.0482335
0.0465252
0.04448
0.0421271
0.0394954
0.036621
0.0335401
0.0302956
0.0269276
0.0234816
0.0199959
0.0165138
0.0130657
0.00968962
0.00640273
0.00323861
0.00019416
-0.00269746
0.0487778
0.0482685
0.0473151
0.0459678
0.0442666
0.0422434
0.0399317
0.0373643
0.0345796
0.0316152
0.0285137
0.0253142
0.0220595
0.0187854
0.0155308
0.0123229
0.00919499
0.00616128
0.0032505
0.000458312
-0.00218694
0.0465664
0.0460571
0.0451057
0.0437665
0.0420841
0.0400953
0.0378372
0.0353457
0.0326607
0.0298206
0.0268669
0.0238376
0.0207727
0.0177051
0.0146699
0.011691
0.00879743
0.00600089
0.00332584
0.000766961
-0.00165158
0.0444039
0.0438984
0.0429558
0.0416336
0.0399804
0.0380368
0.035843
0.0334371
0.0308598
0.0281495
0.0253468
0.0224877
0.0196095
0.0167422
0.0139174
0.011156
0.00848307
0.00590821
0.00345209
0.00110873
-0.00110136
0.0422957
0.0417973
0.0408697
0.0395727
0.0379577
0.0360687
0.0339482
0.0316357
0.0291721
0.0265955
0.0239449
0.0212545
0.0185586
0.0158847
0.0132608
0.0107052
0.00823952
0.00587141
0.00361831
0.00147378
-0.000544824
0.0402468
0.0397585
0.0388513
0.0375864
0.0360176
0.0341913
0.0321513
0.0299383
0.0275927
0.0251519
0.0226532
0.0201286
0.0176098
0.0151215
0.0126887
0.0103273
0.00805571
0.00588007
0.00381496
0.00185367
1.08236e-05
0.0382616
0.0377861
0.036904
0.0356773
0.0341614
0.0324042
0.0304506
0.0283414
0.0261165
0.0238122
0.0214637
0.0191011
0.0167532
0.0144425
0.0121908
0.010012
0.00792186
0.00592506
0.00403377
0.00224118
0.000559561
0.036344
0.0358835
0.0350306
0.0338473
0.0323897
0.0307068
0.0288438
0.0268414
0.0247386
0.0225701
0.0203691
0.0181637
0.01598
0.0138382
0.0117577
0.00975022
0.00782932
0.00599844
0.00426767
0.00263025
0.00109642
0.0344975
0.034054
0.0332335
0.0320977
0.0307027
0.0290981
0.0273287
0.0254347
0.0234539
0.0214194
0.0193623
0.0173085
0.0152819
0.0133004
0.011381
0.00953395
0.00777055
0.00609334
0.00451063
0.0030158
0.00161736
0.0327251
0.0322999
0.0315146
0.0304295
0.0291004
0.0275767
0.0259026
0.0241175
0.0222576
0.0203543
0.0184367
0.0165285
0.0146514
0.0128214
0.0110534
0.00935604
0.00773896
0.00620387
0.00475757
0.00339367
0.00211917
0.031029
0.0306234
0.0298752
0.0288432
0.0275823
0.026141
0.0245629
0.022886
0.0211449
0.0193692
0.0175859
0.0158169
0.0140817
0.0123944
0.0107681
0.00921027
0.00772887
0.00632503
0.00500426
0.00376047
0.00259938
0.0294113
0.0290261
0.0283163
0.027339
0.0261475
0.0247893
0.0233068
0.0217365
0.0201112
0.0184589
0.0168044
0.0151678
0.0135665
0.0120133
0.0105194
0.00909122
0.00773542
0.00645262
0.00524724
0.00411353
0.00305613
0.0278733
0.0275091
0.0268386
0.0259167
0.024795
0.0235196
0.0221313
0.0206652
0.0191522
0.0176184
0.0160868
0.0145755
0.0131004
0.0116727
0.0103022
0.00899422
0.00775447
0.00658312
0.00548368
0.00445078
0.00348812
0.026416
0.0260729
0.025442
0.0245756
0.0235234
0.0223297
0.0210337
0.0196686
0.0182636
0.0168431
0.0154281
0.0140351
0.0126783
0.0113678
0.0101119
0.00891526
0.00778254
0.00671366
0.00571138
0.00477069
0.00389453
0.0250398
0.0247179
0.0241264
0.0233151
0.0223313
0.0212175
0.0200109
0.0187432
0.0174416
0.0161288
0.0148239
0.0135421
0.012296
0.0110944
0.00994476
0.00885093
0.00781675
0.00684194
0.00592861
0.00507218
0.00427492
0.0237451
0.023444
0.0228912
0.0221339
0.0212169
0.0201806
0.0190602
0.0178857
0.0166825
0.0154714
0.0142701
0.0130924
0.0119493
0.0108489
0.00979748
0.00879837
0.00785472
0.00696611
0.00613413
0.00535459
0.00462922
0.0225314
0.0222507
0.0217357
0.0210308
0.0201784
0.0192166
0.0181788
0.0170929
0.0159827
0.0148674
0.0137632
0.0126823
0.011635
0.0106281
0.00966725
0.00875519
0.00789453
0.00708476
0.00632703
0.00561756
0.0049576
0.0213982
0.0211372
0.0206588
0.0200044
0.019214
0.0183234
0.0173639
0.0163618
0.0153391
0.0143135
0.0132996
0.0123088
0.01135
0.0104293
0.0095517
0.00871943
0.00793467
0.00719684
0.00650677
0.00586102
0.00526048
0.0203448
0.0201027
0.0196592
0.0190531
0.0183217
0.0174985
0.016613
0.0156896
0.0147487
0.0138066
0.0128766
0.011969
0.0110917
0.0102502
0.00944884
0.0086895
0.00797396
0.00730162
0.00667303
0.00608512
0.00553846
0.0193701
0.019146
0.0187357
0.0181753
0.0174995
0.0167398
0.0159236
0.0150736
0.0142087
0.013344
0.0124914
0.0116603
0.0108579
0.0100889
0.00935705
0.00866412
0.00801151
0.00739861
0.00682575
0.0062902
0.00579226
0.0184731
0.0182659
0.0178867
0.0173692
0.0167456
0.0160451
0.0152934
0.0145115
0.0137169
0.0129233
0.0121418
0.0113808
0.0106466
0.00994357
0.00927499
0.0086423
0.00804668
0.00748754
0.00696503
0.00647672
0.00602271
0.0176524
0.017461
0.0171109
0.0166333
0.016058
0.0154125
0.0147202
0.014001
0.0132708
0.0125424
0.0118257
0.0111284
0.0104562
0.009813
0.00920159
0.0086233
0.00807906
0.00756831
0.00709108
0.00664523
0.00623067
0.0169069
0.0167301
0.0164068
0.0159659
0.0154352
0.01484
0.0142022
0.0135402
0.0128687
0.0121994
0.0115414
0.0109017
0.0102854
0.00969603
0.00913603
0.00860655
0.00810836
0.00764096
0.00720425
0.00679634
0.00641703
0.0162354
0.0160719
0.0157731
0.0153657
0.0148756
0.0143261
0.0137377
0.0131273
0.0125088
0.0118927
0.0112875
0.0106994
0.0101331
0.00959179
0.00907765
0.00859167
0.00813448
0.00770562
0.00730491
0.0069307
0.00658267
0.0156369
0.0154854
0.0152086
0.0148314
0.0143777
0.0138693
0.0133251
0.012761
0.0121896
0.0116209
0.0110626
0.0105203
0.00999837
0.00949961
0.00902598
0.0085784
0.00815738
0.00776248
0.00739348
0.00704894
0.00672843
0.0151105
0.0149697
0.0147125
0.0143621
0.0139407
0.0134685
0.0129634
0.0124401
0.0119102
0.0113831
0.0108659
0.0103637
0.00988057
0.00941897
0.00898072
0.00856662
0.0081771
0.00781178
0.00747037
0.00715163
0.00685506
0.0146558
0.0145243
0.0142842
0.013957
0.0135637
0.0131231
0.0126518
0.0121637
0.0116697
0.0111786
0.0106967
0.0102291
0.00977925
0.00934957
0.00894167
0.00855628
0.00819375
0.00785376
0.00753597
0.0072393
0.00696321
0.0142729
0.0141492
0.0139235
0.0136161
0.0132465
0.0128325
0.0123899
0.0119315
0.0114677
0.0110068
0.0105547
0.0101161
0.00969416
0.00929124
0.00890875
0.00854738
0.00820744
0.00788863
0.00759059
0.00731238
0.0070534
0.0139621
0.0138448
0.0136309
0.0133396
0.0129894
0.0125971
0.0121777
0.0117434
0.0113042
0.0108677
0.0104397
0.0100245
0.00962525
0.00924395
0.00888198
0.00854002
0.0082183
0.00791657
0.00763446
0.00737112
0.00712592
0.0137247
0.0136124
0.0134075
0.0131286
0.0127931
0.0124175
0.0120158
0.0116
0.0111795
0.0107617
0.0103521
0.00995476
0.00957269
0.00920784
0.0088615
0.00853429
0.00822642
0.00793768
0.00766767
0.00741564
0.00718094
0.0135628
0.0134539
0.0132552
0.0129847
0.0126595
0.0122952
0.0119056
0.0115023
0.0110946
0.0106895
0.0102924
0.00990724
0.00953688
0.00918323
0.0088475
0.00853032
0.00823187
0.00795194
0.00769015
0.00744578
0.00721818
0.0134796
0.0133724
0.0131769
0.0129108
0.0125908
0.0122324
0.0118491
0.0114523
0.011051
0.0106524
0.0102618
0.00988285
0.0095185
0.00917059
0.00884031
0.00852826
0.00823464
0.00795924
0.00770166
0.00746123
0.00723728
0.116116
0.117279
0.119553
0.122793
0.126921
0.131944
0.137774
0.144507
0.152037
0.160528
0.169844
0.180198
0.191418
0.203805
0.217113
0.231677
0.247212
0.264108
0.281963
0.301287
0.321414
0.34316
0.365248
0.116012
0.117172
0.119441
0.122674
0.126794
0.131807
0.137624
0.144343
0.151855
0.160327
0.169619
0.179949
0.191143
0.203494
0.216762
0.231283
0.246767
0.263607
0.281394
0.300644
0.320681
0.34233
0.364294
0.115901
0.117058
0.119322
0.122548
0.126659
0.13166
0.137464
0.144166
0.15166
0.160108
0.169374
0.179674
0.190832
0.203141
0.21636
0.230824
0.246238
0.263
0.28069
0.29983
0.31973
0.341226
0.362993
0.115783
0.116937
0.119195
0.122413
0.126515
0.131504
0.137293
0.143977
0.15145
0.159873
0.169108
0.179373
0.19049
0.202748
0.215905
0.230299
0.245626
0.262286
0.279849
0.298844
0.318559
0.339849
0.361347
0.115658
0.116809
0.119061
0.122271
0.126363
0.131338
0.137111
0.143776
0.151225
0.15962
0.168821
0.179046
0.190115
0.202314
0.215399
0.229709
0.244929
0.261466
0.278872
0.297687
0.317171
0.3382
0.359355
0.115526
0.116673
0.118919
0.12212
0.126202
0.131163
0.136919
0.143563
0.150987
0.15935
0.168513
0.178694
0.189707
0.20184
0.214842
0.229053
0.244149
0.26054
0.277759
0.296358
0.315565
0.33628
0.35702
0.115387
0.116531
0.11877
0.121962
0.126033
0.130979
0.136716
0.143337
0.150734
0.159063
0.168185
0.178316
0.189268
0.201325
0.214233
0.228333
0.243285
0.259508
0.276512
0.29486
0.313743
0.334089
0.354343
0.115242
0.116381
0.118614
0.121796
0.125855
0.130785
0.136503
0.1431
0.150467
0.15876
0.167837
0.177912
0.188796
0.20077
0.213572
0.227547
0.242337
0.258371
0.275129
0.293191
0.311705
0.331629
0.351327
0.115089
0.116224
0.11845
0.121622
0.125669
0.130582
0.13628
0.14285
0.150186
0.158439
0.167468
0.177483
0.188292
0.200175
0.212861
0.226696
0.241307
0.257129
0.273613
0.291354
0.309452
0.328903
0.347973
0.114929
0.11606
0.118279
0.12144
0.125475
0.13037
0.136046
0.142589
0.149892
0.158102
0.167078
0.177029
0.187757
0.19954
0.212098
0.225781
0.240194
0.255782
0.271962
0.289349
0.306987
0.325911
0.344286
0.114763
0.11589
0.1181
0.12125
0.125272
0.130149
0.135803
0.142316
0.149583
0.157748
0.166669
0.176549
0.18719
0.198865
0.211285
0.224801
0.238999
0.254331
0.270179
0.287177
0.30431
0.322657
0.340268
0.114589
0.115712
0.117915
0.12105
0.125061
0.129919
0.135549
0.142032
0.149261
0.157378
0.166239
0.176045
0.186592
0.198151
0.210422
0.223758
0.237722
0.252777
0.268264
0.28484
0.301424
0.319143
0.335924
0.114409
0.115528
0.117723
0.12084
0.124842
0.12968
0.135285
0.141736
0.148925
0.156991
0.165789
0.175516
0.185962
0.197397
0.209508
0.222651
0.236364
0.25112
0.266218
0.282338
0.298329
0.315372
0.331257
0.114223
0.115336
0.117524
0.12062
0.124615
0.129433
0.135011
0.141428
0.148576
0.156589
0.16532
0.174962
0.185302
0.196604
0.208545
0.221481
0.234925
0.249361
0.264042
0.279673
0.295029
0.311347
0.326273
0.114029
0.115138
0.117318
0.120425
0.12438
0.129176
0.134728
0.14111
0.148214
0.15617
0.164831
0.174383
0.184611
0.195772
0.207532
0.220248
0.233406
0.2475
0.261736
0.276847
0.291525
0.30707
0.320975
0.113829
0.114934
0.117105
0.120206
0.124137
0.128911
0.134435
0.14078
0.147838
0.155735
0.164322
0.173781
0.183889
0.194901
0.20647
0.218953
0.231807
0.245539
0.259303
0.273862
0.28782
0.302546
0.31537
0.113623
0.114723
0.116886
0.119999
0.123886
0.128638
0.134132
0.140439
0.147449
0.155284
0.163795
0.173154
0.183138
0.193992
0.20536
0.217596
0.230129
0.243478
0.256743
0.270718
0.283917
0.297779
0.309463
0.11341
0.114505
0.116659
0.119752
0.123628
0.128356
0.13382
0.140087
0.147048
0.154819
0.163248
0.172504
0.182356
0.193046
0.204201
0.216177
0.228372
0.241319
0.254056
0.267418
0.279816
0.292771
0.303259
0.11319
0.114281
0.116426
0.119496
0.123362
0.128066
0.133498
0.139724
0.146634
0.154337
0.162683
0.17183
0.181545
0.192061
0.202995
0.214697
0.226538
0.239061
0.251246
0.263963
0.275523
0.287528
0.296766
0.112964
0.11405
0.116186
0.119238
0.123089
0.127768
0.133168
0.139351
0.146207
0.153841
0.162098
0.171132
0.180705
0.191039
0.201741
0.213157
0.224627
0.236706
0.248312
0.260357
0.271039
0.282053
0.289989
0.112732
0.113813
0.115939
0.118975
0.122809
0.127462
0.132828
0.138968
0.145768
0.153329
0.161496
0.170412
0.179835
0.18998
0.20044
0.211556
0.22264
0.234255
0.245257
0.2566
0.266367
0.276351
0.282936
0.112493
0.11357
0.115686
0.118707
0.122521
0.127147
0.13248
0.138574
0.145317
0.152803
0.160875
0.169669
0.178937
0.188884
0.199093
0.209896
0.220577
0.231709
0.242082
0.252695
0.261511
0.270427
0.275614
0.112249
0.113321
0.115427
0.118432
0.122227
0.126826
0.132123
0.13817
0.144854
0.152262
0.160237
0.168903
0.178011
0.187752
0.1977
0.208177
0.21844
0.229068
0.238787
0.248643
0.256473
0.264286
0.268029
0.111998
0.113065
0.115161
0.118151
0.121926
0.126496
0.131757
0.137756
0.144379
0.151707
0.15958
0.168115
0.177056
0.186584
0.196261
0.206399
0.216229
0.226334
0.235376
0.244449
0.251256
0.257933
0.26019
0.111741
0.112804
0.114889
0.117864
0.121618
0.126159
0.131383
0.137332
0.143893
0.151138
0.158907
0.167304
0.176074
0.18538
0.194777
0.204563
0.213945
0.223508
0.231849
0.240112
0.245864
0.251372
0.252104
0.111478
0.112537
0.114609
0.11757
0.121303
0.125815
0.131
0.136899
0.143395
0.150555
0.158216
0.166473
0.175065
0.184141
0.193249
0.20267
0.211589
0.22059
0.228208
0.235637
0.2403
0.24461
0.243779
0.111209
0.112264
0.114322
0.11727
0.120982
0.125464
0.13061
0.136456
0.142886
0.149958
0.157508
0.16562
0.174028
0.182867
0.191677
0.20072
0.209162
0.217582
0.224455
0.231024
0.234568
0.237652
0.235222
0.110935
0.111986
0.11405
0.116965
0.120654
0.125105
0.130212
0.136005
0.142366
0.149348
0.156783
0.164745
0.172965
0.181559
0.190061
0.198713
0.206665
0.214484
0.220592
0.226277
0.22867
0.230504
0.22644
0.110654
0.111702
0.113752
0.116653
0.12032
0.12474
0.129805
0.135544
0.141835
0.148725
0.156043
0.16385
0.171875
0.180217
0.188402
0.196651
0.204099
0.211298
0.21662
0.221398
0.22261
0.22317
0.217442
0.110368
0.111412
0.113449
0.116336
0.11998
0.124368
0.129392
0.135074
0.141294
0.148089
0.155286
0.162935
0.170759
0.178841
0.186701
0.194534
0.201464
0.208024
0.212542
0.216388
0.216392
0.215658
0.208233
0.110076
0.111117
0.113142
0.116013
0.119634
0.123989
0.12897
0.134596
0.140742
0.14744
0.154513
0.162
0.169618
0.177432
0.184957
0.192363
0.198762
0.204663
0.20836
0.211249
0.210018
0.207973
0.19882
0.109779
0.110816
0.11283
0.115684
0.119282
0.123604
0.128542
0.134109
0.14018
0.146779
0.153724
0.161044
0.168451
0.17599
0.183172
0.190137
0.195993
0.201216
0.204075
0.205983
0.203493
0.200121
0.189208
0.109476
0.110509
0.112513
0.115351
0.118925
0.123213
0.128107
0.133615
0.139609
0.146106
0.152921
0.16007
0.167259
0.174517
0.181346
0.187858
0.193158
0.197685
0.19969
0.200593
0.196821
0.192107
0.1794
0.109169
0.1102
0.112191
0.115012
0.118561
0.122816
0.127664
0.133112
0.139028
0.145421
0.152103
0.159076
0.166043
0.173011
0.179479
0.185527
0.190258
0.194069
0.195206
0.195077
0.190006
0.183937
0.169398
0.108855
0.109883
0.111864
0.114668
0.118193
0.122412
0.127215
0.132601
0.138437
0.144724
0.151269
0.158063
0.164803
0.171474
0.177571
0.183142
0.187292
0.190369
0.190624
0.189438
0.18305
0.175612
0.108537
0.109562
0.111531
0.114318
0.117818
0.122002
0.126758
0.132081
0.137835
0.144013
0.150419
0.157029
0.163534
0.169901
0.175619
0.180702
0.184258
0.186583
0.185945
0.183673
0.17596
0.167133
0.108213
0.109236
0.111194
0.113964
0.117439
0.121587
0.126296
0.131554
0.137225
0.143291
0.149553
0.155975
0.162241
0.168297
0.173627
0.178212
0.181163
0.182721
0.181179
0.177799
0.168757
0.158523
0.107885
0.108906
0.110855
0.113609
0.117059
0.121174
0.125837
0.131033
0.136622
0.142579
0.148699
0.154934
0.160959
0.166701
0.171637
0.175715
0.178048
0.178821
0.176359
0.171835
0.161452
0.14979
0.107552
0.108573
0.110513
0.113253
0.116682
0.120765
0.125386
0.130524
0.136035
0.141886
0.147867
0.153913
0.159695
0.165116
0.169644
0.173192
0.174877
0.174821
0.171391
0.165649
0.153869
0.140694
0.107212
0.108228
0.110152
0.112868
0.116263
0.120299
0.124857
0.129912
0.135317
0.141028
0.146829
0.152644
0.158134
0.163179
0.167246
0.170209
0.1712
0.170269
0.165865
0.158868
0.145784
0.114589
0.115762
0.118005
0.121188
0.12519
0.129973
0.13542
0.14151
0.148098
0.155152
0.162458
0.16995
0.177299
0.18439
0.190708
0.196122
0.199806
0.201771
0.200578
0.196974
0.187796
0.114754
0.11593
0.118182
0.121378
0.125402
0.130214
0.135701
0.141849
0.148513
0.155672
0.163117
0.170795
0.178385
0.185794
0.192509
0.198438
0.202739
0.205493
0.205188
0.202728
0.194743
0.185329
0.114912
0.116086
0.118339
0.121539
0.125568
0.130392
0.135897
0.142075
0.148785
0.156012
0.163555
0.171373
0.179153
0.186824
0.193882
0.200266
0.205138
0.20863
0.209199
0.207841
0.201139
0.193094
0.115064
0.116237
0.118494
0.121699
0.125737
0.130576
0.136105
0.142318
0.149079
0.156381
0.164026
0.171988
0.179959
0.187889
0.195281
0.202104
0.20752
0.211713
0.213114
0.212792
0.207319
0.200574
0.115211
0.116384
0.118646
0.121856
0.125906
0.130762
0.136316
0.142568
0.149382
0.156761
0.164511
0.172617
0.18078
0.188965
0.196687
0.203941
0.20989
0.214767
0.216985
0.217668
0.213412
0.20795
0.115352
0.116525
0.118794
0.122008
0.126068
0.130941
0.136519
0.142808
0.149674
0.157127
0.164979
0.173225
0.181573
0.190009
0.19805
0.205725
0.212197
0.217743
0.220768
0.222434
0.219392
0.2152
0.115487
0.11666
0.118924
0.122153
0.126223
0.131112
0.136714
0.143038
0.149954
0.157479
0.165428
0.17381
0.182338
0.191016
0.199369
0.207453
0.214435
0.220633
0.224454
0.227079
0.22524
0.222307
0.115615
0.116789
0.119059
0.122293
0.126372
0.131276
0.1369
0.143259
0.150223
0.157817
0.165861
0.174375
0.183077
0.19199
0.200646
0.209129
0.216609
0.223442
0.228044
0.231604
0.230954
0.229266
0.220352
0.115738
0.116911
0.119186
0.122428
0.126514
0.131432
0.137079
0.14347
0.150482
0.158143
0.166279
0.17492
0.183792
0.192933
0.201883
0.210753
0.218719
0.226168
0.231538
0.23601
0.236529
0.236076
0.228805
0.115854
0.117028
0.119307
0.122547
0.126649
0.131581
0.137249
0.143673
0.150729
0.158455
0.16668
0.175445
0.18448
0.193843
0.203079
0.212323
0.220763
0.228812
0.234934
0.240293
0.241961
0.24273
0.237073
0.115964
0.117139
0.11942
0.122664
0.126777
0.131723
0.137411
0.143865
0.150965
0.158754
0.167065
0.175949
0.185143
0.19472
0.204232
0.21384
0.222741
0.23137
0.238229
0.244453
0.247247
0.249222
0.245152
0.116067
0.117243
0.119528
0.122779
0.126899
0.131857
0.137564
0.144048
0.15119
0.15904
0.167432
0.176432
0.185779
0.195563
0.205343
0.215303
0.224652
0.233844
0.241422
0.248488
0.252382
0.255547
0.253036
0.116165
0.117341
0.119629
0.122886
0.127016
0.131983
0.137708
0.144221
0.151403
0.159311
0.167783
0.176894
0.186388
0.196372
0.206412
0.216711
0.226495
0.236231
0.244509
0.252395
0.257362
0.261699
0.260717
0.116255
0.117432
0.119723
0.122984
0.127114
0.132102
0.137844
0.144384
0.151604
0.159568
0.168117
0.177335
0.186971
0.197147
0.207437
0.218063
0.228269
0.238531
0.24749
0.256173
0.262184
0.26767
0.26819
0.11634
0.117517
0.119811
0.123075
0.127207
0.132213
0.13797
0.144536
0.151793
0.159811
0.168432
0.177753
0.187526
0.197887
0.208418
0.21936
0.229973
0.240742
0.250362
0.259818
0.266845
0.273456
0.275445
0.116417
0.117596
0.119892
0.123159
0.127305
0.132315
0.138088
0.144679
0.15197
0.160039
0.16873
0.17815
0.188053
0.198592
0.209355
0.220599
0.231607
0.242864
0.253124
0.263328
0.271341
0.279051
0.282475
0.116488
0.117667
0.119966
0.123237
0.127391
0.132409
0.138196
0.14481
0.152134
0.160252
0.16901
0.178523
0.188552
0.199261
0.210248
0.221781
0.233169
0.244895
0.255773
0.266702
0.275668
0.284448
0.289272
0.116552
0.117733
0.120033
0.123307
0.127466
0.132497
0.138295
0.144931
0.152286
0.160451
0.169272
0.178875
0.189023
0.199893
0.211094
0.222905
0.234658
0.246834
0.258307
0.269936
0.279823
0.289642
0.295829
0.11661
0.117791
0.120093
0.12337
0.127533
0.132563
0.138385
0.145041
0.152426