/*--------------------------------*- C++ -*----------------------------------*\
  =========                 |
  \\      /  F ield         | OpenFOAM: The Open Source CFD Toolbox
   \\    /   O peration     | Website:  https://openfoam.org
    \\  /    A nd           | Version:  7
     \\/     M anipulation  |
\*---------------------------------------------------------------------------*/
FoamFile
{
    version     2.0;
    format      ascii;
    class       surfaceScalarField;
    location    "60";
    object      phi;
}
// * * * * * * * * * * * * * * * * * * * * * * * * * * * * * * * * * * * * * //

dimensions      [0 3 -1 0 0 0 0];

internalField   nonuniform List<scalar> 
8878
(
-0.00401187
-0.000159818
-0.000164753
-0.00386751
-0.00398184
-0.000194784
-0.000137079
-0.00362485
-0.000166892
-0.00372767
-0.000197689
-0.00383672
-0.00395014
-0.000229392
-0.000136083
-0.0034995
-0.000166369
-0.00359456
-0.000197806
-0.00369623
-0.000230262
-0.00380426
-0.00391677
-0.00026363
-0.000132863
-0.0033812
-0.000163443
-0.00346892
-0.000195291
-0.00356272
-0.000228344
-0.00366318
-0.000262457
-0.00377015
-0.00388174
-0.000297485
-0.000127576
-0.00326918
-0.000158359
-0.00335042
-0.000190439
-0.00343684
-0.000223835
-0.00352932
-0.000258494
-0.00362852
-0.000294259
-0.00373438
-0.00384506
-0.000330942
-0.000120313
-0.00316239
-0.000151265
-0.00323823
-0.000183503
-0.00331818
-0.000217064
-0.00340328
-0.00025199
-0.00349439
-0.000288242
-0.00359227
-0.000325654
-0.00369697
-0.00380672
-0.000363988
-0.000111163
-0.00305955
-0.000142232
-0.00313132
-0.000174613
-0.00320584
-0.000208287
-0.00328451
-0.000243309
-0.00336826
-0.000279745
-0.00345796
-0.000317574
-0.00355444
-0.000356627
-0.00365792
-0.00376674
-0.000396608
-0.000100266
-0.00295869
-0.00013133
-0.00302848
-0.000163822
-0.00309883
-0.000197616
-0.00317205
-0.000232708
-0.00324942
-0.00026917
-0.0033318
-0.000307091
-0.00342004
-0.000346477
-0.00351505
-0.000387162
-0.00361723
-0.00372512
-0.000428786
-8.78644e-05
-0.00285661
-0.000118684
-0.00292787
-0.000151183
-0.00299599
-0.00018508
-0.00306493
-0.00022027
-0.00313686
-0.00025676
-0.00321293
-0.00029464
-0.00329392
-0.000334019
-0.00338066
-0.000374939
-0.00347413
-0.000417244
-0.00357493
-0.00368185
-0.000460507
-7.43337e-05
-0.00274816
-0.000104517
-0.00282643
-0.000136805
-0.00289558
-0.000170717
-0.00296207
-0.000206003
-0.00302965
-0.000242571
-0.00310029
-0.000280442
-0.00317506
-0.000319715
-0.00325464
-0.000360524
-0.00333985
-0.000402947
-0.00343171
-0.000446856
-0.00353102
-0.00363696
-0.000491753
-6.02089e-05
-0.0026256
-8.91862e-05
-0.00271918
-0.000120895
-0.00279472
-0.000154624
-0.00286185
-0.000189929
-0.00292677
-0.000226586
-0.00299299
-0.000264517
-0.00306236
-0.000303752
-0.00313582
-0.000344394
-0.003214
-0.000386601
-0.00329764
-0.000430492
-0.00338782
-0.000475985
-0.00348552
-0.00359043
-0.000522509
-4.61774e-05
-0.00247823
-7.32054e-05
-0.00259857
-0.000103792
-0.0026886
-0.000136993
-0.00276152
-0.000172137
-0.00282671
-0.000208815
-0.00289009
-0.000246826
-0.00295498
-0.000286106
-0.00302308
-0.000326687
-0.00309524
-0.000368678
-0.00317201
-0.000412248
-0.00325407
-0.000457567
-0.0033425
-0.000504617
-0.00343847
-0.00354229
-0.000552762
-3.30295e-05
-0.00229271
-5.72484e-05
-0.00245401
-8.59885e-05
-0.00256983
-0.000118144
-0.00265644
-0.000152806
-0.00272685
-0.00018934
-0.00279017
-0.000227373
-0.00285206
-0.000266722
-0.00291563
-0.000307336
-0.00298247
-0.000349248
-0.00305333
-0.000392567
-0.00312869
-0.00043747
-0.00320917
-0.000484171
-0.0032958
-0.000532745
-0.0033899
-0.00349253
-0.000582504
-4.21084e-05
-0.00227216
-6.81451e-05
-0.00242797
-9.85516e-05
-0.00253942
-0.000132238
-0.00262276
-0.000168329
-0.00269076
-0.000206231
-0.00275227
-0.000245597
-0.00281269
-0.000286269
-0.00287496
-0.000328204
-0.00294053
-0.000371436
-0.0030101
-0.000416066
-0.00308406
-0.000462271
-0.00316296
-0.000510309
-0.00324776
-0.00056037
-0.00333984
-0.00344118
-0.000611723
-2.86032e-05
-0.00203796
-5.10545e-05
-0.00224971
-7.88604e-05
-0.00240017
-0.000110889
-0.00250739
-0.000146069
-0.00258758
-0.00018356
-0.00265327
-0.000222804
-0.00271303
-0.000263485
-0.00277201
-0.000305464
-0.00283298
-0.000348707
-0.00289729
-0.000393248
-0.00296555
-0.000439179
-0.00303813
-0.000486666
-0.00311548
-0.000535997
-0.00319843
-0.000587501
-0.00328834
-0.00338825
-0.000640428
-1.74361e-05
-0.00173657
-3.55594e-05
-0.00201984
-5.98609e-05
-0.00222541
-8.93878e-05
-0.00237064
-0.000122995
-0.00247378
-0.000159632
-0.00255094
-0.000198494
-0.00261441
-0.000239056
-0.00267247
-0.000281033
-0.00273003
-0.000324302
-0.00278971
-0.000368842
-0.00285275
-0.000414685
-0.00291971
-0.000461912
-0.00299091
-0.000510667
-0.00306672
-0.00056126
-0.00314784
-0.000614172
-0.00323542
-0.00333373
-0.000668688
-2.2426e-05
-0.0017232
-4.24178e-05
-0.00199984
-6.85207e-05
-0.0021993
-9.97214e-05
-0.00233944
-0.000134866
-0.00243864
-0.000172924
-0.00251288
-0.000213127
-0.00257421
-0.000254984
-0.00263061
-0.000298236
-0.00268678
-0.00034278
-0.00274517
-0.000388603
-0.00280693
-0.000435742
-0.00287257
-0.000484265
-0.00294238
-0.000534289
-0.0030167
-0.000586131
-0.003096
-0.000640437
-0.00318112
-0.00327758
-0.000696589
-1.22068e-05
-0.00134722
-2.7355e-05
-0.00170806
-4.91717e-05
-0.00197803
-7.70279e-05
-0.00217145
-0.000109856
-0.00230661
-0.000146496
-0.002402
-0.000185941
-0.00247344
-0.000227456
-0.00253269
-0.000270583
-0.00258748
-0.00031509
-0.00264227
-0.00036089
-0.00269937
-0.000407984
-0.00275983
-0.000456412
-0.00282414
-0.000506237
-0.00289256
-0.000557553
-0.00296538
-0.000610666
-0.00304288
-0.000666313
-0.00312547
-0.00321976
-0.000724134
-5.13487e-06
-0.000884235
-1.53228e-05
-0.00133704
-3.22174e-05
-0.00169116
-5.58148e-05
-0.00195443
-8.53768e-05
-0.00214189
-0.000119787
-0.0022722
-0.000157882
-0.0023639
-0.000198679
-0.00243264
-0.000241477
-0.0024899
-0.00028585
-0.00254311
-0.00033159
-0.00259653
-0.000378627
-0.00265233
-0.000426974
-0.00271148
-0.000476682
-0.00277444
-0.000527817
-0.00284142
-0.000580477
-0.00291272
-0.000634957
-0.0029884
-0.000691811
-0.00306862
-0.00315993
-0.000751646
-6.69778e-06
-0.000878664
-1.84036e-05
-0.00132533
-3.70082e-05
-0.00167256
-6.23418e-05
-0.0019291
-9.35625e-05
-0.00211067
-0.000129509
-0.00223625
-0.00016902
-0.00232439
-0.000211135
-0.00239052
-0.000255188
-0.00244584
-0.000300781
-0.00249752
-0.00034773
-0.00254959
-0.000395983
-0.00260408
-0.000445562
-0.00266191
-0.000496531
-0.00272347
-0.000548972
-0.00278898
-0.00060303
-0.00285866
-0.000659051
-0.00293238
-0.00071775
-0.00300992
-0.00309971
-0.000777971
-1.58045e-06
-0.000331057
-8.24429e-06
-0.000872
-2.14405e-05
-0.00131213
-4.17169e-05
-0.00165228
-6.87415e-05
-0.00190207
-0.000101574
-0.00207783
-0.000139014
-0.00219881
-0.0001799
-0.00228351
-0.000223301
-0.00234712
-0.000268579
-0.00240057
-0.000315367
-0.00245073
-0.000363502
-0.00250145
-0.000412945
-0.00255463
-0.00046373
-0.00261112
-0.00051593
-0.00267127
-0.000569649
-0.00273526
-0.000625085
-0.00280323
-0.000682432
-0.00287504
-0.000741036
-0.00295131
-0.00303394
-0.0008068
-2.03456e-06
-0.000329023
-9.77865e-06
-0.000864256
-2.44394e-05
-0.00129747
-4.63502e-05
-0.00163037
-7.50214e-05
-0.0018734
-0.00010942
-0.00204343
-0.000148309
-0.00215992
-0.000190533
-0.00224128
-0.000235185
-0.00230247
-0.000281659
-0.00235409
-0.000329616
-0.00240277
-0.000378911
-0.00245216
-0.000429518
-0.00250403
-0.00048148
-0.00255916
-0.000534874
-0.00261787
-0.000589815
-0.00268032
-0.000646476
-0.00274657
-0.000704952
-0.00281656
-0.000765379
-0.00289089
-0.00296923
-0.000830088
-2.48529e-06
-0.000326537
-1.12947e-05
-0.000855447
-2.73919e-05
-0.00128138
-5.08983e-05
-0.00160686
-8.11713e-05
-0.00184313
-0.00011709
-0.00200752
-0.000157385
-0.00211963
-0.000200909
-0.00219776
-0.000246779
-0.0022566
-0.000294421
-0.00230645
-0.000343519
-0.00235367
-0.000393948
-0.00240173
-0.000445693
-0.00245228
-0.000498802
-0.00250605
-0.000553356
-0.00256332
-0.000609468
-0.00262421
-0.000667278
-0.00268876
-0.000726887
-0.00275695
-0.000788589
-0.00282918
-0.00290454
-0.000853281
-2.93171e-06
-0.000323606
-1.27905e-05
-0.000845588
-3.02948e-05
-0.00126387
-5.53573e-05
-0.0015818
-8.71871e-05
-0.0018113
-0.00012458
-0.00197012
-0.00016624
-0.00207797
-0.000211026
-0.00215298
-0.000258082
-0.00220954
-0.000306862
-0.00225767
-0.000357075
-0.00230346
-0.000408611
-0.00235019
-0.000461466
-0.00239943
-0.000515692
-0.00245182
-0.000571372
-0.00250764
-0.000628613
-0.00256697
-0.000687534
-0.00262984
-0.000748241
-0.00269625
-0.000810992
-0.00276643
-0.00283941
-0.000876121
-3.37312e-06
-0.000320233
-1.42639e-05
-0.000834697
-3.31451e-05
-0.00124499
-5.97237e-05
-0.00155522
-9.30656e-05
-0.00177796
-0.000131889
-0.0019313
-0.000174871
-0.00203499
-0.000220882
-0.00210696
-0.000269091
-0.00216133
-0.00031898
-0.00220778
-0.00037028
-0.00225216
-0.000422897
-0.00229757
-0.000476834
-0.00234549
-0.000532149
-0.00239651
-0.000588923
-0.00245086
-0.000647257
-0.00250864
-0.000707256
-0.00256984
-0.000769024
-0.00263448
-0.000832748
-0.00270271
-0.00277361
-0.000898549
-3.80889e-06
-0.000316424
-1.57132e-05
-0.000822793
-3.59399e-05
-0.00122476
-6.39941e-05
-0.00152717
-9.88034e-05
-0.00174315
-0.000139012
-0.00189109
-0.000183276
-0.00199072
-0.000230475
-0.00205977
-0.000279805
-0.002112
-0.000330773
-0.00215681
-0.000383134
-0.0021998
-0.000436804
-0.0022439
-0.000491796
-0.0022905
-0.00054817
-0.00234013
-0.000606008
-0.00239303
-0.000665403
-0.00244924
-0.000726452
-0.00250879
-0.000789248
-0.00257168
-0.000853928
-0.00263803
-0.00270701
-0.000920532
-4.23843e-06
-0.000312185
-1.71366e-05
-0.000809895
-3.86767e-05
-0.00120322
-6.81656e-05
-0.00149768
-0.000104398
-0.00170691
-0.000145948
-0.00184954
-0.000191453
-0.00194522
-0.000239804
-0.00201141
-0.000290223
-0.00206159
-0.000342241
-0.00210479
-0.000395634
-0.00214641
-0.000450331
-0.00218921
-0.000506351
-0.00223448
-0.000563756
-0.00228273
-0.000622628
-0.00233415
-0.000683055
-0.00238881
-0.000745127
-0.00244672
-0.000808929
-0.00250788
-0.000874562
-0.0025724
-0.00263952
-4.66115e-06
-0.000307524
-1.85325e-05
-0.000796024
-4.1353e-05
-0.0011804
-7.22354e-05
-0.0014668
-0.000109846
-0.0016693
-0.000152694
-0.00180669
-0.0001994
-0.00189851
-0.000248868
-0.00196195
-0.000300343
-0.00201011
-0.000353383
-0.00205176
-0.00040778
-0.00209201
-0.000463476
-0.00213351
-0.000520497
-0.00217746
-0.000578906
-0.00222432
-0.000638783
-0.00227428
-0.000700216
-0.00232738
-0.000763287
-0.00238364
-0.000828075
-0.00244309
-0.000894663
-0.00250581
-0.00257112
-5.0765e-06
-0.000302448
-1.98994e-05
-0.000781201
-4.39664e-05
-0.00115634
-7.6201e-05
-0.00143456
-0.000115146
-0.00163036
-0.000159249
-0.00176259
-0.000207116
-0.00185064
-0.000257665
-0.0019114
-0.000310165
-0.00195761
-0.000364197
-0.00199772
-0.000419571
-0.00203663
-0.00047624
-0.00207684
-0.000534234
-0.00211946
-0.000593619
-0.00216494
-0.000654475
-0.00221342
-0.000716887
-0.00226497
-0.000780934
-0.0023196
-0.000846691
-0.00237733
-0.000914232
-0.00243827
-0.00250177
-5.48391e-06
-0.000296964
-2.12357e-05
-0.000765449
-4.65149e-05
-0.00113106
-8.00599e-05
-0.00140102
-0.000120295
-0.00159012
-0.00016561
-0.00171728
-0.000214599
-0.00180165
-0.000266194
-0.0018598
-0.000319687
-0.00190412
-0.000374682
-0.00194273
-0.000431005
-0.00198031
-0.00048862
-0.00201923
-0.00054756
-0.00206052
-0.000607895
-0.0021046
-0.000669704
-0.00215161
-0.00073307
-0.0022016
-0.000798071
-0.00225459
-0.00086478
-0.00231062
-0.000933267
-0.00236978
-5.88287e-06
-0.000291081
-2.25402e-05
-0.000748792
-4.89965e-05
-0.0011046
-8.38102e-05
-0.0013662
-0.000125291
-0.00154864
-0.000171776
-0.00167079
-0.000221849
-0.00175158
-0.000274455
-0.0018072
-0.00032891
-0.00184966
-0.000384839
-0.0018868
-0.000442083
-0.00192307
-0.000500615
-0.0019607
-0.000560476
-0.00200066
-0.000621733
-0.00204334
-0.000684469
-0.00208888
-0.000748764
-0.00213731
-0.000814698
-0.00218866
-0.000882341
-0.00224298
-0.00230036
-6.27287e-06
-0.000284808
-2.38116e-05
-0.000731253
-5.14094e-05
-0.001077
-8.74497e-05
-0.00133016
-0.000130133
-0.00150596
-0.000177746
-0.00162318
-0.000228864
-0.00170046
-0.000282446
-0.00175362
-0.000337832
-0.00179428
-0.000394665
-0.00182997
-0.000452803
-0.00186493
-0.000512226
-0.00190127
-0.000572979
-0.00193991
-0.000635133
-0.00198119
-0.000698769
-0.00202524
-0.00076397
-0.00207211
-0.000830814
-0.00212182
-0.000899373
-0.00217442
-0.00223001
-6.65343e-06
-0.000278154
-2.50485e-05
-0.000712858
-5.37519e-05
-0.0010483
-9.09766e-05
-0.00129294
-0.000134819
-0.00146212
-0.000183519
-0.00157448
-0.000235643
-0.00164834
-0.000290168
-0.00169909
-0.000346453
-0.00173799
-0.000404161
-0.00177226
-0.000463165
-0.00180593
-0.000523451
-0.00184099
-0.00058507
-0.00187829
-0.000648094
-0.00191817
-0.000712605
-0.00196073
-0.000778686
-0.00200603
-0.000846417
-0.00205409
-0.000915871
-0.00210497
-7.02409e-06
-0.00027113
-2.625e-05
-0.000693632
-5.60223e-05
-0.00101853
-9.43894e-05
-0.00125457
-0.000139348
-0.00141716
-0.000189092
-0.00152473
-0.000242187
-0.00159524
-0.000297619
-0.00164366
-0.000354772
-0.00168084
-0.000413327
-0.0017137
-0.000473167
-0.00174608
-0.00053429
-0.00177986
-0.000596747
-0.00181583
-0.000660614
-0.0018543
-0.000725973
-0.00189537
-0.00079291
-0.00193909
-0.000861504
-0.00198549
-0.00203464
-7.38442e-06
-0.000263746
-2.7415e-05
-0.000673601
-5.82192e-05
-0.000987723
-9.76864e-05
-0.0012151
-0.000143718
-0.00137113
-0.000194467
-0.00147398
-0.000248493
-0.00154122
-0.0003048
-0.00158735
-0.000362789
-0.00162285
-0.000422161
-0.00165433
-0.00048281
-0.00168544
-0.000544741
-0.00171793
-0.000608009
-0.00175257
-0.000672692
-0.00178962
-0.000738874
-0.00182919
-0.00080664
-0.00187132
-0.000876073
-0.00191606
-0.00196346
-7.73402e-06
-0.000256012
-2.85424e-05
-0.000652793
-6.03413e-05
-0.000955924
-0.000100866
-0.00117458
-0.000147927
-0.00132407
-0.00019964
-0.00142227
-0.000254561
-0.0014863
-0.000311708
-0.0015302
-0.000370503
-0.00156406
-0.000430662
-0.00159417
-0.000492092
-0.00162401
-0.000554803
-0.00165522
-0.000618855
-0.00168851
-0.000684326
-0.00172414
-0.000751304
-0.00176221
-0.000819874
-0.00180275
-0.000890121
-0.00184581
-0.00189145
-8.07249e-06
-0.000247939
-2.96314e-05
-0.000631234
-6.23872e-05
-0.000923168
-0.000103928
-0.00113304
-0.000151976
-0.00127602
-0.000204613
-0.00136963
-0.000260391
-0.00143052
-0.000318345
-0.00147225
-0.000377914
-0.00150449
-0.000438831
-0.00153325
-0.000501013
-0.00156182
-0.000564476
-0.00159176
-0.000629283
-0.00162371
-0.000695516
-0.00165791
-0.000763261
-0.00169446
-0.000832608
-0.00173341
-0.000903643
-0.00177478
-8.39946e-06
-0.00023954
-3.0681e-05
-0.000608952
-6.43558e-05
-0.000889493
-0.000106869
-0.00109053
-0.000155863
-0.00122702
-0.000209383
-0.00131611
-0.000265983
-0.00137392
-0.00032471
-0.00141352
-0.000385022
-0.00144418
-0.000446667
-0.00147161
-0.000509572
-0.00149892
-0.000573758
-0.00152757
-0.000639292
-0.00155817
-0.000706258
-0.00159095
-0.000774744
-0.00162598
-0.000844841
-0.00166331
-0.00170298
-8.7146e-06
-0.000230825
-3.16904e-05
-0.000585977
-6.62459e-05
-0.000854938
-0.00010969
-0.00104708
-0.000159586
-0.00117713
-0.00021395
-0.00126175
-0.000271335
-0.00131653
-0.000330802
-0.00135406
-0.000391826
-0.00138315
-0.000454169
-0.00140926
-0.000517767
-0.00143532
-0.000582648
-0.00146269
-0.000648881
-0.00149194
-0.000716552
-0.00152327
-0.00078575
-0.00155678
-0.000856568
-0.00159249
-0.00163045
-9.01756e-06
-0.000221808
-3.26588e-05
-0.000562335
-6.80566e-05
-0.00081954
-0.000112389
-0.00100275
-0.000163146
-0.00112637
-0.000218314
-0.00120658
-0.000276447
-0.0012584
-0.00033662
-0.00129388
-0.000398325
-0.00132145
-0.000461336
-0.00134625
-0.000525599
-0.00137106
-0.000591145
-0.00139714
-0.000658048
-0.00142504
-0.000726395
-0.00145493
-0.000796277
-0.0014869
-0.000867787
-0.00152098
-0.00155722
-9.30805e-06
-0.0002125
-3.35856e-05
-0.000538058
-6.97868e-05
-0.000783339
-0.000114965
-0.00095757
-0.000166541
-0.0010748
-0.000222474
-0.00115065
-0.000281319
-0.00119956
-0.000342165
-0.00123304
-0.000404519
-0.00125909
-0.000468168
-0.0012826
-0.000533065
-0.00130616
-0.000599248
-0.00133096
-0.000666792
-0.00135749
-0.000735785
-0.00138594
-0.000806321
-0.00141636
-0.000878495
-0.00144881
-9.58576e-06
-0.000202914
-3.447e-05
-0.000513174
-7.14357e-05
-0.000746373
-0.000117418
-0.000911588
-0.00016977
-0.00102244
-0.00022643
-0.00109399
-0.000285951
-0.00114004
-0.000347436
-0.00117155
-0.000410407
-0.00119612
-0.000474664
-0.00121835
-0.000540166
-0.00124066
-0.000606956
-0.00126417
-0.00067511
-0.00128934
-0.00074472
-0.00131633
-0.000815881
-0.0013452
-0.001376
-9.85043e-06
-0.000193064
-3.53115e-05
-0.000487713
-7.30025e-05
-0.000708682
-0.000119746
-0.000864845
-0.000172834
-0.000969356
-0.00023018
-0.00103664
-0.000290341
-0.00107987
-0.000352433
-0.00110946
-0.00041599
-0.00113257
-0.000480823
-0.00115352
-0.0005469
-0.00117458
-0.000614266
-0.0011968
-0.000683002
-0.0012206
-0.000753199
-0.00124613
-0.000824954
-0.00127345
-0.00130259
-1.01018e-05
-0.000182962
-3.61093e-05
-0.000461705
-7.44863e-05
-0.000670305
-0.000121949
-0.000817382
-0.00017573
-0.000915575
-0.000233725
-0.000978647
-0.000294491
-0.00101911
-0.000357155
-0.0010468
-0.000421266
-0.00106845
-0.000486645
-0.00108814
-0.000553266
-0.00110796
-0.000621179
-0.00112889
-0.000690466
-0.00115132
-0.00076122
-0.00117537
-0.000833539
-0.00120113
-0.00122861
-1.03396e-05
-0.000172622
-3.6863e-05
-0.000435182
-7.58864e-05
-0.000631282
-0.000124025
-0.000769243
-0.00017846
-0.00086114
-0.000237064
-0.000920043
-0.000298398
-0.000957775
-0.000361602
-0.000983592
-0.000426235
-0.00100382
-0.000492129
-0.00102224
-0.000559264
-0.00104083
-0.000627693
-0.00106046
-0.0006975
-0.00108151
-0.000768779
-0.00110409
-0.000841631
-0.00112827
-0.00115408
-1.05636e-05
-0.000162059
-3.75721e-05
-0.000408173
-7.72022e-05
-0.000591651
-0.000125975
-0.00072047
-0.000181021
-0.000806095
-0.000240196
-0.000860868
-0.000302063
-0.000895907
-0.000365773
-0.000919882
-0.000430897
-0.000938697
-0.000497275
-0.000955864
-0.000564893
-0.000973208
-0.000633807
-0.000991549
-0.000704103
-0.00101121
-0.000775877
-0.00103232
-0.00084923
-0.00105492
-1.07737e-05
-0.000151285
-3.8236e-05
-0.000380711
-7.84331e-05
-0.000551454
-0.000127798
-0.000671105
-0.000183414
-0.000750479
-0.000243121
-0.000801161
-0.000305486
-0.000833542
-0.000369668
-0.0008557
-0.000435251
-0.000873114
-0.000502081
-0.000889034
-0.000570151
-0.000905138
-0.000639519
-0.000922181
-0.000710273
-0.000940459
-0.000782511
-0.000960083
-0.000981098
-1.09695e-05
-0.000140315
-3.88543e-05
-0.000352826
-7.95784e-05
-0.00051073
-0.000129493
-0.00062119
-0.000185638
-0.000694334
-0.00024584
-0.000740959
-0.000308666
-0.000770716
-0.000373287
-0.000791079
-0.000439296
-0.000807106
-0.000506547
-0.000821782
-0.000575038
-0.000836648
-0.000644829
-0.00085239
-0.000716009
-0.000869278
-0.000788678
-0.000887414
-0.000906838
-1.1151e-05
-0.000129164
-3.94267e-05
-0.00032455
-8.06376e-05
-0.000469519
-0.00013106
-0.000570768
-0.000187693
-0.000637701
-0.00024835
-0.000680301
-0.000311603
-0.000707463
-0.00037663
-0.000726053
-0.000443032
-0.000740703
-0.000510673
-0.000754142
-0.000579553
-0.000767768
-0.000649735
-0.000782207
-0.00072131
-0.000797703
-0.000794379
-0.000814345
-0.000832172
-1.1318e-05
-0.000117846
-3.99527e-05
-0.000295916
-8.16104e-05
-0.000427862
-0.000132498
-0.000519881
-0.000189578
-0.000580621
-0.000250653
-0.000619226
-0.000314297
-0.000643819
-0.000379695
-0.000660654
-0.00044646
-0.000673939
-0.000514458
-0.000686143
-0.000583695
-0.000698532
-0.000654236
-0.000711666
-0.000726175
-0.000725765
-0.000799611
-0.000740909
-0.000757134
-1.14703e-05
-0.000106376
-4.04319e-05
-0.000266954
-8.24961e-05
-0.000385797
-0.000133806
-0.00046857
-0.000191293
-0.000523134
-0.000252748
-0.000557771
-0.000316747
-0.00057982
-0.000382484
-0.000594918
-0.000449577
-0.000606845
-0.000517901
-0.000617819
-0.000587464
-0.000628969
-0.000658333
-0.000640796
-0.000730602
-0.000653495
-0.000804373
-0.000667138
-0.000681756
-1.16077e-05
-9.47684e-05
-4.08642e-05
-0.000237697
-8.32945e-05
-0.000343367
-0.000134985
-0.00041688
-0.000192838
-0.000465281
-0.000254635
-0.000495975
-0.000318953
-0.000515502
-0.000384995
-0.000528876
-0.000452385
-0.000539455
-0.000521002
-0.000549202
-0.000590858
-0.000559114
-0.000662023
-0.000569632
-0.00073459
-0.000580928
-0.000808663
-0.000593066
-0.000606072
-1.17302e-05
-8.30382e-05
-4.12491e-05
-0.000208179
-8.40051e-05
-0.000300611
-0.000136034
-0.00036485
-0.000194212
-0.000407103
-0.000256313
-0.000433874
-0.000320916
-0.000450899
-0.000387228
-0.000462564
-0.000454882
-0.000471802
-0.000523761
-0.000480323
-0.000593878
-0.000488996
-0.000665306
-0.000498204
-0.000738139
-0.000508095
-0.000812481
-0.000518724
-0.000530115
-1.18376e-05
-7.12006e-05
-4.15866e-05
-0.00017843
-8.46277e-05
-0.00025757
-0.000136953
-0.000312525
-0.000195415
-0.000348641
-0.000257782
-0.000371508
-0.000322633
-0.000386047
-0.000389184
-0.000396014
-0.000457069
-0.000403916
-0.000526177
-0.000411215
-0.000596523
-0.00041865
-0.000668181
-0.000426546
-0.000741247
-0.000435029
-0.000815825
-0.000444146
-0.000453918
-1.19299e-05
-5.92707e-05
-4.18762e-05
-0.000148483
-8.5162e-05
-0.000214284
-0.000137741
-0.000259945
-0.000196448
-0.000289935
-0.000259041
-0.000308914
-0.000324107
-0.000320981
-0.000390861
-0.00032926
-0.000458944
-0.000335833
-0.000528249
-0.000341911
-0.000598792
-0.000348106
-0.000670649
-0.000354689
-0.000743915
-0.000361763
-0.000818695
-0.000369366
-0.000377516
-1.20069e-05
-4.72638e-05
-4.21179e-05
-0.000118372
-8.56077e-05
-0.000170794
-0.000138399
-0.000207154
-0.000197308
-0.000231025
-0.000260092
-0.000246131
-0.000325336
-0.000255738
-0.000392259
-0.000262336
-0.000460509
-0.000267583
-0.000529977
-0.000272442
-0.000600685
-0.000277399
-0.000672707
-0.000282667
-0.00074614
-0.00028833
-0.000821089
-0.000294417
-0.000300943
-1.20686e-05
-3.51952e-05
-4.23115e-05
-8.81293e-05
-8.59647e-05
-0.000127141
-0.000138925
-0.000154193
-0.000197998
-0.000171953
-0.000260934
-0.000183195
-0.00032632
-0.000190351
-0.00039338
-0.000195276
-0.000461762
-0.000199201
-0.000531362
-0.000202842
-0.000602201
-0.00020656
-0.000674356
-0.000210513
-0.000747923
-0.000214763
-0.000823008
-0.000219332
-1.2115e-05
-2.30802e-05
-4.24569e-05
-5.77873e-05
-8.62328e-05
-8.33654e-05
-0.000139321
-0.000101105
-0.000198515
-0.000112758
-0.000261566
-0.000120144
-0.000327059
-0.000124858
-0.000394221
-0.000128114
-0.000462703
-0.000130719
-0.000532403
-0.000133143
-0.000603341
-0.000135621
-0.000675595
-0.000138258
-0.000749263
-0.000141095
-0.000144145
-1.21459e-05
-1.09343e-05
-4.2554e-05
-2.73792e-05
-8.64119e-05
-3.95075e-05
-0.000139585
-4.79322e-05
-0.000198861
-5.3482e-05
-0.000261988
-5.70175e-05
-0.000327553
-5.9293e-05
-0.000394784
-6.08831e-05
-0.000463333
-6.21703e-05
-0.000533099
-6.33772e-05
-0.000604104
-6.46163e-05
-0.000676425
-6.59372e-05
-0.00075016
-6.73593e-05
-6.88897e-05
-1.21614e-05
1.22709e-06
-4.26027e-05
3.06214e-06
-8.65018e-05
4.39155e-06
-0.000139718
5.28387e-06
-0.000199036
5.83573e-06
-0.000262201
6.14802e-06
-0.000327803
6.30847e-06
-0.000395068
6.38255e-06
-0.000463651
6.41254e-06
-0.00053345
6.42203e-06
-0.000604489
6.4223e-06
-0.000676844
6.41792e-06
-0.000750614
6.4105e-06
6.4005e-06
-1.21615e-05
1.33885e-05
-4.26031e-05
3.35038e-05
-8.65027e-05
4.82912e-05
-0.00013972
5.85007e-05
-0.000199038
6.51543e-05
-0.000262205
6.93145e-05
-0.000327807
7.19109e-05
-0.000395074
7.36492e-05
-0.000463658
7.49964e-05
-0.000533458
7.62222e-05
-0.000604497
7.74618e-05
-0.000676853
7.87741e-05
-0.000750624
8.01813e-05
8.16916e-05
-1.21461e-05
2.55346e-05
-4.25551e-05
6.39128e-05
-8.64145e-05
9.21506e-05
-0.00013959
0.000111676
-0.000198869
0.000124433
-0.000261999
0.000132444
-0.000327567
0.000137479
-0.0003948
0.000140883
-0.000463352
0.000143548
-0.000533121
0.000145991
-0.000604128
0.00014847
-0.000676453
0.000151098
-0.000750191
0.00015392
0.00015695
-1.21153e-05
3.76499e-05
-4.24587e-05
9.42562e-05
-8.62372e-05
0.000135929
-0.000139329
0.000164768
-0.000198528
0.000183632
-0.000261583
0.000195499
-0.000327081
0.000202977
-0.000394248
0.00020805
-0.000462735
0.000212035
-0.000532439
0.000215695
-0.000603382
0.000219413
-0.000675642
0.000223357
-0.000749315
0.000227593
0.000232142
-1.20691e-05
4.9719e-05
-4.2314e-05
0.000124501
-8.59709e-05
0.000179586
-0.000138937
0.000217734
-0.000198015
0.000242711
-0.000260958
0.000258442
-0.000326351
0.00026837
-0.000393417
0.000275117
-0.000461806
0.000280424
-0.000531413
0.000285302
-0.000602259
0.000290259
-0.000674421
0.000295519
-0.000747995
0.000301167
-0.000823087
0.000307234
0.000313734
-1.20075e-05
6.17264e-05
-4.2121e-05
0.000154615
-8.56156e-05
0.000223081
-0.000138413
0.000270531
-0.000197331
0.000301628
-0.000260123
0.000321234
-0.000325375
0.000333622
-0.000392308
0.000342049
-0.000460566
0.000348682
-0.000530043
0.000354779
-0.00060076
0.000360976
-0.00067279
0.00036755
-0.000746233
0.000374609
-0.000821191
0.000382192
0.000390317
-1.19305e-05
7.3657e-05
-4.188e-05
0.000184564
-8.51716e-05
0.000266372
-0.000137759
0.000323119
-0.000196475
0.000360344
-0.000259079
0.000383838
-0.000324155
0.000398698
-0.00039092
0.000408814
-0.000459014
0.000416777
-0.000528329
0.000424095
-0.000598883
0.00043153
-0.000670751
0.000439417
-0.000744028
0.000447886
-0.000818819
0.000456983
0.00046673
-1.18384e-05
8.54954e-05
-4.1591e-05
0.000214317
-8.4639e-05
0.00030942
-0.000136974
0.000375454
-0.000195448
0.000418817
-0.000257826
0.000446216
-0.00032269
0.000463563
-0.000389253
0.000475377
-0.000457151
0.000484675
-0.000526272
0.000493215
-0.000596631
0.000501889
-0.000668302
0.000511088
-0.000741381
0.000520965
-0.000815971
0.000531573
0.000542939
-1.17311e-05
9.72264e-05
-4.12542e-05
0.00024384
-8.40181e-05
0.000352184
-0.000136058
0.000427494
-0.000194249
0.000477008
-0.000256363
0.000508331
-0.000320981
0.00052818
-0.000387308
0.000541704
-0.000454977
0.000552343
-0.000523871
0.000562109
-0.000594003
0.000572021
-0.000665445
0.000582531
-0.000738293
0.000593812
-0.00081265
0.00060593
0.000618911
-1.16087e-05
0.000108835
-4.08699e-05
0.000273101
-8.33091e-05
0.000394623
-0.000135012
0.000479197
-0.00019288
0.000534875
-0.000254692
0.000570143
-0.000319027
0.000592516
-0.000385086
0.000607762
-0.000452492
0.00061975
-0.000521127
0.000630743
-0.000590999
0.000641894
-0.000662181
0.000653712
-0.000734765
0.000666397
-0.000808854
0.000680019
0.000694612
-1.14713e-05
0.000120306
-4.04382e-05
0.000302068
-8.25123e-05
0.000436697
-0.000133836
0.000530521
-0.00019134
0.000592379
-0.000252812
0.000631616
-0.00031683
0.000656533
-0.000382585
0.000673517
-0.000449697
0.000686862
-0.00051804
0.000699086
-0.000587621
0.000711475
-0.000658509
0.000724601
-0.000730797
0.000738685
-0.000804587
0.000753809
0.000770009
-1.13191e-05
0.000131626
-3.99595e-05
0.000330708
-8.16281e-05
0.000478366
-0.000132531
0.000581424
-0.000189629
0.000649477
-0.000250724
0.000692711
-0.000314388
0.000720197
-0.000379807
0.000738936
-0.000446592
0.000753647
-0.000514611
0.000767105
-0.000583869
0.000780732
-0.000654431
0.000795163
-0.000726391
0.000810644
-0.000799848
0.000827266
0.000845068
-1.11522e-05
0.000142778
-3.9434e-05
0.00035899
-8.06568e-05
0.000519589
-0.000131096
0.000631863
-0.000187749
0.00070613
-0.000248428
0.00075339
-0.000311703
0.000783472
-0.000376752
0.000803985
-0.000443177
0.000820072
-0.000510841
0.000834768
-0.000579743
0.000849635
-0.000649948
0.000865368
-0.000721546
0.000882242
-0.000794638
0.000900358
0.000919757
-1.09708e-05
0.000153748
-3.88622e-05
0.000386882
-7.9599e-05
0.000560326
-0.000129532
0.000681796
-0.000185698
0.000762296
-0.000245923
0.000813615
-0.000308774
0.000846323
-0.00037342
0.000868631
-0.000439453
0.000886105
-0.000506729
0.000902044
-0.000575244
0.00091815
-0.00064506
0.000935184
-0.000716266
0.000953448
-0.00078896
0.000973052
0.000994042
-1.0775e-05
0.000164523
-3.82443e-05
0.000414351
-7.84551e-05
0.000600536
-0.00012784
0.00073118
-0.000183479
0.000817935
-0.000243211
0.000873348
-0.000305603
0.000908714
-0.000369811
0.000932839
-0.00043542
0.000951714
-0.000502277
0.000968902
-0.000570374
0.000986246
-0.000639769
0.00100458
-0.00071055
0.00102423
-0.000782815
0.00104532
0.00106789
-1.05649e-05
0.000175088
-3.75808e-05
0.000441367
-7.72256e-05
0.000640181
-0.000126019
0.000779974
-0.00018109
0.000873006
-0.000240292
0.00093255
-0.000302188
0.00097061
-0.000365926
0.000996577
-0.000431079
0.00101687
-0.000497485
0.00103531
-0.000565132
0.00105389
-0.000634075
0.00107352
-0.0007044
0.00109455
-0.000776204
0.00111712
-0.000849587
0.00114128
0.00116705
-1.03409e-05
0.000185429
-3.68721e-05
0.000467898
-7.5911e-05
0.00067922
-0.000124072
0.000828135
-0.000178533
0.000927467
-0.000237166
0.000991183
-0.000298531
0.00103197
-0.000361765
0.00105981
-0.000426429
0.00108153
-0.000492354
0.00110123
-0.00055952
0.00112106
-0.00062798
0.00114198
-0.000697818
0.00116439
-0.000769129
0.00118843
-0.000842012
0.00121416
0.00124161
-1.01031e-05
0.000195532
-3.61187e-05
0.000493914
-7.4512e-05
0.000717613
-0.000121998
0.000875621
-0.000175808
0.000981277
-0.000233833
0.00104921
-0.000294631
0.00109277
-0.000357328
0.00112251
-0.000421472
0.00114568
-0.000486884
0.00116664
-0.000553538
0.00118771
-0.000621484
0.00120993
-0.000690804
0.00123371
-0.000761592
0.00125922
-0.000833944
0.00128651
0.00131562
-9.85169e-06
0.000205384
-3.53212e-05
0.000519383
-7.30293e-05
0.000755321
-0.000119797
0.000922389
-0.000172915
0.00103439
-0.000230295
0.00110659
-0.00029049
0.00115297
-0.000352616
0.00118463
-0.000416208
0.00120927
-0.000481076
0.00123151
-0.000547188
0.00125382
-0.000614589
0.00127733
-0.000683361
0.00130248
-0.000753594
0.00132945
-0.000825385
0.0013583
0.00138907
-9.58698e-06
0.000214971
-3.44799e-05
0.000544276
-7.14635e-05
0.000792305
-0.000117472
0.000968397
-0.000169856
0.00108678
-0.00022655
0.00116328
-0.000286107
0.00121253
-0.000347629
0.00124616
-0.000410637
0.00127227
-0.00047493
0.00129581
-0.00054047