/*--------------------------------*- C++ -*----------------------------------*\
  =========                 |
  \\      /  F ield         | OpenFOAM: The Open Source CFD Toolbox
   \\    /   O peration     | Website:  https://openfoam.org
    \\  /    A nd           | Version:  7
     \\/     M anipulation  |
\*---------------------------------------------------------------------------*/
FoamFile
{
    version     2.0;
    format      ascii;
    class       volVectorField;
    location    "60";
    object      U;
}
// * * * * * * * * * * * * * * * * * * * * * * * * * * * * * * * * * * * * * //

dimensions      [0 1 -1 0 0 0 0];

internalField   nonuniform List<vector> 
4575
(
(1.10766 0.365981 -1.33006e-20)
(1.10288 0.381731 4.24004e-20)
(1.09941 0.368125 -3.6781e-20)
(1.1 0.416423 -5.13697e-20)
(1.09668 0.399639 2.36854e-20)
(1.09404 0.383914 3.81945e-21)
(1.09098 0.370061 3.335e-20)
(1.09397 0.437029 -3.45297e-20)
(1.09003 0.41903 9.35473e-20)
(1.08717 0.401879 -3.36225e-21)
(1.08499 0.385868 -1.24844e-20)
(1.08238 0.371781 2.87718e-21)
(1.08781 0.459146 5.8628e-20)
(1.08331 0.43977 -3.05675e-20)
(1.07984 0.421373 -4.48376e-20)
(1.07746 0.403869 1.0427e-20)
(1.07576 0.387583 -2.34077e-20)
(1.07362 0.373276 -1.12268e-20)
(1.08131 0.482784 -3.4012e-20)
(1.07643 0.462024 -8.9055e-21)
(1.07242 0.442222 1.74113e-21)
(1.06943 0.423443 -4.39984e-21)
(1.06754 0.405598 1.15791e-21)
(1.06635 0.38905 -1.09139e-20)
(1.06469 0.374536 8.68764e-21)
(1.0741 0.507895 8.67165e-20)
(1.06913 0.485801 -2.15155e-20)
(1.0648 0.464582 -2.92172e-21)
(1.06131 0.444374 3.75848e-20)
(1.05881 0.425228 5.28614e-21)
(1.05743 0.407055 1.75783e-20)
(1.05675 0.390257 1.22393e-20)
(1.05561 0.375553 -2.32726e-21)
(1.06571 0.534317 7.74004e-21)
(1.06108 0.511057 2.01508e-20)
(1.0567 0.48846 3.76638e-20)
(1.05294 0.466807 2.38344e-21)
(1.04999 0.446213 8.74396e-21)
(1.048 0.426718 -2.16691e-20)
(1.04713 0.408231 4.79151e-21)
(1.04698 0.391197 -5.76154e-21)
(1.04638 0.376317 1.08093e-21)
(1.05541 0.561634 -1.0784e-19)
(1.05181 0.537646 -1.15713e-19)
(1.04778 0.513817 -5.09548e-20)
(1.04403 0.490748 -4.45279e-20)
(1.04087 0.468686 -5.31806e-21)
(1.03848 0.447728 -2.04858e-21)
(1.03701 0.427902 -6.09101e-21)
(1.03666 0.409118 -5.33142e-21)
(1.03703 0.391861 2.02354e-20)
(1.03701 0.376821 -1.23036e-20)
(1.04201 0.588953 -1.93839e-20)
(1.04063 0.565178 8.05377e-20)
(1.0376 0.540522 9.99433e-20)
(1.03423 0.516161 1.34532e-20)
(1.03114 0.49265 4.79357e-20)
(1.02861 0.470206 -2.40125e-21)
(1.02679 0.448908 1.23161e-20)
(1.02585 0.428771 -5.60302e-22)
(1.02602 0.409708 5.67402e-21)
(1.02693 0.392239 -4.29273e-21)
(1.02749 0.377053 -1.78048e-20)
(1.02358 0.614599 3.46049e-20)
(1.02641 0.592795 4.41203e-20)
(1.0255 0.568208 2.75645e-20)
(1.0231 0.542929 -6.03276e-20)
(1.02043 0.518074 -3.8367e-20)
(1.01803 0.494152 -2.1062e-20)
(1.01616 0.471355 -1.60043e-20)
(1.01494 0.449741 3.16951e-21)
(1.01454 0.429316 9.53783e-21)
(1.01522 0.409991 6.54526e-21)
(1.01666 0.392323 -1.89077e-20)
(1.01784 0.377006 -3.01675e-21)
(0.997168 0.635759 -4.79589e-20)
(1.00732 0.618861 -1.59053e-19)
(1.01042 0.596053 -1.03451e-19)
(1.01005 0.57071 -2.55393e-20)
(1.00835 0.544854 3.48736e-20)
(1.0064 0.519542 2.43391e-20)
(1.00473 0.495243 3.95059e-21)
(1.00354 0.47212 4.49216e-21)
(1.00295 0.450218 6.68656e-21)
(1.0031 0.429527 -8.98168e-21)
(1.00429 0.409962 -3.41778e-21)
(1.00625 0.392107 -3.30158e-20)
(1.00805 0.376669 2.98742e-20)
(0.958592 0.648133 -5.94272e-20)
(0.980515 0.640594 9.58426e-20)
(0.990606 0.622462 9.7664e-20)
(0.994069 0.598714 3.14079e-20)
(0.99432 0.57267 2.76813e-20)
(0.99335 0.546283 -7.23947e-21)
(0.992176 0.520552 3.21315e-22)
(0.991257 0.495908 7.82136e-21)
(0.990774 0.472491 -2.5095e-20)
(0.990819 0.450328 -1.63888e-20)
(0.99154 0.429396 -2.67448e-20)
(0.993244 0.409613 -4.21662e-20)
(0.995702 0.391582 7.29861e-20)
(0.998151 0.37603 4.39149e-20)
(0.902428 0.645744 -3.34015e-20)
(0.941949 0.653691 1.21384e-20)
(0.963343 0.644685 -1.10073e-20)
(0.973485 0.625387 6.91529e-20)
(0.977395 0.600764 -5.10891e-20)
(0.978322 0.574074 -5.34669e-21)
(0.97813 0.547202 4.50998e-21)
(0.977761 0.521092 -6.05911e-21)
(0.977623 0.496137 -1.48452e-20)
(0.977872 0.472455 4.02399e-20)
(0.97858 0.450058 2.20141e-20)
(0.979885 0.428912 3.46528e-20)
(0.982096 0.408938 5.53189e-20)
(0.985035 0.39074 5.69966e-20)
(0.988142 0.375075 -7.14972e-20)
(0.886321 0.652111 -1.06729e-20)
(0.924707 0.658424 -4.07792e-20)
(0.945695 0.648016 -1.09632e-20)
(0.955992 0.627623 -6.24428e-20)
(0.960426 0.602189 5.76911e-20)
(0.962084 0.57491 3.07769e-22)
(0.962712 0.547599 2.35559e-21)
(0.963176 0.521149 -2.10877e-20)
(0.963846 0.495917 -1.11065e-20)
(0.964852 0.472001 -6.9021e-20)
(0.966248 0.4494 -5.27008e-20)
(0.968155 0.428067 -1.34568e-20)
(0.970872 0.407928 9.40062e-20)
(0.974268 0.389573 -5.67989e-20)
(0.978045 0.373787 1.81084e-20)
(0.807363 0.628163 -5.14046e-20)
(0.869533 0.657587 -3.39862e-20)
(0.906913 0.662316 -2.80888e-20)
(0.927614 0.650574 3.31216e-20)
(0.938161 0.629156 4.64767e-21)
(0.943191 0.602978 -2.49876e-20)
(0.945632 0.575165 -1.00089e-20)
(0.947116 0.547463 -6.33775e-21)
(0.948443 0.520712 9.96653e-21)
(0.949943 0.495237 -7.72335e-23)
(0.95173 0.471118 2.14921e-20)
(0.953838 0.44834 1.37499e-20)
(0.956372 0.426848 2.61282e-20)
(0.959599 0.406574 4.78394e-20)
(0.963425 0.388067 -1.69401e-19)
(0.967882 0.372137 3.93543e-20)
(0.698487 0.572964 5.58304e-22)
(0.791679 0.634335 5.59026e-20)
(0.852119 0.662155 6.4889e-20)
(0.888616 0.665352 3.22211e-20)
(0.909143 0.652345 -2.14267e-20)
(0.920029 0.629976 1.24724e-20)
(0.925721 0.603119 6.50869e-21)
(0.928991 0.574829 1.81812e-20)
(0.931365 0.546784 3.82882e-20)
(0.933579 0.519771 1.42864e-20)
(0.935932 0.494088 7.15507e-21)
(0.93852 0.469795 -8.61634e-21)
(0.941366 0.446869 9.22552e-20)
(0.944557 0.425245 -7.51538e-20)
(0.948303 0.404867 2.99294e-20)
(0.952529 0.386203 1.82764e-19)
(0.95767 0.37008 1.09108e-19)
(0.684655 0.579539 -7.50262e-20)
(0.77531 0.639567 -1.91719e-20)
(0.834131 0.665797 4.61485e-20)
(0.869865 0.667518 -4.91542e-20)
(0.890323 0.653319 -1.97537e-20)
(0.901632 0.630072 -9.06447e-22)
(0.908047 0.602602 -2.58915e-20)
(0.912188 0.573892 -2.55767e-20)
(0.915481 0.54555 -3.62704e-20)
(0.918604 0.518317 -9.11291e-20)
(0.921829 0.492459 5.71416e-20)
(0.925236 0.468024 -8.00813e-21)
(0.928846 0.444975 -9.71016e-20)
(0.932727 0.423246 -3.2361e-20)
(0.937007 0.402796 -1.13157e-19)
(0.941608 0.383963 5.65548e-20)
(0.947467 0.367561 -1.29407e-19)
(0.54254 0.483674 7.37079e-20)
(0.67012 0.585196 1.00606e-19)
(0.758311 0.643836 3.33913e-20)
(0.815623 0.668499 -9.82111e-21)
(0.850708 0.668803 8.05866e-21)
(0.871197 0.653486 1.7498e-20)
(0.883006 0.629434 -2.71819e-20)
(0.890198 0.601419 -8.44518e-21)
(0.895249 0.572345 2.02609e-20)
(0.899488 0.543755 2.52467e-20)
(0.903539 0.516342 8.46023e-20)
(0.907649 0.490344 -6.43863e-21)
(0.911893 0.465795 -2.55376e-20)
(0.916289 0.442647 -1.22718e-20)
(0.920892 0.420837 6.45029e-20)
(0.925724 0.400345 1.24693e-19)
(0.930717 0.381327 -2.08086e-19)
(0.937444 0.364535 1.41736e-19)
(0.360918 0.337944 1.33397e-19)
(0.530723 0.489198 -5.76375e-20)
(0.654934 0.589911 -6.19227e-20)
(0.740737 0.647126 -2.40649e-20)
(0.796648 0.670247 1.70014e-20)
(0.831194 0.669196 -1.34863e-21)
(0.851806 0.652836 -2.21759e-20)
(0.864186 0.628056 9.28546e-21)
(0.872207 0.599562 9.69622e-20)
(0.8782 0.570182 2.28465e-21)
(0.883407 0.541391 -3.68544e-20)
(0.888402 0.513839 -4.19209e-20)
(0.893411 0.487737 -3.1835e-20)
(0.898502 0.463103 -4.45851e-21)
(0.903702 0.439878 1.20299e-19)
(0.909048 0.418003 -4.59536e-20)
(0.914452 0.397479 -8.95777e-20)
(0.919954 0.378234 -3.15802e-21)
(0.927834 0.360999 -1.99927e-19)
(0.352813 0.342396 -4.97138e-20)
(0.518299 0.493884 4.71714e-20)
(0.63915 0.593663 5.83754e-20)
(0.722644 0.649422 -1.51675e-20)
(0.777259 0.67103 -4.92248e-21)
(0.81137 0.668689 2.7847e-20)
(0.832194 0.651364 4.22987e-21)
(0.84521 0.625929 9.23764e-21)
(0.854103 0.597024 -7.14584e-20)
(0.861069 0.567395 -8.204e-20)
(0.867263 0.538453 -9.90745e-21)
(0.873215 0.510803 3.05725e-21)
(0.879132 0.484633 -3.86469e-20)
(0.885077 0.459945 3.54713e-20)
(0.891086 0.436666 9.78697e-20)
(0.897174 0.414736 2.94331e-20)
(0.903173 0.394153 -1.69499e-19)
(0.909417 0.374529 -5.55526e-21)
(0.918554 0.356717 6.27036e-20)
(0.134763 0.136719 1.86709e-20)
(0.344238 0.346227 9.06215e-21)
(0.505316 0.497709 -3.3819e-20)
(0.622824 0.596436 -1.99908e-20)
(0.704087 0.650709 3.2612e-21)
(0.75751 0.670839 1.87344e-20)
(0.791285 0.667275 -3.93146e-20)
(0.812401 0.649062 -4.89502e-20)
(0.826113 0.62305 5.97698e-20)
(0.835918 0.5938 1.40441e-19)
(0.843882 0.563979 8.62179e-20)
(0.85108 0.534935 -3.10247e-20)
(0.858 0.507231 -1.99485e-20)
(0.86483 0.48103 -7.78819e-21)
(0.871632 0.456322 -1.05823e-19)
(0.878445 0.433018 -5.5232e-20)
(0.885254 0.411059 -6.19043e-20)
(0.891883 0.390413 1.99931e-19)
(0.899141 0.370219 -4.64337e-20)
(0.908597 0.350008 1.73805e-19)
(0.131442 0.138478 1.39992e-20)
(0.335228 0.349418 -1.4861e-20)
(0.491821 0.500656 1.09242e-20)
(0.60601 0.598214 -2.04017e-21)
(0.685123 0.650978 -1.02455e-20)
(0.737452 0.669667 -2.78737e-20)
(0.770985 0.664949 1.45301e-20)
(0.792469 0.645927 7.21189e-20)
(0.80693 0.619413 -1.72749e-19)
(0.817683 0.589886 2.65529e-20)
(0.826667 0.559931 -5.09829e-20)
(0.834882 0.530834 5.80447e-20)
(0.842778 0.503119 5.21223e-20)
(0.850527 0.476928 8.36343e-20)
(0.858187 0.452235 3.47647e-20)
(0.865795 0.428947 9.18568e-20)
(0.873312 0.406998 4.37924e-20)
(0.880612 0.386353 -1.18518e-20)
(0.888715 0.366165 9.72875e-20)
(0.898038 0.346179 1.51285e-20)
(0.127925 0.139967 6.97732e-21)
(0.325819 0.351953 -1.23317e-20)
(0.477863 0.502708 8.53222e-21)
(0.588764 0.598984 -7.44891e-21)
(0.665808 0.65022 1.39935e-20)
(0.71714 0.667509 7.88931e-21)
(0.750519 0.661707 7.4005e-20)
(0.77244 0.641957 2.23013e-20)
(0.787698 0.615016 1.07573e-19)
(0.79943 0.585278 6.48897e-20)
(0.809453 0.555247 -1.69475e-19)
(0.818695 0.526148 6.07776e-21)
(0.827573 0.498466 -1.58304e-19)
(0.836243 0.472325 -1.05435e-20)
(0.844762 0.447687 -6.82101e-20)
(0.85316 0.424453 1.05344e-19)
(0.861384 0.402558 -1.62046e-19)
(0.869349 0.381949 -4.12759e-20)
(0.878053 0.361786 -6.17258e-20)
(0.887305 0.3419 -2.23793e-19)
(0.124229 0.141178 6.4037e-21)
(0.316045 0.353816 2.41155e-20)
(0.46349 0.503851 4.86094e-21)
(0.57114 0.598736 -1.14479e-20)
(0.646197 0.648429 3.76662e-20)
(0.696625 0.664362 -3.70411e-20)
(0.729933 0.657548 4.17913e-20)
(0.752354 0.637149 -1.51404e-19)
(0.768452 0.609857 -1.04409e-19)
(0.781189 0.579976 -1.89638e-19)
(0.792266 0.549926 1.18024e-19)
(0.802544 0.520874 -6.19635e-21)
(0.812408 0.493271 -2.45429e-20)
(0.822002 0.46722 -5.41061e-20)
(0.831379 0.442677 -7.71804e-20)
(0.840566 0.419538 4.07407e-20)
(0.849505 0.397737 1.30304e-19)
(0.858139 0.377212 -6.98566e-20)
(0.867398 0.357155 9.05412e-20)
(0.876804 0.337517 2.58085e-19)
(0.120369 0.142102 1.57404e-20)
(0.305945 0.354994 -1.62623e-20)
(0.448754 0.504073 1.9375e-20)
(0.553195 0.597462 4.63843e-20)
(0.626346 0.6456 2.6287e-20)
(0.67596 0.660223 7.99106e-20)
(0.709274 0.652472 -6.44409e-20)
(0.732252 0.631505 -3.4974e-20)
(0.749229 0.603937 -2.95751e-20)
(0.762993 0.573979 1.2455e-19)
(0.775135 0.543967 -2.98443e-19)
(0.786455 0.515013 -1.21031e-19)
(0.797307 0.487533 3.35302e-20)
(0.807825 0.461615 4.55482e-20)
(0.81806 0.437206 1.57702e-19)
(0.828036 0.414201 -2.18837e-19)
(0.837695 0.392534 6.41133e-20)
(0.846997 0.372133 3.85083e-20)
(0.856812 0.352239 -5.45587e-20)
(0.866513 0.332918 -1.93827e-19)
(0.11636 0.142734 7.43451e-21)
(0.295555 0.355477 -6.31879e-20)
(0.433704 0.503365 2.75467e-21)
(0.534983 0.595157 5.01216e-20)
(0.606311 0.641733 -6.19164e-20)
(0.655195 0.655094 -1.21916e-19)
(0.688587 0.646481 1.63556e-20)
(0.712175 0.625025 8.4984e-20)
(0.730063 0.597257 2.08005e-19)
(0.744872 0.567287 -2.09954e-19)
(0.758089 0.537371 1.80165e-19)
(0.770453 0.508564 2.16141e-19)
(0.782293 0.481253 1.74537e-19)
(0.793735 0.455509 1.26133e-19)
(0.804827 0.431273 -2.70821e-19)
(0.815592 0.408442 -2.40997e-21)
(0.825973 0.386947 -7.19714e-20)
(0.835946 0.36671 2.75385e-19)
(0.846328 0.347024 -1.20269e-20)
(0.856409 0.328042 -1.34085e-19)
(0.112218 0.143067 1.60556e-20)
(0.284913 0.355255 2.60503e-20)
(0.418391 0.501721 3.87958e-21)
(0.516562 0.591818 -3.06024e-20)
(0.586147 0.636827 -3.56116e-20)
(0.634383 0.648978 1.69245e-21)
(0.667919 0.639577 -4.86636e-20)
(0.692162 0.617712 -8.22188e-20)
(0.710989 0.589818 6.69004e-20)
(0.726858 0.559902 1.67602e-19)
(0.741154 0.530138 4.36667e-21)
(0.754565 0.501529 7.09531e-20)
(0.767392 0.474431 -1.11021e-19)
(0.779755 0.448903 -1.38836e-19)
(0.791701 0.424881 3.47594e-19)
(0.803253 0.40226 1.38987e-19)
(0.81436 0.380973 -1.42588e-19)
(0.825006 0.360938 -1.63802e-19)
(0.835969 0.341497 -1.83003e-19)
(0.846482 0.322867 -1.60236e-20)
(0.107959 0.143096 -1.02889e-19)
(0.274058 0.354322 -2.19674e-20)
(0.402865 0.499137 -4.99278e-20)
(0.497986 0.587444 -9.53811e-20)
(0.565907 0.630886 1.63385e-19)
(0.613572 0.641879 -1.38305e-19)
(0.647313 0.631766 1.98427e-19)
(0.672254 0.609572 -6.73436e-22)
(0.692043 0.581625 -6.35239e-20)
(0.708982 0.551827 5.29808e-20)
(0.724361 0.522272 3.88874e-20)
(0.738815 0.49391 -1.97192e-19)
(0.752626 0.467071 2.06705e-19)
(0.765907 0.441799 1.25187e-19)
(0.778703 0.418029 -4.89854e-20)
(0.791042 0.395655 -9.38549e-20)
(0.802873 0.374612 8.16715e-20)
(0.814195 0.354812 -1.39318e-19)
(0.82575 0.335649 -1.92768e-19)
(0.836729 0.317379 1.85356e-19)
(0.103601 0.142819 1.41422e-19)
(0.263028 0.352673 -8.5446e-20)
(0.387177 0.49561 -4.51603e-20)
(0.47931 0.582039 5.84384e-20)
(0.545647 0.623915 1.71234e-20)
(0.592813 0.633803 5.04156e-20)
(0.626816 0.623054 4.96363e-20)
(0.652488 0.60061 1.39682e-19)
(0.673258 0.572683 1.65972e-19)
(0.691275 0.543068 -1.5873e-19)
(0.707736 0.513777 1.93731e-19)
(0.72323 0.485711 -2.2262e-19)
(0.73802 0.459174 2.89802e-20)
(0.752213 0.4342 -8.78064e-20)
(0.765856 0.41072 6.24658e-20)
(0.778976 0.38863 5.85769e-20)
(0.791531 0.367863 -3.6115e-20)
(0.80353 0.348332 3.47921e-19)
(0.815684 0.329473 -4.54171e-20)
(0.82715 0.311571 -1.58212e-19)
(0.0991594 0.142231 -1.11905e-19)
(0.251862 0.350306 1.4919e-19)
(0.371377 0.491143 -2.94114e-20)
(0.460588 0.575605 -1.70201e-19)
(0.525418 0.61592 1.20107e-19)
(0.572155 0.624758 -4.29559e-20)
(0.606469 0.61345 -1.5202e-19)
(0.632904 0.590834 -2.3349e-20)
(0.65467 0.562999 -3.49455e-19)
(0.673767 0.533628 3.31579e-19)
(0.691307 0.504656 -3.62066e-20)
(0.707835 0.476935 9.28136e-20)
(0.723597 0.450744 1.11356e-19)
(0.738695 0.426109 4.43548e-20)
(0.753178 0.402957 -3.02147e-19)
(0.767076 0.381185 6.74005e-20)
(0.780352 0.360728 6.30499e-20)
(0.793026 0.341495 -2.08981e-19)
(0.805781 0.322967 7.82202e-20)
(0.817749 0.305441 2.98564e-20)
(0.0946514 0.141331 -9.60595e-20)
(0.240598 0.34722 -1.01905e-19)
(0.355516 0.485737 2.04023e-19)
(0.441874 0.568151 1.46859e-19)
(0.505274 0.606911 -1.20316e-19)
(0.551646 0.614756 1.35991e-20)
(0.586316 0.602963 9.64058e-20)
(0.61354 0.580252 2.92041e-20)
(0.636311 0.55258 -3.99607e-21)
(0.656489 0.523516 5.29202e-20)
(0.675101 0.494917 -9.13608e-20)
(0.692655 0.467588 -1.21972e-20)
(0.70938 0.441787 -3.46168e-19)
(0.725375 0.417531 -2.64251e-19)
(0.74069 0.394743 -4.38378e-20)
(0.75536 0.373324 -3.73641e-20)
(0.769352 0.353207 -4.10874e-20)
(0.782699 0.334301 -8.2971e-20)
(0.796053 0.316129 -9.57258e-20)
(0.0900939 0.140118 2.36068e-20)
(0.229276 0.343416 2.26729e-19)
(0.339643 0.479398 -9.2156e-20)
(0.423222 0.559685 -1.40404e-19)
(0.485266 0.596899 -1.27499e-20)
(0.531333 0.603807 1.99285e-19)
(0.566399 0.591605 -2.0533e-19)
(0.594433 0.568876 4.09665e-20)
(0.618215 0.541435 -3.06312e-20)
(0.639469 0.512739 -3.16232e-19)
(0.659146 0.484565 -2.97959e-19)
(0.677716 0.457676 5.49312e-20)
(0.695393 0.432308 4.75238e-19)
(0.712273 0.408469 7.09274e-20)
(0.728412 0.386082 1.89027e-19)
(0.743846 0.365049 -2.92163e-19)
(0.758548 0.345303 -6.8972e-20)
(0.772562 0.326753 3.41633e-19)
(0.786512 0.308959 1.51224e-19)
(0.0855041 0.138593 8.23213e-20)
(0.217932 0.338899 8.29147e-20)
(0.323807 0.472135 -2.04838e-19)
(0.404684 0.550218 -8.27078e-21)
(0.465444 0.585897 -8.80401e-20)
(0.511262 0.591926 -1.18681e-19)
(0.54676 0.579388 3.77647e-20)
(0.575619 0.556716 -1.1407e-19)
(0.600414 0.529575 2.17996e-19)
(0.622739 0.501306 -1.34518e-19)
(0.643469 0.473611 9.87802e-20)
(0.663041 0.447207 2.2453e-19)
(0.681657 0.422314 -1.53643e-19)
(0.699412 0.39893 3.90203e-20)
(0.716364 0.376979 1.86697e-19)
(0.73255 0.356365 2.34535e-19)
(0.747955 0.337019 -1.21689e-19)
(0.762629 0.318853 -6.9615e-20)
(0.777168 0.30146 1.0546e-19)
(0.0808987 0.136755 -1.94438e-19)
(0.206607 0.333673 7.28844e-20)
(0.308057 0.463958 2.33253e-19)
(0.38631 0.539765 2.72458e-20)
(0.445857 0.573922 -3.34891e-20)
(0.491479 0.579128 -5.85308e-20)
(0.527438 0.566328 -3.20467e-20)
(0.557134 0.543786 1.40154e-19)
(0.582941 0.517012 -2.07331e-19)
(0.606326 0.489228 4.88826e-19)
(0.628095 0.462061 2.03385e-19)
(0.648655 0.43619 -6.80091e-20)
(0.668195 0.411812 -2.15962e-20)
(0.686811 0.388922 8.97959e-20)
(0.704562 0.367441 -2.47678e-19)
(0.721492 0.347277 2.02598e-20)
(0.737589 0.328361 -1.57728e-19)
(0.752915 0.310604 -6.97991e-20)
(0.0762948 0.134608 -3.74267e-20)
(0.195336 0.327745 -2.36601e-19)
(0.29244 0.454878 1.63729e-19)
(0.368152 0.528341 -2.48451e-20)
(0.426555 0.560989 1.27778e-19)
(0.472027 0.56543 4.42827e-20)
(0.508473 0.552441 -7.2371e-21)
(0.539014 0.530101 9.44917e-20)
(0.565827 0.503758 -5.75306e-20)
(0.590258 0.476516 -1.7666e-19)
(0.613051 0.449929 1.91173e-19)
(0.634581 0.424633 2.03928e-19)
(0.65503 0.400811 -6.60074e-22)
(0.674491 0.378451 -4.61893e-20)
(0.693028 0.357475 -2.58803e-20)
(0.710687 0.337792 1.93058e-19)
(0.727465 0.319334 1.72499e-19)
(0.743431 0.302013 4.80849e-20)
(0.071709 0.132153 1.78525e-19)
(0.184158 0.321126 2.6591e-19)
(0.277004 0.44491 -1.54083e-19)
(0.350258 0.515963 -1.17547e-20)
(0.407584 0.547119 -2.23058e-19)
(0.452951 0.550851 1.38892e-19)
(0.489905 0.537744 -5.54108e-20)
(0.521292 0.515676 -1.0897e-19)
(0.549102 0.489828 -4.1154e-20)
(0.574564 0.463184 -5.88638e-21)
(0.598362 0.437224 -4.1838e-19)
(0.620843 0.412547 -5.28213e-19)
(0.642182 0.38932 -8.14055e-20)
(0.662471 0.367527 1.82385e-19)
(0.681777 0.347089 -7.14106e-20)
(0.700152 0.327918 -3.62635e-19)
(0.717598 0.309945 3.39062e-19)
(0.734192 0.293084 4.85889e-20)
(0.067158 0.129396 -2.92872e-19)
(0.173109 0.313826 1.00794e-19)
(0.261794 0.43407 -8.52459e-20)
(0.332677 0.502652 1.15674e-19)
(0.388991 0.532333 2.22897e-19)
(0.434291 0.535412 -1.40727e-19)
(0.471769 0.522256 2.5936e-19)
(0.504002 0.500529 -8.96982e-20)
(0.532796 0.475237 1.35497e-19)
(0.559271 0.449245 2.57891e-19)
(0.584052 0.423959 1.40296e-19)
(0.607464 0.399945 5.88672e-19)
(0.629671 0.377351 2.68935e-19)
(0.65077 0.356159 -2.22097e-20)
(0.670828 0.336292 -1.3808e-20)
(0.689902 0.317661 4.6138e-20)
(0.708002 0.3002 -3.74449e-19)
(0.72521 0.283824 -1.99566e-19)
(0.0626581 0.126339 1.62175e-19)
(0.162224 0.305857 -4.80548e-20)
(0.246855 0.422379 -2.19886e-19)
(0.315456 0.48843 -2.02406e-19)
(0.37082 0.516652 -3.65611e-20)
(0.416089 0.519134 2.71358e-20)
(0.454103 0.505997 -3.30197e-19)
(0.487177 0.484678 2.48675e-19)
(0.516938 0.460002 -1.14946e-19)
(0.544404 0.434714 -2.63624e-19)
(0.570146 0.410149 -6.36492e-20)
(0.594465 0.386837 -2.42836e-19)
(0.61752 0.364915 -5.04205e-19)
(0.639407 0.344358 4.29256e-20)
(0.660199 0.325092 3.96718e-19)
(0.679954 0.307031 -1.72628e-19)
(0.698691 0.290108 2.09787e-19)
(0.0582253 0.12299 -2.86117e-20)
(0.151539 0.297235 -4.01097e-19)
(0.232231 0.409855 4.04783e-19)
(0.298639 0.47332 -1.00631e-19)
(0.353114 0.500102 1.44076e-19)
(0.398383 0.502042 8.5182e-20)
(0.436942 0.488991 3.50208e-19)
(0.470846 0.468143 -4.22478e-19)
(0.501557 0.444142 3.31731e-19)
(0.52999 0.419608 2.63984e-19)
(0.556667 0.395809 -7.58325e-20)
(0.581867 0.373239 -4.01904e-20)
(0.605746 0.352024 1.46743e-19)
(0.6284 0.332136 -2.51838e-19)
(0.649904 0.313502 -3.35886e-19)
(0.670323 0.296038 1.27088e-19)
(0.68968 0.279678 -1.28189e-19)
(0.0538754 0.119354 -2.84357e-20)
(0.141088 0.287976 1.31557e-19)
(0.217963 0.396522 1.4883e-19)
(0.282271 0.457349 -2.60433e-19)
(0.335915 0.482709 1.33765e-19)
(0.381213 0.484161 -3.44978e-19)
(0.420319 0.471259 -2.77954e-20)
(0.455042 0.450945 2.04916e-20)
(0.48668 0.427674 -3.49251e-20)
(0.516053 0.403944 -3.31135e-19)
(0.543637 0.380953 -1.4419e-20)
(0.569693 0.359165 -5.36418e-20)
(0.59437 0.338692 3.22411e-19)
(0.617766 0.319505 -9.99088e-20)
(0.639962 0.301532 -2.83931e-20)
(0.661023 0.284692 1.67237e-19)
(0.68098 0.268921 4.85923e-19)
(0.0496236 0.115439 -5.33736e-20)
(0.130904 0.278098 -3.25357e-20)
(0.204094 0.382405 -1.63527e-19)
(0.266394 0.440543 9.95633e-20)
(0.319264 0.464502 2.72705e-19)
(0.364614 0.465516 -1.48529e-19)
(0.404268 0.452826 -2.39334e-19)
(0.439794 0.433107 2.35058e-19)
(0.472332 0.41062 -7.82935e-20)
(0.502617 0.38774 2.17102e-19)
(0.531079 0.365599 9.8867e-20)
(0.557961 0.34463 -5.76793e-20)
(0.583409 0.324932 -2.19323e-19)
(0.607523 0.306478 2.7067e-19)
(0.630386 0.289194 -6.75197e-20)
(0.652068 0.273004 -2.93491e-19)
(0.672607 0.257845 -1.00369e-19)
(0.045485 0.111252 1.0344e-19)
(0.121018 0.26762 3.86537e-20)
(0.190662 0.367529 -3.08455e-20)
(0.25105 0.422932 -8.70701e-20)
(0.303199 0.445508 -6.47112e-20)
(0.348622 0.446137 3.68633e-19)
(0.388819 0.433718 6.62689e-20)
(0.425128 0.414652 1.78124e-19)
(0.458541 0.393 1.31805e-19)
(0.489706 0.371016 -3.59094e-19)
(0.519013 0.349765 -1.87503e-19)
(0.546692 0.32965 3.46332e-19)
(0.572883 0.310762 -1.1454e-20)
(0.597688 0.293069 -2.79752e-19)
(0.621194 0.276502 7.1413e-20)
(0.643473 0.260988 3.42434e-19)
(0.0414739 0.106804 1.18457e-19)
(0.111463 0.256563 -1.57961e-19)
(0.177706 0.351923 -7.07264e-20)
(0.236277 0.404547 -1.57153e-20)
(0.287757 0.42576 -2.07829e-19)
(0.33327 0.426052 -1.09672e-19)
(0.374004 0.413963 -4.58225e-20)
(0.411074 0.395604 -3.55928e-19)
(0.445329 0.374838 -2.69408e-19)
(0.477341 0.353793 3.5596e-19)
(0.507461 0.33347 1.96635e-19)
(0.535904 0.314243 -1.53188e-19)
(0.562807 0.296195 -1.7638e-19)
(0.588276 0.279293 1.90181e-19)
(0.612398 0.26347 -1.0713e-19)
(0.635251 0.248654 1.5362e-19)
(0.0376044 0.102102 1.43334e-19)
(0.102267 0.24495 -2.35151e-19)
(0.165262 0.335616 6.78298e-20)
(0.222113 0.385421 1.18456e-19)
(0.272975 0.40529 -9.92444e-22)
(0.318592 0.405292 -1.46981e-19)
(0.359852 0.393588 1.28115e-19)
(0.397656 0.37599 4.73106e-20)
(0.432721 0.356155 -1.40238e-19)
(0.465544 0.336091 9.32777e-20)
(0.496442 0.316732 -2.46601e-19)
(0.525614 0.298427 -5.46636e-20)
(0.553199 0.281249 2.23097e-19)
(0.579301 0.265165 7.89468e-20)
(0.604012 0.25011 1.23504e-19)
(0.627414 0.236017 -2.32408e-19)
(0.0338897 0.0971583 -1.43792e-19)
(0.0934598 0.232805 -5.96289e-20)
(0.153365 0.31864 1.17598e-19)
(0.208594 0.365587 -2.42459e-19)
(0.258885 0.384131 -1.17481e-19)
(0.304617 0.383889 2.54414e-19)
(0.346388 0.372622 4.02145e-19)
(0.384898 0.355835 1.14056e-19)
(0.420738 0.336978 1.54389e-19)
(0.454335 0.317933 -2.24437e-21)
(0.485973 0.299574 7.27879e-20)
(0.515842 0.282222 2.53736e-19)
(0.544075 0.265942 -3.71027e-20)
(0.57078 0.250702 -4.49413e-19)
(0.596052 0.23644 3.86842e-21)
(0.619975 0.223091 2.50435e-20)
(0.0303427 0.0919832 4.50713e-20)
(0.0850677 0.220154 -1.18276e-19)
(0.142048 0.301027 4.15706e-19)
(0.195754 0.345081 2.13077e-21)
(0.24552 0.362319 1.55454e-19)
(0.291375 0.361876 1.51785e-19)
(0.333641 0.351096 -1.49805e-19)
(0.372826 0.335168 1.773e-20)
(0.409403 0.31733 -9.66762e-20)
(0.443734 0.299342 2.39007e-20)
(0.476074 0.282015 -2.85597e-21)
(0.506601 0.265646 -1.13561e-19)
(0.535448 0.250291 -5.07287e-20)
(0.562724 0.23592 2.98598e-19)
(0.588527 0.222474 -2.22598e-19)
(0.612945 0.209891 1.48312e-19)
(0.0269755 0.0865884 -9.67023e-20)
(0.0771168 0.207022 -1.10022e-19)
(0.131343 0.282812 -6.05406e-20)
(0.183625 0.32394 1.42028e-19)
(0.232911 0.33989 -1.20385e-19)
(0.278893 0.339287 -2.10458e-19)
(0.321633 0.329042 -1.26799e-19)
(0.36146 0.314018 -2.4444e-19)
(0.398734 0.297239 1.98843e-19)
(0.433758 0.280342 -1.61909e-19)
(0.46676 0.264079 3.44563e-20)
(0.497908 0.24872 2.40601e-20)
(0.527334 0.234316 -1.03997e-19)
(0.555149 0.220838 1.20287e-19)
(0.581452 0.208228 1.80657e-19)
(0.0237998 0.0809864 2.09753e-19)
(0.0696314 0.193438 2.17473e-19)
(0.121279 0.264031 -1.63666e-19)
(0.172237 0.302202 -1.38857e-19)
(0.221085 0.316881 3.86235e-20)
(0.267198 0.316158 8.35456e-20)
(0.31039 0.306491 -2.89773e-19)
(0.350821 0.292413 4.69652e-20)
(0.388751 0.27673 -1.93977e-19)
(0.424426 0.260958 1.63973e-19)
(0.458048 0.245787 3.88931e-20)
(0.489778 0.231465 -1.75817e-19)
(0.519746 0.218037 -3.96403e-20)
(0.548065 0.205473 9.35816e-20)
(0.574837 0.19372 4.3916e-20)
(0.0208263 0.07519 -9.66352e-20)
(0.0626342 0.17943 2.54722e-20)
(0.111884 0.244719 3.05647e-19)
(0.161619 0.279907 1.69892e-19)
(0.210069 0.293331 1.13276e-19)
(0.256312 0.292523 2.13219e-19)
(0.299931 0.283477 2.94726e-20)
(0.34093 0.270383 2.03602e-20)
(0.379471 0.255833 -1.45201e-21)
(0.415752 0.241216 -2.09707e-19)
(0.449952 0.227164 1.09403e-19)
(0.482224 0.213903 -1.75271e-19)
(0.512697 0.201473 1.1498e-19)
(0.541485 0.189843 -1.83789e-19)
(0.568693 0.178967 -1.07515e-19)
(0.0180651 0.0692127 -2.0735e-20)
(0.0561464 0.165029 1.46619e-19)
(0.103184 0.224916 -1.73435e-19)
(0.151797 0.257094 -7.83586e-20)
(0.199889 0.26928 7.02103e-20)
(0.246259 0.268422 -1.57115e-19)
(0.290277 0.260033 1.18836e-19)
(0.331803 0.247961 1.67966e-20)
(0.370911 0.234575 9.90237e-20)
(0.407753 0.221141 -3.58097e-21)
(0.442487 0.208234 -9.61902e-20)
(0.475259 0.196057 9.44607e-20)
(0.506197 0.184645 -2.41913e-19)
(0.535418 0.173969 3.35985e-19)
(0.56303 0.163987 1.27921e-19)
(0.0155256 0.0630686 -6.00136e-20)
(0.0501878 0.150265 -6.41239e-20)
(0.0952015 0.204661 -9.51639e-20)
(0.142794 0.233806 1.10128e-19)
(0.190566 0.244767 -5.99735e-20)
(0.237059 0.24389 -2.9617e-20)
(0.281447 0.236196 -5.95812e-20)
(0.323458 0.225178 -7.54245e-20)
(0.363086 0.212985 -2.08577e-19)
(0.400441 0.20076 9.06205e-20)
(0.435664 0.189021 -1.2564e-19)
(0.468893 0.177949 2.29809e-19)
(0.500258 0.167574 1.54449e-19)
(0.529876 0.15787 -2.70875e-19)
(0.557856 0.148797 -2.71041e-19)
(0.0132165 0.0567721 6.05844e-20)
(0.0447763 0.135171 -1.64189e-19)
(0.0879596 0.183992 -1.13237e-20)
(0.134633 0.210084 -1.50549e-19)
(0.182121 0.219835 -1.68422e-19)
(0.22873 0.218967 2.45439e-19)
(0.273457 0.211999 3.38431e-20)
(0.315909 0.202067 1.21444e-19)
(0.356009 0.191093 1.27326e-19)
(0.39383 0.180102 -2.99435e-20)
(0.429495 0.169552 1.763e-19)
(0.463139 0.159603 -1.03376e-19)
(0.49489 0.150283 -1.33459e-19)
(0.524867 0.141566 2.11665e-19)
(0.553181 0.133418 2.39549e-19)
(0.0111454 0.050338 -6.17349e-20)
(0.0399282 0.119778 1.43727e-19)
(0.0814774 0.162953 -1.55023e-19)
(0.127335 0.185973 9.96847e-20)
(0.174574 0.194526 9.32761e-20)
(0.221291 0.193693 -1.32601e-19)
(0.266323 0.187479 6.18437e-20)
(0.309171 0.178659 6.94106e-20)
(0.349694 0.16893 -2.17149e-19)
(0.38793 0.159193 1.0582e-19)
(0.423991 0.14985 1.18676e-20)
(0.458006 0.141043 1.00431e-19)
(0.490102 0.132793 -1.29373e-19)
(0.5204 0.125078 1.61054e-20)
(0.549011 0.117867 -1.0072e-20)
(0.00931954 0.0437817 -6.59946e-20)
(0.0356581 0.104121 8.8383e-20)
(0.0757725 0.141583 1.64105e-19)
(0.120916 0.161516 -2.04515e-20)
(0.16794 0.168882 1.14437e-19)
(0.214756 0.168107 -1.43675e-19)
(0.260059 0.162673 3.55944e-20)
(0.303255 0.15499 -1.25411e-19)
(0.34415 0.146527 3.54928e-22)
(0.382753 0.138062 -1.98872e-19)
(0.419162 0.129944 -1.43961e-19)
(0.453502 0.122293 7.67907e-20)
(0.485901 0.115126 2.01469e-20)
(0.516481 0.108426 -5.31473e-20)
(0.545354 0.102164 7.07938e-20)
(0.00774493 0.0371189 5.89512e-20)
(0.0319787 0.0882326 1.99968e-20)
(0.0708604 0.119927 4.97116e-20)
(0.115392 0.136758 -7.41852e-20)
(0.162235 0.142946 -3.38162e-20)
(0.209138 0.142249 -6.39057e-20)
(0.254675 0.137619 6.10807e-21)
(0.298173 0.131093 4.4608e-20)
(0.339389 0.123914 1.37416e-19)
(0.378307 0.116738 1.67464e-19)
(0.415015 0.109859 6.46721e-20)
(0.449635 0.103377 -1.54541e-20)
(0.482295 0.0973067 -3.32178e-20)
(0.513117 0.0916323 -8.32208e-20)
(0.542216 0.0863296 1.0015e-20)
(0.00642691 0.0303653 1.21426e-20)
(0.0289013 0.0721485 -8.42378e-20)
(0.0667544 0.0980267 -1.16361e-19)
(0.110778 0.111745 -4.09578e-21)
(0.157472 0.116764 -8.71649e-21)
(0.204449 0.116162 4.27217e-20)
(0.250184 0.112353 -1.32965e-19)
(0.293934 0.107002 -5.18088e-20)
(0.335418 0.101123 -8.79305e-20)
(0.374599 0.0952505 3.50238e-21)
(0.411558 0.0896227 2.901e-20)
(0.446412 0.0843209 6.45207e-20)
(0.47929 0.079357 -1.26839e-20)
(0.510314 0.0747177 5.58999e-20)
(0.539601 0.0703831 -2.72219e-20)
(0.00536994 0.0235372 -5.2359e-20)
(0.0264349 0.0559034 3.16765e-20)
(0.0634656 0.0759263 -3.19216e-20)
(0.107084 0.0865215 3.99031e-20)
(0.15366 0.0903785 3.09176e-20)
(0.200698 0.0898856 8.77127e-21)
(0.246592 0.086914 1.02602e-19)
(0.290545 0.0827531 -2.75434e-20)
(0.332244 0.0781867 2.44057e-20)
(0.371637 0.0736286 2.88711e-20)
(0.408796 0.0692621 1.99151e-20)
(0.443838 0.0651499 -5.38583e-20)
(0.47689 0.0613008 7.05117e-20)
(0.508076 0.0577042 5.28257e-20)
(0.537514 0.0543448 -2.0659e-20)
(0.00457759 0.0166511 1.60648e-20)
(0.0245871 0.0395328 3.96546e-20)
(0.0610029 0.0536699 -8.95606e-21)
(0.104319 0.061135 -6.31289e-20)
(0.150808 0.0638354 3.23657e-20)
(0.197894 0.0634624 9.45457e-20)
(0.243907 0.0613401 -7.5518e-20)
(0.288013 0.0583804 -4.34127e-21)
(0.329874 0.0551371 1.92149e-20)
(0.369425 0.0519021 4.26252e-20)
(0.406734 0.0488049 3.9578e-21)
(0.441917 0.0458894 -1.35177e-20)
(0.4751 0.0431615 -2.18486e-20)
(0.506408 0.0406138 -2.29787e-20)
(0.00405254 0.00972334 7.23731e-21)
(0.0233633 0.0230725 -2.06886e-20)
(0.059373 0.031302 8.53707e-21)
(0.102491 0.035632 2.67511e-20)
(0.148924 0.0371795 -1.55209e-20)
(0.196041 0.0369341 -4.8437e-20)
(0.242135 0.0356699 2.33032e-20)
(0.286343 0.0339196 -5.31329e-22)
(0.328311 0.0320065 -6.64293e-20)
(0.367968 0.0301011 4.00688e-20)
(0.405377 0.0282788 -2.68709e-20)
(0.440653 0.026565 2.11963e-20)
(0.473923 0.0249632 -1.73244e-20)
(0.505311 0.0234685 9.06401e-21)
(0.00379658 0.00277075 -3.2427e-22)