/*--------------------------------*- C++ -*----------------------------------*\
  =========                 |
  \\      /  F ield         | OpenFOAM: The Open Source CFD Toolbox
   \\    /   O peration     | Website:  https://openfoam.org
    \\  /    A nd           | Version:  7
     \\/     M anipulation  |
\*---------------------------------------------------------------------------*/
FoamFile
{
    version     2.0;
    format      ascii;
    class       volScalarField;
    location    "60";
    object      p;
}
// * * * * * * * * * * * * * * * * * * * * * * * * * * * * * * * * * * * * * //

dimensions      [0 2 -2 0 0 0 0];

internalField   nonuniform List<scalar> 
4575
(
-0.265853
-0.266285
-0.266655
-0.266979
-0.267266
-0.267525
-0.267763
-0.267983
-0.268191
-0.268387
-0.268575
-0.268759
-0.26894
-0.269124
-0.269323
-0.269505
-0.269666
-0.265637
-0.266073
-0.266444
-0.266767
-0.267052
-0.267306
-0.267537
-0.267748
-0.267943
-0.268123
-0.268291
-0.26845
-0.268603
-0.268753
-0.268911
-0.269047
-0.269151
-0.265457
-0.265894
-0.266266
-0.266587
-0.266868
-0.267116
-0.267339
-0.267538
-0.267718
-0.267881
-0.268027
-0.268161
-0.268283
-0.268397
-0.268514
-0.268601
-0.268647
-0.265313
-0.265751
-0.266122
-0.266439
-0.266715
-0.266956
-0.267168
-0.267355
-0.267519
-0.267662
-0.267785
-0.267891
-0.267981
-0.268058
-0.268133
-0.268171
-0.268156
-0.265206
-0.265644
-0.266011
-0.266325
-0.266594
-0.266826
-0.267026
-0.267199
-0.267345
-0.267467
-0.267565
-0.267642
-0.267698
-0.267737
-0.26777
-0.267758
-0.26768
-0.265138
-0.265573
-0.265937
-0.266244
-0.266505
-0.266726
-0.266914
-0.26707
-0.267198
-0.267297
-0.267369
-0.267415
-0.267436
-0.267435
-0.267425
-0.267363
-0.267221
-0.265108
-0.26554
-0.265898
-0.266198
-0.266449
-0.266659
-0.266832
-0.266971
-0.267078
-0.267152
-0.267196
-0.26721
-0.267194
-0.267153
-0.267099
-0.266986
-0.26678
-0.265117
-0.265544
-0.265896
-0.266187
-0.266427
-0.266623
-0.26678
-0.266901
-0.266985
-0.267034
-0.267048
-0.267028
-0.266974
-0.26689
-0.266792
-0.266628
-0.266356
-0.265587
-0.26593
-0.266211
-0.266439
-0.26662
-0.26676
-0.266859
-0.26692
-0.266941
-0.266924
-0.266868
-0.266775
-0.266647
-0.266504
-0.266289
-0.26595
-0.265669
-0.266002
-0.266271
-0.266485
-0.26665
-0.266771
-0.266848
-0.266883
-0.266875
-0.266824
-0.266731
-0.266596
-0.266423
-0.266234
-0.265968
-0.26556
-0.265789
-0.266111
-0.266367
-0.266566
-0.266713
-0.266813
-0.266866
-0.266874
-0.266834
-0.266748
-0.266615
-0.266437
-0.266218
-0.265981
-0.265664
-0.265186
-0.265949
-0.266259
-0.2665
-0.266681
-0.266809
-0.266886
-0.266914
-0.266892
-0.26682
-0.266696
-0.266521
-0.266297
-0.266029
-0.265744
-0.265375
-0.264825
-0.266148
-0.266444
-0.266668
-0.266831
-0.266937
-0.266991
-0.266991
-0.266938
-0.266831
-0.266667
-0.266448
-0.266176
-0.265856
-0.265522
-0.2651
-0.264476
-0.266387
-0.266666
-0.266873
-0.267016
-0.267099
-0.267126
-0.267098
-0.267012
-0.266867
-0.266661
-0.266395
-0.266072
-0.265698
-0.265311
-0.264836
-0.264134
-0.266665
-0.266927
-0.267114
-0.267235
-0.267294
-0.267293
-0.267234
-0.267113
-0.266928
-0.266677
-0.266362
-0.265984
-0.265552
-0.26511
-0.264581
-0.263794
-0.266983
-0.267226
-0.267391
-0.267488
-0.267521
-0.267491
-0.267399
-0.26724
-0.267014
-0.266716
-0.266347
-0.26591
-0.265416
-0.264915
-0.26433
-0.263451
-0.267562
-0.267704
-0.267776
-0.267781
-0.26772
-0.267593
-0.267395
-0.267124
-0.266776
-0.26635
-0.265851
-0.26529
-0.264725
-0.264081
-0.263097
-0.267935
-0.268053
-0.268098
-0.268073
-0.267979
-0.267815
-0.267577
-0.267259
-0.266857
-0.266372
-0.265805
-0.265171
-0.264535
-0.263831
-0.262726
-0.268346
-0.268437
-0.268453
-0.268397
-0.268269
-0.268066
-0.267785
-0.267418
-0.26696
-0.266411
-0.265772
-0.265058
-0.264344
-0.263577
-0.262326
-0.268793
-0.268857
-0.268842
-0.268752
-0.268588
-0.268346
-0.26802
-0.267602
-0.267085
-0.266468
-0.265752
-0.264951
-0.264149
-0.263316
-0.261871
-0.269311
-0.269264
-0.26914
-0.268938
-0.268654
-0.268281
-0.26781
-0.267232
-0.266544
-0.265745
-0.264849
-0.26395
-0.263054
-0.261325
-0.2698
-0.269718
-0.269558
-0.269317
-0.26899
-0.26857
-0.268044
-0.267403
-0.266639
-0.265753
-0.264754
-0.263748
-0.262805
-0.260766
-0.270322
-0.270205
-0.270007
-0.269725
-0.269355
-0.268885
-0.268303
-0.267596
-0.266754
-0.265775
-0.264666
-0.263536
-0.262456
-0.260332
-0.270879
-0.270724
-0.270485
-0.270162
-0.269746
-0.269227
-0.268588
-0.267814
-0.266892
-0.265815
-0.264589
-0.263331
-0.262078
-0.259818
-0.271273
-0.270993
-0.270627
-0.270165
-0.269595
-0.268899
-0.268057
-0.267053
-0.265874
-0.264522
-0.263123
-0.261699
-0.259205
-0.271853
-0.27153
-0.271119
-0.27061
-0.269988
-0.269235
-0.268325
-0.267238
-0.265955
-0.26447
-0.262914
-0.261311
-0.258506
-0.272462
-0.272094
-0.271637
-0.271079
-0.270407
-0.269595
-0.268619
-0.267448
-0.266059
-0.264435
-0.262708
-0.260913
-0.257723
-0.272685
-0.272179
-0.271573
-0.270848
-0.26998
-0.268936
-0.267683
-0.266188
-0.264421
-0.26251
-0.260509
-0.25685
-0.273301
-0.272745
-0.272088
-0.271311
-0.270386
-0.269277
-0.267943
-0.266342
-0.264429
-0.262323
-0.260105
-0.255886
-0.273942
-0.273333
-0.272624
-0.271794
-0.270812
-0.269638
-0.268225
-0.266521
-0.264463
-0.262151
-0.259707
-0.254832
-0.273942
-0.273178
-0.272293
-0.271254
-0.270017
-0.268527
-0.266722
-0.264521
-0.261997
-0.259322
-0.25369
-0.274568
-0.273748
-0.272806
-0.271709
-0.270409
-0.268845
-0.266944
-0.264602
-0.261863
-0.258956
-0.252468
-0.274331
-0.273331
-0.272175
-0.270813
-0.269176
-0.267182
-0.264705
-0.261751
-0.25861
-0.251179
-0.274928
-0.273865
-0.272649
-0.271223
-0.269515
-0.267434
-0.264828
-0.261664
-0.258285
-0.249847
-0.275535
-0.274407
-0.273127
-0.271638
-0.269861
-0.267698
-0.264972
-0.261614
-0.257988
-0.248528
-0.274956
-0.27361
-0.272055
-0.270213
-0.267975
-0.265141
-0.26162
-0.257733
-0.247331
-0.275513
-0.274097
-0.272477
-0.270572
-0.268271
-0.265345
-0.261711
-0.257507
-0.246304
-0.27459
-0.272906
-0.270944
-0.268598
-0.265613
-0.261954
-0.257225
-0.245131
-0.275092
-0.273344
-0.271336
-0.268973
-0.266003
-0.262522
-0.257047
-0.243947
-0.273797
-0.271752
-0.269406
-0.266556
-0.263589
-0.258042
-0.248186
-0.274268
-0.272192
-0.269884
-0.26721
-0.264913
-0.260823
-0.269133
-0.27265
-0.27038
-0.267866
-0.266151
-0.262765
-0.27419
-0.270873
-0.268463
-0.267077
-0.263876
-0.274957
-0.271351
-0.268979
-0.267707
-0.264526
-0.274593
-0.269405
-0.268076
-0.264791
-0.273349
-0.268208
-0.26472
-0.271497
-0.268133
-0.264375
-0.269304
-0.263811
-0.266947
-0.26454
-0.276078
-0.27453
-0.278563
-0.277885
-0.275128
-0.281005
-0.277966
-0.275515
-0.283296
-0.278205
-0.277852
-0.275639
-0.285262
-0.27931
-0.277772
-0.277516
-0.275441
-0.286643
-0.278822
-0.277266
-0.276933
-0.274879
-0.287176
-0.27991
-0.278336
-0.276697
-0.276069
-0.273874
-0.286625
-0.281025
-0.279467
-0.277866
-0.276087
-0.274902
-0.272056
-0.281851
-0.280587
-0.279065
-0.277434
-0.275496
-0.273655
-0.269416
-0.261146
-0.28158
-0.280188
-0.278708
-0.277066
-0.27502
-0.272664
-0.268506
-0.256948
-0.281148
-0.279825
-0.278395
-0.276775
-0.274722
-0.272185
-0.268777
-0.258201
-0.281943
-0.280744
-0.27949
-0.278122
-0.27655
-0.274562
-0.272051
-0.269184
-0.25951
-0.281485
-0.280363
-0.27918
-0.277879
-0.276375
-0.274483
-0.272088
-0.269554
-0.260711
-0.282065
-0.281047
-0.279999
-0.278888
-0.277659
-0.276233
-0.274454
-0.272225
-0.269965
-0.262099
-0.281568
-0.280625
-0.27965
-0.27861
-0.277456
-0.276117
-0.274461
-0.272429
-0.270426
-0.263614
-0.281935
-0.281086
-0.280217
-0.279312
-0.278345
-0.277268
-0.276022
-0.274496
-0.272677
-0.270917
-0.26514
-0.281394
-0.280618
-0.27982
-0.278985
-0.27809
-0.277093
-0.275943
-0.274555
-0.272952
-0.271428
-0.266614
-0.280868
-0.280162
-0.279432
-0.278668
-0.277844
-0.276929
-0.27588
-0.274633
-0.273246
-0.271953
-0.268006
-0.280972
-0.280355
-0.279716
-0.279054
-0.278358
-0.277608
-0.276776
-0.275831
-0.274727
-0.273552
-0.272486
-0.269301
-0.280404
-0.279852
-0.279279
-0.278683
-0.278055
-0.277379
-0.276633
-0.275794
-0.274835
-0.273862
-0.273015
-0.270487
-0.279849
-0.27936
-0.27885
-0.278319
-0.277759
-0.277157
-0.276498
-0.275766
-0.27495
-0.274171
-0.27353
-0.27156
-0.279707
-0.279303
-0.278875
-0.278427
-0.27796
-0.277468
-0.276941
-0.276369
-0.275744
-0.275069
-0.274469
-0.274021
-0.272516
-0.279114
-0.278768
-0.278398
-0.27801
-0.277605
-0.27718
-0.276728
-0.276242
-0.275724
-0.275183
-0.27475
-0.274477
-0.273358
-0.278533
-0.27824
-0.277926
-0.277597
-0.277253
-0.276894
-0.276515
-0.276115
-0.2757
-0.275286
-0.275004
-0.274888
-0.274085
-0.278173
-0.27796
-0.277719
-0.277459
-0.277186
-0.276902
-0.276607
-0.2763
-0.275983
-0.275667
-0.275372
-0.275226
-0.275247
-0.274702
-0.277563
-0.277397
-0.277205
-0.276997
-0.276777
-0.276551
-0.276318
-0.276081
-0.275843
-0.27562
-0.275435
-0.275408
-0.275549
-0.275212
-0.276963
-0.276841
-0.276696
-0.276537
-0.276369
-0.276198
-0.276025
-0.275853
-0.275692
-0.275554
-0.275469
-0.275547
-0.275791
-0.27562
-0.276372
-0.276293
-0.276192
-0.276079
-0.275961
-0.275841
-0.275725
-0.275616
-0.275525
-0.275467
-0.275471
-0.275638
-0.275971
-0.275929
-0.275802
-0.275792
-0.275751
-0.275692
-0.275623
-0.275551
-0.275481
-0.275418
-0.275368
-0.275341
-0.275355
-0.275437
-0.27568
-0.27609
-0.27614
-0.275196
-0.27522
-0.275217
-0.275197
-0.275168
-0.27514
-0.275115
-0.275102
-0.275105
-0.275137
-0.275215
-0.275365
-0.275672
-0.276159
-0.276241
-0.2746
-0.274657
-0.274689
-0.274705
-0.274715
-0.274726
-0.274744
-0.274776
-0.274828
-0.274912
-0.275047
-0.275255
-0.275618
-0.276179
-0.276232
-0.274016
-0.274104
-0.274168
-0.274217
-0.274263
-0.274311
-0.274368
-0.27444
-0.274536
-0.274666
-0.274849
-0.275107
-0.275512
-0.276063
-0.276287
-0.273294
-0.273444
-0.27356
-0.273654
-0.273735
-0.273812
-0.273893
-0.273985
-0.274094
-0.274228
-0.274399
-0.274623
-0.274922
-0.27536
-0.275915
-0.27627
-0.272708
-0.272884
-0.273027
-0.273147
-0.273257
-0.273363
-0.273475
-0.273598
-0.273739
-0.273906
-0.274111
-0.274369
-0.274701
-0.275164
-0.275726
-0.276155
-0.272138
-0.272337
-0.272504
-0.27265
-0.272785
-0.272918
-0.273056
-0.273206
-0.273375
-0.27357
-0.273804
-0.274089
-0.274445
-0.274925
-0.275491
-0.275965
-0.271582
-0.271803
-0.271992
-0.272161
-0.272319
-0.272476
-0.272637
-0.272811
-0.273003
-0.273222
-0.273478
-0.273784
-0.274159
-0.274648
-0.275212
-0.275716
-0.271042
-0.271284
-0.271494
-0.271683
-0.271862
-0.272039
-0.272221
-0.272414
-0.272626
-0.272863
-0.273137
-0.273458
-0.273843
-0.274335
-0.274894
-0.275414
-0.27052
-0.270781
-0.271009
-0.271217
-0.271414
-0.271608
-0.271807
-0.272017
-0.272244
-0.272496
-0.272781
-0.273112
-0.273503
-0.273991
-0.274539
-0.275064
-0.270016
-0.270294
-0.270539
-0.270763
-0.270976
-0.271186
-0.271399
-0.271622
-0.27186
-0.272122
-0.272415
-0.27275
-0.273142
-0.273621
-0.274153
-0.274674
-0.269532
-0.269826
-0.270086
-0.270324
-0.27055
-0.270772
-0.270997
-0.271229
-0.271476
-0.271744
-0.272041
-0.272376
-0.272762
-0.273228
-0.27374
-0.274249
-0.268713
-0.269069
-0.269377
-0.26965
-0.269901
-0.270138
-0.27037
-0.270603
-0.270843
-0.271095
-0.271365
-0.271661
-0.271991
-0.272368
-0.272816
-0.273304
-0.273795
-0.268258
-0.268628
-0.268948
-0.269234
-0.269495
-0.269741
-0.269981
-0.27022
-0.270463
-0.270717
-0.270986
-0.271278
-0.2716
-0.271964
-0.27239
-0.27285
-0.273315
-0.267828
-0.268211
-0.268543
-0.268838
-0.269108
-0.269361
-0.269606
-0.269849
-0.270094
-0.270346
-0.270612
-0.270896
-0.271206
-0.271552
-0.271954
-0.272382
-0.272817
-0.267424
-0.267819
-0.268161
-0.268464
-0.268741
-0.269
-0.269248
-0.269492
-0.269736
-0.269985
-0.270243
-0.270517
-0.270812
-0.271137
-0.271511
-0.271904
-0.272303
-0.267049
-0.267454
-0.267804
-0.268114
-0.268396
-0.268658
-0.268908
-0.269151
-0.269392
-0.269634
-0.269883
-0.270144
-0.270421
-0.270723
-0.271065
-0.271421
-0.27178
-0.266702
-0.267116
-0.267473
-0.267789
-0.268075
-0.268339
-0.268588
-0.268828
-0.269063
-0.269297
-0.269534
-0.269779
-0.270035
-0.270311
-0.27062
-0.270936
-0.27125
-0.266387
-0.266808
-0.267171
-0.267491
-0.267778
-0.268042
-0.268289
-0.268525
-0.268752
-0.268976
-0.269199
-0.269425
-0.269659
-0.269906
-0.27018
-0.270453
-0.270719
-0.266103
-0.266531
-0.266898
-0.26722
-0.267508
-0.267771
-0.268014
-0.268243
-0.268461
-0.268672
-0.268879
-0.269084
-0.269293
-0.269509
-0.269746
-0.269975
-0.27019
-0.271285
-0.269502
-0.272054
-0.270702
-0.272277
-0.271378
-0.271799
-0.270717
-0.269938
-0.268246
-0.270677
-0.268691
-0.271031
-0.26939
-0.270672
-0.269455
-0.269594
-0.268294
-0.267425
-0.265825
-0.270105
-0.267883
-0.270031
-0.268092
-0.269088
-0.267555
-0.267417
-0.265904
-0.264948
-0.263439
-0.269572
-0.267082
-0.269059
-0.266811
-0.26753
-0.265683
-0.265273
-0.263551
-0.26251
-0.261091
-0.269083
-0.266291
-0.268118
-0.265552
-0.266
-0.263843
-0.263166
-0.26124
-0.260115
-0.258781
-0.268639
-0.265512
-0.267211
-0.26432
-0.264502
-0.262039
-0.2611
-0.258973
-0.257764
-0.256511
-0.268242
-0.264749
-0.266341
-0.263117
-0.263042
-0.260277
-0.259079
-0.256754
-0.25546
-0.254283
-0.267894
-0.264002
-0.265511
-0.261948
-0.261638
-0.258559
-0.257106
-0.254586
-0.253205
-0.252096
-0.267596
-0.263275
-0.264723
-0.260815
-0.260268
-0.256889
-0.255184
-0.252471
-0.251001
-0.249953
-0.267356
-0.262569
-0.263975
-0.259722
-0.258945
-0.25527
-0.253316
-0.250413
-0.24885
-0.247854
-0.267167
-0.261887
-0.263266
-0.258666
-0.257671
-0.253705
-0.251505
-0.248413
-0.246753
-0.2458
-0.267038
-0.261227
-0.262599
-0.257643
-0.256448
-0.252198
-0.249753
-0.246473
-0.244713
-0.243792
-0.266968
-0.260583
-0.26209
-0.256649
-0.255278
-0.25075
-0.248062
-0.244595
-0.24273
-0.241831
-0.266956
-0.259948
-0.261526
-0.255721
-0.254164
-0.249364
-0.246434
-0.242781
-0.240807
-0.239919
-0.267003
-0.259367
-0.261016
-0.254933
-0.253109
-0.248042
-0.244871
-0.241034
-0.238943
-0.238055
-0.267111
-0.258816
-0.260561
-0.254152
-0.252114
-0.246787
-0.243375
-0.239353
-0.237142
-0.236243
-0.267279
-0.25829
-0.260155
-0.253423
-0.251179
-0.245599
-0.241947
-0.237742
-0.235403
-0.234483
-0.267508
-0.257794
-0.259797
-0.25275
-0.250305
-0.244481
-0.240589
-0.236201
-0.233729
-0.232772
-0.267796
-0.257327
-0.259485
-0.252134
-0.249491
-0.243433
-0.239302
-0.234732
-0.232118
-0.23111
-0.268148
-0.256889
-0.259213
-0.251577
-0.248739
-0.242458
-0.238087
-0.233334
-0.230572
-0.229514
-0.268573
-0.256473
-0.258981
-0.25108
-0.248047
-0.241556
-0.236945
-0.232008
-0.229102
-0.227964
-0.269041
-0.256052
-0.258804
-0.250642
-0.247418
-0.240724
-0.235878
-0.230762
-0.227703
-0.226466
-0.269478
-0.255678
-0.258687
-0.250256
-0.246851
-0.239962
-0.234893
-0.229603
-0.226362
-0.225032
-0.269945
-0.255478
-0.258479
-0.249946
-0.246338
-0.239285
-0.233979
-0.228513
-0.225097
-0.223663
-0.270467
-0.255266
-0.258324
-0.2497
-0.245874
-0.238678
-0.233142
-0.227503
-0.223909
-0.222358
-0.271027
-0.25507
-0.25821
-0.2495
-0.245469
-0.23814
-0.232384
-0.226573
-0.222798
-0.221119
-0.223009
-0.27161
-0.254917
-0.25811
-0.249346
-0.24512
-0.237673
-0.231703
-0.225725
-0.221765
-0.21995
-0.221728
-0.272205
-0.254809
-0.258015
-0.249239
-0.24482
-0.237274
-0.231099
-0.224958
-0.220812
-0.218851
-0.2205
-0.272796
-0.25475
-0.257922
-0.249171
-0.244565
-0.236941
-0.23057
-0.224272
-0.219939
-0.217825
-0.219328
-0.273364
-0.254741
-0.257824
-0.249138
-0.244352
-0.236669
-0.230115
-0.223667
-0.219149
-0.216874
-0.218216
-0.273881
-0.254788
-0.257717
-0.249132
-0.244175
-0.236455
-0.229732
-0.223143
-0.218442
-0.216
-0.217168
-0.274309
-0.254892
-0.257595
-0.249147
-0.244028
-0.236294
-0.229419
-0.222699
-0.217818
-0.215205
-0.216185
-0.274602
-0.255052
-0.257454
-0.249176
-0.243906
-0.236179
-0.229172
-0.222332
-0.217277
-0.21449
-0.215272
-0.274696
-0.255264
-0.257292
-0.24921
-0.243803
-0.236104
-0.228988
-0.222042
-0.21682
-0.213857
-0.214431
-0.274508
-0.255512
-0.257103
-0.249243
-0.243711
-0.236064
-0.228861
-0.221825
-0.216445
-0.213307
-0.213665
-0.273929
-0.255765
-0.256881
-0.24926
-0.24362
-0.236046
-0.228781
-0.221671
-0.216145
-0.212835
-0.212975
-0.27287
-0.256008
-0.256638
-0.249264
-0.243527
-0.236043
-0.22874
-0.221577
-0.21592
-0.212446
-0.212364
-0.271322
-0.256271
-0.256418
-0.249297
-0.243479
-0.236103
-0.228787
-0.221589
-0.215812
-0.21217
-0.211847
-0.21577
-0.26885
-0.256368
-0.256139
-0.249329
-0.243455
-0.236226
-0.228934
-0.221721
-0.215828
-0.212006
-0.21142
-0.215014
-0.263623
-0.255459
-0.255379
-0.248899
-0.242949
-0.235897
-0.228677
-0.221512
-0.215578
-0.211681
-0.210975
-0.214415
-0.247745
-0.252354
-0.253765
-0.247696
-0.241399
-0.234468
-0.227229
-0.22009
-0.214137
-0.210288
-0.209646
-0.213198
-0.240173
-0.247931
-0.250057
-0.244143
-0.23773
-0.23132
-0.224674
-0.218198
-0.212909
-0.209736
-0.209705
-0.21377
-0.236323
-0.242579
-0.244698
-0.239483
-0.233448
-0.22773
-0.221911
-0.216286
-0.211807
-0.209416
-0.210079
-0.214691
-0.232692
-0.236308
-0.237871
-0.233825
-0.228629
-0.223744
-0.218874
-0.214218
-0.210639
-0.209065
-0.2104
-0.215468
-0.227503
-0.229297
-0.230046
-0.227246
-0.223215
-0.21929
-0.215433
-0.211821
-0.209206
-0.208462
-0.210425
-0.215839
-0.220593
-0.221663
-0.221705
-0.219985
-0.217248
-0.214365
-0.211525
-0.208959
-0.207308
-0.20736
-0.209872
-0.215504
-0.212379
-0.213518
-0.213207
-0.21235
-0.210856
-0.20903
-0.207164
-0.205577
-0.204823
-0.205588
-0.208538
-0.214244
-0.203371
-0.205036
-0.204763
-0.204601
-0.204191
-0.203369
-0.202405
-0.201689
-0.201723
-0.203086
-0.206349
-0.211991
-0.19402
-0.196402
-0.19647
-0.196899
-0.197382
-0.197466
-0.197318
-0.197357
-0.198052
-0.199891
-0.203346
-0.208809
-0.184648
-0.187769
-0.188359
-0.189319
-0.190524
-0.191393
-0.19197
-0.192654
-0.193889
-0.196089
-0.199636
-0.204842
-0.17546
-0.179248
-0.180435
-0.18189
-0.183679
-0.185209
-0.186417
-0.187648
-0.189318
-0.191782
-0.195346
-0.200246
-0.166568
-0.170916
-0.172697
-0.174616
-0.176884
-0.178961
-0.180707
-0.1824
-0.184416
-0.187065
-0.19059
-0.195166
-0.158032
-0.162823
-0.16515
-0.167495
-0.170162
-0.172685
-0.174881
-0.176958
-0.179247
-0.182019
-0.185467
-0.189717
-0.149874
-0.155002
-0.157803
-0.160529
-0.163528
-0.16641
-0.168973
-0.171365
-0.173865
-0.176712
-0.180059
-0.183991
-0.142104
-0.147472
-0.150668
-0.153719
-0.156993
-0.16016
-0.163016
-0.165657
-0.168319
-0.171202
-0.174432
-0.178063
-0.134719
-0.140244
-0.143754
-0.147074
-0.150568
-0.153956
-0.157038
-0.159873
-0.16265
-0.165541
-0.168645
-0.171994
-0.127711
-0.133322
-0.137071
-0.140603
-0.144265
-0.147818
-0.151068
-0.154044
-0.156899
-0.159773
-0.162747
-0.165835
-0.12107
-0.126705
-0.130625
-0.134313
-0.138096
-0.141764
-0.145132
-0.148205
-0.151103
-0.153943
-0.156786
-0.159634
-0.114783
-0.12039
-0.124421
-0.128213
-0.132072
-0.135812
-0.139253
-0.142384
-0.145298
-0.148087
-0.150801
-0.15343
-0.108835
-0.114371
-0.118461
-0.12231
-0.126206
-0.129978
-0.133455
-0.136611
-0.139515
-0.142243
-0.144829
-0.147261
-0.103212
-0.108641
-0.112743
-0.11661
-0.120506
-0.124277
-0.127756
-0.130908
-0.133783
-0.13644
-0.138904
-0.141157
-0.097899
-0.103191
-0.107268
-0.111116
-0.114981
-0.118721
-0.122176
-0.1253
-0.128128
-0.130708
-0.133054
-0.135146
-0.0928794
-0.098012
-0.102031
-0.105831
-0.109638
-0.113322
-0.116729
-0.119805
-0.122574
-0.12507
-0.127304
-0.129252
-0.0881384
-0.0930939
-0.0970291
-0.100756
-0.104483
-0.10809
-0.111428
-0.114441
-0.117139
-0.119549
-0.121676
-0.123495
-0.083661
-0.0884266
-0.0922568
-0.09589
-0.0995185
-0.103031
-0.106286
-0.109221
-0.111841
-0.114162
-0.116188
-0.117892
-0.079433
-0.0839997
-0.0877088
-0.0912323
-0.0947479
-0.098153
-0.101311
-0.104159
-0.106693
-0.108925
-0.110854
-0.112455
-0.075441
-0.0798033
-0.0833791
-0.0867807
-0.0901722
-0.0934588
-0.0965109
-0.0992633
-0.101707
-0.10385
-0.105687
-0.107196
-0.0716721
-0.0758273
-0.0792613
-0.0825321
-0.0857913
-0.0889517
-0.0918903
-0.0945416
-0.0968924
-0.0989463
-0.100697
-0.102122
-0.0681143
-0.0720622
-0.0753489
-0.0784828
-0.0816044
-0.0846332
-0.0874533
-0.0899995
-0.0922555
-0.0942216
-0.0958905
-0.0972407
-0.0647563
-0.0684989
-0.0716351
-0.0746288
-0.0776094
-0.0805036
-0.083202
-0.0856409
-0.0878014
-0.0896814
-0.0912727
-0.0925551
-0.0615877
-0.0651283
-0.0681133
-0.0709652
-0.0738038
-0.0765619
-0.0791373
-0.0814679
-0.0835331
-0.0853289
-0.0868468
-0.0880675
-0.0585987
-0.0619421
-0.0647767
-0.0674873
-0.0701843
-0.0728066
-0.0752589
-0.0774813
-0.0794523
-0.0811662
-0.0826144
-0.0837789
-0.0557802
-0.0589321
-0.0616188
-0.0641897
-0.0667468
-0.0692349
-0.0715653
-0.0736807
-0.0755591
-0.0771937
-0.0785757
-0.0796885
-0.0531236
-0.0560908
-0.0586328
-0.061067
-0.0634873
-0.0658438
-0.0680544
-0.0700647
-0.0718526
-0.0734105
-0.0747297
-0.0757948
-0.0506212
-0.0534107
-0.0558124
-0.0581138
-0.060401
-0.0626293
-0.064723
-0.0666309
-0.0683308
-0.0698148
-0.0710743
-0.0720952
-0.0482656
-0.050885
-0.0531514
-0.0553244
-0.0574831
-0.0595873
-0.0615677
-0.0633761
-0.064991
-0.0664039
-0.0676068
-0.0685862
-0.0460498
-0.0485071
-0.0506436
-0.0526933
-0.0547285
-0.0567133
-0.0585844
-0.0602968
-0.0618297
-0.0631745
-0.0643234
-0.0652641
-0.0439676
-0.0462707
-0.0482831
-0.050215
-0.052132
-0.0540024
-0.0557686
-0.0573887
-0.0588429
-0.0601225
-0.0612201
-0.0621243
-0.0420129
-0.0441699
-0.0460642
-0.0478838
-0.0496884
-0.0514497
-0.0531155
-0.0546474
-0.0560262
-0.0572436
-0.0582923
-0.059162
-0.0401801
-0.0421991
-0.0439814
-0.0456946
-0.0473925
-0.0490501
-0.0506204
-0.052068
-0.053375
-0.0545331
-0.0555353
-0.0563721
-0.038464
-0.0403529
-0.0420294
-0.043642
-0.0452389
-0.0467984
-0.0482781
-0.0496457
-0.0508843
-0.051986
-0.052944
-0.0537496
-0.0368596
-0.0386263
-0.040203
-0.0417208
-0.0432227
-0.0446896
-0.0460836
-0.0473754
-0.0485492
-0.0495972
-0.0505132
-0.0512891
-0.0353623
-0.0370144
-0.0384974
-0.0399262
-0.0413388
-0.0427186
-0.0440319
-0.0452521
-0.0463645
-0.0473618
-0.0482379
-0.0489854
-0.0339676
-0.0355128
-0.0369079
-0.0382533
-0.0395824
-0.0408805
-0.042118
-0.0432707
-0.0443253
-0.0452746
-0.0461129
-0.0468332
-0.0326716
-0.034117
-0.0354302
-0.0366978
-0.0379488
-0.0391707
-0.040337
-0.0414266
-0.0424267
-0.0433307
-0.0441332
-0.0448277
-0.0314705
-0.0328232
-0.03406
-0.0352551
-0.0364336
-0.0375844
-0.0386845
-0.0397148
-0.0406639
-0.0415254
-0.042294
-0.0429638
-0.0303606
-0.0316276
-0.0327935
-0.0339214
-0.0350326
-0.0361174
-0.0371559
-0.038131
-0.0390324
-0.0398539
-0.0405907
-0.041237
-0.0293388
-0.0305266
-0.0316269
-0.0326927
-0.0337418
-0.0347657
-0.0357471
-0.036671
-0.0375279
-0.0383122
-0.039019
-0.0396431
-0.0284019
-0.029517
-0.0305571
-0.0315657
-0.0325576
-0.0335255
-0.0344542
-0.0353308
-0.0361466
-0.0368961
-0.0375749
-0.0381781
-0.0275474
-0.0285961
-0.0295809
-0.0305372
-0.0314769
-0.0323934
-0.0332738
-0.0341069
-0.0348847
-0.0356022
-0.036255
-0.0368385
-0.0267729
-0.0277613
-0.0286957
-0.0296045
-0.0304966
-0.0313664
-0.0322029
-0.0329962
-0.0337393
-0.0344273
-0.035056
-0.0356211
-0.0260762
-0.0270103
-0.0278993
-0.0287651
-0.0296143
-0.030442
-0.0312388
-0.0319961
-0.0327076
-0.0333687
-0.0339755
-0.0345236
-0.0254558
-0.0263414
-0.0271898
-0.0280172
-0.0288282
-0.0296182
-0.0303794
-0.0311044
-0.0317876
-0.0324245
-0.0330113
-0.0335439
-0.0249105
-0.0257534
-0.0265659
-0.0273594
-0.0281366
-0.0288935
-0.0296234
-0.0303198
-0.0309778
-0.0315931
-0.0321621
-0.0326807
-0.0244395
-0.0252455
-0.0260268
-0.026791
-0.027539
-0.0282672
-0.0289698
-0.0296414
-0.0302775
-0.030874
-0.0314273
-0.0319337
-0.0240427
-0.0248175
-0.0255725
-0.0263119
-0.0270352
-0.0277391
-0.0284188
-0.0290694
-0.0296868
-0.0302673
-0.0308073
-0.0313031
-0.0237206
-0.0244701
-0.0252036
-0.0259228
-0.0266261
-0.0273102
-0.0279711
-0.0286046
-0.0292068
-0.0297742
-0.0303032
-0.0307903
-0.0234745
-0.0242046
-0.0249217
-0.0256253
-0.0263133
-0.0269824
-0.0276289
-0.0282493
-0.0288398
-0.0293971
-0.0299176
-0.030398
-0.0233068
-0.0240235
-0.0247294
-0.0254225
-0.0260999
-0.0267587
-0.0273955
-0.0280068
-0.0285894
-0.0291398
-0.0296545
-0.0301302
-0.0232201
-0.0239302
-0.0246304
-0.0253179
-0.02599
-0.0266436
-0.0272753
-0.0278821
-0.0284605
-0.0290073
-0.0295191
-0.0299924
-0.245668
-0.247439
-0.249419
-0.251704
-0.254425
-0.257752
-0.261914
-0.267219
-0.274435
-0.284639
-0.241094
-0.243947
-0.246973
-0.250189
-0.253609
-0.257239
-0.261083
-0.265156
-0.269359
-0.275989
-0.229697
-0.232236
-0.234813
-0.237447
-0.240162
-0.242997
-0.245999
-0.24931
-0.252649
-0.258583
-0.217704
-0.220237
-0.222821
-0.225473
-0.228211
-0.231056
-0.234005
-0.237159
-0.240107
-0.244867
-0.206729
-0.209272
-0.211829
-0.214404
-0.217
-0.219628
-0.222278
-0.225044
-0.227621
-0.231406
-0.195744
-0.198221
-0.200697
-0.203177
-0.205664
-0.20817
-0.210688
-0.213279
-0.215746
-0.21889
-0.185209
-0.187649
-0.190086
-0.192521
-0.194956
-0.197394
-0.199829
-0.202294
-0.204682
-0.207386
-0.175196
-0.177588
-0.179973
-0.182353
-0.184728
-0.1871
-0.189465
-0.191841
-0.194177
-0.196621
-0.165663
-0.167997
-0.170326
-0.172651
-0.17497
-0.177285
-0.179596
-0.181905
-0.184197
-0.186485
-0.156632
-0.158903
-0.161169
-0.163432
-0.165691
-0.167947
-0.170199
-0.172447
-0.174688
-0.176875
-0.148094
-0.150291
-0.152487
-0.15468
-0.156872
-0.159062
-0.161251
-0.163435
-0.165618
-0.167727
-0.140033
-0.142151
-0.144268
-0.146386
-0.148504
-0.150621
-0.152739
-0.154854
-0.156971
-0.159008
-0.132435
-0.134468
-0.136503
-0.138539
-0.140576
-0.142615
-0.144656
-0.146695
-0.148738
-0.1507
-0.125282
-0.127228
-0.129175
-0.131125
-0.133078
-0.135033
-0.136991
-0.13895
-0.140913
-0.142796
-0.118555
-0.12041
-0.122269
-0.12413
-0.125995
-0.127864
-0.129736
-0.13161
-0.133489
-0.13529
-0.112233
-0.113998
-0.115766
-0.117538
-0.119314
-0.121094
-0.122879
-0.124665
-0.126458
-0.128175
-0.106294
-0.107968
-0.109647
-0.111329
-0.113016
-0.114708
-0.116404
-0.118103
-0.119808
-0.12144
-0.100717
-0.102302
-0.103892
-0.105486
-0.107085
-0.108688
-0.110297
-0.111908
-0.113526
-0.115074
-0.0954786
-0.0969774
-0.0984805
-0.0999882
-0.1015
-0.103017
-0.104539
-0.106064
-0.107596
-0.10906
-0.0905592
-0.0919738
-0.0933927
-0.094816
-0.0962439
-0.0976764
-0.0991137
-0.100554
-0.102001
-0.103385
-0.0859379
-0.0872711
-0.0886086
-0.0899503
-0.0912964
-0.0926469
-0.0940021
-0.0953605
-0.096725
-0.0980297
-0.0828503
-0.0841093
-0.0853723
-0.0866395
-0.087911
-0.0891868
-0.0904657
-0.0917506
-0.0929791
-0.078693
-0.0798767
-0.0810642
-0.0822556
-0.083451
-0.0846504
-0.0858529
-0.0870609
-0.0882163
-0.0747821
-0.0758938
-0.077009
-0.0781279
-0.0792503
-0.0803766
-0.0815057
-0.08264
-0.0837254
-0.0711017
-0.0721447
-0.0731909
-0.0742404
-0.0752933
-0.0763496
-0.0774085
-0.0784723
-0.0794907
-0.0676369
-0.0686145
-0.069595
-0.0705785
-0.071565
-0.0725546
-0.0735467
-0.0745431
-0.0754977
-0.0643739
-0.0652893
-0.0662074
-0.0671281
-0.0680516
-0.0689778
-0.0699062
-0.0708386
-0.0717326
-0.0613
-0.0621566
-0.0630154
-0.0638766
-0.0647402
-0.0656063
-0.0664743
-0.0673458
-0.0681823
-0.0584036
-0.0592043
-0.0600071
-0.060812
-0.0616189
-0.062428
-0.0632388
-0.0640526
-0.0648347
-0.0556739
-0.056422
-0.0571718
-0.0579234
-0.0586767
-0.0594319
-0.0601885
-0.0609479
-0.0616785
-0.0531012
-0.0537995
-0.0544993
-0.0552005
-0.0559033
-0.0566076
-0.0573132
-0.0580211
-0.0587031
-0.0506764
-0.0513278
-0.0519804
-0.0526343
-0.0532894
-0.0539458
-0.0546032
-0.0552626
-0.0558988
-0.0483913
-0.0489985
-0.0496068
-0.050216
-0.0508263
-0.0514375
-0.0520497
-0.0526633
-0.0532564
-0.0462383
-0.046804
-0.0473706
-0.0479379
-0.0485059
-0.0490748
-0.0496444
-0.0502151
-0.0507676
-0.0442105
-0.0447372
-0.0452646
-0.0457925