/*--------------------------------*- C++ -*----------------------------------*\
  =========                 |
  \\      /  F ield         | OpenFOAM: The Open Source CFD Toolbox
   \\    /   O peration     | Website:  https://openfoam.org
    \\  /    A nd           | Version:  7
     \\/     M anipulation  |
\*---------------------------------------------------------------------------*/
FoamFile
{
    version     2.0;
    format      ascii;
    class       surfaceScalarField;
    location    "140";
    object      phi;
}
// * * * * * * * * * * * * * * * * * * * * * * * * * * * * * * * * * * * * * //

dimensions      [0 3 -1 0 0 0 0];

internalField   nonuniform List<scalar> 
8842
(
-1.73024e-06
2.64267e-05
-2.46965e-05
-6.35369e-06
6.06594e-05
-5.60359e-05
7.99628e-05
-7.27936e-05
-1.74151e-06
2.81683e-05
-6.41574e-06
6.53336e-05
8.72364e-05
-1.73826e-06
2.99065e-05
-6.427e-06
7.00223e-05
9.45605e-05
-1.71973e-06
3.16262e-05
-6.38473e-06
7.46873e-05
0.000101878
-1.68542e-06
3.33117e-05
-6.28694e-06
7.92889e-05
0.00010913
-1.63506e-06
3.49467e-05
-6.13249e-06
8.37863e-05
0.000116255
-1.56864e-06
3.65154e-05
-5.92108e-06
8.81387e-05
0.000123193
-1.48643e-06
3.80018e-05
-5.6533e-06
9.23056e-05
0.000129882
-1.38897e-06
3.93908e-05
-5.33069e-06
9.62473e-05
-1.17099e-05
0.000136261
0.000161402
-1.27711e-06
4.06679e-05
-4.95568e-06
9.99259e-05
-1.0967e-05
0.000142272
0.000169631
-1.15192e-06
4.18198e-05
-4.53149e-06
0.000103305
-1.01192e-05
0.00014786
0.000177346
-1.01467e-06
4.28345e-05
-4.06221e-06
0.000106353
-9.17382e-06
0.000152972
0.000184477
-8.66849e-07
4.37013e-05
-3.55251e-06
0.000109039
-8.13996e-06
0.000157559
0.000190959
-7.10114e-07
4.44114e-05
-3.00781e-06
0.000111336
-7.02791e-06
0.000161579
0.000196732
-5.46318e-07
4.49578e-05
-2.43413e-06
0.000113224
-5.84927e-06
0.000164994
0.000201743
-3.77455e-07
4.53352e-05
-1.83803e-06
0.000114685
-4.61677e-06
0.000167773
0.000205946
-2.05653e-07
4.55409e-05
-1.22656e-06
0.000115706
-3.34416e-06
0.000169891
-6.70013e-06
0.000209302
0.000235435
-3.33837e-08
4.55743e-05
-6.07113e-07
0.000116279
-2.046e-06
0.00017133
-4.52476e-06
0.000211781
0.00023899
1.38182e-07
4.54361e-05
1.27996e-08
0.000116405
-7.37384e-07
0.00017208
-2.31749e-06
0.000213361
0.000241457
3.05356e-07
4.51307e-05
6.25339e-07
0.000116085
5.66236e-07
0.000172139
-1.0295e-07
0.00021403
0.000242813
4.66726e-07
4.4664e-05
1.22295e-06
0.000115329
1.84928e-06
0.000171513
2.09365e-06
0.000213786
1.86316e-06
0.000243044
0.000260414
6.20053e-07
4.40439e-05
1.79819e-06
0.00011415
3.09668e-06
0.000170214
4.24772e-06
0.000212635
5.14615e-06
0.000242146
0.000259723
7.6332e-07
4.32806e-05
2.34396e-06
0.00011257
4.29368e-06
0.000168264
6.33505e-06
0.000210594
8.35492e-06
0.000240126
0.000257684
8.94679e-07
4.23859e-05
2.85365e-06
0.000110611
5.4265e-06
0.000165691
8.33268e-06
0.000207687
1.1456e-05
0.000237002
0.000254305
1.0125e-06
4.13734e-05
3.32134e-06
0.000108302
6.48262e-06
0.00016253
1.02196e-05
0.000203951
1.44183e-05
0.000232804
1.91206e-05
0.000249602
0.000255
1.11541e-06
4.0258e-05
3.74194e-06
0.000105675
7.45111e-06
0.000158821
1.19771e-05
0.000199424
1.7214e-05
0.000227567
2.32104e-05
0.000243606
0.00024805
1.20233e-06
3.90557e-05
4.11138e-06
0.000102766
8.32304e-06
0.000154609
1.35899e-05
0.000194158
1.98196e-05
0.000221337
2.70727e-05
0.000236353
0.000239569
1.27251e-06
3.77832e-05
4.42675e-06
9.96121e-05
9.09181e-06
0.000149944
1.5046e-05
0.000188203
2.2217e-05
0.000214166
3.06816e-05
0.000227888
4.06606e-05
0.00022959
0.000219523
1.32562e-06
3.64576e-05
4.68643e-06
9.62513e-05
9.75349e-06
0.000144877
1.63381e-05
0.000181619
2.43941e-05
0.00020611
3.402e-05
0.000218263
4.54568e-05
0.000218153
0.000205897
1.36168e-06
3.50959e-05
4.89028e-06
9.27227e-05
1.03071e-05
0.00013946
1.74637e-05
0.000174462
2.63462e-05
0.000197228
3.70801e-05
0.000207529
4.99319e-05
0.000205302
0.000190523
1.38119e-06
3.37147e-05
5.03964e-06
8.90643e-05
1.07548e-05
0.000133745
1.84254e-05
0.000166792
2.8076e-05
0.000187577
3.98651e-05
0.000195739
5.40893e-05
0.000191077
7.11845e-05
0.000173428
0.000142547
1.38509e-06
3.23296e-05
5.13749e-06
8.53119e-05
1.11022e-05
0.000127781
1.92315e-05
0.000158662
2.95949e-05
0.000177214
4.23893e-05
0.000182945
5.79475e-05
0.000175519
7.6742e-05
0.000154634
0.000119905
1.37478e-06
3.09548e-05
5.18838e-06
8.14983e-05
1.1358e-05
0.000121611
1.98961e-05
0.000150124
3.09225e-05
0.000166187
4.4679e-05
0.000169189
6.15405e-05
0.000158658
8.2022e-05
0.000134152
0.000106781
9.51454e-05
4.09301e-05
1.35208e-06
2.96028e-05
5.19847e-06
7.76519e-05
1.15346e-05
0.000115275
2.04386e-05
0.00014122
3.20869e-05
0.000154539
4.67722e-05
0.000154503
6.49175e-05
0.000140512
8.70871e-05
0.000111983
0.000113991
6.82415e-05
8.43836e-06
1.31926e-06
2.82835e-05
5.17539e-06
7.37957e-05
1.16472e-05
0.000108803
2.0884e-05
0.000131983
3.31244e-05
0.000142298
4.8718e-05
0.00013891
6.81428e-05
0.000121088
9.20185e-05
8.81068e-05
0.000121113
3.91468e-05
-2.67898e-05
1.27897e-06
2.70045e-05
5.12811e-06
6.99466e-05
1.17141e-05
0.000102217
2.12619e-05
0.000122436
3.40783e-05
0.000129482
5.05755e-05
0.000122412
7.1293e-05
0.00010037
9.69127e-05
6.24872e-05
0.000128266
7.79324e-06
0.000166332
-6.48558e-05
-0.000156811
1.23416e-06
2.57704e-05
5.06671e-06
6.61141e-05
1.17556e-05
9.55281e-05
2.16061e-05
0.000112585
3.49978e-05
0.00011609
5.2412e-05
0.000104998
7.44557e-05
7.83264e-05
0.000101879
3.50641e-05
0.000135581
-2.59094e-05
0.000176607
-0.000105882
-0.000206323
1.18802e-06
2.45823e-05
5.00212e-06
6.23e-05
1.17942e-05
8.87361e-05
2.19533e-05
0.000102426
3.59368e-05
0.000102107
5.43006e-05
8.66345e-05
7.77251e-05
5.49018e-05
0.000107034
5.75569e-06
0.000143197
-6.20728e-05
0.000187323
-0.000150008
0.000240622
-0.000259623
-0.000392564
1.1439e-06
2.34384e-05
4.94579e-06
5.84981e-05
1.18531e-05
8.18287e-05
2.2342e-05
9.19371e-05
3.69517e-05
8.74971e-05
5.63179e-05
6.72684e-05
8.11995e-05
3.00202e-05
0.000112496
-2.55412e-05
0.000151251
-0.000100828
0.000198631
-0.000197388
0.000255878
-0.00031687
-0.000460917
1.10518e-06
2.23333e-05
4.90931e-06
5.46939e-05
1.19562e-05
7.47819e-05
2.28113e-05
8.1082e-05
3.80996e-05
7.22088e-05
5.85406e-05
4.68273e-05
8.49758e-05
3.58506e-06
0.000118384
-5.8949e-05
0.000159875
-0.00014232
0.000210667
-0.000248179
0.000272014
-0.000378217
0.000345111
-0.000534014
-0.000716799
1.07504e-06
2.12582e-05
4.90385e-06
5.08651e-05
1.21264e-05
6.75593e-05
2.33991e-05
6.98093e-05
3.94357e-05
5.61721e-05
6.10429e-05
2.52202e-05
8.91465e-05
-2.45185e-05
0.000124803
-9.46051e-05
0.000169185
-0.000186702
0.000223544
-0.000302538
0.000289122
-0.000443795
0.000367028
-0.00061192
-0.000807839
1.05684e-06
2.02014e-05
4.94054e-06
4.69814e-05
1.23861e-05
6.01138e-05
2.41419e-05
5.80535e-05
4.10123e-05
3.93017e-05
6.38928e-05
2.33968e-06
9.37942e-05
-5.44199e-05
0.000131846
-0.000132657
0.000179275
-0.000234131
0.000237344
-0.000360606
0.000307247
-0.000513698
0.000389964
-0.000694637
0.000486063
-0.000903938
-0.00114102
1.05327e-06
1.91481e-05
5.02891e-06
4.30058e-05
1.2755e-05
5.23876e-05
2.50718e-05
4.57367e-05
4.28751e-05
2.14984e-05
6.71498e-05
-2.1935e-05
9.89888e-05
-8.62589e-05
0.000139589
-0.000173257
0.000190212
-0.000284755
0.000252109
-0.000422503
0.000326389
-0.000587978
0.000413848
-0.000782096
0.000514756
-0.00100485
0.000628646
-0.00125491
-0.00152934
1.06677e-06
1.80813e-05
5.1774e-06
3.88952e-05
1.32503e-05
4.43147e-05
2.62166e-05
3.27704e-05
4.50631e-05
2.65194e-06
7.08621e-05
-4.7734e-05
0.000104784
-0.000120181
0.000148081
-0.000216554
0.000202032
-0.000338706
0.000267843
-0.000488314
0.000346494
-0.000666629
0.000438543
-0.000874145
0.000543906
-0.00111021
0.000661655
-0.00137266
-0.00165757
1.09931e-06
1.6982e-05
5.39289e-06
3.46016e-05
1.38859e-05
3.58218e-05
2.75983e-05
1.90579e-05
4.76061e-05
-1.73558e-05
7.50653e-05
-7.51932e-05
0.000111216
-0.000156331
0.000157349
-0.000262688
0.000214737
-0.000396094
0.000284505
-0.000558081
0.000367456
-0.00074958
0.000463857
-0.000970547
0.000573221
-0.00121957
0.000694123
-0.00149356
0.000824138
-0.00178759
-0.00209512
1.15235e-06
1.58297e-05
5.68052e-06
3.00734e-05
1.46721e-05
2.68302e-05
2.92331e-05
4.49697e-06
5.05247e-05
-3.86474e-05
7.97807e-05
-0.000104449
0.000118299
-0.000194849
0.000167393
-0.000311782
0.000228296
-0.000456997
0.000302013
-0.000631798
0.000389122
-0.000836689
0.000489551
-0.00107098
0.000602365
-0.00133239
0.000725634
-0.00161683
0.000856436
-0.00191839
0.00099105
-0.00222973
-0.00254258
1.22681e-06
1.46029e-05
6.04365e-06
2.52566e-05
1.56156e-05
1.72583e-05
3.11303e-05
-1.10178e-05
5.38293e-05
-6.13464e-05
8.50153e-05
-0.000135635
0.00012603
-0.000235864
0.000178184
-0.000363936
0.000242642
-0.000521455
0.000320245
-0.000709402
0.000411299
-0.000927743
0.000515345
-0.00117502
0.000630977
-0.00144802
0.000755765
-0.00174162
0.000886347
-0.00204897
0.00101871
-0.00236209
-0.00267251
1.32312e-06
1.32797e-05
6.48381e-06
2.00959e-05
1.67191e-05
7.02298e-06
3.32932e-05
-2.75918e-05
5.75206e-05
-8.55738e-05
9.0762e-05
-0.000168877
0.000134384
-0.000279486
0.000189672
-0.000419223
0.000257681
-0.000589464
0.000339047
-0.000790768
0.000433757
-0.00102245
0.000540931
-0.0012822
0.000658682
-0.00156577
0.000784109
-0.00186704
0.000913484
-0.00217835
0.00104262
-0.00249123
0.0011674
-0.00279728
-0.00309002
1.4412e-06
1.18385e-05
7.00089e-06
1.45362e-05
1.7982e-05
-3.95808e-06
3.57186e-05
-4.53285e-05
6.15898e-05
-0.000111445
9.70003e-05
-0.000204287
0.000143322
-0.000325808
0.000201781
-0.000477682
0.000273291
-0.000660974
0.000358235
-0.000875713
0.000456243
-0.00112046
0.000565989
-0.00139194
0.00068511
-0.00168489
0.000810284
-0.00199222
0.000937515
-0.00230558
0.00106257
-0.00261629
0.00118154
-0.00291625
0.00129113
-0.00319961
-0.00346042
1.58055e-06
1.0258e-05
7.59323e-06
8.52351e-06
1.94002e-05
-1.57651e-05
3.83982e-05
-6.43265e-05
6.60196e-05
-0.000139066
0.000103698
-0.000241965
0.000152785
-0.000374895
0.000214419
-0.000539316
0.000289328
-0.000735883
0.000377606
-0.000963991
0.000478489
-0.00122134
0.000590194
-0.00150365
0.000709907
-0.0018046
0.000833955
-0.00211627
0.000958176
-0.0024298
0.00107842
-0.00273654
0.00119109
-0.00302892
0.00129343
-0.00330195
0.00138409
-0.00355108
-0.00378063
1.74034e-06
8.51766e-06
8.25791e-06
2.00594e-06
2.09671e-05
-2.84743e-05
4.13185e-05
-8.46779e-05
7.07855e-05
-0.000168533
0.000110811
-0.000281991
0.000162703
-0.000426787
0.000227475
-0.000604089
0.000305633
-0.000814041
0.000396942
-0.0010553
0.000500219
-0.00132462
0.00061323
-0.00161666
0.00073275
-0.00192412
0.000854836
-0.00223835
0.000975275
-0.00255024
0.00109011
-0.00285138
0.00119616
-0.00313496
0.00129124
-0.00339703
0.00137459
-0.00363443
-0.00385239
0.00144634
1.91944e-06
6.59821e-06
8.99096e-06
-5.06558e-06
2.26737e-05
-4.21571e-05
4.44621e-05
-0.000106466
7.58565e-05
-0.000199928
0.000118289
-0.000324423
0.000172995
-0.000481493
0.000240828
-0.000671922
0.000322035
-0.000895248
0.000416017
-0.00114928
0.000521163
-0.00142976
0.0006348
-0.0017303
0.000753354
-0.00204268
0.000872705
-0.0023577
0.000988696
-0.00266623
0.00109767
-0.00296035
0.00119692
-0.00323421
0.00128484
-0.00348495
0.00136124
-0.00371083
-0.00391777
0.00142662
2.11657e-06
4.48164e-06
9.78765e-06
-1.27367e-05
2.45092e-05
-5.68786e-05
4.78085e-05
-0.000129766
8.11969e-05
-0.000233316
0.000126073
-0.000369299
0.00018357
-0.00053899
0.000254347
-0.0007427
0.000338354
-0.000979254
0.000434606
-0.00124553
0.000541058
-0.00153622
0.000654635
-0.00184387
0.000771481
-0.00215953
0.0008874
-0.00247362
0.000998395
-0.00277722
0.00110119
-0.00306314
0.00119358
-0.00332661
0.00127456
-0.00356593
0.00134441
-0.00378068
-0.00397733
0.00140397
2.33033e-06
2.15131e-06
1.06427e-05
-2.10491e-05
2.64614e-05
-7.26973e-05
5.13345e-05
-0.000154639
8.67671e-05
-0.000268749
0.0001341
-0.000416632
0.000194333
-0.000599223
0.000267896
-0.000816263
0.00035441
-0.00106577
0.000452488
-0.00134361
0.000559661
-0.00164339
0.000672498
-0.00195671
0.000786944
-0.00227397
0.000898823
-0.0025855
0.00100439
-0.0028828
0.00110082
-0.00315956
0.00118643
-0.00341222
0.00126076
-0.00364026
0.00132451
-0.00384443
-0.00403161
0.00137878
2.55928e-06
-4.07971e-07
1.15506e-05
-3.00403e-05
2.85173e-05
-8.9664e-05
5.50154e-05
-0.000181137
9.25246e-05
-0.000306258
0.000142302
-0.00046641
0.000205183
-0.000662103
0.000281335
-0.000892415
0.000370024
-0.00115446
0.000469452
-0.00144304
0.000576751
-0.00175069
0.000688192
-0.00206815
0.000799607
-0.00238539
0.000906937
-0.00269283
0.00100677
-0.00298263
0.00109676
-0.00324955
0.00117575
-0.00349122
0.00124378
-0.00370828
0.00130189
-0.00390254
-0.0040811
0.00135138
2.80196e-06
-3.20993e-06
1.25055e-05
-3.97438e-05
3.06634e-05
-0.000107822
5.88253e-05
-0.000209299
9.84251e-05
-0.000345858
0.000150611
-0.000518595
0.000216019
-0.000727512
0.000294526
-0.000970922
0.000385024
-0.00124496
0.000485304
-0.00154332
0.000592136
-0.00185752
0.000701561
-0.00217758
0.000809388
-0.00249321
0.000911761
-0.00279521
0.00100567
-0.00307654
0.00108924
-0.00333312
0.00116186
-0.00356384
0.00122397
-0.00377038
0.00127691
-0.00395548
-0.0041263
0.0013221
3.05699e-06
-6.26692e-06
1.35016e-05
-5.01884e-05
3.28857e-05
-0.000127206
6.27372e-05
-0.00023915
0.000104423
-0.000387544
0.000158953
-0.000573126
0.000226738
-0.000795296
0.000307333
-0.00105152
0.000399244
-0.00133687
0.000499867
-0.00164394
0.000605653
-0.00196331
0.000712491
-0.00228441
0.000816254
-0.00259698
0.000913364
-0.00289232
0.00100124
-0.00316442
0.00107853
-0.00341041
0.00114508
-0.00363038
0.00120168
-0.00382698
0.00124989
-0.00400369
-0.00416764
0.00129122
3.323e-06
-9.58993e-06
1.45331e-05
-6.13985e-05
3.51702e-05
-0.000147843
6.67239e-05
-0.000270704
0.000110472
-0.000431292
0.000167259
-0.000629912
0.000237239
-0.000865276
0.000319625
-0.0011339
0.000412531
-0.00142977
0.000512985
-0.0017444
0.000617174
-0.0020675
0.000720912
-0.00238815
0.000820217
-0.00269628
0.000911856
-0.00298395
0.00099371
-0.00324627
0.00106491
-0.00348161
0.00112571
-0.00369119
0.00117722
-0.0038785
0.00122114
-0.00404761
-0.0042055
0.001259
3.59869e-06
-1.31886e-05
1.55943e-05
-7.33941e-05
3.75025e-05
-0.000169751
7.07577e-05
-0.000303959
0.000116525
-0.000477059
0.000175456
-0.000688843
0.000247421
-0.000937242
0.000331276
-0.00121776
0.000424748
-0.00152324
0.000524526
-0.00184418
0.000626601
-0.00216957
0.000726792
-0.00248834
0.000821333
-0.00279082
0.000907381
-0.00307
0.000983287
-0.00332218
0.00104864
-0.00354696
0.00110406
-0.00374661
0.00115089
-0.00392533
0.00119091
-0.00408763
-0.00424025
0.00122566
3.88276e-06
-1.70714e-05
1.66793e-05
-8.61906e-05
3.98684e-05
-0.000192941
7.48107e-05
-0.000338901
0.000122535
-0.000524782
0.000183473
-0.000749782
0.000257189
-0.00101096
0.000342171
-0.00130274
0.00043577
-0.00161684
0.000534384
-0.00194279
0.000633874
-0.00226906
0.000730137
-0.0025846
0.000819691
-0.00288038
0.00090011
-0.00315042
0.000970212
-0.00339228
0.00103
-0.00360674
0.00108041
-0.00379702
0.00112296
-0.00396788
0.00115946
-0.00412413
-0.00427219
0.0011914
4.17397e-06
-2.12453e-05
1.77824e-05
-9.9799e-05
4.22533e-05
-0.000217411
7.88547e-05
-0.000375503
0.000128455
-0.000574382
0.000191241
-0.000812568
0.000266452
-0.00108617
0.000352202
-0.00138849
0.000445492
-0.00171013
0.000542479
-0.00203978
0.000638961
-0.00236554
0.000730988
-0.00267663
0.000815409
-0.0029648
0.000890234
-0.00322525
0.000954726
-0.00345677
0.00100926
-0.00366128
0.00105503
-0.00384279
0.00109367
-0.00400652
0.00112697
-0.00415743
-0.00430158
0.00115637
4.47102e-06
-2.57164e-05
1.88977e-05
-0.000114226
4.46426e-05
-0.000243156
8.28615e-05
-0.000413721
0.000134238
-0.000625759
0.000198693
-0.000877023
0.000275123
-0.0011626
0.000361274
-0.00147464
0.000453828
-0.00180269
0.000548755
-0.0021347
0.000641863
-0.00245865
0.000729414
-0.00276418
0.000808628
-0.00304401
0.000877953
-0.00329457
0.000937071
-0.00351589
0.000986682
-0.00371089
0.00102817
-0.00388428
0.00106324
-0.00404159
0.00109364
-0.00418783
-0.00432865
0.00112071
4.77261e-06
-3.0489e-05
2.00191e-05
-0.000129472
4.70215e-05
-0.000270159
8.68029e-05
-0.000453503
0.00013984
-0.000678797
0.000205765
-0.000942947
0.000283124
-0.00123996
0.000369305
-0.00156082
0.00046071
-0.00189409
0.000553183
-0.00222718
0.000642606
-0.00254807
0.00072551
-0.00284709
0.000799507
-0.00311801
0.000863476
-0.00335854
0.00091748
-0.0035699
0.000962494
-0.0037559
0.00100005
-0.00392183
0.00103186
-0.00407341
0.00105962
-0.00421558
-0.00435358
0.00108455
5.07737e-06
-3.55663e-05
2.11406e-05
-0.000145535
4.93749e-05
-0.000298393
9.06506e-05
-0.000494779
0.000145216
-0.000733362
0.000212395
-0.00101013
0.000290381
-0.00131794
0.000376225
-0.00164667
0.00046609
-0.00198396
0.000555755
-0.00231684
0.000641242
-0.00263356
0.000719388
-0.00292523
0.000788214
-0.00318684
0.00084701
-0.00341734
0.000896179
-0.00361906
0.000936919
-0.00379664
0.000970855
-0.00395577
0.000999697
-0.00410225
0.00102503
-0.00424091
-0.00437653
0.00104798
5.38386e-06
-4.09502e-05
2.22558e-05
-0.000162407
5.16876e-05
-0.000327825
9.43767e-05
-0.000537468
0.000150322
-0.000789307
0.000218526
-0.00107833
0.000296833
-0.00139625
0.000381979
-0.00173181
0.000469939
-0.00207192
0.000556489
-0.00240339
0.000637843
-0.00271491
0.000711179
-0.00299857
0.000774926
-0.00325058
0.00082876
-0.00347117
0.000873379
-0.00366368
0.000910157
-0.00383342
0.00094077
-0.00398638
0.000966886
-0.00412837
0.000989982
-0.00426401
-0.00439762
0.00101108
5.69057e-06
-4.66408e-05
2.33583e-05
-0.000180075
5.39444e-05
-0.000358411
9.79537e-05
-0.000581477
0.000155117
-0.00084647
0.000224107
-0.00114732
0.000302424
-0.00147457
0.000386524
-0.00181591
0.000472246
-0.00215764
0.00055542
-0.00248656
0.000632497
-0.00279199
0.000701022
-0.00306709
0.00075982
-0.00330938
0.000808922
-0.00352027
0.000849278
-0.00370404
0.000882387
-0.00386653
0.000909946
-0.00401394
0.000933554
-0.00415198
0.000954574
-0.00428503
-0.00441696
0.000973913
5.99591e-06
-5.26367e-05
2.44413e-05
-0.00019852
5.61299e-05
-0.0003901
0.000101355
-0.000626702
0.000159562
-0.000904677
0.000229091
-0.00121685
0.00030711
-0.00155259
0.000389834
-0.00189864
0.000473017
-0.00224082
0.000552598
-0.00256615
0.000625308
-0.0028647
0.000689062
-0.00313085
0.000743072
-0.00336339
0.000787684
-0.00356488
0.000824055
-0.00374041
0.000853773
-0.00389625
0.000878517
-0.00403869
0.000899805
-0.00417327
0.000918881
-0.0043041
-0.00443462
0.000936544
6.29823e-06
2.54982e-05
5.82291e-05
0.000104554
-0.000673027
0.000163622
-0.000963745
0.000233436
-0.00128667
0.000310856
-0.00163001
0.000391895
-0.00197967
0.000472275
-0.0023212
0.000548093
-0.00264196
0.000616387
-0.00293299
0.00067545
-0.00318991
0.000724854
-0.00341279
0.000765223
-0.00360525
0.000797877
-0.00377307
0.000824456
-0.00392282
0.000846599
-0.00406083
0.000865727
-0.00419239
0.000882967
-0.00432134
-0.00445067
0.000899017
0.000107527
0.000167264
0.000237109
-0.00135651
0.000313638
-0.00170654
0.000392706
-0.00205874
0.000470055
-0.00239855
0.000541983
-0.00271389
0.000605855
-0.00299687
0.000660336
-0.00324439
0.00070533
-0.00345779
0.0007417
-0.00364162
0.000770893
-0.00380226
0.000794563
-0.00394649
0.000814291
-0.00408056
0.000831396
-0.0042095
0.000846887
-0.00433683
-0.00446516
0.000861369
0.000240082
0.000315442
0.000392278
0.000466405
-0.00247268
0.000534356
-0.00278184
0.000593835
-0.00305635
0.000643866
-0.00329442
0.000684655
-0.00349858
0.000717267
-0.00367424
0.000743234
-0.00382822
0.000764203
-0.00396746
0.000781678
-0.00409803
0.000796873
-0.00422469
0.000810686
-0.00435065
-0.00447811
0.000823634
0.000461384
0.000525306
0.000580451
0.000626183
0.000662977
-0.00353537
0.000692061
-0.00370332
0.000715021
-0.00385119
0.000733473
-0.00398591
0.000748834
-0.00411339
0.000762213
-0.00423807
0.000774402
-0.00436283
-0.00448954
0.000785841
0.000640431
0.000666205
0.000686358
0.000702454
-0.00400201
0.000715821
-0.00412676
0.00072746
-0.00424971
0.000738068
-0.00437344
-0.00449949
0.000748012
0.00067122
0.000682692
0.000692653
0.00070171
-0.00450795
0.00071017
0.000672333
0.00438682
0.000770078
0.000750747
0.0038375
0.000768027
0.00397347
0.000783211
0.0041061
0.000797091
0.00423879
0.0043738
0.000810108
0.000652232
0.00309444
0.000695754
0.00331128
0.000730987
0.00349942
0.000759422
0.00366484
0.000782704
0.00381422
0.000802356
0.00395382
0.00081961
0.00408884
0.000835368
0.00422303
0.00435902
0.000850155
0.000470287
0.00217103
0.000544602
0.00248791
0.000611258
0.00277828
0.00066872
0.00303698
0.000716723
0.00326328
0.00075601
0.00346013
0.00078797
0.00363288
0.000814247
0.00378794
0.000836436
0.00393163
0.000855879
0.0040694
0.000873591
0.00420532
0.00434242
0.000890191
0.000229941
0.00110149
0.000307674
0.00142138
0.000389754
0.0017551
0.000471927
0.00208886
0.0005502
0.00240963
0.000621433
0.00270704
0.00068371
0.0029747
0.000736408
0.00321058
0.00078001
0.00341653
0.000815758
0.00359713
0.000845265
0.00375844
0.000870181
0.00390671
0.000891952
0.00404763
0.000911712
0.00418556
0.00432394
0.000930184
9.86574e-05
0.000506067
0.000156079
0.000750482
0.000225194
0.00103238
0.000303393
0.00134319
0.000387052
0.00167144
0.000471982
0.00200393
0.000554058
0.00232756
0.000629842
0.00263126
0.000697035
0.00290751
0.000754633
0.00315298
0.000802813
0.00336835
0.00084263
0.00355732
0.000875628
0.00372544
0.000903489
0.00387885
0.000927754
0.00402336
0.000949678
0.00416363
0.00430353
0.000970094
5.41624e-06
3.02373e-05
2.24222e-05
0.00013065
5.20933e-05
0.00027472
9.50943e-05
0.000463066
0.000151356
0.00069422
0.000219789
0.000963943
0.000298129
0.00126485
0.000383028
0.00158654
0.000470416
0.00191654
0.00055609
0.00224189
0.000636353
0.002551
0.000708528
0.00283533
0.000771209
0.0030903
0.000824231
0.00331532
0.000868412
0.00351314
0.000905188
0.00368866
0.000936243
0.0038478
0.000963196
0.00399641
0.000987424
0.00413941
0.00428108
0.00100987
5.10401e-06
2.51333e-05
2.12911e-05
0.000114463
4.97588e-05
0.000246252
9.13567e-05
0.000421468
0.000146279
0.000639298
0.000213769
0.000896453
0.000291922
0.00118669
0.0003777
0.00150076
0.000467208
0.00182703
0.000556225
0.00215287
0.00064084
0.00246638
0.000718019
0.00275815
0.000785942
0.00302238
0.00084406
0.00325721
0.000892911
0.00346429
0.000933775
0.0036478
0.000968303
0.00381327
0.000998172
0.00396654
0.00102487
0.00411271
0.00425648
0.00104947
4.79319e-06
2.03401e-05
2.01502e-05
9.91058e-05
4.73726e-05
0.00021903
8.74731e-05
0.000381367
0.000140889
0.000585882
0.000207185
0.000830158
0.000284821
0.00110906
0.000371098
0.00141448
0.000462352
0.00173578
0.000554407
0.00206081
0.000643193
0.00237759
0.000725347
0.002676
0.00079863
0.00294909
0.000862084
0.00319375
0.000915915
0.00341045
0.000961199
0.00360251
0.000999509
0.00377496
0.00103255
0.00393349
0.00106193
0.00408333
0.00422959
0.00108881
4.48546e-06
1.58546e-05
1.90064e-05
8.45848e-05
4.49504e-05
0.000193086
8.34723e-05
0.000342845
0.000135231
0.000534123
0.000200093
0.000765295
0.000276885
0.00103226
0.000363271
0.0013281
0.000455863
0.00164319
0.0005506
0.00196608
0.000643315
0.00228488
0.000730354
0.00258896
0.000809071
0.00287038
0.000878074
0.00312475
0.000937192
0.00335134
0.000987244
0.00355246
0.00102968
0.00373253
0.0010662
0.00389698
0.00109848
0.00405105
0.00420024
0.00112782
4.18234e-06
1.16723e-05
1.78662e-05
7.09009e-05
4.25078e-05
0.000168444
7.93827e-05
0.00030597
0.000129347
0.00048416
0.000192552
0.000702089
0.000268181
0.000956635
0.000354277
0.001242
0.000447776
0.00154969
0.000544791
0.00186906
0.000641127
0.00218854
0.000732896
0.00249719
0.000817066
0.00278621
0.000891794
0.00305002
0.000956495
0.00328663
0.00101167
0.00349728
0.0010586
0.0036856
0.00109892
0.00385665
0.00113439
0.00401559
0.00416823
0.0011664
3.88519e-06
7.78709e-06
1.67355e-05
5.80506e-05
4.00592e-05
0.000145121
7.5232e-05
0.000270798
0.000123282
0.000436109
0.000184625
0.000640747
0.000258784
0.000882475
0.000344193
0.00115659
0.000438143
0.00145574
0.000536987
0.00177022
0.000636575
0.00208896
0.000732849
0.00240092
0.000822423
0.00269663
0.000903003
0.00296944
0.000973558
0.00321608
0.00103422
0.00343662
0.00108603
0.0036338
0.00113053
0.00381215
0.0011695
0.00397662
0.0041333
0.00120442
3.59518e-06
4.19191e-06
1.56196e-05
4.60262e-05
3.76182e-05
0.000123122
7.10464e-05
0.000237369
0.000117081
0.000390074
0.000176374
0.000581455
0.000248775
0.000810073
0.000333103
0.00107227
0.000427037
0.00136181
0.000527223
0.00167003
0.000629632
0.00198655
0.000730108
0.00230044
0.000824961
0.00260178
0.000911463
0.00288294
0.000988106
0.00313944
0.00105461
0.00337012
0.0011117
0.0035767
0.00116079
0.00376306
0.00120362
0.0039338
0.00409517
0.00124175
3.31327e-06
8.78642e-07
1.4523e-05
3.48165e-05
3.51967e-05
0.000102448
6.68505e-05
0.000205716
0.000110786
0.000346139
0.000167863
0.000524377
0.000238237
0.000739699
0.000321106
0.000989397
0.000414549
0.00126836
0.000515558
0.00156902
0.0006203
0.0018818
0.000724598
0.00219614
0.000824523
0.00250185
0.000916939
0.00279052
0.000999855
0.00305652
0.00107253
0.00329745
0.00113533
0.00351391
0.00118943
0.00370895
0.00123652
0.00388671
0.0040535
0.0012782
3.04018e-06
-2.16154e-06
1.34497e-05
2.44069e-05
3.28054e-05
8.30928e-05
6.26665e-05
0.000175855
0.000104436
0.00030437
0.000159156
0.000469657
0.000227258
0.000671597
0.000308304
0.000908351
0.000400786
0.00117588
0.000502079
0.00146773
0.000608612
0.00177527
0.000716275
0.00208848
0.000820976
0.00239715
0.000919215
0.00269228
0.00100852
0.00296721
0.00108766
0.00321831
0.00115657
0.00344499
0.00121616
0.00364936
0.00126796
0.00383491
0.00400789
0.00131357
2.77637e-06
-4.93791e-06
1.24025e-05
1.47807e-05
3.04529e-05
6.50424e-05
5.85141e-05
0.000147793
9.80676e-05
0.000264816
0.000150311
0.000417414
0.000215923
0.000605984
0.00029481
0.000829465
0.000385871
0.00108482
0.000486894
0.00136671
0.000594635
0.00166753
0.000705133
0.00197798
0.000814219
0.00228807
0.000918094
0.00258841
0.00101383
0.00287148
0.00109967
0.00313247
0.0011751
0.00336956
0.00124064
0.00358383
0.00129763
0.00377791
0.00395789
0.00134762
2.52203e-06
-7.45994e-06
1.13835e-05
5.91933e-06
2.81463e-05
4.82795e-05
5.441e-05
0.00012153
9.17142e-05
0.000227512
0.000141384
0.000367745
0.000204317
0.000543051
0.000280734
0.000753048
0.000369935
0.000995618
0.000470135
0.00126651
0.000578467
0.0015592
0.000691205
0.00186524
0.000804193
0.00217508
0.000913411
0.00247919
0.00101552
0.00276937
0.00110824
0.00303975
0.00119053
0.00328727
0.0012625
0.00351186
0.0013252
0.00371521
0.00390302
0.00138007
2.2771e-06
-9.73704e-06
1.03936e-05
-2.19716e-06
2.58906e-05
3.27825e-05
5.03676e-05
9.70527e-05
8.5404e-05
0.000192476
0.000132427
0.000320722
0.00019252
0.000482957
0.000266192
0.000679376
0.000353118
0.000908692
0.000451951
0.00116767
0.00056024
0.00145091
0.000674564
0.00175092
0.000790881
0.00205876
0.000905041
0.00236503
0.00101335
0.00266106
0.00111303
0.00294007
0.0012025
0.0031978
0.00128134
0.00343301
0.00135029
0.00364626
0.00384272
0.0014106
2.04123e-06
-1.17783e-05
9.43316e-06
-9.58909e-06
2.3689e-05
1.85267e-05
4.63975e-05
7.43442e-05
7.91611e-05
0.000159712
0.000123484
0.000276399
0.000180608
0.000425833
0.000251291
0.000608693
0.000335565
0.000824418
0.000432506
0.00107073
0.000540111
0.0013433
0.000655327
0.0016357
0.000774318
0.00193977
0.000892905
0.00224644
0.00100712
0.00254685
0.00111374
0.00283346
0.0012106
0.00310094
0.00129676
0.00334686
0.00137249
0.00357052
0.0037764
0.00143881
1.8139e-06
-1.35922e-05
8.50162e-06
-1.62768e-05
2.1543e-05
5.48529e-06
4.25073e-05
5.33799e-05
7.30051e-05
0.000129214
0.000114597
0.000234807
0.000168649
0.000371781
0.00023614
0.000541203
0.000317419
0.000743139
0.000411977
0.000976175
0.000518263
0.00123702
0.000633649
0.00152032
0.000754588
0.00181883
0.00087698
0.00212405
0.000996689
0.00242714
0.00111008
0.00272007
0.00121447
0.00299655
0.0013083
0.00325303
0.00139135
0.00348747
0.00370342