/*--------------------------------*- C++ -*----------------------------------*\
  =========                 |
  \\      /  F ield         | OpenFOAM: The Open Source CFD Toolbox
   \\    /   O peration     | Website:  https://openfoam.org
    \\  /    A nd           | Version:  7
     \\/     M anipulation  |
\*---------------------------------------------------------------------------*/
FoamFile
{
    version     2.0;
    format      ascii;
    class       volVectorField;
    location    "140";
    object      U;
}
// * * * * * * * * * * * * * * * * * * * * * * * * * * * * * * * * * * * * * //

dimensions      [0 1 -1 0 0 0 0];

internalField   nonuniform List<vector> 
4575
(
(-0.000642401 0.0147741 -6.31561e-22)
(-0.00358392 0.032491 -3.17117e-21)
(-0.0092676 0.0409561 3.72854e-22)
(-0.00096257 0.0157639 -3.12423e-21)
(-0.00432162 0.0350093 2.42382e-21)
(-0.0102791 0.0446506 -2.79894e-21)
(-0.00131747 0.0167492 -2.43905e-20)
(-0.00513351 0.03753 2.93945e-21)
(-0.0113715 0.0483652 4.39148e-21)
(-0.00170627 0.0177203 4.00799e-20)
(-0.00601753 0.0400309 -1.68853e-20)
(-0.0125408 0.0520698 -1.13872e-20)
(-0.00212753 0.0186675 -5.33931e-21)
(-0.00697029 0.0424891 6.7023e-20)
(-0.0137819 0.0557333 3.07939e-20)
(-0.0025791 0.0195808 -2.67909e-20)
(-0.00798708 0.0448812 1.62688e-20)
(-0.0150884 0.0593239 -2.5038e-20)
(-0.00305819 0.0204503 3.26724e-20)
(-0.00906186 0.0471837 -3.83597e-20)
(-0.0164522 0.0628094 -5.771e-20)
(-0.00356138 0.0212663 5.63263e-21)
(-0.0101873 0.0493735 -1.91333e-20)
(-0.0178643 0.066158 5.22913e-20)
(-0.00408466 0.0220195 -1.55317e-20)
(-0.011355 0.0514279 1.05245e-19)
(-0.019314 0.0693385 -2.27221e-20)
(-0.0274939 0.0779801 -2.64797e-20)
(-0.00462348 0.0227013 -4.90297e-20)
(-0.0125553 0.0533258 6.25964e-20)
(-0.02079 0.0723204 3.427e-20)
(-0.0289836 0.0818985 1.5221e-20)
(-0.00517283 0.0233036 8.99036e-20)
(-0.0137777 0.0550469 -4.74592e-20)
(-0.0222796 0.0750754 1.64705e-20)
(-0.030464 0.0855697 5.88389e-20)
(-0.00572728 0.0238195 7.64513e-20)
(-0.0150107 0.0565731 -8.89708e-20)
(-0.0237694 0.0775765 -9.06446e-20)
(-0.0319217 0.0889613 -4.22511e-20)
(-0.00628111 0.0242429 -9.48528e-20)
(-0.0162421 0.0578882 -8.62726e-20)
(-0.0252453 0.0797994 3.48407e-20)
(-0.0333429 0.0920425 8.52966e-20)
(-0.00682842 0.0245689 4.04219e-20)
(-0.0174595 0.0589784 5.71374e-20)
(-0.0266926 0.0817224 6.90316e-20)
(-0.0347134 0.0947853 -1.13197e-19)
(-0.00736325 0.0247938 -2.3087e-20)
(-0.0186501 0.0598324 2.71554e-20)
(-0.0280964 0.083327 -5.77108e-20)
(-0.0360189 0.0971649 -8.46609e-20)
(-0.00787969 0.0249154 8.7281e-20)
(-0.0198012 0.0604417 -8.30796e-20)
(-0.0294421 0.0845979 6.52539e-20)
(-0.0372452 0.0991596 1.02695e-19)
(-0.00837202 0.0249325 -3.73324e-20)
(-0.0209004 0.0608007 -2.49596e-20)
(-0.0307153 0.0855233 6.77635e-20)
(-0.0383786 0.100751 -9.25741e-20)
(-0.0444034 0.108123 -5.13783e-20)
(-0.00883487 0.0248458 -8.83618e-20)
(-0.0219357 0.0609069 1.19848e-19)
(-0.0319022 0.0860952 1.41421e-21)
(-0.039406 0.101926 -1.29884e-21)
(-0.0450022 0.109944 1.16054e-19)
(-0.0092633 0.0246568 2.89972e-20)
(-0.0228962 0.0607609 -8.55334e-20)
(-0.0329899 0.0863096 8.06596e-20)
(-0.0403151 0.102672 -1.17908e-19)
(-0.0454618 0.111295 1.43355e-19)
(-0.00965273 0.0243687 1.14612e-20)
(-0.0237719 0.0603665 -4.49383e-20)
(-0.0339668 0.0861663 1.42588e-19)
(-0.0410949 0.102985 -1.7983e-19)
(-0.0457734 0.112165 -1.44045e-19)
(-0.00999947 0.0239862 -7.90049e-20)
(-0.0245537 0.0597303 -1.35552e-19)
(-0.0348223 0.0856693 -7.54049e-20)
(-0.0417353 0.102863 9.73691e-20)
(-0.0459287 0.112545 -5.56535e-21)
(-0.0479018 0.115981 1.99207e-20)
(-0.0103005 0.023515 7.35061e-20)
(-0.0252345 0.058862 1.77593e-19)
(-0.0355477 0.0848264 -1.31607e-19)
(-0.0422276 0.102309 -6.2334e-20)
(-0.045921 0.112431 5.05276e-20)
(-0.0471429 0.11637 -1.19081e-19)
(-0.0105537 0.0229619 -8.08714e-20)
(-0.0258085 0.0577742 -8.38774e-21)
(-0.0361357 0.0836494 1.86891e-19)
(-0.0425648 0.101329 1.80959e-19)
(-0.0457441 0.111823 -3.62899e-20)
(-0.0461984 0.116218 -2.2238e-20)
(-0.0107576 0.0223349 5.20728e-20)
(-0.0262716 0.0564818 1.01647e-19)
(-0.0365811 0.0821536 -6.83439e-20)
(-0.0427412 0.0999355 -8.26771e-20)
(-0.0453933 0.110728 -8.42869e-20)
(-0.0450648 0.115523 -2.20994e-20)
(-0.010912 0.0216424 -7.13327e-20)
(-0.0266216 0.0550021 -2.20312e-19)
(-0.0368804 0.0803577 6.84132e-20)
(-0.0427526 0.098144 3.79567e-21)
(-0.0448641 0.109154 2.7535e-19)
(-0.0437385 0.114289 -1.60655e-19)
(-0.0397835 0.114478 -1.34659e-19)
(-0.0110174 0.0208941 -6.87302e-20)
(-0.026858 0.0533541 2.61433e-19)
(-0.0370318 0.0782834 -1.93925e-19)
(-0.042596 0.0959742 -3.85812e-20)
(-0.0441529 0.107116 -6.35952e-20)
(-0.0422155 0.112523 -1.61861e-19)
(-0.0371904 0.11305 1.57223e-19)
(-0.0110751 0.0200997 9.78763e-20)
(-0.026982 0.0515586 -1.14609e-19)
(-0.0370352 0.0759553 -1.40438e-19)
(-0.0422694 0.0934496 -1.29169e-19)
(-0.0432558 0.104635 4.18405e-20)
(-0.0404906 0.110239 2.25873e-20)
(-0.0343739 0.111046 5.62476e-20)
(-0.0110876 0.0192692 -2.06653e-19)
(-0.0269967 0.0496372 1.55355e-19)
(-0.036892 0.0733997 1.69155e-19)
(-0.0417717 0.0905967 -9.61418e-20)
(-0.0421689 0.101732 1.60087e-19)
(-0.038557 0.107453 1.5072e-19)
(-0.0313244 0.108477 -2.64953e-20)
(-0.0207426 0.105525 -1.46649e-19)
(-0.011058 0.018413 -1.63737e-19)
(-0.0269061 0.0476122 -1.42915e-19)
(-0.0366047 0.0706449 1.09911e-19)
(-0.041102 0.0874451 6.22096e-20)
(-0.040887 0.0984362 2.49426e-20)
(-0.036405 0.104191 -4.43558e-20)
(-0.028028 0.105361 -3.05627e-20)
(-0.0160178 0.102617 6.84818e-20)
(-0.0109898 0.0175408 7.91054e-20)
(-0.0267157 0.0455062 1.48115e-19)
(-0.0361765 0.0677201 -2.59712e-19)
(-0.0402591 0.0840265 -1.93724e-19)
(-0.0394035 0.0947783 9.59523e-20)
(-0.0340219 0.100481 8.8013e-20)
(-0.024465 0.101724 -1.78495e-19)
(-0.0109814 0.0991288 -1.5743e-20)
(-0.0108875 0.0166624 3.82087e-19)
(-0.0264317 0.0433412 -2.51011e-19)
(-0.035611 0.0646549 5.90954e-20)
(-0.0392412 0.0803746 1.88092e-19)
(-0.0377093 0.0907928 -1.97702e-19)
(-0.0313905 0.0963548 9.46784e-21)
(-0.0206097 0.0975955 1.43569e-19)
(-0.00559754 0.0950886 2.58886e-19)
(0.0135212 0.0893883 2.57396e-19)
(-0.0107555 0.0157865 -3.62422e-19)
(-0.0260607 0.0411384 2.50005e-19)
(-0.0349114 0.0614789 5.89992e-20)
(-0.038045 0.0765238 -1.86661e-19)
(-0.0357926 0.0865168 7.69298e-20)
(-0.0284886 0.0918514 -3.62177e-20)
(-0.0164284 0.093013 -2.65661e-20)
(0.000179372 0.0905318 -2.18259e-19)
(0.0212268 0.0849276 -3.38391e-19)
(-0.0105985 0.0149213 2.90684e-19)
(-0.0256093 0.0389178 -7.06782e-20)
(-0.0340801 0.0582209 2.3357e-19)
(-0.0366651 0.0725093 5.51369e-20)
(-0.0336376 0.0819893 -1.18536e-19)
(-0.0252884 0.0870118 1.87528e-20)
(-0.0118796 0.088019 -2.41389e-19)
(0.00640613 0.0855019 1.0766e-19)
(0.0294816 0.0799484 5.7277e-20)
(0.0573633 0.071806 8.78375e-21)
(-0.0104212 0.0140739 -7.42907e-20)
(-0.0250834 0.0366973 -7.60788e-20)
(-0.0331183 0.0549081 -1.46456e-19)
(-0.0350936 0.0683656 1.04513e-19)
(-0.0312244 0.0772509 1.84888e-19)
(-0.0217556 0.081881 -2.33557e-19)
(-0.00691286 0.0826617 3.64708e-19)
(0.0131509 0.0800497 -6.9796e-20)
(0.0383729 0.0745045 9.88256e-21)
(0.0687895 0.0664531 -2.32935e-19)
(-0.0102278 0.01325 2.29421e-20)
(-0.0244881 0.0344929 7.37102e-20)
(-0.032025 0.051566 8.63473e-20)
(-0.0333192 0.0641268 -7.02599e-20)
(-0.028528 0.0723426 1.71501e-19)
(-0.0178492 0.076506 2.2432e-19)
(-0.00146883 0.0769936 3.39268e-21)
(0.020493 0.074233 -2.77295e-19)
(0.0480015 0.0686586 -2.17381e-19)
(0.0811147 0.0606802 2.23536e-19)
(-0.010022 0.0124542 -1.37898e-19)
(-0.0238269 0.0323181 1.25498e-19)
(-0.0307967 0.0482177 -9.01259e-20)
(-0.0313269 0.0598251 -4.35499e-20)
(-0.0255184 0.0673053 -1.15773e-19)
(-0.0135211 0.0709358 -8.55644e-20)
(0.00452055 0.0710711 -1.4981e-19)
(0.0285225 0.0681152 2.42146e-19)
(0.05848 0.0624819 9.46592e-20)
(0.0944741 0.0545663 -2.27014e-19)
(0.13666 0.0447277 -2.71795e-19)
(-0.00980677 0.0116896 -1.4208e-20)
(-0.0231014 0.0301836 -3.09818e-19)
(-0.0294267 0.0448833 7.34466e-20)
(-0.0290975 0.0554906 1.59136e-19)
(-0.0221602 0.0621793 -2.84914e-20)
(-0.00871676 0.0652204 -1.83195e-19)
(0.0111315 0.0649535 1.9734e-19)
(0.0373384 0.061765 2.21209e-19)
(0.0699309 0.0560523 8.28165e-20)
(0.109012 0.0481994 4.03819e-19)
(0.154743 0.0385614 -1.84756e-19)
(-0.00958389 0.0109579 -7.98988e-20)
(-0.0223107 0.0280971 -2.74179e-20)
(-0.0279051 0.0415798 -2.43438e-19)
(-0.0266073 0.051151 1.45088e-19)
(-0.0184124 0.057003 -1.44314e-19)
(-0.0033752 0.0594092 -1.43011e-19)
(0.0184471 0.0587016 -1.25808e-20)
(0.0470472 0.0552543 -2.22905e-19)
(0.0824833 0.0494531 -3.46343e-19)
(0.124877 0.0416742 9.27835e-20)
(0.174388 0.032271 1.02268e-19)
(0.231165 0.0215687 -4.28205e-20)
(-0.00935407 0.0102594 2.49709e-19)
(-0.0214512 0.0260637 -3.7547e-20)
(-0.0262181 0.0383211 2.14687e-19)
(-0.0238282 0.0468307 -2.14394e-19)
(-0.0142292 0.0518128 3.0845e-19)
(0.00257001 0.0535512 2.51859e-19)
(0.0265559 0.0523768 -2.0203e-19)
(0.0577599 0.0486572 -3.67935e-19)
(0.0962685 0.0427712 5.9708e-19)
(0.142215 0.0350907 1.44622e-19)
(0.195747 0.0259691 -1.10806e-19)
(0.256958 0.0157364 -1.07633e-19)
(-0.00911662 0.00959282 -3.98619e-19)
(-0.0205166 0.0240852 2.49948e-19)
(-0.024348 0.0351173 -3.6201e-19)
(-0.0207277 0.0425509 -1.91886e-19)
(-0.00956007 0.0466425 6.96967e-20)
(0.00918961 0.0476934 -2.71869e-19)
(0.0355501 0.0460397 4.16138e-19)
(0.0695889 0.0420484 7.2664e-21)
(0.111416 0.0360954 -2.22147e-19)
(0.161167 0.0285511 -1.89939e-19)
(0.218956 0.0197705 -3.32756e-19)
(0.284799 0.0100877 -3.73471e-21)
(0.35851 -0.000184369 -4.60504e-20)
(-0.00886943 0.00895587 1.41579e-19)
(-0.0194971 0.0221612 -2.49332e-19)
(-0.0222735 0.0319755 3.12261e-19)
(-0.0172692 0.0383294 4.27467e-19)
(-0.00435062 0.0415226 -1.35497e-19)
(0.0165573 0.0418802 1.74227e-20)
(0.0455229 0.0397496 -3.50295e-19)
(0.082645 0.0355018 -8.4736e-20)
(0.128049 0.0295139 -2.59819e-19)
(0.181856 0.0221577 3.31916e-19)
(0.244128 0.0137899 3.0212e-19)
(0.314767 0.00474667 -5.25049e-20)
(0.393407 -0.0046595 -3.91486e-20)
(-0.00860885 0.00834503 3.73744e-20)
(-0.0183801 0.0202884 5.07193e-20)
(-0.019969 0.0288995 -1.63277e-19)
(-0.0134123 0.0341805 -4.40007e-19)
(0.00145637 0.0364802 6.96553e-20)
(0.0247483 0.0361531 2.0546e-19)
(0.0565662 0.0335628 9.16408e-20)
(0.0970334 0.029089 3.84291e-19)
(0.146278 0.0231134 -2.35899e-19)
(0.204389 0.0160106 -3.0071e-19)
(0.271343 0.00813872 -5.39621e-20)
(0.346896 -0.000167524 1.32614e-19)
(0.430455 -0.00860361 2.85239e-20)
(0.520944 -0.0169028 1.16027e-20)
(-0.00832974 0.00775587 -1.83818e-19)
(-0.0171497 0.0184618 1.18646e-20)
(-0.0174061 0.0258902 -3.18906e-20)
(-0.00911374 0.0301152 3.81229e-19)
(0.00791998 0.031539 1.17525e-19)
(0.0338371 0.0305501 -3.75228e-20)
(0.0687682 0.0275326 1.40608e-19)
(0.11285 0.0228784 1.21699e-19)
(0.166198 0.0169767 2.88056e-19)
(0.228844 0.0102055 3.51351e-20)
(0.300647 0.00292273 -3.33703e-19)
(0.381172 -0.00454386 1.88013e-20)
(0.469553 -0.0119066 -2.62091e-19)
(0.56437 -0.0189306 -2.22898e-20)
(0.663593 -0.0254236 -1.23097e-19)
(-0.00802553 0.00718337 3.00585e-19)
(-0.0157874 0.0166747 2.07273e-19)
(-0.0145529 0.0229462 1.60585e-19)
(-0.00432788 0.0261417 -2.17384e-19)
(0.0150999 0.0267196 1.44352e-19)
(0.0438964 0.0251057 -1.3474e-19)
(0.0822107 0.0217082 -2.08611e-19)
(0.13018 0.0169342 -2.86666e-19)
(0.187884 0.0111818 -1.23476e-19)
(0.25527 0.00483218 2.38907e-19)
(0.332041 -0.00176058 2.07988e-19)
(0.417526 -0.00828227 2.99648e-19)
(0.510541 -0.0144727 2.63576e-19)
(0.609285 -0.0201428 -7.88919e-20)
(0.711325 -0.0251668 -1.0706e-19)
(-0.0076884 0.00662212 -1.83429e-19)
(-0.014272 0.0149193 -4.73088e-19)
(-0.0113752 0.0200645 -1.89805e-19)
(0.000992426 0.0222657 1.99533e-19)
(0.0230554 0.0220393 5.65977e-20)
(0.054995 0.0198509 9.1919e-20)
(0.0969672 0.0161351 2.3901e-19)
(0.149091 0.011316 -2.3566e-19)
(0.211388 0.00580107 3.20634e-19)
(0.283684 -2.72457e-05 -3.27917e-20)
(0.365485 -0.00582349 -4.60013e-19)
(0.455837 -0.0112956 -8.58029e-20)
(0.553199 -0.016223 -2.9148e-19)
(0.655364 -0.0204759 -1.9813e-19)
(0.7595 -0.0240094 2.11885e-19)
(0.862243 -0.026965 1.71447e-19)
(-0.00730935 0.00606659 2.43519e-19)
(-0.0125802 0.0131873 3.68691e-19)
(-0.00783684 0.0172405 -1.96269e-20)
(0.00689497 0.0184909 -1.64925e-19)
(0.031844 0.0175132 -1.80091e-19)
(0.0671964 0.0148138 3.81403e-20)
(0.1131 0.0108549 -2.82662e-19)
(0.169637 0.00607851 2.65567e-19)
(0.236736 0.000900483 -1.02766e-19)
(0.314067 -0.00429874 -2.2131e-19)
(0.400893 -0.00918917 2.75053e-19)
(0.495935 -0.0135111 -6.70631e-20)
(0.597259 -0.0170962 -1.19715e-19)
(0.702242 -0.0198882 2.20533e-19)
(0.80768 -0.0219333 -3.31806e-19)
(0.909963 -0.0234692 2.03673e-21)
(1.00569 -0.0244675 1.30893e-20)
(-0.00687848 0.00551143 -2.71174e-19)
(-0.0106871 0.0114705 -1.02983e-19)
(-0.00390046 0.0144697 1.8224e-19)
(0.0134273 0.0148203 1.48998e-19)
(0.0415203 0.0131545 1.6693e-19)
(0.0805574 0.0100196 -9.50435e-20)
(0.130661 0.00590558 -8.13946e-20)
(0.191848 0.00127168 -3.46314e-20)
(0.263926 -0.00346019 -3.64618e-19)
(0.346364 -0.00791688 6.71495e-19)
(0.438138 -0.0117923 7.15769e-21)
(0.537604 -0.0148709 8.34981e-20)
(0.64241 -0.0170501 8.10626e-20)
(0.749528 -0.0183592 1.63173e-19)
(0.855422 -0.0189441 2.79738e-19)
(0.956325 -0.0191354 1.58067e-19)
(1.04885 -0.0190235 1.67081e-19)
(-0.00638519 0.0049517 6.8212e-20)
(-0.00856645 0.00976127 -5.49926e-20)
(0.000471931 0.0117474 1.36202e-19)
(0.0206361 0.0112564 -2.03382e-19)
(0.0521352 0.00897548 -2.48605e-20)
(0.0951269 0.00549202 9.08351e-20)
(0.149687 0.0013225 1.08173e-19)
(0.215739 -0.00305857 -9.26966e-20)
(0.292931 -0.00722729 2.65172e-19)
(0.380486 -0.0108248 -2.73482e-19)
(0.477054 -0.0135794 1.26223e-19)
(0.580588 -0.0153323 -2.3883e-19)
(0.688312 -0.0160605 2.41121e-19)
(0.796812 -0.0158894 2.01865e-19)
(0.902296 -0.0150685 -3.68174e-19)
(1.00094 -0.0140149 -3.33674e-19)
(1.08948 -0.0129188 -1.19771e-19)
(1.16504 -0.0130759 -1.01685e-19)
(-0.00581839 0.00438311 4.28206e-19)
(-0.00619143 0.00805322 -2.36964e-19)
(0.00531829 0.00907019 -3.31428e-19)
(0.028566 0.00780228 -1.36464e-19)
(0.0637351 0.00498845 -2.08894e-19)
(0.110945 0.00125376 -2.4484e-20)
(0.170201 -0.00286113 3.60038e-19)
(0.241301 -0.00687 1.80989e-19)
(0.323693 -0.0103528 2.81598e-19)
(0.416313 -0.0129741 7.73234e-20)
(0.517438 -0.0145083 2.1308e-19)
(0.624601 -0.0148674 -2.43489e-19)
(0.734602 -0.0141205 1.01019e-19)
(0.843691 -0.0124976 -1.64205e-19)
(0.947899 -0.0103512 1.82432e-19)
(1.04345 -0.00817443 3.95474e-19)
(1.12735 -0.0062345 -3.26367e-20)
(1.19723 -0.00570971 2.45234e-19)
(1.25337 -0.00421228 -8.52479e-20)
(-0.00516677 0.0038022 -2.22619e-19)
(-0.0035349 0.00634154 2.41183e-21)
(0.0106759 0.00643635 1.67091e-19)
(0.0372593 0.00446248 3.33094e-20)
(0.0763608 0.00120645 3.99776e-19)
(0.128043 -0.00267246 -5.16749e-20)
(0.192212 -0.00661326 -3.07107e-19)
(0.268507 -0.0101232 -2.26395e-19)
(0.356131 -0.012794 -3.2459e-19)
(0.453691 -0.0143242 -3.17192e-19)
(0.55906 -0.014548 -3.74835e-19)
(0.669332 -0.0134623 4.04494e-19)
(0.780911 -0.0112396 1.7775e-19)
(0.88977 -0.00821898 -2.47771e-20)
(0.991867 -0.00485129 -4.98141e-20)
(1.08359 -0.00169123 5.81036e-20)
(1.16231 0.000941765 1.66689e-19)
(1.22622 0.00199382 9.70615e-20)
(1.27598 0.00355422 7.88384e-20)
(1.30873 -0.00237021 2.40886e-20)
(-0.00441898 0.00320652 -7.76769e-20)
(-0.00056998 0.00462344 4.3738e-20)
(0.0165807 0.0038464 6.14132e-20)
(0.0467552 0.00124374 1.58537e-19)
(0.090047 -0.00235572 -1.20547e-19)
(0.14644 -0.00626309 3.00389e-20)
(0.215714 -0.0099023 3.15517e-19)
(0.297308 -0.0127811 3.45386e-20)
(0.39014 -0.0145127 -1.41244e-21)
(0.492444 -0.0148423 4.39279e-20)
(0.601663 -0.0136784 2.21128e-19)
(0.714456 -0.0111164 -3.09137e-19)
(0.82687 -0.00744142 -3.33876e-19)
(0.934684 -0.00310216 -1.80553e-19)
(1.03388 0.00136188 -2.20114e-19)
(1.12114 0.00535201 -2.6115e-19)
(1.19426 0.008522 -3.61681e-20)
(1.25207 0.0099472 -1.63957e-19)
(1.2956 0.0114819 3.57445e-19)
(1.32321 0.00613409 -1.80686e-19)
(-0.00356383 0.0025947 3.98734e-19)
(0.00272956 0.00289853 -9.35763e-20)
(0.0230671 0.00130375 -1.32916e-19)
(0.0570891 -0.00184437 6.63512e-20)
(0.104822 -0.00568084 3.1823e-20)
(0.166148 -0.00949293 -9.18118e-20)
(0.240687 -0.0126964 -2.66757e-20)
(0.327636 -0.0148083 -5.32051e-20)
(0.425588 -0.0154749 1.5673e-19)
(0.532368 -0.0145027 3.81217e-19)
(0.644973 -0.0118895 1.20294e-19)
(0.759644 -0.00784146 3.57624e-19)
(0.872126 -0.00276227 1.46417e-19)
(0.978098 0.00279372 2.01768e-19)
(1.07369 0.00821236 2.29758e-19)
(1.15594 0.0128712 -2.27407e-20)
(1.2232 0.016422 -5.85713e-20)
(1.27488 0.0180729 1.87332e-22)
(1.31243 0.0194973 3.9058e-20)
(1.33519 0.0145774 9.53579e-20)
(-0.00259045 0.00196653 -1.79797e-19)
(0.0063889 0.00116895 2.59463e-20)
(0.0301668 -0.00118495 -1.84109e-19)
(0.0682921 -0.00478889 -2.54281e-19)
(0.120708 -0.00874861 -1.06882e-19)
(0.187167 -0.0123346 -1.13162e-20)
(0.267094 -0.0149629 1.3924e-19)
(0.359407 -0.0161707 -1.11295e-19)
(0.462327 -0.015651 2.18552e-20)
(0.573246 -0.0132871 -2.45627e-20)
(0.688707 -0.0091809 -3.14203e-19)
(0.804568 -0.00366017 -4.85454e-19)
(0.916347 0.00275121 -7.25133e-20)
(1.01972 0.00940195 -1.58741e-19)
(1.11108 0.0156211 -1.49718e-19)
(1.18792 0.0207841 -2.66988e-20)
(1.24915 0.0245643 -9.53317e-20)
(1.29481 0.0263046 -5.83324e-20)
(1.3267 0.0275424 -1.74603e-19)
(1.34494 0.022917 -3.21671e-21)
(-0.00148842 0.00132299 -1.7468e-19)
(0.0104319 -0.00056041 3.59378e-19)
(0.0379093 -0.00360956 2.19189e-19)
(0.0803909 -0.00757309 9.55815e-20)
(0.137717 -0.0115353 -3.36133e-20)
(0.209484 -0.0147582 -2.15637e-19)
(0.294885 -0.0166683 -1.40013e-19)
(0.392514 -0.0168356 -6.74655e-20)
(0.500189 -0.0150154 -9.85022e-20)
(0.614841 -0.0111839 -3.47152e-19)
(0.732575 -0.00556163 2.5446e-19)
(0.848911 0.00139488 1.64543e-19)
(0.959229 0.00904405 2.60609e-19)
(1.05932 0.016651 7.45423e-20)
(1.14591 0.023509 4.12062e-20)
(1.21705 0.0290136 1.47976e-20)
(1.27221 0.0328803 -1.53223e-20)
(1.31202 0.0345881 -5.26372e-20)
(1.33862 0.0355729 -5.75439e-20)
(1.35273 0.031128 -1.72021e-19)
(-0.000247873 0.000666207 3.10376e-20)
(0.0148807 -0.00228194 -5.47084e-20)
(0.0463206 -0.00595629 3.90627e-20)
(0.0934067 -0.0101763 -9.16561e-20)
(0.155856 -0.0140135 1.89518e-19)
(0.233078 -0.0167312 3.35604e-19)
(0.323995 -0.0177781 1.01324e-19)
(0.42684 -0.016772 2.77464e-19)
(0.53899 -0.0135469 -1.44256e-19)
(0.656911 -0.00818895 3.73948e-19)
(0.776289 -0.00104932 6.71032e-20)
(0.892375 0.00728262 1.59436e-19)
(1.00051 0.0160551 -2.84403e-19)
(1.09669 0.0244672 -1.00357e-19)
(1.1781 0.0317993 1.01895e-19)
(1.24335 0.0374889 1.94334e-19)
(1.29251 0.0413113 1.31419e-19)
(1.32673 0.0428807 -5.69905e-20)
(1.34844 0.0435575 2.32928e-19)
(1.35879 0.0391986 7.64741e-20)
(0.00114044 -5.63411e-07 -1.04096e-19)
(0.0197555 -0.0039853 -2.2685e-19)
(0.0554234 -0.00820769 -1.67179e-19)
(0.107355 -0.012574 5.09854e-20)
(0.175122 -0.0161524 -2.69517e-19)
(0.257916 -0.0182185 -3.284e-19)
(0.354346 -0.0182574 -4.34073e-20)
(0.462248 -0.0159506 -9.80847e-20)
(0.578534 -0.0112291 3.41503e-19)
(0.699204 -0.00430483 -8.87961e-20)
(0.819568 0.00433036 -2.56769e-19)
(0.934684 0.013955 -4.12036e-19)
(1.03995 0.0237193 2.19616e-19)
(1.13169 0.0327772 2.01163e-19)
(1.2076 0.0404201 -5.29554e-20)
(1.26689 0.0461474 -1.03007e-19)
(1.3102 0.0498085 4.12912e-20)
(1.33914 0.0511501 -5.62823e-20)
(1.35638 0.0514755 -1.09299e-20)
(1.36338 0.0471275 1.37337e-19)
(0.00268506 -0.000672999 -7.99995e-20)
(0.0250747 -0.00565755 -5.8145e-20)
(0.0652366 -0.0103428 2.57451e-19)
(0.122246 -0.0147376 -1.55394e-19)
(0.195505 -0.0179175 3.92427e-19)
(0.28395 -0.0191831 1.61869e-19)
(0.385846 -0.0180709 -1.03983e-19)
(0.49859 -0.0143448 -1.74113e-19)
(0.618616 -0.00805072 -2.71875e-19)
(0.741471 0.000458681 1.129e-19)
(0.862144 0.0105445 2.29011e-20)
(0.975591 0.0213584 1.37317e-19)
(1.07737 0.0319694 2.6448e-19)
(1.16423 0.0415095 -1.48925e-19)
(1.23442 0.0493052 5.30666e-20)
(1.28777 0.0549349 -1.85801e-19)
(1.32545 0.0583331 -5.6287e-20)
(1.34947 0.059374 -4.51767e-20)
(1.36266 0.0593152 -2.60402e-20)
(1.36669 0.0549197 -1.89417e-19)
(0.00439384 -0.00134579 1.57094e-19)
(0.030854 -0.00728327 2.39264e-19)
(0.0757747 -0.0123374 9.24162e-21)
(0.138083 -0.0166353 1.42543e-19)
(0.216983 -0.0192717 -3.36283e-19)
(0.311127 -0.0195862 7.93582e-20)
(0.418389 -0.0171845 -5.04242e-20)
(0.535706 -0.0119313 -9.58189e-21)
(0.659023 -0.00400614 -9.20226e-20)
(0.783466 0.00608497 -1.98461e-19)
(0.903768 0.0175538 -4.7556e-20)
(1.01488 0.0294355 1.24294e-19)
(1.11264 0.040738 -3.63216e-19)
(1.19426 0.0505968 9.20601e-20)
(1.25862 0.0583954 -2.69267e-20)
(1.30614 0.0638063 1.56338e-19)
(1.33846 0.0668552 2.90616e-19)
(1.35794 0.0675378 8.5674e-22)
(1.3675 0.067072 -4.79316e-20)
(1.36893 0.0625855 -6.22691e-20)
(0.00627381 -0.00201273 -2.82887e-20)
(0.0371069 -0.00884483 -3.60087e-19)
(0.0870482 -0.0141641 -2.70956e-19)
(0.154862 -0.0182323 -1.67675e-20)
(0.239528 -0.0201756 5.87658e-20)
(0.339376 -0.0193887 -1.1098e-19)
(0.451859 -0.0155651 -2.7191e-22)
(0.573427 -0.00869068 3.56034e-20)
(0.699542 0.000904317 5.12813e-20)
(0.82495 0.0125509 2.81446e-19)
(0.94421 0.0253137 1.13979e-19)
(1.05237 0.0381263 -2.92548e-20)
(1.14564 0.0499595 3.28212e-20)
(1.22178 0.0599767 -4.21e-20)
(1.28028 0.0676391 1.87487e-19)
(1.32213 0.0727247 -7.81021e-20)
(1.34942 0.0753534 -1.29178e-19)
(1.36474 0.0756338 -1.02738e-20)
(1.37107 0.0747466 7.79076e-20)
(1.37024 0.0701375 6.30988e-21)
(0.00833124 -0.00266678 4.98097e-20)
(0.043844 -0.0103226 1.90626e-19)
(0.0990623 -0.0157932 1.16734e-19)
(0.172572 -0.019491 -2.07922e-19)
(0.263101 -0.0205881 4.37322e-20)
(0.368618 -0.0185514 2.6064e-19)
(0.486127 -0.0131824 1.39425e-19)
(0.611574 -0.0046083 1.8401e-20)
(0.739956 0.00667418 1.62695e-19)
(0.865695 0.0198271 -3.23811e-19)
(0.983268 0.0337755 -8.87897e-20)
(1.08792 0.0473704 -3.71563e-20)
(1.17631 0.0595705 2.13597e-19)
(1.2468 0.0695925 -6.38275e-20)
(1.2995 0.0769925 -1.81779e-20)
(1.33593 0.0816612 -1.09901e-19)
(1.35852 0.0838131 -8.96741e-20)
(1.37008 0.0836597 -2.96987e-20)
(1.37356 0.0823437 -3.20388e-20)
(1.37078 0.0775901 -8.7905e-20)
(0.0105715 -0.00330016 -4.64732e-20)
(0.0510732 -0.011695 -2.68911e-20)
(0.111817 -0.0171926 -6.76732e-20)
(0.191196 -0.0203722 2.18541e-19)
(0.287653 -0.0204674 1.42473e-19)
(0.398765 -0.0170363 -4.48576e-20)
(0.521055 -0.0100093 -8.0476e-21)
(0.649966 0.00032525 1.68093e-19)
(0.780055 0.0132908 -2.49845e-19)
(0.905491 0.0278791 1.49338e-19)
(1.02076 0.0428875 1.49341e-19)
(1.12142 0.0571073 3.86693e-20)
(1.20463 0.0695122 -7.62301e-20)
(1.26939 0.0793941 1.07468e-19)
(1.31641 0.0864188 -2.75356e-19)
(1.34769 0.0905941 3.51955e-20)
(1.36595 0.0922258 -6.3331e-20)
(1.37413 0.0916173 1.57344e-19)
(1.37511 0.0898704 2.82631e-19)
(1.37066 0.0849577 3.59006e-20)
(0.0129991 -0.00390445 -7.16788e-20)
(0.0587994 -0.0129392 2.9569e-20)
(0.125309 -0.0183285 1.9087e-19)
(0.210707 -0.0208354 3.21092e-21)
(0.313125 -0.0197718 -3.08548e-19)
(0.429714 -0.0148073 -2.06799e-19)
(0.556498 -0.00602268 -1.73076e-19)
(0.688416 0.00611368 -8.89348e-20)
(0.819634 0.0207355 3.29972e-19)
(0.944146 0.0366675 -1.453e-20)
(1.05655 0.0525961 4.21123e-20)
(1.15278 0.0672786 6.72395e-20)
(1.2306 0.0797298 -2.20849e-19)
(1.28963 0.0893378 -1.72219e-19)
(1.33116 0.0958888 4.53312e-20)
(1.35759 0.0995081 2.0438e-19)
(1.37189 0.100588 -1.59254e-20)
(1.37705 0.0995112 1.54537e-19)
(1.37586 0.0973354 -2.12873e-19)
(1.36999 0.0922544 -2.57627e-20)
(0.0156175 -0.00447063 9.13737e-20)
(0.0670243 -0.0140311 1.08396e-19)
(0.139526 -0.0191659 -1.96857e-19)
(0.231072 -0.0208397 -1.0382e-20)
(0.33945 -0.0184607 3.61063e-19)
(0.461357 -0.0118311 2.21359e-19)
(0.592303 -0.00120429 -8.66176e-20)
(0.726742 0.0127548 1.24729e-19)
(0.858501 0.0289841 -1.30444e-19)
(0.981486 0.0461493 -1.28462e-19)
(1.09051 0.0628473 1.27602e-19)
(1.18197 0.0778283 -2.52707e-19)
(1.25425 0.0901741 3.1285e-20)
(1.30762 0.0993865 1.16116e-19)
(1.34388 0.105379 -6.16496e-20)
(1.3658 0.108393 8.62094e-20)
(1.37651 0.108899 -1.01947e-19)
(1.37899 0.107348 -2.31872e-19)
(1.37591 0.104748 2.96935e-20)
(1.36886 0.0994931 7.65335e-20)
(0.0184292 -0.0049892 1.06641e-19)
(0.0757462 -0.0149454 -3.30055e-19)
(0.154453 -0.0196692 5.18437e-20)
(0.25225 -0.0203443 -5.26493e-20)
(0.366551 -0.0164948 -1.27457e-19)
(0.493576 -0.00807812 -9.901e-20)
(0.628313 0.00445887 8.7319e-20)
(0.764761 0.0202404 -3.90355e-19)
(0.896472 0.0380071 -8.88409e-20)
(1.01736 0.0562788 5.65153e-20)
(1.12254 0.0735872 -6.99851e-20)
(1.20897 0.0887038 1.94672e-19)
(1.27565 0.100801 1.33409e-19)
(1.32348 0.109509 4.51386e-20)
(1.35474 0.114872 2.44731e-19)
(1.37249 0.117243 -2.36251e-19)
(1.37994 0.117161 1.42399e-19)
(1.38008 0.115135 1.96436e-19)
(1.37538 0.112118 -1.76441e-20)
(1.36733 0.106685 -1.22097e-19)
(0.0214356 -0.00545022 8.37007e-21)
(0.08496 -0.0156564 -3.54519e-21)
(0.170067 -0.0198023 2.34832e-19)
(0.274191 -0.019309 -3.27578e-20)
(0.394343 -0.0138377 -1.43651e-20)
(0.526245 -0.00352313 2.35415e-19)
(0.664369 0.0109741 2.63971e-19)
(0.802296 0.0285566 7.13606e-20)
(0.933382 0.0477706 1.48827e-19)
(1.05164 0.0670083 -9.49526e-20)
(1.1526 0.0847631 -7.89605e-20)
(1.23378 0.0998564 -1.97523e-21)
(1.29486 0.111572 -9.23576e-20)
(1.33733 0.11968 -3.46202e-21)
(1.36388 0.124356 -1.71858e-19)
(1.37779 0.126056 6.63687e-20)
(1.38234 0.125381 1.51593e-19)
(1.38042 0.122881 -7.48654e-20)
(1.37434 0.119453 8.4276e-20)
(1.36546 0.113841 1.48208e-19)
(0.0246368 -0.00584341 3.23143e-20)
(0.0946571 -0.0161378 -8.40947e-20)
(0.186342 -0.0195294 -4.86914e-21)
(0.296839 -0.0176955 2.55796e-21)
(0.422734 -0.0104558 -1.57895e-19)
(0.559235 0.0018544 -2.21357e-20)
(0.700311 0.0183431 -2.71962e-19)
(0.839178 0.0376838 2.75797e-19)
(0.96908 0.058237 1.38722e-19)
(1.08423 0.078289 1.24287e-20)
(1.18062 0.0963245 -1.19238e-21)
(1.25643 0.111241 -6.78028e-20)
(1.31199 0.122455 3.88352e-20)
(1.34931 0.129879 1.04129e-19)
(1.37145 0.133822 -1.7709e-19)
(1.38187 0.134832 1.32103e-19)
(1.38383 0.133562 -1.56098e-19)
(1.38011 0.130594 -6.86693e-21)
(1.37286 0.126763 5.47781e-22)
(1.36329 0.120969 6.66513e-20)
(0.0280317 -0.00615823 -7.10588e-20)
(0.104825 -0.0163632 -7.54643e-20)
(0.203243 -0.0188154 1.0622e-19)
(0.32013 -0.0154672 -4.60614e-20)
(0.451623 -0.0063196 -1.40252e-20)
(0.59241 0.0080697 -1.36067e-19)
(0.735982 0.0265613 1.48798e-19)
(0.875249 0.0475973 -2.61043e-19)
(1.00343 0.0693655 2.29296e-20)
(1.11504 0.0900722 3.8564e-20)
(1.20661 0.108223 -2.04058e-20)
(1.27698 0.122819 1.4227e-20)
(1.32711 0.133419 -1.62553e-19)
(1.35953 0.140091 -1.21549e-19)
(1.37759 0.143264 9.99797e-20)
(1.38483 0.143573 -3.15116e-20)
(1.3845 0.14171 -1.85029e-19)
(1.37924 0.13828 -3.45158e-20)
(1.37099 0.134053 -1.48749e-19)
(1.36086 0.128076 -1.80474e-19)
(0.0316181 -0.00638398 -1.67254e-20)
(0.115448 -0.0163063 1.1197e-19)
(0.220731 -0.0176263 7.90232e-20)
(0.343995 -0.0125902 2.27279e-19)
(0.480905 -0.00140353 -7.68256e-21)
(0.625634 0.0151325 1.16275e-19)
(0.771228 0.0356188 -2.40411e-19)
(0.910361 0.058268 8.27975e-20)
(1.03633 0.0811132 -6.81352e-20)
(1.14401 0.10231 9.56923e-20)
(1.23055 0.120414 2.33353e-20)
(1.29548 0.134552 5.32643e-20)
(1.34035 0.144443 1.50741e-19)
(1.36813 0.150303 1.8344e-20)
(1.38242 0.15268 -8.97487e-20)
(1.38681 0.152283 1.45707e-19)
(1.38446 0.149833 5.04805e-20)
(1.37787 0.145947 -2.33747e-20)
(1.36879 0.14133 1.39663e-19)
(1.35819 0.135166 9.08309e-20)
(0.368355 -0.00903379 -3.35562e-20)
(0.51047 0.0043132 3.95953e-20)
(0.658769 0.023047 -2.26158e-20)
(0.8059 0.0454999 1.36059e-19)
(0.944379 0.0696625 -4.20454e-20)
(1.06766 0.0934355 -5.06783e-20)
(1.1711 0.114954 -1.69104e-19)
(1.25249 0.132855 -1.05201e-19)
(1.31201 0.14641 -9.57177e-20)
(1.35182 0.155506 -7.60973e-20)
(1.37524 0.160506 2.8574e-20)
(1.38607 0.162069 -5.44979e-20)
(1.3879 0.160966 6.36224e-21)
(1.38379 0.157936 1.0031e-19)
(1.37606 0.1536 1.04624e-19)
(1.36628 0.148597 7.3997e-21)
(1.35531 0.142243 6.34647e-20)
(0.691679 0.0318114 -2.34331e-20)
(0.839856 0.0561838 -7.4174e-20)
(0.977181 0.0817441 1.74404e-19)
(1.09737 0.106287 -4.2898e-20)
(1.1963 0.127959 -1.30908e-21)
(1.27243 0.145506 1.13029e-19)
(1.32665 0.158364 -9.93374e-20)
(1.36161 0.166591 4.28973e-20)
(1.38097 0.170694 -1.05762e-19)
(1.38865 0.171432 1.75275e-19)
(1.38821 0.169624 -1.30454e-19)
(1.38256 0.166023 -7.73698e-20)
(1.37386 0.161243 -8.28546e-22)
(1.3635 0.155858 -1.09937e-19)
(1.35222 0.14931 -1.29299e-21)
(1.12537 0.119622 -3.06141e-20)
(1.21958 0.141281 5.19807e-20)
(1.29045 0.158333 -6.86756e-20)
(1.33949 0.170391 8.61335e-20)
(1.36984 0.177685 8.1216e-20)
(1.38544 0.180863 1.79604e-20)
(1.39026 0.180769 -4.98197e-20)
(1.3878 0.178263 -1.15016e-20)
(1.38082 0.174099 -6.62823e-20)
(1.3713 0.168879 -2.77771e-20)
(1.36046 0.163114 4.49946e-20)
(1.34894 0.156366 -7.60395e-20)
(1.37662 0.188778 -2.18169e-21)
(1.38874 0.19101 7.42838e-20)
(1.39098 0.190082 -2.09035e-20)
(1.38674 0.186884 1.18066e-19)
(1.37862 0.182165 6.15239e-20)
(1.36841 0.17651 -1.01135e-20)
(1.35719 0.170366 3.28831e-20)
(1.34548 0.163412 1.23934e-19)
(1.38511 0.195491 -7.63728e-21)
(1.37601 0.190224 -9.24037e-20)
(1.36522 0.184136 7.55113e-21)
(1.35369 0.177613 -5.9637e-20)
(1.34183 0.170446 5.84975e-22)
(1.338 0.177465 -1.23469e-20)
(1.31021 -0.231102 -4.8396e-20)
(1.3385 -0.248567 -1.98622e-20)
(1.33504 -0.244446 1.79053e-21)
(1.32905 -0.239043 8.41521e-21)
(1.32181 -0.232875 -4.22266e-20)
(1.31399 -0.225891 -7.49424e-21)
(1.26351 -0.224629 1.45068e-20)
(1.30169 -0.235314 -4.66491e-20)
(1.32455 -0.241078 2.20441e-20)
(1.33581 -0.242823 7.63241e-22)
(1.33896 -0.241525 6.32646e-20)
(1.3369 -0.238068 7.90032e-20)
(1.3318 -0.233176 -1.93508e-20)
(1.32509 -0.227428 3.31668e-20)
(1.31758 -0.220701 3.91906e-20)
(0.999706 -0.146631 2.05921e-20)
(1.10332 -0.173612 8.32772e-20)
(1.18635 -0.196116 3.89939e-20)
(1.24854 -0.213337 8.27326e-20)
(1.29162 -0.225176 4.78246e-20)
(1.31863 -0.232089 2.37224e-20)
(1.33314 -0.234869 -3.40198e-20)
(1.33866 -0.234437 -3.40867e-20)
(1.33822 -0.231672 -3.42968e-20)
(1.33416 -0.227312 2.18629e-21)
(1.32809 -0.221997 4.75957e-20)
(1.32096 -0.215534 -4.97974e-20)
(0.569463 -0.0482017 6.94612e-20)
(0.709041 -0.0755381 6.24495e-20)