/*--------------------------------*- C++ -*----------------------------------*\
  =========                 |
  \\      /  F ield         | OpenFOAM: The Open Source CFD Toolbox
   \\    /   O peration     | Website:  https://openfoam.org
    \\  /    A nd           | Version:  7
     \\/     M anipulation  |
\*---------------------------------------------------------------------------*/
FoamFile
{
    version     2.0;
    format      ascii;
    class       volScalarField;
    location    "200";
    object      p;
}
// * * * * * * * * * * * * * * * * * * * * * * * * * * * * * * * * * * * * * //

dimensions      [0 2 -2 0 0 0 0];

internalField   nonuniform List<scalar> 
4575
(
0.227238
0.237002
0.246549
0.261286
0.25587
0.270939
0.264956
0.280343
0.273795
0.289483
0.282378
0.306911
0.298349
0.290693
0.316016
0.306927
0.29873
0.324805
0.315206
0.306479
0.333265
0.323173
0.313929
0.351586
0.341383
0.330816
0.32107
0.359873
0.349148
0.338126
0.327892
0.367772
0.356547
0.345089
0.334386
0.37527
0.363569
0.351697
0.340542
0.382356
0.370203
0.357938
0.346353
0.401607
0.389018
0.37644
0.363804
0.351809
0.408265
0.395246
0.382268
0.369285
0.356903
0.414451
0.40103
0.38768
0.374372
0.361628
0.420153
0.40636
0.392666
0.379058
0.365976
0.425363
0.411228
0.397218
0.383334
0.369941
0.430072
0.415627
0.401329
0.387195
0.373518
0.434272
0.419548
0.404992
0.390633
0.376701
0.437957
0.422986
0.408202
0.393644
0.379484
0.44112
0.425934
0.410952
0.396221
0.381865
0.443755
0.428388
0.413238
0.398362
0.383838
0.445858
0.430343
0.415057
0.400061
0.385402
0.463225
0.447425
0.431796
0.416404
0.401317
0.386553
0.46434
0.448454
0.432744
0.417279
0.402127
0.387291
0.464878
0.448942
0.433185
0.417677
0.402488
0.387613
0.464838
0.448888
0.433118
0.417599
0.402401
0.387518
0.464219
0.448291
0.432544
0.417045
0.401864
0.387004
0.463022
0.447153
0.431461
0.416014
0.400877
0.386072
0.445474
0.429872
0.414508
0.399443
0.384723
0.443257
0.427778
0.412529
0.397564
0.382962
0.440505
0.425183
0.410079
0.395241
0.380789
0.437221
0.42209
0.407162
0.392477
0.378206
0.433411
0.418503
0.403783
0.389278
0.375217
0.42908
0.414427
0.399944
0.385646
0.371826
0.424234
0.409869
0.395653
0.381587
0.368036
0.41888
0.404835
0.390916
0.377108
0.363853
0.413027
0.399332
0.385738
0.372214
0.359283
0.406683
0.393369
0.380128
0.366911
0.35433
0.399858
0.386953
0.374094
0.361209
0.349001
0.380095
0.367644
0.355114
0.343304
0.372804
0.360788
0.348636
0.337246
0.365091
0.353535
0.341784
0.330834
0.356967
0.345896
0.334567
0.324077
0.348444
0.337881
0.326996
0.316984
0.329503
0.31908
0.309564
0.320772
0.310832
0.301826
0.311701
0.302262
0.29378
0.302302
0.293381
0.285436
0.284202
0.276803
0.274737
0.267894
0.264997
0.258716
0.249282
0.239601
0.229683
0.114329
0.115408
0.117468
0.120387
0.124043
0.128385
0.133295
0.138733
0.144547
0.150679
0.156905
0.163124
0.168998
0.174366
0.178719
0.181855
0.183006
0.182036
0.177736
0.170361
0.15771
0.113521
0.114555
0.116517
0.119294
0.122753
0.126839
0.131423
0.136454
0.141766
0.147285
0.152776
0.158118
0.162967
0.167151
0.170166
0.171823
0.171389
0.168776
0.162901
0.154066
0.140625
0.112641
0.113625
0.115484
0.118107
0.121356
0.125169
0.129408
0.134012
0.138804
0.143698
0.148446
0.152922
0.156773
0.159837
0.161617
0.161959
0.160183
0.156265
0.149297
0.139625
0.12617
0.111686
0.112615
0.114364
0.116823
0.119851
0.123377
0.127259
0.131422
0.135682
0.139941
0.143948
0.147567
0.150451
0.15244
0.153073
0.152211
0.149271
0.144242
0.13645
0.126174
0.1128
0.110654
0.111526
0.113159
0.115447
0.118245
0.121475
0.12499
0.128704
0.13243
0.136058
0.139336
0.142124
0.14409
0.145076
0.144671
0.142742
0.138823
0.132894
0.124505
0.113844
0.100608
0.109546
0.110358
0.11187
0.113981
0.116542
0.119469
0.122611
0.125873
0.129067
0.132072
0.134645
0.136638
0.137748
0.137815
0.136489
0.133644
0.12893
0.122314
0.113532
0.102707
0.0897449
0.10836
0.109109
0.110498
0.112425
0.114744
0.117363
0.120129
0.122939
0.125607
0.128005
0.129902
0.131145
0.131464
0.130702
0.128575
0.12496
0.119616
0.112507
0.103506
0.0927078
0.0801551
0.107097
0.107781
0.109043
0.110783
0.112855
0.115162
0.117553
0.119915
0.122069
0.12388
0.125134
0.125677
0.125275
0.123778
0.120963
0.116718
0.110893
0.103456
0.094382
0.0837547
0.0717003
0.105757
0.106374
0.107507
0.109056
0.11088
0.112874
0.114892
0.116814
0.118469
0.119719
0.120369
0.120267
0.119217
0.117076
0.113683
0.108938
0.102762
0.0951385
0.0861103
0.0757576
0.0642539
0.10434
0.104889
0.105891
0.107248
0.108823
0.110507
0.112157
0.11365
0.114826
0.115544
0.115633
0.114944
0.113319
0.110627
0.106757
0.101629
0.0952194
0.0875253
0.0786376
0.0686334
0.0577117
0.102849
0.103328
0.104198
0.105363
0.10669
0.108067
0.109358
0.110438
0.111158
0.111378
0.11095
0.109735
0.107606
0.104451
0.1002
0.094794
0.0882508
0.0805822
0.0719088
0.062305
0.0519811
0.101284
0.101694
0.102432
0.103405
0.104487
0.105564
0.106508
0.107192
0.10748
0.10724
0.106342
0.104661
0.1021
0.0985649
0.0940208
0.0884287
0.0818372
0.074271
0.0658681
0.056699
0.0469761
0.0996476
0.0999879
0.100596
0.101379
0.102221
0.103007
0.103616
0.103925
0.103812
0.103149
0.10183
0.0997425
0.096817
0.092979
0.0882209
0.0825229
0.0759548
0.0685517
0.0604606
0.0517463
0.0426172
0.0979425
0.098214
0.098693
0.0992912
0.0998997
0.100405
0.100696
0.100652
0.100167
0.0991223
0.0974303
0.0949948
0.0917695
0.087699
0.0827975
0.077062
0.0705766
0.0633837
0.0556328
0.0473824
0.0388319
0.0961719
0.0963758
0.0967286
0.0971468
0.0975296
0.097767
0.097757
0.0973866
0.0965611
0.095175
0.093158
0.0904305
0.0869657
0.0827264
0.0777438
0.0720285
0.0656737
0.0587264
0.0513337
0.0435475
0.0355557
0.0943394
0.0944773
0.0947076
0.0949521
0.0951188
0.0951029
0.0948117
0.0941406
0.0930078
0.0913209
0.0890255
0.0860587
0.0824103
0.0780592
0.0730493
0.0674025
0.0612163
0.0545399
0.0475153
0.0401871
0.0327303
0.092449
0.0925232
0.0926353
0.0927137
0.0926754
0.092422
0.0918706
0.0909262
0.0895194
0.0875716
0.0850429
0.0818861
0.0781048
0.0736923
0.0687014
0.0631625
0.0571741
0.050786
0.0441325
0.0372515
0.0303039
0.0905051
0.0905184
0.0905175
0.0904386
0.0902074
0.0897337
0.0889441
0.0877542
0.0861069
0.0839369
0.0812176
0.0779164
0.0740482
0.0696181
0.0646853
0.0592859
0.0535173
0.0474279
0.0411437
0.0346953
0.0282303
0.0885129
0.0884682
0.0883604
0.0881337
0.087723
0.087047
0.086042
0.0846349
0.0827797
0.0804249
0.0775552
0.0741512
0.070237
0.0658272
0.0609849
0.05575
0.0502166
0.0444312
0.03851
0.0324776
0.0264681
0.0864775
0.0863785
0.0861704
0.0858062
0.0852303
0.0843708
0.0831735
0.0815771
0.0795461
0.0770417
0.074059
0.0705898
0.0666656
0.0623085
0.0575832
0.0525318
0.0472441
0.0417633
0.0361962
0.0305615
0.0249805
0.0844048
0.0842551
0.0839539
0.0834634
0.0827371
0.0817133
0.0803472
0.0785888
0.0764129
0.0737921
0.0707306
0.06723
0.0633271
0.0590496
0.0544627
0.0496089
0.0445726
0.0393938
0.0341696
0.0289135
0.0237348
0.0823006
0.0821044
0.0817178
0.0811126
0.0802513
0.0790825
0.0775708
0.075677
0.0733854
0.0706792
0.06757
0.0640678
0.0602131
0.0560378
0.0516058
0.0469592
0.0421767
0.0372946
0.0324005
0.0275035
0.0227018
0.0801713
0.0799329
0.079469
0.0787609
0.0777802
0.0764858
0.0748512
0.0728477
0.0704679
0.0677046
0.0645759
0.0610981
0.0573145
0.0532595
0.0489949
0.0445617
0.0400323
0.0354394
0.0308617
0.0263043
0.0218552
0.0780232
0.077747
0.0772142
0.0764154
0.0753311
0.0739301
0.0721946
0.0701056
0.0676634
0.0648689
0.0617455
0.0583148
0.0546214
0.050701
0.0466129
0.0423961
0.0381169
0.0338041
0.0295284
0.0252914
0.0211717
0.0758631
0.0755536
0.0749604
0.0740831
0.0729107
0.0714217
0.0696064
0.0674547
0.0649737
0.0621714
0.0590753
0.0557109
0.0521232
0.0483487
0.044443
0.0404431
0.0364092
0.0323666
0.0283781
0.0244428
0.0206305
0.0736975
0.0733593
0.0727143
0.0717705
0.0705253
0.0689663
0.0670912
0.0648981
0.0623999
0.0596106
0.0565608
0.0532789
0.0498095
0.0461889
0.0424691
0.0386846
0.0348896
0.0311063
0.0273903
0.0237385
0.0202128
0.0715332
0.0711708
0.0704825
0.0694842
0.0681809
0.0665689
0.0646529
0.0624378
0.0599419
0.057184
0.0541968
0.0510107
0.0476695
0.0442083
0.0406757
0.0371033
0.0335399
0.0300046
0.0265464
0.0231607
0.0199019
0.0693769
0.0689947
0.0682714
0.0672301
0.065883
0.0642341
0.0622945
0.0600754
0.0575991
0.0548885
0.0519777
0.0488983
0.0456925
0.0423942
0.0390482
0.0356833
0.0323432
0.0290443
0.0258296
0.022693
0.0196828
0.0672351
0.0668375
0.0660872
0.0650139
0.0636364
0.0619658
0.0600186
0.0578114
0.0553702
0.0527205
0.0498975
0.0469332
0.043868
0.0407341
0.0375725
0.0344096
0.0312841
0.0282098
0.0252245
0.0223211
0.0195421
0.0651143
0.0647053
0.0639359
0.0628411
0.0614457
0.0597672
0.0578269
0.055646
0.053253
0.0506759
0.04795
0.0451071
0.0421857
0.0392161
0.0362357
0.0332683
0.0303481
0.0274868
0.0247173
0.0220319
0.0194677
0.0630206
0.0626043
0.061823
0.0607165
0.0593149
0.0576411
0.0557208
0.0535787
0.0512454
0.0487504
0.0461288
0.0434118
0.0406357
0.037829
0.0350255
0.0322465
0.0295222
0.0268623
0.0242955
0.0218136
0.019449
0.0609601
0.0605401
0.0597537
0.0586446
0.0572475
0.0555899
0.0537009
0.0516084
0.0493443
0.0469392
0.0444273
0.0418392
0.0392086
0.0365622
0.0339304
0.0313323
0.0287943
0.0263246
0.0239478
0.0216557
0.0194765
0.0589383
0.0585181
0.0577329
0.0566295
0.0552464
0.053615
0.0517675
0.0497338
0.0475469
0.0452375
0.0428393
0.0403813
0.0378953
0.0354056
0.0329399
0.0305148
0.0281536
0.025863
0.0236642
0.0215489
0.0195416
0.0569606
0.0565433
0.0557649
0.0546748
0.0533142
0.051718
0.0499205
0.0479533
0.0458497
0.0436406
0.0413583
0.0390307
0.0366871
0.03435
0.0320439
0.0297839
0.0275901
0.0254679
0.0234355
0.0214848
0.0196369
0.0550321
0.0546204
0.053854
0.0527836
0.0514531
0.0498997
0.0481592
0.0462647
0.0442493
0.0421435
0.0399783
0.0377801
0.035576
0.0333865
0.0312336
0.0291305
0.0270947
0.0251306
0.0232536
0.0214559
0.0197557
0.0531571
0.0527536
0.0520035
0.0509588
0.0496647
0.0481604
0.046483
0.0446659
0.0427422
0.0407415
0.0386933
0.0366226
0.0345543
0.0325071
0.0305005
0.0285462
0.0266593
0.0248433
0.0231113
0.0214557
0.0198923
0.0513399
0.0509467
0.0502168
0.0492025
0.0479502
0.0465004
0.0448906
0.0431545
0.0413246
0.0394296
0.0374975
0.0355517
0.0336149
0.0317043
0.0298371
0.0280235
0.0262766
0.0245991
0.0230021
0.0214785
0.0200415
0.0495841
0.049203
0.0484965
0.0475168
0.0463107
0.0449194
0.0433806
0.041728
0.0399931
0.0382035
0.0363856
0.0345613
0.0327513
0.0309712
0.0292363
0.0275555
0.02594
0.0243918
0.0229205
0.0215191
0.0201991
0.047893
0.0475254
0.0468449
0.0459032
0.0447467
0.043417
0.0419517
0.0403838
0.0387439
0.0370585
0.0353523
0.0336456
0.0319574
0.0303016
0.0286919
0.027136
0.0256435
0.024216
0.0228613
0.0215732
0.0203611
0.0462693
0.0459165
0.0452641
0.0443627
0.0432585
0.0419925
0.040602
0.0391193
0.0375737
0.0359906
0.0343928
0.0327994
0.0312275
0.0296897
0.0281982
0.0267595
0.0253821
0.0240668
0.0228204
0.021637
0.0205245
0.0447155
0.0443784
0.0437555
0.0428963
0.041846
0.040645
0.0393298
0.0379318
0.0364791
0.0349955
0.0335025
0.0320176
0.0305565
0.0291304
0.02775
0.0264212
0.0251509
0.0239401
0.0227939
0.0217072
0.0206865
0.0432335
0.0429126
0.0423204
0.0415045
0.040509
0.0393735
0.0381333
0.0368188
0.0354566
0.0340695
0.0326772
0.0312958
0.0299397
0.0286189
0.0273428
0.0261166
0.0249461
0.023832
0.0227786
0.0217811
0.0208449
0.0418248
0.0415205
0.0409594
0.0401874
0.039247
0.0381766
0.0370104
0.0357775
0.0345033
0.0332089
0.0319128
0.0306299
0.0293728
0.028151
0.0269725
0.0258419
0.0247641
0.0237395
0.0227718
0.0218564
0.0209978
0.0404907
0.0402031
0.0396732
0.038945
0.0380593
0.0370531
0.0359593
0.0348056
0.033616
0.0324104
0.0312058
0.0300159
0.0288521
0.0277229
0.0266355
0.0255937
0.0246018
0.0236599
0.0227711
0.0219312
0.0211439
0.0392318
0.0389609
0.038462
0.0377771
0.0369451
0.0360016
0.034978
0.0339006
0.0327921
0.0316709
0.0305529
0.0294505
0.0283741
0.0273314
0.0263286
0.0253691
0.0244565
0.0235909
0.0227746
0.022004
0.021282
0.0380489
0.0377943
0.0373259
0.0366832
0.0359035
0.0350208
0.0340646
0.0330602
0.0320287
0.0309874
0.0299509
0.0289305
0.0279358
0.0269734
0.026049
0.0251655
0.0243261
0.0235306
0.0227808
0.0220736
0.0214112
0.0369421
0.0367034
0.0362645
0.0356628
0.0349336
0.034109
0.0332174
0.0322823
0.0313236
0.0303574
0.0293972
0.0284533
0.0275343
0.0266464
0.0257944
0.0249809
0.0242086
0.0234773
0.0227884
0.0221392
0.0215312
0.0359116
0.0356882
0.0352776
0.0347152
0.0340342
0.0332651
0.0324345
0.0315647
0.0306744
0.0297784
0.0288892
0.0280163
0.0271674
0.0263481
0.0255627
0.0248134
0.0241025
0.0234299
0.0227965
0.0221999
0.0216414
0.0349572
0.0347484
0.0343648
0.0338396
0.0332043
0.0324875
0.0317143
0.0309057
0.0300791
0.0292484
0.0284249
0.0276174
0.0268331
0.0260767
0.0253521
0.0246615
0.0240066
0.0233873
0.0228043
0.0222556
0.0217418
0.0340789
0.0338838
0.0335256
0.0330355
0.0324429
0.031775
0.0310553
0.0303035
0.0295359
0.0287653
0.0280023
0.0272549
0.0265294
0.0258304
0.0251613
0.024524
0.0239198
0.0233488
0.0228114
0.0223058
0.0218324
0.0332763
0.033094
0.0327595
0.032302
0.0317492
0.0311266
0.0304563
0.0297568
0.0290432
0.0283277
0.0276198
0.026927
0.0262551
0.0256081
0.0249891
0.0243998
0.0238414
0.0233138
0.0228174
0.0223505
0.0219134
0.0325493
0.0323789
0.0320662
0.0316387
0.0311224
0.0305412
0.029916
0.0292642
0.0285998
0.0279342
0.0272762
0.0266326
0.0260089
0.0254087
0.0248346
0.0242883
0.0237709
0.0232821
0.0228222
0.0223898
0.021985
0.0318979
0.0317383
0.0314454
0.0310451
0.0305619
0.0300182
0.0294338
0.0288248
0.0282046
0.0275837
0.0269703
0.0263707
0.0257899
0.0252312
0.0246972
0.024189
0.0237078
0.0232533
0.0228258
0.0224239
0.0220476
0.0313223
0.0311722
0.0308971
0.0305211
0.0300674
0.0295571
0.0290089
0.028438
0.0278569
0.0272755
0.0267014
0.0261406
0.0255975
0.0250753
0.0245762
0.0241015
0.023652
0.0232275
0.0228282
0.0224529
0.0221014
0.0308228
0.0306812
0.0304216
0.0300669
0.029639
0.0291579
0.0286412
0.0281034
0.0275563
0.0270091
0.0264691
0.0259418
0.0254313
0.0249405
0.0244716
0.0240257
0.0236034
0.0232047
0.0228296
0.0224771
0.0221469
0.0304004
0.030266
0.0300196
0.029683
0.0292771
0.0288208
0.028331
0.0278212
0.0273028
0.0267846
0.0262733
0.0257742
0.0252912
0.0248269
0.0243833
0.0239615
0.0235621
0.023185
0.0228302
0.0224968
0.0221845
0.0300564
0.0299279
0.0296924
0.0293707
0.0289827
0.0285468
0.0280787
0.0275919
0.0270969
0.0266022
0.0261143
0.0256381
0.0251773
0.0247345
0.0243115
0.0239092
0.0235283
0.0231687
0.0228303
0.0225123
0.0222144
0.029793
0.029669
0.0294418
0.0291316
0.0287575
0.0283371
0.0278858
0.0274165
0.0269395
0.0264628
0.0259928
0.0255341
0.0250903
0.0246639
0.0242565
0.0238691
0.0235023
0.023156
0.02283
0.0225238
0.0222368
0.029613
0.0294921
0.0292707
0.0289683
0.0286037
0.028194
0.0277542
0.0272969
0.0268321
0.0263677
0.0259098
0.0254631
0.0250309
0.0246156
0.0242189
0.0238416
0.0234844
0.0231471
0.0228297
0.0225315
0.0222519
0.0295203
0.029401
0.0291826
0.0288843
0.0285247
0.0281205
0.0276866
0.0272354
0.0267769
0.0263188
0.0258672
0.0254266
0.0250003
0.0245908
0.0241995
0.0238275
0.0234752
0.0231426
0.0228295
0.0225353
0.0222596
0.119017
0.120176
0.122443
0.125677
0.129786
0.134802
0.140618
0.14734
0.154857
0.163328
0.172628
0.182974
0.194187
0.206555
0.219835
0.234403
0.249922
0.266832
0.284683
0.304026
0.324156
0.345903
0.368002
0.119038
0.120198
0.122466
0.125701
0.129812
0.13483
0.140648
0.147372
0.154891
0.163365
0.172666
0.183011
0.194224
0.206589
0.219866
0.234423
0.24993
0.26682
0.284648
0.303951
0.324039
0.345732
0.367759
0.119052
0.120212
0.122481
0.125715
0.129828
0.134849
0.140668
0.147393
0.154911
0.163385
0.172682
0.183024
0.194229
0.206582
0.219846
0.234379
0.249856
0.266702
0.284477
0.303706
0.323705
0.345288
0.367169
0.119059
0.120219
0.122489
0.125724
0.129836
0.134858
0.140677
0.147401
0.154917
0.163387
0.172678
0.18301
0.194201
0.206536
0.219773
0.234269
0.249698
0.26648
0.284171
0.303294
0.323156
0.344572
0.366235
0.119059
0.120219
0.122488
0.125723
0.129836
0.134857
0.140675
0.147396
0.154908
0.163372
0.172653
0.182971
0.194141
0.206449
0.219649
0.234094
0.249457
0.266152
0.283729
0.302711
0.322389
0.343586
0.364957
0.119052
0.120211
0.122481
0.125714
0.129827
0.134848
0.140663
0.14738
0.154885
0.16334
0.172607
0.182906
0.194049
0.206321
0.219473
0.233854
0.249132
0.265718
0.283152
0.301958
0.321405
0.342328
0.363336
0.119038
0.120196
0.122466
0.125698
0.12981
0.134828
0.14064
0.147351
0.154848
0.163291
0.172541
0.182815
0.193925
0.206153
0.219245
0.233549
0.248723
0.265179
0.28244
0.301036
0.320206
0.340801
0.361375
0.119017
0.120175
0.122443
0.125674
0.129784
0.1348
0.140607
0.147311
0.154797
0.163225
0.172453
0.182699
0.193769
0.205945
0.218966
0.233179
0.24823
0.264534
0.281593
0.299944
0.318792
0.339007
0.359077
0.118989
0.120145
0.122413
0.125643
0.12975
0.134762
0.140563
0.147258
0.154732
0.163142
0.172345
0.182557
0.193581
0.205696
0.218636
0.232744
0.247655
0.263786
0.280613
0.298685
0.317165
0.336948
0.356443
0.118953
0.120109
0.122376
0.125604
0.129708
0.134715
0.140509
0.147193
0.154653
0.163042
0.172217
0.18239
0.193362
0.205408
0.218255
0.232245
0.246998
0.262933
0.279501
0.297259
0.315326
0.334625
0.353478
0.118911
0.120066
0.122331
0.125557
0.129658
0.134658
0.140445
0.147116
0.154559
0.162925
0.172068
0.182197
0.19311
0.20508
0.217823
0.231682
0.246258
0.261976
0.278255
0.295667
0.313278
0.332042
0.350185
0.118862
0.120015
0.122278
0.125502
0.129601
0.134592
0.14037
0.147027
0.154452
0.162791
0.171899
0.18198
0.192828
0.204712
0.21734
0.231056
0.245437
0.260917
0.276879
0.29391
0.311021
0.3292
0.346568
0.118806
0.119958
0.122219
0.125439
0.129536
0.134517
0.140285
0.146927
0.154331
0.162641
0.17171
0.181737
0.192513
0.204305
0.216807
0.230365
0.244534
0.259755
0.275372
0.291991
0.308558
0.326104
0.342632
0.118743
0.119893
0.122152
0.125369
0.129462
0.134433
0.140189
0.146815
0.154197
0.162474
0.1715
0.181469
0.192168
0.203858
0.216225
0.229612
0.243551
0.258492
0.273736
0.289909
0.30589
0.322756
0.338381
0.118673
0.119821
0.122077
0.125291
0.12938
0.134339
0.140084
0.146691
0.154048
0.162291
0.171271
0.181177
0.191792
0.203373
0.215593
0.228796
0.242488
0.257128
0.271972
0.287668
0.303022
0.319159
0.333821
0.118597
0.119743
0.121996
0.125205
0.129289
0.134237
0.139968
0.146555
0.153886
0.162092
0.171022
0.18086
0.191385
0.202849
0.214912
0.227917
0.241345
0.255664
0.27008
0.285268
0.299953
0.315318
0.328957
0.118513
0.119657
0.121908
0.125112
0.129189
0.134126
0.139843
0.146409
0.153711
0.161877
0.170753
0.180519
0.190948
0.202286
0.214182
0.226977
0.240124
0.2541
0.268062
0.282712
0.296689
0.311236
0.323795
0.118423
0.119565
0.121812
0.125011
0.129082
0.134006
0.139707
0.14625
0.153523
0.161645
0.170465
0.180154
0.190481
0.201685
0.213403
0.225975
0.238824
0.252439
0.26592
0.280001
0.29323
0.306917
0.318342
0.118326
0.119466
0.121709
0.124903
0.128966
0.133877
0.139562
0.146081
0.153321
0.161398
0.170158
0.179765
0.189983
0.201046
0.212577
0.224912
0.237447
0.25068
0.263654
0.277137
0.28958
0.302366
0.312604
0.118222
0.11936
0.121599
0.124788
0.128842
0.13374
0.139407
0.145901
0.153106
0.161135
0.169831
0.179352
0.189457
0.200369
0.211703
0.223789
0.235993
0.248824
0.261266
0.274122
0.285742
0.297587
0.306588
0.118112
0.119247
0.121483
0.124665
0.12871
0.133594
0.139243
0.145709
0.152879
0.160857
0.169486
0.178915
0.1889
0.199655
0.210782
0.222605
0.234463
0.246873
0.258757
0.270959
0.281718
0.292585
0.300301
0.117995
0.119128
0.121359
0.124534
0.12857
0.13344
0.139069
0.145507
0.152639
0.160564
0.169122
0.178455
0.188315
0.198905
0.209814
0.221363
0.232858
0.244828
0.256129
0.26765
0.277513
0.287365
0.29375
0.117871
0.119002
0.121229
0.124395
0.128422
0.133278
0.138886
0.145294
0.152386
0.160255
0.16874
0.177973
0.187701
0.198117
0.208801
0.220061
0.231179
0.242689
0.253384
0.264196
0.273129
0.281931
0.286944
0.117741
0.11887
0.121093
0.124247
0.128267
0.133107
0.138694
0.145071
0.152121
0.159932
0.16834
0.177467
0.187059
0.197293
0.207741
0.218701
0.229426
0.240457
0.250522
0.260601
0.268569
0.27629
0.27989
0.117605
0.118731
0.12095
0.124097
0.128104
0.132929
0.138493
0.144837
0.151844
0.159593
0.167921
0.176939
0.186388
0.196434
0.206637
0.217282
0.227601
0.238134
0.247546
0.256867
0.263838
0.270446
0.272595
0.117462
0.118586
0.1208
0.123949
0.127934
0.132742
0.138283
0.144593
0.151554
0.159241
0.167485
0.176389
0.18569
0.195539
0.205487
0.215807
0.225704
0.23572
0.244457
0.252996
0.258937
0.264406
0.265069
0.117313
0.118435
0.120644
0.123783
0.127757
0.132548
0.138064
0.144339
0.151253
0.158874
0.167031
0.175817
0.184964
0.194609
0.204294
0.214275
0.223736
0.233217
0.241258
0.248991
0.253871
0.258175
0.257319
0.117157
0.118278
0.120481
0.12361
0.127573
0.132346
0.137837
0.144075
0.150941
0.158493
0.16656
0.175224
0.184211
0.193644
0.203057
0.212687
0.221698
0.230626
0.23795
0.244853
0.248643
0.251759
0.249353
0.116995
0.118114
0.120311
0.123433
0.127382
0.132136
0.137601
0.143802
0.150617
0.158098
0.166072
0.174609
0.183431
0.192645
0.201777
0.211043
0.219592
0.227946
0.234534
0.240586
0.243257
0.245165
0.241179
0.116827
0.117944
0.120134
0.123248
0.127184
0.131919
0.137357
0.143519
0.150281
0.15769
0.165568
0.173973
0.182625
0.191612
0.200454
0.209344
0.217418
0.22518
0.231014
0.236192
0.237716
0.238399
0.232803
0.116653
0.117769
0.119954
0.123058
0.12698
0.131695
0.137104
0.143226
0.149935
0.157268
0.165047
0.173317
0.181793
0.190545
0.199089
0.207591
0.215176
0.222329
0.227391
0.231672
0.232023
0.231466
0.224233
0.116473
0.117588
0.11977
0.122861
0.126769
0.131463
0.136844
0.142925
0.149577
0.156834
0.164509
0.17264
0.180935
0.189446
0.197682
0.205784
0.212869
0.219393
0.223668
0.227029
0.226183
0.224375
0.215474
0.116287
0.1174
0.119576
0.122658
0.126552
0.131225
0.136576
0.142614
0.149209
0.156386
0.163956
0.171943
0.180051
0.188314
0.196234
0.203924
0.210496
0.216373
0.219846
0.222264
0.2202
0.21713
0.206531
0.116095
0.117206
0.119376
0.122449
0.126328
0.13098
0.1363
0.142295
0.148831
0.155926
0.163387
0.171227
0.179143
0.18715
0.194745
0.202012
0.208059
0.213271
0.215927
0.217378
0.214079
0.209738
0.197404
0.115898
0.117005
0.119171
0.122234
0.126098
0.130727
0.136017
0.141967
0.148443
0.155453
0.162803
0.170491
0.178209
0.185954
0.193216
0.200048
0.205558
0.210086
0.211914
0.212372
0.207822
0.202203
0.115694
0.116811
0.11896
0.122013
0.125862
0.130468
0.135725
0.141629
0.148042
0.154966
0.162201
0.169732
0.177248
0.184722
0.191642
0.198028
0.202989
0.206816
0.207805
0.207245
0.201435
0.194526
0.115485
0.116599
0.118743
0.121787
0.125619
0.130202
0.135426
0.141282
0.147631
0.154466
0.161582
0.168953
0.17626
0.183457
0.190027
0.195955
0.200356
0.203468
0.203608
0.202008
0.194937
0.186722
0.115271
0.116384
0.118524
0.121559
0.125376
0.129937
0.13513
0.140941
0.147228
0.153975
0.160973
0.168184
0.175281
0.182199
0.188412
0.193876
0.197706
0.200087
0.199364
0.196691
0.18835
0.178814
0.115051
0.116165
0.118301
0.12133
0.125136
0.129679
0.134844
0.140615
0.146845
0.15351
0.160394
0.167448
0.174334
0.180969
0.186816
0.191798
0.195029
0.19664
0.195012
0.191198
0.181539
0.170625
0.114824
0.115935
0.11806
0.121071
0.124852
0.12936
0.134478
0.140184
0.146328
0.152877
0.159611
0.166464
0.173094
0.179391
0.184818
0.189258
0.191841
0.192627
0.190081
0.185088
0.174201
0.1127
0.113769
0.115792
0.118658
0.122242
0.126514
0.131359
0.136753
0.142553
0.148718
0.155037
0.161434
0.167581
0.173355
0.178238
0.182094
0.184084
0.184237
0.181061
0.175384
0.163826
0.112976
0.114049
0.116085
0.118971
0.122583
0.126895
0.131792
0.137258
0.143151
0.149442
0.155923
0.162534
0.168954
0.175083
0.180406
0.184828
0.187493
0.188499
0.186273
0.181816
0.17152
0.159944
0.113245
0.114318
0.11636
0.119257
0.122885
0.127222
0.132153
0.137668
0.143628
0.150011
0.156617
0.163399
0.170043
0.176472
0.18218
0.187105
0.19039
0.192195
0.190902
0.187629
0.17868
0.168566
0.113509
0.114584
0.116633
0.119543
0.12319
0.127555
0.132524
0.138093
0.144124
0.150605
0.15734
0.164294
0.171162
0.177886
0.183966
0.189375
0.193251
0.195813
0.195407
0.193247
0.185591
0.176873
0.113768
0.114845
0.116903
0.119827
0.123494
0.127888
0.132898
0.138521
0.144626
0.151206
0.158071
0.165198
0.172288
0.179305
0.185752
0.191637
0.196093
0.199395
0.199861
0.198781
0.192408
0.185065
0.114022
0.115099
0.117167
0.120106
0.123793
0.128215
0.133264
0.138942
0.145118
0.151795
0.158786
0.166082
0.173389
0.18069
0.187496
0.193846
0.198871
0.202899
0.204226
0.204201
0.19911
0.19312
0.11427
0.11535
0.117427
0.120379
0.124085
0.128536
0.133623
0.139353
0.145598
0.152369
0.159483
0.166943
0.174461
0.18204
0.189196
0.195999
0.20158
0.206315
0.208492
0.209496
0.205678
0.201021
0.114513
0.115595
0.117682
0.120647
0.124372
0.12885
0.133974
0.139755
0.146069
0.152932
0.160165
0.167785
0.175508
0.183357
0.190854
0.198098
0.204222
0.209647
0.21266
0.214665
0.212106
0.208768
0.197502
0.11475
0.115835
0.117929
0.120909
0.124653
0.129158
0.134318
0.14015
0.146529
0.153482
0.160832
0.168607
0.17653
0.184643
0.192471
0.200145
0.2068
0.212895
0.216729
0.21971
0.218391
0.216359
0.206835
0.114982
0.116068
0.118168
0.121166
0.124927
0.129459
0.134654
0.140535
0.146979
0.154019
0.161483
0.16941
0.177527
0.185896
0.194046
0.202138
0.20931
0.216057
0.220697
0.224629
0.224529
0.223787
0.215975
0.115207
0.116297
0.118405
0.121421
0.125196
0.129753
0.134983
0.140912
0.147419
0.154544
0.162118
0.170193
0.178499
0.187116
0.19558
0.204077
0.211754
0.219132
0.224562
0.229419
0.230516
0.231047
0.224918
0.115427
0.116519
0.118636
0.121675
0.125459
0.130041
0.135304
0.14128
0.147848
0.155056
0.162737
0.170955
0.179444
0.188302
0.197071
0.205961
0.214129
0.22212
0.228322
0.234081
0.236348
0.238134
0.233658
0.115642
0.116736
0.11886
0.121865
0.125716
0.130321
0.135618
0.141639
0.148266
0.155555
0.163339
0.171696
0.180363
0.189455
0.198518
0.207789
0.216436
0.22502
0.231976
0.23861
0.242021
0.24504
0.242188
0.11585
0.116947
0.119079
0.122106
0.125967
0.130595
0.135923
0.141988
0.148673
0.15604
0.163925
0.172416
0.181255
0.190573
0.199923
0.209562
0.218673
0.227831
0.23552
0.243007
0.247532
0.251761
0.2505
0.116052
0.117152
0.119292
0.122335
0.126216
0.130862
0.13622
0.142328
0.149068
0.156511
0.164494
0.173115
0.18212
0.191656
0.201284
0.211277
0.220839
0.230551
0.238954
0.247267
0.252877
0.25829
0.258588
0.116248
0.117351
0.119498
0.122552
0.126446
0.131121
0.136508
0.142658
0.149452
0.156969
0.165046
0.173792
0.182958
0.192705
0.2026
0.212935
0.222934
0.23318
0.242275
0.25139
0.258052
0.264622
0.266444
0.116438
0.117544
0.119699
0.122764
0.126662
0.131373
0.136788
0.142979
0.149825
0.157412
0.16558
0.174448
0.183768
0.193717
0.203871
0.214536
0.224956
0.235717
0.245482
0.255372
0.263054
0.270751
0.274059
0.116622
0.117731
0.119893
0.122969
0.126885
0.13162
0.13706
0.14329
0.150185
0.157841
0.166096
0.17508
0.18455
0.194694
0.205097
0.216078
0.226905
0.238162
0.248572
0.259212
0.267881
0.276672
0.281426
0.116799
0.117912
0.120081
0.123168
0.127098
0.131869
0.137324
0.14359
0.150534
0.158256
0.166594
0.175691
0.185304
0.195635
0.206278
0.217561
0.22878
0.240512
0.251545
0.262908
0.272528
0.28238
0.288537
0.11697
0.118086
0.120262
0.12336
0.127302
0.132083
0.13758
0.143881
0.15087
0.158656
0.167075
0.176278
0.186029
0.196539
0.207412
0.218984
0.23058
0.242767
0.254399
0.266456
0.276992
0.287869
0.295385