/*--------------------------------*- C++ -*----------------------------------*\
  =========                 |
  \\      /  F ield         | OpenFOAM: The Open Source CFD Toolbox
   \\    /   O peration     | Website:  https://openfoam.org
    \\  /    A nd           | Version:  7
     \\/     M anipulation  |
\*---------------------------------------------------------------------------*/
FoamFile
{
    version     2.0;
    format      ascii;
    class       volVectorField;
    location    "200";
    object      U;
}
// * * * * * * * * * * * * * * * * * * * * * * * * * * * * * * * * * * * * * //

dimensions      [0 1 -1 0 0 0 0];

internalField   nonuniform List<vector> 
4575
(
(0.83941 0.309887 -1.36665e-19)
(0.829616 0.303508 2.51911e-19)
(0.820037 0.29679 -1.41404e-19)
(0.797095 0.306851 -8.01967e-20)
(0.810681 0.289737 -5.81856e-20)
(0.787431 0.299003 9.44696e-20)
(0.801558 0.282355 4.62282e-20)
(0.778015 0.290819 -2.48303e-20)
(0.792678 0.27465 9.32267e-20)
(0.768859 0.282305 -2.73723e-20)
(0.784051 0.26663 -1.29614e-19)
(0.742939 0.289653 1.27263e-19)
(0.759974 0.273468 8.0584e-20)
(0.775687 0.258302 6.03519e-20)
(0.733796 0.279945 -8.32176e-20)
(0.751373 0.264317 -5.91731e-20)
(0.767596 0.249676 5.85922e-21)
(0.724965 0.269913 -7.21392e-20)
(0.743066 0.254862 -2.61744e-20)
(0.759788 0.24076 4.38894e-20)
(0.716459 0.259566 -2.8414e-20)
(0.735066 0.245111 2.22467e-19)
(0.752272 0.231565 -1.40495e-19)
(0.688409 0.263547 6.26323e-20)
(0.708289 0.248917 -5.10832e-20)
(0.727381 0.235076 -4.39566e-20)
(0.745059 0.222101 9.62271e-20)
(0.680059 0.251953 9.53167e-20)
(0.700468 0.237976 1.30305e-19)
(0.720025 0.224767 2.57676e-20)
(0.738157 0.212379 -1.13855e-19)
(0.672092 0.24006 -2.36838e-20)
(0.693005 0.226756 -1.37253e-20)
(0.713005 0.214195 1.88535e-20)
(0.731575 0.202409 1.04701e-19)
(0.664518 0.227881 4.43868e-20)
(0.685911 0.21527 -6.48019e-20)
(0.706333 0.203373 -5.89465e-20)
(0.725322 0.192203 -1.1274e-19)
(0.657349 0.215431 2.1227e-20)
(0.679197 0.203531 -6.31033e-21)
(0.700018 0.192313 2.00437e-21)
(0.719406 0.181774 6.21212e-20)
(0.627009 0.214647 7.63574e-20)
(0.650596 0.202724 -8.46127e-20)
(0.672873 0.191552 1.59339e-19)
(0.694068 0.181028 -1.40983e-19)
(0.713835 0.171134 5.04222e-20)
(0.620251 0.200907 -4.98139e-20)
(0.644268 0.189777 4.91398e-21)
(0.666946 0.179348 -1.40273e-19)
(0.688493 0.169531 9.82405e-20)
(0.708616 0.160296 8.94e-20)
(0.613956 0.186925 6.90197e-20)
(0.638375 0.176604 8.94798e-21)
(0.661426 0.166934 2.21561e-20)
(0.683299 0.157837 8.845e-21)
(0.703757 0.149272 -9.84963e-20)
(0.608135 0.172718 -9.74469e-20)
(0.632925 0.163221 1.25052e-20)
(0.656321 0.154324 7.9607e-20)
(0.678496 0.145958 -1.1086e-19)
(0.699264 0.138077 -5.38301e-22)
(0.602796 0.158304 8.98885e-20)
(0.627925 0.149645 -6.69341e-20)
(0.651638 0.141534 -8.12902e-21)
(0.674088 0.13391 6.34849e-20)
(0.695142 0.126723 -1.15181e-19)
(0.597947 0.143701 -8.02902e-20)
(0.623385 0.135893 1.75246e-20)
(0.647384 0.128579 -1.14852e-20)
(0.670084 0.121708 -3.97335e-20)
(0.691398 0.115225 1.54586e-20)
(0.593595 0.128927 1.71506e-20)
(0.619309 0.121983 3.9626e-20)
(0.643565 0.115476 6.96432e-21)
(0.666489 0.109366 -8.45548e-21)
(0.688036 0.103597 1.02042e-21)
(0.589747 0.114002 4.88096e-20)
(0.615704 0.10793 4.03327e-20)
(0.640186 0.102242 1.95146e-20)
(0.663308 0.0968994 4.40967e-20)
(0.685062 0.0918524 1.74428e-20)
(0.586408 0.0989438 -1.66207e-20)
(0.612575 0.0937542 -3.29715e-20)
(0.637253 0.088891 -3.33667e-21)
(0.660545 0.0843243 -6.3679e-20)
(0.682478 0.0800068 1.22e-21)
(0.583583 0.0837722 -3.46704e-20)
(0.609928 0.0794723 -4.84345e-21)
(0.634769 0.0754417 -1.04067e-20)
(0.658205 0.0716562 4.86028e-20)
(0.680289 0.0680746 -8.15473e-21)
(0.581277 0.0685065 4.91596e-20)
(0.607765 0.0651027 6.13118e-20)
(0.632739 0.0619105 -8.8625e-21)
(0.65629 0.0589111 2.20509e-20)
(0.678497 0.0560707 -9.76529e-21)
(0.551274 0.0558325 1.68507e-20)
(0.579493 0.0531664 4.16569e-21)
(0.60609 0.0506637 -2.0635e-20)
(0.631165 0.0483144 -1.98731e-21)
(0.654805 0.046105 -4.76208e-20)
(0.677104 0.0440099 1.9453e-20)
(0.549934 0.0394712 8.26829e-21)
(0.578233 0.0377717 -2.27041e-20)
(0.604905 0.0361737 2.10897e-21)
(0.63005 0.0346707 -9.78015e-22)
(0.65375 0.0332541 1.20913e-20)
(0.676113 0.0319069 2.66754e-22)
(0.549157 0.0230726 -4.20157e-21)
(0.577499 0.0223422 5.5099e-21)
(0.604211 0.0216513 1.05521e-20)
(0.629394 0.0209967 7.72653e-22)
(0.653127 0.0203745 1.13019e-21)
(0.675523 0.0197769 4.86812e-21)
(0.548945 0.00665818 -4.99252e-21)
(0.577293 0.00689796 4.89923e-21)
(0.604011 0.0071151 1.08283e-20)
(0.629199 0.00730989 9.1003e-22)
(0.652937 0.00748323 7.87706e-22)
(0.675336 0.00763813 5.18411e-21)
(0.549296 -0.00975063 3.44843e-21)
(0.577614 -0.00854119 -1.8013e-20)
(0.604303 -0.00741644 5.29224e-21)
(0.629465 -0.0063726 -8.50758e-22)
(0.653181 -0.00540368 8.91586e-21)
(0.675556 -0.00449468 8.93017e-22)
(0.550211 -0.0261324 1.10303e-20)
(0.578461 -0.0239553 3.56678e-21)
(0.605088 -0.0219248 -2.73999e-20)
(0.630192 -0.0200337 1.59826e-21)
(0.653858 -0.018271 -3.83288e-20)
(0.676182 -0.0166122 8.39933e-21)
(0.579834 -0.0393244 5.03633e-20)
(0.606364 -0.0363914 4.54248e-20)
(0.631377 -0.0336562 -2.30342e-20)
(0.654966 -0.0311026 2.98712e-20)
(0.677208 -0.0286987 -6.48657e-22)
(0.58173 -0.0546288 -4.93965e-20)
(0.608128 -0.0507979 -8.63569e-21)
(0.63302 -0.0472226 -1.12326e-20)
(0.656503 -0.0438814 1.769e-20)
(0.678633 -0.0407356 -1.21664e-21)
(0.584146 -0.0698486 -5.04545e-21)
(0.610378 -0.0651257 -2.35632e-20)
(0.635117 -0.0607158 1.22621e-20)
(0.658467 -0.0565915 -1.02053e-19)
(0.680457 -0.0527082 3.58566e-20)
(0.587077 -0.0849643 6.55658e-20)
(0.613111 -0.0793567 1.71267e-20)
(0.637665 -0.0741187 2.50036e-20)
(0.660855 -0.0692168 5.73814e-20)
(0.682675 -0.064602 -2.98747e-20)
(0.59052 -0.0999566 5.40372e-20)
(0.616321 -0.0934728 -2.22579e-20)
(0.64066 -0.0874146 1.5679e-20)
(0.663663 -0.0817416 3.26357e-20)
(0.685286 -0.0764025 -1.18204e-20)
(0.594469 -0.114806 -1.03123e-19)
(0.620005 -0.107456 -1.32315e-20)
(0.644097 -0.100587 -2.96102e-20)
(0.666887 -0.0941501 -1.88503e-20)
(0.688285 -0.0880947 4.77413e-20)
(0.598918 -0.129495 6.69084e-20)
(0.624156 -0.121289 -7.51864e-20)
(0.647972 -0.113619 -1.60095e-20)
(0.670521 -0.106427 5.80766e-20)
(0.691668 -0.0996643 -4.6295e-20)
(0.603859 -0.144003 -1.33478e-19)
(0.628768 -0.134955 5.53284e-20)
(0.652278 -0.126495 7.42937e-20)
(0.67456 -0.118557 -1.32799e-19)
(0.695431 -0.111097 5.01696e-22)
(0.609286 -0.158313 1.15382e-19)
(0.633835 -0.148436 1.33611e-20)
(0.657008 -0.139198 -3.87077e-21)
(0.678998 -0.130525 6.39515e-21)
(0.699567 -0.122379 -8.22176e-20)
(0.61519 -0.172407 3.23092e-20)
(0.639347 -0.161715 -9.48876e-20)
(0.662156 -0.151714 -1.14714e-19)
(0.683829 -0.142317 1.30617e-19)
(0.704071 -0.133496 8.01809e-20)
(0.621561 -0.186267 -1.22784e-19)
(0.645297 -0.174777 2.81703e-20)
(0.667714 -0.164027 5.9551e-20)
(0.689044 -0.153918 -7.28941e-20)
(0.708937 -0.144434 -1.45595e-20)
(0.651676 -0.187605 7.5551e-20)
(0.673674 -0.176122 -8.61765e-20)
(0.694636 -0.165314 4.89426e-20)
(0.714158 -0.155182 6.92063e-20)
(0.658475 -0.200185 -4.90451e-21)
(0.680026 -0.187985 -3.77237e-21)
(0.700598 -0.176493 -7.01794e-20)
(0.719727 -0.165724 -1.61841e-19)
(0.665683 -0.2125 -2.2397e-20)
(0.686761 -0.199602 -7.92091e-20)
(0.706919 -0.18744 3.02266e-20)
(0.725635 -0.17605 1.50495e-19)
(0.673289 -0.224538 5.43907e-20)
(0.693869 -0.210959 1.13717e-19)
(0.713591 -0.198143 1.45448e-20)
(0.731876 -0.186146 -1.48623e-19)
(0.681282 -0.236282 -1.38061e-19)
(0.701341 -0.222044 -2.65962e-20)
(0.720605 -0.208589 -2.21825e-20)
(0.73844 -0.196001 9.41476e-20)
(0.709165 -0.232843 -4.35943e-21)
(0.72795 -0.218768 1.02768e-19)
(0.745319 -0.205604 4.82308e-20)
(0.717331 -0.243345 -5.18056e-20)
(0.735615 -0.228668 -6.09377e-21)
(0.752504 -0.214942 5.82788e-20)
(0.725825 -0.253539 -3.10099e-21)
(0.743591 -0.238277 -1.04071e-19)
(0.759985 -0.224006 -4.401e-20)
(0.734638 -0.263414 8.11782e-20)
(0.751866 -0.247587 7.73988e-20)
(0.767754 -0.232786 7.51876e-20)
(0.76043 -0.256587 -2.95448e-20)
(0.775799 -0.241272 -7.96988e-20)
(0.76927 -0.26527 -1.21058e-19)
(0.784113 -0.249454 5.4361e-20)
(0.778375 -0.273626 1.96703e-19)
(0.792684 -0.257325 4.14202e-20)
(0.801503 -0.264877 -2.6677e-20)
(0.810561 -0.272102 -1.11688e-19)
(0.819848 -0.278996 1.93814e-19)
(0.999954 0.00180092 0)
(0.998896 0.00579271 0)
(0.996792 0.0102498 0)
(0.994002 0.0152015 0)
(0.990397 0.0207157 0)
(0.986288 0.0268456 0)
(0.981474 0.0336764 0)
(0.976309 0.0412841 0)
(0.970529 0.0498169 0)
(0.964599 0.0593684 0)
(0.95818 0.0701644 0)
(0.951933 0.0822834 0)
(0.945396 0.0960351 0)
(0.939564 0.111413 0)
(0.933725 0.128834 0)
(0.929454 0.148053 0)
(0.925478 0.169715 0)
(0.924455 0.19295 0)
(0.923817 0.219186 -1.03534e-28)
(0.928417 0.245567 1.10166e-28)
(0.932773 0.277078 0)
(0.999955 0.00191824 0)
(0.998946 0.00613866 0)
(0.996936 0.0108118 0)
(0.994288 0.0159727 0)
(0.990869 0.0217048 0)
(0.987011 0.0280428 0)
(0.982503 0.0350984 0)
(0.977739 0.042907 0)
(0.972434 0.0516543 0)
(0.967113 0.0613624 0)
(0.961401 0.0723118 0)
(0.956051 0.0844591 0)
(0.950528 0.0982072 0)
(0.945973 0.113333 0)
(0.941517 0.130448 0)
(0.938978 0.148886 0)
(0.936756 0.169773 0)
(0.937931 0.191269 -4.47871e-29)
(0.939263 0.216161 4.76735e-29)
(0.946411 0.239 -5.58973e-29)
(0.952272 0.268642 5.94901e-29)
(0.999955 0.00203554 0)
(0.999001 0.00648342 0)
(0.997097 0.0113754 0)
(0.994608 0.0167475 0)
(0.991399 0.0227006 0)
(0.987821 0.0292475 0)
(0.983654 0.0365278 0)
(0.979324 0.044533 0)
(0.974531 0.0534876 0)
(0.969851 0.0633368 0)
(0.964872 0.0744202 0)
(0.960428 0.0865607 0)
(0.955909 0.100267 0)
(0.952571 0.115075 0)
(0.949411 0.13182 0)
(0.948404 0.149368 0)
(0.947717 0.169375 0)
(0.950628 0.189025 0)
(0.953531 0.212354 0)
(0.962254 0.231961 0)
(0.969225 0.25897 0)
(0.999955 0.00215094 0)
(0.999058 0.00682098 0)
(0.997269 0.0119261 0)
(0.994951 0.0175003 0)
(0.991969 0.0236616 0)
(0.988689 0.030401 0)
(0.984887 0.0378828 0)
(0.981015 0.0460573 0)
(0.97676 0.0551826 0)
(0.972738 0.0651319 0)
(0.968515 0.0762979 0)
(0.964968 0.0883779 0)
(0.961451 0.101979 0)
(0.959262 0.116414 0)
(0.95734 0.132724 0)
(0.957675 0.149365 0)
(0.958379 0.168436 0)
(0.962627 0.186396 0)
(0.966869 0.208093 0)
(0.976476 0.225177 0)
(0.984463 0.249552 0)
(0.999956 0.00226253 0)
(0.999119 0.00714492 0)
(0.99745 0.0124519 0)
(0.995311 0.0182133 0)
(0.992569 0.0245633 0)
(0.989597 0.0314713 0)
(0.986178 0.0391233 0)
(0.982772 0.0474291 0)
(0.979076 0.0566768 0)
(0.975712 0.0666695 0)
(0.972254 0.0778486 0)
(0.969578 0.0897914 0)
(0.967047 0.103197 0)
(0.965924 0.117172 0)
(0.96518 0.132941 0)
(0.966675 0.148625 0)
(0.968638 0.166652 0)
(0.973907 0.183019 0)
(0.979286 0.203001 0)
(0.989376 0.217967 0)
(0.998195 0.239817 0)
(0.999958 0.00236946 0)
(0.999182 0.00745263 0)
(0.99764 0.0129486 0)
(0.995683 0.0188808 0)
(0.993191 0.0253992 0)
(0.990534 0.0324505 0)
(0.987509 0.0402407 0)
(0.984572 0.0486388 0)
(0.981442 0.0579605 0)
(0.978725 0.06794 0)
(0.976028 0.079063 0)
(0.974182 0.0907948 0)
(0.972605 0.103914 0)
(0.972453 0.117353 0)
(0.972804 0.132478 0)
(0.97529 0.147167 0)
(0.978359 0.164052 0)
(0.984406 0.178904 0)
(0.990704 0.197131 0)
(1.00102 0.210214 0)
(1.01041 0.229646 0)
(0.99996 0.00247113 0)
(0.999246 0.00774258 0)
(0.997836 0.0134138 0)
(0.996065 0.0194997 0)
(0.993831 0.0261654 0)
(0.99149 0.0333342 0)
(0.988867 0.0412302 0)
(0.986395 0.0496823 0)
(0.983832 0.0590302 0)
(0.981741 0.0689434 0)
(0.979789 0.0799452 0)
(0.978721 0.0914022 0)
(0.978048 0.104155 0)
(0.978771 0.117002 0)
(0.980112 0.131398 0)
(0.983436 0.145083 0)
(0.987443 0.160767 0)
(0.99407 0.174195 0)
(1.00107 0.190684 0)
(1.01143 0.202087 0)
(1.02115 0.219249 0)
(0.999963 0.00256694 0)
(0.999312 0.0080132 0)
(0.998039 0.0138449 0)
(0.996455 0.0200665 0)
(0.994485 0.0268573 0)
(0.99246 0.0341172 0)
(0.990241 0.0420858 0)
(0.988225 0.050554 0)
(0.986223 0.0598811 0)
(0.984733 0.0696785 0)
(0.983495 0.0804974 0)
(0.983153 0.0916254 0)
(0.983317 0.103941 0)
(0.984818 0.116157 0)
(0.987033 0.129762 0)
(0.991053 0.142453 0)
(0.995831 0.156915 0)
(1.00287 0.169013 0)
(1.01038 0.183832 0)
(1.02063 0.193738 0)
(1.0305 0.208828 -5.22902e-30)
(0.999966 0.00265628 0)
(0.999379 0.00826288 0)
(0.998247 0.014239 0)
(0.996852 0.0205774 0)
(0.995149 0.0274701 0)
(0.993437 0.0347942 0)
(0.991621 0.0428019 0)
(0.99005 0.0512492 0)
(0.988592 0.0605093 0)
(0.987676 0.0701453 0)
(0.987114 0.0807239 0)
(0.987439 0.0914776 0)
(0.988364 0.103296 0)
(0.990549 0.114854 0)
(0.993518 0.127626 0)
(0.998103 0.139344 0)
(1.00349 0.152593 0)
(1.0108 0.163455 0)
(1.01865 0.176698 0)
(1.02868 0.185276 0)
(1.03855 0.198498 0)
(0.99997 0.00273857 0)
(0.999448 0.00849005 0)
(0.998458 0.0145934 0)
(0.997252 0.0210291 0)
(0.995816 0.0279996 0)
(0.994415 0.0353609 0)
(0.992996 0.0433739 0)
(0.991857 0.0517649 0)
(0.990922 0.0609136 0)
(0.990547 0.0703473 0)
(0.990615 0.0806337 0)
(0.991549 0.0909758 0)
(0.993153 0.102249 0)
(0.995931 0.113134 0)
(0.999534 0.12505 0)
(1.00457 0.135823 0)
(1.01042 0.147889 0)
(1.01788 0.157604 0)
(1.02592 0.169384 0)
(1.03565 0.176782 0)
(1.04541 0.188333 0)
(0.999974 0.00281323 0)
(0.999517 0.0086933 0)
(0.99867 0.0149057 0)
(0.997654 0.0214187 0)
(0.996483 0.0284423 0)
(0.995387 0.0358141 0)
(0.994354 0.043799 0)
(0.993632 0.0521003 0)
(0.993194 0.0610955 0)
(0.993327 0.0702904 0)
(0.993972 0.0802394 0)
(0.995456 0.0901402 0)
(0.997656 0.100833 0)
(1.00094 0.111037 0)
(1.00506 0.122091 0)
(1.01043 0.131954 0)
(1.01662 0.142887 0)
(1.02412 0.151542 0)
(1.03223 0.161976 0)
(1.04161 0.168327 0)
(1.05116 0.178387 0)
(0.999978 0.00287973 0)
(0.999587 0.00887136 0)
(0.998882 0.0151738 0)
(0.998054 0.0217435 0)
(0.997145 0.0287951 0)
(0.996348 0.0361513 0)
(0.995685 0.0440756 0)
(0.995363 0.0522558 0)
(0.995391 0.061059 0)
(0.995995 0.0699831 0)
(0.997164 0.0795565 0)
(0.999136 0.0889932 0)
(1.00185 0.0990808 0)
(1.00555 0.108606 0)
(1.01009 0.118807 1.91744e-28)
(1.0157 0.1278 -2.0414e-28)
(1.02212 0.137659 0)
(1.02957 0.145339 0)
(1.03765 0.154544 -3.12677e-29)
(1.04663 0.15997 5.14661e-30)
(1.05591 0.168705 2.99427e-29)
(0.999982 0.00293757 0)
(0.999657 0.00902307 0)
(0.999092 0.0153956 0)
(0.998451 0.0220015 0)
(0.997795 0.029056 0)
(0.997289 0.0363712 0)
(0.996981 0.0442036 0)
(0.997036 0.0522336 0)
(0.997498 0.0608101 0)
(0.998534 0.0694357 0)
(1.00017 0.0786032 0)
(1.00257 0.0875592 0)
(1.00572 0.0970291 0)
(1.00976 0.105882 0)
(1.01462 0.115252 0)
(1.02038 0.123418 0)
(1.02692 0.132271 0)
(1.03427 0.139059 0)
(1.04223 0.147149 0)
(1.0508 0.15176 0)
(1.05974 0.159319 0)
(0.999985 0.00298632 0)
(0.999726 0.00914748 0)
(0.999299 0.0155697 0)
(0.998841 0.022191 0)
(0.99843 0.0292236 0)
(0.998204 0.0364731 0)
(0.998232 0.0441842 0)
(0.998642 0.0520373 0)
(0.999501 0.0603567 0)
(1.00093 0.0686603 0)
(1.00298 0.077399 0)
(1.00575 0.0858636 0)
(1.00926 0.094713 0)
(1.01356 0.102908 0)
(1.01865 0.111477 0)
(1.0245 0.118863 0)
(1.03107 0.12678 0)
(1.03826 0.132756 0)
(1.04604 0.139839 0)
(1.05417 0.143734 0)
(1.06275 0.150256 0)
(0.999988 0.00302562 0)
(0.999795 0.00924379 0)
(0.999501 0.0156949 0)
(0.999221 0.0223111 0)
(0.999045 0.0292973 0)
(0.999086 0.0364575 0)
(0.999428 0.0440202 0)
(1.00017 0.051672 0)
(1.00139 0.0597086 0)
(1.00317 0.067671 0)
(1.00558 0.075965 0)
(1.00865 0.0839331 0)
(1.01245 0.0921674 0)
(1.01696 0.0997234 0)
(1.0222 0.107528 0)
(1.02806 0.114182 0)
(1.03461 0.121236 0)
(1.04159 0.126475 0)
(1.04914 0.132654 0)
(1.05682 0.135922 0)
(1.06502 0.14153 0)
(0.999991 0.00305519 0)
(0.999863 0.00931138 0)
(0.999697 0.0157706 0)
(0.999589 0.022361 0)
(0.999637 0.0292775 0)
(0.99993 0.036326 0)
(1.00056 0.0437154 0)
(1.00161 0.0511442 0)
(1.00315 0.0588767 0)
(1.00524 0.0664828 0)
(1.00795 0.074323 0)
(1.01128 0.0817946 0)
(1.01531 0.0894261 0)
(1.01995 0.0963663 0)
(1.02527 0.103448 0)
(1.0311 0.109421 0)
(1.03756 0.115682 0)
(1.0443 0.120256 0)
(1.05158 0.125627 0)
(1.05883 0.128347 0)
(1.06662 0.133152 0)
(0.999993 0.00307485 0)
(0.999928 0.00934985 0)
(0.999885 0.0157963 0)
(0.999942 0.0223409 0)
(1.0002 0.0291653 0)
(1.00073 0.0360808 0)
(1.00163 0.0432749 0)
(1.00295 0.0504616 0)
(1.00478 0.0578735 0)
(1.00713 0.0651123 0)
(1.0101 0.072495 0)
(1.01363 0.079475 0)
(1.01782 0.0865213 0)
(1.02254 0.0928729 0)
(1.02789 0.099275 0)
(1.03364 0.104617 0)
(1.03996 0.110155 0)
(1.04643 0.114132 0)
(1.05342 0.118781 0)
(1.06024 0.121026 0)
(1.06762 0.125126 8.72663e-30)
(0.999995 0.00308449 0)
(0.999991 0.009359 0)
(1.00006 0.0157723 0)
(1.00028 0.0222513 0)
(1.00073 0.0289627 0)
(1.00148 0.0357255 0)
(1.00262 0.0427051 0)
(1.00419 0.0496333 0)
(1.00627 0.0567122 0)
(1.00884 0.0635767 0)
(1.01201 0.0705034 0)
(1.0157 0.0770009 0)
(1.02 0.083484 0)
(1.02475 0.0892765 0)
(1.03008 0.0950446 0)
(1.03571 0.0998059 0)
(1.04185 0.104686 -5.81449e-29)
(1.04805 0.108129 6.1897e-29)
(1.05472 0.112138 0)
(1.06111 0.113971 0)
(1.06808 0.117453 0)
(0.999997 0.00308412 0)
(1.00005 0.00933887 0)
(1.00023 0.0156991 0)
(1.00059 0.0220935 0)
(1.00123 0.0286723 0)
(1.00218 0.0352644 0)
(1.00354 0.0420129 0)
(1.00532 0.0486693 0)
(1.00761 0.0554068 0)
(1.01037 0.0618936 0)
(1.0137 0.0683704 0)
(1.0175 0.0743979 0)
(1.02186 0.080343 0)
(1.0266 0.0856082 0)
(1.03186 0.0907879 0)
(1.03734 0.0950167 0)
(1.04327 0.0993024 0)
(1.04918 0.102269 0)
(1.05553 0.105711 0)
(1.06151 0.107188 0)
(1.06807 0.110131 0)
(0.999999 0.00307382 0)
(1.00011 0.00928974 0)
(1.00039 0.0155776 0)
(1.00089 0.0218691 0)
(1.00169 0.0282976 0)
(1.00282 0.0347027 0)
(1.00437 0.0412065 0)
(1.00633 0.0475804 0)
(1.0088 0.0539717 0)
(1.01171 0.0600813 0)
(1.01516 0.0661175 0)
(1.01902 0.071691 0)
(1.0234 0.0771255 0)
(1.0281 0.0818961 0)
(1.03326 0.0865328 0)
(1.03856 0.0902758 0)
(1.04427 0.0940261 0)
(1.04988 0.0965694 0)
(1.05589 0.0995112 -1.136e-29)
(1.06148 0.100682 2.03653e-30)
(1.06765 0.103156 1.07012e-29)
(1 0.00305377 0)
(1.00016 0.00921214 0)
(1.00054 0.0154093 0)
(1.00116 0.0215805 0)
(1.00211 0.0278425 0)
(1.0034 0.0340463 0)
(1.00512 0.0402944 0)
(1.00724 0.0463781 0)
(1.00984 0.0524218 0)
(1.01287 0.0581576 0)
(1.01639 0.063766 0)
(1.02029 0.0689035 0)
(1.02465 0.0738565 0)
(1.02927 0.0781657 0)
(1.03429 0.0823037 0)
(1.0394 0.0856055 0)
(1.04486 0.0888756 0)
(1.05018 0.0910446 0)
(1.05586 0.0935464 0)
(1.06107 0.0944554 0)
(1.06685 0.0965212 0)
(1 0.00302424 0)
(1.00021 0.00910684 0)
(1.00067 0.015196 0)
(1.00141 0.0212306 0)
(1.00249 0.0273119 0)
(1.00392 0.0333019 0)
(1.00577 0.0392859 0)
(1.00803 0.0450744 0)
(1.01074 0.0507721 0)
(1.01385 0.0561403 0)
(1.01741 0.0613359 0)
(1.0213 0.0660576 0)
(1.02561 0.070559 0)
(1.03012 0.07444 0)
(1.03499 0.0781221 0)
(1.03989 0.0810248 9.03684e-29)
(1.0451 0.0838659 -9.62056e-29)
(1.05012 0.0857051 0)
(1.05547 0.0878213 0)
(1.06032 0.0885075 0)
(1.06572 0.0902201 0)
(1 0.00298557 0)
(1.00025 0.00897485 0)
(1.0008 0.0149397 0)
(1.00163 0.0208229 0)
(1.00282 0.0267108 0)
(1.00437 0.0324767 0)
(1.00635 0.0381906 0)
(1.0087 0.0436815 0)
(1.01149 0.0490373 0)
(1.01465 0.0540468 0)
(1.01822 0.0588466 0)
(1.02208 0.063174 0)
(1.02631 0.0672539 0)
(1.0307 0.0707395 0)
(1.03539 0.0740065 0)
(1.04007 0.0765498 0)
(1.04502 0.0790091 0)
(1.04975 0.0805588 0)
(1.05478 0.0823383 0)
(1.05928 0.0828361 0)
(1.06432 0.0842439 0)
(1 0.00293817 0)
(1.00029 0.00881743 0)
(1.0009 0.0146429 0)
(1.00182 0.0203611 0)
(1.00312 0.026045 0)
(1.00477 0.0315785 0)
(1.00683 0.0370186 0)
(1.00926 0.0422118 0)
(1.0121 0.0472321 0)
(1.01528 0.0518938 0)
(1.01884 0.0563163 0)
(1.02264 0.0602717 0)
(1.02676 0.0639602 0)
(1.031 0.0670822 0)
(1.03551 0.069973 0)
(1.03997 0.0721939 0)
(1.04465 0.0743144 0)
(1.04909 0.0756113 0)
(1.05381 0.0770979 0)
(1.05798 0.0774376 0)
(1.06268 0.0785833 -1.23117e-29)
(1 0.00288252 0)
(1.00033 0.00863603 0)
(1.001 0.0143084 0)
(1.00199 0.0198495 0)
(1.00337 0.0253204 0)
(1.0051 0.0306151 0)
(1.00723 0.03578 -9.77077e-30)
(1.00971 0.0406776 1.04049e-29)
(1.01258 0.0453709 0)
(1.01575 0.0496972 0)
(1.01926 0.0537619 4.59689e-29)
(1.02298 0.0573681 -4.89481e-29)
(1.02699 0.0606948 0)
(1.03107 0.063484 0)
(1.03538 0.0660349 0)
(1.03961 0.0679678 0)
(1.04403 0.0697892 0)
(1.04819 0.0708661 0)
(1.0526 0.0720989 0)
(1.05647 0.0723072 0)
(1.06083 0.0732287 0)
(1 0.00281917 0)
(1.00036 0.00843231 0)
(1.00108 0.0139391 0)
(1.00214 0.0192926 0)
(1.00358 0.0245433 0)
(1.00537 0.029595 0)
(1.00755 0.034485 0)
(1.01005 0.0390912 0)
(1.01293 0.0434675 0)
(1.01607 0.0474722 0)
(1.01952 0.0511991 0)
(1.02314 0.0544792 0)
(1.02701 0.0574727 0)
(1.03092 0.0599585 0)
(1.03502 0.0622038 0)
(1.03902 0.0638803 0)
(1.04319 0.0654384 0)
(1.04707 0.066325 0)
(1.05119 0.067339 0)
(1.05477 0.067439 0)
(1.05882 0.0681697 0)
(1 0.00274869 0)
(1.00038 0.00820809 6.60136e-30)
(1.00114 0.0135383 -7.03026e-30)
(1.00225 0.0186952 0)
(1.00374 0.0237203 0)
(1.00558 0.0285263 0)
(1.00778 0.0331437 0)
(1.0103 0.0374643 0)
(1.01315 0.0415349 0)
(1.01624 0.045233 0)
(1.01961 0.0486425 0)
(1.02312 0.0516193 0)
(1.02684 0.0543071 0)
(1.03057 0.0565174 0)
(1.03446 0.0584887 0)
(1.03824 0.059938 0)
(1.04215 0.0612655 0)
(1.04578 0.0619881 0)
(1.04961 0.0628145 -1.75606e-29)
(1.05292 0.0628267 2.50236e-30)
(1.05667 0.0633959 1.72294e-29)
(1.00001 0.00267174 0)
(1.0004 0.00796533 0)
(1.0012 0.0131094 0)
(1.00235 0.0180623 0)
(1.00387 0.022858 0)
(1.00573 0.0274176 0)
(1.00795 0.0317661 0)
(1.01045 0.0358083 0)
(1.01326 0.0395856 0)
(1.01629 0.0429927 0)
(1.01956 0.0461052 0)
(1.02294 0.0488009 0)
(1.0265 0.0512095 0)
(1.03006 0.0531705 0)
(1.03373 0.0548973 0)
(1.03729 0.056146 0)
(1.04095 0.0572722 0)
(1.04433 0.0578546 0)
(1.04788 0.0585209 0)
(1.05094 0.0584628 0)
(1.05441 0.0588964 0)
(1.00001 0.00258898 0)
(1.00042 0.0077061 0)
(1.00124 0.0126559 0)
(1.00241 0.0173991 0)
(1.00396 0.021963 0)
(1.00583 0.026277 0)
(1.00804 0.0303618 0)
(1.01051 0.0341343 0)
(1.01327 0.0376313 0)
(1.01622 0.0407633 0)
(1.01937 0.043599 0)
(1.02262 0.0460355 0)
(1.02601 0.0481898 0)
(1.02939 0.0499262 0)
(1.03286 0.0514352 0)
(1.03619 0.0525077 0)
(1.03961 0.053459 0)
(1.04275 0.0539222 0)
(1.04605 0.0544527 0)
(1.04887 0.0543397 0)
(1.05207 0.0546602 0)
(1.00001 0.0025011 0)
(1.00043 0.00743255 0)
(1.00126 0.0121814 0)
(1.00246 0.0167105 0)
(1.00401 0.0210421 0)
(1.00588 0.0251127 0)
(1.00806 0.0289402 0)
(1.0105 0.0324524 0)
(1.01318 0.0356829 0)
(1.01604 0.038556 0)
(1.01907 0.0411346 0)
(1.02218 0.0433327 0)
(1.0254 0.0452562 0)
(1.02859 0.0467908 0)
(1.03185 0.0481069 0)
(1.03497 0.0490251 0)
(1.03816 0.0498251 0)
(1.04108 0.0501877 0)
(1.04413 0.050604 0)
(1.04673 0.0504492 0)
(1.04967 0.0506764 -9.58169e-30)
(1.00001 0.00240883 0)
(1.00044 0.00714687 0)
(1.00128 0.0116896 0)
(1.00248 0.0160018 0)
(1.00403 0.0201015 0)
(1.00588 0.0239325 0)
(1.00803 0.0275101 0)
(1.0104 0.0307723 0)
(1.01301 0.0337503 5.24925e-29)
(1.01576 0.0363806 -5.58973e-29)
(1.01867 0.0387212 0)
(1.02163 0.0407009 0)
(1.02468 0.0424157 0)
(1.02768 0.0437697 0)
(1.03074 0.0449153 0)
(1.03366 0.045699 0)
(1.03662 0.0463689 0)
(1.03932 0.0466473 0)
(1.04214 0.0469681 0)
(1.04454 0.0467828 0)
(1.04725 0.0469338 0)
(1.00001 0.00231288 0)
(1.00044 0.00685121 0)
(1.00129 0.0111839 0)
(1.00248 0.015278 0)
(1.00402 0.0191478 0)
(1.00584 0.0227438 0)
(1.00794 0.0260798 0)
(1.01025 0.029103 0)
(1.01276 0.0318426 0)
(1.0154 0.0342459 0)
(1.01818 0.0363671 0)
(1.02098 0.0381472 0)
(1.02386 0.0396738 0)
(1.02669 0.0408666 0)
(1.02955 0.0418622 0)
(1.03226 0.0425292 0)
(1.03501 0.0430876 0)
(1.03752 0.0432963 0)
(1.04012 0.043538 0)
(1.04232 0.0433319 0)
(1.04481 0.0434215 0)
(1.00001 0.00221397 0)
(1.00044 0.00654772 0)
(1.00128 0.010668 0)
(1.00247 0.0145439 0)
(1.00398 0.0181869 0)
(1.00576 0.0215536 0)
(1.0078 0.024657 0)
(1.01003 0.0274524 0)
(1.01245 0.0299677 0)
(1.01497 0.0321598 0)
(1.01761 0.034079 0)
(1.02026 0.0356774 0)
(1.02297 0.0370348 0)
(1.02562 0.0380842 0)
(1.02829 0.0389482 0)
(1.03081 0.0395145 0)
(1.03336 0.039978 0)
(1.03567 0.0401294 0)
(1.03807 0.0403064 -1.78203e-29)
(1.04009 0.0400874 1.73059e-30)
(1.04237 0.0401283 1.83449e-29)
(1.00001 0.00211279 0)
(1.00044 0.00623854 0)
(1.00127 0.0101454 0)
(1.00243 0.0138042 0)
(1.00391 0.0172246 0)
(1.00565 0.0203686 0)
(1.00762 0.0232489 0)
(1.00977 0.0258281 0)
(1.01208 0.0281331 0)
(1.01448 0.030129 0)
(1.01698 0.0318629 0)
(1.01948 0.0332963 0)
(1.02202 0.0345018 0)
(1.0245 0.0354242 0)
(1.02698 0.0361731 0)
(1.02932 0.0366528 0)
(1.03168 0.037036 0)
(1.03381 0.0371411 0)
(1.03602 0.0372656 0)
(1.03787 0.0370406 0)
(1.03996 0.0370436 0)
(1.00001 0.00201004 0)
(1.00043 0.00592574 0)
(1.00125 0.00961925 0)
(1.00239 0.0130634 0)
(1.00382 0.0162662 0)
(1.0055 0.0191949 0)
(1.0074 0.0218619 0)
(1.00946 0.0242366 0)
(1.01166 0.0263448 0)
(1.01394 0.0281591 0)
(1.0163 0.0297235 0)
(1.01865 0.0310073 0)
(1.02103 0.0320771 0)
(1.02334 0.0328872 0)
(1.02564 0.0335358 0)
(1.02781 0.0339415 0)
(1.02999 0.0342571 0)
(1.03195 0.0343253 0)
(1.03398 0.0344079 0)
(1.03568 0.0341822 0)
(1.03759 0.0341565 0)
(1.00001 0.00190638 0)
(1.00043 0.00561132 0)
(1.00122 0.00909282 0)
(1.00233 0.0123257 0)
(1.00372 0.0153167 0)
(1.00533 0.018038 0)
(1.00716 0.0205018 0)
(1.00912 0.0226836 0)
(1.01121 0.0246084 0)
(1.01336 0.0262549 0)
(1.01558 0.0276645 0)
(1.01778 0.0288133 0)
(1.02 0.0297618 0)
(1.02215 0.0304729 0)
(1.02429 0.0310344 0)
(1.0263 0.0313771 0)
(1.0283 0.0316363 0)
(1.03011 0.0316755 0)
(1.03196 0.0317253 0)
(1.03352 0.0315034 0)
(1.03527 0.0314568 -1.11973e-29)
(1.00001 0.00180246 0)
(1.00041 0.00529713 0)
(1.00118 0.00856902 0)
(1.00225 0.0115949 0)
(1.00359 0.0143806 0)
(1.00515 0.0169028 0)
(1.00688 0.0191738 0)
(1.00875 0.0211742 0)
(1.01072 0.0229283 0)
(1.01275 0.0244203 0)
(1.01483 0.0256888 0)
(1.01689 0.0267157 0)
(1.01896 0.0275564 0)
(1.02095 0.0281803 0)
(1.02293 0.0286664 0)
(1.02478 0.0289558 0)
(1.02662 0.0291681 0)
(1.02829 0.0291852 0)
(1.02999 0.0292097 0)
(1.03141 0.0289952 0)
(1.03301 0.028934 0)
(1.00001 0.00169887 0)
(1.0004 0.00498493 0)
(1.00114 0.00805056 0)
(1.00217 0.0108745 0)
(1.00346 0.0134621 0)
(1.00494 0.0157938 0)
(1.00659 0.0178822 0)
(1.00836 0.0197125 0)
(1.01022 0.0213082 0)
(1.01212 0.0226581 0)
(1.01407 0.0237984 0)
(1.01599 0.0247156 0)
(1.01791 0.0254602 0)
(1.01975 0.0260078 0)
(1.02158 0.0264288 0)
(1.02329 0.0266733 0)
(1.02498 0.026847 0)
(1.02651 0.0268477 0)
(1.02806 0.0268532 0)
(1.02937 0.0266488 -4.35604e-30)
(1.03082 0.0265783 4.63604e-30)
(1.00001 0.00159614 0)
(1.00039 0.00467629 0)
(1.0011 0.00753992 0)
(1.00209 0.0101677 0)
(1.00331 0.0125646 0)
(1.00472 0.0147148 0)
(1.00628 0.0166309 0)
(1.00795 0.0183019 0)
(1.0097 0.019751 0)
(1.01148 0.0209704 0)
(1.01329 0.0219943 0)
(1.01508 0.0228129 0)
(1.01686 0.0234724 0)
(1.01857 0.0239531 0)
(1.02025 0.0243179 0)
(1.02182 0.0245249 0)
(1.02337 0.0246669 0)
(1.02477 0.024656 0)
(1.02619 0.0246479 -8.27641e-30)
(1.02739 0.0244556 8.80918e-30)
(1.02871 0.02438 0)
(1.00001 0.00149479 0)
(1.00037 0.00437266 0)
(1.00105 0.00703929 0)
(1.00199 0.00947729 0)
(1.00316 0.0116914 0)
(1.00449 0.013669 0)
(1.00597 0.0154228 0)
(1.00753 0.0169453 0)
(1.00917 0.0182587 0)
(1.01084 0.0193587 0)
(1.01252 0.020277 0)
(1.01418 0.0210071 0)
(1.01582 0.0215911 0)
(1.0174 0.0220133 0)
(1.01895 0.02233 0)
(1.02039 0.0225055 0)
(1.02181 0.0226219 0)
(1.02309 0.0226032 0)
(1.02439 0.0225857 0)
(1.02548 0.0224069 0)
(1.02668 0.0223296 -6.8037e-30)
(1.00001 0.00139526 0)
(1.00036 0.0040753 0)
(1.001 0.00655059 0)
(1.0019 0.00880562 0)
(1.003 0.010845 0)
(1.00426 0.012659 0)
(1.00565 0.0142604 0)
(1.00711 0.0156445 0)
(1.00864 0.0168329 0)
(1.01019 0.0178235 0)
(1.01175 0.0186462 0)
(1.01329 0.019297 0)
(1.01481 0.0198141 0)
(1.01626 0.0201852 0)
(1.01768 0.0204605 0)
(1.01901 0.0206099 0)
(1.02031 0.0207057 0)
(1.02148 0.0206823 0)
(1.02266 0.020659 0)
(1.02366 0.0204944 0)
(1.02475 0.0204181 0)
(1.00001 0.00129792 0)
(1.00034 0.00378531 0)
(1.00095 0.00607547 0)
(1.0018 0.00815471 0)
(1.00284 0.0100277 0)
(1.00402 0.011687 0)
(1.00532 0.0131455 0)
(1.00669 0.014401 0)
(1.00812 0.015474 0)
(1.00956 0.0163648 0)
(1.011 0.017101 0)
(1.01242 0.0176807 0)
(1.01382 0.0181385 0)
(1.01515 0.0184651 0)
(1.01646 0.0187049 0)
(1.01767 0.0188327 0)
(1.01886 0.0189121 0)
(1.01993 0.0188864 0)
(1.02101 0.01886 0)
(1.02192 0.0187101 0)
(1.02291 0.0186368 0)
(1.00001 0.00120312 0)
(1.00032 0.00350362 0)
(1.0009 0.00561529 0)
(1.0017 0.00752618 0)
(1.00268 0.00924097 0)
(1.00379 0.0107545 0)
(1.005 0.0120794 0)
(1.00628 0.0132155 0)
(1.0076 0.0141824 0)
(1.00893 0.014982 0)
(1.01027 0.01564 0)
(1.01158 0.016156 0)
(1.01286 0.0165613 0)
(1.01409 0.0168489 0)
(1.01528 0.0170583 0)
(1.0164 0.0171684 0)
(1.01748 0.0172347 0)
(1.01846 0.0172087 0)
(1.01944 0.0171812 1.1123e-29)
(1.02027 0.0170461 -4.70428e-31)
(1.02117 0.0169771 -1.20993e-29)
(1.00001 0.00111112 0)
(1.0003 0.00323096 0)
(1.00085 0.00517111 0)
(1.0016 0.00692126 0)
(1.00252 0.00848615 0)
(1.00355 0.00986247 0)
(1.00468 0.0110626 0)
(1.00587 0.012088 0)
(1.0071 0.0129574 0)
(1.00833 0.0136739 0)
(1.00956 0.0142611 0)