/*--------------------------------*- C++ -*----------------------------------*\
  =========                 |
  \\      /  F ield         | OpenFOAM: The Open Source CFD Toolbox
   \\    /   O peration     | Website:  https://openfoam.org
    \\  /    A nd           | Version:  7
     \\/     M anipulation  |
\*---------------------------------------------------------------------------*/
FoamFile
{
    version     2.0;
    format      ascii;
    class       volVectorField;
    location    "60";
    object      U;
}
// * * * * * * * * * * * * * * * * * * * * * * * * * * * * * * * * * * * * * //

dimensions      [0 1 -1 0 0 0 0];

internalField   nonuniform List<vector> 
4575
(
(0.760071 0.290346 -9.76465e-23)
(0.78709 0.317549 7.06623e-23)
(0.794158 0.317385 -7.8132e-23)
(0.757565 0.325231 -5.21071e-23)
(0.689838 0.3364 -9.5795e-23)
(0.638326 0.311244 -1.54038e-23)
(0.641349 0.221855 4.31978e-23)
(0.682628 0.0928204 6.77516e-23)
(0.738612 -0.0332987 -2.7996e-23)
(0.785358 -0.130883 -6.08573e-23)
(0.824124 -0.181937 -1.68756e-23)
(0.843977 -0.204555 5.51948e-23)
(0.834416 -0.205978 7.70011e-24)
(0.785214 -0.221251 -3.02796e-23)
(0.729337 -0.213751 1.99556e-23)
(0.697618 -0.184004 7.60038e-24)
(0.715616 -0.110859 -4.90549e-24)
(0.753495 -0.0234147 -3.37213e-24)
(0.798859 0.0358112 -1.11173e-23)
(0.826441 0.101579 -6.49629e-24)
(0.833971 0.0977393 7.70976e-25)
(0.814096 0.144692 -2.0729e-23)
(0.770464 0.108455 -1.2622e-23)
(0.756229 0.288298 5.70736e-23)
(0.784157 0.316481 -2.18233e-22)
(0.790722 0.318279 3.63553e-23)
(0.752843 0.328295 -1.45958e-22)
(0.685386 0.339799 4.65261e-23)
(0.636291 0.312578 -1.3246e-22)
(0.642201 0.220616 -1.51214e-22)
(0.685383 0.0901924 -2.49923e-22)
(0.742279 -0.036011 8.85108e-24)
(0.788992 -0.133092 1.51224e-22)
(0.827136 -0.183432 -1.05648e-22)
(0.847302 -0.204836 -6.19659e-23)
(0.838658 -0.204564 2.86921e-24)
(0.790504 -0.218707 5.47391e-24)
(0.733157 -0.211633 -1.36875e-23)
(0.698997 -0.183614 -2.26028e-23)
(0.71378 -0.112085 1.17551e-22)
(0.750264 -0.0252595 -5.96287e-23)
(0.794926 0.0342289 -1.27708e-22)
(0.82153 0.100824 4.33255e-23)
(0.829314 0.0980046 -6.78249e-23)
(0.807707 0.146 -2.62719e-23)
(0.766707 0.109307 2.55829e-23)
(0.752493 0.286169 -3.20202e-22)
(0.781253 0.315395 4.16968e-23)
(0.78724 0.319223 7.29683e-23)
(0.748111 0.331381 3.52367e-22)
(0.681038 0.343122 1.95322e-23)
(0.634415 0.313789 6.4212e-22)
(0.643175 0.219288 -6.59502e-23)
(0.688233 0.0875351 4.54871e-22)
(0.746037 -0.0387095 -3.45148e-22)
(0.792713 -0.13526 -1.53867e-22)
(0.830178 -0.184908 2.96259e-22)
(0.85057 -0.205145 1.39902e-22)
(0.842817 -0.203199 9.53782e-23)
(0.795785 -0.216156 1.92061e-23)
(0.737098 -0.209428 1.63114e-23)
(0.700564 -0.1831 4.4006e-23)
(0.712088 -0.113214 -1.23432e-22)
(0.747101 -0.0270638 4.26989e-23)
(0.790988 0.0326792 1.64112e-22)
(0.816561 0.100084 5.55036e-23)
(0.824607 0.0982995 7.35287e-23)
(0.80132 0.147289 9.34421e-23)
(0.763091 0.110105 -2.04921e-23)
(0.748865 0.28396 4.56028e-22)
(0.778377 0.314294 -4.30141e-22)
(0.783713 0.320215 -4.87349e-23)
(0.743372 0.334482 -5.53295e-23)
(0.6768 0.346366 -7.26857e-23)
(0.632697 0.314876 -2.57041e-22)
(0.644268 0.217877 2.24728e-22)
(0.691176 0.0848501 -5.37106e-22)
(0.749881 -0.0413937 1.19405e-22)
(0.796519 -0.137387 3.09136e-22)
(0.833253 -0.186361 -4.17743e-22)
(0.853784 -0.205479 -2.12586e-22)
(0.846891 -0.201884 -2.75052e-23)
(0.801049 -0.213603 7.37883e-23)
(0.741155 -0.207142 -4.40739e-23)
(0.702317 -0.182464 8.09348e-24)
(0.710544 -0.114244 2.11247e-22)
(0.744008 -0.028824 -9.0202e-23)
(0.787045 0.0311649 6.97632e-23)
(0.811539 0.0993584 -7.50153e-23)
(0.819855 0.0986223 -5.25022e-23)
(0.794946 0.148555 4.89931e-23)
(0.759624 0.110846 4.93584e-24)
(0.745345 0.281673 -7.99457e-23)
(0.775524 0.313181 6.37635e-22)
(0.78014 0.321256 -8.71139e-24)
(0.738635 0.337594 2.63895e-22)
(0.672675 0.349525 -2.89588e-22)
(0.631133 0.315843 -1.2971e-22)
(0.645475 0.216385 1.57266e-22)
(0.694207 0.0821391 5.63992e-22)
(0.753806 -0.0440634 5.15831e-22)
(0.800407 -0.139471 -9.68637e-22)
(0.836365 -0.187787 6.55589e-22)
(0.856948 -0.205836 2.99997e-22)
(0.850877 -0.200621 -2.09819e-23)
(0.80629 -0.211054 1.12632e-23)
(0.745322 -0.204779 1.0902e-22)
(0.704256 -0.181705 -1.01408e-22)
(0.709153 -0.115172 -1.72117e-22)
(0.740988 -0.0305365 1.94293e-22)
(0.783099 0.0296887 -5.7296e-23)
(0.806468 0.0986489 -8.72693e-23)
(0.815066 0.0989716 5.3913e-23)
(0.788596 0.149792 -8.36473e-23)
(0.756313 0.111527 5.37483e-23)
(0.741935 0.279311 5.59879e-22)
(0.77269 0.312059 -7.44743e-22)
(0.776522 0.322342 -1.05154e-22)
(0.733905 0.340709 -2.73663e-23)
(0.668667 0.352596 7.44836e-22)
(0.629721 0.316691 -5.09434e-22)
(0.646795 0.214816 -2.81247e-22)
(0.697323 0.079404 -2.11869e-22)
(0.757808 -0.0467183 7.49592e-22)
(0.804375 -0.141511 4.91172e-22)
(0.839517 -0.189185 8.3082e-23)
(0.860066 -0.206213 -2.30959e-22)
(0.854775 -0.199412 2.63401e-22)
(0.8115 -0.208515 -7.30013e-23)
(0.749591 -0.202344 -1.61314e-22)
(0.706379 -0.180825 4.23919e-23)
(0.707919 -0.115994 -1.96302e-23)
(0.738043 -0.0321975 -6.42323e-23)
(0.779152 0.0282531 -9.2383e-23)
(0.801351 0.0979558 3.78038e-23)
(0.810246 0.0993454 5.51857e-23)
(0.782285 0.150999 -2.52232e-24)
(0.753166 0.112144 -4.08246e-23)
(0.738632 0.276876 8.32161e-22)
(0.769873 0.310932 1.12813e-21)
(0.772863 0.323472 1.29486e-21)
(0.729188 0.343822 -2.07544e-22)
(0.664781 0.355577 -6.09702e-22)
(0.62846 0.317421 2.58664e-23)
(0.648224 0.213173 3.73941e-22)
(0.70052 0.0766464 -2.22194e-22)
(0.76188 -0.0493582 -7.04445e-22)
(0.80842 -0.143507 -2.35676e-23)
(0.842711 -0.190551 -6.74993e-22)
(0.86314 -0.206608 2.91214e-22)
(0.858583 -0.198257 -4.79517e-23)
(0.816673 -0.205989 -7.82205e-23)
(0.753955 -0.199842 1.48889e-22)
(0.708684 -0.179824 -9.33621e-23)
(0.706846 -0.116709 1.61655e-23)
(0.735177 -0.0338035 2.20333e-23)
(0.775207 0.0268609 1.6537e-22)
(0.796195 0.0972796 -9.45395e-23)
(0.805403 0.099742 -7.50915e-23)
(0.776025 0.152169 -7.28425e-23)
(0.750191 0.112697 -4.50037e-23)
(0.735436 0.274371 -1.07675e-21)
(0.767069 0.3098 4.80277e-22)
(0.769162 0.324643 -4.68665e-22)
(0.724491 0.346926 -1.0138e-21)
(0.661018 0.358463 -1.08268e-22)
(0.627347 0.318037 4.95759e-22)
(0.649761 0.211461 -5.0057e-23)
(0.703794 0.0738681 8.00689e-22)
(0.766018 -0.051983 -8.7311e-22)
(0.812536 -0.145458 -2.68026e-22)
(0.845949 -0.191881 1.03268e-22)
(0.866174 -0.207017 -5.39368e-22)
(0.862301 -0.197157 -1.91433e-22)
(0.821802 -0.203483 -6.69026e-23)
(0.758407 -0.197279 -1.06739e-23)
(0.711169 -0.178704 1.10898e-22)
(0.705939 -0.117313 1.79883e-22)
(0.732394 -0.0353506 -3.74672e-22)
(0.771268 0.0255145 -3.2331e-22)
(0.791006 0.0966207 -1.49402e-22)
(0.800547 0.100159 1.38762e-22)
(0.769828 0.1533 -1.39984e-23)
(0.747393 0.113182 -5.91866e-23)
(0.732345 0.271799 -1.04336e-21)
(0.764275 0.308669 -2.03035e-22)
(0.765423 0.325853 8.40069e-22)
(0.719819 0.350015 1.27721e-21)
(0.657381 0.361252 -7.98309e-22)
(0.626378 0.318541 1.15759e-21)
(0.651401 0.209681 7.85262e-22)
(0.707141 0.0710711 -5.4628e-22)
(0.770214 -0.0545924 7.75867e-22)
(0.816721 -0.147364 3.68258e-22)
(0.849231 -0.193175 1.02228e-22)
(0.869172 -0.207438 -1.06207e-22)
(0.865929 -0.196112 -6.83979e-23)
(0.826881 -0.201 1.20284e-22)
(0.762939 -0.19466 -1.15578e-23)
(0.713833 -0.177467 -1.60393e-22)
(0.705202 -0.117805 -3.00124e-22)
(0.729699 -0.0368352 2.702e-22)
(0.76734 0.0242164 2.26311e-22)
(0.785791 0.0959794 4.34887e-23)
(0.795686 0.100595 -1.2663e-22)
(0.763709 0.154387 -1.06223e-22)
(0.744781 0.113597 2.22746e-23)
(0.729356 0.269163 1.70088e-22)
(0.761487 0.307538 -1.83795e-21)
(0.761647 0.327097 -1.80435e-22)
(0.715179 0.353085 -5.57325e-23)
(0.653873 0.363942 9.18972e-22)
(0.625553 0.318936 -1.67942e-21)
(0.653143 0.20784 -8.88791e-22)
(0.710558 0.0682573 -1.51026e-21)
(0.774463 -0.0571863 -8.6479e-23)
(0.820968 -0.149225 -8.01221e-22)
(0.85256 -0.194429 1.9034e-22)
(0.872138 -0.207867 1.16777e-21)
(0.869467 -0.195123 3.26631e-22)
(0.831904 -0.198546 3.17501e-24)
(0.767544 -0.191991 1.01332e-22)
(0.71667 -0.176115 1.52394e-22)
(0.704639 -0.118181 2.0466e-22)
(0.727096 -0.0382536 4.12354e-22)
(0.763428 0.0229691 -3.05233e-22)
(0.780557 0.095356 -5.05707e-23)
(0.79083 0.101046 2.50227e-22)
(0.757681 0.155426 2.64642e-22)
(0.74236 0.113939 1.16021e-22)
(0.726468 0.266467 1.86957e-21)
(0.758702 0.306411 1.55794e-22)
(0.757836 0.328374 -1.59434e-21)
(0.710575 0.356128 -2.97246e-22)
(0.650495 0.366531 -3.1441e-22)
(0.624869 0.319224 -1.53103e-22)
(0.654984 0.205938 8.30815e-22)
(0.714042 0.0654286 1.17735e-21)
(0.77876 -0.0597647 -9.68907e-22)
(0.825273 -0.151041 2.61242e-21)
(0.855936 -0.195642 -5.96866e-22)
(0.875076 -0.208302 -9.0901e-22)
(0.872914 -0.194189 -1.8693e-22)
(0.836865 -0.196125 8.59603e-23)
(0.772215 -0.189277 -4.24118e-23)
(0.719679 -0.17465 9.29642e-23)
(0.704255 -0.118441 -1.46701e-23)
(0.724592 -0.039602 -4.42233e-22)
(0.759539 0.0217749 1.74791e-22)
(0.775314 0.0947505 2.79325e-22)
(0.785988 0.101511 -2.37253e-22)
(0.751757 0.156414 -2.71254e-22)
(0.740136 0.114208 -7.84851e-23)
(0.723676 0.263715 3.21325e-22)
(0.755916 0.30529 -8.38864e-22)
(0.753994 0.32968 1.61657e-22)
(0.706015 0.359139 8.72098e-22)
(0.647249 0.369017 3.82759e-22)
(0.624323 0.319408 9.21479e-22)
(0.656922 0.203982 1.65882e-21)
(0.717588 0.0625872 -1.68563e-22)
(0.783099 -0.0623272 1.01703e-21)
(0.829629 -0.152813 -5.8889e-22)
(0.859357 -0.196811 6.39552e-22)
(0.877987 -0.20874 3.89367e-22)
(0.876272 -0.19331 -4.78672e-22)
(0.841759 -0.193741 2.02628e-23)
(0.776943 -0.186525 -4.20434e-23)
(0.722855 -0.173076 -1.45713e-22)
(0.704054 -0.118581 1.00409e-22)
(0.722193 -0.040877 -1.6066e-22)
(0.755679 0.020636 -1.10117e-22)
(0.770072 0.094163 -7.08488e-23)
(0.781172 0.101988 4.96549e-23)
(0.745952 0.157347 1.25133e-22)
(0.738116 0.114401 8.26934e-23)
(0.720976 0.260909 -1.48493e-21)
(0.753128 0.304176 -5.34607e-22)
(0.750123 0.33101 7.7448e-22)
(0.701504 0.362114 -8.61443e-22)
(0.644136 0.371399 2.1213e-22)
(0.623912 0.319492 1.90858e-22)
(0.658955 0.201973 -4.01347e-21)
(0.721196 0.059735 1.34546e-22)
(0.787474 -0.0648737 -2.3019e-21)
(0.834032 -0.15454 -1.38108e-21)
(0.862825 -0.197936 5.18889e-22)
(0.880877 -0.209177 -2.76562e-22)
(0.879542 -0.192486 3.51472e-22)
(0.846581 -0.191398 2.68863e-23)
(0.781721 -0.183741 -1.37736e-22)
(0.726193 -0.171394 1.09185e-22)
(0.70404 -0.118601 -8.87037e-23)
(0.719905 -0.0420749 4.68873e-22)
(0.751857 0.0195547 -9.44895e-23)
(0.764839 0.0935935 1.25513e-23)
(0.776391 0.102472 3.02041e-23)
(0.74028 0.15822 6.09434e-23)
(0.736305 0.114516 -3.32779e-23)
(0.718363 0.258055 2.57198e-21)
(0.750332 0.30307 9.31481e-22)
(0.746225 0.332361 -3.42467e-22)
(0.697046 0.365046 4.7879e-22)
(0.641158 0.373676 1.94913e-21)
(0.623636 0.319479 -2.09298e-21)
(0.661081 0.199915 2.93227e-21)
(0.724861 0.0568743 -8.12041e-23)
(0.791881 -0.0674039 1.65177e-21)
(0.838475 -0.156225 1.35805e-21)
(0.866338 -0.199014 -9.95482e-22)
(0.883749 -0.20961 -2.20016e-22)
(0.882725 -0.191715 -1.19332e-22)
(0.851325 -0.1891 -3.34821e-22)
(0.78654 -0.180929 9.84547e-23)
(0.72969 -0.169608 -3.80558e-23)
(0.704217 -0.1185 4.34913e-23)
(0.717736 -0.0431926 -4.12207e-23)
(0.748081 0.018533 -1.50617e-23)
(0.759629 0.0930418 -1.95104e-22)
(0.771659 0.102962 -3.3746e-22)
(0.734754 0.159031 -2.39547e-23)
(0.734708 0.114553 1.67253e-23)
(0.715833 0.255155 -3.85519e-22)
(0.747528 0.301973 -9.60207e-22)
(0.742306 0.333729 -6.08989e-22)
(0.692648 0.367931 -2.71807e-21)
(0.638313 0.375847 -2.3495e-22)
(0.62349 0.319371 4.19661e-22)
(0.6633 0.197813 -4.13305e-21)
(0.728583 0.0540073 6.10881e-22)
(0.796316 -0.0699174 2.62325e-22)
(0.842952 -0.157867 8.90821e-22)
(0.869894 -0.200045 3.40041e-23)
(0.886605 -0.210036 7.07526e-22)
(0.885822 -0.190997 2.71993e-22)
(0.855988 -0.186851 3.53351e-22)
(0.791393 -0.178097 -6.98811e-23)
(0.733339 -0.167722 -3.73898e-23)
(0.704588 -0.118276 -1.5314e-22)
(0.715694 -0.0442265 4.85472e-23)
(0.74436 0.017573 5.15203e-22)
(0.754451 0.0925079 5.74007e-22)
(0.766985 0.103455 2.06082e-22)
(0.729389 0.159776 -1.72664e-22)
(0.73333 0.114509 -5.7968e-25)
(0.713378 0.252213 7.49709e-22)
(0.744711 0.300887 2.91857e-21)
(0.738366 0.33511 -6.27046e-22)
(0.688313 0.370763 1.38546e-21)
(0.635604 0.377912 1.01599e-21)
(0.623473 0.319173 1.08313e-21)
(0.665609 0.195669 2.66802e-21)
(0.732361 0.0511362 5.61896e-23)
(0.800774 -0.0724138 7.23954e-22)
(0.847459 -0.159467 -1.2435e-21)
(0.873493 -0.201028 1.12563e-21)
(0.889449 -0.210453 -9.40911e-22)
(0.888836 -0.19033 2.21852e-23)
(0.860565 -0.184653 -1.98632e-22)
(0.796273 -0.175249 4.7544e-23)
(0.737135 -0.16574 -1.43095e-24)
(0.705156 -0.11793 1.01122e-22)
(0.713785 -0.0451738 -1.10502e-22)
(0.740704 0.0166766 -3.565e-22)
(0.74932 0.0919915 -5.75626e-22)
(0.762382 0.103948 3.84017e-22)
(0.724199 0.160451 2.65619e-22)
(0.732175 0.114384 -1.42717e-22)
(0.710994 0.249234 1.55831e-22)
(0.741879 0.29981 -1.34915e-21)
(0.734411 0.336498 2.80313e-21)
(0.684048 0.373539 -1.1444e-21)
(0.63303 0.379871 -5.67412e-22)
(0.623584 0.318886 -1.49308e-22)
(0.668008 0.193486 -3.46301e-21)
(0.736192 0.0482634 3.61441e-21)
(0.805252 -0.0748925 -2.21362e-21)
(0.851988 -0.161027 9.81106e-22)
(0.877131 -0.201962 -7.03616e-22)
(0.892284 -0.210858 4.22784e-22)
(0.891769 -0.189713 -2.14861e-22)
(0.865052 -0.18251 1.17676e-22)
(0.801171 -0.172393 -1.14391e-23)
(0.741072 -0.163667 6.96593e-24)
(0.705924 -0.117461 -1.13215e-22)
(0.712018 -0.0460315 -1.80826e-22)
(0.737124 0.0158455 1.65462e-22)
(0.744246 0.0914925 6.22059e-22)
(0.757862 0.104439 -5.6509e-22)
(0.719198 0.161055 -2.67117e-22)
(0.731247 0.114177 -1.37608e-23)
(0.708673 0.24622 1.80018e-21)
(0.73903 0.298744 -2.23704e-22)
(0.730443 0.33789 1.97765e-22)
(0.679855 0.376253 7.36384e-22)
(0.63059 0.381723 -1.64844e-21)
(0.623819 0.318516 1.28701e-21)
(0.670495 0.191269 4.06862e-21)
(0.740077 0.045391 -4.50668e-21)
(0.809748 -0.0773528 2.12697e-22)
(0.856535 -0.162547 -1.25041e-21)
(0.880807 -0.202847 -1.39702e-21)
(0.895113 -0.211247 5.72098e-22)
(0.894622 -0.189144 4.47181e-22)
(0.869447 -0.180425 -1.16081e-22)
(0.806079 -0.169533 -8.79306e-25)
(0.745144 -0.161506 -1.15485e-23)
(0.706894 -0.116869 -6.66329e-24)
(0.710402 -0.0467968 4.75181e-23)
(0.73363 0.0150815 -4.83603e-22)
(0.739245 0.0910105 -2.98189e-22)
(0.753437 0.104924 5.21999e-23)
(0.714398 0.161583 4.2412e-22)
(0.73055 0.113888 9.12336e-23)
(0.706407 0.243175 8.46186e-23)
(0.736162 0.297688 -2.0912e-21)
(0.726467 0.339281 -2.0796e-21)
(0.675741 0.378902 1.75248e-21)
(0.628285 0.383469 5.32034e-22)
(0.624176 0.318064 1.54891e-22)
(0.673072 0.189019 -3.02718e-21)
(0.744016 0.0425216 2.2574e-21)
(0.814258 -0.079794 1.83635e-21)
(0.861094 -0.164029 -7.70347e-22)
(0.884518 -0.203683 6.15709e-22)
(0.897937 -0.211618 -2.39096e-22)
(0.897398 -0.18862 -8.38192e-22)
(0.873744 -0.1784 1.61639e-22)
(0.810991 -0.166675 -2.09301e-23)
(0.749344 -0.159262 -1.62143e-23)
(0.708068 -0.116154 4.18521e-23)
(0.708945 -0.0474672 -1.65469e-23)
(0.730233 0.0143861 3.03126e-22)
(0.73433 0.0905453 -1.33541e-22)
(0.749119 0.105401 1.70351e-22)
(0.709815 0.162033 -5.20286e-22)
(0.730086 0.113515 -3.01438e-23)
(0.704189 0.240103 -4.94604e-22)
(0.733271 0.296642 -2.73205e-22)
(0.722485 0.340666 6.06609e-22)
(0.671707 0.381481 -3.89707e-22)
(0.626114 0.38511 -2.18501e-21)
(0.624654 0.317534 3.07025e-22)
(0.675736 0.186741 -1.10147e-21)
(0.748009 0.0396574 -1.03769e-21)
(0.818781 -0.0822152 -1.58423e-21)
(0.86566 -0.165473 -6.96868e-23)
(0.88826 -0.204469 2.75134e-22)
(0.900761 -0.211969 -4.05149e-22)
(0.900101 -0.18814 4.91091e-22)
(0.877943 -0.176437 2.74513e-23)
(0.815898 -0.163826 -7.29664e-25)
(0.753665 -0.156941 4.95174e-23)
(0.709447 -0.115318 -1.16523e-23)
(0.707654 -0.0480406 -1.0048e-22)
(0.726945 0.0137608 6.89018e-22)
(0.729515 0.0900967 1.54393e-22)
(0.744921 0.105867 -1.10869e-22)
(0.70546 0.162403 5.33073e-22)
(0.729859 0.11306 -9.11911e-23)
(0.702012 0.237006 -1.55777e-21)
(0.730357 0.295604 2.9527e-21)
(0.718502 0.34204 -1.3319e-22)
(0.667759 0.383987 -2.59198e-21)
(0.624077 0.386645 1.16435e-21)
(0.625251 0.316929 -4.50923e-21)
(0.678489 0.184436 2.14746e-21)
(0.752057 0.0368008 2.82242e-21)
(0.823315 -0.0846152 1.79664e-23)
(0.870227 -0.16688 2.45053e-21)
(0.892032 -0.205207 3.01184e-22)
(0.903585 -0.212297 4.66048e-23)
(0.902733 -0.187702 1.74024e-22)
(0.88204 -0.174539 -1.13667e-22)
(0.820793 -0.16099 -7.71581e-24)
(0.758099 -0.154547 -4.93915e-23)
(0.711032 -0.114362 -2.30632e-23)
(0.706539 -0.0485148 8.05173e-23)
(0.723778 0.0132067 4.27101e-23)
(0.724815 0.0896642 -2.41787e-22)
(0.740856 0.106319 -6.7028e-23)
(0.701347 0.162691 -2.66299e-22)
(0.72987 0.112521 1.64249e-22)
(0.699866 0.233887 3.16501e-21)
(0.727416 0.294573 -1.87091e-21)
(0.714522 0.343398 1.97407e-21)
(0.6639 0.386417 1.90952e-22)
(0.622171 0.388077 5.48339e-22)
(0.625965 0.316252 4.05032e-21)
(0.681331 0.182109 4.08464e-22)
(0.756161 0.0339541 -2.94104e-21)
(0.827859 -0.0869931 -1.5214e-21)
(0.874793 -0.168251 1.09788e-22)
(0.895828 -0.205896 7.43624e-23)
(0.906411 -0.2126 7.01284e-22)
(0.905297 -0.187303 -3.50041e-22)
(0.886034 -0.172706 -2.2997e-22)
(0.82567 -0.158174 2.15985e-23)
(0.76264 -0.152086 7.37551e-23)
(0.712823 -0.113288 1.08382e-22)
(0.705607 -0.0488883 1.14011e-23)
(0.720744 0.0127252 -7.99355e-22)
(0.720244 0.0892477 5.52084e-22)
(0.736935 0.106755 -9.43007e-23)
(0.697488 0.162894 2.04227e-22)
(0.730121 0.1119 1.1491e-22)
(0.697743 0.230748 -3.40399e-22)
(0.724449 0.293547 -3.28723e-22)
(0.710548 0.344736 -1.34646e-21)
(0.660132 0.388767 4.98533e-22)
(0.620397 0.389406 -1.33776e-21)
(0.626794 0.315507 -2.53386e-21)
(0.684262 0.179761 1.03998e-21)
(0.760322 0.0311198 3.53991e-21)
(0.832413 -0.0893474 1.74241e-21)
(0.879351 -0.169588 -4.08861e-22)
(0.899647 -0.206537 9.80394e-22)
(0.909243 -0.212875 -1.15121e-21)
(0.907796 -0.186941 5.14661e-22)
(0.889922 -0.170941 2.09031e-22)
(0.830521 -0.155382 -3.75414e-23)
(0.767279 -0.149563 -5.19523e-24)
(0.714819 -0.112097 4.08889e-23)
(0.704867 -0.0491594 -3.66244e-23)
(0.717854 0.012317 3.82897e-24)
(0.715819 0.0888468 -4.47909e-22)
(0.73317 0.107172 1.77213e-22)
(0.693895 0.16301 2.21554e-23)
(0.730615 0.111196 -1.07046e-22)
(0.695636 0.227592 -2.55763e-21)
(0.721452 0.292526 -1.85917e-21)
(0.706584 0.346049 3.38805e-21)
(0.65646 0.391035 2.84816e-21)
(0.618753 0.390634 2.30334e-21)
(0.627736 0.314695 -1.01451e-21)
(0.687284 0.177395 -4.09131e-21)
(0.764542 0.0283002 -1.32582e-21)
(0.836976 -0.0916767 -2.57263e-21)
(0.883898 -0.170891 -4.1505e-22)
(0.903483 -0.207131 -1.23135e-21)
(0.91208 -0.213122 1.28162e-21)
(0.910234 -0.186613 2.06166e-22)
(0.893703 -0.169244 -1.39656e-22)
(0.835339 -0.152619 -2.53315e-23)
(0.772008 -0.146985 -1.22572e-23)
(0.717019 -0.110792 -2.39414e-22)
(0.704324 -0.0493272 1.53208e-22)
(0.715121 0.0119832 1.60836e-22)
(0.711553 0.0884612 3.06261e-22)
(0.729575 0.107568 2.94317e-22)
(0.69058 0.163039 2.02099e-22)
(0.73135 0.110411 -1.33165e-23)
(0.693534 0.224421 -5.047e-22)
(0.718426 0.291505 1.09657e-21)
(0.702634 0.347331 -1.84128e-21)
(0.652885 0.393217 -2.4402e-21)
(0.617238 0.391761 1.38315e-21)
(0.62879 0.313821 8.70291e-22)
(0.690397 0.175013 2.78119e-21)
(0.768823 0.0254976 5.66552e-22)
(0.841548 -0.0939795 2.6571e-21)
(0.888431 -0.17216 -1.455e-21)
(0.907333 -0.207679 -1.12104e-21)
(0.914924 -0.213338 -2.05631e-22)
(0.912615 -0.186316 -7.30254e-22)
(0.897376 -0.167616 -4.63924e-23)
(0.840119 -0.14989 5.07966e-23)
(0.77682 -0.144357 -4.26325e-23)
(0.719422 -0.109376 1.80823e-22)
(0.703988 -0.0493908 -4.50178e-23)
(0.712557 0.0117243 2.24108e-22)
(0.707463 0.0880906 5.22566e-25)
(0.726161 0.10794 -1.8928e-22)
(0.687553 0.162978 -6.31566e-22)
(0.732328 0.109546 8.0901e-23)
(0.69143 0.221235 3.33304e-21)
(0.715368 0.290484 -2.40517e-21)
(0.698701 0.348579 -1.18015e-22)
(0.64941 0.395311 -2.08232e-22)
(0.615851 0.392789 5.40493e-22)
(0.629955 0.312885 8.47978e-22)
(0.693602 0.172618 -7.02067e-22)
(0.773165 0.0227144 -9.81722e-22)
(0.846129 -0.0962542 -5.20203e-22)
(0.892945 -0.173397 1.53597e-21)
(0.911193 -0.208182 4.30256e-22)
(0.917777 -0.213521 -1.57636e-21)
(0.914942 -0.186047 3.20326e-22)
(0.900941 -0.166058 -1.70534e-22)
(0.844853 -0.147201 6.87965e-23)
(0.781706 -0.141685 -9.90553e-23)
(0.722025 -0.107853 6.36102e-23)
(0.703864 -0.0493497 -2.86019e-23)
(0.710173 0.0115408 -8.7349e-23)
(0.703562 0.0877348 -2.90061e-22)
(0.72294 0.108286 2.15234e-22)
(0.684826 0.162827 2.49195e-22)
(0.733549 0.108601 -1.4998e-23)
(0.689315 0.218036 -1.70643e-21)
(0.712279 0.289458 2.52656e-22)
(0.694791 0.349786 -4.10708e-22)
(0.646037 0.397315 9.79119e-22)
(0.614588 0.39372 -3.61802e-21)
(0.63123 0.311893 -3.23543e-21)
(0.696902 0.170212 5.69787e-22)
(0.777572 0.0199529 1.41778e-21)
(0.85072 -0.098499 -2.58653e-21)
(0.897438 -0.174602 -1.43357e-21)
(0.915059 -0.208641 7.34223e-22)
(0.920638 -0.213671 9.81028e-22)
(0.917218 -0.185805 -1.86273e-22)
(0.904396 -0.164569 1.21584e-22)
(0.849537 -0.144556 -7.09135e-23)
(0.786657 -0.138974 1.23513e-22)
(0.724825 -0.106224 -1.62815e-22)
(0.703959 -0.0492037 3.0191e-23)
(0.70798 0.011433 2.04522e-22)
(0.699868 0.0873935 -3.54792e-22)
(0.719923 0.108604 -1.45235e-24)
(0.682407 0.162585 -3.00898e-22)
(0.735013 0.107578 -1.7465e-23)
(0.687181 0.214824 -2.12613e-21)
(0.709157 0.288426 1.57331e-21)
(0.690905 0.350949 -1.58409e-21)
(0.642768 0.399227 1.4841e-21)
(0.61345 0.394556 4.53101e-21)
(0.632613 0.310844 1.72849e-22)
(0.700299 0.167797 -3.75499e-21)
(0.782046 0.0172154 -1.35839e-21)
(0.85532 -0.100712 3.58623e-21)
(0.901907 -0.175775 3.08643e-21)
(0.918927 -0.209058 1.54832e-21)
(0.923509 -0.213785 1.26502e-22)
(0.919449 -0.185584 -2.52111e-23)
(0.907742 -0.163151 5.33467e-23)
(0.854163 -0.141958 -4.58129e-23)
(0.791666 -0.136232 1.80848e-22)
(0.727818 -0.104496 6.62074e-24)
(0.704277 -0.048953 -2.42471e-23)
(0.70599 0.011401 -2.84567e-22)
(0.696393 0.0870665 4.92337e-22)
(0.717121 0.108892 -1.5422e-22)
(0.680306 0.162251 3.25627e-22)
(0.736718 0.106479 -1.46997e-23)
(0.68502 0.211601 -1.66444e-21)
(0.706003 0.287383 -2.26371e-21)
(0.687049 0.352062 2.75306e-21)
(0.639605 0.401046 1.34017e-21)
(0.612435 0.395297 -2.0412e-21)
(0.634105 0.309742 -1.50614e-22)
(0.703794 0.165375 2.11539e-21)
(0.786587 0.0145041 3.35223e-22)
(0.859932 -0.102891 -3.74835e-21)
(0.906349 -0.176917 -2.1476e-21)
(0.922792 -0.209433 3.39116e-22)
(0.926389 -0.213864 -1.12736e-21)
(0.921636 -0.185384 8.58887e-23)
(0.910979 -0.161802 1.33746e-22)
(0.858726 -0.139413 3.32267e-23)
(0.796723 -0.133464 -7.94854e-23)
(0.731 -0.10267 1.87309e-22)
(0.704825 -0.0485981 2.76246e-23)
(0.704213 0.0114448 6.94064e-23)
(0.693152 0.0867535 -1.92471e-22)
(0.714545 0.109148 2.26528e-23)
(0.678532 0.161826 1.29163e-22)
(0.738663 0.105305 2.16362e-23)
(0.682825 0.208365 2.59194e-21)
(0.702816 0.286326 -9.15689e-22)
(0.683225 0.353122 -1.20026e-21)
(0.63655 0.402768 -1.52459e-22)
(0.61154 0.395946 1.54414e-21)
(0.635704 0.308589 -6.84302e-24)
(0.707392 0.162946 7.7747e-22)
(0.791199 0.0118225 1.20477e-21)
(0.864554 -0.105035 2.84904e-21)
(0.910762 -0.178027 -7.44197e-22)
(0.926651 -0.209768 -8.6397e-22)
(0.929278 -0.213907 8.0634e-22)
(0.923785 -0.1852 9.01898e-23)
(0.914108 -0.160523 -1.52696e-23)
(0.863223 -0.136923 5.32269e-23)
(0.801821 -0.130677 -2.22185e-22)
(0.734366 -0.100753 -1.54177e-22)
(0.705606 -0.0481398 5.42354e-23)
(0.70266 0.0115641 -3.50069e-23)
(0.690161 0.0864544 4.75145e-23)
(0.712206 0.109371 -1.01575e-22)
(0.677092 0.161309 -2.44116e-22)
(0.740846 0.104059 -3.71408e-24)
(0.680589 0.205117 -2.17777e-22)
(0.699597 0.285251 6.18475e-22)
(0.679438 0.354123 -1.20033e-21)
(0.633603 0.404394 -1.47749e-21)
(0.610763 0.396504 -1.04955e-21)
(0.637413 0.307387 2.16507e-21)
(0.711096 0.160514 -2.68096e-21)
(0.795883 0.00917483 3.04549e-21)
(0.869188 -0.10714 -8.42203e-22)
(0.915145 -0.179107 3.08339e-23)
(0.9305 -0.210064 1.41263e-23)
(0.932177 -0.213913 6.75171e-23)
(0.925899 -0.18503 2.53523e-22)
(0.917129 -0.159311 1.02442e-22)
(0.867646 -0.134494 2.30619e-23)
(0.806951 -0.127875 3.31326e-22)
(0.737912 -0.0987484 -6.16351e-23)
(0.706623 -0.0475794 -9.53695e-23)
(0.701339 0.0117583 5.37253e-23)
(0.687431 0.0861688 -1.23969e-22)
(0.710114 0.109559 -6.02858e-24)
(0.675994 0.1607 1.24124e-22)
(0.743264 0.102743 -5.04071e-23)
(0.678306 0.201856 -9.56211e-22)
(0.696346 0.284155 -9.85806e-22)
(0.67569 0.355061 3.28489e-21)
(0.630766 0.405922 -5.73103e-22)
(0.610104 0.396974 -1.75298e-21)
(0.639233 0.306138 9.33002e-22)
(0.714912 0.15808 -6.18118e-22)
(0.800641 0.00655755 -3.7449e-21)
(0.873834 -0.109206 1.60414e-22)
(0.919495 -0.180155 9.49564e-22)
(0.934334 -0.210324 2.20635e-24)
(0.935084 -0.213881 1.15292e-22)
(0.927981 -0.184872 -7.78178e-23)
(0.920043 -0.158167 2.04275e-23)
(0.871993 -0.132126 -2.16635e-22)
(0.812105 -0.125067 -2.93541e-22)
(0.74163 -0.0966615 -1.83238e-22)
(0.707879 -0.0469183 -6.63669e-23)
(0.70026 0.0120268 -6.05923e-24)
(0.684977 0.0858966 1.92662e-22)
(0.708277 0.10971 -5.43055e-23)
(0.675243 0.160001 -6.21735e-23)
(0.745917 0.10136 -1.19465e-23)
(0.675969 0.198582 1.07427e-21)
(0.693063 0.283033 -9.07815e-22)
(0.671985 0.355933 -1.67922e-21)
(0.628038 0.407351 -6.5025e-22)
(0.609561 0.397356 1.43462e-22)
(0.641168 0.304842 3.33744e-21)
(0.718847 0.155644 -8.29324e-22)
(0.805476 0.00398277 3.91289e-21)
(0.878492 -0.111229 1.58036e-21)
(0.92381 -0.181172 4.15738e-22)
(0.93815 -0.210548 4.67211e-22)
(0.937998 -0.213812 -2.60921e-23)
(0.930036 -0.184721 1.25079e-22)
(0.922852 -0.157089 -2.05522e-22)
(0.876258 -0.129825 1.54815e-22)
(0.817274 -0.122256 3.5356e-22)
(0.745514 -0.0944976 1.84144e-22)
(0.709376 -0.0461584 -2.74968e-24)
(0.69943 0.0123685 -1.43156e-23)
(0.682811 0.0856377 1.02793e-24)
(0.706707 0.109824 8.76994e-23)
(0.674846 0.159211 7.58115e-23)
(0.748799 0.0999111 1.63564e-23)
(0.673575 0.195294 3.64017e-22)
(0.689747 0.281882 -2.12366e-21)
(0.668325 0.356733 2.4436e-21)
(0.625422 0.40868 -1.09178e-21)
(0.609133 0.397653 1.08967e-21)
(0.643225 0.303501 -1.61816e-22)
(0.72291 0.15321 -2.86479e-21)
(0.810391 0.0014372 8.99129e-22)
(0.883161 -0.113207 -2.59973e-21)
(0.928091 -0.182157 -2.49382e-21)
(0.941945 -0.210739 -9.27401e-22)
(0.940919 -0.213705 -8.64272e-22)
(0.932068 -0.184576 1.82544e-22)
(0.925558 -0.156075 7.49547e-23)
(0.880438 -0.127593 -7.41752e-23)
(0.82245 -0.119451 9.73086e-23)
(0.749559 -0.092262 2.61983e-22)
(0.711115 -0.0453019 -7.91302e-23)
(0.698857 0.0127825 -7.68727e-25)
(0.680945 0.0853916 -2.05215e-23)
(0.70541 0.109899 -4.82624e-23)
(0.674807 0.158332 2.2065e-23)
(0.751907 0.0984001 -5.82333e-24)
(0.67112 0.191991 -2.96446e-22)
(0.686398 0.280697 1.65706e-21)
(0.664712 0.357458 3.5466e-22)
(0.622915 0.409908 -7.37781e-22)
(0.60882 0.397865 4.63003e-22)
(0.645415 0.302117 -2.44168e-21)
(0.727113 0.150778 1.6311e-21)
(0.815387 -0.00107974 -3.48925e-21)
(0.887843 -0.115139 2.36791e-21)
(0.932334 -0.183111 2.19615e-21)
(0.945714 -0.210897 3.49882e-22)
(0.943846 -0.213561 5.42958e-22)
(0.934079 -0.184433 -1.4462e-22)
(0.928163 -0.155124 6.62457e-24)
(0.884528 -0.125432 -8.27246e-23)
(0.827625 -0.116655 -4.53998e-22)
(0.753755 -0.0899604 -5.28645e-23)
(0.713095 -0.0443509 2.19905e-22)
(0.698547 0.0132673 1.77782e-23)
(0.67939 0.0851583 -3.34014e-23)
(0.704396 0.109935 1.95047e-23)
(0.675131 0.157366 6.4526e-23)
(0.755239 0.0968299 -6.69546e-25)
(0.668601 0.188675 -8.65267e-23)
(0.683011 0.279475 -4.7625e-22)
(0.661143 0.358105 -2.8072e-22)
(0.620518 0.411036 8.32536e-23)
(0.608627 0.397993 2.57375e-22)
(0.647757 0.300687 1.4424e-22)
(0.731474 0.148346 8.84629e-22)
(0.820468 -0.00354421 8.70604e-22)
(0.892536 -0.117022 7.94552e-22)
(0.93654 -0.184032 4.94183e-23)
(0.949454 -0.211023 -9.93733e-22)
(0.946776 -0.213379 3.45117e-23)
(0.936073 -0.184288 -2.5851e-23)
(0.930669 -0.154233 -9.2352e-24)
(0.888526 -0.123343 1.12702e-22)
(0.832791 -0.113875 2.97332e-22)
(0.758097 -0.0875983 -3.94026e-22)
(0.715317 -0.0433082 -1.40003e-22)
(0.698505 0.0138216 -2.45715e-23)
(0.678157 0.0849377 -1.17721e-23)
(0.703672 0.109931 -1.95922e-23)
(0.67582 0.156314 -2.37057e-22)
(0.758788 0.0952034 5.18618e-25)
(0.666017 0.185346 -5.02978e-22)
(0.67958 0.278215 -3.71825e-22)
(0.657612 0.358671 9.68719e-22)
(0.618227 0.412061 -1.13419e-21)
(0.608563 0.398035 2.0136e-21)
(0.650282 0.299208 2.62128e-22)
(0.736016 0.145918 -2.25336e-21)
(0.825638 -0.00595933 1.14029e-21)
(0.89724 -0.11885 -2.56371e-21)
(0.940706 -0.184918 -3.81107e-22)
(0.953162 -0.211118 -1.21973e-21)
(0.949708 -0.21316 8.43032e-22)
(0.938054 -0.184141 1.52643e-22)
(0.933079 -0.153399 -6.70736e-23)
(0.892429 -0.12133 -2.1234e-23)
(0.83794 -0.111116 -3.94084e-23)
(0.762575 -0.085182 1.72861e-22)
(0.717778 -0.0421772 1.18384e-22)
(0.698736 0.0144432 1.21272e-23)
(0.677254 0.0847293 -1.08222e-23)
(0.703245 0.109886 3.3426e-23)
(0.676879 0.155178 1.72646e-22)
(0.76255 0.0935241 -1.33748e-24)
(0.663371 0.181986 -1.10568e-21)
(0.67609 0.276897 2.27381e-21)
(0.654101 0.359142 -1.49757e-21)
(0.616037 0.412982 -5.1706e-22)
(0.608649 0.398001 1.16032e-21)
(0.653041 0.297706 -1.33429e-21)
(0.740773 0.143526 1.14273e-21)
(0.830899 -0.00830088 1.29248e-21)
(0.901951 -0.120614 -3.70023e-22)
(0.944833 -0.18577 8.74108e-22)
(0.956836 -0.211191 6.15561e-22)
(0.95264 -0.212913 -6.28416e-22)
(0.940025 -0.183996 -2.30741e-22)
(0.935395 -0.152629 5.67821e-23)
(0.896233 -0.119399 -6.60092e-24)
(0.843064 -0.108388 6.84932e-23)
(0.767183 -0.0827198 -1.22995e-22)
(0.720476 -0.0409635 -6.12864e-23)
(0.699243 0.015128 -5.98257e-23)
(0.67669 0.0845311 5.26459e-24)
(0.703122 0.1098 3.11473e-24)
(0.678309 0.15396 -8.43428e-23)
(0.766519 0.091796 8.95129e-25)
(0.660672 0.178556 -4.43332e-22)
(0.672519 0.275477 -1.20513e-21)
(0.650571 0.359482 2.28611e-21)
(0.613932 0.413796 -1.64374e-21)
(0.608929 0.397933 -7.9759e-22)
(0.656124 0.296247 1.69371e-21)
(0.745788 0.141227 -3.58586e-22)
(0.836256 -0.010546 -9.84405e-22)
(0.906668 -0.122324 7.72362e-23)
(0.948919 -0.18661 -2.23722e-22)
(0.960472 -0.211262 7.66263e-22)
(0.955571 -0.212655 2.06199e-22)
(0.941988 -0.183864 -3.96342e-23)
(0.937622 -0.15193 -1.76617e-23)
(0.899936 -0.117556 2.76314e-24)
(0.848157 -0.105697 -8.94064e-24)
(0.771911 -0.0802178 6.71883e-23)
(0.723407 -0.0396707 7.38165e-23)