/*--------------------------------*- C++ -*----------------------------------*\
  =========                 |
  \\      /  F ield         | OpenFOAM: The Open Source CFD Toolbox
   \\    /   O peration     | Website:  https://openfoam.org
    \\  /    A nd           | Version:  7
     \\/     M anipulation  |
\*---------------------------------------------------------------------------*/
FoamFile
{
    version     2.0;
    format      ascii;
    class       surfaceScalarField;
    location    "120";
    object      phi;
}
// * * * * * * * * * * * * * * * * * * * * * * * * * * * * * * * * * * * * * //

dimensions      [0 3 -1 0 0 0 0];

internalField   nonuniform List<scalar> 
14031
(
0.00135641
0.00793841
-0.00794393
0.00134928
0.00797038
-0.00796325
0.00132691
0.00808598
-0.00806362
0.00128889
0.00837859
-0.00834057
0.00124107
0.00864304
-0.00859521
0.0011942
0.00841675
-0.00836989
0.00115888
0.0072705
-0.00723518
0.001142
0.00509902
-0.00508213
0.00114607
0.00218418
-0.00218825
0.00116881
-0.000953833
0.000931087
0.00120365
-0.00377947
0.00374464
0.00124239
-0.00592619
0.00588744
0.0012774
-0.00728311
0.0072481
0.00130087
-0.00800596
0.0079825
0.00130588
-0.00843063
0.00842562
0.00128992
-0.00883812
0.00885407
0.00125664
-0.00920465
0.00923793
0.00121435
-0.00919353
0.00923581
0.00117304
-0.00839281
0.00843412
0.00114168
-0.00660051
0.00663187
0.00112704
-0.00394345
0.00395809
0.00113271
-0.000820044
0.000814381
0.0011568
0.00225428
-0.00227838
0.00119056
0.0048535
-0.00488725
0.0012207
0.00679281
-0.00682296
0.00123551
0.00815569
-0.0081705
0.00122989
0.00907752
-0.00907191
0.00120657
0.00958737
-0.00956405
0.00947166
-0.00943886
0.00136283
0.00793145
0.00135686
0.00797635
0.00133557
0.00810727
0.00129861
0.00841555
0.00125159
0.00869006
0.00120482
0.00846353
0.00116851
0.00730681
0.00114962
0.00511791
0.00115107
0.00218274
0.00117109
-0.000973852
0.00120344
-0.00381182
0.00124011
-0.00596286
0.00127351
-0.00731651
0.0012958
-0.00802826
0.00129988
-0.00843472
0.00128308
-0.00882132
0.00124913
-0.00917069
0.00120661
-0.00915101
0.00116577
-0.00835197
0.00113568
-0.00657042
0.00112296
-0.00393073
0.00113082
-0.000827904
0.00115699
0.00222811
0.0011924
0.00481809
0.00122373
0.00676148
0.00123939
0.00814003
0.00123439
0.00908252
0.00121142
0.00961035
0.0095045
0.00136905
0.00792302
0.0013643
0.00798111
0.00134416
0.00812741
0.00130832
0.00845138
0.00126216
0.00873623
0.00121548
0.00851021
0.00117818
0.00734411
0.00115724
0.00513884
0.00115601
0.00218397
0.00117326
-0.000991095
0.0012031
-0.00384166
0.00123767
-0.00599743
0.00126946
-0.00734829
0.0012906
-0.0080494
0.0012938
-0.00843791
0.0012762
-0.00880372
0.00124162
-0.00913611
0.00119891
-0.00910829
0.00115854
-0.0083116
0.0011297
-0.00654158
0.00111887
-0.00391989
0.00112889
-0.000837925
0.00115709
0.00219991
0.00119414
0.00478104
0.00122667
0.00672895
0.00124321
0.0081235
0.00123886
0.00908687
0.00121627
0.00963294
0.00953738
0.00137509
0.00791308
0.00137159
0.0079846
0.00135266
0.00814635
0.00131802
0.00848601
0.00127275
0.00878149
0.0012262
0.00855676
0.00118788
0.00738243
0.00116486
0.00516186
0.00116091
0.00218792
0.00117533
-0.00100552
0.00120262
-0.00386896
0.00123509
-0.00602989
0.00126526
-0.00737847
0.00128527
-0.00806942
0.00128762
-0.00844025
0.00126928
-0.00878539
0.00123413
-0.00910095
0.00119124
-0.0090654
0.00115135
-0.00827172
0.00112376
-0.00651398
0.00111477
-0.00391091
0.00112691
-0.000850065
0.00115712
0.0021697
0.00119578
0.00474238
0.00122951
0.00669522
0.00124695
0.00810605
0.00124329
0.00909053
0.00122112
0.00965512
0.00957026
0.00138091
0.00790159
0.00137873
0.00798678
0.00136107
0.00816401
0.00132769
0.00851939
0.00128337
0.00882581
0.00123695
0.00860319
0.00119761
0.00742177
0.00117247
0.005187
0.00116575
0.00219464
0.0011773
-0.00101707
0.00120202
-0.00389368
0.00123236
-0.00606022
0.00126091
-0.00740703
0.00127981
-0.00808831
0.00128135
-0.00844179
0.00126233
-0.00876636
0.00122664
-0.00906527
0.00118361
-0.00902237
0.00114421
-0.00823232
0.00111784
-0.00648761
0.00111067
-0.00390374
0.00112489
-0.000864286
0.00115706
0.00213753
0.00119732
0.00470212
0.00123226
0.00666029
0.00125063
0.00808768
0.00124769
0.00909347
0.00122596
0.00967685
0.00960312
0.00138652
0.00788851
0.0013857
0.0079876
0.00136937
0.00818034
0.00133732
0.00855145
0.00129399
0.00886914
0.00124773
0.00864945
0.00120736
0.00746213
0.00118008
0.00521428
0.00117054
0.00220417
0.00117918
-0.00102571
0.0012013
-0.00391579
0.00122949
-0.00608841
0.00125643
-0.00743397
0.00127423
-0.00810612
0.00127501
-0.00844257
0.00125535
-0.0087467
0.00121917
-0.00902909
0.00117603
-0.00897922
0.00113712
-0.00819342
0.00111195
-0.00646243
0.00110656
-0.00389836
0.00112282
-0.000880544
0.00115692
0.00210343
0.00119875
0.00466029
0.0012349
0.00662414
0.00125423
0.00806835
0.00125205
0.00909565
0.0012308
0.0096981
0.00963594
0.00139191
0.00787382
0.0013925
0.00798701
0.00137757
0.00819528
0.0013469
0.00858211
0.00130462
0.00891141
0.00125854
0.00869553
0.00121714
0.00750353
0.00118769
0.00524374
0.0011753
0.00221657
0.00118098
-0.00103139
0.00120046
-0.00393527
0.00122649
-0.00611444
0.00125181
-0.00745929
0.00126853
-0.00812284
0.00126858
-0.00844263
0.00124834
-0.00872645
0.00121172
-0.00899248
0.00116849
-0.00893599
0.00113007
-0.008155
0.00110608
-0.00643844
0.00110244
-0.00389472
0.00112069
-0.000898795
0.00115667
0.00206745
0.00120007
0.0046169
0.00123743
0.00658677
0.00125775
0.00804803
0.00125636
0.00909703
0.00123563
0.00971884
0.00966869
0.00139706
0.00785746
0.00139911
0.00798496
0.00138564
0.00820876
0.00135642
0.00861133
0.00131524
0.0089526
0.00126936
0.0087414
0.00122694
0.00754596
0.0011953
0.00527538
0.00118001
0.00223185
0.00118269
-0.00103408
0.0011995
-0.00395208
0.00122336
-0.00613829
0.00124705
-0.00748299
0.00126271
-0.00813849
0.00126208
-0.008442
0.0012413
-0.00870567
0.00120429
-0.00895547
0.001161
-0.0088927
0.00112308
-0.00811708
0.00110023
-0.00641559
0.0010983
-0.00389278
0.0011185
-0.000918996
0.00115633
0.00202961
0.00120126
0.00457197
0.00123986
0.00654817
0.00126119
0.0080267
0.00126063
0.00909759
0.00124045
0.00973902
0.00970135
0.00140197
0.00783942
0.00140553
0.00798141
0.00139357
0.00822072
0.00136586
0.00863903
0.00132583
0.00899263
0.00128019
0.00878704
0.00123675
0.00758941
0.0012029
0.00530923
0.00118468
0.00225007
0.00118433
-0.00103372
0.00119844
-0.0039662
0.0012201
-0.00615996
0.00124217
-0.00750505
0.00125678
-0.0081531
0.00125551
-0.00844073
0.00123424
-0.0086844
0.00119688
-0.0089181
0.00115355
-0.00884936
0.00111612
-0.00807966
0.00109441
-0.00639388
0.00109413
-0.0038925
0.00111624
-0.0009411
0.00115588
0.00198997
0.00120234
0.00452551
0.00124217
0.00650834
0.00126454
0.00800433
0.00126484
0.00909729
0.00124525
0.00975862
0.00973388
0.00140663
0.00781965
0.00141173
0.0079763
0.00140135
0.00823111
0.00137522
0.00866516
0.00133638
0.00903147
0.00129102
0.0088324
0.00124657
0.00763386
0.0012105
0.00534529
0.00118932
0.00227125
0.00118588
-0.00103029
0.00119727
-0.00397759
0.00121673
-0.00617941
0.00123717
-0.00752549
0.00125074
-0.00816667
0.00124887
-0.00843886
0.00122717
-0.0086627
0.00118949
-0.00888043
0.00114615
-0.00880602
0.00110922
-0.00804272
0.0010886
-0.00637326
0.00108995
-0.00389385
0.00111391
-0.000965059
0.00115533
0.00194855
0.00120328
0.00447756
0.00124436
0.00646727
0.00126779
0.00798089
0.001269
0.00909608
0.00125003
0.00977759
0.00976627
0.00141102
0.00779813
0.00141772
0.00796959
0.00140896
0.00823986
0.00138447
0.00868965
0.00134689
0.00906905
0.00130184
0.00887745
0.00125639
0.00767931
0.00121809
0.00538359
0.00119392
0.00229543
0.00118737
-0.00102374
0.00119601
-0.00398623
0.00121325
-0.00619666
0.00123205
-0.00754429
0.00124459
-0.00817922
0.00124215
-0.00843642
0.00122007
-0.00864062
0.00118213
-0.00884249
0.0011388
-0.00876269
0.00110236
-0.00800628
0.00108282
-0.00635372
0.00108574
-0.00389677
0.0011115
-0.000990825
0.00115465
0.0019054
0.0012041
0.00442812
0.00124642
0.00642494
0.00127096
0.00795636
0.0012731
0.00909393
0.0012548
0.0097959
0.00979846
0.00141513
0.00777481
0.00142347
0.00796125
0.0014164
0.00824693
0.00139361
0.00871245
0.00135733
0.00910532
0.00131263
0.00892215
0.00126621
0.00772574
0.00122568
0.00542411
0.00119849
0.00232263
0.00118878
-0.00101403
0.00119464
-0.00399208
0.00120965
-0.00621167
0.00122681
-0.00756146
0.00123834
-0.00819075
0.00123537
-0.00843345
0.00121296
-0.00861821
0.00117479
-0.00880432
0.0011315
-0.0087194
0.00109554
-0.00797032
0.00107705
-0.00633522
0.00108149
-0.00390122
0.00110902
-0.00101835
0.00115386
0.00186055
0.00120477
0.0043772
0.00124836
0.00638135
0.00127401
0.00793071
0.00127714
0.0090908
0.00125953
0.00981351
0.00983045
0.00141896
0.00774966
0.00142898
0.00795122
0.00142365
0.00825227
0.00140261
0.00873349
0.0013677
0.00914024
0.00132339
0.00896646
0.00127602
0.00777311
0.00123326
0.00546687
0.00120302
0.00235287
0.00119013
-0.00100115
0.00119318
-0.00399513
0.00120595
-0.00622443
0.00122147
-0.00757697
0.00123199
-0.00820128
0.00122853
-0.00842998
0.00120583
-0.00859552
0.00116748
-0.00876597
0.00112424
-0.00867616
0.00108877
-0.00793485
0.00107129
-0.00631774
0.00107721
-0.00390714
0.00110644
-0.00104758
0.00115294
0.00181405
0.00120531
0.00432484
0.00125016
0.0063365
0.00127697
0.0079039
0.00128111
0.00908666
0.00126424
0.00983037
0.00986219
0.00142249
0.00772266
0.00143424
0.00793947
0.0014307
0.00825581
0.00141147
0.00875272
0.00137797
0.00917373
0.0013341
0.00901033
0.00128581
0.00782139
0.00124083
0.00551186
0.00120753
0.00238617
0.00119142
-0.000985037
0.00119163
-0.00399535
0.00120214
-0.00623494
0.00121601
-0.00759085
0.00122555
-0.00821081
0.00122161
-0.00842604
0.00119869
-0.00857259
0.00116019
-0.00872748
0.00111703
-0.008633
0.00108204
-0.00789986
0.00106554
-0.00630123
0.0010729
-0.0039145
0.00110378
-0.00107847
0.0011519
0.00176594
0.00120569
0.00427105
0.00125182
0.00629037
0.00127981
0.00787592
0.001285
0.00908147
0.00126891
0.00984646
0.00989365
0.0014257
0.00769378
0.00143922
0.00792596
0.00143752
0.00825751
0.00142016
0.00877007
0.00138814
0.00920575
0.00134476
0.00905371
0.00129558
0.00787057
0.00124838
0.00555905
0.001212
0.00242256
0.00119264
-0.000965681
0.00119
-0.0039927
0.00119823
-0.00624318
0.00121046
-0.00760307
0.001219
-0.00821935
0.00121463
-0.00842168
0.00119152
-0.00854948
0.00115293
-0.00868888
0.00110987
-0.00858994
0.00107536
-0.00786535
0.0010598
-0.00628568
0.00106854
-0.00392324
0.00110103
-0.00111095
0.00115071
0.00171625
0.00120593
0.00421583
0.00125334
0.00624295
0.00128253
0.00784673
0.00128881
0.00907519
0.00127354
0.00986173
0.00992479
0.0014286
0.00766298
0.00144392
0.00791064
0.00144411
0.00825732
0.00142868
0.0087855
0.00139819
0.00923624
0.00135534
0.00909656
0.00130532
0.00792059
0.00125592
0.00560846
0.00121644
0.00246204
0.00119381
-0.000943048
0.00118828
-0.00398717
0.00119423
-0.00624914
0.0012048
-0.00761363
0.00121236
-0.00822692
0.00120759
-0.00841691
0.00118434
-0.00852623
0.00114569
-0.00865023
0.00110275
-0.008547
0.0010687
-0.00783131
0.00105407
-0.00627104
0.00106413
-0.0039333
0.00109817
-0.00114499
0.00114939
0.00166503
0.001206
0.00415922
0.00125471
0.00619424
0.00128513
0.00781631
0.00129254
0.00906778
0.00127813
0.00987614
0.00995559
0.00143117
0.00763024
0.00144832
0.00789349
0.00145044
0.0082552
0.00143699
0.00879895
0.00140809
0.00926514
0.00136584
0.00913881
0.00131502
0.00797141
0.00126343
0.00566004
0.00122085
0.00250461
0.00119492
-0.000917114
0.00118648
-0.00397873
0.00119014
-0.00625279
0.00119904
-0.00762254
0.00120563
-0.00823351
0.00120049
-0.00841177
0.00117715
-0.00850289
0.00113847
-0.00861155
0.00109566
-0.0085042
0.00106209
-0.00779773
0.00104834
-0.00625728
0.00105968
-0.00394465
0.00109521
-0.00118053
0.00114793
0.00161232
0.00120592
0.00410123
0.00125593
0.00614424
0.0012876
0.00778464
0.00129618
0.0090592
0.00128267
0.00988965
0.009986
0.00143339
0.00759553
0.00145242
0.00787447
0.00145652
0.0082511
0.0014451
0.00881037
0.00141784
0.0092924
0.00137624
0.00918041
0.00132466
0.008023
0.00127092
0.00571379
0.00122523
0.0025503
0.00119597
-0.000887856
0.0011846
-0.00396736
0.00118595
-0.00625414
0.00119319
-0.00762977
0.00119881
-0.00823912
0.00119331
-0.00840627
0.00116993
-0.00847951
0.00113127
-0.00857289
0.00108862
-0.00846155
0.00105551
-0.00776462
0.00104261
-0.00624438
0.00105517
-0.00395722
0.00109215
-0.0012175
0.00114631
0.00155815
0.00120567
0.00404187
0.00125698
0.00609292
0.00128994
0.00775168
0.00129972
0.00904943
0.00128715
0.00990222
0.010016
0.00143526
0.00755883
0.00145619
0.00785354
0.00146231
0.00824498
0.00145297
0.00881971
0.00142742
0.00931795
0.00138654
0.0092213
0.00133425
0.00807529
0.00127837
0.00576967
0.00122958
0.00259909
0.00119698
-0.000855252
0.00118265
-0.00395303
0.00118168
-0.00625317
0.00118725
-0.00763534
0.00119189
-0.00824377
0.00118608
-0.00840046
0.0011627
-0.00845613
0.00112409
-0.00853429
0.00108161
-0.00841907
0.00104896
-0.00773196
0.00103687
-0.0062323
0.00105061
-0.00397095
0.00108897
-0.00125586
0.00114454
0.00150258
0.00120524
0.00398117
0.00125787
0.00604029
0.00129214
0.00771741
0.00130316
0.00903841
0.00129157
0.00991382
0.0100455
0.00143677
0.00752012
0.00145963
0.00783069
0.0014678
0.0082368
0.0014606
0.00882691
0.00143681
0.00934173
0.0013967
0.00926141
0.00134376
0.00812823
0.00128578
0.00582765
0.00123389
0.00265098
0.00119793
-0.000819287
0.00118062
-0.00393573
0.00117732
-0.00624987
0.00118122
-0.00763924
0.00118489
-0.00824745
0.00117877
-0.00839434
0.00115544
-0.00843279
0.00111693
-0.00849578
0.00107464
-0.00837677
0.00104243
-0.00769975
0.00103114
-0.00622101
0.00104599
-0.00398581
0.00108568
-0.00129554
0.00114262
0.00144565
0.00120464
0.00391914
0.00125859
0.00598635
0.00129419
0.0076818
0.00130649
0.00902612
0.00129592
0.00992438
0.0100745
0.0014379
0.00747937
0.00146271
0.00780587
0.00147298
0.00822653
0.00146796
0.00883193
0.001446
0.00936369
0.00140673
0.00930068
0.0013532
0.00818176
0.00129316
0.00588769
0.00123817
0.00270596
0.00119883
-0.000779944
0.00117853
-0.00391543
0.00117288
-0.00624422
0.00117509
-0.00764146
0.00117781
-0.00825016
0.00117141
-0.00838793
0.00114816
-0.00840955
0.00110979
-0.00845742
0.0010677
-0.00833468
0.00103593
-0.00766798
0.00102539
-0.00621047
0.00104131
-0.00400173
0.00108227
-0.00133649
0.00114053
0.00138738
0.00120386
0.00385581
0.00125913
0.00593108
0.0012961
0.00764484
0.0013097
0.00901251
0.0013002
0.00993389
0.010103
0.00143864
0.00743656
0.00146544
0.00777906
0.00147784
0.00821414
0.00147504
0.00883473
0.00145496
0.00938377
0.0014166
0.00933904
0.00136254
0.00823582
0.00130048
0.00594975
0.00124241
0.00276403
0.00119968
-0.000737212
0.00117636
-0.00389211
0.00116836
-0.00623622
0.00116889
-0.00764199
0.00117064
-0.00825191
0.00116397
-0.00838127
0.00114085
-0.00838642
0.00110266
-0.00841923
0.00106078
-0.00829281
0.00102945
-0.00763665
0.00101964
-0.00620066
0.00103657
-0.00401866
0.00107873
-0.00137866
0.00113828
0.00132784
0.0012029
0.00379119
0.0012595
0.00587448
0.00129784
0.0076065
0.0013128
0.00899755
0.0013044
0.00994229
0.0101309
0.00143898
0.00739168
0.00146779
0.00775025
0.00148235
0.00819959
0.00148181
0.00883526
0.00146368
0.0094019
0.0014263
0.00937642
0.00137178
0.00829033
0.00130775
0.00601379
0.00124661
0.00282516
0.00120048
-0.000691081
0.00117413
-0.00386575
0.00116376
-0.00622585
0.0011626
-0.00764083
0.00116338
-0.00825269
0.00115646
-0.00837435
0.00113351
-0.00836347
0.00109554
-0.00838125
0.00105389
-0.00825116
0.00102298
-0.00760573
0.00101387
-0.00619155
0.00103176
-0.00403655
0.00107508
-0.00142198
0.00113585
0.00126707
0.00120174
0.0037253
0.00125967
0.00581656
0.00129942
0.00756675
0.00131576
0.00898121
0.00130851
0.00994954
0.0101582
0.00143891
0.0073447
0.00146976
0.0077194
0.0014865
0.00818285
0.00148827
0.00883349
0.00147214
0.00941804
0.00143582
0.00941274
0.00138091
0.00834524
0.00131495
0.00607975
0.00125078
0.00288934
0.00120124
-0.000641547
0.00117183
-0.00383634
0.00115908
-0.0062131
0.00115623
-0.00763798
0.00115604
-0.0082525
0.00114889
-0.0083672
0.00112614
-0.00834072
0.00108842
-0.00834353
0.00104703
-0.00820977
0.00101653
-0.00757524
0.00100808
-0.0061831
0.00102688
-0.00405534
0.00107129
-0.0014664
0.00113326
0.0012051
0.0012004
0.00365816
0.00125966
0.00575729
0.00130083
0.00752557
0.00131859
0.00896345
0.00131253
0.00995561
0.0101848
0.00143843
0.00729563
0.00147133
0.0076865
0.00149027
0.0081639
0.0014944
0.00882936
0.00148032
0.00943211
0.00144513
0.00944794
0.00138991
0.00840046
0.00132208
0.00614757
0.00125489
0.00295653
0.00120195
-0.000588607
0.00116947
-0.00380387
0.00115433
-0.00619795
0.00114978
-0.00763343
0.00114862
-0.00825134
0.00114124
-0.00835982
0.00111874
-0.00831822
0.00108131
-0.00830611
0.00104018
-0.00816863
0.00101009
-0.00754514
0.00100227
-0.00617529
0.00102192
-0.00407499
0.00106738
-0.00151185
0.00113049
0.00114199
0.00119885
0.0035898
0.00125945
0.0056967
0.00130207
0.00748295
0.00132128
0.00894424
0.00131644
0.00996045
0.0102108
0.00143752
0.00724443
0.00147248
0.00765154
0.00149366
0.00814272
0.00150017
0.00882285
0.00148821
0.00944407
0.00145422
0.00948193
0.00139877
0.00845591
0.00132914
0.0062172
0.00125896
0.00302671
0.00120262
-0.000532261
0.00116705
-0.0037683
0.0011495
-0.0061804
0.00114325
-0.00762718
0.00114112
-0.00824921
0.00113353
-0.00835223
0.0011113
-0.00829599
0.00107421
-0.00826902
0.00103335
-0.00812777
0.00100365
-0.00751544
0.000996441
-0.00616808
0.0010169
-0.00409545
0.00106333
-0.00155828
0.00112754
0.00107777
0.0011971
0.00352024
0.00125903
0.00563477
0.00130312
0.00743886
0.00132382
0.00892354
0.00132025
0.00996402
0.0102359
0.00143617
0.00719111
0.00147321
0.0076145
0.00149664
0.00811929
0.00150557
0.00881393
0.00149578
0.00945386
0.00146308
0.00951463
0.00140748
0.00851151
0.00133611
0.00628856
0.00126298
0.00309984
0.00120323
-0.000472514
0.00116457
-0.00372964
0.00114461
-0.00616043
0.00113664
-0.00761921
0.00113353
-0.0082461
0.00112573
-0.00834443
0.00110381
-0.00827407
0.0010671
-0.0082323
0.00102652
-0.0080872
0.000997206
-0.00748613
0.000990581
-0.00616146
0.00101179
-0.00411666
0.00105915
-0.00160563
0.00112441
0.00101251
0.00119515
0.0034495
0.00125841
0.0055715
0.00130399
0.00739328
0.00132621
0.00890132
0.00132395
0.00996627
0.0102603
0.00143437
0.00713565
0.00147351
0.00757536
0.00149921
0.0080936
0.00151058
0.00880256
0.00150303
0.00946141
0.00147169
0.00954597
0.00141602
0.00856718
0.00134299
0.0063616
0.00126695
0.00317588
0.00120381
-0.000409372
0.00116203
-0.00368787
0.00113964
-0.00613804
0.00112996
-0.00760953
0.00112586
-0.008242
0.00111787
-0.00833644
0.00109628
-0.00825248
0.00105998
-0.008196
0.00101971
-0.00804693
0.000990762
-0.00745718
0.000984689
-0.00615539
0.00100661
-0.00413859
0.00105483
-0.00165385
0.0011211
0.000946237
0.00119299
0.00337761
0.00125758
0.0055069
0.00130466
0.00734621
0.00132843
0.00887755
0.00132752
0.00996718
0.0102838
0.00143212
0.00707805
0.00147336
0.00753412
0.00150134
0.00806562
0.00151519
0.00878871
0.00150992
0.00946668
0.00148003
0.00957586
0.00142439
0.00862281
0.00134976
0.00643622
0.00127086
0.00325479
0.00120433
-0.000342848
0.00115944
-0.00364298
0.0011346
-0.0061132
0.0011232
-0.00759813
0.00111812
-0.00823692
0.00110992
-0.00832824
0.0010887
-0.00823127
0.00105285
-0.00816015
0.0010129
-0.00800698
0.000984309
-0.00742858
0.000978762
-0.00614984
0.00100135
-0.00416118
0.00105037
-0.00170286
0.0011176
0.000879011
0.00119061
0.0033046
0.00125654
0.00544098
0.00130513
0.00729761
0.00133048
0.0088522
0.00133097
0.00996669
0.0103065
0.00142941
0.0070183
0.00147276
0.00749077
0.00150303
0.00803534
0.00151938
0.00877236
0.00151645
0.00946962
0.00148808
0.00960423
0.00143257
0.00867833
0.00135643
0.00651236
0.0012747
0.00333651
0.00120481
-0.000272956
0.00115678
-0.00359495
0.00112949
-0.00608591
0.00111637
-0.007585
0.00111029
-0.00823084
0.0011019
-0.00831985
0.00108107
-0.00821044
0.00104571
-0.00812479
0.0010061
-0.00796737
0.000977845
-0.00740033
0.000972796
-0.00614479
0.000996013
-0.0041844
0.00104578
-0.00175263
0.00111391
0.000810879
0.00118802
0.00323049
0.00125527
0.00537373
0.0013054
0.00724748
0.00133236
0.00882523
0.00133428
0.00996478
0.0103282
0.00142623
0.0069564
0.00147169
0.00744531
0.00150426
0.00800277
0.00152313
0.00875349
0.00152259
0.00947016
0.00149584
0.00963098
0.00144054
0.00873362
0.00136298
0.00658993
0.00127849
0.003421
0.00120525
-0.000199715
0.00115408
-0.00354378
0.00112432
-0.00605616
0.00110946
-0.00757014
0.00110238
-0.00822377
0.0010938
-0.00831127
0.00107339
-0.00819003
0.00103855
-0.00808995
0.00099929
-0.0079281
0.000971364
-0.0073724
0.000966785
-0.00614021
0.000990588
-0.0042082
0.00104105
-0.00180309
0.00111004
0.000741891
0.00118521
0.00315532
0.00125377
0.00530517
0.00130545
0.00719581
0.00133406
0.00879663
0.00133744
0.00996139
0.010349
0.00142257
0.00147015
0.00739774
0.00150502
0.0079679
0.00152643
0.00873208
0.00152833
0.00946826
0.00150328
0.00965604
0.0014483
0.0087886
0.00136939
0.00666883
0.0012822
0.00350819
0.00120563
-0.000123147
0.00115131
-0.00348946
0.00111908
-0.00602392
0.00110248
-0.00755355
0.0010944
-0.00821568
0.00108561
-0.00830249
0.00106564
-0.00817005
0.00103137
-0.00805568
0.000992478
-0.00788921
0.000964863
-0.00734479
0.000960727
-0.00613607
0.000985077
-0.00423255
0.00103618
-0.00185419
0.00110597
0.000672097
0.00118218
0.00307911
0.00125205
0.0052353
0.00130528
0.00714258
0.00133556
0.00876635
0.00134045
0.0099565
0.0103687
0.00146812
0.00734805
0.00150529
0.00793073
0.00152927
0.0087081
0.00153366
0.00946387
0.00151038
0.00967931
0.00145582
0.00884316
0.00137567
0.00674898
0.00128584
0.00359802
0.00120598
-4.32773e-05
0.0011485
-0.00343198
0.00111377
-0.00598919
0.00109542
-0.0075352
0.00108633
-0.00820659
0.00107735
-0.00829351
0.00105783
-0.00815053
0.00102416
-0.00802202
0.000985658
-0.00785071
0.000958339
-0.00731747
0.000954616
-0.00613235
0.000979479
-0.00425741
0.00103117
-0.00190589
0.00110172
0.000601549
0.00117893
0.0030019
0.0012501
0.00516413
0.0013049
0.00708778
0.00133686
0.00873439
0.00134331
0.00995005
0.0103873
0.0014656
0.00729625
0.00150507
0.00789125
0.00153162
0.00868156
0.00153854
0.00945694
0.00151714
0.00970072
0.00146311
0.00889719
0.00138181
0.00683028
0.00128941
0.00369042
0.00120627
3.9863e-05
0.00114563
-0.00337134
0.0011084
-0.00595195
0.0010883
-0.0075151
0.00107818
-0.00819647
0.001069
-0.00828432
0.00104995
-0.00813148
0.00101692
-0.00798899
0.000978827
-0.00781262
0.000951787
-0.00729043
0.000948449
-0.00612901
0.000973792
-0.00428275
0.00102603
-0.00195812
0.00109728
0.000530298
0.00117546
0.00292372
0.00124791
0.00509168
0.00130428
0.0070314
0.00133796
0.0087007
0.00134599
0.00994203
0.0104049
0.00146258
0.00724235
0.00150435
0.00784948
0.00153347
0.00865244
0.00154298
0.00944743
0.00152353
0.00972017
0.00147013
0.00895058
0.00138779
0.00691263
0.0012929
0.00378531
0.00120652
0.000126241
0.00114272
-0.00330754
0.00110296
-0.00591219
0.0010811
-0.00749324
0.00106996
-0.00818533
0.00106056
-0.00827492
0.00104199
-0.00811291
0.00100964
-0.00795663
0.00097198
-0.00777496
0.000945205
-0.00726366
0.00094222
-0.00612603
0.000968011
-0.00430855
0.00102075
-0.00201086
0.00109265
0.000458395
0.00117176
0.00284462
0.00124547
0.00501796
0.00130343
0.00697345
0.00133885
0.00866528
0.0013485
0.00993238
0.0104213
0.00145905
0.00718634
0.00150311
0.00780542
0.00153482
0.00862072
0.00154695
0.00943531
0.00152953
0.00973759
0.00147688
0.00900323
0.0013936
0.00699591
0.0012963
0.00388261
0.00120672
0.000215818
0.00113975
-0.00324057
0.00109746
-0.0058699
0.00107383
-0.00746962
0.00106166
-0.00817316
0.00105204
-0.00826531
0.00103397
-0.00809484
0.00100232
-0.00792498
0.000965114
-0.00773776
0.00093859
-0.00723713
0.000935926
-0.00612336
0.000962136
-0.00433476
0.00101533
-0.00206405
0.00108784
0.00038589
0.00116783
0.00276462
0.0012428
0.004943
0.00130234
0.00691391
0.00133952
0.00862809
0.00135083
0.00992108
0.0104365
0.00145501
0.00712825
0.00150135
0.00775908
0.00153565
0.00858643
0.00155044
0.00942052
0.00153514
0.00975288
0.00148335
0.00905503
0.00139924
0.00708002
0.00129961
0.00398223
0.00120688
0.000308553
0.00113674
-0.00317044
0.00109189
-0.00582505
0.00106649
-0.00744421
0.00105327
-0.00815994
0.00104343
-0.00825546
0.00102586
-0.00807727
0.000994946
-0.00789407
0.000958226
-0.00770104
0.000931939
-0.00721084
0.000929563
-0.00612099
0.000956162
-0.00436136
0.00100978
-0.00211767
0.00108284
0.000312832
0.00116368
0.00268378
0.00123988
0.0048668
0.001301
0.00685279
0.00133997
0.00858912
0.00135297
0.00990808
0.0104504
0.00145046
0.00706809
0.00149905
0.00771049
0.00153594
0.00854954
0.00155343
0.00940303
0.00154034
0.00976597
0.00148951
0.00910585
0.0014047
0.00716484
0.00130284
0.00408409
0.00120699
0.0004044
0.00113368
-0.00309713
0.00108626
-0.00577763
0.00105907
-0.00741702
0.00104481
-0.00814568
0.00103473
-0.00824538
0.00101767
-0.0080602
0.000987525
-0.00786393
0.000951312
-0.00766483
0.00092525
-0.00718478
0.000923125
-0.00611886
0.000950087
-0.00438832
0.00100409
-0.00217167
0.00107766
0.000239268
0.00115931
0.00260213
0.00123671
0.00478939
0.00129942
0.00679008
0.00134019
0.00854835
0.00135491
0.00989336
0.0104631
0.00144538
0.00700587
0.00149622
0.00765965
0.00153569
0.00851007
0.0015559
0.00938281
0.0015451
0.00977677
0.00149537
0.00915558
0.00140996
0.00725025
0.00130597
0.00418808
0.00120706
0.000503308
0.00113058
-0.00302065
0.00108057
-0.00572762
0.00105159
-0.00738804
0.00103627
-0.00813036
0.00102594
-0.00823505
0.00100939
-0.00804366
0.000980046
-0.00783458
0.000944369
-0.00762915
0.000918521
-0.00715894
0.000916612
-0.00611695
0.000943906
-0.00441561
0.000998272
-0.00222604
0.0010723
0.000165241
0.00115471
0.00251972
0.0012333
0.00471081
0.00129758
0.0067258
0.00134016
0.00850576
0.00135664
0.00987688
0.0104744
0.00143977
0.00694161
0.00149284
0.00760659
0.00153488
0.00846803
0.00155785
0.00935983
0.00154942
0.00978521
0.00150089
0.00920411
0.00141502
0.00733612
0.001309
0.0042941
0.00120709
0.000605225
0.00112743
-0.00294099
0.00107482
-0.005675
0.00104403
-0.00735725
0.00102764
-0.00811398
0.00101706
-0.00822446
0.00100102
-0.00802763
0.000972504
-0.00780606
0.000937391
-0.00759404
0.000911751
-0.00713329
0.000910017
-0.00611522
0.000937616
-0.00444321
0.000992319
-0.00228074
0.00106677
9.0792e-05
0.0011499
0.00243659
0.00122963
0.00463107
0.00129549
0.00665994
0.0013399
0.00846135
0.00135817
0.00985862
0.0104843
0.00143364
0.00687534
0.0014889
0.00755133
0.0015335
0.00842343
0.00155927
0.00933407
0.00155329
0.00979119
0.00150608
0.00925131
0.00141988
0.00742232
0.00131194
0.00440203
0.00120707
0.000710094
0.00112425
-0.00285816
0.001069
-0.00561976
0.0010364
-0.00732464
0.00101894
-0.00809652
0.00100808
-0.0082136
0.000992565
-0.00801211
0.000964896
-0.00777839
0.000930376
-0.00755952
0.000904936
-0.00710785
0.00090334
-0.00611362
0.000931213
-0.00447108
0.000986233
-0.00233576
0.00106107
1.5955e-05
0.00114487
0.00235279
0.00122572
0.00455022
0.00129314
0.00659253
0.00133939
0.0084151
0.00135947
0.00983853
0.0104928
0.00142699
0.00680707
0.00148441
0.0074939
0.00153156
0.00837628
0.00156013
0.0093055
0.00155668
0.00979464
0.00151091
0.00929707
0.00142452
0.00750872
0.00131479
0.00451176
0.00120703
0.000817854
0.00112102
-0.00277216
0.00106313
-0.00556187
0.0010287
-0.00729021
0.00101016
-0.00807799
0.000999014
-0.00820245
0.00098401
-0.00799711
0.000957215
-0.0077516
0.000923319
-0.00752562
0.000898077
-0.00708261
0.000896578
-0.00611212
0.000924691
-0.0044992
0.000980014
-0.00239109
0.00105521
-5.92409e-05
0.00113964
0.00226836
0.00122157
0.00446829
0.00129052
0.00652357
0.00133862
0.008367
0.00136055
0.0098166
0.0104998
0.0014198
0.00673685
0.00147937
0.00743434
0.00152903
0.00832662
0.00156043
0.0092741