/*--------------------------------*- C++ -*----------------------------------*\
  =========                 |
  \\      /  F ield         | OpenFOAM: The Open Source CFD Toolbox
   \\    /   O peration     | Website:  https://openfoam.org
    \\  /    A nd           | Version:  7
     \\/     M anipulation  |
\*---------------------------------------------------------------------------*/
FoamFile
{
    version     2.0;
    format      ascii;
    class       volScalarField;
    location    "40";
    object      p;
}
// * * * * * * * * * * * * * * * * * * * * * * * * * * * * * * * * * * * * * //

dimensions      [0 2 -2 0 0 0 0];

internalField   nonuniform List<scalar> 
36600
(
-0.234377
-0.235342
-0.235929
-0.236436
-0.23688
-0.237263
-0.237601
-0.237904
-0.23818
-0.238437
-0.238679
-0.238909
-0.239131
-0.239346
-0.239559
-0.239771
-0.239988
-0.240219
-0.240436
-0.240633
-0.234426
-0.235388
-0.235973
-0.236478
-0.236921
-0.237303
-0.23764
-0.237941
-0.238217
-0.238472
-0.238712
-0.238942
-0.239162
-0.239377
-0.239588
-0.2398
-0.240016
-0.240246
-0.240463
-0.24066
-0.234515
-0.235472
-0.236054
-0.236556
-0.236996
-0.237375
-0.237709
-0.238008
-0.23828
-0.238533
-0.238771
-0.238997
-0.239215
-0.239427
-0.239636
-0.239845
-0.240058
-0.240288
-0.240504
-0.240697
-0.234643
-0.235593
-0.23617
-0.236668
-0.237104
-0.237479
-0.237809
-0.238103
-0.238372
-0.23862
-0.238854
-0.239076
-0.239289
-0.239496
-0.239701
-0.239906
-0.240115
-0.240342
-0.240556
-0.240743
-0.234811
-0.235751
-0.236322
-0.236814
-0.237245
-0.237614
-0.237938
-0.238227
-0.23849
-0.238733
-0.23896
-0.239176
-0.239383
-0.239584
-0.239782
-0.239981
-0.240186
-0.240409
-0.240618
-0.240797
-0.235017
-0.235945
-0.236509
-0.236994
-0.237417
-0.23778
-0.238097
-0.238379
-0.238635
-0.23887
-0.23909
-0.239298
-0.239497
-0.23969
-0.23988
-0.240071
-0.240268
-0.240486
-0.24069
-0.240858
-0.235261
-0.236175
-0.23673
-0.237207
-0.237622
-0.237977
-0.238285
-0.238559
-0.238805
-0.239031
-0.239242
-0.23944
-0.239629
-0.239812
-0.239992
-0.240173
-0.240361
-0.240572
-0.24077
-0.240924
-0.235543
-0.236441
-0.236986
-0.237453
-0.237858
-0.238203
-0.238501
-0.238765
-0.239001
-0.239216
-0.239415
-0.239602
-0.239779
-0.239949
-0.240117
-0.240286
-0.240462
-0.240666
-0.240855
-0.240993
-0.235861
-0.236741
-0.237275
-0.237731
-0.238125
-0.238458
-0.238745
-0.238997
-0.239221
-0.239423
-0.239609
-0.239782
-0.239945
-0.2401
-0.240253
-0.240408
-0.240571
-0.240764
-0.240943
-0.241062
-0.236214
-0.237075
-0.237596
-0.23804
-0.238421
-0.238742
-0.239016
-0.239254
-0.239464
-0.239652
-0.239823
-0.23998
-0.240126
-0.240264
-0.2404
-0.240537
-0.240684
-0.240865
-0.241033
-0.241128
-0.236602
-0.237442
-0.237949
-0.238379
-0.238747
-0.239054
-0.239313
-0.239536
-0.23973
-0.239901
-0.240055
-0.240193
-0.24032
-0.240439
-0.240554
-0.240671
-0.240799
-0.240965
-0.24112
-0.241188
-0.237023
-0.237842
-0.238333
-0.238749
-0.239101
-0.239392
-0.239636
-0.239841
-0.240017
-0.24017
-0.240304
-0.240422
-0.240527
-0.240623
-0.240715
-0.240809
-0.240914
-0.241063
-0.241202
-0.241238
-0.237477
-0.238272
-0.238748
-0.239147
-0.239483
-0.239757
-0.239983
-0.240169
-0.240326
-0.240457
-0.240569
-0.240664
-0.240745
-0.240815
-0.24088
-0.240947
-0.241026
-0.241154
-0.241275
-0.241274
-0.237962
-0.238733
-0.239192
-0.239575
-0.239893
-0.240148
-0.240353
-0.240519
-0.240654
-0.240762
-0.24085
-0.240918
-0.240972
-0.241013
-0.241048
-0.241084
-0.241133
-0.241236
-0.241336
-0.241292
-0.238478
-0.239224
-0.239666
-0.24003
-0.240328
-0.240563
-0.240747
-0.24089
-0.241001
-0.241084
-0.241144
-0.241184
-0.241207
-0.241216
-0.241216
-0.241217
-0.241231
-0.241306
-0.241381
-0.241285
-0.239024
-0.239744
-0.240167
-0.240512
-0.24079
-0.241003
-0.241163
-0.241282
-0.241366
-0.241422
-0.241452
-0.241461
-0.24145
-0.241422
-0.241384
-0.241345
-0.241319
-0.241359
-0.241408
-0.241248
-0.239599
-0.240293
-0.240697
-0.241021
-0.241276
-0.241466
-0.241601
-0.241693
-0.241749
-0.241774
-0.241773
-0.241747
-0.241699
-0.241631
-0.24155
-0.241465
-0.241393
-0.241393
-0.241413
-0.241174
-0.240202
-0.24087
-0.241253
-0.241556
-0.241788
-0.241952
-0.242061
-0.242124
-0.242149
-0.242142
-0.242106
-0.242042
-0.241953
-0.241842
-0.241713
-0.241578
-0.241452
-0.241404
-0.241392
-0.241053
-0.240834
-0.241475
-0.241837
-0.242116
-0.242324
-0.242461
-0.24254
-0.242573
-0.242565
-0.242523
-0.24245
-0.242346
-0.242214
-0.242054
-0.241873
-0.241681
-0.241495
-0.24139
-0.241345
-0.240858
-0.241494
-0.242108
-0.242448
-0.242703
-0.242884
-0.242992
-0.243041
-0.24304
-0.242997
-0.242918
-0.242805
-0.242658
-0.242479
-0.242267
-0.242029
-0.241774
-0.24152
-0.241351
-0.241276
-0.240564
-0.242182
-0.242768
-0.243085
-0.243315
-0.243467
-0.243545
-0.243561
-0.243525
-0.243446
-0.243327
-0.243171
-0.242979
-0.24275
-0.242482
-0.242182
-0.241858
-0.241528
-0.241286
-0.241193
-0.240303
-0.242897
-0.243455
-0.243749
-0.243952
-0.244075
-0.24412
-0.244101
-0.244028
-0.243909
-0.243749
-0.243549
-0.243309
-0.243026
-0.2427
-0.242332
-0.241933
-0.241519
-0.24119
-0.240978
-0.240086
-0.243642
-0.244171
-0.24444
-0.244615
-0.244706
-0.244717
-0.244661
-0.244549
-0.244388
-0.244184
-0.243937
-0.243647
-0.243309
-0.242921
-0.242482
-0.242001
-0.241495
-0.241071
-0.240741
-0.239761
-0.244415
-0.244915
-0.245159
-0.245304
-0.245361
-0.245336
-0.245241
-0.245087
-0.244883
-0.244633
-0.244338
-0.243995
-0.2436
-0.243146
-0.242633
-0.242064
-0.241456
-0.240926
-0.240478
-0.239337
-0.245218
-0.245689
-0.245905
-0.246019
-0.246041
-0.245977
-0.24584
-0.245642
-0.245393
-0.245095
-0.244749
-0.244353
-0.243899
-0.243378
-0.242787
-0.242125
-0.241407
-0.240755
-0.240178
-0.238825
-0.246051
-0.246493
-0.246681
-0.246761
-0.246746
-0.24664
-0.24646
-0.246216
-0.245918
-0.245571
-0.245173
-0.244722
-0.244207
-0.243618
-0.242946
-0.242188
-0.24135
-0.240562
-0.23984
-0.238221
-0.246917
-0.247327
-0.247486
-0.247531
-0.247476
-0.247327
-0.2471
-0.246807
-0.246459
-0.24606
-0.245609
-0.245102
-0.244526
-0.243868
-0.243114
-0.242256
-0.241292
-0.240352
-0.239468
-0.237521
-0.247817
-0.248195
-0.248322
-0.24833
-0.248232
-0.248037
-0.24776
-0.247417
-0.247016
-0.246564
-0.246058
-0.245493
-0.244856
-0.244128
-0.243292
-0.242332
-0.241236
-0.240132
-0.239069
-0.23672
-0.248752
-0.249096
-0.24919
-0.249159
-0.249016
-0.248771
-0.248443
-0.248045
-0.24759
-0.247081
-0.246519
-0.245896
-0.245197
-0.244401
-0.243483
-0.24242
-0.241188
-0.239906
-0.238649
-0.235817
-0.249724
-0.250034
-0.250093
-0.250019
-0.249828
-0.249531
-0.249147
-0.248693
-0.248179
-0.247613
-0.246993
-0.24631
-0.245549
-0.244685
-0.243687
-0.242523
-0.241153
-0.239683
-0.238218
-0.234811
-0.250737
-0.25101
-0.251031
-0.250912
-0.25067
-0.250317
-0.249875
-0.24936
-0.248786
-0.248159
-0.247479
-0.246736
-0.245913
-0.244982
-0.243906
-0.242642
-0.241134
-0.239468
-0.237786
-0.233704
-0.251792
-0.252027
-0.252007
-0.251841
-0.251543
-0.251131
-0.250626
-0.250048
-0.249409
-0.248719
-0.247977
-0.247173
-0.246288
-0.245291
-0.244138
-0.242779
-0.241136
-0.239268
-0.237361
-0.232504
-0.252894
-0.253087
-0.253025
-0.252806
-0.25245
-0.251975
-0.251403
-0.250757
-0.250051
-0.249295
-0.248488
-0.247621
-0.246673
-0.24561
-0.244384
-0.242934
-0.24116
-0.239089
-0.236951
-0.231223
-0.254044
-0.254193
-0.254085
-0.253811
-0.253393
-0.252849
-0.252208
-0.251489
-0.250712
-0.249886
-0.249011
-0.248079
-0.247068
-0.24594
-0.244644
-0.243108
-0.24121
-0.23894
-0.236564
-0.229886
-0.255247
-0.255349
-0.255192
-0.254859
-0.254373
-0.253758
-0.253041
-0.252246
-0.251393
-0.250493
-0.249548
-0.248548
-0.247472
-0.246281
-0.244917
-0.243303
-0.241289
-0.238835
-0.236212
-0.228548
-0.256507
-0.256559
-0.256348
-0.255952
-0.255394
-0.254702
-0.253905
-0.25303
-0.252097
-0.251119
-0.250099
-0.249029
-0.247886
-0.246632
-0.245205
-0.243521
-0.241406
-0.238797
-0.235916
-0.227318
-0.257829
-0.257826
-0.257558
-0.257093
-0.25646
-0.255685
-0.254804
-0.253842
-0.252825
-0.251765
-0.250667
-0.249523
-0.248313
-0.246996
-0.245512
-0.24377
-0.241572
-0.238857
-0.235673
-0.226256
-0.259217
-0.259155
-0.258826
-0.258288
-0.257572
-0.256711
-0.255739
-0.254687
-0.25358
-0.252434
-0.251254
-0.250034
-0.248754
-0.247377
-0.245842
-0.244063
-0.241816
-0.239081
-0.235406
-0.225072
-0.260677
-0.26055
-0.260155
-0.259539
-0.258736
-0.257782
-0.256715
-0.255568
-0.254366
-0.253129
-0.251863
-0.250565
-0.249214
-0.247779
-0.246205
-0.244416
-0.242195
-0.239638
-0.23527
-0.22388
-0.262214
-0.262017
-0.26155
-0.260851
-0.259955
-0.258904
-0.257736
-0.256488
-0.255188
-0.253856
-0.252501
-0.25112
-0.249698
-0.248207
-0.246604
-0.244841
-0.24275
-0.240705
-0.236322
-0.228038
-0.263834
-0.26356
-0.263017
-0.262228
-0.261234
-0.260079
-0.258806
-0.257452
-0.256049
-0.254618
-0.25317
-0.251704
-0.250209
-0.248664
-0.247039
-0.245325
-0.243421
-0.242052
-0.239187
-0.24909
-0.265544
-0.265186
-0.26456
-0.263676
-0.262578
-0.261314
-0.259929
-0.258466
-0.256955
-0.255422
-0.253878
-0.252324
-0.250754
-0.249153
-0.247507
-0.245842
-0.244108
-0.243332
-0.241152
-0.254107
-0.26735
-0.2669
-0.266186
-0.2652
-0.263991
-0.262613
-0.261113
-0.259534
-0.257913
-0.256273
-0.254629
-0.252986
-0.251338
-0.249678
-0.248004
-0.24637
-0.244751
-0.244318
-0.242286
-0.254879
-0.269259
-0.268708
-0.267898
-0.266805
-0.26548
-0.263981
-0.262361
-0.260663
-0.258927
-0.257178
-0.255432
-0.253696
-0.251966
-0.250241
-0.248528
-0.246901
-0.245333
-0.245035
-0.243004
-0.254641
-0.271277
-0.270617
-0.269705
-0.268496
-0.267049
-0.265426
-0.26368
-0.26186
-0.260005
-0.258144
-0.256293
-0.254459
-0.252644
-0.250846
-0.249078
-0.247424
-0.245848
-0.245519
-0.24338
-0.253578
-0.273412
-0.272632
-0.27161
-0.270281
-0.268705
-0.266951
-0.265076
-0.263129
-0.261153
-0.259177
-0.257218
-0.255283
-0.253375
-0.251494
-0.249652
-0.247935
-0.246289
-0.245792
-0.243452
-0.25192
-0.275671
-0.274759
-0.273621
-0.272164
-0.270454
-0.268564
-0.266555
-0.264479
-0.262379
-0.260284
-0.258213
-0.256172
-0.254163
-0.252185
-0.250248
-0.248427
-0.246653
-0.245878
-0.243278
-0.24992
-0.27806
-0.277006
-0.275743
-0.274151
-0.272301
-0.270271
-0.268124
-0.265915
-0.263687
-0.261471
-0.259284
-0.257132
-0.255011
-0.25292
-0.250861
-0.248897
-0.246941
-0.245806
-0.242906
-0.247749
-0.280587
-0.279378
-0.277982
-0.276249
-0.274253
-0.272078
-0.269789
-0.267444
-0.265086
-0.262745
-0.260437
-0.258164
-0.25592
-0.253697
-0.25149
-0.249342
-0.247154
-0.2456
-0.242375
-0.245521
-0.283257
-0.28188
-0.280344
-0.278463
-0.276315
-0.27399
-0.271557
-0.269073
-0.266581
-0.264111
-0.261675
-0.259272
-0.25689
-0.254514
-0.252128
-0.249759
-0.247295
-0.245283
-0.241717
-0.243307
-0.286077
-0.28452
-0.282835
-0.280798
-0.278493
-0.276015
-0.273434
-0.270807
-0.268178
-0.265574
-0.263002
-0.260457
-0.25792
-0.255367
-0.252772
-0.250143
-0.247366
-0.244874
-0.240955
-0.241149
-0.289052
-0.287301
-0.28546
-0.283261
-0.280794
-0.278158
-0.275425
-0.272652
-0.269882
-0.267137
-0.26442
-0.261719
-0.259006
-0.256251
-0.253416
-0.250493
-0.24737
-0.244385
-0.240107
-0.23907
-0.292188
-0.290229
-0.288223
-0.285857
-0.283222
-0.280425
-0.277536
-0.274614
-0.271697
-0.268803
-0.26593
-0.263055
-0.260146
-0.25716
-0.254052
-0.250804
-0.247308
-0.243829
-0.239187
-0.237076
-0.295489
-0.293309
-0.291131
-0.28859
-0.285783
-0.282821
-0.279773
-0.276697
-0.273627
-0.270575
-0.26753
-0.264464
-0.261332
-0.258085
-0.254674
-0.251071
-0.247179
-0.243209
-0.238204
-0.235164
-0.29896
-0.296543
-0.294186
-0.291465
-0.288482
-0.28535
-0.28214
-0.278905
-0.275674
-0.272452
-0.26922
-0.265939
-0.262557
-0.25902
-0.255274
-0.251289
-0.246984
-0.24253
-0.237163
-0.233323
-0.302602
-0.299937
-0.297393
-0.294487
-0.291322
-0.288018
-0.284641
-0.281241
-0.27784
-0.274434
-0.270994
-0.267474
-0.263813
-0.259954
-0.255842
-0.251452
-0.24672
-0.241793
-0.236067
-0.231539
-0.306419
-0.303492
-0.300753
-0.297657
-0.294308
-0.290827
-0.287278
-0.283706
-0.280123
-0.276517
-0.272848
-0.26906
-0.265089
-0.260875
-0.25637
-0.251553
-0.246384
-0.240996
-0.234917
-0.229796
-0.310412
-0.307209
-0.304271
-0.30098
-0.297442
-0.29378
-0.290055
-0.2863
-0.282523
-0.278696
-0.274773
-0.270687
-0.266373
-0.261773
-0.256846
-0.251586
-0.245973
-0.240137
-0.233711
-0.228074
-0.31458
-0.311089
-0.307946
-0.304456
-0.300726
-0.29688
-0.29297
-0.289023
-0.285034
-0.280966
-0.276759
-0.272344
-0.267653
-0.262635
-0.257262
-0.251544
-0.245484
-0.23921
-0.232446
-0.226358
-0.318923
-0.315133
-0.311779
-0.308087
-0.304161
-0.300125
-0.296024
-0.291872
-0.287652
-0.283316
-0.278795
-0.274015
-0.268913
-0.263448
-0.257608
-0.251419
-0.24491
-0.238213
-0.231118
-0.224629
-0.323438
-0.319338
-0.315769
-0.311872
-0.307746
-0.303516
-0.299213
-0.294841
-0.290369
-0.285736
-0.280867
-0.275687
-0.27014
-0.264198
-0.257871
-0.251204
-0.244248
-0.237139
-0.229721
-0.222871
-0.32812
-0.323701
-0.319913
-0.315809
-0.311481
-0.307049
-0.302533
-0.297923
-0.293173
-0.288212
-0.282959
-0.277343
-0.271317
-0.264874
-0.258043
-0.250892
-0.243492
-0.235983
-0.228251
-0.221072
-0.332965
-0.328218
-0.324209
-0.319895
-0.315361
-0.31072
-0.305978
-0.301109
-0.296053
-0.29073
-0.285055
-0.278965
-0.272429
-0.26546
-0.258113
-0.250475
-0.242636
-0.234738
-0.2267
-0.219216
-0.337965
-0.332883
-0.328652
-0.324125
-0.319381
-0.314522
-0.309538
-0.304386
-0.298993
-0.29327
-0.287135
-0.280535
-0.273459
-0.265945
-0.258072
-0.249947
-0.241675
-0.233399
-0.225064
-0.217293
-0.343111
-0.337688
-0.333233
-0.328493
-0.323533
-0.318446
-0.313202
-0.307741
-0.301977
-0.295815
-0.289179
-0.282033
-0.27439
-0.266315
-0.257909
-0.249299
-0.240602
-0.23196
-0.223335
-0.215291
-0.348391
-0.342623
-0.337944
-0.33299
-0.327809
-0.322481
-0.316956
-0.311156
-0.304983
-0.298342
-0.291167
-0.283442
-0.275208
-0.266557
-0.257616
-0.248524
-0.239411
-0.230413
-0.221507
-0.213202
-0.353793
-0.347677
-0.342776
-0.337606
-0.332197
-0.326614
-0.320784
-0.314612
-0.307991
-0.300829
-0.293076
-0.284741
-0.275895
-0.266659
-0.257182
-0.247616
-0.238096
-0.228753
-0.219574
-0.211017
-0.3593
-0.352836
-0.347713
-0.342326
-0.336682
-0.330827
-0.324666
-0.318087
-0.310977
-0.303252
-0.294883
-0.28591
-0.276436
-0.266609
-0.256599
-0.246566
-0.23665
-0.226972
-0.217529
-0.208727
-0.364896
-0.358085
-0.352742
-0.347137
-0.341248
-0.335102
-0.32858
-0.321556
-0.313914
-0.305586
-0.296567
-0.286931
-0.276816
-0.266396
-0.255857
-0.245368
-0.235067
-0.225065
-0.215365
-0.206324
-0.370559
-0.363405
-0.357846
-0.352019
-0.345875
-0.339417
-0.332503
-0.324993
-0.316777
-0.307804
-0.298104
-0.287785
-0.27702
-0.266007
-0.254948
-0.244013
-0.233338
-0.223023
-0.213076
-0.203803
-0.376268
-0.368775
-0.363003
-0.356953
-0.350541
-0.343748
-0.336406
-0.328369
-0.319536
-0.309882
-0.299471
-0.288453
-0.277033
-0.265433
-0.253862
-0.242494
-0.231458
-0.220841
-0.210655
-0.201156
-0.381998
-0.374173
-0.368192
-0.361915
-0.355222
-0.348066
-0.340261
-0.331655
-0.322163
-0.311791
-0.300646
-0.288917
-0.276842
-0.264661
-0.252591
-0.240804
-0.229419
-0.218511
-0.208096
-0.198377
-0.387722
-0.379574
-0.373388
-0.36688
-0.35989
-0.352344
-0.344037
-0.33482
-0.324628
-0.313506
-0.301607
-0.28916
-0.276432
-0.263681
-0.251126
-0.238933
-0.227214
-0.216027
-0.205391
-0.195459
-0.393411
-0.384951
-0.378565
-0.37182
-0.364515
-0.356549
-0.347701
-0.337829
-0.3269
-0.315001
-0.302333
-0.289165
-0.275791
-0.262483
-0.249458
-0.236875
-0.224834
-0.213381
-0.202535
-0.192397
-0.399033
-0.390273
-0.383691
-0.376704
-0.369064
-0.360646
-0.351218
-0.340651
-0.32895
-0.31625
-0.302802
-0.288915
-0.274907
-0.261056
-0.247578
-0.234621
-0.222273
-0.210566
-0.19952
-0.189185
-0.404554
-0.39551
-0.388736
-0.3815
-0.373505
-0.364601
-0.354552
-0.343252
-0.330747
-0.317228
-0.302995
-0.288395
-0.273765
-0.259389
-0.245476
-0.232162
-0.219523
-0.207576
-0.19634
-0.185817
-0.409938
-0.400626
-0.393666
-0.386172
-0.377799
-0.368377
-0.357668
-0.345597
-0.332261
-0.31791
-0.302892
-0.287589
-0.272355
-0.257474
-0.243145
-0.229492
-0.216576
-0.204403
-0.19299
-0.182287
-0.41515
-0.405587
-0.398445
-0.390683
-0.38191
-0.371933
-0.360527
-0.347653
-0.333465
-0.318273
-0.302475
-0.286484
-0.270665
-0.255299
-0.240575
-0.226602
-0.213425
-0.20104
-0.189462
-0.17859
-0.420148
-0.410355
-0.403034
-0.394996
-0.385796
-0.375233
-0.363093
-0.349386
-0.33433
-0.318294
-0.301726
-0.285065
-0.268684
-0.252856
-0.237758
-0.223483
-0.210063
-0.197482
-0.185751
-0.174722
-0.424894
-0.414891
-0.407396
-0.399068
-0.389419
-0.378234
-0.365329
-0.350765
-0.334828
-0.317953
-0.300629
-0.28332
-0.2664
-0.250134
-0.234685
-0.220128
-0.206483
-0.193721
-0.181851
-0.170676
-0.429346
-0.419155
-0.411488
-0.402861
-0.392735
-0.380899
-0.367197
-0.351757
-0.334935
-0.317228
-0.299167
-0.281234
-0.263802
-0.247125
-0.231348
-0.216531
-0.202677
-0.189752
-0.177756
-0.166449
-0.433461
-0.423104
-0.41527
-0.40633
-0.395704
-0.383186
-0.368663
-0.352332
-0.334626
-0.3161
-0.297326
-0.278797
-0.260882
-0.24382
-0.227738
-0.212682
-0.19864
-0.185568
-0.173462
-0.162037
-0.437196
-0.426698
-0.418699
-0.409433
-0.398284
-0.385056
-0.369691
-0.352461
-0.333877
-0.314552
-0.295092
-0.275997
-0.257629
-0.24021
-0.223849
-0.208576
-0.194365
-0.181164
-0.168963
-0.157434
-0.440508
-0.429894
-0.421732
-0.412128
-0.400432
-0.386471
-0.370248
-0.352117
-0.332666
-0.312567
-0.292451
-0.272824
-0.254034
-0.236287
-0.219673
-0.204205
-0.189845
-0.176535
-0.164255
-0.152639
-0.443354
-0.432649
-0.424326
-0.414372
-0.402108
-0.387393
-0.370302
-0.351274
-0.330975
-0.31013
-0.289392
-0.269266
-0.250088
-0.232043
-0.215202
-0.199564
-0.185077
-0.171677
-0.159333
-0.147646
-0.445692
-0.434921
-0.426439
-0.416122
-0.403272
-0.387788
-0.369822
-0.349907
-0.328784
-0.307225
-0.285903
-0.265316
-0.245784
-0.227472
-0.210431
-0.194646
-0.180053
-0.166583
-0.154195
-0.142454
-0.447479
-0.436668
-0.428029
-0.417338
-0.403886
-0.387621
-0.368782
-0.347995
-0.326076
-0.303841
-0.281974
-0.260965
-0.241114
-0.222566
-0.205354
-0.189447
-0.17477
-0.161252
-0.148836
-0.137059
-0.448674
-0.437849
-0.429054
-0.417979
-0.403912
-0.386859
-0.367154
-0.345517
-0.322837
-0.299966
-0.277596
-0.256205
-0.236072
-0.21732
-0.199965
-0.183961
-0.169224
-0.155678
-0.143254
-0.131461
-0.449237
-0.438423
-0.429476
-0.418008
-0.403315
-0.385474
-0.364915
-0.342456
-0.319053
-0.29559
-0.27276
-0.251029
-0.230651
-0.211729
-0.19426
-0.178185
-0.163411
-0.149859
-0.137446
-0.125655
-0.449131
-0.438354
-0.429254
-0.417387
-0.402064
-0.383437
-0.362043
-0.338795
-0.314711
-0.290703
-0.267461
-0.245432
-0.224847
-0.205788
-0.188234
-0.172115
-0.157329
-0.143793
-0.131409
-0.119641
-0.448318
-0.437602
-0.428354
-0.416083
-0.400127
-0.380724
-0.35852
-0.334521
-0.309804
-0.285299
-0.261693
-0.239409
-0.218656
-0.199493
-0.181885
-0.165749
-0.150973
-0.137476
-0.125143
-0.113422
-0.446764
-0.436135
-0.426741
-0.414063
-0.397476
-0.377313
-0.354329
-0.329622
-0.304321
-0.279372
-0.25545
-0.232955
-0.212074
-0.192842
-0.175209
-0.159083
-0.144343
-0.130906
-0.118649
-0.107004
-0.444438
-0.43392
-0.424384
-0.411299
-0.394088
-0.373184
-0.349456
-0.324088
-0.298257
-0.272917
-0.248729
-0.22607
-0.205098
-0.185832
-0.168206
-0.152117
-0.137436
-0.124082
-0.111927
-0.100383
-0.44131
-0.430927
-0.421253
-0.407764
-0.38994
-0.368321
-0.343889
-0.317912
-0.291606
-0.265932
-0.241529
-0.218749
-0.197728
-0.178463
-0.160875
-0.14485
-0.130252
-0.117002
-0.104969
-0.0935092
-0.437354
-0.427129
-0.417322
-0.403434
-0.385014
-0.36271
-0.33762
-0.311089
-0.284367
-0.258414
-0.233848
-0.210994
-0.189964
-0.170735
-0.153216
-0.137282
-0.122792
-0.10967
-0.0977589
-0.0862863
-0.432546
-0.422501
-0.412569
-0.398291
-0.379293
-0.35634
-0.330642
-0.303615
-0.276538
-0.250363
-0.225686
-0.202805
-0.181805
-0.162648
-0.14523
-0.129417
-0.115061
-0.102094
-0.0903003
-0.0787318
-0.426867
-0.417024
-0.406972
-0.392316
-0.372766
-0.349205
-0.322952
-0.295491
-0.26812
-0.241782
-0.217046
-0.194183
-0.173255
-0.154206
-0.13692
-0.121256
-0.107062
-0.0942725
-0.0826273
-0.0712494
-0.420299
-0.410678
-0.400517
-0.385497
-0.365423
-0.341299
-0.314549
-0.286716
-0.259115
-0.232672
-0.207931
-0.185132
-0.164315
-0.14541
-0.128289
-0.112803
-0.0987991
-0.0862121
-0.0747274
-0.0636092
-0.41283
-0.403451
-0.39319
-0.377823
-0.357259
-0.332621
-0.305434
-0.277295
-0.249527
-0.223039
-0.198344
-0.175655
-0.154991
-0.136265
-0.119341
-0.104063
-0.0902755
-0.0779137
-0.0666242
-0.0557632
-0.404448
-0.395332
-0.384982
-0.369289
-0.348271
-0.323171
-0.29561
-0.267232
-0.239362
-0.212887
-0.188291
-0.165758
-0.145287
-0.126775
-0.11008
-0.095039
-0.0814951
-0.069383
-0.0583163
-0.0477095
-0.395148
-0.386312
-0.375886
-0.359891
-0.33846
-0.312954
-0.285085
-0.256535
-0.228628
-0.202225
-0.177779
-0.155447
-0.135208
-0.116948
-0.100514
-0.0857378
-0.0724631
-0.0606252
-0.0498039
-0.0394564
-0.384926
-0.376389
-0.365901
-0.349631
-0.32783
-0.301977
-0.273866
-0.245213
-0.217334
-0.191061
-0.166816
-0.144731
-0.124764
-0.10679
-0.0906472
-0.0761653
-0.0631858
-0.051646
-0.0410898
-0.0310123
-0.373785
-0.365563
-0.355028
-0.338512
-0.316388
-0.290248
-0.261965
-0.233278
-0.20549
-0.179405
-0.155412
-0.133618
-0.113962
-0.0963079
-0.080489
-0.0663292
-0.0536704
-0.0424516
-0.0321794
-0.0223857
-0.361727
-0.353837
-0.343272
-0.326541
-0.304144
-0.277781
-0.249395
-0.220742
-0.19311
-0.16727
-0.143578
-0.122117
-0.102811
-0.085512
-0.0700475
-0.0562376
-0.0439247
-0.0330495
-0.0230796
-0.0135848
-0.348762
-0.341219
-0.330641
-0.31373
-0.291112
-0.26459
-0.23617
-0.207621
-0.180207
-0.154667
-0.131326
-0.110241
-0.0913227
-0.0744121
-0.0593324
-0.0458998
-0.0339577
-0.0234481
-0.0137985
-0.0046183
-0.3349
-0.327719
-0.317148
-0.300092
-0.277306
-0.250693
-0.222309
-0.193931
-0.166796
-0.141611
-0.118668
-0.0980019
-0.0795076
-0.063019
-0.0483541
-0.0353259
-0.0237794
-0.0136569
-0.00434545
0.00450417
-0.320158
-0.313351
-0.302808
-0.285646
-0.262748
-0.236108
-0.207831
-0.179691
-0.152895
-0.128117
-0.105619
-0.0854122
-0.0673786
-0.0513445
-0.037124
-0.024527
-0.0134004
-0.00368648
0.00526902
0.0137719
-0.304552
-0.298134
-0.287639
-0.27041
-0.247456
-0.220858
-0.192757
-0.164918
-0.138523
-0.114204
-0.0921944
-0.0724867
-0.054949
-0.0394015
-0.0256542
-0.0135148
-0.00283237
0.00645174
0.0150332
0.0231723
-0.288105
-0.282088
-0.271663
-0.254408
-0.231457
-0.204968
-0.177107
-0.149636
-0.123698
-0.0998878
-0.0784112
-0.0592407
-0.0422332
-0.0272032
-0.0139575
-0.00230186
0.00791216
0.0167453
0.024934
0.032691
-0.270842
-0.265237
-0.254905
-0.237667
-0.214778
-0.188463
-0.160907
-0.133869
-0.108442
-0.0851888
-0.0642869
-0.0456904
-0.0292463
-0.0147638
-0.00204743
0.00909877
0.0188201
0.0271809
0.034957
0.0423108
-0.252791
-0.247608
-0.237392
-0.220215
-0.197448
-0.171362
-0.144189
-0.117639
-0.0927769
-0.0701272
-0.0498401
-0.031853
-0.0160041
-0.00209823
0.0100621
0.0206735
0.0298777
0.0377446
0.0450867
0.052012
-0.233981
-0.229231
-0.219156
-0.202087
-0.179484
-0.153708
-0.126977
-0.100973
-0.0767267
-0.0547243
-0.0350903
-0.0177466
-0.00252309
0.0107784
0.0223568
0.0324086
0.0410711
0.0484221
0.0553059
0.0617697
-0.214445
-0.21014
-0.200232
-0.183322
-0.160919
-0.135527
-0.109299
-0.0838982
-0.0603159
-0.0390027
-0.0200582
-0.00338978
0.0111795
0.0238502
0.0348222
0.0442901
0.0523864
0.0591992
0.0655959
0.0715507
-0.194218
-0.19037
-0.180652
-0.163912
-0.141826
-0.116855
-0.0911864
-0.0664426
-0.0435704
-0.0229859
-0.0047651
0.0111979
0.0250858
0.0371012
0.0474436
0.0563047
0.0638106
0.0700624
0.0759367
0.0813159
-0.173335
-0.16996
-0.160449
-0.143938
-0.122211
-0.0977232
-0.0726722
-0.0486354
-0.0265168
-0.00669829
0.0107667
0.0259961
0.0391777
0.0505148
0.0602065
0.0684392
0.0753312
0.0810009
0.0863136
0.091034
-0.151831
-0.148953
-0.139665
-0.123437
-0.102114
-0.0781694
-0.0537893
-0.0305072
-0.009183
0.00983487
0.0265142
0.0409839
0.053436
0.0640744
0.0730964
0.0806808
0.0869368
0.0920077
0.0967233
0.100676
-0.129739
-0.127405
-0.118349
-0.102443
-0.0815754
-0.0582302
-0.0345721
-0.0120893
0.00840243
0.0265874
0.0424534
0.0561395
0.0678413
0.0777627
0.0860987
0.0930172
0.0986183
0.103084
0.107161
0.11014
-0.107125
-0.105349
-0.0965474
-0.0809991
-0.0606371
-0.0379438
-0.0150558
0.00658598
0.0262099
0.0435322
0.0585597
0.0714405
0.0823733
0.0915621
0.0991989
0.105437
0.110376
0.114249
0.117589
0.119169
-0.0840975
-0.0827783
-0.0742995
-0.0591503
-0.0393412
-0.0173493
0.00472338
0.0254855
0.0442092
0.0606417
0.0748076
0.0868635
0.0970109
0.105454
0.112381
0.117933
0.122224
0.125543
0.127976
0.127554
-0.060641
-0.0597847
-0.0516532
-0.0369412
-0.017731
0.00351299
0.0247286
0.0445753
0.0623693
0.0778872
0.0911708
0.102384
0.111732
0.119418
0.125627
0.130494
0.134173
0.136981
0.138373
0.135938
-0.0367996
-0.036424
-0.0286567
-0.0144185
0.00414939
0.0246022
0.0449221
0.063821
0.0806584
0.0952398
0.107623
0.117978
0.126513
0.133432
0.138917
0.143104
0.146197
0.148463
0.148724
0.146883
-0.0126273
-0.012743
-0.00535786
0.00837098
0.0262554
0.0458767
0.0652656
0.0831874
0.0990444
0.11267
0.124136
0.13362
0.141331
0.147473
0.152227
0.155735
0.158228
0.159902
0.159524
0.158404
0.0118207
0.0112078
0.0181925
0.0313787
0.0485412
0.0672943
0.0857203
0.102639
0.117495
0.130147
0.140682
0.149282
0.15616
0.161517
0.165535
0.168361
0.170234
0.171294
0.170403
0.169389
0.0364905
0.0353766
0.0419431
0.0545556
0.070961
0.0888125
0.106247
0.12214
0.135976
0.147641
0.157232
0.16494
0.170975
0.175542
0.178817
0.180956
0.182195
0.182642
0.181272
0.180079
0.0613279
0.0597106
0.0658423
0.0778523
0.0934683
0.110388
0.126807
0.141654
0.154455
0.16512
0.17376
0.180567
0.185753
0.189521
0.19205
0.193495
0.194091
0.193923
0.192063
0.190556
0.0862782
0.0841566
0.0898377
0.101219
0.116017
0.131978
0.147359
0.161144
0.172899
0.182555
0.190235
0.196134
0.200467
0.203434
0.205211
0.205957
0.205901
0.205114
0.202745
0.200846
0.111286
0.108661
0.113877
0.124605
0.138559
0.15354
0.167865
0.180575
0.191273
0.199914
0.206629
0.211618
0.215093
0.217255
0.218278
0.218321
0.217607
0.216197
0.213301
0.210963
0.136297
0.133169
0.137907
0.147962
0.161048
0.175029
0.188285
0.19991
0.209545
0.217166
0.222913
0.226989
0.229606
0.230962
0.23123
0.230567
0.229191
0.227154
0.223718
0.220911
0.161255
0.157627
0.161876
0.171237
0.183439
0.196404
0.208578
0.219112
0.227681
0.234281
0.239059
0.242223
0.243981
0.244531
0.244044
0.242675
0.240636
0.237969
0.233986
0.230692
0.186105
0.181981
0.18573
0.194383
0.205683
0.21762
0.228706
0.238145
0.245648
0.251227
0.255039
0.257292
0.258195
0.257942
0.256701
0.254626
0.251923
0.248626
0.244095
0.2403
0.210792
0.206175
0.209418
0.217349
0.227735
0.238636
0.24863
0.256974
0.263412
0.267974
0.270825
0.272171
0.272223
0.27117
0.269179
0.266403
0.263038
0.259113
0.254032
0.249729
0.235262
0.230158
0.232887
0.240086
0.24955
0.25941
0.268311
0.275563
0.280941
0.284493
0.286388
0.286835
0.286041
0.284195
0.28146
0.277986
0.273964
0.269415
0.263788
0.25897
0.25946
0.253875
0.256086
0.262545
0.271081
0.279899
0.287711
0.293876
0.298203
0.300752
0.301701
0.301257
0.299627
0.296995
0.293523
0.289358
0.284684
0.279518
0.273351
0.268016
0.283332
0.277274
0.278963
0.284679
0.292285
0.300063
0.306792
0.31188
0.315165
0.316724
0.316737
0.315414
0.312957
0.309549
0.30535
0.300502
0.295184
0.289408
0.282708
0.276855
0.306826
0.300303
0.30147
0.306441
0.313118
0.319862
0.325516
0.329539
0.331797
0.332379
0.33147
0.32928
0.326008
0.321837
0.31692
0.3114
0.305447
0.299072
0.291847
0.285478
0.32989
0.32291
0.323557
0.327783
0.333537
0.339255
0.343849
0.346822
0.348068
0.347689
0.345873
0.342831
0.33876
0.333837
0.328216
0.322036
0.31546
0.308495
0.300757
0.293875
0.352472
0.345046
0.345176
0.348661
0.353499
0.358205
0.361754
0.363695
0.363947
0.362625
0.359922
0.356044
0.351189
0.345531
0.33922
0.332392
0.325205
0.317665
0.309424
0.302034
0.374524
0.366662
0.366278
0.36903
0.372964
0.376673
0.379195
0.380125
0.379406
0.377162
0.37359
0.368896
0.363275
0.356898
0.349913
0.342453
0.334669
0.326568
0.317837
0.309946
0.395995
0.38771
0.38682
0.388847
0.391892
0.394623
0.396141
0.396083
0.394415
0.391272
0.386853
0.381364
0.374997
0.36792
0.360279
0.352203
0.343838
0.335191
0.325984
0.3176
0.41684
0.408143
0.406755
0.408071
0.410243
0.412018
0.412557
0.411537
0.408947
0.40493
0.399688
0.393427
0.386335
0.378578
0.370299
0.361626
0.352697
0.343521
0.333852
0.324985
0.437011
0.427917
0.426041
0.42666
0.42798
0.428825
0.428412
0.426459
0.422974
0.418111
0.412073
0.405063
0.397269
0.388855
0.379959
0.370707
0.361232
0.351544
0.34143
0.332092
0.456465
0.446987
0.444636
0.444576
0.445068
0.445009
0.443675
0.440819
0.436471
0.430791
0.423984
0.416252
0.407781
0.398732
0.389241
0.379431
0.36943
0.35925
0.348707
0.338909
0.475159
0.465313
0.4625
0.46178
0.46147
0.460539
0.458317
0.454592
0.449413
0.442946
0.4354
0.426974
0.417853
0.408194
0.398131
0.387784
0.377277
0.366625
0.355671
0.345429
0.493052
0.482853
0.479594
0.478237
0.477155
0.475384
0.472309
0.467751
0.461774
0.454555
0.446301
0.437211
0.427466
0.417223
0.406613
0.395754
0.384763
0.373659
0.362311
0.351641
0.510105
0.499569
0.495882
0.493912
0.492088
0.489515
0.485624
0.48027
0.473534
0.465597
0.456667
0.446944
0.436605
0.425806
0.414674
0.403326
0.391873
0.380339
0.368617
0.357536
0.526279
0.515425
0.511327
0.508773
0.506241
0.502903
0.498237
0.492126
0.484669
0.47605
0.46648
0.456155
0.445254
0.433926
0.4223
0.410487
0.398598
0.386657
0.37458
0.363107
0.541541
0.530385
0.525898
0.522787
0.519585
0.515521
0.510122
0.503297
0.495158
0.485896
0.475721
0.46483
0.453396
0.44157
0.429477
0.417228
0.404926
0.392601
0.38019
0.368344
0.555856
0.544418
0.539563
0.535926
0.532091
0.527346
0.521258
0.513762
0.504983
0.495117
0.484374
0.472951
0.461019
0.448726
0.436195
0.423535
0.410846
0.398162
0.385438
0.373241
0.569194
0.557493
0.552292
0.548163
0.543736
0.538354
0.531621
0.5235
0.514124
0.503695
0.492424
0.480505
0.468108
0.455379
0.442441
0.429399
0.41635
0.403331
0.390315
0.377789
0.581525
0.56958
0.564058
0.559472
0.554495
0.548522
0.541194
0.532493
0.522565
0.511616
0.499856
0.487478
0.474652
0.46152
0.448205
0.43481
0.421427
0.408099
0.394815
0.381983
0.592822
0.580654
0.574836
0.569829
0.564347