/*--------------------------------*- C++ -*----------------------------------*\
  =========                 |
  \\      /  F ield         | OpenFOAM: The Open Source CFD Toolbox
   \\    /   O peration     | Website:  https://openfoam.org
    \\  /    A nd           | Version:  7
     \\/     M anipulation  |
\*---------------------------------------------------------------------------*/
FoamFile
{
    version     2.0;
    format      ascii;
    class       surfaceScalarField;
    location    "40";
    object      phi;
}
// * * * * * * * * * * * * * * * * * * * * * * * * * * * * * * * * * * * * * //

dimensions      [0 3 -1 0 0 0 0];

internalField   nonuniform List<scalar> 
72657
(
-7.90547e-07
8.97714e-07
-1.07167e-07
-2.98578e-06
2.47775e-06
-2.82517e-07
-6.47589e-06
3.91926e-06
-4.29151e-07
-1.11507e-05
5.22361e-06
-5.48812e-07
-1.69012e-05
6.39411e-06
-6.43609e-07
-2.36217e-05
7.43651e-06
-7.15955e-07
-3.12122e-05
8.35895e-06
-7.68524e-07
-3.95802e-05
9.17217e-06
-8.04113e-07
-4.86444e-05
9.88961e-06
-8.25474e-07
-5.83366e-05
1.05274e-05
-8.35164e-07
-6.86055e-05
1.11043e-05
-8.35385e-07
-7.94192e-05
1.16416e-05
-8.27853e-07
-9.07687e-05
1.21631e-05
-8.13695e-07
-0.000102669
1.26941e-05
-7.9337e-07
-0.000115164
1.3261e-05
-7.66627e-07
-0.00012832
1.38892e-05
-7.32484e-07
-0.000142233
1.46019e-05
-6.89212e-07
-0.000157015
1.54166e-05
-6.3433e-07
-0.000172791
1.634e-05
-5.64632e-07
1.73754e-05
-4.758e-07
-0.00018969
-7.88271e-07
1.68598e-06
-2.97741e-06
4.66689e-06
-6.45794e-06
7.39979e-06
-1.11198e-05
9.88551e-06
-1.68542e-05
1.21284e-05
-2.35552e-05
1.41375e-05
-3.11224e-05
1.59262e-05
-3.94632e-05
1.7513e-05
-4.84956e-05
1.89219e-05
-5.81507e-05
2.01825e-05
-6.83765e-05
2.133e-05
-7.91401e-05
2.24053e-05
-9.04315e-05
2.34545e-05
-0.000102265
2.4528e-05
-0.000114683
2.56789e-05
-0.000127754
2.69596e-05
-0.00014157
2.84184e-05
-0.000156247
3.00938e-05
-0.00017191
3.20024e-05
3.41557e-05
-0.00018869
-7.83921e-07
2.46991e-06
-2.96138e-06
6.84435e-06
-6.42348e-06
1.08619e-05
-1.10605e-05
1.45225e-05
-1.67634e-05
1.78314e-05
-2.34263e-05
2.08004e-05
-3.09481e-05
2.3448e-05
-3.92354e-05
2.58003e-05
-4.82051e-05
2.78916e-05
-5.77869e-05
2.97644e-05
-6.79271e-05
3.14702e-05
-7.85911e-05
3.30693e-05
-8.97667e-05
3.46301e-05
-0.000101467
3.62282e-05
-0.000113732
3.79437e-05
-0.000126629
3.98568e-05
-0.000140252
4.20418e-05
-0.000154717
4.45589e-05
-0.000170151
4.74364e-05
5.0694e-05
-0.00018669
-7.77551e-07
3.24746e-06
-2.93787e-06
9.00467e-06
-6.37285e-06
1.42969e-05
-1.09731e-05
1.91228e-05
-1.66297e-05
2.3488e-05
-2.32362e-05
2.74068e-05
-3.06907e-05
3.09025e-05
-3.88986e-05
3.40083e-05
-4.77751e-05
3.6768e-05
-5.72479e-05
3.92372e-05
-6.72606e-05
4.14829e-05
-7.77758e-05
4.35845e-05
-8.87785e-05
4.56328e-05
-0.000100279
4.77285e-05
-0.000112314
4.99793e-05
-0.000124951
5.24939e-05
-0.000138284
5.53744e-05
-0.00015243
5.87048e-05
-0.000167519
6.25259e-05
6.68672e-05
-0.000183693
-7.69241e-07
4.0167e-06
-2.90714e-06
1.11426e-05
-6.30661e-06
1.76963e-05
-1.08587e-05
2.36749e-05
-1.64544e-05
2.90837e-05
-2.29866e-05
3.39391e-05
-3.03525e-05
3.82684e-05
-3.84557e-05
4.21114e-05
-4.7209e-05
4.55214e-05
-5.65376e-05
4.85658e-05
-6.63816e-05
5.13269e-05
-7.66998e-05
5.39027e-05
-8.74731e-05
5.6406e-05
-9.87076e-05
5.8963e-05
-0.000110438
6.17095e-05
-0.000122728
6.47842e-05
-0.000135672
6.83188e-05
-0.000149391
7.24233e-05
-0.000164019
7.71541e-05
8.25511e-05
-0.000179703
-7.59094e-07
4.77579e-06
-2.86956e-06
1.3253e-05
-6.22546e-06
2.10522e-05
-1.07184e-05
2.81678e-05
-1.62391e-05
3.46044e-05
-2.26798e-05
4.03798e-05
-2.99363e-05
4.55248e-05
-3.79101e-05
5.00852e-05
-4.65113e-05
5.41226e-05
-5.56614e-05
5.77159e-05
-6.52964e-05
6.09619e-05
-7.53703e-05
6.39766e-05
-8.58585e-05
6.68943e-05
-9.67624e-05
6.98668e-05
-0.000108112
7.3059e-05
-0.000119969
7.66412e-05
-0.000132427
8.07769e-05
-0.000145609
8.56058e-05
-0.000159658
9.12029e-05
9.76207e-05
-0.000174728
-7.47235e-07
5.52303e-06
-2.82553e-06
1.53313e-05
-6.13024e-06
2.4357e-05
-1.05534e-05
3.2591e-05
-1.59857e-05
4.00367e-05
-2.23184e-05
4.67125e-05
-2.94455e-05
5.26519e-05
-3.72661e-05
5.79058e-05
-4.56871e-05
6.25436e-05
-5.46256e-05
6.66544e-05
-6.40125e-05
7.03489e-05
-7.37958e-05
7.37599e-05
-8.39448e-05
7.70432e-05
-9.4454e-05
8.03761e-05
-0.000105348
8.39533e-05
-0.000116685
8.79783e-05
-0.000128559
9.26502e-05
-0.000141095
9.81422e-05
-0.000154445
0.000104552
0.000111949
-0.000168773
-7.33807e-07
6.25683e-06
-2.77555e-06
1.73731e-05
-6.02193e-06
2.76033e-05
-1.03655e-05
3.69346e-05
-1.56967e-05
4.53678e-05
-2.19055e-05
5.29213e-05
-2.88841e-05
5.96305e-05
-3.65287e-05
6.55505e-05
-4.47424e-05
7.07573e-05
-5.34374e-05
7.53494e-05
-6.25385e-05
7.94499e-05
-7.19866e-05
8.3208e-05
-8.17433e-05
8.67999e-05
-9.17955e-05
9.04282e-05
-0.000102161
9.43185e-05
-0.000112892
9.87098e-05
-0.000124082
0.00010384
-0.000135861
0.000109921
-0.00014839
0.000117081
0.000125407
-0.000161847
-7.18971e-07
6.9758e-06
-2.72014e-06
1.93742e-05
-5.90161e-06
3.07848e-05
-1.01564e-05
4.11893e-05
-1.53743e-05
5.05858e-05
-2.14443e-05
5.89913e-05
-2.82563e-05
6.64425e-05
-3.57034e-05
7.29975e-05
-4.3684e-05
7.87379e-05
-5.21049e-05
8.37703e-05
-6.08839e-05
8.82289e-05
-6.99539e-05
9.2278e-05
-7.92671e-05
9.61131e-05
-8.88011e-05
9.99622e-05
-9.85648e-05
0.000104082
-0.000108605
0.00010875
-0.000119012
0.000114247
-0.000129921
0.00012083
-0.000141504
0.000128664
0.000137862
-0.000153959
-7.02895e-07
7.6787e-06
-2.6599e-06
2.13312e-05
-5.7704e-06
3.38953e-05
-9.92778e-06
4.53467e-05
-1.50214e-05
5.56794e-05
-2.09386e-05
6.49085e-05
-2.75669e-05
7.30708e-05
-3.47957e-05
8.02264e-05
-4.25188e-05
8.6461e-05
-5.06366e-05
9.1888e-05
-5.9059e-05
9.66514e-05
-6.77096e-05
0.000100929
-7.65301e-05
0.000104934
-8.54867e-05
0.000108919
-9.45778e-05
0.000113173
-0.000103842
0.000118014
-0.000113366
0.000123771
-0.00012329
0.000130754
-0.0001338
0.000139173
0.000149178
-0.000145116
-6.85759e-07
8.36446e-06
-2.5954e-06
2.32409e-05
-5.62951e-06
3.69294e-05
-9.68169e-06
4.93989e-05
-1.46406e-05
6.06383e-05
-2.03919e-05
7.06599e-05
-2.68204e-05
7.94993e-05
-3.38117e-05
8.72177e-05
-4.12542e-05
9.39035e-05
-4.90413e-05
9.96751e-05
-5.70744e-05
0.000104684
-6.52663e-05
0.000109121
-7.35468e-05
0.000113214
-8.18688e-05
0.000117241
-9.0218e-05
0.000121522
-9.86225e-05
0.000126419
-0.000107164
0.000132313
-0.000115986
0.000139576
-0.000125291
0.000148478
0.000159212
-0.000135325
-6.67743e-07
9.0322e-06
-2.52726e-06
2.51004e-05
-5.48014e-06
3.98823e-05
-9.42002e-06
5.33388e-05
-1.42346e-05
6.54529e-05
-1.98079e-05
7.62331e-05
-2.60216e-05
8.5713e-05
-3.27571e-05
9.39532e-05
-3.98971e-05
0.000101043
-4.73276e-05
0.000107106
-5.49404e-05
0.000112297
-6.26366e-05
0.000116817
-7.0332e-05
0.000120909
-7.79645e-05
0.000124873
-8.55042e-05
0.000129062
-9.29662e-05
0.000133881
-0.000100424
0.000139771
-0.000108026
0.000147178
-0.000115989
0.000156442
0.000167817
-0.000124594
-6.49027e-07
9.68123e-06
-2.45606e-06
2.69074e-05
-5.32346e-06
4.27497e-05
-9.14465e-06
5.71599e-05
-1.38063e-05
7.01145e-05
-1.91901e-05
8.1617e-05
-2.51749e-05
9.16978e-05
-3.16375e-05
0.000100416
-3.84545e-05
0.000107861
-4.55039e-05
0.000114155
-5.26671e-05
0.00011946
-5.98323e-05
0.000123982
-6.69e-05
0.000127977
-7.37905e-05
0.000131764
-8.04555e-05
0.000135727
-8.68936e-05
0.000140319
-9.31683e-05
0.000146046
-9.94272e-05
0.000153437
-0.000105909
0.000162923
0.000174836
-0.000112927
-6.29782e-07
1.0311e-05
-2.3824e-06
2.866e-05
-5.16061e-06
4.55279e-05
-8.85736e-06
6.08567e-05
-1.33579e-05
7.46151e-05
-1.85419e-05
8.6801e-05
-2.42845e-05
9.74404e-05
-3.04579e-05
0.000106589
-3.69324e-05
0.000114335
-4.35774e-05
0.0001208
-5.02634e-05
0.000126146
-5.68645e-05
0.000130583
-6.3264e-05
0.000134377
-6.93623e-05
0.000137862
-7.50898e-05
0.000141455
-8.04245e-05
0.000145654
-8.54154e-05
0.000151037
-9.02084e-05
0.00015823
-9.50616e-05
0.000167776
0.000180101
-0.000100327
-6.10173e-07
1.09212e-05
-2.30679e-06
3.03567e-05
-4.99262e-06
4.82138e-05
-8.55976e-06
6.44238e-05
-1.28919e-05
7.89472e-05
-1.7866e-05
9.17751e-05
-2.33538e-05
0.000102928
-2.92226e-05
0.000112458
-3.53359e-05
0.000120448
-4.15544e-05
0.000127019
-4.77367e-05
0.000132329
-5.37422e-05
0.000136589
-5.94352e-05
0.00014007
-6.46937e-05
0.000143121
-6.94231e-05
0.000146184
-7.35769e-05
0.000149808
-7.71843e-05
0.000154644
-8.03859e-05
0.000161431
-8.34592e-05
0.00017085
0.000183436
-8.67937e-05
-5.90349e-07
1.15115e-05
-2.22973e-06
3.1996e-05
-4.82041e-06
5.08044e-05
-8.25328e-06
6.78567e-05
-1.241e-05
8.31039e-05
-1.71649e-05
9.65299e-05
-2.23858e-05
0.000108149
-2.79348e-05
0.000118007
-3.36689e-05
0.000126182
-3.94392e-05
0.000132789
-4.50924e-05
0.000137982
-5.04718e-05
0.000141968
-5.54216e-05
0.000145019
-5.97949e-05
0.000147494
-6.34684e-05
0.000149858
-6.63657e-05
0.000152705
-6.84908e-05
0.000156769
-6.99737e-05
0.000162914
-7.11108e-05
0.000171987
0.00018465
-7.2325e-05
-5.7044e-07
1.2082e-05
-2.15162e-06
3.35772e-05
-4.64477e-06
5.32976e-05
-7.93906e-06
7.1151e-05
-1.19139e-05
8.70787e-05
-1.64403e-05
0.000101056
-2.13823e-05
0.000113091
-2.65967e-05
0.000123221
-3.19333e-05
0.000131519
-3.7234e-05
0.00013809
-4.23329e-05
0.000143081
-4.70566e-05
0.000146692
-5.12277e-05
0.00014919
-5.46719e-05
0.000150938
-5.72334e-05
0.000152419
-5.88008e-05
0.000154272
-5.93457e-05
0.000157314
-5.89815e-05
0.00016255
-5.80219e-05
0.000171027
0.000183545
-5.69174e-05
-5.50556e-07
1.26325e-05
-2.07281e-06
3.50995e-05
-4.4663e-06
5.56911e-05
-7.61796e-06
7.43026e-05
-1.14044e-05
9.08651e-05
-1.56932e-05
0.000105345
-2.03442e-05
0.000117742
-2.52086e-05
0.000128086
-3.01292e-05
0.00013644
-3.49383e-05
0.000142899
-3.94572e-05
0.0001476
-4.34953e-05
0.00015073
-4.68522e-05
0.000152547
-4.93244e-05
0.00015341
-5.07196e-05
0.000153814
-5.0885e-05
0.000154438
-4.97528e-05
0.000156182
-4.7412e-05
0.000160209
-4.41927e-05
0.000167808
0.000179922
-4.05694e-05
-5.30787e-07
1.31633e-05
-1.99356e-06
3.65623e-05
-4.28543e-06
5.79829e-05
-7.29047e-06
7.73077e-05
-1.0882e-05
9.44566e-05
-1.49238e-05
0.000109387
-1.92711e-05
0.000122089
-2.37695e-05
0.000132584
-2.82543e-05
0.000140924
-3.25485e-05
0.000147193
-3.64602e-05
0.000151511
-3.97814e-05
0.000154051
-4.22879e-05
0.000155054
-4.37448e-05
0.000154867
-4.39195e-05
0.000153989
-4.26117e-05
0.00015313
-3.97047e-05
0.000153275
-3.52539e-05
0.000155758
-2.96143e-05
0.000162168
0.000173608
-2.33005e-05
-5.11193e-07
1.36745e-05
-1.91402e-06
3.79651e-05
-4.10236e-06
6.01713e-05
-6.95675e-06
8.01621e-05
-1.03466e-05
9.78464e-05
-1.41314e-05
0.000113172
-1.81613e-05
0.000126119
-2.22762e-05
0.000136699
-2.63038e-05
0.000144952
-3.00574e-05
0.000150946
-3.33321e-05
0.000154786
-3.59023e-05
0.000156621
-3.75197e-05
0.000156671
-3.79159e-05
0.000155263
-3.68151e-05
0.000152888
-3.39619e-05
0.000150277
-2.91798e-05
0.000148493
-2.24674e-05
0.000149046
-1.42116e-05
0.000153912
0.00016479
-5.39369e-06
-4.9181e-07
1.41663e-05
-1.83426e-06
3.93075e-05
-3.91711e-06
6.22541e-05
-6.61653e-06
8.28615e-05
-9.79736e-06
0.000101027
-1.33143e-05
0.000116689
-1.70118e-05
0.000129817
-2.07236e-05
0.000140411
-2.42698e-05
0.000148498
-2.74538e-05
0.00015413
-3.00579e-05
0.00015739
-3.18387e-05
0.000158402
-3.25234e-05
0.000157356
-3.18099e-05
0.00015455
-2.93753e-05
0.000150454
-2.49034e-05
0.000145805
-1.81454e-05
0.000141735
-9.00801e-06
0.000139909
2.41183e-06
0.000142492
0.000152784
1.44185e-05
-4.72651e-07
1.4639e-05
-1.75425e-06
4.05891e-05
-3.72945e-06
6.42293e-05
-6.26919e-06
8.54012e-05
-9.23292e-06
0.000103991
-1.24697e-05
0.000119926
-1.5818e-05
0.000133165
-1.91046e-05
0.000143698
-2.21416e-05
0.000151535
-2.47225e-05
0.000156711
-2.66167e-05
0.000159284
-2.75633e-05
0.000159349
-2.72652e-05
0.000157058
-2.53859e-05
0.000152671
-2.15543e-05
0.000146622
-1.53876e-05
0.000139638
-6.55206e-06
0.000132899
5.10876e-06
0.000128248
1.93444e-05
0.000128257
0.00013678
3.53482e-05
-4.537e-07
1.50927e-05
-1.67386e-06
4.18093e-05
-3.53896e-06
6.60944e-05
-5.91369e-06
8.7776e-05
-8.65118e-06
0.000106728
-1.1594e-05
0.000122868
-1.45738e-05
0.000136145
-1.74098e-05
0.000146534
-1.99054e-05
0.000154031
-2.1844e-05
0.00015865
-2.29817e-05
0.000160422
-2.30407e-05
0.000159408
-2.17001e-05
0.000155717
-1.85892e-05
0.00014956
-1.3288e-05
0.000141321
-5.34359e-06
0.000131694
5.67283e-06
0.000121883
2.0029e-05
0.000113892
3.75642e-05
0.000110722
0.000116897
5.74473e-05
-4.34921e-07
1.55276e-05
-1.59288e-06
4.29673e-05
-3.345e-06
6.78466e-05
-5.5486e-06
8.99796e-05
-8.04944e-06
0.000109229
-1.06825e-05
0.000125501
-1.32717e-05
0.000138734
-1.56276e-05
0.00014889
-1.75444e-05
0.000155948
-1.87942e-05
0.0001599
-1.91201e-05
0.000160748
-1.82272e-05
0.000158515
-1.57714e-05
0.000153262
-1.13495e-05
0.000145138
-4.49269e-06
0.000134464
5.32342e-06
0.000121878
1.86308e-05
0.000108575
3.58288e-05
9.66935e-05
5.68799e-05
8.96706e-05
9.28445e-05
8.09323e-05
-4.16254e-07
1.59438e-05
-1.511e-06
4.4062e-05
-3.14672e-06
6.94823e-05
-5.17216e-06
9.2005e-05
-7.42442e-06
0.000111482
-9.72973e-06
0.000127807
-1.19028e-05
0.000140907
-1.37447e-05
0.000150731
-1.50387e-05
0.000157242
-1.55452e-05
0.000160406
-1.49932e-05
0.000160196
-1.30706e-05
0.000156592
-9.4111e-06
0.000149602
-3.58037e-06
0.000139307
4.93645e-06
0.000125947
1.67344e-05
0.00011008
3.24527e-05
9.28572e-05
5.26389e-05
7.65072e-05
7.74111e-05
6.48984e-05
6.43089e-05
0.000105947
-3.97621e-07
1.63415e-05
-1.42783e-06
4.50922e-05
-2.94312e-06
7.09976e-05
-4.78224e-06
9.38441e-05
-6.77226e-06
0.000113472
-8.72917e-06
0.000129764
-1.04571e-05
0.000142635
-1.17456e-05
0.00015202
-1.23661e-05
0.000157862
-1.20651e-05
0.000160105
-1.05566e-05
0.000158688
-7.51078e-06
0.000153546
-2.53962e-06
0.000144631
4.82032e-06
0.000131947
1.51262e-05
0.000115641
2.90395e-05
9.61664e-05
4.73053e-05
7.45914e-05
7.06312e-05
5.31813e-05
9.93265e-05
3.62031e-05
3.09695e-05
0.000132666
-3.78927e-07
1.67204e-05
-1.34292e-06
4.60562e-05
-2.73301e-06
7.23877e-05
-4.37642e-06
9.54875e-05
-6.0886e-06
0.000115184
-7.67364e-06
0.000131349
-8.92315e-06
0.000143884
-9.61354e-06
0.00015271
-9.50168e-06
0.00015775
-8.31868e-06
0.000158922
-5.76136e-06
0.00015613
-1.48083e-06
0.000149266
4.93269e-06
0.000138217
1.39696e-05
0.00012291
2.62247e-05
0.000103386
4.2418e-05
7.99731e-05
6.33939e-05
5.36154e-05
9.00239e-05
2.65512e-05
0.00012284
3.38733e-06
-7.49025e-06
0.000161299
-3.6006e-07
1.70805e-05
-1.25575e-06
4.69519e-05
-2.51503e-06
7.36469e-05
-3.95197e-06
9.69245e-05
-5.36863e-06
0.0001166
-6.55525e-06
0.000132535
-7.28883e-06
0.000144618
-7.3301e-06
0.000152752
-6.41896e-06
0.000156839
-4.2681e-06
0.000156771
-5.54505e-07
0.000152417
5.09196e-06
0.000143619
1.31039e-05
0.000130205
2.39972e-05
0.000112017
3.83987e-05
8.89846e-05
5.7077e-05
6.12948e-05
8.09621e-05
2.97303e-05
0.000111082
-3.5691e-06
0.000148214
-3.37446e-05
-5.13668e-05
0.000192091
-3.40895e-07
1.74213e-05
-1.16573e-06
4.77767e-05
-2.2877e-06
7.47689e-05
-3.50591e-06
9.81427e-05
-4.6071e-06
0.000117702
-5.36549e-06
0.000133294
-5.541e-06
0.000144794
-4.87585e-06
0.000152086
-3.08976e-06
0.000155053
1.26528e-07
0.000153555
5.11958e-06
0.000147424
1.22841e-05
0.000136455
2.20779e-05
0.000120412
3.5042e-05
9.90529e-05
5.18301e-05
7.21965e-05
7.32469e-05
3.9878e-05
0.000100288
2.68931e-06
0.000134118
-3.73991e-05
0.000175764
-7.53909e-05
-0.00010092
0.000225318
-3.21291e-07
1.77426e-05
-1.07221e-06
4.85276e-05
-2.04937e-06
7.57461e-05
-3.035e-06
9.91283e-05
-3.79839e-06
0.000118465
-4.09532e-06
0.000133591
-3.66586e-06
0.000144364
-2.23048e-06
0.000150651
5.15072e-07
0.000152307
4.9063e-06
0.000149164
1.1318e-05
0.000141012
2.01742e-05
0.000127598
3.19615e-05
0.000108624
4.72476e-05
8.37668e-05
6.67093e-05
5.27348e-05
9.1174e-05
1.54132e-05
0.000121677
-2.78132e-05
0.000159482
-7.52047e-05
0.000205852
-0.000121761
-0.000156357
0.000261289
-3.0109e-07
1.80437e-05
-9.74464e-07
4.9201e-05
-1.79824e-06
7.65698e-05
-2.53573e-06
9.98658e-05
-2.93646e-06
0.000118866
-2.73518e-06
0.000133389
-1.64901e-06
0.000143278
6.26991e-07
0.000148375
4.42533e-06
0.000148509
1.01128e-05
0.000143476
1.80981e-05
0.000133027
2.88405e-05
0.000116856
4.28611e-05
9.46038e-05
6.07576e-05
6.58703e-05
8.3228e-05
3.02644e-05
0.000111111
-1.24693e-05
0.000145449
-6.21516e-05
0.000187557
-0.000117312
0.000238884
-0.000173088
-0.000217816
0.000300342
-2.80118e-07
1.83238e-05
-8.71698e-07
4.97926e-05
-1.53235e-06
7.72305e-05
-2.0043e-06
0.000100338
-2.0149e-06
0.000118876
-1.27501e-06
0.00013265
5.24538e-07
0.000141478
3.71806e-06
0.000145182
8.67114e-06
0.000143556
1.57875e-05
0.00013636
2.55161e-05
0.000123298
3.8359e-05
0.000104013
5.48789e-05
7.8084e-05
7.57093e-05
4.50399e-05
0.000101571
4.40274e-06
0.000133303
-4.42013e-05
0.000171927
-0.000100776
0.000218738
-0.000164124
0.000275301
-0.00022965
-0.000285345
0.00034283
-2.58175e-07
1.8582e-05
-7.63023e-07
5.02974e-05
-1.24956e-06
7.7717e-05
-1.43662e-06
0.000100525
-1.02685e-06
0.000118467
2.95805e-07
0.000131327
2.8703e-06
0.000138904
7.06468e-06
0.000140987
1.32827e-05
0.000137338
2.19711e-05
0.000127671
3.36266e-05
0.000111643
4.88017e-05
8.88379e-05
6.81098e-05
5.87759e-05
9.22286e-05
2.09211e-05
0.000121906
-2.52749e-05
0.000157978
-8.02726e-05
0.000201414
-0.000144212
0.000253417
-0.000216126
0.000315562
-0.000291796
-0.000358895
0.000389111
-2.35034e-07
1.88171e-05
-6.47451e-07
5.07099e-05
-9.47475e-07
7.80171e-05
-8.28217e-07
0.000100406
3.51914e-08
0.000117603
1.98843e-06
0.000129374
5.40443e-06
0.000135488
1.06893e-05
0.000135702
1.82903e-05
0.000129737
2.87037e-05
0.000117258
4.24811e-05
9.78651e-05
6.02349e-05
7.10842e-05
8.26387e-05
3.63721e-05
0.000110425
-6.86515e-06
0.000144378
-5.92276e-05
0.000185329
-0.000121224
0.000234178
-0.000193062
0.000291954
-0.000273902
0.000360129
-0.000359971
-0.000438295
0.000439529
-2.10433e-07
1.90275e-05
-5.23864e-07
5.10233e-05
-6.23486e-07
7.81167e-05
-1.74258e-07
9.99563e-05
1.1787e-06
0.00011625
3.81472e-06
0.000126738
8.14379e-06
0.000131159
1.46148e-05
0.000129231
2.37241e-05
0.000120628
3.60238e-05
0.000104958
5.21282e-05
8.17606e-05
7.2718e-05
5.04944e-05
9.85377e-05
1.05524e-05
0.000130386
-3.87135e-05
0.000169095
-9.79369e-05
0.000215503
-0.000167631
0.000270429
-0.000247989
0.000334661
-0.000338134
0.000409449
-0.000434759
-0.00052324
0.000494395
-1.84069e-07
1.92116e-05
-3.91002e-07
5.12302e-05
-2.74671e-07
7.80003e-05
5.30575e-07
9.91511e-05
2.41268e-06
0.000114368
5.78739e-06
0.000123363
1.11061e-05
0.00012584
1.88649e-05
0.000121472
2.96146e-05
0.000109878
4.39692e-05
9.06039e-05
6.2613e-05
6.31169e-05
8.63031e-05
2.68043e-05
0.000115865
-1.90093e-05
0.000152175
-7.50238e-05
0.00019613
-0.000141891
0.000248587
-0.000220088
0.000310297
-0.000309699
0.000381765
-0.000409602
0.000463932
-0.000516925
-0.000613267
0.000553959
-1.5559e-07
1.93671e-05
-2.47441e-07
5.13221e-05
1.02239e-07
7.76507e-05
1.29216e-06
9.79612e-05
3.74622e-06
0.000111914
7.91997e-06
0.000119189
1.43099e-05
0.00011945
2.34641e-05
0.000112318
3.59924e-05
9.73497e-05
5.25766e-05
7.40197e-05
7.39769e-05
4.17165e-05
0.000101034
-2.52751e-07
0.000134662
-5.26371e-05
0.000175827
-0.000116189
0.000225504
-0.000191568
0.000284597
-0.000279182
0.00035381
-0.000378911
0.000433375
-0.000489167
0.000523873
-0.000607424
-0.000707841
0.000618446
-1.24591e-07
1.94917e-05
-9.15282e-08
5.1289e-05
5.10736e-07
7.70484e-05
2.11689e-06
9.6355e-05
5.18939e-06
0.000108842
1.0227e-05
0.000114152
1.7775e-05
0.000111902
2.84375e-05
0.000101656
4.28884e-05
8.28988e-05
6.18815e-05
5.50266e-05
8.62576e-05
1.73404e-05
0.000116945
-3.09406e-05
0.000154953
-9.06445e-05
0.000201343
-0.000162579
0.000257187
-0.000247412
0.000323469
-0.000345463
0.000400903
-0.000456346
0.00048952
-0.000577784
0.000589338
-0.000707242
-0.000806753
0.000688251
-9.06262e-08
1.95824e-05
7.83644e-08
5.112e-05
9.54862e-07
7.61719e-05
3.01173e-06
9.42981e-05
6.75303e-06
0.0001051
1.27238e-05
0.000108181
2.15221e-05
0.000103104
3.38116e-05
8.93663e-05
5.03338e-05
6.63767e-05
7.19183e-05
3.34421e-05
9.94889e-05
-1.02303e-05
0.000134063
-6.55151e-05
0.000176744
-0.000133325
0.000228691
-0.000214527
0.000291084
-0.000309805
0.000365031
-0.00041941
0.000451414
-0.000542729
0.000550388
-0.000676758
0.000660668
-0.000817522
-0.000910025
0.00076394
-5.31776e-08
1.96355e-05
2.64217e-07
5.08026e-05
1.4389e-06
7.49972e-05
3.98424e-06
9.17528e-05
8.44873e-06
0.000100636
1.5427e-05
0.000101203
2.55728e-05
9.29579e-05
3.96131e-05
7.5326e-05
5.83598e-05
4.763e-05
8.27199e-05
9.08205e-06
0.0001137
-4.12102e-05
0.000152403
-0.000104219
0.000200018
-0.00018094
0.000257795
-0.000272303
0.000327011
-0.000379021
0.00040893
-0.000501329
0.000504806
-0.000638605
0.000615866
-0.000787818
0.00074075
-0.000942406
-0.00101382
0.000844542
-1.18425e-08
1.96474e-05
4.6812e-07
5.03227e-05
1.96726e-06
7.34981e-05
5.04217e-06
8.86779e-05
1.02885e-05
9.53894e-05
1.83533e-05
9.31378e-05
2.99494e-05
8.13618e-05
4.58693e-05
5.94062e-05
6.69972e-05
2.65021e-05
9.43171e-05
-1.82379e-05
0.000128915
-7.58078e-05
0.00017197
-0.000147274
0.000224743
-0.000233712
0.000288543
-0.000336103
0.000364709
-0.000455187
0.000454609
-0.000591229
0.000559781
-0.000743778
0.000682489
-0.000910526
0.000828668
-0.00108858
-0.00123188
0.00104673
3.44488e-08
1.96129e-05
6.92722e-07
4.96644e-05
2.54541e-06
7.16454e-05
6.19462e-06
8.50287e-05
1.22858e-05
8.92983e-05
2.15212e-05
8.39024e-05
3.46751e-05
6.82079e-05
5.26077e-05
4.14736e-05
7.62756e-05
2.83415e-06
0.000106737
-4.86997e-05
0.00014515
-0.000114221
0.000192758
-0.000194882
0.000250863
-0.000291817
0.000320795
-0.000406035
0.000403881
-0.000538273
0.00050145
-0.000688798
0.000615001
-0.000857329
0.000747007
-0.00104253
0.000901741
-0.00124332
-0.00143032
0.00110018
8.59658e-08
1.9527e-05
9.4021e-07
4.88102e-05
3.17826e-06
6.94074e-05
7.45009e-06
8.07569e-05
1.44534e-05
8.2295e-05
2.49481e-05
7.34076e-05
3.97722e-05
5.33838e-05
5.98542e-05
2.13916e-05
8.62219e-05
-2.35336e-05
0.000120003
-8.24811e-05
0.000162417
-0.000156634
0.000214747
-0.000247212
0.00027831
-0.000355379
0.000354399
-0.000482124
0.00044424
-0.000628115
0.000548973
-0.00079353
0.00066971
-0.000978067
0.000808122
-0.00118094
0.00096568
-0.00140088
-0.00161745
0.00115281
1.43543e-07
1.93834e-05
1.21311e-06
4.77406e-05
3.87112e-06
6.67494e-05
8.81753e-06
7.58105e-05
1.68045e-05
7.4308e-05
2.8652e-05
6.15601e-05
4.52625e-05
3.67733e-05
6.7633e-05
-9.7888e-07
9.68593e-05
-5.27599e-05
0.000134131
-0.000119753
0.000180712
-0.000203215
0.000237904
-0.000304405
0.000306995
-0.00042447
0.000389185
-0.000564314
0.000485512
-0.000724442
0.000596795
-0.000904814
0.000723584
-0.00110486
0.000866506
-0.00132387
0.00102515
-0.00155952
-0.00179615
0.00120385
2.07888e-07
1.91755e-05
1.51399e-06
4.64345e-05
4.62934e-06
6.3634e-05
1.03058e-05
7.0134e-05
1.93521e-05
6.52617e-05
3.26495e-05
4.82628e-05
5.1166e-05
1.82568e-05
7.59651e-05
-2.5778e-05
0.000108205
-8.50002e-05
0.000149127
-0.000160674
0.00020002
-0.000254108
0.000262175
-0.000366559
0.000336806
-0.000499101
0.000424957
-0.000652466
0.000527403
-0.000826887
0.000644548
-0.00102196
0.000776307
-0.00123661
0.000922284
-0.00146984
0.00108076
-0.001718
-0.00196803
0.00125264
2.79721e-07
1.88958e-05
1.84541e-06
4.48688e-05
5.4582e-06
6.00212e-05
1.19236e-05
6.36685e-05
2.21085e-05
5.50768e-05
3.69564e-05
3.34149e-05
5.75002e-05
-2.28702e-06
8.48669e-05
-5.31447e-05
0.00012027
-0.000120403
0.000164986
-0.00020539
0.000220309
-0.000309432
0.000287482
-0.000433732
0.000367597
-0.000579216
0.000461487
-0.000746355
0.000569587
-0.000934988
0.000691827
-0.0011442
0.000827466
-0.00137225
0.000975183
-0.00161756
0.00113235
-0.00187517
-0.00213373
0.00129804
3.5976e-07
1.85361e-05
2.20983e-06
4.30187e-05
6.36274e-06
5.58683e-05
1.3679e-05
5.63523e-05
2.50847e-05
4.36712e-05
4.1586e-05
1.69136e-05
6.4279e-05
-2.498e-05
9.43489e-05
-8.32146e-05
0.000133054
-0.000159108
0.000181689
-0.000254026
0.000241525
-0.000369267
0.000313717
-0.000505924
0.000399191
-0.00066469
0.000498502
-0.000845666
0.000611694
-0.00104818
0.000738176
-0.00127068
0.000876574
-0.00151065
0.00102477
-0.00176575
0.00117953
-0.00202993
-0.00229318
0.00133898
4.48689e-07
1.80874e-05
2.60962e-06
4.08578e-05
7.34764e-06
5.11303e-05
1.55793e-05
4.81206e-05
2.82905e-05
3.096e-05
4.65493e-05
-1.34524e-06
7.15118e-05
-4.99425e-05
0.000104414
-0.000116117
0.000146546
-0.00020124
0.0001992
-0.000306679
0.00026359
-0.000433658
0.000340746
-0.000583079
0.000431369
-0.000755313
0.000535689
-0.000949986
0.00065331
-0.0011658
0.000783102
-0.00140047
0.000923099
-0.00165065
0.00107053
-0.00191319
0.00122181
-0.00218121
-0.00244598
0.00137462
5.47157e-07
1.75402e-05
3.04694e-06
3.8358e-05
8.41713e-06
4.57601e-05
1.76309e-05
3.89068e-05
3.17338e-05
1.68571e-05
5.1854e-05
-2.14654e-05
7.92025e-05
-7.72911e-05
0.000115057
-0.000151971
0.000160722
-0.000246905
0.000217462
-0.000363419
0.000286402
-0.000502598
0.000368397
-0.000665074
0.000463878
-0.000850794
0.000572697
-0.0010588
0.000693987
-0.00128709
0.000826084
-0.00153257
0.000966498
-0.00179106
0.00111197
-0.00205866
0.00125874
-0.00232799
-0.00259159
0.00140435
6.55753e-07
1.68845e-05
3.52372e-06
3.549e-05
9.57481e-06
3.9709e-05
1.98388e-05
2.86428e-05
3.542e-05
1.27585e-06
5.75036e-05
-4.35489e-05
8.73488e-05
-0.000107136
0.000126263
-0.000190885
0.000175545
-0.000296187
0.000236402
-0.000424277
0.000309832
-0.000576028
0.000396469
-0.000751711
0.000496426
-0.000950752
0.000609139
-0.00117152
0.000733255
-0.00141121
0.000866602
-0.00166592
0.00100625
-0.00193071
0.00114861
-0.00220102
0.00128995
-0.00246933
-0.00272948
0.00142784
7.75003e-07
1.61095e-05
4.04159e-06
3.22235e-05
1.08236e-05
3.2927e-05
2.22068e-05
1.72596e-05
3.93523e-05
-1.58696e-05
6.34975e-05
-6.76942e-05
9.59414e-05
-0.00013958
0.000138005
-0.000232948
0.000190959
-0.000349142
0.000255924
-0.000489242
0.000333724
-0.000653828
0.000424732
-0.000842718
0.000528697
-0.00105472
0.000644612
-0.00128743
0.000770642
-0.00153724
0.000904157
-0.00179943
0.00104189
-0.00206844
0.0011801
-0.00233923
0.0013152
-0.00260443
-0.00285923
0.00144496
9.05353e-07
1.52041e-05
4.60189e-06
2.85269e-05
1.21656e-05
2.53633e-05
2.47369e-05
4.68831e-06
4.35305e-05
-3.46633e-05
6.98303e-05
-9.39939e-05
0.000104963
-0.000174713
0.000150247
-0.000278232
0.000206898
-0.000405793
0.000275911
-0.000558255
0.0003579
-0.000735817
0.000452929
-0.000937747
0.00056035
-0.00116214
0.0006787
-0.00140578
0.000805686
-0.00166422
0.000938293
-0.00193204
0.00107303
-0.00220318
0.00120616
-0.00247235
0.00133438
-0.00273265
-0.0029806
0.00145575
1.04717e-06
1.41569e-05
5.20555e-06
2.43685e-05
1.36019e-05
1.69669e-05
2.74293e-05
-9.13901e-06
4.79517e-05
-5.51857e-05
7.64913e-05
-0.000122533
0.00011439
-0.000212612
0.00016294
-0.000326781
0.000223275
-0.000466128
0.000296227
-0.000631207
0.000382157
-0.000821748
0.000480782
-0.00103637
0.000591033
-0.00127239
0.000710994
-0.00152574
0.000837959
-0.00179119
0.000968619
-0.0020627
0.00109938
-0.00233395
0.00122665
-0.00259962
0.00134753
-0.00285353
-0.0030935
0.00146043
1.20072e-06
1.29562e-05
5.85317e-06
1.97161e-05
1.5133e-05
7.68711e-06
3.02824e-05
-2.42885e-05
5.26095e-05
-7.75128e-05
8.34644e-05
-0.000153388
0.000124188
-0.000253336
0.000176024
-0.000378617
0.000239989
-0.000530094
0.000316718
-0.000707936
0.000406277
-0.000911306
0.000508002
-0.0011381
0.000620393
-0.00138478
0.000741105
-0.00164646
0.000867081
-0.00191716
0.00099482
-0.00219044
0.00112076
-0.00245989
0.00124157
-0.00272043
0.00135482
-0.00296678
-0.00319801
0.00145933
1.36619e-06
1.159e-05
6.5449e-06
1.45374e-05
1.67579e-05
-2.52592e-06
3.32927e-05
-4.08233e-05
5.74939e-05
-0.000101714
9.07281e-05
-0.000186623
0.000134316
-0.000296924
0.000189426
-0.000433727
0.000256928
-0.000597595
0.000337215
-0.000788222
0.000430024
-0.00100412
0.000534292
-0.00124237
0.000648087
-0.00149857
0.000768675
-0.00176704
0.000892731
-0.00204122
0.00101667
-0.00231438
0.00113708
-0.0025803
0.001251
-0.00283434
0.00135651
-0.0030723
-0.00329437
0.00145287
1.54367e-06
1.00464e-05
7.28049e-06
8.80054e-06
1.8475e-05
-1.37204e-05
3.64545e-05
-5.88028e-05
6.25916e-05
-0.000127851
9.8255e-05
-0.000222286
0.000144725
-0.000343394
0.000203066
-0.000492068
0.000273963
-0.000668492
0.000357534
-0.000871794
0.000453159
-0.00109974
0.000559359
-0.00134857
0.000673792
-0.00161301
0.000793394
-0.00188665
0.000914661
-0.00216249
0.00103404
-0.00243376
0.00114837
-0.00269463
0.00125514
-0.00294111
0.00135296
-0.00317012
-0.00338293
0.00144152
1.73313e-06
8.31323e-06
8.05926e-06
2.47441e-06
2.02813e-05
-2.59425e-05
3.97601e-05
-7.82816e-05
6.78854e-05
-0.000155976
0.000106012
-0.000260413
0.000155356
-0.000392738
0.000216849
-0.000553561
0.000290955
-0.000742598
0.000377485
-0.000958324
0.000475436
-0.00119769
0.000582918
-0.00145605
0.000697215
-0.0017273
0.000815002
-0.00200443
0.000932698
-0.00228018
0.00104689
-0.00254796
0.00115475
-0.00280249
0.00125427
-0.00304063
0.00134458
-0.00326043
-0.00346413
0.00142578
1.93447e-06
6.37876e-06
8.88007e-06
-4.47119e-06
2.21729e-05
-3.92353e-05
4.31994e-05
-9.93081e-05
7.33547e-05
-0.000186132
0.000113961
-0.000301019
0.000166146
-0.000444923
0.000230675
-0.000618089
0.000307759
-0.000819683
0.000396872
-0.00104744
0.000496616
-0.00129744
0.000604706
-0.00156414
0.000718102
-0.0018407
0.000833301
-0.00211963
0.000946748
-0.00239363
0.00105526
-0.00265647
0.00115642
-0.00290365
0.00124872
-0.00313293
0.00133181
-0.00334352
-0.00353847
0.00140615
2.14746e-06
4.2313e-06
9.74133e-06
-1.20651e-05
2.41447e-05
-5.36387e-05
4.67605e-05
-0.000121924
7.89751e-05
-0.000218346
0.000122059
-0.000344103
0.000177022
-0.000499886
0.000244434
-0.000685501
0.000324221
-0.00089947
0.000415497
-0.00113871
0.000516469
-0.00139841
0.000624486
-0.00167215
0.000736246
-0.00195246
0.000848159
-0.00223154
0.000956789
-0.00250226
0.00105927
-0.00275896
0.00115363
-0.00299801
0.00123888
-0.00321818
0.00131512
-0.00341976
-0.00360647
0.00138312
2.37179e-06
1.85951e-06
1.0641e-05
-2.03343e-05
2.61905e-05
-6.91881e-05
5.04291e-05
-0.000146163
8.47191e-05
-0.000252636
0.000130256
-0.00038964
0.000187907
-0.000557537
0.000258012
-0.000755605
0.000340186
-0.000981643
0.000433168
-0.00123169