/*--------------------------------*- C++ -*----------------------------------*\
  =========                 |
  \\      /  F ield         | OpenFOAM: The Open Source CFD Toolbox
   \\    /   O peration     | Website:  https://openfoam.org
    \\  /    A nd           | Version:  7
     \\/     M anipulation  |
\*---------------------------------------------------------------------------*/
FoamFile
{
    version     2.0;
    format      ascii;
    class       volScalarField;
    location    "140";
    object      p;
}
// * * * * * * * * * * * * * * * * * * * * * * * * * * * * * * * * * * * * * //

dimensions      [0 2 -2 0 0 0 0];

internalField   nonuniform List<scalar> 
7156
(
-0.432804
-0.41813
-0.384844
-0.336989
-0.284077
-0.234884
-0.195014
-0.166075
-0.147613
-0.138271
-0.13672
-0.142322
-0.155479
-0.176021
-0.200224
-0.220556
-0.228919
-0.221522
-0.200927
-0.173641
-0.146274
-0.123053
-0.105613
-0.0940954
-0.0880861
-0.0869465
-0.0903649
-0.0988979
-0.113247
-0.132106
-0.441231
-0.426375
-0.392319
-0.343259
-0.288951
-0.23843
-0.197386
-0.167437
-0.148083
-0.137932
-0.135619
-0.140444
-0.152744
-0.172394
-0.195853
-0.215815
-0.224315
-0.217487
-0.197687
-0.171213
-0.144555
-0.121907
-0.104927
-0.0937982
-0.0881486
-0.0873577
-0.0911377
-0.100086
-0.114921
-0.134293
-0.449123
-0.434137
-0.399389
-0.349206
-0.293577
-0.241788
-0.199612
-0.168681
-0.148455
-0.137505
-0.134434
-0.138484
-0.149924
-0.168674
-0.19138
-0.210963
-0.2196
-0.21335
-0.194358
-0.16871
-0.142772
-0.120705
-0.104188
-0.0934523
-0.0881639
-0.0877221
-0.0918627
-0.101223
-0.11654
-0.136422
-0.456468
-0.441406
-0.406047
-0.354826
-0.297954
-0.244959
-0.201696
-0.169814
-0.148735
-0.136997
-0.133172
-0.136451
-0.147031
-0.164875
-0.186818
-0.206012
-0.214783
-0.209116
-0.190944
-0.166132
-0.140926
-0.119447
-0.103397
-0.0930563
-0.0881303
-0.0880376
-0.0925373
-0.102306
-0.118101
-0.138489
-0.463254
-0.448174
-0.412285
-0.360115
-0.302082
-0.247946
-0.203643
-0.17084
-0.148928
-0.136415
-0.131843
-0.134353
-0.144075
-0.161008
-0.182179
-0.200974
-0.209873
-0.204792
-0.187447
-0.163484
-0.139016
-0.118131
-0.102553
-0.0926089
-0.0880461
-0.0883021
-0.0931591
-0.103332
-0.119598
-0.140489
-0.469477
-0.454435
-0.418101
-0.365072
-0.305963
-0.250751
-0.205457
-0.171766
-0.149041
-0.135766
-0.130454
-0.1322
-0.141067
-0.157086
-0.177477
-0.195861
-0.204879
-0.200384
-0.183874
-0.160765
-0.137045
-0.116758
-0.101655
-0.0921088
-0.0879098
-0.0885137
-0.0937254
-0.104298
-0.121029
-0.142418
-0.475134
-0.460187
-0.423493
-0.369697
-0.309597
-0.253378
-0.207143
-0.172596
-0.149081
-0.135057
-0.129014
-0.130002
-0.138017
-0.15312
-0.172722
-0.190684
-0.199811
-0.195899
-0.180227
-0.15798
-0.135013
-0.115329
-0.100702
-0.0915551
-0.0877197
-0.0886704
-0.094234
-0.105201
-0.12239
-0.14427
-0.480226
-0.465431
-0.42846
-0.373989
-0.312986
-0.255832
-0.208706
-0.173338
-0.149055
-0.134296
-0.127529
-0.127766
-0.134935
-0.149122
-0.167928
-0.185455
-0.194679
-0.191344
-0.176511
-0.155131
-0.132921
-0.113843
-0.0996935
-0.0909468
-0.0874745
-0.0887705
-0.0946826
-0.106038
-0.123676
-0.146042
-0.484756
-0.470168
-0.433003
-0.377952
-0.316134
-0.258116
-0.210151
-0.173996
-0.148968
-0.13349
-0.12601
-0.125502
-0.131832
-0.145104
-0.163107
-0.180186
-0.189492
-0.186725
-0.172731
-0.15222
-0.130771
-0.112301
-0.0986302
-0.0902831
-0.0871731
-0.0888123
-0.095069
-0.106805
-0.124884
-0.14773
-0.488733
-0.474404
-0.437126
-0.381586
-0.319044
-0.260234
-0.211484
-0.174578
-0.148828
-0.132645
-0.124462
-0.123217
-0.128718
-0.141076
-0.15827
-0.174888
-0.184259
-0.182051
-0.168891
-0.14925
-0.128564
-0.110703
-0.0975114
-0.0895634
-0.0868141
-0.0887943
-0.0953913
-0.107501
-0.126011
-0.149329
-0.492166
-0.478147
-0.440833
-0.384897
-0.32172
-0.262193
-0.21271
-0.175088
-0.14864
-0.131769
-0.122893
-0.120921
-0.125601
-0.13705
-0.15343
-0.169573
-0.178992
-0.177328
-0.164997
-0.146224
-0.126302
-0.10905
-0.0963373
-0.088787
-0.0863967
-0.0887151
-0.0956476
-0.108123
-0.127054
-0.150835
-0.495067
-0.481404
-0.444131
-0.387889
-0.324167
-0.263996
-0.213835
-0.175534
-0.148411
-0.130869
-0.121311
-0.118621
-0.12249
-0.133036
-0.148598
-0.164253
-0.173699
-0.172563
-0.161054
-0.143146
-0.123987
-0.107344
-0.0951079
-0.0879536
-0.08592
-0.0885734
-0.0958361
-0.108668
-0.128009
-0.152246
-0.497451
-0.484187
-0.447025
-0.390567
-0.32639
-0.26565
-0.214865
-0.17592
-0.148147
-0.12995
-0.119723
-0.116325
-0.119394
-0.129044
-0.143784
-0.158937
-0.168391
-0.167764
-0.157067
-0.14002
-0.12162
-0.105584
-0.0938237
-0.0870631
-0.0853832
-0.0883681
-0.0959554
-0.109135
-0.128875
-0.153557
-0.499335
-0.486507
-0.449525
-0.392937
-0.328395
-0.26716
-0.215805
-0.176253
-0.147855
-0.129019
-0.118135
-0.11404
-0.116322
-0.125084
-0.138999
-0.153638
-0.163076
-0.162938
-0.153041
-0.136847
-0.119204
-0.103772
-0.0924852
-0.0861152
-0.0847859
-0.0880982
-0.0960038
-0.109521
-0.129647
-0.154765
-0.500737
-0.488378
-0.45164
-0.395006
-0.330187
-0.268531
-0.216661
-0.176539
-0.147539
-0.128083
-0.116555
-0.111774
-0.11328
-0.121164
-0.134253
-0.148366
-0.157766
-0.158094
-0.148981
-0.133633
-0.116741
-0.101911
-0.091093
-0.0851102
-0.0841275
-0.0877628
-0.0959803
-0.109825
-0.130324
-0.155867
-0.501677
-0.489815
-0.45338
-0.396782
-0.331772
-0.269769
-0.217439
-0.176783
-0.147207
-0.127147
-0.114988
-0.109531
-0.110276
-0.117294
-0.129556
-0.143129
-0.152468
-0.153228
-0.144894
-0.13038
-0.114233
-0.0999998
-0.0896479
-0.0840482
-0.0834078
-0.0873614
-0.0958837
-0.110044
-0.130903
-0.156861
-0.502174
-0.490833
-0.454754
-0.398272
-0.333157
-0.270881
-0.218143
-0.176991
-0.146862
-0.126216
-0.113439
-0.10732
-0.107318
-0.113481
-0.124916
-0.137939
-0.147194
-0.148344
-0.140784
-0.127093
-0.111684
-0.0980419
-0.0881509
-0.0829296
-0.0826267
-0.0868933
-0.0957132
-0.110179
-0.131383
-0.157744
-0.502251
-0.491448
-0.455776
-0.399485
-0.334349
-0.271871
-0.21878
-0.177167
-0.146511
-0.125296
-0.111916
-0.105146
-0.10441
-0.109732
-0.120344
-0.132804
-0.141952
-0.143711
-0.136658
-0.123776
-0.109096
-0.0960386
-0.0866032
-0.0817551
-0.0817844
-0.0863583
-0.095468
-0.110227
-0.131762
-0.158513
-0.50193
-0.491676
-0.456456
-0.400429
-0.335355
-0.272746
-0.219355
-0.177318
-0.146158
-0.124392
-0.110423
-0.103015
-0.10156
-0.106054
-0.115846
-0.127733
-0.136748
-0.138823
-0.132518
-0.120432
-0.106471
-0.0939918
-0.0850061
-0.0805253
-0.0808809
-0.0857562
-0.0951476
-0.110187
-0.132038
-0.159168
-0.501235
-0.491534
-0.456806
-0.401113
-0.336181
-0.273512
-0.219872
-0.177447
-0.145808
-0.123509
-0.108964
-0.100931
-0.0987719
-0.102455
-0.111429
-0.122734
-0.13159
-0.133962
-0.128374
-0.117066
-0.103812
-0.0919038
-0.083361
-0.0792412
-0.0799168
-0.085087
-0.0947516
-0.110059
-0.132211
-0.159705
-0.500186
-0.491039
-0.456839
-0.401547
-0.336835
-0.274175
-0.220338
-0.17756
-0.145466
-0.122651
-0.107545
-0.0988999
-0.0960515
-0.0989383
-0.107102
-0.117814
-0.126488
-0.129142
-0.124229
-0.113681
-0.101123
-0.0897767
-0.0816696
-0.0779038
-0.0788925
-0.0843508
-0.09428
-0.109843
-0.132279
-0.160124
-0.498798
-0.490207
-0.456566
-0.401739
-0.337324
-0.274739
-0.220756
-0.17766
-0.145136
-0.121822
-0.10617
-0.0969258
-0.0934031
-0.0955106
-0.10287
-0.112981
-0.121451
-0.124364
-0.12009
-0.110281
-0.0984065
-0.0876129
-0.0799336
-0.0765143
-0.0778089
-0.0835479
-0.0937327
-0.109538
-0.132243
-0.160424
-0.489054
-0.456002
-0.4017
-0.337655
-0.275212
-0.221132
-0.177753
-0.144821
-0.121026
-0.104842
-0.0950128
-0.0908309
-0.0921759
-0.0987395
-0.108241
-0.116485
-0.119628
-0.115961
-0.106872
-0.0956657
-0.0854148
-0.0781549
-0.0750742
-0.0766667
-0.0826789
-0.09311
-0.109144
-0.1321
-0.160603
-0.487596
-0.455157
-0.401439
-0.337836
-0.275598
-0.221469
-0.177841
-0.144526
-0.120267
-0.103566
-0.0931647
-0.0883386
-0.0889385
-0.094715
-0.103601
-0.111597
-0.11494
-0.111847
-0.103456
-0.0929038
-0.083185
-0.0763355
-0.073585
-0.0754671
-0.0817444
-0.0924122
-0.108661
-0.131852
-0.160663
-0.485851
-0.454046
-0.400966
-0.337873
-0.275902
-0.221772
-0.177929
-0.144254
-0.119547
-0.102344
-0.0913848
-0.0859295
-0.0858019
-0.0908015
-0.0990659
-0.106794
-0.110305
-0.107755
-0.100038
-0.0901242
-0.0809262
-0.0744777
-0.0720483
-0.0742112
-0.0807453
-0.0916401
-0.10809
-0.131499
-0.160601
-0.483833
-0.452679
-0.40029
-0.337774
-0.27613
-0.222045
-0.178019
-0.144008
-0.118871
-0.101179
-0.0896761
-0.0836066
-0.0827691
-0.0870029
-0.0946406
-0.10208
-0.105729
-0.103689
-0.096623
-0.08733
-0.0786412
-0.0725837
-0.0704661
-0.0729004
-0.0796825
-0.0907944
-0.107432
-0.13104
-0.160419
-0.481556
-0.451069
-0.399421
-0.337546
-0.276287
-0.222292
-0.178116
-0.143791
-0.118241
-0.100074
-0.0880413
-0.0813724
-0.0798428
-0.0833228
-0.0903298
-0.097462
-0.101217
-0.0996542
-0.0932137
-0.0845246
-0.0763327
-0.0706559
-0.0688402
-0.0715363
-0.0785573
-0.0898759
-0.106686
-0.130478
-0.160116
-0.479036
-0.449229
-0.398369
-0.337196
-0.276378
-0.222516
-0.178222
-0.143606
-0.117658
-0.099032
-0.0864827
-0.0792294
-0.0770252
-0.0797642
-0.0861374
-0.0929441
-0.0967735
-0.0956561
-0.0898146
-0.0817115
-0.0740036
-0.0686969
-0.0671729
-0.0701206
-0.0773708
-0.0888859
-0.105855
-0.129812
-0.159694
-0.476287
-0.44717
-0.397143
-0.336731
-0.276407
-0.222721
-0.178339
-0.143454
-0.117126
-0.0980536
-0.0850024
-0.0771793
-0.0743181
-0.0763295
-0.0820668
-0.0885307
-0.0924037
-0.0916998
-0.0864296
-0.0788938
-0.0716569
-0.0667091
-0.0654663
-0.068655
-0.0761246
-0.0878257
-0.10494
-0.129043
-0.159154
-0.47332
-0.444903
-0.395753
-0.336157
-0.276379
-0.22291
-0.17847
-0.143339
-0.116646
-0.0971412
-0.0836019
-0.0752238
-0.0717229
-0.0730208
-0.0781212
-0.0842257
-0.0881126
-0.0877927
-0.0830627
-0.0760749
-0.0692956
-0.0646955
-0.0637229
-0.0671415
-0.0748203
-0.0866967
-0.103941
-0.128175
-0.158496
-0.470148
-0.442441
-0.394208
-0.335481
-0.276298
-0.223084
-0.178617
-0.143261
-0.116221
-0.0962962
-0.0822826
-0.0733642
-0.0692407
-0.0698397
-0.0743029
-0.0800326
-0.0839046
-0.0839353
-0.0797174
-0.0732581
-0.0669225
-0.0626586
-0.0619451
-0.0655823
-0.0734596
-0.0855004
-0.102862
-0.127207
-0.157722
-0.466784
-0.439795
-0.392517
-0.334709
-0.276168
-0.223248
-0.178782
-0.143222
-0.11585
-0.0955198
-0.0810456
-0.0716016
-0.0668723
-0.0667874
-0.0706141
-0.0759543
-0.0797841
-0.0801128
-0.0763966
-0.0704465
-0.0645408
-0.0606013
-0.0601355
-0.0639795
-0.0720445
-0.0842388
-0.101702
-0.126141
-0.156834
-0.463239
-0.436975
-0.390691
-0.333849
-0.275993
-0.223404
-0.178967
-0.143225
-0.115536
-0.0948129
-0.0798916
-0.0699367
-0.0646182
-0.0638645
-0.0670564
-0.0719935
-0.0757545
-0.0763332
-0.0731034
-0.0676434
-0.0621535
-0.0585265
-0.0582968
-0.0623355
-0.0705768
-0.0829136
-0.100466
-0.124981
-0.155833
-0.187744
-0.459523
-0.433993
-0.388736
-0.332904
-0.275776
-0.223553
-0.179172
-0.143269
-0.115279
-0.0941762
-0.078821
-0.0683699
-0.0624787
-0.0610717
-0.0636311
-0.0681522
-0.0718195
-0.0726028
-0.0698417
-0.064852
-0.0597634
-0.0564372
-0.0564318
-0.0606529
-0.0690588
-0.0815269
-0.0991533
-0.123728
-0.154723
-0.186949
-0.455646
-0.430859
-0.386664
-0.331883
-0.275522
-0.223698
-0.1794
-0.143355
-0.115081
-0.0936103
-0.0778343
-0.0669015
-0.0604538
-0.0584089
-0.0603391
-0.0644322
-0.0679816
-0.068918
-0.066618
-0.0620755
-0.0573738
-0.0543362
-0.0545432
-0.0589341
-0.0674927
-0.0800808
-0.097768
-0.122383
-0.153505
-0.186036
-0.451619
-0.427584
-0.384481
-0.33079
-0.275232
-0.22384
-0.179651
-0.143485
-0.114941
-0.0931155
-0.0769312
-0.0655312
-0.0585431
-0.0558762
-0.0571809
-0.0608347
-0.0642437
-0.0653271
-0.0634374
-0.059317
-0.0549875
-0.0522266
-0.0526341
-0.0571818
-0.065881
-0.0785777
-0.0963119
-0.120951
-0.152181
-0.185008
-0.447451
-0.424179
-0.382197
-0.32963
-0.274911
-0.22398
-0.179926
-0.143659
-0.114861
-0.0926919
-0.0761116
-0.0642589
-0.0567464
-0.0534732
-0.0541569
-0.0573608
-0.0606095
-0.0618361
-0.0603012
-0.0565797
-0.0526075
-0.0501113
-0.0507072
-0.0553989
-0.0642259
-0.0770198
-0.0947877
-0.119434
-0.150755
-0.183866
-0.443151
-0.420654
-0.37982
-0.328409
-0.27456
-0.224121
-0.180226
-0.143877
-0.11484
-0.0923396
-0.0753752
-0.063084
-0.0550629
-0.0511993
-0.0512671
-0.0540109
-0.0570806
-0.0584289
-0.0572119
-0.0538671
-0.0502367
-0.0479932
-0.0487658
-0.0535881
-0.0625303
-0.0754096
-0.093198
-0.117833
-0.149229
-0.182614
-0.417019
-0.377358
-0.327132
-0.274183
-0.224264
-0.180551
-0.144139
-0.114878
-0.0920584
-0.0747212
-0.0620056
-0.0534919
-0.0490538
-0.0485113
-0.0507854
-0.0536574
-0.0551007
-0.0541734
-0.0511822
-0.0478779
-0.0458754
-0.0468126
-0.0517525
-0.0607966
-0.0737498
-0.0915455
-0.116154
-0.147607
-0.181255
-0.413285
-0.37482
-0.325803
-0.273781
-0.224409
-0.180901
-0.144445
-0.114975
-0.0918479
-0.0741489
-0.0610226
-0.0520321
-0.0470357
-0.0458891
-0.047684
-0.0503406
-0.051853
-0.0511891
-0.0485285
-0.0455342
-0.0437606
-0.0448509
-0.0498949
-0.0590276
-0.0720428
-0.0898331
-0.114397
-0.145891
-0.179792
-0.409462
-0.372212
-0.324427
-0.273356
-0.224555
-0.181276
-0.144794
-0.11513
-0.0917069
-0.0736569
-0.0601334
-0.0506822
-0.0451438
-0.0433999
-0.0447062
-0.0471303
-0.0486874
-0.0482623
-0.0459092
-0.0432083
-0.0416519
-0.0428836
-0.0480185
-0.0572262
-0.0702916
-0.0880637
-0.112567
-0.144085
-0.178227
-0.40556
-0.369541
-0.323007
-0.27291
-0.224704
-0.181675
-0.145186
-0.115342
-0.0916351
-0.0732443
-0.0593367
-0.0494409
-0.043377
-0.0410434
-0.0418517
-0.0440267
-0.045606
-0.0453964
-0.0433275
-0.0409032
-0.0395521
-0.0409138
-0.0461263
-0.0553953
-0.0684988
-0.0862403
-0.110667
-0.142192
-0.176564
-0.401589
-0.366818
-0.321552
-0.272451
-0.224863
-0.182105
-0.145626
-0.115617
-0.0916359
-0.0729134
-0.0586335
-0.0483085
-0.0417356
-0.0388202
-0.0391212
-0.0410305
-0.0426115
-0.0425954
-0.0407873
-0.0386221
-0.0374642
-0.0389445
-0.0442215
-0.0535378
-0.0666672
-0.084366
-0.1087
-0.140214
-0.174806
-0.397559
-0.364053
-0.320074
-0.271989
-0.225041
-0.182574
-0.14612
-0.115957
-0.0917124
-0.0726658
-0.0580239
-0.0472848
-0.0402192
-0.0367301
-0.0365137
-0.0381412
-0.0397059
-0.0398626
-0.0382934
-0.036369
-0.0353916
-0.0369791
-0.0423073
-0.0516567
-0.0647999
-0.0824439
-0.106669
-0.138157
-0.172956
-0.393479
-0.361242
-0.318554
-0.271496
-0.225205
-0.183049
-0.146639
-0.116339
-0.0918431
-0.0724832
-0.0574919
-0.046356
-0.0388158
-0.0347632
-0.0340207
-0.0353506
-0.036884
-0.0371888
-0.0358477
-0.0341468
-0.0333374
-0.0350207
-0.0403872
-0.0497554
-0.0628998
-0.0804773
-0.104579
-0.136021
-0.171017
-0.389352
-0.358355
-0.316931
-0.270892
-0.225271
-0.18345
-0.147113
-0.116703
-0.0919817
-0.0723288
-0.0570078
-0.0454977
-0.0375068
-0.0329069
-0.0316329
-0.0326479
-0.034133
-0.0345743
-0.0334432
-0.0319523
-0.0313009
-0.033071
-0.0384638
-0.0478366
-0.0609696
-0.0784693
-0.102432
-0.133815
-0.168998
-0.385195
-0.355432
-0.315272
-0.270267
-0.225338
-0.183876
-0.147632
-0.117131
-0.0921973
-0.0722623
-0.0566225
-0.0447552
-0.0363353
-0.0312054
-0.0293939
-0.0300711
-0.0314844
-0.0321414
-0.0310912
-0.0297895
-0.0292825
-0.0311292
-0.0365377
-0.045902
-0.0590116
-0.0764227
-0.100233
-0.131542
-0.166902
-0.381082
-0.352752
-0.314031
-0.270175
-0.225986
-0.184875
-0.148681
-0.11803
-0.0928276
-0.0725593
-0.056561
-0.0443146
-0.0354567
-0.0297851
-0.0274108
-0.0277298
-0.0290681
-0.0297778
-0.0289122
-0.0277426
-0.0273316
-0.0292187
-0.0346171
-0.0439569
-0.0570329
-0.0743408
-0.0979717
-0.129168
-0.164657
-0.376999
-0.350336
-0.313242
-0.270647
-0.22723
-0.186442
-0.150237
-0.119364
-0.09382
-0.0731511
-0.0567399
-0.0440791
-0.0347493
-0.028489
-0.0255045
-0.0254636
-0.02679
-0.0276588
-0.0269783
-0.0259115
-0.0255456
-0.0274149
-0.032752
-0.0420324
-0.0550556
-0.0722357
-0.0956321
-0.126629
-0.16214
-0.346462
-0.310258
-0.268525
-0.225807
-0.1855
-0.149557
-0.118768
-0.0931698
-0.0723428
-0.0557138
-0.0427904
-0.0331018
-0.0263398
-0.0227773
-0.022323
-0.0235545
-0.0246485
-0.0243157
-0.023625
-0.023545
-0.025578
-0.0309393
-0.0401399
-0.0530515
-0.0701229
-0.0934203
-0.124433
-0.160275
-0.337005
-0.300565
-0.259345
-0.21759
-0.178368
-0.143396
-0.113345
-0.0882194
-0.0676152
-0.050975
-0.0378388
-0.0278121
-0.0205281
-0.0159414
-0.013935
-0.0135285
-0.0135396
-0.0135932
-0.0141664
-0.0156067
-0.0191282
-0.0254383
-0.0347481
-0.0472811
-0.0644401
-0.089102
-0.122879
-0.162312
-0.314497
-0.280555
-0.242602
-0.20421
-0.167962
-0.135342
-0.106979
-0.0829365
-0.0629208
-0.0465192
-0.0333372
-0.0229354
-0.0149808
-0.00958846
-0.00694907
-0.00639581
-0.00674739
-0.00717095
-0.00753289
-0.00924666
-0.0131452
-0.0198195
-0.0294213
-0.0421978
-0.0596091
-0.0844644
-0.118279
-0.157436
-0.293188
-0.261881
-0.227069
-0.191759
-0.158176
-0.127654
-0.10081
-0.0777737
-0.058339
-0.0421885
-0.028994
-0.018338
-0.00991032
-0.00386226
-0.000535401
0.000447859
0.000235924
-0.000469952
-0.00143133
-0.00355326
-0.0077664
-0.0147587
-0.0247073
-0.0377912
-0.055301
-0.0797557
-0.112567
-0.150496
-0.272599
-0.243846
-0.212035
-0.179674
-0.14866
-0.120179
-0.0948321
-0.0728028
-0.0539695
-0.038095
-0.024923
-0.0140895
-0.00529781
0.00132348
0.00538147
0.00700523
0.00708417
0.00625934
0.00489199
0.00235898
-0.002235
-0.00954013
-0.019689
-0.0328343
-0.0502116
-0.074195
-0.106228
-0.143547
-0.252964
-0.226725
-0.19776
-0.168155
-0.139536
-0.112975
-0.0890598
-0.0680197
-0.0498062
-0.034247
-0.0211502
-0.0102196
-0.00117376
0.0059016
0.0106111
0.0128651
0.0132542
0.0124889
0.0109205
0.00808464
0.0032083
-0.00425666
-0.0143888
-0.0273701
-0.0444696
-0.0680368
-0.0995799
-0.13655
-0.234529
-0.210649
-0.184298
-0.157219
-0.130816
-0.106057
-0.0835116
-0.0634419
-0.0458623
-0.030655
-0.0176826
-0.00672147
0.00248274
0.00989245
0.0151436
0.017993
0.0187684
0.0181298
0.0164382
0.0133969
0.00837443
0.000916907
-0.0090344
-0.0217178
-0.0384452
-0.0615462
-0.0925149
-0.128821
-0.217375
-0.19565
-0.17167
-0.14689
-0.122523
-0.0994464
-0.0782042
-0.0590815
-0.0421441
-0.0273219
-0.0145202
-0.00358435
0.00569976
0.0133388
0.0190235
0.0224283
0.0236464
0.0231935
0.0214556
0.0182982
0.0132427
0.00591949
-0.00373634
-0.0160222
-0.0322681
-0.054731
-0.0848353
-0.120139
-0.201504
-0.18172
-0.159867
-0.137165
-0.114664
-0.0931512
-0.0731465
-0.0549455
-0.0386546
-0.0242458
-0.0116585
-0.000796023
0.00850535
0.0162845
0.0222982
0.0261958
0.027884
0.0276969
0.0260111
0.0228326
0.0178427
0.0107578
0.00149813
-0.010288
-0.0259219
-0.0475499
-0.0765552
-0.110695
-0.186867
-0.168815
-0.148862
-0.128033
-0.107234
-0.0871752
-0.0683432
-0.0510371
-0.0353936
-0.0214219
-0.00908887
0.00165734
0.0109264
0.0187717
0.0250168
0.0293279
0.031489
0.0316476
0.0301236
0.027029
0.0222023
0.0154514
0.00668294
-0.00450462
-0.0194087
-0.0400603
-0.0678395
-0.100696
-0.173386
-0.156871
-0.138612
-0.11947
-0.100227
-0.0815168
-0.0637948
-0.0473562
-0.0323582
-0.0188424
-0.00679897
0.00379147
0.0129885
0.0208411
0.0272318
0.03187
0.0344809
0.0350483
0.033798
0.0309022
0.0263383
0.020009
0.0118129
0.00130188
-0.0127904
-0.0323807
-0.0588402
-0.0902687
-0.160966
-0.145819
-0.129072
-0.11145
-0.0936285
-0.0761705
-0.0594987
-0.0438996
-0.029543
-0.0164973
-0.0047739
0.00562435
0.0147159
0.0225312
0.0289963
0.0338766
0.0368898
0.0379017
0.0370275
0.0344491
0.0302495
0.0244204
0.0168595
0.00707688
-0.00615292
-0.0246225
-0.0496761
-0.079555
-0.149514
-0.135585
-0.120192
-0.103944
-0.0874224
-0.0711281
-0.0554495
-0.0406617
-0.0269407
-0.0143753
-0.00299687
0.00717613
0.0161324
0.0238769
0.0303611
0.0354063
0.0387547
0.040216
0.0397951
0.037644
0.0339077
0.0286505
0.0217729
0.0127527
0.000419003
-0.0168897
-0.0404859
-0.0687435
-0.13894
-0.126101
-0.111923
-0.0969195
-0.0815907
-0.0663791
-0.0516399
-0.037635
-0.0245417
-0.0124637
-0.00144996
0.00846877
0.0172619
0.0249097
0.0313717
0.036518
0.0401315
0.0420098
0.0420806
0.0404414
0.0372556
0.0326343
0.02648
0.0182487
0.00683314
-0.00930622
-0.0314456
-0.0580451
-0.12916
-0.117302
-0.10422
-0.0903475
-0.0761145
-0.0619112
-0.0480609
-0.0348104
-0.0223353
-0.0107488
-0.000114798
0.00952527
0.0181294
0.0256584
0.0320685
0.037265
0.0410771
0.0433166
0.0438739
0.04279
0.0402146
0.0362781
0.0308799
0.0234619
0.012975
-0.00202397
-0.0227481
-0.0476624
-0.120098
-0.109128
-0.0970398
-0.084198
-0.0709741
-0.0577112
-0.044702
-0.0321777
-0.0203095
-0.0092161
0.00102709
0.0103689
0.0187604
0.0261501
0.032487
0.0376957
0.0416463
0.0441821
0.0451841
0.0446515
0.0427049
0.0394731
0.0348487
0.0282637
0.0187024
0.00478645
-0.0145776
-0.0377651
-0.111687
-0.101525
-0.0903406
-0.0784423
-0.0661498
-0.0537651
-0.0415521
-0.0297259
-0.0184518
-0.00785052
0.00199409
0.0110225
0.019181
0.0264117
0.0326571
0.0378504
0.0418918
0.044659
0.0460422
0.0460161
0.0446707
0.0421227
0.0382603
0.0325081
0.0238511
0.0109539
-0.00708049
-0.0284623
-0.103867
-0.0944438
-0.0840851
-0.0730528
-0.0616222
-0.0500585
-0.0385991
-0.0274432
-0.0167489
-0.00663673
0.00280438
0.0115081
0.0194168
0.0264702
0.0326062
0.0377624
0.0418591
0.0448005
0.0464948
0.0469062
0.0460983
0.0441721
0.0410177
0.0360593
0.0282619
0.0163434
-0.000329775
-0.0197886
-0.0965839
-0.0878394
-0.0782385
-0.0680034
-0.0573718
-0.0465766
-0.0358308
-0.0253178
-0.0151878
-0.00555944
0.00347584
0.0118468
0.0194924
0.0263521
0.0323624
0.0374626
0.0415848
0.0446539
0.0465947
0.0473682
0.0470164
0.0456226
0.0430831
0.0388348
0.031837
0.0209053
0.00569125
-0.01173
-0.0897897
-0.0816716
-0.0727684
-0.0632695
-0.0533801
-0.0433049
-0.0332346
-0.0233376
-0.0137555
-0.00460363
0.00402581
0.0120585
0.0194312
0.026083
0.031952
0.0369782
0.0411012
0.0442601
0.0463922
0.0474584
0.0474818
0.046525
0.0444897
0.0408433
0.0345892
0.024695
0.0110562
-0.00428144
-0.0834418
-0.0759038
-0.0676451
-0.0588277
-0.049629
-0.0402288
-0.0307981
-0.0214906
-0.0124391
-0.00375477
0.00447098
0.0121625
0.0192548
0.0256874
0.0314004
0.0363356
0.0404378
0.0436543
0.0459317
0.0472311
0.0475597
0.0469563
0.0453246
0.042181
0.0366316
0.0278276
0.0158263
0.00250776
-0.0775019
-0.0705028
-0.0628413
-0.054656
-0.0461011
-0.0373345
-0.028509
-0.0197649
-0.0112262
-0.002999
0.00482717
0.0121765
0.0189835
0.0251879
0.0307324
0.0355608
0.0396217
0.0428676
0.0452512
0.0467343
0.0473105
0.0469957
0.045693
0.0429814
0.0381078
0.030403
0.0200048
0.00854084
-0.0719357
-0.0654386
-0.0583316
-0.0507341
-0.0427799
-0.0346082
-0.0263554
-0.0181494
-0.010105
-0.00232324
0.00510923
0.0121175
0.0186362
0.0246058
0.0299711
0.0346784
0.038679
0.041929
0.0443851
0.0460097
0.0467863
0.0467108
0.0456867
0.0433601
0.0391256
0.0324683
0.0235519
0.0137254
-0.0667123
-0.0606837
-0.0540928
-0.0470427
-0.0396499
-0.032037
-0.024326
-0.016633
-0.00906437
-0.00171522
0.00533091
0.0120009
0.0182303
0.0239605
0.0291379
0.0337115
0.0376348
0.0408663
0.0433655
0.0450952
0.0460318
0.0461562
0.045374
0.0433951
0.0397468
0.0340397
0.0264363
0.0180247
-0.061804
-0.0562136
-0.0501038
-0.0435642
-0.0366964
-0.0296087
-0.02241
-0.0152056
-0.00809369
-0.00116362
0.00550488
0.011841
0.0177816
0.0232697
0.0282527
0.0326819
0.0365132
0.0397065
0.042223
0.0440264
0.0450879
0.045378
0.0448066
0.0431394
0.0400135
0.0351406
0.028673
0.0214744
-0.0571858
-0.0520057
-0.0463451
-0.0402821
-0.0339057
-0.0273115
-0.0205969
-0.0138574
-0.00718331
-0.000658055
0.00564263
0.0116506
0.0173047
0.0225492
0.0273332
0.0316098
0.0353366
0.0384746
0.0409865
0.0428365
0.0439926
0.0444183
0.0440296
0.0426389
0.0399713
0.0358194
0.0303241
0.0241671
-0.0528354
-0.0480396
-0.0427989
-0.0371813
-0.031265
-0.0251347
-0.0188774
-0.0125797
-0.00632433
-0.000189093
0.00575451
0.0114414
0.0168123
0.0218135
0.0263955
0.0305133
0.0341255
0.0371941
0.0396831
0.041557
0.0427818
0.0433173
0.0430866
0.0419406
0.0396735
0.0361424
0.0314771
0.0262162
-0.0487325
-0.044297
-0.0394489
-0.0342478
-0.0287626
-0.0230682
-0.0172427
-0.0113642
-0.00550867
0.000251703
0.00584969
0.0112234
0.0163159
0.0210755
0.0254544
0.0294085
0.032898
0.0358861
0.0383371
0.0402163
0.0414887
0.0421125
0.0420191
0.0410902
0.0391748
0.0361799
0.0322233
0.0277331
-0.0448587
-0.0407611
-0.0362803
-0.0314688
-0.0263875
-0.0211027
-0.0156845
-0.0102034
-0.00472908
0.000671816
0.00593627
0.0110056
0.0158256
0.0203464
0.0245221
0.0283098
0.031671
0.0345694
0.0369705
0.0388401
0.0401429
0.0408379
0.0408644
0.0401299
0.0385252
0.0359947
0.0326455
0.0288196
-0.0411975
-0.0374167
-0.0332797
-0.0288328
-0.0241298
-0.0192298
-0.0141955
-0.00909082
-0.00397916
0.00107779
0.00602121
0.0107958
0.01535
0.019636
0.0236095
0.0272298
0.0304586
0.0332606
0.0356024
0.0374506
0.0387705
0.0395229
0.0396551
0.0390952
0.0377664
0.0356398
0.0328133
0.02956
-0.0377341
-0.0342501
-0.0304348
-0.026329
-0.0219805
-0.0174418
-0.0127692
-0.00802035
-0.00325327
0.00147525
0.00611048
0.0106005
0.0148964
0.0189524
0.0227263
0.0261789
0.0292729
0.0319737
0.0342492
0.036067
0.0373935
0.0381921
0.0384178
0.0380153
0.0369322
0.0351583
0.0327823
0.0300245
-0.0344547
-0.031249
-0.0277346
-0.0239479
-0.0199313
-0.0157317
-0.0113994
-0.0069868
-0.00254658
0.00186896
0.00620904
0.010425
0.0144706
0.0183026
0.0218805
0.0251662
0.028124
0.0307207
0.0329248
0.0347052
0.0360301
0.0368659
0.0371744
0.0369138
0.0360497
0.0345842
0.0325977
0.0302694
-0.0313473
-0.028402
-0.025169
-0.0216807
-0.0179748
-0.0140932
-0.010081
-0.00598559
-0.00185496
0.00226289
0.00632092
0.0102737
0.0140778
0.0176921
0.0210779
0.0241989
0.0270208
0.0295115
0.0316407
0.0333785
0.0346952
0.0355605
0.0359423
0.0358092
0.0351399
0.0339449
0.0322956
0.0303396
-0.0284007
-0.0256989
-0.0227289
-0.0195196
-0.0161043
-0.0125207
-0.00880933
-0.00501284
-0.00117499
0.00266022
0.00644932
0.01015
0.0137215
0.017125
0.0203238
0.0232832
0.0259702
0.0283542
0.030406
0.0320973
0.0334006
0.0342887
0.0347349
0.0347159
0.0342195
0.0332613
0.0319048
0.0302718
-0.0256048
-0.0231306
-0.0204062
-0.0174574
-0.0143139
-0.0110094
-0.00758034
-0.00406523
-0.000503879
0.00306343
0.00659661
0.0100563
0.0134045
0.0166047
0.019622
0.0224233
0.0249773
0.0272548
0.0292279
0.0308699
0.0321555
0.0330604
0.0335626
0.0336448
0.0333014
0.0325506
0.0314483
0.0300954
-0.0229505
-0.0206886
-0.0181935
-0.0154878
-0.0125982
-0.0095549
-0.00639057
-0.00314003
0.000160564
0.00347437
0.00676448
0.00999448
0.0131288
0.0161332
0.0189748
0.0216223
0.024046
0.0262179
0.0281117
0.0297023
0.0309666
0.0318829
0.0324331
0.0326045
0.0323958
0.0318262
0.0309444
0.0298345
-0.0204293
-0.0183655
-0.0160839
-0.013605
-0.0109525
-0.00815342
-0.00523709
-0.00223502
0.000819994
0.00389429
0.00695398
0.00996536
0.0128954
0.0157119
0.018384
0.0208824
0.0231788
0.0252467
0.0270611
0.0285989
0.0298387
0.0307615
0.0313521
0.0316013
0.0315106
0.0310989
0.0304082
0.0295073
-0.0180336
-0.0161543
-0.0140717
-0.0118041
-0.00937268
-0.00680166
-0.00411745
-0.00134844
0.00147558
0.00432395
0.00716556
0.0099693
0.0127045
0.0153412
0.0178503
0.0202044
0.0223771
0.0243431
0.0260786
0.0275624
0.0287751
0.0296998
0.0303235
0.0306399
0.030652
0.0303773
0.0298525
0.0291354
-0.0157566
-0.0140487
-0.0121512
-0.0100803
-0.00785496
-0.0054968
-0.00302961
-0.000478978
0.00212808
0.00476363
0.00739916
0.0100061
0.0125559
0.0150208
0.0173737
0.0195887
0.0216413
0.0235074
0.0251649
0.0265942
0.0277775
0.0286997
0.02935
0.0297235
0.0298242
0.0296683
0.0292876
0.0287308
-0.0135918
-0.0120433
-0.0103177
-0.00842967
-0.00639614
-0.00423643
-0.00197191
0.000374329
0.00277784
0.00521319
0.00765432
0.0100749
0.0124487
0.01475
0.0169534
0.0190349
0.0209709
0.0227394
0.0243203
0.0256948
0.0268466
0.0277623
0.0284327
0.0288541
0.0290307
0.0289773
0.0287213
0.0283034
-0.0115335
-0.0101326
-0.00856667
-0.00684853
-0.00499339
-0.0030185
-0.000943068
0.00121211
0.0034249
0.00567218
0.00793019
0.0101748
0.0123817
0.0145272
0.0165879
0.018541
0.0203647
0.0220386
0.0235442
0.0248637
0.0259821
0.0268877
0.0275722
0.0280329
0.0282738
0.0283082
0.0281595
0.0278619
-0.00957626
-0.00831218
-0.00689414
-0.00533365
-0.0036442
-0.00184127
5.79399e-05
0.00203469
0.004069
0.00613986
0.00822561
0.0103041
0.0123532
0.0143508
0.0162752
0.0181053
0.0198212
0.0214034
0.0228351
0.0240995
0.0251831
0.0260751
0.0267683
0.0272604
0.0275552
0.0276641
0.0276071
0.0274137
-0.00771518
-0.0065776
-0.0052965
-0.0038821
-0.00234643
-0.000703297
0.00103186
0.0028422
0.00470966
0.00661523
0.00853918
0.0104613
0.0123612
0.0142186
0.0160133
0.0177259
0.019338
0.0208312
0.0221912
0.0234007
0.0244479
0.0253232
0.0260201
0.0265365
0.0268757
0.0270474
0.0270685
0.0269633
-0.00594574
-0.00492497
-0.00377046
-0.00249128
-0.00109814
0.000396633
0.00197924
0.00363453
0.00534622
0.00709711
0.00886926
0.0106443
0.0124034
0.0141281
0.0157998
0.0174003
0.0189128
0.0203221
0.0216099
0.0227648
0.0237746
0.0246305
0.0253265
0.0258606
0.0262355
0.0264596
0.0265472
0.0265179
-0.00426371
-0.00335065
-0.00231302
-0.00115887
0.000102307
0.00145952
0.00290042
0.00441142
0.00597785
0.00758417
0.0092141
0.0108509
0.0124775
0.0140767
0.0156317
0.0171257
0.0185426
0.0198682
0.0210877
0.022189
0.0231606
0.0239947
0.0246858
0.0252317
0.0256348
0.0259019
0.026045
0.0260804
-0.00266523
-0.00185133
-0.000921466
0.000117252
0.0012564
0.00248619
0.00379562
0.00517249
0.00660362
0.00807497
0.00957182
0.0110789
0.0125808
0.0140616
0.015506
0.0168986
0.0182245
0.0194698
0.0206223
0.0216701
0.0226032
0.0234135
0.024096
0.0246487
0.025073
0.0253749
0.0255638
0.025654
-0.00114665
-0.000423906
0.000406725
0.00133899
0.00236542
0.00347734
0.00466491
0.00591724
0.00722249
0.00856801
0.00994048
0.0113261
0.0127107
0.01408
0.0154197
0.0167159
0.017955
0.0191239
0.0202109
0.0212054
0.0220995
0.0228844
0.0235552
0.0241098
0.0245495
0.0248788
0.0251055
0.0252413
0.000295394
0.000934462
0.00167386
0.00250807
0.00343053
0.00443352
0.0055083
0.00664513
0.0078334
0.00906173
0.0103181
0.01159
0.0128646
0.0141289
0.0153698
0.0165745
0.0177307
0.0188263
0.0198505
0.0207937
0.021647
0.0224046
0.0230608
0.0236135
0.0240632
0.0244135
0.0246706
0.0248443
0.00166405
0.00222643
0.00288205
0.0036261
0.00445275
0.00535522
0.00632571
0.00735555
0.00843524
0.00955456
0.0107027
0.0118683
0.0130398
0.0142053
0.015353
0.0164711
0.0175483
0.0185737
0.0195371
0.0204298
0.0212436
0.0219719
0.0226109
0.0231581
0.0236132
0.0239787
0.0242599
0.0244643
0.00296227
0.00345449
0.00403331
0.00469452
0.00543303
0.00624282