/*--------------------------------*- C++ -*----------------------------------*\
  =========                 |
  \\      /  F ield         | OpenFOAM: The Open Source CFD Toolbox
   \\    /   O peration     | Website:  https://openfoam.org
    \\  /    A nd           | Version:  7
     \\/     M anipulation  |
\*---------------------------------------------------------------------------*/
FoamFile
{
    version     2.0;
    format      ascii;
    class       volVectorField;
    location    "140";
    object      U;
}
// * * * * * * * * * * * * * * * * * * * * * * * * * * * * * * * * * * * * * //

dimensions      [0 1 -1 0 0 0 0];

internalField   nonuniform List<vector> 
7156
(
(0.250155 0.0192547 4.08438e-22)
(0.327624 -0.15678 -5.68745e-23)
(0.402716 -0.329022 -4.25849e-22)
(0.473826 -0.475468 -1.20642e-23)
(0.53574 -0.580242 3.67652e-22)
(0.583778 -0.640853 2.72582e-22)
(0.616403 -0.665763 -2.05091e-22)
(0.634495 -0.666957 -1.51542e-22)
(0.6403 -0.65515 -8.5349e-23)
(0.635218 -0.639658 -1.01433e-23)
(0.617779 -0.629314 9.73765e-23)
(0.587117 -0.626117 -4.2942e-23)
(0.550246 -0.614632 -1.62095e-22)
(0.524021 -0.563563 1.4972e-22)
(0.524879 -0.447617 1.07916e-22)
(0.555946 -0.269903 1.20161e-22)
(0.608825 -0.06015 7.70778e-23)
(0.671963 0.143967 -3.1499e-22)
(0.734369 0.312806 1.75142e-23)
(0.78761 0.432188 1.33035e-22)
(0.827351 0.503102 2.23511e-22)
(0.852674 0.536581 -2.16745e-22)
(0.864872 0.54643 6.04691e-23)
(0.867298 0.542939 -3.75215e-23)
(0.863162 0.533669 1.09616e-22)
(0.852208 0.528105 4.7115e-24)
(0.831606 0.533697 -1.31811e-23)
(0.800954 0.543516 6.99004e-23)
(0.766104 0.53204 2.1557e-23)
(0.737223 0.469422 8.57796e-23)
(0.27352 0.00765226 -2.01302e-22)
(0.350094 -0.16766 -1.94692e-21)
(0.423946 -0.339321 1.83388e-21)
(0.493339 -0.484753 -9.80942e-22)
(0.552958 -0.587822 -2.20249e-22)
(0.598325 -0.64633 -4.47787e-22)
(0.628244 -0.669134 1.30929e-21)
(0.643861 -0.668487 -7.78801e-22)
(0.647536 -0.655129 -4.08094e-23)
(0.640835 -0.638123 -1.6593e-22)
(0.622355 -0.626137 4.09334e-22)
(0.5908 -0.621715 3.82108e-22)
(0.552369 -0.610547 -7.25941e-22)
(0.523419 -0.561905 -8.1993e-22)
(0.520965 -0.449587 1.1002e-21)
(0.549202 -0.27511 -5.14758e-22)
(0.600252 -0.0672905 -2.64431e-22)
(0.662614 0.136316 4.56993e-22)
(0.7252 0.30583 9.68834e-22)
(0.779383 0.426634 -8.14555e-22)
(0.820515 0.499249 4.21153e-22)
(0.847334 0.534361 1.83778e-23)
(0.860959 0.545533 -1.97244e-22)
(0.864699 0.542962 1.27027e-22)
(0.861693 0.53442 -2.11356e-22)
(0.851622 0.529711 1.41829e-22)
(0.831712 0.536291 -2.6775e-23)
(0.801728 0.546804 -3.21983e-22)
(0.767692 0.535235 3.77332e-23)
(0.739744 0.471651 2.48721e-22)
(0.297214 -0.00347158 2.3245e-21)
(0.372816 -0.177998 2.4707e-21)
(0.4454 -0.349065 -2.24794e-21)
(0.513047 -0.493491 -1.26027e-21)
(0.570325 -0.59489 2.9433e-22)
(0.612973 -0.651357 1.62366e-21)
(0.640157 -0.672134 -6.19687e-22)
(0.653293 -0.669726 1.10899e-21)
(0.654845 -0.654895 -1.23804e-21)
(0.646528 -0.636449 1.5046e-21)
(0.627025 -0.622861 -1.40243e-21)
(0.594646 -0.617182 6.50434e-22)
(0.554771 -0.606253 9.94309e-22)
(0.523194 -0.560008 -1.01125e-21)
(0.517435 -0.451412 -3.23666e-22)
(0.542786 -0.280336 7.48114e-22)
(0.591936 -0.0745932 -1.49988e-21)
(0.653451 0.128417 -8.28947e-22)
(0.716158 0.298573 2.3814e-22)
(0.771237 0.420807 6.86177e-22)
(0.813724 0.495156 -7.12218e-22)
(0.842022 0.531946 2.7038e-22)
(0.857074 0.54448 -3.55499e-22)
(0.862138 0.542861 1.90751e-22)
(0.860274 0.535072 1.61326e-22)
(0.851102 0.531232 -1.64499e-22)
(0.831906 0.538801 -2.32127e-22)
(0.802619 0.550016 -2.61262e-22)
(0.769422 0.538388 1.18184e-22)
(0.742416 0.473908 -4.92772e-22)
(0.321154 -0.0141027 2.81407e-22)
(0.395727 -0.187789 2.82931e-21)
(0.467035 -0.358253 -6.20447e-22)
(0.532918 -0.501683 3.29094e-21)
(0.587817 -0.601447 -1.68758e-21)
(0.627708 -0.655936 7.8373e-22)
(0.652133 -0.674769 -1.92931e-22)
(0.662787 -0.670681 -1.20012e-21)
(0.662226 -0.654453 8.23199e-22)
(0.652297 -0.634643 -5.95372e-22)
(0.631788 -0.619498 3.14923e-22)
(0.598652 -0.612534 -1.2021e-21)
(0.55745 -0.60176 -4.62643e-22)
(0.523353 -0.55787 7.1229e-22)
(0.514306 -0.453076 1.89083e-21)
(0.536713 -0.285563 -6.05957e-22)
(0.583888 -0.0820434 -4.85952e-22)
(0.644486 0.120281 9.98956e-22)
(0.70725 0.291042 -2.92991e-22)
(0.763173 0.414708 2.09105e-23)
(0.80698 0.490823 1.07177e-21)
(0.836738 0.529334 -5.28366e-22)
(0.853217 0.543267 1.58219e-22)
(0.859613 0.542632 -4.78023e-22)
(0.858902 0.535622 2.74438e-22)
(0.850646 0.532662 6.93848e-22)
(0.832187 0.541224 -5.41459e-22)
(0.803624 0.553148 5.65641e-22)
(0.771288 0.541499 -2.72406e-22)
(0.745232 0.476195 -8.59778e-22)
(0.345255 -0.0242302 5.13815e-21)
(0.418765 -0.19703 4.96371e-21)
(0.488808 -0.366884 -1.0168e-20)
(0.552922 -0.509329 4.14105e-21)
(0.605413 -0.607492 -3.06988e-21)
(0.642514 -0.660069 1.88615e-21)
(0.664162 -0.677043 -8.7025e-22)
(0.672337 -0.671358 -8.21988e-22)
(0.669677 -0.653811 2.05195e-21)
(0.658142 -0.632712 -2.05477e-22)
(0.636643 -0.616058 8.62316e-22)
(0.602814 -0.607787 9.74142e-22)
(0.560404 -0.59708 -1.19461e-21)
(0.523899 -0.55549 2.2579e-22)
(0.511588 -0.454564 -2.25644e-22)
(0.530998 -0.290772 -7.72842e-22)
(0.576122 -0.0896258 1.50535e-21)
(0.635728 0.111918 2.34432e-22)
(0.698484 0.283241 -3.90682e-22)
(0.755198 0.408338 -8.82174e-22)
(0.800285 0.486249 -4.32322e-22)
(0.831483 0.526522 -3.0807e-22)
(0.849387 0.541891 -1.19634e-21)
(0.857122 0.542271 -1.3233e-22)
(0.857574 0.536065 4.81349e-22)
(0.850251 0.533998 -1.19528e-22)
(0.832552 0.543552 -6.69731e-22)
(0.80474 0.556195 2.80846e-22)
(0.773287 0.544565 -1.31174e-21)
(0.748188 0.478511 -2.09055e-22)
(0.369437 -0.0338472 5.70812e-21)
(0.441872 -0.205722 -2.64117e-21)
(0.510677 -0.374962 -3.37582e-21)
(0.573029 -0.516429 -1.97684e-21)
(0.623089 -0.613027 -3.14141e-21)
(0.657376 -0.663759 3.41032e-22)
(0.676235 -0.678961 4.24218e-21)
(0.681937 -0.671764 -6.28289e-22)
(0.677197 -0.652974 -7.80828e-22)
(0.664064 -0.630664 -4.33117e-22)
(0.641589 -0.612555 7.75682e-22)
(0.607127 -0.602954 -3.14883e-21)
(0.563626 -0.592225 5.96476e-22)
(0.524834 -0.552866 1.40238e-21)
(0.509293 -0.455862 -1.51068e-21)
(0.525655 -0.295944 2.4697e-21)
(0.568651 -0.0973241 1.52344e-21)
(0.627188 0.103339 -2.41277e-22)
(0.689866 0.275177 -9.16532e-22)
(0.747314 0.401701 -1.24037e-21)
(0.79364 0.481434 1.0653e-21)
(0.826257 0.523507 -2.06058e-22)
(0.845582 0.540349 2.46107e-21)
(0.854662 0.541776 1.00468e-21)
(0.856289 0.536398 -1.28469e-21)
(0.849914 0.535234 1.90583e-21)
(0.832998 0.545782 -1.12067e-21)
(0.805963 0.559154 2.67555e-22)
(0.775413 0.547586 2.44828e-21)
(0.751279 0.48086 6.78619e-22)
(0.393623 -0.0429505 3.48537e-21)
(0.464992 -0.213869 6.32188e-21)
(0.532604 -0.38249 -1.05461e-21)
(0.59321 -0.522988 -3.52864e-24)
(0.640825 -0.618055 2.80916e-21)
(0.67228 -0.66701 -1.76265e-21)
(0.688343 -0.680529 -2.62058e-21)
(0.691583 -0.671905 1.59443e-22)
(0.684783 -0.651949 -8.92554e-22)
(0.670063 -0.628505 -1.01496e-21)
(0.646623 -0.608996 2.04514e-21)
(0.611586 -0.598053 -2.73327e-23)
(0.567111 -0.58721 1.90434e-22)
(0.526159 -0.550002 4.66384e-22)
(0.507432 -0.456956 -4.5224e-22)
(0.520697 -0.301059 -5.97433e-21)
(0.561486 -0.105121 2.68477e-21)
(0.618875 0.094555 -2.29501e-21)
(0.681403 0.266856 3.72006e-21)
(0.739527 0.394799 -1.16142e-21)
(0.787047 0.476377 5.70658e-22)
(0.821058 0.520287 -3.54097e-22)
(0.841801 0.538637 -1.05935e-21)
(0.852232 0.541142 -1.69433e-21)
(0.855044 0.536617 -6.67535e-22)
(0.849633 0.536367 2.19978e-21)
(0.833521 0.547908 -4.66685e-22)
(0.80729 0.562021 -1.2679e-21)
(0.777663 0.550559 -3.01137e-22)
(0.7545 0.483242 -2.72137e-22)
(0.417738 -0.0515404 -3.89959e-21)
(0.488073 -0.221479 3.97681e-21)
(0.554552 -0.389477 2.30414e-21)
(0.613437 -0.529008 -1.22237e-20)
(0.6586 -0.622579 7.48136e-21)
(0.687209 -0.669828 -3.09376e-21)
(0.700476 -0.681753 -1.30555e-21)
(0.701267 -0.671789 8.50612e-22)
(0.692433 -0.650743 1.53755e-21)
(0.676139 -0.62624 1.97978e-21)
(0.651745 -0.605393 -5.47718e-22)
(0.616185 -0.593098 -9.46338e-22)
(0.570852 -0.582049 -1.81636e-21)
(0.527873 -0.546898 -1.96059e-21)
(0.506013 -0.457833 2.30825e-21)
(0.516138 -0.306097 3.34384e-21)
(0.55464 -0.113 1.12011e-21)
(0.610799 0.0855786 -4.21677e-21)
(0.673104 0.258284 3.87381e-22)
(0.73184 0.387634 1.42402e-21)
(0.780507 0.471078 -8.33208e-22)
(0.815887 0.516859 -3.69644e-22)
(0.838042 0.536752 1.19662e-21)
(0.849828 0.540368 1.67947e-21)
(0.853835 0.536718 -9.70274e-22)
(0.849404 0.53739 7.73595e-23)
(0.83412 0.549926 -2.03492e-22)
(0.808716 0.564792 2.1249e-21)
(0.78003 0.553484 -4.745e-22)
(0.757843 0.485658 -1.69537e-21)
(0.441715 -0.0596205 -5.6115e-21)
(0.511068 -0.228562 -9.26915e-21)
(0.576487 -0.395931 3.34464e-21)
(0.633684 -0.534497 -2.10549e-21)
(0.676391 -0.626604 1.68794e-21)
(0.702149 -0.672216 7.97202e-21)
(0.712624 -0.682639 -3.78459e-21)
(0.710986 -0.671423 1.60706e-21)
(0.700144 -0.649361 -1.60765e-21)
(0.682292 -0.623877 1.78621e-22)
(0.656953 -0.601755 1.57251e-21)
(0.620918 -0.588104 -1.90678e-21)
(0.574839 -0.576757 1.00764e-21)
(0.529972 -0.54356 2.24164e-21)
(0.505043 -0.458482 3.36521e-22)
(0.511988 -0.311038 -1.64258e-21)
(0.548124 -0.120942 -1.61826e-21)
(0.602969 0.0764229 -7.49427e-22)
(0.664973 0.249471 2.35351e-21)
(0.724257 0.38021 -1.7861e-21)
(0.774023 0.465536 -1.1579e-21)
(0.810745 0.513221 -6.96852e-22)
(0.834303 0.534692 -8.23725e-22)
(0.847448 0.539449 -3.10203e-22)
(0.852659 0.536698 1.03407e-21)
(0.849225 0.538301 -1.85654e-21)
(0.834789 0.55183 1.19213e-21)
(0.810237 0.567462 -8.42441e-22)
(0.782509 0.556359 5.11297e-22)
(0.761304 0.488107 4.1328e-21)
(0.46549 -0.0671981 -6.8233e-21)
(0.533932 -0.23513 -1.46185e-21)
(0.598378 -0.401863 2.81824e-21)
(0.653924 -0.53946 -1.27105e-20)
(0.69418 -0.630134 1.53756e-21)
(0.717086 -0.674181 -6.31084e-21)
(0.72478 -0.683194 5.71827e-21)
(0.720731 -0.670814 -2.87018e-22)
(0.707912 -0.647811 -7.51212e-21)
(0.688521 -0.62142 7.74958e-21)
(0.662245 -0.598091 -8.09562e-21)
(0.62578 -0.583087 1.72909e-21)
(0.579065 -0.571351 -1.99797e-21)
(0.532452 -0.539992 5.20097e-21)
(0.50453 -0.458889 -3.95606e-21)
(0.508261 -0.315861 -4.5944e-22)
(0.54195 -0.128927 1.42974e-21)
(0.595395 0.0671014 7.45933e-23)
(0.65702 0.240424 1.42988e-21)
(0.716782 0.37253 2.82604e-21)
(0.767595 0.459753 -1.06142e-21)
(0.80563 0.509372 3.21915e-22)
(0.830584 0.532453 -7.71955e-22)
(0.84509 0.538383 1.1398e-21)
(0.851515 0.536554 -8.16882e-22)
(0.849091 0.539094 1.95118e-21)
(0.835525 0.553615 -1.9297e-21)
(0.811848 0.570028 -5.71903e-22)
(0.785094 0.559181 -9.56358e-22)
(0.764875 0.490592 -8.3989e-22)
(0.489006 -0.0742836 6.94917e-21)
(0.556628 -0.241199 -1.50852e-20)
(0.620195 -0.407284 -1.1473e-21)
(0.674135 -0.543905 1.03152e-20)
(0.711945 -0.633176 3.18772e-21)
(0.732006 -0.675728 3.65974e-21)
(0.736934 -0.683424 -2.50339e-21)
(0.730499 -0.669969 2.03157e-21)
(0.715735 -0.6461 2.80708e-21)
(0.694825 -0.618876 -5.15454e-21)
(0.66762 -0.594409 -2.24154e-21)
(0.630762 -0.578061 1.14166e-21)
(0.583518 -0.565847 3.23858e-21)
(0.535305 -0.536203 -8.63075e-22)
(0.504476 -0.459047 -2.24445e-21)
(0.504967 -0.320546 1.87978e-21)
(0.536128 -0.136935 -3.03567e-21)
(0.588086 0.0576286 -1.03113e-21)
(0.649249 0.231152 -2.41104e-21)
(0.70942 0.3646 -1.04978e-21)
(0.761226 0.453728 -3.12544e-22)
(0.800542 0.505309 7.41857e-21)
(0.826881 0.530033 8.46235e-22)
(0.84275 0.537167 -4.77974e-21)
(0.850397 0.536281 1.50055e-21)
(0.849 0.539766 -1.43837e-21)
(0.836323 0.555278 3.3439e-22)
(0.813544 0.572487 1.13239e-21)
(0.787778 0.561949 2.44506e-21)
(0.76855 0.493111 -1.30909e-21)
(0.512213 -0.0808904 -1.14993e-20)
(0.579122 -0.246786 2.7503e-20)
(0.641914 -0.412209 -2.33552e-20)
(0.694293 -0.547841 -2.52629e-21)
(0.729668 -0.635736 -6.92321e-22)
(0.746893 -0.676865 5.88665e-21)
(0.749076 -0.683336 3.97472e-21)
(0.740283 -0.668896 -4.85588e-21)
(0.723608 -0.644234 2.65334e-21)
(0.701203 -0.61625 4.89226e-21)
(0.673074 -0.590716 -2.86969e-21)
(0.63586 -0.57304 3.62365e-21)
(0.588187 -0.560262 -2.76138e-21)
(0.538523 -0.532201 -9.04523e-22)
(0.504885 -0.458945 -4.61254e-21)
(0.502116 -0.325071 2.49839e-21)
(0.530668 -0.144948 3.9869e-21)
(0.581051 0.0480197 -6.43098e-22)
(0.641667 0.221664 7.03644e-21)
(0.702174 0.356424 4.37402e-22)
(0.754917 0.447464 -2.4876e-21)
(0.795482 0.50103 -4.62608e-21)
(0.823194 0.527429 3.1555e-21)
(0.840426 0.535797 -5.11306e-22)
(0.849303 0.535877 2.51899e-22)
(0.848946 0.540312 1.93622e-22)
(0.83718 0.556813 1.07481e-21)
(0.81532 0.574834 -1.28779e-21)
(0.790557 0.56466 -1.57464e-21)
(0.772323 0.495664 -1.31433e-21)
(0.535064 -0.0870345 1.30241e-20)
(0.601384 -0.251911 -1.37675e-20)
(0.66351 -0.416651 1.13286e-20)
(0.714375 -0.551276 -1.48379e-21)
(0.74733 -0.637821 2.17828e-21)
(0.761735 -0.677598 -7.72753e-21)
(0.761198 -0.682938 3.12351e-21)
(0.750078 -0.667602 1.38744e-21)
(0.731529 -0.64222 -3.03627e-21)
(0.707654 -0.613546 2.15931e-21)
(0.678608 -0.58702 -4.47525e-21)
(0.641065 -0.568037 2.12013e-21)
(0.593062 -0.554614 -2.0633e-22)
(0.542096 -0.527995 -1.03017e-21)
(0.505756 -0.458577 3.10118e-21)
(0.499717 -0.329417 -3.64764e-21)
(0.525582 -0.152942 4.72526e-21)
(0.574298 0.0382903 -9.8962e-21)
(0.634282 0.21197 7.49181e-21)
(0.695047 0.348006 -6.04691e-21)
(0.748669 0.44096 4.99504e-21)
(0.790449 0.496536 -2.1612e-21)
(0.819521 0.524638 -2.72418e-21)
(0.838115 0.534271 1.88032e-21)
(0.848229 0.535338 1.93468e-21)
(0.848928 0.540728 -2.64633e-21)
(0.838091 0.558217 4.08358e-22)
(0.81717 0.577066 1.44837e-21)
(0.793423 0.567313 -2.50432e-21)
(0.776185 0.49825 8.63278e-22)
(0.557525 -0.0927347 4.505e-21)
(0.623391 -0.256595 -1.81787e-21)
(0.684964 -0.420627 1.56793e-22)
(0.734362 -0.55422 -1.55367e-20)
(0.764912 -0.639439 1.4477e-20)
(0.776516 -0.677936 -1.19837e-20)
(0.773292 -0.682237 3.65647e-21)
(0.759877 -0.666095 2.29984e-21)
(0.739492 -0.640064 -1.2287e-21)
(0.714176 -0.61077 -1.07971e-22)
(0.684218 -0.583327 4.52376e-22)
(0.646371 -0.563066 -2.64884e-21)
(0.598129 -0.54892 2.12418e-21)
(0.546012 -0.523598 -4.05186e-21)
(0.50709 -0.457938 6.07903e-21)
(0.497778 -0.333564 4.40243e-21)
(0.520878 -0.160897 3.34283e-21)
(0.567836 0.0284572 -7.85644e-21)
(0.627099 0.202082 5.48361e-22)
(0.688045 0.339352 2.22151e-21)
(0.742484 0.434218 4.03116e-22)
(0.785442 0.491823 3.61753e-21)
(0.815859 0.521658 -1.40256e-21)
(0.835814 0.532587 -4.66437e-22)
(0.847173 0.534662 6.09728e-22)
(0.848939 0.541011 1.29742e-22)
(0.839052 0.559484 1.91965e-21)
(0.819089 0.579178 -1.35489e-21)
(0.796369 0.569904 1.45262e-21)
(0.78013 0.500869 4.3514e-21)
(0.579563 -0.0980119 -8.69966e-21)
(0.645125 -0.260859 3.42101e-21)
(0.706258 -0.42415 -1.2502e-21)
(0.754234 -0.556683 2.36087e-20)
(0.782397 -0.640596 -3.31353e-21)
(0.791225 -0.677885 -1.449e-21)
(0.785348 -0.68124 -9.25144e-21)
(0.769677 -0.664381 2.73396e-21)
(0.747493 -0.637773 2.6519e-21)
(0.720768 -0.607926 -8.0847e-22)
(0.689903 -0.579641 -7.25237e-22)
(0.651772 -0.558138 -7.38786e-22)
(0.603376 -0.543199 5.29476e-21)
(0.550258 -0.519023 -5.46974e-22)
(0.508882 -0.457022 1.97821e-21)
(0.496308 -0.337492 -1.16826e-21)
(0.516567 -0.16879 -2.29852e-21)
(0.561673 0.0185359 4.58464e-21)
(0.620125 0.192009 -1.94627e-21)
(0.68117 0.330469 -7.49753e-21)
(0.736365 0.427241 5.23855e-21)
(0.780463 0.486891 -1.1393e-21)
(0.812207 0.518487 4.56998e-22)
(0.83352 0.53074 -7.79318e-22)
(0.846129 0.533844 2.62705e-21)
(0.848976 0.541157 -2.73019e-21)
(0.840057 0.560611 -6.96628e-23)
(0.821071 0.581168 -1.00123e-22)
(0.799389 0.572432 -6.39166e-22)
(0.78415 0.503519 1.0118e-21)
(0.601156 -0.102889 5.55775e-21)
(0.666571 -0.264727 1.18394e-20)
(0.727376 -0.427238 -3.23219e-21)
(0.773972 -0.558675 -6.60822e-22)
(0.799767 -0.641303 -6.53957e-21)
(0.805848 -0.677454 -5.36496e-21)
(0.797358 -0.679957 5.65491e-21)
(0.77947 -0.662469 -4.08737e-22)
(0.755529 -0.635355 -2.43903e-21)
(0.727426 -0.605019 -2.13695e-21)
(0.69566 -0.575968 -1.93334e-22)
(0.65726 -0.553265 9.82236e-22)
(0.60879 -0.537469 -2.53001e-21)
(0.554819 -0.514285 -2.01972e-21)
(0.511126 -0.455829 -1.70027e-21)
(0.495312 -0.341184 -3.4633e-21)
(0.512657 -0.176599 -1.53313e-21)
(0.555817 0.00854851 3.15025e-21)
(0.613365 0.181764 -1.39654e-21)
(0.674427 0.321362 4.56439e-22)
(0.730312 0.42003 1.31306e-21)
(0.775509 0.48174 -2.99316e-21)
(0.808563 0.515122 -1.78536e-21)
(0.83123 0.52873 1.06589e-21)
(0.845095 0.532883 -2.22408e-21)
(0.849036 0.541162 -1.2786e-21)
(0.841101 0.561595 2.90044e-21)
(0.82311 0.583031 1.57213e-21)
(0.802475 0.574893 -2.17577e-21)
(0.788239 0.506199 8.16268e-22)
(0.622288 -0.107392 1.52915e-20)
(0.687723 -0.268223 -9.20951e-21)
(0.748306 -0.429906 4.28678e-22)
(0.793559 -0.560206 -1.40599e-20)
(0.817006 -0.641567 1.9196e-20)
(0.820372 -0.676652 -1.55403e-20)
(0.809315 -0.678394 5.50209e-21)
(0.789252 -0.660365 -9.11221e-22)
(0.763594 -0.632814 2.82063e-21)
(0.734149 -0.602053 -7.99716e-21)
(0.701489 -0.572312 4.78836e-21)
(0.66283 -0.548456 -2.02508e-21)
(0.614358 -0.531746 6.61436e-21)
(0.559679 -0.509398 2.14942e-21)
(0.513816 -0.454359 8.53106e-22)
(0.494796 -0.344621 -1.34997e-21)
(0.509158 -0.184301 -5.93696e-21)
(0.550276 -0.00145564 8.44553e-21)
(0.606826 0.17136 -2.6506e-21)
(0.66782 0.312039 1.19799e-21)
(0.724328 0.412588 -1.61582e-21)
(0.770582 0.476369 3.9977e-24)
(0.804925 0.511562 2.47401e-21)
(0.82894 0.526553 -2.03554e-21)
(0.844066 0.531774 1.84204e-21)
(0.849112 0.541023 -2.09579e-22)
(0.84218 0.56243 -8.0604e-22)
(0.825199 0.584764 2.73913e-21)
(0.805621 0.577285 -1.62044e-21)
(0.792387 0.508906 1.2565e-22)
(0.642952 -0.111545 1.51338e-20)
(0.708575 -0.271369 -1.2747e-20)
(0.769036 -0.432169 -2.33395e-21)
(0.812977 -0.561287 1.47484e-21)
(0.834097 -0.641398 2.91436e-22)
(0.834786 -0.675488 1.47989e-21)
(0.821209 -0.67656 1.61199e-21)
(0.799017 -0.658076 1.01547e-20)
(0.771685 -0.630159 -5.26717e-22)
(0.740933 -0.599033 -1.41327e-21)
(0.707388 -0.568677 3.62271e-22)
(0.668475 -0.543722 -2.67855e-21)
(0.620067 -0.526049 -1.27298e-21)
(0.564821 -0.50438 1.37774e-21)
(0.516942 -0.452614 -1.62036e-21)
(0.494762 -0.347787 -2.93882e-21)
(0.506081 -0.191873 4.46124e-21)
(0.545057 -0.0115011 -1.35143e-21)
(0.600509 0.160809 -3.04928e-21)
(0.661351 0.302507 4.60051e-21)
(0.718414 0.404917 -1.69218e-21)
(0.765681 0.470777 1.46539e-21)
(0.801292 0.507805 -1.81284e-21)
(0.826649 0.524207 8.74584e-22)
(0.843038 0.530517 1.22271e-21)
(0.849202 0.540737 -2.43064e-21)
(0.843288 0.563115 -3.45581e-22)
(0.827333 0.586363 2.80215e-21)
(0.808819 0.579604 1.38032e-21)
(0.796587 0.511639 -1.35413e-21)
(0.663146 -0.115378 -4.86521e-21)
(0.729129 -0.274191 1.3191e-20)
(0.789559 -0.434044 -1.45485e-20)
(0.832211 -0.561927 1.7849e-20)
(0.851025 -0.640804 2.75178e-20)
(0.849077 -0.673971 -1.56277e-20)
(0.833033 -0.674463 -1.04119e-21)
(0.808762 -0.655611 -2.20428e-21)
(0.779798 -0.627394 2.42957e-21)
(0.747776 -0.595962 2.86512e-21)
(0.713354 -0.565065 -1.10203e-21)
(0.674189 -0.53907 -1.19611e-21)
(0.625903 -0.520395 9.32375e-22)
(0.570229 -0.499249 -1.83785e-21)
(0.520492 -0.450597 -2.63335e-21)
(0.495213 -0.350668 2.06661e-21)
(0.503431 -0.199292 2.95269e-21)
(0.540169 -0.0216051 -5.15515e-22)
(0.594426 0.150125 -4.26318e-21)
(0.655025 0.292774 2.62042e-21)
(0.712571 0.397022 -9.59007e-22)
(0.760806 0.464965 -3.48441e-21)
(0.797661 0.50385 -4.53482e-22)
(0.824352 0.52169 -9.24403e-22)
(0.842009 0.529108 2.40103e-22)
(0.8493 0.540301 2.02326e-21)
(0.84442 0.563644 1.04049e-21)
(0.829504 0.587825 -7.48318e-21)
(0.812061 0.581848 6.79853e-21)
(0.800832 0.514395 -3.87654e-21)
(0.682878 -0.118917 1.29287e-20)
(0.749389 -0.276711 2.43857e-20)
(0.809866 -0.435545 -3.91268e-21)
(0.851246 -0.562138 -2.08647e-20)
(0.867774 -0.639797 3.54498e-20)
(0.863233 -0.67211 -1.99796e-20)
(0.84478 -0.672112 9.80556e-21)
(0.81848 -0.652974 -8.85724e-21)
(0.787926 -0.624527 -5.61243e-21)
(0.754673 -0.592845 -3.50323e-21)
(0.719387 -0.561479 1.37294e-21)
(0.679967 -0.534508 -1.30961e-21)
(0.631854 -0.5148 1.83131e-22)
(0.575883 -0.494023 4.09834e-21)
(0.524451 -0.448316 -1.01654e-21)
(0.496149 -0.353251 1.09541e-21)
(0.501212 -0.206535 -1.01968e-21)
(0.535617 -0.0316967 3.07327e-21)
(0.588582 0.139323 -1.00406e-22)
(0.648846 0.282849 -1.85132e-21)
(0.706803 0.388905 -2.42225e-21)
(0.755958 0.458933 2.02201e-21)
(0.794031 0.499694 1.37903e-22)
(0.822047 0.519 4.25247e-21)
(0.840973 0.527544 -2.75347e-21)
(0.849402 0.539713 2.04031e-22)
(0.84557 0.564016 2.92945e-21)
(0.831707 0.589147 -3.69527e-21)
(0.815342 0.584012 1.31498e-21)
(0.805114 0.517171 5.73649e-21)
(0.702159 -0.122192 2.18872e-20)
(0.769363 -0.278952 -4.4007e-20)
(0.829951 -0.436685 -2.68273e-20)
(0.870067 -0.56193 3.90804e-20)
(0.884329 -0.638384 1.4077e-20)
(0.877245 -0.669916 -1.2572e-20)
(0.856443 -0.669514 -7.58459e-22)
(0.828167 -0.650175 6.49269e-21)
(0.796067 -0.621563 -1.17814e-20)
(0.761623 -0.589685 1.10075e-20)
(0.725483 -0.55792 -2.93773e-21)
(0.685803 -0.530042 1.60409e-21)
(0.637906 -0.50928 -6.46197e-21)
(0.581765 -0.488723 3.74795e-21)
(0.528806 -0.445778 -3.5875e-21)
(0.497568 -0.355523 -6.60172e-22)
(0.499435 -0.213579 5.25798e-21)
(0.53141 -0.0417416 -1.19101e-21)
(0.582981 0.128418 4.92043e-21)
(0.642817 0.272741 -7.47713e-22)
(0.701111 0.38057 -2.3675e-21)
(0.751135 0.452681 3.49177e-22)
(0.790401 0.495337 7.80427e-22)
(0.81973 0.516135 -2.49959e-21)
(0.839927 0.525824 3.40326e-22)
(0.849503 0.538968 9.75025e-22)
(0.846733 0.564227 1.72442e-21)
(0.833936 0.590324 1.97643e-21)
(0.818652 0.586094 -1.0858e-21)
(0.809424 0.519964 1.65672e-21)
(0.72102 -0.125224 -4.42086e-20)
(0.789065 -0.280935 5.24938e-21)
(0.849811 -0.437477 2.37816e-20)
(0.888659 -0.561311 -2.32896e-20)
(0.900677 -0.636577 1.34054e-20)
(0.891101 -0.667397 1.27644e-20)
(0.868013 -0.666679 -1.60014e-20)
(0.837819 -0.647219 5.563e-22)
(0.804217 -0.618508 2.68622e-22)
(0.768619 -0.586487 6.10355e-21)
(0.731642 -0.554391 -5.42915e-21)
(0.691693 -0.525677 1.97094e-21)
(0.644047 -0.50385 6.69084e-21)
(0.587855 -0.483366 -2.24846e-21)
(0.533537 -0.442994 -1.00247e-20)
(0.499467 -0.357476 1.00138e-21)
(0.498105 -0.220401 9.17569e-21)
(0.527554 -0.0517287 4.91788e-22)
(0.577629 0.117426 -1.76829e-21)
(0.636943 0.262458 -3.48993e-21)
(0.695497 0.372022 3.60146e-21)
(0.746339 0.446211 -4.65735e-21)
(0.786768 0.490778 1.80138e-21)
(0.817399 0.513093 2.18072e-21)
(0.838866 0.523946 -3.12096e-21)
(0.849599 0.538067 2.8123e-21)
(0.847904 0.564274 1.2173e-21)
(0.836183 0.591354 -1.70541e-21)
(0.821986 0.588089 3.16032e-21)
(0.813756 0.52277 -6.80364e-21)
(0.808508 -0.28268 2.48574e-20)
(0.869439 -0.437933 -5.22781e-20)
(0.907008 -0.560292 3.63869e-20)
(0.916802 -0.634385 -2.37164e-20)
(0.904791 -0.664564 5.01296e-21)
(0.879485 -0.663615 -7.08695e-22)
(0.84743 -0.644112 7.69085e-21)
(0.81237 -0.615367 5.04737e-21)
(0.77566 -0.583254 -1.6092e-20)
(0.73786 -0.550891 1.5402e-21)
(0.697632 -0.521416 1.18127e-20)
(0.650266 -0.498523 -7.97042e-21)
(0.594136 -0.477975 2.31026e-21)
(0.538628 -0.439977 4.93055e-21)
(0.50184 -0.359102 -2.48131e-21)
(0.497228 -0.22698 -1.9457e-21)
(0.524057 -0.0616414 2.35866e-21)
(0.572531 0.106363 1.90518e-21)
(0.631227 0.252012 -7.70852e-21)
(0.689964 0.363267 7.16374e-21)
(0.74157 0.439524 -2.05247e-21)
(0.783131 0.486015 -2.47426e-21)
(0.815051 0.509873 1.08055e-21)
(0.837787 0.521907 2.84307e-21)
(0.849684 0.537005 -3.16756e-22)
(0.849077 0.564154 -6.95988e-21)
(0.838442 0.592233 -8.12065e-22)
(0.825335 0.589995 -1.65403e-21)
(0.818101 0.525587 -3.33753e-21)
(0.827708 -0.284206 3.93824e-20)
(0.888833 -0.438064 -3.98477e-20)
(0.925101 -0.558882 9.52087e-21)
(0.932693 -0.631819 -8.29801e-21)
(0.918306 -0.661427 2.37857e-20)
(0.890852 -0.66033 -8.34572e-21)
(0.856997 -0.640863 -1.19738e-21)
(0.820523 -0.612146 -3.62901e-21)
(0.78274 -0.57999 4.54393e-21)
(0.744137 -0.547421 -6.33052e-21)
(0.703617 -0.517264 2.02827e-21)
(0.656549 -0.493312 2.55812e-22)
(0.600586 -0.472569 7.97362e-22)
(0.544056 -0.436739 5.37885e-21)
(0.504679 -0.360396 -3.57197e-21)
(0.496809 -0.233293 -2.09472e-21)
(0.520924 -0.0714562 -5.72561e-22)
(0.567693 0.0952463 -3.56906e-21)
(0.625672 0.241413 5.86777e-21)
(0.684513 0.354308 -3.04393e-21)
(0.736829 0.432621 1.1675e-21)
(0.779489 0.48105 -4.10985e-21)
(0.812683 0.506474 -3.16357e-21)
(0.836687 0.519707 3.82038e-21)
(0.849754 0.535781 1.12617e-21)
(0.850246 0.563866 -1.8437e-21)
(0.840707 0.592959 9.56987e-21)
(0.828692 0.591807 -1.19735e-20)
(0.822452 0.52841 7.13166e-21)
(0.846686 -0.285529 -3.13612e-20)
(0.907989 -0.437879 7.11112e-21)
(0.942924 -0.557089 2.31484e-21)
(0.948336 -0.62889 -9.38989e-21)
(0.931637 -0.657997 9.50214e-21)
(0.902108 -0.656834 -3.95218e-21)
(0.866516 -0.637476 3.17463e-21)
(0.828672 -0.60885 -4.17072e-21)
(0.789855 -0.576698 1.51895e-20)
(0.75047 -0.543982 -9.5429e-21)
(0.709644 -0.513221 6.18002e-21)
(0.662887 -0.48823 -3.94347e-21)
(0.607188 -0.467169 -3.75626e-21)
(0.549802 -0.433298 1.00819e-20)
(0.507974 -0.361355 -1.05888e-20)
(0.496852 -0.239323 7.67553e-21)
(0.518165 -0.0811478 3.71117e-21)
(0.56312 0.0840936 -1.0446e-21)
(0.620284 0.230672 -4.45979e-21)
(0.679147 0.345152 6.76569e-21)
(0.732115 0.425504 -3.9598e-21)
(0.77584 0.475881 5.16298e-21)
(0.810291 0.502893 6.26681e-22)
(0.83556 0.517342 -1.10958e-21)
(0.849805 0.534394 -7.17583e-22)
(0.851406 0.563406 1.57249e-21)
(0.84297 0.593527 -6.69343e-22)
(0.832051 0.59352 -1.85923e-21)
(0.8268 0.531234 -8.19032e-22)
(0.865458 -0.286663 -1.1959e-20)
(0.926901 -0.437385 4.36308e-20)
(0.960464 -0.554923 -1.61087e-20)
(0.963719 -0.625607 3.30781e-20)
(0.944775 -0.654284 -1.01954e-20)
(0.913247 -0.653135 -3.95839e-21)
(0.875982 -0.633958 -3.99454e-21)
(0.836813 -0.605484 1.01551e-20)
(0.797001 -0.573382 -9.66593e-21)
(0.756856 -0.540574 4.5972e-21)
(0.715711 -0.509288 -2.89134e-21)
(0.669269 -0.483286 5.77146e-21)
(0.613923 -0.461795 -3.45011e-21)
(0.555842 -0.429671 1.35984e-21)
(0.511711 -0.361979 -5.24787e-21)
(0.49736 -0.245049 4.60966e-21)
(0.515784 -0.0906933 8.9583e-22)
(0.558818 0.0729236 5.90737e-22)
(0.615066 0.219802 2.02148e-21)
(0.673869 0.335806 -1.7256e-21)
(0.727431 0.418176 2.25448e-21)
(0.772184 0.470508 -1.9172e-21)
(0.807874 0.499131 -5.55767e-22)
(0.834403 0.514813 -3.31944e-22)
(0.849831 0.532842 4.09464e-21)
(0.852552 0.562773 -1.091e-21)
(0.845227 0.593935 -7.83736e-21)
(0.835404 0.595132 -1.26655e-21)
(0.83114 0.534055 2.56451e-21)
(0.884046 -0.28762 8.00639e-21)
(0.945564 -0.436588 -4.59472e-20)
(0.977706 -0.552392 1.70218e-20)
(0.97883 -0.621983 2.67816e-20)
(0.957713 -0.650299 -3.008e-20)
(0.924264 -0.649241 7.22596e-21)
(0.885391 -0.630315 9.73137e-21)
(0.844943 -0.602053 -4.31939e-21)
(0.804173 -0.570045 -2.50045e-21)
(0.763293 -0.537197 -2.48681e-21)
(0.721814 -0.505466 3.61026e-21)
(0.675685 -0.478491 -7.10172e-22)
(0.620772 -0.456467 -6.34729e-22)
(0.562156 -0.425876 -2.80578e-21)
(0.515877 -0.36227 1.58384e-21)
(0.498333 -0.250455 8.34598e-24)
(0.51379 -0.10007 -5.82214e-22)
(0.554793 0.0617555 -7.28976e-21)
(0.610023 0.208813 4.48884e-22)
(0.668682 0.326275 1.39056e-21)
(0.722775 0.410639 8.36876e-23)
(0.768519 0.464932 2.83639e-21)
(0.805428 0.495186 -8.66207e-22)
(0.833212 0.512118 -2.11055e-21)
(0.849827 0.531123 3.11819e-21)
(0.853677 0.561966 4.28768e-21)
(0.847469 0.594181 -4.47532e-21)
(0.838744 0.596637 3.75304e-21)
(0.835463 0.536869 -4.13067e-21)
(0.902468 -0.288408 -4.17142e-20)
(0.963974 -0.435495 1.58881e-20)
(0.994638 -0.549504 1.82949e-20)
(0.993658 -0.618028 -2.41697e-20)
(0.970443 -0.646053 1.58414e-20)
(0.935153 -0.645161 -1.64684e-20)
(0.894741 -0.626553 9.9295e-21)
(0.853058 -0.59856 5.97359e-21)
(0.811367 -0.566691 -2.68469e-21)
(0.769779 -0.533851 -4.84279e-21)
(0.727951 -0.501754 4.6363e-21)
(0.682127 -0.473851 -2.77946e-21)
(0.627717 -0.451203 3.54584e-21)
(0.56872 -0.421932 -3.83933e-21)
(0.520454 -0.362233 2.37747e-21)
(0.49977 -0.255526 -5.08096e-21)
(0.512189 -0.109255 9.29007e-21)
(0.55105 0.0506093 -9.61364e-21)
(0.605159 0.197721 6.07422e-21)
(0.663588 0.316568 -3.8203e-21)
(0.718151 0.402896 4.87449e-21)
(0.764844 0.459153 -9.14915e-22)
(0.802952 0.491058 -2.39041e-21)
(0.831984 0.509255 2.10454e-21)
(0.849791 0.529237 -9.93994e-22)
(0.854776 0.560981 1.50991e-21)
(0.849692 0.59426 2.628e-21)
(0.842064 0.598031 -5.33783e-21)
(0.839762 0.539669 6.59755e-21)
(0.92074 -0.289033 -1.56007e-20)
(0.982121 -0.434107 2.76033e-20)
(1.01125 -0.546268 -1.70694e-20)
(1.00819 -0.613753 2.9406e-21)
(0.982958 -0.641555 -1.95766e-20)
(0.945911 -0.640904 3.1394e-20)
(0.904026 -0.622679 -3.20768e-21)
(0.861156 -0.595011 -4.43998e-21)
(0.818579 -0.563323 -5.21841e-21)
(0.776309 -0.530535 4.17839e-21)
(0.734122 -0.498148 -2.27309e-21)
(0.688586 -0.469374 1.48258e-21)
(0.634741 -0.446024 -5.13167e-21)
(0.57551 -0.417862 4.19127e-21)
(0.525423 -0.361874 1.82795e-21)
(0.501669 -0.260249 -2.39844e-21)
(0.51099 -0.118225 2.78866e-21)
(0.547598 0.0395059 -3.7692e-21)
(0.600479 0.186538 -3.08748e-22)
(0.658591 0.306691 3.51049e-21)
(0.713559 0.394951 -3.29338e-21)
(0.76116 0.453172 -4.55062e-21)
(0.800442 0.486745 -1.59048e-21)
(0.830714 0.506225 1.93124e-21)
(0.849716 0.527183 -7.34584e-22)
(0.855845 0.559819 6.94537e-21)
(0.851888 0.594171 -3.07092e-21)
(0.845358 0.59931 -6.7888e-21)
(0.844031 0.542452 2.76979e-21)
(0.938879 -0.289499 4.67474e-21)
(0.999997 -0.432427 4.45475e-20)
(1.02752 -0.54269 -1.2661e-20)
(1.02242 -0.60917 -1.32001e-20)
(0.995253 -0.636818 1.71732e-21)
(0.956533 -0.636478 1.32298e-20)
(0.913244 -0.618697 6.5361e-22)
(0.869232 -0.591408 -7.70632e-22)
(0.825804 -0.559943 -3.59937e-21)
(0.78288 -0.52725 -4.99605e-21)
(0.740323 -0.494648 1.53881e-22)
(0.695054 -0.465064 1.02373e-21)
(0.641828 -0.440946 6.63244e-22)
(0.582505 -0.413686 -3.5417e-21)
(0.530765 -0.361203 2.34134e-21)
(0.504025 -0.264612 -1.21898e-21)
(0.510197 -0.126956 -2.94972e-21)
(0.544444 0.0284652 3.01927e-21)
(0.595989 0.175279 2.8795e-21)
(0.653694 0.296654 4.15137e-22)
(0.709001 0.386807 -5.37051e-21)
(0.757466 0.44699 4.86102e-21)
(0.797897 0.482249 -2.9545e-21)
(0.8294 0.503026 1.98696e-21)
(0.849598 0.524959 3.98236e-23)
(0.856877 0.558477 -4.58726e-21)
(0.854052 0.59391 7.0889e-21)
(0.84862 0.600469 -3.4535e-21)
(0.848263 0.545211 6.89653e-21)
(0.956897 -0.289804 -1.26661e-20)