/*--------------------------------*- C++ -*----------------------------------*\
  =========                 |
  \\      /  F ield         | OpenFOAM: The Open Source CFD Toolbox
   \\    /   O peration     | Website:  https://openfoam.org
    \\  /    A nd           | Version:  7
     \\/     M anipulation  |
\*---------------------------------------------------------------------------*/
FoamFile
{
    version     2.0;
    format      ascii;
    class       surfaceScalarField;
    location    "240";
    object      phi;
}
// * * * * * * * * * * * * * * * * * * * * * * * * * * * * * * * * * * * * * //

dimensions      [0 3 -1 0 0 0 0];

internalField   nonuniform List<scalar> 
8899
(
-2.2451e-05
1.19901e-05
-2.79704e-06
-3.35979e-05
-8.20078e-06
1.93476e-05
-4.65204e-05
-3.50729e-05
4.79954e-05
-6.10781e-05
-6.69449e-05
8.15026e-05
-7.71555e-05
-0.000102478
0.000118555
-9.46515e-05
-0.000140764
0.000158259
-0.000113474
-0.000181358
0.000200181
-0.000133541
-0.000224259
0.000244325
-0.000154783
-0.000269833
0.000291075
-0.000177156
-0.000318724
0.000341097
-0.000200647
-0.000371763
0.000395255
-0.000225282
-0.000429895
0.00045453
-0.000251123
-0.000494147
0.000519987
-0.000278256
-0.00056563
0.000592763
-0.000306778
-0.000645546
0.000674068
-0.000336756
-0.00073517
0.000765147
-0.000835957
0.000867419
-0.000368218
-2.34031e-05
2.1588e-05
-3.50524e-05
3.4486e-06
-4.85652e-05
-2.15601e-05
-6.37911e-05
-5.1719e-05
-8.0606e-05
-8.56629e-05
-9.89034e-05
-0.000122466
-0.00011859
-0.000161671
-0.000139588
-0.000203261
-0.00016184
-0.000247581
-0.000185321
-0.000295244
-0.000210046
-0.000347038
-0.000236079
-0.000403862
-0.000263529
-0.000466697
-0.000292544
-0.000536615
-0.000323288
-0.000614801
-0.000355903
-0.000702555
-0.000801359
-0.000390501
-2.41944e-05
3.15266e-05
-3.62691e-05
1.55232e-05
-5.02819e-05
-7.54734e-06
-6.6072e-05
-3.59289e-05
-8.35058e-05
-6.82291e-05
-0.00010247
-0.000103502
-0.000122867
-0.000141274
-0.00014462
-0.000181507
-0.000167681
-0.00022452
-0.000192037
-0.000270888
-0.000217726
-0.000321349
-0.000244841
-0.000376747
-0.000273533
-0.000438004
-0.000304004
-0.000506144
-0.000336484
-0.000582322
-0.000371183
-0.000667855
-0.000764242
-0.0004083
-2.48098e-05
4.17358e-05
-3.72258e-05
2.79393e-05
-5.16414e-05
6.86823e-06
-6.78849e-05
-1.96854e-05
-8.58121e-05
-5.03019e-05
-0.0001053
-8.40141e-05
-0.000126247
-0.000120328
-0.000148574
-0.000159181
-0.000172233
-0.000200861
-0.000197221
-0.0002459
-0.000223589
-0.000294981
-0.000251453
-0.000348882
-0.000280998
-0.000408459
-0.000312471
-0.000474671
-0.000346159
-0.000548633
-0.000382345
-0.000631669
-0.000725281
-0.000421306
-2.52358e-05
5.21408e-05
-3.79039e-05
4.06073e-05
-5.26192e-05
2.15835e-05
-6.91992e-05
-3.10536e-06
-8.74883e-05
-3.20128e-05
-0.000107353
-6.41491e-05
-0.000128683
-9.89976e-05
-0.000151394
-0.000136471
-0.000175434
-0.00017682
-0.000200803
-0.000220531
-0.000227557
-0.000268227
-0.000255825
-0.000320614
-0.000285815
-0.000378469
-0.00031781
-0.000442677
-0.00035215
-0.000514293
-0.000389184
-0.000594635
-0.000685199
-0.000429267
-2.54618e-05
6.26622e-05
-3.82877e-05
5.34333e-05
-5.31948e-05
3.64906e-05
-6.99898e-05
1.36896e-05
-8.85048e-05
-1.34978e-05
-0.000108595
-4.40593e-05
-0.000130137
-7.74551e-05
-0.000153038
-0.00011357
-0.00017724
-0.000152618
-0.000202734
-0.000195037
-0.000229574
-0.000241387
-0.000257891
-0.000292297
-0.000287905
-0.000348455
-0.000319925
-0.000410657
-0.000354335
-0.000479882
-0.000391546
-0.000557424
-0.000644757
-0.000431988
-2.54791e-05
7.32176e-05
-3.83652e-05
6.63194e-05
-5.33524e-05
5.14778e-05
-7.02369e-05
3.05742e-05
-8.88384e-05
5.1036e-06
-0.000108998
-2.38998e-05
-0.00013058
-5.58733e-05
-0.000153476
-9.06731e-05
-0.000177616
-0.000128478
-0.000202977
-0.000169676
-0.000229601
-0.000214763
-0.00025761
-0.000264288
-0.000287222
-0.000318843
-0.000318759
-0.00037912
-0.000352641
-0.000446001
-0.000389334
-0.000520731
-0.000604751
-0.00042934
-2.5282e-05
-3.81279e-05
7.91652e-05
-5.30806e-05
6.64305e-05
-6.99268e-05
4.74204e-05
-8.84729e-05
2.36496e-05
-0.000108545
-3.82759e-06
-0.000129992
-3.44266e-05
-0.000152688
-6.79769e-05
-0.000176544
-0.000104622
-0.000201516
-0.000144704
-0.000227624
-0.000188655
-0.000254968
-0.000236944
-0.000283751
-0.000290061
-0.000314294
-0.000348577
-0.00034704
-0.000413255
-0.000382507
-0.000485264
-0.000565993
-0.000421265
-3.75709e-05
9.18688e-05
-5.23731e-05
8.12327e-05
-6.90513e-05
6.40986e-05
-8.73988e-05
4.19972e-05
-0.000107226
1.59996e-05
-0.000128363
-1.32896e-05
-0.000150664
-4.56755e-05
-0.000174016
-8.12705e-05
-0.000198347
-0.000120373
-0.000223644
-0.000163359
-0.000249973
-0.000210614
-0.000277508
-0.000262526
-0.000306552
-0.000319533
-0.000337558
-0.00038225
-0.000371086
-0.000451736
-0.000529306
-0.000407772
-3.66932e-05
0.000104327
-5.12278e-05
9.57672e-05
-6.76079e-05
8.04786e-05
-8.56135e-05
6.00028e-05
-0.000105038
3.54243e-05
-0.000125692
7.36447e-06
-0.000147406
-2.39613e-05
-0.000170038
-5.86385e-05
-0.000193482
-9.69292e-05
-0.000217682
-0.000139158
-0.00024266
-0.000185637
-0.000268541
-0.000236645
-0.000295596
-0.000292478
-0.000324266
-0.000353579
-0.000355151
-0.000420851
-0.00049551
-0.000388947
-3.54976e-05
0.000116438
-4.9648e-05
0.000109918
-6.56001e-05
9.64307e-05
-8.3121e-05
7.75237e-05
-0.000101987
5.42902e-05
-0.000121987
2.73642e-05
-0.000142925
-3.0231e-06
-0.000164627
-3.69366e-05
-0.000186946
-7.46103e-05
-0.000209777
-0.000116327
-0.000233082
-0.000162332
-0.000256925
-0.000212801
-0.000281521
-0.000267883
-0.000307286
-0.000327814
-0.000334841
-0.000393296
-0.000465408
-0.000364943
-3.39906e-05
0.000128101
-4.76415e-05
0.000123569
-6.30371e-05
0.000111826
-7.99319e-05
9.44185e-05
-9.80845e-05
7.24429e-05
-0.000117261
4.65409e-05
-0.000137239
1.69546e-05
-0.000157807
-1.63684e-05
-0.000178774
-5.36434e-05
-0.000199978
-9.51234e-05
-0.00022131
-0.000140999
-0.000242757
-0.000191355
-0.000264458
-0.000246182
-0.000286779
-0.000305492
-0.000310354
-0.000369722
-0.000439778
-0.000335983
-3.21829e-05
0.000139216
-4.52212e-05
0.000136607
-5.99339e-05
0.000126539
-7.60635e-05
0.000110548
-9.3351e-05
8.97304e-05
-0.00011154
6.47296e-05
-0.000130377
3.57919e-05
-0.000149615
2.8697e-06
-0.000169013
-3.42451e-05
-0.000188347
-7.57897e-05
-0.000207429
-0.000121917
-0.000226153
-0.00017263
-0.000244562
-0.000227773
-0.000262948
-0.000287106
-0.000281934
-0.000350736
-0.000419359
-0.000302354
-3.00888e-05
0.00014969
-4.24048e-05
0.000148923
-5.63112e-05
0.000140445
-7.15396e-05
0.000125776
-8.78133e-05
0.000106004
-0.000104852
8.17687e-05
-0.000122374
5.33139e-05
-0.000140093
2.05884e-05
-0.000157717
-1.6621e-05
-0.000174955
-5.85516e-05
-0.000191535
-0.000105338
-0.000207244
-0.000156921
-0.00022201
-0.000213007
-0.000236022
-0.000273094
-0.000249874
-0.000336884
-0.000404836
-0.000264396
-2.77265e-05
0.00015943
-3.92145e-05
0.000160411
-5.21953e-05
0.000153426
-6.63902e-05
0.000139971
-8.15053e-05
0.000121119
-9.72375e-05
9.75009e-05
-0.000113274
6.93508e-05
-0.000129291
3.66052e-05
-0.000144945
-9.66701e-07
-0.000159878
-4.36189e-05
-0.000173726
-9.14897e-05
-0.000186165
-0.000144482
-0.000196986
-0.000202186
-0.00020625
-0.00026383
-0.000214495
-0.000328639
-0.000396829
-0.000222502
-2.51173e-05
-3.56772e-05
0.000170971
-4.76182e-05
0.000165367
-6.06519e-05
0.000153005
-7.44679e-05
0.000134935
-8.87403e-05
0.000111773
-0.000103127
8.37376e-05
-0.000117265
5.07436e-05
-0.000130763
1.25311e-05
-0.000143194
-3.1188e-05
-0.000154105
-8.05789e-05
-0.000163051
-0.000135536
-0.000169676
-0.000195561
-0.000173885
-0.000259621
-0.00017614
-0.000326384
-0.000395866
-0.000177103
-3.18242e-05
0.000180509
-4.26171e-05
0.00017616
-5.43675e-05
0.000164755
-6.67491e-05
0.000147317
-7.94134e-05
0.000124438
-9.19899e-05
9.63141e-05
-0.000104079
6.28325e-05
-0.000115241
2.36928e-05
-0.000124984
-2.14442e-05
-0.000132769
-7.27943e-05
-0.00013803
-0.000130276
-0.000140254
-0.000193337
-0.000139173
-0.000260702
-0.000135149
-0.000330408
-0.000402345
-0.00012867
-2.76912e-05
0.000188938
-3.72345e-05
0.000185703
-4.75859e-05
0.000175107
-5.84035e-05
0.000158134
-6.9317e-05
0.000135351
-7.99275e-05
0.000106925
-8.98006e-05
7.27056e-05
-9.84517e-05
3.23438e-05
-0.00010533
-1.45654e-05
-0.000109813
-6.83119e-05
-0.000111217
-0.000128871
-0.000108875
-0.00019568
-0.000102327
-0.000267249
-9.18449e-05
-0.00034089
-0.000416461
-7.77296e-05
-2.33176e-05
0.000196181
-3.1518e-05
0.000193904
-4.03623e-05
0.000183951
-4.94931e-05
0.000167265
-5.85186e-05
0.000144376
-6.70127e-05
0.000115419
-7.45074e-05
8.02004e-05
-8.04769e-05
3.83132e-05
-8.43167e-05
-1.07256e-05
-8.53275e-05
-6.7301e-05
-8.27184e-05
-0.00013148
-7.56619e-05
-0.000202736
-6.34731e-05
-0.000279438
-4.64142e-05
-0.000357949
-0.000437743
-2.51315e-05
-1.87464e-05
-2.55197e-05
0.000200677
-3.27572e-05
0.000191189
-4.00862e-05
0.000174594
-4.70934e-05
0.000151384
-5.3326e-05
0.000121651
-5.8284e-05
8.51584e-05
-6.14031e-05
4.14324e-05
-6.20312e-05
-1.00975e-05
-5.94029e-05
-6.99293e-05
-5.26296e-05
-0.000138254
-4.07404e-05
-0.000214625
-2.27235e-05
-0.000297455
2.72469e-06
-0.000383397
-0.000465166
3.01474e-05
-1.9296e-05
0.000205949
-2.48365e-05
0.000196729
-3.02575e-05
0.000180015
-3.51242e-05
0.00015625
-3.89566e-05
0.000125484
-4.12238e-05
8.74256e-05
-4.13259e-05
4.15345e-05
-3.85688e-05
-1.28547e-05
-3.21316e-05
-7.63666e-05
-2.10437e-05
-0.000149341
-4.20338e-06
-0.000231466
1.94652e-05
-0.000321123
5.05956e-05
-0.000414528
-0.000503174
8.86036e-05
-1.29061e-05
0.000209657
-1.66705e-05
0.000200494
-2.00875e-05
0.000183432
-2.27002e-05
0.000158863
-2.40015e-05
0.000126785
-2.34294e-05
8.68536e-05
-2.03501e-05
3.84552e-05
-1.40326e-05
-1.91721e-05
-3.61056e-06
-8.67886e-05
1.19514e-05
-0.000164903
3.38699e-05
-0.000253384
6.34678e-05
-0.000350721
0.000101519
-0.000452579
-0.000549803
0.000148148
-6.412e-06
0.00021175
-8.33277e-06
0.000202414
-9.66051e-06
0.00018476
-9.9168e-06
0.000159119
-8.56485e-06
0.000125433
-5.01213e-06
8.33009e-05
1.40714e-06
3.2036e-05
1.14624e-05
-2.92274e-05
2.60533e-05
-0.000101379
4.62623e-05
-0.000185112
7.33931e-05
-0.000280515
0.000108941
-0.000386269
0.000154019
-0.000497656
-0.000604815
0.00020903
1.23374e-07
1.01081e-07
0.000202437
9.31533e-07
0.000183929
3.12651e-06
0.000156924
7.24354e-06
0.000121316
1.39106e-05
7.66338e-05
2.38282e-05
2.21183e-05
3.77936e-05
-4.31928e-05
5.67396e-05
-0.000120325
8.17804e-05
-0.000210153
0.000114272
-0.000313007
0.000155846
-0.000427843
0.000207904
-0.000549715
-0.000668071
0.00027116
8.55745e-06
0.000200518
1.16122e-05
0.000180875
1.63314e-05
0.000152205
2.33126e-05
0.000114335
3.3216e-05
6.67304e-05
4.67771e-05
8.55719e-06
6.48253e-05
-6.1241e-05
8.83175e-05
-0.000143818
0.000118386
-0.000240221
0.000156406
-0.000351027
0.000204093
-0.00047553
0.00026308
-0.000608702
-0.000739422
0.000334432
1.69616e-05
0.000196629
2.22839e-05
0.000175552
2.95968e-05
0.000144892
3.95302e-05
0.000104401
5.27818e-05
5.34788e-05
7.01246e-05
-8.78558e-06
9.24209e-05
-8.35374e-05
0.00012065
-0.000172046
0.000155948
-0.00027552
0.000199684
-0.000394763
0.000253593
-0.000529439
0.000319477
-0.000674586
-0.000818702
0.000398756
2.52457e-05
3.28701e-05
0.000167928
4.28302e-05
0.000134932
5.57915e-05
9.14402e-05
7.24918e-05
3.67785e-05
9.37443e-05
-3.00381e-05
0.000120446
-0.00011024
0.000153598
-0.000205198
0.000194334
-0.000316256
0.000243987
-0.000444416
0.000304255
-0.000589707
0.000377026
-0.000747357
-0.000905718
0.000464042
4.32982e-05
0.000157979
5.59483e-05
0.000122282
7.20026e-05
7.53859e-05
9.22418e-05
1.65392e-05
0.000117523
-5.5319e-05
0.00014878
-0.000141497
0.000187036
-0.000243453
0.000233415
-0.000362636
0.000289195
-0.000500195
0.000355975
-0.000656488
0.000435653
-0.000827035
-0.00100025
0.000530182
5.35083e-05
0.000145691
6.8882e-05
0.000106908
8.8086e-05
5.61818e-05
0.000111947
-7.32161e-06
0.000141368
-8.47397e-05
0.000177323
-0.000177452
0.000220856
-0.000286986
0.000273078
-0.000414858
0.000335193
-0.00056231
0.000408645
-0.000729939
0.000495266
-0.000913656
-0.00110202
0.000597036
6.34559e-05
8.15812e-05
8.8783e-05
0.000103987
3.37763e-05
0.000131548
-3.48824e-05
0.000165215
-0.000118407
0.000206006
-0.000218243
0.000254982
-0.000335963
0.000313236
-0.000473112
0.000381882
-0.000630956
0.000462152
-0.000810209
0.000555754
-0.00100726
-0.00121069
0.000664426
9.40184e-05
6.78801e-05
0.000119676
8.11818e-06
0.000151016
-6.62217e-05
0.000189038
-0.000156429
0.000234799
-0.000264004
0.000289378
-0.000390542
0.000353837
-0.000537571
0.000429186
-0.000706305
0.000516385
-0.000897408
0.000616978
-0.00110785
-0.00132583
0.000732119
0.000106192
0.000135157
-2.08474e-05
0.000170358
-0.000101423
0.000212846
-0.000198917
0.000263713
-0.000314871
0.000324048
-0.000450876
0.000394864
-0.000608387
0.000477049
-0.000788489
0.000571233
-0.000991593
0.000678773
-0.00121539
-0.00144687
0.000799816
0.000150463
-5.31835e-05
0.000189618
-0.000140577
0.00023669
-0.000245989
0.000292802
-0.000370983
0.000359034
-0.000517108
0.000436333
-0.000685687
0.000525433
-0.000877589
0.00062658
-0.00109274
0.000740929
-0.00132974
-0.00157309
0.000867145
0.00016566
-8.89657e-05
0.000208873
-0.00018379
0.000260656
-0.000297773
0.000322149
-0.000432476
0.000394407
-0.000589366
0.000478276
-0.000769556
0.0005743
-0.000973613
0.000682289
-0.00120073
0.000803179
-0.00145063
-0.00170355
0.000933643
0.000180843
0.000228229
-0.000231176
0.000284857
-0.0003544
0.000351864
-0.000499484
0.00043025
-0.000667751
0.000520725
-0.000860031
0.00062359
-0.00107648
0.000738189
-0.00131533
0.000865186
-0.00157763
-0.00183711
0.000998748
0.000247817
-0.000282864
0.000309423
-0.000416006
0.000382062
-0.000572122
0.000466639
-0.000752328
0.000563682
-0.000957074
0.000673189
-0.00118599
0.000794043
-0.00143618
0.000926511
-0.0017101
-0.0019724
0.0010618
0.000267777
0.000334488
-0.000482718
0.000412845
-0.000650479
0.000503619
-0.000843102
0.000607104
-0.00106056
0.000722921
-0.0013018
0.000849535
-0.0015628
0.000986548
-0.00184711
-0.00210795
0.0011221
0.00036017
-0.000554639
0.000444285
-0.000734595
0.000541184
-0.000940001
0.000650879
-0.00117025
0.000772555
-0.00142348
0.000904335
-0.00169458
0.00104449
-0.00198727
-0.00224252
0.00117907
0.000386557
0.000476404
-0.000824442
0.00057925
-0.00104285
0.000694792
-0.0012858
0.000821802
-0.00155049
0.000958244
-0.00183102
0.00109982
-0.00212884
-0.00237479
0.00123208
0.000509155
-0.000919902
0.000617641
-0.00115133
0.000738488
-0.00140664
0.000870138
-0.00168214
0.00101078
-0.00197166
0.00115352
-0.00227158
-0.00250097
0.0012797
0.000542426
0.000656093
-0.001265
0.000781494
-0.00153204
0.00091668
-0.00181732
0.00105974
-0.00211471
0.00120617
-0.00241802
-0.00268628
0.00139149
0.000694268
0.000823288
-0.00166106
0.000960687
-0.00195472
0.0011041
-0.00225813
0.00124938
-0.0025633
-0.00284876
0.00141186
0.00086338
-0.00179265
0.00100159
-0.00209293
0.00114336
-0.0023999
0.00128455
-0.00270449
-0.00299502
0.00143081
0.000901301
0.00103897
-0.0022306
0.00117764
-0.00253858
0.00131322
-0.00284007
-0.00312862
0.00144682
0.00107249
0.00120691
-0.002673
0.00133595
-0.0029691
-0.00325141
0.00145874
0.00123111
-0.00280226
0.00135304
-0.00309103
-0.00336449
0.00146612
0.00125021
0.0013647
-0.00320553
-0.00346858
0.00146879
0.00137115
-0.00356423
0.0014668
0.00146032
0.00315173
0.00155005
0.00141146
0.00273042
0.00301761
0.00154558
0.00123966
0.00227653
0.00138989
0.0025802
0.00287256
0.00153494
0.00120351
0.00211774
0.00136163
0.00242208
0.0027162
0.00151799
0.000998741
0.00166265
0.00116143
0.00195505
0.00132662
0.00225689
0.002548
0.00149482
0.000793559
0.00124428
0.000948506
0.00150771
0.00111366
0.0017899
0.00128481
0.00208574
0.00236698
0.00146583
0.000741775
0.00110617
0.000894541
0.00135494
0.00106047
0.00162397
0.00123613
0.00191008
0.00217135
0.00143176
0.000555651
0.000764813
0.000688507
0.000973318
0.000837436
0.00120601
0.00100201
0.0014594
0.00118028
0.0017318
0.00195786
0.00139378
0.000398544
0.000489177
0.000508007
0.000655349
0.000634522
0.000846803
0.000777898
0.00106264
0.000938076
0.00129922
0.00111452
0.00155536
0.00171873
0.00135366
0.000359124
0.000403114
0.000461442
0.000553032
0.000580708
0.000727536
0.000716983
0.000926361
0.000869931
0.00114628
0.00103543
0.00138986
0.00157678
0.00117737
0.000242549
0.00021207
0.000321796
0.000323867
0.000416686
0.000458142
0.000528092
0.00061613
0.000656174
0.000798278
0.000799894
0.00100256
0.000956759
0.00123299
0.00143092
0.00110262
0.000214507
0.00015302
0.000287047
0.000251328
0.000374444
0.000370745
0.00047771
0.000512864
0.000597201
0.000678787
0.000731958
0.000867798
0.000881651
0.0010833
0.00128537
0.00102721
0.000135685
3.145e-05
0.000189214
9.94904e-05
0.000255297
0.000185245
0.000335336
0.000290707
0.000430461
0.000417738
0.000541284
0.000567965
0.000667259
0.000741822
0.000808954
0.000941607
0.0011412
0.000953119
0.000118455
-6.8144e-06
0.000166871
5.10745e-05
0.000226872
0.000125244
0.00029986
0.000217719
0.000387053
0.000330545
0.000489292
0.000465726
0.000606525
0.000624589
0.000739747
0.000808385
0.000999622
0.000881326
6.93028e-05
-7.68658e-05
0.000103813
-4.13243e-05
0.00014759
7.29685e-06
0.000201988
7.08459e-05
0.000268375
0.000151332
0.000348022
0.000250897
0.000441961
0.000371787
0.000550638
0.000515913
0.000675387
0.000683635
0.000862028
0.000812981
6.05006e-05
-0.00010082
9.17282e-05
-7.25518e-05
0.000131389
-3.23641e-05
0.00018074
2.14955e-05
0.000241092
9.09798e-05
0.00031374
0.000178249
0.000399865
0.000285662
0.000500372
0.000415407
0.000616911
0.000567096
0.000729582
0.000749357
3.18705e-05
-0.000134872
5.36727e-05
-0.000122623
8.20948e-05
-0.000100974
0.000118184
-6.84533e-05
0.000163093
-2.34136e-05
0.000218063
3.60096e-05
0.000284384
0.000111928
0.000363354
0.000206693
0.000456255
0.000322505
0.000565031
0.000458321
0.000603079
0.000691534
2.86162e-05
-0.000149707
4.86534e-05
-0.00014266
7.47328e-05
-0.000127053
0.000107794
-0.000101515
0.000148888
-6.45073e-05
0.000199177
-1.42793e-05
0.000259928
5.11767e-05
0.000332522
0.000134099
0.00041853
0.000236496
0.00052013
0.000356721
0.000482961
0.000640248
2.66042e-05
-0.000163539
4.52297e-05
-0.000161285
6.93977e-05
-0.000151221
9.99506e-05
-0.000132068
0.000137843
-0.0001024
0.000184161
-6.0597e-05
0.000240138
-4.79989e-06
0.000307203
6.70342e-05
0.000387124
0.000156575
0.000482231
0.000261614
0.000369371
0.00059582
1.25532e-05
-0.0001684
2.56285e-05
-0.000176615
4.31508e-05
-0.000178808
6.57915e-05
-0.000173862
9.43091e-05
-0.000160585
0.000129575
-0.000137666
0.000172603
-0.000103625
0.000224586
-5.67835e-05
0.000286977
4.64322e-06
0.000361649
8.19032e-05
0.000450982
0.000172281
0.000262209
0.000558144
1.2947e-05
-0.000177313
2.54652e-05
-0.000189133
4.21397e-05
-0.000195482
6.35778e-05
-0.0001953
9.04695e-05
-0.000187477
0.000123616
-0.000170813
0.00016397
-0.000143978
0.000212683
-0.000105497
0.000271204
-5.38777e-05
0.000341433
1.16749e-05
0.000425692
8.80211e-05
0.000161187
0.000526714
1.37699e-05
-0.000186016
2.58813e-05
-0.000201244
4.19051e-05
-0.000211506
6.23981e-05
-0.000215793
8.79962e-05
-0.000213075
0.000119446
-0.000202263
0.000157649
-0.00018218
0.000203717
-0.000151565
0.000259072
-0.000109233
0.000325575
-5.48281e-05
0.000405404
8.19254e-06
6.58994e-05
0.000500692
6.27243e-06
-0.000172597
1.48392e-05
-0.000194583
2.66438e-05
-0.000213049
4.21542e-05
-0.000227016
6.18882e-05
-0.000235527
8.64415e-05
-0.000237628
0.00011652
-0.000232342
0.000152983
-0.000218644
0.000196907
-0.000195489
0.000249667
-0.000161994
0.000313037
-0.000118198
0.000388983
-6.77533e-05
-2.41228e-05
0.000479005
7.51617e-06
-0.000178386
1.5979e-05
-0.000203046
2.75284e-05
-0.000224598
4.26038e-05
-0.000242092
6.16942e-05
-0.000254618
8.5366e-05
-0.0002613
0.000114296
-0.000261271
0.000149312
-0.00025366
0.000191454
-0.00023763
0.00024204
-0.00021258
0.000302723
-0.000178881
0.000375224
-0.000140254
-0.000109355
0.000460455
8.67111e-06
-0.000184183
1.70254e-05
-0.0002114
2.83262e-05
-0.000235899
4.29902e-05
-0.000256756
6.14856e-05
-0.000273113
8.43584e-05
-0.000284173
0.000112264
-0.000289177
0.000146008
-0.000287405
0.000186594
-0.000278216
0.000235276
-0.000261262
0.000293568
-0.000237173
0.000362942
-0.000209628
-0.000190234
0.000443821
3.85588e-06
-0.000158919
9.62269e-06
-0.00018995
1.7831e-05
-0.000219608
2.88496e-05
-0.000246918
4.30773e-05
-0.000270983
6.09667e-05
-0.000291002
8.30496e-05
-0.000306256
0.000109968
-0.000316095
0.000142507
-0.000319944
0.000181636
-0.000317345
0.000228542
-0.000308168
0.000284601
-0.000293232
0.000351052
-0.000276079
-0.000267132
0.000427949
4.59596e-06
-0.000162611
1.02709e-05
-0.000195624
1.82674e-05
-0.000227605
2.89364e-05
-0.000257586
4.26617e-05
-0.000284709
5.98837e-05
-0.000308224
8.11243e-05
-0.000327496
0.000107015
-0.000341986
0.000138324
-0.000351253
0.00017599
-0.00035501
0.000221131
-0.00035331
0.000274994
-0.000347095
0.000338621
-0.000339706
-0.000340329
0.000411818
5.02971e-06
-0.000166236
1.05315e-05
-0.000201126
1.82277e-05
-0.000235301
2.84524e-05
-0.000267811
4.15763e-05
-0.000297833
5.80297e-05
-0.000324678
7.83265e-05
-0.000347793
0.000103089
-0.000366748
0.000133072
-0.000381236
0.000169182
-0.00039112
0.000212476
-0.000396604
0.000264086
-0.000398704
0.000324896
-0.000400516
-0.000410011
0.000394578
5.10472e-06
-0.000169711
1.03373e-05
-0.000206359
1.76272e-05
-0.000242591
2.72926e-05
-0.000277477
3.96918e-05
-0.000310232
5.52458e-05
-0.000340232
7.44615e-05
-0.000367009
9.79531e-05
-0.00039024
0.000126461
-0.000409744
0.000160863
-0.000425522
0.000202158
-0.000437899
0.000251384
-0.00044793
0.000309312
-0.000458444
-0.000476268
0.000375569
1.55381e-06
-0.000135572
4.78129e-06
-0.000172938
9.63785e-06
-0.000211215
1.64037e-05
-0.000249357
2.53811e-05
-0.000286454
3.69163e-05
-0.000321767
5.14212e-05
-0.000354737
6.93952e-05
-0.000384983
9.14441e-05
-0.000412289
0.000118294
-0.000436594
0.000150794
-0.000458022
0.000189895
-0.000477001
0.00023656
-0.000494594
0.000291482
-0.000513367
-0.000539101
0.000354315
1.15293e-06
-0.000137218
4.03228e-06
-0.000175817
8.39971e-06
-0.000215583
1.45167e-05
-0.000255474
2.267e-05
-0.000294607
3.31936e-05
-0.00033229
4.64898e-05
-0.000368033
6.30498e-05
-0.000401543
8.34697e-05
-0.000432709
0.00010846
-0.000461584
0.000138845
-0.000488407
0.000175533
-0.000513688
0.000219427
-0.000538488
0.000271177
-0.000565117
-0.000598435
0.000330511
4.15543e-07
-0.000138544
2.84261e-06
-0.000178245
6.60534e-06
-0.000219346
1.19467e-05
-0.000260815
1.91381e-05
-0.000301799
2.85008e-05
-0.000341653
4.04271e-05
-0.000379959
5.53986e-05
-0.000416514
7.40004e-05
-0.00045131
9.6927e-05
-0.000484511
0.000124977
-0.000516457
0.000159022
-0.000547733
0.000199922
-0.000579389
0.000248304
-0.0006135
-0.000654132
0.000304001
-6.62127e-07
-0.000139457
1.20876e-06
-0.000180115
4.2523e-06
-0.000222389
8.69349e-06
-0.000265256
1.47883e-05
-0.000307894
2.28453e-05
-0.00034971
3.32456e-05
-0.000390359
4.646e-05
-0.000429729
6.30607e-05
-0.000467911
8.37246e-05
-0.000505175
0.000109225
-0.000541957
0.000140401
-0.000578909
0.000178079
-0.000617067
0.000222877
-0.000658298
-0.000706006
0.000274752
-2.4849e-06
-0.000101383
-2.07608e-06
-0.000139866
-8.62044e-07
-0.000181329
1.35208e-06
-0.000224603
4.77429e-06
-0.000268679
9.64546e-06
-0.000312765
1.62609e-05
-0.000356326
2.49899e-05
-0.000399088
3.62907e-05
-0.00044103
5.07206e-05
-0.000482341
6.89367e-05
-0.000523391
9.16866e-05
-0.000564707
0.000119778
-0.000607
0.00015401
-0.000651299
0.000195
-0.000699288
-0.000753838
0.000242832
-3.63289e-06
-0.000100738
-3.81463e-06
-0.000139684
-3.35312e-06
-0.000181791
-2.07117e-06
-0.000225885
2.22262e-07
-0.000270972
3.75354e-06
-0.000316296
8.80473e-06
-0.000361377
1.5732e-05
-0.000406016
2.49795e-05
-0.000450277
3.70872e-05
-0.000494448
5.26899e-05
-0.000538994
7.25075e-05
-0.000584525
9.73167e-05
-0.00063181
0.00012789
-0.000681872
0.000164845
-0.000736243
-0.000797387
0.000208394
-5.0065e-06
-9.95747e-05
-5.85953e-06
-0.000138831
-6.23832e-06
-0.000181412
-5.9824e-06
-0.000226141
-4.91587e-06
-0.000272039
-2.8267e-06
-0.000318385
5.53428e-07
-0.000364757
5.56678e-06
-0.000411029
1.26414e-05
-0.000457352
2.22973e-05
-0.000504104
3.5144e-05
-0.00055184
5.18708e-05
-0.000601251
7.32211e-05
-0.00065316
9.99394e-05
-0.000708591
0.00013264
-0.000768943
-0.000836403
0.000171655
-6.58907e-06
-9.78257e-05
-8.18654e-06
-0.000137234
-9.4841e-06
-0.000180115
-1.03362e-05
-0.000225289
-1.05812e-05
-0.000271794
-1.00208e-05
-0.000318946
-8.40019e-06
-0.000366377
-5.39241e-06
-0.000414037
-5.8744e-07
-0.000462157
6.51106e-06
-0.000511203
1.64847e-05
-0.000561814
2.99885e-05
-0.000614755
4.77283e-05
-0.0006709
7.04153e-05
-0.000731278
9.86568e-05
-0.000797185
-0.000870631
0.000132884
-8.35999e-06
-9.54326e-05
-1.07661e-05
-0.000134828
-1.305e-05
-0.000177831
-1.50791e-05
-0.00022326
-1.6705e-05
-0.000270168
-1.77422e-05
-0.000317908
-1.79501e-05
-0.00036617
-1.70179e-05
-0.000414969
-1.45561e-05
-0.000464619
-1.00938e-05
-0.000515665
-3.08186e-06
-0.000568826
7.09445e-06
-0.000624931
2.11005e-05
-0.000684906
3.96073e-05
-0.000749784
6.32062e-05
-0.000820784
-0.000899816
9.23918e-05
-1.02953e-05
-9.2345e-05
-1.35642e-05
-0.000131559
-1.68896e-05
-0.000174505
-2.01507e-05
-0.000219999
-2.32104e-05
-0.000267108
-2.58957e-05
-0.000315223
-2.79801e-05
-0.000364085
-2.91704e-05
-0.000413779
-2.91e-05
-0.000464689
-2.73271e-05
-0.000517438
-2.33394e-05
-0.000572813
-1.65623e-05
-0.000631709
-6.37937e-06
-0.000695089
7.83336e-06
-0.000763997
2.66565e-05
-0.000839607
-0.000923676
5.05157e-05
-1.23681e-05
-8.85215e-05
-1.65426e-05
-0.000127384
-2.0952e-05
-0.000170096
-2.54848e-05
-0.000215466
-3.00141e-05
-0.000262579
-3.43787e-05
-0.000310859
-3.83665e-05
-0.000360097
-4.17033e-05
-0.000410442
-4.40472e-05
-0.000462345
-4.49889e-05
-0.000516496
-4.40562e-05
-0.000573746
-4.07223e-05
-0.000635043
-3.44231e-05
-0.000701388
-2.45563e-05
-0.000773864
-1.04478e-05
-0.000853715
-0.000941379
7.25522e-06
-1.45489e-05
-8.39307e-05
-1.96602e-05
-0.000122273
-2.51822e-05
-0.000164574
-3.10108e-05
-0.000209637
-3.70281e-05
-0.000256561
-4.30839e-05
-0.000304803
-4.89807e-05
-0.000354201
-5.44644e-05
-0.000404958
-5.92203e-05
-0.000457589
-6.28746e-05
-0.000512842
-6.49989e-05
-0.000571622
-6.51174e-05
-0.000634924
-6.27183e-05
-0.000703787
-5.72676e-05
-0.000779315
-4.83294e-05
-0.000862654
-0.000954359
-3.5349e-05
-1.14274e-05
-4.63794e-05
-1.68063e-05
-7.85518e-05
-2.28732e-05
-0.000116206
-2.95224e-05
-0.000157925
-3.66553e-05
-0.000202504
-4.41614e-05
-0.000249055
-5.19008e-05
-0.000297063
-5.96911e-05
-0.00034641
-6.72992e-05
-0.00039735
-7.44396e-05
-0.000450449
-8.07766e-05
-0.000506505
-8.59291e-05
-0.000566469
-8.9476e-05
-0.000631377
-9.09624e-05
-0.000702301
-8.99144e-05
-0.000780362
-8.58965e-05
-0.000866671
-0.000961997
-7.82581e-05
-1.29301e-05
-4.11844e-05
-1.91073e-05
-7.23745e-05
-2.61363e-05
-0.000109177
-3.39131e-05
-0.000150148
-4.23429e-05
-0.000194075
-5.13212e-05
-0.000240077
-6.07179e-05
-0.000287667
-7.03653e-05
-0.000336763
-8.00525e-05
-0.000387663
-8.95249e-05
-0.000440976
-9.84874e-05
-0.000497543
-0.000106609
-0.000558348
-0.000113525
-0.00062446
-0.000118845
-0.000696981
-0.000122153
-0.000777054
-0.000123046
-0.000865778
-0.000964095
-0.000120948
-1.44434e-05
-3.53527e-05
-2.14181e-05
-6.53998e-05
-2.94029e-05
-0.000101192
-3.82938e-05
-0.000141257
-4.79976e-05
-0.000184371
-5.84147e-05
-0.00022966
-6.94236e-05
-0.000276658
-8.08718e-05
-0.000325315
-9.2571e-05
-0.000375964
-0.000104299
-0.000429249
-0.000115802
-0.00048604
-0.000126801
-0.000547349
-0.000136994
-0.000614267
-0.000146054
-0.000687921
-0.000153635
-0.000769474
-0.00015938
-0.000860032
-0.000960669
-0.000162807
-1.59439e-05
-2.88912e-05
-2.37043e-05
-5.76395e-05
-3.26264e-05
-9.22702e-05
-4.2604e-05
-0.000131279
-5.3544e-05
-0.000173431
-6.53499e-05
-0.000217854
-7.79086e-05
-0.000264099
-9.10819e-05
-0.000312141
-0.000104705