/*--------------------------------*- C++ -*----------------------------------*\
  =========                 |
  \\      /  F ield         | OpenFOAM: The Open Source CFD Toolbox
   \\    /   O peration     | Website:  https://openfoam.org
    \\  /    A nd           | Version:  7
     \\/     M anipulation  |
\*---------------------------------------------------------------------------*/
FoamFile
{
    version     2.0;
    format      ascii;
    class       volVectorField;
    location    "180";
    object      U;
}
// * * * * * * * * * * * * * * * * * * * * * * * * * * * * * * * * * * * * * //

dimensions      [0 1 -1 0 0 0 0];

internalField   nonuniform List<vector> 
4575
(
(0.125755 -0.407197 6.30569e-22)
(0.241138 -0.187581 -2.68736e-22)
(0.354503 0.0539688 -3.07949e-22)
(0.461981 0.281128 2.82326e-22)
(0.556349 0.459211 -2.98529e-22)
(0.629443 0.57143 -2.6174e-22)
(0.677682 0.625339 6.01722e-23)
(0.701881 0.639488 2.26484e-22)
(0.708607 0.630408 1.13103e-22)
(0.700218 0.61611 -3.88183e-22)
(0.669821 0.614675 2.54127e-22)
(0.619824 0.614162 -1.06704e-22)
(0.578313 0.560085 -8.82858e-23)
(0.577461 0.405642 1.76792e-22)
(0.620269 0.168627 1.77165e-22)
(0.688074 -0.0835557 -3.9452e-23)
(0.759749 -0.28909 -2.08016e-22)
(0.818896 -0.423038 -6.49301e-24)
(0.856591 -0.493551 -2.41636e-22)
(0.87449 -0.518934 1.85432e-22)
(0.879581 -0.517101 -5.59606e-23)
(0.871923 -0.512188 3.9574e-23)
(0.845227 -0.522907 -1.66654e-22)
(0.106096 -0.423987 2.66632e-21)
(0.218327 -0.204795 -1.01092e-22)
(0.331023 0.037456 -1.73657e-21)
(0.439505 0.266116 1.23585e-21)
(0.536276 0.446862 -1.98727e-21)
(0.612761 0.562549 1.67797e-21)
(0.664635 0.620055 -1.37273e-22)
(0.692325 0.637167 -2.94921e-22)
(0.70215 0.63035 -7.50671e-22)
(0.695762 0.618495 9.76012e-22)
(0.666324 0.61962 -7.42902e-22)
(0.617762 0.619692 9.08383e-22)
(0.579509 0.562681 -1.82205e-23)
(0.582663 0.403438 -1.87592e-21)
(0.628484 0.162644 1.69645e-21)
(0.697704 -0.0910838 -9.85704e-22)
(0.769227 -0.296103 8.7891e-22)
(0.827161 -0.42816 -2.99867e-23)
(0.86311 -0.496422 -1.06421e-22)
(0.878996 -0.52007 4.47404e-22)
(0.882221 -0.516917 -6.25801e-22)
(0.873272 -0.510398 5.53375e-22)
(0.845845 -0.519327 -5.77095e-22)
(0.0882826 -0.440477 4.63502e-21)
(0.196762 -0.22231 -4.26756e-21)
(0.308374 0.020342 -7.67808e-22)
(0.417587 0.25037 4.84338e-22)
(0.51657 0.433768 4.39049e-21)
(0.596291 0.552995 -1.39442e-22)
(0.651709 0.614212 -8.85862e-22)
(0.682881 0.634402 5.21668e-22)
(0.695808 0.629984 -4.25621e-22)
(0.691417 0.620702 1.99758e-24)
(0.662996 0.624409 -1.58682e-23)
(0.616022 0.624994 -3.50895e-22)
(0.581133 0.565073 -3.12802e-22)
(0.588263 0.401232 -4.5862e-22)
(0.637017 0.156891 1.81457e-21)
(0.707577 -0.0982537 -1.71529e-21)
(0.778869 -0.302739 -2.25953e-23)
(0.835521 -0.432952 -8.21462e-22)
(0.869696 -0.499021 6.252e-22)
(0.883573 -0.520991 -2.01247e-24)
(0.884943 -0.516585 3.04771e-22)
(0.874722 -0.508513 -6.16621e-23)
(0.846597 -0.515668 1.16208e-22)
(0.0724694 -0.456542 3.95053e-21)
(0.176571 -0.240044 -4.16769e-21)
(0.286657 0.00271858 3.0496e-21)
(0.396296 0.233923 -5.12373e-21)
(0.497275 0.419945 2.10557e-21)
(0.580057 0.542773 -1.00365e-21)
(0.638917 0.607806 9.96721e-22)
(0.673557 0.631184 -1.45272e-21)
(0.68958 0.6293 8.50003e-22)
(0.687178 0.622714 5.09058e-22)
(0.659838 0.62902 5.35836e-22)
(0.614599 0.630056 7.88063e-22)
(0.583167 0.567271 -1.5199e-21)
(0.594235 0.399049 -1.35854e-21)
(0.645846 0.151389 2.52881e-23)
(0.717677 -0.105053 1.94842e-21)
(0.788665 -0.308991 2.18513e-21)
(0.84397 -0.437413 -4.41833e-22)
(0.876349 -0.501351 7.73487e-23)
(0.888224 -0.521703 -5.94659e-22)
(0.887751 -0.516111 1.63503e-22)
(0.876275 -0.506541 1.86156e-23)
(0.847485 -0.51194 -1.13522e-21)
(0.058809 -0.471988 3.15624e-21)
(0.157878 -0.257903 -1.97566e-21)
(0.26597 -0.0154229 3.11406e-21)
(0.375698 0.216809 -1.24571e-21)
(0.478436 0.405412 6.9799e-22)
(0.564085 0.531888 -2.8983e-21)
(0.626276 0.60083 3.08711e-21)
(0.664357 0.627502 -3.60048e-23)
(0.683461 0.628288 -8.04537e-22)
(0.683042 0.624515 -1.82853e-21)
(0.656848 0.633431 3.06265e-22)
(0.613488 0.634869 -9.25744e-22)
(0.585593 0.569286 1.19605e-21)
(0.600555 0.39691 -3.77652e-22)
(0.654948 0.146154 -6.17495e-22)
(0.727987 -0.111471 3.61602e-22)
(0.798608 -0.314855 1.39619e-21)
(0.852505 -0.441544 4.64884e-22)
(0.883066 -0.503419 6.17401e-24)
(0.892948 -0.522212 8.0266e-22)
(0.890646 -0.515501 -3.67236e-22)
(0.877933 -0.50449 -9.36252e-22)
(0.848509 -0.508152 4.62232e-22)
(0.0474856 -0.486605 -5.82712e-21)
(0.140778 -0.275785 2.41716e-21)
(0.246404 -0.0340303 -1.85953e-22)
(0.355868 0.199071 -5.76894e-21)
(0.460095 0.390192 4.90692e-21)
(0.548401 0.52035 -2.95379e-22)
(0.613801 0.593281 8.45442e-23)
(0.655287 0.623348 3.11202e-21)
(0.67745 0.626936 -2.21167e-21)
(0.679004 0.62609 2.03222e-21)
(0.654025 0.637622 -5.93421e-22)
(0.61268 0.639422 -1.70212e-21)
(0.588388 0.571128 2.98871e-21)
(0.607195 0.394834 -1.49031e-21)
(0.664299 0.141204 -1.52932e-21)
(0.73849 -0.117497 -5.6482e-22)
(0.808689 -0.320325 -3.0532e-21)
(0.861122 -0.445346 1.24843e-21)
(0.889846 -0.505228 -1.69382e-21)
(0.897747 -0.522523 -2.56788e-22)
(0.893628 -0.51476 1.35741e-21)
(0.879695 -0.502368 6.11612e-22)
(0.849668 -0.504313 6.09434e-22)
(0.0386808 -0.500245 -7.56813e-21)
(0.125373 -0.29358 4.4046e-21)
(0.228043 -0.0529635 -6.87249e-21)
(0.336869 0.180754 -9.53761e-22)
(0.442296 0.374312 2.36594e-21)
(0.533029 0.508167 -1.32775e-21)
(0.601506 0.585156 -7.06514e-22)
(0.646352 0.618713 -5.62475e-22)
(0.671543 0.625235 1.47922e-21)
(0.67506 0.627421 1.80401e-21)
(0.651365 0.641574 2.75243e-21)
(0.612166 0.643707 -3.11169e-21)
(0.59153 0.572809 4.39562e-21)
(0.614129 0.392843 -2.91056e-21)
(0.673875 0.136553 -3.21102e-21)
(0.74917 -0.123122 4.64347e-21)
(0.818897 -0.325397 2.35338e-21)
(0.869816 -0.448819 -5.38127e-21)
(0.896686 -0.506784 1.41629e-21)
(0.902621 -0.52264 5.18462e-22)
(0.896699 -0.513894 -7.01297e-22)
(0.881563 -0.500183 7.25719e-22)
(0.850963 -0.500432 -6.53679e-22)
(0.0325782 -0.5127 -1.7178e-23)
(0.111757 -0.311198 1.94361e-21)
(0.210964 -0.0721867 5.12616e-21)
(0.318758 0.161907 -3.64257e-21)
(0.425076 0.357799 2.17783e-22)
(0.517993 0.495354 -1.4502e-22)
(0.589408 0.576452 -1.75012e-21)
(0.637556 0.613591 -1.18718e-21)
(0.665735 0.623174 3.3809e-21)
(0.671203 0.628492 -2.32242e-23)
(0.648864 0.645268 -1.43114e-21)
(0.611933 0.647717 -2.44586e-21)
(0.594993 0.57434 4.64607e-21)
(0.621327 0.390954 -4.33647e-21)
(0.683652 0.132216 6.99193e-22)
(0.760007 -0.12834 -1.98746e-21)
(0.829224 -0.33007 5.08773e-21)
(0.878583 -0.451966 -3.80601e-21)
(0.903584 -0.508092 1.26284e-21)
(0.907571 -0.522571 1.68974e-21)
(0.89986 -0.512909 -2.2817e-21)
(0.883537 -0.497942 -5.11879e-22)
(0.852391 -0.49652 1.18236e-21)
(0.0293529 -0.523741 3.0731e-21)
(0.100012 -0.328552 1.27617e-21)
(0.19524 -0.0916264 -1.93651e-21)
(0.301594 0.142584 2.41792e-21)
(0.408475 0.340687 4.34424e-21)
(0.503318 0.481922 -6.63344e-21)
(0.577521 0.567171 1.3063e-21)
(0.628903 0.607974 2.2882e-21)
(0.660022 0.620744 -1.2307e-21)
(0.66743 0.629287 4.03089e-21)
(0.646517 0.648684 -5.35637e-21)
(0.611969 0.651446 2.50351e-21)
(0.598754 0.575733 -4.75405e-21)
(0.628762 0.389185 3.67999e-22)
(0.693603 0.128205 -1.21478e-21)
(0.770983 -0.133144 4.4771e-21)
(0.839658 -0.334339 -2.39854e-21)
(0.887419 -0.454786 -2.01436e-21)
(0.910538 -0.509158 -1.71164e-22)
(0.912595 -0.52232 3.3124e-21)
(0.903112 -0.511809 1.23771e-21)
(0.885616 -0.495653 3.02426e-22)
(0.853952 -0.492585 -8.0043e-22)
(0.0291548 -0.533338 4.12065e-21)
(0.0902167 -0.345413 5.89709e-21)
(0.18094 -0.111181 -5.34861e-21)
(0.285429 0.122841 -1.16997e-20)
(0.392528 0.32301 -2.39522e-22)
(0.489028 0.467889 2.04812e-21)
(0.56586 0.557313 8.8049e-21)
(0.620395 0.601859 -5.5466e-21)
(0.654399 0.617935 2.42021e-21)
(0.663732 0.629788 -4.05196e-21)
(0.644316 0.651805 2.87839e-21)
(0.612256 0.654889 -1.2458e-21)
(0.602784 0.576999 2.48014e-21)
(0.636404 0.387551 -3.48217e-21)
(0.703704 0.12453 2.24301e-22)
(0.78208 -0.137529 -3.22605e-21)
(0.850188 -0.338203 5.53566e-21)
(0.896317 -0.457283 -3.07937e-21)
(0.917544 -0.509985 1.89416e-21)
(0.917695 -0.521893 -2.75749e-21)
(0.906454 -0.5106 5.71203e-22)
(0.8878 -0.493322 -2.62684e-21)
(0.855644 -0.488635 1.39975e-21)
(0.0321406 -0.541424 -5.60928e-22)
(0.0824984 -0.361498 7.75331e-21)
(0.168111 -0.130762 -8.89181e-21)
(0.270308 0.102739 1.82159e-21)
(0.377269 0.304805 -4.93537e-21)
(0.475147 0.453272 7.60904e-21)
(0.554439 0.546881 3.80901e-21)
(0.612037 0.59524 1.39934e-22)
(0.648859 0.614739 -5.08184e-21)
(0.660103 0.62998 8.84397e-22)
(0.642256 0.654615 6.22241e-21)
(0.61278 0.658041 -5.56231e-22)
(0.607057 0.578148 -6.20684e-21)
(0.644224 0.386067 -2.75124e-21)
(0.71393 0.121202 1.5482e-20)
(0.793278 -0.141491 -8.11259e-22)
(0.860805 -0.341662 -3.09902e-21)
(0.905273 -0.459457 8.40691e-22)
(0.924599 -0.51058 -1.35823e-21)
(0.922867 -0.521295 3.32721e-21)
(0.909888 -0.509286 -1.36637e-21)
(0.890088 -0.490956 3.42874e-21)
(0.857466 -0.48468 -1.62604e-21)
(0.80812 -0.487145 2.10336e-21)
(0.0384039 -0.547839 1.52892e-21)
(0.0769911 -0.376683 -6.96772e-21)
(0.156796 -0.150278 -1.07363e-21)
(0.256272 0.0823407 1.30743e-20)
(0.362729 0.286113 -6.20354e-21)
(0.461698 0.438091 -8.90134e-21)
(0.543272 0.535879 7.96915e-21)
(0.603829 0.588116 6.35257e-22)
(0.643398 0.611145 -5.31581e-21)
(0.656536 0.629846 -2.88731e-21)
(0.640326 0.657097 1.26026e-21)
(0.613521 0.6609 4.43612e-21)
(0.611546 0.57919 -1.18524e-20)
(0.652192 0.384745 1.8275e-21)
(0.724256 0.118229 2.62771e-21)
(0.80456 -0.145026 -1.44962e-20)
(0.871497 -0.344715 -3.10668e-21)
(0.914282 -0.46131 2.74823e-21)
(0.9317 -0.510947 1.13265e-20)
(0.928113 -0.520532 -3.88382e-21)
(0.913413 -0.507871 1.60786e-21)
(0.892479 -0.488561 -5.78681e-21)
(0.859417 -0.480728 9.91854e-22)
(0.80984 -0.482306 2.60997e-22)
(0.0479749 -0.552483 -7.54175e-21)
(0.0738442 -0.390803 1.83731e-21)
(0.147039 -0.169617 2.24714e-21)
(0.243357 0.0617117 -8.25396e-21)
(0.348938 0.266976 1.30331e-20)
(0.448704 0.422366 -8.53044e-21)
(0.532373 0.524315 6.15375e-21)
(0.595774 0.580484 -8.40477e-21)
(0.63801 0.607146 7.78514e-21)
(0.653024 0.629372 2.56169e-21)
(0.638517 0.659236 3.51345e-21)
(0.61446 0.663461 -1.04267e-20)
(0.616221 0.580136 3.43153e-21)
(0.66028 0.383598 -4.48688e-21)
(0.734656 0.115617 5.04997e-22)
(0.815907 -0.148133 1.27479e-20)
(0.882252 -0.347362 -2.66096e-21)
(0.923339 -0.462845 2.40642e-21)
(0.938843 -0.511092 1.5948e-21)
(0.933429 -0.51961 -2.75855e-21)
(0.917029 -0.50636 1.52932e-21)
(0.89497 -0.486143 -2.71132e-21)
(0.861493 -0.476787 1.82276e-21)
(0.811731 -0.477455 1.68254e-22)
(0.0608174 -0.555307 7.2733e-22)
(0.0732187 -0.403677 -9.48229e-21)
(0.138889 -0.188657 1.03968e-20)
(0.231591 0.0409147 -7.08835e-21)
(0.335923 0.247436 -5.5246e-21)
(0.436188 0.406122 1.07814e-21)
(0.521756 0.512194 2.1316e-21)
(0.587873 0.572344 -3.08347e-21)
(0.632687 0.602735 4.00533e-21)
(0.649558 0.628541 4.64098e-21)
(0.636819 0.661018 -9.78535e-21)
(0.615579 0.665722 2.94543e-21)
(0.621055 0.580993 8.84598e-21)
(0.668458 0.382636 -1.50058e-20)
(0.745105 0.113372 2.10802e-20)
(0.827299 -0.15081 5.17238e-21)
(0.893059 -0.349604 -6.16187e-21)
(0.932437 -0.464063 -3.71442e-21)
(0.946025 -0.51102 3.19058e-21)
(0.938814 -0.518534 -3.87529e-21)
(0.920737 -0.504757 3.25787e-21)
(0.897561 -0.483707 1.85661e-21)
(0.863692 -0.472866 1.81164e-24)
(0.813788 -0.472599 7.59648e-22)
(0.0768299 -0.556305 -4.39881e-21)
(0.0752776 -0.415129 -1.74344e-21)
(0.132403 -0.207264 -3.73099e-22)
(0.221002 0.0200689 2.83072e-21)
(0.323709 0.227543 -4.09887e-21)
(0.424171 0.389383 -1.12859e-21)
(0.511433 0.499528 5.47817e-23)
(0.580126 0.563698 5.14584e-21)
(0.627422 0.597903 -1.3519e-21)
(0.646131 0.62734 -7.93185e-22)
(0.635221 0.66243 -1.05564e-20)
(0.616857 0.667682 -3.12194e-21)
(0.62602 0.581771 8.0077e-21)
(0.676697 0.381867 1.41514e-21)
(0.75558 0.111498 4.10606e-22)
(0.838719 -0.153058 3.68993e-21)
(0.903906 -0.351442 -5.05352e-21)
(0.941572 -0.464967 -4.72238e-21)
(0.953242 -0.510735 -2.0901e-21)
(0.944266 -0.517309 2.79782e-21)
(0.924536 -0.503064 -4.06504e-21)
(0.900249 -0.481259 -8.62418e-23)
(0.86601 -0.468972 5.79813e-22)
(0.816007 -0.467746 -3.65961e-21)
(0.095854 -0.55551 3.63689e-21)
(0.0801695 -0.424972 -5.05379e-21)
(0.127665 -0.225307 1.67653e-21)
(0.211611 -0.000526878 4.33062e-21)
(0.312317 0.207346 1.35453e-21)
(0.412674 0.372176 -2.62753e-22)
(0.501416 0.486329 1.3134e-21)
(0.572533 0.554546 -5.3189e-21)
(0.622209 0.592644 3.76662e-21)
(0.642733 0.625754 -9.0773e-23)
(0.63371 0.663459 6.9971e-21)
(0.618271 0.669338 -1.80497e-21)
(0.631087 0.582475 -2.83911e-21)
(0.68497 0.381298 1.88646e-21)
(0.766057 0.109999 -1.07333e-20)
(0.850149 -0.154877 9.39668e-21)
(0.914781 -0.352879 -4.34466e-21)
(0.950737 -0.465559 4.23883e-21)
(0.96049 -0.510242 -6.9579e-22)
(0.949781 -0.515942 -3.26649e-21)
(0.928426 -0.501287 1.48566e-21)
(0.903032 -0.478803 -7.18549e-22)
(0.868444 -0.465113 3.65877e-21)
(0.818384 -0.462902 -2.41402e-21)
(0.117676 -0.553007 6.98524e-21)
(0.0880086 -0.43301 5.51034e-21)
(0.124793 -0.242663 2.98249e-23)
(0.203445 -0.0212566 4.37055e-21)
(0.301736 0.18688 5.55996e-22)
(0.401717 0.35453 -4.09562e-21)
(0.491717 0.472609 -4.12437e-22)
(0.565095 0.544894 2.10012e-21)
(0.617041 0.586953 4.53254e-21)
(0.639356 0.62377 -8.82074e-21)
(0.632274 0.664092 3.1114e-21)
(0.619803 0.670688 -4.55155e-21)
(0.636229 0.583112 1.16633e-20)
(0.693247 0.380936 -2.70028e-22)
(0.776511 0.108876 8.28283e-21)
(0.86157 -0.156268 -7.22151e-21)
(0.925672 -0.353918 -4.10584e-21)
(0.959927 -0.465841 4.01512e-21)
(0.967766 -0.509546 -2.91934e-21)
(0.955357 -0.514437 7.39718e-21)
(0.932405 -0.499427 -3.10786e-21)
(0.905908 -0.476342 3.07106e-21)
(0.87099 -0.461296 1.14509e-21)
(0.820914 -0.458075 -1.44623e-21)
(0.14203 -0.548963 4.84005e-21)
(0.0988584 -0.439193 9.40213e-22)
(0.123841 -0.259134 -2.99765e-21)
(0.196533 -0.0421419 1.52613e-21)
(0.292038 0.166211 1.81169e-21)
(0.39132 0.336474 1.61126e-21)
(0.482345 0.458385 -2.21469e-21)
(0.557809 0.534745 3.74857e-21)
(0.611908 0.580824 -8.06459e-21)
(0.63599 0.621376 -5.48605e-22)
(0.630901 0.66432 1.02453e-20)
(0.62143 0.671732 -1.12442e-20)
(0.641418 0.583688 -5.02914e-21)
(0.701502 0.380784 -3.04054e-21)
(0.786921 0.108129 3.0322e-21)
(0.872967 -0.157234 -1.38754e-21)
(0.936568 -0.35456 -6.54386e-21)
(0.969135 -0.465817 1.28939e-21)
(0.975064 -0.508651 6.05416e-21)
(0.960991 -0.512801 -8.44744e-22)
(0.936473 -0.497489 -3.16735e-21)
(0.908876 -0.473881 -2.33138e-21)
(0.873643 -0.457529 7.11425e-22)
(0.823592 -0.453273 2.51962e-21)
(0.168603 -0.543527 -3.57368e-21)
(0.112744 -0.443575 -3.34558e-21)
(0.124972 -0.274423 -3.37999e-21)
(0.19091 -0.0625964 6.15653e-21)
(0.283231 0.145397 -3.9587e-21)
(0.3815 0.318042 4.04671e-21)
(0.47331 0.443674 -1.29538e-21)
(0.550674 0.524107 -2.61016e-21)
(0.606804 0.574253 2.43017e-22)
(0.632626 0.618559 -6.33521e-21)
(0.629577 0.664132 -9.90307e-22)
(0.623131 0.672466 9.75306e-21)
(0.646628 0.584205 1.03216e-20)
(0.709707 0.380846 -1.25341e-20)
(0.797263 0.10776 -1.55015e-21)
(0.884323 -0.157778 1.69489e-21)
(0.947456 -0.35481 1.7353e-21)
(0.978354 -0.465489 -9.42967e-21)
(0.982382 -0.507561 4.88319e-21)
(0.966678 -0.511038 -2.28645e-21)
(0.940629 -0.495475 -2.47569e-21)
(0.911932 -0.471423 6.73996e-23)
(0.876398 -0.453818 -1.99624e-21)
(0.826412 -0.448503 6.21229e-23)
(0.197065 -0.536737 -1.60536e-20)
(0.129621 -0.446148 1.48344e-20)
(0.128369 -0.288324 -9.73051e-21)
(0.186617 -0.0825737 3.36219e-22)
(0.275322 0.124496 3.85806e-21)
(0.372271 0.299268 -2.79961e-21)
(0.464619 0.428496 -2.80718e-21)
(0.543687 0.512987 4.01781e-21)
(0.601721 0.567236 2.25701e-21)
(0.629254 0.615309 -5.85849e-21)
(0.628289 0.663518 3.84032e-21)
(0.624885 0.672889 -8.90821e-22)
(0.651832 0.584667 -3.51669e-21)
(0.717837 0.381123 1.31456e-20)
(0.807516 0.107765 1.09437e-20)
(0.895622 -0.157904 3.99487e-21)
(0.958324 -0.354671 -1.59672e-20)
(0.987578 -0.464859 6.22488e-21)
(0.989714 -0.506281 2.88629e-21)
(0.972416 -0.509155 -1.49451e-21)
(0.944872 -0.493389 2.17663e-21)
(0.915075 -0.468969 -8.59658e-23)
(0.879251 -0.450169 -1.8715e-21)
(0.82937 -0.443773 1.04969e-21)
(0.227063 -0.528674 -1.16332e-20)
(0.149351 -0.446931 7.94699e-21)
(0.134214 -0.30074 5.17624e-21)
(0.183718 -0.101981 -4.14732e-21)
(0.268325 0.103572 -7.96511e-21)
(0.363646 0.280189 4.89647e-21)
(0.456278 0.412873 -8.47656e-22)
(0.536844 0.501394 -3.58817e-21)
(0.596649 0.559771 -1.84441e-22)
(0.625865 0.611615 2.02424e-21)
(0.627024 0.662469 -8.12526e-23)
(0.626672 0.672999 4.34831e-21)
(0.657007 0.585076 6.46433e-21)
(0.725866 0.381616 -1.45654e-20)
(0.817659 0.108143 1.3581e-22)
(0.906848 -0.157615 1.64405e-21)
(0.969162 -0.354148 -1.42587e-21)
(0.996801 -0.463931 6.17504e-21)
(0.997058 -0.504814 5.66055e-21)
(0.978199 -0.507156 -5.88649e-21)
(0.9492 -0.491232 8.97339e-22)
(0.918303 -0.466523 7.70554e-22)
(0.882196 -0.446588 3.08436e-21)
(0.83246 -0.43909 -1.23161e-21)
(0.258259 -0.519668 -9.28183e-21)
(0.171719 -0.445879 4.18856e-22)
(0.142671 -0.311577 -6.15839e-21)
(0.182311 -0.12067 9.83864e-21)
(0.262257 0.0827024 -6.97263e-21)
(0.355636 0.260845 2.79714e-21)
(0.44829 0.396828 -6.04754e-21)
(0.53014 0.48934 1.14274e-20)
(0.591581 0.551857 -8.88494e-21)
(0.62245 0.607469 6.98696e-21)
(0.625768 0.660976 4.30405e-21)
(0.628473 0.672794 -8.64661e-21)
(0.662127 0.585432 -1.17226e-21)
(0.733768 0.382322 -9.6291e-21)
(0.827673 0.108889 7.13737e-21)
(0.917989 -0.156917 1.62673e-21)
(0.979957 -0.353246 -1.13965e-20)
(1.00601 -0.462708 6.16249e-21)
(1.00441 -0.503164 5.07314e-22)
(0.984024 -0.505046 -4.03113e-21)
(0.953611 -0.489008 1.46301e-22)
(0.921615 -0.464085 -1.71005e-21)
(0.885227 -0.443082 6.68605e-22)
(0.835676 -0.434462 -6.04867e-22)
(0.290347 -0.510079 6.28986e-21)
(0.19647 -0.443131 -1.42717e-21)
(0.153847 -0.32061 -2.30702e-21)
(0.18253 -0.13847 5.44105e-22)
(0.257144 0.0619728 -7.53271e-22)
(0.348248 0.24128 1.24332e-21)
(0.440656 0.380388 -1.49316e-21)
(0.523569 0.476836 4.93877e-21)
(0.586507 0.543491 1.03949e-21)
(0.618997 0.60286 3.97958e-21)
(0.624507 0.659033 -1.08627e-20)
(0.630267 0.672271 1.02465e-20)
(0.66717 0.585734 4.10366e-21)
(0.741521 0.38324 -2.2143e-21)
(0.837539 0.109998 -7.43485e-21)
(0.92903 -0.155815 1.01433e-20)
(0.990699 -0.351968 -5.31073e-21)
(1.01521 -0.461192 8.6051e-23)
(1.01176 -0.501334 1.0202e-20)
(0.989886 -0.502832 -1.17235e-21)
(0.958103 -0.48672 -2.69569e-23)
(0.925008 -0.461656 4.84819e-21)
(0.888339 -0.439654 -8.93542e-22)
(0.839013 -0.429896 -3.3861e-22)
(0.323001 -0.500108 -5.958e-21)
(0.223298 -0.438925 1.38595e-21)
(0.1678 -0.327659 -1.10619e-21)
(0.184516 -0.155206 7.05767e-21)
(0.253018 0.0414787 -1.98144e-21)
(0.341487 0.221539 5.23826e-22)
(0.433374 0.363579 2.00264e-22)
(0.517125 0.463896 -9.09675e-21)
(0.581418 0.534675 6.12669e-22)
(0.615499 0.597783 8.643e-21)
(0.62323 0.656632 4.71902e-21)
(0.632038 0.671427 -5.20765e-21)
(0.672113 0.585983 1.25613e-21)
(0.749102 0.384366 2.20196e-21)
(0.84724 0.111466 6.21153e-21)
(0.939961 -0.154315 -9.71994e-21)
(1.00138 -0.35032 -1.87316e-20)
(1.02438 -0.459387 6.30731e-21)
(1.01912 -0.499327 -2.33833e-21)
(0.995781 -0.500517 -5.4698e-21)
(0.962673 -0.48437 2.96821e-21)
(0.928482 -0.459238 2.64671e-22)
(0.891526 -0.436309 2.52406e-22)
(0.842461 -0.4254 -7.80191e-22)
(0.355912 -0.489919 9.5186e-21)
(0.251865 -0.433428 4.36687e-21)
(0.18451 -0.33276 -5.0588e-21)
(0.188442 -0.170701 3.92027e-21)
(0.249934 0.0213727 -1.49671e-21)
(0.335361 0.201679 -6.66335e-22)
(0.426443 0.346432 5.13202e-21)
(0.5108 0.450533 -3.97938e-22)
(0.576305 0.52541 8.1724e-23)
(0.611944 0.592229 -1.35331e-21)
(0.621922 0.653766 -5.55743e-21)
(0.633767 0.670257 1.35557e-20)
(0.676938 0.586174 -4.11574e-21)
(0.756489 0.385695 1.5331e-20)
(0.85676 0.113283 -2.26117e-20)
(0.950772 -0.152424 -1.20276e-20)
(1.01198 -0.348307 2.36042e-20)
(1.03353 -0.457296 -5.65344e-21)
(1.02646 -0.497146 -8.43616e-22)
(1.0017 -0.498107 5.50249e-21)
(0.967318 -0.481962 -4.09989e-21)
(0.932034 -0.45683 5.77984e-23)
(0.894783 -0.433051 -5.79614e-22)
(0.846016 -0.420982 2.05505e-21)
(0.281812 -0.426839 -5.60926e-21)
(0.203879 -0.335966 -2.15325e-22)
(0.194493 -0.184787 1.54835e-21)
(0.247966 0.00195921 2.82231e-21)
(0.329877 0.181761 1.69383e-21)
(0.419857 0.328979 1.81427e-21)
(0.504584 0.436765 -4.46131e-21)
(0.571158 0.515697 1.72047e-22)
(0.608325 0.586194 1.80872e-21)
(0.620573 0.650428 1.68373e-21)
(0.635439 0.668759 -2.9766e-21)
(0.681623 0.586304 -3.73211e-21)
(0.763661 0.387221 -1.4866e-20)
(0.866086 0.115442 -7.03193e-22)
(0.961453 -0.150148 4.59226e-21)
(1.0225 -0.345934 9.5451e-21)
(1.04263 -0.454922 -5.13187e-21)
(1.0338 -0.494794 -7.8458e-21)
(1.00765 -0.495606 3.03512e-21)
(0.972036 -0.479498 7.98105e-22)
(0.935665 -0.454431 5.76281e-22)
(0.898105 -0.429884 3.36882e-21)
(0.849668 -0.416649 1.17334e-21)
(0.31278 -0.419378 -4.28958e-22)
(0.225731 -0.33736 8.15456e-22)
(0.202858 -0.197309 -2.49687e-21)
(0.247218 -0.0169842 8.97202e-23)
(0.32503 0.161841 2.83648e-21)
(0.413611 0.311254 -4.54033e-21)
(0.498469 0.422607 -7.50767e-23)
(0.56597 0.50554 7.74066e-22)
(0.60463 0.579672 4.77554e-21)
(0.61917 0.646612 -1.0425e-20)
(0.637038 0.666928 -9.83832e-22)
(0.686151 0.586369 2.53194e-20)
(0.770599 0.388937 -8.81036e-21)
(0.875206 0.117934 5.16277e-21)
(0.971999 -0.147494 2.83252e-21)
(1.03292 -0.343206 -1.88042e-20)
(1.05168 -0.452269 1.59679e-20)
(1.04112 -0.492274 -1.07056e-20)
(1.01362 -0.493018 7.19142e-21)
(0.976823 -0.47698 -5.54118e-21)
(0.939372 -0.452042 -5.15796e-21)
(0.901486 -0.426809 1.42158e-21)
(0.853409 -0.412408 1.17949e-21)
(0.344417 -0.411267 3.06344e-21)
(0.249821 -0.337062 -1.32093e-21)
(0.21363 -0.20817 1.08592e-21)
(0.247825 -0.0354063 4.30702e-22)
(0.320886 0.14202 6.89423e-22)
(0.407703 0.293297 -1.80294e-21)
(0.492446 0.408079 -1.70659e-22)
(0.56073 0.494944 3.94164e-21)
(0.600853 0.57266 1.68831e-21)
(0.617701 0.642314 3.90203e-21)
(0.638551 0.664759 -1.02048e-20)
(0.690505 0.586363 1.26892e-20)
(0.777287 0.390833 -1.15839e-21)
(0.884114 0.120749 5.05347e-21)
(0.982406 -0.14447 -2.20718e-20)
(1.04325 -0.340128 3.18944e-20)
(1.06068 -0.449339 -4.95081e-22)
(1.04843 -0.489588 -1.45209e-20)
(1.0196 -0.490349 1.02097e-20)
(0.981676 -0.474413 9.27489e-22)
(0.943154 -0.449661 -5.08054e-22)
(0.904921 -0.423828 -4.93387e-21)
(0.857231 -0.408267 2.86862e-22)
(0.376395 -0.402727 6.12349e-21)
(0.27585 -0.335228 -1.98558e-21)
(0.226895 -0.217278 -8.99163e-22)
(0.24995 -0.0527743 1.0583e-22)
(0.317488 0.122389 1.27414e-21)
(0.402135 0.275153 -1.07266e-21)
(0.486507 0.393202 2.56022e-21)
(0.555431 0.483912 -5.72867e-22)
(0.596983 0.565155 2.66815e-21)
(0.616158 0.637528 -3.77524e-21)
(0.639966 0.662246 9.63786e-23)
(0.694671 0.586279 -1.87467e-20)
(0.783706 0.3929 7.57487e-21)
(0.892805 0.123875 -3.90366e-21)
(0.992672 -0.141084 -1.0409e-20)
(1.05346 -0.336703 1.85931e-20)
(1.06962 -0.446136 -1.34147e-20)
(1.05571 -0.486737 1.36356e-20)
(1.02559 -0.487601 -4.45435e-21)
(0.986589 -0.471799 -5.91783e-22)
(0.947011 -0.447286 -2.83449e-21)
(0.908408 -0.420943 -1.64433e-21)
(0.861125 -0.404232 -1.09049e-21)
(0.40841 -0.393967 1.76329e-21)
(0.303482 -0.332045 -1.2911e-21)
(0.242663 -0.224593 1.26965e-21)
(0.253773 -0.0689654 -9.19016e-22)
(0.314903 0.103056 1.94083e-21)
(0.396919 0.256871 -2.85946e-21)
(0.480648 0.377999 -2.42491e-22)
(0.550065 0.472454 -2.90243e-21)
(0.593015 0.557155 3.01881e-21)
(0.614528 0.632249 -5.1969e-21)
(0.64127 0.659382 1.68393e-20)
(0.698633 0.58611 -1.8468e-20)
(0.789845 0.395127 2.84428e-20)
(0.901282 0.127299 -1.84362e-20)
(1.0028 -0.137342 6.21698e-21)
(1.06355 -0.332937 8.48818e-21)
(1.07847 -0.442663 -1.73826e-20)
(1.06296 -0.483724 -1.18162e-21)
(1.03158 -0.484779 1.42866e-20)
(0.99156 -0.469141 -2.06862e-21)
(0.950941 -0.444918 1.83166e-21)
(0.911941 -0.418154 -1.38085e-21)
(0.865082 -0.400311 -1.01091e-21)
(0.440193 -0.38518 -1.53461e-21)
(0.332365 -0.327721 -4.08062e-21)
(0.260859 -0.230126 8.8703e-22)
(0.259477 -0.0838585 5.84472e-23)
(0.313234 0.0841434 1.52092e-22)
(0.392079 0.238514 -1.21338e-21)
(0.474868 0.362495 2.78128e-21)
(0.544629 0.460576 -2.60119e-21)
(0.588941 0.548659 -2.7489e-21)
(0.612805 0.626472 9.72389e-21)
(0.642456 0.656163 -8.64084e-21)
(0.702378 0.585848 6.17063e-21)
(0.795691 0.397499 1.14678e-20)
(0.909552 0.131007 1.37355e-20)
(1.0128 -0.133252 -2.40187e-20)
(1.07352 -0.328832 -1.3052e-20)
(1.08725 -0.438922 1.10467e-20)
(1.07018 -0.48055 4.43582e-21)
(1.03758 -0.481885 -7.0656e-21)
(0.996583 -0.466442 7.81076e-22)
(0.954943 -0.442553 -2.721e-21)
(0.915517 -0.415459 2.61377e-21)
(0.869093 -0.39651 2.26173e-21)
(0.471509 -0.376534 -2.03154e-21)
(0.36214 -0.322476 3.58501e-22)
(0.281325 -0.233937 -4.75378e-22)
(0.267227 -0.0973421 1.7474e-22)
(0.312616 0.0657899 2.12447e-22)
(0.387659 0.22015 -2.54609e-22)
(0.469177 0.346721 1.16014e-21)
(0.53912 0.44829 8.1937e-22)
(0.584757 0.539668 -6.37896e-21)
(0.61098 0.620195 6.07318e-21)
(0.643514 0.65258 -6.14874e-22)
(0.705894 0.585482 -1.17903e-20)
(0.801237 0.400003 -9.54592e-21)
(0.917636 0.134984 6.0005e-21)
(1.02268 -0.128822 6.25678e-22)
(1.08336 -0.324391 -1.37329e-20)
(1.09593 -0.434915 2.03688e-20)
(1.07737 -0.477217 -1.52522e-20)
(1.04358 -0.478922 1.60151e-20)
(1.00165 -0.463706 -3.76598e-21)
(0.959015 -0.44019 -3.36828e-21)
(0.919133 -0.412858 -5.10117e-22)
(0.873148 -0.392835 -2.18826e-21)
(0.502162 -0.36818 4.43249e-21)
(0.392465 -0.316541 -6.45097e-22)
(0.303829 -0.236132 3.5101e-22)
(0.277144 -0.109324 -6.89297e-22)
(0.313214 0.0481387 -8.75852e-24)
(0.383732 0.201863 1.91304e-22)
(0.463595 0.330714 3.56817e-22)
(0.533543 0.435609 -8.42085e-24)
(0.580458 0.530185 2.37464e-21)
(0.609046 0.613413 6.38086e-21)
(0.644437 0.648627 -7.75159e-21)
(0.709169 0.585002 -2.60355e-21)
(0.806482 0.40262 -1.29753e-20)
(0.925568 0.139212 4.18025e-20)
(1.03246 -0.124056 -2.23063e-20)
(1.09305 -0.319615 8.50983e-21)
(1.10451 -0.430647 6.24538e-21)
(1.08451 -0.473729 -1.22687e-20)
(1.04957 -0.475896 -6.34742e-21)
(1.00677 -0.460937 3.11737e-21)
(0.963157 -0.43783 2.19703e-21)
(0.922787 -0.41035 -3.4558e-21)
(0.87724 -0.389292 -2.41638e-21)
(0.531996 -0.360255 3.9672e-21)
(0.423019 -0.310147 5.55264e-22)
(0.328086 -0.236857 -2.70083e-22)
(0.289289 -0.119746 -1.84815e-21)
(0.315215 0.0313265 2.34922e-21)
(0.380403 0.183743 -5.13895e-22)
(0.458162 0.314516 -3.1599e-22)
(0.527909 0.422549 2.90316e-21)
(0.576045 0.520214 -8.58317e-22)
(0.606999 0.606124 -1.98085e-21)
(0.645221 0.644296 -5.31605e-21)
(0.71219 0.584397 1.41437e-20)
(0.811437 0.405331 -1.36211e-20)
(0.933404 0.143676 2.29594e-20)
(1.04216 -0.118955 -1.46527e-20)
(1.1026 -0.314504 -8.10617e-21)
(1.11298 -0.426124 3.05033e-21)
(1.0916 -0.470091 1.02638e-20)
(1.05555 -0.472814 -1.26784e-20)
(1.01192 -0.458143 6.41973e-21)
(0.967366 -0.435472 6.57538e-21)
(0.926477 -0.407933 -7.87344e-21)
(0.88136 -0.385887 2.72716e-21)
(0.56089 -0.352844 -2.5334e-21)
(0.453514 -0.303493 2.21432e-21)
(0.353775 -0.236268 1.17391e-22)
(0.303639 -0.128576 -5.67908e-22)
(0.318809 0.0155157 -8.62382e-23)
(0.377819 0.165898 1.56365e-21)
(0.452946 0.298178 -1.13269e-21)
(0.522243 0.409132 5.40488e-22)
(0.571524 0.509762 2.687e-21)
(0.604837 0.598327 2.44055e-21)
(0.645863 0.63958 -1.17741e-20)
(0.714946 0.583655 1.09287e-20)
(0.816132 0.408115 1.6555e-21)
(0.941235 0.14836 -3.60283e-21)
(1.05183 -0.113521 -8.85465e-21)
(1.112 -0.309059 1.5464e-20)
(1.12132 -0.421345 -6.88598e-21)
(1.09864 -0.466299 7.24411e-21)
(1.06151 -0.46967 -4.60051e-21)
(1.01711 -0.455318 3.17883e-21)
(0.971641 -0.43311 -3.4533e-21)
(0.930201 -0.4056 1.68254e-21)
(0.885501 -0.38262 -1.86388e-21)
(0.588758 -0.34591 3.05554e-21)
(0.483697 -0.296688 1.13359e-21)
(0.380564 -0.234492 -5.62438e-22)
(0.320092 -0.135787 -1.5958e-21)
(0.324167 0.000974266 2.47711e-21)
(0.376167 0.148457 3.08543e-22)
(0.448058 0.281768 -5.23747e-22)
(0.516596 0.395386 1.94014e-21)
(0.566913 0.498838 -2.31613e-21)
(0.602564 0.59002 -2.5753e-21)
(0.646362 0.63447 7.63486e-21)
(0.71743 0.582754 -2.33955e-20)
(0.820645 0.410927 4.96301e-21)
(0.949205 0.153208 2.63869e-20)
(1.06151 -0.107789 -2.6722e-20)
(1.12122 -0.303283 1.11466e-20)
(1.12951 -0.416288 -5.96701e-23)
(1.10562 -0.462316 5.21292e-21)
(1.06746 -0.466426 -1.95204e-21)
(1.02232 -0.452436 -1.17428e-21)
(0.97598 -0.430719 2.15899e-21)
(0.933957 -0.403329 -4.77609e-21)
(0.889653 -0.379481 2.96627e-21)
(0.615534 -0.339439 -3.81506e-21)
(0.513351 -0.289873 1.93973e-21)
(0.408118 -0.231715 9.61054e-22)
(0.338466 -0.141431 3.33967e-22)
(0.331411 -0.0124404 -9.79441e-22)
(0.375663 0.131545 -5.93122e-22)
(0.443667 0.265376 -2.74129e-22)
(0.511059 0.381359 5.37659e-23)
(0.562253 0.487464 -4.65438e-22)
(0.600201 0.581202 -2.70904e-21)
(0.646731 0.628947 -6.60268e-21)
(0.71966 0.581646 1.41723e-20)
(0.825149 0.413669 -1.87474e-20)
(0.957539 0.158129 3.37959e-20)
(1.07125 -0.10178 -3.31341e-20)
(1.13028 -0.297152 1.63659e-20)
(1.13757 -0.410927 -6.67718e-21)
(1.11253 -0.458129 1.60589e-21)
(1.07339 -0.463084 1.29743e-21)
(1.02756 -0.449505 2.65275e-21)
(0.98038 -0.428305 -2.08469e-21)
(0.937744 -0.401125 -2.27663e-21)
(0.893811 -0.376485 3.13584e-21)
(0.542294 -0.283682 1.06553e-21)
(0.436127 -0.228534 2.35914e-21)
(0.358487 -0.145928 1.18768e-21)
(0.340594 -0.0249493 -4.09956e-21)
(0.376587 0.115165 1.99228e-21)
(0.44003 0.249039 -5.02111e-22)
(0.505807 0.36709 -5.05489e-22)
(0.55765 0.47567 -2.65474e-21)
(0.597825 0.571902 1.79865e-21)
(0.647032 0.62303 -1.29407e-21)
(0.72175 0.580332 -4.43186e-21)
(0.830045 0.416403 2.77633e-20)
(0.966605 0.163374 -2.44919e-20)
(1.08115 -0.0952236 1.44053e-20)
(1.13915 -0.290596 -2.20758e-20)
(1.14546 -0.405398 2.06804e-20)
(1.11937 -0.45396 -1.15424e-20)
(1.07929 -0.459869 -2.82164e-21)
(1.03282 -0.446717 7.28113e-21)
(0.984837 -0.426017 -4.29309e-21)
(0.941562 -0.399097 -1.34701e-21)
(0.897967 -0.373721 1.76912e-21)
(0.570417 -0.278899 -5.32256e-22)
(0.464341 -0.225554 -1.58979e-21)
(0.379892 -0.149664 -2.54113e-21)
(0.351693 -0.0366089 2.56959e-21)
(0.379214 0.0991087 1.94026e-21)
(0.437534 0.232622 -7.93733e-22)
(0.501176 0.352487 5.85896e-22)
(0.55337 0.46341 -1.3647e-21)
(0.595709 0.562199 6.82587e-21)