/*--------------------------------*- C++ -*----------------------------------*\
  =========                 |
  \\      /  F ield         | OpenFOAM: The Open Source CFD Toolbox
   \\    /   O peration     | Website:  https://openfoam.org
    \\  /    A nd           | Version:  7
     \\/     M anipulation  |
\*---------------------------------------------------------------------------*/
FoamFile
{
    version     2.0;
    format      ascii;
    class       volVectorField;
    location    "240";
    object      U;
}
// * * * * * * * * * * * * * * * * * * * * * * * * * * * * * * * * * * * * * //

dimensions      [0 1 -1 0 0 0 0];

internalField   nonuniform List<vector> 
4575
(
(0.734156 0.0138144 -2.01862e-22)
(0.776996 -0.191539 -5.6457e-23)
(0.820146 -0.337892 9.74826e-23)
(0.85479 -0.418839 8.61536e-24)
(0.878313 -0.450122 -4.53852e-23)
(0.88616 -0.461895 1.60371e-22)
(0.871922 -0.478302 7.06358e-23)
(0.836371 -0.491649 -1.76482e-24)
(0.792651 -0.465015 3.95077e-23)
(0.758833 -0.368262 -3.0793e-23)
(0.745202 -0.207615 1.66507e-22)
(0.753661 -0.0214139 2.57253e-23)
(0.780221 0.146902 3.77531e-23)
(0.815688 0.269253 -1.7928e-22)
(0.845552 0.345115 -8.25716e-23)
(0.855782 0.391231 -4.73378e-24)
(0.840645 0.419689 -4.31411e-23)
(0.808462 0.419235 -6.94927e-23)
(0.775625 0.365996 8.14404e-23)
(0.757494 0.252994 -7.94171e-23)
(0.759614 0.0990661 2.46361e-23)
(0.780894 -0.054494 2.8603e-23)
(0.808388 -0.18292 2.6901e-23)
(0.825182 -0.275376 -2.93898e-23)
(0.739318 0.0106674 -3.0707e-22)
(0.782423 -0.195439 -7.35116e-22)
(0.825111 -0.341411 2.8084e-22)
(0.858597 -0.421442 -3.30643e-22)
(0.880749 -0.451494 1.06134e-22)
(0.887502 -0.46157 2.19548e-22)
(0.872545 -0.476089 -1.37885e-22)
(0.836364 -0.488227 1.0424e-22)
(0.791746 -0.461771 -7.21776e-23)
(0.756967 -0.366386 8.19871e-23)
(0.74277 -0.207548 2.08891e-22)
(0.751184 -0.0229819 -1.2228e-22)
(0.77814 0.14431 2.13384e-22)
(0.814199 0.266616 -1.88102e-22)
(0.844568 0.343519 2.11407e-22)
(0.855145 0.391356 1.36584e-22)
(0.840283 0.421373 7.90567e-23)
(0.808446 0.421552 5.83038e-23)
(0.776009 0.367836 -2.43468e-22)
(0.758058 0.253648 -1.95868e-23)
(0.76005 0.0984003 -3.44589e-22)
(0.781177 -0.056011 6.26418e-23)
(0.80875 -0.184295 -1.08872e-22)
(0.825743 -0.275747 -2.44102e-22)
(0.744627 0.00778915 3.66167e-22)
(0.787967 -0.199081 3.24809e-22)
(0.830177 -0.344702 6.4135e-23)
(0.862498 -0.423859 4.05798e-22)
(0.883272 -0.452734 -6.19256e-22)
(0.888938 -0.461155 1.40403e-22)
(0.873284 -0.473808 -2.13898e-22)
(0.836513 -0.484753 -1.25002e-22)
(0.791031 -0.458518 -4.7004e-22)
(0.755285 -0.364583 3.55963e-22)
(0.740495 -0.207632 -5.50619e-22)
(0.748844 -0.024736 8.75877e-23)
(0.776178 0.141545 2.26722e-22)
(0.812808 0.263847 -2.51862e-22)
(0.843676 0.341836 4.15361e-22)
(0.85461 0.391424 -2.1951e-22)
(0.840041 0.42302 4.32794e-22)
(0.808573 0.423863 2.65803e-22)
(0.776545 0.369719 2.07326e-22)
(0.758767 0.254399 2.65986e-24)
(0.760607 0.0978524 5.23658e-22)
(0.781556 -0.057432 -5.89784e-22)
(0.809195 -0.185611 1.09817e-22)
(0.826395 -0.276081 3.56069e-22)
(0.75008 0.00518778 -9.47909e-22)
(0.793624 -0.20246 8.48866e-22)
(0.835344 -0.347763 -9.60075e-22)
(0.866493 -0.42609 -1.03021e-21)
(0.885883 -0.453843 1.57037e-21)
(0.89047 -0.460657 -9.90875e-22)
(0.874141 -0.471466 3.73271e-22)
(0.836819 -0.481234 4.56091e-22)
(0.790508 -0.455257 -6.36605e-22)
(0.75379 -0.362847 1.02547e-21)
(0.738381 -0.207861 -2.67339e-22)
(0.746643 -0.0266712 6.98874e-22)
(0.774333 0.138607 -3.28228e-22)
(0.811515 0.260947 1.07585e-21)
(0.842877 0.340063 1.02483e-22)
(0.854175 0.391431 -2.44367e-22)
(0.839919 0.424627 -5.25708e-22)
(0.808844 0.426166 -6.41547e-22)
(0.777235 0.371646 -1.2674e-22)
(0.759619 0.25525 1.00504e-22)
(0.761288 0.0974255 -2.31752e-22)
(0.782032 -0.0587549 7.4049e-22)
(0.809724 -0.186869 -7.1102e-23)
(0.827138 -0.276379 1.13443e-22)
(0.755672 0.00287039 9.3699e-22)
(0.799392 -0.205572 -4.4433e-22)
(0.840611 -0.350595 5.5979e-23)
(0.870584 -0.428137 1.4431e-22)
(0.888584 -0.454826 -7.09624e-22)
(0.892099 -0.460081 1.28303e-21)
(0.875115 -0.46907 3.7547e-22)
(0.83728 -0.477673 6.60095e-23)
(0.79018 -0.451989 4.3332e-22)
(0.752486 -0.361175 -9.78244e-22)
(0.736433 -0.208227 -1.11545e-22)
(0.744583 -0.0287828 -7.76741e-22)
(0.772605 0.135503 -6.65169e-22)
(0.810317 0.257916 -1.01909e-21)
(0.842168 0.338199 -8.26012e-22)
(0.853841 0.391373 1.02019e-21)
(0.839916 0.42619 4.83905e-22)
(0.809259 0.428459 1.28306e-22)
(0.778079 0.373618 1.92562e-22)
(0.760618 0.256203 -2.30002e-22)
(0.762096 0.0971226 8.69853e-22)
(0.782608 -0.0599775 -5.7592e-22)
(0.810337 -0.188068 4.35257e-22)
(0.827971 -0.276643 4.35245e-22)
(0.761398 0.000844297 -1.0323e-21)
(0.805268 -0.208414 -1.60878e-21)
(0.845976 -0.353197 1.45404e-22)
(0.874771 -0.430002 9.00121e-22)
(0.891374 -0.455686 -6.93408e-23)
(0.893825 -0.459432 -2.2256e-22)
(0.876207 -0.466627 -1.06132e-21)
(0.837897 -0.474077 -5.14789e-24)
(0.790048 -0.448714 1.00359e-22)
(0.75138 -0.35956 -1.18231e-21)
(0.734652 -0.208726 6.46351e-22)
(0.742662 -0.0310654 -1.59475e-22)
(0.770991 0.132233 1.38208e-22)
(0.809213 0.254754 1.23e-21)
(0.841548 0.33624 -3.62899e-23)
(0.853606 0.391245 -4.01443e-22)
(0.840033 0.427705 -2.04796e-22)
(0.809818 0.43074 7.61796e-22)
(0.779076 0.375635 3.55603e-23)
(0.761762 0.257259 -3.70974e-23)
(0.763032 0.0969467 3.90679e-22)
(0.783286 -0.0610976 -1.37914e-21)
(0.811034 -0.189209 -3.33481e-22)
(0.828893 -0.276875 -1.03708e-21)
(0.767253 -0.000882814 3.93708e-22)
(0.811248 -0.210983 4.8544e-22)
(0.851437 -0.355571 9.62503e-22)
(0.879054 -0.431686 -1.09727e-21)
(0.894256 -0.456425 2.65448e-21)
(0.895648 -0.458716 7.94868e-22)
(0.877418 -0.464144 9.52733e-24)
(0.838667 -0.470451 -7.9331e-22)
(0.790114 -0.445431 4.72497e-22)
(0.750474 -0.357999 9.63368e-22)
(0.733042 -0.20935 9.03162e-22)
(0.740881 -0.0335126 -1.70699e-22)
(0.76949 0.128803 -7.1825e-22)
(0.808201 0.251463 -4.40735e-22)
(0.841016 0.334184 -2.44977e-23)
(0.853468 0.391043 -7.72156e-22)
(0.840269 0.429168 7.99306e-23)
(0.81052 0.433006 -2.93159e-22)
(0.780226 0.377697 -6.60907e-22)
(0.763053 0.258421 4.36061e-22)
(0.764097 0.0969006 -7.63221e-22)
(0.784066 -0.0621128 1.35128e-21)
(0.811815 -0.190292 8.89245e-23)
(0.829903 -0.277075 1.01645e-21)
(0.77323 -0.00230467 -1.04467e-21)
(0.817327 -0.213274 -7.39176e-22)
(0.856991 -0.357715 2.04289e-21)
(0.883433 -0.43319 6.32228e-22)
(0.897229 -0.457046 -2.11033e-21)
(0.897568 -0.457938 4.38716e-22)
(0.878747 -0.461627 -1.65957e-22)
(0.839591 -0.466801 1.86929e-21)
(0.790376 -0.442143 -3.14351e-21)
(0.749772 -0.356486 5.66486e-22)
(0.731605 -0.210092 -1.54283e-21)
(0.739241 -0.0361181 2.35893e-21)
(0.7681 0.125217 1.72228e-22)
(0.807279 0.248043 9.7792e-22)
(0.840569 0.332029 3.40221e-22)
(0.853425 0.390764 -8.7024e-23)
(0.840623 0.430574 2.10074e-22)
(0.811364 0.435254 1.5582e-22)
(0.781528 0.379804 8.48712e-22)
(0.764491 0.259691 -9.92731e-22)
(0.765295 0.0969871 -8.607e-22)
(0.784951 -0.0630207 2.48375e-22)
(0.81268 -0.191315 -1.83259e-21)
(0.831001 -0.277246 3.74741e-22)
(0.779323 -0.0034147 2.67392e-21)
(0.823501 -0.215286 1.1481e-21)
(0.862635 -0.35963 -3.88367e-21)
(0.887908 -0.434517 1.25183e-22)
(0.900294 -0.457552 -9.58043e-23)
(0.899585 -0.457103 -8.76727e-22)
(0.880193 -0.459082 2.77399e-22)
(0.840665 -0.46313 -2.74629e-22)
(0.790836 -0.43885 6.63878e-22)
(0.749277 -0.355016 -1.97478e-21)
(0.730345 -0.210944 1.56568e-21)
(0.737742 -0.0388755 -4.66206e-23)
(0.766819 0.121477 -1.72827e-21)
(0.806444 0.244494 4.71805e-22)
(0.840206 0.329772 2.59951e-21)
(0.853476 0.390403 -1.3123e-22)
(0.841093 0.43192 -9.29736e-22)
(0.812349 0.437483 1.42387e-21)
(0.782981 0.381955 -5.1319e-22)
(0.766075 0.261069 -6.17327e-22)
(0.766625 0.0972087 1.25484e-21)
(0.785942 -0.0638189 3.03214e-22)
(0.813629 -0.192279 2.61797e-21)
(0.832184 -0.277389 -4.71226e-22)
(0.785523 -0.00420747 -4.18514e-21)
(0.829766 -0.217013 9.14215e-22)
(0.868367 -0.361317 4.14479e-21)
(0.892479 -0.435666 -1.32738e-21)
(0.903452 -0.457946 7.49936e-22)
(0.901697 -0.456216 2.84662e-22)
(0.881755 -0.456517 -7.28456e-23)
(0.841888 -0.459446 -6.90365e-22)
(0.79149 -0.435552 -5.93414e-22)
(0.748992 -0.353584 1.53415e-21)
(0.729264 -0.211899 3.39821e-22)
(0.736382 -0.0417788 1.11084e-21)
(0.765645 0.117588 -1.76735e-21)
(0.805695 0.240817 5.71571e-22)
(0.839923 0.327411 -1.22685e-21)
(0.853618 0.389956 6.49192e-22)
(0.841679 0.433202 -2.80069e-22)
(0.813474 0.43969 1.84749e-21)
(0.784583 0.384151 -2.69691e-21)
(0.767805 0.262557 -1.38746e-21)
(0.768088 0.0975678 2.48118e-22)
(0.78704 -0.0645047 -2.86105e-22)
(0.814661 -0.193184 -8.08914e-22)
(0.833452 -0.277506 -5.46453e-22)
(0.836118 -0.218455 2.5291e-21)
(0.874184 -0.362776 8.49684e-22)
(0.897143 -0.436641 1.53537e-21)
(0.906701 -0.458229 -1.86494e-21)
(0.903904 -0.455283 1.17262e-21)
(0.883433 -0.453937 -1.29946e-21)
(0.843256 -0.455753 1.22117e-22)
(0.792337 -0.43225 3.98418e-22)
(0.748919 -0.352185 -5.59556e-22)
(0.728365 -0.212949 -3.04145e-22)
(0.735163 -0.0448217 -1.63597e-21)
(0.764577 0.113554 1.07287e-21)
(0.805029 0.237013 -2.30787e-22)
(0.839719 0.324944 -4.7426e-22)
(0.85385 0.389419 -1.25699e-21)
(0.842378 0.434414 -1.90214e-22)
(0.814736 0.441871 2.60331e-25)
(0.786331 0.386389 2.17366e-21)
(0.76968 0.264155 2.68703e-21)
(0.769686 0.0980668 2.08463e-22)
(0.788248 -0.0650756 -1.23388e-22)
(0.815778 -0.194027 -1.13273e-21)
(0.834803 -0.277596 2.6481e-22)
(0.842549 -0.219607 -1.78553e-21)
(0.88008 -0.364006 1.46958e-21)
(0.9019 -0.437442 -2.43941e-21)
(0.910044 -0.458403 -4.56746e-23)
(0.906204 -0.454306 1.3622e-21)
(0.885224 -0.451349 5.62034e-23)
(0.844768 -0.452056 3.62399e-22)
(0.793374 -0.428947 1.08761e-22)
(0.749059 -0.350814 1.99394e-21)
(0.727649 -0.214084 -2.0617e-22)
(0.734084 -0.0479962 -8.34815e-22)
(0.763612 0.10938 -3.66468e-22)
(0.804443 0.233083 1.66817e-22)
(0.839589 0.322368 -1.06151e-21)
(0.854168 0.388788 -4.62786e-22)
(0.843189 0.435553 -1.5872e-22)
(0.816133 0.444025 -2.62777e-21)
(0.788225 0.38867 3.01697e-21)
(0.771698 0.265865 -4.29305e-21)
(0.771419 0.0987078 -1.3521e-21)
(0.789565 -0.065529 1.15669e-21)
(0.816978 -0.194809 -1.01505e-21)
(0.836235 -0.277663 4.64473e-22)
(0.849057 -0.220467 6.29379e-22)
(0.886054 -0.365009 1.9194e-21)
(0.906748 -0.438072 -2.51419e-22)
(0.913479 -0.458471 -1.48708e-21)
(0.908596 -0.453291 1.18949e-21)
(0.887127 -0.448757 -1.83374e-21)
(0.846421 -0.44836 1.19687e-21)
(0.794597 -0.425642 -1.77243e-21)
(0.749413 -0.349466 3.4092e-22)
(0.727119 -0.215298 2.57869e-21)
(0.733145 -0.051294 -2.90056e-21)
(0.762748 0.105069 1.73415e-22)
(0.803934 0.229026 -1.25779e-21)
(0.839531 0.31968 2.76861e-21)
(0.85457 0.388058 -7.40169e-23)
(0.844109 0.436615 -1.06042e-21)
(0.817662 0.446148 9.66067e-22)
(0.79026 0.390992 2.23724e-22)
(0.773859 0.267687 -1.32966e-22)
(0.773287 0.0994926 1.77449e-21)
(0.790994 -0.0658622 -1.80381e-21)
(0.818262 -0.195528 2.42087e-21)
(0.837746 -0.277706 -1.72554e-22)
(0.855634 -0.221033 8.93057e-21)
(0.8921 -0.365785 -2.42677e-21)
(0.911684 -0.438531 1.72624e-22)
(0.917006 -0.458434 2.79921e-22)
(0.911078 -0.45224 -3.3372e-22)
(0.889139 -0.446169 -2.02807e-21)
(0.848212 -0.444671 -5.64365e-22)
(0.796 -0.422339 3.98353e-22)
(0.74998 -0.348138 -1.03693e-21)
(0.726777 -0.216581 -3.121e-21)
(0.732345 -0.054707 2.23707e-21)
(0.761983 0.100627 1.09299e-21)
(0.8035 0.224845 2.8096e-21)
(0.839543 0.316879 -1.07601e-21)
(0.855054 0.387225 2.46388e-22)
(0.845135 0.437595 4.27494e-22)
(0.81932 0.448237 -1.02126e-21)
(0.792435 0.393354 7.24906e-23)
(0.77616 0.26962 9.04582e-22)
(0.775289 0.100423 -1.63821e-21)
(0.792536 -0.0660725 1.75622e-21)
(0.819628 -0.196183 -1.41028e-21)
(0.839334 -0.277727 1.79362e-22)
(0.862275 -0.221301 -1.26736e-20)
(0.898214 -0.366334 -8.18176e-21)
(0.916708 -0.438822 4.79551e-21)
(0.920625 -0.458294 1.38232e-21)
(0.913648 -0.451159 -3.01509e-21)
(0.891258 -0.44359 3.69393e-21)
(0.850138 -0.440993 -1.98413e-23)
(0.79758 -0.419038 9.71503e-22)
(0.75076 -0.346824 -6.99246e-22)
(0.726626 -0.217925 5.9378e-22)
(0.731686 -0.0582276 5.2253e-22)
(0.761316 0.0960587 5.29639e-22)
(0.803137 0.22054 -1.44717e-21)
(0.839619 0.313962 -1.10552e-21)
(0.855615 0.386285 1.80247e-21)
(0.846265 0.438488 1.31151e-21)
(0.821105 0.450288 4.68304e-22)
(0.794745 0.395753 -3.40236e-22)
(0.778599 0.271665 4.25271e-21)
(0.777426 0.101501 1.4543e-21)
(0.79419 -0.0661573 -9.11221e-22)
(0.821078 -0.196772 1.324e-21)
(0.840998 -0.277727 -8.76106e-22)
(0.868973 -0.22127 2.74606e-21)
(0.904392 -0.366657 5.53214e-21)
(0.921815 -0.438946 3.74431e-21)
(0.924335 -0.458052 -4.76402e-22)
(0.916304 -0.450049 1.39787e-21)
(0.893481 -0.441024 -2.04812e-21)
(0.852196 -0.437331 -1.52014e-21)
(0.79933 -0.415741 2.0832e-21)
(0.75175 -0.345522 -1.23292e-22)
(0.726667 -0.219321 1.89321e-21)
(0.731166 -0.061848 -3.43949e-21)
(0.760743 0.0913686 -7.24019e-22)
(0.802842 0.216113 -1.72725e-22)
(0.839758 0.310927 1.01253e-21)
(0.856251 0.385234 -7.03505e-22)
(0.847494 0.439291 -1.45048e-21)
(0.823012 0.4523 1.51141e-21)
(0.797188 0.398189 -1.06102e-21)
(0.781173 0.273821 -1.62763e-21)
(0.779696 0.102727 -2.26812e-21)
(0.795959 -0.0661139 3.54444e-22)
(0.822611 -0.197295 -1.29485e-21)
(0.842736 -0.277707 1.27248e-21)
(0.875723 -0.220937 -3.38568e-21)
(0.91063 -0.366753 2.22901e-21)
(0.927002 -0.438905 -1.27444e-21)
(0.928135 -0.457709 -6.90678e-22)
(0.919045 -0.448914 3.25759e-22)
(0.895804 -0.438478 -2.78015e-21)
(0.854383 -0.433689 2.42737e-22)
(0.801245 -0.41245 1.04584e-21)
(0.752946 -0.344227 -1.46555e-21)
(0.726901 -0.22076 3.02641e-21)
(0.730788 -0.0655595 -2.91937e-21)
(0.760264 0.0865623 1.82154e-21)
(0.802612 0.211564 1.86621e-21)
(0.839954 0.307772 -2.62002e-22)
(0.856957 0.384067 1.09504e-21)
(0.848821 0.439998 -8.04527e-23)
(0.825037 0.454268 2.13124e-22)
(0.79976 0.400659 -1.72415e-21)
(0.78388 0.276088 -7.30822e-22)
(0.782098 0.104103 -1.98699e-21)
(0.797841 -0.0659397 -1.7746e-21)
(0.824227 -0.197749 8.85183e-22)
(0.844544 -0.277667 2.21393e-21)
(0.882516 -0.220301 -2.11937e-22)
(0.916921 -0.366624 -6.50628e-21)
(0.932267 -0.4387 4.1687e-21)
(0.932025 -0.457266 9.0904e-22)
(0.921869 -0.447756 3.2523e-21)
(0.898222 -0.435956 7.6808e-22)
(0.856695 -0.430073 -2.03124e-21)
(0.803318 -0.409168 -7.55591e-22)
(0.754345 -0.342936 -1.08638e-21)
(0.72733 -0.222235 -8.57146e-22)
(0.73055 -0.0693527 5.55764e-22)
(0.759877 0.0816454 -1.20706e-21)
(0.802445 0.206895 7.39754e-22)
(0.840205 0.304496 -2.03849e-21)
(0.857732 0.382782 9.56118e-23)
(0.850241 0.440607 -2.98769e-23)
(0.827176 0.456188 -2.33436e-21)
(0.802456 0.40316 2.02839e-21)
(0.786716 0.278464 1.90175e-21)
(0.78463 0.10563 -6.0979e-22)
(0.799838 -0.0656321 3.11597e-22)
(0.825925 -0.198132 1.99328e-21)
(0.846421 -0.277608 -3.55861e-21)
(0.889347 -0.219359 -6.67147e-21)
(0.923263 -0.366269 -1.25345e-21)
(0.937605 -0.438334 -4.07402e-21)
(0.936003 -0.456725 4.61926e-21)
(0.924774 -0.446578 -6.10547e-22)
(0.900733 -0.433464 -1.43231e-21)
(0.859129 -0.426487 1.71271e-21)
(0.805544 -0.405894 -1.07295e-21)
(0.75594 -0.341647 8.89184e-22)
(0.727954 -0.223738 3.5913e-21)
(0.730454 -0.0732186 -1.63203e-21)
(0.759579 0.0766237 2.09096e-21)
(0.802336 0.202108 6.62926e-22)
(0.840506 0.301096 -5.51371e-22)
(0.858569 0.381374 1.78622e-21)
(0.851749 0.441111 3.54075e-22)
(0.829425 0.458058 6.90969e-22)
(0.805272 0.405691 1.70319e-23)
(0.789677 0.280948 -1.12e-21)
(0.78729 0.107307 -8.51789e-22)
(0.80195 -0.0651887 1.80753e-21)
(0.827705 -0.198442 9.09294e-24)
(0.848366 -0.27753 3.70387e-22)
(0.896208 -0.21811 2.84466e-21)
(0.929648 -0.365688 8.69004e-21)
(0.943012 -0.437807 -8.73482e-21)
(0.940069 -0.456086 3.37638e-21)
(0.927758 -0.445381 -2.51323e-21)
(0.903332 -0.431005 9.07777e-22)
(0.861682 -0.422935 -1.08495e-21)
(0.807916 -0.402633 3.26522e-21)
(0.757725 -0.340357 -1.69615e-21)
(0.728773 -0.22526 -3.84491e-21)
(0.730501 -0.0771482 -5.51438e-22)
(0.75937 0.0715033 3.36785e-23)
(0.802282 0.197206 1.84302e-21)
(0.840854 0.297571 6.90555e-22)
(0.859466 0.379839 -3.88864e-22)
(0.853342 0.441508 -2.77844e-22)
(0.831779 0.459874 -2.07469e-21)
(0.808203 0.408249 2.40361e-22)
(0.792759 0.283538 2.11153e-21)
(0.790077 0.109136 1.26802e-21)
(0.804176 -0.064607 8.0009e-22)
(0.829568 -0.198677 1.49913e-21)
(0.850375 -0.277434 2.0369e-22)
(0.903092 -0.216553 -2.81737e-21)
(0.936073 -0.364882 3.70527e-21)
(0.948484 -0.437123 -5.08583e-21)
(0.944219 -0.45535 2.53455e-21)
(0.930819 -0.444166 2.29617e-21)
(0.906013 -0.428584 2.20003e-21)
(0.864349 -0.419422 -1.35091e-22)
(0.810428 -0.399385 -2.71168e-21)
(0.759692 -0.339064 1.96933e-21)
(0.729787 -0.226794 -2.91892e-22)
(0.730692 -0.0811324 -8.00167e-22)
(0.759247 0.0662906 1.11259e-21)
(0.80228 0.19219 -2.79299e-21)
(0.841243 0.293919 -2.39693e-21)
(0.860418 0.378174 1.75914e-21)
(0.855015 0.441793 1.13578e-21)
(0.834233 0.461631 -5.3107e-22)
(0.811245 0.41083 -1.68804e-22)
(0.795959 0.286233 -4.09492e-21)
(0.792987 0.111117 2.31162e-21)
(0.806516 -0.0638848 -1.90479e-21)
(0.831512 -0.198835 6.56598e-22)
(0.852446 -0.27732 -2.38017e-21)
(0.909993 -0.214687 2.80079e-21)
(0.942532 -0.36385 2.50257e-21)
(0.954017 -0.436282 7.47437e-21)
(0.948452 -0.454518 6.52383e-23)
(0.933956 -0.442934 -1.27779e-23)
(0.908774 -0.426205 -2.75528e-21)
(0.867125 -0.415951 1.89497e-21)
(0.813076 -0.396152 3.28216e-22)
(0.761832 -0.337766 1.23816e-21)
(0.730993 -0.228333 1.25254e-22)
(0.731029 -0.0851618 1.38105e-22)
(0.759211 0.0609923 -1.48096e-21)
(0.802327 0.187062 1.1393e-21)
(0.841671 0.29014 5.42879e-22)
(0.861422 0.376375 -2.15686e-21)
(0.856763 0.441961 -3.70426e-22)
(0.836782 0.463327 2.39452e-21)
(0.814393 0.413432 -7.8824e-22)
(0.799272 0.289031 8.71209e-22)
(0.796018 0.113249 7.18474e-22)
(0.80897 -0.0630198 6.05564e-21)
(0.833538 -0.198913 -4.55029e-21)
(0.854579 -0.277188 -2.04866e-22)
(0.916903 -0.21251 -1.19556e-21)
(0.949019 -0.362592 -1.31274e-21)
(0.959606 -0.435286 5.45402e-21)
(0.952766 -0.45359 -8.4756e-21)
(0.937168 -0.441687 -1.70687e-21)
(0.911608 -0.423871 -7.20904e-22)
(0.870006 -0.412529 -1.55333e-21)
(0.815854 -0.392936 -1.62345e-21)
(0.764136 -0.336461 1.40555e-21)
(0.732389 -0.229871 -2.76306e-21)
(0.731513 -0.0892273 1.86014e-21)
(0.759261 0.0556153 1.41561e-22)
(0.80242 0.181826 4.25129e-22)
(0.842133 0.286233 8.641e-22)
(0.862471 0.374439 1.51968e-21)
(0.858581 0.442009 -2.57736e-21)
(0.839421 0.464957 -6.4162e-22)
(0.817642 0.416051 2.69819e-22)
(0.802692 0.291929 -1.34311e-21)
(0.799166 0.115532 -2.48382e-21)
(0.811537 -0.0620101 -1.08951e-21)
(0.835644 -0.198909 6.52942e-22)
(0.856769 -0.277038 2.76246e-21)
(0.923815 -0.21002 5.87819e-22)
(0.95553 -0.361107 3.0341e-21)
(0.965245 -0.434137 -2.62018e-21)
(0.957159 -0.452568 3.97303e-21)
(0.940453 -0.440423 2.22569e-21)
(0.914511 -0.421587 7.0806e-22)
(0.872987 -0.409157 1.56073e-21)
(0.818758 -0.389739 -1.30067e-21)
(0.766594 -0.335149 1.01985e-23)
(0.73397 -0.231401 -1.90887e-21)
(0.732147 -0.0933197 9.6335e-22)
(0.759397 0.050167 -1.78717e-21)
(0.802556 0.176484 -1.69028e-22)
(0.842625 0.282196 1.57369e-21)
(0.863562 0.372363 -2.27374e-21)
(0.860465 0.441932 -5.18513e-23)
(0.842144 0.466517 2.247e-21)
(0.820985 0.418684 -2.62049e-21)
(0.806216 0.294925 2.93808e-21)
(0.802428 0.117966 -5.01405e-22)
(0.814216 -0.0608536 4.23953e-21)
(0.837832 -0.19882 -6.17364e-21)
(0.859016 -0.276869 3.10996e-21)
(0.930722 -0.20722 1.44826e-20)
(0.962058 -0.359396 -5.87827e-21)
(0.970929 -0.432835 -7.35851e-21)
(0.961627 -0.451451 -4.59626e-23)
(0.943809 -0.439145 -3.79781e-22)
(0.91748 -0.419354 -2.10311e-21)
(0.876061 -0.405842 -4.13397e-22)
(0.821783 -0.386561 -1.46168e-22)
(0.769196 -0.333827 1.7365e-21)
(0.73573 -0.232919 3.69328e-22)
(0.732932 -0.0974301 1.07521e-21)
(0.759618 0.0446549 -2.4298e-21)
(0.802733 0.17104 1.25273e-21)
(0.843142 0.27803 -1.27755e-21)
(0.864689 0.370143 2.30728e-21)
(0.862408 0.441728 -6.6226e-22)
(0.844947 0.468004 4.06726e-22)
(0.824418 0.421328 -5.68348e-22)
(0.809838 0.298016 1.22429e-21)
(0.805801 0.120548 -2.11211e-21)
(0.817005 -0.0595487 -5.00524e-21)
(0.8401 -0.198643 7.27133e-21)
(0.861318 -0.276682 2.8392e-21)
(0.93762 -0.204107 4.94981e-22)
(0.968599 -0.357457 4.17633e-21)
(0.976654 -0.431383 -3.88057e-21)
(0.966168 -0.450242 -9.41436e-22)
(0.947235 -0.43785 1.8002e-21)
(0.920509 -0.417175 9.71328e-22)
(0.879223 -0.402586 -3.76965e-22)
(0.824925 -0.383406 -9.4755e-22)
(0.771932 -0.332494 -6.14437e-22)
(0.737661 -0.23442 -2.21833e-21)
(0.733869 -0.10155 7.375e-22)
(0.759928 0.0390868 1.93523e-21)
(0.802947 0.165499 -1.44763e-21)
(0.843681 0.273734 1.94402e-22)
(0.865849 0.367778 -6.22871e-22)
(0.864407 0.44139 -1.09708e-21)
(0.847822 0.469413 3.49479e-21)
(0.827935 0.423978 3.43753e-21)
(0.813552 0.301199 -3.53537e-21)
(0.809281 0.123279 4.26133e-21)
(0.819904 -0.0580937 -5.92889e-21)
(0.842448 -0.198376 -5.43085e-21)
(0.863672 -0.276474 -2.65407e-21)
(0.944502 -0.200681 -2.67386e-21)
(0.975146 -0.35529 8.66578e-21)
(0.982413 -0.429782 -1.04407e-22)
(0.970778 -0.44894 3.76159e-22)
(0.950729 -0.436538 -2.20308e-21)
(0.923594 -0.415053 3.25973e-21)
(0.882466 -0.399396 -3.31136e-22)
(0.82818 -0.380274 -4.36781e-22)
(0.774794 -0.331149 5.61761e-22)
(0.739754 -0.235899 1.72317e-22)
(0.73496 -0.105671 4.82918e-22)
(0.760327 0.0334706 -5.76454e-22)
(0.803199 0.159863 1.60929e-21)
(0.844237 0.269308 -3.84231e-22)
(0.867036 0.365264 -4.29753e-23)
(0.866454 0.440917 -3.71741e-25)
(0.850765 0.470741 -2.57531e-21)
(0.83153 0.42663 1.55941e-21)
(0.817354 0.30447 -2.72879e-21)
(0.812864 0.126156 1.96676e-21)
(0.822912 -0.0564873 2.96829e-21)
(0.844876 -0.198015 7.18432e-21)
(0.866076 -0.276247 -1.24436e-22)
(0.951362 -0.196943 9.85564e-21)
(0.981695 -0.352893 -2.13867e-20)
(0.988201 -0.428033 5.39079e-21)
(0.975453 -0.447546 -5.80313e-21)
(0.95429 -0.435209 3.08652e-21)
(0.926733 -0.412989 -3.84466e-21)
(0.885784 -0.396274 2.63161e-21)
(0.831544 -0.377168 1.92739e-21)
(0.777773 -0.329791 -2.37538e-22)
(0.741997 -0.237352 1.20836e-21)
(0.736204 -0.109787 -7.50476e-22)
(0.760819 0.0278146 9.04321e-22)
(0.803486 0.154137 -1.25243e-23)
(0.844808 0.264753 -1.67484e-21)
(0.868245 0.362599 2.38692e-22)
(0.868544 0.440304 1.93608e-21)
(0.853769 0.471982 1.83268e-21)
(0.835197 0.429281 -8.10055e-23)
(0.821237 0.307826 -3.14547e-21)
(0.816546 0.129177 5.481e-22)
(0.826026 -0.0547284 -3.93919e-22)
(0.847382 -0.197559 -1.91973e-21)
(0.868529 -0.275997 -3.30959e-21)
(0.958196 -0.192892 6.49427e-21)
(0.988239 -0.350266 -7.23298e-21)
(0.994012 -0.426137 -2.33695e-21)
(0.980191 -0.446061 6.36614e-22)
(0.957916 -0.433861 2.92708e-21)
(0.92992 -0.410984 5.3694e-22)
(0.889169 -0.393224 -1.26984e-21)
(0.835011 -0.374088 -6.14131e-22)
(0.780862 -0.328418 1.07078e-22)
(0.744377 -0.238777 -1.66025e-21)
(0.737599 -0.113889 -8.93197e-23)
(0.761407 0.022127 8.30986e-22)
(0.80381 0.148328 4.01217e-22)
(0.845389 0.26007 -4.03399e-22)
(0.869471 0.359782 -8.53926e-23)
(0.870672 0.439548 1.54869e-21)
(0.856828 0.473134 -5.54602e-22)
(0.83893 0.431927 -1.07838e-21)
(0.825197 0.311263 2.34248e-21)
(0.820323 0.132341 1.75943e-21)
(0.829245 -0.0528159 1.57087e-22)
(0.849967 -0.197003 -3.61047e-21)
(0.871029 -0.275725 1.05043e-21)
(0.965 -0.188527 -6.47263e-22)
(0.994774 -0.347405 -4.45863e-22)
(0.999839 -0.424094 -4.00589e-21)
(0.984986 -0.444486 -4.63097e-21)
(0.961607 -0.432494 8.03842e-21)
(0.933153 -0.409038 -3.51314e-21)
(0.892616 -0.390252 -1.34642e-21)
(0.838578 -0.371038 9.33215e-22)
(0.784055 -0.327029 6.51176e-22)
(0.746881 -0.240169 -4.25575e-22)
(0.739144 -0.117972 5.84004e-22)
(0.762097 0.0164159 -1.00197e-21)
(0.804171 0.142439 4.02712e-23)
(0.845978 0.255261 -1.82642e-22)
(0.870709 0.35681 1.64469e-22)
(0.872833 0.438645 -5.629e-22)
(0.859938 0.474191 -2.16736e-21)
(0.842724 0.434562 4.95396e-22)
(0.829227 0.314778 -2.5628e-21)
(0.824192 0.135644 4.97079e-21)
(0.832567 -0.050749 3.31092e-21)
(0.85263 -0.196345 2.07038e-21)
(0.873573 -0.275429 -2.90899e-21)
(0.971772 -0.18385 6.34192e-21)
(1.00129 -0.34431 4.53927e-21)
(1.00568 -0.421905 1.13316e-20)
(0.989835 -0.442822 -2.30932e-21)
(0.965359 -0.431105 -2.52434e-21)
(0.936428 -0.407152 3.31877e-21)
(0.896117 -0.387359 -7.31205e-22)
(0.842239 -0.368019 3.76718e-22)
(0.787348 -0.325622 -1.61496e-21)
(0.749494 -0.241527 1.61182e-21)
(0.740831 -0.12203 -3.93536e-22)
(0.762894 0.010688 6.89942e-22)
(0.804574 0.136478 -6.38478e-22)
(0.846574 0.250326 -5.28759e-22)
(0.871955 0.353683 -1.57868e-22)
(0.875019 0.437592 9.86454e-23)
(0.863091 0.47515 1.26331e-21)
(0.846571 0.437182 -1.27936e-21)
(0.833322 0.318365 -3.09294e-21)
(0.828149 0.139085 1.66088e-21)
(0.83599 -0.0485272 6.90229e-24)
(0.85537 -0.195582 -4.67214e-21)
(0.876159 -0.275107 1.22246e-21)
(0.978511 -0.178861 -1.89787e-21)
(1.00779 -0.340979 -1.69709e-20)
(1.01152 -0.419571 -2.95815e-22)
(0.994733 -0.441069 2.65712e-21)
(0.969172 -0.429693 1.21506e-21)
(0.939743 -0.405325 1.35534e-21)
(0.899666 -0.384551 -3.28697e-21)
(0.845988 -0.365035 1.19974e-21)
(0.790737 -0.324195 -1.69911e-21)
(0.752202 -0.242846 8.30789e-22)
(0.742652 -0.12606 -1.24909e-21)
(0.763805 0.00495627 4.4596e-22)
(0.805023 0.130449 6.3958e-22)
(0.847175 0.245269 1.2663e-21)
(0.873204 0.350398 1.10762e-21)
(0.877226 0.436387 -8.23637e-22)
(0.866282 0.476006 -6.11932e-22)
(0.850467 0.439784 -1.33283e-21)
(0.837476 0.322021 -2.48091e-22)
(0.832191 0.14266 -3.44248e-21)
(0.839514 -0.0461501 6.89248e-22)
(0.858186 -0.194711 1.06554e-21)
(0.878787 -0.274758 3.6802e-22)
(0.985218 -0.173557 -1.1887e-20)
(1.01426 -0.337407 8.58343e-22)
(1.01736 -0.417092 3.6733e-21)
(0.999675 -0.43923 -2.78794e-21)
(0.973044 -0.428258 -1.13967e-21)
(0.943094 -0.403558 -1.36832e-21)
(0.903256 -0.381831 8.43552e-22)
(0.849819 -0.362088 -1.78707e-21)
(0.794219 -0.322746 1.16662e-21)
(0.754992 -0.244124 -5.92149e-22)
(0.744596 -0.130056 7.66293e-22)
(0.764836 -0.000734806 -4.70616e-22)
(0.805528 0.124361 -3.21427e-22)
(0.847784 0.240093 -8.4229e-22)
(0.874453 0.346956 1.36979e-21)
(0.879447 0.435025 1.35692e-22)
(0.869504 0.476756 -2.78315e-22)
(0.854404 0.442361 1.7052e-21)
(0.841686 0.32574 5.82503e-21)
(0.836316 0.146366 4.22829e-22)
(0.843135 -0.0436173 -5.55751e-21)
(0.861077 -0.193729 1.24292e-22)
(0.881454 -0.27438 -8.89259e-22)
(0.991896 -0.167936 -2.23215e-20)
(1.02069 -0.333592 1.67558e-20)
(1.02319 -0.41447 4.20767e-21)
(1.00466 -0.437308 -5.06822e-21)
(0.976973 -0.4268 4.14911e-21)
(0.94648 -0.401851 7.10455e-22)
(0.906881 -0.379204 1.56463e-21)
(0.853726 -0.359182 -2.78719e-21)
(0.797792 -0.321275 -6.60534e-22)
(0.757852 -0.245358 6.15154e-22)
(0.746649 -0.134017 9.25816e-22)
(0.765992 -0.00645848 -1.82805e-21)
(0.806099 0.118218 3.88606e-22)
(0.848405 0.2348 -3.59089e-22)
(0.8757 0.343357 -5.18978e-22)
(0.881679 0.433505 1.09567e-21)
(0.872753 0.477394 -2.04918e-21)
(0.858378 0.44491 1.01724e-21)
(0.845948 0.329518 -1.07115e-21)
(0.840523 0.1502 -2.55777e-21)
(0.846854 -0.0409284 4.30991e-21)
(0.864043 -0.192633 -2.95502e-21)
(0.884157 -0.273972 -1.55215e-22)
(0.99855 -0.162001 3.22369e-21)
(1.02709 -0.329535 -5.20179e-21)
(1.029 -0.411705 -1.3418e-22)
(1.00967 -0.4353 -6.30347e-21)
(0.980957 -0.425313 1.3292e-21)
(0.949899 -0.400197 3.47597e-21)
(0.910536 -0.376668 -4.09376e-21)
(0.857701 -0.356318 3.714e-21)
(0.801454 -0.319776 5.89264e-22)
(0.760773 -0.246541 -1.68307e-21)
(0.748788 -0.137939 1.64341e-21)
(0.767275 -0.0122141 2.71299e-22)
(0.806757 0.11203 1.37008e-22)
(0.849049 0.229396 -6.5892e-22)
(0.876945 0.339601 -7.96542e-22)
(0.883917 0.431824 6.13717e-22)
(0.876022 0.477919 -1.68507e-22)
(0.862382 0.447426 3.40412e-21)
(0.850258 0.33335 -8.15226e-21)
(0.844812 0.154158 4.64229e-21)
(0.850669 -0.0380847 4.44416e-21)
(0.867083 -0.191422 1.10789e-21)
(0.886896 -0.27353 -1.0886e-21)
(1.00518 -0.155765 1.48043e-20)
(1.03343 -0.325226 3.67165e-21)
(1.03479 -0.408776 -2.03476e-21)
(1.01471 -0.433185 -4.53104e-21)
(0.984995 -0.423776 -4.21166e-22)
(0.953347 -0.398581 -3.6072e-21)
(0.914214 -0.374215 9.21669e-22)
(0.861738 -0.353493 9.55338e-22)
(0.805203 -0.318244 -1.76957e-22)
(0.763748 -0.247664 -8.0716e-22)
(0.750993 -0.141812 -5.73108e-22)
(0.768686 -0.0179274 1.53319e-21)
(0.807522 0.105807 6.67984e-23)
(0.849734 0.223889 -8.11813e-22)
(0.878195 0.33569 -5.71271e-22)
(0.88616 0.429981 4.16861e-22)
(0.879309 0.478324 -3.88442e-22)
(0.866413 0.449901 1.2136e-21)
(0.854619 0.337227 3.92006e-21)
(0.849185 0.15823 -1.24679e-21)
(0.85458 -0.0350921 -4.40866e-21)
(0.870195 -0.190093 -2.26849e-21)
(0.889669 -0.273051 2.13385e-21)
(1.01181 -0.149224 1.96118e-21)
(1.03972 -0.320637 5.36844e-21)
(1.04055 -0.405665 -4.23449e-21)
(1.01978 -0.430958 -2.82793e-21)
(0.989083 -0.422188 4.48728e-21)
(0.956823 -0.397005 1.72109e-21)
(0.91791 -0.371854 -2.56243e-21)
(0.865829 -0.35072 -7.02828e-22)
(0.809037 -0.316688 -4.23184e-22)
(0.766774 -0.24873 2.42336e-22)
(0.753243 -0.145636 -2.04676e-22)
(0.770216 -0.0236181 6.29723e-22)
(0.808421 0.0995601 5.07859e-22)
(0.850489 0.21829 -3.91975e-22)
(0.879463 0.331633 5.32787e-22)
(0.88841 0.427976 -4.30417e-22)
(0.882612 0.478604 1.97919e-21)
(0.870472 0.452326 -2.73646e-21)
(0.859036 0.341134 -1.39146e-21)
(0.85365 0.162406 2.83142e-21)
(0.858586 -0.0319487 -2.7632e-21)
(0.873379 -0.188635 2.07498e-21)
(0.892473 -0.272526 -2.60431e-22)
(1.01845 -0.142221 8.4866e-21)
(1.04595 -0.315759 -1.47013e-20)
(1.04627 -0.402472 3.77767e-21)
(1.02487 -0.428754 -4.62277e-21)
(0.993219 -0.420671 6.36056e-21)
(0.960325 -0.395565 -1.73507e-21)
(0.921619 -0.369664 1.42387e-21)
(0.869966 -0.348058 -2.5317e-21)
(0.812952 -0.315157 1.31732e-21)
(0.769848 -0.249792 1.77645e-21)
(0.755515 -0.149477 -1.38719e-21)
(0.771854 -0.029335 6.60956e-22)
(0.809485 0.0932474 -1.49295e-21)
(0.85136 0.212574 1.71723e-22)
(0.880781 0.327413 3.65649e-22)
(0.890684 0.425801 2.35693e-22)
(0.885941 0.478758 2.97241e-22)
(0.874568 0.454705 -9.51705e-22)
(0.863526 0.345098 1.41848e-21)
(0.858217 0.166739 -2.02303e-21)
(0.862691 -0.0286008 -1.7238e-22)
(0.876634 -0.187026 1.62443e-22)
(0.895308 -0.271963 1.60906e-22)
(1.02511 -0.134579 1.03225e-20)
(1.05209 -0.310733 -1.31796e-20)
(1.05194 -0.399435 1.74378e-21)
(1.02996 -0.426785 5.45468e-21)
(0.997402 -0.419379 -2.02261e-21)
(0.963854 -0.394367 5.94045e-22)
(0.925338 -0.36771 -3.26882e-21)