/*--------------------------------*- C++ -*----------------------------------*\
  =========                 |
  \\      /  F ield         | OpenFOAM: The Open Source CFD Toolbox
   \\    /   O peration     | Website:  https://openfoam.org
    \\  /    A nd           | Version:  7
     \\/     M anipulation  |
\*---------------------------------------------------------------------------*/
FoamFile
{
    version     2.0;
    format      ascii;
    class       volScalarField;
    location    "140";
    object      p;
}
// * * * * * * * * * * * * * * * * * * * * * * * * * * * * * * * * * * * * * //

dimensions      [0 2 -2 0 0 0 0];

internalField   nonuniform List<scalar> 
4575
(
0.244647
0.253803
0.26274
0.277453
0.271448
0.286476
0.279918
0.295245
0.288139
0.303748
0.2961
0.32108
0.311973
0.303791
0.329517
0.319907
0.311201
0.337634
0.327538
0.31832
0.345419
0.334854
0.325138
0.363585
0.352859
0.341844
0.331645
0.371164
0.359943
0.348497
0.337831
0.378351
0.366659
0.354802
0.343686
0.385136
0.372996
0.360748
0.349202
0.391505
0.378943
0.366326
0.354371
0.410449
0.397449
0.384489
0.371526
0.359184
0.416357
0.402957
0.389626
0.376338
0.363633
0.42179
0.408019
0.394344
0.380756
0.367711
0.426739
0.412626
0.398635
0.38477
0.371411
0.431194
0.41677
0.402491
0.388374
0.374728
0.435147
0.420443
0.405904
0.391561
0.377655
0.438589
0.423637
0.408868
0.394324
0.380187
0.441516
0.426346
0.411378
0.396658
0.38232
0.443919
0.428566
0.413427
0.398559
0.384049
0.445794
0.43029
0.415013
0.400022
0.385371
0.447137
0.431516
0.416129
0.401044
0.386282
0.463824
0.447944
0.432238
0.416775
0.401621
0.386782
0.464145
0.448212
0.432456
0.416947
0.401753
0.386869
0.46389
0.447939
0.432168
0.416644
0.401437
0.386539
0.463057
0.447125
0.431371
0.415865
0.400672
0.385793
0.461645
0.445768
0.430067
0.414609
0.399458
0.384629
0.459656
0.443871
0.428255
0.412878
0.397795
0.383048
0.441433
0.425938
0.410672
0.395686
0.381053
0.438458
0.423117
0.407994
0.393131
0.378644
0.434949
0.419796
0.404846
0.390135
0.375825
0.430909
0.415977
0.401232
0.386699
0.372597
0.426344
0.411666
0.397157
0.382828
0.368964
0.42126
0.406869
0.392625
0.378527
0.36493
0.415663
0.40159
0.387641
0.3738
0.360499
0.40956
0.395837
0.382213
0.368654
0.355677
0.402959
0.389617
0.376347
0.363095
0.350469
0.39587
0.382939
0.370051
0.357131
0.344881
0.388301
0.375811
0.363332
0.350768
0.33892
0.368242
0.3562
0.344016
0.332592
0.360243
0.348664
0.336883
0.325906
0.351825
0.340734
0.329377
0.318868
0.342999
0.332421
0.32151
0.311489
0.333776
0.323735
0.313291
0.303775
0.314688
0.304731
0.295737
0.305292
0.29584
0.287383
0.295558
0.286631
0.278724
0.2855
0.277113
0.269769
0.267301
0.260529
0.257205
0.251014
0.246837
0.241234
0.231199
0.220918
0.210403
0.115716
0.116871
0.119068
0.122188
0.1261
0.13076
0.136046
0.141925
0.14825
0.154965
0.161856
0.168819
0.175533
0.181832
0.18723
0.191513
0.193956
0.194389
0.191687
0.186031
0.175407
0.11513
0.116243
0.118351
0.121338
0.125067
0.129485
0.134464
0.139956
0.145802
0.151927
0.158106
0.164215
0.169925
0.175056
0.179127
0.181932
0.182779
0.181535
0.1772
0.169964
0.158321
0.114473
0.115539
0.117549
0.120391
0.123922
0.128082
0.132733
0.137816
0.143161
0.148681
0.154137
0.159398
0.164127
0.168149
0.170993
0.172481
0.171973
0.169396
0.163906
0.155758
0.143953
0.113742
0.114757
0.116662
0.11935
0.122671
0.126558
0.130866
0.135525
0.140356
0.145259
0.14999
0.154409
0.158182
0.161139
0.162836
0.163114
0.161421
0.157704
0.151334
0.142532
0.130729
0.112935
0.113895
0.115691
0.118216
0.121318
0.124921
0.128877
0.133102
0.137413
0.141699
0.145714
0.149313
0.152176
0.154131
0.154784
0.153984
0.151284
0.146635
0.139609
0.130369
0.118619
0.112052
0.112954
0.114636
0.116991
0.119866
0.123177
0.126772
0.130558
0.134349
0.138023
0.141342
0.144153
0.14616
0.147194
0.146915
0.14518
0.14165
0.136277
0.128795
0.119326
0.107752
0.111091
0.111933
0.113496
0.115674
0.118316
0.121328
0.124558
0.127902
0.131177
0.134252
0.136899
0.138963
0.140176
0.140373
0.139274
0.136747
0.132549
0.126638
0.118873
0.109357
0.0980962
0.110051
0.110831
0.112271
0.114268
0.116671
0.11938
0.122243
0.125147
0.127914
0.130407
0.132413
0.133776
0.13426
0.133708
0.131899
0.128714
0.123993
0.117705
0.109802
0.100384
0.0895331
0.108934
0.109648
0.110964
0.112775
0.114936
0.117339
0.119835
0.122305
0.124577
0.126511
0.127911
0.128622
0.128446
0.127235
0.12482
0.121102
0.115987
0.10946
0.10154
0.0923237
0.0819431
0.107738
0.108386
0.109574
0.111198
0.113115
0.115212
0.117345
0.11939
0.121183
0.122584
0.123417
0.123532
0.122764
0.120981
0.118061
0.113924
0.108528
0.101879
0.0940369
0.0850992
0.0752243
0.106465
0.107045
0.108104
0.109539
0.111212
0.113006
0.114782
0.116414
0.11775
0.118649
0.118956
0.118532
0.117242
0.114971
0.111637
0.107184
0.101608
0.0949294
0.0872413
0.0786363
0.069287
0.105116
0.105627
0.106557
0.107802
0.109233
0.110728
0.112158
0.113392
0.114293
0.114724
0.11455
0.113644
0.111899
0.109221
0.105559
0.100879
0.0952073
0.0885775
0.0811008
0.0728654
0.0640486
0.103692
0.104135
0.104935
0.105993
0.107184
0.108388
0.109482
0.110338
0.11083
0.110828
0.110218
0.108887
0.106753
0.103741
0.0998302
0.0950015
0.089306
0.082786
0.0755635
0.0677204
0.0594327
0.102196
0.10257
0.103242
0.104115
0.105072
0.105994
0.106766
0.107264
0.107375
0.106978
0.105979
0.104278
0.101817
0.0985408
0.0944488
0.0895396
0.0838793
0.0775168
0.0705788
0.0631398
0.0553698
0.10063
0.100936
0.101482
0.102174
0.102904
0.103555
0.104021
0.104184
0.103943
0.10319
0.101846
0.0998289
0.0971
0.0936213
0.0894098
0.0844774
0.0789005
0.0727319
0.0660983
0.0590663
0.051797
0.098997
0.0992366
0.0996593
0.100176
0.100686
0.10108
0.101257
0.101109
0.100548
0.099477
0.0978332
0.0955508
0.092608
0.0889823
0.0847045
0.0797969
0.074342
0.0683939
0.0620764
0.0554476
0.0486584
0.0973006
0.0974756
0.0977786
0.0981264
0.0984276
0.0985769
0.0984849
0.098052
0.0972015
0.0958506
0.0939504
0.0914503
0.0883432
0.0846201
0.0803218
0.0754786
0.0701756
0.0644667
0.0584702
0.052236
0.0459039
0.0955447
0.0956575
0.0958454
0.096032
0.0961347
0.0960559
0.0957152
0.0950232
0.093915
0.0923211
0.0902057
0.0875323
0.0843058
0.0805285
0.0762487
0.0715019
0.0663736
0.0609158
0.05524
0.0493882
0.0434891
0.0937339
0.0937872
0.0938651
0.0938992
0.0938157
0.0935253
0.0929572
0.0920327
0.0906982
0.0888969
0.0866051
0.083799
0.0804932
0.0766994
0.0724706
0.0678458
0.0629087
0.0577086
0.0523493
0.0468654
0.0413745
0.0918729
0.0918699
0.0918437
0.0917348
0.0914781
0.0909937
0.09022
0.0890895
0.0875592
0.0855847
0.0831528
0.0802509
0.0769013
0.0731232
0.0689721
0.0644891
0.0597546
0.0548145
0.0497644
0.0446324
0.0395249
0.0899669
0.0899111
0.0897875
0.0895457
0.0891296
0.0884691
0.0875119
0.0862016
0.0845051
0.0823896
0.0798511
0.0768864
0.0735242
0.069789
0.0657375
0.0614112
0.0568864
0.0522051
0.0474548
0.0426575
0.0379095
0.0880215
0.0879166
0.0877026
0.0873387
0.0867776
0.0859594
0.0848408
0.0833761
0.0815417
0.0793153
0.0767006
0.0737028
0.0703549
0.0666853
0.0627506
0.0585918
0.0542802
0.049854
0.0453926
0.0409125
0.0365008
0.0860424
0.0858925
0.0855957
0.0851208
0.0844295
0.0834718
0.0822136
0.0806191
0.0786737
0.076364
0.073701
0.070696
0.0673853
0.0638
0.0599955
0.0560113
0.0519137
0.0477368
0.0435523
0.039372
0.0352743
0.0840359
0.083845
0.0834732
0.0828987
0.0820921
0.0810133
0.0796365
0.0779359
0.0759044
0.0735371
0.0708503
0.0678608
0.0646068
0.0611209
0.0574565
0.0536512
0.0497661
0.0458312
0.041911
0.0380134
0.0342085
0.082008
0.0817804
0.0813417
0.0806793
0.0797722
0.0785901
0.0771153
0.0753306
0.0732363
0.0708344
0.0681458
0.0651914
0.0620103
0.0586357
0.0551185
0.0514939
0.0478178
0.0441166
0.0404479
0.0368162
0.0332843
0.0799652
0.0797052
0.0792078
0.078469
0.0774761
0.076208
0.0746545
0.0728068
0.070671
0.0682553
0.0655841
0.0626813
0.0595863
0.0563321
0.0529666
0.0495227
0.0460509
0.0425743
0.0391442
0.0357623
0.0324846
0.0779139
0.0776259
0.0770779
0.0762741
0.0752097
0.0738722
0.0722586
0.070367
0.0682091
0.065798
0.0631609
0.0603237
0.0573254
0.0541982
0.050987
0.047722
0.0444488
0.0411872
0.0379829
0.0348353
0.0317942
0.0758606
0.0755489
0.0749583
0.0741006
0.0729786
0.0715875
0.0699308
0.0680131
0.0658505
0.0634604
0.0608716
0.0581115
0.0552181
0.0522225
0.0491664
0.0460772
0.0429959
0.0399397
0.0369488
0.0340207
0.0311998
0.0738117
0.0734805
0.0728551
0.0719544
0.0707878
0.0693579
0.0676741
0.0657463
0.0635946
0.0612395
0.0587111
0.0560374
0.0532551
0.0503939
0.0474921
0.0445747
0.0416784
0.0388176
0.0360278
0.0333053
0.0306892
0.0717736
0.0714268
0.0707743
0.0698408
0.068642
0.0671872
0.0654907
0.0635674
0.0614402
0.0591322
0.0566741
0.0540942
0.0514273
0.0487018
0.0459525
0.0432021
0.0404831
0.037808
0.0352077
0.0326774
0.0302519
0.0697524
0.069394
0.0687215
0.0677648
0.0665455
0.0650784
0.0633824
0.0614763
0.0593856
0.0571349
0.0547553
0.0522746
0.049726
0.047136
0.0445364
0.0419476
0.0393984
0.0368991
0.034477
0.0321265
0.0298783
0.0677542
0.0673878
0.066702
0.0657313
0.0645021
0.0630342
0.0613505
0.0594729
0.0574287
0.0552439
0.0529491
0.0505716
0.0481428
0.0456872
0.0432338
0.0408007
0.0384134
0.0360805
0.0338259
0.0316433
0.0295599
0.0657846
0.0654137
0.0647208
0.0637445
0.062515
0.0610568
0.0593957
0.0575564
0.0555673
0.0534551
0.0512501
0.0489785
0.0466697
0.0443465
0.042035
0.0397514
0.0375182
0.0353426
0.033245
0.0312193
0.0292891
0.0638493
0.0634769
0.0627827
0.0618083
0.0605874
0.059148
0.0575185
0.0557257
0.0537988
0.0517647
0.0496529
0.0474885
0.045299
0.0431054
0.0409312
0.0387909
0.036704
0.0346766
0.0327264
0.0308471
0.0290593
0.0619532
0.0615822
0.060892
0.0599263
0.0587217
0.0573092
0.0557191
0.0539797
0.0521206
0.0501687
0.0481522
0.0460955
0.0440238
0.0419564
0.0399145
0.0379108
0.0359627
0.0340748
0.0322627
0.0305199
0.0288645
0.0601013
0.0597343
0.0590526
0.0581017
0.0569202
0.0555414
0.0539972
0.0523168
0.0505298
0.0486629
0.0467431
0.0447934
0.0428372
0.0408922
0.0389773
0.0371038
0.0352869
0.0335303
0.0318473
0.0302318
0.0286994
0.0582981
0.0579372
0.0572682
0.0563372
0.0551847
0.0538454
0.0523523
0.0507354
0.0490238
0.0472437
0.0454207
0.0435767
0.0417331
0.0399062
0.0381128
0.0363631
0.03467
0.0330367
0.0314745
0.0299776
0.0285594
0.0565475
0.0561949
0.0555419
0.0546354
0.0535166
0.0522216
0.0507839
0.0492337
0.0475996
0.045907
0.0441803
0.04244
0.0407057
0.0389924
0.037315
0.0356824
0.0341061
0.0325884
0.0311391
0.0297526
0.0284403
0.0548534
0.0545106
0.0538766
0.0529982
0.0519172
0.0506702
0.0492911
0.0478099
0.0462545
0.0446494
0.0430176
0.0413784
0.0397497
0.0381451
0.0365781
0.0350564
0.0335898
0.0321805
0.0308365
0.0295526
0.0283387
0.0532191
0.0528874
0.0522747
0.0514275
0.0503874
0.0491913
0.047873
0.0464621
0.0449857
0.0434673
0.0419285
0.0403873
0.0388602
0.0373595
0.0358971
0.03448
0.0331166
0.0318084
0.0305627
0.0293742
0.0282515
0.0516474
0.0513279
0.0507385
0.0499247
0.0489278
0.0477846
0.0465285
0.0451884
0.0437906
0.0423574
0.0409092
0.0394626
0.0380328
0.0366308
0.0352675
0.0339487
0.032682
0.0314684
0.030314
0.0292141
0.0281759
0.050141
0.0498345
0.0492697
0.0484909
0.0475389
0.0464498
0.0452564
0.043987
0.0426666
0.0413166
0.039956
0.0386003
0.0372632
0.035955
0.034685
0.0334587
0.0322824
0.031157
0.0300876
0.0290698
0.0281098
0.048702
0.0484091
0.0478698
0.0471272
0.0462209
0.0451864
0.0440556
0.0428559
0.0416113
0.040342
0.0390658
0.0377969
0.036548
0.0353283
0.0341462
0.0330064
0.0319145
0.0308712
0.0298806
0.0289389
0.0280511
0.0473324
0.0470534
0.0465401
0.0458341
0.0449738
0.0439938
0.0429249
0.0417935
0.0406225
0.039431
0.0382354
0.0370491
0.0358837
0.0347473
0.0336476
0.0325888
0.0315755
0.0306084
0.0296909
0.0288195
0.0279983
0.0460337
0.0457687
0.0452816
0.0446123
0.0437977
0.0428714
0.041863
0.040798
0.0396979
0.0385809
0.0374622
0.0363542
0.0352673
0.0342092
0.0331866
0.0322032
0.0312629
0.0303664
0.0295165
0.0287099
0.0279502
0.0448072
0.0445562
0.044095
0.0434619
0.0426923
0.0418185
0.0408689
0.0398678
0.0388357
0.0377896
0.0367437
0.0357095
0.0346964
0.0337115
0.0327606
0.0318472
0.0309746
0.0301434
0.0293557
0.0286089
0.0279056
0.043654
0.0434167
0.042981
0.0423832
0.0416574
0.0408344
0.0399413
0.0390014
0.038034
0.037055
0.0360777
0.0351126
0.0341685
0.0332517
0.0323675
0.0315188
0.0307088
0.0299377
0.0292074
0.0285154
0.0278639
0.0425749
0.0423509
0.0419399
0.0413764
0.0406928
0.0399184
0.0390793
0.0381974
0.0372911
0.0363752
0.0354622
0.0345617
0.0336817
0.032828
0.0320054
0.0312165
0.030464
0.0297481
0.0290703
0.0284285
0.0278243
0.0415707
0.0413596
0.0409722
0.0404415
0.039798
0.03907
0.038282
0.0374548
0.0366057
0.0357489
0.0348956
0.034055
0.0332343
0.0324388
0.0316729
0.0309389
0.030239
0.0295736
0.0289438
0.0283478
0.0277867
0.0406422
0.0404432
0.0400783
0.0395785
0.0389731
0.0382886
0.0375484
0.0367723
0.0359766
0.0351745
0.0343765
0.033591
0.0328248
0.0320828
0.0313686
0.0306847
0.0300329
0.0294134
0.0288273
0.0282727
0.0277508
0.0397898
0.0396022
0.0392584
0.0387877
0.0382177
0.0375738
0.0368781
0.0361493
0.0354028
0.034651
0.0339037
0.0331687
0.0324522
0.0317588
0.0310918
0.0304533
0.029845
0.029267
0.0287203
0.0282032
0.0277165
0.0390143
0.0388373
0.038513
0.0380692
0.037532
0.0369255
0.0362706
0.0355852
0.0348836
0.0341776
0.0334763
0.0327871
0.0321156
0.0314661
0.0308415
0.0302439
0.0296747
0.0291341
0.0286226
0.0281391
0.027684
0.0383166
0.0381492
0.0378428
0.0374235
0.0369162
0.0363436
0.0357258
0.0350796
0.0344186
0.0337538
0.0330939
0.0324457
0.0318145
0.0312041
0.0306175
0.0300563
0.0295219
0.0290144
0.0285343
0.0280806
0.0276534
0.0376975
0.0375389
0.0372485
0.0368512
0.0363706
0.0358285
0.0352438
0.0346324
0.0340075
0.0333793
0.0327561
0.0321442
0.0315485
0.0309727
0.0304194
0.0298902
0.0293864
0.028908
0.0284554
0.0280277
0.027625
0.0371584
0.0370075
0.0367312
0.0363532
0.0358962
0.0353807
0.0348249
0.0342441
0.0336507
0.0330543
0.032463
0.0318825
0.0313177
0.0307718
0.0302474
0.0297458
0.0292683
0.028815
0.0283861
0.0279809
0.0275993
0.036701
0.0365567
0.0362924
0.035931
0.0354941
0.0350013
0.0344703
0.0339154
0.0333486
0.0327794
0.032215
0.0316612
0.0311224
0.0306017
0.0301016
0.0296234
0.0291681
0.0287359
0.0283269
0.0279406
0.0275767
0.0363276
0.0361886
0.0359343
0.0355865
0.035166
0.034692
0.0341811
0.0336475
0.0331025
0.0325553
0.0320129
0.0314808
0.0309631
0.0304631
0.0299827
0.0295234
0.0290861
0.028671
0.0282782
0.0279071
0.0275576
0.0360409
0.0359061
0.0356594
0.0353222
0.0349144
0.0344547
0.0339594
0.0334421
0.0329139
0.0323836
0.031858
0.0313425
0.0308411
0.0303567
0.0298914
0.0294466
0.029023
0.028621
0.0282405
0.0278812
0.0275425
0.0358446
0.0357127
0.0354713
0.0351413
0.0347423
0.0342925
0.0338078
0.0333017
0.0327849
0.0322662
0.0317521
0.031248
0.0307576
0.030284
0.029829
0.029394
0.0289798
0.0285867
0.0282146
0.0278632
0.027532
0.0357435
0.035613
0.0353744
0.0350482
0.0346538
0.0342091
0.0337299
0.0332294
0.0327186
0.0322058
0.0316976
0.0311993
0.0307147
0.0302465
0.0297968
0.0293669
0.0289576
0.028569
0.0282012
0.0278538
0.0275265
0.117337
0.118502
0.12078
0.124025
0.128154
0.133183
0.13902
0.145766
0.15331
0.161812
0.171128
0.181501
0.192743
0.205124
0.218473
0.23307
0.248625
0.26555
0.283438
0.302797
0.322963
0.344748
0.366879
0.117436
0.118604
0.120886
0.124138
0.128274
0.133313
0.13916
0.145919
0.153478
0.161996
0.171327
0.181719
0.192978
0.205364
0.218743
0.233347
0.248926
0.265875
0.283782
0.303156
0.323336
0.345129
0.367267
0.117527
0.118698
0.120984
0.124242
0.128386
0.133433
0.13929
0.146061
0.153632
0.162164
0.171506
0.181908
0.193177
0.205551
0.21897
0.233594
0.249179
0.266112
0.283999
0.303344
0.323474
0.3452
0.367254
0.117612
0.118785
0.121075
0.124338
0.128489
0.133544
0.13941
0.14619
0.153772
0.162313
0.171663
0.182068
0.193349
0.205854
0.219153
0.233745
0.249319
0.266229
0.284071
0.303355
0.323395
0.345009
0.366904
0.117689
0.118865
0.121158
0.124426
0.128583
0.133645
0.139518
0.146306
0.153897
0.162447
0.171786
0.182206
0.193516
0.205965
0.219271
0.23384
0.249378
0.26624
0.284008
0.303195
0.323101
0.344554
0.366216
0.11776
0.118937
0.121234
0.124506
0.128668
0.133736
0.139616
0.14641
0.154008
0.162564
0.17187
0.182349
0.19362
0.206045
0.219339
0.233878
0.249357
0.266146
0.28381
0.302866
0.322592
0.343826
0.365185
0.117823
0.119002
0.121302
0.124578
0.128745
0.133818
0.139703
0.146502
0.154105
0.162657
0.172068
0.18243
0.193692
0.206094
0.219358
0.233849
0.249252
0.265946
0.283477
0.302366
0.321865
0.342828
0.363813
0.117879
0.11906
0.121362
0.124642
0.128813
0.13389
0.139779
0.146582
0.154189
0.162713
0.172112
0.182488
0.193734
0.206104
0.219324
0.233754
0.249064
0.265641
0.283009
0.301697
0.320924
0.341562
0.362103
0.117928
0.11911
0.121415
0.124697
0.128872
0.133953
0.139845
0.146649
0.15426
0.162796
0.17215
0.182524
0.193745
0.206074
0.21924
0.233594
0.248794
0.265231
0.282407
0.30086
0.319768
0.340029
0.360058
0.117969
0.119153
0.12146
0.124745
0.128923
0.134006
0.1399
0.146703
0.154305
0.162826
0.17218
0.182535
0.193724
0.206004
0.219104
0.233369
0.24844
0.264717
0.281672
0.299855
0.3184
0.338233
0.357681
0.118004
0.119189
0.121498
0.124785
0.128965
0.13405
0.139944
0.146747
0.154316
0.162849
0.172191
0.182521
0.19367
0.205894
0.218917
0.233079
0.248004
0.264099
0.280805
0.298684
0.316822
0.336175
0.354975
0.118032
0.119218
0.121527
0.124817
0.128999
0.134084
0.139978
0.146781
0.15436
0.162859
0.172181
0.182481
0.193585
0.205745
0.218679
0.232724
0.247487
0.263377
0.279806
0.297348
0.315035
0.333858
0.351944
0.118052
0.119239
0.12155
0.12484
0.129024
0.134109
0.140002
0.146801
0.154356
0.162853
0.172151
0.182416
0.193468
0.205556
0.218391
0.232306
0.246888
0.262553
0.278676
0.295848
0.313041
0.331286
0.348593
0.118066
0.119253
0.121565
0.124856
0.12904
0.134124
0.140015
0.146802
0.15435
0.162831
0.172101
0.182326
0.19332
0.205328
0.218052
0.231825
0.246208
0.261627
0.277416
0.294186
0.310842
0.328461
0.344927
0.118072
0.11926
0.121572
0.124864
0.129048
0.13413
0.140018
0.146777
0.154334
0.162793
0.172032
0.182211
0.193141
0.205061
0.217664
0.23128
0.245447
0.260599
0.276028
0.292363
0.308441
0.325386
0.340951
0.118072
0.11926
0.121572
0.124864
0.129048
0.134127
0.140013
0.146774
0.154303
0.162739
0.171942
0.182071
0.192931
0.204755
0.217227
0.230672
0.244607
0.259471
0.274512
0.290381
0.30584
0.322066
0.33667
0.118065
0.119253
0.121565
0.124856
0.129039
0.134115
0.139997
0.146751
0.154257
0.162668
0.171832
0.181907
0.19269
0.20441
0.21674
0.230003
0.243688
0.258244
0.27287
0.288242
0.303042
0.318505
0.332089
0.11805
0.119238
0.12155
0.124841
0.129022
0.134094
0.139969
0.146709
0.154199
0.162581
0.171703
0.181718
0.192419
0.204027
0.216205
0.229271
0.242691
0.256917
0.271102
0.285948
0.300049
0.314705
0.327216
0.118029
0.119217
0.121528
0.124818
0.128997
0.134063
0.139919
0.146659
0.154127
0.162478
0.171554
0.181505
0.192117
0.203605
0.215622
0.228479
0.241615
0.255493
0.269211
0.2835
0.296864
0.310672
0.322057
0.118001
0.119188
0.121499
0.124787
0.128963
0.134025
0.139836
0.146594
0.154043
0.162358
0.171386
0.181268
0.191786
0.203146
0.214991
0.227625
0.240463
0.253972
0.267197
0.280901
0.293491
0.306411
0.316617
0.117966
0.119153
0.121462
0.124749
0.128922
0.133981
0.139869
0.146517
0.153945
0.162223
0.171199
0.181007
0.191425
0.202649
0.214312
0.226711
0.239234
0.252355
0.265063
0.278153
0.289932
0.301925
0.310906
0.117924
0.119111
0.121419
0.124703
0.128873
0.133926
0.139774
0.146429
0.153834
0.162073
0.170993
0.180722
0.191035
0.202115
0.213587
0.225738
0.23793
0.250644
0.262809
0.275257
0.28619
0.297219
0.304929
0.117875
0.119062
0.121368
0.12465
0.128816
0.133858
0.139688
0.146332
0.153711
0.161907
0.170769
0.180415
0.190616
0.201545
0.212815
0.224705
0.236552
0.248838
0.260437
0.272218
0.282269
0.2923
0.298694
0.11782
0.119006
0.12131
0.124589
0.128751
0.133776
0.139601
0.146225
0.153574
0.161725
0.170525
0.180084
0.190168
0.200937
0.211997
0.223613
0.2351
0.24694
0.257949
0.269035
0.278172
0.287171
0.292209
0.117758
0.118943
0.121246
0.124521
0.128679
0.133694
0.139504
0.146107
0.153425
0.161529
0.170264
0.179731
0.189692
0.200294
0.211134
0.222464
0.233575
0.244949
0.255346
0.265713
0.273902
0.281838
0.285482
0.117689
0.118874
0.121174
0.124446
0.1286
0.133631
0.139398
0.145978
0.153263
0.161317
0.169984
0.179355
0.189187
0.199615
0.210226
0.221257
0.231978
0.242868
0.252631
0.262254
0.269463
0.276308
0.278521
0.117614
0.118798
0.121096
0.124364
0.128511
0.133525
0.139282
0.145839
0.153089
0.161091
0.169686
0.178957
0.188655
0.198901
0.209274
0.219993
0.23031
0.240698
0.249804
0.258659
0.264859
0.270584
0.271333
0.117532
0.118715
0.121011
0.124276
0.12841
0.133415
0.139158
0.14569
0.152903
0.160851
0.169371
0.178537
0.188095
0.198151
0.208277
0.218673
0.228572
0.238438
0.246869
0.254931
0.260092
0.264674
0.263928
0.117444
0.118627
0.120919
0.12418
0.128311
0.133298
0.139025
0.145531
0.152705
0.160596
0.169039
0.178095
0.187508
0.197368
0.207237
0.217297
0.226765
0.236091
0.243826
0.251073
0.255167
0.258583
0.256311
0.117349
0.118531
0.120821
0.124078
0.128213
0.133174
0.138884
0.145361
0.152496
0.160327
0.168689
0.177632
0.186895
0.19655
0.206155
0.215866
0.22489
0.233657
0.240679
0.247087
0.250087
0.252317
0.248491
0.117248
0.11843
0.120716
0.123965
0.128092
0.133043
0.138734
0.145182
0.152275
0.160045
0.168323
0.177148
0.186255
0.195698
0.205029
0.214381
0.222948
0.231138
0.237428
0.242975
0.244856
0.245883
0.240475
0.11714
0.118322
0.120605
0.123844
0.127965
0.132905
0.138575
0.144993
0.152042
0.159749
0.167939
0.176643
0.185589
0.194814
0.203862
0.212842
0.220939
0.228534
0.234077
0.238739
0.239477
0.239285
0.232269
0.117027
0.118208
0.120488
0.123745
0.127832
0.132759
0.138409
0.144795
0.151798
0.159439
0.16754
0.176118
0.184897
0.193896
0.202653
0.211249
0.218865
0.225846
0.230626
0.234381
0.233956
0.232531
0.223877
0.116907
0.118088
0.120364
0.12361
0.127694
0.132606
0.138234
0.144587
0.151544
0.159117
0.167125
0.175573
0.18418
0.192946
0.201404
0.209605
0.216726
0.223076
0.227079
0.229902
0.228295
0.225625
0.215303
0.116781
0.117962
0.120235
0.123471
0.127548
0.132445
0.138051
0.144371
0.151279
0.158782
0.166693
0.175008
0.183438
0.191964
0.200114
0.207908
0.214523
0.220224
0.223436
0.225302
0.222499
0.218571
0.116649
0.11783
0.120102
0.123328
0.127396
0.132277
0.137859
0.144143
0.151001
0.158431
0.166243
0.17442
0.182666
0.190946
0.198778
0.206155
0.212251
0.217286
0.219695
0.220581
0.21657
0.211371
0.116511
0.117691
0.119959
0.12318
0.127237
0.132102
0.137659
0.143907
0.150712
0.158067
0.165776
0.173811
0.181868
0.189894
0.1974
0.204349
0.209915
0.214269
0.215866
0.215749
0.210529
0.204043
0.116368
0.117551
0.119812
0.123029
0.127078
0.131928
0.137463
0.143676
0.150432
0.157714
0.165322
0.173216
0.181084
0.188854
0.196029
0.202542
0.207567
0.211225
0.211993
0.210843
0.204399
0.19661
0.116218
0.117402
0.119664
0.122878
0.126921
0.13176
0.137279
0.143463
0.150175
0.15739
0.164903
0.172659
0.180339
0.18785
0.194686
0.200747
0.205205
0.208129
0.208026
0.205776
0.198056
0.188895
0.116062
0.117243
0.119496
0.122697
0.126721
0.131531
0.13701
0.143139
0.149776
0.156888
0.164264
0.171835
0.179277
0.186473
0.192913
0.198463
0.202305
0.204443
0.203455
0.200064
0.191153
0.107985
0.108991
0.110899
0.113594
0.116963
0.120963
0.125479
0.130482
0.135825
0.141466
0.147184
0.152905
0.158287
0.163212
0.167138
0.169946
0.170756
0.169628
0.164988
0.157746
0.144348
0.108333
0.109345
0.111269
0.113989
0.117393
0.121441
0.12602
0.131108
0.136559
0.142341
0.14824
0.154196
0.159871
0.165174
0.169564
0.172961
0.174467
0.174218
0.170555
0.164571
0.152484
0.139012
0.108675
0.109686
0.111619
0.114353
0.117779
0.12186
0.126482
0.131629
0.13716
0.14305
0.149091
0.155237
0.161159
0.166786
0.171587
0.175517
0.177676
0.178259
0.175569
0.170807
0.160125
0.148163
0.109011
0.110024
0.111967
0.114717
0.118168
0.122283
0.126952
0.132163
0.137776
0.143777
0.149963
0.156298
0.162463
0.168407
0.173605
0.178046
0.180826
0.182199
0.180434
0.176819
0.167485
0.15695
0.109343
0.110359
0.112312
0.11508
0.118557
0.122709
0.127426
0.132702
0.138401
0.144515
0.150845
0.157371
0.163778
0.170035
0.175624
0.180567
0.183956
0.1861
0.185243
0.182741
0.174744
0.165615
0.10967
0.110688
0.112653
0.115439
0.118942
0.123129
0.127894
0.133235
0.139017
0.145241
0.151713
0.158425
0.165068
0.171633
0.177605
0.183039
0.187025
0.189926
0.189967
0.188554
0.181891
0.17415
0.109992
0.111013
0.112989
0.115792
0.11932
0.123543
0.128355
0.133758
0.139622
0.145954
0.152564
0.159458
0.166331
0.173195
0.179541
0.185455
0.190026
0.193665
0.194594
0.194242
0.188904
0.182533
0.110309
0.111332
0.11332
0.11614
0.119693
0.123951
0.128809
0.134274
0.140217
0.146654
0.1534
0.160471
0.16757
0.174726
0.181436
0.187818
0.192962
0.19732
0.199123
0.199806
0.195777
0.190763
0.177754
0.11062
0.111646
0.113645
0.116483
0.120061
0.124353
0.129256
0.134781
0.140802
0.147343
0.154222
0.161466
0.168784
0.176225
0.183291
0.190128
0.195833
0.200892
0.203554
0.205246
0.202506
0.198837
0.187631
0.110926
0.111956
0.113966
0.11682
0.120423
0.124749
0.129696
0.135281
0.141378
0.148021
0.155028
0.162441
0.169973
0.177691
0.185104
0.192386
0.198638
0.204379
0.207885
0.210562
0.209089
0.206752
0.197312
0.111226
0.11226
0.114281
0.117152
0.120779
0.125138
0.130129
0.135772
0.141944
0.148685
0.155818
0.163396
0.171137
0.179126
0.186876
0.19459
0.201377
0.20778
0.212114
0.215751
0.215521
0.2145
0.206796
0.111521
0.112558
0.114591
0.117479
0.121129
0.125521
0.130554
0.136255
0.1425
0.149337
0.156593
0.164332
0.172275
0.180527
0.188606
0.196739
0.204048
0.211095
0.216239
0.220812
0.221798
0.222076
0.216075
0.11181
0.112851
0.114895
0.117799
0.121473
0.125897
0.130973
0.136728
0.143045
0.149977
0.157352
0.165247
0.173387
0.181894
0.190294
0.198833
0.206651
0.214322
0.220257
0.225743
0.227917
0.229475
0.225146
0.112093
0.113139
0.115195
0.118114
0.121811
0.126267
0.131383
0.137193
0.14358
0.150603
0.158094
0.166141
0.174473
0.183228
0.191938
0.200872
0.209185
0.217461
0.224167
0.230543
0.233874
0.23669
0.234
0.112371
0.113421
0.115486
0.118423
0.122142
0.126629
0.131785
0.137649
0.144103
0.151216
0.15882
0.167014
0.175532
0.184527
0.193539
0.202855
0.211649
0.220511
0.227967
0.235208
0.239666
0.243716
0.242631
0.112642
0.113697
0.115771
0.118726
0.122467
0.126984
0.13218
0.138096
0.144616
0.151815
0.159529
0.167866
0.176565
0.185792
0.195097
0.20478
0.214042
0.22347
0.231656
0.239736
0.24529
0.250546
0.251031
0.112908
0.113967
0.116053
0.119023
0.122786
0.127332
0.132566
0.138532
0.145117
0.1524
0.160221
0.168697
0.17757
0.187021
0.19661
0.206649
0.216363
0.226338
0.23523
0.244126
0.250742
0.257175
0.259193
0.113168
0.114231
0.116328
0.119313
0.123097
0.127673
0.132944
0.13896
0.145607
0.152972
0.160895
0.169505
0.178547
0.188215
0.198077
0.208459
0.218612
0.229114
0.23869
0.248375
0.25602
0.263598
0.26711
0.113421
0.114489
0.116597
0.119597
0.123402
0.128006
0.133313
0.139377
0.146084
0.153529
0.161552
0.170291
0.179496
0.189373
0.1995
0.210212
0.220786
0.231797
0.242032
0.25248
0.26112
0.26981
0.274772
0.113668
0.114742
0.116859
0.119874
0.1237
0.128331
0.133674
0.139784
0.14655
0.154072
0.162191
0.171055
0.180418
0.190495
0.200876
0.211905
0.222887
0.234385
0.245256
0.25644
0.266038
0.275805
0.282174
0.11391
0.114988
0.117115
0.120145
0.12399
0.128649
0.134025