/*--------------------------------*- C++ -*----------------------------------*\
  =========                 |
  \\      /  F ield         | OpenFOAM: The Open Source CFD Toolbox
   \\    /   O peration     | Website:  https://openfoam.org
    \\  /    A nd           | Version:  7
     \\/     M anipulation  |
\*---------------------------------------------------------------------------*/
FoamFile
{
    version     2.0;
    format      ascii;
    class       surfaceScalarField;
    location    "140";
    object      phi;
}
// * * * * * * * * * * * * * * * * * * * * * * * * * * * * * * * * * * * * * //

dimensions      [0 3 -1 0 0 0 0];

internalField   nonuniform List<scalar> 
8921
(
-0.00236146
-0.00105509
-0.00228795
-0.00107358
-0.00221355
-0.00109153
-0.00103364
-0.00208507
-0.00213826
-0.00110893
-0.00104962
-0.00201076
-0.00206211
-0.00112577
-0.00106504
-0.00193563
-0.00198512
-0.00114203
-0.00107991
-0.00185971
-0.00190731
-0.00115772
-0.00101752
-0.00173926
-0.00109422
-0.001783
-0.00182871
-0.00117282
-0.00103052
-0.00166366
-0.00110797
-0.00170556
-0.00174935
-0.00118733
-0.00104297
-0.00158735
-0.00112114
-0.00162739
-0.00166925
-0.00120124
-0.00105487
-0.00151037
-0.00113373
-0.00154854
-0.00158844
-0.00121454
-0.000988597
-0.00139846
-0.00106622
-0.00143275
-0.00114574
-0.00146902
-0.00150696
-0.00122722
-0.000998774
-0.00132201
-0.00107702
-0.00135451
-0.00115716
-0.00138888
-0.00142483
-0.00123929
-0.00100842
-0.001245
-0.00108725
-0.00127568
-0.00116799
-0.00130813
-0.00134208
-0.00125073
-0.00101753
-0.00116744
-0.00109691
-0.0011963
-0.00117822
-0.00122682
-0.00125876
-0.00126155
-0.00102611
-0.00108937
-0.00110601
-0.00111639
-0.00118786
-0.00114498
-0.00117489
-0.00127173
-0.000955591
-0.000987097
-0.00103414
-0.00101082
-0.00111454
-0.001036
-0.00119689
-0.00106263
-0.0010905
-0.00128127
-0.000962637
-0.000909841
-0.00104164
-0.000931814
-0.00112249
-0.000955141
-0.00120531
-0.000979815
-0.00100563
-0.00129017
-0.00096917
-0.000832174
-0.00104859
-0.000852395
-0.00112987
-0.000873862
-0.00121312
-0.000896565
-0.000920322
-0.00129843
-0.00097519
-0.000754129
-0.00105499
-0.000772591
-0.00113667
-0.000792189
-0.00122032
-0.000812913
-0.0008346
-0.00130604
-0.000980695
-0.000675739
-0.00106085
-0.000692435
-0.00114288
-0.000710158
-0.0012269
-0.000728895
-0.000748502
-0.001313
-0.000985682
-0.000597034
-0.00106616
-0.000611961
-0.00114851
-0.000627801
-0.00123286
-0.000644544
-0.000662065
-0.0013193
-0.000990151
-0.000518049
-0.00107091
-0.0005312
-0.00115356
-0.000545153
-0.00123821
-0.000559897
-0.000575323
-0.00132495
-0.000994101
-0.000438815
-0.00107511
-0.000450188
-0.00115802
-0.000462249
-0.00124293
-0.000474987
-0.000488314
-0.00132994
-0.000997531
-0.000359366
-0.00107876
-0.000368956
-0.00116189
-0.000379121
-0.00124703
-0.000389851
-0.000401073
-0.00133427
-0.00100044
-0.000279735
-0.00108185
-0.00028754
-0.00116517
-0.000295806
-0.0012505
-0.000304522
-0.000313636
-0.00133794
-0.00100282
-0.000199955
-0.00108439
-0.000205973
-0.00116786
-0.000212337
-0.00125334
-0.000219038
-0.000226039
-0.00134094
-0.000924792
-0.000116059
-0.00100469
-0.000120059
-0.00108637
-0.000124289
-0.00116996
-0.00012875
-0.00125556
-0.000133433
-0.000138316
-0.00134329
-0.000926051
-3.77592e-05
-0.00100603
-4.00813e-05
-0.00108779
-4.2523e-05
-0.00117147
-4.50797e-05
-0.00125715
-4.77448e-05
-5.05062e-05
-0.00134496
-0.000926819
4.05892e-05
-0.00100685
3.99453e-05
-0.00108866
3.92919e-05
-0.00117238
3.86382e-05
-0.00125811
3.79896e-05
3.73308e-05
-0.00134595
-0.000927098
0.000118954
-0.00100714
0.000119987
-0.00108897
0.000121121
-0.0011727
0.00012237
-0.00125845
0.000123736
0.000125186
-0.0013463
-0.000926888
0.000197302
-0.00100691
0.000200012
-0.00108872
0.000202932
-0.00117243
0.000206081
-0.00125816
0.000209461
0.000213022
-0.00134599
-0.000926189
-0.00100616
0.000279985
-0.00108792
0.000284689
-0.00117157
0.000289736
-0.00125724
0.000295128
0.000300797
-0.00134502
-0.00100489
0.000359873
-0.00108656
0.000366358
-0.00117012
0.000373301
-0.0012557
0.000380701
0.000388474
-0.00134337
-0.0010031
0.000439644
-0.00108465
0.000447906
-0.00116808
0.00045674
-0.00125353
0.000466144
0.000476016
-0.00134107
-0.00100078
0.000519264
-0.00108218
0.0005293
-0.00116546
0.00054002
-0.00125074
0.000551423
0.000563388
-0.00133811
-0.000997951
0.0005987
-0.00107916
0.000610505
-0.00116224
0.000623105
-0.00124732
0.000636501
0.000650553
-0.00133448
-0.0009946
0.000677919
-0.00107558
0.000691487
-0.00115844
0.000705963
-0.00124328
0.000721344
0.000737474
-0.0013302
-0.000990733
0.00075689
-0.00107146
0.000772215
-0.00115406
0.000788557
-0.00123863
0.000805917
0.000824116
-0.00132527
-0.000986351
0.000835579
-0.00106679
0.000852654
-0.00114909
0.000870856
-0.00123336
0.000890185
0.000910444
-0.00131968
-0.000981456
0.000913954
-0.00106157
0.000932772
-0.00114354
0.000952825
-0.00122747
0.000974114
0.000996422
-0.00131345
-0.00097605
0.000991983
-0.00105581
0.00101254
-0.00113742
0.00103443
-0.00122098
0.00105767
0.00108201
-0.00130657
-0.000970134
0.00106964
-0.00104951
0.00109191
-0.00113072
0.00111564
-0.00121387
0.00114082
0.00116719
-0.00129905
-0.000963712
-0.00104267
0.00117088
-0.00112345
0.00119642
-0.00120616
0.00122353
0.00125191
-0.00129088
-0.0010353
0.00124939
-0.00111562
0.00127674
-0.00119785
0.00130576
0.00133614
-0.00128209
-0.00102739
0.00132742
-0.00110722
0.00135657
-0.00118895
0.00138749
0.00141985
-0.00127266
-0.00101895
0.00140494
-0.00109825
0.00143588
-0.00117945
0.00146869
0.00150301
-0.00126261
-0.00100998
0.00148192
-0.00108873
0.00151463
-0.00116936
0.00154931
0.00158559
-0.00125194
-0.00100049
-0.00107866
0.0015928
-0.00115869
0.00162934
0.00166755
-0.00124065
-0.00106804
0.00167036
-0.00114744
0.00170874
0.00174886
-0.00122875
-0.00105687
0.00174728
-0.00113561
0.00178748
0.0018295
-0.00121625
-0.00104517
0.00182352
-0.00112322
0.00186554
0.00190943
-0.00120316
-0.00103292
-0.00111027
0.00194288
0.00198863
-0.00118947
-0.00109676
0.00201949
0.00206708
-0.0011752
-0.0010827
0.00209533
0.00214474
-0.00116036
-0.0010681
0.0022216
-0.00114496
0.00229763
-0.00112899
0.00237283
-0.00111248
-0.00109543
0.00559849
3.47215e-05
-3.12383e-05
0.00558878
9.94768e-05
-8.97652e-05
0.00557372
0.000164084
-0.000149027
0.00555404
0.000230956
-0.00021127
0.00553008
0.000302462
-0.000278505
0.00550246
0.000378525
-0.000350905
0.00547131
0.000459907
-0.000428756
0.00543727
0.000545557
-0.00051152
0.00540046
0.000636387
-0.000599581
0.00536178
0.000730872
-0.000692183
0.00532144
0.000830494
-0.000790161
0.00528081
0.000932982
-0.000892347
0.00524032
0.0010406
-0.00100011
0.00520208
0.00114956
-0.00111132
0.00516668
0.00126345
-0.00122805
0.00513744
0.00137534
-0.0013461
0.00511458
0.00149209
-0.00146923
0.00510377
0.00159952
-0.00158871
0.0051028
0.00171467
-0.00171369
0.00512354
0.00180281
-0.00182355
0.00191676
-0.00194755
0.00573174
3.81422e-05
0.00572217
0.000109047
0.00570733
0.000178922
0.00568802
0.000250261
0.00566459
0.000325895
0.00563777
0.000405343
0.00560769
0.000489986
0.00557518
0.000578068
0.00554035
0.000671223
0.00550432
0.000766898
0.00546732
0.000867498
0.00543102
0.000969277
0.00539577
0.00107585
0.00536415
0.00118118
0.00533641
0.00129119
0.00531657
0.00139518
0.00530403
0.00150463
0.00530535
0.0015982
0.00531728
0.00170273
0.00535114
0.00176894
0.0018683
0.00586815
4.1499e-05
0.00585879
0.000118406
0.0058443
0.000193419
0.00582552
0.000269039
0.00580284
0.000348577
0.00577706
0.000431124
0.00574837
0.00051867
0.0057177
0.000608741
0.00568524
0.000703687
0.00565222
0.000799909
0.00561897
0.000900753
0.00558728
0.00100096
0.00555756
0.00110557
0.00553249
0.00120625
0.00551232
0.00131136
0.005501
0.0014065
0.00549797
0.00150766
0.00550899
0.00158718
0.0055317
0.00168002
0.00557323
0.00172741
0.00181177
0.00600783
4.47747e-05
0.00599873
0.000127505
0.00598467
0.000207482
0.00596654
0.000287162
0.00594478
0.00037034
0.00592024
0.000455664
0.0058932
0.000545713
0.00586463
0.000637303
0.00583485
0.000733475
0.00580515
0.000829606
0.00577595
0.000929958
0.00574909
0.00102781
0.00572507
0.00112959
0.0057065
0.00122482
0.00569371
0.00132416
0.00569025
0.00140996
0.00569585
0.00150206
0.00571482
0.00156821
0.00574606
0.00164878
0.00579266
0.00168081
0.00175007
0.00615084
4.79531e-05
0.00614205
0.000136296
0.00612849
0.000221033
0.00611113
0.000304524
0.00609043
0.00039104
0.0060673
0.000478792
0.0060421
0.000570914
0.00601587
0.000663536
0.00598899
0.000760351
0.00596284
0.000855762
0.0059379
0.000954897
0.00591602
0.00104969
0.00589778
0.00114783
0.00588559
0.00123701
0.00587993
0.00132982
0.0058837
0.00140619
0.00589708
0.00148869
0.00592276
0.00154253
0.00596079
0.00161075
0.00601167
0.00162993
0.00168458
0.00629726
5.1018e-05
0.00628882
0.000144737
0.00627586
0.000233998
0.00625935
0.000321025
0.00623984
0.000410555
0.00621827
0.000500363
0.00619508
0.000594108
0.00617135
0.000687266
0.00614756
0.000784135
0.0061251
0.000878223
0.00610455
0.000975446
0.00608769
0.00106656
0.00607517
0.00116035
0.00606914
0.00124304
0.00607023
0.00132873
0.00608063
0.0013958
0.00610086
0.00146845
0.0061323
0.00151109
0.00617575
0.00156731
0.00623015
0.00157553
0.00161685
0.00644718
5.39533e-05
0.00643913
0.000152782
0.00642683
0.000246305
0.00641128
0.000336572
0.00639306
0.000428768
0.00637318
0.000520248
0.00635214
0.000615151
0.00633105
0.000708353
0.00631049
0.000804697
0.00629181
0.000896898
0.00627571
0.000991553
0.0062638
0.00107846
0.00625688
0.00116727
0.00625669
0.00124322
0.00626405
0.00132137
0.00628041
0.00137944
0.0063066
0.00144226
0.00634293
0.00147476
0.00639058
0.00151965
0.00644753
0.00151859
0.00154816
0.00660067
5.67426e-05
0.00659307
0.00016039
0.00658149
0.000257885
0.00656698
0.000351079
0.00655017
0.000445575
0.00653209
0.000538333
0.00651332
0.000633924
0.00649498
0.000726692
0.00647773
0.000821945
0.00646288
0.00091175
0.0064512
0.00100323
0.00644413
0.00108552
0.00644257
0.00116884
0.00644786
0.00123793
0.00646094
0.00130829
0.00648261
0.00135776
0.00651386
0.00141101
0.00655424
0.00143439
0.00660504
0.00146885
0.00666364
0.00145999
0.00147936
0.00675783
5.93698e-05
0.0067507
0.000167518
0.00673992
0.000268671
0.00672653
0.000364464
0.00671123
0.000460876
0.00669505
0.000554518
0.00667865
0.000650326
0.00666313
0.000742206
0.00664925
0.000835824
0.00663822
0.000922787
0.00663089
0.00101056
0.00662849
0.00108792
0.00663199
0.00116534
0.00664235
0.00122758
0.00666056
0.00129008
0.00668689
0.00133144
0.00672236
0.00137553
0.00676598
0.00139077
0.00681903
0.00141581
0.00687857
0.00140044
0.00141103
0.00691874
6.18189e-05
0.00691213
0.000174129
0.0069022
0.000278598
0.00689001
0.000376651
0.00687631
0.000474584
0.0068621
0.000568721
0.00684815
0.000664276
0.00683551
0.000754845
0.00682502
0.00084632
0.00681775
0.000930053
0.00681466
0.00101366
0.00681671
0.00108586
0.00682493
0.00115713
0.00683991
0.0012126
0.00686265
0.00126734
0.006893
0.00130109
0.00693192
0.00133661
0.00697807
0.00134462
0.0070326
0.00136128
0.0070925
0.00134054
0.00134365
0.00708348
6.40747e-05
0.00707743
0.000180185
0.00706841
0.000287609
0.00705749
0.000387574
0.00704545
0.000486622
0.0070333
0.000580873
0.00702186
0.000675718
0.00701212
0.000764584
0.00700499
0.000853451
0.00700141
0.00093363
0.00700238
0.00101269
0.00700864
0.0010796
0.0070212
0.00114456
0.00704036
0.00119344
0.00706705
0.00124065
0.00710079
0.00126734
0.00714245
0.00129495
0.00719047
0.00129661
0.00724586
0.00130588
0.00730563
0.00128078
0.00127759
0.00725215
6.61224e-05
0.00724668
0.000185653
0.00723864
0.000295649
0.00722904
0.000397172
0.00721874
0.000496927
0.00720869
0.000590922
0.00719979
0.000684619
0.00719295
0.000771425
0.00718913
0.00085727
0.00718913
0.00093363
0.00719396
0.00100786
0.00720414
0.00106942
0.00722066
0.00112805
0.00724353
0.00117056
0.0072736
0.00121057
0.00731017
0.00123078
0.00735395
0.00125117
0.00740326
0.00124729
0.00745899
0.00125016
0.0075182
0.00122156
0.00121312
0.00742484
6.79488e-05
0.00741999
0.000190505
0.00741296
0.000302672
0.00740474
0.000405397
0.00739622
0.000505449
0.00738831
0.000598832
0.00738196
0.000690968
0.00737799
0.000775393
0.0073774
0.000857864
0.00738083
0.000930192
0.00738929
0.000999405
0.00740311
0.0010556
0.00742317
0.00110799
0.00744931
0.00114442
0.00748224
0.00117765
0.00752108
0.00119193
0.00756642
0.00120583
0.00761653
0.00119718
0.00767216
0.00119453
0.0077305
0.00116322
0.00115046
0.00760164
6.95422e-05
0.00759743
0.000194713
0.00759146
0.00030864
0.00758465
0.000412207
0.00757795
0.000512155
0.00757219
0.000604585
0.00756838
0.000694782
0.00756724
0.000776538
0.00756976
0.000855344
0.00757646
0.000923483
0.0075883
0.000987572
0.00760543
0.00103846
0.00762865
0.00108477
0.00765762
0.00111545
0.0076929
0.00114236
0.00773353
0.0011513
0.00777995
0.00115942
0.00783043
0.00114671
0.00788559
0.00113937
0.00794279
0.00110602
0.00108975
0.00778265
7.08928e-05
0.0077791
0.000198256
0.00777422
0.000313522
0.00776886
0.000417571
0.00776398
0.000517028
0.00776039
0.000608179
0.00775907
0.000696098
0.00776068
0.000774934
0.00776617
0.000849848
0.00777597
0.000913692
0.00779091
0.000972629
0.00781104
0.00101833
0.00783702
0.0010588
0.00786839
0.00108408
0.00790559
0.00110517
0.00794756
0.00110933
0.00799463
0.00111235
0.0080451
0.00109623
0.00809952
0.00108495
0.00815539
0.00105015
0.00103108
0.00796796
7.19931e-05
0.0079651
0.000201115
0.00796132
0.000317298
0.00795742
0.000421472
0.00795439
0.000520066
0.00795293
0.000609634
0.00795406
0.000694973
0.00795831
0.000770675
0.00796663
0.000841533
0.00797929
0.000901026
0.00799707
0.000954854
0.00801988
0.000995518
0.00804824
0.00103043
0.00808162
0.00105071
0.0081203
0.00106649
0.00816321
0.00106642
0.00821057
0.00106499
0.00826074
0.00104606
0.00831417
0.00103152
0.00836856
0.000995763
0.000974516
0.00815768
7.28377e-05
0.00815551
0.000203277
0.00815286
0.000319956
0.00815043
0.000423901
0.00814921
0.000521284
0.00814986
0.000608983
0.00815335
0.000691487
0.00816014
0.000763878
0.0081711
0.000830574
0.00818642
0.000885707
0.00820675
0.000934527
0.00823191
0.000970358
0.0082623
0.00100004
0.0082973
0.00101571
0.00833709
0.0010267
0.00838059
0.00102292
0.00842792
0.00101765
0.00847753
0.000996455
0.00852979
0.000979254
0.00858258
0.000942976
0.000920073
0.0083519
7.34238e-05
0.00835044
0.000204735
0.00834891
0.000321495
0.00834794
0.000424863
0.00834852
0.000520711
0.00835122
0.000606279
0.00835697
0.000685736
0.00836617
0.000754678
0.00837959
0.00081716
0.00839732
0.000867969
0.00841992
0.000911931
0.00844712
0.000943163
0.00847919
0.000967969
0.00851546
0.00097943
0.00855603
0.000986133
0.0085998
0.000979149
0.00864684
0.000970611
0.00869567
0.000947622
0.00874663
0.000928301
0.00879774
0.000891865
0.000867759
0.00855074
7.37509e-05
0.00854999
0.000205484
0.00854956
0.000321923
0.00855005
0.000424376
0.00855237
0.000518391
0.00855706
0.000601593
0.00856496
0.00067783
0.00857641
0.000743225
0.00859208
0.00080149
0.008612
0.000848051
0.00863659
0.000887345
0.00866551
0.000914239
0.00869894
0.000934538
0.00873617
0.0009422
0.0087772
0.000945103
0.00882098
0.000935378
0.0088675
0.000924089
0.00891538
0.000899738
0.00896491
0.00087877
0.00901429
0.000842485
0.000817564
0.0087543
7.38209e-05
0.00875425
0.00020553
0.00875492
0.000321255
0.00875683
0.000422468
0.00876084
0.000514382
0.00876742
0.000595009
0.00877735
0.000667897
0.0087909
0.000729683
0.00880862
0.00078377
0.00883047
0.000826196
0.00885677
0.000861043
0.00888713
0.000883879
0.00892162
0.000900049
0.00895951
0.000904309
0.00900074
0.000903877
0.00904427
0.000891844
0.00909008
0.000878278
0.00913687
0.000852945
0.0091849
0.000830745
0.00923252
0.000794868
0.000769462
0.00896268
7.36377e-05
0.00896333
0.00020488
0.00896507
0.000319517
0.00896836
0.000419181
0.00897398
0.000508753
0.00898237
0.000586626
0.00899419
0.000656072
0.00900965
0.000714224
0.00902921
0.000764211
0.00905276
0.000802645
0.00908051
0.000833292
0.00911203
0.000852364
0.0091473
0.00086478
0.00918558
0.000866024
0.00922676
0.000862698
0.00926985
0.000848754
0.00931479
0.000833339
0.00936037
0.000807358
0.00940683
0.000784287
0.00945267
0.000749034
0.000723421
0.00917601
7.32076e-05
0.00917734
0.000203551
0.00918011
0.000316744
0.00918473
0.000414568
0.00919189
0.000501587
0.00920196
0.000576556
0.00921553
0.000642504
0.00923272
0.00069703
0.00925391
0.000743026
0.00927892
0.000777637
0.00930786
0.000804347
0.00934027
0.000819954
0.00937606
0.000828989
0.0094145
0.000827586
0.00945542
0.000821777
0.00949789
0.000806285
0.00954182
0.000789405
0.00958612
0.000763068
0.00963096
0.00073944
0.00967501
0.000704986
0.000679403
0.0093944
7.25387e-05
0.00939638
0.000201562
0.00940015
0.000312976
0.00940603
0.000408692
0.00941464
0.000492974
0.00942628
0.000564921
0.00944143
0.000627346
0.00946018
0.000678285
0.00948278
0.000720427
0.00950901
0.000751404
0.0095389
0.000774452
0.00957196
0.000786895
0.00960804
0.00079291
0.00964642
0.000789209
0.0096869
0.000781299
0.00972859
0.000764589
0.00977141
0.000746587
0.00981433
0.000720146
0.00985754
0.000696232
0.00989981
0.00066272
0.000637365
0.00961796
7.16407e-05
0.00962058
0.000198941
0.00962529
0.000308263
0.00963236
0.000401625
0.00964232
0.000483017
0.00965539
0.000551851
0.00967197
0.000610759
0.00969208
0.000658178
0.00971589
0.000696623
0.00974312
0.000724172
0.00977373
0.000743837
0.00980721
0.000753415
0.00984337
0.000756755
0.00988149
0.000751086
0.00992137
0.000741425
0.00996216
0.000723792
0.0100038
0.000704974
0.0100453
0.000678646
0.0100868
0.00065468
0.0101273
0.000622224
0.000597261
0.00984682
7.05254e-05
0.00985004
0.000195719
0.00985564
0.00030266
0.00986382
0.000393447
0.00987501
0.000471822
0.00988938
0.000537482
0.00990724
0.000592905
0.00992852
0.000636894
0.00995333
0.000671818
0.00998134
0.000696155
0.0100125
0.000712716
0.0100462
0.000719721
0.0100822
0.000720717
0.0101199
0.000713385
0.010159
0.000702293
0.0101988
0.000684004
0.0102392
0.000664637
0.0102792
0.000638608
0.0103191
0.000614787
0.0103578
0.000583478
0.000559043
0.0100811
6.92057e-05
0.0100849
0.000191933
0.0100913
0.000296229
0.0101005
0.000384247
0.0101128
0.000459504
0.0101284
0.000521955
0.0101473
0.000573949
0.0101696
0.000614619
0.0101952
0.000646209
0.0102238
0.000667556
0.0102552
0.000681292
0.0102889
0.000686005
0.0103247
0.000684966
0.0103618
0.000676254
0.0104001
0.000664023
0.0104388
0.000645311
0.0104778
0.000625631
0.0105163
0.00060006
0.0105546
0.000576553
0.0105916
0.000546458
0.000522664
0.0103209
6.76959e-05
0.0103252
0.000187623
0.0103324
0.000289036
0.0103426
0.000374117
0.0103559
0.000446182
0.0103724
0.000505414
0.0103923
0.000554053
0.0104154
0.000591532
0.0104416
0.000619986
0.0104706
0.000638569
0.0105022
0.000649749
0.0105357
0.00065244
0.010571
0.000649656
0.0106075
0.000639824
0.0106448
0.000626715
0.0106823
0.000607788
0.0107199
0.000588
0.010757
0.000563018
0.0107936
0.000539966
0.0108289
0.000511136
0.000488072
0.0105665
6.60114e-05
0.0105712
0.000182833
0.0105791
0.000281151
0.0105901
0.000363154
0.0106043
0.000431976
0.0106217
0.000488002
0.0106424
0.000533381
0.0106661
0.000567809
0.0106928
0.000593327
0.010722
0.00060937
0.0107535
0.000618257
0.0107867
0.00061918
0.0108214
0.000614921
0.0108571
0.000604204
0.0108933
0.000590452
0.0109296
0.000571492
0.0109659
0.000551773
0.0110014
0.00052749
0.0110363
0.000505011
0.01107
0.000477477
0.000455217
0.0108178
6.41685e-05
0.010823
0.000177609
0.0108315
0.000272647
0.0108432
0.000351457
0.0108582
0.000417009
0.0108763
0.000469861
0.0108976
0.000512087
0.0109218
0.000543615
0.0109487
0.000566403
0.010978
0.000580127
0.0110093
0.000586969
0.0110421
0.000586366
0.0110761
0.000580878
0.0111108
0.00056949
0.011146
0.000555303
0.011181
0.000536467
0.0112158
0.00051697
0.0112498
0.000493476
0.0112832
0.000471665
0.0113152
0.000445449
0.000424048
0.0110751
6.21843e-05
0.0110807
0.000171999
0.0110897
0.0002636
0.0111021
0.000339128
0.0111177
0.000401403
0.0111364
0.000451133
0.0111582
0.000490325
0.0111827
0.000519109
0.0112097
0.000539369
0.0112388
0.000550989
0.0112698
0.000556026
0.011302
0.000554118
0.0113353
0.000547628
0.011369
0.000535761
0.011403
0.000521324
0.0114367
0.000502748
0.0114701
0.000483602
0.0115026
0.000460966
0.0115343
0.000439902
0.0115648
0.000415011
0.000394511
0.0113385
6.00761e-05
0.0113444
0.000166054
0.0113539
0.000254088
0.0113668
0.000326268
0.0113829
0.000385278
0.0114021
0.000431952
0.0114242
0.000468238
0.0114488
0.000494441
0.0114758
0.000512373
0.0115047
0.000522097
0.0115352
0.00052555
0.0115668
0.000522546
0.0115991
0.000515259
0.0116318
0.000503083
0.0116646
0.000488557
0.011697
0.000470356
0.0117289
0.00045167
0.0117599
0.000429949
0.0117901
0.000409693
0.011819
0.000386124
0.000366555
0.0116081
5.78618e-05
0.0116143
0.000159823
0.0116242
0.000244185
0.0116375
0.000312976
0.011654
0.00036875
0.0116735
0.00041245
0.0116958
0.000445965
0.0117205
0.000469748
0.0117473
0.000485547
0.0117759
0.000493573
0.0118058
0.000495651
0.0118366
0.00049174
0.011868
0.000483841
0.0118995
0.000471508
0.0119311
0.000457034
0.0119621
0.000439305
0.0119926
0.00042117
0.0120222
0.000400403
0.0120509
0.000381002
0.0120782
0.000358745
0.000340126
0.0118841
5.55589e-05
0.0118906
0.000153356
0.0119008
0.000233968
0.0119144
0.00029935
0.0119312
0.000351934
0.0119509
0.000392749
0.0119733
0.000423632
0.0119978
0.000445159
0.0120244
0.000459013
0.0120524
0.000465528
0.0120816
0.000466425
0.0121116
0.00046178
0.012142
0.000453435
0.0121724
0.000441077
0.0122027
0.000426775
0.0122324
0.0004096
0.0122615
0.000392088
0.0122896
0.000372306
0.0123168
0.000353794
0.0123427
0.00033283
0.00031517
0.0121667
5.3185e-05
0.0121733
0.000146704
0.0121838
0.000223511
0.0121976
0.000285483
0.0122146
0.000334937
0.0122344
0.000372967
0.0122567
0.00040136
0.012281
0.00042079
0.0123072
0.000432879
0.0123347
0.000438061
0.0123631
0.000437954
0.0123922
0.000432732
0.0124215
0.000424088
0.0124508
0.000411821
0.0124798
0.000397795
0.0125081
0.000381239
0.0125358
0.000364409
0.0125625
0.000345628
0.0125882
0.000328027
0.0126127
0.000308332
0.000291633
0.0124559
5.07573e-05
0.0124627
0.000139913
0.0124733
0.000212886
0.0124873
0.000271466
0.0125044
0.00031786
0.0125242
0.000353213
0.0125463
0.000379256
0.0125703
0.000396746
0.012596
0.000407242
0.0126228
0.000411254
0.0126504
0.000410307
0.0126785
0.000404649
0.0127067
0.000395836
0.0127348
0.000383758
0.0127625
0.000370095
0.0127895
0.00035421
0.0128158
0.000338108
0.0128411
0.000320336
0.0128655
0.000303661
0.0128886
0.000285205
0.000269461
0.012752
4.82922e-05
0.0127589
0.000133029
0.0127696
0.000202158
0.0127837
0.000257382
0.0128008
0.000300798
0.0128204
0.000333586
0.0128422
0.000357421
0.0128659
0.000373123
0.0128909
0.000382186
0.012917
0.000385182
0.0129438
0.000383541
0.0129708
0.000377573
0.012998
0.000368705
0.0130248
0.000356901
0.0130512
0.000343672
0.013077
0.000328499
0.0131019
0.000313158
0.0131259
0.000296396
0.0131489
0.000280649
0.0131707
0.000263398
0.000248599
0.0130552
4.58054e-05
0.0130621
0.000126097
0.0130729
0.000191394
0.0130869
0.00024331
0.0131039
0.000283838
0.0131233
0.000314176
0.0131448
0.000335943
0.0131679
0.000350001
0.0131923
0.000357783
0.0132176
0.000359903
0.0132434
0.000357703
0.0132695
0.000351536
0.0132955
0.000342711
0.0133211
0.000331252
0.0133463
0.000318517
0.0133707
0.000304084
0.0133943
0.000289527
0.0134169
0.000273767
0.0134386
0.000258946
0.0134592
0.000242862
0.000228991
0.0133655
4.33117e-05
0.0133724
0.000119155
0.0133832
0.000180652
0.0133972
0.000229323
0.0134139
0.00026706
0.0134331
0.000295065
0.0134541
0.000314899
0.0134766
0.000327453
0.0135003
0.000334094
0.0135248
0.000335466
0.0135496
0.000332827
0.0135746
0.000326559
0.0135995
0.000317862
0.0136239
0.000306807
0.0136478
0.000294611
0.013671
0.000280938
0.0136933
0.000267179
0.0137147
0.000252408
0.0137351
0.000238504
0.0137544
0.000223546
0.000210582
0.0136832
4.08245e-05
0.0136901
0.000112242
0.0137008
0.000169985
0.0137146
0.000215486
0.0137311
0.000250534
0.0137499
0.000276324
0.0137704
0.000294357
0.0137923
0.000305537
0.0138153
0.000311169
0.0138388
0.000311911
0.0138627
0.000308938
0.0138866
0.000302654
0.0139103
0.000294157
0.0139336
0.000283552
0.0139562
0.000271932
0.0139781
0.000259031
0.0139993
0.000246076
0.0140194
0.000232275
0.0140386
0.000219273
0.0140568
0.000205398
0.000193318
0.0140084
3.83563e-05
0.0140153
0.000105391
0.0140258
0.000159444
0.0140394
0.000201858
0.0140557
0.000234322
0.014074
0.000258016
0.0140939
0.000274374
0.0141152
0.000284305
0.0141373
0.000289047
0.01416
0.000289264
0.0141828
0.000286052
0.0142057
0.000279826
0.0142282
0.000271588
0.0142503
0.000261471
0.0142718
0.000250454
0.0142925
0.000238328
0.0143124
0.000226176
0.0143314
0.000213321
0.0143494
0.000201202
0.0143665
0.000188368
0.000177144
0.0143414
3.59182e-05
0.0143481
9.86329e-05
0.0143585
0.000149072
0.0143719
0.00018849
0.0143877
0.000218479
0.0144055
0.000240192
0.0144249
0.000254997
0.0144454
0.000263794
0.0144667
0.000267756
0.0144884
0.000267543
0.0145103
0.000264175
0.0145321
0.00025807
0.0145535
0.00025014
0.0145745
0.00024054
0.0145948
0.000230143
0.0146143
0.00021879
0.0146331
0.000207435
0.0146509
0.0001955
0.0146678
0.000184241
0.0146838
0.000172401
0.000162004
0.0146822
3.35199e-05
0.0146889
9.19932e-05
0.0146991
0.000138905
0.0147121
0.000175426
0.0147275
0.00020305
0.0147448
0.000222895
0.0147636
0.000236262
0.0147833
0.000244034
0.0148038
0.000247316
0.0148246
0.000246759
0.0148454
0.000243306
0.0148661
0.000237374
0.0148865
0.000229793
0.0149063
0.00022073
0.0149255
0.000210963
0.0149439
0.000200376
0.0149615
0.000189805
0.0149783
0.000178761
0.0149942
0.000168336
0.0150091
0.000157445
0.000147844
0.0150312
3.11696e-05
0.0150377
8.54946e-05
0.0150476
0.000128976
0.0150604
0.000162702
0.0150753
0.00018807
0.0150921
0.000206158
0.0151101
0.000218196
0.0151291
0.000225044
0.0151487
0.000227738
0.0151686
0.00022691
0.0151884
0.000223435
0.0152081
0.000217721
0.0152274
0.00021052
0.0152461
0.000202006
0.0152642
0.000192874
0.0152815
0.000183041
0.0152981
0.000173238
0.0153138
0.000163054
0.0153287
0.000153435
0.0153427
0.000143447
0.00013461
0.0153885
2.88744e-05
0.0153948
7.91556e-05
0.0154045
0.000119311
0.0154168
0.000150347
0.0154313
0.000173569
0.0154475
0.000190007
0.0154649
0.000200819
0.0154831
0.000206834
0.0155018
0.000209021
0.0155207
0.00020799
0.0155396
0.000204547
0.0155582
0.000199086
0.0155765
0.000192288
0.0155941
0.000184332
0.0156112
0.000175834
0.0156275
0.000166739
0.015643
0.000157685
0.0156577
0.000148327
0.0156717
0.000139484
0.0156848
0.000130354
0.000122248
0.0157542
2.66398e-05
0.0157604
7.29906e-05
0.0157698
0.000109928
0.0157817
0.000138383
0.0157957
0.000159566
0.0158113
0.000174456
0.0158279
0.000184139
0.0158454
0.000189406
0.0158632
0.00019116
0.0158812
0.000189984
0.0158992
0.000186618
0.0159168
0.000181438
0.015934
0.000175062
0.0159507
0.000167666
0.0159668
0.000159796
0.0159821
0.000151419
0.0159967
0.000143093
0.0160105
0.000134528
0.0160235
0.000126429
0.0160358
0.000118113
0.000110706
0.0161286
2.44697e-05
0.0161346
6.70104e-05
0.0161437
0.000100843
0.0161553
0.000126824
0.0161688
0.000146073
0.0161837
0.000159513
0.0161997
0.000168156
0.0162163
0.000172754
0.0162334
0.000174141
0.0162505
0.000172871
0.0162675
0.000169618
0.0162842
0.000164744
0.0163004
0.0001588
0.0163161
0.000151962
0.0163312
0.000144711
0.0163456
0.000137032
0.0163593
0.00012941
0.0163722
0.000121603
0.0163844
0.000114217
0.0163959
0.000106672
9.99298e-05
0.016512
2.2367e-05
0.0165178
6.12218e-05
0.0165265
9.20647e-05
0.0165377
0.000115678
0.0165507
0.000133094
0.016565
0.000145177
0.0165803
0.000152864
0.0165962
0.000156862
0.0166124
0.000157942
0.0166286
0.00015662
0.0166447
0.000153514
0.0166605
0.000148961
0.0166759
0.000143458
0.0166907
0.000137172
0.0167048
0.000130528
0.0167183
0.000123524
0.0167312
0.000116581
0.0167433
0.000109498
0.0167547
0.000102794
0.0167654
9.59772e-05
8.98679e-05
0.0169044
2.0333e-05
0.01691
5.56281e-05
0.0169185
8.35949e-05
0.0169292
0.000104946
0.0169417
0.000120626
0.0169554
0.000131439
0.01697
0.000138247
0.0169852
0.00014171
0.0170006
0.000142533
0.017016
0.000141199
0.0170313
0.000138265
0.0170462
0.000134046
0.0170607
0.000128986
0.0170746
0.000123244
0.0170879
0.000117192
0.0171006
0.000110841
0.0171126
0.00010455
0.017124
9.81574e-05
0.0171347
9.21044e-05
0.0171447
8.59761e-05
8.04684e-05
0.0173062
1.83677e-05
0.0173116
5.02287e-05
0.0173198
7.54318e-05
0.0173301
9.46226e-05
0.0173421
0.000108659
0.0173552
0.000118283
0.0173692
0.000124283
0.0173836
0.000127269
0.0173983
0.000127881
0.0174129
0.000126565
0.0174273
0.000123825
0.0174414
0.000119949
0.0174551
0.000115331
0.0174682
0.000110123
0.0174808
0.000104649
0.0174927
9.89248e-05
0.017504
9.3262e-05
0.0175146
8.75267e-05
0.0175246
8.20941e-05
0.017534
7.66159e-05
7.16796e-05
0.0177175
1.64698e-05
0.0177227
4.50196e-05
0.0177306
6.75679e-05
0.0177405
8.46949e-05
0.017752
9.71746e-05
0.0177646
0.000105686
0.017778
0.000110942
0.0177917
0.000113502
0.0178057
0.000113943
0.0178196
0.000112674
0.0178332
0.000110143
0.0178466
0.000106616
0.0178595
0.000102439
0.0178718
9.77522e-05
0.0178836
9.28385e-05
0.0178949
8.77187e-05
0.0179055
8.26582e-05
0.0179154
7.75491e-05
0.0179248
7.27076e-05
0.0179336
6.78438e-05
6.34502e-05
0.0181387
1.46369e-05
0.0181437
3.99934e-05
0.0181513
5.99904e-05
0.0181608
7.51449e-05
0.0181718
8.6149e-05
0.0181839
9.36162e-05
0.0181967
9.81869e-05
0.0182098
0.000100367
0.0182231
0.000100673
0.0182363
9.94728e-05
0.0182492
9.71648e-05
0.0182619
9.39887e-05
0.0182741
9.02483e-05
0.0182857
8.60711e-05
0.0182969
8.17011e-05
0.0183074
7.71622e-05
0.0183174
7.26797e-05
0.0183268
6.81671e-05
0.0183356
6.38893e-05
0.0183439
5.96064e-05
5.57286e-05
0.0185698
1.2865e-05
0.0185747
3.51391e-05
0.018582
5.26817e-05
0.0185912
6.59483e-05
0.0186018
7.55508e-05
0.0186133
8.20367e-05
0.0186255
8.5974e-05
0.0186381
8.78146e-05
0.0186508
8.8015e-05
0.0186633
8.69038e-05
0.0186757
8.48293e-05
0.0186876
8.20056e-05
0.0186992
7.86961e-05
0.0187103
7.50158e-05
0.0187208
7.1173e-05
0.0187307
6.71931e-05
0.0187402
6.32656e-05
0.018749
5.93221e-05
0.0187573
5.55823e-05
0.0187651