/*--------------------------------*- C++ -*----------------------------------*\
  =========                 |
  \\      /  F ield         | OpenFOAM: The Open Source CFD Toolbox
   \\    /   O peration     | Website:  https://openfoam.org
    \\  /    A nd           | Version:  7
     \\/     M anipulation  |
\*---------------------------------------------------------------------------*/
FoamFile
{
    version     2.0;
    format      ascii;
    class       surfaceScalarField;
    location    "220";
    object      phi;
}
// * * * * * * * * * * * * * * * * * * * * * * * * * * * * * * * * * * * * * //

dimensions      [0 3 -1 0 0 0 0];

internalField   nonuniform List<scalar> 
8921
(
-0.00233249
-0.00105913
-0.00225886
-0.00107747
-0.00218433
-0.00109528
-0.00103713
-0.00205648
-0.00210892
-0.00111253
-0.00105296
-0.00198205
-0.00203266
-0.00112923
-0.00106825
-0.0019068
-0.00195555
-0.00114536
-0.00108298
-0.00183076
-0.00187763
-0.0011609
-0.00102035
-0.00171093
-0.00109716
-0.00175395
-0.00179893
-0.00117587
-0.00103321
-0.00163522
-0.00111077
-0.0016764
-0.00171946
-0.00119023
-0.00104554
-0.00155881
-0.0011238
-0.00159813
-0.00163926
-0.001204
-0.00105731
-0.00148173
-0.00113626
-0.00151918
-0.00155835
-0.00121717
-0.000990809
-0.00137041
-0.00106853
-0.00140401
-0.00114814
-0.00143957
-0.00147678
-0.00122971
-0.00100086
-0.00129388
-0.00107919
-0.00132568
-0.00115943
-0.00135934
-0.00139456
-0.00124165
-0.00101038
-0.00121678
-0.0010893
-0.00124676
-0.00117013
-0.00127851
-0.00131173
-0.00125295
-0.00101937
-0.00113914
-0.00109884
-0.0011673
-0.00118023
-0.00119712
-0.00122833
-0.00126363
-0.00102783
-0.00106099
-0.00110781
-0.00108732
-0.00118973
-0.0011152
-0.00114439
-0.00127367
-0.000957115
-0.000959313
-0.00103574
-0.000982361
-0.00111621
-0.00100685
-0.00119862
-0.00103278
-0.00105993
-0.00128308
-0.000964044
-0.000881988
-0.00104311
-0.000903292
-0.00112403
-0.00092593
-0.00120691
-0.000949899
-0.000974998
-0.00129185
-0.000970461
-0.000804259
-0.00104994
-0.000823811
-0.00113128
-0.000844589
-0.00121459
-0.000866588
-0.000889627
-0.00129997
-0.000976364
-0.000726157
-0.00105622
-0.00074395
-0.00113795
-0.000762861
-0.00122166
-0.000782881
-0.000803849
-0.00130744
-0.000981752
-0.000647714
-0.00106196
-0.000663743
-0.00114404
-0.000680779
-0.00122811
-0.000698812
-0.000717701
-0.00131426
-0.000986624
-0.000568963
-0.00106714
-0.000583223
-0.00114955
-0.000598377
-0.00123394
-0.000614417
-0.000631219
-0.00132042
-0.000990977
-0.000489938
-0.00107178
-0.000502423
-0.00115446
-0.00051569
-0.00123915
-0.00052973
-0.000544437
-0.00132593
-0.000994811
-0.000410669
-0.00107586
-0.000421376
-0.0011588
-0.000432751
-0.00124374
-0.000444786
-0.000457393
-0.00133078
-0.000998124
-0.000331192
-0.00107938
-0.000340116
-0.00116254
-0.000349595
-0.0012477
-0.000359621
-0.000370122
-0.00133498
-0.00100092
-0.000251538
-0.00108235
-0.000258678
-0.00116569
-0.000266258
-0.00125104
-0.00027427
-0.00028266
-0.00133851
-0.00100319
-0.000171741
-0.00108477
-0.000177094
-0.00116825
-0.000182772
-0.00125376
-0.000188768
-0.000195041
-0.00134138
-0.000925027
-8.84762e-05
-0.00100493
-9.18346e-05
-0.00108663
-9.54003e-05
-0.00117022
-9.91755e-05
-0.00125584
-0.000103154
-0.000107306
-0.00134357
-0.000926176
-1.01717e-05
-0.00100616
-1.18521e-05
-0.00108793
-1.363e-05
-0.0011716
-1.55031e-05
-0.00125729
-1.7467e-05
-1.95222e-05
-0.00134507
-0.000926835
6.81757e-05
-0.00100686
6.81732e-05
-0.00108867
6.8183e-05
-0.00117239
6.82119e-05
-0.00125812
6.82623e-05
6.83132e-05
-0.00134595
-0.000927004
0.000146533
-0.00100704
0.000148208
-0.00108886
0.000150005
-0.00117258
0.000151936
-0.00125832
0.000154001
0.000156164
-0.00134617
-0.000926685
0.000224868
-0.0010067
0.000228219
-0.00108849
0.000231802
-0.00117219
0.000235633
-0.0012579
0.000239712
0.000243987
-0.00134572
-0.000925876
-0.00100583
0.000308173
-0.00108757
0.00031354
-0.0011712
0.000319269
-0.00125685
0.00032536
0.000331743
-0.00134461
-0.00100444
0.000388037
-0.00108609
0.000395185
-0.00116963
0.000402809
-0.00125518
0.000410908
0.000419396
-0.00134283
-0.00100253
0.000467777
-0.00108405
0.000476703
-0.00116746
0.000486218
-0.00125287
0.000496322
0.000506908
-0.00134039
-0.0010001
0.00054736
-0.00108146
0.00055806
-0.00116471
0.000569462
-0.00124995
0.000581565
0.000594245
-0.00133728
-0.000997157
0.000626754
-0.00107832
0.000639223
-0.00116136
0.000652506
-0.0012464
0.000666602
0.000681368
-0.00133352
-0.000993691
0.000705926
-0.00107463
0.000720158
-0.00115744
0.000735316
-0.00124223
0.000751398
0.000768243
-0.00132911
-0.000989708
0.000784842
-0.00107038
0.000800832
-0.00115292
0.000817858
-0.00123745
0.000835918
0.000854833
-0.00132404
-0.000985211
0.000863472
-0.00106559
0.000881212
-0.00114783
0.000900098
-0.00123204
0.000920128
0.000941103
-0.00131831
-0.0009802
0.000941782
-0.00106025
0.000961266
-0.00114216
0.000982004
-0.00122602
0.00100399
0.00102702
-0.00131194
-0.000974678
0.00101974
-0.00105437
0.00104096
-0.00113591
0.00106354
-0.0012194
0.00108748
0.00111254
-0.00130492
-0.000968646
0.00109732
-0.00104795
0.00112026
-0.00112909
0.00114468
-0.00121216
0.00117056
0.00119764
-0.00129726
-0.000962107
-0.00104099
0.00119914
-0.00112169
0.00122538
-0.00120432
0.00125319
0.00128229
-0.00128896
-0.00103349
0.00127757
-0.00111373
0.00130562
-0.00119588
0.00133534
0.00136644
-0.00128003
-0.00102546
0.00135551
-0.0011052
0.00138535
-0.00118684
0.00141698
0.00145006
-0.00127047
-0.0010169
0.00143294
-0.00109611
0.00146457
-0.00117721
0.00149808
0.00153313
-0.00126028
-0.00100781
0.00150982
-0.00108646
0.00154322
-0.00116699
0.00157861
0.00161561
-0.00124947
-0.000998195
-0.00107626
0.00162129
-0.00115619
0.00165853
0.00169747
-0.00123804
-0.00106551
0.00169874
-0.0011448
0.00173783
0.00177868
-0.00122601
-0.00105422
0.00177554
-0.00113285
0.00181646
0.0018592
-0.00121338
-0.00104238
0.00185167
-0.00112032
0.0018944
0.00193902
-0.00120014
-0.00103001
-0.00110723
0.00197162
0.00201811
-0.00118632
-0.00109359
0.00204811
0.00209643
-0.00117191
-0.0010794
0.00212383
0.00217397
-0.00115693
-0.00106466
0.0022507
-0.00114139
0.0023266
-0.00112528
0.00240166
-0.00110863
-0.00109143
0.00559855
3.90559e-05
-3.56292e-05
0.00558893
0.000104131
-9.45111e-05
0.00557387
0.000162776
-0.000147724
0.00555406
0.00021999
-0.000200177
0.00552981
0.000280227
-0.000255974
0.00550172
0.000344975
-0.000316887
0.00546994
0.000415917
-0.000384135
0.00543512
0.000492685
-0.000457869
0.00539742
0.000576284
-0.000538579
0.00535771
0.000665401
-0.000625692
0.00531628
0.000761228
-0.000719799
0.00527446
0.000861563
-0.000819746
0.00523276
0.000968184
-0.000926486
0.00519325
0.00107741
-0.0010379
0.00515658
0.00119225
-0.00115558
0.00512602
0.00130602
-0.00127546
0.00510191
0.00142488
-0.00140076
0.00508978
0.00153518
-0.00152305
0.00508765
0.00165297
-0.00165084
0.00510706
0.00174458
-0.00176399
0.00186126
-0.00189109
0.0057318
4.24126e-05
0.00572233
0.000113604
0.00570749
0.000177612
0.00568804
0.00023944
0.00566428
0.000303986
0.00563695
0.000372308
0.00560618
0.000446686
0.00557281
0.000526051
0.005537
0.000612103
0.00549985
0.000702545
0.00546165
0.000799427
0.00542406
0.000899158
0.00538749
0.00100475
0.00535446
0.00111044
0.00532535
0.00122135
0.00530406
0.00132731
0.00529019
0.00143874
0.00529006
0.00153531
0.00530079
0.00164225
0.00533327
0.00171209
0.00181379
0.00586823
4.56962e-05
0.00585897
0.000122858
0.00584448
0.000192108
0.00582554
0.000258376
0.0058025
0.000327024
0.00577616
0.000398648
0.00574673
0.000476115
0.00571513
0.00055765
0.00568161
0.000645629
0.00564739
0.000736766
0.00561284
0.000833971
0.00557975
0.00093225
0.00554861
0.0010359
0.00552201
0.00113704
0.00550036
0.001243
0.00548748
0.0013402
0.005483
0.00144322
0.00549248
0.00152583
0.00551387
0.00162086
0.00555396
0.001672
0.00175841
0.00600791
4.88898e-05
0.00599892
0.000131843
0.00598486
0.00020617
0.00596657
0.000276671
0.00594442
0.00034917
0.00591928
0.000423789
0.00589144
0.00050396
0.00586188
0.000587207
0.00583095
0.000676557
0.00579996
0.000767758
0.00576938
0.000864555
0.00574102
0.000960602
0.00571548
0.00106144
0.00569529
0.00115723
0.00568092
0.00125737
0.00567579
0.00134533
0.00567984
0.00143917
0.00569718
0.00150849
0.00572696
0.00159108
0.00577209
0.00162687
0.00169801
0.00615093
5.19775e-05
0.00614226
0.000140514
0.00612871
0.000219719
0.00611116
0.000294216
0.00609005
0.000370281
0.00606628
0.000447561
0.00604022
0.000530018
0.00601293
0.000614502
0.00598484
0.000704649
0.0059573
0.000795294
0.00593089
0.000890963
0.00590742
0.000984072
0.00588756
0.0010813
0.00587366
0.00117113
0.00586632
0.00126471
0.00586835
0.0013433
0.00588005
0.00142746
0.00590405
0.00148449
0.00594048
0.00155464
0.00598982
0.00157753
0.00163395
0.00629736
5.49435e-05
0.00628905
0.000148826
0.00627609
0.000232681
0.00625939
0.000310912
0.00623944
0.000390231
0.00621718
0.000469816
0.00619308
0.000554122
0.00616822
0.00063936
0.00614314
0.000729727
0.00611922
0.000819218
0.00609711
0.00091307
0.00607857
0.00100262
0.00606434
0.00109553
0.00605651
0.00117896
0.00605582
0.0012654
0.00606439
0.00133473
0.00608285
0.001409
0.00611253
0.00145481
0.00615426
0.00151291
0.00620703
0.00152477
0.00156781
0.00644729
5.7772e-05
0.00643938
0.000156736
0.00642707
0.000244984
0.00641132
0.000326667
0.00639264
0.000408907
0.00637203
0.000490426
0.00635002
0.00057613
0.00632774
0.000661641
0.00630581
0.000751659
0.00628559
0.000839437
0.00626784
0.000930826
0.00625416
0.00101629
0.00624542
0.00110427
0.00624336
0.00118102
0.00624883
0.00125993
0.00626329
0.00132027
0.0062876
0.0013847
0.00632208
0.00142033
0.00636791
0.00146708
0.00642312
0.00146956
0.00150083
0.00660079
6.0447e-05
0.00659332
0.000164201
0.00658175
0.000256558
0.00656702
0.000341394
0.00654973
0.0004262
0.00653088
0.000509275
0.00651109
0.000595921
0.00649149
0.000681237
0.0064728
0.000770352
0.00645632
0.000855912
0.0064429
0.000944247
0.00643399
0.00102521
0.00643051
0.00110775
0.00643384
0.00117769
0.00644493
0.00124884
0.00646462
0.00130058
0.00649388
0.00135544
0.00653232
0.00138189
0.00658119
0.00141821
0.00663795
0.0014128
0.00143386
0.00675795
6.29526e-05
0.00675097
0.00017118
0.00674019
0.000267338
0.00672658
0.00035501
0.00671076
0.000442013
0.00669378
0.000526264
0.0066763
0.000613393
0.00665947
0.000698071
0.00664407
0.000785752
0.00663134
0.000868647
0.00662218
0.000953402
0.00661785
0.00102954
0.00661934
0.00110626
0.00662765
0.00116939
0.00664377
0.00123272
0.00666803
0.00127632
0.00670142
0.00132205
0.00674301
0.00134029
0.00679402
0.0013672
0.00685162
0.0013552
0.00136749
0.00691887
6.52735e-05
0.00691241
0.000177636
0.00690249
0.00027726
0.00689006
0.00036744
0.00687581
0.000456258
0.00686077
0.000541307
0.0068457
0.000628466
0.00683168
0.000712088
0.00681959
0.00079784
0.00681056
0.000877685
0.00680554
0.000958414
0.00680559
0.0010295
0.0068117
0.00110015
0.00682455
0.00115654
0.00684511
0.00121216
0.0068733
0.00124813
0.00691003
0.00128532
0.00695406
0.00129626
0.00700646
0.00131481
0.00706431
0.00129735
0.00130217
0.00708362
6.73945e-05
0.00707772
0.000183532
0.00706872
0.000286264
0.00705754
0.000378617
0.00704494
0.000468856
0.00703191
0.000554335
0.0070193
0.000641079
0.00700812
0.000723262
0.00699933
0.000806635
0.00699391
0.000883103
0.00699288
0.000959446
0.00699705
0.00102533
0.00700742
0.00108978
0.00702436
0.00113959
0.00704878
0.00118774
0.00708028
0.00121662
0.00711967
0.00124593
0.00716547
0.00125045
0.00721863
0.00126165
0.00727624
0.00123974
0.00123827
0.00725229
6.93018e-05
0.00724699
0.000188836
0.00723895
0.000294299
0.00722909
0.000388481
0.0072182
0.000479745
0.00720724
0.000565293
0.00719712
0.000651199
0.00718879
0.000731591
0.00718324
0.000812184
0.00718134
0.000885011
0.00718409
0.000956694
0.00719211
0.00101731
0.00720635
0.00107554
0.00722693
0.00111901
0.00725464
0.00116003
0.00728889
0.00118238
0.0073303
0.00120452
0.00737731
0.00120344
0.00743072
0.00120824
0.00748769
0.00118277
0.00117607
0.00742498
7.09825e-05
0.0074203
0.000193518
0.00741328
0.000301317
0.00740478
0.000396981
0.00739565
0.000488873
0.0073868
0.000574145
0.00737919
0.000658814
0.00737368
0.000737099
0.0073713
0.000814569
0.00737276
0.000883545
0.00737907
0.000950385
0.00739065
0.00100573
0.00740837
0.00105783
0.00743214
0.00109523
0.00746263
0.00112954
0.00749908
0.00114594
0.00754198
0.00116162
0.00758971
0.00115571
0.00764293
0.00115502
0.00769894
0.00112676
0.00111576
0.00760179
7.24257e-05
0.00759775
0.000197553
0.00759179
0.000307281
0.00758469
0.000404077
0.00757736
0.000496207
0.00757064
0.00058087
0.00756551
0.000663934
0.00756278
0.00073983
0.00756345
0.000813897
0.00756813
0.000878866
0.00757775
0.000940764
0.00759259
0.000990891
0.00761339
0.00103703
0.00763992
0.0010687
0.00767271
0.00109675
0.00771087
0.00110778
0.00775478
0.00111771
0.0078028
0.00110768
0.0078555
0.00110233
0.0079103
0.00107195
0.00105747
0.0077828
7.36223e-05
0.00777943
0.00020092
0.00777455
0.000312161
0.00776889
0.000409738
0.00776337
0.000501728
0.00775878
0.000585465
0.00775612
0.000666594
0.00775609
0.000739855
0.00775969
0.0008103
0.0077674
0.000871159
0.00778007
0.00092809
0.00779784
0.000973117
0.00782135
0.00101353
0.00785023
0.00103982
0.00788486
0.00106212
0.0079243
0.00106834
0.00796881
0.0010732
0.00801678
0.00105971
0.00806866
0.00105044
0.00812208
0.00101853
0.00100127
0.00796812
7.45653e-05
0.00796544
0.000203601
0.00796166
0.000315938
0.00795745
0.000413943
0.00795375
0.000505432
0.00795127
0.000587945
0.00795102
0.000666848
0.00795361
0.000737265
0.00795998
0.000803929
0.00797051
0.000860625
0.00798597
0.000912632
0.00800637
0.000952721
0.00803221
0.000987683
0.00806303
0.00100899
0.00809911
0.00102604
0.00813944
0.001028
0.00818419
0.00102845
0.00823181
0.00101209
0.00828268
0.000999577
0.00833458
0.000966634
0.000947208
0.00815784
7.52504e-05
0.00815585
0.000205583
0.00815319
0.0003186
0.00815045
0.000416686
0.00814855
0.000507332
0.00814815
0.000588343
0.00815023
0.00066477
0.00815532
0.000732172
0.0081643
0.000794951
0.00817745
0.000847479
0.00819542
0.000894662
0.00821812
0.000930015
0.00824595
0.000959856
0.00827836
0.000976582
0.00831551
0.00098889
0.0083564
0.000987121
0.00840109
0.000983755
0.00844812
0.000965061
0.0084978
0.0009499
0.00854808
0.000916352
0.00089528
0.00835206
7.56755e-05
0.00835079
0.00020686
0.00834924
0.000320145
0.00834796
0.00041797
0.00834783
0.000507455
0.00834947
0.000586708
0.00835379
0.000660451
0.00836125
0.000724705
0.00837266
0.000783548
0.00838819
0.000831948
0.0084084
0.000874455
0.0084331
0.000905308
0.00846259
0.000930375
0.00849625
0.000942922
0.00853415
0.000950989
0.00857528
0.000945986
0.00861967
0.000939365
0.00866591
0.000918818
0.00871428
0.000901539
0.00876288
0.000867746
0.000845474
0.0085509
7.58408e-05
0.00855033
0.000207429
0.00854989
0.000320582
0.00855005
0.000417812
0.00855166
0.000505844
0.00855526
0.000583106
0.00856172
0.000653998
0.00857142
0.000715008
0.00858505
0.000769912
0.00860274
0.000814261
0.00862491
0.000852279
0.00865133
0.000878894
0.00868215
0.000899552
0.00871675
0.000908323
0.00875511
0.000912631
0.00879624
0.000904858
0.00884011
0.000895494
0.00888541
0.00087352
0.00893236
0.000854586
0.00897925
0.000820852
0.000797758
0.00875446
7.57491e-05
0.00875459
0.000207296
0.00875524
0.000319928
0.00875682
0.000416241
0.00876011
0.000502553
0.00876559
0.000577621
0.00877406
0.00064553
0.00878583
0.000703238
0.0088015
0.00075424
0.00882111
0.000794653
0.00884499
0.000828399
0.00887283
0.000851055
0.00890471
0.000867675
0.00893996
0.000873067
0.00897852
0.000874073
0.00901942
0.00086396
0.00906259
0.000852317
0.00910682
0.000829292
0.0091523
0.000809109
0.00919747
0.000775685
0.000752089
0.00896284
7.54053e-05
0.00896367
0.00020647
0.00896539
0.000318209
0.00896833
0.000413297
0.00897323
0.00049765
0.00898051
0.000570346
0.00899086
0.00063518
0.00900454
0.000689561
0.00902204
0.000736736
0.00904334
0.000773355
0.00906867
0.000803071
0.00909766
0.000822059
0.00913033
0.00083501
0.00916599
0.000837405
0.00920452
0.000835542
0.009245
0.000823482
0.00928734
0.000809979
0.0093304
0.000786231
0.00937435
0.000765149
0.00941779
0.000732246
0.000708415
0.00917617
7.48163e-05
0.00917767
0.000204967
0.00918042
0.000315458
0.00918469
0.000409032
0.00919112
0.000491214
0.00920008
0.000561389
0.00921217
0.000623089
0.00922758
0.000674151
0.00924671
0.000717603
0.00926947
0.000750596
0.009296
0.000776538
0.00932591
0.000792157
0.00935912
0.000801802
0.00939495
0.000801566
0.00943326
0.000797235
0.00947316
0.000783587
0.00951454
0.000768597
0.00955636
0.000744412
0.00959877
0.000722735
0.0096405
0.000690521
0.000666682
0.00939455
7.39912e-05
0.00939671
0.00020281
0.00940045
0.000311719
0.00940597
0.000403508
0.00941385
0.000483334
0.00942437
0.000550867
0.00943806
0.000609405
0.00945502
0.000657186
0.00947558
0.000697045
0.00949958
0.000726599
0.00952708
0.000749034
0.00955766
0.000761579
0.00959119
0.000768272
0.00962701
0.000765749
0.00966492
0.000759322
0.0097041
0.000744409
0.00974443
0.000728265
0.00978495
0.000703892
0.00982581
0.000681879
0.00986583
0.000650493
0.000626831
0.00961811
7.29405e-05
0.00962089
0.000200027
0.00962557
0.000307039
0.00963229
0.000396797
0.00964151
0.000474109
0.00965347
0.000538907
0.00966859
0.000594282
0.00968693
0.000638844
0.00970872
0.000675262
0.00973374
0.000701577
0.009762
0.000720776
0.00979303
0.000730542
0.00982669
0.000734619
0.0098623
0.000730132
0.00989968
0.00072195
0.00993802
0.000706063
0.00997723
0.00068906
0.0100164
0.000664709
0.0100557
0.000642583
0.0100941
0.000612134
0.000588803
0.00984697
7.16767e-05
0.00985034
0.000196649
0.00985591
0.000301475
0.00986373
0.000388977
0.00987419
0.000463643
0.00988746
0.00052564
0.00990387
0.000577877
0.0099234
0.000619306
0.00994622
0.000652449
0.00997206
0.000675735
0.0100009
0.000691969
0.0100322
0.000699242
0.0100658
0.000701023
0.010101
0.000694872
0.0101377
0.000685245
0.0101751
0.000668643
0.0102132
0.000651038
0.010251
0.000626891
0.0102887
0.000604839
0.0103255
0.000575413
0.000552541
0.0100812
7.02135e-05
0.0100852
0.000192714
0.0100916
0.000295088
0.0101004
0.000380136
0.010112
0.000452048
0.0101264
0.000511202
0.010144
0.000560347
0.0101645
0.000598747
0.0101882
0.000628794
0.0102147
0.000649267
0.0102438
0.000662803
0.0102752
0.000667857
0.0103086
0.000667642
0.0103434
0.000660104
0.0103793
0.000649313
0.0104157
0.000632225
0.0104525
0.000614244
0.0104889
0.000590453
0.0105251
0.000568634
0.0105603
0.000540296
0.000517985
0.0103211
6.85658e-05
0.0103255
0.000188263
0.0103327
0.000287945
0.0103424
0.000370364
0.010355
0.00043944
0.0103705
0.000495732
0.010389
0.000541851
0.0104104
0.000577339
0.0104347
0.000604477
0.0104617
0.000622353
0.010491
0.000633453
0.0105223
0.000636549
0.0105553
0.000634619
0.0105895
0.000625945
0.0106246
0.000614243
0.0106599
0.000596869
0.0106955
0.000578709
0.0107305
0.000555402
0.0107652
0.00053395
0.0107987
0.000506746
0.00048508
0.0105666
6.67497e-05
0.0105715
0.000183342
0.0105793
0.000280116
0.0105899
0.000359758
0.0106034
0.000425935
0.0106198
0.000479369
0.0106391
0.000522543
0.0106612
0.000555251
0.010686
0.000579669
0.0107132
0.000595164
0.0107426
0.000604077
0.0107737
0.000605463
0.0108062
0.000602076
0.0108397
0.000592496
0.0108738
0.000580108
0.010908
0.000562626
0.0109423
0.000544455
0.010976
0.000521737
0.0110091
0.000500762
0.0110412
0.000474726
0.000453769
0.0108179
6.47821e-05
0.0108233
0.000177996
0.0108317
0.000271673
0.010843
0.000348414
0.0108573
0.000411655
0.0108744
0.00046225
0.0108944
0.000502575
0.010917
0.00053264
0.0109422
0.00055453
0.0109695
0.000567855
0.0109987
0.000574821
0.0110295
0.000574728
0.0110614
0.000570122
0.0110941
0.000559842
0.0111272
0.000546968
0.0111603
0.00052953
0.0111933
0.000511494
0.0112255
0.000489453
0.0112573
0.000469045
0.0112878
0.000444195
0.000424
0.0110752
6.26804e-05
0.0110809
0.000172275
0.0110899
0.000262693
0.0111019
0.000336433
0.0111168
0.000396717
0.0111345
0.000444512
0.011155
0.000482092
0.011178
0.000509658
0.0112033
0.000529211
0.0112306
0.00054057
0.0112596
0.000545815
0.0112899
0.000544457
0.0113212
0.000538849
0.011353
0.000528055
0.0113851
0.000514872
0.011417
0.000497609
0.0114486
0.000479832
0.0114796
0.000458536
0.0115098
0.000438769
0.0115389
0.000415115
0.000395718
0.0113386
6.04626e-05
0.0113446
0.000166229
0.0113541
0.00025325
0.0113666
0.000323914
0.0113821
0.000381239
0.0114003
0.000426285
0.0114211
0.000461233
0.0114443
0.000486448
0.0114697
0.000503851
0.0114968
0.000513438
0.0115255
0.000517175
0.0115552
0.00051475
0.0115857
0.000508337
0.0116166
0.000497193
0.0116476
0.000483857
0.0116783
0.000466881
0.0117087
0.000449467
0.0117382
0.00042897
0.0117671
0.000409902
0.0117948
0.000387443
0.000368873
0.0116082
5.81467e-05
0.0116145
0.000159908
0.0116243
0.000243423
0.0116373
0.000310955
0.0116532
0.000365336
0.0116718
0.000407696
0.0116929
0.000440131
0.0117162
0.000463143
0.0117415
0.000478575
0.0117683
0.000486578
0.0117965
0.000489004
0.0118256
0.000485694
0.0118552
0.000478652
0.0118851
0.000467304
0.011915
0.000453949
0.0119446
0.000437355
0.0119736
0.000420391
0.0120019
0.000400735
0.0120294
0.000382412
0.0120557
0.00036114
0.000343415
0.0118842
5.57506e-05
0.0118907
0.000153362
0.0119009
0.000233285
0.0119142
0.000297651
0.0119304
0.000349117
0.0119492
0.000388866
0.0119704
0.000418909
0.0119937
0.000439864
0.0120188
0.000453501
0.0120453
0.000460095
0.0120729
0.000461391
0.0121012
0.000457361
0.01213
0.000449849
0.0121589
0.000438425
0.0121877
0.000425167
0.012216
0.000409035
0.0122438
0.000392592
0.0122707
0.000373807
0.0122969
0.000356262
0.0123219
0.000336163
0.000319294
0.0121667
5.32918e-05
0.0121735
0.00014664
0.0121838
0.000222909
0.0121974
0.000284095
0.0122138
0.000332688
0.0122328
0.000369906
0.012254
0.000397682
0.0122771
0.000416725
0.0123019
0.000428731
0.0123279
0.00043408
0.0123549
0.000434415
0.0123825
0.000429813
0.0124103
0.000421973
0.0124382
0.000410582
0.0124658
0.000397523
0.0124929
0.000381917
0.0125195
0.000366054
0.0125451
0.000348159
0.01257
0.000331417
0.0125937
0.00031247
0.00029646
0.012456
5.07878e-05
0.0124628
0.00013979
0.0124734
0.000212366
0.0124871
0.000270376
0.0125036
0.000316148
0.0125226
0.000350924
0.0125437
0.000376555
0.0125666
0.000393826
0.012591
0.000404358
0.0126165
0.000408615
0.0126428
0.000408142
0.0126695
0.000403101
0.0126964
0.000395056
0.0127232
0.000383797
0.0127497
0.000371021
0.0127756
0.000355993
0.0128009
0.000340755
0.0128253
0.000323763
0.0128489
0.000307838
0.0128713
0.00029002
0.000274868
0.0127521
4.82548e-05
0.012759
0.000132858
0.0127697
0.000201723
0.0127835
0.000256574
0.0128
0.000299589
0.0128189
0.000332015
0.0128399
0.000355626
0.0128624
0.000371258
0.0128863
0.000380463
0.0129112
0.000383769
0.0129367
0.000382626
0.0129625
0.000377266
0.0129885
0.000369126
0.0130142
0.000358079
0.0130395
0.000345657
0.0130643
0.000331249
0.0130884
0.000316673
0.0131115
0.000300586
0.0131339
0.000285488
0.0131551
0.00026877
0.000254467
0.0130552
4.57086e-05
0.0130622
0.000125887
0.0130729
0.000191043
0.0130867
0.000242769
0.0131032
0.000283097
0.0131219
0.000313269
0.0131426
0.000334978
0.0131647
0.000349102
0.0131881
0.000357117
0.0132122
0.000359601
0.0132369
0.000357913
0.0132619
0.00035234
0.0132868
0.000344198
0.0133114
0.000333434
0.0133357
0.000321425
0.0133593
0.000307668
0.0133822
0.000293779
0.0134041
0.000278596
0.0134253
0.000264325
0.0134454
0.000248676
0.000235212
0.0133655
4.31635e-05
0.0133725
0.000118915
0.0133832
0.000180384
0.0133969
0.000229031
0.0134133
0.000266749
0.0134318
0.000294764
0.0134521
0.00031469
0.0134737
0.000327426
0.0134965
0.000334379
0.0135199
0.000336158
0.0135438
0.000334038
0.0135678
0.000328343
0.0135917
0.000320283
0.0136153
0.000309859
0.0136384
0.00029831
0.0136608
0.000285228
0.0136826
0.000272044
0.0137034
0.000257756
0.0137234
0.000244308
0.0137424
0.000229696
0.000217056
0.0136832
4.06331e-05
0.0136902
0.000111981
0.0137008
0.0001698
0.0137144
0.000215424
0.0137305
0.000250615
0.0137487
0.000276571
0.0137686
0.000294826
0.0137897
0.000306291
0.0138118
0.000312298
0.0138344
0.00031348
0.0138575
0.000311027
0.0138805
0.000305292
0.0139034
0.000297382
0.0139259
0.000287346
0.0139479
0.000276296
0.0139693
0.000263903
0.0139899
0.000251435
0.0140096
0.000238029
0.0140285
0.000225397
0.0140464
0.000211785
0.000199951
0.0140085
3.81292e-05
0.0140153
0.000105117
0.0140258
0.000159337
0.0140392
0.000202006
0.0140551
0.000234756
0.0140729
0.00025875
0.0140923
0.000275444
0.0141128
0.000285745
0.0141342
0.000290915
0.0141561
0.000291596
0.0141782
0.000288897
0.0142003
0.000283191
0.0142222
0.000275492
0.0142437
0.000265882
0.0142646
0.00025536
0.0142848
0.000243664
0.0143044
0.000231916
0.014323
0.000219377
0.0143409
0.000207547
0.0143577
0.0001949
0.000183852
0.0143414
3.56627e-05
0.0143482
9.83521e-05
0.0143585
0.000149039
0.0143717
0.000188827
0.0143872
0.000219225
0.0144046
0.000241354
0.0144234
0.000256589
0.0144434
0.000265828
0.014464
0.000270259
0.0144851
0.000270525
0.0145063
0.000267658
0.0145275
0.000262042
0.0145484
0.000254601
0.0145688
0.000245448
0.0145887
0.000235475
0.0146079
0.00022448
0.0146263
0.000213451
0.0146439
0.000201758
0.0146608
0.000190715
0.0146767
0.000178996
0.000168711
0.0146823
3.32427e-05
0.0146889
9.1712e-05
0.014699
0.000138942
0.0147119
0.00017593
0.0147271
0.000204066
0.014744
0.000224425
0.0147623
0.000238301
0.0147815
0.000246571
0.0148014
0.000250352
0.0148217
0.00025028
0.014842
0.000247312
0.0148622
0.000241837
0.0148821
0.000234695
0.0149016
0.000226021
0.0149204
0.000216613
0.0149386
0.000206316
0.0149561
0.000196001
0.0149727
0.000185132
0.0149885
0.000174856
0.0150035
0.000164027
0.000154482
0.0150312
3.08773e-05
0.0150377
8.52183e-05
0.0150476
0.000129077
0.0150602
0.00016335
0.0150749
0.000189316
0.0150913
0.000207997
0.015109
0.000220607
0.0151276
0.000227994
0.0151468
0.000231206
0.0151662
0.000230865
0.0151856
0.000227855
0.0152049
0.000222563
0.0152238
0.000215753
0.0152423
0.000207575
0.0152602
0.00019874
0.0152773
0.000189135
0.0152938
0.000179524
0.0153095
0.000169456
0.0153244
0.000159927
0.0153385
0.000149949
0.000141118
0.0153885
2.85728e-05
0.0153948
7.88886e-05
0.0154044
0.000119469
0.0154166
0.000151117
0.015431
0.000175004
0.0154469
0.000192096
0.0154639
0.000203527
0.0154818
0.000210112
0.0155002
0.000212828
0.0155188
0.000212277
0.0155374
0.000209275
0.0155557
0.000204201
0.0155737
0.000197749
0.0155912
0.000190077
0.0156081
0.00018182
0.0156244
0.000172896
0.0156399
0.000163978
0.0156547
0.000154684
0.0156688
0.000145879
0.015682
0.000136716
0.000128574
0.0157542
2.63342e-05
0.0157604
7.27366e-05
0.0157697
0.000110137
0.0157816
0.000139252
0.0157954
0.00016115
0.0158108
0.000176739
0.0158272
0.000187072
0.0158444
0.000192928
0.015862
0.000195213
0.0158798
0.000194505
0.0158975
0.000191554
0.015915
0.000186727
0.0159321
0.000180652
0.0159487
0.000173493
0.0159647
0.000165813
0.01598
0.000157559
0.0159947
0.000149318
0.0160086
0.000140772
0.0160218
0.000132668
0.0160342
0.000124282
0.000116803
0.0161286
2.41652e-05
0.0161346
6.67721e-05
0.0161436
0.000101095
0.0161551
0.000127769
0.0161685
0.000147766
0.0161833
0.000161934
0.0161991
0.000171246
0.0162156
0.000176439
0.0162325
0.000178352
0.0162495
0.000177533
0.0162663
0.000174668
0.016283
0.000170112
0.0162992
0.000164429
0.0163149
0.000157785
0.01633
0.000150678
0.0163445
0.000143079
0.0163583
0.000135499
0.0163714
0.000127673
0.0163838
0.000120246
0.0163955
0.000112601
0.000105759
0.016512
2.2068e-05
0.0165177
6.10014e-05
0.0165265
9.23505e-05
0.0165376
0.000116676
0.0165505
0.000134858
0.0165647
0.000147682
0.0165799
0.000156045
0.0165957
0.000160636
0.0166119
0.000162228
0.0166281
0.000161337
0.0166441
0.00015859
0.0166599
0.000154322
0.0166753
0.000149042
0.0166902
0.000142911
0.0167045
0.000136371
0.0167182
0.000129411
0.0167312
0.000122472
0.0167435
0.000115339
0.0167552
0.000108565
0.0167662
0.000101625
9.5394e-05
0.0169044
2.00434e-05
0.01691
5.54269e-05
0.0169184
8.39064e-05
0.0169291
0.000105975
0.0169416
0.000122424
0.0169553
0.000133978
0.0169699
0.000141455
0.016985
0.0001455
0.0170004
0.000146817
0.0170159
0.000145889
0.0170312
0.000143285
0.0170462
0.000139319
0.0170608
0.000134447
0.0170748
0.000128826
0.0170884
0.000122844
0.0171013
0.000116505
0.0171136
0.00011019
0.0171252
0.000103722
0.0171362
9.75758e-05
0.0171465
9.13077e-05
8.56624e-05
0.0173062
1.8091e-05
0.0173116
5.00475e-05
0.0173197
7.57602e-05
0.01733
9.56596e-05
0.017342
0.000110455
0.0173552
0.000120807
0.0173692
0.00012746
0.0173837
0.000131007
0.0173984
0.000132089
0.0174131
0.000131154
0.0174277
0.000128713
0.017442
0.000125059
0.0174558
0.000120598
0.0174691
0.000115481
0.0174819
0.000110048
0.0174941
0.000104311
0.0175057
9.86008e-05
0.0175167
9.27725e-05
0.017527
8.72296e-05
0.0175367
8.1601e-05
7.6517e-05
0.0177175
1.62091e-05
0.0177227
4.48587e-05
0.0177306
6.79043e-05
0.0177405
8.57196e-05
0.017752
9.89353e-05
0.0177647
0.000108149
0.0177781
0.000114031
0.017792
0.000117126
0.0178061
0.000118009
0.0178201
0.00011709
0.017834
0.000114829
0.0178476
0.000111495
0.0178607
0.000107447
0.0178734
0.000102827
0.0178855
9.79305e-05
0.017897
9.2778e-05
0.017908
8.76526e-05
0.0179183
8.24382e-05
0.0179281
7.74758e-05
0.0179372
7.24563e-05
6.79101e-05
0.0181386
1.43948e-05
0.0181436
3.98524e-05
0.0181512
6.03261e-05
0.0181608
7.61372e-05
0.0181719
8.78417e-05
0.0181841
9.59751e-05
0.018197
0.000101137
0.0182103
0.000103818
0.0182238
0.000104532
0.0182372
0.000103652
0.0182504
0.000101585
0.0182634
9.85751e-05
0.0182759
9.49388e-05
0.0182879
9.08067e-05
0.0182994
8.64359e-05
0.0183103
8.18503e-05
0.0183207
7.72913e-05
0.0183304
7.26665e-05
0.0183397
6.82626e-05
0.0183483
6.38239e-05
5.97935e-05
0.0185698
1.26439e-05
0.0185746
3.50175e-05
0.0185819
5.30079e-05
0.0185912
6.68889e-05
0.0186019
7.71452e-05
0.0186136
8.42515e-05
0.018626
8.87367e-05
0.0186388
9.10383e-05
0.0186517
9.16111e-05
0.0186646
9.07876e-05
0.0186772
8.89246e-05
0.0186896
8.62426e-05
0.0187015
8.30158e-05
0.0187129
7.93635e-05
0.0187239
7.55063e-05
0.0187342
7.14707e-05
0.0187441
6.74603e-05
0.0187533
6.34028e-05
0.0187621
5.95368e-05
0.0187702