/*--------------------------------*- C++ -*----------------------------------*\
  =========                 |
  \\      /  F ield         | OpenFOAM: The Open Source CFD Toolbox
   \\    /   O peration     | Website:  https://openfoam.org
    \\  /    A nd           | Version:  7
     \\/     M anipulation  |
\*---------------------------------------------------------------------------*/
FoamFile
{
    version     2.0;
    format      ascii;
    class       surfaceScalarField;
    location    "260";
    object      phi;
}
// * * * * * * * * * * * * * * * * * * * * * * * * * * * * * * * * * * * * * //

dimensions      [0 3 -1 0 0 0 0];

internalField   nonuniform List<scalar> 
8899
(
-7.62906e-06
0.0003185
-0.000314784
-1.28087e-05
0.000390716
-0.000385536
-1.94882e-05
0.000454398
-0.000447719
-2.76231e-05
0.000510033
-0.000501898
-3.71007e-05
0.000558568
-0.00054909
-4.77579e-05
0.000601305
-0.000590648
-5.94032e-05
0.000639746
-0.000628101
-7.18378e-05
0.000675421
-0.000662986
-8.48746e-05
0.000709727
-0.00069669
-9.83506e-05
0.0007438
-0.000730324
-0.000112134
0.000778424
-0.000764641
-0.000126121
0.000813982
-0.000799995
-0.000140232
0.000850442
-0.000836332
-0.000154399
0.000887367
-0.0008732
-0.000168562
0.000923936
-0.000909773
-0.000182663
0.00095895
-0.000944849
0.000990796
-0.000976776
-0.000196683
-5.15227e-06
0.000321225
-9.16998e-06
0.000394733
-1.45525e-05
0.000459781
-2.12825e-05
0.000516763
-2.92638e-05
0.000566549
-3.8338e-05
0.000610379
-4.83061e-05
0.000649714
-5.89501e-05
0.000686065
-7.00522e-05
0.000720829
-8.14087e-05
0.000755157
-9.28381e-05
0.000789854
-0.000104181
0.000825325
-0.000115299
0.00086156
-0.000126063
0.000898132
-0.00013636
0.000934233
-0.000146094
0.000968683
0.000999923
-0.000155221
-2.68275e-06
0.000322954
-5.5231e-06
0.000397574
-9.58091e-06
0.000463839
-1.4865e-05
0.000522047
-2.12953e-05
0.000572979
-2.8718e-05
0.000617802
-3.69266e-05
0.000657923
-4.56833e-05
0.000694821
-5.47387e-05
0.000729884
-6.38472e-05
0.000764266
-7.27764e-05
0.000798783
-8.13099e-05
0.000833859
-8.92467e-05
0.000869496
-9.63996e-05
0.000905284
-0.0001026
0.000940434
-0.000107717
0.0009738
0.00100389
-0.000111682
-2.38643e-07
0.000323689
-1.89415e-06
0.000399229
-4.60786e-06
0.000466553
-8.4136e-06
0.000525853
-1.3247e-05
0.000577813
-1.8959e-05
0.000623514
-2.5336e-05
0.0006643
-3.21202e-05
0.000701606
-3.9031e-05
0.000736795
-4.57804e-05
0.000771015
-5.20846e-05
0.000805087
-5.76692e-05
0.000839443
-6.2272e-05
0.000874099
-6.56449e-05
0.000908657
-6.75661e-05
0.000942355
-6.7871e-05
0.000974105
0.00100249
-6.64709e-05
2.16125e-06
0.000323441
1.69006e-06
0.0003997
3.31136e-07
0.000467911
-1.97317e-06
0.000528157
-5.17347e-06
0.000581013
-9.12599e-06
0.000627467
-1.36102e-05
0.000668784
-1.83499e-05
0.000706345
-2.30334e-05
0.000741479
-2.73311e-05
0.000775313
-3.09084e-05
0.000808664
-3.34333e-05
0.000841968
-3.45824e-05
0.000875248
-3.40476e-05
0.000908123
-3.15527e-05
0.00093986
-2.69026e-05
0.000969455
0.000995652
-2.00663e-05
4.49871e-06
0.000322224
5.20241e-06
0.000398997
5.19916e-06
0.000467915
4.40961e-06
0.000528947
2.86805e-06
0.000582555
7.12864e-07
0.000629622
-1.82996e-06
0.000671327
-4.46662e-06
0.000708982
-6.85627e-06
0.000743868
-8.62919e-06
0.000777086
-9.40121e-06
0.000809436
-8.78419e-06
0.000841351
-6.39465e-06
0.000872859
-1.86531e-06
0.000903593
5.13365e-06
0.000932861
1.48564e-05
0.000959732
0.000983263
2.72456e-05
6.7553e-06
0.000320064
8.61575e-06
0.000397136
9.95949e-06
0.000466571
1.06871e-05
0.000528219
1.08186e-05
0.000582423
1.04864e-05
0.000629954
9.92088e-06
0.000671892
9.43113e-06
0.000709472
9.38507e-06
0.000743914
1.01902e-05
0.00077628
1.22779e-05
0.000807349
1.60904e-05
0.000837539
2.20693e-05
0.00086688
3.06405e-05
0.000895022
4.21843e-05
0.000921317
5.69665e-05
0.00094495
0.000965177
7.50524e-05
8.91308e-06
1.19032e-05
0.000394146
1.45748e-05
0.000463899
1.68109e-05
0.000525983
1.8618e-05
0.000580616
2.01219e-05
0.00062845
2.15557e-05
0.000670459
2.32416e-05
0.000707786
2.55718e-05
0.000741584
2.89883e-05
0.000772864
3.39666e-05
0.00080237
4.09999e-05
0.000830505
5.05857e-05
0.000857294
6.32063e-05
0.000882401
7.92936e-05
0.00090523
9.91495e-05
0.000925094
0.000941505
0.000122821
1.50382e-05
0.000390063
1.90083e-05
0.000459929
2.27327e-05
0.000522259
2.62054e-05
0.000577143
2.95453e-05
0.00062511
3.29863e-05
0.000667018
3.68612e-05
0.000703911
4.15828e-05
0.000736863
4.76244e-05
0.000766822
5.5501e-05
0.000794494
6.57536e-05
0.000820253
7.8932e-05
0.000844116
9.55728e-05
0.000865761
0.000116159
0.000884644
0.000141024
0.000900229
0.000912334
0.000170195
1.79952e-05
0.000384931
2.32239e-05
0.0004547
2.84047e-05
0.000517078
3.35204e-05
0.000572028
3.86825e-05
0.000619948
4.4124e-05
0.000661576
5.01855e-05
0.00069785
5.72967e-05
0.000729751
6.59574e-05
0.000758162
7.67183e-05
0.000783733
9.01632e-05
0.000806808
0.00010689
0.000827389
0.000127488
0.000845163
0.000152488
0.000859643
0.000182258
0.000870459
0.000877796
0.000216796
2.07499e-05
0.000378806
2.71868e-05
0.000448264
3.37804e-05
0.000510484
4.05035e-05
0.000565305
4.74602e-05
0.000612991
5.48809e-05
0.000654155
6.31108e-05
0.00068962
7.25927e-05
0.00072027
8.38482e-05
0.000746906
9.74584e-05
0.000770123
0.000114045
0.000790221
0.00013425
0.000807183
0.00015871
0.000820703
0.000188006
0.000830347
0.000222537
0.000835929
0.00083806
0.000262274
2.32794e-05
0.000371748
3.08641e-05
0.000440679
3.88152e-05
0.000502533
4.70973e-05
0.000557022
5.5807e-05
0.000604282
6.51708e-05
0.000644792
7.55354e-05
0.000679255
8.73527e-05
0.000708452
0.000101161
0.000733098
0.000117566
0.000753717
0.000137223
0.000770565
0.000160812
0.000783594
0.000189014
0.000792501
0.000222458
0.000796903
0.000261577
0.000796809
0.000793322
0.000306315
2.55631e-05
0.00036383
3.42254e-05
0.000432017
4.34673e-05
0.000493291
5.32473e-05
0.000547242
6.36547e-05
0.000593874
7.49108e-05
0.000633536
8.73613e-05
0.000666805
0.000101463
0.000694351
0.000117765
0.000716795
0.000136894
0.000734588
0.00015953
0.000747929
0.000186388
0.000756736
0.00021819
0.000760699
0.000255611
0.000759482
0.000299125
0.000753295
0.0007438
0.000348648
2.75826e-05
0.000355127
3.7243e-05
0.000422356
4.76982e-05
0.000482836
5.89025e-05
0.000536038
7.09389e-05
0.000581838
8.40225e-05
0.000620452
9.84951e-05
0.000652332
0.000114814
0.000678032
0.000133537
0.000698072
0.000155302
0.000712823
0.000180812
0.00072242
0.000210809
0.000726739
0.000246053
0.000725455
0.000287265
0.00071827
0.000334963
0.000705597
0.000689717
0.000389045
2.93221e-05
0.000345724
3.98929e-05
0.000411785
5.14736e-05
0.000471255
6.4017e-05
0.000523495
7.76008e-05
0.000568254
9.24333e-05
0.00060562
0.000108851
0.000635915
0.000127307
0.000659575
0.000148363
0.000677017
0.000172664
0.000688522
0.000200928
0.000694156
0.000233922
0.000693745
0.000272439
0.000686938
0.000317246
0.000673463
0.000368914
0.00065393
0.000631294
0.000427336
3.07688e-05
4.21547e-05
0.000400399
5.47638e-05
0.000458646
6.85503e-05
0.000509708
8.3588e-05
0.000553216
0.000100078
0.000589129
0.00011835
0.000617643
0.000138851
0.000639073
0.00016214
0.000653728
0.000188866
0.000661796
0.000219756
0.000663266
0.000255597
0.000657904
0.000297213
0.000645322
0.00034542
0.000625257
0.000400847
0.000598502
0.000568736
0.000463406
4.40124e-05
0.0003883
5.75448e-05
0.000445114
7.24687e-05
0.000494784
8.88558e-05
0.000536829
0.000106901
0.000571084
0.000126924
0.00059762
0.000149367
0.000616631
0.000174779
0.000628315
0.000203811
0.000632764
0.000237194
0.000629884
0.00027573
0.000619368
0.000320272
0.000600779
0.000371689
0.00057384
0.000430682
0.000539509
0.000502213
0.000497205
4.54548e-05
0.000375594
5.97985e-05
0.00043077
7.5746e-05
0.000478837
9.33689e-05
0.000519206
0.000112856
0.000551597
0.00013452
0.000575957
0.00015879
0.000592361
0.000186209
0.000600895
0.000217422
0.000601551
0.000253162
0.000594143
0.000294244
0.000578287
0.00034155
0.000553473
0.000396003
0.000519387
0.000458393
0.000477119
0.000431854
0.000528752
4.64755e-05
0.000362391
6.15139e-05
0.000415732
7.83648e-05
0.000461986
9.71023e-05
0.000500469
0.000117911
0.000530788
0.000141095
0.000552773
0.000167073
0.000566383
0.000196378
0.00057159
0.000229647
0.000568282
0.000267613
0.000556178
0.000311101
0.000534799
0.000361022
0.000503551
0.000418365
0.000462044
0.000484019
0.000411465
0.000357726
0.000558147
4.70744e-05
6.26876e-05
0.000400119
8.03174e-05
0.000444356
0.000100043
0.000480743
0.000122048
0.000508783
0.000146627
0.000528194
0.00017419
0.00053882
0.000205259
0.000540521
0.000240462
0.000533079
0.000280532
0.000516108
0.000326302
0.000489029
0.000378718
0.000451135
0.000438837
0.000401925
0.000507672
0.000342631
0.000279824
0.000585573
6.33246e-05
0.000384051
8.1607e-05
0.000426074
0.000102192
0.000460158
0.000125264
0.000485711
0.000151113
0.000502346
0.000180138
0.000509794
0.000212853
0.000507806
0.000249879
0.000496053
0.000291946
0.000474041
0.000339902
0.000441073
0.000394726
0.00039631
0.000457557
0.000339094
0.000529547
0.000270641
0.000198061
0.000611311
6.34392e-05
0.000367649
8.22489e-05
0.000407264
0.000103566
0.00043884
0.000127578
0.000461699
0.000154572
0.000475352
0.000184943
0.000479423
0.000219197
0.000473553
0.000257949
0.000457301
0.000301934
0.000430056
0.000352014
0.000390993
0.000409209
0.000339115
0.000474748
0.000273556
0.00054994
0.000195448
0.000112256
0.000635745
6.30557e-05
0.000351026
8.22719e-05
0.000388048
0.000104197
0.000416915
0.000129028
0.000436869
0.000157052
0.000447328
0.000188663
0.000447811
0.000224365
0.000437851
0.000264774
0.000416892
0.000310632
0.000384198
0.000362823
0.000338801
0.000422414
0.000279524
0.000490731
0.00020524
0.000569255
0.000116923
2.21368e-05
0.000659375
6.22092e-05
8.17188e-05
0.000368538
0.000104138
0.000394495
0.000129676
0.000411331
0.000158628
0.000418375
0.000191393
0.000415046
0.000228478
0.000400766
0.000270508
0.000374861
0.000318242
0.000336465
0.000372593
0.00028445
0.000434682
0.000217435
0.000505936
0.000133985
0.000588016
3.4844e-05
-7.26606e-05
0.000682813
8.06484e-05
0.000348836
0.000103461
0.000371683
0.000129611
0.000385181
0.00015941
0.000388576
0.000193268
0.000381189
0.000231706
0.000362329
0.000275367
0.0003312
0.000325039
0.000286794
0.000381675
0.000227813
0.000446455
0.000152656
0.000520909
5.95308e-05
0.000606866
-5.11125e-05
-0.000172576
0.000706782
7.91357e-05
0.000329026
0.00010226
0.000348559
0.000128951
0.00035849
0.000159542
0.000357985
0.000194467
0.000346264
0.000234271
0.000322525
0.000279631
0.000285839
0.000331374
0.000235051
0.000390508
0.000168679
0.000458276
8.48873e-05
0.000536303
-1.84958e-05
0.00062656
-0.00014137
-0.000278103
0.000732087
7.72726e-05
0.00010065
0.000325181
0.000127839
0.000331302
0.000159204
0.00032662
0.000195213
0.000310255
0.000236451
0.000281286
0.000283644
0.000238647
0.000337674
0.000181021
0.000399615
0.000106738
0.000470777
1.37246e-05
0.000552859
-0.000100578
0.000647935
-0.000236445
-0.00038975
0.000759582
9.87715e-05
0.000301578
0.000126449
0.000303624
0.000158612
0.000294457
0.000195774
0.000273093
0.000238578
0.000238483
0.000287811
0.000189414
0.000344431
0.000124401
0.000409587
4.15826e-05
0.000484656
-6.13444e-05
0.000571374
-0.000187297
0.000671862
-0.000336933
-0.000507994
0.000790106
9.6783e-05
0.000277741
0.000124984
0.000275423
0.000158017
0.000261424
0.000196461
0.000234649
0.000241028
0.000193915
0.00029259
0.000137852
0.00035219
6.48013e-05
0.000421062
-2.72891e-05
0.00050064
-0.000140923
0.00059265
-0.000279307
0.000699187
-0.00044347
-0.000633217
0.00082441
9.48641e-05
0.000123668
0.000246619
0.000157699
0.000227393
0.000197614
0.000194734
0.000244216
0.000147312
0.000298472
8.35956e-05
0.000361525
1.7487e-06
0.00043469
-0.000100455
0.000519443
-0.000225676
0.000617429
-0.000377293
0.000730648
-0.000556689
-0.000765639
0.00086307
0.000122746
0.000217083
0.000157959
0.00019218
0.0001996
0.000153092
0.000248577
9.83357e-05
0.000305964
2.62084e-05
0.000373007
-6.52938e-05
0.000451093
-0.000178541
0.000541707
-0.00031629
0.000646327
-0.000481913
0.000766795
-0.000677156
-0.000905243
0.000906398
0.000122473
0.00015911
0.000155543
0.000202794
0.000109408
0.000254548
4.65823e-05
0.000315559
-3.48033e-05
0.00038717
-0.000136904
0.000470816
-0.000262187
0.000567947
-0.000413421
0.00067977
-0.000593735
0.000807922
-0.000805308
-0.00105171
0.000954384
0.000161465
0.000117186
0.000207562
6.33098e-05
0.000262544
-8.39888e-06
0.000327708
-9.99677e-05
0.000404474
-0.000213671
0.000494289
-0.000352001
0.000598504
-0.000517636
0.000717944
-0.000713176
0.000854012
-0.000941377
-0.00120434
0.00100665
0.00016532
7.67676e-05
0.000214243
1.43863e-05
0.000272933
-6.70888e-05
0.000342787
-0.000169821
0.000425268
-0.000296152
0.000521779
-0.000448512
0.000633502
-0.000629359
0.000760767
-0.00084044
0.000904717
-0.00108533
-0.00136205
0.00106243
0.000170942
0.000223129
-3.78006e-05
0.000286016
-0.000129975
0.00036107
-0.000244875
0.000449758
-0.00038484
0.000553369
-0.000552124
0.000672827
-0.000748817
0.000807885
-0.000975498
0.000959372
-0.00123681
-0.00152333
0.00112065
0.000234447
-9.36948e-05
0.000301998
-0.000197527
0.000382707
-0.000325584
0.000477984
-0.000480117
0.000588933
-0.000663072
0.000716117
-0.000876001
0.000858681
-0.00111806
0.00101702
-0.00139515
-0.0016863
0.00118
0.000248345
0.000320981
-0.000270162
0.000407708
-0.000412311
0.000509814
-0.000582224
0.000628139
-0.000781397
0.000762783
-0.00101065
0.000912316
-0.0012676
0.00107642
-0.00155926
-0.00184894
0.00123906
0.000342948
-0.000348229
0.000435937
-0.000505299
0.000544941
-0.000691227
0.000670464
-0.000906921
0.00081207
-0.00115225
0.000967847
-0.00142337
0.00113609
-0.0017275
-0.00200951
0.00129666
0.000367769
0.000467116
-0.000604646
0.000582888
-0.000807
0.000715198
-0.00103923
0.00086308
-0.00130013
0.00102442
-0.00158471
0.00119481
-0.0018979
-0.00216642
0.00135172
0.000500841
-0.000710285
0.000623037
-0.000929195
0.000761448
-0.00117764
0.000914639
-0.00145332
0.00108077
-0.00175084
0.00125306
-0.00207018
-0.0023157
0.00140234
0.000536607
0.000664667
-0.00105725
0.000808218
-0.00132119
0.000965278
-0.00161038
0.00113379
-0.00191935
0.00130848
-0.00224487
-0.00253186
0.00152464
0.00070701
0.000854524
-0.00146871
0.00101379
-0.00176965
0.00118212
-0.00208768
0.00135403
-0.00241678
-0.00272321
0.00154538
0.000899479
-0.00161889
0.00105923
-0.00192941
0.00122495
-0.0022534
0.00139101
-0.00258285
-0.00289611
0.00156391
0.000942298
0.0011009
-0.00208801
0.00126228
-0.00241478
0.00142096
-0.00274152
-0.00305383
0.00157868
0.00113828
0.001294
-0.0025705
0.00144426
-0.00289178
-0.00319821
0.00158863
0.00131995
-0.00271952
0.0014612
-0.00303302
-0.00333042
0.00159341
0.00134011
0.00147201
-0.00316493
-0.00345132
0.00159291
0.00147699
-0.00356163
0.0015873
0.00157687
0.00313895
0.00141897
0.00129073
0.00276121
0.00302011
0.00140957
0.00113461
0.00235608
0.00126684
0.00262898
0.00289257
0.00139437
0.00109844
0.00221759
0.00123683
0.00249059
0.00275605
0.00137335
0.000915621
0.00180811
0.00105676
0.00207646
0.00120061
0.00234674
0.00260999
0.00134668
0.000733135
0.00142511
0.000867111
0.00167414
0.00100965
0.00193392
0.00115807
0.00219831
0.00245323
0.00131483
0.000683225
0.00130558
0.000814686
0.00154267
0.000957155
0.00179145
0.00110893
0.00204654
0.00228358
0.00127859
0.000516623
0.000983301
0.000631082
0.00119113
0.000758604
0.00141515
0.00089912
0.00165094
0.0010525
0.00189315
0.00209692
0.00123916
0.000373955
0.000713408
0.000468636
0.00088862
0.000577073
0.00108269
0.000699162
0.00129306
0.000835077
0.00151502
0.000985733
0.00174249
0.00188448
0.00119818
0.000332095
0.000638692
0.000420042
0.000800673
0.000521641
0.000981089
0.000636915
0.00117779
0.000765723
0.00138621
0.000904453
0.00160376
0.00176214
0.00102679
0.000222193
0.000439775
0.000290304
0.000570582
0.000371174
0.000719803
0.000465343
0.00088692
0.000572839
0.00107029
0.000692936
0.00126611
0.000823641
0.00147306
0.00163691
0.000948879
0.000187351
0.000389578
0.000248771
0.000509162
0.000322359
0.000646216
0.000408754
0.000800525
0.000508115
0.000970933
0.000619823
0.00115441
0.000744009
0.00134887
0.00151336
0.000867554
0.000108763
0.000252146
0.000152971
0.00034537
0.000207688
0.000454445
0.000273901
0.000580003
0.000352354
0.000722072
0.000443417
0.00087987
0.000546838
0.00105099
0.000663625
0.00123209
0.0013925
0.000784484
8.08802e-05
0.000222495
0.000119183
0.000307068
0.000167245
0.000406383
0.000226082
0.000521166
0.000296532
0.000651622
0.000379177
0.000797224
0.000474187
0.000955976
0.000582964
0.00112331
0.00127529
0.000700172
2.90074e-05
0.000133837
5.36117e-05
0.00019789
8.61293e-05
0.00027455
0.000127642
0.000364871
0.000179177
0.00046963
0.000241655
0.000589144
0.000315856
0.000723023
0.000402387
0.000869445
0.000502938
0.00102276
0.00116295
0.000615282
7.37296e-06
0.00012028
2.70817e-05
0.000178182
5.39729e-05
0.000247659
8.90926e-05
0.000329751
0.000133473
0.00042525
0.000188106
0.000534511
0.000253957
0.000657172
0.000332052
0.000791351
0.000424316
0.000930496
0.00105658
0.000530682
-2.30583e-05
6.7874e-05
-1.35644e-05
0.000110786
1.42764e-06
0.00016319
2.28911e-05
0.000226196
5.18296e-05
0.000300812
8.92738e-05
0.000387806
0.00013628
0.000487504
0.000193988
0.000599464
0.000263785
0.000721554
0.000347777
0.000846503
0.0009571
0.000447261
-3.92984e-05
6.62713e-05
-3.36849e-05
0.000105173
-2.31978e-05
0.000152702
-6.92643e-06
0.000209924
1.60948e-05
0.000277791
4.68913e-05
0.000357009
8.65776e-05
0.000447818
0.000136447
0.000549594
0.000198173
0.000659828
0.000273962
0.000770715
0.000865225
0.000365836
-5.48038e-05
6.78169e-05
-5.28656e-05
0.000103235
-4.6645e-05
0.000146482
-3.52876e-05
0.000198567
-1.7868e-05
0.000260372
6.63411e-06
0.000332507
3.93846e-05
0.000415068
8.18037e-05
0.000507175
0.000135758
0.000605874
0.000203446
0.000703027
0.000781542
0.000287129
-6.4972e-05
4.59946e-05
-6.94753e-05
7.23201e-05
-7.09856e-05
0.000104745
-6.87636e-05
0.00014426
-6.20074e-05
0.000191811
-4.98277e-05
0.000248192
-3.12094e-05
0.000313889
-4.94709e-06
0.000388805
3.04702e-05
0.000471757
7.70056e-05
0.000559339
0.000136723
0.000643309
0.000706533
0.000211732
-7.59656e-05
5.51485e-05
-8.32203e-05
7.95748e-05
-8.7933e-05
0.000109458
-8.94177e-05
0.000145745
-8.69196e-05
0.000189313
-7.95813e-05
0.000240853
-6.63942e-05
0.000300702
-4.6127e-05
0.000368538
-1.72267e-05
0.000442857
2.22477e-05
0.000519864
7.42412e-05
0.000591316
0.00064066
0.000140115
-8.61697e-05
6.64736e-05
-9.59566e-05
8.93617e-05
-0.00010361
0.000117111
-0.000108492
0.000150626
-0.000109887
0.000190708
-0.000106967
0.000237934
-9.87334e-05
0.000292468
-8.39479e-05
0.000353753
-6.10662e-05
0.000419975
-2.81523e-05
0.00048695
1.71315e-05
0.000546032
0.000585297
7.24937e-05
-8.22202e-05
6.15267e-05
-9.55254e-05
7.97788e-05
-0.000107617
0.000101453
-0.00011794
0.000127435
-0.000125898
0.000158583
-0.000130811
0.000195621
-0.000131876
0.000239
-0.000128113
0.000288704
-0.000118298
0.000343938
-0.000100938
0.000402615
-7.43174e-05
0.00046033
-3.73954e-05
0.00050911
0.000541426
6.47601e-06
-8.88972e-05
7.70383e-05
-0.000103986
9.48679e-05
-0.00011815
0.000115616
-0.000130868
0.000140154
-0.000141579
0.000169294
-0.000149634
0.000203676
-0.000154258
0.000243624
-0.000154494
0.00028894
-0.000149158
0.000338602
-0.000136845
0.000390302
-0.0001161
0.000439585
-8.62159e-05
0.000479226
0.000502512
-4.73016e-05
-9.48443e-05
9.39116e-05
-0.00011152
0.000111544
-0.000127523
0.000131619
-0.000142364
0.000154995
-0.000155511
0.00018244
-0.000166345
0.00021451
-0.000174119
0.000251398
-0.000177914
0.000292735
-0.000176609
0.000337297
-0.000168918
0.000382611
-0.000153623
0.00042429
-0.000130254
0.000455858
0.000471389
-9.91314e-05
-8.19738e-05
9.54952e-05
-0.000100041
0.000111979
-0.000118107
0.00012961
-0.000135722
0.000149233
-0.000152422
0.000171695
-0.000167701
0.00019772
-0.000180971
0.00022778
-0.00019152
0.000261947
-0.000198478
0.000299692
-0.000200812
0.000339631
-0.000197393
0.000379192
-0.000187268
0.000414165
-0.000170287
0.000438877
0.000448295
-0.000147194
-8.53811e-05
0.000113971
-0.000104476
0.000131074
-0.000123742
0.000148876
-0.000142749
0.00016824
-0.000161057
0.000190003
-0.000178186
0.000214848
-0.000193577
0.000243172
-0.000206562
0.000274932
-0.000216335
0.000309466
-0.000221977
0.000345272
-0.000222541
0.000379756
-0.000217351
0.000408975
-0.000206551
0.000428077
0.000432963
-0.000191218
-8.81876e-05
0.000133179
-0.000108149
0.000151035
-0.000128432
0.000169159
-0.000148623
0.000188431
-0.000168305
0.000209684
-0.000187022
0.000233566
-0.000204252
0.000260402
-0.000219375
0.000290055
-0.000231667
0.000321759
-0.000240335
0.00035394
-0.000244631
0.000384053
-0.000244144
0.000408488
-0.000239255
0.000423189
0.000424953
-0.000231246
-9.03942e-05
0.000152981
-0.000111067
0.000171708
-0.000132192
0.000190284
-0.000153373
0.000209612
-0.000174212
0.000230524
-0.000194283
0.000253637
-0.000213102
0.00027922
-0.000230106
0.000307059
-0.000244663
0.000336316
-0.000256119
0.000365395
-0.000263923
0.000391857
-0.0002679
0.000412464
-0.000268606
0.000423895
0.000423737
-0.00026739
-7.17462e-05
0.00015211
-9.20082e-05
0.000173243
-0.000113243
0.000192943
-0.000135046
0.000212086
-0.000157036
0.000231603
-0.000178838
0.000252326
-0.000200053
0.000274852
-0.000220241
0.000299407
-0.000238905
0.000325723
-0.000255511
0.000352922
-0.000269545
0.00037943
-0.000280646
0.000402958
-0.000288836
0.000420654
-0.000294783
0.000429842
0.000428751
-0.000299797
-7.2448e-05
0.000171203
-9.30409e-05
0.000193836
-0.000114697
0.000214599
-0.000137024
0.000234413
-0.000159658
0.000254237
-0.000182245
0.000274912
-0.000204417
0.000297024
-0.000225782
0.000320771
-0.000245913
0.000345854
-0.000264379
0.000371388
-0.000280804
0.000395855
-0.000294994
0.000417147
-0.000307128
0.000432788
-0.000317932
0.000440646
0.000439428
-0.000328608
-7.27068e-05
0.000190434
-9.35075e-05
0.000214637
-0.000115452
0.000236543
-0.00013816
0.000257122
-0.000161286
0.000277362
-0.000184496
0.000298123
-0.000207459
0.000319988
-0.000229831
0.000343143
-0.00025126
0.000367283
-0.000271414
0.000391542
-0.000290048
0.000414489
-0.000307113
0.000434212
-0.000322905
0.00044858
-0.000338161
0.000455903
0.000455209
-0.000353943
-7.25348e-05
0.000209696
-9.34255e-05
0.000235527
-0.000115532
0.00025865
-0.000138488
0.000280078
-0.000161964
0.000300838
-0.000185652
0.000321811
-0.000209256
0.000343591
-0.000232482
0.00036637
-0.000255052
0.000389853
-0.000276732
0.000413222
-0.000297393
0.00043515
-0.000317107
0.000453926
-0.00033625
0.000467723
-0.000355541
0.000475194
0.000475551
-0.000375883
-5.27583e-05
0.000197363
-7.19456e-05
0.000228883
-9.2814e-05
0.000256396
-0.000114964
0.0002808
-0.000138043
0.000303157
-0.000161739
0.000324535
-0.00018577
0.000345842
-0.000209875
0.000367696
-0.000233813
0.000390307
-0.000257375
0.000413416
-0.000280419
0.000436265
-0.000302917
0.000457648
-0.000325036
0.000476045
-0.000347205
0.000489892
-0.000370099
0.000498088
0.000499924
-0.000394472
-5.19421e-05
0.000214211
-7.09544e-05
0.000247895
-9.16931e-05
0.000277134
-0.000113773
0.000302879
-0.000136857
0.000326241
-0.000160651
0.000348329
-0.000184898
0.000370089
-0.000209373
0.00039217
-0.000233885
0.000414819
-0.000258292
0.000437823
-0.000282531
0.000460503
-0.000306661
0.000481779
-0.000330923
0.000500307
-0.00035577
0.000514738
-0.000381824
0.000524142
0.000527805
-0.000409705
-5.08361e-05
0.000230768
-6.95769e-05
0.000266636
-9.00831e-05
0.000297641
-0.000111985
0.000324781
-0.000134962
0.000349218
-0.000158737
0.000372104
-0.000183078
0.00039443
-0.000207795
0.000416887
-0.000232744
0.000439768
-0.000257843
0.000462922
-0.000283098
0.000485758
-0.000308639
0.00050732
-0.000334757
0.000526425
-0.000361914
0.000541895
-0.000390674
0.000552902
0.00055867
-0.000421539
-4.94526e-05
0.000246948
-6.78291e-05
0.000285012
-8.8004e-05
0.000317815
-0.000109624
0.000346402
-0.000132385
0.000371978
-0.000156028
0.000395747
-0.000180345
0.000418747
-0.000205176
0.000441719
-0.000230422
0.000465014
-0.000256051
0.000488552
-0.000282128
0.000511835
-0.000308838
0.00053403
-0.000336504
0.000554092
-0.000365582
0.000570973
-0.000396578
0.000583898
0.000591991
-0.000429898
-4.78044e-05
0.000262669
-6.57273e-05
0.000302935
-8.54755e-05
0.000337564
-0.000106714
0.00036764
-0.000129153
0.000394417
-0.000152553
0.000419147
-0.000176726
0.00044292
-0.000201542
0.000466535
-0.000226936
0.000490408
-0.000252924
0.000514539
-0.000279613
0.000538525
-0.000307228
0.000561645
-0.000336112
0.000582975
-0.000366702
0.000601563
-0.000399449
0.000616645
0.000627226
-0.000434684
-4.59047e-05
0.000277855
-6.32881e-05
0.000320319
-8.25171e-05
0.000356793
-0.000103275
0.000388398
-0.000125289
0.000416431
-0.000148334
0.000442192
-0.000172243
0.000466828
-0.000196909
0.000491201
-0.000222298
0.000515798
-0.000248459
0.000540699
-0.000275534
0.0005656
-0.000303772
0.000589883
-0.000333521
0.000612724
-0.000365196
0.000633238
-0.000399194
0.000650643
0.00066382
-0.000435788
-4.37673e-05
0.000292429
-6.0528e-05
0.000337079
-7.9148e-05
0.000375413
-9.93298e-05
0.00040858
-0.000120815
0.000437916
-0.000143395
0.000464771
-0.000166916
0.000490349
-0.000191292
0.000515577
-0.000216512
0.000541018
-0.000242648
0.000566835
-0.000269866
0.000592818
-0.000298426
0.000618443
-0.000328671
0.000642969
-0.000360987
0.000665554
-0.000395721
0.000685378
0.0007012
-0.000433102
-4.14064e-05
0.000306321
-5.74643e-05
0.000353137
-7.53876e-05
0.000393336
-9.4898e-05
0.000428091
-0.000115752
0.000458771
-0.000137753
0.000486772
-0.00016076
0.000513356
-0.000184701
0.000539518
-0.000209579
0.000565896
-0.000235482
0.000592739
-0.000262587
0.000619923
-0.000291154
0.00064701
-0.00032151
0.000673325
-0.000354009
0.000698053
-0.000388954
0.000720323
0.000738782
-0.000426536
-2.56959e-05
0.000262781
-3.88368e-05
0.000319461
-5.41146e-05
0.000368415
-7.12555e-05
0.000410477
-9.00009e-05
0.000446836
-0.000110121
0.000478891
-0.000131428
0.000508079
-0.000153791
0.000535719
-0.000177145
0.000562872
-0.000201502
0.000590252
-0.000226954
0.000618191
-0.000253677
0.000646647
-0.000281924
0.000675257
-0.000311998
0.000703399
-0.000344215
0.00073027
-0.000378837
0.000754944
0.00077597
-0.000416025
-2.37484e-05
0.00027277
-3.60741e-05
0.000331787
-5.04973e-05
0.000382838
-6.67725e-05
0.000426752
-8.46602e-05
0.000464724
-0.000103943
0.000498173
-0.000124441
0.000528578
-0.000146027
0.000557306
-0.000168639
0.000585484
-0.000192287
0.0006139
-0.000217062
0.000642965
-0.00024313
0.000672714
-0.000270722
0.000702849
-0.000300114
0.000732791
-0.000331582
0.000761738
-0.000365345
0.000788708
0.000812167
-0.000401542
-2.16844e-05
0.000281972
-3.31343e-05
0.000343237
-4.66318e-05
0.000396336
-6.196e-05
0.00044208
-7.88987e-05
0.000481662
-9.72417e-05
0.000516516
-0.000116814
0.00054815
-0.000137489
0.00057798
-0.000159199
0.000607194
-0.00018195
0.000636651
-0.000205817
0.000666833
-0.00023095
0.000697847
-0.000257552
0.000729451
-0.000285862
0.000761101
-0.000316116
0.000791991
-0.000348491
0.000821083
0.00084678
-0.000383104
-1.95169e-05
0.000290343
-3.00344e-05
0.000353754
-4.25386e-05
0.00040884
-5.68414e-05
0.000456383
-7.27417e-05
0.000497563
-9.00431e-05
0.000533818
-0.000108573
0.00056668
-0.0001282
0.000597608
-0.00014885
0.000627843
-0.00017051
0.000658311
-0.00019324
0.000689562
-0.000217159
0.000721766
-0.000242438
0.00075473
-0.000269274
0.000787937
-0.000297856
0.000820574
-0.000328326
0.000851552
0.00087923
-0.000360775
-1.72593e-05
0.000297842
-2.67924e-05
0.000363288
-3.82396e-05
0.000420287
-5.14419e-05
0.000469585
-6.62167e-05
0.000512338
-8.23763e-05
0.000549977
-9.9748e-05
0.000584052
-0.000118193
0.000616053
-0.000137621
0.000647272
-0.000158002
0.000678692
-0.000179365
0.000710925
-0.000201797
0.000744198
-0.000225427
0.000778361
-0.000250407
0.000812917
-0.00027688
0.000847046
-0.000304945
0.000879618
0.000908959
-0.000334674