/*--------------------------------*- C++ -*----------------------------------*\
  =========                 |
  \\      /  F ield         | OpenFOAM: The Open Source CFD Toolbox
   \\    /   O peration     | Website:  https://openfoam.org
    \\  /    A nd           | Version:  7
     \\/     M anipulation  |
\*---------------------------------------------------------------------------*/
FoamFile
{
    version     2.0;
    format      ascii;
    class       surfaceScalarField;
    location    "200";
    object      phi;
}
// * * * * * * * * * * * * * * * * * * * * * * * * * * * * * * * * * * * * * //

dimensions      [0 3 -1 0 0 0 0];

internalField   nonuniform List<scalar> 
8921
(
-0.00237599
-0.00107408
-0.00230182
-0.00109183
-0.00222677
-0.00110906
-0.00104984
-0.00209982
-0.00215087
-0.00112574
-0.00106514
-0.0020249
-0.00207414
-0.00114187
-0.0010799
-0.00194918
-0.00199659
-0.00115744
-0.00109411
-0.00187269
-0.00191825
-0.00117245
-0.00103053
-0.00175367
-0.00110776
-0.00179545
-0.00183914
-0.00118687
-0.0010429
-0.00167753
-0.00112086
-0.0017175
-0.0017593
-0.00120071
-0.00105474
-0.00160071
-0.00113339
-0.00163885
-0.00167874
-0.00121395
-0.00106604
-0.00152325
-0.00114536
-0.00155953
-0.0015975
-0.0012266
-0.000998708
-0.00141271
-0.00107679
-0.00144517
-0.00115674
-0.00147958
-0.0015156
-0.00123864
-0.00100832
-0.00133582
-0.00108699
-0.0013665
-0.00116754
-0.00139903
-0.00143308
-0.00125006
-0.0010174
-0.00125838
-0.00109663
-0.00128726
-0.00117776
-0.0013179
-0.00134998
-0.00126087
-0.00102595
-0.00118042
-0.00110571
-0.0012075
-0.00118739
-0.00123622
-0.00126631
-0.00127105
-0.00103397
-0.00110198
-0.00111423
-0.00112724
-0.00119642
-0.00115404
-0.00118212
-0.00128061
-0.000962557
-0.00100107
-0.00104146
-0.00102308
-0.00112218
-0.00104651
-0.00120485
-0.00107138
-0.00109744
-0.00128953
-0.000969081
-0.000923479
-0.0010484
-0.000943753
-0.00112957
-0.000965349
-0.00121267
-0.00098827
-0.00101229
-0.00129781
-0.000975096
-0.000845504
-0.00105481
-0.000864038
-0.00113637
-0.000883786
-0.00121989
-0.000904751
-0.000926729
-0.00130546
-0.000980601
-0.000767178
-0.00106068
-0.000783964
-0.00114261
-0.000801856
-0.0012265
-0.000820854
-0.000840776
-0.00131246
-0.000985594
-0.000688532
-0.00106599
-0.000703563
-0.00114826
-0.00071959
-0.0012325
-0.000736613
-0.000754469
-0.00131881
-0.000990072
-0.000609599
-0.00107077
-0.000622869
-0.00115333
-0.000637024
-0.00123788
-0.000652064
-0.000667844
-0.00132451
-0.000994034
-0.000530411
-0.00107499
-0.000541914
-0.00115782
-0.000554191
-0.00124265
-0.00056724
-0.000580936
-0.00132955
-0.000997478
-0.000451001
-0.00107866
-0.000460733
-0.00116173
-0.000471125
-0.00124679
-0.000482177
-0.000493782
-0.00133394
-0.0010004
-0.000371403
-0.00108178
-0.000379358
-0.00116504
-0.000387861
-0.00125031
-0.00039691
-0.000406418
-0.00133767
-0.00100281
-0.000291648
-0.00108434
-0.000297823
-0.00116777
-0.000304432
-0.00125321
-0.000311475
-0.00031888
-0.00134075
-0.0010047
-0.00021177
-0.00108636
-0.000216163
-0.00116991
-0.000220875
-0.00125548
-0.000225906
-0.000231204
-0.00134316
-0.000926091
-0.000129386
-0.00100606
-0.000131803
-0.00108781
-0.000134411
-0.00117146
-0.000137223
-0.00125713
-0.00014024
-0.000143425
-0.00134491
-0.000926877
-5.10388e-05
-0.0010069
-5.17796e-05
-0.00108871
-5.26007e-05
-0.00117242
-5.35111e-05
-0.00125815
-5.45137e-05
-5.5579e-05
-0.00134599
-0.000927173
2.73301e-05
-0.00100722
2.82665e-05
-0.00108905
2.92327e-05
-0.00117279
3.02242e-05
-0.00125854
3.12375e-05
3.2274e-05
-0.00134639
-0.00092698
0.000105688
-0.00100702
0.000108302
-0.00108884
0.000111056
-0.00117256
0.000113949
-0.0012583
0.000116978
0.000120124
-0.00134615
-0.000926298
0.000184003
-0.00100629
0.000188294
-0.00108807
0.000192834
-0.00117175
0.00019763
-0.00125744
0.000202674
0.000207931
-0.00134525
-0.000925126
-0.00100504
0.000268208
-0.00108674
0.000274535
-0.00117034
0.000281231
-0.00125596
0.000288289
0.000295657
-0.00134368
-0.00100327
0.000348012
-0.00108486
0.000356123
-0.00116834
0.000364717
-0.00125384
0.000373787
0.000383263
-0.00134145
-0.00100098
0.000427672
-0.00108242
0.000437564
-0.00116576
0.000448055
-0.0012511
0.000459133
0.000470713
-0.00133855
-0.000998162
0.000507155
-0.00107942
0.000518826
-0.00116258
0.000531208
-0.00124774
0.000544291
0.000557971
-0.00133499
-0.000994828
0.000586428
-0.00107588
0.000599874
-0.00115881
0.000614144
-0.00124375
0.000629226
0.000645
-0.00133077
-0.000990974
0.000665458
-0.00107177
0.000680675
-0.00115446
0.000696826
-0.00123913
0.000713903
0.000731765
-0.0013259
-0.000986601
0.000744213
-0.00106712
0.000761195
-0.00114952
0.000779223
-0.0012339
0.000798287
0.000818228
-0.00132037
-0.000981712
0.000822661
-0.00106192
0.000841402
-0.00114399
0.000861299
-0.00122805
0.000882343
0.000904356
-0.00131418
-0.000976308
0.000900768
-0.00105617
0.000921262
-0.00113789
0.00094302
-0.00122158
0.000966036
0.000990111
-0.00130734
-0.00097039
0.000978503
-0.00104987
0.00100074
-0.00113121
0.00102436
-0.0012145
0.00104933
0.00107546
-0.00129985
-0.00096396
0.00105583
-0.00104303
0.00107981
-0.00112394
0.00110527
-0.00120681
0.0011322
0.00116037
-0.00129172
-0.000957019
-0.00103565
0.00115844
-0.00111611
0.00118573
-0.00119851
0.0012146
0.0012448
-0.00128294
-0.00102772
0.00123659
-0.0011077
0.00126571
-0.00118961
0.00129651
0.00132872
-0.00127353
-0.00101926
0.00131424
-0.00109872
0.00134517
-0.0011801
0.00137789
0.0014121
-0.00126348
-0.00101027
0.00139135
-0.00108918
0.00142408
-0.00117
0.00145871
0.00149491
-0.0012528
-0.00100074
0.00146789
-0.00107908
0.00150241
-0.0011593
0.00153893
0.00157711
-0.0012415
-0.000990692
-0.00106842
0.00158014
-0.00114802
0.00161854
0.00165867
-0.00122958
-0.0010572
0.00165723
-0.00113615
0.00169749
0.00173955
-0.00121704
-0.00104544
0.00173365
-0.0011237
0.00177576
0.00181974
-0.00120389
-0.00103312
0.00180937
-0.00111068
0.00185332
0.00189921
-0.00119014
-0.00102027
-0.00109709
0.00193014
0.00197791
-0.0011758
-0.00108294
0.00200619
0.00205584
-0.00116086
-0.00106823
0.00208146
0.00213295
-0.00114534
-0.00105296
0.00220924
-0.00112925
0.00228467
-0.00111259
0.00235924
-0.00109537
-0.00107761
0.0055989
6.24435e-05
-5.93692e-05
0.00559024
0.000164224
-0.000155569
0.00557661
0.000246741
-0.00023311
0.00555854
0.000316985
-0.000298915
0.00553627
0.000381315
-0.00035904
0.00551031
0.000443833
-0.000417872
0.0054808
0.000508027
-0.000478518
0.00544837
0.000575673
-0.000543243
0.00541322
0.000648864
-0.000613714
0.00537624
0.000727637
-0.000690656
0.00533779
0.000813561
-0.00077512
0.00529924
0.000905135
-0.000866584
0.00526118
0.00100408
-0.000966023
0.00522571
0.00110697
-0.0010715
0.00519358
0.00121662
-0.00118448
0.00516811
0.00132622
-0.00130075
0.00514963
0.00144198
-0.00142351
0.00514391
0.00154945
-0.00154373
0.00514866
0.00166583
-0.00167058
0.00517623
0.00175463
-0.0017822
0.00187197
-0.00190992
0.00573219
6.54133e-05
0.00572377
0.000172645
0.00571047
0.000260039
0.0056929
0.000334554
0.00567127
0.000402944
0.00564622
0.000468881
0.00561789
0.000536359
0.00558708
0.00060649
0.00555398
0.000681956
0.00551974
0.000761884
0.0054847
0.000848597
0.00545055
0.000939289
0.0054178
0.00103683
0.005389
0.00113577
0.00536459
0.00124102
0.00534857
0.00134224
0.00534049
0.00145006
0.00534695
0.00154299
0.0053647
0.00164808
0.00540537
0.00171395
0.00181589
0.00586865
6.82771e-05
0.00586053
0.000180763
0.00584769
0.000272876
0.00583077
0.000351469
0.00581002
0.000423701
0.00578612
0.00049278
0.00575928
0.000563194
0.00573039
0.000635384
0.00569974
0.000712601
0.00566857
0.000793059
0.00563733
0.000879831
0.00560782
0.000968801
0.00558063
0.00106403
0.00555839
0.00115802
0.00554155
0.00125786
0.00553403
0.00134977
0.00553541
0.00144867
0.00555146
0.00152695
0.00557991
0.00161964
0.00562788
0.00166598
0.00175207
0.00600836
7.10182e-05
0.0060006
0.000188529
0.00598831
0.000285162
0.00597218
0.000367603
0.00595246
0.000443415
0.00592992
0.000515327
0.00590482
0.000588292
0.00587811
0.000662089
0.00585021
0.000740508
0.00582239
0.000820875
0.00579524
0.000906982
0.00577058
0.000993463
0.00574908
0.00108552
0.00573332
0.00117378
0.00572382
0.00126736
0.00572405
0.00134953
0.00573395
0.00143877
0.00575773
0.00150317
0.00579447
0.0015829
0.00584703
0.00161343
0.00168355
0.00615141
7.36206e-05
0.00614405
0.000195897
0.00613239
0.000296816
0.00611714
0.000382849
0.00609861
0.000461947
0.00607759
0.000536354
0.00605442
0.000611456
0.00603012
0.000686394
0.00600517
0.000765452
0.00598093
0.000845118
0.00595805
0.000929858
0.00593836
0.00101316
0.0059226
0.00110127
0.00591316
0.00118322
0.00591069
0.00126983
0.00591803
0.00134219
0.00593551
0.00142129
0.00596572
0.00147296
0.00600891
0.00153971
0.00606523
0.00155711
0.00161182
0.00629788
7.60688e-05
0.00629095
0.000202825
0.00628
0.000307767
0.00626574
0.000397111
0.00624851
0.000479174
0.00622914
0.00055572
0.00620807
0.000632528
0.00618633
0.00070813
0.00616452
0.000787266
0.00614399
0.000865649
0.00612549
0.000948356
0.00611077
0.00102788
0.00610068
0.00111137
0.0060973
0.00118661
0.00610143
0.00126569
0.00611519
0.00132843
0.00613927
0.00139721
0.00617489
0.00143734
0.00622306
0.00149155
0.00628236
0.00149781
0.00153853
0.00644784
7.83473e-05
0.00644139
0.00020927
0.00643121
0.000317947
0.00641802
0.0004103
0.00640221
0.000494986
0.00638463
0.0005733
0.00636578
0.000651374
0.00634674
0.000727171
0.00632817
0.000805835
0.00631143
0.000882396
0.00629733
0.000962451
0.00628751
0.0010377
0.0062829
0.00111598
0.00628522
0.00118428
0.00629542
0.00125549
0.0063149
0.00130895
0.00634461
0.00136751
0.00638471
0.00139724
0.00643658
0.00143967
0.00649782
0.00143657
0.00146502
0.00660137
8.04408e-05
0.00659545
0.000215194
0.00658611
0.000327289
0.00657407
0.000422333
0.00655978
0.000509284
0.00654409
0.000588988
0.00652758
0.000667884
0.00651133
0.000743421
0.00649608
0.000821084
0.00648314
0.000895337
0.0064734
0.000972186
0.00646834
0.00104277
0.00646893
0.00111539
0.00647655
0.00117666
0.00649221
0.00123982
0.0065167
0.00128447
0.00655108
0.00133312
0.00659476
0.00135355
0.00664922
0.00138521
0.00671148
0.00137431
0.00139217
0.00675857
8.23345e-05
0.0067532
0.000220556
0.00674476
0.00033573
0.00673396
0.000433133
0.00672127
0.000521976
0.00670756
0.000602694
0.00669348
0.000681968
0.00668009
0.000756815
0.00666819
0.000832977
0.00665903
0.000904499
0.00665356
0.000977657
0.00665304
0.00104329
0.00665851
0.00110992
0.00667097
0.0011642
0.00669147
0.00121933
0.00672026
0.00125568
0.00675842
0.00129496
0.00680484
0.00130713
0.00686093
0.00132912
0.00692345
0.0013118
0.00132058
0.00691951
8.40141e-05
0.00691474
0.000225323
0.00690726
0.000343212
0.00689776
0.000442632
0.00688675
0.000532984
0.0068751
0.000614341
0.00686351
0.00069356
0.00685301
0.000767317
0.00684447
0.000841518
0.00683902
0.000909949
0.00683766
0.000979016
0.00684144
0.0010395
0.00685142
0.00109995
0.00686824
0.00114737
0.00689294
0.00119463
0.00692535
0.00122326
0.00696647
0.00125384
0.00701487
0.00125874
0.0070718
0.00127219
0.00713397
0.00124962
0.00125075
0.00708428
8.54662e-05
0.00708015
0.000229462
0.00707367
0.000349684
0.00706554
0.00045077
0.00705628
0.000542241
0.00704675
0.000623874
0.00703769
0.000702616
0.00703009
0.000774918
0.00702487
0.000846742
0.00702303
0.000911789
0.00702559
0.000976451
0.0070334
0.0010317
0.00704747
0.00108588
0.00706817
0.00112667
0.00709644
0.00116637
0.00713182
0.00118789
0.00717517
0.00121048
0.00722486
0.00120905
0.00728198
0.00121506
0.00734331
0.0011883
0.00118304
0.00725299
8.66786e-05
0.0072495
0.000232944
0.00724409
0.000355099
0.00723736
0.000457496
0.00722991
0.000549694
0.00722253
0.000631251
0.00721603
0.000709118
0.00721131
0.000779634
0.00720933
0.000848723
0.00721097
0.000910152
0.00721723
0.000970188
0.00722876
0.00102016
0.00724651
0.00106813
0.00727061
0.00110257
0.00730186
0.00113512
0.0073396
0.00115015
0.00738453
0.00116556
0.00743491
0.00115866
0.0074917
0.00115828
0.00755176
0.00112824
0.00111773
0.0074257
8.76409e-05
0.0074229
0.000235746
0.00741858
0.00035942
0.00741331
0.00046277
0.00740769
0.000555307
0.00740249
0.00063645
0.00739854
0.00071307
0.00739667
0.000781508
0.00739783
0.00084756
0.00740278
0.0009052
0.00741249
0.000960477
0.00742743
0.00100523
0.00744843
0.00104712
0.00747544
0.00107556
0.00750913
0.00110143
0.00754867
0.00111062
0.0075946
0.00111962
0.00764519
0.00110808
0.00770119
0.00110227
0.00775967
0.00106976
0.001055
0.00760253
8.83443e-05
0.00760043
0.000237847
0.00759723
0.000362617
0.00759344
0.000466562
0.00758969
0.000559057
0.00758667
0.000639466
0.00758524
0.000714502
0.00758614
0.000780608
0.00759032
0.000843383
0.0075984
0.000897119
0.00761129
0.000947588
0.00762929
0.000987234
0.00765313
0.00102327
0.0076826
0.00104609
0.00771822
0.00106582
0.00775905
0.00106978
0.00780551
0.00107315
0.00785586
0.00105773
0.00791074
0.00104739
0.0079674
0.0010131
0.000994971
0.00778356
8.87824e-05
0.00778217
0.000239233
0.00778012
0.000364671
0.00777783
0.000468854
0.00777594
0.000560942
0.00777509
0.000640314
0.00777613
0.000713465
0.00777972
0.000777022
0.00778676
0.000836344
0.00779776
0.000886116
0.00781354
0.000931804
0.00783427
0.000966505
0.00786056
0.000996987
0.00789205
0.0010146
0.00792913
0.00102874
0.00797081
0.0010281
0.00801738
0.00102659
0.00806714
0.00100797
0.00812063
0.000993893
0.00817531
0.000958425
0.000937682
0.00796889
8.89511e-05
0.00796823
0.000239893
0.00796733
0.000365573
0.00796654
0.000469641
0.00796651
0.000560973
0.0079678
0.000639027
0.00797123
0.000710031
0.00797739
0.000770865
0.00798712
0.000826614
0.00800082
0.000872414
0.00801921
0.000913414
0.00804234
0.000943382
0.00807067
0.000968648
0.00810378
0.000981489
0.00814191
0.000990614
0.00818404
0.000985967
0.00823037
0.000980265
0.00827926
0.000959076
0.00833116
0.000941988
0.00838374
0.000905849
0.000883143
0.00815862
8.88489e-05
0.00815869
0.000239823
0.00815895
0.000365321
0.00815966
0.000468928
0.00816145
0.000559178
0.00816482
0.000635655
0.00817056
0.000704292
0.00817916
0.000762266
0.00819139
0.000814381
0.00820756
0.000856249
0.00822826
0.000892708
0.00825345
0.000918196
0.00828348
0.000938621
0.00831782
0.000947144
0.00835663
0.000951808
0.00839888
0.000943717
0.00844466
0.00093448
0.00849246
0.000911279
0.00854263
0.000891817
0.00859305
0.000855436
0.000831324
0.00835286
8.84768e-05
0.00835366
0.000239023
0.00835505
0.000363927
0.00835725
0.000466736
0.00836082
0.0005556
0.00836621
0.000630269
0.00837414
0.00069636
0.00838503
0.000751376
0.00839957
0.000799845
0.00841795
0.000837864
0.00844069
0.000869976
0.00846762
0.000891267
0.00849899
0.000907248
0.00853423
0.000911901
0.00857339
0.000912648
0.00861546
0.000901645
0.00866047
0.000889471
0.008707
0.000864756
0.00875533
0.000843479
0.00880356
0.000807211
0.000782165
0.0085517
8.78382e-05
0.00855323
0.000237501
0.00855574
0.000361411
0.00855938
0.000463097
0.00856468
0.000550299
0.008572
0.000622952
0.008582
0.000686357
0.00859502
0.000738357
0.00861165
0.000783214
0.00863201
0.000817505
0.00865649
0.000845501
0.00868485
0.0008629
0.00871726
0.000874844
0.00875309
0.00087607
0.00879232
0.000873421
0.00883396
0.000859996
0.00887801
0.000845429
0.00892313
0.000819636
0.00896957
0.000797032
0.00901561
0.000761172
0.000735588
0.00875526
8.69393e-05
0.0087575
0.000235271
0.0087611
0.000357803
0.00876615
0.000458055
0.0087731
0.000543347
0.00878224
0.000613805
0.00879418
0.000674422
0.00880915
0.000723383
0.00882767
0.000764701
0.00884975
0.00079542
0.0088757
0.000819555
0.00890522
0.000833382
0.00893836
0.000841698
0.0089745
0.000839928
0.00901355
0.000834372
0.00905457
0.000818977
0.0090975
0.000802505
0.00914112
0.000776016
0.00918564
0.000752504
0.00922952
0.000717292
0.000691498
0.00896365
8.57882e-05
0.00896657
0.000232351
0.00897123
0.000353141
0.00897762
0.000451668
0.00898614
0.000534829
0.008997
0.000602941
0.00901072
0.000660704
0.00902747
0.000706637
0.00904764
0.000744522
0.00907121
0.000771849
0.00909837
0.0007924
0.00912877
0.000802982
0.00916239
0.000808074
0.0091986
0.000803716
0.00923726
0.000795712
0.00927749
0.000778757
0.00931918
0.000760814
0.00936123
0.000733959
0.00940384
0.000709898
0.00944561
0.000675526
0.000649794
0.00917697
8.43955e-05
0.00918056
0.000228768
0.00918622
0.000347472
0.00919389
0.000444004
0.00920388
0.00052484
0.00921633
0.000590484
0.00923168
0.00064536
0.00925001
0.000688305
0.00927164
0.000722893
0.00929646
0.00074703
0.00932457
0.000764285
0.00935561
0.000771949
0.00938947
0.000774206
0.00942554
0.000767649
0.00946364
0.000757618
0.00950292
0.000739471
0.0095433
0.00072044
0.00958375
0.000693502
0.00962446
0.000669195
0.00966417
0.000635816
0.000610367
0.00939535
8.27736e-05
0.00939956
0.000224553
0.00940618
0.000340853
0.00941505
0.00043514
0.0094264
0.000513487
0.00944031
0.000576569
0.00945712
0.000628554
0.00947685
0.000668577
0.00949972
0.000700026
0.00952556
0.000721189
0.0095544
0.00073544
0.00958584
0.00074051
0.00961974
0.000740305
0.00965548
0.00073191
0.00969286
0.000720235
0.00973111
0.000701225
0.00977011
0.000681443
0.00980895
0.00065466
0.00984778
0.000630363
0.0098855
0.000598093
0.000573105
0.0096189
8.09367e-05
0.00962371
0.000219743
0.00963121
0.000333346
0.00964119
0.000425163
0.00965379
0.000500883
0.00966903
0.000561336
0.00968713
0.000610452
0.00970806
0.000647644
0.00973196
0.000676128
0.00975861
0.000694543
0.00978797
0.000706082
0.00981961
0.00070887
0.00985336
0.000706555
0.00988861
0.000696656
0.00992516
0.000683685
0.00996228
0.000664102
0.00999987
0.000643859
0.0100371
0.000617432
0.0100741
0.000593356
0.0101099
0.000562282
0.000537897
0.00984774
7.89007e-05
0.0098531
0.000214381
0.00986143
0.000325019
0.00987242
0.000414168
0.00988616
0.000487149
0.00990256
0.000544931
0.00992179
0.000591222
0.00994374
0.000625693
0.00996847
0.000651397
0.00999572
0.000667295
0.0100254
0.000676408
0.0100571
0.000677214
0.0100905
0.000673118
0.0101251
0.00066202
0.0101607
0.000648063
0.0101967
0.000628161
0.0102328
0.000607707
0.0102685
0.000581802
0.0103037
0.00055812
0.0103377
0.000528305
0.000504632
0.010082
7.66827e-05
0.0100879
0.000208512
0.0100969
0.000315946
0.0101089
0.000402254
0.0101236
0.00047241
0.010141
0.000527502
0.0101612
0.000571034
0.010184
0.000602905
0.0102094
0.000626024
0.010237
0.000639635
0.0102668
0.0006466
0.0102983
0.000645708
0.0103313
0.000640133
0.0103652
0.000628112
0.0103999
0.000613444
0.0104346
0.000593443
0.0104693
0.000572991
0.0105033
0.000547743
0.0105369
0.000524597
0.0105691
0.000496079
0.000473202
0.0103218
7.43012e-05
0.0103281
0.000202187
0.0103379
0.000306206
0.0103506
0.000389527
0.0103662
0.000456795
0.0103845
0.000509199
0.0104055
0.000550053
0.0104289
0.000579459
0.0104548
0.000600187
0.0104827
0.000611739
0.0105125
0.000616821
0.0105437
0.000614495
0.0105761
0.000607719
0.0106092
0.000595022
0.0106427
0.000579886
0.0106762
0.000559974
0.0107095
0.000539704
0.010742
0.00051522
0.0107739
0.000492721
0.0108044
0.000465524
0.000443504
0.0105673
7.17754e-05
0.010574
0.000195457
0.0105843
0.00029588
0.0105978
0.000376094
0.0106141
0.000440434
0.0106332
0.000490171
0.0106548
0.000528439
0.0106787
0.000555521
0.0107049
0.000574057
0.0107328
0.000583768
0.0107624
0.000587217
0.0107932
0.000583702
0.010825
0.000575976
0.0108572
0.000562823
0.0108896
0.000547429
0.0109218
0.000527766
0.0109537
0.000507827
0.0109847
0.000484191
0.011015
0.000462428
0.011044
0.000436558
0.000415438
0.0108186
6.91252e-05
0.0108257
0.000188378
0.0108365
0.00028505
0.0108505
0.000362063
0.0108675
0.000423455
0.0108871
0.000470561
0.0109092
0.000506348
0.0109335
0.000531252
0.0109597
0.000547787
0.0109876
0.000555869
0.0110169
0.000557918
0.0110472
0.000553438
0.0110782
0.000544987
0.0111095
0.000531571
0.0111408
0.000516101
0.0111717
0.000496821
0.0112022
0.000477335
0.0112318
0.000454612
0.0112606
0.000433649
0.011288
0.000409104
0.000388911
0.0110758
6.63708e-05
0.0110832
0.000181006
0.0110945
0.000273803
0.011109
0.000347543
0.0111265
0.000405987
0.0111465
0.000450513
0.0111689
0.000483928
0.0111934
0.0005068
0.0112196
0.000521523
0.0112473
0.000528173
0.0112762
0.000529038
0.0113059
0.000523795
0.011336
0.00051482
0.0113663
0.000501308
0.0113965
0.000485918
0.0114262
0.00046713
0.0114553
0.000448197
0.0114835
0.000426433
0.0115108
0.00040632
0.0115368
0.000383083
0.000363832
0.0113392
6.35328e-05
0.0113468
0.000173395
0.0113584
0.000262222
0.0113733
0.000332642
0.0113911
0.000388152
0.0114115
0.00043016
0.0114341
0.000461319
0.0114586
0.000482305
0.0114847
0.000495393
0.0115121
0.000500798
0.0115404
0.000500676
0.0115694
0.000494852
0.0115987
0.000485529
0.0116279
0.000472066
0.0116569
0.000456886
0.0116854
0.00043868
0.0117132
0.000420378
0.01174
0.000399604
0.011766
0.000380374
0.0117906
0.000358424
0.000340119
0.0116088
6.06314e-05
0.0116166
0.000165602
0.0116284
0.00025039
0.0116436
0.000317464
0.0116617
0.000370072
0.0116822
0.000409633
0.0117048
0.000438652
0.0117293
0.000457894
0.0117551
0.000469515
0.0117821
0.000473846
0.0118098
0.000472916
0.011838
0.000466672
0.0118664
0.000457155
0.0118946
0.000443863
0.0119225
0.000429003
0.0119497
0.00041145
0.0119763
0.00039384
0.0120018
0.000374074
0.0120264
0.000355747
0.0120498
0.000335055
0.000317694
0.0118847
5.76864e-05
0.0118927
0.000157681
0.0119047
0.000238387
0.01192
0.00030211
0.0119382
0.000351858
0.0119588
0.00038905
0.0119814
0.000416048
0.0120056
0.000433682
0.0120311
0.000443994
0.0120576
0.000447409
0.0120847
0.00044583
0.012112
0.000439309
0.0121395
0.000429729
0.0121666
0.000416711
0.0121934
0.000402261
0.0122194
0.000385414
0.0122447
0.000368542
0.012269
0.000349791
0.0122923
0.000332377
0.0123145
0.00031291
0.000296482
0.0121672
5.47172e-05
0.0121752
0.000149686
0.0121873
0.000226291
0.0122028
0.000286675
0.012221
0.000333618
0.0122415
0.000368524
0.012264
0.000393617
0.0122879
0.000409772
0.012313
0.000418923
0.0123388
0.000421563
0.0123652
0.000419478
0.0123917
0.000412801
0.0124181
0.000403273
0.0124442
0.000390613
0.0124698
0.000376645
0.0124947
0.000360545
0.0125188
0.000344443
0.0125419
0.000326705
0.0125641
0.000310206
0.012585
0.000291927
0.000276415
0.0124565
5.17421e-05
0.0124645
0.000141666
0.0124766
0.000214176
0.012492
0.000271248
0.0125102
0.000315451
0.0125306
0.000348157
0.0125527
0.000371458
0.0125762
0.000386258
0.0126008
0.000394381
0.012626
0.000396374
0.0126515
0.000393907
0.0126771
0.000387182
0.0127026
0.000377799
0.0127277
0.000365566
0.0127522
0.000352137
0.0127759
0.000336811
0.0127989
0.000321499
0.0128208
0.000304766
0.0128418
0.000289175
0.0128617
0.000272046
0.000257431
0.0127525
4.87786e-05
0.0127605
0.000133668
0.0127726
0.000202109
0.0127879
0.000255915
0.0128059
0.000297447
0.012826
0.000328043
0.0128478
0.00034966
0.0128709
0.00036322
0.0128948
0.000370436
0.0129193
0.000371896
0.012944
0.000369156
0.0129688
0.000362471
0.0129932
0.000353313
0.0130173
0.000341561
0.0130407
0.000328714
0.0130633
0.000314179
0.0130851
0.00029967
0.013106
0.000283926
0.0131259
0.000269231
0.0131448
0.000253209
0.000239469
0.0130556
4.58426e-05
0.0130635
0.000125736
0.0130755
0.000190153
0.0130907
0.000240749
0.0131084
0.00027969
0.0131282
0.000308264
0.0131496
0.000328302
0.0131721
0.000340727
0.0131953
0.000347146
0.0132191
0.000348172
0.013243
0.000345252
0.0132668
0.000338682
0.0132903
0.000329813
0.0133132
0.000318584
0.0133356
0.00030635
0.0133572
0.000292616
0.0133779
0.000278911
0.0133977
0.000264136
0.0134166
0.000250322
0.0134345
0.000235365
0.000222474
0.0133659
4.29488e-05
0.0133737
0.000117911
0.0133855
0.000178367
0.0134004
0.00022582
0.0134179
0.000262251
0.0134372
0.000288893
0.0134581
0.00030745
0.01348
0.000318838
0.0135026
0.000324558
0.0135255
0.000325236
0.0135485
0.000322216
0.0135714
0.000315823
0.0135939
0.000307294
0.0136159
0.000296618
0.0136372
0.000285019
0.0136578
0.000272084
0.0136775
0.000259182
0.0136963
0.000245351
0.0137142
0.000232398
0.0137311
0.000218463
0.000206395
0.0136835
4.01105e-05
0.0136912
0.000110228
0.0137028
0.000166801
0.0137174
0.000211189
0.0137345
0.000245195
0.0137534
0.000269992
0.0137737
0.000287161
0.0137949
0.000297601
0.0138168
0.000302708
0.0138389
0.000303113
0.013861
0.00030006
0.013883
0.000293893
0.0139045
0.000285743
0.0139255
0.000275641
0.0139458
0.000264689
0.0139654
0.000252549
0.0139841
0.00024044
0.0140019
0.000227527
0.0140189
0.000215411
0.0140349
0.000202454
0.000191182
0.0140087
3.73391e-05
0.0140162
0.000102717
0.0140275
0.000155501
0.0140418
0.000196907
0.0140584
0.000228576
0.0140768
0.000251613
0.0140965
0.000267482
0.014117
0.000277053
0.0141381
0.000281624
0.0141594
0.00028182
0.0141807
0.000278788
0.0142017
0.000272886
0.0142223
0.000265145
0.0142423
0.000255629
0.0142617
0.00024533
0.0142802
0.000233973
0.014298
0.000222643
0.014315
0.000210618
0.014331
0.000199316
0.0143462
0.000187295
0.00017679
0.0143416
3.46445e-05
0.014349
9.54067e-05
0.0143599
0.000144503
0.0143738
0.00018302
0.01439
0.000212441
0.0144078
0.000233801
0.0144268
0.00024845
0.0144466
0.000257224
0.0144669
0.000261325
0.0144874
0.000261364
0.0145078
0.000258399
0.0145279
0.000252791
0.0145475
0.00024548
0.0145666
0.000236554
0.014585
0.000226908
0.0146027
0.000216318
0.0146196
0.000205752
0.0146356
0.000194584
0.0146509
0.000184068
0.0146652
0.000172942
0.000163175
0.0146825
3.20351e-05
0.0146895
8.83186e-05
0.0147002
0.00013384
0.0147137
0.000169563
0.0147293
0.000196824
0.0147465
0.000216588
0.0147649
0.000230091
0.0147839
0.000238134
0.0148035
0.000241821
0.0148231
0.000241748
0.0148426
0.000238885
0.0148618
0.000233592
0.0148805
0.000226724
0.0148987
0.000218389
0.0149162
0.000209389
0.014933
0.000199548
0.014949
0.000189725
0.0149642
0.000179383
0.0149787
0.000169626
0.0149922
0.000159352
0.000150295
0.0150314
2.95174e-05
0.0150382
8.14707e-05
0.0150485
0.000123536
0.0150615
0.000156566
0.0150766
0.000181755
0.0150932
0.000199998
0.0151109
0.000212425
0.0151292
0.000219792
0.0151479
0.000223116
0.0151667
0.000222967
0.0151853
0.000220233
0.0152037
0.000215269
0.0152215
0.000208851
0.0152388
0.000201101
0.0152555
0.000192737
0.0152714
0.000183624
0.0152866
0.000174522
0.015301
0.000164973
0.0153147
0.000155948
0.0153275
0.000146487
0.00013811
0.0153886
2.70963e-05
0.0153952
7.48765e-05
0.0154051
0.000113612
0.0154176
0.000144047
0.0154321
0.000167253
0.0154481
0.000184048
0.015465
0.000195461
0.0154826
0.000202204
0.0155005
0.000205205
0.0155185
0.000205008
0.0155363
0.000202424
0.0155538
0.000197798
0.0155708
0.000191832
0.0155872
0.000184657
0.0156031
0.000176916
0.0156182
0.000168508
0.0156326
0.000160104
0.0156463
0.000151316
0.0156592
0.000142993
0.0156714
0.000134306
0.000126583
0.0157543
2.47752e-05
0.0157606
6.85453e-05
0.0157702
0.000104078
0.0157822
0.000132022
0.0157961
0.000153328
0.0158114
0.000168743
0.0158277
0.000179202
0.0158445
0.000185363
0.0158616
0.000188077
0.0158788
0.000187856
0.0158958
0.000185436
0.0159124
0.000181151
0.0159286
0.000175633
0.0159443
0.000169021
0.0159593
0.000161887
0.0159736
0.00015416
0.0159873
0.00014643
0.0160003
0.00013837
0.0160125
0.000130723
0.0160241
0.000122771
0.000115675
0.0161287
2.25559e-05
0.0161348
6.24819e-05
0.0161439
9.4941e-05
0.0161554
0.000120496
0.0161688
0.000139984
0.0161834
0.000154085
0.016199
0.00016364
0.0162151
0.000169261
0.0162314
0.000171716
0.0162478
0.000171487
0.016264
0.000169241
0.0162799
0.000165296
0.0162953
0.000160221
0.0163101
0.000154157
0.0163244
0.000147613
0.016338
0.00014054
0.016351
0.00013346
0.0163633
0.000126096
0.0163749
0.000119097
0.0163858
0.000111845
0.000105349
0.016512
2.04387e-05
0.0165178
5.66876e-05
0.0165265
8.62026e-05
0.0165375
0.000109467
0.0165503
0.000127217
0.0165643
0.000140065
0.0165792
0.000148765
0.0165946
0.000153877
0.0166102
0.000156098
0.0166258
0.000155874
0.0166413
0.000153808
0.0166564
0.000150199
0.016671