/*--------------------------------*- C++ -*----------------------------------*\
  =========                 |
  \\      /  F ield         | OpenFOAM: The Open Source CFD Toolbox
   \\    /   O peration     | Website:  https://openfoam.org
    \\  /    A nd           | Version:  7
     \\/     M anipulation  |
\*---------------------------------------------------------------------------*/
FoamFile
{
    version     2.0;
    format      ascii;
    class       surfaceScalarField;
    location    "80";
    object      phi;
}
// * * * * * * * * * * * * * * * * * * * * * * * * * * * * * * * * * * * * * //

dimensions      [0 3 -1 0 0 0 0];

internalField   nonuniform List<scalar> 
8927
(
0.0013724
0.0122823
-0.012213
0.00134726
0.00812509
-0.00809996
0.00137287
0.00262509
-0.0026507
0.00143106
-0.00309546
0.00303727
0.00148667
-0.00732383
0.00726822
0.0015036
-0.0106096
0.0105926
0.00147107
-0.0126842
0.0127168
0.00140699
-0.0137934
0.0138575
0.00134769
-0.013046
0.0131053
0.00132434
-0.00958676
0.00961011
0.00134663
-0.00496043
0.00493814
0.00139605
0.00146049
-0.00150991
0.00142781
0.00563142
-0.00566318
0.00142549
0.0106528
-0.0106505
0.00139123
0.012506
-0.0124718
0.00134141
0.0141185
-0.0140687
0.00132336
0.0121447
-0.0121266
0.00133669
0.00769914
-0.00771247
0.00136593
0.00411282
-0.00414206
0.00140715
-0.00416489
0.00412367
0.0013955
-0.00555295
0.0055646
0.00136664
-0.0128723
0.0129012
-0.0109658
0.0109683
0.00137889
0.0123524
0.00135135
0.00815263
0.00137381
0.00260263
0.00142933
-0.00315098
0.00148345
-0.00737794
0.00149967
-0.0106258
0.001467
-0.0126515
0.00140347
-0.0137299
0.00134527
-0.0129878
0.00132361
-0.0095651
0.00134741
-0.00498423
0.00139783
0.00141007
0.00142984
0.00559941
0.00142749
0.0106551
0.0013929
0.0125406
0.00134189
0.0141695
0.00132258
0.012164
0.00133504
0.00768668
0.00136447
0.00408339
0.00140632
-0.00420674
0.00139513
-0.00554177
0.00136745
-0.0128446
-0.0109641
0.00138543
0.0124235
0.00135543
0.00818263
0.00137466
0.00258339
0.00142747
-0.00320379
0.0014801
-0.00743058
0.00149568
-0.0106414
0.00146291
-0.0126188
0.00139996
-0.0136669
0.00134286
-0.0129307
0.00132286
-0.0095451
0.00134813
-0.0050095
0.00139954
0.00135867
0.00143184
0.00556711
0.0014295
0.0106575
0.00139457
0.0125755
0.00134239
0.0142217
0.00132181
0.0121846
0.00133338
0.00767512
0.00136301
0.00405376
0.00140551
-0.00424924
0.00139483
-0.00553108
0.0013683
-0.0128181
-0.0109633
0.00139202
0.0124955
0.0013595
0.00821515
0.00137543
0.00256746
0.00142547
-0.00325383
0.00147664
-0.00748174
0.00149161
-0.0106563
0.00145881
-0.012586
0.00139647
-0.0136046
0.00134046
-0.0128747
0.00132208
-0.00952671
0.00134878
-0.00503621
0.00140117
0.00130628
0.00143381
0.00553448
0.0014315
0.0106598
0.00139626
0.0126108
0.00134291
0.0142751
0.00132105
0.0122064
0.00133171
0.00766446
0.00136154
0.00402393
0.00140472
-0.00429242
0.00139458
-0.00552094
0.0013692
-0.0127927
-0.0109632
0.00139866
0.0125684
0.00136356
0.00825024
0.00137613
0.0025549
0.00142335
-0.00330105
0.00147306
-0.00753145
0.00148749
-0.0106708
0.00145468
-0.0125532
0.00139298
-0.0135429
0.00133807
-0.0128198
0.00132127
-0.00950991
0.00134936
-0.0050643
0.00140273
0.00125291
0.00143575
0.00550146
0.0014335
0.010662
0.00139796
0.0126463
0.00134344
0.0143296
0.0013203
0.0122295
0.00133005
0.0076547
0.00136008
0.0039939
0.00140395
-0.00433629
0.00139438
-0.00551137
0.00137014
-0.0127685
-0.010964
0.00140533
0.0126422
0.00136762
0.00828795
0.00137675
0.00254577
0.00142111
-0.00334541
0.00146936
-0.00757971
0.00148329
-0.0106847
0.00145054
-0.0125204
0.00138949
-0.0134818
0.00133568
-0.012766
0.00132043
-0.00949466
0.00134987
-0.00509374
0.00140421
0.00119857
0.00143766
0.00546801
0.0014355
0.0106642
0.00139967
0.0126821
0.00134401
0.0143852
0.00131956
0.012254
0.0013284
0.00764587
0.00135862
0.00396368
0.0014032
-0.00438087
0.00139425
-0.00550242
0.00137113
-0.0127453
-0.0109655
0.00141205
0.0127168
0.00137168
0.00832832
0.00137731
0.00254014
0.00141875
-0.00338684
0.00146555
-0.00762652
0.00147904
-0.0106982
0.00144637
-0.0124878
0.001386
-0.0134215
0.00133328
-0.0127132
0.00131955
-0.00948093
0.0013503
-0.00512448
0.00140562
0.00114325
0.00143954
0.00543409
0.0014375
0.0106662
0.00140139
0.0127182
0.0013446
0.014442
0.00131885
0.0122797
0.00132675
0.00763797
0.00135716
0.00393327
0.00140247
-0.00442618
0.00139418
-0.00549412
0.00137216
-0.0127233
-0.0109678
0.00141879
0.0127924
0.00137573
0.00837139
0.0013778
0.00253806
0.00141627
-0.00342531
0.00146163
-0.00767187
0.00147472
-0.0107113
0.00144219
-0.0124552
0.00138251
-0.0133618
0.00133088
-0.0126616
0.00131863
-0.00946868
0.00135065
-0.0051565
0.00140694
0.00108696
0.00144138
0.00539965
0.00143949
0.0106681
0.00140312
0.0127546
0.00134523
0.0144999
0.00131816
0.0123068
0.00132511
0.00763101
0.00135571
0.00390267
0.00140176
-0.00447224
0.00139416
-0.00548652
0.00137325
-0.0127024
-0.0109707
0.00142557
0.0128689
0.00137977
0.00841719
0.00137824
0.00253959
0.00141369
-0.00346076
0.0014576
-0.00771578
0.00147034
-0.010724
0.00143799
-0.0124229
0.00137901
-0.0133028
0.00132846
-0.0126111
0.00131766
-0.00945788
0.00135091
-0.00518974
0.00140818
0.00102969
0.00144318
0.00536464
0.00144147
0.0106699
0.00140487
0.0127912
0.00134588
0.0145589
0.00131749
0.0123352
0.00132349
0.00762502
0.00135427
0.00387189
0.00140107
-0.00451904
0.0013942
-0.00547965
0.00137438
-0.0126826
-0.0109744
0.00143236
0.0129462
0.00138381
0.00846573
0.00137863
0.00254477
0.00141101
-0.00349315
0.00145346
-0.00775822
0.00146589
-0.0107365
0.00143376
-0.0123907
0.0013755
-0.0132446
0.00132602
-0.0125616
0.00131664
-0.00944851
0.00135109
-0.00522419
0.00140933
0.000971452
0.00144495
0.00532902
0.00144344
0.0106714
0.00140662
0.012828
0.00134658
0.014619
0.00131687
0.0123649
0.00132189
0.00761999
0.00135283
0.00384096
0.0014004
-0.00456661
0.0013943
-0.00547355
0.00137555
-0.0126638
-0.0109787
0.00143917
0.0130245
0.00138785
0.00851705
0.00137897
0.00255365
0.00140823
-0.00352241
0.0014492
-0.00779919
0.00146139
-0.0107486
0.00142951
-0.0123589
0.00137198
-0.013187
0.00132356
-0.0125132
0.00131557
-0.00944052
0.00135118
-0.0052598
0.0014104
0.000912236
0.00144667
0.00529275
0.0014454
0.0106726
0.00140839
0.012865
0.00134732
0.01468
0.00131628
0.012396
0.00132032
0.00761595
0.0013514
0.00380987
0.00139975
-0.00461496
0.00139446
-0.00546827
0.00137678
-0.0126462
-0.0109837
0.00144598
0.0131035
0.00139187
0.00857116
0.00137926
0.00256626
0.00140536
-0.00354851
0.00144485
-0.00783867
0.00145682
-0.0107606
0.00142525
-0.0123273
0.00136843
-0.0131302
0.00132107
-0.0124658
0.00131444
-0.00943388
0.00135119
-0.00529655
0.00141138
0.000852042
0.00144835
0.00525579
0.00144736
0.0106736
0.00141017
0.0129022
0.0013481
0.0147421
0.00131573
0.0124283
0.00131877
0.00761291
0.00134999
0.00377866
0.00139911
-0.00466408
0.00139468
-0.00546384
0.00137805
-0.0126295
-0.0109894
0.00145279
0.0131835
0.00139588
0.00862807
0.00137951
0.00258263
0.0014024
-0.0035714
0.00144038
-0.00787665
0.00145218
-0.0107724
0.00142096
-0.0122961
0.00136487
-0.0130741
0.00131854
-0.0124195
0.00131324
-0.00942858
0.0013511
-0.00533441
0.00141227
0.000790868
0.00144998
0.00521808
0.00144929
0.0106743
0.00141197
0.0129395
0.00134893
0.0148052
0.00131524
0.012462
0.00131726
0.00761088
0.00134859
0.00374733
0.00139849
-0.00471397
0.00139496
-0.00546031
0.00137937
-0.0126139
-0.0109956
0.00145959
0.0132642
0.00139988
0.00868777
0.00137972
0.00260279
0.00139936
-0.00359103
0.00143581
-0.00791311
0.00144748
-0.0107841
0.00141664
-0.0122652
0.00136128
-0.0130188
0.00131597
-0.0123742
0.00131198
-0.00942459
0.00135092
-0.00537335
0.00141307
0.000728711
0.00145156
0.00517959
0.00145121
0.0106747
0.00141377
0.012977
0.00134981
0.0148691
0.00131479
0.012497
0.00131579
0.00760989
0.00134721
0.0037159
0.0013979
-0.00476465
0.00139529
-0.00545771
0.00138074
-0.0125994
-0.0110024
0.00146637
0.0133458
0.00140387
0.00875028
0.0013799
0.00262675
0.00139623
-0.00360736
0.00143114
-0.00794801
0.00144271
-0.0107957
0.0014123
-0.0122348
0.00135767
-0.0129641
0.00131336
-0.0123299
0.00131064
-0.00942187
0.00135064
-0.00541335
0.00141378
0.000665569
0.00145309
0.00514027
0.00145312
0.0106746
0.00141559
0.0130145
0.00135073
0.014934
0.00131441
0.0125334
0.00131436
0.00760993
0.00134586
0.00368441
0.00139732
-0.00481611
0.00139568
-0.00545607
0.00138216
-0.0125859
-0.0110097
0.00147312
0.0134281
0.00140783
0.00881557
0.00138004
0.00265454
0.00139303
-0.00362035
0.00142636
-0.00798134
0.00143788
-0.0108072
0.00140793
-0.0122049
0.00135402
-0.0129102
0.00131069
-0.0122865
0.00130922
-0.0094204
0.00135026
-0.00545438
0.00141439
0.000601437
0.00145457
0.00510009
0.001455
0.0106742
0.00141742
0.0130521
0.00135171
0.0149997
0.00131408
0.012571
0.00131298
0.00761103
0.00134452
0.00365287
0.00139676
-0.00486835
0.00139613
-0.00545545
0.00138363
-0.0125734
-0.0110176
0.00147984
0.0135111
0.00141177
0.00888364
0.00138015
0.00268616
0.00138976
-0.00362996
0.00142148
-0.00801306
0.00143297
-0.0108187
0.00140354
-0.0121754
0.00135034
-0.012857
0.00130797
-0.0122442
0.00130773
-0.00942016
0.00134978
-0.00549643
0.0014149
0.000536314
0.00145598
0.00505901
0.00145686
0.0106733
0.00141927
0.0130897
0.00135275
0.0150662
0.00131382
0.0126099
0.00131165
0.0076132
0.00134321
0.00362131
0.00139622
-0.00492136
0.00139664
-0.00545587
0.00138514
-0.0125619
-0.011026
0.0014865
0.0135949
0.00141567
0.00895447
0.00138022
0.00272161
0.00138642
-0.00363616
0.0014165
-0.00804314
0.00142799
-0.0108302
0.00139911
-0.0121466
0.00134662
-0.0128045
0.00130519
-0.0122027
0.00130615
-0.00942112
0.00134919
-0.00553947
0.00141531
0.000470195
0.00145733
0.00501699
0.00145869
0.010672
0.00142112
0.0131272
0.00135384
0.0151335
0.00131363
0.0126501
0.00131038
0.00761646
0.00134193
0.00358976
0.0013957
-0.00497512
0.0013972
-0.00545738
0.0013867
-0.0125514
-0.0110349
0.00149311
0.0136794
0.00141955
0.00902803
0.00138027
0.00276089
0.00138302
-0.00363891
0.00141142
-0.00807155
0.00142294
-0.0108417
0.00139466
-0.0121183
0.00134287
-0.0127527
0.00130234
-0.0121622
0.00130448
-0.00942325
0.0013485
-0.00558349
0.00141562
0.000403078
0.00145862
0.00497399
0.0014605
0.0106701
0.00142299
0.0131647
0.001355
0.0152015
0.00131352
0.0126916
0.00130917
0.00762081
0.00134068
0.00355824
0.0013952
-0.00502964
0.00139782
-0.00546
0.00138831
-0.0125419
-0.0110442
0.00149965
0.0137645
0.00142338
0.0091043
0.00138028
0.00280399
0.00137955
-0.00363818
0.00140624
-0.00809824
0.00141781
-0.0108532
0.00139017
-0.0120906
0.00133907
-0.0127016
0.00129942
-0.0121226
0.00130271
-0.00942654
0.0013477
-0.00562848
0.00141582
0.000334958
0.00145983
0.00492997
0.00146228
0.0106676
0.00142487
0.0132022
0.00135621
0.0152701
0.00131348
0.0127343
0.00130802
0.00762627
0.00133947
0.0035268
0.00139472
-0.00508489
0.00139849
-0.00546377
0.00138997
-0.0125334
-0.011054
0.00150611
0.0138502
0.00142717
0.00918325
0.00138027
0.00285089
0.00137603
-0.00363394
0.00140097
-0.00812317
0.0014126
-0.0108649
0.00138564
-0.0120637
0.00133523
-0.0126512
0.00129643
-0.0120838
0.00130085
-0.00943096
0.00134679
-0.00567441
0.00141591
0.000265833
0.00146098
0.0048849
0.00146402
0.0106646
0.00142676
0.0132394
0.00135748
0.0153394
0.00131352
0.0127783
0.00130694
0.00763284
0.00133829
0.00349546
0.00139426
-0.00514086
0.00139921
-0.00546872
0.00139167
-0.0125258
-0.0110641
0.00151249
0.0139365
0.0014309
0.00926483
0.00138022
0.00290158
0.00137246
-0.00362618
0.0013956
-0.00814631
0.00140731
-0.0108766
0.00138108
-0.0120375
0.00133135
-0.0126015
0.00129336
-0.0120458
0.00129888
-0.00943648
0.00134576
-0.00572129
0.00141589
0.000195697
0.00146205
0.00483875
0.00146573
0.0106609
0.00142865
0.0132765
0.00135882
0.0154092
0.00131365
0.0128235
0.00130594
0.00764055
0.00133715
0.00346425
0.00139382
-0.00519754
0.00139999
-0.00547488
0.00139343
-0.0125193
-0.0110747
0.00151876
0.0140233
0.00143458
0.00934901
0.00138014
0.00295602
0.00136883
-0.00361487
0.00139013
-0.00816761
0.00140194
-0.0108884
0.00137647
-0.012012
0.00132742
-0.0125524
0.00129021
-0.0120086
0.0012968
-0.00944307
0.00134461
-0.0057691
0.00141576
0.000124548
0.00146303
0.00479148
0.0014674
0.0106565
0.00143056
0.0133133
0.00136022
0.0154796
0.00131386
0.0128698
0.00130502
0.00764939
0.00133606
0.00343321
0.00139341
-0.00525489
0.00140081
-0.00548228
0.00139522
-0.0125137
-0.0110856
0.00152491
0.0141105
0.00143819
0.00943574
0.00138003
0.00301418
0.00136516
-0.0036
0.00138457
-0.00818703
0.00139648
-0.0109003
0.00137182
-0.0119873
0.00132344
-0.0125041
0.00128697
-0.0119721
0.00129461
-0.00945071
0.00134335
-0.00581784
0.00141551
5.23799e-05
0.00146394
0.00474306
0.00146903
0.0106515
0.00143247
0.0133499
0.00136168
0.0155504
0.00131417
0.0129173
0.00130418
0.00765938
0.00133501
0.00340237
0.00139303
-0.0053129
0.00140169
-0.00549094
0.00139707
-0.012509
-0.0110969
0.00153095
0.0141982
0.00144173
0.00952496
0.00137988
0.00307603
0.00136144
-0.00358155
0.00137892
-0.00820451
0.00139093
-0.0109123
0.00136712
-0.0119635
0.00131942
-0.0124564
0.00128365
-0.0119363
0.0012923
-0.00945936
0.00134196
-0.00586749
0.00141515
-2.08108e-05
0.00146475
0.00469345
0.00147062
0.0106456
0.00143438
0.0133861
0.0013632
0.0156216
0.00131456
0.012966
0.00130342
0.00767052
0.00133402
0.00337178
0.00139266
-0.00537155
0.00140262
-0.0055009
0.00139896
-0.0125054
-0.0111085
0.00153685
0.0142862
0.00144519
0.00961662
0.0013797
0.00314151
0.00135767
-0.00355953
0.00137318
-0.00822002
0.00138529
-0.0109244
0.00136238
-0.0119406
0.00131535
-0.0124093
0.00128024
-0.0119012
0.00128987
-0.00946899
0.00134044
-0.00591806
0.00141466
-9.50293e-05
0.00146548
0.00464263
0.00147216
0.0106389
0.0014363
0.013422
0.00136479
0.0156931
0.00131505
0.0130157
0.00130275
0.00768282
0.00133307
0.00334146
0.00139233
-0.0054308
0.0014036
-0.00551217
0.0014009
-0.0125027
-0.0111204
0.0015426
0.0143745
0.00144856
0.00971066
0.00137948
0.00321058
0.00135387
-0.00353391
0.00136735
-0.00823349
0.00137956
-0.0109366
0.00135758
-0.0119186
0.00131124
-0.012363
0.00127673
-0.0118667
0.00128731
-0.00947956
0.00133879
-0.00596954
0.00141404
-0.000170282
0.00146611
0.00459056
0.00147365
0.0106314
0.00143822
0.0134574
0.00136644
0.0157649
0.00131564
0.0130665
0.00130218
0.00769629
0.00133219
0.00331145
0.00139202
-0.00549063
0.00140462
-0.00552478
0.00140288
-0.0125009
-0.0111326
0.0015482
0.014463
0.00145184
0.00980701
0.00137923
0.00328319
0.00135003
-0.00350471
0.00136143
-0.0082449
0.00137374
-0.010949
0.00135273
-0.0118976
0.00130707
-0.0123173
0.00127314
-0.0118328
0.00128461
-0.00949104
0.001337
-0.00602193
0.0014133
-0.000246575
0.00146664
0.00453722
0.00147509
0.0106229
0.00144014
0.0134924
0.00136815
0.0158368
0.00131633
0.0131183
0.0013017
0.00771092
0.00133136
0.00328179
0.00139174
-0.00555101
0.00140569
-0.00553874
0.0014049
-0.0125001
-0.011145
0.00155362
0.0145517
0.00145502
0.00990562
0.00137893
0.00335928
0.00134615
-0.00347193
0.00135543
-0.00825418
0.00136782
-0.0109613
0.00134781
-0.0118776
0.00130286
-0.0122724
0.00126945
-0.0117994
0.00128178
-0.00950337
0.00133508
-0.00607523
0.00141242
-0.000323917
0.00146706
0.00448258
0.00147647
0.0106135
0.00144206
0.0135268
0.00136993
0.015909
0.00131711
0.0131712
0.00130132
0.00772671
0.00133059
0.00325251
0.00139149
-0.00561191
0.00140681
-0.00555406
0.00140697
-0.0125003
-0.0111577
0.00155887
0.0146405
0.00145809
0.0100064
0.00137859
0.00343877
0.00134224
-0.00343558
0.00134935
-0.00826128
0.0013618
-0.0109738
0.00134284
-0.0118586
0.00129859
-0.0122281
0.00126566
-0.0117664
0.00127881
-0.00951652
0.00133302
-0.00612943
0.00141142
-0.000402316
0.00146738
0.00442661
0.00147779
0.0106031
0.00144398
0.0135606
0.00137176
0.0159812
0.00131799
0.0132249
0.00130103
0.00774367
0.00132989
0.00322365
0.00139127
-0.00567328
0.00140797
-0.00557076
0.00140908
-0.0125014
-0.0111707
0.00156392
0.0147293
0.00146104
0.0101093
0.00137821
0.00352161
0.00133829
-0.00339567
0.00134318
-0.00826617
0.00135567
-0.0109863
0.00133779
-0.0118408
0.00129428
-0.0121846
0.00126179
-0.0117339
0.0012757
-0.00953043
0.0013308
-0.00618454
0.00141027
-0.000481784
0.0014676
0.00436929
0.00147905
0.0105916
0.00144589
0.0135938
0.00137365
0.0160534
0.00131898
0.0132796
0.00130085
0.00776179
0.00132926
0.00319525
0.00139108
-0.0057351
0.00140918
-0.00558886
0.00141124
-0.0125035
-0.0111838
0.00156878
0.014818
0.00146388
0.0102142
0.00137777
0.00360771
0.00133432
-0.00335221
0.00133693
-0.00826879
0.00134945
-0.0109988
0.00133268
-0.011824
0.00128992
-0.0121419
0.00125782
-0.0117018
0.00127243
-0.00954505
0.00132844
-0.00624055
0.00140899
-0.000562332
0.00146769
0.00431059
0.00148025
0.0105791
0.00144778
0.0136262
0.00137559
0.0161256
0.00132006
0.0133351
0.00130078
0.00778107
0.0013287
0.00316733
0.00139093
-0.00579734
0.00141042
-0.00560835
0.00141343
-0.0125065
-0.0111972
0.00157342
0.0149067
0.00146659
0.010321
0.00137729
0.00369701
0.00133031
-0.00330523
0.00133061
-0.00826908
0.00134312
-0.0110113
0.0013275
-0.0118084
0.0012855
-0.0120999
0.00125375
-0.0116701
0.00126902
-0.00956032
0.00132593
-0.00629745
0.00140757
-0.000643975
0.00146767
0.00425048
0.00148137
0.0105654
0.00144967
0.0136579
0.00137759
0.0161977
0.00132124
0.0133915
0.00130081
0.0078015
0.00132821
0.00313993
0.00139081
-0.00585994
0.00141171
-0.00562925
0.00141567
-0.0125104
-0.0112108
0.00157785
0.0149951
0.00146917
0.0104297
0.00137676
0.00378941
0.00132628
-0.00325475
0.00132421
-0.00826702
0.00133668
-0.0110238
0.00132224
-0.0117939
0.00128104
-0.0120586
0.00124959
-0.0116386
0.00126545
-0.00957617
0.00132325
-0.00635526
0.00140601
-0.000726729
0.00146754
0.00418895
0.00148243
0.0105505
0.00145154
0.0136888
0.00137964
0.0162696
0.00132252
0.0134486
0.00130094
0.00782308
0.00132779
0.00311308
0.00139073
-0.00592288
0.00141304
-0.00565156
0.00141795
-0.0125153
-0.0112246
0.00158204
0.0150832
0.00147161
0.0105401
0.00137618
0.00388484
0.00132222
-0.00320079
0.00131774
-0.00826254
0.00133014
-0.0110362
0.00131691
-0.0117807
0.00127652
-0.0120183
0.00124535
-0.0116075
0.00126172
-0.00959255
0.00132042
-0.00641395
0.0014043
-0.000810612
0.00146727
0.00412597
0.0014834
0.0105344
0.0014534
0.0137188
0.00138174
0.0163413
0.0013239
0.0135064
0.00130118
0.0078458
0.00132746
0.0030868
0.00139069
-0.00598611
0.0014144
-0.00567528
0.00142027
-0.0125212
-0.0112385
0.001586
0.0151709
0.00147393
0.0106522
0.00137555
0.00398322
0.00131813
-0.00314337
0.00131119
-0.00825561
0.0013235
-0.0110485
0.00131149
-0.0117687
0.00127195
-0.0119787
0.00124101
-0.0115765
0.00125784
-0.00960937
0.00131741
-0.00647353
0.00140245
-0.000895645
0.00146689
0.00406153
0.0014843
0.010517
0.00145522
0.0137479
0.00138388
0.0164126
0.00132537
0.013565
0.00130153
0.00786964
0.0013272
0.00306113
0.00139068
-0.00604959
0.0014158
-0.00570039
0.00142262
-0.012528
-0.0112526
0.00158972
0.0152581
0.00147611
0.0107658
0.00137488
0.00408446
0.00131402
-0.00308251
0.00130458
-0.00824617
0.00131674
-0.0110606
0.00130599
-0.011758
0.00126733
-0.0119401
0.00123659
-0.0115458
0.00125379
-0.00962658
0.00131424
-0.00653398
0.00140045
-0.000981851
0.00146637
0.00399561
0.00148511
0.0104982
0.00145703
0.013776
0.00138607
0.0164836
0.00132694
0.0136241
0.00130199
0.00789459
0.00132703
0.00303609
0.00139072
-0.00611329
0.00141724
-0.00572691
0.00142502
-0.0125358
-0.0112669
0.00159323
0.0153447
0.00147821
0.0108808
0.00137419
0.00418848
0.0013099
-0.00301822
0.00129789
-0.00823415
0.00130985
-0.0110726
0.00130039
-0.0117485
0.00126264
-0.0119023
0.00123207
-0.0115152
0.00124958
-0.00964409
0.00131089
-0.00659529
0.0013983
-0.00106926
0.00146573
0.00392818
0.00148584
0.0104781
0.00145879
0.013803
0.00138828
0.0165541
0.00132859
0.0136838
0.00130255
0.00792064
0.00132694
0.00301169
0.0013908
-0.00617715
0.00141871
-0.00575482
0.00142745
-0.0125445
-0.0112813
0.00159653
0.0154306
0.00148021
0.0109971
0.00137343
0.00429525
0.00130571
-0.0029505
0.0012911
-0.00821955
0.00130285
-0.0110843
0.0012947
-0.0117403
0.00125791
-0.0118655
0.00122748
-0.0114848
0.00124523
-0.00966183
0.00130738
-0.00665744
0.00139601
-0.00115788
0.00146495
0.00385923
0.00148646
0.0104566
0.0014605
0.013829
0.00139051
0.0166241
0.00133033
0.0137439
0.00130321
0.00794776
0.00132694
0.00298797
0.00139093
-0.00624114
0.00142022
-0.00578412
0.00142992
-0.0125542
-0.0112959
0.00159938
0.0155158
0.00148161
0.0111149
0.00137196
0.0044049
0.00130094
-0.00287948
0.00128401
-0.00820263
0.00129572
-0.0110961
0.00128905
-0.0117337
0.00125327
-0.0118297
0.00122303
-0.0114545
0.0012409
-0.0096797
0.00130387
-0.00672042
0.00139373
-0.00124774
0.00146416
0.00378881
0.00148705
0.0104337
0.00146215
0.0138539
0.00139277
0.0166934
0.00133204
0.0138047
0.00130397
0.00797583
0.00132684
0.0029651
0.00139107
-0.00630537
0.00142182
-0.00581487
0.00143225
-0.0125647
-0.0113108
0.00471866
0.015592
0.00469236
0.0111412
0.00473014
0.00436712
0.00481287
-0.0029622
0.00492524
-0.008315
0.00499825
-0.0111691
0.00494159
-0.011677
0.00475558
-0.0116437
0.00455399
-0.011253
0.00447302
-0.00959874
0.00450598
-0.00675338
0.00462466
-0.00136642
0.00469237
0.0037211
0.0046531
0.010473
0.0045231
0.0139839
0.0043225
0.0168941
0.00420029
0.0139269
0.00418596
0.00799016
0.00430857
0.00284249
0.00452865
-0.00652545
0.00461527
-0.00590149
0.00460102
-0.0125504
-0.0113134
0.00490127
0.0156618
0.00487872
0.0111638
0.00492359
0.00432225
0.00500367
-0.00304228
0.00510508
-0.0084164
0.00517053
-0.0112345
0.00510998
-0.0116165
0.00491602
-0.0114498
0.00470314
-0.0110401
0.00461528
-0.00951088
0.00464934
-0.00678744
0.00476841
-0.00148549
0.0048401
0.0036494
0.00480047
0.0105126
0.004671
0.0141133
0.00447114
0.0170939
0.00434068
0.0140573
0.00432229
0.00800855
0.0044395
0.00272528
0.00466158
-0.00674753
0.004759
-0.00599891
0.00474499
-0.0125364
-0.0113107
0.00509117
0.0157226
0.00507898
0.011176
0.00513223
0.004269
0.00520961
-0.00311967
0.00529658
-0.00850337
0.00535171
-0.0112896
0.00528671
-0.0115515
0.00508436
-0.0112474
0.00485852
-0.0108142
0.00476234
-0.0094147
0.0047966
-0.00682169
0.004918
-0.0016069
0.0049936
0.00357381
0.00495459
0.0105516
0.00482613
0.0142418
0.00462793
0.0172921
0.0044942
0.0141911
0.00446931
0.00803344
0.00458216
0.00261244
0.00480251
-0.00696789
0.0049096
-0.006106
0.00489598
-0.0125228
-0.0113015
0.0052912
0.0157734
0.00529058
0.0111766
0.0053549
0.00420469
0.00542958
-0.00319435
0.00550022
-0.00857401
0.00554222
-0.0113316
0.00547167
-0.0114809
0.00526068
-0.0110364
0.00502049
-0.010574
0.00491395
-0.00930816
0.00494792
-0.00685565
0.00507227
-0.00173125
0.00515307
0.00349301
0.00511625
0.0105884
0.00499051
0.0143675
0.00479583
0.0174868
0.00466
0.0143269
0.00462889
0.00806455
0.00473621
0.00250512
0.00495224
-0.00718392
0.00506783
-0.00622159
0.00505402
-0.012509
-0.0112849
0.00550116
0.015814
0.00551357
0.0111642
0.00559117
0.00412708
0.00566405
-0.00326723
0.00571658
-0.00862655
0.00574236
-0.0113574
0.00566494
-0.0114035
0.00544518
-0.0108167
0.00518941
-0.0103183
0.00507031
-0.00918907
0.00510309
-0.00688843
0.00523088
-0.00185905
0.00531836
0.00340554
0.00528578
0.010621
0.00516474
0.0144886
0.00497542
0.0176761
0.00483874
0.0144636
0.00480181
0.00810147
0.00490257
0.00240436
0.00511158
-0.00739293
0.00523416
-0.00634417
0.00521946
-0.0124943
-0.01126
0.00572115
0.0158441
0.00574838
0.0111369
0.00584114
0.00403432
0.00591334
-0.00333943
0.00594612
-0.00865933
0.00595237
-0.0113637
0.00586649
-0.0113176
0.00563797
-0.0105881
0.00536564
-0.0100459
0.0052316
-0.00905503
0.00526189
-0.00691872
0.00539369
-0.00199084
0.00548942
0.00330981
0.00546343
0.010647
0.00534928
0.0146027
0.00516712
0.0178583
0.00503089
0.0145998
0.00498875
0.00814362
0.00508211
0.00231099
0.00528139
-0.00759221
0.00540911
-0.00647189
0.00539264
-0.0124778
-0.011226
0.00595163
0.0158626
0.00599543
0.0110931
0.00610508
0.00392467
0.00617764
-0.00341199
0.00618918
-0.00867087
0.00617245
-0.0113469
0.00607625
-0.0112214
0.00583907
-0.010351
0.0055495
-0.00975637
0.00539806
-0.00890359
0.00542423
-0.00694488
0.0055605
-0.00212711
0.00566622
0.00320409
0.00564943
0.0106638
0.00554448
0.0147077
0.00537123
0.0180315
0.00523677
0.0147343
0.00519018
0.00819021
0.00527564
0.00222553
0.00546255
-0.00777912
0.00559322
-0.00660256
0.0055739
-0.0124585
-0.0111818
0.00619304
0.0158682
0.00625528
0.0110309
0.0063833
0.00379665
0.00645703
-0.00348571
0.00644596
-0.0086598
0.00640271
-0.0113037
0.00629404
-0.0111128
0.00604842
-0.0101053
0.0057413
-0.00944926
0.00557004
-0.00873233
0.00559008
-0.00696492
0.00573112
-0.00226815
0.0058487
0.00308651
0.00584396
0.0106685
0.00575062
0.014801
0.00558796
0.0181942
0.00545648
0.0148658
0.00540641
0.00824028
0.0054839
0.00214804
0.00565592
-0.00795113
0.00578702
-0.00673366
0.00576359
-0.0124351
-0.0111267
0.00644593
0.0158586
0.00652878
0.0109481
0.00667625
0.00364918
0.00675145
-0.00356091
0.00671644
-0.00862479
0.00664313
-0.0112304
0.00651961
-0.0109892
0.00626581
-0.00985154
0.00594131
-0.00912476
0.00574798
-0.00853899
0.00575953
-0.00697648
0.00590543
-0.00241405
0.00603678
0.00295517
0.00604717
0.0106581
0.00596794
0.0148802
0.00581739
0.0183447
0.00568994
0.0149932
0.00563757
0.00829265
0.00570753
0.00207808
0.00586235
-0.00810596
0.0059911
-0.00686241
0.00596205
-0.012406
-0.0110596
0.006711
0.0158311
0.00681704
0.010842
0.0069844
0.00348182
0.00706067
-0.00363717
0.00700038
-0.0085645
0.00689358
-0.0111236
0.0067526
-0.0108483
0.00649093
-0.00958987
0.00614973
-0.00878356
0.00593239
-0.00832165
0.00593282
-0.00697691
0.00608339
-0.00256462
0.0062304
0.00280816
0.00625917
0.0106294
0.00619658
0.0149428
0.00605943
0.0184819
0.00593692
0.0151157
0.00588369
0.00834587
0.00594707
0.00201471
0.00608268
-0.00824157
0.00620603
-0.00698576
0.00616963
-0.0123696
-0.0109797
0.00698911
0.0157814
0.00712133
0.0107098
0.00730822
0.00329493
0.00738421
-0.00371317
0.00729725
-0.00847753
0.00715375
-0.0109801
0.00699255
-0.0106871
0.00672336
-0.00932067
0.00636666
-0.00842687
0.00612388
-0.00807886
0.00611037
-0.0069634
0.0062651
-0.00271936
0.00642955
0.00264372
0.00648001
0.0105789
0.00643658
0.0149863
0.00631389
0.0186046
0.00619712
0.0152325
0.0061447
0.00839829
0.00620295
0.00195646
0.00631764
-0.00835626
0.00643235
-0.00710047
0.00638664
-0.0123239
-0.0108858
0.00728111
0.015704
0.0074429
0.010548
0.00764798
0.00308985
0.0077213
-0.00378648
0.00760616
-0.0083624
0.00742313
-0.0107971
0.0072389
-0.0105028
0.00696251
-0.00904429
0.00659209
-0.00805645
0.00632311
-0.00780988
0.00629276
-0.00693305
0.00645081
-0.0028774
0.00663425
0.00246027
0.00670968
0.0105035
0.00668785
0.0150081
0.00658046
0.018712
0.00647018
0.0153428
0.00642049
0.00844798
0.00647553
0.00190142
0.00656791
-0.00844864
0.00667059
-0.00720315
0.00661337
-0.0122667
-0.010777
0.00758763
0.0155921
0.00778267
0.010353
0.00800361
0.00286891
0.00807075
-0.00385363
0.00792587
-0.00821751
0.00770099
-0.0105722
0.007491
-0.0102928
0.0072077
-0.00876099
0.00682588
-0.00767463
0.00653075
-0.00751475
0.00648079
-0.00688309
0.00664096
-0.00303757
0.00684461
0.00225662
0.0069481
0.0104
0.00695016
0.015006
0.00685875
0.0188034
0.00675582
0.0154457
0.00671101
0.00849279
0.0067651
0.00184734
0.00683407
-0.00851761
0.00692122
-0.0072903
0.00685007
-0.0121955
-0.0106521
0.00790887
0.0154372
0.00814091
0.0101209
0.0083744
0.00263542
0.00843092
-0.00391015
0.00825469
-0.00804129
0.00798634
-0.0103038
0.0077481
-0.0100546
0.00745813
-0.00847103
0.00706772
-0.00728422
0.00674745
-0.00719448
0.0066754
-0.00681105
0.00683617
-0.00319834
0.00706082
0.00203197
0.00719511
0.0102657
0.00722306
0.0149781
0.00714827
0.0188782
0.00705385
0.0155401
0.00701629
0.00853035
0.00707184
0.00179179
0.00711654
-0.00856231
0.00718461
-0.00735837
0.00709693
-0.0121078
-0.0105101
0.00824421
0.0152301
0.00851679
0.00984834
0.00875889
0.00239332
0.00879957
-0.00395083
0.00859052
-0.00783224
0.00827796
-0.00999127
0.00800937
-0.009786
0.00771291
-0.00817457
0.00731715
-0.00688845
0.00697376
-0.00685109
0.00687767
-0.00671496
0.00703722
-0.00335789
0.00728312
0.00178607
0.00745046
0.0100984
0.00750592
0.0149226
0.00744849
0.0189356
0.00736427
0.0156243
0.00733649
0.00855813
0.00739591
0.00173238
0.0074156
-0.008582
0.00746104
-0.00740381
0.00735406
-0.0120009
-0.0103497
0.0085919
0.0149608
0.00890837
0.00953187
0.00915452
0.00214717
0.00917391
-0.00397022
0.00893083
-0.00758915
0.00857436
-0.00963479
0.00827392
-0.00948556
0.00797109
-0.00787174
0.00757354
-0.0064909
0.00721011
-0.00648766
0.00708871
-0.00659356
0.00724501
-0.0035142
0.00751182
0.00151927
0.00771374
0.00989644
0.00779784
0.0148385
0.00775882
0.0189746
0.00768731
0.0156958
0.00767198
0.00857346
0.00773735
0.001667
0.00773131
-0.00857596
0.00775061
-0.00742311
0.00762149
-0.0118717
-0.0101698
0.00894893
0.0146194
0.00931204
0.00916876
0.00955778
0.00190144
0.00955055
-0.003963
0.00927273
-0.00731133
0.00887383
-0.00923589
0.00854082
-0.00915255
0.00823167
-0.00756259
0.00783611
-0.00609535
0.00745672
-0.00610827
0.00730958
-0.00644643
0.00746046
-0.00366507
0.00774714
0.00123259
0.00798432
0.00965926
0.00809764
0.0147252
0.00807867
0.0189936
0.00802339
0.0157511
0.00802325
0.00857359
0.00809612
0.00159413
0.00806349
-0.00854333
0.00805326
-0.00741288
0.00789909
-0.0117176
-0.00996922
0.0093109
0.0141969
0.00972287
0.00875679
0.00996415
0.00166016
0.00992559
-0.00392443
0.00961304
-0.00699879
0.00917447
-0.00879732
0.00880914
-0.00878722
0.0084937
-0.00724715
0.00810396
-0.0057056
0.00771354
-0.00571785
0.00754123
-0.00627412
0.00768438
-0.00380823
0.00798911
0.00092786
0.00826123
0.00938714
0.0084038
0.0145826
0.00840738
0.01899
0.00837311
0.0157854
0.00839089
0.00855581
0.00847198
0.00151304
0.00841164
-0.00848299
0.00836869
-0.00736993
0.00818665
-0.0115355
-0.00974669
0.0096725
0.0136855
0.0101348
0.00829446
0.0103684
0.00142655
0.0102948
-0.00385075
0.00994843
-0.00665247
0.00947428
-0.00832317
0.00907797
-0.00839091
0.0087563
-0.00692547
0.00837606
-0.00532536
0.00798025
-0.00532205
0.00778431
-0.00607817
0.00791734
-0.00394126
0.00823733
0.000607866
0.008543
0.00908147
0.00871446
0.0144112
0.00874419
0.0189603
0.00873707
0.0157925
0.00877542
0.00851746
0.00886444
0.00142403
0.00877488
-0.00839343
0.00869635
-0.0072914
0.00848375
-0.0113229
-0.00950117