/*--------------------------------*- C++ -*----------------------------------*\
  =========                 |
  \\      /  F ield         | OpenFOAM: The Open Source CFD Toolbox
   \\    /   O peration     | Website:  https://openfoam.org
    \\  /    A nd           | Version:  7
     \\/     M anipulation  |
\*---------------------------------------------------------------------------*/
FoamFile
{
    version     2.0;
    format      ascii;
    class       volVectorField;
    location    "80";
    object      U;
}
// * * * * * * * * * * * * * * * * * * * * * * * * * * * * * * * * * * * * * //

dimensions      [0 1 -1 0 0 0 0];

internalField   nonuniform List<vector> 
4575
(
(0.75232 0.411208 -4.19299e-23)
(0.727322 0.267609 4.24003e-23)
(0.729465 0.0854572 -5.77134e-23)
(0.759627 -0.097745 -4.21008e-23)
(0.796501 -0.228436 -7.39968e-23)
(0.823538 -0.326114 -9.71939e-24)
(0.818107 -0.383885 2.10438e-23)
(0.791021 -0.410609 2.83821e-23)
(0.750689 -0.381581 -1.21682e-23)
(0.728594 -0.275238 -2.97997e-23)
(0.727328 -0.139468 -9.64633e-24)
(0.755563 0.0410837 3.69906e-23)
(0.783928 0.15358 6.75517e-24)
(0.793344 0.284667 -3.38345e-23)
(0.784203 0.327967 3.09223e-23)
(0.758612 0.363671 8.57627e-24)
(0.732338 0.307694 -4.60703e-24)
(0.742683 0.191963 -2.41125e-24)
(0.750824 0.101018 -5.99894e-24)
(0.779811 -0.0997394 -2.90728e-24)
(0.800387 -0.131445 4.86863e-25)
(0.770635 -0.299369 -8.85478e-24)
(0.771678 -0.250348 4.01436e-24)
(0.752677 0.413468 2.82413e-23)
(0.72821 0.2684 -1.30502e-22)
(0.730256 0.0845993 3.00332e-23)
(0.760247 -0.0996365 -1.18304e-22)
(0.796873 -0.230234 3.48661e-23)
(0.824115 -0.326705 -8.26313e-23)
(0.818581 -0.382978 -7.41578e-23)
(0.791719 -0.408788 -1.03649e-22)
(0.751426 -0.379936 3.38621e-24)
(0.729359 -0.274663 7.10712e-23)
(0.728293 -0.14019 -5.75923e-23)
(0.756147 0.039622 -4.1626e-23)
(0.784502 0.152629 1.22445e-24)
(0.793156 0.284642 6.37701e-24)
(0.784196 0.328784 -1.92586e-23)
(0.758001 0.364886 -2.78933e-23)
(0.731356 0.308086 1.13516e-22)
(0.741467 0.191562 -4.46839e-23)
(0.749562 0.10022 -7.38588e-23)
(0.779511 -0.100817 2.08711e-23)
(0.800147 -0.131255 -4.51977e-23)
(0.770922 -0.298786 -1.28261e-23)
(0.772608 -0.250375 -8.28312e-24)
(0.75317 0.415751 -1.47491e-22)
(0.729224 0.269266 2.51419e-23)
(0.731156 0.0838436 5.24925e-23)
(0.760947 -0.10144 2.88354e-22)
(0.797314 -0.231981 1.81318e-23)
(0.824763 -0.327268 3.98136e-22)
(0.819133 -0.38206 -3.59609e-23)
(0.792494 -0.406976 1.80732e-22)
(0.752251 -0.378316 -1.34201e-22)
(0.730203 -0.27413 -6.93187e-23)
(0.729324 -0.140952 1.59121e-22)
(0.756775 0.0381326 8.44263e-23)
(0.785129 0.151667 7.59743e-23)
(0.793036 0.284612 2.15793e-23)
(0.784245 0.329603 2.97618e-23)
(0.757444 0.366126 5.88103e-23)
(0.730425 0.308504 -1.19967e-22)
(0.740287 0.191179 3.01625e-23)
(0.748334 0.0994161 9.53075e-23)
(0.77924 -0.101907 3.06335e-23)
(0.799949 -0.131073 4.96084e-23)
(0.771259 -0.298223 4.47181e-23)
(0.773553 -0.250416 6.84984e-24)
(0.753798 0.418057 2.03151e-22)
(0.730361 0.27021 -2.86941e-22)
(0.732165 0.0831926 -4.65326e-23)
(0.761727 -0.103154 -4.89766e-23)
(0.797823 -0.233677 -4.97947e-23)
(0.825483 -0.327805 -1.52083e-22)
(0.819764 -0.381131 1.09093e-22)
(0.793343 -0.405173 -2.10347e-22)
(0.75316 -0.37672 5.0098e-23)
(0.731123 -0.273638 1.33625e-22)
(0.730417 -0.141751 -2.1615e-22)
(0.757445 0.0366159 -1.30307e-22)
(0.785809 0.150695 -2.084e-23)
(0.792984 0.284576 8.71569e-23)
(0.78435 0.330425 -7.80527e-23)
(0.756942 0.367389 1.61533e-23)
(0.729545 0.30895 2.41096e-22)
(0.739144 0.190815 -7.83784e-23)
(0.747142 0.0986065 4.77686e-23)
(0.778998 -0.103011 -3.87209e-23)
(0.799794 -0.130899 -3.94018e-23)
(0.771647 -0.297681 2.74481e-23)
(0.774514 -0.25047 -1.57869e-24)
(0.754559 0.420385 -5.06225e-23)
(0.731621 0.271233 4.21489e-22)
(0.733283 0.0826491 3.6982e-24)
(0.762588 -0.104775 2.23577e-22)
(0.7984 -0.235321 -2.2279e-22)
(0.826272 -0.328317 -7.84038e-23)
(0.820472 -0.380194 7.37978e-23)
(0.794266 -0.40338 2.12464e-22)
(0.754151 -0.375149 1.92793e-22)
(0.732117 -0.273186 -4.07521e-22)
(0.731573 -0.142586 3.21178e-22)
(0.758157 0.0350726 1.73227e-22)
(0.78654 0.149711 -1.97616e-23)
(0.793 0.284535 1.32161e-23)
(0.784509 0.33125 2.11584e-22)
(0.756496 0.368676 -1.51379e-22)
(0.728722 0.309423 -1.92774e-22)
(0.73804 0.190472 1.69901e-22)
(0.745988 0.0977913 -3.64268e-23)
(0.778784 -0.104127 -5.3129e-23)
(0.799681 -0.130736 4.09978e-23)
(0.772086 -0.297158 -4.39511e-23)
(0.77549 -0.250536 -1.91546e-23)
(0.755452 0.422737 2.94998e-22)
(0.733001 0.272338 -5.1879e-22)
(0.734511 0.0822155 -1.02912e-22)
(0.763531 -0.106303 -2.298e-23)
(0.799046 -0.236914 5.70398e-22)
(0.827131 -0.328806 -3.07902e-22)
(0.82126 -0.37925 -1.2959e-22)
(0.795261 -0.401598 -7.80602e-23)
(0.755221 -0.373601 2.59957e-22)
(0.733184 -0.272773 1.98603e-22)
(0.732788 -0.143456 2.89687e-23)
(0.758912 0.0335029 -1.31212e-22)
(0.787324 0.148715 2.08919e-22)
(0.793085 0.284488 -8.11259e-23)
(0.784723 0.332076 -3.2532e-22)
(0.756106 0.369986 6.84032e-23)
(0.727955 0.309924 -2.22706e-23)
(0.736977 0.190149 -5.76785e-23)
(0.744872 0.0969711 -6.66916e-23)
(0.778599 -0.105257 2.17711e-23)
(0.79961 -0.130582 4.72531e-23)
(0.772577 -0.296654 -1.01852e-24)
(0.776481 -0.250613 1.45389e-23)
(0.756473 0.425112 4.50714e-22)
(0.734501 0.273526 7.63266e-22)
(0.735848 0.0818941 1.05874e-21)
(0.764558 -0.107735 -1.72919e-22)
(0.79976 -0.238455 -4.50587e-22)
(0.828057 -0.329272 3.00129e-23)
(0.822125 -0.378298 1.61186e-22)
(0.796326 -0.399826 -8.29663e-23)
(0.756368 -0.372077 -2.54934e-22)
(0.734321 -0.272397 -8.28486e-24)
(0.734062 -0.144358 -3.10784e-22)
(0.759708 0.0319075 1.57615e-22)
(0.788158 0.147705 -3.9026e-23)
(0.793237 0.284433 -9.16635e-23)
(0.784992 0.332906 3.07137e-22)
(0.755775 0.371321 -1.80241e-22)
(0.727249 0.310453 2.606e-23)
(0.735959 0.189848 2.45364e-23)
(0.743797 0.0961461 1.31421e-22)
(0.778442 -0.1064 -6.87679e-23)
(0.79958 -0.130439 -6.47587e-23)
(0.773121 -0.296169 -4.60309e-23)
(0.777486 -0.250701 1.76067e-23)
(0.757621 0.42751 -5.40728e-22)
(0.736117 0.274799 3.77138e-22)
(0.737294 0.0816871 -3.60755e-22)
(0.765668 -0.10907 -8.77414e-22)
(0.800543 -0.239944 -9.62438e-23)
(0.82905 -0.329716 2.80993e-22)
(0.82307 -0.377342 -3.56283e-23)
(0.797461 -0.398066 2.75552e-22)
(0.757589 -0.370576 -2.95588e-22)
(0.735525 -0.272057 -9.8153e-23)
(0.735392 -0.145293 5.07335e-23)
(0.760546 0.0302867 -2.87084e-22)
(0.789044 0.146681 -1.47157e-22)
(0.793457 0.284372 -8.181e-23)
(0.785316 0.333737 -1.74155e-23)
(0.755504 0.372678 2.13212e-22)
(0.726605 0.311012 3.00291e-22)
(0.734987 0.189568 -4.38912e-22)
(0.742764 0.0953169 -2.73871e-22)
(0.778314 -0.107556 -1.18358e-22)
(0.799592 -0.130307 1.32136e-22)
(0.773718 -0.295702 -1.12737e-23)
(0.778505 -0.250798 2.3868e-23)
(0.758893 0.429932 -5.69865e-22)
(0.737848 0.276157 -1.25715e-22)
(0.738848 0.0815965 7.17799e-22)
(0.766864 -0.110304 1.10916e-21)
(0.801395 -0.241381 -6.02483e-22)
(0.830109 -0.330141 6.77715e-22)
(0.824093 -0.376381 3.44898e-22)
(0.798663 -0.396318 -1.87843e-22)
(0.75888 -0.369099 2.55177e-22)
(0.736795 -0.271753 1.36916e-22)
(0.736777 -0.146257 4.79852e-23)
(0.761425 0.028641 -4.71673e-23)
(0.78998 0.145642 -4.96594e-23)
(0.793743 0.284303 1.43023e-22)
(0.785695 0.33457 -1.43355e-23)
(0.755293 0.374058 -3.80157e-22)
(0.726026 0.3116 -5.21389e-22)
(0.734064 0.18931 3.03024e-22)
(0.741775 0.0944841 1.97489e-22)
(0.778213 -0.108726 2.07986e-23)
(0.799644 -0.130188 -1.20768e-22)
(0.774369 -0.295252 -7.67992e-23)
(0.779538 -0.250905 -7.97509e-24)
(0.760285 0.432377 7.24753e-23)
(0.73969 0.277602 -1.3562e-21)
(0.74051 0.0816241 -1.5455e-22)
(0.768145 -0.111437 -5.05823e-23)
(0.802315 -0.242765 7.10374e-22)
(0.831231 -0.330547 -9.30573e-22)
(0.825194 -0.375416 -3.68104e-22)
(0.799932 -0.394581 -5.10275e-22)
(0.760239 -0.367643 -2.83532e-23)
(0.738128 -0.271482 -2.69067e-22)
(0.738215 -0.14725 7.42288e-23)
(0.762345 0.0269707 5.61832e-22)
(0.790966 0.144586 2.32347e-22)
(0.794095 0.284226 2.06186e-24)
(0.786128 0.335405 2.91531e-22)
(0.755143 0.37546 3.62423e-22)
(0.725515 0.312217 4.01586e-22)
(0.733193 0.189076 5.70378e-22)
(0.740832 0.0936481 -3.05144e-22)
(0.778141 -0.109908 -5.78551e-23)
(0.799737 -0.130081 2.67922e-22)
(0.775073 -0.294819 1.87486e-22)
(0.780585 -0.25102 -4.7259e-23)
(0.761795 0.434845 1.09456e-21)
(0.741642 0.279135 1.75209e-22)
(0.742279 0.0817717 -1.39029e-21)
(0.769513 -0.112467 -2.63831e-22)
(0.803305 -0.244095 -2.3073e-22)
(0.832416 -0.330936 -7.79342e-23)
(0.826373 -0.374449 3.27783e-22)
(0.801266 -0.392856 3.81469e-22)
(0.761662 -0.36621 -2.95986e-22)
(0.739522 -0.271243 8.63214e-22)
(0.739705 -0.148271 -2.3778e-22)
(0.763306 0.0252763 -4.36486e-22)
(0.792001 0.143514 -1.393e-22)
(0.794512 0.284141 9.80513e-23)
(0.786616 0.336242 -8.49842e-23)
(0.755057 0.376885 2.94915e-22)
(0.725072 0.312865 -7.20576e-24)
(0.732375 0.188865 -6.33517e-22)
(0.739936 0.0928097 1.67735e-22)
(0.778098 -0.111104 2.42471e-22)
(0.79987 -0.129987 -2.53476e-22)
(0.775831 -0.294403 -2.04918e-22)
(0.781645 -0.251142 3.40393e-23)
(0.763419 0.437336 1.85724e-22)
(0.7437 0.280757 -6.27097e-22)
(0.744153 0.0820407 1.26109e-22)
(0.770968 -0.113391 7.64883e-22)
(0.804363 -0.245371 2.68468e-22)
(0.833661 -0.331307 5.24414e-22)
(0.827629 -0.373481 6.78026e-22)
(0.802665 -0.391142 -5.54653e-23)
(0.763147 -0.364798 2.99019e-22)
(0.740974 -0.271036 -2.0525e-22)
(0.741246 -0.149319 2.40229e-22)
(0.764307 0.023558 1.72242e-22)
(0.793084 0.142424 -3.35048e-22)
(0.794994 0.284046 1.40949e-24)
(0.787158 0.337079 -1.32813e-22)
(0.755034 0.37833 -4.82284e-22)
(0.724702 0.313543 3.1268e-22)
(0.731615 0.188678 -2.81253e-22)
(0.73909 0.0919695 -1.36431e-22)
(0.778084 -0.112312 -7.03061e-23)
(0.800043 -0.129907 6.12326e-23)
(0.776644 -0.294002 9.30368e-23)
(0.782719 -0.25127 -3.73048e-23)
(0.765154 0.439849 -8.92637e-22)
(0.745862 0.282468 -4.47659e-22)
(0.746132 0.0824324 6.93464e-22)
(0.77251 -0.114208 -7.45292e-22)
(0.80549 -0.246591 1.69272e-22)
(0.834965 -0.331663 8.54925e-23)
(0.828962 -0.372512 -1.61203e-21)
(0.804127 -0.38944 4.57165e-23)
(0.76469 -0.363408 -6.60501e-22)
(0.742481 -0.27086 -4.31351e-22)
(0.742835 -0.150391 1.79372e-22)
(0.765349 0.0218163 -1.11257e-22)
(0.794214 0.141316 2.44178e-22)
(0.79554 0.283941 6.66763e-23)
(0.787755 0.337917 -5.04985e-22)
(0.755076 0.379797 4.71865e-22)
(0.724406 0.314251 -1.96318e-22)
(0.730914 0.188516 8.33031e-22)
(0.738296 0.0911283 -1.39686e-22)
(0.778099 -0.113532 6.95795e-24)
(0.800254 -0.129842 4.27932e-23)
(0.777512 -0.293617 4.95351e-23)
(0.783806 -0.251405 1.32184e-23)
(0.766996 0.442385 1.68102e-21)
(0.748123 0.284268 7.6926e-22)
(0.748212 0.082948 -3.19522e-22)
(0.77414 -0.114916 4.69581e-22)
(0.806686 -0.247756 1.46154e-21)
(0.836327 -0.332004 -1.19926e-21)
(0.83037 -0.371544 1.157e-21)
(0.805651 -0.387749 -8.78195e-24)
(0.766288 -0.362037 4.71393e-22)
(0.744042 -0.270712 4.0259e-22)
(0.744471 -0.151487 -3.42609e-22)
(0.76643 0.0200514 -8.98012e-23)
(0.795391 0.140189 -7.42496e-23)
(0.796148 0.283827 -4.22817e-22)
(0.788406 0.338756 3.97682e-22)
(0.755183 0.381283 -1.20985e-22)
(0.724186 0.31499 2.33688e-22)
(0.730275 0.188379 -3.46314e-23)
(0.737555 0.0902868 -5.39746e-23)
(0.778143 -0.114765 -2.24991e-22)
(0.800504 -0.129791 -4.49054e-22)
(0.778433 -0.293247 -2.17547e-23)
(0.784907 -0.251544 -6.52838e-24)
(0.768941 0.444941 -2.98127e-22)
(0.75048 0.286158 -8.13044e-22)
(0.750393 0.0835882 -5.72463e-22)
(0.775859 -0.115514 -2.44427e-21)
(0.80795 -0.248863 -1.72773e-22)
(0.837745 -0.332331 1.94783e-22)
(0.831853 -0.370578 -1.60439e-21)
(0.807237 -0.38607 2.01604e-22)
(0.767939 -0.360686 6.77781e-23)
(0.745652 -0.270593 2.4115e-22)
(0.746152 -0.152606 1.65845e-23)
(0.767551 0.0182638 2.71316e-22)
(0.796614 0.139042 1.64934e-22)
(0.796818 0.283701 4.43884e-22)
(0.789112 0.339594 -3.91885e-22)
(0.755358 0.382789 -2.25493e-22)
(0.724045 0.315759 -5.88031e-22)
(0.729701 0.188269 1.49328e-22)
(0.73687 0.089446 7.17571e-22)
(0.778218 -0.11601 6.79374e-22)
(0.800792 -0.129757 2.72263e-22)
(0.77941 -0.292891 -1.59332e-22)
(0.786021 -0.251687 -9.08303e-25)
(0.770985 0.447519 4.20249e-22)
(0.75293 0.288137 2.41734e-21)
(0.752672 0.084354 -6.25358e-22)
(0.777666 -0.115999 1.28574e-21)
(0.809284 -0.249912 7.64819e-22)
(0.839216 -0.332645 5.61553e-22)
(0.833409 -0.369614 1.03325e-21)
(0.808884 -0.384401 3.7487e-23)
(0.769639 -0.359354 1.92277e-22)
(0.74731 -0.270501 -3.50461e-22)
(0.747877 -0.153747 3.42269e-22)
(0.768711 0.0164538 -3.4858e-22)
(0.797881 0.137874 4.46306e-24)
(0.797548 0.283564 -2.41932e-22)
(0.789872 0.340431 3.76462e-22)
(0.7556 0.384313 -3.9417e-23)
(0.723983 0.31656 5.86573e-22)
(0.729196 0.188185 -2.42876e-22)
(0.736243 0.0886067 -5.53434e-22)
(0.778323 -0.117266 -7.20888e-22)
(0.801118 -0.129739 5.79831e-22)
(0.78044 -0.292549 2.43568e-22)
(0.787149 -0.251832 7.78619e-23)
(0.773125 0.450117 1.23106e-22)
(0.755469 0.290206 -1.10483e-21)
(0.755046 0.0852458 2.67284e-21)
(0.779561 -0.116371 -1.08403e-21)
(0.810686 -0.250901 -4.85203e-22)
(0.840741 -0.332946 -1.56558e-22)
(0.835037 -0.368655 -1.32494e-21)
(0.810591 -0.382743 1.06488e-21)
(0.771386 -0.358039 -5.73987e-22)
(0.749013 -0.270435 2.50323e-22)
(0.749643 -0.154909 -2.1644e-22)
(0.76991 0.0146218 1.45944e-22)
(0.799191 0.136685 -1.29266e-22)
(0.798338 0.283416 1.45928e-22)
(0.790686 0.341267 -7.96443e-23)
(0.755911 0.385855 2.13635e-22)
(0.724004 0.317391 -6.6375e-22)
(0.72876 0.188129 -5.01629e-22)
(0.735675 0.0877699 2.69873e-22)
(0.778461 -0.118533 8.46089e-22)
(0.80148 -0.129738 -8.79701e-22)
(0.781525 -0.292221 -2.59951e-22)
(0.78829 -0.251981 1.29873e-23)
(0.775355 0.452734 1.29769e-21)
(0.758093 0.292364 -1.43869e-22)
(0.757514 0.0862639 1.8928e-22)
(0.781544 -0.116628 6.32279e-22)
(0.812156 -0.25183 -1.30351e-21)
(0.842316 -0.333235 6.93328e-22)
(0.836735 -0.367699 1.51898e-21)
(0.812357 -0.381094 -1.31914e-21)
(0.773176 -0.356742 5.98439e-23)
(0.750756 -0.270394 -3.2064e-22)
(0.75145 -0.156091 -3.85519e-22)
(0.771147 0.012768 1.92471e-22)
(0.800544 0.135475 2.57805e-22)
(0.799187 0.283254 -1.31923e-22)
(0.791554 0.342101 6.05048e-23)
(0.756291 0.387414 -4.30832e-22)
(0.72411 0.318252 -1.8647e-22)
(0.728398 0.1881 1.18312e-22)
(0.735169 0.0869365 -9.22287e-22)
(0.77863 -0.11981 -4.0912e-22)
(0.801879 -0.129755 6.71386e-23)
(0.782664 -0.291905 4.24815e-22)
(0.789444 -0.25213 -4.94807e-23)
(0.777672 0.455369 9.9573e-23)
(0.760797 0.29461 -1.87635e-21)
(0.760071 0.0874085 -2.06614e-21)
(0.783614 -0.116769 1.65145e-21)
(0.813695 -0.252696 4.05607e-22)
(0.84394 -0.333514 5.39055e-23)
(0.838501 -0.36675 -1.12106e-21)
(0.814182 -0.379455 6.60619e-22)
(0.775009 -0.35546 4.45279e-22)
(0.752538 -0.270377 -1.83575e-22)
(0.753295 -0.157292 1.70208e-22)
(0.77242 0.0108928 -7.59445e-23)
(0.801936 0.134241 -4.25823e-22)
(0.800092 0.283079 2.20648e-22)
(0.792475 0.342932 -2.10338e-23)
(0.756741 0.388988 4.87214e-22)
(0.7243 0.319144 5.51666e-22)
(0.728112 0.1881 -9.71197e-23)
(0.734727 0.0861075 5.38272e-22)
(0.778833 -0.121097 -2.06832e-22)
(0.802314 -0.129789 2.95454e-22)
(0.783856 -0.291603 -5.42055e-22)
(0.790613 -0.25228 1.981e-23)
(0.780072 0.458022 -3.13699e-22)
(0.763578 0.296944 -2.79756e-22)
(0.762716 0.0886796 6.0337e-22)
(0.785773 -0.116792 -3.76978e-22)
(0.815303 -0.253498 -1.67051e-21)
(0.845613 -0.333781 2.03358e-22)
(0.840334 -0.365808 -3.16789e-22)
(0.816065 -0.377826 -2.53378e-22)
(0.776881 -0.354194 -3.75759e-22)
(0.754355 -0.270383 -6.78037e-24)
(0.755175 -0.158511 6.73768e-23)
(0.773731 0.00899657 -1.26406e-22)
(0.803369 0.132985 2.41873e-22)
(0.801053 0.282891 4.46927e-23)
(0.793451 0.343759 -3.80176e-22)
(0.757262 0.390577 -7.85575e-22)
(0.724578 0.320067 3.05572e-22)
(0.727904 0.188129 -5.4906e-22)
(0.734351 0.085284 1.5415e-21)
(0.779069 -0.122393 2.58419e-22)
(0.802784 -0.129842 -2.14444e-22)
(0.785102 -0.291312 5.78334e-22)
(0.791795 -0.252429 6.35304e-23)
(0.782549 0.460691 -1.15773e-21)
(0.76643 0.299366 2.81083e-21)
(0.765445 0.0900767 -1.75647e-22)
(0.788017 -0.116696 -2.46916e-21)
(0.816978 -0.254236 8.78543e-22)
(0.847332 -0.334037 -2.37498e-21)
(0.84223 -0.364873 7.68824e-22)
(0.818006 -0.376205 7.55911e-22)
(0.778792 -0.352941 -1.13382e-23)
(0.756204 -0.270411 5.59281e-22)
(0.757089 -0.159748 6.95007e-23)
(0.775076 0.00707967 1.88531e-23)
(0.804839 0.131705 8.37429e-23)
(0.802068 0.282687 -1.36163e-22)
(0.79448 0.344582 5.78372e-22)
(0.757854 0.392179 5.21453e-22)
(0.724945 0.32102 8.73569e-23)
(0.727777 0.188187 3.00188e-22)
(0.734043 0.0844671 2.3446e-22)
(0.779341 -0.123697 -4.34357e-22)
(0.803289 -0.129915 -1.546e-22)
(0.7864 -0.291033 -2.92962e-22)
(0.79299 -0.252578 -1.15159e-22)
(0.7851 0.463375 2.48755e-21)
(0.769351 0.301873 -1.78585e-21)
(0.768254 0.0915996 2.05056e-21)
(0.790348 -0.116481 1.27434e-22)
(0.818721 -0.254907 3.98835e-22)
(0.849096 -0.334283 2.14634e-21)
(0.844189 -0.363947 1.42895e-22)
(0.820003 -0.374592 -7.71704e-22)
(0.780738 -0.351701 -3.25737e-22)
(0.758081 -0.27046 1.67779e-23)
(0.759035 -0.161001 1.52051e-23)
(0.776457 0.00514242 1.78399e-22)
(0.806345 0.130401 -1.52324e-22)
(0.803136 0.282469 -2.70093e-22)
(0.795562 0.3454 -4.7846e-22)
(0.758517 0.393795 -4.33433e-22)
(0.725402 0.322002 -1.82492e-21)
(0.727733 0.188276 -3.46771e-23)
(0.733805 0.0836578 -2.14344e-21)
(0.779649 -0.125009 1.10025e-21)
(0.803829 -0.130006 -2.41736e-22)
(0.78775 -0.290766 2.4096e-22)
(0.7942 -0.252724 -9.06992e-23)
(0.78772 0.466073 -1.09626e-22)
(0.772334 0.304464 -2.51667e-22)
(0.771141 0.0932474 -1.42475e-21)
(0.792764 -0.116145 4.69821e-22)
(0.820531 -0.255509 -1.05053e-21)
(0.850903 -0.334519 -1.31561e-21)
(0.846207 -0.363031 3.80704e-22)
(0.822056 -0.372988 9.22577e-22)
(0.78272 -0.350472 3.70149e-22)
(0.759983 -0.270529 -9.19514e-23)
(0.76101 -0.162271 2.00131e-22)
(0.777871 0.00318518 -2.82663e-22)
(0.807886 0.129073 2.36631e-22)
(0.804256 0.282234 3.30187e-22)
(0.796696 0.346213 3.6347e-22)
(0.759253 0.395421 8.16376e-23)
(0.72595 0.323014 4.19317e-23)
(0.727775 0.188394 -7.28766e-22)
(0.733639 0.0828574 -1.14368e-22)
(0.779995 -0.126328 -9.11933e-22)
(0.804402 -0.130118 3.87515e-22)
(0.789151 -0.290509 3.26934e-23)
(0.795424 -0.252868 8.59076e-23)
(0.790405 0.468783 -2.20462e-21)
(0.775376 0.307139 -1.83589e-21)
(0.774101 0.0950195 3.62063e-21)
(0.795264 -0.115688 2.82008e-21)
(0.822408 -0.256041 1.68071e-21)
(0.852753 -0.334745 -6.26659e-22)
(0.848282 -0.362125 -1.48978e-21)
(0.824163 -0.371391 -3.51539e-22)
(0.784737 -0.349253 -5.4691e-22)
(0.761907 -0.270616 -8.96742e-23)
(0.763011 -0.163556 -2.59097e-22)
(0.779317 0.00120835 2.89252e-22)
(0.80946 0.127719 9.28275e-23)
(0.805426 0.281983 -1.56004e-22)
(0.797884 0.347018 1.40561e-22)
(0.760061 0.397058 9.34878e-23)
(0.726591 0.324054 2.12125e-21)
(0.727905 0.188544 2.07931e-21)
(0.733546 0.0820669 4.57017e-22)
(0.780379 -0.127653 7.37068e-22)
(0.805009 -0.130249 7.57339e-22)
(0.790604 -0.290263 2.64938e-22)
(0.796663 -0.253009 1.08441e-23)
(0.79315 0.471503 -5.42503e-22)
(0.778473 0.309896 1.0013e-21)
(0.777132 0.0969146 -1.98096e-21)
(0.797848 -0.115109 -2.41588e-21)
(0.824352 -0.256502 1.0221e-21)
(0.854644 -0.334959 4.76241e-22)
(0.850412 -0.361232 1.00295e-21)
(0.826324 -0.369802 1.73848e-22)
(0.786787 -0.348043 5.63524e-22)
(0.76385 -0.270722 -2.80198e-22)
(0.765035 -0.164855 -2.11457e-22)
(0.780794 -0.000786706 -4.90056e-23)
(0.811066 0.126341 -2.61557e-22)
(0.806644 0.281714 -5.78065e-23)
(0.799123 0.347815 -3.41354e-22)
(0.760942 0.398703 1.65764e-22)
(0.727325 0.325124 -1.29078e-21)
(0.728125 0.188726 -6.58047e-22)
(0.73353 0.0812875 9.02056e-22)
(0.780803 -0.128983 7.27554e-23)
(0.805649 -0.130401 -5.00501e-22)
(0.792105 -0.290028 -8.22582e-22)
(0.797916 -0.253145 -8.34008e-23)
(0.79595 0.474233 3.02898e-21)
(0.781619 0.312734 -2.46736e-21)
(0.78023 0.0989317 -1.6344e-22)
(0.800513 -0.114408 -2.61316e-22)
(0.826362 -0.256889 3.56907e-22)
(0.856574 -0.335163 4.59625e-22)
(0.852594 -0.360351 -2.05897e-22)
(0.828538 -0.36822 -2.68667e-22)
(0.78887 -0.346841 -1.15857e-22)
(0.765807 -0.270843 2.961e-22)
(0.767081 -0.166169 9.32715e-23)
(0.782302 -0.00280113 -3.02065e-22)
(0.812701 0.124936 1.11047e-22)
(0.80791 0.281426 -1.79087e-22)
(0.800415 0.348604 -3.52618e-22)
(0.761895 0.400357 3.49736e-22)
(0.728152 0.326221 -2.73588e-22)
(0.728437 0.188939 8.81424e-22)
(0.73359 0.0805204 -3.53611e-22)
(0.781268 -0.130316 -7.69955e-22)
(0.806322 -0.130574 6.72471e-22)
(0.793656 -0.289802 3.32494e-22)
(0.799183 -0.253276 2.08175e-24)
(0.798802 0.476971 -1.40405e-21)
(0.784811 0.31565 2.56307e-22)
(0.783391 0.101069 -4.88435e-22)
(0.803259 -0.113584 1.07911e-21)
(0.828439 -0.257201 -2.56864e-21)
(0.858543 -0.335356 -1.56007e-21)
(0.854826 -0.359484 2.42941e-22)
(0.830804 -0.366644 3.80186e-22)
(0.790987 -0.345644 -5.08281e-22)
(0.767777 -0.27098 -2.55765e-22)
(0.769144 -0.167497 1.38482e-22)
(0.783837 -0.00483557 1.82087e-22)
(0.814365 0.123505 -5.40043e-23)
(0.80922 0.28112 1.30124e-22)
(0.801757 0.349384 3.35059e-22)
(0.762921 0.402017 -4.03449e-22)
(0.729075 0.327346 8.61576e-22)
(0.728842 0.189184 -1.16213e-21)
(0.733729 0.0797668 1.24518e-21)
(0.781775 -0.131653 -1.13027e-21)
(0.807027 -0.130767 6.13263e-23)
(0.795255 -0.289585 -4.30934e-22)
(0.800466 -0.253401 1.5207e-23)
(0.801701 0.479714 -1.95423e-21)
(0.788044 0.318642 1.71621e-21)
(0.786612 0.103326 -1.77011e-21)
(0.806083 -0.112638 1.52889e-21)
(0.83058 -0.257436 3.23532e-21)
(0.860548 -0.335537 -9.02924e-23)
(0.857105 -0.358632 -1.29626e-21)
(0.83312 -0.365076 -3.22941e-22)
(0.793137 -0.344451 6.96013e-22)
(0.769755 -0.27113 5.45582e-22)
(0.77122 -0.168838 2.53824e-22)
(0.785399 -0.0068883 9.09507e-24)
(0.816054 0.122048 -2.92116e-23)
(0.810575 0.280794 5.15924e-23)
(0.803151 0.350152 1.01051e-22)
(0.764019 0.403682 -5.13595e-22)
(0.730092 0.328497 -7.68246e-23)
(0.729342 0.189461 3.54953e-22)
(0.733949 0.0790278 -1.88174e-21)
(0.782326 -0.132992 1.65233e-21)
(0.807763 -0.130982 -5.10351e-22)
(0.796901 -0.289378 4.68747e-22)
(0.801764 -0.25352 1.8707e-23)
(0.804643 0.482462 -1.64757e-21)
(0.791314 0.321709 -2.49602e-21)
(0.789889 0.105699 3.18641e-21)
(0.808986 -0.111569 1.43137e-21)
(0.832787 -0.257593 -1.50767e-21)
(0.86259 -0.335706 -3.70293e-23)
(0.859427 -0.357794 7.41462e-22)
(0.835485 -0.363515 9.3482e-23)
(0.79532 -0.343261 -7.21358e-22)
(0.771739 -0.271292 -3.70383e-22)
(0.773307 -0.170193 5.12817e-23)
(0.786987 -0.0089591 -1.58602e-22)
(0.817768 0.120564 1.23071e-23)
(0.811971 0.280447 1.50724e-22)
(0.804594 0.350909 -1.8436e-22)
(0.765189 0.405351 2.2939e-22)
(0.731204 0.329674 -7.16449e-22)
(0.729938 0.189772 -3.24081e-22)
(0.73425 0.0783047 4.92822e-22)
(0.782923 -0.134332 -7.42024e-22)
(0.808531 -0.131217 1.12593e-22)
(0.798593 -0.28918 1.98545e-22)
(0.803077 -0.253633 -3.80317e-23)
(0.807623 0.485211 2.60494e-21)
(0.794617 0.324849 -9.97734e-22)
(0.79322 0.108188 -1.4175e-21)
(0.811965 -0.110377 -1.79621e-22)
(0.835058 -0.25767 1.09281e-21)
(0.864666 -0.335862 -1.41326e-22)
(0.861792 -0.356974 1.70872e-22)
(0.837897 -0.361961 2.64685e-22)
(0.797537 -0.342073 5.17728e-22)
(0.773727 -0.271465 -1.29394e-22)
(0.775401 -0.171559 -1.29688e-22)
(0.788599 -0.0110478 1.06729e-22)
(0.819504 0.119052 2.38555e-23)
(0.813408 0.280078 -6.93291e-23)
(0.806087 0.351653 -9.65455e-23)
(0.766432 0.407022 5.5167e-22)
(0.732412 0.330877 6.15669e-22)
(0.730633 0.190115 -3.47959e-22)
(0.734634 0.0775984 -5.63381e-22)
(0.783566 -0.135672 1.81197e-22)
(0.809331 -0.131474 -4.38481e-22)
(0.80033 -0.28899 -3.84769e-22)
(0.804405 -0.253737 2.9486e-24)
(0.810638 0.48796 -9.05555e-23)
(0.797949 0.328059 7.52185e-22)
(0.796601 0.11079 -1.38861e-21)
(0.815018 -0.109062 -1.45985e-21)
(0.837392 -0.257664 -6.90395e-22)
(0.866775 -0.336004 1.09373e-21)
(0.864196 -0.35617 -8.93625e-22)
(0.840355 -0.360415 7.76254e-22)
(0.799787 -0.340884 -1.39258e-22)
(0.775717 -0.271646 -4.07241e-24)
(0.777496 -0.172938 -3.59381e-24)
(0.790233 -0.0131545 6.92484e-24)
(0.821262 0.117514 6.84626e-23)
(0.814883 0.279687 1.17142e-22)
(0.807629 0.352383 2.65651e-24)
(0.767745 0.408695 -7.72637e-22)
(0.733716 0.332105 2.04919e-22)
(0.731426 0.190492 7.55627e-22)
(0.735103 0.0769103 8.71348e-22)
(0.784258 -0.13701 -6.60664e-22)
(0.810161 -0.131751 -3.28058e-23)
(0.802111 -0.288808 2.10425e-22)
(0.80575 -0.253834 8.69108e-23)
(0.813683 0.490707 -1.02184e-21)
(0.801307 0.331336 -1.18107e-21)
(0.80003 0.113503 3.86711e-21)
(0.818144 -0.107626 -7.36006e-22)
(0.83979 -0.257575 -1.20468e-21)
(0.868916 -0.336131 6.66945e-22)
(0.866637 -0.355384 -1.42409e-22)
(0.842858 -0.358876 -8.4993e-22)
(0.802071 -0.339693 3.65227e-23)
(0.777706 -0.271835 1.43444e-22)
(0.779589 -0.174328 -2.99994e-24)
(0.791888 -0.0152791 1.1484e-23)
(0.823038 0.115948 -6.06375e-24)
(0.816396 0.279273 6.81886e-23)
(0.809219 0.353098 5.43163e-22)
(0.76913 0.410367 6.50113e-22)
(0.735114 0.333356 5.2523e-22)
(0.732318 0.190902 3.03024e-22)
(0.735657 0.0762414 3.35898e-22)
(0.784999 -0.138346 1.05653e-21)
(0.811021 -0.13205 -3.52041e-22)
(0.803935 -0.288635 -1.04329e-22)
(0.80711 -0.253921 2.13432e-23)
(0.816753 0.493449 1.23297e-21)
(0.804687 0.334679 -1.04488e-21)
(0.803505 0.116324 -1.97881e-21)
(0.821342 -0.106067 -4.3053e-22)
(0.842249 -0.2574 3.26583e-22)
(0.871088 -0.336242 1.58429e-21)
(0.869111 -0.354617 -3.32303e-22)
(0.845403 -0.357345 9.47285e-22)
(0.804388 -0.3385 2.61301e-22)
(0.779693 -0.272029 4.89313e-23)
(0.781674 -0.175729 4.92402e-23)
(0.793563 -0.0174213 -1.18971e-23)
(0.824833 0.114354 4.17608e-24)
(0.817943 0.278835 -2.08552e-22)
(0.810857 0.353798 -4.51631e-22)
(0.770585 0.412038 -7.58839e-22)
(0.736608 0.33463 -5.84425e-22)
(0.73331 0.191345 -9.45468e-23)
(0.736298 0.0755929 -3.66462e-24)
(0.785792 -0.139678 6.62579e-23)
(0.811911 -0.132369 5.34307e-22)
(0.8058 -0.288469 1.33867e-22)
(0.808486 -0.253999 -6.20177e-23)
(0.819846 0.496185 4.8191e-22)
(0.808087 0.338084 -2.55009e-21)
(0.807025 0.119253 2.92732e-21)
(0.824609 -0.104387 -1.15451e-21)
(0.84477 -0.257138 1.00112e-21)
(0.87329 -0.336337 -9.32722e-23)
(0.871617 -0.353869 -9.86409e-22)
(0.84799 -0.355823 1.74845e-22)
(0.806739 -0.337302 -4.83871e-22)
(0.781678 -0.272226 -3.67308e-22)
(0.783748 -0.177142 -1.03588e-22)
(0.795257 -0.0195811 -6.05615e-23)
(0.826643 0.112733 2.90903e-23)
(0.819524 0.278372 1.23341e-22)
(0.812541 0.35448 1.72227e-22)
(0.772109 0.413706 -1.81576e-22)
(0.738196 0.335927 -7.38531e-22)
(0.734402 0.191823 3.07305e-22)
(0.737025 0.0749657 -2.73321e-22)
(0.786638 -0.141005 -5.9924e-23)
(0.812831 -0.132709 -4.10999e-22)
(0.807706 -0.28831 4.24979e-23)
(0.80988 -0.254068 3.01622e-23)
(0.822958 0.498912 -3.7373e-22)
(0.811507 0.34155 2.02192e-21)
(0.810591 0.122285 3.49334e-22)
(0.827945 -0.102588 -9.51559e-22)
(0.847351 -0.256788 1.14107e-22)
(0.875521 -0.336413 -1.27853e-21)
(0.874151 -0.35314 6.33033e-22)
(0.850617 -0.354309 -7.40374e-22)
(0.809124 -0.336097 4.39167e-22)
(0.78366 -0.272424 2.98266e-22)
(0.785805 -0.178564 2.46558e-23)
(0.796967 -0.021758 3.29862e-23)
(0.828469 0.111083 -1.73677e-23)
(0.821136 0.277883 -2.17605e-23)
(0.81427 0.355144 2.02088e-22)
(0.773701 0.415369 8.83568e-22)
(0.739877 0.337244 1.8042e-22)
(0.735595 0.192334 -9.64533e-22)
(0.737841 0.0743608 -2.48694e-22)
(0.787539 -0.142326 -2.5378e-22)
(0.81378 -0.133069 1.30133e-22)
(0.809651 -0.288159 1.37232e-22)
(0.811289 -0.254126 -6.88323e-24)
(0.826084 0.501626 -7.69467e-23)
(0.814947 0.345069 -6.31551e-22)
(0.814202 0.125412 -3.14297e-22)
(0.831349 -0.100673 2.03299e-22)
(0.849991 -0.256349 4.31071e-22)
(0.87778 -0.336467 2.8977e-22)
(0.876712 -0.352429 3.06511e-22)
(0.853283 -0.352802 1.7931e-22)
(0.811542 -0.334883 1.61616e-22)
(0.785639 -0.272618 -3.2006e-24)
(0.787841 -0.179993 -1.06978e-22)
(0.798694 -0.0239502 5.25476e-24)
(0.830309 0.109408 2.70867e-24)
(0.822778 0.277369 -2.57022e-23)
(0.816043 0.355789 -2.24239e-22)
(0.775359 0.417027 -5.8688e-22)
(0.741651 0.338581 9.63118e-22)
(0.736887 0.192877 5.46513e-22)
(0.738744 0.0737787 1.62434e-22)
(0.788495 -0.143641 -6.48363e-23)
(0.814758 -0.133449 -2.91731e-22)
(0.811634 -0.288014 -4.70787e-22)
(0.812717 -0.254174 -3.02474e-23)
(0.829224 0.50432 -6.34794e-22)
(0.818411 0.348632 -5.00306e-22)
(0.817863 0.12863 1.24219e-21)
(0.83482 -0.0986381 -1.037e-21)
(0.852689 -0.255811 1.52431e-21)
(0.880066 -0.336494 -2.06924e-22)
(0.879296 -0.351734 -7.73402e-22)
(0.855985 -0.351303 2.93508e-22)
(0.813992 -0.33366 -4.51531e-22)
(0.787614 -0.27281 -5.38692e-23)
(0.789851 -0.181431 -1.0918e-22)
(0.800434 -0.0261583 3.39344e-23)
(0.832163 0.107706 2.13855e-23)
(0.824448 0.276828 1.63478e-24)
(0.817858 0.356415 3.05871e-23)
(0.777081 0.418678 7.66292e-23)
(0.743515 0.339936 -4.22565e-22)
(0.738279 0.193454 -4.86352e-22)
(0.739737 0.0732205 -2.17832e-22)
(0.78951 -0.144945 -1.97553e-22)
(0.815764 -0.133848 4.87363e-22)
(0.813654 -0.287876 3.71621e-22)
(0.814161 -0.25421 3.99318e-23)
(0.832377 0.507 -1.42169e-21)
(0.821911 0.352266 3.01355e-21)
(0.821578 0.131986 -1.9885e-21)
(0.838358 -0.0964456 -4.83835e-22)
(0.855444 -0.255167 9.25002e-22)
(0.882378 -0.336509 -5.43209e-22)
(0.881901 -0.351078 5.06328e-22)
(0.858722 -0.349832 2.80164e-22)
(0.816474 -0.332443 -5.25191e-23)
(0.789587 -0.273012 1.37768e-22)
(0.791832 -0.182897 5.29391e-23)
(0.802187 -0.0284022 -2.15444e-23)
(0.834029 0.105962 -1.20089e-23)
(0.826144 0.276254 5.02446e-23)