/*--------------------------------*- C++ -*----------------------------------*\
  =========                 |
  \\      /  F ield         | OpenFOAM: The Open Source CFD Toolbox
   \\    /   O peration     | Website:  https://openfoam.org
    \\  /    A nd           | Version:  7
     \\/     M anipulation  |
\*---------------------------------------------------------------------------*/
FoamFile
{
    version     2.0;
    format      ascii;
    class       volVectorField;
    location    "20";
    object      U;
}
// * * * * * * * * * * * * * * * * * * * * * * * * * * * * * * * * * * * * * //

dimensions      [0 1 -1 0 0 0 0];

internalField   nonuniform List<vector> 
4575
(
(1.10627 0.368207 -6.26187e-21)
(1.10142 0.383795 2.03074e-20)
(1.09803 0.370298 -1.75046e-20)
(1.09833 0.418348 -2.49252e-20)
(1.09511 0.401633 1.13987e-20)
(1.09259 0.385926 1.83434e-21)
(1.08963 0.372184 1.59541e-20)
(1.09224 0.438828 -1.69063e-20)
(1.08839 0.420904 4.54736e-20)
(1.08563 0.403822 -1.63798e-21)
(1.08358 0.38783 -6.01827e-21)
(1.08105 0.373854 1.43799e-21)
(1.08604 0.460816 2.89483e-20)
(1.08162 0.441522 -1.50241e-20)
(1.07823 0.4232 -2.18255e-20)
(1.07594 0.405763 5.08135e-21)
(1.07437 0.389497 -1.13926e-20)
(1.07231 0.375301 -5.58137e-21)
(1.0795 0.484317 -1.69683e-20)
(1.0747 0.463651 -4.41657e-21)
(1.07077 0.44393 7.73207e-22)
(1.06786 0.425225 -2.11072e-21)
(1.06606 0.407445 5.40072e-22)
(1.06498 0.390917 -5.535e-21)
(1.06341 0.376515 4.26968e-21)
(1.07227 0.509281 4.37424e-20)
(1.06738 0.487295 -1.07503e-20)
(1.06312 0.466169 -1.43778e-21)
(1.0597 0.446041 1.84757e-20)
(1.05728 0.426967 2.65678e-21)
(1.05598 0.408859 8.77124e-21)
(1.05541 0.392081 6.46684e-21)
(1.05435 0.377487 -8.59182e-22)
(1.06387 0.535546 4.00998e-21)
(1.05931 0.512411 1.02064e-20)
(1.055 0.48992 1.88863e-20)
(1.05131 0.468358 1.21947e-21)
(1.04843 0.447842 4.32913e-21)
(1.04651 0.428418 -1.07419e-20)
(1.04571 0.409995 2.63437e-21)
(1.04566 0.392978 -3.26889e-21)
(1.04514 0.378209 3.36825e-22)
(1.05356 0.562689 -5.58003e-20)
(1.05003 0.538849 -5.92165e-20)
(1.04607 0.515142 -2.58016e-20)
(1.04238 0.492176 -2.24465e-20)
(1.03929 0.470203 -2.65801e-21)
(1.03696 0.449322 -1.05777e-21)
(1.03555 0.429565 -3.01162e-21)
(1.03526 0.410844 -2.66802e-21)
(1.03574 0.393602 8.43924e-21)
(1.03578 0.37867 -5.20142e-21)
(1.04015 0.589812 -1.01298e-20)
(1.03885 0.566215 4.16444e-20)
(1.03589 0.541702 5.12172e-20)
(1.03257 0.51746 6.85454e-21)
(1.02954 0.494049 2.42859e-20)
(1.02707 0.471693 -1.21434e-21)
(1.02531 0.45047 6.42288e-21)
(1.02443 0.430401 -4.695e-22)
(1.02465 0.411397 2.3492e-21)
(1.02566 0.393942 -1.49305e-21)
(1.02628 0.378862 -7.95816e-21)
(1.0217 0.615233 1.83677e-20)
(1.02463 0.593646 2.32117e-20)
(1.02379 0.569231 1.4311e-20)
(1.02146 0.544091 -3.10776e-20)
(1.01883 0.51935 -1.96574e-20)
(1.01648 0.495527 -1.07244e-20)
(1.01466 0.472814 -8.56919e-21)
(1.0135 0.451275 1.29047e-21)
(1.01315 0.430915 4.31478e-21)
(1.01388 0.411648 3.01083e-21)
(1.01542 0.393992 -8.42401e-21)
(1.01664 0.378775 -1.41222e-21)
(0.995256 0.636128 -2.58233e-20)
(1.00553 0.619497 -8.46132e-20)
(1.00872 0.596899 -5.43847e-20)
(1.00842 0.571722 -1.33242e-20)
(1.00676 0.546 1.80297e-20)
(1.00486 0.520799 1.24941e-20)
(1.00323 0.496595 1.92166e-21)
(1.00209 0.473556 2.60246e-21)
(1.00154 0.451726 3.10553e-21)
(1.00173 0.431098 -4.05981e-21)
(1.00298 0.411588 -1.48935e-21)
(1.00502 0.393743 -1.51111e-20)
(1.00687 0.378399 1.34219e-20)
(0.956646 0.648202 -3.24103e-20)
(0.978706 0.640978 5.16356e-20)
(0.988905 0.623103 5.19299e-20)
(0.992446 0.599558 1.65184e-20)
(0.992752 0.573673 1.43993e-20)
(0.991824 0.547415 -3.80366e-21)
(0.990688 0.521793 5.36968e-23)
(0.989805 0.497242 3.7611e-21)
(0.98936 0.473906 -1.15501e-20)
(0.989444 0.451812 -7.63338e-21)
(0.990205 0.430942 -1.24451e-20)
(0.991954 0.411212 -1.94955e-20)
(0.994494 0.393188 3.3339e-20)
(0.996978 0.377723 1.99335e-20)
(0.900457 0.645491 -1.84819e-20)
(0.940117 0.653786 6.68283e-21)
(0.961634 0.645086 -5.90952e-21)
(0.971871 0.626036 3.70132e-20)
(0.975847 0.601608 -2.71568e-20)
(0.97682 0.575072 -2.84527e-21)
(0.976663 0.548325 2.23713e-21)
(0.976324 0.52232 -2.81949e-21)
(0.976216 0.497455 -6.84788e-21)
(0.976498 0.473852 1.89688e-20)
(0.977241 0.451523 1.03332e-20)
(0.978579 0.430437 1.6183e-20)
(0.980829 0.410511 2.56117e-20)
(0.983843 0.392321 2.63022e-20)
(0.986974 0.376733 -3.25197e-20)
(0.884471 0.651892 -5.92513e-21)
(0.922984 0.658548 -2.22489e-20)
(0.944083 0.648436 -5.90781e-21)
(0.954461 0.628282 -3.34523e-20)
(0.958951 0.603036 3.0911e-20)
(0.960646 0.575905 1.90932e-22)
(0.961301 0.548715 1.52592e-21)
(0.961789 0.522367 -1.03653e-20)
(0.962483 0.497222 -5.42185e-21)
(0.963517 0.473383 -3.29678e-20)
(0.964942 0.450848 -2.50016e-20)
(0.966878 0.429573 -6.32952e-21)
(0.969628 0.40948 4.38388e-20)
(0.973088 0.391132 -2.60927e-20)
(0.976878 0.375412 8.19262e-21)
(0.805532 0.627627 -2.89734e-20)
(0.867801 0.657407 -1.89694e-20)
(0.905295 0.662471 -1.54412e-20)
(0.926095 0.651016 1.80962e-20)
(0.936711 0.629829 2.35243e-21)
(0.941786 0.603831 -1.35794e-20)
(0.944255 0.57616 -4.58862e-21)
(0.94576 0.548575 -3.02948e-21)
(0.947104 0.521923 4.66905e-21)
(0.948624 0.496533 -1.32444e-22)
(0.950432 0.472488 1.03121e-20)
(0.952564 0.449775 6.51693e-21)
(0.955122 0.428339 1.23283e-20)
(0.958377 0.408109 2.24515e-20)
(0.962256 0.389608 -7.83609e-20)
(0.966711 0.373732 1.79773e-20)
(0.696758 0.57217 3.36261e-22)
(0.789971 0.633848 3.14629e-20)
(0.850501 0.662016 3.61175e-20)
(0.8871 0.66554 1.78023e-20)
(0.907712 0.652811 -1.15686e-20)
(0.918657 0.630664 6.91613e-21)
(0.924384 0.60398 3.18041e-21)
(0.927674 0.575828 8.68254e-21)
(0.930062 0.547895 1.89519e-20)
(0.932287 0.520978 7.0107e-21)
(0.934654 0.495376 3.38854e-21)
(0.937258 0.471156 -4.17192e-21)
(0.940124 0.448293 4.40745e-20)
(0.943332 0.426724 -3.55271e-20)
(0.947101 0.406388 1.41089e-20)
(0.951369 0.387733 8.46793e-20)
(0.956493 0.371652 5.00052e-20)
(0.683044 0.578797 -4.30044e-20)
(0.773719 0.639129 -1.08985e-20)
(0.832622 0.665702 2.58182e-20)
(0.868446 0.667742 -2.73261e-20)
(0.888977 0.653812 -1.12442e-20)
(0.900334 0.630778 -8.276e-22)
(0.906775 0.603475 -1.27855e-20)
(0.910929 0.574897 -1.27859e-20)
(0.914229 0.546663 -1.80017e-20)
(0.917358 0.519522 -4.49712e-20)
(0.920591 0.493744 2.79015e-20)
(0.92401 0.469379 -3.88625e-21)
(0.927634 0.446392 -4.64544e-20)
(0.931527 0.424716 -1.53522e-20)
(0.935826 0.404307 -5.30104e-20)
(0.940457 0.385489 2.63306e-20)
(0.946286 0.369116 -5.93217e-20)
(0.541149 0.482793 4.28915e-20)
(0.668623 0.584507 5.78086e-20)
(0.756833 0.643451 1.90011e-20)
(0.814219 0.66845 -5.56534e-21)
(0.849383 0.669065 4.39815e-21)
(0.869933 0.654007 9.64388e-21)
(0.881779 0.630161 -1.36034e-20)
(0.888989 0.602306 -4.40548e-21)
(0.894045 0.573359 1.02111e-20)
(0.898285 0.544872 1.25764e-20)
(0.902337 0.517548 4.18214e-20)
(0.906451 0.491628 -3.13282e-21)
(0.910701 0.467147 -1.23777e-20)
(0.915106 0.44406 -5.92462e-21)
(0.919717 0.422301 3.05857e-20)
(0.924564 0.40185 5.85441e-20)
(0.929577 0.382854 -9.66612e-20)
(0.936257 0.366081 6.50934e-20)
(0.359878 0.337177 7.90887e-20)
(0.529435 0.488368 -3.37114e-20)
(0.653547 0.589278 -3.57417e-20)
(0.739368 0.646797 -1.36493e-20)
(0.795344 0.670246 9.7667e-21)
(0.829958 0.669498 -2.54134e-22)
(0.850621 0.653389 -1.12447e-20)
(0.863028 0.628806 4.57595e-21)
(0.871058 0.600465 4.94971e-20)
(0.87705 0.571206 1.23842e-21)
(0.882252 0.542516 -1.84894e-20)
(0.887243 0.515049 -2.07741e-20)
(0.892251 0.489022 -1.56124e-20)
(0.897343 0.464455 -2.15473e-21)
(0.902547 0.441289 5.76923e-20)
(0.907898 0.419464 -2.18053e-20)
(0.913315 0.39898 -4.20739e-20)
(0.918823 0.379767 -1.47441e-21)
(0.926625 0.362539 -9.19074e-20)
(0.351849 0.34167 -2.95206e-20)
(0.51711 0.493106 2.77663e-20)
(0.637869 0.593089 3.40535e-20)
(0.721379 0.649149 -8.93021e-21)
(0.776051 0.671081 -2.54879e-21)
(0.810219 0.669033 1.4114e-20)
(0.831083 0.65195 2.04449e-21)
(0.844117 0.626705 4.78145e-21)
(0.853012 0.597946 -3.66376e-20)
(0.85997 0.568433 -4.16508e-20)
(0.866154 0.539587 -5.0195e-21)
(0.872097 0.512019 1.50954e-21)
(0.878008 0.485922 -1.90016e-20)
(0.883951 0.461298 1.7239e-20)
(0.889959 0.438078 4.70107e-20)
(0.896049 0.416198 1.40055e-20)
(0.902058 0.395657 -7.97441e-20)
(0.908285 0.376078 -2.5931e-21)
(0.917313 0.35825 2.88265e-20)
(0.134328 0.136377 1.14285e-20)
(0.343346 0.345541 5.64278e-21)
(0.504221 0.496987 -2.01297e-20)
(0.621645 0.595923 -1.15227e-20)
(0.702921 0.650496 1.29128e-21)
(0.756393 0.670943 9.73729e-21)
(0.790215 0.667664 -2.04737e-20)
(0.811361 0.649684 -2.57691e-20)
(0.825082 0.623853 3.11275e-20)
(0.834882 0.594743 7.2249e-20)
(0.842833 0.565033 4.38608e-20)
(0.850015 0.53608 -1.56404e-20)
(0.856921 0.508455 -9.92384e-21)
(0.863742 0.482325 -3.85163e-21)
(0.870538 0.457679 -5.14437e-20)
(0.877346 0.434433 -2.65503e-20)
(0.884156 0.412523 -2.94265e-20)
(0.89079 0.391923 9.40936e-20)
(0.898001 0.3718 -2.16504e-20)
(0.907409 0.351596 7.97845e-20)
(0.131036 0.138153 8.773e-21)
(0.334406 0.348774 -8.62774e-21)
(0.490818 0.499991 6.7344e-21)
(0.604929 0.597765 -1.24941e-21)
(0.684053 0.650827 -5.31331e-21)
(0.736423 0.669826 -1.47791e-20)
(0.769993 0.665384 7.66074e-21)
(0.791498 0.646587 3.79044e-20)
(0.805959 0.620246 -9.00525e-20)
(0.8167 0.590852 1.37523e-20)
(0.825665 0.561003 -2.59284e-20)
(0.83386 0.531993 2.91913e-20)
(0.841738 0.504354 2.59348e-20)
(0.849473 0.47823 4.11367e-20)
(0.857123 0.453599 1.68904e-20)
(0.864724 0.430366 4.41861e-20)
(0.872239 0.408466 2.08527e-20)
(0.879539 0.387868 -5.5671e-21)
(0.88759 0.367756 4.53735e-20)
(0.896934 0.347786 6.96093e-21)
(0.127549 0.13966 3.81223e-21)
(0.325064 0.351353 -7.42595e-21)
(0.476948 0.502103 4.47174e-21)
(0.587776 0.5986 -3.95973e-21)
(0.664828 0.650133 7.50019e-21)
(0.716194 0.667725 4.1642e-21)
(0.749601 0.662191 3.95612e-20)
(0.771533 0.642656 1.18721e-20)
(0.786784 0.61588 5.61243e-20)
(0.798497 0.58627 3.35346e-20)
(0.808495 0.556339 -8.64226e-20)
(0.817713 0.527323 3.04476e-21)
(0.826569 0.499714 -7.88494e-20)
(0.835222 0.473637 -5.17887e-21)
(0.843728 0.449058 -3.32007e-20)
(0.852116 0.425879 5.07222e-20)
(0.860338 0.404031 -7.71708e-20)
(0.868298 0.383469 -1.94451e-20)
(0.876956 0.363382 -2.88036e-20)
(0.886258 0.343521 -1.02757e-19)
(0.123882 0.14089 3.99569e-21)
(0.315355 0.353262 1.32675e-20)
(0.46266 0.503308 2.87242e-21)
(0.570242 0.598419 -6.37898e-21)
(0.645303 0.648407 2.06501e-20)
(0.695758 0.664636 -2.00347e-20)
(0.729085 0.658082 2.24469e-20)
(0.751508 0.63789 -8.01043e-20)
(0.767592 0.610756 -5.46303e-20)
(0.780304 0.580995 -9.80074e-20)
(0.791351 0.55104 6.0237e-20)
(0.801601 0.522067 -3.14643e-21)
(0.811439 0.494533 -1.22725e-20)
(0.821012 0.468544 -2.66529e-20)
(0.830374 0.444057 -3.75921e-20)
(0.839549 0.420971 1.96472e-20)
(0.848483 0.399216 6.20662e-20)
(0.85711 0.378737 -3.29539e-20)
(0.866331 0.358753 4.22944e-20)
(0.875797 0.339139 1.18587e-19)
(0.120049 0.141835 9.51525e-21)
(0.305318 0.354488 -9.08716e-21)
(0.448005 0.503594 1.09635e-20)
(0.552382 0.597215 2.57345e-20)
(0.625535 0.645645 1.45317e-20)
(0.675167 0.660558 4.34748e-20)
(0.708491 0.653058 -3.45586e-20)
(0.731463 0.632288 -1.86153e-20)
(0.748419 0.604871 -1.55212e-20)
(0.762152 0.575027 6.43935e-20)
(0.774261 0.545105 -1.52467e-19)
(0.785548 0.516226 -6.11166e-20)
(0.796371 0.488811 1.66871e-20)
(0.806866 0.462952 2.24374e-20)
(0.817082 0.438596 7.68275e-20)
(0.827044 0.415642 -1.0543e-19)
(0.836696 0.394019 3.05634e-20)
(0.845991 0.373663 1.8154e-20)
(0.855772 0.353837 -2.54603e-20)
(0.865536 0.334535 -8.90454e-20)
(0.116066 0.142487 4.60422e-21)
(0.294987 0.355021 -3.62092e-20)
(0.433032 0.502952 1.63142e-21)
(0.534252 0.594981 2.80272e-20)
(0.605577 0.641847 -3.40914e-20)
(0.654473 0.655491 -6.63699e-20)
(0.687866 0.64712 8.82052e-21)
(0.71144 0.625853 4.50691e-20)
(0.7293 0.598228 1.0901e-19)
(0.744074 0.568365 -1.08698e-19)
(0.757252 0.538535 9.20445e-20)
(0.769581 0.509798 1.09093e-19)
(0.781389 0.482549 8.70565e-20)
(0.792804 0.45686 6.21985e-20)
(0.803874 0.432675 -1.32009e-19)
(0.814623 0.409891 -1.17518e-21)
(0.824997 0.388438 -3.43209e-20)
(0.834961 0.368244 1.29979e-19)
(0.845314 0.348621 -5.58729e-21)
(0.855457 0.329654 -6.16367e-20)
(0.111949 0.142842 9.75811e-21)
(0.284403 0.35485 1.49174e-20)
(0.417793 0.501375 2.25947e-21)
(0.515907 0.591715 -1.70889e-20)
(0.585486 0.637012 -1.97244e-20)
(0.633726 0.649439 8.93298e-22)
(0.667256 0.640271 -2.62124e-20)
(0.691479 0.618587 -4.36905e-20)
(0.710271 0.590828 3.51207e-20)
(0.7261 0.561013 8.67674e-20)
(0.740353 0.53133 2.23022e-21)
(0.753724 0.502787 3.58547e-20)
(0.766517 0.475747 -5.54177e-20)
(0.77885 0.45027 -6.84687e-20)
(0.790773 0.426296 1.69483e-19)
(0.802307 0.403719 6.70203e-20)
(0.813404 0.382472 -6.80326e-20)
(0.82404 0.362476 -7.73094e-20)
(0.834978 0.343092 -8.55313e-20)
(0.845549 0.324474 -7.39394e-21)
(0.107715 0.142894 -6.18175e-20)
(0.273603 0.35397 -1.26781e-20)
(0.402337 0.49886 -2.83884e-20)
(0.497404 0.587416 -5.35065e-20)
(0.565316 0.631143 9.04059e-20)
(0.612978 0.642404 -7.55314e-20)
(0.646705 0.632516 1.06918e-19)
(0.671617 0.610495 -3.67878e-22)
(0.691367 0.582676 -3.33082e-20)
(0.708261 0.552973 2.7458e-20)
(0.723593 0.523493 1.99035e-20)
(0.738004 0.495192 -9.96285e-20)
(0.751778 0.468407 1.03182e-19)
(0.765027 0.443184 6.17745e-20)
(0.777798 0.419458 -2.38734e-20)
(0.790116 0.397125 -4.5254e-20)
(0.801936 0.376118 3.89606e-20)
(0.813247 0.356356 -6.58074e-20)
(0.824779 0.337243 -9.01633e-20)
(0.835812 0.318983 8.52499e-20)
(0.10338 0.14264 8.52379e-20)
(0.262625 0.352375 -4.94226e-20)
(0.386716 0.495405 -2.57878e-20)
(0.478796 0.582086 3.28278e-20)
(0.54512 0.624244 9.50573e-21)
(0.592277 0.634395 2.75454e-20)
(0.626258 0.623862 2.68285e-20)
(0.651896 0.601583 7.43454e-20)
(0.672621 0.573776 8.72081e-20)
(0.690588 0.544249 -8.2311e-20)
(0.706999 0.515028 9.9184e-20)
(0.722447 0.487019 -1.12543e-19)
(0.737197 0.460532 1.44735e-20)
(0.751355 0.435603 -4.33211e-20)
(0.76497 0.412164 3.04923e-20)
(0.77807 0.390112 2.82796e-20)
(0.790611 0.369378 -1.72463e-20)
(0.802598 0.34988 1.64353e-19)
(0.814729 0.331067 -2.1279e-20)
(0.826247 0.313172 -7.27709e-20)
(0.0989604 0.142076 -6.74692e-20)
(0.251508 0.350063 8.63488e-20)
(0.370979 0.491009 -1.68494e-20)
(0.460139 0.57573 -9.57486e-20)
(0.524952 0.616324 6.6662e-20)
(0.571673 0.625418 -2.35225e-20)
(0.605958 0.614317 -8.20243e-20)
(0.632353 0.591857 -1.24212e-20)
(0.654068 0.564135 -1.83571e-19)
(0.673112 0.534847 1.71959e-19)
(0.690598 0.505939 -1.85009e-20)
(0.707078 0.478271 4.69169e-20)
(0.722797 0.452126 5.56459e-20)
(0.737858 0.427532 2.19055e-20)
(0.752311 0.404417 -1.47462e-19)
(0.766186 0.382679 3.25543e-20)
(0.779447 0.362252 3.00947e-20)
(0.792108 0.343049 -9.8762e-20)
(0.804841 0.324561 3.6574e-20)
(0.816857 0.30704 1.37341e-20)
(0.0944734 0.1412 -5.80476e-20)
(0.240291 0.347034 -5.90696e-20)
(0.355176 0.485677 1.16538e-19)
(0.441486 0.568354 8.26721e-20)
(0.504864 0.607391 -6.67436e-20)
(0.551214 0.615485 7.40607e-21)
(0.585849 0.603891 5.20794e-20)
(0.613026 0.581328 1.55524e-20)
(0.635742 0.553761 -2.1087e-21)
(0.655862 0.524774 2.74843e-20)
(0.674418 0.496233 -4.67689e-20)
(0.691921 0.468953 -6.18415e-21)
(0.708601 0.443193 -1.72982e-19)
(0.724556 0.418974 -1.30504e-19)
(0.73984 0.396219 -2.14141e-20)
(0.754485 0.374831 -1.80371e-20)
(0.76846 0.354741 -1.9628e-20)
(0.781792 0.335861 -3.92331e-20)
(0.795126 0.317723 -4.48157e-20)
(0.0899357 0.140012 1.42481e-20)
(0.229012 0.343288 1.31566e-19)
(0.339359 0.479414 -5.26774e-20)
(0.42289 0.559968 -7.91228e-20)
(0.484908 0.597456 -7.04432e-21)
(0.530946 0.604606 1.09141e-19)
(0.565971 0.592594 -1.10899e-19)
(0.593953 0.570005 2.18226e-20)
(0.617676 0.542662 -1.6118e-20)
(0.638869 0.514037 -1.64119e-19)
(0.658487 0.485917 -1.52662e-19)
(0.677002 0.459071 2.77805e-20)
(0.694631 0.43374 2.37562e-19)
(0.711472 0.409934 3.50133e-20)
(0.727577 0.387576 9.22949e-20)
(0.742983 0.36657 -1.41109e-19)
(0.757667 0.346847 -3.2949e-20)
(0.771665 0.32832 1.61527e-19)
(0.785595 0.310555 7.07722e-20)
(0.0853646 0.138512 4.98303e-20)
(0.21771 0.338829 4.82005e-20)
(0.323575 0.472227 -1.17249e-19)
(0.404403 0.550582 -4.68722e-21)
(0.465134 0.586532 -4.89166e-20)
(0.510918 0.592796 -6.50579e-20)
(0.546368 0.58044 2.0433e-20)
(0.57517 0.557899 -6.08217e-20)
(0.599902 0.53085 1.14676e-19)
(0.622161 0.502645 -6.98778e-20)
(0.64283 0.474998 5.06176e-20)
(0.662345 0.448633 1.13648e-19)
(0.680912 0.423772 -7.67871e-20)
(0.698625 0.400418 1.92627e-20)
(0.71554 0.378493 9.12001e-20)
(0.731699 0.357901 1.13276e-19)
(0.747083 0.338575 -5.81585e-20)
(0.761741 0.320427 -3.29041e-20)
(0.776259 0.303058 4.93752e-20)
(0.0807768 0.136701 -1.17687e-19)
(0.206423 0.333663 4.23938e-20)
(0.307872 0.464127 1.33513e-19)
(0.386078 0.540211 1.53649e-20)
(0.445592 0.574636 -1.86371e-20)
(0.491172 0.580069 -3.21419e-20)
(0.527079 0.567444 -1.73211e-20)
(0.556713 0.545025 7.47442e-20)
(0.582452 0.518335 -1.09089e-19)
(0.605769 0.490609 2.53822e-19)
(0.627474 0.463486 1.04272e-19)
(0.647975 0.437648 -3.44131e-20)
(0.667464 0.413298 -1.07879e-20)
(0.686036 0.390433 4.43731e-20)
(0.703749 0.368974 -1.20997e-19)
(0.720649 0.348829 9.7921e-21)
(0.736724 0.329929 -7.54082e-20)
(0.752032 0.312187 -3.30182e-20)
(0.0761893 0.13458 -2.26745e-20)
(0.195188 0.327796 -1.37548e-19)
(0.2923 0.455125 9.38184e-20)
(0.367963 0.528869 -1.40208e-20)
(0.426329 0.561783 7.10861e-20)
(0.471755 0.566444 2.4247e-20)
(0.508143 0.553621 -3.92314e-21)
(0.538617 0.531396 5.04338e-20)
(0.565358 0.50513 -3.02821e-20)
(0.589719 0.477941 -9.17635e-20)
(0.612445 0.451391 9.80581e-20)
(0.633915 0.426124 1.03283e-19)
(0.65431 0.402326 -3.25411e-22)
(0.673725 0.379987 -2.28344e-20)
(0.692223 0.359029 -1.26511e-20)
(0.70985 0.339361 9.33155e-20)
(0.726605 0.320915 8.24493e-20)
(0.742551 0.303604 2.27496e-20)
(0.0716188 0.132153 1.08198e-19)
(0.184043 0.321238 1.54698e-19)
(0.276905 0.445236 -8.82891e-20)
(0.35011 0.516575 -6.63356e-21)
(0.407394 0.547993 -1.24166e-19)
(0.452709 0.551939 7.62076e-20)
(0.4896 0.538989 -2.99952e-20)
(0.520916 0.517029 -5.81279e-20)
(0.548651 0.491251 -2.16621e-20)
(0.57404 0.464653 -3.06677e-21)
(0.597769 0.438725 -2.14556e-19)
(0.620187 0.414073 -2.67528e-19)
(0.64147 0.390865 -4.07267e-20)
(0.661712 0.369088 9.01767e-20)
(0.680978 0.348664 -3.49056e-20)
(0.699319 0.329503 -1.75265e-19)
(0.716741 0.311539 1.62131e-19)
(0.733313 0.294684 2.29927e-20)
(0.0670819 0.129422 -1.7754e-19)
(0.173024 0.314 5.87152e-20)
(0.261732 0.434477 -4.88659e-20)
(0.332565 0.503349 6.53663e-20)
(0.388833 0.533288 1.24078e-19)
(0.434076 0.536574 -7.72328e-20)
(0.471486 0.523568 1.40356e-19)
(0.503643 0.50194 -4.7886e-20)
(0.532359 0.476712 7.13574e-20)
(0.558758 0.45076 1.34016e-19)
(0.583469 0.425501 7.19781e-20)
(0.606816 0.401505 2.98208e-19)
(0.628966 0.378927 1.34595e-19)
(0.650016 0.357747 -1.09727e-20)
(0.670032 0.337889 -6.76e-21)
(0.689072 0.319265 2.22995e-20)
(0.707145 0.301808 -1.79092e-19)
(0.72433 0.285435 -9.44611e-20)
(0.0625949 0.126393 9.83508e-20)
(0.162167 0.306095 -2.79467e-20)
(0.246826 0.422866 -1.26143e-19)
(0.315375 0.489212 -1.14379e-19)
(0.370689 0.517689 -2.03689e-20)
(0.415896 0.520372 1.49055e-20)
(0.453837 0.507376 -1.78752e-19)
(0.486832 0.486148 1.32775e-19)
(0.516513 0.461529 -6.05327e-20)
(0.5439 0.436275 -1.37028e-19)
(0.569569 0.411732 -3.26556e-20)
(0.593822 0.388434 -1.23019e-19)
(0.616819 0.366522 -2.52346e-19)
(0.638655 0.345973 2.12395e-20)
(0.659404 0.326712 1.9398e-19)
(0.679124 0.308654 -8.34784e-20)
(0.697833 0.291731 1.00333e-19)
(0.0581739 0.123072 -1.73503e-20)
(0.151507 0.297536 -2.33617e-19)
(0.232231 0.410424 2.32261e-19)
(0.298586 0.474188 -5.69063e-20)
(0.353007 0.501222 8.02638e-20)
(0.398209 0.503355 4.68015e-20)
(0.43669 0.490437 1.89629e-19)
(0.470512 0.469673 -2.25615e-19)
(0.50114 0.445721 1.74779e-19)
(0.529492 0.421216 1.37245e-19)
(0.556094 0.397432 -3.89295e-20)
(0.581228 0.374873 -2.03631e-20)
(0.605046 0.353663 7.34537e-20)
(0.627648 0.333779 -1.24577e-19)
(0.649108 0.315146 -1.64244e-19)
(0.66949 0.29768 6.14523e-20)
(0.688817 0.281317 -6.13467e-20)
(0.0538346 0.119464 -1.72509e-20)
(0.141078 0.288341 7.66301e-20)
(0.21799 0.397173 8.54562e-20)
(0.282242 0.458303 -1.47311e-19)
(0.335828 0.483912 7.45442e-20)
(0.381054 0.485549 -1.89502e-19)
(0.420078 0.472773 -1.50369e-20)
(0.454716 0.452536 1.09272e-20)
(0.486267 0.429307 -1.83836e-20)
(0.515558 0.405599 -1.72177e-19)
(0.543066 0.382619 -7.4148e-21)
(0.569053 0.360836 -2.71859e-20)
(0.593669 0.340364 1.61436e-19)
(0.617012 0.321176 -4.94399e-20)
(0.639162 0.3032 -1.38928e-20)
(0.660185 0.286354 8.08947e-20)
(0.680112 0.270576 2.32529e-19)
(0.0495923 0.115578 -3.23996e-20)
(0.130913 0.278527 -1.89661e-20)
(0.204142 0.383138 -9.38677e-20)
(0.266385 0.441584 5.62868e-20)
(0.319192 0.465788 1.52034e-19)
(0.364466 0.466982 -8.1643e-20)
(0.404035 0.454409 -1.29653e-19)
(0.439472 0.434759 1.25581e-19)
(0.471922 0.412307 -4.1255e-20)
(0.502123 0.389444 1.1291e-19)
(0.530507 0.367308 5.07546e-20)
(0.557319 0.346339 -2.9246e-20)
(0.582705 0.326638 -1.09815e-19)
(0.606765 0.308178 1.33942e-19)
(0.629581 0.290887 -3.30391e-20)
(0.651223 0.274688 -1.41984e-19)
(0.67173 0.259517 -4.8015e-20)
(0.0454619 0.11142 6.28089e-20)
(0.121044 0.268114 2.25373e-20)
(0.190729 0.368345 -1.77101e-20)
(0.251057 0.42406 -4.92771e-20)
(0.303139 0.446879 -3.6051e-20)
(0.348482 0.447679 2.02579e-19)
(0.38859 0.43537 3.58933e-20)
(0.424807 0.416365 9.5202e-20)
(0.458129 0.394743 6.94868e-20)
(0.489209 0.372769 -1.86799e-19)
(0.518438 0.351518 -9.62801e-20)
(0.546045 0.331398 1.75604e-19)
(0.572172 0.312501 -5.72628e-21)
(0.596922 0.294799 -1.38462e-19)
(0.620379 0.278221 3.49323e-20)
(0.642619 0.262693 1.65685e-19)
(0.0414579 0.107 7.19582e-20)
(0.111503 0.257122 -9.21068e-20)
(0.177788 0.352822 -4.06365e-20)
(0.236296 0.405763 -8.90265e-21)
(0.287705 0.427215 -1.15899e-19)
(0.333134 0.427672 -6.02855e-20)
(0.373775 0.415684 -2.48448e-20)
(0.41075 0.397379 -1.90219e-19)
(0.444914 0.376635 -1.42036e-19)
(0.476838 0.355595 1.85186e-19)
(0.506879 0.335266 1.00974e-19)
(0.535249 0.31603 -7.76664e-20)
(0.562088 0.297969 -8.83522e-20)
(0.5875 0.281053 9.41323e-20)
(0.611573 0.265214 -5.24305e-20)
(0.634385 0.250381 7.43511e-20)
(0.0375942 0.102328 8.7094e-20)
(0.102318 0.245575 -1.37177e-19)
(0.165356 0.336599 3.89579e-20)
(0.22214 0.386724 6.70561e-20)
(0.272927 0.406829 -5.60521e-22)
(0.318456 0.406989 -8.08288e-20)
(0.359619 0.395379 6.94409e-20)
(0.397327 0.377827 2.52877e-20)
(0.432298 0.358009 -7.39645e-20)
(0.465033 0.337942 4.85516e-20)
(0.49585 0.318574 -1.26671e-19)
(0.524949 0.300254 -2.77216e-20)
(0.552469 0.283058 1.11775e-19)
(0.578514 0.266955 3.9092e-20)
(0.603175 0.251881 6.04396e-20)
(0.626534 0.237767 -1.12482e-19)
(0.0338842 0.0974134 -8.73604e-20)
(0.0935194 0.233496 -3.48e-20)
(0.153467 0.319707 6.75691e-20)
(0.208626 0.366978 -1.37283e-19)
(0.258837 0.385755 -6.55537e-20)
(0.304477 0.385664 1.39886e-19)
(0.346149 0.374483 2.1804e-19)
(0.384561 0.357735 6.09914e-20)
(0.420305 0.338887 8.14128e-20)
(0.453813 0.319835 -1.15449e-21)
(0.485369 0.30146 3.7384e-20)
(0.515163 0.284088 1.28715e-19)
(0.543331 0.267787 -1.85824e-20)
(0.569977 0.252523 -2.2253e-19)
(0.595199 0.238237 1.89445e-21)
(0.619079 0.224864 1.21159e-20)
(0.0303408 0.0922676 2.74049e-20)
(0.0851332 0.220911 -6.90272e-20)
(0.142155 0.302179 2.38974e-19)
(0.195786 0.34656 1.19748e-21)
(0.245469 0.364027 8.6751e-20)
(0.291228 0.363729 8.34851e-20)
(0.333392 0.353028 -8.12097e-20)
(0.372476 0.337131 9.49995e-21)
(0.408956 0.319296 -5.10023e-20)
(0.443197 0.301294 1.24526e-20)
(0.475455 0.283947 -1.47031e-21)
(0.505907 0.267553 -5.76053e-20)
(0.534688 0.252172 -2.54163e-20)
(0.561905 0.237773 1.47862e-19)
(0.587657 0.224299 -1.08982e-19)
(0.612031 0.211686 7.1803e-20)
(0.026976 0.0869024 -5.87802e-20)
(0.0771854 0.207845 -6.4235e-20)
(0.131451 0.284048 -3.47959e-20)
(0.183654 0.325508 8.04538e-20)
(0.232852 0.341683 -6.71903e-20)
(0.278735 0.341219 -1.15775e-19)
(0.321371 0.331043 -6.8758e-20)
(0.361095 0.316044 -1.30726e-19)
(0.398271 0.299261 1.04905e-19)
(0.433204 0.282345 -8.42834e-20)
(0.466123 0.266056 1.7702e-20)
(0.497196 0.250667 1.22135e-20)
(0.526555 0.236233 -5.21204e-20)
(0.55431 0.222723 5.95732e-20)
(0.580562 0.210081 8.84443e-20)
(0.0238014 0.0813299 1.2755e-19)
(0.0697004 0.194327 1.26942e-19)
(0.121385 0.265351 -9.41216e-20)
(0.172259 0.303858 -7.86621e-20)
(0.221015 0.318759 2.15542e-20)
(0.267025 0.318167 4.59599e-20)
(0.31011 0.308563 -1.57186e-19)
(0.350438 0.294502 2.5117e-20)
(0.388269 0.278809 -1.02349e-19)
(0.423852 0.263012 8.53838e-20)
(0.457391 0.24781 1.99819e-20)
(0.489045 0.233453 -8.9223e-20)
(0.518946 0.21999 -1.98687e-20)
(0.547205 0.207389 4.63563e-20)
(0.573925 0.1956 2.15068e-20)
(0.0208278 0.0755631 -5.87543e-20)
(0.062701 0.180386 1.48711e-20)
(0.111984 0.246124 1.75814e-19)
(0.16163 0.281651 9.62736e-20)
(0.209985 0.295294 6.32484e-20)
(0.256121 0.294611 1.17342e-19)
(0.299631 0.285619 1.59818e-20)
(0.340524 0.272536 1.0888e-20)
(0.378966 0.257968 -7.72143e-22)
(0.415155 0.243321 -1.09197e-19)
(0.449271 0.229233 5.62334e-20)
(0.481467 0.215933 -8.89694e-20)
(0.511872 0.203462 5.76506e-20)
(0.5406 0.191792 -9.10602e-20)
(0.567757 0.180875 -5.26541e-20)
(0.0180654 0.0696155 -1.26121e-20)
(0.0562084 0.166051 8.56432e-20)
(0.103274 0.226406 -9.97607e-20)
(0.151793 0.258926 -4.44035e-20)
(0.199785 0.271327 3.92191e-20)
(0.246046 0.270587 -8.6474e-20)
(0.289953 0.262246 6.44844e-20)
(0.331373 0.250177 8.98617e-21)
(0.370381 0.236767 5.22714e-20)
(0.40713 0.223297 -1.87327e-21)
(0.44178 0.210348 -4.94459e-20)
(0.474476 0.198128 4.7937e-20)
(0.505346 0.18667 -1.21299e-19)
(0.534508 0.17595 1.66476e-19)
(0.562067 0.165923 6.26629e-20)
(0.0155236 0.063501 -3.65085e-20)
(0.0502422 0.151353 -3.74344e-20)
(0.0952791 0.206235 -5.47542e-20)
(0.142772 0.235726 6.24291e-20)
(0.19044 0.2469 -3.34828e-20)
(0.23682 0.246133 -1.63094e-20)
(0.281096 0.238479 -3.23341e-20)
(0.322999 0.227457 -4.03676e-20)
(0.362527 0.215234 -1.101e-19)
(0.399789 0.202967 4.7195e-20)
(0.434928 0.191181 -6.46028e-20)
(0.468082 0.180061 1.16668e-19)
(0.499379 0.169636 7.74571e-20)
(0.528937 0.159883 -1.34236e-19)
(0.556864 0.150761 -1.32784e-19)
(0.0132109 0.0572341 3.68666e-20)
(0.0448206 0.136325 -9.59202e-20)
(0.0880209 0.185651 -6.5125e-21)
(0.13459 0.212092 -8.53542e-20)
(0.181969 0.222052 -9.40852e-20)
(0.228463 0.221288 1.35138e-19)
(0.273076 0.214352 1.83662e-20)
(0.315419 0.204408 6.49996e-20)
(0.355418 0.193399 6.72249e-20)
(0.393146 0.182359 -1.56027e-20)
(0.428728 0.171757 9.06525e-20)
(0.462296 0.161755 -5.24925e-20)
(0.49398 0.152381 -6.69324e-20)
(0.523896 0.143611 1.04904e-19)
(0.552158 0.135409 1.17362e-19)
(0.0111351 0.0508296 -3.75667e-20)
(0.0399597 0.120998 8.39821e-20)
(0.081519 0.164695 -8.9237e-20)
(0.127266 0.188069 5.65257e-20)
(0.174392 0.196827 5.21122e-20)
(0.220991 0.196091 -7.3008e-20)
(0.265908 0.189902 3.35745e-20)
(0.308646 0.181063 3.71616e-20)
(0.349068 0.171292 -1.14664e-19)
(0.387212 0.161501 5.51365e-20)
(0.423189 0.152101 6.10495e-21)
(0.457129 0.143236 5.09949e-20)
(0.489157 0.134927 -6.48959e-20)
(0.519395 0.127155 7.98525e-21)
(0.547955 0.119887 -4.93537e-21)
(0.00930332 0.0443029 -4.01723e-20)
(0.0356741 0.105407 5.16588e-20)
(0.075791 0.143409 9.44749e-20)
(0.120818 0.163699 -1.15949e-20)
(0.167725 0.171266 6.39503e-20)
(0.21442 0.170582 -7.91274e-20)
(0.259606 0.165166 1.93306e-20)
(0.302693 0.157456 -6.71399e-20)
(0.343487 0.148944 1.792e-22)
(0.381997 0.140421 -1.03637e-19)
(0.418323 0.13224 -7.40519e-20)
(0.452588 0.124526 3.89985e-20)
(0.48492 0.117297 1.01079e-20)
(0.51544 0.110535 -2.63463e-20)
(0.544262 0.104212 3.46949e-20)
(0.00772165 0.0376694 3.58881e-20)
(0.0319767 0.0895847 1.16994e-20)
(0.0708523 0.121836 2.86336e-20)
(0.115261 0.139028 -4.20783e-20)
(0.161983 0.145414 -1.88992e-20)
(0.208763 0.144801 -3.52063e-20)
(0.254182 0.14018 3.31988e-21)
(0.29757 0.133621 2.38891e-20)
(0.338684 0.126387 7.25796e-20)
(0.377511 0.119147 8.72722e-20)
(0.414136 0.1122 3.32625e-20)
(0.448682 0.10565 -7.85027e-21)
(0.481275 0.0995127 -1.66666e-20)
(0.512038 0.0937722 -4.12652e-20)
(0.541086 0.0884045 4.91023e-21)
(0.0063954 0.0309451 7.39798e-21)
(0.0288786 0.073566 -4.92444e-20)
(0.0667164 0.100019 -6.70091e-20)
(0.11061 0.114101 -2.32345e-21)
(0.157178 0.119315 -4.87414e-21)
(0.204031 0.118789 2.35313e-20)
(0.249646 0.114983 -7.22156e-20)
(0.293287 0.109592 -2.7745e-20)
(0.33467 0.103652 -4.64495e-20)
(0.37376 0.0977089 1.8229e-21)
(0.410636 0.0920084 1.49235e-20)
(0.445417 0.0866339 3.27806e-20)
(0.478229 0.0815983 -6.36652e-21)
(0.509195 0.0768886 2.77169e-20)
(0.538431 0.0724849 -1.33439e-20)
(0.00532903 0.0241462 -3.18895e-20)
(0.026389 0.057386 1.85191e-20)
(0.0633942 0.0780016 -1.83872e-20)
(0.106876 0.0889638 2.26441e-20)
(0.153322 0.0930117 1.72835e-20)
(0.200234 0.0925888 4.82923e-21)
(0.246007 0.0896119 5.57319e-20)
(0.28985 0.0854038 -1.47547e-20)
(0.331449 0.08077 1.28946e-20)
(0.370752 0.0761361 1.50471e-20)
(0.407829 0.0716918 1.02493e-20)
(0.442798 0.0675021 -2.73641e-20)
(0.475785 0.0635768 3.53901e-20)
(0.506914 0.0599057 2.61995e-20)
(0.536302 0.0564732 -1.01297e-20)
(0.00452611 0.0172891 9.78314e-21)
(0.0245152 0.0410802 2.31934e-20)
(0.0608948 0.0558275 -5.15987e-21)
(0.104068 0.0636629 -3.58271e-20)
(0.150423 0.0665504 1.80979e-20)
(0.197379 0.0662405 5.21047e-20)
(0.243272 0.0641055 -4.10266e-20)
(0.287268 0.0610916 -2.3272e-21)
(0.329029 0.0577745 1.01552e-20)
(0.368491 0.0544582 2.22231e-20)
(0.40572 0.0512781 2.03929e-21)
(0.44083 0.0482803 -6.87072e-21)
(0.473949 0.0454718 -1.0965e-20)
(0.505201 0.0428453 -1.1398e-20)
(0.00398934 0.0103902 4.40866e-21)
(0.023263 0.0246842 -1.21023e-20)
(0.0592248 0.0335414 4.91839e-21)
(0.102191 0.0382448 1.51836e-20)
(0.148486 0.0399757 -8.67984e-21)
(0.195473 0.0397866 -2.66968e-20)
(0.241446 0.0385021 1.26611e-20)
(0.285544 0.0366906 -2.85929e-22)
(0.327413 0.0346974 -3.51079e-20)
(0.366982 0.0327051 2.08959e-20)
(0.404311 0.0307948 -1.38298e-20)
(0.439516 0.0289941 1.07715e-20)
(0.472723 0.0273071 -8.69625e-21)
(0.504057 0.0257294 4.4966e-21)