/*--------------------------------*- C++ -*----------------------------------*\
  =========                 |
  \\      /  F ield         | OpenFOAM: The Open Source CFD Toolbox
   \\    /   O peration     | Website:  https://openfoam.org
    \\  /    A nd           | Version:  7
     \\/     M anipulation  |
\*---------------------------------------------------------------------------*/
FoamFile
{
    version     2.0;
    format      ascii;
    class       volScalarField;
    location    "40";
    object      p;
}
// * * * * * * * * * * * * * * * * * * * * * * * * * * * * * * * * * * * * * //

dimensions      [0 2 -2 0 0 0 0];

internalField   nonuniform List<scalar> 
4575
(
-0.364896
-0.358085
-0.352742
-0.370559
-0.363405
-0.357846
-0.352019
-0.345875
-0.376268
-0.368775
-0.363003
-0.356953
-0.350541
-0.343748
-0.336406
-0.328369
-0.381998
-0.374173
-0.368192
-0.361915
-0.355222
-0.348066
-0.340261
-0.331655
-0.322163
-0.311791
-0.300646
-0.288917
-0.387722
-0.379574
-0.373388
-0.36688
-0.35989
-0.352344
-0.344037
-0.33482
-0.324628
-0.313506
-0.301607
-0.28916
-0.276432
-0.263681
-0.251126
-0.393411
-0.384951
-0.378565
-0.37182
-0.364515
-0.356549
-0.347701
-0.337829
-0.3269
-0.315001
-0.302333
-0.289165
-0.275791
-0.262483
-0.249458
-0.236875
-0.224834
-0.213381
-0.202535
-0.399033
-0.390273
-0.383691
-0.376704
-0.369064
-0.360646
-0.351218
-0.340651
-0.32895
-0.31625
-0.302802
-0.288915
-0.274907
-0.261056
-0.247578
-0.234621
-0.222273
-0.210566
-0.19952
-0.189185
-0.404554
-0.39551
-0.388736
-0.3815
-0.373505
-0.364601
-0.354552
-0.343252
-0.330747
-0.317228
-0.302995
-0.288395
-0.273765
-0.259389
-0.245476
-0.232162
-0.219523
-0.207576
-0.19634
-0.185817
-0.409938
-0.400626
-0.393666
-0.386172
-0.377799
-0.368377
-0.357668
-0.345597
-0.332261
-0.31791
-0.302892
-0.287589
-0.272355
-0.257474
-0.243145
-0.229492
-0.216576
-0.204403
-0.19299
-0.182287
-0.41515
-0.405587
-0.398445
-0.390683
-0.38191
-0.371933
-0.360527
-0.347653
-0.333465
-0.318273
-0.302475
-0.286484
-0.270665
-0.255299
-0.240575
-0.226602
-0.213425
-0.20104
-0.189462
-0.17859
-0.420148
-0.410355
-0.403034
-0.394996
-0.385796
-0.375233
-0.363093
-0.349386
-0.33433
-0.318294
-0.301726
-0.285065
-0.268684
-0.252856
-0.237758
-0.223483
-0.210063
-0.197482
-0.185751
-0.174722
-0.424894
-0.414891
-0.407396
-0.399068
-0.389419
-0.378234
-0.365329
-0.350765
-0.334828
-0.317953
-0.300629
-0.28332
-0.2664
-0.250134
-0.234685
-0.220128
-0.206483
-0.193721
-0.181851
-0.170676
-0.429346
-0.419155
-0.411488
-0.402861
-0.392735
-0.380899
-0.367197
-0.351757
-0.334935
-0.317228
-0.299167
-0.281234
-0.263802
-0.247125
-0.231348
-0.216531
-0.202677
-0.189752
-0.177756
-0.166449
-0.433461
-0.423104
-0.41527
-0.40633
-0.395704
-0.383186
-0.368663
-0.352332
-0.334626
-0.3161
-0.297326
-0.278797
-0.260882
-0.24382
-0.227738
-0.212682
-0.19864
-0.185568
-0.173462
-0.162037
-0.437196
-0.426698
-0.418699
-0.409433
-0.398284
-0.385056
-0.369691
-0.352461
-0.333877
-0.314552
-0.295092
-0.275997
-0.257629
-0.24021
-0.223849
-0.208576
-0.194365
-0.181164
-0.168963
-0.157434
-0.440508
-0.429894
-0.421732
-0.412128
-0.400432
-0.386471
-0.370248
-0.352117
-0.332666
-0.312567
-0.292451
-0.272824
-0.254034
-0.236287
-0.219673
-0.204205
-0.189845
-0.176535
-0.164255
-0.152639
-0.443354
-0.432649
-0.424326
-0.414372
-0.402108
-0.387393
-0.370302
-0.351274
-0.330975
-0.31013
-0.289392
-0.269266
-0.250088
-0.232043
-0.215202
-0.199564
-0.185077
-0.171677
-0.159333
-0.147646
-0.445692
-0.434921
-0.426439
-0.416122
-0.403272
-0.387788
-0.369822
-0.349907
-0.328784
-0.307225
-0.285903
-0.265316
-0.245784
-0.227472
-0.210431
-0.194646
-0.180053
-0.166583
-0.154195
-0.142454
-0.447479
-0.436668
-0.428029
-0.417338
-0.403886
-0.387621
-0.368782
-0.347995
-0.326076
-0.303841
-0.281974
-0.260965
-0.241114
-0.222566
-0.205354
-0.189447
-0.17477
-0.161252
-0.148836
-0.137059
-0.448674
-0.437849
-0.429054
-0.417979
-0.403912
-0.386859
-0.367154
-0.345517
-0.322837
-0.299966
-0.277596
-0.256205
-0.236072
-0.21732
-0.199965
-0.183961
-0.169224
-0.155678
-0.143254
-0.131461
-0.449237
-0.438423
-0.429476
-0.418008
-0.403315
-0.385474
-0.364915
-0.342456
-0.319053
-0.29559
-0.27276
-0.251029
-0.230651
-0.211729
-0.19426
-0.178185
-0.163411
-0.149859
-0.137446
-0.125655
-0.449131
-0.438354
-0.429254
-0.417387
-0.402064
-0.383437
-0.362043
-0.338795
-0.314711
-0.290703
-0.267461
-0.245432
-0.224847
-0.205788
-0.188234
-0.172115
-0.157329
-0.143793
-0.131409
-0.119641
-0.448318
-0.437602
-0.428354
-0.416083
-0.400127
-0.380724
-0.35852
-0.334521
-0.309804
-0.285299
-0.261693
-0.239409
-0.218656
-0.199493
-0.181885
-0.165749
-0.150973
-0.137476
-0.125143
-0.113422
-0.446764
-0.436135
-0.426741
-0.414063
-0.397476
-0.377313
-0.354329
-0.329622
-0.304321
-0.279372
-0.25545
-0.232955
-0.212074
-0.192842
-0.175209
-0.159083
-0.144343
-0.130906
-0.118649
-0.107004
-0.444438
-0.43392
-0.424384
-0.411299
-0.394088
-0.373184
-0.349456
-0.324088
-0.298257
-0.272917
-0.248729
-0.22607
-0.205098
-0.185832
-0.168206
-0.152117
-0.137436
-0.124082
-0.111927
-0.100383
-0.44131
-0.430927
-0.421253
-0.407764
-0.38994
-0.368321
-0.343889
-0.317912
-0.291606
-0.265932
-0.241529
-0.218749
-0.197728
-0.178463
-0.160875
-0.14485
-0.130252
-0.117002
-0.104969
-0.0935092
-0.437354
-0.427129
-0.417322
-0.403434
-0.385014
-0.36271
-0.33762
-0.311089
-0.284367
-0.258414
-0.233848
-0.210994
-0.189964
-0.170735
-0.153216
-0.137282
-0.122792
-0.10967
-0.0977589
-0.0862863
-0.432546
-0.422501
-0.412569
-0.398291
-0.379293
-0.35634
-0.330642
-0.303615
-0.276538
-0.250363
-0.225686
-0.202805
-0.181805
-0.162648
-0.14523
-0.129417
-0.115061
-0.102094
-0.0903003
-0.0787318
-0.426867
-0.417024
-0.406972
-0.392316
-0.372766
-0.349205
-0.322952
-0.295491
-0.26812
-0.241782
-0.217046
-0.194183
-0.173255
-0.154206
-0.13692
-0.121256
-0.107062
-0.0942725
-0.0826273
-0.0712494
-0.420299
-0.410678
-0.400517
-0.385497
-0.365423
-0.341299
-0.314549
-0.286716
-0.259115
-0.232672
-0.207931
-0.185132
-0.164315
-0.14541
-0.128289
-0.112803
-0.0987991
-0.0862121
-0.0747274
-0.0636092
-0.41283
-0.403451
-0.39319
-0.377823
-0.357259
-0.332621
-0.305434
-0.277295
-0.249527
-0.223039
-0.198344
-0.175655
-0.154991
-0.136265
-0.119341
-0.104063
-0.0902755
-0.0779137
-0.0666242
-0.0557632
-0.404448
-0.395332
-0.384982
-0.369289
-0.348271
-0.323171
-0.29561
-0.267232
-0.239362
-0.212887
-0.188291
-0.165758
-0.145287
-0.126775
-0.11008
-0.095039
-0.0814951
-0.069383
-0.0583163
-0.395148
-0.386312
-0.375886
-0.359891
-0.33846
-0.312954
-0.285085
-0.256535
-0.228628
-0.202225
-0.177779
-0.155447
-0.135208
-0.116948
-0.100514
-0.0857378
-0.0724631
-0.0606252
-0.384926
-0.376389
-0.365901
-0.349631
-0.32783
-0.301977
-0.273866
-0.245213
-0.217334
-0.191061
-0.166816
-0.144731
-0.124764
-0.10679
-0.0906472
-0.0761653
-0.373785
-0.365563
-0.355028
-0.338512
-0.316388
-0.290248
-0.261965
-0.233278
-0.20549
-0.179405
-0.155412
-0.133618
-0.113962
-0.0963079
-0.080489
-0.361727
-0.353837
-0.343272
-0.326541
-0.304144
-0.277781
-0.249395
-0.220742
-0.19311
-0.16727
-0.143578
-0.122117
-0.102811
-0.085512
-0.348762
-0.341219
-0.330641
-0.31373
-0.291112
-0.26459
-0.23617
-0.207621
-0.180207
-0.154667
-0.131326
-0.110241
-0.0913227
-0.3349
-0.327719
-0.317148
-0.300092
-0.277306
-0.250693
-0.222309
-0.193931
-0.166796
-0.141611
-0.118668
-0.0980019
-0.320158
-0.313351
-0.302808
-0.285646
-0.262748
-0.236108
-0.207831
-0.179691
-0.152895
-0.128117
-0.105619
-0.304552
-0.298134
-0.287639
-0.27041
-0.247456
-0.220858
-0.192757
-0.164918
-0.138523
-0.114204
-0.288105
-0.282088
-0.271663
-0.254408
-0.231457
-0.204968
-0.177107
-0.149636
-0.123698
-0.270842
-0.265237
-0.254905
-0.237667
-0.214778
-0.188463
-0.160907
-0.133869
-0.252791
-0.247608
-0.237392
-0.220215
-0.197448
-0.171362
-0.144189
-0.233981
-0.229231
-0.219156
-0.202087
-0.179484
-0.153708
-0.214445
-0.21014
-0.200232
-0.183322
-0.160919
-0.194218
-0.19037
-0.180652
-0.163912
-0.141826
-0.173335
-0.16996
-0.160449
-0.143938
-0.151831
-0.148953
-0.139665
-0.129739
-0.127405
-0.118349
-0.107125
-0.105349
-0.0840975
-0.060641
-0.0603961
-0.0838465
-0.106868
-0.105092
-0.129476
-0.127143
-0.118091
-0.151561
-0.148685
-0.1394
-0.173059
-0.169685
-0.160179
-0.143675
-0.193937
-0.19009
-0.180375
-0.163643
-0.141567
-0.214158
-0.209853
-0.19995
-0.183047
-0.160653
-0.135273
-0.233688
-0.228939
-0.218868
-0.201807
-0.179213
-0.153448
-0.252492
-0.24731
-0.237099
-0.219928
-0.197172
-0.171096
-0.143935
-0.270538
-0.264934
-0.254606
-0.237375
-0.214496
-0.188192
-0.160647
-0.13362
-0.287795
-0.281779
-0.271358
-0.254111
-0.231169
-0.204691
-0.176843
-0.149383
-0.123455
-0.304236
-0.29782
-0.287329
-0.270107
-0.247163
-0.220576
-0.192487
-0.16466
-0.138275
-0.113967
-0.319837
-0.313032
-0.302492
-0.285337
-0.262449
-0.23582
-0.207556
-0.179428
-0.152643
-0.127876
-0.105387
-0.334574
-0.327394
-0.316827
-0.299779
-0.277003
-0.2504
-0.222029
-0.193663
-0.16654
-0.141365
-0.118432
-0.0977758
-0.348431
-0.340888
-0.330315
-0.313411
-0.290802
-0.264293
-0.235885
-0.207348
-0.179946
-0.154416
-0.131086
-0.110011
-0.0911014
-0.361391
-0.353502
-0.34294
-0.326217
-0.30383
-0.277479
-0.249105
-0.220465
-0.192844
-0.167015
-0.143334
-0.121883
-0.102586
-0.0852953
-0.373444
-0.365223
-0.354692
-0.338182
-0.316069
-0.289941
-0.26167
-0.232996
-0.20522
-0.179146
-0.155164
-0.133379
-0.113733
-0.0960874
-0.0802768
-0.384581
-0.376044
-0.36556
-0.349297
-0.327506
-0.301664
-0.273566
-0.244926
-0.217059
-0.190798
-0.166564
-0.144488
-0.124531
-0.106565
-0.0904314
-0.0759574
-0.394797
-0.385963
-0.37554
-0.359553
-0.338131
-0.312637
-0.28478
-0.256243
-0.228349
-0.201957
-0.177522
-0.155201
-0.134971
-0.11672
-0.100294
-0.0855263
-0.0722593
-0.0604287
-0.404093
-0.394978
-0.384631
-0.368946
-0.347937
-0.322849
-0.295301
-0.266936
-0.239078
-0.212615
-0.18803
-0.165507
-0.145046
-0.126544
-0.109857
-0.0948241
-0.0812879
-0.0691833
-0.0581237
-0.41247
-0.403093
-0.392836
-0.377475
-0.356921
-0.332294
-0.30512
-0.276994
-0.249239
-0.222762
-0.198079
-0.1754
-0.154746
-0.136029
-0.119114
-0.103844
-0.090065
-0.0777107
-0.0664284
-0.0555747
-0.419936
-0.410316
-0.400159
-0.385145
-0.36508
-0.340968
-0.314231
-0.286411
-0.258822
-0.232392
-0.207662
-0.184873
-0.164067
-0.145171
-0.128059
-0.112581
-0.0985852
-0.0860058
-0.0745284
-0.0634172
-0.4265
-0.416658
-0.40661
-0.39196
-0.372419
-0.34887
-0.322629
-0.295181
-0.267823
-0.241497
-0.216773
-0.193921
-0.173003
-0.153963
-0.136686
-0.121031
-0.106845
-0.0940631
-0.0824252
-0.0710534
-0.432176
-0.422132
-0.412202
-0.397931
-0.378942
-0.356001
-0.330315
-0.303302
-0.276237
-0.250075
-0.225409
-0.202539
-0.181549
-0.162402
-0.144993
-0.129188
-0.11484
-0.101881
-0.090095
-0.0785316
-0.43698
-0.426756
-0.416952
-0.403071
-0.384659
-0.362366
-0.337289
-0.310771
-0.284062
-0.258121
-0.233567
-0.210724
-0.189704
-0.170485
-0.152975
-0.13705
-0.122568
-0.109454
-0.0975508
-0.0860852
-0.440932
-0.430551
-0.42088
-0.407397
-0.389582
-0.367973
-0.343554
-0.31759
-0.291297
-0.265635
-0.241244
-0.218476
-0.197465
-0.178209
-0.160631
-0.144614
-0.130024
-0.116783
-0.104758
-0.0933047
-0.444057
-0.433541
-0.424008
-0.410929
-0.393726
-0.372833
-0.349117
-0.323762
-0.297944
-0.272617
-0.248441
-0.225792
-0.204831
-0.185575
-0.167958
-0.151878
-0.137205
-0.123859
-0.111713
-0.100175
-0.446381
-0.435754
-0.426363
-0.41369
-0.397111
-0.376958
-0.353986
-0.329292
-0.304004
-0.279068
-0.255158
-0.232674
-0.211803
-0.192581
-0.174958
-0.15884
-0.144109
-0.13068
-0.118431
-0.106793
-0.447932
-0.437218
-0.427973
-0.415707
-0.399758
-0.380366
-0.358174
-0.334188
-0.309483
-0.284991
-0.261397
-0.239124
-0.218382
-0.199229
-0.18163
-0.165503
-0.150736
-0.137246
-0.124922
-0.113208
-0.448743
-0.437967
-0.428871
-0.417009
-0.401693
-0.383076
-0.361694
-0.338459
-0.314387
-0.290392
-0.267162
-0.245143
-0.22457
-0.20552
-0.187976
-0.171866
-0.157088
-0.14356
-0.131184
-0.119424
-0.448847
-0.438035
-0.42909
-0.417627
-0.402942
-0.38511
-0.364562
-0.342116
-0.318725
-0.295275
-0.272457
-0.250737
-0.23037
-0.211458
-0.193998
-0.177932
-0.163167
-0.149623
-0.137218
-0.125435
-0.448282
-0.437459
-0.428667
-0.417596
-0.403536
-0.386492
-0.366798
-0.345174
-0.322506
-0.299648
-0.277289
-0.255909
-0.235787
-0.217045
-0.1997
-0.183705
-0.168977
-0.155439
-0.143022
-0.131238
-0.447086
-0.436276
-0.42764
-0.416953
-0.403508
-0.387252
-0.368423
-0.347648
-0.325742
-0.303519
-0.281664
-0.260666
-0.240826
-0.222288
-0.205085
-0.189187
-0.174519
-0.161009
-0.148601
-0.136833
-0.445297
-0.434528
-0.426049
-0.415736
-0.402892
-0.387417
-0.369461
-0.349558
-0.328447
-0.3069
-0.285589
-0.265014
-0.245493
-0.22719
-0.210159
-0.194383
-0.179799
-0.166337
-0.153957
-0.142224
-0.442959
-0.432256
-0.423935
-0.413984
-0.401727
-0.38702
-0.369938
-0.350922
-0.330635
-0.309802
-0.289075
-0.268961
-0.249793
-0.231758
-0.214927
-0.199297
-0.184819
-0.171427
-0.159092
-0.147413
-0.440111
-0.4295
-0.421339
-0.411739
-0.400049
-0.386096
-0.369882
-0.351763
-0.332323
-0.312236
-0.292132
-0.272515
-0.253736
-0.235999
-0.219394
-0.203935
-0.189584
-0.176283
-0.16401
-0.152402
-0.436799
-0.426303
-0.418306
-0.409044
-0.3979
-0.384679
-0.369324
-0.352105
-0.333531
-0.314218
-0.294769
-0.275685
-0.257328
-0.239918
-0.223567
-0.208302
-0.1941
-0.180908
-0.168715
-0.157194
-0.433063
-0.422709
-0.414877
-0.40594
-0.39532
-0.382808
-0.368294
-0.351973
-0.334278
-0.315764
-0.297001
-0.278482
-0.260578
-0.243525
-0.227453
-0.212405
-0.198372
-0.185308
-0.17321
-0.161793
-0.428948
-0.418759
-0.411095
-0.402471
-0.39235
-0.38052
-0.366827
-0.351396
-0.334585
-0.316888
-0.298839
-0.280916
-0.263495
-0.246827
-0.231059
-0.216251
-0.202406
-0.189488
-0.177501
-0.166202
-0.424497
-0.414496
-0.407003
-0.398679
-0.389033
-0.377855
-0.364957
-0.350402
-0.334476
-0.317611
-0.300298
-0.282999
-0.266089
-0.249833
-0.234393
-0.219845
-0.206208
-0.193454
-0.181592
-0.170426
-0.419751
-0.409961
-0.402642
-0.394606
-0.385411
-0.374853
-0.36272
-0.349022
-0.333975
-0.31795
-0.301392
-0.284742
-0.26837
-0.252552
-0.237463
-0.223196
-0.209785
-0.197211
-0.185488
-0.174467
-0.414753
-0.405193
-0.398053
-0.390294
-0.381524
-0.371553
-0.360154
-0.347288
-0.333109
-0.317927
-0.302139
-0.286158
-0.270349
-0.254992
-0.240277
-0.226311
-0.213143
-0.200766
-0.189196
-0.178332
-0.409543
-0.400233
-0.393275
-0.385783
-0.377414
-0.367996
-0.357294
-0.345231
-0.331904
-0.317562
-0.302553
-0.287261
-0.272036
-0.257163
-0.242843
-0.229199
-0.21629
-0.204125
-0.19272
-0.182025
-0.404159
-0.395118
-0.388346
-0.381112
-0.37312
-0.364221
-0.354178
-0.342885
-0.330388
-0.316878
-0.302654
-0.288063
-0.273443
-0.259076
-0.245171
-0.231865
-0.219233
-0.207294
-0.196067
-0.185551
-0.398639
-0.389883
-0.383302
-0.376317
-0.368681
-0.360267
-0.350844
-0.340284
-0.32859
-0.315899
-0.302459
-0.288581
-0.274582
-0.260739
-0.247269
-0.23432
-0.22198
-0.210281
-0.199242
-0.188915
-0.393019
-0.384562
-0.378177
-0.371434
-0.364132
-0.35617
-0.347327
-0.337461
-0.326539
-0.314648
-0.301988
-0.288829
-0.275464
-0.262163
-0.249147
-0.236571
-0.224537
-0.213092
-0.202253
-0.387332
-0.379186
-0.373002
-0.366496
-0.359508
-0.351966
-0.343664
-0.334452
-0.324266
-0.313152
-0.301261
-0.288822
-0.276102
-0.263359
-0.250812
-0.38161
-0.373787
-0.367808
-0.361532
-0.354842
-0.347689
-0.339888
-0.331287
-0.321801
-0.311436
-0.300298
-0.375881
-0.36839
-0.36262
-0.356572
-0.350163
-0.343372
-0.336034
-0.328002
-0.370174
-0.363022
-0.357465
-0.35164
-0.345498
-0.364512
-0.357704
-0.352363
-0.157764
-0.161774
-0.165637
-0.169355
-0.172932
-0.176372
-0.144454
-0.148317
-0.152066
-0.155702
-0.159228
-0.162648
-0.132705
-0.136416
-0.140037
-0.143569
-0.147016
-0.150379
-0.122482
-0.126024
-0.129495
-0.132898
-0.136234
-0.139504
-0.113455
-0.116828
-0.120145
-0.123408
-0.126617
-0.129776
-0.1055
-0.1087
-0.111857
-0.11497
-0.118042
-0.121073
-0.0984404
-0.101471
-0.104467
-0.10743
-0.110359
-0.113257
-0.0921716
-0.0950363
-0.0978738
-0.100685
-0.10347
-0.10623
-0.0865846
-0.0892889
-0.0919717
-0.0946338
-0.0972756
-0.099898
-0.0815936
-0.0841441
-0.0866777
-0.089195
-0.0916966
-0.094183
-0.0771274
-0.0795307
-0.0819209
-0.0842984
-0.0866637
-0.0890172
-0.0731218
-0.0753853
-0.0776386
-0.079882
-0.082116
-0.0843409
-0.0695201
-0.0716513
-0.0737746
-0.0758903
-0.0779987
-0.0801002
-0.0662799
-0.0682857
-0.0702854
-0.0722793
-0.0742677
-0.076251
-0.0633572
-0.0652446
-0.0671274
-0.0690059
-0.0708803
-0.072751
-0.0607147
-0.062491
-0.0642638
-0.0660334
-0.0677999
-0.0695636
-0.0583248
-0.0599963
-0.0616652
-0.0633317
-0.0649959
-0.0666582
-0.0561608
-0.0577334
-0.0593041
-0.0608731
-0.0624406
-0.0640067
-0.0541952
-0.0556749
-0.0571534
-0.0586308
-0.0601071
-0.0615826
-0.0630573
-0.0524086
-0.0538013
-0.0551931
-0.0565841
-0.0579744
-0.0593643
-0.0607538
-0.0507827
-0.0520934
-0.0534036
-0.0547134
-0.0560227
-0.0573319
-0.0586409
-0.0493019
-0.0505356
-0.0517689
-0.0530021
-0.0542351
-0.0554681
-0.0567011
-0.0479506
-0.0491119
-0.050273
-0.0514341
-0.0525953
-0.0537565
-0.0549179
-0.0467164
-0.0478097
-0.048903
-0.0499964
-0.0510899
-0.0521835
-0.0532775
-0.0455873
-0.0466168
-0.0476464
-0.0486761
-0.0497059
-0.0507361
-0.0517665
-0.0445544
-0.0455238
-0.0464934
-0.0474632
-0.0484331
-0.0494034
-0.050374
-0.0436088
-0.0445217
-0.0454348
-0.0463481
-0.0472617
-0.0481756
-0.0490898
-0.0427417
-0.0436015
-0.0444616
-0.0453218
-0.0461824
-0.0470432
-0.0479043
-0.0419467
-0.0427566
-0.0435667
-0.044377
-0.0451876
-0.0459984
-0.0468095
-0.0412172
-0.0419801
-0.0427432
-0.0435066
-0.0442701
-0.0450339
-0.0457979
-0.0405473
-0.041266
-0.041985
-0.0427041
-0.0434235
-0.044143
-0.0448627
-0.0399325
-0.0406097
-0.041287
-0.0419645
-0.0426422
-0.0433201
-0.0439981
-0.0393684
-0.0400064
-0.0406445
-0.0412828
-0.0419213
-0.0425599
-0.0431986
-0.0388504
-0.0394516
-0.0400529
-0.0406543
-0.0412558
-0.0418575
-0.0424592
-0.0383753
-0.0389418
-0.0395084
-0.040075
-0.0406418
-0.0412086
-0.0417755
-0.0379395
-0.0384733
-0.0390073
-0.0395412
-0.0400753
-0.0406094
-0.0411435
-0.0375402
-0.0380434
-0.0385465
-0.0390498
-0.039553
-0.0400563
-0.0405596
-0.0371747
-0.0376489
-0.0381232
-0.0385974
-0.0390717
-0.039546
-0.0400203
-0.0368403
-0.0372873
-0.0377344
-0.0381815
-0.0386286
-0.0390756
-0.0395225
-0.0365351
-0.0369566
-0.0373781
-0.0377996
-0.0382211
-0.0386425
-0.0390638
-0.036257
-0.0366545
-0.037052
-0.0374494
-0.0378468
-0.0382441
-0.0386414
-0.0360038
-0.0363788
-0.0367538
-0.0371287
-0.0375035
-0.0378783
-0.0382529
-0.0357741
-0.036128
-0.0364818
-0.0368356
-0.0371893
-0.0375428
-0.0378963
-0.0355661
-0.0359002
-0.0362342
-0.0365682
-0.0369021
-0.0372359
-0.0375695
-0.0353783
-0.0356939
-0.0360095
-0.0363249
-0.0366403
-0.0369556
-0.0372707
-0.0352093
-0.0355077
-0.035806
-0.0361042
-0.0364023
-0.0367003
-0.0369982
-0.0350578
-0.0353401
-0.0356223
-0.0359045
-0.0361866
-0.0364686
-0.0367504
-0.0349225
-0.0351899
-0.0354573
-0.0357246
-0.0359918
-0.0362588
-0.0365258
-0.0348022
-0.0350559
-0.0353095
-0.035563
-0.0358165
-0.0360698
-0.036323
-0.0346959
-0.0349369
-0.0351779
-0.0354188
-0.0356596
-0.0359002
-0.0361408
-0.0346025
-0.034832
-0.0350614
-0.0352907
-0.0355199
-0.035749
-0.035978
-0.0345212
-0.0347401
-0.034959
-0.0351778
-0.0353965
-0.0356151
-0.0358336
-0.0344508
-0.0346603
-0.0348697
-0.0350791
-0.0352884
-0.0354975
-0.0357066
-0.034391
-0.0345921
-0.0347931
-0.034994
-0.0351949
-0.0353956
-0.0355963
-0.0343405
-0.0345341
-0.0347278
-0.0349214
-0.0351149
-0.0353083
-0.0355016
-0.0342994
-0.0344868
-0.0346741
-0.0348614
-0.0350486
-0.0352357
-0.0354227
-0.0342661
-0.0344483
-0.0346304
-0.0348124
-0.0349944
-0.0351764
-0.0353582
-0.0342421
-0.0344201
-0.034598
-0.0347759
-0.0349537
-0.0351315
-0.0353091
-0.0342247
-0.0343998
-0.0345748
-0.0347498
-0.0349247
-0.0350996
-0.0352744
-0.0342172
-0.0343901
-0.0345631
-0.0347361
-0.034909
-0.0350818
-0.0352546
-0.0498694
-0.0570853
-0.0641312
-0.0710006
-0.0775861
-0.0843993
-0.0909001
-0.0970742
-0.103041
-0.10885
-0.114497
-0.119972
-0.125275
-0.130408
-0.135373
-0.140172
-0.144809
-0.149284
-0.153601
-0.0466189
-0.0530369
-0.0593249
-0.0654728
-0.0714486
-0.0770224
-0.0826865
-0.0882765
-0.0937008
-0.0989701
-0.104104
-0.109107
-0.113977
-0.118714
-0.12332
-0.127796
-0.132146
-0.136371
-0.140472
-0.0426636
-0.0483942
-0.0540035
-0.0594867
-0.0648401
-0.0700579
-0.0752247
-0.0803376
-0.0853177
-0.0901596
-0.0948842
-0.0995017
-0.104013
-0.108417
-0.112716
-0.116912
-0.121007
-0.125002
-0.128901
-0.0397963
-0.0449474
-0.0500022
-0.05496
-0.0598181
-0.0645709
-0.0691818
-0.0738393
-0.0783944
-0.0828243
-0.0871546
-0.0914016
-0.0955674
-0.0996508
-0.103652
-0.107573
-0.111414
-0.115178
-0.118867
-0.0371271
-0.0417892
-0.0463747
-0.0508843
-0.0553192
-0.0596789
-0.0639586
-0.0681108
-0.0722572
-0.0763474
-0.0803574
-0.0842929
-0.088161
-0.0919639
-0.0957017
-0.0993752
-0.102986
-0.106535
-0.110024
-0.0349608
-0.0391917
-0.0433583
-0.0474608
-0.0514988
-0.055471
-0.0593755
-0.0631995
-0.0670498
-0.0708341
-0.0745401
-0.078183
-0.0817731
-0.0853123
-0.0888003
-0.0922375
-0.0956248
-0.0989636
-0.102255
-0.033099
-0.0369577
-0.0407653
-0.0445225
-0.0482305
-0.0518902
-0.0555018
-0.0590614
-0.0625398
-0.0660093
-0.0694456
-0.0728338
-0.0761754
-0.0794746
-0.0827331
-0.0859516
-0.0891306
-0.0922711
-0.095374
-0.0315526
-0.0350821
-0.0385693
-0.0420148
-0.0454192
-0.0487829
-0.0521054
-0.0553859
-0.058612
-0.0618361
-0.0650274
-0.0681766
-0.0712876
-0.0743649
-0.0774101
-0.0804235
-0.0834055
-0.086357
-0.0892787
-0.0302576
-0.0334955
-0.0366987
-0.0398677
-0.0430031
-0.0461051
-0.049174
-0.0522096
-0.0552101
-0.0582054
-0.0611704
-0.0640999
-0.0669988
-0.069871
-0.0727178
-0.0755395
-0.0783363
-0.081109
-0.0838582
-0.0291924
-0.0321725
-0.0351247
-0.0380496
-0.0409481
-0.0438209
-0.0466687
-0.0494917
-0.0522887
-0.055034
-0.0577792
-0.0605112
-0.0632197
-0.0659046
-0.068568
-0.0712113
-0.0738351
-0.0764397
-0.0790257
-0.0283159
-0.031064
-0.0337891
-0.0364917
-0.0391721
-0.0418308
-0.044468
-0.0470838
-0.049678
-0.0522473
-0.0548163
-0.0573663
-0.0598941
-0.062403
-0.0648953
-0.067372
-0.0698331
-0.0722791
-0.0747103
-0.0276055
-0.0301457
-0.0326671
-0.0351701
-0.0376552
-0.0401228
-0.0425732
-0.0450066
-0.0474233
-0.0498226
-0.0522158
-0.0545942
-0.0569558
-0.0593024
-0.0616358
-0.0639568
-0.0662655
-0.0685623
-0.0708476
-0.027038
-0.029391
-0.0317289
-0.034052
-0.0363608
-0.0386558
-0.0409374
-0.0432061
-0.045462
-0.0477046
-0.0499196
-0.0521351
-0.0543453
-0.0565443
-0.0587314
-0.060908
-0.0630747
-0.0652321
-0.0673805
-0.0265907
-0.0287737
-0.0309444
-0.0331029
-0.0352498
-0.0373853
-0.0395097
-0.0416232
-0.043726
-0.0458181
-0.0478971
-0.0499739
-0.052042
-0.0540998
-0.0561486
-0.0581894
-0.0602228
-0.0622488
-0.0642677
-0.0262458
-0.0282741
-0.0302923
-0.0323006
-0.0342992
-0.0362883
-0.0382681
-0.0402387
-0.0422001
-0.0441526
-0.0460962
-0.0480543
-0.0499959
-0.0519228
-0.0538419
-0.0557557
-0.0576643
-0.0595673
-0.0614648
-0.0259919
-0.0278802
-0.0297605
-0.0316331
-0.0334983
-0.0353563
-0.0372076
-0.0390524
-0.0408913
-0.0427242
-0.0445505
-0.0463524
-0.0481595
-0.049968
-0.0517718
-0.0535696
-0.0553623
-0.0571505
-0.0589345
-0.025811
-0.0275705
-0.0293235
-0.0310701
-0.0328107
-0.0345453
-0.0362741
-0.0379973
-0.039715
-0.0414273
-0.0431341
-0.0448326
-0.0465312
-0.0482279
-0.0499205
-0.0516085
-0.0532925
-0.0549731
-0.0566505
-0.0256938
-0.0273354
-0.0289718
-0.0306032
-0.0322297
-0.0338514
-0.0354686
-0.0370815
-0.0386901
-0.0402946
-0.041895
-0.0434906
-0.0450852
-0.0466765
-0.0482641
-0.0498485
-0.0514302
-0.0530094
-0.0545862
-0.0256298
-0.027163
-0.028692
-0.030217
-0.031738
-0.0332553
-0.0347689
-0.0362789
-0.0377855
-0.0392887
-0.0407887
-0.0422853
-0.0437862
-0.0452816
-0.0467722
-0.0482602
-0.0497464
-0.051231
-0.0527139
-0.0256122
-0.0270458
-0.0284762
-0.0299034
-0.0313277
-0.0327491
-0.0341678
-0.0355839
-0.0369975
-0.0384088
-0.0398179
-0.0412245
-0.0426247
-0.0440259
-0.0454269
-0.0468263
-0.0482239
-0.0496201
-0.0510149
-0.0256322
-0.0269737
-0.0283128
-0.0296494
-0.0309837
-0.0323157
-0.0336456
-0.0349734
-0.0362993
-0.0376233
-0.0389455
-0.0402658
-0.041582
-0.0428989
-0.0442158
-0.0455315
-0.0468458
-0.048159
-0.0494712
-0.0256839
-0.0269404
-0.0281949
-0.0294476
-0.0306984
-0.0319476
-0.0331951
-0.034441
-0.0356855
-0.0369285
-0.0381702
-0.0394105
-0.0406489
-0.0418873
-0.0431251
-0.044362
-0.0455979
-0.0468331
-0.0480677
-0.0257624
-0.02694
-0.0281162
-0.029291
-0.0304644
-0.0316366
-0.0328075
-0.0339773
-0.035146
-0.0363137
-0.0374804
-0.0386462
-0.0398108
-0.0409756
-0.0421396
-0.0433027
-0.0444652
-0.0456273
-0.0467891
-0.0258627
-0.0269672
-0.0280706
-0.0291729
-0.0302743
-0.0313748
-0.0324743
-0.033573
-0.0346708
-0.0357679
-0.0368643
-0.0379599
-0.0390549
-0.0401526
-0.0412483
-0.0423424
-0.043436
-0.0445296
-0.0456231
-0.0259819
-0.0270185
-0.0280544
-0.0290896
-0.0301241
-0.031158
-0.0321914
-0.0332242
-0.0342565
-0.0352884
-0.0363199
-0.0373511
-0.0383818
-0.0394099
-0.0404392
-0.0414691
-0.0424989
-0.0435285
-0.0445579
-0.0261158
-0.0270891
-0.028062
-0.0290344
-0.0300064
-0.030978
-0.0319493
-0.0329202
-0.0338907
-0.034861
-0.0358311
-0.0368009
-0.0377704
-0.0387386
-0.0397075
-0.040677
-0.0416464
-0.0426158
-0.043585
-0.0262618
-0.0271762
-0.0280904
-0.0290043
-0.029918
-0.0308315
-0.0317447
-0.0326578
-0.0335708
-0.0344836
-0.0353962
-0.0363088
-0.0372212
-0.0381332
-0.0390456
-0.0399581
-0.0408707
-0.0417833
-0.042696
-0.0264176
-0.027277
-0.0281364
-0.0289956
-0.0298548
-0.0307139
-0.031573
-0.032432
-0.033291
-0.0341499
-0.0350089
-0.0358678
-0.0367267
-0.0375855
-0.0384446
-0.0393038
-0.0401631
-0.0410225
-0.041882
-0.0265813
-0.0273894
-0.0281975
-0.0290057
-0.029814
-0.0306222
-0.0314306
-0.032239
-0.0330474
-0.0338559
-0.0346645
-0.0354732
-0.0362819
-0.0370906
-0.0378998
-0.038709
-0.0395182
-0.0403275
-0.041137
-0.026751
-0.0275111
-0.0282713
-0.0290317
-0.0297922
-0.0305528
-0.0313136
-0.0320745
-0.0328355
-0.0335966
-0.0343578
-0.0351192
-0.0358806
-0.0366422
-0.0374051
-0.0381675
-0.0389297
-0.0396919
-0.0404544
-0.0269258
-0.0276409
-0.0283563
-0.029072
-0.0297878
-0.0305039
-0.0312202
-0.0319366
-0.0326533
-0.0333702
-0.0340872
-0.0348044
-0.0355219
-0.0362394
-0.0369564
-0.0376739
-0.038392
-0.0391103
-0.0398287
-0.0271038
-0.0277769
-0.0284502
-0.0291239
-0.0297978
-0.030472
-0.0311464
-0.0318211
-0.032496
-0.0331711
-0.0338465
-0.034522
-0.0351977
-0.0358736
-0.0365492
-0.0372254
-0.0379019
-0.0385786
-0.0392555
-0.0272843
-0.0279179
-0.0285519
-0.0291862
-0.0298208
-0.0304557
-0.0310909
-0.0317263
-0.032362
-0.0329979
-0.0336341
-0.0342705
-0.0349071
-0.0355439
-0.0361807
-0.0368179
-0.0374552
-0.0380928
-0.0387305
-0.0274663
-0.0280629
-0.0286599
-0.0292573
-0.029855
-0.030453
-0.0310513
-0.0316499
-0.0322487
-0.0328478
-0.0334472
-0.0340468
-0.0346466
-0.0352466
-0.0358468
-0.0364472
-0.0370477
-0.0376485
-0.0382494
-0.0276492
-0.0282111
-0.0287734
-0.029336
-0.029899
-0.0304624
-0.031026
-0.03159
-0.0321543
-0.0327188
-0.0332835
-0.0338485
-0.0344138
-0.0349792
-0.0355448
-0.0361106
-0.0366765
-0.0372426
-0.0378089
-0.0278322
-0.0283615
-0.0288911
-0.0294212
-0.0299516
-0.0304824
-0.0310135
-0.0315449
-0.0320766
-0.0326086
-0.0331408
-0.0336733
-0.034206
-0.0347388
-0.0352719
-0.0358051
-0.0363385
-0.0368721
-0.0374057
-0.0280148
-0.0285134
-0.0290125
-0.0295119
-0.0300118
-0.0305119
-0.0310124
-0.0315133
-0.0320144
-0.0325157
-0.0330174
-0.0335192
-0.0340213
-0.0345235
-0.0350259
-0.0355286
-0.0360314
-0.0365342
-0.0370372
-0.0281964
-0.0286662
-0.0291365
-0.0296071
-0.0300782
-0.0305496
-0.0310213
-0.0314933
-0.0319656
-0.0324382
-0.032911
-0.033384
-0.0338573
-0.0343307
-0.0348043
-0.0352784
-0.0357525
-0.0362264
-0.0367005
-0.0283767
-0.0288195
-0.0292628
-0.0297064
-0.0301504
-0.0305948
-0.0310395
-0.0314845
-0.0319299
-0.0323754
-0.0328212
-0.0332673
-0.0337135
-0.0341599
-0.0346065
-0.0350527
-0.0354993
-0.0359462
-0.0363932
-0.0285549
-0.0289723
-0.0293902
-0.0298084
-0.030227
-0.030646
-0.0310652
-0.0314848
-0.0319047
-0.0323248
-0.0327451
-0.0331657
-0.0335864
-0.0340073
-0.0344284
-0.0348495
-0.0352708
-0.0356921
-0.0361136
-0.0287309
-0.0291245
-0.0295185
-0.0299129
-0.0303076
-0.0307027
-0.0310981
-0.0314938
-0.0318898
-0.032286
-0.0326825
-0.0330791
-0.033476
-0.0338729
-0.0342701
-0.0346673
-0.0350646
-0.035462
-0.0358595
-0.028904
-0.0292752
-0.0296469
-0.0300189
-0.0303912
-0.0307639
-0.0311369
-0.0315102
-0.0318838
-0.0322576
-0.0326316
-0.0330058
-0.0333802
-0.0337547
-0.0341294
-0.0345041
-0.034879
-0.0352539
-0.0356289
-0.029074
-0.0294242
-0.0297749
-0.0301259
-0.0304773
-0.030829
-0.031181
-0.0315332
-0.0318858
-0.0322385
-0.0325915
-0.0329447
-0.033298
-0.0336515
-0.0340051
-0.0343588
-0.0347126
-0.0350664
-0.0354203
-0.0292403
-0.0295709
-0.0299019
-0.0302332
-0.030565
-0.030897
-0.0312293
-0.0315619
-0.0318948
-0.0322278
-0.0325611
-0.0328946
-0.0332282
-0.033562
-0.0338958
-0.0342298
-0.0345638
-0.0348979
-0.035232
-0.0294024
-0.0297147
-0.0300273
-0.0303403
-0.0306537
-0.0309673
-0.0312812
-0.0315954
-0.0319099
-0.0322245
-0.0325394
-0.0328544
-0.0331696
-0.0334849
-0.0338004
-0.0341159
-0.0344314
-0.0347471
-0.0350627
-0.02956
-0.0298551
-0.0301506
-0.0304465
-0.0307426
-0.0310391
-0.0313359
-0.0316329
-0.0319302
-0.0322277
-0.0325253
-0.0328232
-0.0331212
-0.0334193
-0.0337175
-0.0340158
-0.0343141
-0.0346125
-0.0349109
-0.0297125
-0.0299916
-0.0302712
-0.0305511
-0.0308313
-0.0311118
-0.0313926
-0.0316736
-0.0319549
-0.0322364
-0.032518
-0.0327999
-0.0330818
-0.0333639
-0.0336461
-0.0339284
-0.0342107
-0.0344931
-0.0347754
-0.0298592
-0.0301236
-0.0303884
-0.0306534
-0.0309188
-0.0311845
-0.0314505
-0.0317167
-0.0319831
-0.0322497
-0.0325165
-0.0327835
-0.0330506
-0.0333178
-0.0335851
-0.0338525
-0.03412
-0.0343875
-0.034655
-0.0297495
-0.0299998
-0.0302505
-0.0305016
-0.030753
-0.0310046
-0.0312566
-0.0315089
-0.0317613
-0.032014
-0.0322669
-0.03252
-0.0327733
-0.0330266
-0.0332801
-0.0335337
-0.0337874
-0.034041
-0.0342947
-0.0345485
-0.0298957
-0.0301335
-0.0303716
-0.0306101
-0.0308489
-0.031088
-0.0313273