/*--------------------------------*- C++ -*----------------------------------*\
  =========                 |
  \\      /  F ield         | OpenFOAM: The Open Source CFD Toolbox
   \\    /   O peration     | Website:  https://openfoam.org
    \\  /    A nd           | Version:  7
     \\/     M anipulation  |
\*---------------------------------------------------------------------------*/
FoamFile
{
    version     2.0;
    format      ascii;
    class       surfaceScalarField;
    location    "40";
    object      phi;
}
// * * * * * * * * * * * * * * * * * * * * * * * * * * * * * * * * * * * * * //

dimensions      [0 3 -1 0 0 0 0];

internalField   nonuniform List<scalar> 
8882
(
4.78871e-06
-3.11392e-05
1.98906e-05
-0.000128293
-0.000263718
5.0823e-06
-3.62215e-05
2.09572e-05
-0.000144168
4.85763e-05
-0.000291337
8.8557e-05
-0.000477807
-0.00070172
5.37576e-06
-4.15973e-05
2.20094e-05
-0.000160801
5.07274e-05
-0.000320055
9.19663e-05
-0.000519046
0.000145488
-0.000755241
0.000210141
-0.00102339
0.000283759
-0.00131547
-0.0016211
5.66737e-06
-4.72647e-05
2.30403e-05
-0.000178174
5.28034e-05
-0.000349818
9.51943e-05
-0.000561437
0.000149711
-0.000809758
0.000214894
-0.00108858
0.000288268
-0.00138884
0.000366517
-0.00169935
0.000445881
-0.0020081
0.000522702
-0.00230394
0.000593945
-0.00257821
-0.00282572
5.95535e-06
-5.322e-05
2.40429e-05
-0.000196262
5.47888e-05
-0.000380564
9.82147e-05
-0.000604863
0.000153543
-0.000865086
0.000219003
-0.00115404
0.000291831
-0.00146167
0.00036851
-0.00177603
0.000445231
-0.00208482
0.000518453
-0.00237716
0.000585407
-0.00264516
0.000644394
-0.00288471
0.00069485
-0.0030955
0.000737182
-0.00328035
-0.00344411
6.23788e-06
-5.94579e-05
2.50101e-05
-0.000215034
5.66684e-05
-0.000412222
0.000101003
-0.000649197
0.00015695
-0.000921033
0.000222434
-0.00121952
0.000294422
-0.00153366
0.000369239
-0.00185085
0.000443074
-0.00215865
0.000512549
-0.00244664
0.00057518
-0.00270779
0.000629609
-0.00293914
0.000675587
-0.00314148
0.000713761
-0.00331852
0.000745354
-0.0034757
0.000771834
-0.00361901
0.000794643
-0.00375411
0.000815021
-0.00388572
-0.00401733
6.5131e-06
-6.5971e-05
2.5935e-05
-0.000234456
5.84277e-05
-0.000444715
0.000103536
-0.000694305
0.000159905
-0.000977402
0.000225159
-0.00128477
0.000296028
-0.00160452
0.000368716
-0.00192354
0.00043946
-0.0022294
0.00050508
-0.00251226
0.000563394
-0.00276611
0.000613376
-0.00298912
0.000655068
-0.00318317
0.00068932
-0.00335278
0.000717457
-0.00350384
0.000740952
-0.00364251
0.000761192
-0.00377435
0.000779318
-0.00390384
0.000796182
-0.00403419
-0.00416754
0.000812308
6.77914e-06
-7.27501e-05
2.68107e-05
-0.000254487
6.00526e-05
-0.000477957
0.000105792
-0.000740045
0.000162381
-0.00103399
0.000227158
-0.00134955
0.000296642
-0.00167401
0.000366964
-0.00199386
0.000434447
-0.00229688
0.000496143
-0.00257395
0.00055018
-0.00282014
0.000595848
-0.00303479
0.000633452
-0.00322077
0.000664011
-0.00338333
0.000688915
-0.00352874
0.000709623
-0.00366322
0.000727448
-0.00379217
0.000743435
-0.00391983
0.000758333
-0.00404909
-0.00418179
0.000772584
7.03413e-06
-7.97843e-05
2.76307e-05
-0.000275084
6.153e-05
-0.000511856
0.000107754
-0.000786269
0.000164359
-0.0010906
0.000228417
-0.00141361
0.000296269
-0.00174186
0.000364015
-0.0020616
0.000428105
-0.00236097
0.000485842
-0.00263169
0.000535668
-0.00286997
0.000577172
-0.00307629
0.000610889
-0.00325449
0.000637972
-0.00341042
0.000659849
-0.00355062
0.000677944
-0.00368131
0.000693488
-0.00380772
0.000707427
-0.00393377
0.000720419
-0.00406209
-0.0041942
0.000732827
7.27625e-06
-8.70605e-05
2.83885e-05
-0.000296196
6.28481e-05
-0.000546316
0.000109403
-0.000832824
0.000165822
-0.00114701
0.000228929
-0.00147672
0.000294923
-0.00180785
0.000359913
-0.00212659
0.000420508
-0.00242156
0.000474284
-0.00268547
0.000519988
-0.00291567
0.000557487
-0.00311379
0.000587516
-0.00328452
0.000611328
-0.00343423
0.000630366
-0.00356966
0.000646001
-0.00369695
0.000659376
-0.00382109
0.000671343
-0.00394574
0.000682474
-0.00407322
-0.00420479
0.000693064
7.50371e-06
-9.45642e-05
2.90783e-05
-0.000317771
6.39958e-05
-0.000581233
0.000110727
-0.000879555
0.000166761
-0.00120305
0.000228696
-0.00153865
0.000292625
-0.00187178
0.000354706
-0.00218867
0.000411738
-0.0024786
0.000461575
-0.0027353
0.000503263
-0.00295736
0.000536923
-0.00314745
0.000563457
-0.00331105
0.000584191
-0.00345496
0.000600558
-0.00358603
0.000613865
-0.00371025
0.000625167
-0.00383239
0.000635225
-0.00395579
0.000644532
-0.00408252
-0.00421358
0.000653322
7.7148e-06
-0.000102279
2.96946e-05
-0.000339751
6.49637e-05
-0.000616502
0.000111715
-0.000926306
0.000167167
-0.0012585
0.000227722
-0.00159921
0.000289403
-0.00193346
0.00034845
-0.00224772
0.000401877
-0.00253202
0.000447821
-0.00278125
0.000485614
-0.00299515
0.000515603
-0.00317744
0.000538827
-0.00333428
0.000556659
-0.0034728
0.000570505
-0.00359987
0.0005816
-0.00372135
0.000590909
-0.0038417
0.000599108
-0.00396399
0.000606618
-0.00409003
-0.00422058
0.000613623
7.90873e-06
-0.000110188
3.0234e-05
-0.000362076
6.57462e-05
-0.000652015
0.000112361
-0.000972921
0.000167044
-0.00131318
0.000226026
-0.00165819
0.000285298
-0.00199274
0.000341214
-0.00230364
0.000391019
-0.00258183
0.000433135
-0.00282336
0.000467162
-0.00302918
0.000493645
-0.00320392
0.000513735
-0.00335437
0.000528827
-0.00348789
0.000540285
-0.00361133
0.000549267
-0.00373033
0.000556649
-0.00384909
0.000563029
-0.00397037
0.000568765
-0.00409577
-0.00422581
0.000573995
8.08247e-06
-0.00011827
3.06889e-05
-0.000384682
6.63317e-05
-0.000687657
0.000112654
-0.00101924
0.000166385
-0.00136691
0.000223616
-0.00171542
0.000280337
-0.00204946
0.000333047
-0.00235635
0.000379236
-0.00262802
0.000417604
-0.00286173
0.000447998
-0.00305957
0.000471139
-0.00322706
0.00048826
-0.00337149
0.000500759
-0.00350039
0.000509946
-0.00362052
0.000516898
-0.00373728
0.000522409
-0.0038546
0.000527002
-0.00397497
0.00053098
-0.00409975
-0.00422928
0.000534443
8.2354e-06
-0.000126506
3.10571e-05
-0.000407504
6.67173e-05
-0.000723318
0.000112595
-0.00106512
0.0001652
-0.00141952
0.000220518
-0.00177074
0.00027457
-0.00210351
0.000324024
-0.0024058
0.00036662
-0.00267061
0.000401331
-0.00289644
0.00042823
-0.00308647
0.000448187
-0.00324702
0.000462491
-0.00338579
0.000472529
-0.00351043
0.000479548
-0.00362754
0.000484542
-0.00374228
0.000488226
-0.00385828
0.000491058
-0.0039778
0.000493291
-0.00410198
-0.00423098
0.000494992
8.36627e-06
-0.000134872
3.13353e-05
-0.000430473
6.68995e-05
-0.000758882
0.000112182
-0.0011104
0.000163501
-0.00147084
0.000216759
-0.001824
0.000268044
-0.0021548
0.00031421
-0.00245197
0.000353255
-0.00270966
0.000384409
-0.0029276
0.000407951
-0.00311002
0.000424873
-0.00326394
0.000436503
-0.00339742
0.000444197
-0.00351812
0.000449136
-0.00363248
0.000452233
-0.00374537
0.000454127
-0.00386017
0.000455217
-0.00397889
0.000455714
-0.00410248
-0.00423092
0.00045566
8.47398e-06
-0.000143346
3.1521e-05
-0.00045352
6.68761e-05
-0.000794237
0.00011142
-0.00115495
0.000161299
-0.00152072
0.000212369
-0.00187507
0.000260808
-0.00220323
0.000303674
-0.00249483
0.000339221
-0.00274521
0.000366924
-0.0029553
0.000387246
-0.00313034
0.000401275
-0.00327797
0.00041036
-0.00340651
0.000415816
-0.00352358
0.000418752
-0.00363541
0.000420002
-0.00374662
0.000420136
-0.00386031
0.000419499
-0.00397825
0.000418268
-0.00410124
-0.00422912
0.000416463
8.55758e-06
-0.000151903
3.16121e-05
-0.000476575
6.66464e-05
-0.000829271
0.000110313
-0.00119862
0.000158612
-0.00156901
0.000207381
-0.00192383
0.000252913
-0.00224877
0.000292482
-0.0025344
0.000324597
-0.00277732
0.000348959
-0.00297966
0.000366192
-0.00314757
0.000377462
-0.00328924
0.00038412
-0.00341316
0.000387432
-0.00352689
0.000388431
-0.00363641
0.000387876
-0.00374607
0.000386272
-0.0038587
0.000383922
-0.0039759
0.000380968
-0.00409829
-0.00422557
0.000377416
8.6163e-06
-0.00016052
3.16076e-05
-0.000499566
6.62111e-05
-0.000863875
0.000108868
-0.00124127
0.000155459
-0.00161561
0.000201829
-0.0019702
0.000244411
-0.00229135
0.000280701
-0.00257069
0.000309457
-0.00280608
0.00033059
-0.0030008
0.000344862
-0.00316184
0.000353498
-0.00329788
0.000357835
-0.0034175
0.000359084
-0.00352814
0.000358203
-0.00363553
0.000355878
-0.00374374
0.000352557
-0.00385538
0.000348501
-0.00397185
0.000343829
-0.00409362
-0.00422027
0.000338533
8.64952e-06
-0.000169169
3.15067e-05
-0.000522423
6.55724e-05
-0.00089794
0.000107095
-0.0012828
0.00015186
-0.00166037
0.000195749
-0.00201409
0.000235353
-0.00233095
0.000268395
-0.00260373
0.00029387
-0.00283155
0.000311886
-0.00301881
0.00032332
-0.00317328
0.000329437
-0.00330399
0.000331551
-0.00341962
0.000330809
-0.0035274
0.000328096
-0.00363282
0.00032403
-0.00373968
0.000319007
-0.00385036
0.000313252
-0.00396609
0.000306865
-0.00408723
-0.00421323
0.00029983
8.65679e-06
-0.000177826
3.13095e-05
-0.000545076
6.47335e-05
-0.000931364
0.000105004
-0.00132307
0.000147839
-0.0017032
0.000189181
-0.00205544
0.00022579
-0.00236756
0.000255624
-0.00263357
0.000277905
-0.00285383
0.000292912
-0.00303382
0.000301625
-0.00318199
0.000305329
-0.0033077
0.000305306
-0.00341959
0.000302637
-0.00352473
0.000298134
-0.00362831
0.000292351
-0.00373389
0.000285637
-0.00384365
0.000278189
-0.00395864
0.000270088
-0.00407913
-0.00420446
0.000261319
8.63785e-06
-0.000186464
3.10165e-05
-0.000567454
6.3699e-05
-0.000964047
0.000102609
-0.00136198
0.00014342
-0.00174402
0.00018216
-0.00209418
0.000215774
-0.00240118
0.000242449
-0.00266024
0.000261621
-0.002873
0.000273729
-0.00304593
0.00027983
-0.00318809
0.00028122
-0.00330909
0.000279137
-0.00341751
0.000274596
-0.00352019
0.000268338
-0.00362206
0.000260859
-0.00372642
0.000252464
-0.00383525
0.000243324
-0.0039495
0.000233512
-0.00406932
-0.00419396
0.000223012
8.59256e-06
-0.000195056
3.06291e-05
-0.000589491
6.24744e-05
-0.000995892
9.9922e-05
-0.00139942
0.000138628
-0.00178272
0.000174725
-0.00213027
0.000205353
-0.0024318
0.000228924
-0.00268381
0.000245077
-0.00288916
0.00025439
-0.00305524
0.000257983
-0.00319168
0.000257148
-0.00330825
0.000253075
-0.00341344
0.00024671
-0.00351382
0.000238729
-0.00361408
0.000229569
-0.00371726
0.0002195
-0.00382518
0.000208672
-0.00393868
0.000197149
-0.0040578
-0.00418174
0.000184922
8.52096e-06
-0.000203577
3.01488e-05
-0.000611119
6.10662e-05
-0.00102681
9.6959e-05
-0.00143532
0.00013349
-0.00181925
0.000166915
-0.0021637
0.000194574
-0.00245946
0.000215102
-0.00270434
0.000228326
-0.00290238
0.000234945
-0.00306186
0.000236127
-0.00319286
0.000233148
-0.00330527
0.000227147
-0.00340743
0.000219002
-0.00350568
0.000209323
-0.0036044
0.000198497
-0.00370643
0.00018676
-0.00381344
0.000174243
-0.00392616
0.000161008
-0.00404456
-0.00416779
0.000147058
8.42327e-06
-0.000212001
2.95778e-05
-0.000632273
5.94816e-05
-0.00105671
9.37357e-05
-0.00146957
0.000128033
-0.00185355
0.000158767
-0.00219443
0.000183484
-0.00248418
0.000201034
-0.00272189
0.000211418
-0.00291277
0.000215439
-0.00306588
0.000214299
-0.00319172
0.000209252
-0.00330023
0.000201379
-0.00339956
0.000191491
-0.00349579
0.000180137
-0.00359304
0.000167657
-0.00369395
0.000154255
-0.00380004
0.000140048
-0.00391195
0.000125101
-0.00402961
-0.00415211
0.000109418
8.29978e-06
-0.0002203
2.89189e-05
-0.000652892
5.77287e-05
-0.00108552
9.02683e-05
-0.00150211
0.000122282
-0.00188556
0.000150316
-0.00222247
0.000172124
-0.00250599
0.000186765
-0.00273653
0.000194396
-0.0029204
0.000195912
-0.0030674
0.000192535
-0.00318835
0.000185487
-0.00329318
0.000175791
-0.00338986
0.000164194
-0.00348419
0.000151186
-0.00358003
0.000137064
-0.00367983
0.000122001
-0.00378498
0.000106101
-0.00389605
8.94355e-05
-0.00401295
-0.00413466
7.19902e-05
8.15099e-06
-0.000228451
2.81749e-05
-0.000672916
5.5816e-05
-0.00111316
8.65738e-05
-0.00153287
0.000116264
-0.00191525
0.000141598
-0.0022478
0.000160538
-0.00252493
0.000172338
-0.00274833
0.000177304
-0.00292536
0.000176402
-0.00306649
0.000170865
-0.00318281
0.000161878
-0.00328419
0.000150404
-0.00337839
0.000137128
-0.00347092
0.000122484
-0.00356539
0.000106731
-0.00366408
9.00161e-05
-0.00376827
7.24305e-05
-0.00387847
5.40212e-05
-0.00399454
-0.00411538
3.47444e-05
7.97746e-06
-0.000236429
2.73493e-05
-0.000692288
5.37524e-05
-0.00113957
8.26691e-05
-0.00156178
0.000110006
-0.00194259
0.000132647
-0.00227044
0.000148763
-0.00254104
0.000157795
-0.00275736
0.000160178
-0.00292775
0.000156941
-0.00306326
0.000149316
-0.00317518
0.000138447
-0.00327332
0.000125236
-0.00336518
0.000110307
-0.00345599
9.40451e-05
-0.00354913
7.66725e-05
-0.0036467
5.83183e-05
-0.00374991
3.90749e-05
-0.00385922
1.89148e-05
-0.00397438
-0.00409358
-2.89094e-06
7.7799e-06
-0.000244209
2.64457e-05
-0.000710954
5.15473e-05
-0.00116467
7.85715e-05
-0.00158881
0.000103532
-0.00196755
0.000123495
-0.0022904
0.000136835
-0.00255438
0.00014317
-0.0027637
0.000143053
-0.00292763
0.000137559
-0.00305776
0.000127912
-0.00316554
0.000115212
-0.00326062
0.0001003
-0.00335027
8.37432e-05
-0.00343943
6.58799e-05
-0.00353126
4.68991e-05
-0.00362772
2.69144e-05
-0.00372993
6.01058e-06
-0.00383832
-1.57485e-05
-0.00395262
-0.00407094
-3.83816e-05
7.55909e-06
-0.000251768
2.5468e-05
-0.000728863
4.92103e-05
-0.00118841
7.42981e-05
-0.0016139
9.68679e-05
-0.00199012
0.000114173
-0.00230771
0.00012479
-0.002565
0.0001285
-0.00276741
0.000125959
-0.00292509
0.000118283
-0.00305009
0.000106676
-0.00315393
9.21906e-05
-0.00324614
7.56114e-05
-0.00333369
5.74494e-05
-0.00342127
3.79996e-05
-0.00351181
1.74205e-05
-0.00360714
-4.19067e-06
-0.00370832
-2.67448e-05
-0.00381577
-5.02107e-05
-0.00392915
-0.00404673
-7.44272e-05
7.31592e-06
-0.000259084
2.44203e-05
-0.000745967
4.6751e-05
-0.00121074
6.98658e-05
-0.00163701
9.00377e-05
-0.00201029
0.000104712
-0.00232238
0.000112658
-0.00257295
0.000113814
-0.00276857
0.000108926
-0.0029202
9.91351e-05
-0.0030403
8.56253e-05
-0.00314042
6.93986e-05
-0.00322991
5.11823e-05
-0.00331547
3.1436e-05
-0.00340152
1.04139e-05
-0.00349079
-1.17525e-05
-0.00358498
-3.49804e-05
-0.00368509
-5.91902e-05
-0.00379156
-8.43107e-05
-0.00390403
-0.000110238
7.05135e-06
-0.000266135
2.33069e-05
-0.000762223
4.41793e-05
-0.00123161
6.52912e-05
-0.00165812
8.30642e-05
-0.00202807
9.51375e-05
-0.00233446
0.00010047
-0.00257828
9.91413e-05
-0.00276724
9.19779e-05
-0.00291304
8.0138e-05
-0.00302846
6.47779e-05
-0.00312506
4.68492e-05
-0.00321198
2.70238e-05
-0.00329565
5.71241e-06
-0.00338021
-1.68668e-05
-0.00346821
-4.06105e-05
-0.00356123
-6.54512e-05
-0.00366025
-9.13097e-05
-0.0037657
6.76638e-06
-0.000272902
2.2132e-05
-0.000777588
4.1505e-05
-0.00125099
6.05904e-05
-0.00167721
7.59695e-05
-0.00204344
8.54765e-05
-0.00234396
8.82517e-05
-0.00258105
8.45078e-05
-0.00276349
7.51382e-05
-0.00290367
6.13102e-05
-0.00301463
4.41487e-05
-0.0031079
2.45543e-05
-0.00319239
3.14517e-06
-0.00327424
-1.97109e-05
-0.00335735
-4.38337e-05
-0.00344409
-6.91438e-05
-0.00353592
-9.55896e-05
6.4621e-06
-0.000279364
2.09002e-05
-0.000792026
3.87378e-05
-0.00126883
5.57794e-05
-0.00169425
6.87748e-05
-0.00205644
7.57533e-05
-0.00235094
7.60295e-05
-0.00258133
6.99372e-05
-0.0027574
5.84272e-05
-0.00289216
4.26685e-05
-0.00299887
2.3751e-05
-0.00308898
2.52401e-06
-0.00317116
-2.04425e-05
-0.00325127
-4.48266e-05
-0.00333297
-7.04781e-05
-0.00341844
6.13961e-06
-0.000285503
1.96158e-05
-0.000805503
3.58871e-05
-0.0012851
5.08731e-05
-0.00170924
6.15001e-05
-0.00206707
6.59907e-05
-0.00235543
6.38261e-05
-0.00257917
5.54508e-05
-0.00274903
4.18634e-05
-0.00287857
2.42279e-05
-0.00298123
3.59665e-06
-0.00306835
-1.92302e-05
-0.00314833
-4.37328e-05
-0.00322677
-6.96266e-05
-0.00330708
5.80007e-06
-0.000291303
1.82834e-05
-0.000817986
3.29624e-05
-0.00129978
4.58864e-05
-0.00172216
5.4164e-05
-0.00207534
5.62097e-05
-0.00235748
5.16627e-05
-0.00257462
4.10682e-05
-0.00273843
2.54633e-05
-0.00286296
6.00173e-06
-0.00296177
-1.63034e-05
-0.00304605
-4.07017e-05
-0.00312393
-6.6718e-05
-0.00320075
5.44465e-06
-0.000296748
1.69073e-05
-0.000829449
2.99729e-05
-0.00131284
4.08331e-05
-0.00173302
4.67846e-05
-0.0020813
4.643e-05
-0.00235712
3.95589e-05
-0.00256775
2.68068e-05
-0.00272568
9.2416e-06
-0.0028454
-1.19982e-05
-0.00294053
-3.59405e-05
-0.0030221
-6.18825e-05
-0.00309799
5.07453e-06
-0.000301823
1.54921e-05
-0.000839866
2.69273e-05
-0.00132428
3.57267e-05
-0.00174182
3.93785e-05
-0.00208495
3.66699e-05
-0.00235441
2.75324e-05
-0.00255861
1.26824e-05
-0.00271083
-6.78839e-06
-0.00282593
-2.97615e-05
-0.00291756
-5.53061e-05
-0.00299656
4.69094e-06
-0.000306513
1.40421e-05
-0.000849217
2.38343e-05
-0.00133407
3.05798e-05
-0.00174857
3.19614e-05
-0.00208633
2.69463e-05
-0.0023494
1.55995e-05
-0.00254726
-1.28845e-06
-0.00269394
-2.26149e-05
-0.0028046
-4.72789e-05
-0.0028929
4.29512e-06
-0.000310809
1.25615e-05
-0.000857484
2.07022e-05
-0.00134221
2.54046e-05
-0.00175327
2.45479e-05
-0.00208547
1.72747e-05
-0.00234213
3.77625e-06
-0.00253377
-1.50991e-05
-0.00267507
-3.8228e-05
-0.00278147
3.88836e-06
-0.000314697
1.10545e-05
-0.00086465
1.7539e-05
-0.00134869
2.02125e-05
-0.00175594
1.7152e-05
-0.00208241
7.66931e-06
-0.00233264
-7.92843e-06
-0.00251817
-2.87321e-05
-0.00265426
3.47207e-06
-0.000318169
9.52544e-06
-0.000870703
1.43523e-05
-0.00135352
1.50145e-05
-0.0017566
9.78652e-06
-0.00207718
-1.84966e-06
-0.00232101
-1.94977e-05
-0.00250052
3.04786e-06
-0.000321217
7.97829e-06
-0.000875634
1.11493e-05
-0.00135669
9.82074e-06
-0.00175527
2.46878e-06
-0.00206983
-1.12925e-05
-0.00230725
2.61716e-06
-0.000323834
6.41712e-06
-0.000879434
7.93828e-06
-0.00135821
4.63876e-06
-0.00175198
-4.80789e-06
-0.00206039
2.18044e-06
-0.000326014
4.84511e-06
-0.000882098
4.72686e-06
-0.00135809
-4.84612e-07
-0.00174676
-0.00204885
1.73883e-06
-0.000327753
3.26592e-06
-0.000883625
1.51677e-06
-0.00135635
-5.64956e-06
-0.0017396
1.29302e-06
-0.000329046
1.68174e-06
-0.000884014
-1.68849e-06
-0.00135298
8.41983e-07
-0.000329888
9.46127e-08
-0.000883267
-0.001348
3.70425e-07
-0.000330259
-1.49389e-06
-0.000881402
-1.26919e-07
-0.000330132
-0.000329587
0.000329521
0.000330066
-1.26518e-07
0.000330192
0.000881234
3.70853e-07
0.000329821
-1.49216e-06
0.000883097
0.00134775
8.42345e-07
0.000328979
9.63134e-08
0.000883843
0.00135273
1.29336e-06
0.000327686
1.6834e-06
0.000883453
-1.6844e-06
0.00135609
0.00173929
1.73915e-06
0.000325947
3.26754e-06
0.000881924
1.52079e-06
0.00135784
-5.64218e-06
0.00174646
0.00204851
2.18075e-06
0.000323766
4.84669e-06
0.000879258
4.7309e-06
0.00135796
-4.76791e-07
0.00175166
-1.20042e-05
0.00206004
0.00229107
2.61744e-06
0.000321148
6.41864e-06
0.000875457
7.94221e-06
0.00135643
4.64613e-06
0.00175496
-4.79609e-06
0.00206948
0.00230688
3.04811e-06
0.0003181
7.97973e-06
0.000870525
1.11532e-05
0.00135326
9.8281e-06
0.00175628
2.48055e-06
0.00207683
-1.12757e-05
0.00232064
0.00250015
3.47229e-06
0.000314628
9.52679e-06
0.000864471
1.4356e-05
0.00134843
1.50217e-05
0.00175562
9.79837e-06
0.00208205
-1.83269e-06
0.00233227
-1.94756e-05
0.00251779
0.00265388
3.88855e-06
0.000310739
1.10558e-05
0.000857304
1.75426e-05
0.00134194
2.02196e-05
0.00175294
1.71638e-05
0.00208511
7.68632e-06
0.00234175
-7.90602e-06
0.00253338
-2.87045e-05
0.00267468
0.0027811
4.29526e-06
0.000306444
1.25626e-05
0.000849036
2.07057e-05
0.0013338
2.54116e-05
0.00174824
2.45596e-05
0.00208596
1.72918e-05
0.00234901
3.79891e-06
0.00254687
-1.5071e-05
0.00269355
-3.81947e-05
0.00280422
0.00289252
4.69104e-06
0.000301753
1.40431e-05
0.000839684
2.38376e-05
0.00132401
3.05867e-05
0.00174149
3.1973e-05
0.00208458
2.69634e-05
0.00235402
1.56224e-05
0.00255821
-1.25987e-06
0.00271043
-2.2581e-05
0.00282554
-4.724e-05
0.00291718
0.00299618
5.07458e-06
0.000296679
1.5493e-05
0.000829266
2.69303e-05
0.00131257
3.57333e-05
0.00173268
3.939e-05
0.00208092
3.6687e-05
0.00235673
2.75554e-05
0.00256735
1.27113e-05
0.00272528
-6.7539e-06
0.00284501
-2.97218e-05
0.00294015
-5.52617e-05
0.00302172
0.00309762
5.44465e-06
0.000291234
1.69081e-05
0.000817802
2.99757e-05
0.0012995
4.08395e-05
0.00172182
4.67958e-05
0.00207496
4.6447e-05
0.00235708
3.9582e-05
0.00257421
2.6836e-05
0.00273802
9.27664e-06
0.00286257
-1.19578e-05
0.00296138
-3.58951e-05
0.00304566
-6.18323e-05
0.00312355
0.00320038
5.80002e-06
0.000285434
1.8284e-05
0.000805318
3.2965e-05
0.00128482
4.58924e-05
0.00170889
5.4175e-05
0.00206668
5.62265e-05
0.00235502
5.16859e-05
0.00257875
4.10977e-05
0.00274861
2.54988e-05
0.00287816
6.04288e-06
0.00298084
-1.62571e-05
0.00306796
-4.06505e-05
0.00314795
-6.66621e-05
0.00322639
0.0033067
6.1395e-06
0.000279294
1.96162e-05
0.000791842
3.58893e-05
0.00126855
5.08788e-05
0.0016939
6.15106e-05
0.00205605
6.60072e-05
0.00235053
6.38492e-05
0.00258091
5.54805e-05
0.00275698
4.18994e-05
0.00289175
2.42697e-05
0.00299847
3.64391e-06
0.00308859
-1.91778e-05
0.00317077
-4.36757e-05
0.00325089
-6.95647e-05
0.00333259
0.00341806
6.46193e-06
0.000272832
2.09004e-05
0.000777403
3.87397e-05
0.00125071
5.57846e-05
0.00167686
6.8785e-05
0.00204305
7.57696e-05
0.00234354
7.60525e-05
0.00258063
6.9967e-05
0.00276307
5.84636e-05
0.00290325
4.2711e-05
0.00301422
2.37991e-05
0.0031075
2.57742e-06
0.00319199
-2.03841e-05
0.00327385
-4.47633e-05
0.00335697
-7.041e-05
0.00344371
0.00353555
6.76614e-06
0.000266066
2.2132e-05
0.000762037
4.15065e-05
0.00123133
6.05952e-05
0.00165777
7.59792e-05
0.00202766
8.54924e-05
0.00233403
8.82745e-05
0.00257784
8.45376e-05
0.0027668
7.51749e-05
0.00291261
6.13532e-05
0.00302804
4.41976e-05
0.00312465
2.46087e-05
0.00321158
3.2048e-06
0.00329525
-1.96463e-05
0.00337982
-4.3764e-05
0.00346783
-6.90691e-05
0.00356085
-9.55098e-05
0.00365987
0.00376533
7.05104e-06
0.000259015
2.33067e-05
0.000745782
4.41804e-05
0.00121046
6.52953e-05
0.00163665
8.30732e-05
0.00200989
9.51528e-05
0.00232195
0.000100492
0.00257251
9.9171e-05
0.00276813
9.20148e-05
0.00291977
8.01815e-05
0.00303987
6.48276e-05
0.00314001
4.69046e-05
0.0032295
2.70846e-05
0.00331507
5.77847e-06
0.00340112
-1.67956e-05
0.0034904
-4.05341e-05
0.00358459
-6.53696e-05
0.00368471
-9.12227e-05
0.00379118
0.00390366
7.31554e-06
0.0002517
2.44199e-05
0.000728677
4.67517e-05
0.00118813
6.98694e-05
0.00161354
9.0046e-05
0.00198971
0.000104727
0.00230727
0.00011268
0.00256455
0.000113844
0.00276696
0.000108963
0.00292465
9.9179e-05
0.00304966
8.56757e-05
0.00315351
6.9455e-05
0.00324572
5.12443e-05
0.00333328
3.15034e-05
0.00342087
1.04867e-05
0.00351142
-1.16743e-05
0.00360675
-3.48967e-05
0.00370793
-5.91011e-05
0.00381538
-8.4216e-05
0.00392878
0.00404636
-0.000110138
7.55863e-06
0.000244141
2.54673e-05
0.000710769
4.92104e-05
0.00116438
7.4301e-05
0.00158845
9.68755e-05
0.00196714
0.000114187
0.00228996
0.000124811
0.00255393
0.000128529
0.00276324
0.000125996
0.00292718
0.000118327
0.00305733
0.000106727
0.00316511
9.22478e-05
0.0032602
7.56745e-05
0.00334986
5.75181e-05
0.00343902
3.80738e-05
0.00353086
1.75004e-05
0.00362732
-4.10519e-06
0.00372953
-2.66536e-05
0.00383793
-5.01138e-05
0.00395224
0.00407057
-7.43232e-05
7.77936e-06
0.000236362
2.64447e-05
0.000692103
5.15469e-05
0.00113928
7.85737e-05
0.00156142
0.000103539
0.00194217
0.000123508
0.00226999
0.000136856
0.00254058
0.000143199
0.0027569
0.00014309
0.00292729
0.000137604
0.00306281
0.000127964
0.00317475
0.00011527
0.0032729
0.000100364
0.00336476
8.38132e-05
0.00345557
6.59557e-05
0.00354872
4.69807e-05
0.0036463
2.70018e-05
0.00374951
6.10402e-06
0.00385883
-1.56489e-05
0.00397399
0.00409319
-3.82743e-05
7.97684e-06
0.000228385
2.7348e-05
0.000672732
5.37515e-05
0.00111288
8.26705e-05
0.0015325
0.000110011
0.00191483
0.000132659
0.00224734
0.000148782
0.00252446
0.000157823
0.00274786
0.000160215
0.0029249
0.000156986
0.00306604
0.000149368
0.00318237
0.000138505
0.00328376
0.000125301
0.00337797
0.000110378
0.0034705
9.41223e-05
0.00356497
7.67556e-05
0.00366367
5.84075e-05
0.00376786
3.91701e-05
0.00387807
1.90148e-05
0.00399415
0.004115
-2.79423e-06
8.15028e-06
0.000220235
2.81733e-05
0.000652709
5.58145e-05
0.00108524
8.65743e-05
0.00150174
0.000116269
0.00188513
0.000141609
0.002222
0.000160557
0.00250551
0.000172366
0.00273605
0.00017734
0.00291992
0.000176447
0.00306693
0.000170917
0.0031879
0.000161938
0.00329274
0.000150471
0.00338943
0.0001372
0.00348377
0.000122563
0.00357961
0.000106816
0.00367941
9.01072e-05
0.00378457
7.25279e-05
0.00389565
5.41255e-05
0.00401255
0.00413427
3.48603e-05
8.29899e-06
0.000211936
2.89169e-05
0.000632091
5.77266e-05
0.00105643
9.02678e-05
0.0014692
0.000122285
0.00185312
0.000150325
0.00219396
0.000172142
0.00248369
0.000186791
0.0027214
0.000194432
0.00291228
0.000195957
0.00306541
0.000192588
0.00319127
0.000185547
0.00329978
0.000175858
0.00339912
0.000164268
0.00349536
0.000151266
0.00359261
0.00013715
0.00369353
0.000122094
0.00379962
0.000106201
0.00391154
8.95427e-05
0.00402921
0.00415171
7.21049e-05
8.42238e-06
0.000203513
2.95756e-05
0.000610938
5.94789e-05
0.00102652
9.37342e-05
0.00143494
0.000128035
0.00181882
0.000158775
0.00216322
0.0001835
0.00245897
0.000201059
0.00270384
0.000211452
0.00290189
0.000215483
0.00306138
0.000214352
0.0031924
0.000209313
0.00330482
0.000201446
0.00340699
0.000191565
0.00350524
0.000180218
0.00360396
0.000167745
0.003706
0.00015435
0.00381302
0.00014015
0.00392574
0.00012521
0.00404415
0.00416738
0.000109534
8.51999e-06
0.000194993
3.01462e-05
0.000589312
6.10627e-05
0.000995608
9.69565e-05
0.00139905
0.000133491
0.00178228
0.000166922
0.00212979
0.000194589
0.0024313
0.000215126
0.00268331
0.00022836
0.00288866
0.000234988
0.00305475
0.000236179
0.00319121
0.000233209
0.00330779
0.000227215
0.00341298
0.000219078
0.00351338
0.000209405
0.00361363
0.000198586
0.00371682
0.000186856
0.00382475
0.000174347
0.00393825
0.000161119
0.00405737
0.00418132
0.000147176
8.59149e-06
0.000186402
3.06261e-05
0.000567277
6.24702e-05
0.000963764
9.99182e-05
0.0013616
0.000138628
0.00174357
0.00017473
0.00209369
0.000205366
0.00240066
0.000228946
0.00265973
0.00024511
0.00287249
0.000254432
0.00304543
0.000258035
0.00318761
0.000257209
0.00330862
0.000253143
0.00341705
0.000246787
0.00351973
0.000238812
0.00362161
0.00022966
0.00372597
0.000219598
0.00383481
0.000208777
0.00394907
0.000197261
0.00406889
0.00419354
0.000185043
8.63669e-06
0.000177765
3.10133e-05
0.000544901
6.3694e-05
0.000931083
0.000102604
0.00132269
0.000143417
0.00170276
0.000182163
0.00205494
0.000215785
0.00236704
0.000242469
0.00263304
0.000261652
0.00285331
0.00027377
0.00303331
0.000279882
0.00318149
0.000281281
0.00330722
0.000279206
0.00341912
0.000274673
0.00352427
0.000268423
0.00362786
0.000260951
0.00373344
0.000252563
0.0038432
0.000243431
0.0039582
0.000233627
0.00407869
0.00420403
0.000223135
8.65554e-06
0.00016911
3.13058e-05
0.00052225
6.47278e-05
0.000897661
0.000104998
0.00128242
0.000147835
0.00165992
0.000189182
0.00201359
0.000225799
0.00233042
0.000255643
0.0026032
0.000277934
0.00283102
0.000292952
0.00301829
0.000301676
0.00317277
0.00030539
0.0033035
0.000305375
0.00341914
0.000302714
0.00352693
0.000298219
0.00363235
0.000292444
0.00373922
0.000285738
0.00384991
0.000278297
0.00396564
0.000270205
0.00408679
0.0042128
0.000261444
8.64818e-06
0.000160461
3.15027e-05
0.000499396
6.55658e-05
0.000863598
0.000107088
0.0012409
0.000151854
0.00161516
0.000195748
0.0019697
0.000235359
0.00229081
0.000268411
0.00257014
0.000293898
0.00280553
0.000311924
0.00300026
0.000323369
0.00316133
0.000329496
0.00329737
0.00033162
0.00341701
0.000330887
0.00352766
0.000328182
0.00363506
0.000324124
0.00374328
0.000319109
0.00385492
0.000313362
0.00397139
0.000306984
0.00409317
0.00421982
0.000299957
8.61487e-06
0.000151847
3.16032e-05
0.000476408
6.62038e-05
0.000828997
0.00010886
0.00119824
0.000155451
0.00156856
0.000201825
0.00192333
0.000244414
0.00224822
0.000280715