/*--------------------------------*- C++ -*----------------------------------*\
  =========                 |
  \\      /  F ield         | OpenFOAM: The Open Source CFD Toolbox
   \\    /   O peration     | Website:  https://openfoam.org
    \\  /    A nd           | Version:  7
     \\/     M anipulation  |
\*---------------------------------------------------------------------------*/
FoamFile
{
    version     2.0;
    format      ascii;
    class       surfaceScalarField;
    location    "120";
    object      phi;
}
// * * * * * * * * * * * * * * * * * * * * * * * * * * * * * * * * * * * * * //

dimensions      [0 3 -1 0 0 0 0];

internalField   nonuniform List<scalar> 
72657
(
-6.70391e-07
-4.30157e-05
4.36861e-05
-2.72295e-06
-0.00012316
0.000125213
-6.26099e-06
-0.000199989
0.000203527
-1.13672e-05
-0.000272358
0.000277464
-1.80817e-05
-0.000339443
0.000346158
-2.63886e-05
-0.000400871
0.000409178
-3.62117e-05
-0.000456745
0.000466568
-4.74198e-05
-0.000507637
0.000518845
-5.98398e-05
-0.000554511
0.000566931
-7.3275e-05
-0.000598586
0.000612022
-8.7527e-05
-0.000641184
0.000655436
-0.000102415
-0.000683575
0.000698462
-0.00011779
-0.000726849
0.000742225
-0.000133546
-0.000771838
0.000787594
-0.000149613
-0.000819069
0.000835136
-0.000165952
-0.000868757
0.000885095
-0.000182535
-0.000920814
0.000937397
-0.000199332
-0.000974863
0.00099166
-0.000216292
-0.00103022
0.00104718
-0.00108582
0.00110289
-0.000233367
-8.71803e-07
-4.21439e-05
-3.44452e-06
-0.000120587
-7.7635e-06
-0.00019567
-1.38592e-05
-0.000266262
-2.17264e-05
-0.000331576
-3.13113e-05
-0.000391286
-4.2509e-05
-0.000445547
-5.51695e-05
-0.000494977
-6.91119e-05
-0.000540569
-8.41429e-05
-0.000583555
-0.000100078
-0.000625249
-0.000116761
-0.000666892
-0.000134078
-0.000709532
-0.000151966
-0.00075395
-0.000170408
-0.000800627
-0.000189422
-0.000849742
-0.000209044
-0.000901192
-0.000229303
-0.000954604
-0.000250199
-0.00100933
-0.00106429
-0.000271722
-1.07227e-06
-4.10716e-05
-4.15913e-06
-0.0001175
-9.24501e-06
-0.000190585
-1.63059e-05
-0.000259202
-2.52896e-05
-0.000322592
-3.6104e-05
-0.000380472
-4.86149e-05
-0.000433036
-6.26538e-05
-0.000480938
-7.80313e-05
-0.000525191
-9.45565e-05
-0.00056703
-0.000112057
-0.000607748
-0.000130399
-0.00064855
-0.0001495
-0.000690431
-0.000169335
-0.000734115
-0.000189935
-0.000780026
-0.000211375
-0.000828302
-0.000233749
-0.000878818
-0.000257146
-0.000931207
-0.000281615
-0.000984856
-0.00103872
-0.000307186
-1.26987e-06
-3.98018e-05
-4.86027e-06
-0.00011391
-1.06926e-05
-0.000184752
-1.8687e-05
-0.000251207
-2.87435e-05
-0.000312536
-4.0731e-05
-0.000368484
-5.44866e-05
-0.00041928
-6.98226e-05
-0.000465602
-8.65412e-05
-0.000508473
-0.000104452
-0.000549119
-0.000123394
-0.000588807
-0.00014325
-0.000628693
-0.000163965
-0.000669717
-0.000185548
-0.000712532
-0.000208073
-0.000757501
-0.000231665
-0.00080471
-0.000256475
-0.000854008
-0.000282649
-0.000905033
-0.000310289
-0.000957217
-0.00100955
-0.000339461
-1.46267e-06
-3.83391e-05
-5.5415e-06
-0.000109831
-1.20938e-05
-0.0001782
-2.09829e-05
-0.000242318
-3.20611e-05
-0.000301458
-4.51586e-05
-0.000355387
-6.00834e-05
-0.000404356
-7.66292e-05
-0.000449056
-9.4589e-05
-0.000490513
-0.000113772
-0.000529936
-0.000134024
-0.000568555
-0.000155243
-0.000607475
-0.000177393
-0.000647566
-0.000200514
-0.000689412
-0.000224715
-0.0007333
-0.000250166
-0.00077926
-0.00027707
-0.000827104
-0.000305631
-0.000876473
-0.000336
-0.000926848
-0.000977266
-0.000368285
-1.64876e-06
-3.66903e-05
-6.19644e-06
-0.000105284
-1.34361e-05
-0.00017096
-2.31748e-05
-0.000232579
-3.52167e-05
-0.000289416
-4.9354e-05
-0.000341249
-6.53666e-05
-0.000388343
-8.30294e-05
-0.000431393
-0.000102125
-0.000471417
-0.000122462
-0.000509599
-0.000143889
-0.000547128
-0.000166313
-0.000585051
-0.000189714
-0.000624165
-0.000214152
-0.000664973
-0.000239768
-0.000707685
-0.000266768
-0.000752259
-0.000295405
-0.000798467
-0.000325935
-0.000845943
-0.000358564
-0.000894219
-0.000942395
-0.000393435
-1.82627e-06
-3.48641e-05
-6.819e-06
-0.000100291
-1.4708e-05
-0.000163071
-2.52444e-05
-0.000222043
-3.81856e-05
-0.000276475
-5.32866e-05
-0.000326148
-7.02997e-05
-0.00037133
-8.89815e-05
-0.000412711
-0.000109105
-0.000451294
-0.000130472
-0.000488231
-0.000152934
-0.000524667
-0.000176402
-0.000561583
-0.000200865
-0.000599702
-0.000226395
-0.000639442
-0.000253155
-0.000680925
-0.000281383
-0.000724032
-0.000311373
-0.000768476
-0.000343434
-0.000813881
-0.000377824
-0.000859829
-0.00090549
-0.000414728
-1.99346e-06
-3.28706e-05
-7.40335e-06
-9.48809e-05
-1.58979e-05
-0.000154577
-2.71743e-05
-0.000210767
-4.09443e-05
-0.000262705
-5.69268e-05
-0.000310166
-7.48481e-05
-0.000353409
-9.44467e-05
-0.000393113
-0.000115484
-0.000430257
-0.000137756
-0.000465959
-0.000161111
-0.000501312
-0.00018546
-0.000537234
-0.000210792
-0.00057437
-0.000237185
-0.000613049
-0.000264813
-0.000653297
-0.000293938
-0.000694907
-0.000324889
-0.000737524
-0.000358026
-0.000780745
-0.00039366
-0.000824196
-0.00086713
-0.000432019
-2.14864e-06
-3.0722e-05
-7.94397e-06
-8.90856e-05
-1.69953e-05
-0.000145525
-2.8948e-05
-0.000198814
-4.347e-05
-0.000248183
-6.02467e-05
-0.000293389
-7.8979e-05
-0.000334676
-9.93878e-05
-0.000372704
-0.000121222
-0.000408422
-0.000144272
-0.00044291
-0.000168376
-0.000477208
-0.00019344
-0.00051217
-0.000219448
-0.000548363
-0.000246474
-0.000586023
-0.000274692
-0.000625079
-0.000304377
-0.000665222
-0.00033589
-0.000706011
-0.000369635
-0.000747
-0.000405978
-0.000787853
-0.00082791
-0.000445198
-2.29018e-06
-2.84318e-05
-8.43535e-06
-8.29404e-05
-1.79895e-05
-0.000135971
-3.05492e-05
-0.000186254
-4.57414e-05
-0.000232991
-6.32197e-05
-0.000275911
-8.26613e-05
-0.000315235
-0.00010377
-0.000351595
-0.000126283
-0.000385909
-0.000149978
-0.000419215
-0.000174686
-0.000452499
-0.000200301
-0.000486555
-0.000226792
-0.000521871
-0.00025422
-0.000558595
-0.000282751
-0.000596548
-0.000312661
-0.000635312
-0.00034433
-0.000674342
-0.000378206
-0.000713125
-0.000414713
-0.000751345
-0.000788438
-0.000454185
-2.41643e-06
-2.60153e-05
-8.8723e-06
-7.64846e-05
-1.88705e-05
-0.000125973
-3.19627e-05
-0.000173162
-4.77381e-05
-0.000217215
-6.58207e-05
-0.000257828
-8.58655e-05
-0.00029519
-0.00010756
-0.000329901
-0.000130627
-0.000362842
-0.000154836
-0.000395006
-0.000180001
-0.000427334
-0.000206001
-0.000460555
-0.000232785
-0.000495088
-0.000260388
-0.000530991
-0.000288957
-0.00056798
-0.000318757
-0.000605512
-0.000350178
-0.00064292
-0.000383703
-0.0006796
-0.000419821
-0.000715228
-0.00074933
-0.000458928
-2.52585e-06
-2.34895e-05
-9.24986e-06
-6.97606e-05
-1.96291e-05
-0.000115594
-3.31746e-05
-0.000159616
-4.94412e-05
-0.000200949
-6.80263e-05
-0.000239243
-8.85639e-05
-0.000274652
-0.000110725
-0.00030774
-0.000134222
-0.000339345
-0.000158807
-0.000370421
-0.000184282
-0.000401859
-0.000210503
-0.000434334
-0.000237389
-0.000468202
-0.000264946
-0.000503435
-0.000293283
-0.000539642
-0.000322644
-0.000576151
-0.000353414
-0.00061215
-0.000386107
-0.000646907
-0.000421275
-0.00068006
-0.000711213
-0.000459392
-2.61704e-06
-2.08725e-05
-9.56358e-06
-6.2814e-05
-2.02569e-05
-0.0001049
-3.41721e-05
-0.000145701
-5.08337e-05
-0.000184287
-6.98147e-05
-0.000220262
-9.07302e-05
-0.000253737
-0.000113237
-0.000285233
-0.000137032
-0.00031555
-0.000161855
-0.000345598
-0.00018749
-0.000376224
-0.000213766
-0.000408059
-0.000240568
-0.000441399
-0.000267859
-0.000476144
-0.000295703
-0.000511798
-0.000324303
-0.000547552
-0.000354026
-0.000582427
-0.000385406
-0.000615527
-0.000419059
-0.000646407
-0.000674719
-0.000455554
-2.68878e-06
-1.81837e-05
-9.80954e-06
-5.56933e-05
-2.07463e-05
-9.39637e-05
-3.49437e-05
-0.000131504
-5.19e-05
-0.000167331
-7.11662e-05
-0.000200996
-9.23402e-05
-0.000232563
-0.000115064
-0.000262509
-0.000139023
-0.000291591
-0.000163942
-0.000320679
-0.000189584
-0.000350582
-0.000215748
-0.000381894
-0.000242281
-0.000414866
-0.000269093
-0.000449332
-0.00029619
-0.000484702
-0.000323716
-0.000520025
-0.000352005
-0.000554138
-0.000381595
-0.000585937
-0.000413168
-0.000614834
-0.000640489
-0.000447397
-2.74004e-06
-1.54436e-05
-9.98448e-06
-4.84488e-05
-2.10913e-05
-8.28569e-05
-3.54799e-05
-0.000117115
-5.26265e-05
-0.000150184
-7.20628e-05
-0.00018156
-9.33712e-05
-0.000211254
-0.000116181
-0.000239699
-0.000140165
-0.000267608
-0.000165031
-0.000295812
-0.000190522
-0.000325092
-0.000216405
-0.000356011
-0.000242484
-0.000388787
-0.000268607
-0.000423209
-0.000294709
-0.0004586
-0.000320861
-0.000493873
-0.000347339
-0.00052766
-0.000374669
-0.000558607
-0.000403593
-0.00058591
-0.000609176
-0.000434907
-2.77006e-06
-1.26736e-05
-1.00858e-05
-4.1133e-05
-2.12866e-05
-7.16562e-05
-3.57726e-05
-0.000102629
-5.30018e-05
-0.000132955
-7.24891e-05
-0.000162072
-9.38032e-05
-0.00018994
-0.000116562
-0.000216941
-0.000140424
-0.000243745
-0.000165084
-0.000271152
-0.00019026
-0.000299915
-0.000215689
-0.000330581
-0.000241125
-0.000363352
-0.000266351
-0.000397983
-0.000291219
-0.000433733
-0.000315708
-0.000469383
-0.000340012
-0.000503356
-0.000364623
-0.000533996
-0.00039033
-0.000560203
-0.000581443
-0.000418063
-2.7783e-06
-9.89527e-06
-1.01118e-05
-3.37996e-05
-2.13287e-05
-6.04392e-05
-3.58158e-05
-8.8142e-05
-5.30166e-05
-0.000115754
-7.24318e-05
-0.000142657
-9.36186e-05
-0.000168753
-0.000116183
-0.000194377
-0.000139772
-0.000220157
-0.000164063
-0.00024686
-0.000188755
-0.000275224
-0.000213548
-0.000305788
-0.000238147
-0.000338753
-0.000262267
-0.000373863
-0.000285665
-0.000410334
-0.000308213
-0.000446835
-0.000329997
-0.000481573
-0.000351442
-0.000512551
-0.000373368
-0.000538277
-0.00055797
-0.000396841
-2.76443e-06
-7.13084e-06
-1.00612e-05
-2.65028e-05
-2.12151e-05
-4.92854e-05
-3.56049e-05
-7.37522e-05
-5.26638e-05
-9.86954e-05
-7.18811e-05
-0.00012344
-9.28029e-05
-0.000147831
-0.000115024
-0.000172155
-0.000138181
-0.000197
-0.000161934
-0.000223107
-0.00018596
-0.000251199
-0.000209926
-0.000281821
-0.000233488
-0.000315191
-0.000256287
-0.000351064
-0.000277982
-0.000388639
-0.00029832
-0.000426498
-0.000317251
-0.000462641
-0.000335102
-0.0004947
-0.000352692
-0.000520687
-0.000539447
-0.000371215
-2.72839e-06
-4.40244e-06
-9.93381e-06
-1.92973e-05
-2.09449e-05
-3.82743e-05
-3.5138e-05
-5.95591e-05
-5.19397e-05
-8.18937e-05
-7.08304e-05
-0.000104549
-9.13461e-05
-0.000127316
-0.000113071
-0.00015043
-0.000135628
-0.000174443
-0.000158664
-0.000200071
-0.000181832
-0.000228031
-0.000204768
-0.000258885
-0.000227078
-0.00029288
-0.000248333
-0.00032981
-0.000268088
-0.000368884
-0.000285953
-0.000408633
-0.000301719
-0.000446875
-0.000315569
-0.00048085
-0.000328285
-0.000507971
-0.000526573
-0.000341158
-2.67041e-06
-1.73203e-06
-9.73017e-06
-1.22376e-05
-2.0519e-05
-2.74854e-05
-3.44158e-05
-4.56622e-05
-5.08444e-05
-6.54651e-05
-6.92779e-05
-8.61157e-05
-8.92427e-05
-0.000107351
-0.000110312
-0.00012936
-0.000132096
-0.000152659
-0.000154225
-0.000177942
-0.00017633
-0.000205926
-0.000198017
-0.000237198
-0.000218847
-0.000272051
-0.000238319
-0.000310338
-0.000255887
-0.000351316
-0.000271019
-0.000393502
-0.000283321
-0.000434573
-0.000292792
-0.000471378
-0.000300124
-0.000500639
-0.000520045
-0.000306652
-2.59104e-06
8.59004e-07
-9.45195e-06
-5.37667e-06
-1.99401e-05
-1.69973e-05
-3.34421e-05
-3.21603e-05
-4.93815e-05
-4.95258e-05
-6.72264e-05
-6.82707e-05
-8.64931e-05
-8.80843e-05
-0.000106743
-0.00010911
-0.000127573
-0.000131829
-0.000148596
-0.000156919
-0.00016942
-0.000185102
-0.000189624
-0.000216995
-0.000208723
-0.000252951
-0.000226156
-0.000292905
-0.000241278
-0.000336194
-0.000253409
-0.00038137
-0.000261961
-0.000426022
-0.000266707
-0.000466632
-0.000268189
-0.000499157
-0.000520541
-0.000267693
-2.49116e-06
3.35016e-06
-9.10187e-06
1.23404e-06
-1.92133e-05
-6.88582e-06
-3.22236e-05
-1.915e-05
-4.75592e-05
-3.41902e-05
-6.46839e-05
-5.11461e-05
-8.31039e-05
-6.96643e-05
-0.000102368
-8.98458e-05
-0.000122057
-0.000112141
-0.000141764
-0.000137211
-0.000161078
-0.000165789
-0.000179545
-0.000198527
-0.000196645
-0.000235851
-0.000211758
-0.000277793
-0.00022415
-0.000323802
-0.000233004
-0.000372516
-0.000237526
-0.0004215
-0.000237231
-0.000466927
-0.000232456
-0.000503932
-0.000528692
-0.000224306
-2.372e-06
5.72217e-06
-8.68375e-06
7.54578e-06
-1.83453e-05
2.77578e-06
-3.07704e-05
-6.72495e-06
-4.53899e-05
-1.95706e-05
-6.16641e-05
-3.48719e-05
-7.90889e-05
-5.22395e-05
-9.71982e-05
-7.17364e-05
-0.000115554
-9.37845e-05
-0.000133731
-0.000119035
-0.00015129
-0.00014823
-0.000167753
-0.000182064
-0.000182562
-0.000221042
-0.000195048
-0.000265307
-0.0002044
-0.00031445
-0.000209678
-0.000367238
-0.000209889
-0.000421288
-0.000204272
-0.000472545
-0.000192903
-0.0005153
-0.000545029
-0.000176565
-2.23513e-06
7.9573e-06
-8.2024e-06
1.3513e-05
-1.73452e-05
1.19186e-05
-2.90954e-05
5.02523e-06
-4.28903e-05
-5.77577e-06
-5.81868e-05
-1.95753e-05
-7.44695e-05
-3.59568e-05
-9.12553e-05
-5.49507e-05
-0.000108085
-7.69545e-05
-0.000124509
-0.000102611
-0.000140063
-0.000132676
-0.000154237
-0.00016789
-0.000166443
-0.000208836
-0.000175968
-0.000255782
-0.00018194
-0.000308478
-0.000183314
-0.000365864
-0.000178922
-0.00042568
-0.000167729
-0.000483738
-0.00014951
-0.000533519
-0.000569915
-0.000124625
-2.08241e-06
1.00397e-05
-7.66371e-06
1.90943e-05
-1.62238e-05
2.04787e-05
-2.7215e-05
1.60164e-05
-4.00819e-05
7.09112e-06
-5.42779e-05
-5.3793e-06
-6.92754e-05
-2.09594e-05
-8.45709e-05
-3.96552e-05
-9.96814e-05
-6.1844e-05
-0.000114129
-8.81633e-05
-0.000127419
-0.000119386
-0.000139011
-0.000156297
-0.000148285
-0.000199562
-0.000154491
-0.000249576
-0.000156709
-0.00030626
-0.000153815
-0.000368759
-0.000144497
-0.000434997
-0.000127478
-0.000500758
-0.000102278
-0.000558719
-0.000603361
-6.88311e-05
-1.91599e-06
1.19557e-05
-7.0745e-06
2.42529e-05
-1.49941e-05
2.83983e-05
-2.51487e-05
2.61711e-05
-3.69908e-05
1.89332e-05
-4.99697e-05
7.59961e-06
-6.35437e-05
-7.38532e-06
-7.71869e-05
-2.60119e-05
-9.03878e-05
-4.86431e-05
-0.000102636
-7.59148e-05
-0.000113403
-0.000108619
-0.000122115
-0.000147586
-0.000128115
-0.000193562
-0.000130625
-0.000247066
-0.000128689
-0.000308196
-0.000121125
-0.000376324
-0.000106508
-0.000449614
-8.32985e-05
-0.000523968
-5.09426e-05
-0.000591075
-0.000643165
-1.11387e-05
-1.73829e-06
1.3694e-05
-6.44241e-06
2.8957e-05
-1.36704e-05
3.56262e-05
-2.29185e-05
3.54192e-05
-3.36467e-05
2.96614e-05
-4.52994e-05
1.92524e-05
-5.73194e-05
4.6346e-06
-6.91549e-05
-1.41764e-05
-8.02624e-05
-3.75356e-05
-9.00948e-05
-6.60824e-05
-9.80838e-05
-0.00010063
-0.000103616
-0.000142054
-0.000106
-0.000191178
-0.000104427
-0.000248638
-9.79181e-05
-0.000314705
-8.52569e-05
-0.000388985
-6.49501e-05
-0.000469921
-3.50961e-05
-0.000553822
6.93964e-06
-0.000633111
-0.000692008
5.57822e-05
-1.55187e-06
1.52459e-05
-5.77571e-06
3.31808e-05
-1.22686e-05
4.21191e-05
-2.05487e-05
4.36993e-05
-3.0083e-05
3.91957e-05
-4.03096e-05
2.9479e-05
-5.06536e-05
1.49786e-05
-6.05357e-05
-4.29428e-06
-6.93753e-05
-2.8696e-05
-7.65837e-05
-5.88739e-05
-8.15482e-05
-9.56657e-05
-8.36105e-05
-0.000139992
-8.20407e-05
-0.000192748
-7.60011e-05
-0.000254678
-6.44954e-05
-0.000326211
-4.63014e-05
-0.000407179
-1.98935e-05
-0.000496328
1.6563e-05
-0.000590278
6.47697e-05
-0.000681317
-0.000752979
0.00012574
-1.35947e-06
1.66053e-05
-5.08315e-06
3.69045e-05
-1.08055e-05
4.78414e-05
-1.80654e-05
5.09592e-05
-2.63356e-05
4.74659e-05
-3.50466e-05
3.819e-05
-4.36037e-05
2.35357e-05
-5.1397e-05
3.49905e-06
-5.78062e-05
-2.22869e-05
-6.21959e-05
-5.44842e-05
-6.39034e-05
-9.39582e-05
-6.22211e-05
-0.000141674
-5.6375e-05
-0.000198594
-4.54963e-05
-0.000265556
-2.85791e-05
-0.000343128
-4.41556e-06
-0.000431342
2.8508e-05
-0.000529252
7.21204e-05
-0.000633891
0.000128214
-0.000737411
-0.000823496
0.000198732
-1.16383e-06
1.77692e-05
-4.37369e-06
4.01144e-05
-9.29847e-06
5.27662e-05
-1.54958e-05
5.71565e-05
-2.24424e-05
5.44125e-05
-2.95593e-05
4.53069e-05
-3.62303e-05
3.02067e-05
-4.18127e-05
9.08153e-06
-4.56428e-05
-1.84568e-05
-4.70344e-05
-5.30926e-05
-4.52706e-05
-9.57221e-05
-3.95891e-05
-0.000147356
-2.91674e-05
-0.000209015
-1.31032e-05
-0.000281621
9.61643e-06
-0.000365847
4.01697e-05
-0.000461896
8.0006e-05
-0.000569088
0.000131009
-0.000684893
0.000195202
-0.000801604
-0.000903022
0.000274728
-9.6771e-07
1.87369e-05
-3.65627e-06
4.28029e-05
-7.76493e-06
5.68749e-05
-1.28671e-05
6.22587e-05
-1.84414e-05
5.99868e-05
-2.38977e-05
5.07632e-05
-2.85959e-05
3.49049e-05
-3.18585e-05
1.23441e-05
-3.2976e-05
-1.73393e-05
-3.12083e-05
-5.48603e-05
-2.57796e-05
-0.000101151
-1.58692e-05
-0.000157266
-6.02703e-07
-0.000224282
2.09595e-05
-0.000303183
4.98349e-05
-0.000394723
8.71585e-05
-0.000499219
0.000134276
-0.000616206
0.000192936
-0.000743553
0.000265255
-0.000873923
-0.000991069
0.000353303
-7.73724e-07
1.95106e-05
-2.93952e-06
4.49687e-05
-6.22184e-06
6.01572e-05
-1.02062e-05
6.6243e-05
-1.43706e-05
6.41512e-05
-1.81115e-05
5.45041e-05
-2.07632e-05
3.75566e-05
-2.1611e-05
1.3192e-05
-1.98981e-05
-1.90523e-05
-1.48275e-05
-5.99309e-05
-5.56255e-06
-0.000110416
8.77921e-06
-0.000171608
2.91277e-05
-0.00024463
5.64582e-05
-0.000330513
9.1793e-05
-0.000430058
0.000136214
-0.000543641
0.000190933
-0.000670925
0.00025747
-0.00081009
0.000337919
-0.000954373
-0.00108708
0.000433927
-5.8431e-07
2.00949e-05
-2.23154e-06
4.6616e-05
-4.68515e-06
6.26108e-05
-7.53845e-06
6.90963e-05
-1.02658e-05
6.68786e-05
-1.2248e-05
5.64862e-05
-1.27916e-05
3.81003e-05
-1.11434e-05
1.15437e-05
-6.49737e-06
-2.36983e-05
2.00059e-06
-6.84288e-05
1.52522e-05
-0.000123667
3.42013e-05
-0.000190557
5.98329e-05
-0.000270262
9.31593e-05
-0.00036384
0.000135203
-0.000472101
0.000186985
-0.000595422
0.000249557
-0.000733498
0.000324131
-0.000884663
0.000412687
-0.00104293
-0.00119038
0.000515987
-4.01636e-07
2.04965e-05
-1.53958e-06
4.77539e-05
-3.16931e-06
6.42405e-05
-4.88704e-06
7.0814e-05
-6.15998e-06
6.81516e-05
-6.35063e-06
5.66769e-05
-4.73635e-06
3.6486e-05
-5.23386e-07
7.33077e-06
7.14459e-06
-3.13663e-05
1.91804e-05
-8.04646e-05
3.65474e-05
-0.000141034
6.02536e-05
-0.000214263
9.13371e-05
-0.000301345
0.000130843
-0.000403345
0.000179787
-0.000521046
0.00023912
-0.000654756
0.00030972
-0.000804097
0.000392415
-0.000967359
0.000489013
-0.00113953
-0.00130016
0.000598795
-2.27528e-07
2.07241e-05
-8.6982e-07
4.83962e-05
-1.68674e-06
6.50574e-05
-2.27194e-06
7.13992e-05
-2.08158e-06
6.79612e-05
-4.57293e-07
5.50526e-05
3.35494e-06
3.26737e-05
1.01908e-05
4.94947e-07
2.09571e-05
-4.21326e-05
3.6625e-05
-9.61326e-05
5.82207e-05
-0.00016263
8.68118e-05
-0.000242854
0.000123485
-0.000338018
0.000169311
-0.000449171
0.000225291
-0.000577026
0.000292292
-0.000721757
0.000370999
-0.000882804
0.000461816
-0.00105818
0.000566323
-0.00124403
-0.00141544
0.000681607
-6.34505e-08
2.07875e-05
-2.27156e-07
4.85599e-05
-2.47411e-07
6.50777e-05
2.90664e-07
7.08611e-05
1.94619e-06
6.63057e-05
5.40139e-06
5.15974e-05
1.14437e-05
2.66315e-05
2.09516e-05
-9.01296e-06
3.48837e-05
-5.60648e-05
5.42684e-05
-0.000115517
8.0191e-05
-0.000188553
0.000113774
-0.000276438
0.000156146
-0.00038039
0.000208393
-0.000501417
0.000271486
-0.000640119
0.000346193
-0.000796464
0.000432989
-0.0009696
0.000531835
-0.00115702
0.000644029
-0.00135623
-0.00153505
0.000763634
8.98793e-08
2.06976e-05
3.84927e-07
4.82648e-05
1.14153e-06
6.43211e-05
2.78905e-06
6.92136e-05
5.90643e-06
6.31883e-05
1.1203e-05
4.63008e-05
1.95017e-05
1.83328e-05
3.17253e-05
-2.12365e-05
4.88837e-05
-7.32232e-05
7.2061e-05
-0.000138694
0.000102398
-0.000218889
0.000141064
-0.000315104
0.000189218
-0.000428545
0.000247944
-0.000560144
0.000318169
-0.000710343
0.000400541
-0.000878835
0.000495297
-0.00106436
0.00060198
-0.0012637
0.000721459
-0.00147571
-0.0016577
0.000844116
2.31582e-07
2.04661e-05
9.64615e-07
4.75318e-05
2.47603e-06
6.28097e-05
5.21637e-06
6.64733e-05
9.78918e-06
5.86155e-05
1.69344e-05
3.91556e-05
2.75128e-05
7.75436e-06
4.24923e-05
-3.62161e-05
6.29338e-05
-9.36646e-05
8.9974e-05
-0.000165735
0.000124802
-0.000253718
0.000168626
-0.000358928
0.000222617
-0.000482536
0.00028784
-0.000625367
0.000365151
-0.000787655
0.000455066
-0.00096875
0.000557573
-0.00116686
0.000671847
-0.00137798
0.000797796
-0.00160166
-0.00178239
0.000922479
3.61953e-07
2.01041e-05
1.51166e-06
4.63821e-05
3.75526e-06
6.05661e-05
7.57091e-06
6.26576e-05
1.35918e-05
5.25946e-05
2.2592e-05
3.01554e-05
3.54727e-05
-5.1263e-06
5.32476e-05
-5.3991e-05
7.70273e-05
-0.000117444
0.000107997
-0.000196705
0.000147387
-0.000293107
0.000196425
-0.000407966
0.000256277
-0.000542388
0.000327961
-0.00069705
0.000412234
-0.000871929
0.000509472
-0.00106599
0.000619483
-0.00127687
0.000741312
-0.00149981
0.000872631
-0.00173298
-0.00190801
0.00099825
4.81462e-07
1.96227e-05
2.02749e-06
4.48361e-05
4.98165e-06
5.76119e-05
9.85618e-06
5.77831e-05
1.73189e-05
4.51319e-05
2.81821e-05
1.92922e-05
4.33893e-05
-2.03335e-05
6.40007e-05
-7.46025e-05
9.11742e-05
-0.000144618
0.000126137
-0.000231668
0.000170148
-0.000337118
0.00022444
-0.000462257
0.00029014
-0.000608089
0.000368181
-0.000775091
0.000459186
-0.000962933
0.000563365
-0.00117017
0.000680454
-0.00139396
0.000809996
-0.00162935
0.000947783
-0.00187076
-0.00203007
0.00106984
5.91005e-07
1.90316e-05
2.51495e-06
4.29121e-05
6.16059e-06
5.39663e-05
1.20805e-05
5.18632e-05
2.09824e-05
3.623e-05
3.37201e-05
6.55451e-06
5.1282e-05
-3.78953e-05
7.47744e-05
-9.80949e-05
0.000105399
-0.000175242
0.000144417
-0.000270685
0.000193099
-0.000385801
0.000252657
-0.000521815
0.000324148
-0.00067958
0.000408368
-0.000859311
0.000505743
-0.00106031
0.00061625
-0.00128067
0.000739439
-0.00151715
0.000875064
-0.00176497
0.00102292
-0.00201862
-0.0022348
0.00122766
6.92225e-07
1.83394e-05
2.97885e-06
4.06255e-05
7.30092e-06
4.96442e-05
1.42574e-05
4.49067e-05
2.46007e-05
2.58867e-05
3.92299e-05
-8.07472e-06
5.91797e-05
-5.7845e-05
8.56015e-05
-0.000124517
0.000119735
-0.000209376
0.000162864
-0.000313815
0.000216253
-0.00043919
0.000281061
-0.000586623
0.000358231
-0.00075675
0.000448367
-0.000949448
0.000551621
-0.00116356
0.000667635
-0.00139669
0.000795581
-0.0016451
0.000934921
-0.00190432
0.0010847
-0.0021684
-0.00241433
0.00126423
7.86836e-07
1.75526e-05
3.42475e-06
3.79876e-05
8.41345e-06
4.46555e-05
1.64039e-05
3.69162e-05
2.81976e-05
1.4093e-05
4.47423e-05
-2.46194e-05
6.71196e-05
-8.02224e-05
9.65239e-05
-0.000153921
0.000134225
-0.000247077
0.000181515
-0.000361105
0.000239628
-0.000497302
0.000309633
-0.000656628
0.000392311
-0.000839428
0.000488013
-0.00104515
0.000596544
-0.00127209
0.000717113
-0.00151726
0.000848368
-0.00177635
0.000988958
-0.0020449
0.00113669
-0.00231613
-0.00257706
0.00129942
8.76972e-07
1.66756e-05
3.85944e-06
3.50051e-05
9.51124e-06
3.90037e-05
1.85402e-05
2.78872e-05
3.18013e-05
8.3188e-07
5.02931e-05
-4.31111e-05
7.51444e-05
-0.000105074
0.000107588
-0.000186364
0.000148914
-0.000288403
0.000200404
-0.000412594
0.00026323
-0.000560129
0.000338336
-0.000731733
0.000426285
-0.000927377
0.000527117
-0.00114598
0.000640227
-0.0013852
0.000764332
-0.00164136
0.000897509
-0.00190953
0.00103757
-0.00218497
0.00118157
-0.00246012
-0.00272705
0.00133156
9.64989e-07
1.57106e-05
4.29046e-06
3.16796e-05
1.06089e-05
3.26853e-05
2.06892e-05
1.78069e-05
3.54431e-05
-1.3922e-05
5.59216e-05
-6.35896e-05
8.32992e-05
-0.000132451
0.00011884
-0.000221906
0.000163843
-0.000333406
0.000219554
-0.000468305
0.000287054
-0.000627628
0.000367111
-0.000811791
0.000460023
-0.00102029
0.000565463
-0.00125142
0.000682373
-0.00150211
0.000808955
-0.00176794
0.000942746
-0.00204332
0.00108089
-0.00232311
0.00121999
-0.00259923
-0.00286646
0.0013594
1.05337e-06
1.46573e-05
4.7258e-06
2.80072e-05
1.17217e-05
2.56894e-05
2.28746e-05
6.65401e-06
3.91552e-05
-3.02026e-05
6.16676e-05
-8.6102e-05
9.16285e-05
-0.000162412
0.000130325
-0.000260602
0.000179046
-0.000382127
0.000238977
-0.000528237
0.000311069
-0.00069972
0.00039587
-0.000896592
0.000493362
-0.00111778
0.000602805
-0.00136087
0.000722666
-0.00162197
0.000850648
-0.00189593
0.000983824
-0.0021765
0.00111887
-0.00245815
0.00125226
-0.00273262
-0.00299642
0.00138222
1.14463e-06
1.35126e-05
5.17355e-06
2.39783e-05
1.28654e-05
1.79976e-05
2.51204e-05
-5.60104e-06
4.297e-05
-4.80521e-05
6.75696e-05
-0.000110702
0.000100173
-0.000195016
0.000142079
-0.000302508
0.000194544
-0.000434592
0.000258665
-0.000592358
0.000335221
-0.000776275
0.000424494
-0.000985865
0.000526102
-0.00121939
0.000638866
-0.00147363
0.000760775
-0.00174388
0.000889079
-0.00202423
0.0010205
-0.00230791
0.00115145
-0.0025891
0.00127851
-0.00285967
-0.00311752
0.00139961
1.24122e-06
1.22714e-05
5.64162e-06
1.95779e-05
1.4055e-05
9.58417e-06
2.74497e-05
-1.89957e-05
4.69173e-05
-6.75198e-05
7.36623e-05
-0.000137447
0.000108967
-0.000230321
0.000154126
-0.000347667
0.000210342
-0.000490809
0.000278587
-0.000660602
0.000359424
-0.000857112
0.000452827
-0.00107927
0.000558013
-0.00132457
0.000673348
-0.00158896
0.000796367
-0.0018669
0.000923937
-0.0021518
0.00105255
-0.00243652
0.00117857
-0.00271513
0.00129884
-0.00297995
-0.00323011
0.00141143
1.34544e-06
1.0926e-05
6.13737e-06
1.4786e-05
1.53046e-05
4.16982e-07
2.98832e-05
-3.35743e-05
5.10237e-05
-8.86603e-05
7.99742e-05
-0.000166397
0.000118035
-0.000268382
0.000166479
-0.00039611
0.000226425
-0.000550755
0.000298684
-0.00073286
0.000383562
-0.000941991
0.000480684
-0.00117639
0.000588839
-0.00143273
0.000705941
-0.00170607
0.000829117
-0.00199008
0.000954944
-0.00227763
0.00107982
-0.00256139
0.00120022
-0.00283553
0.0013134
-0.00309312
-0.00333446
0.00141774
1.45934e-06
9.46661e-06
6.66741e-06
9.57791e-06
1.66264e-05
-9.54203e-06
3.24389e-05
-4.93868e-05
5.53108e-05
-0.000111532
8.65264e-05
-0.000197613
0.000127391
-0.000309246
0.000179132
-0.000447851
0.000242756
-0.000614379
0.000318872
-0.000808976
0.000407491
-0.00103061
0.000507851
-0.00127675
0.000618305
-0.00154318
0.000736336
-0.0018241
0.000858726
-0.00211247
0.000981872
-0.00240077
0.0011022
-0.00268172
0.00121646
-0.00294979
0.00132237
-0.00319904
-0.00343084
0.00141875
1.5847e-06
7.88191e-06
7.23734e-06
3.92527e-06
1.80308e-05
-2.03355e-05
3.51311e-05
-6.6487e-05
5.97941e-05
-0.000136195
9.33308e-05
-0.00023115
0.000137034
-0.00035295
0.000192062
-0.000502879
0.000259275
-0.000681592
0.000339041
-0.000888742
0.000431038
-0.00112261
0.000534095
-0.00137981
0.000646131
-0.00165522
0.000764238
-0.00194221
0.000884936
-0.00223317
0.00100455
-0.00252039
0.00111967
-0.00279683
0.0012274
-0.00305753
0.00132602
-0.00329765
-0.0035196
0.00141477
1.72293e-06
6.15898e-06
7.85158e-06
-2.20338e-06
1.95256e-05
-3.20095e-05
3.79696e-05
-8.4931e-05
6.44824e-05
-0.000162708
0.000100389
-0.000267056
0.000146951
-0.000399512
0.000205229
-0.000561156
0.0002759
-0.000752263
0.000359057
-0.000971899
0.000454012
-0.00121756
0.000559172
-0.00148497
0.00067204
-0.00176809
0.000789379
-0.00205954
0.000907538
-0.00235133
0.00102289
-0.00263574
0.00113227
-0.00290622
0.00123326
-0.00315852
0.00132466
-0.00338904
-0.00360111
0.00140617
1.87509e-06
4.28389e-06
8.51329e-06
-8.84159e-06
2.11157e-05
-4.46119e-05
4.09597e-05
-0.000104775
6.93773e-05
-0.000191126
0.000107693
-0.000305372
0.000157114
-0.000448933
0.000218572
-0.000622615
0.00029253
-0.000826221
0.000378767
-0.00105814
0.000476206
-0.001315
0.000582834
-0.0015916
0.000695774
-0.00188103
0.000811529
-0.0021753
0.000926382
-0.00246618
0.00103685
-0.00274621
0.00114013
-0.0030095
0.0012343
-0.00325269
0.00131867
-0.00347341
-0.00367582
0.00139338
2.04185e-06
2.24204e-06
9.22432e-06
-1.60241e-05
2.28036e-05
-5.81912e-05
4.41019e-05
-0.000126073
7.44731e-05
-0.000221497
0.000115223
-0.000346122
0.00016748
-0.00050119
0.000232018
-0.000687153
0.000309046
-0.000903249
0.000398002
-0.00114709
0.000497407
-0.00141441
0.000604842
-0.00169903
0.000717099
-0.00199328
0.000830509
-0.00228871