/*--------------------------------*- C++ -*----------------------------------*\
  =========                 |
  \\      /  F ield         | OpenFOAM: The Open Source CFD Toolbox
   \\    /   O peration     | Website:  https://openfoam.org
    \\  /    A nd           | Version:  7
     \\/     M anipulation  |
\*---------------------------------------------------------------------------*/
FoamFile
{
    version     2.0;
    format      ascii;
    class       volVectorField;
    location    "120";
    object      U;
}
// * * * * * * * * * * * * * * * * * * * * * * * * * * * * * * * * * * * * * //

dimensions      [0 1 -1 0 0 0 0];

internalField   nonuniform List<vector> 
36600
(
(7.59437e-05 -0.0250979 -1.0487e-21)
(-0.000626512 -0.0693242 -5.46575e-21)
(-0.00283821 -0.108601 6.62683e-22)
(-0.00629372 -0.142691 9.79594e-22)
(-0.0109347 -0.171575 1.7144e-21)
(-0.0166483 -0.195485 -1.24925e-20)
(-0.0232666 -0.214873 2.12048e-21)
(-0.0305889 -0.230369 -8.26291e-21)
(-0.0383947 -0.242715 -1.75987e-20)
(-0.0464613 -0.252683 1.49e-20)
(-0.0545827 -0.261 4.38977e-21)
(-0.0625842 -0.268288 -5.22894e-21)
(-0.0703316 -0.275028 6.37604e-21)
(-0.0777346 -0.281546 8.68409e-21)
(-0.0847429 -0.288015 -5.45092e-21)
(-0.0913349 -0.294481 -7.33445e-21)
(-0.097508 -0.30088 -1.75519e-20)
(-0.103291 -0.307062 -1.35986e-21)
(-0.108595 -0.312803 -2.98013e-21)
(-0.113185 -0.317799 -5.91117e-21)
(0.000494715 -0.0246476 -5.1001e-21)
(0.000318439 -0.0680448 4.14886e-21)
(-0.00176656 -0.106553 -4.79985e-21)
(-0.00535747 -0.139935 -1.88724e-20)
(-0.0103387 -0.168189 8.64178e-21)
(-0.0165455 -0.191567 5.19591e-20)
(-0.0237636 -0.210536 -3.16604e-20)
(-0.0317552 -0.225738 5.3476e-21)
(-0.0402716 -0.237914 2.53105e-20)
(-0.0490719 -0.247831 -2.21767e-23)
(-0.0579407 -0.256198 1.47331e-20)
(-0.0667031 -0.263617 -1.93587e-20)
(-0.075233 -0.270544 2.01573e-20)
(-0.0834546 -0.277279 -1.72606e-20)
(-0.0913373 -0.28398 -6.64319e-21)
(-0.0988827 -0.290678 3.34744e-20)
(-0.106113 -0.297304 -1.04027e-20)
(-0.11308 -0.303713 1.59399e-21)
(-0.119706 -0.309684 -1.95864e-20)
(-0.125793 -0.314912 -2.08674e-21)
(0.000890045 -0.0240744 -3.93667e-20)
(0.00120119 -0.0664667 4.97584e-21)
(-0.000785376 -0.104088 7.55e-21)
(-0.00452822 -0.13669 4.7594e-20)
(-0.00985336 -0.164277 -3.77424e-20)
(-0.016544 -0.187113 -5.81592e-20)
(-0.0243396 -0.205672 5.23824e-20)
(-0.0329659 -0.2206 -1.41569e-20)
(-0.0421471 -0.232633 -7.09136e-21)
(-0.0516246 -0.242523 -3.53414e-20)
(-0.0611747 -0.250962 9.52315e-21)
(-0.0706225 -0.258524 3.41696e-20)
(-0.0798494 -0.265639 -7.01257e-21)
(-0.0887938 -0.272584 2.76341e-20)
(-0.0974444 -0.279495 -2.26446e-20)
(-0.105825 -0.286392 -6.99367e-21)
(-0.113984 -0.293203 5.34745e-20)
(-0.121995 -0.299788 -3.32821e-21)
(-0.129793 -0.305937 8.33053e-20)
(-0.137207 -0.311346 -1.98351e-20)
(0.00125569 -0.0233802 6.42955e-20)
(0.00200858 -0.0645968 -2.79131e-20)
(9.07558e-05 -0.101219 -1.92506e-20)
(-0.00381881 -0.132973 -4.43196e-20)
(-0.00948788 -0.159861 2.6531e-20)
(-0.0166481 -0.182148 -4.86914e-21)
(-0.0249936 -0.20031 -8.73894e-20)
(-0.0342149 -0.214985 -9.13666e-21)
(-0.0440103 -0.226902 -1.8829e-20)
(-0.0541044 -0.236792 -2.87528e-21)
(-0.0642658 -0.245323 -3.23607e-20)
(-0.0743193 -0.253042 3.62336e-20)
(-0.0841536 -0.26035 -5.33721e-20)
(-0.0937202 -0.267498 -1.61003e-21)
(-0.103026 -0.2746 1.44334e-20)
(-0.112117 -0.281665 -1.10701e-19)
(-0.121065 -0.28862 -8.87819e-20)
(-0.12997 -0.29533 4.80111e-20)
(-0.138777 -0.301603 -6.44249e-20)
(-0.147337 -0.30714 1.9804e-21)
(0.00158564 -0.0225684 -8.62482e-21)
(0.00272813 -0.0624446 1.10089e-19)
(0.000848104 -0.0979608 5.09892e-20)
(-0.00324108 -0.128804 -2.19771e-21)
(-0.00925033 -0.154966 1.34638e-20)
(-0.016861 -0.176701 2.12116e-21)
(-0.0257238 -0.194478 4.46676e-20)
(-0.0354955 -0.208926 5.2281e-20)
(-0.0458501 -0.220752 2.19698e-20)
(-0.0564964 -0.230668 7.71978e-20)
(-0.0671954 -0.239314 -8.79728e-20)
(-0.0777717 -0.247205 -1.84701e-20)
(-0.0881202 -0.254712 3.85222e-20)
(-0.0982044 -0.262058 -6.6294e-20)
(-0.108048 -0.269337 3.01033e-20)
(-0.117718 -0.276543 6.95728e-20)
(-0.127309 -0.283601 1.70006e-20)
(-0.136948 -0.290388 2.33802e-20)
(-0.146591 -0.29673 -3.73302e-20)
(-0.1561 -0.302338 4.65996e-21)
(0.0018742 -0.0216436 -4.16389e-20)
(0.00334818 -0.0600225 2.56999e-20)
(0.00147431 -0.0943322 -4.18327e-20)
(-0.00280525 -0.124208 3.81318e-20)
(-0.00914735 -0.149618 3.3145e-20)
(-0.0171847 -0.170801 1.50551e-20)
(-0.0265273 -0.18821 2.79199e-20)
(-0.0368003 -0.202453 -1.94817e-20)
(-0.0476549 -0.214217 -1.18802e-19)
(-0.0587855 -0.224186 -1.05183e-19)
(-0.0699455 -0.232968 -6.76477e-20)
(-0.0809589 -0.241047 2.54724e-20)
(-0.0917256 -0.248763 -1.44437e-20)
(-0.102219 -0.256306 1.09092e-19)
(-0.112479 -0.26375 -3.9016e-20)
(-0.12259 -0.271073 3.1502e-20)
(-0.132673 -0.278199 4.5835e-20)
(-0.142878 -0.285015 -2.59014e-20)
(-0.153172 -0.291369 2.21112e-19)
(-0.163424 -0.296989 -8.30226e-20)
(0.00211612 -0.0206117 5.04023e-20)
(0.00385814 -0.0573458 -6.18621e-20)
(0.00195822 -0.0903553 -9.3648e-20)
(-0.00252069 -0.11921 -2.39523e-20)
(-0.00918375 -0.143848 1.06475e-20)
(-0.0176197 -0.164481 1.62569e-20)
(-0.0273998 -0.181537 5.38423e-20)
(-0.0381207 -0.195599 1.17508e-20)
(-0.0494127 -0.207328 4.08019e-21)
(-0.0609563 -0.217376 1.88816e-19)
(-0.0724981 -0.226317 1.40641e-19)
(-0.0838605 -0.234603 -8.33947e-20)
(-0.0949471 -0.242537 -1.22033e-20)
(-0.10574 -0.250281 -3.27453e-20)
(-0.11629 -0.257883 3.20424e-20)
(-0.126702 -0.265305 -1.68072e-19)
(-0.137117 -0.272466 -3.47616e-20)
(-0.147715 -0.279266 -5.22097e-20)
(-0.158468 -0.285576 -1.25508e-19)
(-0.16925 -0.291147 6.8785e-20)
(0.00230663 -0.0194798 8.29778e-21)
(0.00424856 -0.054432 -2.99126e-20)
(0.00229029 -0.0860552 8.44164e-20)
(-0.00239387 -0.113843 -3.15777e-20)
(-0.00936307 -0.13769 -2.83859e-20)
(-0.0181644 -0.157775 4.47375e-20)
(-0.0283355 -0.174494 -7.53357e-20)
(-0.0394469 -0.1884 -1.02823e-20)
(-0.0511099 -0.200119 1.40087e-19)
(-0.0629927 -0.21027 -8.8786e-20)
(-0.0748347 -0.219394 -3.62429e-20)
(-0.0864562 -0.227905 4.25486e-20)
(-0.0977625 -0.236071 -1.10864e-20)
(-0.108742 -0.244024 -5.77948e-21)
(-0.119456 -0.251781 4.65953e-20)
(-0.130024 -0.259289 -1.22384e-19)
(-0.140609 -0.266458 4.28984e-20)
(-0.15142 -0.2732 -3.19543e-20)
(-0.162434 -0.279411 -7.13636e-20)
(-0.173525 -0.284867 2.60676e-20)
(0.00244158 -0.018256 -2.3457e-20)
(0.00451147 -0.0513012 1.64516e-19)
(0.00246282 -0.0814595 -3.62274e-20)
(-0.00243029 -0.108137 -4.30568e-20)
(-0.00968574 -0.131179 1.02674e-19)
(-0.0188155 -0.150719 -1.05931e-19)
(-0.0293267 -0.167117 -5.15278e-20)
(-0.0407674 -0.180887 -8.89208e-20)
(-0.052732 -0.192621 -9.65407e-20)
(-0.0648774 -0.202901 -6.30781e-20)
(-0.0769359 -0.212229 -8.45741e-20)
(-0.0887249 -0.220985 1.52747e-19)
(-0.10015 -0.2294 -1.69092e-20)
(-0.111201 -0.237572 -3.49232e-20)
(-0.121951 -0.245489 -1.81188e-19)
(-0.132528 -0.253076 1.01211e-19)
(-0.143117 -0.260232 2.52729e-20)
(-0.153957 -0.26688 6.19642e-20)
(-0.16503 -0.272936 4.15306e-20)
(-0.176205 -0.278211 -1.10979e-19)
(0.00251757 -0.0169497 -7.24772e-20)
(0.00464046 -0.0479755 9.53998e-20)
(0.00247066 -0.076599 5.34374e-20)
(-0.00263207 -0.102129 2.40831e-20)
(-0.0101506 -0.124352 9.11417e-20)
(-0.0195673 -0.143351 -7.07691e-20)
(-0.030364 -0.159441 1.52047e-19)
(-0.0420691 -0.173096 8.54722e-21)
(-0.0542627 -0.184866 1.3834e-19)
(-0.0665914 -0.195297 -7.99273e-20)
(-0.078781 -0.204852 1.27909e-19)
(-0.0906445 -0.213873 -1.25443e-19)
(-0.102085 -0.222556 -1.1216e-19)
(-0.113095 -0.230963 9.49782e-20)
(-0.123749 -0.239051 3.33976e-19)
(-0.134188 -0.246717 -1.8255e-19)
(-0.144613 -0.253846 1.49062e-19)
(-0.155295 -0.260366 3.38253e-20)
(-0.166221 -0.266217 -1.2637e-19)
(-0.17725 -0.271239 1.0613e-19)
(0.00253199 -0.0155709 1.31235e-19)
(0.00463126 -0.0444793 -7.35673e-20)
(0.00231054 -0.0715061 2.45324e-20)
(-0.00299899 -0.0958555 9.23974e-20)
(-0.0107536 -0.117248 -7.09058e-20)
(-0.0204121 -0.13571 1.64613e-19)
(-0.0314356 -0.151504 -2.96737e-20)
(-0.0433368 -0.16506 3.76337e-21)
(-0.0556838 -0.176887 -1.90988e-19)
(-0.0681142 -0.187488 1.19938e-19)
(-0.0803472 -0.19729 2.73974e-20)
(-0.0921907 -0.206597 -3.55681e-20)
(-0.103544 -0.215568 4.45655e-20)
(-0.114397 -0.224231 -1.74803e-19)
(-0.124826 -0.232506 -9.67947e-20)
(-0.134977 -0.24026 2.01785e-19)
(-0.145069 -0.247358 -1.11683e-19)
(-0.155403 -0.253724 -1.57905e-19)
(-0.165973 -0.259318 2.90176e-19)
(-0.176623 -0.264016 -1.0628e-21)
(0.00248316 -0.0141308 1.09391e-19)
(0.00448133 -0.0408384 -1.34657e-19)
(0.0019822 -0.0662162 -1.39864e-19)
(-0.00352876 -0.0893563 -6.62919e-20)
(-0.0114886 -0.109908 -4.60099e-20)
(-0.0213398 -0.127834 -5.34641e-20)
(-0.0325279 -0.143343 -2.24049e-19)
(-0.0445534 -0.156815 2.73735e-20)
(-0.0569749 -0.168713 -9.37455e-20)
(-0.0694227 -0.179502 3.25857e-19)
(-0.0816093 -0.189569 -1.88007e-19)
(-0.0933367 -0.199182 1.14695e-19)
(-0.104498 -0.208465 -3.48621e-20)
(-0.115079 -0.217406 1.89911e-19)
(-0.125151 -0.225892 1.54236e-20)
(-0.134867 -0.233752 -1.5999e-19)
(-0.144455 -0.240821 -2.81784e-20)
(-0.154249 -0.247016 7.2795e-21)
(-0.164251 -0.252308 -1.2763e-20)
(-0.174288 -0.256604 1.93229e-19)
(0.0023703 -0.0126413 -1.36342e-19)
(0.00419028 -0.0370807 -1.28133e-19)
(0.00148734 -0.0607656 5.30078e-20)
(-0.00421617 -0.0826726 1.31478e-19)
(-0.0123471 -0.102374 -1.08983e-20)
(-0.0223383 -0.119766 -8.92231e-20)
(-0.033625 -0.134996 1.97173e-19)
(-0.0456994 -0.148394 -2.19832e-20)
(-0.0581134 -0.160377 2.36147e-19)
(-0.0704911 -0.171366 -2.60813e-19)
(-0.0825391 -0.181714 6.82861e-20)
(-0.0940524 -0.191651 8.01981e-20)
(-0.104916 -0.201268 -2.43027e-21)
(-0.115108 -0.210516 -1.32307e-21)
(-0.124694 -0.219242 -1.48719e-19)
(-0.133823 -0.227233 2.02203e-20)
(-0.142736 -0.234287 1.94992e-19)
(-0.151798 -0.240303 2.47508e-19)
(-0.161019 -0.245251 -2.9038e-19)
(-0.170202 -0.249067 -1.86735e-19)
(0.00219361 -0.0111151 5.68167e-20)
(0.00375972 -0.033235 8.57353e-20)
(0.00083035 -0.0551927 1.03333e-19)
(-0.00505371 -0.0758469 -1.73691e-19)
(-0.0133179 -0.0946904 1.69221e-19)
(-0.023393 -0.111546 1.71269e-19)
(-0.0347086 -0.126502 -6.6479e-20)
(-0.0467531 -0.139832 2.88423e-19)
(-0.0590741 -0.151907 -2.90068e-19)
(-0.0712911 -0.163107 1.27565e-19)
(-0.0831051 -0.173747 1.28922e-19)
(-0.0943035 -0.184025 -9.97425e-21)
(-0.104762 -0.193997 1.59142e-21)
(-0.114447 -0.203582 1.64964e-20)
(-0.123415 -0.212582 -1.16227e-19)
(-0.13181 -0.220739 1.13734e-19)
(-0.139876 -0.227804 -5.80662e-20)
(-0.14801 -0.233643 -1.28729e-19)
(-0.156234 -0.238213 1.63763e-19)
(-0.164319 -0.241469 3.41022e-20)
(0.00195427 -0.00956513 -3.28671e-20)
(0.00319335 -0.0293313 4.01562e-20)
(1.80512e-05 -0.0495367 -8.64349e-20)
(-0.00603137 -0.0689226 -1.27969e-19)
(-0.0143883 -0.0868996 -1.12796e-19)
(-0.024487 -0.103218 -1.17282e-19)
(-0.0357585 -0.117899 1.89472e-19)
(-0.0476904 -0.131163 -9.53894e-20)
(-0.0598291 -0.143334 7.55292e-20)
(-0.0717911 -0.154749 8.23798e-21)
(-0.083272 -0.165688 -2.02198e-20)
(-0.0940514 -0.176319 5.00513e-20)
(-0.103994 -0.186668 -9.66919e-20)
(-0.113053 -0.196618 5.01836e-20)
(-0.121271 -0.205932 1.59967e-19)
(-0.12878 -0.214298 -2.31049e-19)
(-0.135827 -0.22141 -1.45752e-19)
(-0.142837 -0.227088 1.88912e-19)
(-0.149845 -0.231256 -1.0956e-19)
(-0.15658 -0.233869 -1.66708e-19)
(0.00165447 -0.00800494 1.20438e-19)
(0.00249693 -0.0254002 -1.20775e-19)
(-0.000940368 -0.0438379 9.72249e-20)
(-0.00713669 -0.0619444 1.54947e-19)
(-0.0155419 -0.0790479 -2.7584e-20)
(-0.0256015 -0.0948231 -1.00492e-19)
(-0.0367518 -0.109227 -1.86274e-19)
(-0.048485 -0.122424 -1.40556e-19)
(-0.0603482 -0.134687 -2.80869e-19)
(-0.0719564 -0.146316 2.82805e-20)
(-0.0830008 -0.157557 -2.46778e-20)
(-0.0932528 -0.16855 -1.9433e-19)
(-0.102565 -0.179292 1.66689e-19)
(-0.110875 -0.189636 2.02228e-19)
(-0.118208 -0.199303 -1.00066e-20)
(-0.124681 -0.207929 1.20785e-19)
(-0.130535 -0.215138 -6.04962e-20)
(-0.136223 -0.220685 9.43333e-21)
(-0.141793 -0.224438 1.63541e-19)
(-0.146917 -0.226328 3.89863e-19)
(0.00129738 -0.00644804 -5.24625e-20)
(0.00167829 -0.0214727 -3.59699e-20)
(-0.00203323 -0.0381369 1.00048e-19)
(-0.00835493 -0.0549569 -1.38618e-19)
(-0.0167613 -0.0711802 -7.80191e-20)
(-0.0267149 -0.086407 1.36497e-19)
(-0.0376642 -0.100527 -4.94576e-20)
(-0.0491084 -0.113649 -1.42023e-19)
(-0.0605986 -0.125998 2.28698e-19)
(-0.0717495 -0.137834 -6.07794e-20)
(-0.0822487 -0.149373 4.40312e-20)
(-0.0918595 -0.160728 2.37035e-19)
(-0.100422 -0.171876 -3.25904e-19)
(-0.107856 -0.182639 -8.81316e-20)
(-0.114166 -0.192701 -1.71263e-19)
(-0.11945 -0.201641 3.4307e-19)
(-0.123935 -0.209007 1.07115e-20)
(-0.1281 -0.21447 1.82579e-19)
(-0.132008 -0.217813 -6.63081e-20)
(-0.135249 -0.218902 -3.67218e-19)
(0.000887137 -0.00490798 -1.21539e-19)
(0.000747332 -0.0175797 1.71574e-19)
(-0.00324664 -0.0324743 2.33975e-21)
(-0.00966835 -0.0480058 -1.672e-21)
(-0.0180258 -0.0633427 1.75006e-19)
(-0.0278039 -0.0780132 8.39489e-20)
(-0.0384692 -0.0918402 -4.73649e-21)
(-0.0495307 -0.104875 3.68108e-19)
(-0.0605457 -0.117297 1.39832e-19)
(-0.0711306 -0.129328 -2.54879e-19)
(-0.0809698 -0.141154 1.18541e-20)
(-0.0898189 -0.152867 -8.3888e-21)
(-0.097505 -0.164423 3.45221e-19)
(-0.103929 -0.175625 -3.81899e-19)
(-0.109074 -0.186121 1.03989e-19)
(-0.113012 -0.195433 3.55024e-21)
(-0.115952 -0.203026 -2.57911e-19)
(-0.11839 -0.208469 -2.62713e-19)
(-0.12041 -0.211425 -3.15915e-20)
(-0.121484 -0.211647 3.70058e-19)
(0.000428841 -0.0033981 3.94756e-20)
(-0.00028415 -0.0137518 -1.21973e-19)
(-0.00456415 -0.0268904 1.17301e-19)
(-0.0110579 -0.0411355 -1.73921e-19)
(-0.0193129 -0.0555818 2.14253e-19)
(-0.0288442 -0.0696862 -3.17961e-19)
(-0.0391388 -0.0832073 -8.72046e-20)
(-0.0497202 -0.0961394 -1.92445e-19)
(-0.0601533 -0.108616 -8.99482e-20)
(-0.0700575 -0.120823 1.58877e-19)
(-0.079115 -0.132918 3.21248e-19)
(-0.0870742 -0.144976 -3.56513e-19)
(-0.0937495 -0.156938 -1.31601e-19)
(-0.0990225 -0.168589 4.72717e-19)
(-0.102852 -0.17955 -1.69137e-19)
(-0.105283 -0.18929 -2.39861e-19)
(-0.106497 -0.197188 2.98883e-19)
(-0.107002 -0.202691 6.18868e-20)
(-0.106907 -0.205308 5.7538e-20)
(-0.105516 -0.204612 -2.36996e-19)
(-7.15705e-05 -0.00193134 1.54981e-20)
(-0.00140255 -0.0100187 -6.35908e-20)
(-0.00596767 -0.021425 2.05588e-19)
(-0.0125019 -0.0343911 -2.63774e-19)
(-0.0205995 -0.0479432 -2.16108e-19)
(-0.0298094 -0.0614715 5.58061e-20)
(-0.0396449 -0.0746707 3.72703e-19)
(-0.0496447 -0.0874809 -2.33207e-19)
(-0.0593843 -0.09999 5.59957e-20)
(-0.0684869 -0.112347 -1.10124e-19)
(-0.0766335 -0.124687 -4.40347e-19)
(-0.0835659 -0.137068 2.63779e-19)
(-0.089086 -0.149421 2.10872e-19)
(-0.093057 -0.161521 -3.68702e-19)
(-0.0954124 -0.172969 8.52009e-20)
(-0.0961672 -0.183188 3.34384e-19)
(-0.095472 -0.191471 1.29014e-19)
(-0.0938365 -0.19713 4.45355e-20)
(-0.0914016 -0.199484 -2.5482e-19)
(-0.0872336 -0.197841 -1.22588e-19)
(-0.000607399 -0.000520088 -1.06416e-19)
(-0.0025928 -0.00640928 -1.91195e-19)
(-0.00743734 -0.0161165 -1.09314e-19)
(-0.0139779 -0.0278163 1.43319e-19)
(-0.0218608 -0.0404726 -8.38852e-21)
(-0.0306736 -0.0534137 2.95484e-20)
(-0.039958 -0.066274 -5.11424e-20)
(-0.0492717 -0.0789393 3.44952e-20)
(-0.0582013 -0.0914536 2.21195e-19)
(-0.0663751 -0.103932 2.77292e-19)
(-0.0734737 -0.116484 -1.29811e-20)
(-0.0792327 -0.129157 -6.00532e-20)
(-0.0834426 -0.141875 -3.48064e-19)
(-0.0859489 -0.154412 2.57561e-19)
(-0.0866607 -0.166355 -2.29026e-20)
(-0.0855622 -0.177093 -1.4974e-19)
(-0.0827668 -0.185836 -7.3449e-19)
(-0.0787799 -0.191758 2.54486e-19)
(-0.0737887 -0.193953 1.27504e-20)
(-0.0665191 -0.191368 -1.51047e-19)
(-0.00117131 0.000824057 9.8389e-20)
(-0.00383853 -0.00295064 2.49825e-19)
(-0.00895203 -0.0110019 -1.88771e-19)
(-0.0154623 -0.0214533 -9.07378e-20)
(-0.0230714 -0.0332151 7.50614e-20)
(-0.0314097 -0.0455581 -1.79682e-19)
(-0.0400493 -0.0580607 -3.12802e-19)
(-0.0485688 -0.0705562 1.94343e-19)
(-0.0565673 -0.0830452 -2.19006e-20)
(-0.063679 -0.095609 -4.38572e-19)
(-0.0695842 -0.108337 8.30593e-20)
(-0.0740133 -0.121261 4.65734e-20)
(-0.0767464 -0.134309 -8.00335e-20)
(-0.0776125 -0.147253 2.0861e-19)
(-0.0764982 -0.159682 4.00506e-19)
(-0.0733581 -0.170961 -2.56138e-19)
(-0.0682651 -0.180231 2.04089e-19)
(-0.0617127 -0.186526 4.94782e-20)
(-0.0539606 -0.188696 2.72318e-19)
(-0.0432552 -0.185216 1.19874e-19)
(-0.00175547 0.00209047 -1.07833e-19)
(-0.00512239 0.000331899 -1.1899e-20)
(-0.0104896 -0.00611616 2.67651e-19)
(-0.0169304 -0.0153432 2.63539e-19)
(-0.0242058 -0.0262141 -5.35238e-20)
(-0.0319904 -0.0379497 -3.34948e-20)
(-0.0398898 -0.0500752 3.57414e-19)
(-0.0475046 -0.0623744 -2.56952e-19)
(-0.054447 -0.0748052 7.79134e-20)
(-0.0603572 -0.0874164 3.19224e-19)
(-0.0649159 -0.100275 3.0333e-19)
(-0.0678486 -0.113405 1.17564e-19)
(-0.0689261 -0.126733 5.06455e-19)
(-0.067963 -0.140042 -6.85091e-20)
(-0.0648258 -0.152927 -5.21048e-19)
(-0.0594431 -0.164747 2.52073e-19)
(-0.0518463 -0.174592 -1.32557e-19)
(-0.04251 -0.181364 -3.00792e-19)
(-0.0318117 -0.183668 -2.08073e-19)
(-0.0173278 -0.179393 -2.05212e-19)
(-0.0023517 0.00326969 6.91646e-20)
(-0.00642631 0.00341532 1.41784e-19)
(-0.0120273 -0.00149161 -9.7546e-20)
(-0.0183573 -0.00952433 -1.20408e-19)
(-0.0252377 -0.0195123 -1.24295e-19)
(-0.0323893 -0.0306322 -3.31779e-20)
(-0.0394519 -0.0423622 -4.57657e-19)
(-0.0460492 -0.0544379 1.75448e-19)
(-0.0518067 -0.0667764 -1.60353e-19)
(-0.056371 -0.0793941 -2.688e-19)
(-0.0594227 -0.0923367 9.6248e-21)
(-0.0606832 -0.105618 -6.68596e-19)
(-0.0599148 -0.119168 -5.12403e-19)
(-0.05692 -0.132782 1.6051e-19)
(-0.0515486 -0.146073 7.93324e-20)
(-0.043708 -0.158408 -1.68507e-19)
(-0.0333913 -0.168846 6.38605e-19)
(-0.0210487 -0.176176 -9.76461e-20)
(-0.00724991 -0.178787 2.58926e-19)
(0.0113607 -0.173876 2.2631e-19)
(-0.00295165 0.00435356 -9.50112e-20)
(-0.00773188 0.00627921 -3.07904e-19)
(-0.0135419 0.00284215 9.73028e-20)
(-0.0197179 -0.00403287 5.36045e-21)
(-0.0261416 -0.0131499 4.06347e-19)
(-0.0325805 -0.0236488 -2.40668e-19)
(-0.0387091 -0.0349658 -2.04601e-19)
(-0.0441747 -0.0467921 2.44791e-19)
(-0.0486158 -0.0590037 -1.43313e-20)
(-0.0516851 -0.0715859 1.12348e-19)
(-0.0530635 -0.0845623 3.39799e-19)
(-0.0524678 -0.0979369 7.02161e-19)
(-0.0496528 -0.111642 5.5792e-20)
(-0.0444113 -0.125489 -3.03612e-19)
(-0.0365801 -0.139115 5.45025e-20)
(-0.0260517 -0.151909 5.20542e-19)
(-0.0127861 -0.162922 -3.45502e-19)
(0.00279254 -0.170849 8.25066e-22)
(0.0197977 -0.173925 2.51028e-19)
(0.0428245 -0.168488 -1.54531e-19)
(-0.00354696 0.00533539 -9.14291e-20)
(-0.00902064 0.00890607 3.64917e-19)
(-0.0150106 0.00685886 -2.76111e-19)
(-0.0209876 0.00109821 -5.60522e-20)
(-0.0268927 -0.00716486 -9.38497e-20)
(-0.0325391 -0.0170412 -2.4227e-19)
(-0.0376368 -0.0279299 2.38718e-19)
(-0.0418553 -0.0394819 -6.22455e-20)
(-0.0448466 -0.0515339 -1.388e-19)
(-0.0462688 -0.0640389 2.25168e-19)
(-0.0458026 -0.0769985 -2.58101e-19)
(-0.0431601 -0.0904053 -8.19834e-20)
(-0.0380897 -0.104194 -8.929e-21)
(-0.0303761 -0.118191 2.13727e-19)
(-0.0198473 -0.132061 -1.90774e-19)
(-0.00638699 -0.145232 -3.52331e-19)
(0.0100725 -0.156762 -1.05986e-19)
(0.029146 -0.165288 -1.48904e-19)
(0.0494894 -0.168972 -4.42265e-19)
(0.0769364 -0.162743 -1.27211e-19)
(-0.00412944 0.00621004 1.30048e-19)
(-0.0102745 0.0112816 -1.6023e-19)
(-0.0164108 0.0105359 -1.99873e-19)
(-0.0221423 0.00583943 -1.87178e-19)
(-0.0274667 -0.00159223 6.15716e-20)
(-0.0322418 -0.0108483 3.37676e-20)
(-0.0362114 -0.0212975 8.54724e-20)
(-0.0390676 -0.032553 -2.95508e-19)
(-0.0404746 -0.0444142 1.69171e-19)
(-0.0400957 -0.0568024 -5.02967e-19)
(-0.0376105 -0.0696957 -2.49773e-19)
(-0.0327266 -0.0830737 4.63953e-21)
(-0.0251862 -0.0968705 2.17436e-19)
(-0.0147681 -0.110927 -1.40562e-19)
(-0.0012956 -0.124939 3.5298e-19)
(0.0153501 -0.138377 -8.47719e-20)
(0.0352552 -0.150336 1.07786e-19)
(0.0581073 -0.15945 3.97063e-19)
(0.0822357 -0.16394 5.09949e-20)
(0.11393 -0.156577 2.40813e-19)
(-0.00469127 0.00697404 -2.75124e-19)
(-0.0114758 0.0133949 2.16658e-19)
(-0.0177206 0.0138547 2.40866e-19)
(-0.0231587 0.0101652 -1.39254e-19)
(-0.0278405 0.00353646 2.35965e-19)
(-0.0316659 -0.00510721 2.25663e-19)
(-0.0344114 -0.0151087 -4.02118e-20)
(-0.0357902 -0.0260493 -2.25595e-19)
(-0.0354788 -0.0376923 -3.32224e-19)
(-0.0331439 -0.0499269 9.46119e-20)
(-0.0284641 -0.062707 8.98856e-21)
(-0.021142 -0.0759972 -2.45561e-19)
(-0.0109144 -0.0897278 1.82049e-19)
(0.00244344 -0.103751 -1.4082e-19)
(0.0191088 -0.117791 -2.50697e-19)
(0.0391956 -0.131368 -3.22372e-19)
(0.0627842 -0.143638 7.72382e-20)
(0.0895884 -0.153297 1.05904e-19)
(0.117985 -0.158556 -9.67594e-20)
(0.154358 -0.150431 3.97071e-19)
(-0.00522515 0.00762557 -2.18212e-19)
(-0.012608 0.0152384 -1.99557e-19)
(-0.0189194 0.0168009 1.56626e-19)
(-0.0240145 0.0140542 9.0148e-20)
(-0.0279918 0.00819356 3.67926e-20)
(-0.0307901 0.000149222 -6.65859e-20)
(-0.0322164 -0.00940228 -4.62481e-20)
(-0.0320041 -0.0200131 1.05511e-19)
(-0.0298403 -0.0314141 -9.50299e-20)
(-0.0253954 -0.0434626 7.87379e-19)
(-0.0183454 -0.0560866 5.70202e-20)
(-0.00838876 -0.0692337 -8.70266e-20)
(0.00474254 -0.0828264 -5.64442e-19)
(0.0212744 -0.0967237 1.06802e-19)
(0.0413798 -0.110674 -2.71981e-19)
(0.06516 -0.124248 1.76136e-19)
(0.0926772 -0.136674 1.58656e-19)
(0.123635 -0.14673 -5.86382e-19)
(0.156352 -0.152602 -1.76796e-19)
(0.197978 -0.144335 -5.92999e-19)
(-0.00572443 0.00816448 1.05395e-19)
(-0.0136558 0.0168084 2.07041e-19)
(-0.0199877 0.0193644 -3.69876e-19)
(-0.0246888 0.0174898 -2.80961e-19)
(-0.0278996 0.0123559 1.41893e-19)
(-0.0295941 0.00489171 1.31891e-19)
(-0.0296074 -0.00421211 -2.71595e-19)
(-0.0276912 -0.0144836 -2.43539e-20)
(-0.0235427 -0.0256233 3.27777e-20)
(-0.0168345 -0.0374573 -2.37129e-19)
(-0.0072406 -0.0498873 3.43246e-19)
(0.00554459 -0.0628407 1.57018e-21)
(0.0217926 -0.0762292 4.25012e-19)
(0.0417275 -0.0899123 2.84733e-19)
(0.0655127 -0.103657 4.71958e-20)
(0.0932276 -0.117079 5.80499e-19)
(0.124904 -0.129488 -5.16016e-19)
(0.160239 -0.139762 2.33907e-19)
(0.197305 -0.1462 1.76976e-19)
(0.244394 -0.137885 1.4757e-19)
(-0.00618326 0.00859225 5.1042e-19)
(-0.0146051 0.0181045 -3.50922e-19)
(-0.0209073 0.0215398 8.41759e-20)
(-0.0251615 0.0204602 2.73128e-19)
(-0.0275436 0.0160052 -2.91835e-19)
(-0.0280581 0.00909589 1.40826e-20)
(-0.0265654 0.000431419 2.19094e-19)
(-0.0228337 -0.00949555 4.00162e-19)
(-0.0165692 -0.0203591 4.02999e-19)
(-0.00744656 -0.0319553 -3.95469e-19)
(0.00486197 -0.044158 -3.01668e-19)
(0.020666 -0.0568728 1.41819e-19)
(0.0402379 -0.0699965 -4.0443e-19)
(0.0637965 -0.0833837 2.76026e-20)
(0.0914891 -0.0968121 1.5417e-19)
(0.123363 -0.109934 1.17232e-19)
(0.159402 -0.12214 3.47661e-19)
(0.199299 -0.132416 6.9726e-20)
(0.240761 -0.139358 -2.48817e-19)
(0.29334 -0.130863 2.57192e-19)
(-0.00659667 0.00891184 -4.84554e-19)
(-0.0154434 0.0191297 3.49968e-19)
(-0.0216618 0.0233261 8.40898e-20)
(-0.0254139 0.0229585 -2.71282e-19)
(-0.0269039 0.0191284 1.13853e-19)
(-0.0261623 0.0127426 -5.45387e-20)
(-0.0230712 0.0045038 -4.01563e-20)
(-0.0174134 -0.00507905 -3.37961e-19)
(-0.00890289 -0.0156557 -5.29632e-19)
(0.00278315 -0.0269947 3.42177e-19)
(0.0179749 -0.0389415 -1.75341e-19)
(0.0369829 -0.0513779 5.40171e-21)
(0.0600786 -0.0641822 9.7749e-20)
(0.0874705 -0.0771987 2.05115e-19)
(0.119282 -0.090207 -2.43892e-20)
(0.155516 -0.102887 -5.59809e-20)
(0.19609 -0.1147 -2.80976e-19)
(0.240683 -0.124736 -1.83878e-19)
(0.286562 -0.132047 -1.69932e-19)
(0.344546 -0.123146 2.61558e-19)
(-0.00696062 0.00912763 3.89931e-19)
(-0.0161599 0.0198903 -9.88795e-20)
(-0.0222361 0.0247267 3.33977e-19)
(-0.0254282 0.0249833 8.02802e-20)
(-0.0259614 0.0217181 -1.75584e-19)
(-0.0238866 0.0158187 2.82343e-20)
(-0.0191045 0.00798639 -3.69259e-19)
(-0.0114101 -0.00125709 1.66797e-19)
(-0.000524491 -0.0115404 9.02094e-20)
(0.013873 -0.0226062 1.35903e-20)
(0.0321125 -0.0342723 1.2267e-19)
(0.0545057 -0.0463944 4.37823e-20)
(0.081317 -0.0588298 -1.96032e-19)
(0.112739 -0.0714069 -4.50098e-19)
(0.148863 -0.0838997 2.25525e-19)
(0.189632 -0.0960041 -1.09081e-19)
(0.234878 -0.107239 -2.51588e-20)
(0.284239 -0.116777 4.44969e-19)
(0.334527 -0.124263 4.4908e-19)
(0.397681 -0.114636 -6.67241e-19)
(-0.00727206 0.00924516 -9.91513e-20)
(-0.0167455 0.0203956 -1.06871e-19)
(-0.0226166 0.0257492 -2.09353e-19)
(-0.0251875 0.0265379 1.5231e-19)
(-0.0246965 0.0237727 2.73964e-19)
(-0.0212097 0.0183172 -3.52398e-19)
(-0.0146427 0.0108675 5.58635e-19)
(-0.00480079 0.00195432 -1.08491e-19)
(0.00858916 -0.00803243 1.59844e-20)
(0.0258452 -0.0188114 -3.71238e-19)
(0.0472963 -0.0301738 1.23864e-20)
(0.07325 -0.0419484 -3.00467e-19)
(0.103961 -0.0539683 3.98893e-19)
(0.139598 -0.0660423 2.59288e-19)
(0.180206 -0.0779311 -4.99362e-19)
(0.225655 -0.089336 -4.17562e-19)
(0.275672 -0.099816 9.44142e-20)
(0.329805 -0.108604 5.34055e-19)
(0.384468 -0.116016 2.38214e-19)
(0.452344 -0.105256 1.22179e-19)
(-0.00752886 0.009271 3.14855e-20)
(-0.0171926 0.0206574 1.03544e-19)
(-0.022791 0.0264051 1.2384e-19)
(-0.0246753 0.027631 -1.02367e-19)
(-0.0230892 0.0252962 2.54861e-19)
(-0.0181086 0.0202379 3.38869e-19)
(-0.00966043 0.0131428 5.38269e-21)
(0.00244209 0.00454773 -4.32076e-19)
(0.0184672 -0.00514144 -3.42963e-19)
(0.038729 -0.0156214 3.56099e-19)
(0.0635534 -0.0266576 -5.7835e-19)
(0.0932408 -0.0380515 -5.2756e-19)
(0.128028 -0.0496102 -5.23129e-20)
(0.168048 -0.0611193 -2.72759e-20)
(0.213292 -0.0723209 1.76027e-19)
(0.263534 -0.0829116 1.1335e-19)
(0.318378 -0.0924711 1.4361e-19)
(0.377213 -0.100274 -6.60552e-19)
(0.436203 -0.107322 -1.74912e-19)
(0.508079 -0.0949705 4.49231e-19)
(-0.00772977 0.00921245 -1.85595e-19)
(-0.0174951 0.0206895 1.7715e-19)
(-0.0227481 0.0267097 -1.29243e-19)
(-0.0238753 0.0282758 -6.36294e-20)
(-0.0211184 0.0262991 -1.71854e-19)
(-0.014558 0.0215875 -1.29141e-19)
(-0.0041282 0.0148161 -2.30045e-19)
(0.0103516 0.00652486 3.77252e-19)
(0.029145 -0.00286682 1.49114e-19)
(0.0525625 -0.0130351 -3.63353e-19)
(0.0809225 -0.0237211 -4.37532e-19)
(0.114513 -0.0346993 2.32091e-19)
(0.153543 -0.0457496 -2.14848e-19)
(0.198103 -0.0566319 -2.96891e-19)
(0.248107 -0.0670655 -3.72061e-20)
(0.303218 -0.0767353 2.95868e-19)
(0.362899 -0.0852186 -1.91479e-19)
(0.426282 -0.0918359 7.27346e-20)
(0.489555 -0.0981919 1.56641e-19)
(0.564382 -0.0838023 3.80758e-19)
(-0.00787432 0.00907733 -1.88715e-20)
(-0.0176481 0.0205078 -4.37739e-19)
(-0.0224774 0.0266811 1.05695e-19)
(-0.0227708 0.0284901 2.32906e-19)
(-0.0187615 0.026797 -4.1953e-20)
(-0.0105292 0.0223797 -2.77395e-19)
(0.00198813 0.0158994 3.03972e-19)
(0.0189671 0.00789699 3.45784e-19)
(0.040667 -0.00119669 1.31095e-19)
(0.0673922 -0.0110389 6.46608e-19)
(0.0994508 -0.0213474 -2.98408e-19)
(0.137109 -0.0318708 1.06512e-19)
(0.180542 -0.0423616 -1.44587e-19)
(0.229778 -0.052553 3.43221e-19)
(0.28464 -0.062139 -2.97543e-20)
(0.344656 -0.0707879 -7.6274e-20)
(0.409131 -0.0780468 -1.18806e-19)
(0.476813 -0.0833248 1.82251e-19)
(0.54432 -0.0885885 -4.46536e-19)
(0.620624 -0.07175 -5.81987e-19)
(-0.00796262 0.00887377 -1.08057e-19)
(-0.0176476 0.0201292 -3.91004e-20)
(-0.0219689 0.0263401 -3.50435e-19)
(-0.0213448 0.0282959 2.12648e-19)
(-0.0159937 0.0268116 -2.15231e-19)
(-0.00598994 0.0226352 -2.17059e-19)
(0.00872808 0.0164131 -1.92365e-20)
(0.0283348 0.00868525 -3.48344e-19)
(0.053085 -0.000107785 -5.49283e-19)
(0.0832748 -0.00960593 1.49068e-19)
(0.119196 -0.0195048 1.65647e-19)
(0.161085 -0.0295282 -6.9498e-20)
(0.209067 -0.0394027 5.39442e-19)
(0.263095 -0.0488356 -4.85988e-20)
(0.322879 -0.0574957 -1.04406e-19)
(0.387788 -0.0650319 -1.39145e-20)
(0.456957 -0.0709308 2.53722e-19)
(0.528607 -0.0747716 4.37128e-19)
(0.600232 -0.0783122 -1.19893e-19)
(0.675802 -0.0585368 4.26201e-19)
(-0.00799535 0.00860993 3.39437e-19)
(-0.0174904 0.0195715 -5.3624e-20)
(-0.0212123 0.0257097 3.09716e-19)
(-0.0195787 0.0277185 -3.14687e-19)
(-0.0127879 0.0263694 4.60422e-19)
(-0.000904064 0.0223814 3.82453e-19)
(0.0161368 0.0163859 -3.11785e-19)
(0.0385083 0.0089207 -5.76371e-19)
(0.0664597 0.000434688 9.4781e-19)
(0.100275 -0.00869613 2.32371e-19)
(0.140222 -0.0181466 -1.79396e-19)
(0.186498 -0.0276175 -1.75519e-19)
(0.239161 -0.0368121 -1.82364e-19)
(0.298066 -0.0454153 -1.33596e-19)
(0.362793 -0.053075 -4.34129e-19)
(0.432531 -0.0594223 -1.15277e-19)
(0.506246 -0.0638639 9.32139e-21)
(0.581563 -0.0662357 -2.99086e-19)
(0.6572 -0.066984 1.45604e-19)
(0.72875 -0.043948 -3.00807e-19)
(-0.0079734 0.00829372 -5.42458e-19)
(-0.0171734 0.0188526 3.54582e-19)
(-0.0201972 0.0248143 -5.22794e-19)
(-0.0174529 0.0267866 -2.82297e-19)
(-0.00911388 0.0255018 1.04233e-19)
(0.00476908 0.0216523 -4.13088e-19)
(0.0242653 0.0158547 6.42683e-19)
(0.0495479 0.00864418 1.11926e-20)
(0.0808592 0.000476984 -3.52681e-19)
(0.118465 -0.00825643 -3.05395e-19)
(0.162602 -0.0172118 -5.40318e-19)
(0.213409 -0.0260692 -6.31516e-21)
(0.270862 -0.0345128 -7.52128e-20)
(0.334693 -0.0422119 -2.15785e-19)
(0.404322 -0.0488031 5.24053e-19)
(0.47875 -0.0539138 3.16571e-19)
(0.556786 -0.056883 7.61756e-20)
(0.635621 -0.057839 -3.23665e-19)
(0.715669 -0.0545481 -1.87634e-20)
(0.780628 -0.0305481 -4.92148e-19)
(-0.00789775 0.00793268 1.92716e-19)
(-0.0166934 0.0179906 -3.54667e-19)
(-0.0189123 0.0236795 4.51308e-19)
(-0.0149457 0.0255311 6.28577e-19)
(-0.00493861 0.0242443 -2.02547e-19)
(0.0110745 0.0204877 2.65916e-20)