/*--------------------------------*- C++ -*----------------------------------*\
  =========                 |
  \\      /  F ield         | OpenFOAM: The Open Source CFD Toolbox
   \\    /   O peration     | Website:  https://openfoam.org
    \\  /    A nd           | Version:  7
     \\/     M anipulation  |
\*---------------------------------------------------------------------------*/
FoamFile
{
    version     2.0;
    format      ascii;
    class       volScalarField;
    location    "160";
    object      p;
}
// * * * * * * * * * * * * * * * * * * * * * * * * * * * * * * * * * * * * * //

dimensions      [0 2 -2 0 0 0 0];

internalField   nonuniform List<scalar> 
4575
(
-0.0926669
-0.0963602
-0.0832982
-0.113829
-0.0996244
-0.0864315
-0.0737498
-0.11818
-0.102867
-0.0891092
-0.0763159
-0.0640295
-0.122971
-0.106523
-0.0916877
-0.0783984
-0.0660217
-0.0541458
-0.128273
-0.110571
-0.0946374
-0.0803024
-0.0675016
-0.0555583
-0.0441076
-0.134177
-0.115072
-0.0979279
-0.0825335
-0.0687219
-0.0564296
-0.0449361
-0.0339251
-0.14077
-0.120115
-0.101614
-0.0850544
-0.070224
-0.0569585
-0.045194
-0.0341666
-0.0236098
-0.14813
-0.125781
-0.105778
-0.0879113
-0.071964
-0.0577221
-0.0450251
-0.0338076
-0.0232625
-0.0131749
-0.156309
-0.132148
-0.110501
-0.0911845
-0.0739803
-0.0586711
-0.0450418
-0.0329353
-0.0222839
-0.0122379
-0.00263589
-0.165275
-0.13927
-0.11586
-0.094951
-0.0763499
-0.0598362
-0.0451906
-0.0321975
-0.0207037
-0.0106375
-0.0011083
0.00798928
-0.174833
-0.147124
-0.121909
-0.0992871
-0.079148
-0.0612919
-0.0454953
-0.0315379
-0.0192041
-0.0083452
0.00111659
0.0101095
0.0186794
-0.184488
-0.155532
-0.128635
-0.10425
-0.0824506
-0.0631124
-0.0460289
-0.0309746
-0.0177287
-0.0060767
0.00412497
0.0129628
0.0213973
0.0294081
-0.193278
-0.164023
-0.135873
-0.109833
-0.0863166
-0.0653729
-0.0468643
-0.0305793
-0.0162909
-0.00377872
0.00716958
0.0166918
0.0248857
0.0327346
0.0401401
-0.171672
-0.143181
-0.115888
-0.0907471
-0.0681347
-0.0480771
-0.0304251
-0.0149625
-0.00146193
0.0102962
0.0205201
0.029341
0.0368708
0.0441003
0.0508342
-0.176953
-0.149672
-0.121999
-0.0956084
-0.0714055
-0.0497302
-0.0305871
-0.0138163
0.000801941
0.0134948
0.0244804
0.0339608
0.0420591
0.048906
0.0554779
0.0614552
-0.177707
-0.153861
-0.127315
-0.10051
-0.0750663
-0.0518378
-0.0311302
-0.0129275
0.00293961
0.0166937
0.0285613
0.0387582
0.0474777
0.0548336
0.0609835
0.0668622
0.0719692
-0.153629
-0.1304
-0.104642
-0.0787527
-0.0542951
-0.0320745
-0.0123624
0.00487634
0.0198196
0.032692
0.0437193
0.0531142
0.0610576
0.0676547
0.0731047
0.0782471
0.0822698
-0.146534
-0.129176
-0.106614
-0.0816932
-0.0567632
-0.0333289
-0.0121466
0.00654482
0.0227984
0.0367998
0.0487755
0.0589503
0.0675328
0.0746888
0.0805225
0.0852888
0.0895969
0.0920932
-0.130657
-0.121234
-0.104395
-0.0825469
-0.0585095
-0.0345795
-0.0122024
0.00791414
0.0255623
0.0408121
0.053856
0.064922
0.0742345
0.0819975
0.0883623
0.0934517
0.0975779
0.100877
0.101217
-0.104633
-0.0956167
-0.0793356
-0.0582451
-0.0351335
-0.0122405
0.00904922
0.0280754
0.0446605
0.05889
0.0709628
0.0811084
0.0895508
0.0964892
0.102068
0.106454
0.109988
0.11213
0.110302
-0.0780091
-0.0783241
-0.069733
-0.0540459
-0.0337544
-0.0116078
0.0102148
0.03039
0.0483043
0.0638089
0.0770041
0.0880944
0.0973106
0.104876
0.110986
0.115788
0.119499
0.122411
0.123285
0.121928
-0.0509543
-0.0517801
-0.0436343
-0.0285755
-0.00912135
0.0120247
0.0327467
0.0517837
0.0685675
0.082977
0.0951261
0.105224
0.113504
0.120186
0.125466
0.129494
0.13252
0.134753
0.134881
0.134192
-0.0237145
-0.0250556
-0.0173738
-0.00297494
0.0156069
0.0357202
0.0553155
0.0731936
0.0888314
0.102134
0.113227
0.122326
0.129662
0.135458
0.139903
0.143159
0.145481
0.147014
0.146537
0.145912
0.00365401
0.00179515
0.00899525
0.022705
0.0403828
0.0594351
0.0778808
0.0945831
0.109062
0.121248
0.131278
0.139371
0.14576
0.150665
0.154275
0.156756
0.158362
0.159199
0.158165
0.157321
0.0310951
0.0287172
0.0354192
0.0484132
0.0651589
0.0831254
0.100402
0.115915
0.129225
0.140288
0.14925
0.156334
0.161773
0.165785
0.168558
0.170261
0.171142
0.171287
0.169694
0.168493
0.0585523
0.0556554
0.0618442
0.0740987
0.0898874
0.106747
0.12284
0.137152
0.149288
0.159222
0.167113
0.173187
0.177674
0.180792
0.182728
0.183651
0.183803
0.183254
0.181087
0.17945
0.0859691
0.0825543
0.0882164
0.0997103
0.114521
0.130256
0.145153
0.158258
0.169214
0.178019
0.184839
0.189902
0.193439
0.195664
0.196763
0.196904
0.196324
0.195081
0.192326
0.190204
0.113289
0.109358
0.114482
0.125197
0.139011
0.153609
0.167302
0.179195
0.188971
0.196647
0.202399
0.206453
0.209042
0.210376
0.21064
0.210001
0.208687
0.206748
0.203396
0.200759
0.140455
0.136012
0.140587
0.150508
0.163312
0.176763
0.189246
0.199927
0.208525
0.215076
0.219762
0.222813
0.224458
0.224906
0.224339
0.222921
0.220875
0.218241
0.214287
0.211114
0.167412
0.16246
0.166479
0.175593
0.187376
0.199673
0.210946
0.220418
0.227843
0.233274
0.236902
0.238956
0.239663
0.239231
0.237837
0.235645
0.232871
0.229545
0.224987
0.221266
0.194103
0.188648
0.192103
0.200402
0.211157
0.222298
0.232363
0.240631
0.24689
0.251211
0.253789
0.254855
0.254633
0.253328
0.251115
0.248155
0.244657
0.240644
0.235486
0.220473
0.214521
0.217409
0.224885
0.234609
0.244596
0.253458
0.260531
0.265635
0.268857
0.270396
0.270484
0.269344
0.267176
0.264153
0.260433
0.256218
0.251524
0.245771
0.246469
0.240026
0.242344
0.248994
0.257687
0.266524
0.274192
0.280082
0.284045
0.286181
0.286696
0.285819
0.283772
0.280753
0.276931
0.272461
0.267538
0.262172
0.255833
0.272035
0.265109
0.266857
0.272681
0.280346
0.288042
0.294529
0.299251
0.302088
0.303155
0.30266
0.300834
0.297895
0.294038
0.289429
0.284221
0.2786
0.272574
0.297119
0.28972
0.290898
0.295899
0.302543
0.309109
0.314431
0.318003
0.319733
0.319749
0.318263
0.315505
0.31169
0.30701
0.301628
0.295695
0.28939
0.282717
0.321669
0.313806
0.314419
0.318601
0.324235
0.329687
0.333863
0.336305
0.33695
0.335936
0.333479
0.329807
0.325134
0.319649
0.313511
0.306868
0.299892
0.292586
0.345634
0.337318
0.337371
0.340743
0.34538
0.349737
0.352789
0.354125
0.353708
0.351687
0.348282
0.343718
0.338208
0.331935
0.325059
0.317723
0.310091
0.302168
0.368964
0.360207
0.359707
0.362281
0.365939
0.369221
0.371174
0.371431
0.369979
0.366977
0.362647
0.357215
0.350888
0.34385
0.336254
0.328243
0.319973
0.391612
0.382425
0.381382
0.383172
0.38587
0.388104
0.388985
0.388192
0.385733
0.381778
0.37655
0.370274
0.363155
0.355373
0.34708
0.338413
0.329524
0.41353
0.403928
0.402352
0.403375
0.405137
0.40635
0.40619
0.404378
0.400944
0.396066
0.389969
0.382876
0.37499
0.366487
0.357518
0.348216
0.338728
0.434673
0.424669
0.422574
0.42285
0.423701
0.423925
0.422758
0.419961
0.415585
0.409815
0.402879
0.394998
0.386372
0.377175
0.367553
0.35764
0.347573
0.454997
0.444607
0.442008
0.441557
0.441528
0.440796
0.438658
0.434913
0.42963
0.423003
0.41526
0.406621
0.397283
0.387418
0.37717
0.366668
0.47446
0.463699
0.460612
0.459461
0.458583
0.456931
0.453862
0.449207
0.443055
0.435607
0.42709
0.417725
0.407705
0.3972
0.386352
0.375287
0.493022
0.481906
0.478351
0.476526
0.474833
0.472302
0.468341
0.462817
0.455836
0.447604
0.43835
0.428291
0.417622
0.406507
0.395086
0.383484
0.510644
0.499191
0.495187
0.492718
0.490248
0.486878
0.482069
0.475719
0.46795
0.458973
0.449019
0.438303
0.427016
0.415321
0.403357
0.391245
0.52729
0.515518
0.511086
0.508004
0.504796
0.500632
0.495021
0.48789
0.479377
0.469696
0.45908
0.447742
0.435872
0.42363
0.411153
0.398559
0.542924
0.530853
0.526016
0.522355
0.518452
0.513539
0.507173
0.499308
0.490095
0.479753
0.468515
0.456594
0.444176
0.43142
0.41846
0.557515
0.545163
0.539946
0.535742
0.531187
0.525574
0.518502
0.509952
0.500085
0.489127
0.477309
0.464842
0.451913
0.438677
0.425267
0.571033
0.558419
0.552849
0.548139
0.542978
0.536715
0.528989
0.519804
0.509331
0.497801
0.485445
0.472474
0.45907
0.44539
0.431563
0.583448
0.570594
0.564696
0.55952
0.553801
0.546941
0.538613
0.528844
0.517815
0.50576
0.49291
0.479475
0.465636
0.451548
0.437338
0.594734
0.581661
0.575465
0.569864
0.563636
0.556232
0.547357
0.537057
0.525522
0.51299
0.499691
0.485834
0.471599
0.457139
0.442581
0.604869
0.591598
0.585133
0.579148
0.572463
0.56457
0.555204
0.544427
0.532439
0.519477
0.505775
0.49154
0.47695
0.462156
0.447284
0.613831
0.600383
0.593679
0.587355
0.580266
0.57194
0.562139
0.550941
0.538551
0.525211
0.511153
0.496582
0.481678
0.466588
0.45144
0.621599
0.607998
0.601087
0.594468
0.587027
0.578327
0.56815
0.556587
0.54385
0.530181
0.515813
0.500953
0.485775
0.47043
0.455041
0.628159
0.614427
0.60734
0.600472
0.592735
0.583719
0.573225
0.561354
0.548324
0.534378
0.519749
0.504643
0.489235
0.473674
0.458082
0.633494
0.619655
0.612424
0.605355
0.597378
0.588105
0.577354
0.565233
0.551965
0.537794
0.522953
0.507647
0.492052
0.476314
0.460557
0.637595
0.62367
0.61633
0.609105
0.600945
0.591477
0.580529
0.568217
0.554766
0.540422
0.525419
0.50996
0.49422
0.478346
0.462461
0.64045
0.626464
0.619047
0.611716
0.60343
0.593827
0.582743
0.570299
0.556722
0.542258
0.527142
0.511576
0.495735
0.479766
0.642053
0.62803
0.62057
0.613181
0.604826
0.59515
0.583992
0.571476
0.557829
0.543298
0.528118
0.512492
0.496594
0.480571
0.6424
0.628363
0.620895
0.613496
0.605131
0.595443
0.584273
0.571744
0.558083
0.54354
0.528346
0.512707
0.496796
0.480761
0.641489
0.627461
0.620019
0.61266
0.604342
0.594705
0.583584
0.571102
0.557485
0.542982
0.527825
0.51222
0.49634
0.480333
0.639321
0.625326
0.617943
0.610672
0.60246
0.592935
0.581926
0.569551
0.556034
0.541625
0.526555
0.51103
0.495225
0.479288
0.635898
0.621959
0.61467
0.607537
0.599488
0.590137
0.579301
0.567092
0.553733
0.53947
0.524537
0.50914
0.493454
0.477628
0.631225
0.617367
0.610205
0.603257
0.59543
0.586314
0.575713
0.56373
0.550584
0.536521
0.521775
0.506552
0.491029
0.475354
0.459652
0.625312
0.611558
0.604556
0.597841
0.590292
0.581473
0.571167
0.559468
0.546592
0.532782
0.518272
0.50327
0.487953
0.472471
0.456948
0.618169
0.604541
0.597733
0.591298
0.584084
0.57562
0.565671
0.554315
0.541764
0.528259
0.514035
0.499299
0.484231
0.468982
0.453676
0.609808
0.59633
0.589748
0.583639
0.576815
0.568767
0.559233
0.548278
0.536107
0.522958
0.509068
0.494645
0.479869
0.464892
0.449842
0.600246
0.586939
0.580614
0.574878
0.568498
0.560924
0.551864
0.541367
0.52963
0.516889
0.503381
0.489315
0.474873
0.460209
0.44545
0.5895
0.576387
0.57035
0.565029
0.559147
0.552104
0.543577
0.533594
0.522343
0.510061
0.496982
0.483318
0.469251
0.454938
0.440507
0.577589
0.564692
0.558973
0.554112
0.548779
0.542324
0.534385
0.524971
0.51426
0.502485
0.489882
0.476663
0.463012
0.449088
0.435022
0.564538
0.551878
0.546506
0.542145
0.537412
0.531599
0.524303
0.515512
0.505392
0.494174
0.482091
0.46936
0.456166
0.442669
0.429002
0.550371
0.537968
0.53297
0.52915
0.525067
0.519948
0.51335
0.505234
0.495755
0.48514
0.473623
0.461421
0.448723
0.435689
0.422456
0.535114
0.52299
0.518392
0.515152
0.511764
0.507392
0.501544
0.494154
0.485365
0.475399
0.464491
0.452859
0.440695
0.428161
0.415395
0.518798
0.506972
0.5028
0.500175
0.497528
0.493951
0.488904
0.48229
0.474238
0.464967
0.45471
0.443688
0.432094
0.420095
0.407829
0.501454
0.489944
0.486222
0.484248
0.482385
0.479651
0.475452
0.469662
0.462394
0.45386
0.444296
0.433922
0.422935
0.411504
0.39977
0.387857
0.483116
0.471941
0.46869
0.467399
0.466361
0.464515
0.461213
0.456292
0.449851
0.442097
0.433265
0.423577
0.413232
0.402401
0.39123
0.379844
0.463819
0.452996
0.450238
0.44966
0.449486
0.448571
0.446209
0.442203
0.436632
0.429698
0.421635
0.412669
0.402999
0.392802
0.382222
0.371391
0.443601
0.433148
0.430901
0.431065
0.431789
0.431847
0.430467
0.427417
0.422758
0.416683
0.409426
0.401215
0.392254
0.382719
0.37276
0.36251
0.422502
0.412434
0.410716
0.411648
0.413304
0.414371
0.414015
0.411961
0.408251
0.403072
0.396657
0.389235
0.381012
0.372169
0.362858
0.353216
0.400563
0.390896
0.389722
0.391445
0.394064
0.396177
0.396881
0.395861
0.393138
0.38889
0.383349
0.376747
0.369292
0.361169
0.352532
0.343521
0.334287
0.377828
0.368576
0.36796
0.370494
0.374104
0.377294
0.379094
0.379144
0.377442
0.374158
0.369524
0.363771
0.357113
0.349735
0.341797
0.33344
0.324824
0.354341
0.345518
0.345472
0.348835
0.353461
0.357758
0.360686
0.361839
0.36119
0.358902
0.355203
0.350328
0.344492
0.337885
0.330668
0.322988
0.31501
0.330148
0.321768
0.322302
0.32651
0.332172
0.337603
0.341689
0.343975
0.34441
0.343147
0.340411
0.336439
0.33145
0.325637
0.319164
0.312181
0.304859
0.305299
0.297372
0.298494
0.303559
0.310277
0.316866
0.322136
0.325583
0.32713
0.326918
0.325171
0.322127
0.318007
0.313009
0.3073
0.301033
0.294387
0.287366
0.279842
0.272381
0.274096
0.280027
0.287816
0.295582
0.30206
0.306694
0.309378
0.310242
0.309507
0.307413
0.304185
0.300022
0.295096
0.289562
0.283607
0.277238
0.253828
0.246842
0.249155
0.25596
0.26483
0.273792
0.281498
0.28734
0.291185
0.293147
0.293446
0.292323
0.290004
0.286694
0.282567
0.277783
0.272535
0.266832
0.22731
0.220808
0.223721
0.231402
0.241363
0.251533
0.260485
0.267556
0.27258
0.275661
0.277013
0.276878
0.275487
0.273047
0.269735
0.265714
0.261186
0.256162
0.250101
0.20034
0.19433
0.197843
0.206401
0.217458
0.228846
0.239058
0.247374
0.253596
0.257813
0.260235
0.261105
0.260657
0.2591
0.256616
0.253371
0.249575
0.245243
0.239786
0.172972
0.167463
0.171573
0.181006
0.193159
0.205772
0.217255
0.22683
0.234264
0.239632
0.243139
0.245028
0.245535
0.244875
0.243232
0.240773
0.237718
0.234088
0.229243
0.145262
0.140259
0.144963
0.155264
0.168513
0.182353
0.195115
0.205958
0.214617
0.221148
0.225752
0.228672
0.230147
0.230394
0.2296
0.227938
0.225632
0.222712
0.218486
0.215079
0.117265
0.112775
0.118065
0.129227
0.143565
0.158632
0.172675
0.184794
0.194687
0.202391
0.208103
0.212064
0.214515
0.215678
0.215742
0.214883
0.213332
0.211129
0.207526
0.204688
0.0890385
0.0850643
0.090934
0.102944
0.118361
0.13465
0.149976
0.163376
0.174508
0.183393
0.19022
0.195229
0.198664
0.20075
0.201679
0.201627
0.200836
0.199352
0.196374
0.194095
0.0606386
0.0571845
0.0636234
0.0764672
0.0929501
0.110453
0.127058
0.141739
0.154114
0.164185
0.172132
0.178195
0.182619
0.185632
0.18743
0.18819
0.18816
0.187398
0.185043
0.183306
0.0321231
0.0291916
0.0361879
0.0498472
0.0673794
0.0860835
0.103961
0.11992
0.13354
0.144798
0.153868
0.160988
0.166405
0.170349
0.173017
0.17459
0.175323
0.175282
0.173544
0.172327
0.00354977
0.00114229
0.00868244
0.0231364
0.0416972
0.0615866
0.0807261
0.097958
0.112819
0.125264
0.135457
0.143636
0.150047
0.154923
0.158464
0.160849
0.162342
0.163022
0.16189
0.161159
-0.0250235
-0.0269065
-0.0188379
-0.00361317
0.0159521
0.0370069
0.0573941
0.0758897
0.0919858
0.105615
0.11693
0.126166
0.133571
0.139378
0.143791
0.146987
0.149236
0.150635
0.150097
0.1498
-0.0535388
-0.0548981
-0.0463178
-0.030349
-0.00980712
0.0123893
0.0340063
0.0537529
0.0710761
0.0858835
0.0983164
0.108606
0.117002
0.123739
0.129022
0.133026
0.136027
0.138145
0.138187
0.138242
-0.0819382
-0.082776
-0.0737021
-0.0570188
-0.0355317
-0.0122213
0.0106038
0.0315856
0.0501243
0.066101
0.0796451
0.0909841
0.100367
0.108031
0.114181
0.11899
0.122732
0.125574
0.126201
0.126469
-0.110164
-0.110484
-0.100936
-0.0835703
-0.0611729
-0.03678
-0.0127721
0.00942542
0.029165
0.0463
0.0609463
0.0733274
0.0836914
0.0922775
0.099293
0.104903
0.109374
0.112945
0.114219
0.114421
-0.138159
-0.137966
-0.127965
-0.109952
-0.0866822
-0.061242
-0.0360804
-0.0126899
0.00823295
0.0265122
0.0422497
0.0556637
0.0670016
0.0765039
0.0843811
0.0907913
0.0959715
0.10025
0.102334
0.101869
-0.165168
-0.154733
-0.13611
-0.112011
-0.0855625
-0.0592802
-0.034723
-0.0126376
0.00676933
0.0235845
0.0380203
0.0503233
0.0607346
0.0694694
0.076684
0.0825593
0.0874823
0.0909239
0.0900582
-0.192036
-0.18119
-0.161996
-0.137112
-0.109698
-0.082331
-0.0566367
-0.0334126
-0.0128972
0.00497973
0.0204243
0.0336816
0.0449938
0.0545812
0.062608
0.0692071
0.07473
0.0793635
0.0807737
-0.207281
-0.187559
-0.161937
-0.133603
-0.105193
-0.0783945
-0.0540585
-0.0324566
-0.0135362
0.00290182
0.0171013
0.029305
0.0397385
0.0485811
0.0559451
0.062114
0.0677642
0.0714128
-0.212748
-0.186439
-0.157237
-0.127826
-0.0999602
-0.0745422
-0.0518786
-0.0319354
-0.0145214
0.000605701
0.0136896
0.0249604
0.0346136
0.0427623
0.0496267
0.0561189
0.0613407
-0.237517
-0.210574
-0.180555
-0.150191
-0.121298
-0.0948313
-0.0711334
-0.0501906
-0.0318205
-0.0157826
-0.00183231
0.0102639
0.0207151
0.0296432
0.0372231
0.0444641
0.050803
-0.234294
-0.203516
-0.172251
-0.142374
-0.114894
-0.0901921
-0.0682754
-0.0489713
-0.032042
-0.0172419
-0.00433513
0.00689706
0.0165869
0.0248796
0.0328276
0.040067
-0.22608
-0.193968
-0.163153
-0.134699
-0.109026
-0.0861638
-0.0659503
-0.0481513
-0.0325209
-0.0188212
-0.00682704
0.00360283
0.0125932
0.0212113
0.0292333
-0.215305
-0.183602
-0.154217
-0.127608
-0.103831
-0.0827348
-0.0640901
-0.0476511
-0.0331787
-0.0204434
-0.00929644
0.000371309
0.00961915
0.0183326
-0.236227
-0.203689
-0.173417
-0.145911
-0.121252
-0.0993027
-0.0798384
-0.0626145
-0.0473918
-0.0339379
-0.0220976
-0.0117742
-0.00193259
0.00740063
-0.223382
-0.192271
-0.16391
-0.138404
-0.115632
-0.0953765
-0.0773936
-0.0614447
-0.0472959
-0.0347865
-0.0238291
-0.0134228
-0.00352019
-0.210752
-0.181578
-0.155264
-0.131703
-0.110686
-0.0919711
-0.0753214
-0.0605024
-0.0473482
-0.0357781
-0.0248314
-0.0143941
-0.198893
-0.171809
-0.147495
-0.125747
-0.10633
-0.0890061
-0.0735421
-0.0597674
-0.0476058
-0.0361401
-0.0251944
-0.188019
-0.162988
-0.140544
-0.120454
-0.102483
-0.0864001
-0.0720291
-0.0592971
-0.0473319
-0.0358993
-0.178164
-0.155057
-0.134326
-0.115738
-0.0990618
-0.0841189
-0.0708373
-0.0583914
-0.0464905
-0.169273
-0.147932
-0.128756
-0.111513
-0.0960229
-0.082213
-0.0693044
-0.0569523
-0.161258
-0.141523
-0.123741
-0.107728
-0.0934113
-0.0800582
-0.0672713
-0.154026
-0.135733
-0.119222
-0.104421
-0.0906411
-0.0774358
-0.147477
-0.130495
-0.11523
-0.101043
-0.0874359
-0.141534
-0.12583
-0.111254
-0.0972623
-0.121266
-0.106907
-0.116362
0.10306
0.0939964
0.0843123
0.0749538
0.0653483
0.055464
0.0455195
0.0355921
0.0256855
0.0158209
0.00602859
-0.00367115
-0.0132659
-0.0227454
-0.0321006
-0.0413235
-0.0504079
-0.0593479
-0.0681387
-0.0767758
-0.0852553
0.0916097
0.0820278
0.0714133
0.0621237
0.0532011
0.0440803
0.0349415
0.0259471
0.0170878
0.00833481
-0.000308219
-0.00883148
-0.0172327
-0.0255123
-0.0336696
-0.0417029
-0.0496107
-0.0573913
-0.0650432
-0.0725648
-0.0799545
0.0786243
0.0694042
0.0594086
0.0510094
0.0432164
0.0352654
0.0272466
0.0193566
0.0116083
0.00395661
-0.00361018
-0.0110834
-0.0184576
-0.0257322
-0.0329061
-0.0399773
-0.046943
-0.0538011
-0.0605494
-0.0671862
-0.0737095
0.0664926
0.0580945
0.0491815
0.0417482
0.0348951
0.0278945
0.020797
0.0137969
0.00692837
0.00015269
-0.00654596
-0.0131601
-0.0196823
-0.0261108
-0.0324456
-0.0386856
-0.0448297
-0.0508769
-0.0568268
-0.0626788
-0.0684328
0.0561552
0.0486575
0.0408189
0.0342474
0.028176
0.0219836
0.0157043
0.00950776
0.00343244
-0.00255315
-0.00846644
-0.0143036
-0.0200587
-0.0257307
-0.0313202
-0.0368277
-0.0422529
-0.0475957
-0.052856
-0.0580339
-0.0631295
0.0474753
0.04078
0.033894
0.0280747
0.0226704
0.0171724
0.0116079
0.00611686
0.000733428
-0.00456783
-0.00980311
-0.0149708
-0.0200665
-0.0250891
-0.0300398
-0.0349191
-0.0397274
-0.0444646
-0.0491312
-0.0537274
-0.0582537
0.0401679
0.0341772
0.0281393
0.0229982
0.0181904
0.0133086
0.00838007
0.00351786
-0.00125082
-0.0059467
-0.0105836
-0.015161
-0.0196758
-0.0241274
-0.0285168
-0.0328449
-0.0371123
-0.0413192
-0.0454663
-0.049554
-0.053583
0.0340423
0.0286847
0.0234012
0.0188682
0.0145934
0.0102569
0.00588896
0.00158062
-0.00264788
-0.00681364
-0.0109279
-0.0149905
-0.0189992
-0.0229538
-0.0268552
-0.0307042
-0.0345016
-0.0382477
-0.0419432
-0.0455886
-0.0491846
0.0289569
0.0241709
0.0195514
0.0155555
0.0117531
0.00789716
0.0040218
0.000199929
-0.00355424
-0.00725498
-0.0109112
-0.0145228
-0.0180882
-0.0216074
-0.0250812
-0.0285105
-0.031896
-0.035238
-0.0385373
-0.0417944
-0.0450098
0.0247761
0.0205024
0.0164625
0.0129374
0.00955176
0.00611911
0.00267619
-0.000718804
-0.00405669
-0.00734949
-0.0106041
-0.0138205
-0.0169975
-0.0201352
-0.0232344
-0.026296
-0.0293204
-0.0323083
-0.0352601
-0.0381765
-0.0410579
0.0213721
0.0175554
0.0140194
0.0109063
0.00788842
0.00482877
0.00176583
-0.0012543
-0.00422648
-0.0071609
-0.0100628
-0.0129321
-0.015768
-0.0185705
-0.0213406
-0.0240788
-0.0267857
-0.0294618
-0.0321076
-0.0347235
-0.0373101
0.0186317
0.0152216
0.012123
0.0093702
0.00667714
0.00394645
0.00121758
-0.00147315
-0.0041238
-0.00674305
-0.00933483
-0.0118989
-0.0144346
-0.0169423
-0.0194225
-0.021876
-0.0243031
-0.0267042
-0.0290799
-0.0314305
-0.0337566
0.0164567
0.0134081
0.0106888
0.00825096
0.0058448
0.0034044
0.00096944
-0.00143163
-0.00379933
-0.00614109
-0.00845974
-0.0107549
-0.0130262
-0.0152739
-0.0174986
-0.0197008
-0.0218808
-0.024039
-0.026176
-0.0282919
-0.0303872
0.0147621
0.0120345
0.00964394
0.00748151
0.00532882
0.00314477
0.000968613
-0.0011775
-0.00329593
-0.00539303
-0.00747081
-0.00952881
-0.0115667
-0.0135848
-0.0155837
-0.0175636
-0.019525
-0.0214681
-0.0233934
-0.0253011
-0.0271915
0.0134741
0.0110316
0.0089259
0.00700427
0.00507567
0.0031182
0.00117016
-0.000751294
-0.00264983
-0.00453095
-0.00639599
-0.00824441
-0.010076
-0.011891
-0.0136899
-0.015473
-0.0172406
-0.0189929
-0.0207303
-0.022453
-0.0241612
0.012529
0.0103394
0.00848082
0.00676993
0.0050396
0.00328258
0.00153585
-0.000187392
-0.00189171
-0.0035819
-0.00525877
-0.00692172
-0.00857059
-0.0102057
-0.0118273
-0.0134357
-0.0150312
-0.016614
-0.0181843
-0.0197423
-0.0212883
0.0118719
0.0099068
0.00826255
0.00673625
0.00518148
0.00360199
0.00203313
0.000484986
-0.00104758
-0.00256875
-0.00407893
-0.00557752
-0.00706437
-0.00853975
-0.010004
-0.0114572
-0.0128997
-0.0143315
-0.015753
-0.0171643
-0.0185655
0.0114553
0.00968959
0.00823151
0.00686707
0.00546791
0.00404582
0.00263432
0.00124106
-0.000139396
-0.00151072
-0.00287306
-0.00422575
-0.00556869
-0.00690213
-0.00822631
-0.00954139
-0.0108475
-0.0121449
-0.0134335
-0.0147137
-0.0159856
0.0112385
0.00965001
0.00835377
0.00713144
0.00587036
0.00458797
0.00331587
0.00205981
0.000814246
-0.000424068
-0.00165505
-0.00287806
-0.004093
-0.00530009
-0.00649952
-0.00769144
-0.00887595
-0.0100532
-0.0112232
-0.0123862
-0.0135423
0.0111867
0.00975566
0.00860031
0.00750289
0.00636446
0.00520623
0.00405779
0.00292343
0.00179765
0.000677588
-0.000436547
-0.00154411
-0.00264502
-0.00373946
-0.00482761
-0.00590956
-0.0069854
-0.00805521
-0.0091191
-0.0101772
-0.0112295
0.0112697
0.00997882
0.00894629
0.00795884
0.00692946
0.00588171
0.00484311
0.00381687
0.00279762
0.00178283
0.0007728
-0.000231844
-0.00123102
-0.0022249
-0.00321361
-0.00419724
-0.00517584
-0.00614949
-0.00711825
-0.0080822
-0.00904144
0.0114619
0.0102958
0.00937048
0.00847998
0.00754771
0.00659838
0.00565749
0.00472744
0.00380308
0.00288215
0.00196501
0.00105226
0.000143983
-0.000759966
-0.0016597
-0.00255528
-0.00344673
-0.00433412
-0.00521749
-0.00609691
-0.00697244
0.0117411
0.0106863
0.0098548
0.00904993
0.00820421
0.00734268
0.00648887
0.00564453
0.00480481
0.00396769
0.00313356
0.002303
0.00147608
0.00065267
-0.00016731
-0.0009839
-0.00179713
-0.00260702
-0.00341363
-0.00421699
-0.00501716
0.0120886
0.0111332
0.0103839
0.00965474
0.00888629
0.0081032
0.00732709
0.00655925
0.00579515
0.00503299
0.00427317
0.00351621
0.00276221
0.00201105
0.00126267
0.000517037
-0.000225859
-0.00096604
-0.00170353
-0.00243838
-0.0031706
0.0124884
0.0116218
0.0109446
0.0102826
0.00958324
0.00887034
0.00816367
0.00746423
0.00676781
0.0060728
0.00537959
0.00468868
0.00400014
0.0033139
0.00262989
0.0019481
0.00126853
0.000591169
-8.40063e-05
-0.000757015
-0.00142788
0.0129268
0.0121397
0.011526
0.0109237
0.0102861
0.00963607
0.00899159
0.0083534
0.00771765
0.00708289
0.0064495
0.00581794
0.00518828
0.00456045
0.00393442
0.00331018
0.00268772
0.00206706
0.00144817
0.000831045
0.000215673
0.0133922
0.0126764
0.0121188
0.0115695
0.0109873
0.0103937
0.00980503
0.00922179
0.00864052
0.00805992
0.00748034
0.00690219
0.00632556
0.0057504
0.00517666
0.00460434
0.00403347
0.00346404
0.00289604
0.00232948
0.00176433
0.013875
0.0132231
0.0127151
0.0122131
0.0116807
0.0111379
0.0105993
0.0100654
0.00953319
0.00900136
0.00847026
0.00794029
0.00741152
0.00688391
0.00635743
0.00583209
0.0053079
0.00478487
0.00426301
0.00374231
0.00322276
0.0143668
0.0137724
0.0133085
0.0128488
0.0123612
0.011864
0.0113706
0.0108812
0.0103931
0.00990529
0.00941797
0.00893152
0.00844601
0.00796142
0.00747772
0.00699493
0.00651306
0.00603212
0.00555213
0.00507307
0.00459496
0.0148609
0.0143184
0.0138936
0.0134717
0.0130246
0.0125686
0.0121158
0.0116666
0.0112184
0.0107704
0.0103226
0.00987557
0.00942925
0.00898364
0.00853874
0.00809455
0.0076511
0.00720841
0.00676647
0.0063253
0.0058849
0.0153516
0.0148558
0.014466
0.0140782
0.0136675
0.0132487
0.0128328
0.0124198
0.0120078
0.0115957
0.0111838
0.0107725
0.0103617
0.00995149
0.00954182
0.00913273
0.00872422
0.00831632
0.00790904
0.00750238
0.00709635
0.0158342
0.0153806
0.0150221
0.0146651
0.0142873
0.0139023
0.0135196
0.0131396
0.0127602
0.0123808
0.0120015
0.0116226
0.0112441
0.0108661
0.0104885
0.0101113
0.00973465
0.00935846
0.00898277
0.0086076
0.00823295
0.0163049
0.0158896
0.0155592
0.0152298
0.0148819
0.0145275
0.0141751
0.0138249
0.0134752
0.0131255
0.0127758
0.0124264
0.0120774
0.0117286
0.0113803
0.0110323
0.0106846
0.0103374
0.00999055
0.00964414
0.00929818
0.0167606
0.01638
0.016075
0.0157707
0.0154499
0.0151233
0.0147983
0.0144753
0.0141527
0.01383
0.0135073
0.0131848
0.0128626
0.0125406
0.0122189
0.0118975
0.0115764
0.0112556
0.0109352
0.0106151
0.0102954
0.017199
0.0168498
0.0165678
0.0162863
0.0159902
0.0156889
0.0153889
0.0150906
0.0147927
0.0144946
0.0141966
0.0138986
0.0136009
0.0133034
0.0130061
0.012709
0.0124122
0.0121156
0.0118194
0.0115234
0.0112278
0.0176181
0.0172976
0.0170364
0.0167757
0.0165021
0.0162238
0.0159467
0.015671
0.0153956
0.01512
0.0148445
0.014569
0.0142937
0.0140185
0.0137436
0.0134688
0.0131942
0.0129199
0.0126458
0.012372
0.0120985
0.0180167
0.0177222
0.01748
0.0172383
0.0169852
0.016728
0.0164717
0.0162167
0.0159619
0.015707
0.015452
0.0151971
0.0149423
0.0146877
0.0144332
0.0141789
0.0139248
0.0136708
0.0134171
0.0131636
0.0129104
0.0183937
0.018123
0.0178982
0.0176737
0.0174394
0.0172015
0.0169644
0.0167282
0.0164923
0.0162563
0.0160202
0.0157842
0.0155483
0.0153125
0.0150768
0.0148413
0.0146059
0.0143707
0.0141357
0.0139009
0.0136663
0.0187485
0.0184996
0.0182906
0.0180821
0.017865
0.0176448
0.0174251
0.0172063
0.0169878
0.0167691
0.0165503
0.0163317
0.0161131
0.0158946
0.0156762
0.0154579
0.0152398
0.0150218
0.014804
0.0145864
0.014369
0.0190809
0.0188518
0.0186575
0.0184635
0.0182623
0.0180582
0.0178546
0.0176518
0.0174492
0.0172464
0.0170436
0.0168409
0.0166382
0.0164356
0.0162331
0.0160308
0.0158285
0.0156264
0.0154245
0.0152227
0.0150212
0.0193909
0.0191799
0.018999
0.0188185
0.0186318
0.0184426
0.0182538
0.0180656
0.0178776
0.0176895
0.0175014
0.0173133
0.0171253
0.0169373
0.0167495
0.0165618
0.0163742
0.0161867
0.0159993
0.0158122
0.0156252
0.0196785
0.0194841
0.0193156
0.0191475
0.0189741
0.0187986
0.0186234
0.0184487
0.0182742
0.0180996
0.017925
0.0177504
0.0175759
0.0174014
0.0172271
0.0170528
0.0168787
0.0167047
0.0165308
0.0163571
0.0161836
0.0199442
0.0197651
0.019608
0.0194513
0.0192902
0.0191273
0.0189646
0.0188023
0.0186402
0.018478
0.0183158
0.0181537
0.0179916
0.0178296
0.0176676
0.0175058
0.0173441
0.0171825
0.017021
0.0168597
0.0166985
0.0201885
0.0200233
0.0198768
0.0197307
0.0195809
0.0194295
0.0192783
0.0191275
0.0189768
0.0188261
0.0186753
0.0185246
0.018374
0.0182234
0.0180729
0.0179225
0.0177722
0.017622
0.017472
0.0173221
0.0171724
0.0204121
0.0202596
0.0201228
0.0199865
0.0198471
0.0197064
0.0195658
0.0194255
0.0192853
0.0191451
0.0190049
0.0188647
0.0187246
0.0185845
0.0184446
0.0183047
0.018165
0.0180253
0.0178858
0.0177464
0.0176072
0.0206157
0.0204748
0.020347
0.0202198
0.0200899
0.0199589
0.0198281
0.0196975
0.0195669
0.0194364
0.0193059
0.0191754
0.019045
0.0189146
0.0187844
0.0186542
0.0185241
0.0183941
0.0182643
0.0181346
0.0180051
0.0208001
0.0206698
0.0205504
0.0204314
0.0203103
0.0201883
0.0200664
0.0199447
0.0198231
0.0197014
0.0195798
0.0194582
0.0193367
0.0192152
0.0190939
0.0189726
0.0188514
0.0187303
0.0186094
0.0184885
0.0183679
0.0209663
0.0208456
0.0207339
0.0206225
0.0205095
0.0203957
0.020282
0.0201684
0.0200549
0.0199414
0.0198279
0.0197145
0.0196011
0.0194878
0.0193746
0.0192615
0.0191484
0.0190355
0.0189227
0.01881
0.0186974
0.0211151
0.0210032
0.0208985
0.0207942
0.0206885
0.0205822
0.0204759
0.0203698
0.0202637
0.0201577
0.0200517
0.0199457
0.0198397
0.0197339
0.0196281
0.0195224
0.0194168
0.0193113
0.0192059
0.0191007
0.0212476
0.0211435
0.0210453
0.0209473
0.0208483
0.0207489
0.0206494
0.0205501
0.0204508
0.0203515
0.0202522
0.020153
0.0200539
0.0199548
0.0198557
0.0197568
0.019658
0.0195592
0.0194606
0.0193621
0.0213646
0.0212676
0.0211752
0.0210831
0.0209902
0.0208968
0.0208035
0.0207103
0.0206171
0.020524
0.0204309
0.0203378
0.0202448
0.0201518
0.0200589
0.0199661
0.0198734
0.0197807
0.0196882
0.0195958
0.0214671
0.0213764
0.0212893
0.0212024
0.0211149
0.0210271
0.0209394
0.0208516
0.020764
0.0206763
0.0205887
0.0205011
0.0204136
0.0203261
0.0202387
0.0201514
0.0200642
0.0199771
0.0198901
0.0198032
0.0215559
0.0214709
0.0213885
0.0213063
0.0212236
0.0211408
0.0210579
0.0209751
0.0208923
0.0208095
0.0207268
0.0206441
0.0205615
0.0204789
0.0203964
0.020314
0.0202317
0.0201494
0.0200673
0.0199853
0.021632
0.0215518
0.0214735
0.0213955
0.0213171
0.0212385
0.0211599
0.0210814
0.0210029
0.0209244
0.020846
0.0207676
0.0206893
0.020611
0.0205328
0.0204547
0.0203767
0.0202987
0.0202209
0.0201432
0.0216961
0.02162
0.0215454
0.0214708
0.0213961
0.0213212
0.0212463
0.0211715
0.0210967
0.021022
0.0209472
0.0208726
0.0207979
0.0207234
0.0206489
0.0205745
0.0205002
0.020426
0.0203519
0.0202779
0.0217488
0.0216761
0.0216044