/*--------------------------------*- C++ -*----------------------------------*\
  =========                 |
  \\      /  F ield         | OpenFOAM: The Open Source CFD Toolbox
   \\    /   O peration     | Website:  https://openfoam.org
    \\  /    A nd           | Version:  7
     \\/     M anipulation  |
\*---------------------------------------------------------------------------*/
FoamFile
{
    version     2.0;
    format      ascii;
    class       surfaceScalarField;
    location    "160";
    object      phi;
}
// * * * * * * * * * * * * * * * * * * * * * * * * * * * * * * * * * * * * * //

dimensions      [0 3 -1 0 0 0 0];

internalField   nonuniform List<scalar> 
8878
(
-0.00406045
-0.00023626
-0.000236678
-0.00391855
-0.00402728
-0.00026985
-0.00020138
-0.00368165
-0.000234395
-0.00378034
-0.000268328
-0.00388461
-0.0039925
-0.0003031
-0.000196028
-0.00355675
-0.000229518
-0.00364816
-0.000264099
-0.00374576
-0.000299629
-0.00384909
-0.00395613
-0.000335998
-0.000188528
-0.00343865
-0.000222305
-0.00352297
-0.000257302
-0.00361316
-0.000293443
-0.00370962
-0.000330568
-0.00381196
-0.00391817
-0.000368531
-0.000179041
-0.00332671
-0.000213009
-0.00340468
-0.00024823
-0.00348775
-0.000284721
-0.00357667
-0.000322412
-0.00367193
-0.000361132
-0.00377324
-0.00387862
-0.000400686
-0.000167651
-0.00322004
-0.000201781
-0.00329258
-0.000237147
-0.00336931
-0.000273796
-0.0034511
-0.000311763
-0.0035387
-0.000350995
-0.0036327
-0.000391305
-0.00373293
-0.00383747
-0.00043245
-0.000154424
-0.00311745
-0.000188688
-0.00318577
-0.000224191
-0.00325708
-0.000260938
-0.00333257
-0.000298995
-0.00341305
-0.00033842
-0.00349928
-0.000379176
-0.00359194
-0.000421073
-0.00369103
-0.00379474
-0.000463807
-0.000139472
-0.00301722
-0.00017378
-0.00308315
-0.000209408
-0.00315014
-0.000246267
-0.00322022
-0.000284378
-0.00329446
-0.000323822
-0.0033736
-0.00036468
-0.00345842
-0.000406943
-0.00354968
-0.00045042
-0.00364756
-0.00375042
-0.000494742
-0.000122998
-0.00291636
-0.000157154
-0.00298306
-0.000192831
-0.00304747
-0.000229805
-0.00311317
-0.000268006
-0.00318202
-0.000307463
-0.003255
-0.000348271
-0.00333279
-0.000390537
-0.00341615
-0.000434283
-0.00350593
-0.000479329
-0.00360251
-0.00370451
-0.000525238
-0.00010534
-0.00280996
-0.000138998
-0.0028827
-0.000174546
-0.00294751
-0.000211573
-0.00301044
-0.000249878
-0.00307486
-0.000289404
-0.00314249
-0.00033019
-0.00321421
-0.00037234
-0.00329065
-0.000415984
-0.00337251
-0.000461182
-0.00346073
-0.000507785
-0.00355591
-0.00365701
-0.000555277
-8.69998e-05
-0.0026903
-0.000119629
-0.00277733
-0.000154726
-0.00284761
-0.000191643
-0.00291059
-0.000230002
-0.00297208
-0.000269623
-0.00303524
-0.000310461
-0.00310166
-0.000352558
-0.00317212
-0.000396026
-0.00324718
-0.000441016
-0.00332752
-0.000487633
-0.00341412
-0.00053577
-0.00350777
-0.00360794
-0.000584842
-6.86569e-05
-0.00254639
-9.95303e-05
-0.00265943
-0.000133672
-0.00274319
-0.000170179
-0.0028111
-0.000208444
-0.00287233
-0.000248117
-0.00293241
-0.000289039
-0.00299432
-0.000331173
-0.00305952
-0.000374566
-0.00312872
-0.00041933
-0.00320241
-0.000465633
-0.00328122
-0.000513627
-0.00336612
-0.000563274
-0.00345812
-0.0035573
-0.000613919
-5.11367e-05
-0.00236403
-7.93644e-05
-0.00251816
-0.000111845
-0.00262695
-0.000147464
-0.00270757
-0.000185354
-0.00277321
-0.000224944
-0.00283274
-0.000265913
-0.00289144
-0.000308122
-0.00295211
-0.00035154
-0.0030161
-0.000396214
-0.00308405
-0.000442255
-0.00315637
-0.000489838
-0.00323363
-0.000539164
-0.0033168
-0.000590286
-0.003407
-0.00350509
-0.000642495
-5.99533e-05
-0.0023394
-8.98923e-05
-0.00248823
-0.000123939
-0.0025929
-0.000161001
-0.00267051
-0.000200247
-0.00273396
-0.000241141
-0.00279185
-0.000283389
-0.00284919
-0.000326869
-0.00290863
-0.000371559
-0.00297141
-0.000417504
-0.0030381
-0.000464806
-0.00310907
-0.00051364
-0.0031848
-0.00056425
-0.00326619
-0.000616806
-0.00335445
-0.00345134
-0.000670559
-4.22011e-05
-0.00210664
-6.86301e-05
-0.00231297
-0.000100235
-0.00245662
-0.000135809
-0.00255732
-0.00017428
-0.00263203
-0.000214855
-0.00269339
-0.000257031
-0.00274967
-0.00030054
-0.00280568
-0.000345278
-0.0028639
-0.000391228
-0.00292546
-0.000438434
-0.0029909
-0.000486987
-0.00306052
-0.00053705
-0.00313474
-0.0005889
-0.00321434
-0.000642846
-0.0033005
-0.00339606
-0.000698117
-2.69677e-05
-0.00180309
-4.89807e-05
-0.00208462
-7.71611e-05
-0.00228479
-0.000110388
-0.00242339
-0.000147449
-0.00252026
-0.000187298
-0.00259218
-0.000229175
-0.00265151
-0.000272611
-0.00270624
-0.000317364
-0.00276093
-0.000363344
-0.00281792
-0.000410543
-0.00287826
-0.000459003
-0.00294244
-0.000508804
-0.00301072
-0.000560084
-0.00308345
-0.000613142
-0.00316128
-0.000668439
-0.0032452
-0.00333927
-0.000725231
-3.18568e-05
-0.00178616
-5.56549e-05
-0.00206083
-8.55412e-05
-0.0022549
-0.000120346
-0.00238859
-0.000158856
-0.00248175
-0.000200051
-0.00255099
-0.000243204
-0.00260836
-0.000287878
-0.00266156
-0.000333856
-0.00271495
-0.000381063
-0.00277071
-0.0004295
-0.00282982
-0.000479209
-0.00289273
-0.000530258
-0.00295967
-0.000582759
-0.00303095
-0.000637014
-0.00310702
-0.000693645
-0.00318857
-0.00328093
-0.000751991
-1.80213e-05
-0.0014028
-3.66782e-05
-0.0017675
-6.22185e-05
-0.00203529
-9.37655e-05
-0.00222335
-0.000130106
-0.00235225
-0.000170028
-0.00244183
-0.000212536
-0.00250848
-0.000256939
-0.00256395
-0.000302829
-0.00261567
-0.000350013
-0.00266777
-0.000398429
-0.00272229
-0.00044809
-0.00278016
-0.000499044
-0.00284178
-0.00055135
-0.00290736
-0.000605096
-0.00297721
-0.000660574
-0.00305155
-0.000718488
-0.00313066
-0.00322099
-0.000778422
-7.9727e-06
-0.000924942
-2.10871e-05
-0.00138969
-4.14274e-05
-0.00174716
-6.86668e-05
-0.00200805
-0.00010183
-0.00219019
-0.000139664
-0.00231441
-0.00018096
-0.00240054
-0.00022475
-0.00246469
-0.000270377
-0.00251833
-0.00031746
-0.00256859
-0.000365828
-0.0026194
-0.000415436
-0.00267269
-0.000466306
-0.00272929
-0.000518494
-0.00278959
-0.000572065
-0.00285379
-0.000627113
-0.00292216
-0.000683917
-0.00299474
-0.000742996
-0.00307158
-0.00315917
-0.000804818
-9.52114e-06
-0.000917348
-2.41131e-05
-0.0013751
-4.61e-05
-0.00172517
-7.49953e-05
-0.00197915
-0.00010973
-0.00215546
-0.000149016
-0.00227513
-0.00019165
-0.0023579
-0.000236692
-0.00241965
-0.000283515
-0.00247151
-0.000331768
-0.00252033
-0.000381299
-0.00256987
-0.000432076
-0.00262191
-0.000484133
-0.00267724
-0.000537538
-0.00273618
-0.000592372
-0.00279896
-0.000648776
-0.00286576
-0.000707086
-0.00293643
-0.000768
-0.00301066
-0.00309692
-0.000830254
-2.38031e-06
-0.000347419
-1.10492e-05
-0.000908679
-2.70906e-05
-0.00135906
-5.06862e-05
-0.00170158
-8.11939e-05
-0.00194864
-0.000117456
-0.00211919
-0.000158153
-0.00223443
-0.000202089
-0.00231397
-0.000248352
-0.00237339
-0.000296345
-0.00242351
-0.000345743
-0.00247094
-0.000396414
-0.0025192
-0.000448337
-0.00256999
-0.000501557
-0.00262402
-0.000556147
-0.00268159
-0.000612215
-0.00274289
-0.000669958
-0.00280801
-0.000729557
-0.00287683
-0.000790265
-0.00294996
-0.00302941
-0.000857776
-2.83214e-06
-0.000344587
-1.25625e-05
-0.000898949
-3.00268e-05
-0.00134159
-5.51938e-05
-0.00167641
-8.72711e-05
-0.00191657
-0.000125017
-0.00208145
-0.000167085
-0.00219236
-0.000212288
-0.00226876
-0.000259741
-0.00232593
-0.000308876
-0.00237438
-0.000359395
-0.00242042
-0.000411181
-0.00246741
-0.000464225
-0.00251694
-0.000518577
-0.00256966
-0.000574318
-0.00262585
-0.000631563
-0.00268564
-0.000690484
-0.00274909
-0.000751167
-0.00281615
-0.000813696
-0.00288743
-0.00296271
-0.000880389
-3.27944e-06
-0.000341307
-1.40551e-05
-0.000888173
-3.29134e-05
-0.00132273
-5.96136e-05
-0.00164971
-9.32174e-05
-0.00188296
-0.000132404
-0.00204226
-0.000175803
-0.00214896
-0.000222238
-0.00222233
-0.00027085
-0.00227732
-0.000321101
-0.00232413
-0.000372715
-0.0023688
-0.000425591
-0.00241454
-0.00047973
-0.0024628
-0.000535186
-0.00251421
-0.000592043
-0.00256899
-0.000650413
-0.00262727
-0.000710438
-0.00268907
-0.000772209
-0.00275438
-0.000836002
-0.00282363
-0.00289597
-0.000902745
-3.72161e-06
-0.000337586
-1.55253e-05
-0.00087637
-3.57479e-05
-0.00130251
-6.39423e-05
-0.00162152
-9.90297e-05
-0.00184788
-0.000139615
-0.00200168
-0.000184305
-0.00210427
-0.000231937
-0.00217469
-0.000281678
-0.00222758
-0.000333017
-0.00227279
-0.000385701
-0.00231612
-0.000439641
-0.0023606
-0.000494848
-0.0024076
-0.00055138
-0.00245768
-0.000609321
-0.00251105
-0.000668776
-0.00256782
-0.000729865
-0.00262798
-0.00079269
-0.00269155
-0.000857505
-0.00275882
-0.0028288
-0.000924681
-4.15808e-06
-0.000333428
-1.69715e-05
-0.000863556
-3.85276e-05
-0.00128096
-6.81771e-05
-0.00159187
-0.000104705
-0.00181135
-0.000146646
-0.00195974
-0.00019259
-0.00205833
-0.000241384
-0.0021259
-0.000292223
-0.00217674
-0.000344623
-0.00222039
-0.00039835
-0.00226239
-0.00045333
-0.00230562
-0.000509578
-0.00235135
-0.000567157
-0.0024001
-0.00062615
-0.00245206
-0.000686656
-0.00250731
-0.000748779
-0.00256585
-0.00081262
-0.00262771
-0.000878373
-0.00269307
-0.00276098
-0.000946184
-4.5883e-06
-0.000328839
-1.8392e-05
-0.000849753
-4.12502e-05
-0.0012581
-7.23152e-05
-0.0015608
-0.000110241
-0.00177342
-0.000153497
-0.00191648
-0.000200655
-0.00201117
-0.000250578
-0.00207598
-0.000302485
-0.00212484
-0.000355918
-0.00216695
-0.000410662
-0.00220765
-0.000466655
-0.00224962
-0.000523918
-0.00229408
-0.000582517
-0.0023415
-0.000642532
-0.00239205
-0.000704057
-0.00244579
-0.000767186
-0.00250272
-0.000832014
-0.00256288
-0.00089868
-0.0026264
-0.00269242
-0.000967245
-5.01172e-06
-0.000323827
-1.97853e-05
-0.000834979
-4.39134e-05
-0.00123397
-7.63542e-05
-0.00152836
-0.000115636
-0.00173414
-0.000160164
-0.00187195
-0.000208498
-0.00196284
-0.000259516
-0.00202496
-0.000312462
-0.00207189
-0.0003669
-0.00211251
-0.000422635
-0.00215191
-0.000479615
-0.00219264
-0.000537867
-0.00223583
-0.000597457
-0.00228191
-0.000658466
-0.00233104
-0.000720983
-0.00238327
-0.000785094
-0.00243861
-0.000850885
-0.00249709
-0.000918461
-0.00255882
-0.00262303
-5.42782e-06
-0.0003184
-2.115e-05
-0.000819257
-4.65152e-05
-0.0012086
-8.02917e-05
-0.00149458
-0.000120886
-0.00169355
-0.000166646
-0.00182619
-0.00021612
-0.00191336
-0.000268199
-0.00197288
-0.000322153
-0.00201794
-0.000377569
-0.0020571
-0.000434268
-0.00209521
-0.000492209
-0.0021347
-0.000551424
-0.00217662
-0.000611979
-0.00222135
-0.000673956
-0.00226906
-0.000737437
-0.00231979
-0.000802507
-0.00237354
-0.000869243
-0.00243036
-0.00093773
-0.00249034
-0.00255277
-5.83609e-06
-0.000312564
-2.24848e-05
-0.000802608
-4.90536e-05
-0.00118204
-8.41257e-05
-0.00145951
-0.000125991
-0.00165168
-0.000172942
-0.00177924
-0.000223518
-0.00186279
-0.000276625
-0.00191977
-0.000331557
-0.00196301
-0.000387924
-0.00200073
-0.000445561
-0.00203758
-0.000504436
-0.00207583
-0.000564587
-0.00211646
-0.000626082
-0.00215986
-0.000689
-0.00220614
-0.000753422
-0.00225537
-0.000819429
-0.00230754
-0.000887093
-0.00236269
-0.000956489
-0.00242094
-0.00248162
-6.23603e-06
-0.000306328
-2.37885e-05
-0.000785056
-5.15268e-05
-0.0011543
-8.78542e-05
-0.00142318
-0.000130948
-0.00160859
-0.000179051
-0.00173114
-0.000230692
-0.00181115
-0.000284794
-0.00186567
-0.000340674
-0.00190713
-0.000397963
-0.00194344
-0.000456512
-0.00197903
-0.000516296
-0.00201604
-0.000577357
-0.0020554
-0.000639765
-0.00209745
-0.000703599
-0.00214231
-0.000768938
-0.00219003
-0.000835861
-0.00224061
-0.000904437
-0.00229412
-0.000974739
-0.00235064
-6.62719e-06
-0.0002997
-2.50597e-05
-0.000766623
-5.39332e-05
-0.00112542
-9.14754e-05
-0.00138564
-0.000135756
-0.00156431
-0.00018497
-0.00168192
-0.00023764
-0.00175848
-0.000292705
-0.0018106
-0.000349503
-0.00185033
-0.000407687
-0.00188526
-0.00046712
-0.0019196
-0.000527787
-0.00195538
-0.000589733
-0.00199346
-0.000653029
-0.00203416
-0.000717753
-0.00207759
-0.000783986
-0.00212379
-0.000851804
-0.00217279
-0.000921277
-0.00222465
-0.00227944
-7.00911e-06
-0.000292691
-2.62975e-05
-0.000747335
-5.62712e-05
-0.00109545
-9.49876e-05
-0.00134693
-0.000140414
-0.00151888
-0.000190699
-0.00163164
-0.000244362
-0.00170482
-0.000300357
-0.00175461
-0.000358044
-0.00179264
-0.000417096
-0.00182621
-0.000477386
-0.00185931
-0.00053891
-0.00189385
-0.000601714
-0.00193065
-0.000665872
-0.00197
-0.000731462
-0.002012
-0.000798565
-0.00205669
-0.000867257
-0.0021041
-0.000937608
-0.00215429
-0.00220735
-7.38137e-06
-0.00028531
-2.75008e-05
-0.000727215
-5.85394e-05
-0.00106441
-9.83895e-05
-0.00130708
-0.00014492
-0.00147235
-0.000196237
-0.00158032
-0.000250857
-0.0016502
-0.00030775
-0.00169772
-0.000366297
-0.00173409
-0.000426187
-0.00176632
-0.000487309
-0.00179818
-0.000549662
-0.0018315
-0.000613299
-0.00186702
-0.000678293
-0.001905
-0.000744725
-0.00194556
-0.000812674
-0.00198874
-0.000882218
-0.00203456
-0.00095343
-0.00208308
-7.74357e-06
-0.000277566
-2.86685e-05
-0.00070629
-6.07363e-05
-0.00103234
-0.000101679
-0.00126613
-0.000149273
-0.00142476
-0.000201584
-0.00152801
-0.000257125
-0.00159466
-0.000314883
-0.00163996
-0.00037426
-0.00167472
-0.000434961
-0.00170561
-0.000496887
-0.00173626
-0.000560044
-0.00176834
-0.000624488
-0.00180257
-0.000690293
-0.0018392
-0.00075754
-0.00187832
-0.000826312
-0.00191997
-0.000896686
-0.00196418
-0.00201103
-8.09532e-06
-0.000269471
-2.97999e-05
-0.000684586
-6.28608e-05
-0.000999283
-0.000104856
-0.00122414
-0.000153471
-0.00137614
-0.000206737
-0.00147474
-0.000263165
-0.00153823
-0.000321757
-0.00158137
-0.000381933
-0.00161454
-0.000443418
-0.00164413
-0.000506121
-0.00167355
-0.000570055
-0.00170441
-0.000635278
-0.00173735
-0.000701868
-0.00177261
-0.000769906
-0.00181028
-0.000839475
-0.0018504
-0.000910656
-0.001893
-0.00193816
-8.43625e-06
-0.000261035
-3.08939e-05
-0.000662128
-6.49116e-05
-0.000965265
-0.000107919
-0.00118113
-0.000157515
-0.00132654
-0.000211698
-0.00142056
-0.000268976
-0.00148095
-0.000328369
-0.00152197
-0.000389317
-0.00155359
-0.000451556
-0.00158189
-0.000515009
-0.0016101
-0.000579693
-0.00163973
-0.00064567
-0.00167137
-0.000713018
-0.00170526
-0.000781821
-0.00174148
-0.000852163
-0.00178006
-0.000924126
-0.00182104
-0.0018645
-8.76603e-06
-0.000252269
-3.19498e-05
-0.000638944
-6.68877e-05
-0.000930327
-0.000110866
-0.00113715
-0.000161403
-0.00127601
-0.000216464
-0.0013655
-0.000274559
-0.00142285
-0.000334722
-0.00146181
-0.00039641
-0.0014919
-0.000459376
-0.00151892
-0.000523551
-0.00154593
-0.000588958
-0.00157432
-0.000655661
-0.00160467
-0.000723741
-0.00163718
-0.000793283
-0.00167193
-0.000864371
-0.00170897
-0.000937092
-0.00174832
-9.08432e-06
-0.000243184
-3.29668e-05
-0.000615062
-6.8788e-05
-0.000894506
-0.000113697
-0.00109224
-0.000165134
-0.00122457
-0.000221035
-0.0013096
-0.000279912
-0.00136398
-0.000340813
-0.00140091
-0.000403212
-0.00142951
-0.000466876
-0.00145526
-0.000531746
-0.00148106
-0.000597848
-0.00150822
-0.000665251
-0.00153727
-0.000734035
-0.0015684
-0.000804289
-0.00160168
-0.000876098
-0.00163716
-0.00167487
-9.39082e-06
-0.000233794
-3.39442e-05
-0.000590508
-7.06117e-05
-0.000857838
-0.00011641
-0.00104644
-0.000168708
-0.00117227
-0.000225412
-0.00125289
-0.000285036
-0.00130435
-0.000346642
-0.0013393
-0.000409723
-0.00136642
-0.000474057
-0.00139092
-0.000539593
-0.00141552
-0.000606363
-0.00144145
-0.000674437
-0.00146919
-0.0007439
-0.00149893
-0.000814838
-0.00153074
-0.000887341
-0.00156466
-0.00160071
-9.68522e-06
-0.000224108
-3.48813e-05
-0.000565312
-7.23577e-05
-0.000820362
-0.000119006
-0.000999795
-0.000172123
-0.00111916
-0.000229592
-0.00119542
-0.000289929
-0.00124402
-0.00035221
-0.00127702
-0.000415942
-0.00130269
-0.000480917
-0.00132595
-0.000547091
-0.00134935
-0.000614501
-0.00137404
-0.000683219
-0.00140047
-0.000753332
-0.00142882
-0.000824927
-0.00145915
-0.000898096
-0.00149149
-0.00152588
-9.96727e-06
-0.000214141
-3.57776e-05
-0.000539502
-7.40254e-05
-0.000782114
-0.000121482
-0.000952338
-0.000175379
-0.00106526
-0.000233577
-0.00113723
-0.000294592
-0.001183
-0.000357515
-0.0012141
-0.000421869
-0.00123834
-0.000487456
-0.00126036
-0.000554239
-0.00128256
-0.000622261
-0.00130602
-0.000691595
-0.00133114
-0.000762329
-0.00135809
-0.000834554
-0.00138692
-0.000908361
-0.00141768
-1.02367e-05
-0.000203904
-3.66322e-05
-0.000513107
-7.56138e-05
-0.000743132
-0.000123838
-0.000904114
-0.000178476
-0.00101062
-0.000237364
-0.00107834
-0.000299024
-0.00112134
-0.000362558
-0.00115056
-0.000427503
-0.00117339
-0.000493673
-0.00119419
-0.000561037
-0.0012152
-0.000629642
-0.00123741
-0.000699564
-0.00126122
-0.000770891
-0.00128676
-0.000843716
-0.0013141
-0.00134327
-1.04932e-05
-0.000193411
-3.74449e-05
-0.000486155
-7.71223e-05
-0.000703455
-0.000126074
-0.000855162
-0.000181412
-0.000955285
-0.000240955
-0.0010188
-0.000303225
-0.00105907
-0.000367338
-0.00108645
-0.000432844
-0.00110789
-0.000499567
-0.00112747
-0.000567484
-0.00114728
-0.000636643
-0.00116825
-0.000707124
-0.00119074
-0.000779015
-0.00121487
-0.000852411
-0.0012407
-0.00126827
-1.07367e-05
-0.000182674
-3.82149e-05
-0.000458677
-7.85502e-05
-0.00066312
-0.000128189
-0.000805523
-0.000184188
-0.000899285
-0.000244348
-0.000958635
-0.000307194
-0.000996227
-0.000371855
-0.00102179
-0.000437892
-0.00104185
-0.000505139
-0.00106022
-0.000573579
-0.00107884
-0.000643263
-0.00109857
-0.000714273
-0.00111973
-0.000786699
-0.00114244
-0.000860637
-0.00116676
-0.00119272
-1.09668e-05
-0.000171708
-3.89418e-05
-0.000430702
-7.98968e-05
-0.000622165
-0.000130182
-0.000755238
-0.000186803
-0.000842664
-0.000247543
-0.000897895
-0.000310932
-0.000932839
-0.000376108
-0.000956615
-0.000442645
-0.000975314
-0.000510387
-0.00099248
-0.00057932
-0.00100991
-0.000649501
-0.00102839
-0.000721011
-0.00104822
-0.000793942
-0.00106951
-0.000868392
-0.00109231
-0.00111666
-1.11834e-05
-0.000160524
-3.96251e-05
-0.00040226
-8.11617e-05
-0.000580628
-0.000132052
-0.000704348
-0.000189256
-0.000785461
-0.00025054
-0.000836611
-0.000314437
-0.000868942
-0.000380097
-0.000890955
-0.000447104
-0.000908306
-0.000515311
-0.000924274
-0.000584708
-0.000940511
-0.000655355
-0.00095774
-0.000727335
-0.000976237
-0.000800742
-0.000996104
-0.000875673
-0.00101738
-1.13863e-05
-0.000149138
-4.02645e-05
-0.000373382
-8.23442e-05
-0.000538548
-0.0001338
-0.000652892
-0.000191547
-0.000727714
-0.000253339
-0.000774819
-0.00031771
-0.00080457
-0.000383822
-0.000824844
-0.000451269
-0.000840859
-0.000519909
-0.000855633
-0.000589741
-0.00087068
-0.000660824
-0.000886657
-0.000733244
-0.000903817
-0.000807097
-0.000922251
-0.000942
-1.15753e-05
-0.000137563
-4.08595e-05
-0.000344098
-8.34438e-05
-0.000495964
-0.000135425
-0.000600911
-0.000193676
-0.000669462
-0.000255938
-0.000712557
-0.000320751
-0.000739758
-0.000387282
-0.000758312
-0.000455138
-0.000773004
-0.000524183
-0.000786588
-0.000594419
-0.000800444
-0.000665908
-0.000815167
-0.000738738
-0.000830987
-0.000813005
-0.000847984
-0.000866197
-1.17502e-05
-0.000125812
-4.14098e-05
-0.000314438
-8.44602e-05
-0.000452914
-0.000136925
-0.000548446
-0.000195642
-0.000610746
-0.000258339
-0.000649859
-0.000323558
-0.000674539
-0.000390478
-0.000691392
-0.000458711
-0.00070477
-0.00052813
-0.000717169
-0.00059874
-0.000729834
-0.000670606
-0.000743302
-0.000743815
-0.000757777
-0.000818466
-0.000773334
-0.000790006
-1.1911e-05
-0.000113901
-4.19151e-05
-0.000284434
-8.53927e-05
-0.000409436
-0.000138302
-0.000495537
-0.000197445
-0.000551603
-0.00026054
-0.000586764
-0.000326132
-0.000608947
-0.000393408
-0.000624117
-0.000461989
-0.00063619
-0.000531751
-0.000647407
-0.000602704
-0.000658881
-0.000674916
-0.000671091
-0.000748474
-0.000684218
-0.000823478
-0.00069833
-0.000713456
-1.20574e-05
-0.000101844
-4.23749e-05
-0.000254116
-8.62412e-05
-0.00036557
-0.000139554
-0.000442225
-0.000199084
-0.000492072
-0.000262541
-0.000523306
-0.000328473
-0.000543015
-0.000396073
-0.000556517
-0.000464969
-0.000567293
-0.000535045
-0.000577331
-0.000606311
-0.000587614
-0.000678838
-0.000598564
-0.000752714
-0.000610342
-0.000828039
-0.000623005
-0.000636581
-1.21893e-05
-8.96547e-05
-4.27892e-05
-0.000223517
-8.70052e-05
-0.000321354
-0.000140681
-0.000388549
-0.00020056
-0.000432193
-0.000264343
-0.000459523
-0.00033058
-0.000476777
-0.000398472
-0.000488625
-0.000467654
-0.000498112
-0.000538011
-0.000506974
-0.00060956
-0.000516065
-0.00068237
-0.000525754
-0.000756533
-0.000536179
-0.000832148
-0.00054739
-0.000559411
-1.23067e-05
-7.7348e-05
-4.31575e-05
-0.000192666
-8.76844e-05
-0.000276827
-0.000141682
-0.000334551
-0.000201871
-0.000372004
-0.000265945
-0.00039545
-0.000332454
-0.000410268
-0.000400606
-0.000420473
-0.000470041
-0.000428677
-0.00054065
-0.000436364
-0.00061245
-0.000444265
-0.000685514
-0.000452691
-0.000759932
-0.00046176
-0.000835806
-0.000471517
-0.00048198
-1.24094e-05
-6.49386e-05
-4.34797e-05
-0.000161595
-8.82786e-05
-0.000232028
-0.000142559
-0.000280271
-0.000203019
-0.000311544
-0.000267346
-0.000331123
-0.000334093
-0.00034352
-0.000402473
-0.000352093
-0.00047213
-0.00035902
-0.00054296
-0.000365535
-0.000614981
-0.000372244
-0.000688267
-0.000379405
-0.000762909
-0.000387118
-0.000839009
-0.000395417
-0.000404319
-1.24973e-05
-5.24414e-05
-4.37556e-05
-0.000130337
-8.87874e-05
-0.000186996
-0.00014331
-0.000225749
-0.000204002
-0.000250852
-0.000268547
-0.000266578
-0.000335499
-0.000276568
-0.000404074
-0.000283518
-0.000473923
-0.000289172
-0.000544942
-0.000294516
-0.000617153
-0.000300033
-0.000690629
-0.000305929
-0.000765464
-0.000312283
-0.000841759
-0.000319122
-0.000326461
-1.25703e-05
-3.9871e-05
-4.39851e-05
-9.89222e-05
-8.92108e-05
-0.000141771
-0.000143934
-0.000171025
-0.000204821
-0.000189965
-0.000269547
-0.000201852
-0.00033667
-0.000209445
-0.000405409
-0.000214779
-0.000475417
-0.000219164
-0.000546595
-0.000223338
-0.000618964
-0.000227663
-0.0006926
-0.000232293
-0.000767596
-0.000237287
-0.000844053
-0.000242665
-0.000248438
-1.26285e-05
-2.72425e-05
-4.4168e-05
-6.73827e-05
-8.95485e-05
-9.63901e-05
-0.000144433
-0.000116141
-0.000205475
-0.000128924
-0.000270347
-0.00013698
-0.000337607
-0.000142185
-0.000406477
-0.000145909
-0.000476613
-0.000149027
-0.000547918
-0.000152033
-0.000620415
-0.000155166
-0.000694179
-0.000158529
-0.000769304
-0.000162161
-0.000845892
-0.000166077
-1.26717e-05
-1.45708e-05
-4.43041e-05
-3.57503e-05
-8.98004e-05
-5.08939e-05
-0.000144806
-6.11351e-05
-0.000205964
-6.77653e-05
-0.000270946
-7.19988e-05
-0.000338309
-7.48219e-05
-0.000407279
-7.69392e-05
-0.000477512
-7.8794e-05
-0.000548913
-8.06322e-05
-0.000621506
-8.25734e-05
-0.000695367
-8.46689e-05
-0.000770589
-8.69385e-05
-8.93903e-05
-1.27e-05
-1.87082e-06
-4.43935e-05
-4.0568e-06
-8.99663e-05
-5.32103e-06
-0.000145052
-6.04923e-06
-0.000206289
-6.52896e-06
-0.000271344
-6.94361e-06
-0.000338777
-7.38882e-06
-0.000407813
-7.90277e-06
-0.000478112
-8.49516e-06
-0.000549578
-9.16625e-06
-0.000622236
-9.91542e-06
-0.000696162
-1.07431e-05
-0.00077145
-1.16501e-05
-1.26377e-05
-1.27132e-05
1.08423e-05
-4.4436e-05
2.76661e-05
-9.00463e-05
4.02893e-05
-0.000145172
4.90767e-05
-0.000206448
5.47469e-05
-0.000271541
5.81494e-05
-0.00033901
6.00803e-05
-0.000408081
6.11684e-05
-0.000478414
6.18377e-05
-0.000549914
6.23334e-05
-0.000622606
6.27762e-05
-0.000696565
6.32164e-05
-0.000771887
6.36721e-05
6.41488e-05
-1.27114e-05
2.35538e-05
-4.44318e-05
5.93865e-05
-9.00405e-05
8.5898e-05
-0.000145166
0.000104202
-0.000206443
0.000116024
-0.000271538
0.000123244
-0.000339009
0.000127552
-0.000408083
0.000130242
-0.000478418
0.000132173
-0.000549921
0.000133836
-0.000622614
0.00013547
-0.000696576
0.000137178
-0.0007719
0.000138996
0.000140937
-1.26947e-05
3.62484e-05
-4.43807e-05
9.10725e-05
-8.99487e-05
0.000131466
-0.000145034
0.000159287
-0.000206273
0.000177263
-0.000271334
0.000188305
-0.000338774
0.000194992
-0.000407818
0.000199286
-0.000478124
0.00020248
-0.000549598
0.000205309
-0.000622263
0.000208135
-0.000696195
0.00021111
-0.000771489
0.00021429
0.000217695
-1.26629e-05
4.89113e-05
-4.42828e-05
0.000122692
-8.97708e-05
0.000176954
-0.000144775
0.000214291
-0.000205938
0.000238426
-0.000270929
0.000253296
-0.000338304
0.000262367
-0.000407286
0.000268268
-0.000477532
0.000272726
-0.000548946
0.000276722
-0.00062155
0.00028074
-0.000695422
0.000284982
-0.000770654
0.000289523
0.00029439
-1.26161e-05
6.15274e-05
-4.41381e-05
0.000154214
-8.95071e-05
0.000222323
-0.00014439
0.000269174
-0.000205438
0.000299475
-0.000270323
0.00031818
-0.000337599
0.000329643
-0.000406488
0.000337156
-0.000476642
0.00034288
-0.000547964
0.000348045
-0.000620478
0.000353253
-0.000694257
0.000358761
-0.000769396
0.000364662
-0.000845996
0.00037099
0.000377758
-1.25543e-05
7.40817e-05
-4.39466e-05
0.000185607
-8.91575e-05
0.000267534
-0.000143879
0.000323895
-0.000204774
0.00036037
-0.000269517
0.000382923
-0.000336661
0.000396787
-0.000405423
0.000405918
-0.000475454
0.000412911
-0.000546654
0.000419245
-0.000619045
0.000425644
-0.0006927
0.000432417
-0.000767714
0.000439676
-0.000844188
0.000447463
0.000455794
-1.24777e-05
8.65594e-05
-4.37086e-05
0.000216838
-8.87223e-05
0.000312547
-0.000143241
0.000378414
-0.000203945
0.000421073
-0.00026851
0.000447488
-0.000335488
0.000463765
-0.000404091
0.000474522
-0.000473968
0.000482788
-0.000545015
0.000490292
-0.000617252
0.000497881
-0.000690753
0.000505917
-0.00076561
0.000514534
-0.000841924
0.000523777
0.000533669
-1.23862e-05
9.89456e-05
-4.34241e-05
0.000247876
-8.82015e-05
0.000357325
-0.000142478
0.000432691
-0.000202951
0.000481546
-0.000267303
0.00051184
-0.000334081
0.000530544
-0.000402494
0.000542935
-0.000472185
0.000552479
-0.000543048
0.000561154
-0.0006151
0.000569934
-0.000688415
0.000579232
-0.000763084
0.000589203
-0.000839207
0.000599901
0.00061135
-1.228e-05
0.000111226
-4.30933e-05
0.000278689
-8.75955e-05
0.000401827
-0.00014159
0.000486685
-0.000201793
0.00054175
-0.000265895
0.000575941
-0.00033244
0.000597089
-0.000400631
0.000611125
-0.000470105
0.000621953
-0.000540752
0.000631801
-0.000612589
0.00064177
-0.000685686
0.000652329
-0.000760136
0.000663652
-0.000836037
0.000675802
0.000688804
-1.2159e-05
0.000123385
-4.27164e-05
0.000309246
-8.69044e-05
0.000446015
-0.000140575
0.000540356
-0.000200472
0.000601646
-0.000264287
0.000639757
-0.000330565
0.000663367
-0.000398502
0.000679062
-0.000467728
0.000691179
-0.000538129
0.000702203
-0.000609719
0.000713361
-0.000682569
0.000725179
-0.000756768
0.000737851
-0.000832414
0.000751449
0.000766001
-1.20235e-05
0.000135408
-4.22936e-05
0.000339516
-8.61285e-05
0.00048985
-0.000139436
0.000593664
-0.000198986
0.000661196
-0.00026248
0.000703251
-0.000328457
0.000729345
-0.000396107
0.000746711
-0.000465054
0.000760126
-0.000535178
0.000772328
-0.000606492
0.000784674
-0.000679062
0.000797749
-0.000752979
0.000811768
-0.000828341
0.00082681
0.000842908
-1.18736e-05
0.000147282
-4.18251e-05
0.000369468
-8.52682e-05
0.000533293
-0.000138172
0.000646567
-0.000197336
0.000720361
-0.000260472
0.000766386
-0.000326116
0.000794988
-0.000393447
0.000814043
-0.000462084
0.000828763
-0.000531901
0.000842145
-0.000602907
0.00085568
-0.000675168
0.000870009
-0.000748772
0.000885372
-0.000823817
0.000901855
0.000919493
-1.17093e-05
0.000158991
-4.13112e-05
0.00039907
-8.43236e-05
0.000576306
-0.000136783
0.000699027
-0.000195523
0.000779101
-0.000258265
0.000829128
-0.000323541
0.000860264
-0.000390522
0.000881024
-0.000458817
0.000897058
-0.000528297
0.000911625
-0.000598965
0.000926349
-0.000670886
0.00094193
-0.000744147
0.000958633
-0.000818844
0.000976551
0.000995725
-1.15307e-05
0.000170522
-4.07522e-05
0.000428291
-8.32953e-05
0.000618849
-0.00013527
0.000751001
-0.000193547
0.000837379
-0.000255859
0.00089144
-0.000320733
0.000925138
-0.000387332
0.000947623
-0.000455256
0.000964982
-0.000524368
0.000980737
-0.000594668
0.000996649
-0.000666218
0.00101348
-0.000739105
0.00103152
-0.000813423
0.00105087
0.00107157
-1.13381e-05
0.00018186
-4.01485e-05
0.000457102
-8.21836e-05
0.000660884
-0.000133633
0.000802451
-0.000191409
0.000895154
-0.000253254
0.000953285
-0.000317693
0.000989576
-0.000383878
0.00101381
-0.000451399
0.0010325
-0.000520113
0.00104945
-0.000590015
0.00106655
-0.000661165
0.00108463
-0.000733647
0.001104
-0.000807557
0.00112478
0.00114701
-1.11316e-05
0.000192991
-3.95003e-05
0.00048547
-8.09889e-05
0.000702372
-0.000131873
0.000853335
-0.000189108
0.000952389
-0.00025045
0.00101463
-0.00031442
0.00105355
-0.000380159
0.00107955
-0.000447248
0.00109959
-0.000515533
0.00111774
-0.000585007
0.00113602
-0.000655727
0.00115535
-0.000727775
0.00117605
-0.000801245
0.00119825
-0.000876233
0.00122199
0.00124732
-1.09114e-05
0.000203903
-3.88081e-05
0.000513367
-7.97118e-05
0.000743276
-0.00012999
0.000903613
-0.000186644
0.00100904
-0.000247447
0.00107543
-0.000310915
0.00111701
-0.000376177
0.00114481
-0.000442802
0.00116622
-0.00051063
0.00118556
-0.000579646
0.00120504
-0.000649906
0.00122561
-0.00072149
0.00124764
-0.000794491
0.00127125
-0.000869003
0.00129651
0.00132344
-1.06776e-05
0.00021458
-3.80723e-05
0.000540762
-7.83528e-05
0.000783557
-0.000127984
0.000953244
-0.000184019
0.00106508
-0.000244247
0.00113566
-0.000307178
0.00117994
-0.000371931
0.00120956
-0.000438062
0.00123235
-0.000505402
0.0012529
-0.000573932
0.00127357
-0.000643703
0.00129538
-0.000714794
0.00131873
-0.000787296
0.00134375
-0.000861302
0.00137051
0.00139904
-1.04305e-05
0.000225011
-3.72932e-05
0.000567624
-7.69123e-05
0.000823176
-0.000125856
0.00100219
-0.000181233
0.00112046
-0.000240848
0.00119527
-0.000303209
0.00124231
-0.000367422
0.00127377
-0.000433029
0.00129796
-0.000499852
0.00131973
-0.000567866
0.00134158
-0.000637118
0.00136463
-0.000707687
0.0013893
-0.000779661
0.00141573
-0.000853132
0.00144398
0.00147411
-1.01702e-05
0.000235181
-3.64715e-05
0.000593926
-7.5391e-05
0.000862095
-0.000123607
0.0010504
-0.000178286
0.00117514
-0.000237252
0.00125424
-0.000299009
0.00130406
-0.00036265
0.00133742
-0.000427703
0.00136301
-0.00049398
0.001386
-0.000561448
0.00140905