/*--------------------------------*- C++ -*----------------------------------*\
  =========                 |
  \\      /  F ield         | OpenFOAM: The Open Source CFD Toolbox
   \\    /   O peration     | Website:  https://openfoam.org
    \\  /    A nd           | Version:  7
     \\/     M anipulation  |
\*---------------------------------------------------------------------------*/
FoamFile
{
    version     2.0;
    format      ascii;
    class       volVectorField;
    location    "160";
    object      U;
}
// * * * * * * * * * * * * * * * * * * * * * * * * * * * * * * * * * * * * * //

dimensions      [0 1 -1 0 0 0 0];

internalField   nonuniform List<vector> 
4575
(
(1.13557 0.335523 -9.32815e-21)
(1.1322 0.353161 3.24906e-20)
(1.12679 0.3385 -2.94942e-20)
(1.132 0.391192 -3.88425e-20)
(1.12711 0.373085 1.79282e-20)
(1.12277 0.356152 3.39717e-21)
(1.11784 0.341239 2.90131e-20)
(1.12666 0.413976 -2.59985e-20)
(1.12129 0.39457 7.31478e-20)
(1.11695 0.376099 -2.78081e-21)
(1.11314 0.358881 -1.02613e-20)
(1.10872 0.34373 3.89591e-21)
(1.12104 0.438345 4.35465e-20)
(1.1152 0.417447 -2.49066e-20)
(1.11037 0.39765 -3.56659e-20)
(1.10657 0.378828 9.39842e-21)
(1.10332 0.361337 -2.24123e-20)
(1.09943 0.345965 -1.44829e-20)
(1.11495 0.464331 -2.50864e-20)
(1.10879 0.441906 -7.10038e-21)
(1.10352 0.420591 -1.13679e-21)
(1.09924 0.400419 -2.55998e-21)
(1.096 0.381261 5.84412e-22)
(1.09332 0.363513 -1.55848e-20)
(1.08999 0.347934 1.05431e-20)
(1.10806 0.49191 6.38101e-20)
(1.10184 0.467975 -1.64418e-20)
(1.0963 0.445108 -1.9649e-21)
(1.09161 0.423398 3.09348e-20)
(1.0879 0.402867 7.17043e-21)
(1.08524 0.383388 2.17763e-20)
(1.08314 0.365397 2.38325e-20)
(1.0804 0.349629 3.75283e-21)
(1.09993 0.520968 7.61343e-21)
(1.09403 0.495633 1.62119e-20)
(1.08848 0.471222 3.1003e-20)
(1.08359 0.447938 3.23825e-21)
(1.07951 0.425855 8.15743e-21)
(1.07637 0.404984 -2.29057e-20)
(1.07429 0.385201 1.2815e-20)
(1.07279 0.366981 -1.69689e-20)
(1.07065 0.351041 -3.34358e-21)
(1.08988 0.551159 -8.08044e-20)
(1.08492 0.524777 -8.97328e-20)
(1.07972 0.498915 -4.0655e-20)
(1.07489 0.474059 -4.06683e-20)
(1.07067 0.450385 -4.94078e-21)
(1.06722 0.427952 -3.36376e-21)
(1.06467 0.406762 -6.34307e-21)
(1.06317 0.386692 -6.98984e-21)
(1.06227 0.368258 -1.56309e-20)
(1.06077 0.352162 5.63056e-21)
(1.07679 0.581691 -1.39306e-20)
(1.07388 0.555083 5.93826e-20)
(1.06962 0.528094 7.98049e-20)
(1.06518 0.501742 1.22226e-20)
(1.06108 0.476471 4.82052e-20)
(1.05757 0.452435 -2.54705e-21)
(1.05476 0.429678 2.24284e-20)
(1.0528 0.40819 -6.632e-21)
(1.05189 0.387853 -6.34351e-21)
(1.05159 0.369218 1.08234e-20)
(1.05075 0.352983 -2.06507e-21)
(1.05879 0.611 2.528e-20)
(1.05985 0.585792 3.53962e-20)
(1.05757 0.558458 2.2259e-20)
(1.05406 0.530905 -5.37531e-20)
(1.05041 0.504099 -3.8786e-20)
(1.04708 0.478447 -2.31864e-20)
(1.0443 0.454078 -3.51099e-20)
(1.04215 0.431024 -6.33285e-21)
(1.0408 0.409261 -2.70067e-21)
(1.04047 0.388677 7.41062e-22)
(1.04076 0.369856 1.34453e-21)
(1.04059 0.353496 -1.81443e-21)
(1.03292 0.636345 -3.49601e-20)
(1.04104 0.615378 -1.21074e-19)
(1.04255 0.589275 -8.20206e-20)
(1.04096 0.561266 -2.26895e-20)
(1.03826 0.533195 3.34241e-20)
(1.03543 0.505973 2.54456e-20)
(1.03291 0.479973 1.09067e-21)
(1.03087 0.455302 1.67079e-20)
(1.0294 0.431977 -1.05559e-21)
(1.02866 0.409966 2.58724e-21)
(1.02891 0.389157 1.9019e-21)
(1.02978 0.370163 -7.18183e-21)
(1.03031 0.35369 5.07014e-21)
(0.994885 0.653385 -4.29865e-20)
(1.01464 0.641136 7.07486e-20)
(1.0229 0.619062 7.34287e-20)
(1.02494 0.592125 2.48713e-20)
(1.0241 0.563495 2.29842e-20)
(1.02223 0.534951 -9.21514e-21)
(1.02026 0.507352 -3.77827e-21)
(1.01856 0.481038 3.97406e-22)
(1.0173 0.456096 1.18898e-20)
(1.01654 0.43253 1.06851e-21)
(1.01642 0.410296 -2.97009e-21)
(1.01724 0.389287 -8.22959e-21)
(1.01868 0.370132 1.41898e-20)
(1.01991 0.353557 1.17923e-20)
(0.938929 0.655891 -2.39611e-20)
(0.976465 0.658734 1.01141e-20)
(0.995885 0.645151 -7.51288e-21)
(1.00438 0.622037 5.91736e-20)
(1.00703 0.594329 -4.95126e-20)
(1.00699 0.565132 -6.67838e-21)
(1.00601 0.53616 7.8016e-22)
(1.00492 0.508224 4.55244e-21)
(1.00408 0.481629 9.98131e-21)
(1.00361 0.456449 -3.56074e-21)
(1.00357 0.432671 8.88973e-22)
(1.00409 0.410243 5.14914e-21)
(1.00547 0.389061 1.12528e-20)
(1.00746 0.369758 1.74663e-20)
(1.00941 0.353082 -2.06707e-20)
(0.920933 0.661894 -7.7089e-21)
(0.957505 0.663225 -2.89262e-20)
(0.97671 0.648374 -7.88996e-21)
(0.985541 0.624289 -5.37442e-20)
(0.988862 0.595873 6.42875e-20)
(0.989673 0.566164 1.29516e-21)
(0.989605 0.536811 1.34892e-20)
(0.989432 0.508577 -4.64394e-21)
(0.989468 0.481738 -3.3915e-21)
(0.989818 0.45635 -9.23205e-21)
(0.990523 0.432391 -1.16129e-20)
(0.991704 0.409797 -3.77142e-21)
(0.993648 0.388472 2.77951e-20)
(0.996143 0.369032 -1.45968e-20)
(0.998832 0.352249 4.4228e-21)
(0.841245 0.642373 -3.88977e-20)
(0.90232 0.666974 -2.7854e-20)
(0.938051 0.666845 -2.30537e-20)
(0.957153 0.650793 3.09429e-20)
(0.966402 0.625806 -2.05834e-22)
(0.970462 0.596746 -3.40928e-20)
(0.972169 0.56658 1.33193e-20)
(0.973049 0.536893 3.04507e-21)
(0.973814 0.5084 -6.22517e-21)
(0.974748 0.481352 -3.31449e-21)
(0.975938 0.455789 4.55216e-21)
(0.977413 0.431678 2.82696e-21)
(0.979275 0.408948 8.04151e-21)
(0.981782 0.387512 1.82141e-20)
(0.984763 0.367941 -5.57992e-20)
(0.98819 0.351031 1.29826e-20)
(0.730084 0.590396 5.75909e-22)
(0.823696 0.648034 4.13284e-20)
(0.883142 0.671114 5.07229e-20)
(0.918152 0.669578 2.83589e-20)
(0.937255 0.652395 -1.61423e-20)
(0.947004 0.626578 1.79449e-20)
(0.95186 0.596938 -3.11058e-21)
(0.954504 0.566371 -1.236e-20)
(0.95636 0.536396 5.00951e-21)
(0.958086 0.507685 2.6256e-21)
(0.959937 0.480463 -1.6004e-21)
(0.961987 0.454756 -3.12901e-21)
(0.964256 0.430522 2.97696e-20)
(0.966828 0.407686 -2.47554e-20)
(0.969907 0.38617 1.26288e-20)
(0.973341 0.366468 6.3493e-20)
(0.97751 0.349385 3.96242e-20)
(0.714458 0.596404 -5.85114e-20)
(0.805523 0.652719 -1.65309e-20)
(0.863452 0.674298 3.87418e-20)
(0.897857 0.671412 -4.70877e-20)
(0.917058 0.653169 -3.0916e-20)
(0.927383 0.626594 -1.12748e-20)
(0.933087 0.596439 7.28957e-21)
(0.936704 0.565526 -2.54127e-21)
(0.939562 0.535312 -6.49474e-21)
(0.942268 0.506424 -2.60533e-20)
(0.945052 0.479063 1.74441e-20)
(0.94798 0.453243 -3.12513e-21)
(0.951067 0.428914 -3.32923e-20)
(0.954381 0.405998 -1.22471e-20)
(0.958045 0.384438 -3.97308e-20)
(0.961909 0.364592 2.25259e-20)
(0.966855 0.347254 -4.71845e-20)
(0.567896 0.501373 5.78986e-20)
(0.698184 0.601457 8.09617e-20)
(0.78678 0.65641 2.87571e-20)
(0.843303 0.676513 -9.77209e-21)
(0.877212 0.672336 5.56104e-21)
(0.896604 0.653107 1.81462e-20)
(0.907573 0.625845 5.75522e-21)
(0.914174 0.595241 -5.44793e-21)
(0.918797 0.564039 4.84981e-21)
(0.922679 0.533632 6.22698e-21)
(0.92638 0.504608 2.66767e-20)
(0.93011 0.477144 -1.59171e-21)
(0.93393 0.451243 -9.54205e-21)
(0.937856 0.426843 -5.88437e-21)
(0.941945 0.403872 2.38083e-20)
(0.946212 0.382299 4.72472e-20)
(0.950524 0.362293 -7.77213e-20)
(0.956403 0.344595 5.40093e-20)
(0.378847 0.352842 1.09773e-19)
(0.554558 0.506321 -4.83822e-20)
(0.681314 0.605533 -5.27864e-20)
(0.767525 0.65909 -1.97363e-20)
(0.822748 0.677745 1.99298e-20)
(0.856265 0.67234 1.11503e-20)
(0.875935 0.6522 3.6322e-21)
(0.887611 0.624326 -4.23445e-21)
(0.895152 0.593337 2.5018e-20)
(0.900809 0.561902 3.26077e-21)
(0.905734 0.531351 -1.35453e-20)
(0.910443 0.502233 -1.50127e-20)
(0.91513 0.474703 -1.19842e-20)
(0.91985 0.448749 -1.50955e-21)
(0.924631 0.424301 4.55161e-20)
(0.929515 0.401293 -1.73255e-20)
(0.934403 0.379716 -3.44621e-20)
(0.939284 0.359508 -1.42552e-21)
(0.946397 0.3414 -7.75456e-20)
(0.369632 0.356854 -4.1611e-20)
(0.54066 0.510396 4.28761e-20)
(0.663904 0.608614 5.67006e-20)
(0.747811 0.660746 -1.94984e-20)
(0.80184 0.677985 5.41891e-22)
(0.835065 0.671417 -7.99854e-21)
(0.855091 0.650442 -3.75706e-21)
(0.867532 0.622029 2.62175e-21)
(0.876053 0.590721 -2.34405e-20)
(0.882768 0.55911 -2.99248e-20)
(0.888752 0.528465 -5.23374e-21)
(0.894479 0.499295 9.27242e-22)
(0.900129 0.471735 -1.61469e-20)
(0.905755 0.445761 1.45611e-20)
(0.911395 0.421289 3.92278e-20)
(0.917068 0.398255 1.23142e-20)
(0.922598 0.376648 -6.82814e-20)
(0.928286 0.356079 -2.28682e-21)
(0.936769 0.337417 2.38177e-20)
(0.141712 0.143481 1.41819e-20)
(0.359979 0.360214 1.21465e-20)
(0.526248 0.513578 -3.49546e-20)
(0.646008 0.610685 -1.64945e-20)
(0.727695 0.661366 -9.122e-21)
(0.780632 0.677226 -1.86935e-21)
(0.813657 0.669562 -2.90229e-21)
(0.834114 0.647828 -1.79373e-20)
(0.847373 0.61895 2.31382e-20)
(0.856906 0.58739 5.38015e-20)
(0.864701 0.555659 3.41733e-20)
(0.871756 0.524968 -1.37858e-20)
(0.87851 0.49579 -8.36982e-21)
(0.885127 0.46824 -3.95209e-21)
(0.89166 0.44228 -4.39494e-20)
(0.898151 0.417816 -2.26343e-20)
(0.904589 0.39478 -2.4915e-20)
(0.910793 0.373142 8.13538e-20)
(0.917567 0.352022 -1.88773e-20)
(0.926529 0.330953 6.96047e-20)
(0.137936 0.145041 1.43601e-20)
(0.349922 0.362908 -8.82049e-21)
(0.511372 0.515851 1.56951e-20)
(0.627682 0.611731 -3.08185e-21)
(0.707234 0.660941 2.30444e-21)
(0.759175 0.67546 -4.43699e-21)
(0.792089 0.66677 3.25218e-21)
(0.813046 0.644354 2.48321e-20)
(0.827168 0.615086 -6.86382e-20)
(0.837744 0.583339 1.27935e-20)
(0.846636 0.551546 -2.01616e-20)
(0.854773 0.520859 2.36517e-20)
(0.862559 0.491718 2.20822e-20)
(0.870145 0.464217 3.53645e-20)
(0.877585 0.438311 1.41274e-20)
(0.884916 0.413893 3.85034e-20)
(0.892103 0.3909 1.85876e-20)
(0.899021 0.369294 -4.58049e-21)
(0.90671 0.348212 4.01344e-20)
(0.915651 0.327388 6.66197e-21)
(0.133979 0.146318 -3.23838e-21)
(0.339498 0.364919 -1.21118e-20)
(0.49608 0.517199 -3.00959e-21)
(0.608982 0.611741 4.83773e-22)
(0.686482 0.659464 2.03761e-21)
(0.737522 0.672685 8.83927e-22)
(0.770408 0.663038 2.97942e-20)
(0.791926 0.64002 1.13399e-20)
(0.806955 0.610435 4.4336e-20)
(0.818599 0.578568 2.93174e-20)
(0.828602 0.546768 -7.37561e-20)
(0.837828 0.516136 2.191e-21)
(0.84665 0.487076 -6.94387e-20)
(0.855207 0.459667 -4.26601e-21)
(0.863551 0.433853 -2.95541e-20)
(0.871716 0.409525 4.5481e-20)
(0.879651 0.386616 -6.90798e-20)
(0.887273 0.365076 -1.72698e-20)
(0.895615 0.344045 -2.58542e-20)
(0.90454 0.323337 -9.23214e-20)
(0.129853 0.147303 6.1424e-21)
(0.328743 0.366232 9.69546e-22)
(0.480424 0.517611 4.58128e-21)
(0.589962 0.610708 -5.02066e-21)
(0.665495 0.656931 1.49797e-20)
(0.715725 0.668898 -1.47018e-20)
(0.748661 0.658367 1.92838e-20)
(0.770797 0.634824 -6.56615e-20)
(0.786768 0.604997 -4.70027e-20)
(0.799501 0.573074 -8.55472e-20)
(0.810627 0.541326 5.28745e-20)
(0.820947 0.510799 -3.38145e-21)
(0.830806 0.481866 -1.21092e-20)
(0.840335 0.454591 -2.40018e-20)
(0.849582 0.428909 -3.40664e-20)
(0.858578 0.404712 1.83446e-20)
(0.867267 0.38193 5.58872e-20)
(0.875596 0.360503 -3.00985e-20)
(0.884537 0.339604 3.87219e-20)
(0.893645 0.319165 1.08056e-19)
(0.125577 0.147989 9.40569e-21)
(0.317695 0.366838 -3.13224e-21)
(0.464453 0.517077 8.79668e-21)
(0.570678 0.608625 1.79969e-20)
(0.644329 0.653338 1.28768e-20)
(0.693835 0.664098 3.67198e-20)
(0.726892 0.652756 -2.85781e-20)
(0.749697 0.628768 -1.76074e-20)
(0.766644 0.598772 -1.46066e-20)
(0.780483 0.566859 5.68109e-20)
(0.792739 0.53522 -1.37674e-19)
(0.804155 0.504848 -5.63636e-20)
(0.815052 0.476087 1.43835e-20)
(0.825551 0.448988 2.02271e-20)
(0.835699 0.42348 7.00096e-20)
(0.845524 0.399453 -9.61853e-20)
(0.854971 0.376839 2.79568e-20)
(0.864007 0.355567 1.63438e-20)
(0.87354 0.334857 -2.28825e-20)
(0.882965 0.314759 -8.13237e-20)
(0.121165 0.148372 6.38414e-21)
(0.306393 0.366727 -2.79511e-20)
(0.448218 0.51559 2.70249e-21)
(0.551187 0.605489 2.36592e-20)
(0.623039 0.648686 -2.78923e-20)
(0.671903 0.658289 -5.71452e-20)
(0.705148 0.646209 8.37894e-21)
(0.728668 0.621854 3.94558e-20)
(0.746616 0.591763 9.83035e-20)
(0.761575 0.559924 -9.97535e-20)
(0.774967 0.528451 8.32864e-20)
(0.78748 0.498284 9.94533e-20)
(0.799413 0.469741 7.99298e-20)
(0.810879 0.44286 5.7661e-20)
(0.821925 0.417567 -1.2205e-19)
(0.832578 0.39375 -1.35105e-21)
(0.842785 0.371342 -3.16975e-20)
(0.852528 0.350265 1.20526e-19)
(0.862661 0.329791 -4.81058e-21)
(0.872484 0.31006 -5.73065e-20)
(0.116634 0.148445 1.04084e-20)
(0.294874 0.365891 1.14195e-20)
(0.431769 0.513145 2.93165e-21)
(0.531544 0.601298 -1.39187e-20)
(0.601678 0.642977 -1.8225e-20)
(0.64998 0.651473 3.63566e-22)
(0.683473 0.63873 -2.40274e-20)
(0.707749 0.614086 -4.00878e-20)
(0.726721 0.583973 3.30208e-20)
(0.74281 0.552273 7.95533e-20)
(0.757339 0.521021 1.97863e-21)
(0.770948 0.49111 3.36935e-20)
(0.783913 0.462831 -5.1839e-20)
(0.796342 0.436211 -6.36365e-20)
(0.808282 0.411171 1.57904e-19)
(0.81976 0.387603 6.24815e-20)
(0.830728 0.365439 -6.36793e-20)
(0.841179 0.344594 -7.16474e-20)
(0.851923 0.324395 -7.95162e-20)
(0.862197 0.305046 -7.27735e-21)
(0.112001 0.148204 -5.41833e-20)
(0.283178 0.364325 -1.11515e-20)
(0.415159 0.50974 -2.49065e-20)
(0.511803 0.596054 -4.80672e-20)
(0.580302 0.636214 8.18845e-20)
(0.628114 0.643656 -6.96303e-20)
(0.661912 0.630324 9.90132e-20)
(0.686979 0.605471 -6.19888e-22)
(0.706994 0.575407 -3.0582e-20)
(0.724218 0.54391 2.57289e-20)
(0.739884 0.512935 1.87076e-20)
(0.754584 0.483328 -9.32146e-20)
(0.768576 0.455359 9.66773e-20)
(0.781962 0.429041 5.82161e-20)
(0.794791 0.404296 -2.20207e-20)
(0.807092 0.381014 -4.21895e-20)
(0.818819 0.359128 3.62611e-20)
(0.829978 0.338551 -6.19636e-20)
(0.841344 0.31866 -8.48844e-20)
(0.852102 0.299704 7.98819e-20)
(0.107282 0.147648 7.89149e-20)
(0.271343 0.362027 -4.55842e-20)
(0.398436 0.505374 -2.44646e-20)
(0.49202 0.589761 3.02248e-20)
(0.558963 0.628405 9.11139e-21)
(0.606356 0.634846 2.54571e-20)
(0.640509 0.621001 2.61149e-20)
(0.666397 0.596014 7.03066e-20)
(0.687468 0.566071 8.33589e-20)
(0.705831 0.534839 -7.83805e-20)
(0.72263 0.504197 9.43278e-20)
(0.738415 0.474945 -1.06735e-19)
(0.753426 0.447329 1.37506e-20)
(0.767763 0.421356 -4.06892e-20)
(0.781475 0.396943 2.91098e-20)
(0.794592 0.373984 2.70196e-20)
(0.807076 0.352412 -1.64243e-20)
(0.818944 0.332136 1.54933e-19)
(0.830936 0.312581 -2.06357e-20)
(0.842201 0.294026 -6.84324e-20)
(0.102495 0.146772 -6.27638e-20)
(0.259409 0.358995 8.03206e-20)
(0.381653 0.50005 -1.68303e-20)
(0.472248 0.582424 -9.03089e-20)
(0.537713 0.619557 6.37095e-20)
(0.584754 0.625053 -2.26596e-20)
(0.619307 0.610768 -7.77861e-20)
(0.646042 0.585724 -1.16895e-20)
(0.668178 0.555973 -1.74751e-19)
(0.687679 0.525068 1.6403e-19)
(0.705605 0.494813 -1.69442e-20)
(0.722466 0.465964 4.44761e-20)
(0.738488 0.438746 5.33325e-20)
(0.753766 0.413158 2.10238e-20)
(0.768353 0.389117 -1.40229e-19)
(0.782282 0.366516 3.13076e-20)
(0.795518 0.34529 2.84311e-20)
(0.808093 0.325346 -9.37422e-20)
(0.820711 0.306155 3.42875e-20)
(0.832499 0.288009 1.30003e-20)
(0.0976574 0.145577 -5.59112e-20)
(0.247414 0.35523 -5.62049e-20)
(0.364858 0.493773 1.10673e-19)
(0.452541 0.574051 7.86974e-20)
(0.516606 0.609681 -6.32037e-20)
(0.563354 0.614287 6.59573e-21)
(0.598348 0.599637 5.04075e-20)
(0.62595 0.574612 1.48914e-20)
(0.649158 0.545121 -2.19188e-21)
(0.669792 0.514605 2.69713e-20)
(0.688836 0.48479 -4.44292e-20)
(0.706763 0.456392 -6.21324e-21)
(0.723784 0.429616 -1.65781e-19)
(0.739994 0.404454 -1.25077e-19)
(0.755446 0.380821 -2.06773e-20)
(0.770178 0.358614 -1.71649e-20)
(0.784162 0.337766 -1.87904e-20)
(0.797438 0.318185 -3.76101e-20)
(0.810682 0.299381 -4.29284e-20)
(0.0927853 0.144062 1.34624e-20)
(0.235397 0.350734 1.26867e-19)
(0.348102 0.48655 -5.06396e-20)
(0.432952 0.564654 -7.65438e-20)
(0.49569 0.598789 -6.29051e-21)
(0.542204 0.602561 1.0544e-19)
(0.577675 0.58762 -1.07179e-19)
(0.606159 0.562689 2.11073e-20)
(0.630439 0.533526 -1.57273e-20)
(0.652201 0.503458 -1.58801e-19)
(0.672352 0.474137 -1.4752e-19)
(0.691331 0.446237 2.66803e-20)
(0.709339 0.419946 2.29171e-19)
(0.726468 0.395249 3.33263e-20)
(0.742775 0.372061 8.84762e-20)
(0.7583 0.350281 -1.35665e-19)
(0.773023 0.329843 -3.15399e-20)
(0.786995 0.310652 1.54482e-19)
(0.800859 0.292261 6.73462e-20)
(0.0878964 0.142227 4.89405e-20)
(0.223397 0.345513 4.74076e-20)
(0.331433 0.478389 -1.14677e-19)
(0.413532 0.554245 -4.86251e-21)
(0.475017 0.586897 -4.74922e-20)
(0.521349 0.589891 -6.37953e-20)
(0.557327 0.574732 2.01307e-20)
(0.586705 0.549967 -5.9409e-20)
(0.612056 0.521199 1.11857e-19)
(0.634935 0.491638 -6.85643e-20)
(0.656178 0.462862 4.90506e-20)
(0.676195 0.435507 1.10271e-19)
(0.695174 0.409743 -7.38727e-20)
(0.713209 0.38555 1.83522e-20)
(0.730358 0.362843 8.81161e-20)
(0.746666 0.341524 1.08905e-19)
(0.762119 0.321525 -5.60295e-20)
(0.776778 0.302753 -3.136e-20)
(0.791255 0.284797 4.72537e-20)
(0.0830076 0.140075 -1.1561e-19)
(0.211452 0.339573 4.20906e-20)
(0.314899 0.469303 1.30519e-19)
(0.394332 0.542838 1.50345e-20)
(0.454635 0.57402 -1.83623e-20)
(0.500834 0.576293 -3.20535e-20)
(0.537344 0.560987 -1.68165e-20)
(0.567624 0.536461 7.3307e-20)
(0.59404 0.508154 -1.06534e-19)
(0.618022 0.479157 2.47772e-19)
(0.640342 0.450977 1.01824e-19)
(0.661379 0.424211 -3.32128e-20)
(0.681313 0.399016 -1.02966e-20)
(0.700238 0.375365 4.29356e-20)
(0.718215 0.353175 -1.17036e-19)
(0.735293 0.332348 9.50548e-21)
(0.751465 0.312818 -7.29692e-20)
(0.7668 0.294492 -3.17885e-20)
(0.078136 0.137607 -2.25023e-20)
(0.199598 0.332923 -1.35631e-19)
(0.298548 0.459306 9.27735e-20)
(0.375401 0.530452 -1.37426e-20)
(0.434592 0.560178 7.01758e-20)
(0.480703 0.561785 2.35845e-20)
(0.517767 0.546404 -3.85972e-21)
(0.54895 0.522187 4.98808e-20)
(0.576422 0.494403 -2.97218e-20)
(0.601491 0.466026 -8.98543e-20)
(0.624869 0.438492 9.64573e-20)
(0.646907 0.412361 1.01202e-19)
(0.667778 0.387774 -2.45018e-22)
(0.687575 0.364704 -2.22549e-20)
(0.706365 0.343064 -1.23515e-20)
(0.724198 0.322761 9.06839e-20)
(0.741076 0.303728 7.9549e-20)
(0.757076 0.285875 2.19454e-20)
(0.0732983 0.134828 1.07724e-19)
(0.187874 0.325573 1.53584e-19)
(0.282427 0.448411 -8.72983e-20)
(0.35679 0.517104 -6.48822e-21)
(0.414934 0.545389 -1.23202e-19)
(0.460997 0.546387 7.54182e-20)
(0.498632 0.530999 -2.98468e-20)
(0.530718 0.50716 -5.72193e-20)
(0.559232 0.479963 -2.13658e-20)
(0.58537 0.452261 -3.18589e-21)
(0.609784 0.42542 -2.10319e-19)
(0.632802 0.399967 -2.62043e-19)
(0.65459 0.37603 -3.98007e-20)
(0.675241 0.353575 8.80041e-20)
(0.694825 0.332519 -3.3993e-20)
(0.713398 0.312771 -1.70109e-19)
(0.730967 0.294263 1.5721e-19)
(0.747617 0.276908 2.22341e-20)
(0.0685113 0.131741 -1.77124e-19)
(0.176315 0.317535 5.88709e-20)
(0.26658 0.436639 -4.85622e-20)
(0.338544 0.502816 6.52162e-20)
(0.395706 0.529677 1.23127e-19)
(0.441759 0.530121 -7.66276e-20)
(0.479976 0.514795 1.39242e-19)
(0.51296 0.491401 -4.73658e-20)
(0.542501 0.46485 7.06397e-20)
(0.569686 0.437876 1.32198e-19)
(0.595113 0.411776 7.08954e-20)
(0.619088 0.387043 2.92751e-19)
(0.64177 0.363793 1.3205e-19)
(0.663254 0.341989 -1.05931e-20)
(0.683614 0.32155 -6.71323e-21)
(0.702909 0.302387 2.16478e-20)
(0.721153 0.284432 -1.74074e-19)
(0.738438 0.267599 -9.16083e-20)
(0.0637911 0.128353 9.8448e-20)
(0.164958 0.308823 -2.76902e-20)
(0.251052 0.424008 -1.26092e-19)
(0.32071 0.48761 -1.14118e-19)
(0.376953 0.513064 -2.04133e-20)
(0.423028 0.513009 1.48784e-20)
(0.461837 0.497812 -1.77757e-19)
(0.495709 0.474927 1.3182e-19)
(0.526256 0.449082 -5.9839e-20)
(0.554464 0.422887 -1.35422e-19)
(0.580879 0.397574 -3.2249e-20)
(0.605785 0.373602 -1.20973e-19)
(0.629338 0.351077 -2.47684e-19)
(0.651634 0.329959 2.08933e-20)
(0.672748 0.310168 1.89733e-19)
(0.692746 0.291618 -8.14959e-20)
(0.711648 0.274242 9.74982e-20)
(0.0591538 0.124668 -1.73554e-20)
(0.153836 0.299453 -2.34046e-19)
(0.235886 0.41054 2.3249e-19)
(0.303333 0.471513 -5.70296e-20)
(0.358718 0.495578 8.01685e-20)
(0.404843 0.495076 4.68069e-20)
(0.444247 0.480072 1.88902e-19)
(0.478995 0.45776 -2.24296e-19)
(0.510528 0.432677 1.73598e-19)
(0.539732 0.407312 1.35904e-19)
(0.567106 0.382829 -3.8543e-20)
(0.592917 0.359659 -2.0014e-20)
(0.617315 0.337894 7.2176e-20)
(0.640398 0.317496 -1.22274e-19)
(0.662245 0.298384 -1.60726e-19)
(0.682925 0.280475 5.99838e-20)
(0.702466 0.263704 -5.99325e-20)
(0.0546151 0.120694 -1.73134e-20)
(0.142984 0.289441 7.68466e-20)
(0.221124 0.39626 8.59282e-20)
(0.286456 0.45455 -1.47837e-19)
(0.341041 0.477244 7.46798e-20)
(0.387242 0.476349 -1.89449e-19)
(0.427241 0.4616 -1.48468e-20)
(0.46285 0.439922 1.08008e-20)
(0.495341 0.415656 -1.81783e-20)
(0.525512 0.391169 -1.70813e-19)
(0.553817 0.367559 -7.50833e-21)
(0.580504 0.345229 -2.68341e-20)
(0.60572 0.324261 1.59124e-19)
(0.629564 0.304614 -4.86764e-20)
(0.652121 0.286211 -1.36766e-20)
(0.673462 0.268971 7.9175e-20)
(0.693621 0.252829 2.271e-19)
(0.0501902 0.116438 -3.2621e-20)
(0.132434 0.278807 -1.90924e-20)
(0.206806 0.381191 -9.42103e-20)
(0.270121 0.43675 5.63636e-20)
(0.323961 0.458092 1.52643e-19)
(0.37026 0.456854 -8.18797e-20)
(0.410852 0.442422 -1.29594e-19)
(0.4473 0.421437 1.25213e-19)
(0.480724 0.39804 -4.10528e-20)
(0.511831 0.374477 1.12079e-19)
(0.541033 0.351782 5.02999e-20)
(0.568566 0.330329 -2.88891e-20)
(0.594571 0.310191 -1.082e-19)
(0.61915 0.291327 1.31896e-19)
(0.642391 0.273661 -3.24751e-20)
(0.664369 0.257116 -1.39116e-19)
(0.685126 0.241628 -4.67907e-20)
(0.045894 0.11191 6.33302e-20)
(0.122218 0.267571 2.26952e-20)
(0.192972 0.365363 -1.78387e-20)
(0.254369 0.418143 -4.95922e-20)
(0.307519 0.438152 -3.60397e-20)
(0.353933 0.436621 2.03009e-19)
(0.39511 0.422564 3.58477e-20)
(0.432376 0.402328 9.52088e-20)
(0.4667 0.379851 6.93229e-20)
(0.498709 0.357257 -1.85729e-19)
(0.528776 0.335516 -9.54627e-20)
(0.557122 0.314976 1.73887e-19)
(0.583886 0.295701 -5.51542e-21)
(0.609172 0.277649 -1.36411e-19)
(0.633072 0.260749 3.43181e-20)
(0.655662 0.244924 1.62547e-19)
(0.0417407 0.107118 7.26636e-20)
(0.112367 0.255755 -9.28437e-20)
(0.179659 0.348803 -4.09579e-20)
(0.239237 0.398761 -8.97368e-21)
(0.291748 0.417456 -1.16439e-19)
(0.338293 0.41568 -6.04741e-20)
(0.380045 0.402054 -2.49106e-20)
(0.418103 0.382621 -1.9009e-19)
(0.453295 0.361112 -1.41641e-19)
(0.48617 0.33953 1.84341e-19)
(0.517067 0.318781 1.00191e-19)
(0.546192 0.299188 -7.69295e-20)
(0.573683 0.280808 -8.73926e-20)
(0.599647 0.263598 9.27564e-20)
(0.624176 0.247489 -5.16346e-20)
(0.647354 0.232409 7.30449e-20)
(0.0377443 0.102072 8.80021e-20)
(0.102911 0.243383 -1.38419e-19)
(0.166902 0.331542 3.92641e-20)
(0.224763 0.378638 6.75457e-20)
(0.276686 0.396037 -5.47632e-22)
(0.323373 0.394061 -8.12081e-20)
(0.365686 0.38092 6.95574e-20)
(0.404508 0.362342 2.52684e-20)
(0.440531 0.341848 -7.39173e-20)
(0.474235 0.321318 4.83595e-20)
(0.505924 0.301598 -1.25912e-19)
(0.535793 0.282985 -2.74445e-20)
(0.563978 0.265529 1.10572e-19)
(0.590588 0.249188 3.86343e-20)
(0.615719 0.233896 5.95303e-20)
(0.639457 0.219584 -1.1052e-19)
(0.0339178 0.0967842 -8.82541e-20)
(0.0938763 0.230478 -3.51199e-20)
(0.154738 0.313612 6.81433e-20)
(0.210983 0.357807 -1.38348e-19)
(0.262364 0.373929 -6.59525e-20)
(0.309203 0.371799 1.4055e-19)
(0.35206 0.359194 2.1869e-19)
(0.391613 0.34152 6.10116e-20)
(0.428431 0.322085 8.12839e-20)
(0.462924 0.302645 -1.07716e-21)
(0.495366 0.283988 3.71531e-20)
(0.525942 0.266387 1.27743e-19)
(0.554787 0.249883 -1.84108e-20)
(0.582011 0.234438 -2.19865e-19)
(0.607714 0.219987 1.90792e-21)
(0.631984 0.206464 1.19104e-20)
(0.030274 0.0912644 2.77203e-20)
(0.0852909 0.217067 -6.96905e-20)
(0.143196 0.295047 2.41118e-19)
(0.197928 0.336306 1.15909e-21)
(0.248815 0.351168 8.7332e-20)
(0.29581 0.348926 8.39149e-20)
(0.339192 0.336906 -8.14711e-20)
(0.379444 0.320183 9.53104e-21)
(0.417016 0.301847 -5.09748e-20)
(0.452256 0.283535 1.24511e-20)
(0.485411 0.265974 -1.4523e-21)
(0.516656 0.249413 -5.71243e-20)
(0.546125 0.23389 -2.50797e-20)
(0.57393 0.219364 1.46141e-19)
(0.600173 0.205777 -1.07557e-19)
(0.624947 0.193066 7.06335e-20)
(0.026825 0.0855253 -5.94246e-20)
(0.0771797 0.203177 -6.48824e-20)
(0.13231 0.275882 -3.51186e-20)
(0.185632 0.314171 8.11112e-20)
(0.236068 0.327792 -6.76761e-20)
(0.283223 0.325477 -1.16454e-19)
(0.327107 0.314089 -6.90011e-20)
(0.368021 0.29836 -1.3092e-19)
(0.406305 0.281163 1.04904e-19)
(0.44225 0.264013 -8.39914e-20)
(0.476076 0.247578 1.76382e-20)
(0.507951 0.232086 1.21079e-20)
(0.538006 0.217568 -5.16481e-20)
(0.566358 0.203987 5.88822e-20)
(0.593109 0.191285 8.71736e-20)
(0.023582 0.0795795 1.2895e-19)
(0.0695668 0.188837 1.28205e-19)
(0.122107 0.256152 -9.49922e-20)
(0.174122 0.291442 -7.93085e-20)
(0.224151 0.303838 2.1701e-20)
(0.271466 0.301489 4.62087e-20)
(0.315827 0.290774 -1.57769e-19)
(0.357365 0.276081 2.51742e-20)
(0.396317 0.26006 -1.02353e-19)
(0.432922 0.244104 8.51981e-20)
(0.467376 0.228825 1.98947e-20)
(0.49984 0.214427 -8.86474e-20)
(0.530444 0.200939 -1.96652e-20)
(0.559306 0.188323 4.58634e-20)
(0.586533 0.176527 2.12442e-20)
(0.0205557 0.0734401 -5.94201e-20)
(0.0624746 0.174075 1.5015e-20)
(0.112615 0.235896 1.77432e-19)
(0.163429 0.268159 9.7051e-20)
(0.21309 0.279346 6.3668e-20)
(0.260564 0.276997 1.17933e-19)
(0.305375 0.266998 1.60242e-20)
(0.347495 0.253378 1.09427e-20)
(0.38707 0.238567 -7.23423e-22)
(0.424288 0.223835 -1.08937e-19)
(0.459327 0.209738 5.59978e-20)
(0.492337 0.196459 -8.83651e-20)
(0.523451 0.184023 5.7195e-20)
(0.552788 0.172393 -9.00887e-20)
(0.580456 0.161522 -5.1959e-20)
(0.0177562 0.0671209 -1.27608e-20)
(0.0559238 0.158923 8.64212e-20)
(0.10386 0.215152 -1.00685e-19)
(0.153576 0.244363 -4.47671e-20)
(0.202909 0.254356 3.94748e-20)
(0.250538 0.252041 -8.69405e-20)
(0.295768 0.242793 6.46813e-20)
(0.338429 0.230282 8.94313e-21)
(0.37858 0.216713 5.22354e-20)
(0.416364 0.203233 -1.89043e-21)
(0.451941 0.190343 -4.92883e-20)
(0.485455 0.178206 4.75912e-20)
(0.517039 0.166842 -1.20279e-19)
(0.546812 0.156218 1.64716e-19)
(0.574887 0.146289 6.18336e-20)
(0.0151925 0.0606363 -3.68671e-20)
(0.0499337 0.143412 -3.7804e-20)
(0.0958631 0.19396 -5.52305e-20)
(0.144587 0.220095 6.28939e-20)
(0.193631 0.228908 -3.37596e-20)
(0.241408 0.226657 -1.6383e-20)
(0.287026 0.218196 -3.24531e-20)
(0.330183 0.206826 -4.04577e-20)
(0.370861 0.194528 -1.10088e-19)
(0.409163 0.182325 4.70994e-20)
(0.445231 0.170665 -6.43281e-20)
(0.479205 0.15969 1.15893e-19)
(0.511218 0.149418 7.67417e-20)
(0.54139 0.139817 -1.32825e-19)
(0.569836 0.130847 -1.31088e-19)
(0.0128731 0.0540008 3.72172e-20)
(0.0445219 0.127573 -9.67807e-20)
(0.0886472 0.17236 -6.58546e-21)
(0.136485 0.1954 -8.5967e-20)
(0.185275 0.203046 -9.46491e-20)
(0.233193 0.200887 1.35754e-19)
(0.279166 0.193242 1.84094e-20)
(0.322773 0.183044 6.50798e-20)
(0.363928 0.172042 6.71787e-20)
(0.402698 0.16114 -1.55406e-20)
(0.439209 0.15073 9.02874e-20)
(0.473599 0.140937 -5.21579e-20)
(0.505999 0.131773 -6.63572e-20)
(0.536531 0.123212 1.03783e-19)
(0.565311 0.115215 1.15808e-19)
(0.0108058 0.0472296 -3.79185e-20)
(0.0397044 0.111441 8.46934e-20)
(0.0822311 0.150394 -8.99103e-20)
(0.129289 0.17032 5.68975e-20)
(0.177861 0.176811 5.23953e-20)
(0.225909 0.174768 -7.33751e-20)
(0.272202 0.16797 3.36578e-20)
(0.316212 0.158969 3.71819e-20)
(0.357792 0.149287 -1.14569e-19)
(0.396979 0.139707 5.49926e-20)
(0.433886 0.130566 6.08388e-21)
(0.468646 0.121971 5.06457e-20)
(0.501389 0.113932 -6.43472e-20)
(0.532242 0.106423 7.90893e-21)
(0.561319 0.0994128 -4.87125e-21)
(0.0089972 0.0403381 -4.05043e-20)
(0.0354953 0.0950481 5.2033e-20)
(0.0766319 0.128104 9.51475e-20)
(0.123015 0.1449 -1.16751e-20)
(0.171404 0.150247 6.42662e-20)
(0.219572 0.148343 -7.94319e-20)
(0.266147 0.142415 1.93515e-20)
(0.310512 0.134635 -6.7196e-20)
(0.352465 0.126294 2.22937e-22)
(0.392017 0.118054 -1.033e-19)
(0.42927 0.110199 -7.369e-20)
(0.464353 0.102817 3.8696e-20)
(0.497398 0.0959161 9.98718e-21)
(0.528531 0.0894737 -2.6051e-20)
(0.557868 0.0834612 3.42358e-20)
(0.00745345 0.0333423 3.61722e-20)
(0.0319073 0.0784296 1.17309e-20)
(0.0718647 0.105532 2.87673e-20)
(0.11768 0.119185 -4.23193e-20)
(0.165919 0.123397 -1.89842e-20)
(0.214194 0.121653 -3.52887e-20)
(0.261014 0.116616 3.31754e-21)
(0.305683 0.110077 2.38708e-20)
(0.347956 0.103095 7.24556e-20)
(0.387821 0.0962118 8.69791e-20)
(0.42537 0.0896564 3.30921e-20)
(0.46073 0.0835011 -7.79219e-21)
(0.494032 0.0777501 -1.64931e-20)
(0.525404 0.0723847 -4.07727e-20)
(0.554963 0.0673805 4.84369e-21)
(0.00617967 0.0262582 7.44217e-21)
(0.0289509 0.0616204 -4.954e-20)
(0.0679424 0.082724 -6.73953e-20)
(0.113297 0.0932221 -2.33461e-21)
(0.161418 0.0963075 -4.88317e-21)
(0.209786 0.0947376 2.36032e-20)
(0.256811 0.0906111 -7.22805e-20)
(0.301735 0.085331 -2.77311e-20)
(0.344274 0.0797238 -4.63367e-20)
(0.384398 0.0742097 1.82406e-21)
(0.422193 0.0689664 1.48347e-20)
(0.457782 0.0640484 3.25155e-20)
(0.491297 0.0594578 -6.31287e-21)
(0.522867 0.0551788 2.73787e-20)
(0.55261 0.0511915 -1.31709e-20)
(0.00518016 0.0191022 -3.20721e-20)
(0.0266351 0.0446556 1.86221e-20)
(0.0648757 0.0597222 -1.84641e-20)
(0.109876 0.0670566 2.27246e-20)
(0.157912 0.0690221 1.73413e-20)
(0.206358 0.0676405 4.84506e-21)
(0.253549 0.0644392 5.57338e-20)
(0.298676 0.0604318 -1.47237e-20)
(0.341426 0.0562115 1.28671e-20)
(0.381756 0.0520781 1.50013e-20)
(0.419744 0.0481569 1.0181e-20)
(0.455514 0.0444853 -2.71225e-20)
(0.489198 0.0410633 3.50296e-20)
(0.520924 0.0378784 2.58711e-20)
(0.550812 0.0349151 -9.99079e-21)
(0.00445835 0.0118907 9.85294e-21)
(0.0249671 0.0275711 2.32848e-20)