/*--------------------------------*- C++ -*----------------------------------*\
  =========                 |
  \\      /  F ield         | OpenFOAM: The Open Source CFD Toolbox
   \\    /   O peration     | Website:  https://openfoam.org
    \\  /    A nd           | Version:  7
     \\/     M anipulation  |
\*---------------------------------------------------------------------------*/
FoamFile
{
    version     2.0;
    format      ascii;
    class       surfaceScalarField;
    location    "160";
    object      phi;
}
// * * * * * * * * * * * * * * * * * * * * * * * * * * * * * * * * * * * * * //

dimensions      [0 3 -1 0 0 0 0];

internalField   nonuniform List<scalar> 
72657
(
-8.92655e-07
2.77116e-05
-2.68189e-05
-3.4045e-06
8.44168e-05
-8.19049e-05
-7.48827e-06
0.000143553
-0.00013947
-1.31193e-05
0.000203661
-0.00019803
-2.02736e-05
0.000263428
-0.000256274
-2.89088e-05
0.000321841
-0.000313206
-3.89496e-05
0.000378265
-0.000368224
-5.02812e-05
0.000432509
-0.000421177
-6.2749e-05
0.000484827
-0.000472359
-7.61682e-05
0.000535853
-0.000522434
-9.03377e-05
0.000586494
-0.000572324
-0.000105058
0.000637788
-0.000623069
-0.000120145
0.000690785
-0.000675698
-0.000135443
0.000746436
-0.000731137
-0.000150826
0.00080553
-0.000790147
-0.000166189
0.000868662
-0.000853299
-0.000181434
0.000936221
-0.000920976
-0.000196456
0.0010084
-0.00099338
-0.00021113
0.00108517
-0.00107049
0.00116628
-0.0011521
-0.000225308
-7.09571e-07
2.84212e-05
-2.7403e-06
8.64475e-05
-6.08821e-06
0.000146901
-1.07672e-05
0.00020834
-1.67871e-05
0.000269448
-2.41343e-05
0.000329188
-3.27567e-05
0.000386887
-4.25552e-05
0.000442307
-5.33825e-05
0.000495654
-6.50508e-05
0.000547522
-7.73452e-05
0.000598788
-9.00407e-05
0.000650484
-0.000102918
0.000703662
-0.000115773
0.000759291
-0.000128424
0.000818181
-0.000140701
0.000880938
-0.000152437
0.000947958
-0.000163461
0.00101943
-0.000173588
0.00109529
0.00117531
-0.000182614
-5.28362e-07
2.89495e-05
-2.07985e-06
8.7999e-05
-4.69021e-06
0.000149512
-8.40868e-06
0.000212058
-1.32763e-05
0.000274315
-1.93063e-05
0.000335218
-2.64689e-05
0.00039405
-3.46801e-05
0.000450518
-4.37999e-05
0.000504774
-5.36378e-05
0.00055736
-6.39652e-05
0.000609116
-7.45315e-05
0.00066105
-8.50803e-05
0.000714211
-9.53601e-05
0.000769571
-0.00010513
0.00082795
-0.000114156
0.000889964
-0.000122204
0.000956005
-0.000129033
0.00102626
-0.000134405
0.00110066
0.00117896
-0.000138055
-3.5097e-07
2.93005e-05
-1.43006e-06
8.90781e-05
-3.30859e-06
0.00015139
-6.06736e-06
0.000214817
-9.77526e-06
0.000278023
-1.44705e-05
0.000339913
-2.01436e-05
0.000399723
-2.67254e-05
0.0004571
-3.40831e-05
0.000512131
-4.20239e-05
0.0005653
-5.03059e-05
0.000617398
-5.86538e-05
0.000669398
-6.6774e-05
0.000722331
-7.43671e-05
0.000777164
-8.11342e-05
0.000834718
-8.67771e-05
0.000895607
-9.09936e-05
0.000960222
-9.34794e-05
0.00102874
-9.39438e-05
0.00110113
0.00117707
-9.20581e-05
-1.79332e-07
2.94798e-05
-7.9788e-07
8.96966e-05
-1.95764e-06
0.00015255
-3.76677e-06
0.000216626
-6.31843e-06
0.000280575
-9.67281e-06
0.000343268
-1.38391e-05
0.000403889
-1.87622e-05
0.000462023
-2.43164e-05
0.000517686
-3.0307e-05
0.000571291
-3.64802e-05
0.000623571
-4.25366e-05
0.000675455
-4.81468e-05
0.000727941
-5.29644e-05
0.000781982
-5.66338e-05
0.000838387
-5.87933e-05
0.000897767
-5.90747e-05
0.000960503
-5.71106e-05
0.00102678
-5.25782e-05
0.0010966
0.00116957
-4.50776e-05
-1.61712e-08
2.9496e-05
-1.89865e-07
8.98703e-05
-6.50996e-07
0.000153011
-1.52961e-06
0.000217505
-2.93928e-06
0.000281985
-4.9588e-06
0.000345287
-7.61392e-06
0.000406544
-1.08624e-05
0.000465272
-1.45854e-05
0.000521409
-1.85875e-05
0.000575293
-2.26037e-05
0.000627587
-2.63127e-05
0.000679164
-2.93511e-05
0.00073098
-3.13271e-05
0.000783958
-3.18305e-05
0.00083889
-3.04381e-05
0.000896374
-2.67178e-05
0.000956783
-2.02359e-05
0.0010203
-1.0586e-05
0.00108695
0.00115691
2.08214e-06
1.39422e-07
2.93566e-05
3.88022e-07
8.96217e-05
5.98283e-07
0.000152801
6.22051e-07
0.000217481
3.29545e-07
0.000282277
-3.73079e-07
0.00034599
-1.5261e-06
0.000407697
-3.09804e-06
0.000466844
-4.97696e-06
0.000523287
-6.9672e-06
0.000577283
-8.79468e-06
0.000629415
-1.0118e-05
0.000680487
-1.05423e-05
0.000731404
-9.63362e-06
0.000783049
-6.9294e-06
0.000836186
-1.94679e-06
0.000891392
5.80578e-06
0.00094903
1.68178e-05
0.00100928
3.15202e-05
0.00107224
0.00113814
5.02859e-05
2.83101e-07
2.90735e-05
9.29763e-07
8.89751e-05
1.77792e-06
0.000151953
2.66728e-06
0.000216592
3.45631e-06
0.000281488
4.03975e-06
0.000345407
4.36699e-06
0.00040737
4.45921e-06
0.000466752
4.4222e-06
0.000523325
4.45105e-06
0.000577255
4.82735e-06
0.000629038
5.90989e-06
0.000679404
8.12156e-06
0.000729192
1.19354e-05
0.000779235
1.78623e-05
0.000830259
2.64397e-05
0.000882814
3.82213e-05
0.000937249
5.37512e-05
0.000993754
7.35109e-05
0.00105248
0.0011138
9.78486e-05
4.1471e-07
2.86588e-05
1.43034e-06
8.79594e-05
2.87641e-06
0.000150507
4.5863e-06
0.000214882
6.41102e-06
0.000279663
8.23836e-06
0.000343579
1.00098e-05
0.000405599
1.17391e-05
0.000465022
1.35261e-05
0.000521537
1.55649e-05
0.000575216
1.81426e-05
0.000626461
2.16325e-05
0.000675914
2.64821e-05
0.000724343
3.31991e-05
0.000772518
4.23384e-05
0.00082112
5.44888e-05
0.000870664
7.02585e-05
0.000921479
9.02462e-05
0.000973767
0.000114968
0.00102776
0.00108402
0.000144755
5.33055e-07
2.81257e-05
1.88526e-06
8.66072e-05
3.88367e-06
0.000148508
6.36067e-06
0.000212405
9.16535e-06
0.000276859
1.21824e-05
0.000340562
1.5349e-05
0.000402432
1.86734e-05
0.000461698
2.22508e-05
0.00051796
2.62736e-05
0.000571193
3.10325e-05
0.000621702
3.69125e-05
0.000670034
4.43814e-05
0.000716874
5.39774e-05
0.000762922
6.62942e-05
0.000808803
8.19668e-05
0.000854991
0.000101653
0.000901793
0.000126
0.00094942
0.000155555
0.000998206
0.00104895
0.000190624
6.37177e-07
2.74885e-05
2.29057e-06
8.49538e-05
4.79055e-06
0.000146008
7.97401e-06
0.000209221
1.16933e-05
0.000273139
1.58346e-05
0.000336421
2.03342e-05
0.000397932
2.51971e-05
0.000456835
3.05153e-05
0.000512642
3.64788e-05
0.000565229
4.33809e-05
0.0006148
5.16145e-05
0.000661801
6.16643e-05
0.000706824
7.40934e-05
0.000750493
8.95292e-05
0.000793367
0.000108647
0.000835873
0.000132149
0.000878291
0.000160726
0.000920843
0.000194953
0.000963979
0.0010088
0.000235098
7.26225e-07
2.67623e-05
2.64293e-06
8.30371e-05
5.58914e-06
0.000143062
9.41182e-06
0.000205399
1.39717e-05
0.000268579
1.91611e-05
0.000331231
2.49187e-05
0.000392175
3.12492e-05
0.000450504
3.82425e-05
0.000505649
4.60867e-05
0.000557385
5.50755e-05
0.000605811
6.56075e-05
0.000651269
7.81795e-05
0.000694252
9.33748e-05
0.000735298
0.000111849
0.000774893
0.000134311
0.00081341
0.000161503
0.000851099
0.000194153
0.000888193
0.000232861
0.000925271
0.000963814
0.000277849
7.99483e-07
2.59628e-05
2.93943e-06
8.08972e-05
6.27292e-06
0.000139729
1.06618e-05
0.00020101
1.59805e-05
0.000263261
2.21317e-05
0.00032508
2.90604e-05
0.000385246
3.67738e-05
0.000442791
4.53611e-05
0.000497061
5.50089e-05
0.000547737
6.60102e-05
0.00059481
7.87663e-05
0.000638513
9.37824e-05
0.000679236
0.000111657
0.000717424
0.000133067
0.000753483
0.000158752
0.000787726
0.000189485
0.000820366
0.000226028
0.00085165
0.000269004
0.000882295
0.000914235
0.000318583
8.56415e-07
2.51064e-05
3.17778e-06
7.85758e-05
6.83637e-06
0.00013607
1.17138e-05
0.000196132
1.77029e-05
0.000257272
2.47207e-05
0.000318062
3.27225e-05
0.000377244
4.17209e-05
0.000433793
5.18063e-05
0.000486976
6.31642e-05
0.00053638
7.60861e-05
0.000581888
9.09737e-05
0.000623625
0.000108337
0.000661873
0.000128783
0.000696977
0.000153008
0.000729258
0.000181772
0.000758961
0.000215879
0.000786259
0.00025612
0.000811409
0.000303135
0.000835281
0.000860329
0.00035704
8.96669e-07
2.42097e-05
3.35638e-06
7.61161e-05
7.27551e-06
0.000132151
1.25601e-05
0.000190848
1.91253e-05
0.000250706
2.69069e-05
0.000310281
3.58739e-05
0.000368277
4.60474e-05
0.000423619
5.75211e-05
0.000475502
7.04803e-05
0.00052342
8.52142e-05
0.000567154
0.000102123
0.000606716
0.000121717
0.000642279
0.000144611
0.000674084
0.00017151
0.000702359
0.000203195
0.000727276
0.000240492
0.000748962
0.00028422
0.000767682
0.000335038
0.000784463
0.000802362
0.000393005
9.2008e-07
2.32897e-05
3.47435e-06
7.35618e-05
7.58777e-06
0.000128037
1.31952e-05
0.00018524
2.02381e-05
0.000243663
2.86743e-05
0.000301845
3.84903e-05
0.000358461
4.97185e-05
0.000412391
6.24583e-05
0.000462762
7.68956e-05
0.000508983
9.33175e-05
0.000550732
0.000112121
0.000587913
0.000133814
0.000620586
0.000159012
0.000648885
0.00018843
0.000672942
0.000222861
0.000692845
0.000263153
0.00070867
0.000310151
0.000720684
0.000364535
0.000730079
0.000740588
0.000426309
9.26672e-07
2.2363e-05
3.53147e-06
7.0957e-05
7.77219e-06
0.000123797
1.36162e-05
0.000179396
2.10352e-05
0.000236244
3.00121e-05
0.000292868
4.05541e-05
0.000347919
5.27081e-05
0.000400237
6.65811e-05
0.000448889
8.23612e-05
0.000493203
0.000100333
0.00053276
0.000120889
0.000567357
0.000144534
0.000596942
0.000171881
0.000621538
0.000203646
0.000641176
0.000240637
0.000655855
0.000283719
0.000665587
0.000333767
0.000670635
0.000391488
0.000672358
0.000675236
0.00045684
9.16641e-07
2.14463e-05
3.52827e-06
6.83454e-05
7.82931e-06
0.000119496
1.38231e-05
0.000173403
2.15148e-05
0.000228553
3.09157e-05
0.000283467
4.20561e-05
0.000336779
5.50003e-05
0.000387293
6.98653e-05
0.000434024
8.68426e-05
0.000476226
0.000106215
0.000513387
0.000128371
0.000545201
0.000153807
0.000571505
0.000183134
0.000592212
0.000217067
0.000607242
0.000256422
0.0006165
0.000302087
0.000619923
0.00035497
0.000617753
0.000415815
0.000611513
0.000606498
0.000484553
8.90339e-07
2.0556e-05
3.46591e-06
6.57698e-05
7.76124e-06
0.0001152
1.38188e-05
0.000167345
2.16796e-05
0.000220692
3.13865e-05
0.00027376
4.29955e-05
0.00032517
5.65903e-05
0.000373698
7.23003e-05
0.000418314
9.03224e-05
0.000458204
0.000110939
0.000492771
0.000134531
0.000521608
0.000161591
0.000544446
0.000192721
0.000561082
0.000228637
0.000571327
0.00027016
0.000574977
0.000318202
0.000571881
0.000373713
0.000562241
0.000437494
0.000547732
0.000534514
0.000509478
8.48276e-07
1.97077e-05
3.34627e-06
6.32718e-05
7.57179e-06
0.000110975
1.36088e-05
0.000161308
2.15372e-05
0.000212764
3.14331e-05
0.000263864
4.33808e-05
0.000313222
5.74855e-05
0.000359593
7.38913e-05
0.000401908
9.28019e-05
0.000439293
0.0001145
0.000471072
0.000139363
0.000496745
0.000167875
0.000515934
0.000200631
0.000528326
0.000238343
0.000533614
0.000281843
0.000531477
0.000332067
0.000521656
0.000390023
0.000504286
0.000456586
0.000481169
0.000459356
0.000531744
7.91143e-07
1.89166e-05
3.17193e-06
6.08911e-05
7.26636e-06
0.00010688
1.32022e-05
0.000155372
2.10998e-05
0.000204866
3.10714e-05
0.000253892
4.32307e-05
0.000301063
5.77066e-05
0.000345118
7.46601e-05
0.000384955
9.43039e-05
0.000419649
0.000116923
0.000448453
0.000142892
0.000470776
0.000172686
0.00048614
0.000206896
0.000494117
0.000246231
0.000494279
0.000291531
0.000486178
0.000343766
0.00046942
0.000404014
0.000444038
0.000473254
0.000411929
0.000381017
0.000551593
7.19844e-07
1.81967e-05
2.94634e-06
5.86646e-05
6.8523e-06
0.000102974
1.26112e-05
0.000149613
2.03855e-05
0.000197092
3.0325e-05
0.000243953
4.25745e-05
0.000288813
5.72887e-05
0.000330403
7.46473e-05
0.000367596
9.48747e-05
0.000399422
0.000118261
0.000425067
0.000145178
0.000443859
0.000176098
0.00045522
0.000211605
0.00045861
0.000252409
0.000453475
0.000299363
0.000439224
0.000353475
0.000415307
0.000415909
0.000381605
0.000487782
0.000340057
0.000299398
0.000569401
6.35513e-07
1.75612e-05
2.67382e-06
5.66263e-05
6.33895e-06
9.93093e-05
1.18516e-05
0.000144101
1.94175e-05
0.000189526
2.92254e-05
0.000234145
4.14529e-05
0.000276586
5.62819e-05
0.000315574
7.39134e-05
0.000349965
9.45863e-05
0.000378749
0.000118598
0.000401056
0.000146323
0.000416134
0.000178232
0.00042331
0.000214908
0.000421934
0.000257065
0.000411319
0.000305571
0.000390718
0.000361483
0.000359395
0.000426064
0.000317024
0.000500601
0.00026552
0.000214296
0.000585703
5.39529e-07
1.70217e-05
2.35965e-06
5.48061e-05
5.73765e-06
9.59313e-05
1.09428e-05
0.000138896
1.8225e-05
0.000182243
2.78128e-05
0.000224557
3.99183e-05
0.00026448
5.47525e-05
0.00030074
7.25401e-05
0.000332177
9.35379e-05
0.000357751
0.000118055
0.000376539
0.000146473
0.000387715
0.000179268
0.000390516
0.000217025
0.000384176
0.000260469
0.000367875
0.000310492
0.000340695
0.000368204
0.000301684
0.000434981
0.000250247
0.000512306
0.000188194
0.000125405
0.000601197
4.33543e-07
1.65882e-05
2.01004e-06
5.32296e-05
5.06186e-06
9.28795e-05
9.90784e-06
0.00013405
1.68428e-05
0.000175309
2.61358e-05
0.000215264
3.80355e-05
0.000252581
5.27834e-05
0.000285992
7.06312e-05
0.000314329
9.18577e-05
0.000336525
0.000116789
0.000351607
0.000145822
0.000358683
0.000179442
0.000356895
0.00021825
0.000345369
0.000262986
0.000323138
0.000314577
0.000289105
0.000374189
0.000242072
0.00044332
0.000181116
0.000523665
0.000107848
3.23173e-05
0.000616753
3.19493e-07
1.62687e-05
1.63224e-06
5.19169e-05
4.32721e-06
9.01845e-05
8.77356e-06
0.000129603
1.53116e-05
0.00016877
2.4252e-05
0.000206324
3.5881e-05
0.000240952
5.04739e-05
0.000271399
6.83125e-05
0.000296491
8.9703e-05
0.000315134
0.000114996
0.000326314
0.00014461
0.000329069
0.000179053
0.000322452
0.00021895
0.000305472
0.000265072
0.000277016
0.000318385
0.000235792
0.000380121
0.000180336
0.000451893
0.000109343
0.000535608
2.41334e-05
-6.54593e-05
0.000633385
1.9961e-07
1.60691e-05
1.23452e-06
5.0882e-05
3.55144e-06
8.78676e-05
7.57047e-06
0.000125584
1.36779e-05
0.000162663
2.2227e-05
0.000197775
3.35436e-05
0.000229635
4.79395e-05
0.000257003
6.57316e-05
0.000278699
8.72595e-05
0.000293606
0.000112907
0.000300666
0.000143125
0.000298851
0.000178457
0.00028712
0.000219566
0.000264363
0.000267268
0.000229314
0.000322582
0.000180478
0.000386801
0.000116117
0.000461644
3.45009e-05
0.0005492
-6.34229e-05
-0.000168475
0.000652216
7.64106e-08
1.59926e-05
8.26074e-07
5.01323e-05
2.75428e-06
8.59393e-05
6.33244e-06
0.000122006
1.19935e-05
0.000157002
2.01342e-05
0.000189634
3.11224e-05
0.000218647
4.53109e-05
0.000242815
6.30561e-05
0.000260953
8.47392e-05
0.000271923
0.000110787
0.000274618
0.000141696
0.000267941
0.000178061
0.000250756
0.000220599
0.000221825
0.000270188
0.000179725
0.000327907
0.000122759
0.000395114
4.89105e-05
0.000473597
-4.3982e-05
0.000565581
-0.000155407
-0.000277296
0.000674401
-4.73476e-08
1.604e-05
4.16966e-07
4.9668e-05
1.95718e-06
8.43991e-05
5.0963e-06
0.000118867
1.03146e-05
0.000151784
1.80539e-05
0.000181895
2.87268e-05
0.000207974
4.27314e-05
0.00022881
6.0471e-05
0.000243214
8.23767e-05
0.000250017
0.00010893
0.000248065
0.000140689
0.000236182
0.000178314
0.000213131
0.000222597
0.000177542
0.000274491
0.000127831
0.000335149
6.21006e-05
0.00040598
-2.19205e-05
0.000488799
-0.000126801
0.000585891
-0.000252499
-0.000392445
0.00070104
-1.68628e-07
1.62086e-05
1.80444e-08
4.94813e-05
1.18296e-06
8.32342e-05
3.90119e-06
0.000116149
8.70117e-06
0.000146984
1.60716e-05
0.000174525
2.64733e-05
0.000197572
4.03551e-05
0.000214928
5.81748e-05
0.000225394
8.04236e-05
0.000227769
0.000107651
0.000220837
0.000140491
0.000203342
0.000179689
0.000173933
0.000226128
0.000131104
0.000280852
7.31064e-05
0.000345092
-2.13905e-06
0.000420293
-9.71219e-05
0.000508234
-0.000214742
0.000611172
-0.000355437
-0.000514339
0.000733066
-2.84335e-07
1.6493e-05
-3.59714e-07
4.95567e-05
4.55324e-07
8.24192e-05
2.7877e-06
0.000113816
7.21522e-06
0.000142556
1.42759e-05
0.000167464
2.44828e-05
0.000187365
3.83417e-05
0.000201069
5.63735e-05
0.000207362
7.91406e-05
0.000205001
0.000107274
0.000192704
0.000141499
0.000169117
0.000182663
0.000132769
0.000231756
8.2011e-05
0.000289923
1.49392e-05
0.000358469
-7.06847e-05
0.000438854
-0.000177507
0.000532738
-0.000308626
0.000642263
-0.000464963
-0.00064321
0.000771135
-3.91239e-07
1.68842e-05
-7.04789e-07
4.98703e-05
-2.01702e-07
8.19161e-05
1.79689e-06
0.000111818
5.9196e-06
0.000138433
1.27567e-05
0.000160627
2.28779e-05
0.000177244
3.68528e-05
0.000187095
5.52748e-05
0.00018894
7.87888e-05
0.000181487
0.00010812
0.000163373
0.000144102
0.000133135
0.000187696
8.91752e-05
0.000240008
2.96984e-05
0.000302289
-4.73421e-05
0.000375906
-0.000144301
0.0004623
-0.0002639
0.000562917
-0.000409244
0.000679712
-0.000581757
-0.000779035
0.000815536
-4.86165e-07
1.73704e-05
-1.00605e-06
5.03902e-05
-7.64687e-07
8.16747e-05
9.69022e-07
0.000110084
4.87593e-06
0.000134526
1.16018e-05
0.000153901
2.17784e-05
0.000167068
3.60461e-05
0.000172827
5.50803e-05
0.000169906
7.96197e-05
0.000156948
0.000110496
0.000132496
0.000148661
9.49707e-05
0.000195201
4.26352e-05
0.000251343
-2.64438e-05
0.000318434
-0.000114433
0.000397878
-0.000223746
0.000491054
-0.000357076
0.000599092
-0.000517282
0.000723706
-0.000706371
-0.000921459
0.000866131
-5.66094e-07
1.79365e-05
-1.25288e-06
5.10769e-05
-1.21114e-06
8.1633e-05
3.42348e-07
0.000108531
4.1427e-06
0.000130726
1.08948e-05
0.000147149
2.12978e-05
0.000156665
3.60702e-05
0.000158054
5.5978e-05
0.000149998
8.18642e-05
0.000131062
0.000114677
9.96831e-05
0.000155494
5.41544e-05
0.000205528
-7.39903e-06
0.000266122
-8.70379e-05
0.000338699
-0.00018701
0.000424668
-0.000309714
0.000525286
-0.000457694
0.000641263
-0.000633259
0.000774049
-0.000839156
-0.00106975
0.000922334
-6.28276e-07
1.85647e-05
-1.43562e-06
5.18843e-05
-1.52069e-06
8.17181e-05
-4.78203e-08
0.000107058
3.77326e-06
0.000126905
1.07115e-05
0.000140211
2.15385e-05
0.000145838
3.70579e-05
0.000142535
5.81344e-05
0.000128922
8.57228e-05
0.000103473
0.000120894
6.45119e-05
0.000164852
1.01962e-05
0.000218935
-6.14818e-05
0.000284582
-0.000152685
0.000363265
-0.000265693
0.000456343
-0.000402792
0.000564894
-0.000566244
0.000689115
-0.000757481
0.000830168
-0.000980209
-0.00122273
0.000983149
-6.70355e-07
1.92351e-05
-1.54595e-06
5.27599e-05
-1.6758e-06
8.18479e-05
-1.72186e-07
0.000105554
3.81372e-06
0.000122919
1.11172e-05
0.000132907
2.25883e-05
0.000134366
3.91217e-05
0.000126002
6.16866e-05
0.000106357
9.13548e-05
7.38053e-05
0.000129322
2.65452e-05
0.000176914
-3.73965e-05
0.000235578
-0.000120146
0.000306826
-0.000223933
0.000392131
-0.000350998
0.000492751
-0.000503413
0.000609506
-0.000683
0.000742038
-0.000890013
0.000891159
-0.00112933
-0.00137882
0.00104725
-6.90459e-07
1.99255e-05
-1.57718e-06
5.36466e-05
-1.66214e-06
8.19329e-05
-5.48343e-09
0.000103897
4.3016e-06
0.000118612
1.21649e-05
0.000125044
2.4517e-05
0.000122014
4.23486e-05
0.00010817
6.67375e-05
8.1968e-05
9.88731e-05
4.16697e-05
0.000140071
-1.46527e-05
0.00019177
-8.90955e-05
0.0002555
-0.000183875
0.000332806
-0.000301239
0.000425115
-0.000443307
0.000533522
-0.00061182
0.000658509
-0.000807987
0.000799171
-0.00103067
0.000955789
-0.00128595
-0.00153619
0.00111316
-6.87293e-07
2.06128e-05
-1.52452e-06
5.44838e-05
-1.46934e-06
8.18777e-05
4.69937e-07
0.000101958
5.26435e-06
0.000113818
1.38927e-05
0.000116415
2.73739e-05
0.000108533
4.67976e-05
8.87464e-05
7.33509e-05
5.54146e-05
0.000108338
6.68263e-06
0.000153185
-5.94993e-05
0.00020942
-0.000145331
0.000278625
-0.000253081
0.000362333
-0.000384946
0.000461864
-0.000542839
0.000578094
-0.000728049
0.00071111
-0.000941003
0.000859543
-0.00117911
0.00102253
-0.00144893
-0.00169327
0.00117961
-6.60177e-07
2.1273e-05
-1.38526e-06
5.52089e-05
-1.0912e-06
8.15836e-05
1.26539e-06
9.96015e-05
6.71867e-06
0.000108364
1.63232e-05
0.000106811
3.11866e-05
9.36698e-05
5.24979e-05
6.74351e-05
8.15514e-05
2.63612e-05
0.000119758
-3.15235e-05
0.000168636
-0.000108377
0.000229777
-0.000206473
0.000304772
-0.000328075
0.000395081
-0.000475255
0.000501859
-0.000649617
0.000625713
-0.000851903
0.000766362
-0.00108165
0.00092229
-0.00133504
0.00109016
-0.0016168
-0.00184853
0.00124542
-6.09069e-07
2.18821e-05
-1.15877e-06
5.57586e-05
-5.25825e-07
8.09507e-05
2.38439e-06
9.66913e-05
8.67023e-06
0.000102078
1.94634e-05
9.60177e-05
3.59605e-05
7.71726e-05
5.94489e-05
4.39467e-05
9.13235e-05
-5.51346e-06
0.000133088
-7.32881e-05
0.000186332
-0.000161621
0.000252673
-0.000272814
0.000333657
-0.00040906
0.00043061
-0.000572207
0.00054444
-0.000763447
0.00067543
-0.000982894
0.000822992
-0.00122921
0.000986101
-0.00149814
0.00115941
-0.00179011
-0.00199769
0.00130857
-5.34669e-07
2.24167e-05
-8.46709e-07
5.60707e-05
2.24239e-07
7.98797e-05
3.8234e-06
9.30922e-05
1.11138e-05
9.4788e-05
2.33047e-05
8.38269e-05
4.16804e-05
5.87969e-05
6.76221e-05
1.8005e-05
0.000102616
-4.0507e-05
0.00014824
-0.000118912
0.000206125
-0.000219506
0.000277871
-0.00034456
0.000364921
-0.00049611
0.000468389
-0.000675675
0.000588854
-0.000883912
0.000726179
-0.00112022
0.000879336
-0.00138237
0.00104727
-0.00166608
0.00122684
-0.00196967
-0.00222997
0.00145911
-4.37804e-07
2.28546e-05
-4.51913e-07
5.60848e-05
1.15341e-06
7.82744e-05
5.57347e-06
8.86721e-05
1.40356e-05
8.63259e-05
2.78255e-05
7.0037e-05
4.83124e-05
3.831e-05
7.6964e-05
-1.06466e-05
0.000115344
-7.88867e-05
0.000165083
-0.000168651
0.000227816
-0.00028224
0.000305077
-0.000421821
0.000398141
-0.000589174
0.000507833
-0.000785366
0.00063431
-0.00101039
0.000776906
-0.00126282
0.000934014
-0.00153948
0.00110402
-0.00183609
0.00128288
-0.00214853
-0.00243653
0.00148944
-3.20107e-07
2.31747e-05
2.26243e-08
5.5742e-05
2.25251e-06
7.60445e-05
7.61933e-06
8.33053e-05
1.74125e-05
7.65328e-05
3.29918e-05
5.44577e-05
5.58064e-05
1.54953e-05
8.74007e-05
-4.22408e-05
0.000129398
-0.000120884
0.000183454
-0.000222708
0.000251171
-0.000349956
0.00033396
-0.00050461
0.000432862
-0.000688077
0.000548334
-0.000900838
0.000680033
-0.00114209
0.000826677
-0.00140946
0.000985971
-0.00169877
0.00115525
-0.00200537
0.00132965
-0.00232292
-0.00262451
0.00151764
-1.83922e-07
2.33586e-05
5.65105e-07
5.4993e-05
3.50934e-06
7.31003e-05
9.94191e-06
7.68727e-05
2.12155e-05
6.52591e-05
3.8761e-05
3.69122e-05
6.41004e-05
-9.84407e-06
9.8842e-05
-7.69824e-05
0.000144649
-0.000166691
0.00020317
-0.000281229
0.00027593
-0.000422716
0.000364161
-0.000592842
0.000468606
-0.000792521
0.000589283
-0.00102152
0.000725285
-0.00127809
0.000874671
-0.00155885
0.00103446
-0.00185856
0.00120103
-0.00217195
0.00136922
-0.00249111
-0.00279718
0.00154188
-3.10443e-08
2.33896e-05
1.175e-06
5.3787e-05
4.91126e-06
6.9364e-05
1.25194e-05
6.92646e-05
2.54113e-05
5.23672e-05
4.50842e-05
1.72394e-05
7.31238e-05
-3.78837e-05
0.000111187
-0.000115046
0.000160953
-0.000216457
0.00022403
-0.000344306
0.000301816
-0.000500502
0.000395311
-0.000686336
0.00050489
-0.000902101
0.000630079
-0.0011467
0.00076937
-0.00141738
0.000920168
-0.00170964
0.00107887
-0.00201726
0.00124118
-0.00233426
0.00140188
-0.00265181
-0.00295632
0.00156103
1.37081e-07
2.32525e-05
1.8432e-06
5.20808e-05
6.44426e-06
6.4763e-05
1.53284e-05
6.03805e-05
2.99642e-05
3.77313e-05
5.19088e-05
-4.70516e-06
8.28011e-05
-6.87761e-05
0.000124329
-0.000156574
0.00017816
-0.000270288
0.000245824
-0.000411969
0.000328544
-0.000583222
0.00042703
-0.000784822
0.000541235
-0.00101631
0.000670146
-0.00127562
0.000811647
-0.00155888
0.000962535
-0.00186053
0.00111871
-0.00217344
0.00127548
-0.00249103
0.00142781
-0.00280413
-0.00310303
0.00157452
3.17374e-07
2.29352e-05
2.56291e-06
4.98353e-05
8.09446e-06
5.92314e-05
1.83456e-05
5.01293e-05
3.4838e-05
2.1239e-05
5.91813e-05
-2.90485e-05
9.30552e-05
-0.00010265
0.000138158
-0.000201677
0.000196116
-0.000328246
0.000268339
-0.000484192
0.000355827
-0.000670711
0.000458943
-0.000887937
0.000577171
-0.00113453
0.000708936
-0.00140738
0.000851532
-0.00170148
0.00100123
-0.00201023
0.00115359
-0.0023258
0.00130378
-0.00264122
0.00144715
-0.0029475
-0.00323803
0.00158215
5.08515e-07
2.24267e-05
3.32791e-06
4.70159e-05
9.84882e-06
5.27105e-05
2.15486e-05
3.84295e-05
3.99975e-05
2.79015e-06
6.68494e-05
-5.59004e-05
0.00010381
-0.00013961
0.000152565
-0.000250432
0.000214666
-0.000390347
0.000291362
-0.000560887
0.000383378
-0.000762727
0.000490681
-0.000995239
0.000612248
-0.0012561
0.00074594
-0.00154107
0.000888507
-0.00184404
0.00103581
-0.00215753
0.00118322
-0.00247322
0.00132602
-0.00278402
0.0014601
-0.00308158
-0.00336189
0.00158396
7.08918e-07
2.17177e-05
4.13277e-06
4.3592e-05
1.16957e-05
4.51476e-05
2.49168e-05
2.52084e-05
4.54097e-05
-1.77028e-05
7.48626e-05
-8.53533e-05
0.00011499
-0.000179737
0.00016744
-0.000302883
0.000233657
-0.000456564
0.00031468
-0.00064191
0.000410913
-0.000858961
0.000521882
-0.00110621
0.000646039
-0.00138026
0.000780694
-0.00167573
0.000922129
-0.00198548
0.00106592
-0.00230132
0.00120743
-0.00261473
0.00134225
-0.00291884
0.00146691
-0.00320624
-0.00347519
0.00158021
9.17393e-07
2.08003e-05
4.97302e-06
3.95364e-05
1.3625e-05
3.64957e-05
2.84319e-05
1.04014e-05
5.10446e-05
-4.03155e-05
8.3174e-05
-0.000117483
0.000126524
-0.000223087
0.00018268
-0.000359038
0.000252936
-0.00052682
0.000338082
-0.000727057
0.000438153
-0.000959032
0.0005522
-0.00122025
0.000678143
-0.0015062
0.000812784
-0.00181037
0.000952034
-0.00212473
0.00109132
-0.00244061
0.00122618
-0.00274959
0.00135263
-0.00304529
0.00146792
-0.00332153
-0.00357851
0.00157125
1.13313e-06
1.96672e-05
5.84523e-06
3.48243e-05
1.56286e-05
2.67123e-05
3.20783e-05
-6.04829e-06
5.68751e-05
-6.51123e-05
9.17393e-05
-0.000152347
0.000138345
-0.000269693
0.000198179
-0.000418873
0.000272354
-0.000600994
0.00036136
-0.000816063
0.000464824
-0.0010625
0.000581301
-0.00133673
0.000708192
-0.00163309
0.000841857
-0.00194403
0.000977942
-0.00226081
0.00111189
-0.00257455
0.00123951
-0.00287721
0.0013574
-0.00316318
0.00146353
-0.00342766
-0.00367252
0.00155754
1.35569e-06
1.83115e-05
6.74702e-06
2.9433e-05
1.77e-05
1.57593e-05
3.58424e-05
-2.41907e-05
6.28765e-05
-9.21463e-05
0.000100517
-0.000189987
0.000150384
-0.000319559
0.000213836
-0.000482326
0.000291759
-0.000678917
0.000384306
-0.00090861
0.000490661
-0.00116885
0.000608873
-0.00145494
0.000735859
-0.00176008
0.000867619
-0.00207579
0.000999661
-0.00239286
0.00112757
-0.00270246
0.00124757
-0.00299722
0.00135689
-0.0032725
0.00145419
-0.00352496
-0.0037579
0.00153956
1.58493e-06
1.67266e-05
7.67687e-06
2.3341e-05
1.98344e-05
3.6018e-06
3.9713e-05
-4.40694e-05
6.90266e-05
-0.00012146
0.000109467
-0.000230428
0.000162575
-0.000372667
0.000229548
-0.000549299
0.000311002
-0.000760371
0.000406715
-0.00100432
0.000515404
-0.00127754
0.000634624
-0.00157416
0.000760859
-0.00188631
0.000889845
-0.00220478
0.00101708
-0.00252009
0.00113842
-0.00282379
0.00125058
-0.00310938
0.00135146
-0.00337338
0.00144037
-0.00361387
-0.00383533
0.00151781
1.82098e-06
1.49056e-05
8.63397e-06
1.65281e-05
2.20278e-05
-9.79206e-06
4.368e-05
-6.57215e-05
7.53041e-05
-0.000153084
0.000118551
-0.000273675
0.000174852
-0.000428968
0.000245208
-0.000619655
0.00032993
-0.000845093
0.000428384
-0.00110278
0.000538811
-0.00138797
0.000658295
-0.00169365
0.000782957
-0.00201098
0.00090838
-0.0023302
0.00103017
-0.00264189
0.00114456
-0.00293818
0.00124884
-0.00321366
0.00134153
-0.00346607
0.00142256
-0.0036949
-0.00390555
0.00149277
2.06414e-06
1.28415e-05
9.61798e-06
8.97422e-06
2.42773e-05
-2.44513e-05
4.77337e-05
-8.9178e-05
8.16876e-05
-0.000187038
0.000127727
-0.000319714
0.000187146
-0.000488388
0.000260711
-0.000693219
0.000348389
-0.000932772
0.000449115
-0.0012035
0.000560652
-0.0014995
0.000679656
-0.00181265
0.00080197
-0.00213329
0.000923135
-0.00245137
0.00103899
-0.00275774
0.00114621
-0.0030454
0.00124267
-0.00331013
0.00132754
-0.00355093
0.00140124
-0.00376861
-0.00396921
0.00146491
2.31478e-06
1.05267e-05
1.06287e-05
6.60285e-07
2.65796e-05
-4.04022e-05
5.18646e-05
-0.000114463
8.8155e-05
-0.000223328
0.000136953
-0.000368512
0.000199384
-0.000550819
0.000275944
-0.000769779
0.000366228
-0.00102306
0.000468718
-0.00130599
0.000580719
-0.00161151
0.000698516
-0.00193045
0.00081777
-0.00225254
0.00093409
-0.00256769
0.00104364
-0.00286729