/*--------------------------------*- C++ -*----------------------------------*\
  =========                 |
  \\      /  F ield         | OpenFOAM: The Open Source CFD Toolbox
   \\    /   O peration     | Website:  https://openfoam.org
    \\  /    A nd           | Version:  7
     \\/     M anipulation  |
\*---------------------------------------------------------------------------*/
FoamFile
{
    version     2.0;
    format      ascii;
    class       volVectorField;
    location    "200";
    object      U;
}
// * * * * * * * * * * * * * * * * * * * * * * * * * * * * * * * * * * * * * //

dimensions      [0 1 -1 0 0 0 0];

internalField   nonuniform List<vector> 
4575
(
(-0.0110308 0.0890121 5.37334e-22)
(-0.0170295 0.112907 9.26598e-22)
(-0.0239035 0.134944 -6.65223e-21)
(-0.0314755 0.154855 1.11229e-21)
(-0.0395698 0.172615 -4.27038e-21)
(-0.0480052 0.188409 -8.96682e-21)
(-0.0565987 0.202575 7.48025e-21)
(-0.0651742 0.215534 2.17194e-21)
(-0.0735728 0.227722 -2.54789e-21)
(-0.0816623 0.239539 3.06339e-21)
(-0.0893427 0.251312 4.11224e-21)
(-0.0965464 0.263282 -2.54721e-21)
(-0.103231 0.275601 -3.37556e-21)
(-0.109371 0.288351 -7.96538e-21)
(-0.114973 0.301549 -6.08483e-22)
(-0.119927 0.315148 -1.31621e-21)
(-0.123956 0.329059 -2.55313e-21)
(-0.0112857 0.09179 -1.03461e-20)
(-0.0169494 0.116218 4.66549e-21)
(-0.0233703 0.138699 2.76408e-20)
(-0.0303967 0.158963 -1.65928e-20)
(-0.0378744 0.17698 2.77084e-21)
(-0.04564 0.19293 1.28802e-20)
(-0.0535234 0.207148 -1.99157e-23)
(-0.0613552 0.220062 7.25938e-21)
(-0.0689772 0.232118 -9.41248e-21)
(-0.0762508 0.243733 9.65456e-21)
(-0.0830636 0.255251 -8.16936e-21)
(-0.0893304 0.266929 -3.09727e-21)
(-0.0949877 0.278935 1.5396e-20)
(-0.0999867 0.291354 -4.72245e-21)
(-0.104315 0.304207 7.1867e-22)
(-0.107846 0.317446 -8.68037e-21)
(-0.110227 0.330983 -9.18123e-22)
(-0.0116211 0.094119 2.60867e-20)
(-0.0169551 0.119029 -2.03678e-20)
(-0.0229181 0.141926 -3.09108e-20)
(-0.0293836 0.162533 2.74171e-20)
(-0.0362186 0.180808 -7.28439e-21)
(-0.0432776 0.196922 -3.61061e-21)
(-0.0504038 0.211205 -1.76582e-20)
(-0.0574356 0.224084 4.67325e-21)
(-0.064216 0.236013 1.66114e-20)
(-0.0706008 0.247422 -3.38709e-21)
(-0.0764659 0.258671 1.30472e-20)
(-0.0817091 0.270032 -1.05405e-20)
(-0.0862461 0.281685 -3.21223e-21)
(-0.0900056 0.293726 2.42822e-20)
(-0.0929572 0.306177 -1.49222e-21)
(-0.0949644 0.318998 3.69968e-20)
(-0.0955784 0.332105 -8.6647e-21)
(-0.0120273 0.0959927 -2.42886e-20)
(-0.0170413 0.121329 1.43138e-20)
(-0.0225477 0.14461 -2.57536e-21)
(-0.0284435 0.165544 -4.56779e-20)
(-0.0346166 0.184076 -4.68933e-21)
(-0.0409392 0.20036 -9.53615e-21)
(-0.0472682 0.214718 -1.38953e-21)
(-0.0534505 0.227571 -1.59274e-20)
(-0.059331 0.239378 1.75562e-20)
(-0.0647614 0.250577 -2.55014e-20)
(-0.0696063 0.261542 -7.57832e-22)
(-0.0737477 0.27256 6.71384e-21)
(-0.0770818 0.283825 -5.08744e-20)
(-0.0795152 0.295441 -4.03396e-20)
(-0.0810015 0.307439 2.15953e-20)
(-0.0814019 0.319789 -2.8618e-20)
(-0.0801498 0.33241 7.84788e-22)
(-0.0124944 0.0974091 -1.20292e-21)
(-0.0172023 0.123113 7.26057e-21)
(-0.022259 0.146739 1.14265e-21)
(-0.0275832 0.167981 2.33181e-20)
(-0.0330825 0.186763 2.6849e-20)
(-0.0386462 0.203221 1.11058e-20)
(-0.0441452 0.21766 3.84805e-20)
(-0.0494354 0.230495 -4.31494e-20)
(-0.0543651 0.242184 -8.9517e-21)
(-0.0587824 0.253169 1.83787e-20)
(-0.0625428 0.263838 -3.11762e-20)
(-0.0655131 0.274491 1.39798e-20)
(-0.0675716 0.285333 3.19669e-20)
(-0.0686043 0.296481 7.71093e-21)
(-0.0685494 0.307975 1.05684e-20)
(-0.0672793 0.319804 -1.66911e-20)
(-0.0640832 0.331898 2.06033e-21)
(-0.0130125 0.0983707 2.08844e-20)
(-0.0174321 0.124379 1.78447e-20)
(-0.0220516 0.148308 8.0021e-21)
(-0.026809 0.169832 1.45314e-20)
(-0.0316297 0.188852 -1.00176e-20)
(-0.0364195 0.205483 -5.99459e-20)
(-0.0410631 0.220009 -5.2202e-20)
(-0.0454263 0.232832 -3.30257e-20)
(-0.0493614 0.244405 1.22954e-20)
(-0.052715 0.255174 -6.8856e-21)
(-0.0553343 0.265535 5.12736e-20)
(-0.0570733 0.2758 -1.81198e-20)
(-0.0577937 0.286187 1.44586e-20)
(-0.0573625 0.296826 2.08303e-20)
(-0.0557021 0.30777 -1.16709e-20)
(-0.0527103 0.319035 9.91651e-20)
(-0.0475211 0.330606 -3.66583e-20)
(-0.0135716 0.0988847 -1.31056e-20)
(-0.0177246 0.125129 5.72219e-21)
(-0.0219247 0.149313 8.58453e-21)
(-0.0261266 0.171088 2.79672e-20)
(-0.0302711 0.190331 5.97102e-21)
(-0.0342796 0.207128 2.15639e-21)
(-0.0380503 0.221742 9.36568e-20)
(-0.0414591 0.234556 6.87055e-20)
(-0.0443638 0.246016 -4.01048e-20)
(-0.0466106 0.256567 -5.80099e-21)
(-0.0480408 0.266609 -1.53775e-20)
(-0.048497 0.276466 1.48583e-20)
(-0.0478265 0.286369 -7.70968e-20)
(-0.04588 0.296463 -1.58363e-20)
(-0.0425618 0.306816 -2.36035e-20)
(-0.0377896 0.31746 -5.64311e-20)
(-0.0305877 0.328525 3.02954e-20)
(-0.0141626 0.0989629 -1.72681e-20)
(-0.0180738 0.125372 -1.52624e-20)
(-0.0218774 0.149757 2.35304e-20)
(-0.0255411 0.171748 -3.91339e-20)
(-0.0290191 0.191191 -5.30528e-21)
(-0.0322464 0.208143 7.03592e-20)
(-0.0351345 0.222841 -4.3928e-20)
(-0.0375695 0.235648 -1.76651e-20)
(-0.0394158 0.246996 2.05198e-20)
(-0.0405211 0.257325 -5.28129e-21)
(-0.0407225 0.26704 -2.72669e-21)
(-0.0398534 0.276471 2.15531e-20)
(-0.0377488 0.285864 -5.60306e-20)
(-0.0342445 0.295378 1.95077e-20)
(-0.0292371 0.305101 -1.44224e-20)
(-0.0226344 0.315084 -3.22411e-20)
(-0.0133937 0.325595 1.1353e-20)
(-0.0184742 0.12512 5.50507e-20)
(-0.0219087 0.149649 -5.5888e-20)
(-0.0250574 0.171812 -2.66868e-20)
(-0.0278853 0.191426 -4.52876e-20)
(-0.0303392 0.208517 -4.83938e-20)
(-0.0323427 0.223291 -3.10347e-20)
(-0.0337927 0.236088 -4.09561e-20)
(-0.034561 0.247323 7.31225e-20)
(-0.0344982 0.257428 -8.07918e-21)
(-0.0334394 0.266807 -1.62265e-20)
(-0.0312115 0.275798 -8.34931e-20)
(-0.0276392 0.284657 4.63496e-20)
(-0.0225465 0.29356 1.15046e-20)
(-0.0158228 0.302617 2.80886e-20)
(-0.00737489 0.311916 1.88267e-20)
(0.00391805 0.321808 -4.96854e-20)
(-0.0189207 0.124391 4.87318e-20)
(-0.0220176 0.149001 -3.71775e-20)
(-0.02468 0.171286 7.8574e-20)
(-0.0268805 0.191036 4.36745e-21)
(-0.028576 0.208243 6.90231e-20)
(-0.029701 0.22308 -3.91418e-20)
(-0.0301629 0.235861 6.19643e-20)
(-0.0298417 0.246979 -5.97533e-20)
(-0.0285927 0.256856 -5.28198e-20)
(-0.026251 0.265892 4.41632e-20)
(-0.0226395 0.27443 1.53773e-19)
(-0.0175754 0.282736 -8.33074e-20)
(-0.0108733 0.291003 6.76477e-20)
(-0.00241682 0.299362 1.53297e-20)
(0.00787511 0.307947 -5.71317e-20)
(0.0212118 0.317202 4.718e-20)
(-0.019409 0.123207 -3.79681e-20)
(-0.0222033 0.147829 8.63622e-20)
(-0.0244129 0.170183 -1.5373e-20)
(-0.026015 0.190027 1.874e-21)
(-0.026974 0.207319 -9.51849e-20)
(-0.0272341 0.222201 5.88626e-20)
(-0.0267129 0.234954 1.30977e-20)
(-0.0252992 0.245949 -1.66246e-20)
(-0.0228542 0.255594 2.08264e-20)
(-0.0192156 0.26428 -8.08924e-20)
(-0.0142043 0.272354 -4.44597e-20)
(-0.00763299 0.280091 9.19003e-20)
(0.000690177 0.287699 -5.06535e-20)
(0.0108855 0.295334 -7.1646e-20)
(0.0230112 0.303177 1.31253e-19)
(0.0383658 0.311796 -4.34706e-22)
(-0.0199356 0.121592 -2.45187e-20)
(-0.0224653 0.146156 -2.81068e-20)
(-0.0242599 0.168518 -1.15033e-19)
(-0.0252978 0.188406 1.39155e-20)
(-0.0255487 0.205748 -4.63452e-20)
(-0.0249648 0.220648 1.58805e-19)
(-0.0234734 0.233357 -9.02186e-20)
(-0.0209724 0.244221 5.45101e-20)
(-0.0173304 0.253626 -1.63717e-20)
(-0.0123891 0.261957 8.77648e-20)
(-0.00597034 0.269558 6.96416e-21)
(0.00211496 0.276712 -7.27033e-20)
(0.0120623 0.283643 -1.27267e-20)
(0.023994 0.290534 3.34723e-21)
(0.037936 0.297612 -5.71669e-21)
(0.0552702 0.3056 8.69979e-20)
(-0.020498 0.119578 -5.72118e-21)
(-0.0228032 0.144007 -4.64472e-20)
(-0.024224 0.166311 1.01034e-19)
(-0.0247368 0.18619 -1.09499e-20)
(-0.0243139 0.203537 1.16536e-19)
(-0.0229139 0.218424 -1.26844e-19)
(-0.0204727 0.231068 3.27975e-20)
(-0.0168977 0.241785 3.77207e-20)
(-0.0120657 0.250942 -1.19764e-21)
(-0.00582457 0.258911 -5.89026e-22)
(0.00200097 0.266031 -6.77368e-20)
(0.0115992 0.272592 9.13755e-21)
(0.0231662 0.278832 8.79903e-20)
(0.0368243 0.284961 1.11762e-19)
(0.0525599 0.291258 -1.31356e-19)
(0.0718268 0.298624 -8.37442e-20)
(-0.0210948 0.117197 8.96258e-20)
(-0.0232171 0.141414 8.8966e-20)
(-0.0243081 0.163588 -3.40859e-20)
(-0.0243387 0.183396 1.44289e-19)
(-0.0232814 0.200698 -1.42601e-19)
(-0.0210992 0.215534 6.15854e-20)
(-0.0177358 0.228084 6.14002e-20)
(-0.0131078 0.238636 -4.83466e-21)
(-0.00710108 0.247534 5.67531e-22)
(0.000429127 0.255132 7.68979e-21)
(0.00965289 0.261765 -5.22545e-20)
(0.0207554 0.267724 5.13088e-20)
(0.0339308 0.273261 -2.62735e-20)
(0.0492997 0.278616 -5.79645e-20)
(0.0668031 0.28412 7.38336e-20)
(0.0879502 0.290875 1.52043e-20)
(-0.0217256 0.114485 -5.95792e-20)
(-0.0237076 0.13841 -6.07552e-20)
(-0.0245144 0.16038 9.58125e-20)
(-0.0241087 0.180049 -4.79527e-20)
(-0.0224604 0.19725 3.71128e-20)
(-0.0195353 0.211989 3.63787e-21)
(-0.0152836 0.224412 -9.4927e-21)
(-0.0096307 0.234776 2.30063e-20)
(-0.00247198 0.243397 -4.46148e-20)
(0.00632869 0.250615 2.31842e-20)
(0.0169346 0.256752 7.23382e-20)
(0.029526 0.262102 -1.03396e-19)
(0.0442929 0.266929 -6.53647e-20)
(0.0613529 0.2715 8.46195e-20)
(0.0805978 0.276202 -4.94979e-20)
(0.103571 0.282363 -7.49681e-20)
(-0.0223916 0.11148 -1.43485e-20)
(-0.0242755 0.135032 -5.14292e-20)
(-0.0248445 0.15672 -9.45334e-20)
(-0.0240501 0.176178 -7.00142e-20)
(-0.0218574 0.193216 -1.36337e-19)
(-0.018233 0.207805 1.32014e-20)
(-0.0131321 0.220061 -1.12795e-20)
(-0.00648868 0.230207 -9.00273e-20)
(0.00179249 0.238533 7.57316e-20)
(0.011838 0.245358 9.13052e-20)
(0.0238033 0.250992 -4.55002e-21)
(0.0378622 0.255726 5.41712e-20)
(0.0541991 0.259834 -2.66444e-20)
(0.0729282 0.263613 3.86293e-21)
(0.0938904 0.267508 7.28961e-20)
(0.11864 0.273091 1.74454e-19)
(-0.0249216 0.131321 7.02903e-20)
(-0.0252989 0.152645 -2.48193e-20)
(-0.0241641 0.171817 -7.0003e-20)
(-0.0214753 0.188622 1.11015e-19)
(-0.017198 0.203005 -2.93721e-20)
(-0.0112914 0.215047 2.0759e-20)
(-0.0036968 0.224942 1.0872e-19)
(0.00567152 0.232949 -1.47774e-19)
(0.0169304 0.239364 -3.97686e-20)
(0.0302264 0.244485 -7.59046e-20)
(0.0457266 0.248595 1.51559e-19)
(0.0636091 0.251979 4.48141e-21)
(0.083985 0.254958 8.06547e-20)
(0.106645 0.258039 -2.96764e-20)
(0.13313 0.263063 -1.64132e-19)
(-0.0256469 0.127319 4.28081e-20)
(-0.0258769 0.148197 -2.1036e-21)
(-0.0244492 0.167003 1.8028e-19)
(-0.0213129 0.183504 6.71686e-20)
(-0.0164307 0.197616 -1.20047e-19)
(-0.00976432 0.209394 5.75679e-21)
(-0.00126142 0.218996 -4.50674e-21)
(0.00915461 0.226656 1.55185e-19)
(0.0215909 0.232643 -1.69445e-19)
(0.036185 0.237238 4.61713e-20)
(0.0530971 0.240717 1.21689e-21)
(0.0724998 0.243368 -1.1312e-19)
(0.0945028 0.245539 -1.16068e-19)
(0.11885 0.2478 -1.44318e-20)
(0.147045 0.252279 1.65287e-19)
(-0.0264519 0.12307 -1.6119e-19)
(-0.0265763 0.143421 -4.30682e-20)
(-0.0249009 0.161779 -9.42958e-20)
(-0.0213643 0.177898 -4.31808e-20)
(-0.0159247 0.191673 7.47906e-20)
(-0.00854503 0.203129 1.47998e-19)
(0.000821725 0.212395 -1.61474e-19)
(0.012244 0.219674 -5.9147e-20)
(0.0258194 0.225211 2.08658e-19)
(0.0416773 0.229266 -7.36675e-20)
(0.0599714 0.232105 -1.04391e-19)
(0.0808709 0.234013 1.30101e-19)
(0.104487 0.235366 2.72208e-20)
(0.130522 0.236796 2.47247e-20)
(0.160429 0.24074 -1.06357e-19)
(-0.027336 0.11862 2.87897e-20)
(-0.0273924 0.138361 1.84316e-19)
(-0.0255107 0.156189 -1.13004e-19)
(-0.0216177 0.171849 2.62772e-20)
(-0.0156658 0.185216 -5.12722e-20)
(-0.00761764 0.19629 -2.00994e-19)
(0.0025696 0.205171 1.18715e-19)
(0.0149572 0.212033 9.26402e-20)
(0.0296345 0.217095 -1.61248e-19)
(0.0467233 0.220594 3.73465e-20)
(0.0663727 0.22278 1.44396e-19)
(0.0887511 0.223936 5.46957e-20)
(0.113977 0.224458 1.91935e-20)
(0.141718 0.22504 -1.1161e-19)
(0.173373 0.228451 -5.41735e-20)
(-0.0283179 0.133065 -2.55538e-20)
(-0.0262656 0.150282 1.71189e-20)
(-0.0220546 0.165403 1.03576e-19)
(-0.0156306 0.178289 1.27679e-19)
(-0.00695431 0.188918 -5.41378e-21)
(0.00401424 0.197363 -2.68759e-20)
(0.0173306 0.20377 -1.53088e-19)
(0.0330773 0.208329 1.12076e-19)
(0.05137 0.211254 -9.48838e-21)
(0.0723561 0.212777 -6.41966e-20)
(0.096207 0.213171 -3.1507e-19)
(0.123057 0.212845 1.09691e-19)
(0.152544 0.212558 6.46161e-21)
(0.186029 0.215425 -6.67456e-20)
(-0.0293415 0.127583 -1.52713e-19)
(-0.0271469 0.144109 9.29301e-20)
(-0.0226488 0.158613 -1.06509e-20)
(-0.015785 0.170945 -2.01121e-19)
(-0.0065133 0.181064 3.78264e-20)
(0.00520531 0.189021 2.04007e-20)
(0.0194225 0.194932 -3.45328e-20)
(0.0362156 0.19896 8.94282e-20)
(0.0556973 0.201295 1.69898e-19)
(0.0780158 0.202144 -1.08282e-19)
(0.103351 0.201767 8.7358e-20)
(0.131862 0.200578 1.99173e-20)
(0.163166 0.199391 1.17787e-19)
(0.198623 0.201693 5.21483e-20)
(-0.0304477 0.121964 1.73478e-19)
(-0.0281293 0.137723 -1.22143e-19)
(-0.0233647 0.151533 3.58541e-20)
(-0.0160829 0.16324 1.45195e-19)
(-0.00623701 0.172786 1.35e-19)
(0.00621277 0.180201 5.0559e-20)
(0.0213165 0.185576 2.17603e-19)
(0.0391494 0.189048 -2.95572e-20)
(0.0598237 0.190777 -2.20256e-19)
(0.0834933 0.190947 1.06294e-19)
(0.110353 0.189793 -5.47828e-20)
(0.140596 0.187728 -1.27608e-19)
(0.173822 0.185608 -8.90654e-20)
(0.211463 0.187311 -8.87616e-20)
(-0.0316155 0.116257 -2.20477e-19)
(-0.0291801 0.131177 8.29642e-20)
(-0.0241567 0.144222 -7.40143e-20)
(-0.0164642 0.155235 -1.2115e-19)
(-0.0060499 0.164148 3.9942e-21)
(0.00712953 0.170971 -2.9012e-19)
(0.0231254 0.175773 -2.19456e-19)
(0.0420142 0.178664 6.71671e-20)
(0.0639122 0.179778 3.36602e-20)
(0.0889835 0.179269 -6.98658e-20)
(0.117444 0.177342 2.66903e-19)
(0.149535 0.174398 -4.12708e-20)
(0.184831 0.17131 1.11243e-19)
(0.224952 0.172374 9.90435e-20)
(-0.0302577 0.124527 1.14065e-19)
(-0.0249672 0.136741 -6.73352e-21)
(-0.0168539 0.146997 5.04831e-20)
(-0.00585675 0.15522 1.47978e-19)
(0.00807365 0.161405 3.02021e-19)
(0.0249937 0.165601 2.351e-20)
(0.0449856 0.167895 -1.26909e-19)
(0.0681744 0.168391 2.26689e-20)
(0.0947402 0.167213 2.13969e-19)
(0.124925 0.164531 -1.42871e-19)
(0.159034 0.160719 6.89349e-22)
(0.1966 0.156636 1.07321e-19)
(0.239582 0.157022 -6.5769e-20)
(-0.0313112 0.117828 -2.95169e-20)
(-0.0257263 0.129152 -6.29339e-20)
(-0.0171603 0.138594 1.00213e-19)
(-0.00554121 0.146077 -1.13132e-19)
(0.00919007 0.151586 -3.56772e-20)
(0.0270996 0.155151 -3.92869e-21)
(0.0482805 0.156837 8.85297e-20)
(0.0728727 0.156725 -7.80067e-20)
(0.101078 0.154903 -1.4508e-19)
(0.13317 0.151503 -4.29084e-20)
(0.169527 0.146858 -6.19603e-20)
(0.209615 0.141768 -1.87341e-19)
(0.255929 0.141453 -5.54969e-20)
(-0.0322791 0.111133 -1.36475e-19)
(-0.0263507 0.121517 7.63595e-20)
(-0.0172746 0.130099 -2.21069e-19)
(-0.00496507 0.136802 -1.07974e-19)
(0.0106512 0.141603 1.45159e-21)
(0.0296555 0.144521 8.99754e-20)
(0.0521579 0.145602 -5.74419e-20)
(0.0783196 0.144901 1.43166e-19)
(0.108369 0.142479 -3.4464e-20)
(0.142615 0.13842 4.44205e-20)
(0.18152 0.133012 1.63135e-19)
(0.224431 0.126931 2.15311e-20)
(0.274625 0.12592 1.02292e-19)
(-0.0267434 0.113901 -1.492e-19)
(-0.017071 0.121586 4.26579e-20)
(-0.00396846 0.127477 4.12344e-21)
(0.0126565 0.131551 -1.03398e-19)
(0.0329063 0.133817 7.39123e-20)
(0.0569153 0.134306 -5.66453e-20)
(0.0848722 0.133056 -1.01383e-19)
(0.117037 0.130097 -1.28908e-19)
(0.153752 0.125466 3.12866e-20)
(0.195568 0.119402 4.20426e-20)
(0.241646 0.112384 -4.03007e-20)
(0.296321 0.110737 1.67702e-19)
(-0.0267941 0.106364 -4.19844e-20)
(-0.0164066 0.113127 3.42373e-19)
(-0.00237123 0.11819 2.4186e-20)
(0.0154294 0.121528 -3.5682e-20)
(0.0371259 0.12315 -2.31296e-19)
(0.0628831 0.123077 4.38586e-20)
(0.092923 0.121331 -1.08402e-19)
(0.12754 0.117918 7.06195e-20)
(0.167101 0.112832 6.32076e-20)
(0.212248 0.106263 -2.37046e-19)
(0.261865 0.0984061 -7.27373e-20)
(0.321636 0.0962599 -2.50522e-19)
(-0.0263801 0.0989666 1.4674e-20)
(-0.0151242 0.104796 -1.03041e-19)
(2.43671e-05 0.109024 1.44481e-19)
(0.0192141 0.111635 9.72758e-22)
(0.04261 0.112635 1.72655e-19)
(0.0704141 0.112043 1.14301e-19)
(0.102885 0.109872 1.89794e-20)
(0.14035 0.106111 2.29721e-19)
(0.183189 0.100713 -2.04669e-19)
(0.232122 0.0938342 9.34802e-20)
(0.285656 0.0852848 7.24111e-20)
(0.351096 0.0828714 6.19706e-20)
(-0.0130541 0.0966608 -1.69851e-19)
(0.00342943 0.100065 -1.27509e-19)
(0.0242682 0.101968 5.88311e-20)
(0.0496676 0.102384 -1.63808e-19)
(0.079871 0.101332 1.0834e-20)
(0.115175 0.0988227 6.05167e-20)
(0.15593 0.0948373 4.51565e-20)
(0.202513 0.0892953 1.3777e-19)
(0.255696 0.0823383 2.864e-20)
(0.313504 0.07329 -1.00885e-19)
(0.385074 0.0709544 1.07535e-19)
(-0.0100184 0.0887861 1.46476e-19)
(0.00806294 0.0913893 -7.38887e-20)
(0.0308555 0.0926208 2.25563e-21)
(0.0586095 0.0925039 3.9373e-20)
(0.0916106 0.0910653 8.10256e-20)
(0.130188 0.0883201 -9.77544e-21)
(0.174707 0.0842484 -2.19659e-20)
(0.225508 0.0787466 -1.10421e-19)
(0.283375 0.0719724 -7.26807e-20)
(0.345769 0.0626578 -6.77574e-20)
(0.423733 0.0608636 1.07947e-19)
(0.0141451 0.0830704 5.10725e-20)
(0.0392366 0.0836798 1.7586e-20)
(0.0697354 0.0830956 -7.83005e-20)
(0.105967 0.0813565 -1.779e-19)
(0.148284 0.0784883 8.78938e-20)
(0.197041 0.0744786 -4.31834e-20)
(0.252513 0.0692117 -1.04492e-20)
(0.315428 0.0628946 1.75915e-19)
(0.382654 0.0535767 1.82337e-19)
(0.466984 0.0529005 -2.75347e-19)
(0.0218901 0.0751705 5.20172e-21)
(0.0496585 0.0752211 -1.22264e-19)
(0.083321 0.0742473 1.5949e-19)
(0.123235 0.0723046 1.02063e-19)
(0.169759 0.0694347 -1.94724e-19)
(0.223208 0.0656398 -1.62234e-19)
(0.283753 0.0608053 3.67556e-20)
(0.351969 0.0552161 2.10646e-19)
(0.424192 0.0461824 9.6157e-20)
(0.514471 0.047292 5.11917e-20)
(0.0314984 0.067742 -2.39285e-19)
(0.0623452 0.0673087 -2.13713e-19)
(0.0996051 0.0660337 -2.07834e-20)
(0.143653 0.0639921 -1.07278e-20)
(0.19483 0.0612464 6.87467e-20)
(0.253374 0.0578183 4.42151e-20)
(0.319313 0.0536097 5.63957e-20)
(0.392941 0.0489957 -2.60392e-19)
(0.470247 0.0405583 -7.13138e-20)
(0.565574 0.0441658 1.83896e-19)
(0.0774882 0.0599934 9.41367e-20)
(0.118779 0.0585137 -8.55047e-20)
(0.167393 0.0564832 -1.16738e-19)
(0.223625 0.0539878 -1.45988e-20)
(0.28759 0.0510718 1.14789e-19)
(0.359139 0.0476744 -7.53992e-20)
(0.438119 0.0442387 2.80716e-20)
(0.52053 0.036742 6.28834e-20)
(0.619448 0.0435271 1.55872e-19)
(0.0952396 0.0533115 4.30643e-20)
(0.140977 0.05173 -5.77309e-20)
(0.194552 0.0498226 1.34998e-19)
(0.256173 0.0477 -1.16582e-20)
(0.325786 0.0454297 -2.9659e-20)
(0.403029 0.0430166 -4.67542e-20)
(0.487122 0.0408999 7.21946e-20)
(0.574583 0.0347628 -1.79639e-19)
(0.674996 0.045326 -2.39401e-19)
(0.166274 0.0457093 2.15074e-19)
(0.225144 0.0440362 -1.90761e-20)
(0.292401 0.0424008 -4.10393e-20)
(0.367774 0.0408915 -5.5121e-21)
(0.450661 0.039615 9.90928e-20)
(0.539468 0.0388782 1.73507e-19)
(0.631796 0.0347278 -4.79831e-20)
(0.730718 0.0496969 1.74671e-19)
(0.194679 0.0404653 -7.29078e-20)
(0.259104 0.039134 -5.27443e-20)
(0.332138 0.0380872 -1.70536e-19)
(0.413254 0.0374268 -4.54676e-20)
(0.501597 0.0373889 3.76546e-21)
(0.594689 0.037989 -1.19393e-19)
(0.691658 0.036834 5.83744e-20)
(0.785016 0.0567001 -1.23606e-19)
(0.296286 0.0351142 -8.57908e-20)
(0.375116 0.034741 2.05977e-19)
(0.461808 0.0349802 1.24632e-19)
(0.555255 0.0361868 3.05954e-20)
(0.652285 0.0379625 -1.28833e-19)
(0.75403 0.0409784 -6.65359e-21)
(0.838668 0.0637378 -2.04368e-19)
(0.336476 0.0319688 -4.06039e-20)
(0.420979 0.0323393 3.7287e-20)
(0.512909 0.0334931 -6.53256e-20)
(0.610869 0.0358408 -7.42933e-20)
(0.711322 0.0385415 1.55187e-19)
(0.817664 0.0458158 -4.93671e-20)
(0.89731 0.0630304 6.33306e-21)
(0.46931 0.0308634 -8.23313e-20)
(0.56596 0.03293 2.30202e-20)
(0.667602 0.0362741 -2.88709e-20)
(0.77046 0.0395889 -1.58284e-20)
(0.877745 0.0480543 3.46141e-20)
(0.960931 0.0538518 3.69074e-19)
(0.620338 0.0332777 3.19115e-21)
(0.72466 0.0374891 -1.54854e-19)
(0.828661 0.0412822 -4.07458e-20)
(0.934487 0.0497751 1.92779e-19)
(1.01786 0.0504038 -2.13177e-19)
(0.675421 0.0345309 1.58431e-19)
(0.78133 0.03952 4.92144e-20)
(0.885147 0.0437873 2.77753e-19)
(0.987883 0.0520256 -1.75473e-19)
(1.06895 0.0504748 2.83965e-19)
(0.836971 0.0423781 6.17006e-20)
(0.939323 0.0471248 3.61058e-20)
(1.03773 0.0550163 -3.01823e-19)
(1.11517 0.0526431 -1.66532e-19)
(0.99071 0.0512444 5.12457e-20)
(1.08384 0.0587646 2.36399e-19)
(1.15664 0.0562784 -1.60077e-19)
(1.03893 0.0560639 -1.77974e-19)
(1.12605 0.0632059 1.12972e-19)
(1.19348 0.0609311 5.18973e-20)
(1.16428 0.0682324 -1.78364e-19)
(1.22587 0.0662664 2.45836e-19)
(1.25401 0.0720391 -1.23125e-19)
(1.22583 -0.0036157 -1.15666e-19)
(1.15408 0.0013079 -3.65209e-19)
(1.20092 0.0058144 2.0562e-19)
(1.05001 0.014602 -2.50324e-19)
(1.12082 0.00975177 1.93492e-19)
(1.17251 0.0150785 -6.08109e-20)
(1.00829 0.0226625 -1.43832e-19)
(1.08423 0.0178599 4.1892e-19)
(1.14042 0.023964 -9.39561e-20)
(0.877594 0.0305115 5.12913e-21)
(0.963848 0.0302793 -4.04075e-20)
(1.04434 0.0255538 -4.0836e-19)
(1.10452 0.0321769 -2.1251e-19)
(0.736344 0.0358152 -2.23094e-20)
(0.82909 0.0367056 6.46854e-20)
(0.916953 0.037416 2.58733e-19)
(1.00122 0.0328048 -8.75691e-20)
(1.06468 0.0393113 2.50155e-19)
(0.687578 0.0402564 1.41768e-19)
(0.779474 0.0424142 -1.37549e-19)
(0.867924 0.0440813 -2.37495e-19)
(0.954958 0.0396867 3.93127e-19)
(1.02067 0.0447875 -2.43429e-19)
(0.550248 0.0388925 -2.07718e-20)
(0.639018 0.0442212 -2.52228e-19)
(0.729166 0.0477152 9.32654e-20)
(0.817145 0.0503583 1.63123e-19)
(0.905595 0.0464834 2.44615e-21)
(0.971651 0.0474328 3.24247e-19)
(0.424575 0.0332272 2.47191e-19)
(0.505796 0.0410915 -6.17572e-20)
(0.591029 0.0478051 -1.73941e-19)
(0.678611 0.0527226 -4.20753e-20)
(0.765113 0.0564498 2.65817e-19)
(0.853039 0.0541493 7.65837e-21)
(0.916764 0.0451153 -1.12216e-19)
(0.386014 0.0339464 5.6373e-20)
(0.462712 0.0430379 1.7592e-19)
(0.54395 0.0511128 9.12317e-20)
(0.628279 0.0575453 1.03121e-19)
(0.712496 0.0625764 -3.01421e-19)
(0.797121 0.0645452 6.69628e-20)
(0.86541 0.0475323 -2.38518e-19)
(0.283057 0.0238604 1.55659e-20)
(0.349151 0.034608 -1.3816e-19)
(0.421155 0.0448469 -6.25305e-20)
(0.498068 0.0542415 -1.39255e-19)
(0.57864 0.0622411 -5.88835e-20)
(0.660202 0.0686767 2.10088e-20)
(0.741502 0.0748365 -1.30145e-19)
(0.817545 0.0579517 -1.00063e-20)
(0.252693 0.0237063 2.18601e-19)
(0.313997 0.0353325 2.0432e-20)
(0.381223 0.0466306 9.52031e-20)
(0.453598 0.0572742 -1.39983e-19)
(0.530075 0.0668035 2.13046e-19)
(0.608692 0.0746926 5.55073e-20)
(0.686709 0.0838258 7.6999e-20)
(0.767986 0.0696275 2.63636e-19)
(0.173437 0.0115483 1.70738e-19)
(0.223941 0.0238163 1.6843e-20)
(0.280526 0.0362338 7.25537e-20)
(0.34296 0.0484972 9.84755e-20)
(0.410672 0.0602948 -4.27081e-20)
(0.482809 0.0712406 -1.66105e-19)
(0.55806 0.0805826 8.142e-20)
(0.632514 0.0916446 -1.01864e-19)
(0.715768 0.0802005 -2.81236e-19)
(0.150565 0.0114462 1.77901e-19)
(0.196711 0.0242893 -5.62814e-20)
(0.248683 0.0374167 -6.10483e-20)
(0.306363 0.0505502 -1.9508e-19)
(0.369351 0.0633955 2.64181e-19)
(0.436971 0.0756108 -7.53775e-20)
(0.508422 0.0863481 -4.86808e-20)
(0.579079 0.0987109 6.7718e-20)
(0.661983 0.0898028 2.09044e-19)
(0.0924477 -0.000881207 3.81196e-19)
(0.128971 0.011849 -2.81684e-19)
(0.170914 0.0252103 -2.13448e-19)
(0.218397 0.0389731 -1.4196e-19)
(0.271397 0.0528849 3.06285e-19)
(0.329655 0.0666685 -1.60569e-21)
(0.392655 0.0800009 7.9482e-20)
(0.459956 0.0920209 -2.89606e-19)
(0.526687 0.105282 1.72816e-20)
(0.6076 0.0986718 1.29336e-19)
(0.0757414 -0.000306695 -2.97451e-20)
(0.108562 0.0128169 -7.55891e-20)
(0.146457 0.0266474 1.19561e-19)
(0.189592 0.040979 1.5398e-19)
(0.238015 0.0555825 -3.72368e-19)
(0.29158 0.0701955 -1.45694e-19)
(0.349918 0.0844936 1.4278e-19)
(0.412822 0.0976358 1.7295e-19)
(0.475527 0.111472 1.85858e-19)
(0.553225 0.106816 9.47521e-21)
(0.0351925 -0.011632 -6.31379e-20)
(0.0599849 0.000902556 -4.16288e-20)
(0.0892571 0.0143931 2.16819e-19)
(0.123262 0.0286508 -2.20263e-19)
(0.162198 0.0434913 -1.25096e-19)
(0.206165 0.058705 5.62142e-20)
(0.25511 0.0740395 9.82975e-20)
(0.308794 0.0891522 -8.59331e-20)
(0.367143 0.10322 1.30437e-19)
(0.425732 0.117347 1.78476e-19)
(0.499326 0.114229 -1.67131e-19)
(0.0233791 -0.0100846 2.45111e-19)
(0.045117 0.00276891 -1.90405e-19)
(0.0709906 0.016604 2.19524e-19)
(0.101262 0.0312515 -2.77621e-20)
(0.136152 0.0465459 9.01617e-20)
(0.175802 0.0622921 -5.45063e-20)
(0.220229 0.0782405 -4.97106e-20)
(0.269306 0.0940155 3.108e-20)
(0.32302 0.10879 -3.23065e-19)
(0.377418 0.122956 3.1295e-20)
(0.446306 0.120958 1.40633e-19)
(0.0122751 -0.00786392 -3.93095e-19)
(0.0310913 0.0052999 4.77228e-20)
(0.053713 0.0194589 -9.21697e-20)
(0.0804077 0.0344614 -9.71448e-20)
(0.11141 0.0501572 -3.75808e-20)
(0.146893 0.0663601 2.73417e-19)
(0.186926 0.0828136 -5.39868e-20)
(0.231476 0.0990963 -5.84043e-20)
(0.280547 0.114349 1.82877e-19)
(0.3307 0.128334 -7.50673e-20)
(0.394513 0.127089 -2.68902e-20)
(-0.0109557 -0.0172723 6.91309e-20)
(0.00185054 -0.00497529 -3.80274e-20)
(0.0178752 0.00848932 9.09131e-20)
(0.0373907 0.0229511 5.5777e-21)
(0.0606655 0.0382739 3.01904e-19)
(0.0879441 0.054319 2.25302e-19)
(0.119421 0.0709017 3.33358e-20)
(0.155204 0.0877494 3.3151e-20)
(0.195337 0.104383 3.36213e-20)
(0.239811 0.119887 6.48592e-20)
(0.285694 0.133508 7.42127e-20)
(0.344234 0.132723 9.98734e-20)
(-0.018355 -0.0140454 2.16091e-20)
(-0.00791444 -0.00143445 2.68918e-19)
(0.00544865 0.0123187 2.49644e-19)
(0.0220033 0.0270596 -4.87217e-20)
(0.0420181 0.0426662 -3.85746e-19)
(0.0657418 0.0590063 -6.50833e-20)
(0.0933825 0.0758894 -1.57221e-19)
(0.12508 0.0930178 2.3171e-19)
(0.160929 0.109847 5.61541e-20)
(0.200902 0.125384 -2.76006e-19)
(0.242513 0.138508 -1.26741e-19)
(0.295705 0.137975 -4.80723e-19)
(-0.0252194 -0.0101856 -1.00483e-19)
(-0.0170313 0.00273268 9.45904e-20)
(-0.00619937 0.0167583 -8.01673e-20)
(0.00754211 0.0317517 -1.7345e-19)
(0.0244603 0.0476022 1.29122e-19)
(0.0448035 0.0641783 -3.56093e-20)
(0.0687893 0.0812794 -1.41932e-19)
(0.0965778 0.0985736 -1.8571e-19)
(0.128299 0.115447 9.18071e-20)
(0.163904 0.130826 5.82585e-20)
(0.201266 0.143375 -8.30693e-20)
(0.249124 0.142972 2.35277e-19)
(-0.0354697 -0.0176754 2.39582e-20)
(-0.0315564 -0.0057217 1.61299e-19)
(-0.0255061 0.00749234 -3.72085e-19)
(-0.0170726 0.0217694 -1.48722e-19)
(-0.00599332 0.0369845 5.60437e-20)
(0.00799459 0.0530346 1.98805e-20)
(0.0251378 0.0697845 -6.81335e-20)
(0.0456591 0.087018 1.85506e-19)
(0.0697279 0.104363 -1.40286e-20)
(0.0974948 0.121142 1.11945e-19)
(0.128896 0.136202 5.20963e-20)
(0.16205 0.148161 2.26889e-19)
(0.204652 0.147855 9.63787e-20)
(-0.0395053 -0.0129915 -7.19174e-20)
(-0.0373707 -0.00068862 4.14239e-20)
(-0.0333411 0.0128043 1.26986e-19)
(-0.0271706 0.0273072 -1.2492e-19)
(-0.0186 0.0427082 -1.36942e-19)
(-0.00737184 0.0589086 1.97449e-21)
(0.00675782 0.0757676 3.18758e-20)
(0.0240103 0.0930469 1.69117e-20)
(0.0445585 0.110334 -1.32184e-19)
(0.0685587 0.126896 -1.28339e-19)
(0.0959462 0.141521 -3.52538e-20)
(0.124937 0.152902 -2.34111e-19)
(0.162449 0.152789 -7.59817e-20)
(-0.0431234 -0.00776499 4.51086e-20)
(-0.0426657 0.00487362 2.81962e-20)
(-0.040537 0.0186237 6.96868e-22)
(-0.0364915 0.0333223 2.87967e-19)
(-0.0302735 0.0488691 3.54928e-19)
(-0.0216313 0.0651677 5.52085e-20)
(-0.0103262 0.0820683 -1.22562e-19)
(0.00385796 0.0993085 4.78619e-20)
(0.0210913 0.116439 2.51754e-19)
(0.041526 0.13269 -2.33194e-19)
(0.0651014 0.146836 -3.37431e-20)
(0.0899627 0.157565 9.58265e-20)
(0.122734 0.158038 -1.45103e-19)
(-0.0439724 -0.0136988 9.34865e-20)
(-0.0463301 -0.00203474 5.82054e-20)
(-0.0474448 0.0109217 -8.50555e-20)
(-0.0470949 0.0249029 -1.65178e-19)
(-0.0450342 0.039763 -8.82537e-20)
(-0.0410109 0.0554123 -3.79111e-19)
(-0.0347795 0.071755 -1.69331e-19)
(-0.0261086 0.0886302 1.74474e-20)
(-0.0147907 0.105752 6.35074e-21)
(-0.000662385 0.122641 -3.18592e-20)
(0.0164196 0.138504 2.47598e-19)
(0.0363116 0.152166 1.33402e-19)
(0.0572828 0.162243 -5.8267e-20)
(0.0857744 0.163861 1.96359e-19)
(-0.0455052 -0.00791666 1.92284e-19)
(-0.0491325 0.00415788 -1.52406e-19)
(-0.0517126 0.0174097 7.34945e-20)
(-0.0530175 0.0315924 1.6145e-19)
(-0.0528003 0.0465771 3.88058e-20)
(-0.0508131 0.0622839 1.53221e-19)
(-0.0468176 0.0786165 3.15262e-19)
(-0.0405918 0.0954031 -2.4605e-20)
(-0.0319403 0.112338 -2.4763e-19)
(-0.0207121 0.128917 1.07856e-19)
(-0.00679158 0.144349 -1.3912e-19)
(0.00958469 0.157525 -1.80224e-19)
(0.0271371 0.16711 -1.17663e-19)
(0.0513854 0.169892 -8.80621e-20)
(-0.046735 -0.00169828 -2.1983e-19)
(-0.0515391 0.0107689 2.49861e-19)
(-0.0554759 0.0242906 -1.90825e-19)
(-0.0583104 0.0386426 -1.54219e-19)
(-0.0597951 0.0537135 4.19416e-20)
(-0.0596864 0.0694326 2.50837e-20)
(-0.0577538 0.0857035 -8.90815e-20)
(-0.0537872 0.102345 1.51797e-19)
(-0.0476068 0.119035 2.07274e-19)
(-0.0390799 0.135259 -8.02095e-20)
(-0.0281275 0.150246 7.60517e-20)
(-0.0150468 0.162987 9.96861e-20)
(-0.000690615 0.172277 8.41305e-20)
(0.0191781 0.175841 -7.98877e-21)
(-0.0476743 0.00491403 3.27565e-20)
(-0.0535607 0.017753 -1.48743e-20)
(-0.0587439 0.0315171 2.33149e-20)
(-0.0629825 0.0460049 1.8654e-19)
(-0.0660284 0.0611233 4.14855e-21)
(-0.0676424 0.0768113 3.10014e-20)
(-0.0676035 0.0929732 -1.82661e-19)
(-0.0657152 0.109421 5.5877e-20)
(-0.061817 0.125825 1.53235e-20)
(-0.0557999 0.141671 -9.87018e-20)
(-0.0476264 0.15623 -2.91709e-19)
(-0.0376377 0.168606 3.171e-20)
(-0.0263978 0.177771 3.34786e-20)
(-0.0107886 0.182058 -5.95439e-20)
(-0.0411396 -0.000164433 2.92915e-19)
(-0.0483372 0.0118764 1.29613e-19)
(-0.0552096 0.0250645 -1.27396e-19)
(-0.0615286 0.0390419 4.34035e-20)
(-0.0670463 0.0536322 -1.1811e-19)
(-0.0715142 0.0687607 -5.39264e-20)
(-0.0746986 0.0843773 3.11812e-20)
(-0.0763885 0.100389 1.25078e-19)
(-0.0764036 0.116606 -1.50912e-19)
(-0.0746057 0.132698 3.66125e-20)
(-0.0709137 0.148167 1.68838e-19)
(-0.0653345 0.162337 6.31732e-20)
(-0.0582421 0.174443 1.90415e-20)
(-0.050019 0.183657 -2.95044e-19)
(-0.0384014 0.188796 1.9135e-19)
(-0.0408024 0.00660763 -2.17828e-19)
(-0.0487395 0.0191436 -3.70381e-20)
(-0.0565008 0.032657 -8.79223e-20)
(-0.0638448 0.0468191 -6.62336e-20)
(-0.0705176 0.0614794 1.85778e-19)
(-0.0762711 0.0765832 9.85333e-20)
(-0.0808772 0.0920925 -1.81915e-19)
(-0.0841366 0.10792 9.232e-21)