/*--------------------------------*- C++ -*----------------------------------*\
  =========                 |
  \\      /  F ield         | OpenFOAM: The Open Source CFD Toolbox
   \\    /   O peration     | Website:  https://openfoam.org
    \\  /    A nd           | Version:  7
     \\/     M anipulation  |
\*---------------------------------------------------------------------------*/
FoamFile
{
    version     2.0;
    format      ascii;
    class       volScalarField;
    location    "300";
    object      p;
}
// * * * * * * * * * * * * * * * * * * * * * * * * * * * * * * * * * * * * * //

dimensions      [0 2 -2 0 0 0 0];

internalField   nonuniform List<scalar> 
57250
(
-0.401355
-0.402485
-0.403158
-0.403707
-0.404179
-0.40461
-0.405055
-0.40556
-0.40616
-0.406882
-0.407743
-0.408755
-0.409924
-0.411252
-0.412743
-0.414398
-0.416219
-0.418208
-0.420367
-0.422699
-0.425202
-0.427879
-0.430734
-0.433688
-0.436743
-0.397755
-0.398973
-0.399689
-0.400264
-0.400746
-0.401171
-0.401593
-0.402056
-0.402596
-0.403237
-0.403996
-0.404883
-0.405903
-0.407057
-0.408347
-0.409772
-0.411333
-0.41303
-0.414862
-0.416829
-0.418928
-0.421159
-0.423526
-0.42594
-0.428406
-0.394182
-0.395481
-0.396236
-0.396834
-0.397325
-0.397743
-0.39814
-0.398562
-0.39904
-0.3996
-0.400256
-0.401016
-0.401885
-0.402864
-0.403951
-0.405145
-0.406443
-0.407844
-0.409345
-0.410944
-0.412635
-0.414416
-0.416289
-0.418156
-0.420023
-0.390642
-0.392017
-0.392807
-0.393427
-0.393925
-0.394334
-0.394706
-0.395085
-0.395501
-0.395979
-0.396531
-0.397165
-0.397884
-0.398686
-0.399569
-0.40053
-0.401565
-0.402669
-0.403838
-0.405066
-0.406347
-0.407675
-0.409053
-0.41037
-0.411633
-0.387143
-0.388588
-0.389411
-0.390049
-0.390552
-0.390951
-0.391298
-0.391633
-0.391988
-0.392383
-0.392832
-0.39334
-0.393908
-0.394534
-0.395214
-0.395943
-0.396714
-0.397521
-0.398357
-0.399216
-0.400086
-0.400962
-0.401847
-0.402616
-0.403273
-0.383691
-0.385201
-0.386053
-0.386707
-0.387214
-0.387603
-0.387923
-0.388215
-0.388509
-0.388823
-0.389169
-0.389551
-0.38997
-0.390421
-0.390899
-0.391396
-0.391905
-0.392416
-0.392922
-0.393413
-0.393876
-0.394303
-0.394699
-0.394924
-0.394979
-0.380294
-0.381862
-0.38274
-0.383409
-0.383919
-0.384296
-0.38459
-0.384839
-0.385072
-0.385305
-0.38555
-0.385808
-0.386079
-0.386357
-0.386634
-0.386902
-0.387151
-0.38737
-0.387549
-0.387675
-0.387736
-0.38772
-0.387634
-0.387325
-0.386784
-0.376957
-0.378578
-0.379479
-0.380161
-0.380672
-0.381037
-0.381305
-0.381512
-0.381684
-0.381839
-0.381983
-0.38212
-0.382245
-0.382351
-0.382431
-0.382473
-0.382466
-0.382396
-0.382253
-0.382021
-0.381685
-0.381235
-0.380678
-0.379845
-0.37872
-0.373687
-0.375354
-0.376277
-0.376969
-0.377481
-0.377833
-0.378075
-0.37824
-0.378354
-0.37843
-0.378477
-0.378494
-0.378476
-0.378415
-0.3783
-0.37812
-0.377861
-0.377508
-0.377048
-0.376465
-0.375742
-0.374867
-0.373851
-0.372509
-0.370815
-0.370488
-0.372198
-0.373138
-0.37384
-0.374351
-0.37469
-0.374906
-0.375031
-0.375087
-0.375088
-0.375039
-0.374938
-0.37478
-0.374555
-0.37425
-0.373852
-0.373347
-0.372717
-0.371948
-0.371022
-0.369921
-0.368634
-0.367173
-0.36534
-0.363094
-0.367365
-0.369112
-0.370069
-0.370778
-0.371287
-0.371615
-0.371805
-0.37189
-0.37189
-0.371817
-0.371675
-0.37146
-0.371165
-0.370779
-0.370289
-0.369679
-0.368933
-0.368033
-0.366963
-0.365704
-0.364237
-0.362551
-0.360662
-0.358357
-0.355579
-0.364323
-0.366104
-0.367074
-0.367789
-0.368296
-0.368611
-0.368776
-0.368823
-0.368769
-0.368624
-0.368391
-0.368065
-0.367638
-0.367096
-0.366425
-0.365608
-0.364628
-0.363466
-0.362103
-0.360522
-0.358702
-0.356631
-0.354331
-0.351576
-0.34829
-0.361365
-0.363176
-0.364159
-0.364878
-0.365382
-0.365684
-0.365826
-0.365835
-0.365729
-0.365515
-0.365194
-0.36476
-0.364204
-0.36351
-0.362664
-0.361647
-0.360439
-0.359023
-0.357378
-0.355485
-0.353324
-0.350885
-0.348193
-0.345012
-0.341242
-0.358497
-0.360334
-0.361327
-0.362049
-0.362549
-0.36284
-0.362959
-0.362931
-0.362774
-0.362493
-0.362087
-0.36155
-0.360868
-0.360028
-0.359012
-0.3578
-0.356373
-0.354711
-0.352793
-0.350601
-0.348114
-0.345322
-0.342258
-0.338674
-0.334447
-0.355722
-0.357581
-0.358583
-0.359308
-0.359804
-0.360082
-0.360178
-0.360116
-0.35991
-0.359565
-0.359077
-0.358438
-0.357636
-0.356654
-0.355473
-0.354074
-0.352435
-0.350535
-0.348355
-0.345875
-0.343076
-0.339948
-0.336532
-0.332572
-0.327916
-0.353043
-0.354922
-0.355931
-0.356658
-0.35715
-0.357416
-0.35749
-0.357394
-0.357141
-0.356733
-0.356166
-0.35543
-0.354511
-0.353392
-0.352053
-0.350472
-0.348629
-0.346501
-0.344069
-0.341313
-0.338216
-0.33477
-0.331022
-0.32671
-0.321654
-0.350463
-0.35236
-0.353375
-0.354103
-0.35459
-0.354845
-0.354897
-0.354768
-0.354469
-0.354001
-0.353358
-0.352529
-0.351498
-0.350246
-0.348754
-0.346998
-0.344958
-0.342611
-0.339937
-0.336918
-0.333538
-0.32979
-0.32573
-0.321093
-0.315665
-0.347986
-0.349898
-0.350917
-0.351646
-0.352129
-0.352371
-0.352402
-0.352242
-0.3519
-0.351374
-0.350657
-0.349737
-0.348598
-0.347219
-0.345579
-0.343656
-0.341427
-0.338869
-0.335964
-0.332693
-0.329043
-0.325011
-0.320658
-0.315721
-0.30995
-0.345614
-0.347539
-0.348562
-0.349291
-0.349768
-0.349998
-0.35001
-0.349819
-0.349434
-0.348852
-0.348065
-0.347059
-0.345815
-0.344314
-0.342532
-0.340447
-0.338036
-0.335277
-0.33215
-0.328639
-0.324733
-0.320432
-0.315807
-0.310594
-0.304509
-0.343349
-0.345286
-0.346313
-0.347041
-0.347512
-0.34773
-0.347722
-0.347502
-0.347076
-0.346441
-0.345586
-0.344495
-0.343151
-0.341532
-0.339615
-0.337375
-0.334789
-0.331837
-0.328497
-0.324758
-0.320609
-0.316054
-0.311174
-0.30571
-0.299338
-0.341195
-0.343142
-0.344171
-0.344898
-0.345363
-0.345569
-0.345542
-0.345293
-0.344828
-0.344141
-0.34322
-0.34205
-0.340609
-0.338877
-0.336828
-0.33444
-0.331687
-0.328549
-0.325007
-0.32105
-0.316669
-0.311875
-0.306757
-0.301065
-0.294431
-0.339154
-0.34111
-0.342141
-0.342865
-0.343324
-0.343518
-0.343472
-0.343196
-0.342692
-0.341955
-0.340971
-0.339723
-0.338191
-0.33635
-0.334176
-0.331645
-0.328732
-0.325416
-0.321681
-0.317515
-0.312915
-0.307895
-0.302554
-0.296655
-0.289783
-0.337228
-0.339193
-0.340224
-0.340946
-0.341398
-0.341579
-0.341514
-0.341211
-0.34067
-0.339885
-0.338841
-0.337519
-0.335897
-0.333952
-0.331659
-0.328991
-0.325925
-0.32244
-0.318519
-0.314154
-0.309345
-0.30411
-0.29856
-0.292477
-0.285384
-0.335421
-0.337392
-0.338423
-0.339141
-0.339586
-0.339755
-0.339671
-0.339342
-0.338765
-0.337933
-0.33683
-0.335437
-0.333731
-0.331687
-0.329279
-0.326481
-0.323268
-0.319621
-0.315522
-0.310967
-0.305958
-0.300519
-0.294774
-0.288526
-0.281224
-0.333734
-0.33571
-0.33674
-0.337454
-0.337892
-0.338048
-0.337945
-0.33759
-0.336978
-0.336101
-0.334942
-0.333481
-0.331694
-0.329555
-0.327038
-0.324115
-0.320764
-0.316961
-0.312693
-0.307956
-0.302756
-0.297121
-0.291189
-0.284795
-0.277286
-0.33217
-0.33415
-0.335177
-0.335886
-0.336315
-0.336459
-0.336337
-0.335956
-0.335311
-0.334391
-0.333178
-0.331652
-0.329788
-0.327559
-0.324938
-0.321898
-0.318413
-0.314464
-0.310034
-0.305122
-0.299738
-0.293915
-0.287803
-0.281275
-0.273522
-0.330731
-0.332712
-0.333737
-0.33444
-0.334859
-0.33499
-0.334849
-0.334443
-0.333765
-0.332803
-0.33154
-0.329952
-0.328014
-0.3257
-0.322981
-0.319829
-0.31622
-0.31213
-0.307547
-0.302468
-0.296907
-0.2909
-0.284614
-0.277958
-0.269891
-0.32942
-0.331401
-0.33242
-0.333116
-0.333525
-0.333642
-0.333482
-0.333051
-0.332341
-0.33134
-0.330028
-0.328381
-0.326375
-0.323981
-0.321169
-0.317913
-0.314186
-0.309964
-0.305235
-0.299997
-0.294265
-0.288081
-0.281626
-0.274878
-0.266452
-0.328239
-0.330216
-0.331229
-0.331916
-0.332314
-0.332416
-0.332238
-0.331782
-0.331042
-0.330002
-0.328644
-0.326942
-0.324872
-0.322402
-0.319505
-0.316151
-0.312314
-0.307969
-0.303101
-0.297711
-0.291815
-0.285458
-0.278846
-0.272093
-0.263292
-0.327189
-0.329159
-0.330164
-0.330841
-0.331227
-0.331314
-0.331116
-0.330636
-0.329866
-0.328791
-0.327389
-0.325636
-0.323505
-0.320966
-0.31799
-0.314546
-0.310606
-0.306147
-0.30115
-0.295615
-0.28956
-0.283033
-0.276241
-0.269192
-0.260595
-0.326273
-0.328233
-0.329227
-0.329892
-0.330265
-0.330335
-0.330119
-0.329615
-0.328817
-0.327706
-0.326264
-0.324463
-0.322277
-0.319675
-0.316626
-0.3131
-0.309067
-0.304501
-0.299385
-0.293714
-0.287506
-0.28081
-0.273843
-0.266574
-0.25797
-0.325492
-0.327437
-0.328419
-0.32907
-0.329427
-0.329481
-0.329245
-0.328718
-0.327892
-0.326749
-0.325269
-0.323424
-0.321187
-0.318528
-0.315413
-0.311813
-0.307696
-0.303034
-0.297808
-0.292011
-0.285656
-0.278795
-0.271654
-0.264198
-0.255451
-0.324847
-0.326772
-0.327739
-0.328374
-0.328715
-0.328751
-0.328494
-0.327945
-0.327092
-0.325919
-0.324404
-0.322519
-0.320237
-0.317525
-0.314353
-0.310687
-0.306495
-0.301748
-0.296423
-0.290509
-0.284017
-0.276993
-0.269675
-0.262033
-0.253062
-0.32434
-0.32624
-0.327188
-0.327805
-0.328127
-0.328144
-0.327867
-0.327295
-0.326417
-0.325216
-0.323668
-0.321747
-0.319424
-0.316668
-0.313445
-0.309721
-0.305465
-0.300643
-0.29523
-0.289211
-0.28259
-0.275408
-0.267909
-0.260076
-0.2508
-0.32397
-0.325839
-0.326766
-0.327362
-0.327664
-0.32766
-0.327362
-0.326768
-0.325865
-0.324637
-0.32306
-0.321108
-0.318749
-0.315953
-0.312687
-0.308915
-0.304603
-0.299718
-0.294228
-0.288116
-0.281378
-0.274044
-0.266359
-0.258329
-0.248665
-0.323737
-0.32557
-0.326471
-0.327044
-0.327323
-0.327298
-0.326978
-0.326361
-0.325435
-0.324182
-0.322579
-0.320598
-0.318209
-0.31538
-0.312077
-0.308265
-0.303907
-0.298969
-0.293416
-0.287222
-0.280378
-0.272899
-0.265029
-0.256794
-0.246655
-0.323643
-0.325432
-0.326304
-0.32685
-0.327104
-0.327055
-0.326713
-0.326074
-0.325125
-0.323849
-0.322221
-0.320215
-0.3178
-0.314943
-0.31161
-0.307766
-0.303373
-0.298392
-0.292786
-0.286524
-0.279586
-0.271972
-0.263916
-0.255476
-0.244772
-0.323685
-0.325423
-0.326262
-0.326778
-0.327005
-0.32693
-0.326564
-0.325902
-0.324931
-0.323633
-0.321984
-0.319956
-0.317519
-0.314639
-0.311283
-0.307414
-0.302993
-0.29798
-0.292333
-0.286014
-0.278995
-0.271257
-0.263017
-0.254375
-0.243016
-0.323862
-0.325542
-0.326343
-0.326826
-0.327022
-0.326921
-0.326529
-0.325844
-0.324851
-0.323532
-0.321863
-0.319816
-0.31736
-0.314462
-0.311089
-0.307201
-0.30276
-0.297723
-0.292045
-0.285682
-0.278594
-0.270744
-0.262325
-0.25349
-0.241391
-0.324172
-0.325786
-0.326546
-0.326992
-0.327155
-0.327023
-0.326605
-0.325895
-0.32488
-0.323541
-0.321853
-0.319789
-0.317317
-0.314406
-0.311019
-0.307119
-0.302664
-0.297611
-0.291911
-0.285513
-0.278369
-0.270421
-0.261828
-0.252815
-0.239898
-0.324613
-0.326154
-0.326868
-0.327273
-0.327399
-0.327234
-0.326787
-0.326052
-0.325014
-0.323655
-0.321949
-0.319869
-0.317385
-0.314462
-0.311065
-0.307157
-0.302694
-0.297631
-0.291916
-0.285493
-0.278305
-0.27027
-0.261512
-0.252341
-0.238539
-0.325183
-0.326643
-0.327305
-0.327665
-0.327751
-0.327551
-0.327073
-0.32631
-0.325248
-0.323868
-0.322145
-0.32005
-0.317554
-0.314622
-0.311219
-0.307305
-0.302838
-0.297771
-0.292048
-0.285607
-0.278384
-0.270276
-0.261362
-0.252051
-0.237314
-0.325877
-0.327248
-0.327855
-0.328166
-0.328207
-0.327969
-0.327457
-0.326664
-0.325577
-0.324176
-0.322434
-0.320325
-0.317818
-0.314878
-0.311469
-0.307553
-0.303085
-0.298016
-0.29229
-0.285839
-0.27859
-0.270422
-0.261363
-0.25193
-0.236225
-0.326693
-0.327968
-0.328515
-0.328772
-0.328765
-0.328484
-0.327935
-0.32711
-0.325996
-0.324571
-0.32281
-0.320686
-0.318167
-0.31522
-0.311807
-0.307888
-0.303421
-0.298354
-0.292629
-0.286175
-0.278911
-0.270696
-0.261507
-0.251958
-0.235283
-0.327626
-0.328798
-0.32928
-0.329478
-0.329419
-0.329092
-0.328502
-0.327642
-0.326497
-0.325047
-0.323266
-0.321125
-0.318594
-0.315638
-0.31222
-0.308301
-0.303835
-0.298773
-0.293054
-0.286604
-0.279336
-0.27109
-0.261798
-0.252133
-0.234525
-0.328672
-0.329735
-0.330147
-0.330283
-0.330166
-0.329789
-0.329155
-0.328256
-0.327077
-0.325598
-0.323794
-0.321634
-0.319089
-0.316124
-0.312701
-0.30878
-0.304317
-0.299262
-0.293553
-0.287116
-0.279861
-0.271605
-0.262251
-0.252469
-0.234044
-0.329827
-0.330775
-0.331112
-0.33118
-0.331002
-0.33057
-0.329887
-0.328945
-0.327729
-0.326218
-0.324387
-0.322207
-0.319645
-0.316668
-0.313238
-0.309316
-0.304856
-0.29981
-0.294118
-0.287707
-0.280485
-0.272249
-0.262895
-0.252948
-0.233836
-0.331087
-0.331913
-0.332171
-0.332168
-0.331923
-0.331431
-0.330694
-0.329705
-0.328447
-0.326901
-0.32504
-0.322836
-0.320255
-0.317264
-0.313825
-0.309899
-0.305443
-0.300409
-0.294742
-0.288374
-0.281218
-0.273053
-0.263805
-0.25348
-0.233484
-0.332447
-0.333148
-0.333322
-0.333242
-0.332926
-0.332369
-0.331573
-0.330531
-0.329228
-0.327641
-0.325747
-0.323514
-0.320911
-0.317903
-0.314453
-0.310522
-0.30607
-0.301052
-0.295419
-0.289114
-0.282069
-0.274081
-0.265176
-0.254276
-0.233144
-0.333904
-0.334474
-0.334561
-0.334399
-0.334006
-0.333379
-0.33252
-0.33142
-0.330066
-0.328434
-0.326501
-0.324236
-0.321607
-0.318579
-0.315115
-0.311178
-0.30673
-0.30173
-0.296139
-0.289919
-0.283038
-0.275364
-0.267194
-0.256566
-0.238754
-0.335454
-0.335889
-0.335885
-0.335637
-0.335162
-0.33446
-0.333531
-0.332368
-0.330957
-0.329276
-0.3273
-0.324998
-0.322339
-0.319287
-0.315806
-0.311861
-0.307416
-0.302436
-0.296894
-0.290773
-0.28409
-0.276808
-0.269564
-0.260979
-0.262147
-0.337093
-0.33739
-0.337291
-0.336952
-0.33639
-0.335607
-0.334603
-0.333372
-0.331899
-0.330163
-0.328138
-0.325795
-0.323102
-0.320022
-0.316522
-0.312566
-0.308122
-0.303162
-0.297671
-0.291653
-0.28517
-0.278267
-0.271851
-0.264437
-0.269721
-0.338819
-0.338975
-0.338777
-0.338343
-0.337689
-0.336819
-0.335735
-0.33443
-0.332889
-0.331092
-0.329015
-0.326626
-0.323893
-0.320783
-0.317259
-0.313289
-0.308844
-0.303901
-0.298457
-0.292535
-0.286233
-0.279637
-0.273777
-0.266852
-0.27243
-0.340628
-0.340642
-0.340341
-0.339808
-0.339057
-0.338096
-0.336925
-0.335539
-0.333926
-0.332063
-0.329927
-0.327488
-0.324712
-0.321566
-0.318015
-0.314027
-0.309576
-0.304646
-0.299241
-0.2934
-0.287243
-0.280872
-0.275331
-0.268617
-0.273636
-0.342521
-0.342389
-0.341983
-0.341345
-0.340493
-0.339434
-0.338172
-0.336701
-0.335008
-0.333075
-0.330876
-0.32838
-0.325557
-0.322371
-0.318788
-0.314777
-0.310315
-0.305389
-0.300012
-0.294231
-0.288176
-0.281948
-0.276541
-0.269853
-0.273795
-0.344495
-0.344216
-0.343701
-0.342956
-0.341997
-0.340836
-0.339476
-0.337914
-0.336138
-0.334128
-0.33186
-0.329305
-0.326429
-0.323198
-0.319578
-0.315538
-0.311057
-0.306126
-0.300761
-0.295013
-0.289016
-0.282853
-0.277436
-0.270646
-0.273254
-0.34655
-0.346122
-0.345496
-0.344639
-0.343569
-0.3423
-0.340838
-0.33918
-0.337315
-0.335224
-0.332883
-0.330263
-0.327329
-0.324048
-0.320385
-0.31631
-0.311801
-0.306852
-0.30148
-0.295739
-0.289753
-0.283588
-0.278052
-0.271087
-0.272302
-0.348686
-0.348108
-0.347368
-0.346395
-0.345209
-0.343829
-0.34226
-0.340501
-0.338541
-0.336365
-0.333946
-0.331256
-0.32826
-0.324923
-0.32121
-0.317091
-0.312543
-0.307562
-0.302164
-0.296399
-0.290383
-0.284158
-0.27843
-0.271253
-0.271119
-0.350904
-0.350175
-0.349317
-0.348225
-0.34692
-0.345423
-0.343743
-0.341878
-0.33982
-0.337553
-0.335052
-0.332287
-0.329223
-0.325824
-0.322054
-0.317881
-0.313283
-0.308252
-0.302807
-0.296989
-0.290903
-0.284573
-0.278604
-0.271203
-0.269817
-0.353206
-0.352323
-0.351346
-0.350132
-0.348703
-0.347086
-0.345289
-0.343315
-0.341155
-0.338793
-0.336205
-0.33336
-0.330223
-0.326754
-0.322918
-0.31868
-0.314017
-0.308921
-0.303405
-0.297507
-0.291317
-0.284844
-0.278606
-0.270982
-0.268464
-0.355593
-0.354554
-0.353455
-0.352116
-0.35056
-0.348819
-0.346903
-0.344815
-0.342549
-0.340088
-0.337409
-0.334479
-0.331261
-0.327716
-0.323803
-0.319489
-0.314746
-0.309564
-0.303955
-0.29795
-0.291626
-0.284984
-0.278463
-0.270625
-0.267098
-0.358068
-0.356872
-0.355648
-0.35418
-0.352495
-0.350626
-0.348587
-0.346382
-0.344006
-0.341443
-0.338667
-0.335647
-0.332342
-0.328711
-0.324711
-0.320306
-0.315466
-0.31018
-0.304455
-0.298318
-0.291836
-0.285004
-0.278195
-0.270155
-0.265742
-0.360634
-0.359277
-0.357926
-0.356327
-0.354509
-0.35251
-0.350345
-0.348021
-0.345531
-0.342861
-0.339985
-0.336868
-0.333468
-0.329741
-0.325642
-0.321131
-0.316177
-0.310766
-0.304903
-0.298611
-0.29195
-0.284913
-0.277821
-0.269591
-0.264407
-0.363293
-0.361773
-0.360293
-0.35856
-0.356606
-0.354475
-0.352182
-0.349734
-0.347128
-0.344348
-0.341365
-0.338145
-0.334641
-0.330808
-0.326596
-0.321963
-0.316877
-0.31132
-0.305297
-0.29883
-0.291972
-0.284721
-0.277353
-0.268947
-0.263096
-0.366049
-0.364362
-0.36275
-0.360881
-0.35879
-0.356524
-0.3541
-0.351527
-0.348802
-0.345906
-0.342813
-0.339481
-0.335864
-0.331912
-0.327572
-0.3228
-0.317561
-0.311839
-0.305637
-0.298976
-0.291907
-0.284435
-0.276802
-0.268231
-0.261808
-0.368906
-0.367048
-0.365301
-0.363294
-0.361063
-0.35866
-0.356104
-0.353403
-0.350555
-0.347541
-0.344329
-0.340879
-0.337138
-0.333053
-0.328569
-0.32364
-0.318229
-0.312321
-0.305919
-0.299048
-0.291758
-0.284062
-0.276176
-0.26745
-0.260537
-0.371865
-0.369833
-0.367949
-0.365802
-0.36343
-0.360888
-0.358197
-0.355367
-0.352393
-0.349254
-0.345919
-0.34234
-0.338463
-0.334231
-0.329586
-0.324479
-0.318876
-0.312762
-0.306143
-0.299048
-0.291528
-0.283607
-0.27548
-0.266608
-0.259277
-0.37493
-0.372719
-0.370696
-0.368407
-0.365891
-0.36321
-0.360383
-0.357421
-0.354317
-0.35105
-0.347582
-0.343864
-0.339839
-0.335443
-0.330618
-0.325315
-0.319499
-0.31316
-0.306308
-0.298976
-0.291221
-0.283075
-0.274719
-0.265709
-0.258021
-0.378104
-0.375709
-0.373544
-0.371111
-0.368451
-0.365629
-0.362665
-0.359568
-0.356331
-0.352928
-0.34932
-0.345452
-0.341263
-0.336687
-0.331663
-0.326143
-0.320095
-0.313512
-0.306412
-0.298832
-0.290837
-0.282468
-0.273896
-0.264753
-0.256761
-0.381388
-0.378804
-0.376495
-0.373917
-0.371112
-0.368148
-0.365045
-0.361811
-0.358436
-0.354891
-0.351133
-0.347102
-0.342734
-0.337958
-0.332716
-0.326958
-0.320658
-0.313814
-0.306452
-0.298617
-0.290379
-0.28179
-0.273011
-0.263742
-0.255488
-0.384785
-0.382007
-0.379552
-0.376827
-0.373876
-0.370769
-0.367525
-0.364151
-0.360632
-0.356939
-0.35302
-0.348812
-0.344247
-0.339254
-0.333771
-0.327755
-0.321184
-0.314064
-0.306428
-0.298331
-0.289849
-0.281043
-0.272067
-0.262676
-0.254195
-0.388296
-0.385318
-0.382714
-0.379842
-0.376744
-0.373493
-0.370106
-0.366588
-0.362921
-0.35907
-0.354978
-0.350578
-0.345798
-0.340566
-0.334823
-0.328528
-0.321668
-0.314257
-0.306338
-0.297973
-0.289246
-0.280227
-0.271064
-0.261554
-0.252876
-0.39192
-0.388737
-0.385983
-0.382962
-0.379716
-0.37632
-0.372789
-0.369123
-0.365302
-0.361282
-0.357004
-0.352396
-0.347382
-0.341891
-0.335865
-0.329272
-0.322106
-0.314391
-0.306179
-0.297543
-0.288573
-0.279344
-0.270001
-0.260376
-0.251524
-0.395657
-0.392265
-0.389359
-0.386188
-0.382793
-0.379252
-0.375574
-0.371755
-0.367771
-0.363572
-0.359094
-0.35426
-0.348991
-0.343219
-0.33689
-0.32998
-0.322491
-0.314461
-0.30595
-0.297041
-0.287828
-0.278394
-0.268878
-0.25914
-0.250132
-0.399507
-0.3959
-0.39284
-0.389519
-0.385975
-0.382286
-0.378458
-0.374482
-0.370327
-0.365937
-0.361242
-0.356162
-0.350619
-0.344543
-0.337891
-0.330645
-0.32282
-0.314463
-0.305648
-0.296465
-0.287012
-0.277377
-0.267693
-0.257846
-0.248696
-0.403467
-0.39964
-0.396425
-0.392953
-0.38926
-0.385422
-0.381441
-0.377301
-0.372964
-0.36837
-0.363442
-0.358096
-0.352256
-0.345856
-0.338859
-0.33126
-0.323085
-0.314395
-0.305272
-0.295814
-0.286124
-0.276293
-0.266447
-0.256491
-0.247211
-0.407535
-0.403484
-0.400113
-0.396489
-0.392646
-0.388657
-0.384518
-0.380207
-0.375679
-0.370865
-0.365685
-0.360053
-0.353893
-0.347147
-0.339786
-0.331818
-0.323283
-0.314253
-0.304819
-0.295087
-0.285163
-0.27514
-0.265137
-0.255073
-0.245672
-0.411705
-0.407427
-0.403899
-0.400124
-0.39613
-0.391988
-0.387686
-0.383196
-0.378464
-0.373414
-0.367963
-0.362023
-0.355521
-0.348407
-0.340664
-0.332313
-0.323408
-0.314031
-0.304287
-0.294283
-0.284129
-0.273917
-0.263761
-0.253592
-0.244075
-0.415974
-0.411465
-0.407781
-0.403854
-0.399708
-0.39541
-0.39094
-0.386261
-0.381311
-0.376009
-0.370266
-0.363995
-0.357128
-0.349626
-0.341484
-0.332737
-0.323453
-0.313728
-0.303672
-0.293399
-0.283019
-0.272623
-0.262318
-0.252045
-0.242417
-0.420336
-0.415593
-0.411752
-0.407674
-0.403375
-0.398917
-0.394274
-0.389396
-0.384213
-0.37864
-0.372583
-0.365958
-0.358705
-0.350794
-0.342237
-0.333083
-0.323415
-0.313339
-0.302973
-0.292434
-0.281832
-0.271256
-0.260806
-0.250429
-0.240694
-0.424783
-0.419806
-0.415808
-0.411579
-0.407125
-0.402505
-0.397679
-0.39259
-0.38716
-0.381295
-0.374902
-0.3679
-0.360238
-0.351901
-0.342914
-0.333344
-0.323286
-0.312859
-0.302186
-0.291385
-0.280566
-0.269814
-0.259222
-0.248743
-0.238904
-0.429309
-0.424095
-0.419941
-0.415561
-0.410952
-0.406164
-0.401148
-0.395836
-0.39014
-0.383963
-0.377211
-0.369809
-0.361718
-0.352936
-0.343507
-0.333512
-0.323063
-0.312286
-0.301308
-0.29025
-0.279218
-0.268295
-0.257564
-0.246985
-0.237043
-0.433903
-0.428453
-0.424144
-0.419614
-0.414847
-0.409887
-0.404672
-0.399122
-0.393142
-0.386631
-0.379496
-0.371672
-0.363131
-0.353888
-0.344006
-0.333582
-0.32274
-0.311614
-0.300336
-0.289026
-0.277786
-0.266696
-0.255829
-0.245151
-0.235109
-0.438556
-0.43287
-0.428408
-0.423728
-0.418802
-0.413664
-0.408238
-0.402435
-0.396152
-0.389284
-0.381744
-0.373475
-0.364465
-0.354748
-0.344403
-0.333546
-0.322311
-0.31084
-0.299267
-0.28771
-0.276268
-0.265014
-0.254015
-0.24324
-0.233098
-0.443258
-0.437337
-0.432724
-0.427894
-0.422806
-0.417483
-0.411836
-0.405764
-0.399157
-0.39191
-0.383941
-0.375205
-0.365708
-0.355504
-0.34469
-0.333397
-0.321772
-0.30996
-0.298097
-0.2863
-0.27466
-0.263247
-0.252119
-0.241248
-0.231009
-0.447995
-0.441841
-0.437079
-0.432101
-0.426848
-0.421333
-0.415452
-0.409093
-0.402141
-0.394491
-0.38607
-0.376848
-0.366848
-0.356146
-0.344858
-0.333129
-0.321116
-0.308969
-0.296823
-0.28479
-0.272958
-0.261391
-0.250137
-0.239173
-0.228837
-0.452755
-0.446372
-0.441464
-0.436336
-0.430915
-0.4252
-0.419072
-0.412408
-0.405089
-0.397013
-0.388118
-0.37839
-0.367873
-0.356664
-0.344898
-0.332735
-0.320338
-0.307862
-0.29544
-0.283179
-0.271161
-0.259443
-0.248067
-0.237012
-0.226582
-0.457524
-0.450916
-0.445864
-0.440589
-0.434996
-0.429071
-0.422681
-0.415693
-0.407985
-0.39946
-0.390068
-0.379816
-0.36877
-0.357047
-0.344803
-0.332208
-0.319434
-0.306636
-0.293944
-0.281462
-0.269263
-0.2574
-0.245905
-0.234762
-0.224239
-0.462286
-0.455459
-0.450267
-0.444843
-0.439074
-0.432931
-0.426263
-0.418931
-0.41081
-0.401813
-0.391905
-0.381113
-0.369527
-0.357287
-0.344564
-0.331543
-0.318398
-0.305285
-0.292332
-0.279635
-0.267262
-0.255258
-0.243648
-0.23242
-0.221806
-0.467027
-0.459986
-0.454656
-0.449085
-0.443135
-0.436762
-0.429801
-0.422104
-0.413549
-0.404057
-0.393613
-0.382267
-0.370133
-0.357373
-0.344174
-0.330731
-0.317224
-0.303805
-0.290599
-0.277694
-0.265153
-0.253013
-0.241294
-0.229983
-0.219282
-0.471729
-0.46448
-0.459017
-0.453298
-0.447162
-0.440547
-0.433276
-0.425194
-0.416181
-0.406174
-0.395176
-0.383264
-0.370576
-0.357295
-0.343625
-0.329768
-0.315907
-0.302192
-0.28874
-0.275636
-0.262933
-0.250663
-0.238838
-0.227449
-0.216662
-0.476373
-0.468924
-0.463333
-0.457465
-0.451136
-0.444269
-0.43667
-0.428181
-0.41869
-0.408147
-0.39658
-0.384091
-0.370845
-0.357045
-0.34291
-0.328647
-0.314441
-0.300439
-0.286752
-0.273456
-0.260598
-0.248203
-0.236277
-0.224813
-0.213944
-0.480942
-0.473301
-0.467585
-0.461569
-0.455041
-0.447908
-0.439963
-0.431047
-0.421055
-0.409958
-0.397807
-0.384734
-0.370929
-0.356614
-0.34202
-0.327362
-0.312822
-0.298544
-0.28463
-0.27115
-0.258144
-0.24563
-0.233608
-0.222074
-0.211127
-0.485416
-0.477592
-0.471755
-0.465589
-0.458856
-0.451444
-0.443136
-0.433771
-0.423259
-0.411589
-0.398844
-0.385181
-0.370817
-0.355992
-0.34095
-0.325907
-0.311044
-0.296499
-0.282369
-0.268714
-0.255567
-0.24294
-0.230828
-0.219227
-0.208206
-0.489774
-0.481778
-0.475823
-0.469507
-0.462561
-0.454856
-0.446166
-0.436333
-0.425281
-0.413025
-0.399675
-0.385419
-0.370498
-0.355172
-0.339691
-0.324275
-0.309102
-0.294302
-0.279965
-0.266143
-0.252862
-0.240129
-0.227933
-0.216271
-0.20518
-0.493995
-0.485837
-0.47977
-0.473302
-0.466135
-0.458124
-0.449034
-0.438713
-0.427103
-0.414247
-0.400285
-0.385436
-0.369964
-0.354145
-0.338237
-0.322461
-0.306989
-0.291947
-0.277413
-0.263434
-0.250027
-0.237194
-0.22492
-0.213202
-0.202046
-0.498059
-0.48975
-0.483575
-0.476953
-0.469557
-0.461225
-0.451718
-0.440891
-0.428707
-0.415239
-0.400661
-0.38522
-0.369204
-0.352903
-0.336581
-0.320459
-0.304702
-0.289429
-0.274709
-0.260581
-0.247057
-0.234131
-0.221785
-0.210017
-0.198801
-0.501943
-0.493495
-0.487216
-0.480439
-0.472805
-0.464139
-0.454196
-0.442845
-0.430073
-0.415985
-0.400788
-0.384759
-0.368209
-0.351439
-0.334718
-0.318263
-0.302235
-0.286743
-0.271848
-0.257581
-0.243948
-0.230937
-0.218527
-0.206714
-0.195443
-0.505624
-0.49705
-0.490672
-0.483737
-0.475857
-0.466842
-0.456447
-0.444557
-0.431185
-0.41647
-0.400654
-0.384044
-0.36697
-0.349745
-0.33264
-0.315868
-0.299583
-0.283884
-0.268826
-0.25443
-0.240696
-0.227608
-0.215141
-0.20329
-0.191971
-0.50908
-0.500392
-0.493919
-0.486824
-0.478689
-0.469312
-0.45845
-0.446005
-0.432023
-0.416677
-0.400246
-0.383063
-0.365478
-0.347814
-0.330341
-0.313268
-0.296741
-0.280849
-0.265639
-0.251124
-0.237299
-0.224142
-0.211625
-0.199742
-0.18838
-0.512289
-0.503501
-0.496937
-0.48968
-0.481281
-0.471528
-0.460183
-0.447172
-0.432571
-0.416594
-0.399551
-0.381807
-0.363727
-0.345639
-0.327816
-0.310459
-0.293704
-0.277633
-0.262282
-0.247659
-0.233752
-0.220534
-0.207976
-0.196068
-0.184671
-0.515227
-0.506352
-0.499701
-0.492279
-0.483607
-0.473466
-0.461626
-0.448036
-0.432812
-0.416204
-0.398559
-0.380267
-0.361707
-0.343215
-0.325059
-0.307434
-0.290467
-0.27423
-0.258752
-0.244032
-0.230052
-0.216783
-0.204191
-0.192265
-0.18084
-0.51787
-0.508922
-0.502189
-0.494599
-0.485647
-0.475105
-0.462757
-0.448581
-0.432731
-0.415496
-0.397259
-0.378433
-0.359412
-0.340534
-0.322065
-0.30419
-0.287027
-0.270638
-0.255044
-0.240238
-0.226196
-0.212884
-0.200268
-0.188332
-0.176886
-0.520196
-0.511189
-0.504378
-0.496618
-0.487376
-0.476423
-0.463557
-0.448789
-0.432311
-0.414456
-0.395639
-0.376297
-0.356834
-0.337592
-0.318828
-0.300721
-0.283378
-0.266852
-0.251155
-0.236275
-0.222181
-0.208836
-0.196204
-0.184266
-0.172806
-0.522182
-0.513131
-0.506245
-0.498312
-0.488774
-0.477399
-0.464007
-0.448642
-0.431539
-0.413073
-0.393692
-0.373852
-0.353968
-0.334381
-0.315343
-0.297023
-0.279517
-0.262868
-0.247082
-0.232139
-0.218004
-0.204636
-0.191998
-0.180065
-0.1686
-0.523805
-0.514725
-0.507768
-0.49966
-0.489818
-0.478013
-0.464087
-0.448123
-0.430402
-0.411336
-0.391407
-0.37109
-0.350808
-0.330899
-0.311607
-0.293092
-0.275439
-0.258684
-0.242821
-0.227827
-0.213663
-0.200282
-0.187647
-0.175728
-0.164266
-0.525043
-0.515949
-0.508925
-0.500639
-0.490487
-0.478244
-0.46378
-0.447219
-0.428885
-0.409234
-0.388776
-0.368005
-0.347347
-0.327138
-0.307615
-0.288924
-0.271142
-0.254294
-0.23837
-0.223337
-0.209154
-0.195771
-0.183149
-0.171252
-0.159803
-0.525876
-0.516782
-0.509695
-0.501228
-0.49076
-0.478074
-0.46307
-0.445914
-0.426978
-0.406759
-0.385793
-0.36459
-0.343581
-0.323097
-0.303362
-0.284515
-0.266622
-0.249697
-0.233725
-0.218666
-0.204477
-0.191101
-0.178503
-0.166638
-0.155209
-0.526281
-0.517201
-0.510055
-0.501407
-0.490618
-0.477485
-0.461939
-0.444195
-0.42467
-0.4039
-0.382449
-0.360841
-0.339506
-0.318769
-0.298846
-0.279863
-0.261876
-0.24489
-0.228883
-0.213813
-0.199628
-0.186272
-0.173708
-0.161883
-0.150484
-0.526238
-0.517188
-0.509986
-0.501155
-0.490042
-0.476458
-0.460373
-0.442048
-0.42195
-0.400651
-0.37874
-0.356752
-0.335117
-0.314152
-0.294063
-0.274964
-0.2569
-0.239871
-0.223844
-0.208774
-0.194606
-0.181281
-0.168761
-0.156986
-0.145627
-0.525729
-0.516723
-0.509469
-0.500453
-0.489013
-0.474979
-0.458359
-0.439464
-0.418809
-0.397004
-0.374659
-0.352318
-0.330411
-0.309243
-0.289011
-0.269816
-0.251694
-0.234636
-0.218605
-0.203549
-0.18941
-0.176127
-0.163662
-0.151947
-0.140637
-0.524734
-0.515786
-0.508484
-0.499284
-0.487516
-0.473031
-0.455882
-0.436432
-0.41524
-0.392953
-0.370203
-0.347538
-0.325384
-0.304039
-0.283686
-0.264416
-0.246255
-0.229185
-0.213164
-0.198135
-0.184038
-0.170809
-0.15841
-0.146764
-0.135513
-0.523236
-0.514359
-0.507014
-0.497629
-0.485532
-0.4706
-0.452932
-0.432941
-0.411235
-0.388493
-0.365366
-0.342406
-0.320034
-0.298538
-0.278087
-0.258763
-0.240581
-0.223516
-0.20752
-0.192532
-0.17849
-0.165326
-0.153004
-0.141439
-0.130257
-0.521218
-0.512427
-0.505041
-0.495473
-0.483049
-0.467675
-0.449498
-0.428985
-0.406788
-0.38362
-0.360146
-0.336921
-0.314359
-0.292737
-0.272213
-0.252855
-0.234671
-0.217627
-0.201672
-0.18674
-0.172765
-0.159678
-0.147443
-0.13597
-0.12487
-0.518664
-0.509974
-0.502552
-0.492801
-0.480053
-0.464243
-0.445571
-0.424555
-0.401895
-0.37833
-0.35454
-0.33108
-0.308358
-0.286637
-0.266062
-0.246692
-0.228523
-0.211519
-0.195619
-0.180757
-0.166863
-0.153864
-0.141725
-0.130353
-0.119346
-0.515562
-0.506984
-0.49953
-0.4896
-0.476531
-0.460295
-0.441142
-0.419647
-0.396551
-0.37262
-0.348546
-0.324884
-0.302029
-0.280235
-0.259634
-0.240272
-0.222139
-0.20519
-0.189362
-0.174584
-0.160783
-0.147885
-0.135851
-0.124588
-0.11366
-0.511897
-0.503445
-0.495963
-0.485856
-0.472472
-0.45582
-0.436206
-0.414256
-0.390752
-0.366488
-0.342164
-0.31833
-0.295373
-0.273532
-0.252927
-0.233595
-0.215517
-0.198641
-0.1829
-0.168221
-0.154528
-0.141742
-0.129832
-0.118698
-0.107778
-0.507657
-0.499344
-0.49184
-0.48156
-0.467867
-0.450813
-0.430756
-0.408377
-0.384498
-0.359934
-0.335393
-0.311419
-0.288388
-0.266527
-0.245944
-0.226663
-0.208658
-0.191873
-0.176235
-0.161669
-0.148096
-0.135436
-0.123674
-0.112723
-0.101752
-0.502834
-0.494672
-0.487149
-0.476701
-0.462709
-0.445266
-0.424788
-0.402009
-0.377787
-0.352958
-0.328233
-0.304151