/*--------------------------------*- C++ -*----------------------------------*\
  =========                 |
  \\      /  F ield         | OpenFOAM: The Open Source CFD Toolbox
   \\    /   O peration     | Website:  https://openfoam.org
    \\  /    A nd           | Version:  7
     \\/     M anipulation  |
\*---------------------------------------------------------------------------*/
FoamFile
{
    version     2.0;
    format      ascii;
    class       surfaceScalarField;
    location    "300";
    object      phi;
}
// * * * * * * * * * * * * * * * * * * * * * * * * * * * * * * * * * * * * * //

dimensions      [0 3 -1 0 0 0 0];

internalField   nonuniform List<scalar> 
72657
(
-7.45663e-07
-3.96162e-05
4.03618e-05
-2.96866e-06
-0.000114607
0.00011683
-6.73373e-06
-0.000187584
0.000191349
-1.20956e-05
-0.000257309
0.000262671
-1.90764e-05
-0.00032284
0.000329821
-2.76505e-05
-0.000383659
0.000392233
-3.77381e-05
-0.000439714
0.000449802
-4.92073e-05
-0.000491426
0.000502896
-6.18853e-05
-0.000539621
0.000552299
-7.55754e-05
-0.000585407
0.000599097
-9.00771e-05
-0.00063003
0.000644531
-0.000105206
-0.000674713
0.000689842
-0.000120811
-0.000720539
0.000736144
-0.00013678
-0.000768357
0.000784325
-0.000153039
-0.000818743
0.000835002
-0.000169546
-0.000871991
0.000888498
-0.000186269
-0.000928118
0.000944842
-0.000203174
-0.000986877
0.00100378
-0.000220201
-0.00104774
0.00106476
-0.00110982
0.0011269
-0.00023729
-9.45184e-07
-3.8671e-05
-3.68409e-06
-0.000111868
-8.22499e-06
-0.000183043
-1.45718e-05
-0.000250963
-2.27025e-05
-0.000314709
-3.25548e-05
-0.000373807
-4.40204e-05
-0.000428249
-5.69489e-05
-0.000478498
-7.11595e-05
-0.00052541
-8.64582e-05
-0.000570109
-0.000102658
-0.000613829
-0.0001196
-0.000657771
-0.000137166
-0.000702973
-0.000155286
-0.000750236
-0.000173942
-0.000800088
-0.000193148
-0.000852785
-0.000212938
-0.000908329
-0.000233337
-0.000966478
-0.00025434
-0.00102673
-0.00108823
-0.000275929
-1.14327e-06
-3.75277e-05
-4.39099e-06
-0.00010862
-9.69225e-06
-0.000177742
-1.69981e-05
-0.000243657
-2.62411e-05
-0.000305466
-3.73213e-05
-0.000362727
-5.0102e-05
-0.000415468
-6.44142e-05
-0.000464186
-8.00687e-05
-0.000509756
-9.68737e-05
-0.000553304
-0.000114655
-0.000596049
-0.000133273
-0.000639153
-0.000152641
-0.000683605
-0.00017273
-0.000730147
-0.000193568
-0.000779249
-0.000215227
-0.000831127
-0.000237799
-0.000885757
-0.000261372
-0.000942904
-0.000285995
-0.00100211
-0.00106253
-0.000311692
-1.33789e-06
-3.61898e-05
-5.08251e-06
-0.000104876
-1.1122e-05
-0.000171702
-1.93532e-05
-0.000235426
-2.96626e-05
-0.000295157
-4.19124e-05
-0.000350477
-5.59374e-05
-0.000401443
-7.15501e-05
-0.000448573
-8.85527e-05
-0.000492753
-0.000106754
-0.000535102
-0.00012599
-0.000576813
-0.000146139
-0.000619004
-0.000167141
-0.000662604
-0.000189
-0.000708287
-0.000211789
-0.000756461
-0.000235629
-0.000807287
-0.000260671
-0.000860715
-0.000287062
-0.000916513
-0.000314906
-0.000974267
-0.00103317
-0.000344269
-1.52703e-06
-3.46628e-05
-5.75189e-06
-0.000100651
-1.2501e-05
-0.000164953
-2.16166e-05
-0.00022631
-3.29387e-05
-0.000283835
-4.62921e-05
-0.000337123
-6.14834e-05
-0.000386252
-7.83067e-05
-0.00043175
-9.6555e-05
-0.000474505
-0.000116037
-0.00051562
-0.000136594
-0.000556256
-0.000158122
-0.000597477
-0.000180578
-0.000640147
-0.000203998
-0.000684867
-0.000228488
-0.000731971
-0.000254217
-0.000781558
-0.00028139
-0.000833542
-0.000310212
-0.00088769
-0.000340841
-0.000943638
-0.00100062
-0.000373386
-1.70868e-06
-3.29541e-05
-6.39246e-06
-9.59671e-05
-1.38162e-05
-0.000157529
-2.37682e-05
-0.000216358
-3.60422e-05
-0.000271561
-5.0426e-05
-0.00032274
-6.66989e-05
-0.000369979
-8.46366e-05
-0.000413812
-0.000104023
-0.000455119
-0.000124663
-0.000494979
-0.000146405
-0.000534514
-0.00016915
-0.000574731
-0.000192875
-0.000616422
-0.000217635
-0.000660108
-0.000243565
-0.00070604
-0.000270874
-0.000754249
-0.000299816
-0.0008046
-0.000330652
-0.000856853
-0.000363597
-0.000910694
-0.000965416
-0.000398802
-1.88088e-06
-3.10732e-05
-6.99782e-06
-9.08502e-05
-1.50556e-05
-0.000149472
-2.57891e-05
-0.000205625
-3.8947e-05
-0.000258403
-5.42815e-05
-0.000307405
-7.15449e-05
-0.000352716
-9.04953e-05
-0.000394862
-0.000110906
-0.000434708
-0.000132579
-0.000473306
-0.000155362
-0.000511731
-0.000179162
-0.000550931
-0.000203963
-0.000591621
-0.000229834
-0.000634237
-0.000256932
-0.000678942
-0.000285498
-0.000725684
-0.000315828
-0.000774269
-0.000348241
-0.000824441
-0.000383002
-0.000875932
-0.000928104
-0.000420315
-2.04183e-06
-2.90314e-05
-7.56192e-06
-8.53301e-05
-1.62071e-05
-0.000140827
-2.7661e-05
-0.000194171
-4.16285e-05
-0.000244435
-5.78273e-05
-0.000291206
-7.59846e-05
-0.000334558
-9.58408e-05
-0.000375005
-0.000117158
-0.00041339
-0.000139734
-0.000450731
-0.000163411
-0.000488054
-0.000188098
-0.000526244
-0.00021378
-0.00056594
-0.000240529
-0.000607488
-0.000268517
-0.000650955
-0.000298005
-0.000696196
-0.000329329
-0.000742945
-0.000362858
-0.000790913
-0.000398916
-0.000839873
-0.000889265
-0.000437754
-2.18978e-06
-2.68416e-05
-8.07906e-06
-7.94408e-05
-1.72597e-05
-0.000131646
-2.93665e-05
-0.000182064
-4.40629e-05
-0.000229739
-6.10341e-05
-0.000274235
-7.99832e-05
-0.000315609
-0.000100634
-0.000354355
-0.000122737
-0.000391287
-0.000146081
-0.000427387
-0.000170504
-0.000463631
-0.000195907
-0.00050084
-0.000222271
-0.000539577
-0.000249663
-0.000580095
-0.000278256
-0.000622361
-0.000308326
-0.000666126
-0.000340238
-0.000711032
-0.000374409
-0.000756742
-0.000411223
-0.000803059
-0.000849504
-0.000450985
-2.32307e-06
-2.45186e-05
-8.54358e-06
-7.32203e-05
-1.82024e-05
-0.000121987
-3.08889e-05
-0.000169377
-4.62277e-05
-0.0002144
-6.38739e-05
-0.000256589
-8.35079e-05
-0.000295975
-0.000104837
-0.000333026
-0.000127599
-0.000368525
-0.000151575
-0.000403412
-0.000176592
-0.000438614
-0.000202541
-0.000474891
-0.000229386
-0.000512731
-0.000257185
-0.000552296
-0.0002861
-0.000593447
-0.000316407
-0.000635819
-0.000348495
-0.000678945
-0.000382821
-0.000722416
-0.000419834
-0.000766046
-0.000809439
-0.000459899
-2.44004e-06
-2.20785e-05
-8.95021e-06
-6.67101e-05
-1.90251e-05
-0.000111912
-3.22127e-05
-0.00015619
-4.81022e-05
-0.000198511
-6.63208e-05
-0.00023837
-8.65279e-05
-0.000275768
-0.000108414
-0.00031114
-0.000131707
-0.000345232
-0.000156174
-0.000378945
-0.000181631
-0.000413157
-0.000207952
-0.00044857
-0.000235081
-0.000485602
-0.000263052
-0.000524326
-0.000292004
-0.000564495
-0.000322205
-0.000605618
-0.00035405
-0.000647099
-0.000388038
-0.000688428
-0.00042468
-0.000729404
-0.000769707
-0.000464412
-2.53913e-06
-1.95394e-05
-9.29398e-06
-5.99553e-05
-1.97185e-05
-0.000101488
-3.33236e-05
-0.000142585
-4.96671e-05
-0.000182167
-6.8351e-05
-0.000219686
-8.90147e-05
-0.000255104
-0.000111334
-0.00028882
-0.000135024
-0.000321542
-0.000159839
-0.00035413
-0.000185579
-0.000387416
-0.000212098
-0.000422051
-0.000239313
-0.000458388
-0.000267221
-0.000496417
-0.000295931
-0.000535785
-0.000325684
-0.000575865
-0.000356871
-0.000615912
-0.000390021
-0.000655278
-0.000425712
-0.000693713
-0.000730957
-0.000464462
-2.61897e-06
-1.69204e-05
-9.57049e-06
-5.30037e-05
-2.02742e-05
-9.0784e-05
-3.42092e-05
-0.00012865
-5.09054e-05
-0.000165471
-6.99425e-05
-0.000200649
-9.09417e-05
-0.000234105
-0.000113565
-0.000266197
-0.000137513
-0.000297594
-0.000162529
-0.000329114
-0.000188394
-0.000361551
-0.000214936
-0.000395509
-0.000242037
-0.000431286
-0.000269654
-0.0004688
-0.000297847
-0.000507592
-0.000326816
-0.000546896
-0.000356932
-0.000585796
-0.000388743
-0.000623467
-0.000422894
-0.000659562
-0.000693852
-0.000459999
-2.6784e-06
-1.4242e-05
-9.77601e-06
-4.59061e-05
-2.06851e-05
-7.98749e-05
-3.48582e-05
-0.000114476
-5.18022e-05
-0.000148527
-7.10761e-05
-0.000181375
-9.22851e-05
-0.000212896
-0.000115077
-0.000243405
-0.000139142
-0.000273529
-0.000164206
-0.00030405
-0.000190032
-0.000335724
-0.00021642
-0.000369122
-0.000243211
-0.000404495
-0.00027031
-0.000441701
-0.000297717
-0.000480185
-0.000325573
-0.00051904
-0.000354211
-0.000557157
-0.000384184
-0.000593495
-0.000416199
-0.000627547
-0.000659069
-0.000450982
-2.71648e-06
-1.15255e-05
-9.90753e-06
-3.87151e-05
-2.09454e-05
-6.88371e-05
-3.52621e-05
-0.00010016
-5.23448e-05
-0.000131445
-7.1735e-05
-0.000161985
-9.30234e-05
-0.000191608
-0.000115846
-0.000220583
-0.000139878
-0.000249497
-0.000164834
-0.000279095
-0.000190453
-0.000310105
-0.000216505
-0.00034307
-0.000242787
-0.000378213
-0.000269144
-0.000415345
-0.000295502
-0.000453827
-0.000321927
-0.000492615
-0.000348692
-0.000530393
-0.00037633
-0.000565856
-0.00040561
-0.000598267
-0.000627301
-0.000437379
-2.73257e-06
-8.79296e-06
-9.96291e-06
-3.14847e-05
-2.10508e-05
-5.77491e-05
-3.54136e-05
-8.57968e-05
-5.25229e-05
-0.000114335
-7.19052e-05
-0.000142603
-9.31384e-05
-0.000170375
-0.000115846
-0.000197875
-0.000139693
-0.00022565
-0.000164376
-0.000254412
-0.000189615
-0.000284866
-0.000215145
-0.00031754
-0.000240716
-0.000352642
-0.000266106
-0.000389954
-0.00029116
-0.000428774
-0.000315846
-0.000467928
-0.000340352
-0.000505887
-0.000365172
-0.000541036
-0.000391116
-0.000572322
-0.000599254
-0.000419163
-2.72629e-06
-6.06668e-06
-9.94079e-06
-2.42702e-05
-2.09987e-05
-4.66912e-05
-3.53081e-05
-7.14874e-05
-5.23293e-05
-9.7314e-05
-7.15759e-05
-0.000123356
-9.26149e-05
-0.000149336
-0.000115059
-0.00017543
-0.00013856
-0.000202148
-0.0001628
-0.000230172
-0.000187476
-0.00026019
-0.00021229
-0.000292726
-0.000236942
-0.00032799
-0.000261142
-0.000365755
-0.000284637
-0.000405278
-0.000307289
-0.000445277
-0.000329168
-0.000484008
-0.000350697
-0.000519507
-0.00037271
-0.00055031
-0.000575649
-0.000396315
-2.69752e-06
-3.36916e-06
-9.8407e-06
-1.71271e-05
-2.07875e-05
-3.57444e-05
-3.49428e-05
-5.73321e-05
-5.17591e-05
-8.04977e-05
-7.074e-05
-0.000104375
-9.14423e-05
-0.000128633
-0.000113468
-0.000153405
-0.000136457
-0.000179159
-0.000160075
-0.000206555
-0.000183996
-0.000236269
-0.00020789
-0.000268832
-0.000231409
-0.000304471
-0.000254187
-0.000342976
-0.000275875
-0.00038359
-0.000296203
-0.000424949
-0.000315105
-0.000465105
-0.000332893
-0.00050172
-0.00035039
-0.000532812
-0.000557216
-0.000368823
-2.64641e-06
-7.22743e-07
-9.66297e-06
-1.01105e-05
-2.04179e-05
-2.49895e-05
-3.43177e-05
-4.34323e-05
-5.08112e-05
-6.40043e-05
-6.93944e-05
-8.57922e-05
-8.96144e-05
-0.000108413
-0.000111063
-0.000131956
-0.000133366
-0.000156856
-0.000156174
-0.000183747
-0.000179139
-0.000213304
-0.000201899
-0.000246072
-0.000224055
-0.000282314
-0.000245174
-0.000321858
-0.0002648
-0.000363964
-0.000282526
-0.000407223
-0.00029812
-0.000449511
-0.000311741
-0.000488098
-0.000324162
-0.000520392
-0.000544686
-0.000336692
-2.57343e-06
1.85069e-06
-9.40899e-06
-3.27495e-06
-1.98919e-05
-1.45066e-05
-3.34356e-05
-2.98886e-05
-4.94886e-05
-4.79513e-05
-6.75412e-05
-6.77396e-05
-8.7131e-05
-8.88236e-05
-0.000107838
-0.000111249
-0.000129277
-0.000135418
-0.000151078
-0.000161946
-0.000172874
-0.000191508
-0.00019427
-0.000224676
-0.000214824
-0.000261761
-0.00023403
-0.000302651
-0.000251333
-0.000346661
-0.000266181
-0.000392375
-0.000278154
-0.000437538
-0.000287217
-0.000479035
-0.000294036
-0.000513572
-0.000538778
-0.000299944
-2.47939e-06
4.33008e-06
-9.08123e-06
3.32689e-06
-1.92141e-05
-4.37368e-06
-3.23029e-05
-1.67998e-05
-4.77986e-05
-3.24556e-05
-6.51877e-05
-5.03505e-05
-8.39978e-05
-7.00135e-05
-0.000103798
-9.14492e-05
-0.000124186
-0.000115029
-0.000144776
-0.000141355
-0.000165178
-0.000171106
-0.000184968
-0.000204887
-0.000203659
-0.000243069
-0.000220684
-0.000285626
-0.000235391
-0.000331955
-0.000247082
-0.000380684
-0.000255137
-0.000429483
-0.000259286
-0.000474886
-0.000260033
-0.000512825
-0.000540178
-0.000258633
-2.36543e-06
6.69551e-06
-8.68326e-06
9.64472e-06
-1.8391e-05
5.33407e-06
-3.09289e-05
-4.26195e-06
-4.57531e-05
-1.76314e-05
-6.23467e-05
-3.37569e-05
-8.02278e-05
-5.21325e-05
-9.89514e-05
-7.27256e-05
-0.0001181
-9.58808e-05
-0.000137268
-0.000122187
-0.000156041
-0.000152333
-0.000173965
-0.000186963
-0.000190517
-0.000226518
-0.000205071
-0.000271072
-0.000216888
-0.000320138
-0.000225134
-0.000372438
-0.000228985
-0.000425632
-0.000227907
-0.000475964
-0.000222176
-0.000518556
-0.000549502
-0.000212853
-2.23306e-06
8.92857e-06
-8.21977e-06
1.56314e-05
-1.74312e-05
1.45455e-05
-2.93263e-05
7.63313e-06
-4.3368e-05
-3.5897e-06
-5.90371e-05
-1.80878e-05
-7.58412e-05
-3.53283e-05
-9.33202e-05
-5.52466e-05
-0.000111038
-7.81634e-05
-0.000128566
-0.000104658
-0.000145465
-0.000135434
-0.000161252
-0.000171176
-0.000175368
-0.000212402
-0.000187139
-0.000259301
-0.000195749
-0.000311528
-0.000200245
-0.000367942
-0.000199609
-0.000426269
-0.000193026
-0.000482546
-0.000180493
-0.000531089
-0.000567235
-0.00016276
-2.0841e-06
1.10127e-05
-7.69647e-06
2.12438e-05
-1.63454e-05
2.31945e-05
-2.75109e-05
1.87987e-05
-4.06642e-05
9.5636e-06
-5.52839e-05
-3.46818e-06
-7.08664e-05
-1.97459e-05
-8.69338e-05
-3.91792e-05
-0.000103028
-6.20692e-05
-0.000118696
-8.89903e-05
-0.00013347
-0.00012066
-0.000146838
-0.000157809
-0.000158205
-0.000201034
-0.000166857
-0.000250648
-0.000171918
-0.000306467
-0.000172335
-0.000367526
-0.000166919
-0.000431684
-0.000154589
-0.000494876
-0.000135027
-0.000550651
-0.000593659
-0.000108604
-1.92067e-06
1.29333e-05
-7.12004e-06
2.64432e-05
-1.51461e-05
3.12205e-05
-2.55017e-05
2.91543e-05
-3.76671e-05
2.17289e-05
-5.11181e-05
9.98289e-06
-6.53395e-05
-5.52448e-06
-7.98326e-05
-2.46861e-05
-9.41141e-05
-4.77877e-05
-0.000107702
-7.54019e-05
-0.000120098
-0.000108265
-0.000130756
-0.000147151
-0.000139049
-0.000192741
-0.000144228
-0.00024547
-0.000145369
-0.000305325
-0.000141344
-0.00037155
-0.000130833
-0.000442195
-0.000112503
-0.000513206
-8.58078e-05
-0.000577346
-0.000628543
-5.09239e-05
-1.74514e-06
1.46785e-05
-6.49806e-06
3.11961e-05
-1.38477e-05
3.85701e-05
-2.33206e-05
3.86272e-05
-3.44061e-05
3.28144e-05
-4.6577e-05
2.21539e-05
-5.93043e-05
7.20282e-06
-7.20666e-05
-1.19239e-05
-8.43513e-05
-3.5503e-05
-9.56439e-05
-6.41093e-05
-0.000105409
-9.84997e-05
-0.000113066
-0.000139494
-0.000117953
-0.000187853
-0.00011929
-0.000244134
-0.000116119
-0.000308496
-0.00010726
-0.000380409
-9.12901e-05
-0.000458165
-6.65967e-05
-0.0005379
-3.22123e-05
-0.000611731
-0.00066876
8.00535e-06
-1.5601e-06
1.62386e-05
-5.83884e-06
3.54748e-05
-1.2466e-05
4.51972e-05
-2.09918e-05
4.71531e-05
-3.09144e-05
4.2737e-05
-4.17025e-05
3.2942e-05
-5.28118e-05
1.83121e-05
-6.36951e-05
-1.04057e-06
-7.38073e-05
-2.53908e-05
-8.25962e-05
-5.53204e-05
-8.9486e-05
-9.16099e-05
-9.38552e-05
-0.000135125
-9.50065e-05
-0.000186702
-9.21275e-05
-0.000247013
-8.42385e-05
-0.000316385
-7.01305e-05
-0.000394517
-4.83155e-05
-0.00047998
-1.69924e-05
-0.000569223
2.58638e-05
-0.000654587
-0.000721265
7.83686e-05
-1.36829e-06
1.76069e-05
-5.15118e-06
3.92577e-05
-1.1018e-05
5.10641e-05
-1.85418e-05
5.46769e-05
-2.72284e-05
5.14236e-05
-3.6541e-05
4.22546e-05
-4.59183e-05
2.76894e-05
-5.47857e-05
7.82678e-06
-6.25607e-05
-1.76157e-05
-6.86493e-05
-4.92319e-05
-7.24303e-05
-8.78289e-05
-7.32368e-05
-0.000134319
-7.03311e-05
-0.000189608
-6.28704e-05
-0.000254473
-4.98597e-05
-0.000329396
-3.00834e-05
-0.000414293
-2.02268e-06
-0.000508041
3.61957e-05
-0.000607441
8.62974e-05
-0.000704688
-0.000784359
0.000149392
-1.17253e-06
1.87794e-05
-4.44422e-06
4.25294e-05
-9.52137e-06
5.61412e-05
-1.59979e-05
6.11535e-05
-2.33861e-05
5.88118e-05
-3.11421e-05
5.00106e-05
-3.86855e-05
3.52328e-05
-4.54116e-05
1.45529e-05
-5.06984e-05
-1.2329e-05
-5.39047e-05
-4.60255e-05
-5.43594e-05
-8.73742e-05
-5.13455e-05
-0.000137332
-4.40805e-05
-0.000196873
-3.16892e-05
-0.000266865
-1.31672e-05
-0.000347918
1.26872e-05
-0.000440148
4.73684e-05
-0.000542722
9.27914e-05
-0.000652864
0.00015087
-0.000762767
-0.000856853
0.000223363
-9.75626e-07
1.9755e-05
-3.72716e-06
4.52809e-05
-7.99403e-06
6.04081e-05
-1.33885e-05
6.65479e-05
-1.94271e-05
6.48503e-05
-2.55571e-05
5.61406e-05
-3.11773e-05
4.0853e-05
-3.5651e-05
1.90265e-05
-3.8313e-05
-9.66703e-06
-3.84718e-05
-4.58667e-05
-3.5402e-05
-9.04439e-05
-2.83323e-05
-0.000144402
-1.64311e-05
-0.000208774
1.20826e-06
-0.000284504
2.56066e-05
-0.000372316
5.79259e-05
-0.000472467
9.95938e-05
-0.00058439
0.000152466
-0.000705736
0.000218619
-0.00082892
-0.000938262
0.000300027
-7.80314e-07
2.05354e-05
-3.00898e-06
4.75096e-05
-6.45362e-06
6.38527e-05
-1.07413e-05
7.08356e-05
-1.53904e-05
6.94994e-05
-1.98375e-05
6.05877e-05
-2.34582e-05
4.44737e-05
-2.55818e-05
2.11501e-05
-2.54984e-05
-9.75047e-06
-2.2463e-05
-4.8902e-05
-1.56921e-05
-9.72148e-05
-4.35624e-06
-0.000155738
1.24284e-05
-0.000225558
3.56075e-05
-0.000307683
6.6198e-05
-0.000402907
0.000105328
-0.000511597
0.000154314
-0.000633377
0.000214861
-0.000766283
0.000289095
-0.000903153
-0.00102808
0.000378917
-5.89163e-07
2.11245e-05
-2.29823e-06
4.92187e-05
-4.91698e-06
6.64715e-05
-8.08311e-06
7.40017e-05
-1.1314e-05
7.27303e-05
-1.4033e-05
6.33068e-05
-1.55911e-05
4.60318e-05
-1.52814e-05
2.08405e-05
-1.23474e-05
-1.26845e-05
-5.98913e-06
-5.52603e-05
4.63779e-06
-0.000107842
2.04239e-05
-0.000171524
4.23062e-05
-0.000247441
7.12665e-05
-0.000336644
0.000108326
-0.000439967
0.000154559
-0.00055783
0.000211147
-0.000689964
0.000279551
-0.000834688
0.000361847
-0.000985449
-0.00112574
0.000459501
-4.04498e-07
2.1529e-05
-1.60268e-06
5.04168e-05
-3.39961e-06
6.82684e-05
-5.43878e-06
7.60409e-05
-7.23309e-06
7.45246e-05
-8.19048e-06
6.42642e-05
-7.63459e-06
4.54759e-05
-4.82188e-06
1.80278e-05
1.05196e-06
-1.85583e-05
1.08458e-05
-6.50541e-05
2.54637e-05
-0.00012246
4.58578e-05
-0.000191918
7.30193e-05
-0.000274602
0.000107965
-0.000371589
0.000151716
-0.000483718
0.000205282
-0.000611396
0.000269687
-0.000754368
0.000346072
-0.000911073
0.000436383
-0.00107576
-0.00123053
0.000541179
-2.28328e-07
2.17573e-05
-9.29124e-07
5.11176e-05
-1.91514e-06
6.92544e-05
-2.83024e-06
7.6956e-05
-3.17906e-06
7.48734e-05
-2.35145e-06
6.34366e-05
3.56464e-07
4.27679e-05
5.73226e-06
1.2652e-05
1.46253e-05
-2.74514e-05
2.79499e-05
-7.83787e-05
4.66745e-05
-0.000141184
7.18116e-05
-0.000217055
0.000104404
-0.000307195
0.000145499
-0.000412684
0.000196109
-0.000534328
0.000257171
-0.000672458
0.000329531
-0.000826728
0.000413946
-0.000995489
0.000512178
-0.00117399
-0.00134164
0.000623287
-6.23205e-08
2.18197e-05
-2.83131e-07
5.13384e-05
-4.74874e-07
6.94462e-05
-2.75837e-07
7.67569e-05
8.21804e-07
7.37758e-05
3.44961e-06
6.08088e-05
8.34359e-06
3.7874e-05
1.63275e-05
4.66807e-06
2.83047e-05
-3.94286e-05
4.52454e-05
-9.53194e-05
6.81782e-05
-0.000164117
9.8174e-05
-0.000247051
0.000136321
-0.000345342
0.00018369
-0.000460053
0.000241274
-0.000591912
0.000309924
-0.000741108
0.00039029
-0.000907095
0.0004827
-0.0010879
0.000588688
-0.00127998
-0.00145807
0.00070511
9.26281e-08
2.1727e-05
3.31129e-07
5.10999e-05
9.12611e-07
6.88647e-05
2.21038e-06
7.54592e-05
4.74933e-06
7.12369e-05
9.18539e-06
5.63727e-05
1.62875e-05
3.07718e-05
2.69223e-05
-5.96671e-06
4.20428e-05
-5.45491e-05
6.26753e-05
-0.000115952
8.9906e-05
-0.000191348
0.000124858
-0.000282004
0.00016866
-0.000389143
0.000222391
-0.000513784
0.000287012
-0.000656533
0.000363268
-0.000817363
0.000451593
-0.00099542
0.000551872
-0.00118818
0.00066535
-0.00139346
-0.00157861
0.00078589
2.35371e-07
2.14917e-05
9.11086e-07
5.04242e-05
2.24181e-06
6.7534e-05
4.6192e-06
7.30818e-05
8.59003e-06
6.7266e-05
1.48382e-05
5.01245e-05
2.41682e-05
2.14418e-05
3.74904e-05
-1.92889e-05
5.5808e-05
-7.28667e-05
8.02018e-05
-0.000140346
0.000111811
-0.000222957
0.000151805
-0.000321997
0.000201337
-0.000438675
0.000261482
-0.000573929
0.000333147
-0.000728199
0.00041695
-0.000901166
0.000513081
-0.00109155
0.000621004
-0.0012961
0.000741521
-0.00151397
-0.00170198
0.000864896
3.66025e-07
2.11256e-05
1.4558e-06
4.93345e-05
3.51045e-06
6.54793e-05
6.94658e-06
6.96456e-05
1.2338e-05
6.18747e-05
2.04002e-05
4.20623e-05
3.1976e-05
9.86608e-06
4.80206e-05
-3.53335e-05
6.95872e-05
-9.44334e-05
9.78083e-05
-0.000168567
0.00013387
-0.000259019
0.000178976
-0.000367103
0.000234289
-0.000493989
0.000300859
-0.000640499
0.000379515
-0.000806855
0.000470729
-0.00099238
0.000574431
-0.00119525
0.000689719
-0.00141139
0.000816405
-0.00164066
-0.00182715
0.000941573
4.84853e-07
2.06408e-05
1.96602e-06
4.78533e-05
4.71962e-06
6.27257e-05
9.19386e-06
6.51714e-05
1.59947e-05
5.50738e-05
2.58735e-05
3.21834e-05
3.97138e-05
-3.97417e-06
5.85168e-05
-5.41365e-05
8.33847e-05
-0.000119301
0.000115497
-0.000200679
0.000156079
-0.000299601
0.000206353
-0.000417376
0.00026747
-0.000555106
0.000340424
-0.000713453
0.000425939
-0.00089237
0.000524333
-0.00109077
0.000635336
-0.00130626
0.000757914
-0.00153397
0.000889606
-0.00177235
-0.001953
0.00101545
5.92679e-07
2.00481e-05
2.44418e-06
4.60018e-05
5.8737e-06
5.92962e-05
1.13676e-05
5.96774e-05
1.95695e-05
4.6872e-05
3.12703e-05
2.04826e-05
4.7397e-05
-2.01009e-05
6.89976e-05
-7.57371e-05
9.72211e-05
-0.000147525
0.000133289
-0.000236747
0.000178451
-0.000344764
0.00023393
-0.000472855
0.000300837
-0.000622013
0.000380071
-0.000792687
0.000472207
-0.000984506
0.000577386
-0.00119595
0.000695245
-0.00142411
0.000825219
-0.00166394
0.000962893
-0.00191002
-0.00207507
0.00108497
6.90687e-07
1.93574e-05
2.89406e-06
4.37984e-05
6.97999e-06
5.52103e-05
1.34794e-05
5.31781e-05
2.30784e-05
3.7273e-05
3.66118e-05
6.9492e-06
5.50523e-05
-3.85414e-05
7.94946e-05
-0.000100179
0.000111131
-0.000179161
0.000151215
-0.000276831
0.000201009
-0.000394557
0.000261708
-0.000533554
0.000334345
-0.00069465
0.000419677
-0.000878019
0.000518069
-0.0010829
0.000629415
-0.0013073
0.000753147
-0.00154785
0.00088888
-0.00179967
0.00103605
-0.00205719
-0.00227751
0.00123849
7.80798e-07
1.85766e-05
3.3214e-06
4.12578e-05
8.04917e-06
5.04825e-05
1.55454e-05
4.56818e-05
2.6544e-05
2.62743e-05
4.19273e-05
-8.43405e-06
6.27155e-05
-5.93297e-05
9.00489e-05
-0.000127513
0.000125158
-0.00021427
0.000169317
-0.00032099
0.000223778
-0.000449019
0.000289681
-0.000599456
0.000367936
-0.000772905
0.000459099
-0.000969183
0.000563251
-0.00118705
0.000679939
-0.00142399
0.000808211
-0.00167612
0.000947377
-0.00193884
0.00109621
-0.00220602
-0.00245498
0.00127367
8.64959e-07
1.77117e-05
3.73258e-06
3.83902e-05
9.09369e-06
4.51214e-05
1.75855e-05
3.719e-05
2.99941e-05
1.38657e-05
4.72526e-05
-2.56925e-05
7.043e-05
-8.2507e-05
0.00010071
-0.000157792
0.000139352
-0.000252913
0.000187638
-0.000369276
0.000246784
-0.000508165
0.000317837
-0.000670509
0.000401536
-0.000856604
0.000498176
-0.00106582
0.00060748
-0.00129635
0.000728558
-0.00154506
0.000859936
-0.0018075
0.00100012
-0.00207903
0.00114676
-0.00235266
-0.00261571
0.00130749
9.45509e-07
1.67662e-05
4.13508e-06
3.52006e-05
1.01281e-05
3.91284e-05
1.96223e-05
2.76958e-05
3.34602e-05
2.77353e-08
5.26281e-05
-4.48604e-05
7.82435e-05
-0.000108122
0.000111529
-0.000191078
0.000153764
-0.000295148
0.000206216
-0.000421728
0.000270039
-0.000571988
0.000346143
-0.000746613
0.000435045
-0.000945507
0.000536719
-0.0011675
0.000650472
-0.00141011
0.000774918
-0.00166951
0.000908024
-0.0019406
0.00104749
-0.00221849
0.00119026
-0.00249543
-0.00276374
0.0013383
1.02496e-06
1.57412e-05
4.53703e-06
3.16885e-05
1.1168e-05
3.24974e-05
2.16803e-05
1.71835e-05
3.69761e-05
-1.52681e-05
5.80962e-05
-6.59805e-05
8.62052e-05
-0.000136231
0.000122558
-0.00022743
0.000168439
-0.00034103
0.000225081
-0.00047837
0.000293538
-0.000640445
0.000374542
-0.000827616
0.000468333
-0.0010393
0.000574511
-0.00127367
0.000691926
-0.00152752
0.000818682
-0.00179627
0.000952216
-0.00207414
0.00108958
-0.00235586
0.00122736
-0.00263321
-0.00290122
0.00136483
1.10592e-06
1.46353e-05
4.9468e-06
2.78477e-05
1.22298e-05
2.52144e-05
2.3785e-05
5.62839e-06
4.05763e-05
-3.20593e-05
6.36994e-05
-8.91037e-05
9.43625e-05
-0.000166894
0.000133843
-0.00026691
0.000183415
-0.000390602
0.000244245
-0.000539201
0.000317253
-0.000713453
0.000402943
-0.000913306
0.000501231
-0.00113759
0.0006113
-0.00138374
0.000731524
-0.00164775
0.000859511
-0.00192425
0.000992255
-0.00220688
0.00112637
-0.00248997
0.00125834
-0.00276518
-0.00302927
0.00138639
1.19095e-06
1.34443e-05
5.37277e-06
2.36658e-05
1.33296e-05
1.72576e-05
2.59611e-05
-7.00306e-06
4.4294e-05
-5.03923e-05
6.94777e-05
-0.000114287
0.000102758
-0.000200174
0.000145422
-0.000309574
0.000198712
-0.000443892
0.000263699
-0.000604188
0.000341126
-0.00079088
0.000431223
-0.0010034
0.000533537
-0.0012399
0.000646806
-0.00149701
0.00076893
-0.00176987
0.000897074
-0.0020524
0.0010279
-0.0023377
0.0011578
-0.00261987
0.00128337
-0.00289075
-0.00314849
0.00140259
1.28253e-06
1.21618e-05
5.82293e-06
1.91254e-05
1.44828e-05
8.59771e-06
2.8232e-05
-2.07522e-05
4.81599e-05
-7.03202e-05
7.54659e-05
-0.000141593
0.000111425
-0.000236133
0.000157319
-0.000355468
0.000214333
-0.000500906
0.000283408
-0.000673263
0.000365066
-0.000872538
0.000459221
-0.00109756
0.000565014
-0.00134569
0.000680727
-0.00161272
0.00080381
-0.00189295
0.000931063
-0.00217965
0.00105894
-0.00246558
0.0011838
-0.00274474
0.00130255
-0.00300949
-0.00325924
0.0014133
1.38293e-06
1.07789e-05
6.3046e-06
1.42038e-05
1.57032e-05
-8.00935e-07
3.06185e-05
-3.56675e-05
5.22002e-05
-9.19018e-05
8.16923e-05
-0.000171086
0.000120388
-0.000274829
0.000169544
-0.000404625
0.000230261
-0.000561622
0.000303311
-0.000746314
0.000388954
-0.000958181
0.000486746
-0.00119535
0.000595401
-0.00145435
0.000712749
-0.00173007
0.000835841
-0.00201605
0.000961203
-0.00230501
0.00108521
-0.00258959
0.00120438
-0.00286391
0.00131602
-0.00312113
-0.00336181
0.00141859
1.49413e-06
9.28472e-06
6.82421e-06
8.87369e-06
1.7003e-05
-1.09798e-05
3.3138e-05
-5.18025e-05
5.64356e-05
-0.000115199
8.81766e-05
-0.000202827
0.000129658
-0.00031631
0.00018209
-0.000457057
0.000246453
-0.000625986
0.000323317
-0.000823177
0.000412637
-0.0010475
0.00051358
-0.00129629
0.00062442
-0.00156519
0.000742561
-0.00184821
0.000864724
-0.00213821
0.000987271
-0.00242756
0.00110663
-0.00270895
0.00121961
-0.00297688
0.00132399
-0.00322551
-0.00345649
0.00141867
1.61781e-06
7.66691e-06
7.38705e-06
3.10445e-06
1.83918e-05
-2.19845e-05
3.58039e-05
-6.92145e-05
6.08804e-05
-0.000140276
9.49287e-05
-0.000236875
0.000139232
-0.000360613
0.000194928
-0.000512753
0.000262847
-0.000693905
0.000343312
-0.000903642
0.00043594
-0.00114013
0.000539484
-0.00139984
0.000651787
-0.00167749
0.00076987
-0.0019663
0.000890207
-0.00225855
0.00100911
-0.00254646
0.00112318
-0.00282302
0.00122961
-0.00308331
0.00132672
-0.00332263
-0.00354363
0.00141386
1.75526e-06
5.91165e-06
7.99717e-06
-3.13747e-06
1.98767e-05
-3.3864e-05
3.86247e-05
-8.79626e-05
6.55416e-05
-0.000167193
0.000101948
-0.000273281
0.000149093
-0.000407758
0.000208015
-0.000571675
0.000279356
-0.000765246
0.000363157
-0.000987443
0.000458664
-0.00123564
0.000564211
-0.00150538
0.000677225
-0.0017905
0.000794411
-0.00208348
0.000912087
-0.00237622
0.00102663
-0.002661
0.00113491
-0.00293131
0.00123459
-0.00318299
0.00132454
-0.00341258
-0.00362363
0.00140454
1.90739e-06
4.00426e-06
8.65729e-06
-9.88736e-06
2.14618e-05
-4.66686e-05
4.16045e-05
-0.000108105
7.04187e-05
-0.000196007
0.000109223
-0.000312085
0.00015921
-0.000457745
0.000221286
-0.000633752
0.000295872
-0.000839832
0.000382692
-0.00107426
0.0004806
-0.00133354
0.00058751
-0.00161229
0.000700476
-0.00190347
0.000815957
-0.00219896
0.00093022
-0.00249048
0.00103981
-0.00277059
0.00114196
-0.00303346
0.00123483
-0.00327586
0.00131782
-0.00349557
-0.00369693
0.00139112
2.07474e-06
1.92952e-06
9.36877e-06
-1.71814e-05
2.31486e-05
-6.04484e-05
4.47423e-05
-0.000129699
7.55039e-05
-0.000226769
0.000116732
-0.000353313
0.000169537
-0.00051055
0.000234663
-0.000698878
0.000312274
-0.000917442
0.000401746
-0.00116373
0.000501531
-0.00143333
0.000609141
-0.0017199
0.00072131
-0.00201564
0.000834334
-0.00231199
0.00094453
-0.00260068
0.0010487
-0.00287475
0.0011445
-0.00312926
0.00123062
-0.00336197
0.00130695
-0.0035719
-0.00376401
0.00137403
2.25746e-06
-3.2794e-07
1.01317e-05
-2.50556e-05
2.49358e-05
-7.52525e-05
4.80322e-05
-0.000152795
8.07819e-05
-0.000259518
0.000124443
-0.000396974
0.000180017
-0.000566125
0.000248053
-0.000766913
0.000328423
-0.000997813
0.000420138
-0.00125545
0.000521244
-0.00153444
0.000628882
-0.00182754
0.000739531
-0.00212629
0.000849418
-0.00242187
0.000955001
-0.00270626
0.00105342
-0.00297317
0.0011428
-0.00321864
0.00122232
-0.0034415
0.00129234
-0.00364191
-0.00382537
0.00135369
2.45538e-06
-2.78332e-06
1.09449e-05
-3.35452e-05
2.68194e-05
-9.1127e-05
5.14642e-05
-0.00017744
8.62312e-05
-0.000294285
0.000132315
-0.000443059
0.000190581
-0.000624391
0.000261349
-0.000837681
0.000344175
-0.00108064
0.000437685
-0.00134896
0.000539534
-0.00163628
0.000646536
-0.00193454
0.000754988
-0.00223474
0.00086114
-0.00252803
0.000961679
-0.0028068
0.00105414
-0.00306563
0.00113712
-0.00330163
0.0012103
-0.00351468
0.0012744
-0.003706
-0.00388148
0.00133051
2.66802e-06
-5.45134e-06
1.18062e-05
-4.26834e-05
2.8793e-05
-0.000108114
5.50242e-05
-0.000203671
9.1824e-05
-0.000331085
0.000140301
-0.000491535
0.000201152
-0.000685242
0.00027444
-0.000910968
0.000359379
-0.00116558
0.00045421
-0.00144379
0.000556214
-0.00173829
0.000661936
-0.00204026
0.000767574
-0.00234038
0.000869486
-0.00262994
0.000964663
-0.00290198
0.00105107
-0.00315203
0.00112778
-0.00337834
0.00119492
-0.00358182
0.00125352
-0.0037646
-0.00393283
0.00130487
2.89468e-06
-8.34602e-06
1.27124e-05
-5.25011e-05
3.08484e-05
-0.00012625
5.86942e-05
-0.000231517
9.75274e-05
-0.000369918
0.000148344
-0.000542352
0.000211645
-0.000748543
0.000287207
-0.00098653
0.000373887
-0.00125226
0.000469541
-0.00153944
0.000571117
-0.00183986
0.000674952
-0.0021441
0.000777229
-0.00244266
0.000874495
-0.0027272
0.000964099
-0.00299158
0.00104446
-0.00323239
0.00111511
-0.00344899
0.00117655
-0.00364326
0.00123008
-0.00381813
-0.00397986
0.00127711
3.1344e-06
-1.14804e-05
1.36594e-05
-6.30261e-05
3.29753e-05
-0.000145566
6.24537e-05
-0.000260996
0.000103304
-0.000410769
0.000156385
-0.000595432
0.000221971