/*--------------------------------*- C++ -*----------------------------------*\
  =========                 |
  \\      /  F ield         | OpenFOAM: The Open Source CFD Toolbox
   \\    /   O peration     | Website:  https://openfoam.org
    \\  /    A nd           | Version:  7
     \\/     M anipulation  |
\*---------------------------------------------------------------------------*/
FoamFile
{
    version     2.0;
    format      ascii;
    class       surfaceScalarField;
    location    "300";
    object      phi;
}
// * * * * * * * * * * * * * * * * * * * * * * * * * * * * * * * * * * * * * //

dimensions      [0 3 -1 0 0 0 0];

internalField   nonuniform List<scalar> 
113821
(
-5.74838e-07
-3.52317e-05
3.58066e-05
-2.25501e-06
-9.4532e-05
9.62122e-05
-5.0309e-06
-0.000145178
0.000147954
-8.88083e-06
-0.000187464
0.000191313
-1.37709e-05
-0.000221853
0.000226743
-1.96575e-05
-0.000248948
0.000254835
-2.64903e-05
-0.000269459
0.000276292
-3.42162e-05
-0.000284188
0.000291914
-4.27832e-05
-0.00029398
0.000302547
-5.21428e-05
-0.000299682
0.000309042
-6.22533e-05
-0.000302091
0.000312202
-7.30806e-05
-0.000301919
0.000312746
-8.45997e-05
-0.000299755
0.000311274
-9.6795e-05
-0.000296045
0.000308241
-0.000109661
-0.000291072
0.000303938
-0.000123202
-0.000284955
0.000298496
-0.000137433
-0.000277651
0.000291881
-0.000152379
-0.000268964
0.00028391
-0.000168077
-0.000258561
0.000274258
-0.000184572
-0.000245984
0.000262479
-0.000201921
-0.000230658
0.000248007
-0.000220189
-0.0002119
0.000230167
-0.000239445
-0.000188922
0.000208178
-0.000259755
-0.000160837
0.000181147
-0.000126573
0.000148012
-0.000281194
-6.26326e-07
-3.46054e-05
-2.43559e-06
-9.27228e-05
-5.39873e-06
-0.000142215
-9.47732e-06
-0.000183385
-1.46237e-05
-0.000216707
-2.07833e-05
-0.000242788
-2.78978e-05
-0.000262345
-3.59091e-05
-0.000276176
-4.47625e-05
-0.000285127
-5.44098e-05
-0.000290035
-6.48107e-05
-0.00029169
-7.59347e-05
-0.000290795
-8.77612e-05
-0.000287929
-0.00010028
-0.000283526
-0.000113492
-0.000277861
-0.000127406
-0.000271041
-0.000142044
-0.000263013
-0.000157436
-0.000253571
-0.000173624
-0.000242373
-0.000190658
-0.00022895
-0.000208596
-0.000212719
-0.000227504
-0.000192992
-0.000247449
-0.000168976
-0.000268492
-0.000139794
-0.000104367
-0.000290698
-6.74494e-07
-3.39309e-05
-2.604e-06
-9.07933e-05
-5.7406e-06
-0.000139078
-1.00295e-05
-0.000179096
-1.54095e-05
-0.000211327
-2.18153e-05
-0.000236383
-2.91804e-05
-0.00025498
-3.74417e-05
-0.000267915
-4.65416e-05
-0.000276027
-5.64312e-05
-0.000280145
-6.70714e-05
-0.00028105
-7.84342e-05
-0.000279432
-9.05025e-05
-0.00027586
-0.000103271
-0.000270758
-0.000116743
-0.000264389
-0.000130934
-0.000256849
-0.00014587
-0.000248077
-0.000161583
-0.000237858
-0.00017812
-0.000225837
-0.000195531
-0.000211539
-0.000213878
-0.000194373
-0.000233223
-0.000173646
-0.000253632
-0.000148568
-0.000275158
-0.000118268
-8.16726e-05
-0.000297853
-7.19266e-07
-3.32117e-05
-2.76006e-06
-8.87525e-05
-6.05624e-06
-0.000135782
-1.05372e-05
-0.000174615
-1.61284e-05
-0.000205736
-2.27537e-05
-0.000229757
-3.03389e-05
-0.000247394
-3.88152e-05
-0.000259439
-4.81221e-05
-0.00026672
-5.82093e-05
-0.000270058
-6.90381e-05
-0.000270221
-8.05822e-05
-0.000267888
-9.2827e-05
-0.000263616
-0.00010577
-0.000257816
-0.000119418
-0.00025074
-0.000133789
-0.000242478
-0.000148911
-0.000232955
-0.000164821
-0.000221948
-0.000181563
-0.000209095
-0.00019919
-0.000193911
-0.000217762
-0.000175801
-0.00023734
-0.000154068
-0.000257983
-0.000127925
-0.000279737
-9.65136e-05
-5.87696e-05
-0.000302641
-7.6064e-07
-3.2451e-05
-2.90375e-06
-8.66094e-05
-6.3457e-06
-0.00013234
-1.10005e-05
-0.00016996
-1.67807e-05
-0.000199955
-2.35995e-05
-0.000222939
-3.13748e-05
-0.000239619
-4.00321e-05
-0.000250782
-4.95073e-05
-0.000257245
-5.97483e-05
-0.000259817
-7.07162e-05
-0.000259253
-8.23851e-05
-0.000256219
-9.4742e-05
-0.000251259
-0.000107785
-0.000244772
-0.000121525
-0.000237001
-0.00013598
-0.000228023
-0.000151179
-0.000217756
-0.000167158
-0.000205969
-0.000183962
-0.000192291
-0.000201644
-0.00017623
-0.000220258
-0.000157186
-0.000239863
-0.000134463
-0.000260511
-0.000107277
-0.000282238
-7.4786e-05
-3.59398e-05
-0.000305068
-7.98632e-07
-3.16524e-05
-3.03518e-06
-8.43728e-05
-6.60926e-06
-0.000128766
-1.14202e-05
-0.000165149
-1.73677e-05
-0.000194008
-2.43548e-05
-0.000215952
-3.22912e-05
-0.000231683
-4.10965e-05
-0.000241976
-5.07027e-05
-0.000247639
-6.10552e-05
-0.000249465
-7.21139e-05
-0.000248195
-8.38526e-05
-0.00024448
-9.62586e-05
-0.000238853
-0.000109331
-0.0002317
-0.000123079
-0.000223253
-0.000137523
-0.000213579
-0.000152689
-0.00020259
-0.000168614
-0.000190044
-0.000185339
-0.000175565
-0.000202913
-0.000158655
-0.000221388
-0.000138711
-0.000240816
-0.000115036
-0.000261241
-8.68517e-05
-0.00028269
-5.3337e-05
-1.34619e-05
-0.000305168
-8.33309e-07
-3.08191e-05
-3.15461e-06
-8.20515e-05
-6.84757e-06
-0.000125073
-1.17973e-05
-0.0001602
-1.78914e-05
-0.000187914
-2.50225e-05
-0.00020882
-3.30921e-05
-0.000223613
-4.20139e-05
-0.000233054
-5.17152e-05
-0.000237937
-6.21386e-05
-0.000239041
-7.32419e-05
-0.000237091
-8.49976e-05
-0.000232725
-9.73919e-05
-0.000226458
-0.000110423
-0.000218669
-0.0001241
-0.000209576
-0.000138439
-0.00019924
-0.000153467
-0.000187562
-0.000169215
-0.000174296
-0.000185723
-0.000159058
-0.000203032
-0.000141346
-0.00022119
-0.000120553
-0.000240241
-9.59851e-05
-0.00026022
-6.68722e-05
-0.000281144
-3.24135e-05
8.39262e-06
-0.000302998
-8.64772e-07
-2.99543e-05
-3.26244e-06
-7.96539e-05
-7.06147e-06
-0.000121274
-1.21335e-05
-0.000155128
-1.83543e-05
-0.000181693
-2.56062e-05
-0.000201569
-3.37827e-05
-0.000215437
-4.2791e-05
-0.000224046
-5.25538e-05
-0.000228175
-6.30096e-05
-0.000228585
-7.41136e-05
-0.000225987
-8.58358e-05
-0.000221002
-9.81605e-05
-0.000214134
-0.000111084
-0.000205746
-0.000124611
-0.000196048
-0.000138758
-0.000185093
-0.000153545
-0.000172776
-0.000168999
-0.000158842
-0.000185154
-0.000142903
-0.000202046
-0.000124454
-0.000219714
-0.000102885
-0.000238194
-7.75054e-05
-0.000257512
-4.75542e-05
-0.000277671
-1.22538e-05
2.93621e-05
-0.000298641
-8.93163e-07
-2.90611e-05
-3.3592e-06
-7.71878e-05
-7.25213e-06
-0.000117381
-1.24307e-05
-0.000149949
-1.87595e-05
-0.000175364
-2.61105e-05
-0.000194217
-3.43691e-05
-0.000207178
-4.3436e-05
-0.000214979
-5.32285e-05
-0.000218382
-6.36808e-05
-0.000218133
-7.47443e-05
-0.000214924
-8.63858e-05
-0.000209361
-9.85862e-05
-0.000201933
-0.000111338
-0.000192994
-0.000124644
-0.000182743
-0.000138512
-0.000171225
-0.00015296
-0.000158328
-0.000168009
-0.000143793
-0.000183683
-0.000127229
-0.000200011
-0.000108125
-0.000217024
-8.58728e-05
-0.000234747
-5.97819e-05
-0.000253197
-2.91038e-05
-0.000272366
6.9148e-06
4.91984e-05
-0.000292202
-9.18666e-07
-2.81425e-05
-3.44553e-06
-7.4661e-05
-7.42092e-06
-0.000113405
-1.26912e-05
-0.000144679
-1.91104e-05
-0.000168945
-2.65404e-05
-0.000186788
-3.48583e-05
-0.00019886
-4.39579e-05
-0.00020588
-5.37509e-05
-0.000208589
-6.41665e-05
-0.000207717
-7.51514e-05
-0.000203939
-8.66684e-05
-0.000197844
-9.86938e-05
-0.000189908
-0.000111216
-0.000180472
-0.000124231
-0.000169728
-0.000137742
-0.000157713
-0.00015176
-0.00014431
-0.000166296
-0.000129257
-0.000181368
-0.000112158
-0.000196994
-9.24991e-05
-0.000213195
-6.9672e-05
-0.000229986
-4.29902e-05
-0.000247374
-1.17158e-05
-0.000265338
2.48788e-05
6.76695e-05
-0.00028381
-9.41504e-07
-2.7201e-05
-3.52225e-06
-7.20802e-05
-7.56953e-06
-0.000109358
-1.29179e-05
-0.00013933
-1.9411e-05
-0.000162452
-2.69014e-05
-0.000179297
-3.52576e-05
-0.000190504
-4.43666e-05
-0.000196771
-5.41336e-05
-0.000198822
-6.44823e-05
-0.000197369
-7.53541e-05
-0.000193067
-8.67065e-05
-0.000186492
-9.85106e-05
-0.000178104
-0.000110748
-0.000168234
-0.00012341
-0.000157066
-0.000136492
-0.000144631
-0.000149994
-0.000130808
-0.00016392
-0.000115331
-0.000178276
-9.78014e-05
-0.000193071
-7.7704e-05
-0.000208314
-5.4429e-05
-0.000224011
-2.72937e-05
-0.000240155
4.42885e-06
-0.000256717
4.14404e-05
8.4563e-05
-0.00027361
-9.61918e-07
-2.62391e-05
-3.59021e-06
-6.94519e-05
-7.69972e-06
-0.000105249
-1.31136e-05
-0.000133917
-1.96655e-05
-0.0001559
-2.71994e-05
-0.000171763
-3.55754e-05
-0.000182128
-4.46727e-05
-0.000187673
-5.439e-05
-0.000189105
-6.46448e-05
-0.000187114
-7.53727e-05
-0.000182339
-8.65248e-05
-0.000175339
-9.8066e-05
-0.000166563
-0.000109971
-0.000156329
-0.000122223
-0.000144814
-0.000134808
-0.000132046
-0.000147718
-0.000117899
-0.000160944
-0.000102105
-0.000174482
-8.42634e-05
-0.000188328
-6.3858e-05
-0.000202479
-4.02777e-05
-0.000216931
-1.28426e-05
-0.000231666
1.91644e-05
-0.000246645
5.64197e-05
9.96872e-05
-0.00026177
-9.80119e-07
-2.52589e-05
-3.65019e-06
-6.67818e-05
-7.81331e-06
-0.000101085
-1.32814e-05
-0.000128448
-1.98786e-05
-0.000149303
-2.74409e-05
-0.000164201
-3.58199e-05
-0.000173749
-4.48871e-05
-0.000178606
-5.4534e-05
-0.000179458
-6.46714e-05
-0.000176976
-7.52282e-05
-0.000171783
-8.6149e-05
-0.000164419
-9.73909e-05
-0.000155321
-0.000108921
-0.000144799
-0.000120713
-0.000133023
-0.000132743
-0.000120015
-0.000144992
-0.00010565
-0.000157439
-8.96577e-05
-0.000170066
-7.16363e-05
-0.000182856
-5.10674e-05
-0.000195795
-2.73389e-05
-0.000208866
2.2778e-07
-0.000222043
3.23417e-05
-0.000235279
6.96562e-05
0.000112874
-0.000248466
-9.96284e-07
-2.42626e-05
-3.70292e-06
-6.40752e-05
-7.91187e-06
-9.68765e-05
-1.34244e-05
-0.000122936
-2.0055e-05
-0.000142672
-2.76326e-05
-0.000156623
-3.60002e-05
-0.000165381
-4.50212e-05
-0.000169585
-5.45797e-05
-0.0001699
-6.45796e-05
-0.000166976
-7.49424e-05
-0.00016142
-8.56052e-05
-0.000153756
-9.6517e-05
-0.000144409
-0.000107636
-0.00013368
-0.000118925
-0.000121734
-0.00013035
-0.00010859
-0.000141878
-9.41218e-05
-0.000153476
-7.80597e-05
-0.000165112
-6.00009e-05
-0.000176754
-3.94255e-05
-0.000188374
-1.5719e-05
-0.000199944
1.17979e-05
-0.000211432
4.38295e-05
-0.000222785
8.10095e-05
0.000123979
-0.00023389
-1.01058e-06
-2.32521e-05
-3.74907e-06
-6.13367e-05
-7.99693e-06
-9.26286e-05
-1.35454e-05
-0.000117387
-2.01998e-05
-0.000136018
-2.77812e-05
-0.000149042
-3.61249e-05
-0.000157038
-4.5086e-05
-0.000160624
-5.45412e-05
-0.000160444
-6.43869e-05
-0.000157131
-7.45368e-05
-0.00015127
-8.49199e-05
-0.000143373
-9.54763e-05
-0.000133852
-0.000106154
-0.000123002
-0.000116905
-0.000110983
-0.000127684
-9.78116e-05
-0.000138442
-8.33632e-05
-0.000149133
-6.73687e-05
-0.000159708
-4.94256e-05
-0.000170122
-2.9012e-05
-0.000180332
-5.50944e-06
-0.000190299
2.17649e-05
-0.000199984
5.35149e-05
-0.000209335
9.03604e-05
0.000132882
-0.000218238
-1.02322e-06
-2.22288e-05
-3.78937e-06
-5.85706e-05
-8.07014e-06
-8.83479e-05
-1.36472e-05
-0.00011181
-2.0317e-05
-0.000129348
-2.7893e-05
-0.000141466
-3.62023e-05
-0.000148728
-4.50923e-05
-0.000151734
-5.44321e-05
-0.000151105
-6.41102e-05
-0.000147453
-7.40324e-05
-0.000141348
-8.41188e-05
-0.000133286
-9.43001e-05
-0.000123671
-0.000104513
-0.000112789
-0.000114699
-0.000100797
-0.000124798
-8.77129e-05
-0.000134748
-7.34134e-05
-0.000144485
-5.76315e-05
-0.000153945
-3.99658e-05
-0.000163065
-1.98919e-05
-0.000171789
3.21418e-06
-0.000180067
3.0043e-05
-0.000187856
6.13039e-05
-0.000195106
9.76104e-05
0.000139488
-0.000201712
-1.03447e-06
-2.11944e-05
-3.8247e-06
-5.57803e-05
-8.13307e-06
-8.40395e-05
-1.37324e-05
-0.000106211
-2.04106e-05
-0.00012267
-2.79734e-05
-0.000133903
-3.62399e-05
-0.000140462
-4.505e-05
-0.000142924
-5.4265e-05
-0.00014189
-6.37656e-05
-0.000137952
-7.34491e-05
-0.000131664
-8.32265e-05
-0.000123509
-9.30184e-05
-0.000113879
-0.000102751
-0.000103056
-0.000112352
-9.11957e-05
-0.000121747
-7.83176e-05
-0.00013086
-6.43009e-05
-0.000139608
-4.8883e-05
-0.00014791
-3.16635e-05
-0.000155687
-1.21158e-05
-0.000162865
1.03923e-05
-0.000169385
3.65636e-05
-0.000175202
6.7121e-05
-0.000180274
0.000102682
0.000143725
-0.000184511
-1.04458e-06
-2.01498e-05
-3.85593e-06
-5.2969e-05
-8.18753e-06
-7.97079e-05
-1.38037e-05
-0.000100595
-2.04843e-05
-0.000115989
-2.80272e-05
-0.00012636
-3.62444e-05
-0.000132245
-4.49679e-05
-0.0001342
-5.40514e-05
-0.000132806
-6.33675e-05
-0.000128636
-7.2805e-05
-0.000122226
-8.22656e-05
-0.000114048
-9.16594e-05
-0.000104485
-0.000100901
-9.38148e-05
-0.000109905
-8.2192e-05
-0.000118582
-6.96404e-05
-0.000126838
-5.60443e-05
-0.000134575
-4.1146e-05
-0.000141691
-2.45476e-05
-0.000148088
-5.7194e-06
-0.000153677
1.59814e-05
-0.000158389
4.12757e-05
-0.000162177
7.09091e-05
-0.000165011
0.000105516
0.000145543
-0.000166829
-1.05377e-06
-1.9096e-05
-3.8838e-06
-5.0139e-05
-8.23502e-06
-7.53567e-05
-1.38635e-05
-9.49664e-05
-2.05414e-05
-0.000109311
-2.80589e-05
-0.000118843
-3.62216e-05
-0.000124082
-4.48538e-05
-0.000125568
-5.38013e-05
-0.000123859
-6.29287e-05
-0.000119509
-7.21163e-05
-0.000113039
-8.12561e-05
-0.000104909
-9.02478e-05
-9.54938e-05
-9.8994e-05
-8.50687e-05
-0.000107395
-7.37905e-05
-0.000115348
-6.16877e-05
-0.000122741
-4.86517e-05
-0.000129455
-3.44317e-05
-0.000135369
-1.86334e-05
-0.000140365
-7.23634e-07
-0.000144337
1.99539e-05
-0.000147206
4.41447e-05
-0.000148926
7.26286e-05
-0.000149483
0.000106074
0.00014491
-0.00014885
-1.06222e-06
-1.80338e-05
-3.90888e-06
-4.72923e-05
-8.2767e-06
-7.09889e-05
-1.39138e-05
-8.93292e-05
-2.05844e-05
-0.000102641
-2.80722e-05
-0.000111355
-3.61765e-05
-0.000115978
-4.4714e-05
-0.000117031
-5.35228e-05
-0.00011505
-6.24596e-05
-0.000110572
-7.13961e-05
-0.000104102
-8.02149e-05
-9.60898e-05
-8.8805e-05
-8.69037e-05
-9.70568e-05
-7.68169e-05
-0.000104858
-6.59898e-05
-0.000112087
-5.44579e-05
-0.000118617
-4.21221e-05
-0.000124308
-2.87406e-05
-0.000129018
-1.39239e-05
-0.000132606
2.86464e-06
-0.00013495
2.22975e-05
-0.000135957
4.51522e-05
-0.000135585
7.22561e-05
-0.000133841
0.00010433
0.00014181
-0.000130742
-1.07003e-06
-1.69638e-05
-3.9315e-06
-4.44308e-05
-8.31328e-06
-6.66071e-05
-1.39559e-05
-8.36866e-05
-2.06159e-05
-9.59805e-05
-2.807e-05
-0.000103901
-3.61127e-05
-0.000107935
-4.45533e-05
-0.00010859
-5.32222e-05
-0.000106381
-6.19682e-05
-0.000101826
-7.06546e-05
-9.54159e-05
-7.91548e-05
-8.75896e-05
-8.73472e-05
-7.87113e-05
-9.51103e-05
-6.90538e-05
-0.000102318
-5.87825e-05
-0.000108833
-4.79424e-05
-0.000114509
-3.64459e-05
-0.000119187
-2.40626e-05
-0.000122701
-1.041e-05
-0.000124888
5.05175e-06
-0.000125605
2.30142e-05
-0.000124747
4.42945e-05
-0.000122274
6.97829e-05
-0.000118221
0.000100277
0.00013624
-0.000112652
-1.07723e-06
-1.58865e-05
-3.95185e-06
-4.15562e-05
-8.3451e-06
-6.22138e-05
-1.39902e-05
-7.80416e-05
-2.06367e-05
-8.9334e-05
-2.80543e-05
-9.64832e-05
-3.60325e-05
-9.99567e-05
-4.43747e-05
-0.000100248
-5.29031e-05
-9.78525e-05
-6.14592e-05
-9.32697e-05
-6.98982e-05
-8.69769e-05
-7.80843e-05
-7.94035e-05
-8.58857e-05
-7.09099e-05
-9.31691e-05
-6.17704e-05
-9.97944e-05
-5.21572e-05
-0.00010561
-4.21269e-05
-0.000110449
-3.16063e-05
-0.000114133
-2.03793e-05
-0.00011647
-8.07252e-06
-0.000117274
5.85585e-06
-0.000116379
2.21187e-05
-0.000113665
4.1581e-05
-0.000109095
6.52129e-05
-0.000102734
9.3916e-05
0.000128207
-9.47012e-05
-1.08385e-06
-1.48027e-05
-3.96994e-06
-3.86701e-05
-8.37219e-06
-5.78116e-05
-1.4017e-05
-7.23968e-05
-2.06469e-05
-8.2704e-05
-2.80256e-05
-8.91046e-05
-3.59368e-05
-9.20455e-05
-4.41786e-05
-9.2006e-05
-5.25665e-05
-8.94646e-05
-6.09342e-05
-8.4902e-05
-6.91291e-05
-7.87821e-05
-7.70066e-05
-7.1526e-05
-8.44251e-05
-6.34914e-05
-9.12401e-05
-5.49554e-05
-9.72981e-05
-4.60992e-05
-0.000102432
-3.69931e-05
-0.000106457
-2.75814e-05
-0.000109171
-1.76652e-05
-0.00011036
-6.88381e-06
-0.000109809
5.30495e-06
-0.000107327
1.96367e-05
-0.000102778
3.70321e-05
-9.6125e-05
5.856e-05
-8.74667e-05
8.52577e-05
0.000117723
-7.69818e-05
-1.08985e-06
-1.37128e-05
-3.98569e-06
-3.57743e-05
-8.39436e-06
-5.34029e-05
-1.40357e-05
-6.67554e-05
-2.06463e-05
-7.60935e-05
-2.79828e-05
-8.17681e-05
-3.58242e-05
-8.4204e-05
-4.39639e-05
-8.38663e-05
-5.22106e-05
-8.12179e-05
-6.03911e-05
-7.67216e-05
-6.83449e-05
-7.08282e-05
-7.59195e-05
-6.39514e-05
-8.29637e-05
-5.64472e-05
-8.93222e-05
-4.85969e-05
-9.48289e-05
-4.05924e-05
-9.93015e-05
-3.25205e-05
-0.000102537
-2.43458e-05
-0.000104312
-1.58905e-05
-0.000104386
-6.81012e-06
-0.000102515
3.43452e-06
-9.84806e-05
1.56021e-05
-9.21251e-05
3.06766e-05
-8.34107e-05
4.98456e-05
-7.24713e-05
7.43183e-05
0.000104802
-5.95507e-05
-1.09517e-06
-1.26177e-05
-3.99883e-06
-3.28706e-05
-8.41106e-06
-4.89907e-05
-1.40455e-05
-6.11209e-05
-2.06329e-05
-6.95061e-05
-2.79241e-05
-7.44769e-05
-3.56921e-05
-7.6436e-05
-4.37269e-05
-7.58316e-05
-5.18309e-05
-7.31139e-05
-5.98241e-05
-6.87284e-05
-6.75389e-05
-6.31133e-05
-7.48149e-05
-5.66754e-05
-8.14922e-05
-4.97699e-05
-8.74052e-05
-4.26839e-05
-9.2376e-05
-3.56217e-05
-9.62077e-05
-2.86888e-05
-9.86801e-05
-2.18734e-05
-9.95473e-05
-1.50232e-05
-9.85427e-05
-7.8147e-06
-9.53925e-05
2.84299e-07
-8.98445e-05
1.00541e-05
-8.17162e-05
2.25483e-05
-7.09653e-05
3.90947e-05
-5.77649e-05
6.11179e-05
8.947e-05
-4.2433e-05
-1.0997e-06
-1.1518e-05
-4.00895e-06
-2.99614e-05
-8.42135e-06
-4.45783e-05
-1.40448e-05
-5.54975e-05
-2.06044e-05
-6.29464e-05
-2.78457e-05
-6.72357e-05
-3.55361e-05
-6.87457e-05
-4.34614e-05
-6.79063e-05
-5.14196e-05
-6.51557e-05
-5.92236e-05
-6.09244e-05
-6.66993e-05
-5.56376e-05
-7.36788e-05
-4.9696e-05
-7.99939e-05
-4.34547e-05
-8.54697e-05
-3.72081e-05
-8.9917e-05
-3.11743e-05
-9.31256e-05
-2.54802e-05
-9.48583e-05
-2.01408e-05
-9.48481e-05
-1.50334e-05
-9.28014e-05
-9.86135e-06
-8.84118e-05
-4.10535e-06
-8.13906e-05
3.0329e-06
-7.15238e-05
1.26814e-05
-5.87592e-05
2.63301e-05
-4.33228e-05
4.56816e-05
7.17903e-05
-2.56431e-05
-1.10325e-06
-1.04147e-05
-4.01542e-06
-2.70492e-05
-8.42395e-06
-4.01697e-05
-1.40313e-05
-4.98902e-05
-2.05575e-05
-5.64201e-05
-2.77428e-05
-6.00504e-05
-3.53495e-05
-6.1139e-05
-4.31594e-05
-6.00964e-05
-5.09659e-05
-5.73491e-05
-5.85762e-05
-5.33141e-05
-6.58094e-05
-4.84044e-05
-7.24907e-05
-4.30147e-05
-7.84443e-05
-3.75012e-05
-8.34864e-05
-3.2166e-05
-8.74177e-05
-2.72431e-05
-9.00154e-05
-2.28825e-05
-9.10265e-05
-1.91296e-05
-9.01638e-05
-1.58961e-05
-8.71068e-05
-1.29184e-05
-8.15144e-05
-9.69775e-06
-7.30569e-05
-5.42453e-06
-6.14795e-05
1.10397e-06
-4.67062e-05
1.15569e-05
-2.90381e-05
2.80135e-05
5.21157e-05
-9.36364e-06
-1.10563e-06
-9.30908e-06
-4.01752e-06
-2.41373e-05
-8.4173e-06
-3.577e-05
-1.40023e-05
-4.43052e-05
-2.04879e-05
-4.99345e-05
-2.76097e-05
-5.29286e-05
-3.51245e-05
-5.36242e-05
-4.28102e-05
-5.24107e-05
-5.04566e-05
-4.97028e-05
-5.78648e-05
-4.59058e-05
-6.4848e-05
-4.14212e-05
-7.12245e-05
-3.66382e-05
-7.68114e-05
-3.19143e-05
-8.14168e-05
-2.75606e-05
-8.48318e-05
-2.3828e-05
-8.68225e-05
-2.08918e-05
-8.71214e-05
-1.88307e-05
-8.54217e-05
-1.75957e-05
-8.1377e-05
-1.69632e-05
-7.46105e-05
-1.64643e-05
-6.47464e-05
-1.52886e-05
-5.14767e-05
-1.21656e-05
-3.46761e-05
-5.24376e-06
-1.46284e-05
7.96577e-06
2.97714e-05
7.71594e-06
-1.10659e-06
-8.20249e-06
-4.01436e-06
-2.12296e-05
-8.39952e-06
-3.13848e-05
-1.39546e-05
-3.87501e-05
-2.03908e-05
-4.34983e-05
-2.74392e-05
-4.58802e-05
-3.48518e-05
-4.62115e-05
-4.24016e-05
-4.4861e-05
-4.98755e-05
-4.22289e-05
-5.70692e-05
-3.87121e-05
-6.37895e-05
-3.47009e-05
-6.98485e-05
-3.05792e-05
-7.50562e-05
-2.67066e-05
-7.92132e-05
-2.34036e-05
-8.2102e-05
-2.09392e-05
-8.34782e-05
-1.95156e-05
-8.30613e-05
-1.92476e-05
-8.0527e-05
-2.01301e-05
-7.55036e-05
-2.19865e-05
-6.7579e-05
-2.43889e-05
-5.6328e-05
-2.65397e-05
-4.13794e-05
-2.71142e-05
-2.25192e-05
-2.4104e-05
2.77243e-07
-1.48307e-05
4.80895e-06
2.52397e-05
-1.10585e-06
-7.09664e-06
-4.00493e-06
-1.83305e-05
-8.36851e-06
-2.70212e-05
-1.38848e-05
-3.32338e-05
-2.02608e-05
-3.71223e-05
-2.72234e-05
-3.89176e-05
-3.45203e-05
-3.89146e-05
-4.19195e-05
-3.74618e-05
-4.92042e-05
-3.49442e-05
-5.61658e-05
-3.17505e-05
-6.26045e-05
-2.82623e-05
-6.83258e-05
-2.48578e-05
-7.31332e-05
-2.18992e-05
-7.68198e-05
-1.9717e-05
-7.91601e-05
-1.8599e-05
-7.99002e-05
-1.87754e-05
-7.87482e-05
-2.03996e-05
-7.53638e-05
-2.35145e-05
-6.93524e-05
-2.79979e-05
-6.02678e-05
-3.34735e-05
-4.7635e-05
-3.91725e-05
-3.10148e-05
-4.37345e-05
-1.01517e-05
-4.4967e-05
1.47343e-05
-3.97167e-05
-2.33689e-05
4.29121e-05
-1.1031e-06
-5.99354e-06
-3.98816e-06
-1.54454e-05
-8.32196e-06
-2.26874e-05
-1.37887e-05
-2.77671e-05
-2.00916e-05
-3.08194e-05
-2.69539e-05
-3.20554e-05
-3.41183e-05
-3.17502e-05
-4.13482e-05
-3.02318e-05
-4.84228e-05
-2.78697e-05
-5.51287e-05
-2.50445e-05
-6.126e-05
-2.2131e-05
-6.66155e-05
-1.95024e-05
-7.09914e-05
-1.75232e-05
-7.41738e-05
-1.65347e-05
-7.59291e-05
-1.68436e-05
-7.59951e-05
-1.87095e-05
-7.40693e-05
-2.23255e-05
-6.97977e-05
-2.77861e-05
-6.27656e-05
-3.503e-05
-5.24952e-05
-4.37439e-05
-3.84627e-05
-5.32051e-05
-2.01575e-05
-6.20396e-05
2.76257e-06
-6.7887e-05
3.01782e-05
-6.71323e-05
-5.44531e-05
6.12625e-05
-1.09802e-06
-4.89552e-06
-3.96289e-06
-1.25805e-05
-8.25746e-06
-1.83929e-05
-1.36623e-05
-2.23622e-05
-1.98771e-05
-2.46046e-05
-2.66212e-05
-2.53113e-05
-3.36332e-05
-2.47381e-05
-4.0671e-05
-2.31941e-05
-4.75092e-05
-2.10315e-05
-5.39301e-05
-1.86237e-05
-5.97209e-05
-1.63402e-05
-6.46732e-05
-1.45501e-05
-6.85758e-05
-1.36206e-05
-7.12069e-05
-1.39036e-05
-7.23252e-05
-1.57252e-05
-7.16601e-05
-1.93745e-05
-6.88999e-05
-2.50857e-05
-6.36791e-05
-3.30069e-05
-5.55659e-05
-4.31432e-05
-4.40549e-05
-5.52549e-05
-2.85762e-05
-6.86838e-05
-8.54569e-06
-8.20701e-05
1.64838e-05
-9.29165e-05
4.64978e-05
-9.71464e-05
-8.8579e-05
8.06237e-05
-1.09027e-06
-3.80525e-06
-3.92795e-06
-9.74286e-06
-8.17251e-06
-1.41483e-05
-1.35013e-05
-1.70334e-05
-1.96106e-05
-1.84953e-05
-2.62161e-05
-1.87058e-05
-3.30521e-05
-1.79021e-05
-3.98709e-05
-1.63753e-05
-4.64413e-05
-1.44611e-05
-5.25409e-05
-1.2524e-05
-5.79504e-05
-1.09307e-05
-6.24527e-05
-1.00478e-05
-6.58284e-05
-1.02449e-05
-6.78473e-05
-1.18847e-05
-6.82598e-05
-1.53128e-05
-6.67867e-05
-2.08476e-05
-6.31079e-05
-2.87645e-05
-5.68483e-05
-3.92666e-05
-4.75625e-05
-5.24289e-05
-3.47228e-05
-6.80946e-05
-1.77188e-05
-8.56878e-05
4.1051e-06
-0.000103894
3.13077e-05
-0.000120119
6.40064e-05
-0.000129845
-0.000125916
0.000101343
-1.07955e-06
-2.7257e-06
-3.88219e-06
-6.94022e-06
-8.06465e-06
-9.96586e-06
-1.33014e-05
-1.17966e-05
-1.92857e-05
-1.2511e-05
-2.57292e-05
-1.22622e-05
-3.23619e-05
-1.12695e-05
-3.89302e-05
-9.8069e-06
-4.51965e-05
-8.19486e-06
-5.09322e-05
-6.78823e-06
-5.5911e-05
-5.9519e-06
-5.99068e-05
-6.05202e-06
-6.26904e-05
-7.46127e-06
-6.4022e-05
-1.05531e-05
-6.36425e-05
-1.56924e-05
-6.12638e-05
-2.32262e-05
-5.65576e-05
-3.34707e-05
-4.91407e-05
-4.66835e-05
-3.85581e-05
-6.30116e-05
-2.42655e-05
-8.23871e-05
-5.61984e-06
-0.000104333
1.80974e-05
-0.000127611
4.75612e-05
-0.000149583
8.30427e-05
-0.000165327
-0.000166645
0.000123772
-1.06553e-06
-1.66017e-06
-3.82449e-06
-4.18126e-06
-7.9315e-06
-5.85886e-06
-1.30586e-05
-6.66954e-06
-1.88958e-05
-6.67381e-06
-2.51512e-05
-6.00683e-06
-3.15498e-05
-4.87092e-06
-3.78319e-05
-3.52486e-06
-4.3752e-05
-2.27467e-06
-4.9075e-05
-1.46526e-06
-5.35662e-05
-1.46072e-06
-5.69892e-05
-2.62899e-06
-5.91038e-05
-5.34669e-06
-5.96588e-05
-9.99809e-06
-5.83843e-05
-1.69669e-05
-5.49822e-05
-2.66284e-05
-4.91154e-05
-3.93374e-05
-4.03939e-05
-5.5405e-05
-2.83566e-05
-7.50489e-05
-1.245e-05
-9.82938e-05
7.99068e-06
-0.000124774
3.37383e-05
-0.000153359
6.55766e-05
-0.000181421
0.000103949
-0.000203699
-0.000210944
0.000148248
-1.04794e-06
-6.12231e-07
-3.75383e-06
-1.47536e-06
-7.77085e-06
-1.84184e-06
-1.27689e-05
-1.67148e-06
-1.84351e-05
-1.00765e-06
-2.44734e-05
3.14552e-08
-3.06035e-05
1.25925e-06
-3.65594e-05
2.43099e-06
-4.20869e-05
3.25286e-06
-4.69416e-05
3.38944e-06
-5.08804e-05
2.47803e-06
-5.36553e-05
1.45981e-07
-5.5013e-05
-3.98906e-06
-5.4689e-05
-1.0322e-05
-5.24006e-05
-1.92553e-05
-4.78381e-05
-3.11909e-05
-4.06548e-05
-4.65207e-05
-3.04544e-05
-6.56054e-05
-1.67729e-05
-8.87304e-05
9.45428e-07
-0.000116012
2.33747e-05
-0.000147203
5.13241e-05
-0.000181308
8.56753e-05
-0.000215772
0.000127052
-0.000245075
-0.000258975
0.000175082
-1.02653e-06
4.14304e-07
-3.66932e-06
1.16742e-06
-7.58075e-06
2.06959e-06
-1.24289e-05
3.17671e-06
-1.7898e-05
4.46137e-06
-2.36876e-05
5.82107e-06
-2.95119e-05
7.08356e-06
-3.50973e-05
8.01641e-06
-4.01806e-05
8.33621e-06
-4.45066e-05
7.71544e-06
-4.78211e-05
5.79251e-06
-4.9864e-05
2.18885e-06
-5.03668e-05
-3.48629e-06
-4.90495e-05
-1.16393e-05
-4.56143e-05
-2.26905e-05
-3.97375e-05
-3.70676e-05
-3.10618e-05
-5.51964e-05
-1.91844e-05
-7.74828e-05
-3.64083e-06
-0.000104274
1.61194e-05
-0.000135772
4.07662e-05
-0.00017185
7.11242e-05
-0.000211666
0.000108151
-0.000252799
0.000152647
-0.000289571
-0.000310864
0.000204536
-1.00112e-06
1.41542e-06
-3.57021e-06
3.73651e-06
-7.35954e-06
5.85893e-06
-1.20357e-05
7.85288e-06
-1.72798e-05
9.70542e-06
-2.27869e-05
1.13282e-05
-2.8265e-05
1.25616e-05
-3.34324e-05
1.31838e-05
-3.80155e-05
1.29193e-05
-4.17468e-05
1.14467e-05
-4.43593e-05
8.40504e-06
-4.55787e-05
3.40829e-06
-4.512e-05
-3.94502e-06
-4.2685e-05
-1.40743e-05
-3.79582e-05
-2.74173e-05
-3.05999e-05
-4.44259e-05
-2.02398e-05
-6.55565e-05
-6.46819e-06
-9.12545e-05
1.11778e-05
-0.00012192
3.32372e-05
-0.000157832
6.03614e-05
-0.000198974
9.33658e-05
-0.000244671
0.000133253
-0.000292686
0.000180982
-0.0003373
-0.000366695
0.000236813
-9.71552e-07
2.38697e-06
-3.45595e-06
6.22091e-06
-7.10596e-06
9.50893e-06
-1.15869e-05
1.23338e-05
-1.65767e-05
1.46952e-05
-2.17656e-05
1.65171e-05
-2.68546e-05
1.76506e-05
-3.15531e-05
1.78824e-05
-3.55764e-05
1.69427e-05
-3.86429e-05
1.45131e-05
-4.04704e-05
1.02326e-05
-4.0769e-05
3.70684e-06
-3.9235e-05
-5.47898e-06
-3.55501e-05
-1.77592e-05
-2.93782e-05
-3.35892e-05
-2.0361e-05
-5.34431e-05
-8.11329e-06
-7.78042e-05
7.78273e-06
-0.00010715
2.77872e-05
-0.000141925
5.24218e-05
-0.000182466
8.23059e-05
-0.000228859
0.000118219
-0.000280584
0.000161169
-0.000335636
0.000212238
-0.00038837
-0.000426496
0.000272039
-9.37761e-07
3.32474e-06
-3.32621e-06
8.60936e-06
-6.81914e-06
1.30019e-05
-1.10808e-05
1.65954e-05
-1.57858e-05
1.94002e-05
-2.06191e-05
2.13505e-05
-2.52742e-05
2.23057e-05
-2.94505e-05
2.20587e-05
-3.28511e-05
2.03432e-05
-3.51791e-05
1.68411e-05
-3.6135e-05
1.11885e-05
-3.54107e-05
2.9825e-06
-3.26826e-05
-8.20702e-06
-2.76101e-05
-2.28318e-05
-1.9834e-05
-4.13653e-05
-8.97494e-06
-6.43021e-05
5.36933e-06
-9.21485e-05
2.3626e-05
-0.000125407
4.62521e-05
-0.000164551
7.37475e-05
-0.000209962
0.000106687
-0.000261798
0.000145788
-0.000319685
0.000192015
-0.000381863
0.000246526
-0.000442881
-0.000490227
0.000310258
-8.99739e-07
4.22447e-06
-3.18087e-06
1.08905e-05
-6.4987e-06
1.63197e-05
-1.05165e-05
2.06132e-05
-1.49055e-05
2.37892e-05
-1.93448e-05
2.57898e-05
-2.35195e-05
2.64804e-05
-2.71184e-05
2.56576e-05
-2.9831e-05
2.30558e-05
-3.13441e-05
1.83543e-05
-3.13391e-05
1.11835e-05
-2.94872e-05
1.13056e-06
-2.54433e-05
-1.2251e-05
-1.88425e-05
-2.94325e-05
-9.301e-06
-5.09068e-05
3.58407e-06
-7.71872e-05
2.02339e-05
-0.000108798
4.10866e-05
-0.00014626
6.65958e-05
-0.00019006
9.72364e-05
-0.000240602
0.000133528
-0.00029809
0.000176102
-0.000362258
0.000225827
-0.000431589
0.000283873
-0.000500927
-0.000557776
0.000351422
-8.57548e-07
5.08202e-06
-3.02005e-06
1.3053e-05
-6.14472e-06
1.94444e-05
-9.89384e-06
2.43623e-05
-1.39351e-05
2.78305e-05
-1.79411e-05
2.97958e-05
-2.15881e-05
3.01274e-05
-2.45531e-05
2.86226e-05
-2.6511e-05
2.50137e-05
-2.71313e-05
1.89745e-05
-2.60745e-05
1.01267e-05
-2.29892e-05
-1.95472e-06
-1.75068e-05
-1.77334e-05
-9.23731e-06
-3.7702e-05
2.22958e-06
-6.23737e-05
1.73216e-05
-9.22793e-05
3.64806e-05
-0.000127957
6.01564e-05
-0.000169936
8.87996e-05
-0.000218703
0.000122858
-0.000274661
0.00016279
-0.000338021
0.000209115
-0.000408584
0.00026256
-0.000485033
0.000324228
-0.000562596
-0.000628949
0.000395401
-8.11324e-07
5.89335e-06
-2.84412e-06
1.50858e-05
-5.75776e-06
2.2358e-05
-9.21356e-06
2.78181e-05
-1.28752e-05
3.14922e-05
-1.64086e-05
3.33292e-05
-1.94801e-05
3.31988e-05
-2.1754e-05
3.08965e-05
-2.28898e-05
2.61495e-05
-2.25383e-05
1.86231e-05
-2.03385e-05
7.92689e-06
-1.59147e-05
-6.37861e-06
-8.87259e-06
-2.47755e-05
1.20347e-06
-4.7778e-05
1.4751e-05
-7.59212e-05
3.22237e-05
-0.000109752
5.40844e-05
-0.000149818
8.07956e-05
-0.000196647
0.000112805
-0.000250713
0.000150534
-0.00031239
0.000194371
-0.000381859
0.000244714
-0.000458926
0.000302089
-0.000542409
0.000367466
-0.000627972
-0.000703471
0.000441988
-7.61267e-07
6.65461e-06
-2.65366e-06
1.69782e-05
-5.33886e-06
2.50432e-05
-8.47706e-06
3.09563e-05
-1.17277e-05
3.47428e-05
-1.47492e-05
3.63507e-05
-1.71974e-05
3.56471e-05
-1.87233e-05
3.24224e-05
-1.89697e-05
2.6396e-05
-1.75681e-05
1.72215e-05
-1.41348e-05
4.49363e-06
-8.26885e-06
-1.22446e-05
4.50489e-07
-3.34948e-05
1.2466e-05
-5.97936e-05
2.82419e-05
-9.16972e-05
4.82577e-05
-0.000129768
7.29973e-05
-0.000174558
0.000102936
-0.000226585
0.000138518
-0.000286295
0.000180138
-0.00035401
0.000228118
-0.000429838
0.000282718
-0.000513526
0.000344227
-0.000603917
0.000413403
-0.000697149
-0.000780983
0.000490916
-7.07641e-07
7.36225e-06
-2.44948e-06
1.872e-05
-4.88947e-06
2.74832e-05
-7.68648e-06
3.37533e-05
-1.04952e-05
3.75515e-05
-1.29662e-05
3.88217e-05
-1.47442e-05
3.7425e-05
-1.54658e-05
3.3144e-05
-1.47566e-05
2.56867e-05
-1.22276e-05
1.46925e-05
-7.4723e-06
-2.61657e-07
-6.39265e-08
-1.96529e-05
1.04456e-05
-4.40043e-05
2.45259e-05
-7.38739e-05
4.26677e-05
-0.000109839
6.53745e-05
-0.000152475
9.31505e-05
-0.000202334
0.000126482
-0.000259916
0.000165812
-0.000325625
0.000211508
-0.000399706
0.000263828
-0.000482158
0.000322896
-0.000572594
0.000388731
-0.000669753
0.000461822
-0.000770239
-0.000861043
0.000541881
-6.50764e-07
8.01302e-06
-2.23256e-06
2.03018e-05
-4.41144e-06
2.96621e-05
-6.84463e-06
3.61865e-05
-9.1817e-06
3.98886e-05
-1.10646e-05
4.07047e-05
-1.21264e-05
3.84868e-05
-1.19888e-05
3.30063e-05
-1.02592e-05
2.39572e-05
-6.52794e-06
1.09612e-05
-3.65037e-07
-6.42456e-06
8.68184e-06
-2.86998e-05
2.10878e-05
-5.64103e-05