/*--------------------------------*- C++ -*----------------------------------*\
  =========                 |
  \\      /  F ield         | OpenFOAM: The Open Source CFD Toolbox
   \\    /   O peration     | Website:  https://openfoam.org
    \\  /    A nd           | Version:  7
     \\/     M anipulation  |
\*---------------------------------------------------------------------------*/
FoamFile
{
    version     2.0;
    format      ascii;
    class       volVectorField;
    location    "300";
    object      U;
}
// * * * * * * * * * * * * * * * * * * * * * * * * * * * * * * * * * * * * * //

dimensions      [0 1 -1 0 0 0 0];

internalField   nonuniform List<vector> 
57250
(
(1.39705e-05 -0.0256744 -3.27872e-21)
(-0.00087047 -0.0669818 -1.64128e-21)
(-0.00327219 -0.100019 2.62977e-21)
(-0.00682527 -0.125582 -2.10598e-21)
(-0.0114108 -0.144521 1.406e-22)
(-0.0168977 -0.157711 9.50243e-21)
(-0.0231447 -0.166025 9.78079e-21)
(-0.0300182 -0.170316 3.0637e-22)
(-0.0373945 -0.171389 5.52271e-21)
(-0.0451623 -0.169976 3.87473e-21)
(-0.0532246 -0.166717 -9.52003e-21)
(-0.0615001 -0.162146 -5.73883e-21)
(-0.0699223 -0.156682 2.74458e-21)
(-0.0784391 -0.150631 -2.63645e-21)
(-0.0870117 -0.144193 -3.08084e-21)
(-0.0956131 -0.13747 3.8562e-21)
(-0.104227 -0.13048 -4.8498e-21)
(-0.112847 -0.123176 -7.56286e-21)
(-0.121474 -0.115458 1.38142e-20)
(-0.130119 -0.107187 2.03939e-21)
(-0.138795 -0.0981942 4.85046e-21)
(-0.147521 -0.0882924 1.34049e-20)
(-0.156336 -0.0772779 3.28985e-22)
(-0.165196 -0.0649365 -1.66676e-21)
(-0.174026 -0.0510193 1.30464e-20)
(0.000387247 -0.0252371 7.11343e-21)
(3.16579e-05 -0.0657641 3.16628e-21)
(-0.00206164 -0.0981067 -6.46589e-21)
(-0.00546609 -0.123057 1.43493e-20)
(-0.0100294 -0.141468 -2.87525e-21)
(-0.0155916 -0.154213 1.39609e-20)
(-0.021986 -0.16216 4.37464e-21)
(-0.0290589 -0.166156 4.98081e-21)
(-0.0366704 -0.166999 -8.94502e-21)
(-0.044697 -0.165414 2.13993e-21)
(-0.0530336 -0.162031 2.52754e-20)
(-0.0615936 -0.157374 9.44793e-21)
(-0.0703079 -0.151855 -1.49816e-20)
(-0.0791242 -0.145773 -8.00521e-22)
(-0.0880051 -0.139321 1.83781e-20)
(-0.0969263 -0.132594 1.40091e-21)
(-0.105875 -0.125606 1.36355e-20)
(-0.114848 -0.118305 -1.4781e-20)
(-0.123852 -0.110588 -1.32303e-20)
(-0.132899 -0.10231 -2.69609e-20)
(-0.142007 -0.0933032 -3.4312e-21)
(-0.151197 -0.0833775 -2.80928e-20)
(-0.160508 -0.0723301 2.54211e-20)
(-0.169892 -0.0599494 8.44426e-21)
(-0.179261 -0.0459839 1.1871e-20)
(0.000746593 -0.0247585 1.21758e-21)
(0.000899802 -0.0644472 -2.1419e-22)
(-0.000895224 -0.0960579 -2.37942e-20)
(-0.00415376 -0.120376 -1.71923e-20)
(-0.00869095 -0.138249 8.26413e-21)
(-0.0143184 -0.150548 -1.89854e-20)
(-0.0208448 -0.158134 1.24207e-20)
(-0.0280965 -0.161846 -3.86093e-21)
(-0.0359179 -0.162472 5.50468e-21)
(-0.0441736 -0.160725 4.15733e-21)
(-0.0527503 -0.157228 -5.50708e-20)
(-0.0615559 -0.152494 1.24413e-20)
(-0.0705187 -0.146927 1.17615e-20)
(-0.0795859 -0.140818 1.15455e-20)
(-0.088721 -0.134353 3.04253e-20)
(-0.0979019 -0.127622 5.06027e-21)
(-0.107119 -0.120635 -3.73006e-21)
(-0.116372 -0.113334 3.25199e-20)
(-0.125672 -0.105612 1.86208e-20)
(-0.135033 -0.0973248 5.24244e-20)
(-0.144476 -0.0883 -1.28486e-20)
(-0.154024 -0.0783481 5.18942e-20)
(-0.163718 -0.0672677 -6.29614e-20)
(-0.173502 -0.0548508 -1.33647e-20)
(-0.183275 -0.0408444 7.82983e-21)
(0.00109041 -0.0242413 1.54364e-20)
(0.00173018 -0.0630379 -2.23685e-21)
(0.00022194 -0.0938824 2.66682e-20)
(-0.00289423 -0.117548 1.23072e-20)
(-0.00740185 -0.134877 -3.02271e-20)
(-0.0130847 -0.146732 1.48253e-20)
(-0.0197278 -0.153964 -3.69141e-20)
(-0.0271378 -0.157402 -8.91461e-21)
(-0.0351439 -0.157823 2.0181e-20)
(-0.0435991 -0.155928 -4.20049e-20)
(-0.0523817 -0.152328 6.61926e-20)
(-0.0613941 -0.147527 -9.34326e-21)
(-0.0705619 -0.141919 -1.24761e-21)
(-0.0798311 -0.135788 -3.98309e-20)
(-0.089166 -0.129313 -4.41916e-20)
(-0.0985463 -0.12258 -5.40763e-21)
(-0.107965 -0.115592 -2.79319e-21)
(-0.117424 -0.10829 -8.15569e-20)
(-0.126938 -0.100563 -7.36891e-20)
(-0.136523 -0.0922634 -5.54018e-21)
(-0.146203 -0.083219 2.48094e-20)
(-0.156002 -0.0732402 -1.81008e-20)
(-0.165965 -0.0621281 -1.71071e-20)
(-0.176024 -0.0496788 1.06001e-20)
(-0.18606 -0.035639 2.16024e-20)
(0.00141723 -0.0236884 -2.56946e-20)
(0.00251931 -0.0615434 -5.61828e-21)
(0.00128506 -0.0915908 -9.57596e-21)
(-0.00169309 -0.114588 2.86614e-20)
(-0.00616814 -0.131367 1.57553e-20)
(-0.0118971 -0.142781 -4.2243e-20)
(-0.0186416 -0.149668 3.61217e-20)
(-0.0261898 -0.152843 2.92438e-20)
(-0.0343556 -0.153071 -1.01107e-20)
(-0.0429809 -0.151041 6.6276e-20)
(-0.0519355 -0.14735 -6.40392e-20)
(-0.0611163 -0.142493 3.94703e-20)
(-0.0704457 -0.136853 -4.67185e-20)
(-0.0798685 -0.130707 7.75063e-20)
(-0.0893491 -0.124227 3.03217e-21)
(-0.0988684 -0.117494 -3.76782e-20)
(-0.108421 -0.110507 -1.50557e-21)
(-0.118013 -0.103204 8.81485e-20)
(-0.127658 -0.0954715 1.04211e-19)
(-0.137378 -0.0871596 -5.57011e-20)
(-0.147196 -0.0780957 -7.57963e-20)
(-0.157139 -0.0680909 5.61506e-20)
(-0.167254 -0.0569498 -6.61225e-21)
(-0.177462 -0.0444728 1.39674e-20)
(-0.187621 -0.0304075 1.56403e-20)
(0.00172574 -0.0231027 1.60325e-22)
(0.00326402 -0.059971 3.00206e-20)
(0.00228969 -0.0891932 -7.65424e-22)
(-0.000555664 -0.111507 2.08802e-20)
(-0.0049958 -0.127733 9.23549e-21)
(-0.0107618 -0.138709 6.51095e-20)
(-0.0175932 -0.14526 -4.32544e-20)
(-0.0252597 -0.148186 -6.59316e-20)
(-0.0335609 -0.148235 -2.26697e-20)
(-0.0423274 -0.146084 -1.74143e-20)
(-0.0514207 -0.142315 -3.58302e-20)
(-0.0607321 -0.137412 -4.73002e-21)
(-0.0701804 -0.13175 -5.23224e-22)
(-0.0797089 -0.125597 -1.89614e-20)
(-0.0892816 -0.119118 1.86937e-20)
(-0.0988802 -0.11239 -9.13032e-21)
(-0.108501 -0.105408 6.60203e-20)
(-0.118151 -0.0981071 5.15658e-20)
(-0.127847 -0.0903704 -1.05447e-20)
(-0.137611 -0.082048 4.39052e-20)
(-0.147469 -0.0729665 6.37454e-20)
(-0.157449 -0.0629383 1.4607e-21)
(-0.167599 -0.0517721 8.50987e-20)
(-0.177832 -0.0392731 -5.6134e-20)
(-0.187974 -0.0251906 -8.35603e-20)
(0.00201476 -0.022487 3.37859e-20)
(0.00396146 -0.0583277 3.13741e-20)
(0.00323172 -0.0867001 -2.27625e-20)
(0.00051305 -0.108319 1.56101e-20)
(-0.00389055 -0.123989 -2.4088e-21)
(-0.00968542 -0.134533 -2.56234e-20)
(-0.0165895 -0.140758 -7.27413e-21)
(-0.0243552 -0.143447 9.66853e-20)
(-0.032768 -0.143332 5.51402e-20)
(-0.0416475 -0.141073 -6.18082e-21)
(-0.050847 -0.137241 9.59793e-20)
(-0.060252 -0.132306 1.28393e-20)
(-0.0697775 -0.126633 1.67167e-20)
(-0.0793647 -0.120481 -9.92395e-20)
(-0.0889769 -0.114012 -6.14285e-20)
(-0.098596 -0.107295 -1.47222e-20)
(-0.108219 -0.100324 -1.04789e-19)
(-0.117854 -0.0930291 -2.94354e-20)
(-0.12752 -0.0852927 -5.92649e-20)
(-0.13724 -0.0769636 1.24177e-19)
(-0.147041 -0.0678684 -4.40222e-20)
(-0.156951 -0.0578211 -1.65305e-20)
(-0.167023 -0.046635 -1.00067e-19)
(-0.177157 -0.0341205 6.78549e-20)
(-0.187145 -0.0200293 3.58236e-20)
(0.00228326 -0.0218443 -2.39922e-20)
(0.00460905 -0.0566207 -2.28276e-20)
(0.0041074 -0.0841214 3.31935e-20)
(0.00150832 -0.105035 -5.2531e-20)
(-0.00285793 -0.120149 -4.22277e-20)
(-0.00867409 -0.130267 1.55945e-20)
(-0.0156375 -0.136177 1.69867e-20)
(-0.023484 -0.138643 -8.84341e-20)
(-0.0319856 -0.138379 -1.81517e-20)
(-0.0409509 -0.136029 6.70966e-20)
(-0.0502251 -0.132148 -1.20855e-19)
(-0.0596878 -0.127194 -5.23057e-20)
(-0.0692499 -0.121522 1.41077e-20)
(-0.0788502 -0.115384 1.0447e-19)
(-0.0884506 -0.108934 -1.95811e-20)
(-0.0980329 -0.102237 5.29735e-20)
(-0.107594 -0.0952834 1.02459e-19)
(-0.117144 -0.0880014 -5.55113e-20)
(-0.1267 -0.0802717 -9.42958e-20)
(-0.136289 -0.0719419 7.38093e-22)
(-0.145937 -0.0628387 7.77929e-20)
(-0.155674 -0.0527783 1.66362e-20)
(-0.165556 -0.0415789 -6.42003e-21)
(-0.17547 -0.0290564 -8.91696e-20)
(-0.18517 -0.0149653 -3.34612e-20)
(0.00253035 -0.0211773 -2.41508e-20)
(0.00520452 -0.054857 -5.3404e-20)
(0.00491323 -0.0814672 -7.68536e-21)
(0.00242571 -0.101668 -7.61727e-20)
(-0.00190328 -0.116226 -5.62433e-20)
(-0.00773401 -0.125925 -6.14168e-20)
(-0.0147443 -0.131532 -3.8584e-20)
(-0.0226541 -0.13379 3.01501e-20)
(-0.0312225 -0.133393 1.33177e-20)
(-0.0402476 -0.130967 -7.96879e-21)
(-0.0495663 -0.127053 2.74207e-20)
(-0.0590522 -0.122096 9.25275e-20)
(-0.0686119 -0.116439 -3.41178e-20)
(-0.0781811 -0.110327 6.0541e-20)
(-0.0877204 -0.103907 3.83149e-20)
(-0.0972102 -0.097241 3.05852e-20)
(-0.106648 -0.0903151 7.45366e-20)
(-0.116042 -0.0830552 -7.08484e-20)
(-0.125413 -0.0753407 1.49899e-19)
(-0.134786 -0.0670184 -1.10565e-19)
(-0.144189 -0.0579152 5.7966e-20)
(-0.153651 -0.0478493 -7.10561e-20)
(-0.163234 -0.0366446 7.27054e-20)
(-0.172812 -0.0241222 -4.12487e-21)
(-0.182097 -0.01004 4.55906e-20)
(0.00275524 -0.0204887 5.36471e-20)
(0.00574582 -0.0530431 1.49884e-20)
(0.00564603 -0.078747 -7.92657e-21)
(0.003261 -0.0982289 1.23782e-19)
(-0.00103164 -0.112233 5.01329e-20)
(-0.00687117 -0.121522 7.66586e-20)
(-0.0139168 -0.126838 6.06227e-20)
(-0.0218736 -0.128903 6.17788e-20)
(-0.0304881 -0.128389 1.05613e-20)
(-0.0395481 -0.125906 6.1839e-20)
(-0.0488825 -0.121976 3.51904e-21)
(-0.0583587 -0.117031 -1.13629e-19)
(-0.0678786 -0.111405 2.57173e-20)
(-0.0773747 -0.105333 -8.53716e-20)
(-0.0868053 -0.0989572 1.80315e-20)
(-0.0961495 -0.0923342 -7.21325e-20)
(-0.105404 -0.0854476 -1.17463e-19)
(-0.114577 -0.0782213 -7.4884e-20)
(-0.123688 -0.0705329 -5.16081e-20)
(-0.132764 -0.0622286 -4.71248e-20)
(-0.141831 -0.0531354 -6.14995e-20)
(-0.150922 -0.0430735 -9.13877e-21)
(-0.160102 -0.0318726 -2.57341e-21)
(-0.169234 -0.0193591 6.44119e-20)
(-0.177982 -0.00529447 1.75035e-20)
(0.00295726 -0.019781 1.70406e-20)
(0.00623115 -0.0511855 -3.89976e-20)
(0.00630278 -0.0759701 -1.50757e-20)
(0.00401005 -0.0947292 -1.34402e-20)
(-0.000247956 -0.108183 -1.98183e-20)
(-0.00609116 -0.117071 1.08105e-19)
(-0.0131619 -0.12211 -8.21482e-20)
(-0.0211505 -0.123996 -6.91254e-20)
(-0.0297916 -0.123384 8.85858e-21)
(-0.0388632 -0.12086 -7.49078e-20)
(-0.0481861 -0.116932 5.66007e-20)
(-0.0576213 -0.112017 -3.00254e-20)
(-0.0670661 -0.106439 -7.24615e-20)
(-0.0764492 -0.100424 4.34598e-20)
(-0.0857261 -0.0941069 -6.17217e-20)
(-0.0948741 -0.0875418 -1.05302e-19)
(-0.103888 -0.0807089 1.42999e-19)
(-0.112776 -0.0735299 1.82635e-19)
(-0.121557 -0.0658811 -3.52216e-20)
(-0.130258 -0.0576077 8.71713e-20)
(-0.138905 -0.0485367 4.12622e-20)
(-0.147532 -0.03849 -3.45715e-20)
(-0.15621 -0.0273033 -5.45836e-20)
(-0.164791 -0.0148081 -9.62358e-20)
(-0.172889 -0.000769249 -2.81742e-20)
(0.00313584 -0.0190567 3.73152e-21)
(0.0066589 -0.0492903 9.42808e-20)
(0.0068808 -0.0731448 -3.84379e-20)
(0.00466923 -0.0911794 -2.71782e-20)
(0.000443234 -0.104088 2.83735e-20)
(-0.00539976 -0.112583 -7.52253e-20)
(-0.0124862 -0.117359 1.21648e-19)
(-0.0204928 -0.119084 -1.23398e-20)
(-0.0291424 -0.11839 3.46263e-20)
(-0.0382037 -0.115844 3.6329e-20)
(-0.0474896 -0.111937 3.54958e-20)
(-0.0568547 -0.107072 1.33836e-19)
(-0.0661911 -0.10156 1.561e-20)
(-0.0754236 -0.0956185 9.24113e-20)
(-0.0845045 -0.0893786 7.08856e-20)
(-0.0934086 -0.0828884 1.98747e-19)
(-0.102129 -0.0761259 -8.32309e-20)
(-0.110672 -0.0690107 2.17328e-20)
(-0.119056 -0.0614174 -3.69764e-20)
(-0.127308 -0.0531901 -1.67522e-19)
(-0.135456 -0.0441557 9.23257e-20)
(-0.143532 -0.0341374 1.16513e-19)
(-0.151613 -0.0229763 9.49376e-21)
(-0.159546 -0.0105092 9.5297e-20)
(-0.166891 0.00349628 4.33443e-20)
(0.00329053 -0.0183181 1.58996e-20)
(0.00702781 -0.047363 -6.84668e-20)
(0.0073778 -0.0702797 -7.41566e-21)
(0.00523514 -0.0875894 1.97033e-20)
(0.00103735 -0.0999573 -4.98332e-20)
(-0.00480233 -0.108073 -8.45852e-20)
(-0.0118964 -0.112598 -2.80005e-21)
(-0.0199083 -0.114179 2.74268e-20)
(-0.0285498 -0.113422 -8.33856e-20)
(-0.0375804 -0.110874 1.02283e-19)
(-0.0468055 -0.107008 -2.18975e-20)
(-0.0560732 -0.102211 1.60397e-20)
(-0.0652704 -0.0967846 1.20115e-19)
(-0.0743174 -0.0909374 -4.3118e-21)
(-0.0831629 -0.0847936 1.08044e-20)
(-0.0917788 -0.0783976 -6.13623e-20)
(-0.100156 -0.0717246 -1.352e-19)
(-0.108298 -0.0646918 -1.33168e-19)
(-0.116224 -0.0571726 8.99582e-20)
(-0.123958 -0.0490095 9.75805e-20)
(-0.13153 -0.0400283 -1.0883e-19)
(-0.138973 -0.0300533 -8.9029e-20)
(-0.146372 -0.0189306 2.08979e-19)
(-0.153567 -0.00650153 8.15624e-21)
(-0.160064 0.00746405 -3.633e-21)
(0.00342096 -0.0175672 -1.33816e-20)
(0.00733685 -0.0454089 8.57793e-20)
(0.00779198 -0.0673818 -4.62882e-20)
(0.00570497 -0.083969 -2.61155e-20)
(0.0015304 -0.095804 -4.00435e-20)
(-0.00430441 -0.103548 7.20614e-20)
(-0.0113991 -0.107839 -5.57773e-20)
(-0.0194047 -0.109293 -1.74042e-19)
(-0.0280227 -0.108492 1.32752e-19)
(-0.0370039 -0.105962 -2.36304e-19)
(-0.0461461 -0.102157 -6.22538e-20)
(-0.0552913 -0.0974502 -2.08762e-19)
(-0.0643208 -0.0921302 2.28353e-20)
(-0.0731502 -0.0863982 -4.13146e-20)
(-0.0817241 -0.0803718 2.4885e-20)
(-0.090011 -0.0740913 -9.14068e-20)
(-0.0979984 -0.0675291 1.71487e-19)
(-0.105689 -0.0606004 3.55412e-20)
(-0.113098 -0.0531765 -1.16334e-19)
(-0.120251 -0.045098 8.65496e-20)
(-0.127177 -0.0361893 2.09377e-19)
(-0.133913 -0.0262743 7.23943e-20)
(-0.14055 -0.0152039 -1.38416e-19)
(-0.146927 -0.00282307 1.52338e-20)
(-0.152492 0.0110976 7.00117e-20)
(0.00352686 -0.016806 -7.65344e-20)
(0.00758522 -0.043433 -5.68337e-20)
(0.00812185 -0.0644585 1.05686e-19)
(0.00607635 -0.0803252 9.22296e-20)
(0.00191864 -0.0916364 2.19992e-20)
(-0.00391099 -0.0990218 -4.34161e-20)
(-0.0110003 -0.103092 1.40525e-19)
(-0.0189891 -0.104437 2.41139e-19)
(-0.0275696 -0.103611 -1.47898e-19)
(-0.036484 -0.101119 2.47494e-19)
(-0.0455233 -0.0973968 1.03663e-19)
(-0.0545229 -0.0928021 2.22774e-19)
(-0.0633586 -0.0876113 -4.28713e-20)
(-0.0719411 -0.0820171 -1.45262e-19)
(-0.0802106 -0.0761311 -1.48855e-19)
(-0.0881314 -0.0699897 5.87445e-20)
(-0.0956877 -0.0635621 -5.41737e-21)
(-0.102879 -0.0567615 1.3435e-19)
(-0.10972 -0.0494568 1.57535e-19)
(-0.116233 -0.0414862 -2.14797e-19)
(-0.122451 -0.0326717 -3.49011e-19)
(-0.12841 -0.0228358 -1.15535e-19)
(-0.134213 -0.0118327 1.49487e-19)
(-0.139699 0.000489868 -1.54222e-19)
(-0.144259 0.0143624 -7.52942e-20)
(0.00360802 -0.0160365 6.68686e-20)
(0.00777224 -0.0414397 4.09621e-21)
(0.00836596 -0.0615159 -8.03871e-20)
(0.00634718 -0.0766672 1.29467e-20)
(0.002199 -0.0874625 5.58939e-20)
(-0.0036263 -0.0945017 1.63755e-19)
(-0.0107053 -0.0983674 -4.31195e-20)
(-0.018668 -0.09962 2.60789e-20)
(-0.027198 -0.0987896 1.2968e-20)
(-0.0360299 -0.0963571 -4.66744e-20)
(-0.0449478 -0.0927392 -9.84307e-20)
(-0.053781 -0.0882789 -2.44761e-19)
(-0.0623994 -0.0832407 -4.37122e-20)
(-0.0707087 -0.0778084 -3.78515e-20)
(-0.078644 -0.0720877 5.36123e-20)
(-0.0861656 -0.0661107 -3.84998e-20)
(-0.0932534 -0.059844 -5.27773e-20)
(-0.0999041 -0.0531981 -1.76588e-19)
(-0.106129 -0.0460392 -2.45555e-19)
(-0.111951 -0.0382027 3.58445e-19)
(-0.117401 -0.0295067 1.50213e-20)
(-0.122523 -0.019771 4.80935e-21)
(-0.127427 -0.00885147 -1.58089e-19)
(-0.131958 0.00340274 5.0279e-20)
(-0.135453 0.0172262 1.20456e-19)
(0.00366422 -0.0152603 -1.58759e-20)
(0.00789719 -0.0394335 1.083e-20)
(0.00852305 -0.0585603 3.72936e-20)
(0.00651532 -0.0730008 -5.83723e-20)
(0.00236883 -0.0832908 -6.05843e-20)
(-0.00345363 -0.0899965 -2.16629e-19)
(-0.0105185 -0.0936731 -1.67182e-19)
(-0.0184468 -0.094852 -1.55937e-19)
(-0.0269146 -0.0940365 -1.481e-19)
(-0.0356498 -0.0916844 9.84401e-20)
(-0.0444296 -0.0881933 -8.41832e-20)
(-0.0530774 -0.0838909 8.10341e-20)
(-0.0614574 -0.0790296 -1.53608e-20)
(-0.0694698 -0.0737846 8.16938e-20)
(-0.0770448 -0.0682554 5.06606e-20)
(-0.0841377 -0.0624701 3.22419e-20)
(-0.090724 -0.0563924 1.56035e-19)
(-0.0967966 -0.0499303 1.2701e-19)
(-0.102364 -0.0429468 -5.32678e-20)
(-0.107447 -0.0352733 -3.47072e-19)
(-0.112081 -0.0267231 2.03557e-19)
(-0.116309 -0.0171112 7.82105e-20)
(-0.120257 -0.00629288 2.6385e-20)
(-0.12378 0.00588311 1.08141e-19)
(-0.126157 0.0196588 -6.37008e-21)
(0.00369529 -0.014479 -1.22831e-19)
(0.00795949 -0.0374182 2.90279e-20)
(0.00859182 -0.055597 -5.41597e-20)
(0.00657905 -0.0693333 1.65229e-19)
(0.00242574 -0.0791277 4.75402e-20)
(-0.00339572 -0.0855131 2.28307e-19)
(-0.010443 -0.0890171 1.25573e-19)
(-0.0183298 -0.0901403 -9.43538e-20)
(-0.0267251 -0.0893593 9.30149e-20)
(-0.0353504 -0.0871088 -8.33808e-20)
(-0.043977 -0.0837672 -3.01235e-20)
(-0.0524222 -0.0796464 1.77054e-19)
(-0.0605449 -0.074987 1.67015e-19)
(-0.0682396 -0.0699554 1.09039e-19)
(-0.0754312 -0.0646452 -1.10187e-19)
(-0.0820697 -0.0590806 1.03728e-19)
(-0.0881259 -0.0532222 -3.35714e-19)
(-0.0935882 -0.0469753 6.71888e-20)
(-0.0984613 -0.0401993 -1.84093e-20)
(-0.102767 -0.0327208 1.28379e-19)
(-0.106538 -0.0243465 -1.5557e-19)
(-0.109825 -0.0148845 -1.15505e-19)
(-0.112767 -0.00418685 3.84913e-20)
(-0.115233 0.00790103 -9.14588e-20)
(-0.116453 0.0216331 -1.05945e-19)
(0.00370108 -0.0136939 7.66549e-20)
(0.0079587 -0.0353971 -2.25201e-20)
(0.0085713 -0.0526312 6.75112e-20)
(0.00653677 -0.0656705 1.21672e-19)
(0.00236804 -0.0749802 4.97892e-20)
(-0.00345455 -0.0810595 -1.34197e-19)
(-0.0104816 -0.0844053 1.13261e-19)
(-0.0183203 -0.0854912 1.21911e-19)
(-0.0266335 -0.0847644 -1.67014e-20)
(-0.035137 -0.0826368 -8.60857e-20)
(-0.0435964 -0.0794671 5.91422e-20)
(-0.0518237 -0.075552 -4.74367e-20)
(-0.0596721 -0.0711198 1.96002e-20)
(-0.0670306 -0.0663285 -1.23036e-19)
(-0.0738187 -0.0612658 9.56609e-20)
(-0.0799808 -0.0559519 2.81642e-20)
(-0.0854823 -0.0503448 1.40409e-19)
(-0.0903067 -0.0443466 -2.0671e-19)
(-0.094455 -0.0378129 3.93081e-19)
(-0.0979467 -0.0305641 1.67024e-19)
(-0.100817 -0.0223991 6.37055e-21)
(-0.103122 -0.0131159 1.23407e-19)
(-0.105015 -0.00256022 -4.24512e-20)
(-0.106386 0.00942944 1.98635e-19)
(-0.106416 0.0231246 1.62132e-19)
(0.00368151 -0.0129062 1.13644e-19)
(0.00789453 -0.0333734 -5.26498e-20)
(0.00846097 -0.0496672 5.93223e-20)
(0.00638762 -0.0620179 -8.65115e-20)
(0.00219443 -0.0708542 5.39756e-21)
(-0.00363166 -0.0766403 2.70566e-19)
(-0.0106359 -0.0798447 -3.24878e-20)
(-0.0184205 -0.08091 7.77939e-20)
(-0.0266426 -0.0802569 1.39533e-19)
(-0.035013 -0.078273 2.29295e-20)
(-0.0432924 -0.0752977 1.13192e-20)
(-0.0512875 -0.0716119 -9.6697e-20)
(-0.0588463 -0.0674324 4.81676e-21)
(-0.0658524 -0.0629085 3.89502e-20)
(-0.0722195 -0.0581223 -8.40371e-21)
(-0.0778862 -0.0530903 1.5552e-19)
(-0.0828121 -0.0477677 -1.34132e-19)
(-0.0869756 -0.0420536 2.0924e-19)
(-0.090373 -0.0357992 -5.54884e-20)
(-0.0930217 -0.0288179 -3.75466e-19)
(-0.0949584 -0.0208985 1.53612e-21)
(-0.0962448 -0.0118264 -1.86322e-19)
(-0.0970519 -0.00143603 -1.06993e-19)
(-0.0972964 0.0104448 -1.8286e-19)
(-0.0961132 0.0241125 -1.79827e-19)
(0.0036365 -0.0121171 -8.15426e-20)
(0.00776693 -0.03135 -3.60523e-21)
(0.00826069 -0.0467092 1.83954e-20)
(0.00613147 -0.0583801 -2.1096e-19)
(0.00190467 -0.0667555 6.7617e-20)
(-0.00392751 -0.0722626 8.27036e-20)
(-0.0109066 -0.0753393 -3.91636e-20)
(-0.0186312 -0.0764016 -1.74438e-20)
(-0.0267533 -0.0758408 -3.49595e-20)
(-0.0349798 -0.0740209 3.34931e-20)
(-0.0430667 -0.0712617 3.64005e-20)
(-0.0508163 -0.0678287 -5.50365e-20)
(-0.0580715 -0.0639268 -2.09579e-19)
(-0.0647105 -0.0596974 2.18186e-20)
(-0.0706412 -0.0552168 -7.38462e-20)
(-0.0757963 -0.0504982 -1.44369e-19)
(-0.0801292 -0.0454942 6.97453e-20)
(-0.0836124 -0.040101 -3.65359e-20)
(-0.0862373 -0.034165 -6.10471e-20)
(-0.0880184 -0.0274916 3.32452e-19)
(-0.0889935 -0.0198574 8.09979e-20)
(-0.0892309 -0.0110316 5.35735e-20)
(-0.0889204 -0.000832705 -1.25132e-19)
(-0.0880125 0.0109276 5.18742e-20)
(-0.0855974 0.0245795 1.11379e-19)
(0.00356606 -0.0113276 -1.8491e-20)
(0.00757601 -0.0293296 8.93224e-20)
(0.00797078 -0.0437609 -1.3986e-19)
(0.00576886 -0.0547619 -1.2503e-20)
(0.00149945 -0.0626878 -4.987e-20)
(-0.00434168 -0.0679305 1.13944e-19)
(-0.0112932 -0.0708941 -1.15963e-19)
(-0.0189513 -0.0719694 -1.20282e-19)
(-0.0269647 -0.0715189 -1.43772e-19)
(-0.0350363 -0.0698824 1.50311e-19)
(-0.0429187 -0.0673602 -6.10919e-20)
(-0.0504099 -0.0642025 1.33004e-19)
(-0.057348 -0.0606028 1.29831e-19)
(-0.0636062 -0.056694 2.36405e-20)
(-0.0690866 -0.0525478 2.63084e-19)
(-0.0737158 -0.0481741 -9.00849e-20)
(-0.0774408 -0.0435231 -6.55917e-20)
(-0.0802275 -0.0384884 6.17273e-20)
(-0.0820618 -0.0329114 -8.26658e-20)
(-0.0829548 -0.0265886 -2.29862e-19)
(-0.0829448 -0.0192823 1.22083e-19)
(-0.0821068 -0.0107415 1.43682e-19)
(-0.0806513 -0.000763027 1.22024e-19)
(-0.0785701 0.0108637 -3.61602e-20)
(-0.0749079 0.024513 -1.1638e-19)
(0.00347022 -0.0105387 -1.25678e-19)
(0.00732207 -0.0273148 -1.83842e-19)
(0.00759188 -0.040826 1.71392e-19)
(0.00530081 -0.051167 -4.5136e-20)
(0.000980231 -0.0586563 7.34352e-20)
(-0.00487218 -0.0636476 -2.12976e-19)
(-0.0117934 -0.0665134 -9.0569e-20)
(-0.0193783 -0.0676159 8.56515e-20)
(-0.0272734 -0.067293 -6.12231e-20)
(-0.0351788 -0.0658582 6.67482e-20)
(-0.0428443 -0.0635928 1.38861e-19)
(-0.0500639 -0.0607318 -1.53758e-19)
(-0.0566716 -0.0574572 -3.8692e-19)
(-0.0625357 -0.0538945 -2.38113e-19)
(-0.0675526 -0.0501104 -3.04033e-19)
(-0.0716428 -0.0461121 1.41371e-19)
(-0.0747465 -0.0418482 3.53369e-20)
(-0.0768228 -0.0372098 -1.0587e-19)
(-0.0778513 -0.0320332 -9.38701e-20)
(-0.0778385 -0.0261054 -2.97804e-20)
(-0.076823 -0.0191724 1.23628e-19)
(-0.0748862 -0.0109589 -1.39869e-19)
(-0.0722608 -0.00123303 1.76718e-19)
(-0.0689891 0.0102449 4.12166e-20)
(-0.064065 0.0239055 -2.73178e-20)
(0.00334907 -0.00975147 5.62492e-20)
(0.00700557 -0.0253082 2.6957e-19)
(0.00712498 -0.037908 -3.44551e-20)
(0.00472902 -0.0475997 9.4234e-20)
(0.000349302 -0.0546641 -5.34781e-20)
(-0.005516 -0.0594182 8.12272e-20)
(-0.0124033 -0.062199 -1.01029e-19)
(-0.0199073 -0.0633442 1.88854e-19)
(-0.0276738 -0.0631636 -1.48735e-20)
(-0.035401 -0.0619476 -6.72857e-20)
(-0.042836 -0.0599573 -2.43932e-19)
(-0.0497702 -0.0574127 -6.60498e-20)
(-0.0560335 -0.0544848 2.22603e-19)
(-0.0614896 -0.0512918 2.3666e-19)
(-0.0660296 -0.0478959 1.06106e-19)
(-0.0695678 -0.0443022 -8.73679e-20)
(-0.0720374 -0.040458 4.25363e-20)
(-0.0733903 -0.0362528 7.30052e-20)
(-0.0735989 -0.0315182 -1.67458e-19)
(-0.0726645 -0.026031 2.75682e-20)
(-0.0706248 -0.0195191 5.53925e-20)
(-0.0675673 -0.0116783 -1.53132e-19)
(-0.0637479 -0.00224068 -2.7273e-20)
(-0.0592705 0.00906998 -3.55765e-19)
(-0.0530668 0.022755 5.72457e-20)
(0.00320279 -0.00896695 -1.45459e-19)
(0.00662725 -0.0233123 -4.02286e-21)
(0.00657154 -0.0350105 -2.38336e-19)
(0.00405573 -0.0440638 4.52342e-20)
(-0.000389901 -0.0507151 -2.36633e-20)
(-0.00626865 -0.0552452 6.08159e-20)
(-0.0131173 -0.0579548 -2.06147e-19)
(-0.0205316 -0.0591547 -8.81344e-21)
(-0.0281579 -0.0591311 -2.05652e-21)
(-0.0356931 -0.0581489 -7.0567e-20)
(-0.042883 -0.0564501 5.68986e-20)
(-0.0495162 -0.0542397 2.34359e-19)
(-0.0554196 -0.051678 2.955e-20)
(-0.0604524 -0.048876 -1.70532e-19)
(-0.0645008 -0.045892 -2.93863e-19)
(-0.0674727 -0.0427296 2.8546e-19)
(-0.0692946 -0.039336 1.44308e-20)
(-0.0699106 -0.0355992 -5.28225e-20)
(-0.0692853 -0.0313471 1.31599e-20)
(-0.0674135 -0.0263461 3.76289e-20)
(-0.064331 -0.0203046 1.45398e-19)
(-0.0601302 -0.0128847 -2.58842e-19)
(-0.0550919 -0.00377411 1.8255e-19)
(-0.049395 0.00734761 1.6502e-20)
(-0.0418876 0.0210727 2.56025e-19)
(0.0030316 -0.0081862 -1.1961e-20)
(0.00618808 -0.0213299 -1.15197e-19)
(0.00593355 -0.0321371 1.55267e-19)
(0.00328409 -0.0405632 7.93783e-20)
(-0.00123304 -0.0468133 -1.73933e-19)
(-0.00712409 -0.0511308 -2.91733e-20)
(-0.013928 -0.0537827 2.15104e-19)
(-0.0212422 -0.055049 -6.25728e-20)
(-0.0287147 -0.0551944 -1.14039e-19)
(-0.0360425 -0.0544595 1.85228e-19)
(-0.0429701 -0.0530665 -4.30519e-20)
(-0.0492847 -0.0512057 1.53358e-19)
(-0.0548102 -0.0490269 1.4121e-19)
(-0.059402 -0.0466343 -1.46015e-19)
(-0.0629414 -0.044083 2.0082e-19)
(-0.0653305 -0.0413758 -7.88454e-20)
(-0.0664887 -0.03846 -2.19391e-19)
(-0.066352 -0.035224 1.13825e-20)
(-0.0648768 -0.0314924 8.63965e-20)
(-0.0620501 -0.0270223 1.30701e-20)
(-0.057904 -0.0215009 -1.98328e-19)
(-0.0525349 -0.0145524 1.6459e-19)
(-0.0462487 -0.00581007 1.96607e-19)
(-0.0393186 0.00510329 7.0037e-20)
(-0.0304853 0.0189094 -1.76387e-19)
(0.00283586 -0.0074104 1.87743e-19)
(0.00568936 -0.0193637 1.84797e-19)
(0.00521356 -0.0292915 1.39328e-20)
(0.00241812 -0.0371019 -1.80613e-19)
(-0.00217449 -0.042962 6.06388e-20)
(-0.00807502 -0.0470791 -8.61962e-20)
(-0.0148261 -0.0496838 -1.39771e-19)
(-0.0220278 -0.051028 4.31666e-20)
(-0.0293308 -0.0513522 7.48746e-20)
(-0.0364329 -0.0508759 -1.13256e-19)
(-0.0430787 -0.0498004 -1.06219e-19)
(-0.0490539 -0.0483019 -2.66715e-19)
(-0.0541801 -0.0465198 1.96301e-19)
(-0.0583095 -0.0445519 2.9991e-20)
(-0.0613188 -0.0424503 -2.20349e-20)
(-0.0631044 -0.0402177 1.1325e-20)
(-0.0635787 -0.037803 2.28463e-19)
(-0.0626697 -0.0350958 -3.11557e-20)
(-0.0603245 -0.0319193 1.83301e-20)
(-0.0565213 -0.0280219 -7.604e-20)
(-0.0512866 -0.0230696 -5.79259e-20)
(-0.0447182 -0.0166447 6.37716e-20)
(-0.0371457 -0.00831465 -5.68993e-19)
(-0.0289558 0.00237978 7.31113e-20)
(-0.0187959 0.0163594 4.86542e-20)
(0.00261602 -0.00664079 1.16303e-19)
(0.00513275 -0.0174168 -1.25349e-19)
(0.00441472 -0.0264777 -5.0281e-20)
(0.00146263 -0.0336842 -3.0857e-22)
(-0.0032075 -0.0391653 -1.20557e-19)
(-0.00911268 -0.043092 1.15074e-19)
(-0.0158005 -0.0456605 -2.92637e-20)
(-0.0228748 -0.0470911 -5.81945e-20)
(-0.0299898 -0.0476034 8.25263e-20)
(-0.0368451 -0.0473938 1.41716e-19)
(-0.0431857 -0.0466453 2.19236e-19)
(-0.0487968 -0.0455186 4.57142e-20)
(-0.0534982 -0.0441434 -1.38196e-19)
(-0.057139 -0.0426114 3.04187e-19)
(-0.0595918 -0.0409722 2.79639e-20)
(-0.0607476 -0.0392289 3.47099e-20)
(-0.060512 -0.0373331 -7.53612e-20)
(-0.0588047 -0.0351772 5.88104e-20)
(-0.0555633 -0.0325847 -1.11174e-19)
(-0.0507559 -0.0292976 1.41839e-19)
(-0.0444008 -0.0249615 -5.44781e-20)
(-0.0365938 -0.0191143 1.45279e-19)
(-0.0276791 -0.0112476 2.88342e-19)
(-0.0181571 -0.000797095 1.77901e-19)
(-0.00667126 0.0134293 -1.94747e-19)
(0.00237269 -0.00587875 -1.18399e-19)
(0.00452029 -0.0154924 -2.00115e-20)
(0.00354085 -0.0236998 9.16293e-20)
(0.000423409 -0.0303145 1.19086e-19)
(-0.00432424 -0.0354274 3.02059e-19)
(-0.0102267 -0.0391732 -1.34524e-19)
(-0.0168383 -0.0417144 4.44066e-20)
(-0.0237675 -0.0432397 -1.58582e-19)
(-0.0306726 -0.0439456 1.05179e-19)
(-0.0372563 -0.0440093 -3.04495e-19)
(-0.0432643 -0.0435937 6.0226e-20)
(-0.0484819 -0.0428453 1.95984e-19)
(-0.0527275 -0.0418835 2.65616e-20)
(-0.0558475 -0.0407941 -2.00145e-20)
(-0.0577108 -0.0396248 -1.31228e-19)
(-0.0582032 -0.0383799 6.33173e-21)
(-0.0572239 -0.0370143 -2.29411e-21)
(-0.0546842 -0.0354252 -2.03364e-19)
(-0.0505118 -0.0334385 -1.44653e-19)
(-0.0446638 -0.0307927 -6.01803e-21)
(-0.0371484 -0.0271156 2.59992e-20)
(-0.0280555 -0.0219013 -3.8839e-19)
(-0.017734 -0.0145644 1.44091e-20)
(-0.00675803 -0.00444731 -1.11589e-19)
(0.006083 0.0100875 3.11379e-19)
(0.00210664 -0.00512579 -5.29942e-20)
(0.00385445 -0.0135942 -2.51983e-20)
(0.00259645 -0.0209625 -2.69435e-19)
(-0.000692836 -0.0269978 2.25033e-20)
(-0.00551556 -0.0317527 6.50405e-20)
(-0.0114055 -0.0353262 -5.56957e-20)
(-0.0179247 -0.0378469 1.44209e-19)
(-0.0246878 -0.0394738 1.32322e-19)
(-0.0313575 -0.0403774 -2.08612e-20)
(-0.0376404 -0.0407178 -1.61733e-19)
(-0.0432838 -0.0406383 -4.44396e-19)
(-0.0480729 -0.0402707 -1.45562e-19)
(-0.0518255 -0.0397247 2.81157e-19)
(-0.0543855 -0.0390802 1.31171e-20)
(-0.0556183 -0.0383829 1.80205e-19)
(-0.0554048 -0.0376388 -1.47726e-19)
(-0.0536381 -0.0368076 -3.94211e-20)
(-0.0502214 -0.0357922 -2.17359e-20)
(-0.0450726 -0.0344242 1.91658e-19)
(-0.0381369 -0.0324416 -4.88361e-20)
(-0.0294106 -0.0294587 1.36027e-19)
(-0.0189781 -0.0249298 7.18498e-20)
(-0.00720482 -0.0181944 1.8846e-19)
(0.00535971 -0.00844318 -3.38261e-19)
(0.0197009 0.00634014 -1.07029e-19)
(0.00181881 -0.00438356 -1.37366e-21)
(0.00313817 -0.0117258 1.82739e-19)
(0.00158675 -0.0182708 1.95421e-19)
(-0.00187839 -0.0237392 -2.72953e-19)
(-0.00677106 -0.028146 -1.60257e-19)
(-0.0126355 -0.0315548 1.80836e-21)
(-0.0190432 -0.0340614 -6.90611e-20)
(-0.0256154 -0.0357934 -6.45016e-20)
(-0.0320204 -0.0368978 5.03484e-20)
(-0.0379686 -0.0375148 3.64832e-19)
(-0.0432096 -0.0377715 9.572e-20)
(-0.0475293 -0.0377839 1.7156e-19)
(-0.0507444 -0.0376517 -1.91921e-19)
(-0.0526969 -0.0374492 -9.85848e-20)
(-0.0532489 -0.0372202 3.22324e-20)
(-0.0522768 -0.0369725 -1.63904e-19)
(-0.0496674 -0.0366713 9.77754e-20)
(-0.0453168 -0.0362274 1.97836e-19)
(-0.0391328 -0.03548 5.25221e-20)
(-0.0310489 -0.034171 5.12124e-20)
(-0.0210484 -0.0319065 2.56562e-19)
(-0.00920659 -0.0281052 1.07225e-19)
(0.00409528 -0.0220236 -3.9993e-19)
(0.0183018 -0.0126606 9.55799e-20)
(0.0343229 0.00224314 -9.77273e-20)
(0.00151033 -0.00365385 -2.51995e-21)
(0.00237489 -0.00989157 -4.23273e-20)
(0.000517723 -0.01563 -1.57843e-20)
(-0.0031246 -0.0205446 -2.85894e-20)
(-0.00807921 -0.0246129 3.51963e-20)
(-0.0139023 -0.0278635 -2.71549e-20)
(-0.0201755 -0.03036 -1.02697e-20)
(-0.0265282 -0.0322003 1.0797e-19)
(-0.0326343 -0.0335048 -1.0566e-19)
(-0.0382089 -0.0343972 2.14358e-20)
(-0.0430041 -0.0349863 3.66299e-22)
(-0.0468063 -0.0353741 -2.20502e-19)
(-0.0494317 -0.0356495 7.64345e-20)
(-0.0507203 -0.035881 -3.02453e-20)
(-0.0505308 -0.0361103 4.91453e-20)
(-0.0487354 -0.0363475 7.12344e-20)
(-0.0452154 -0.0365634 -1.05728e-19)
(-0.0398594 -0.0366778 -2.20878e-19)
(-0.0325664 -0.0365407 -6.31901e-20)
(-0.0232584 -0.0359023 1.11865e-19)
(-0.011905 -0.0343664 1.10232e-19)
(0.0014309 -0.0313233 -1.78805e-19)
(0.016358 -0.0259498 2.89718e-19)
(0.0322898 -0.0170531 -1.06652e-20)
(0.0501302 -0.00204361 7.7312e-20)
(0.00118255 -0.0029386 1.14434e-19)
(0.00156856 -0.00809594 -1.18798e-19)
(-0.000603898 -0.013046 -1.29246e-19)
(-0.00442184 -0.0174202 1.37333e-19)
(-0.00942731 -0.0211593 8.29255e-20)
(-0.0151897 -0.0242574 1.00667e-20)
(-0.0213018 -0.0267465 -4.92571e-20)
(-0.0274022 -0.0286958 1.27385e-19)
(-0.0331707 -0.0301991 -3.23004e-19)
(-0.0383272 -0.031361 -9.887e-20)
(-0.0426267 -0.0322765 -2.27209e-19)
(-0.0458562 -0.0330313 6.36619e-20)
(-0.0478311 -0.0337038 -2.39761e-19)
(-0.0483894 -0.0343562 -4.53862e-21)
(-0.0473866 -0.035028 -5.70811e-20)
(-0.0446906 -0.035731 1.86812e-19)
(-0.0401774 -0.036442 1.83007e-19)