/*--------------------------------*- C++ -*----------------------------------*\
  =========                 |
  \\      /  F ield         | OpenFOAM: The Open Source CFD Toolbox
   \\    /   O peration     | Website:  https://openfoam.org
    \\  /    A nd           | Version:  7
     \\/     M anipulation  |
\*---------------------------------------------------------------------------*/
FoamFile
{
    version     2.0;
    format      ascii;
    class       volVectorField;
    location    "300";
    object      U;
}
// * * * * * * * * * * * * * * * * * * * * * * * * * * * * * * * * * * * * * //

dimensions      [0 1 -1 0 0 0 0];

internalField   nonuniform List<vector> 
36600
(
(3.16565e-05 -0.0231538 -1.04187e-21)
(-0.000810677 -0.0646037 -5.43145e-21)
(-0.0032339 -0.101996 6.57825e-22)
(-0.00691353 -0.134962 9.72903e-22)
(-0.0117718 -0.163351 1.70392e-21)
(-0.0176861 -0.187266 -1.24178e-20)
(-0.0244851 -0.207034 2.10861e-21)
(-0.0319691 -0.22318 -8.21487e-21)
(-0.0399195 -0.236355 -1.74897e-20)
(-0.0481156 -0.247265 1.4806e-20)
(-0.056352 -0.25659 4.36166e-21)
(-0.0644532 -0.264924 -5.19376e-21)
(-0.0722838 -0.272736 6.3306e-21)
(-0.0797516 -0.280352 8.61598e-21)
(-0.0868052 -0.287957 -5.40599e-21)
(-0.0934222 -0.295614 -7.27231e-21)
(-0.0995995 -0.303281 -1.73925e-20)
(-0.105365 -0.310838 -1.34659e-21)
(-0.110628 -0.318088 -2.94984e-21)
(-0.115157 -0.324763 -5.84829e-21)
(0.00041166 -0.0226617 -5.07259e-21)
(4.23695e-05 -0.0632348 4.12472e-21)
(-0.00228721 -0.0998358 -4.77656e-21)
(-0.00612018 -0.132087 -1.87744e-20)
(-0.0113254 -0.15985 8.59935e-21)
(-0.017732 -0.18324 5.16848e-20)
(-0.0251252 -0.202598 -3.14949e-20)
(-0.0332701 -0.218458 5.30807e-21)
(-0.0419216 -0.231472 2.51705e-20)
(-0.0508414 -0.242338 -1.44122e-23)
(-0.0598152 -0.251721 1.46578e-20)
(-0.0686674 -0.260195 -1.92551e-20)
(-0.0772702 -0.268203 2.00406e-20)
(-0.0855459 -0.276047 -1.71419e-20)
(-0.0934626 -0.283894 -6.60513e-21)
(-0.101021 -0.291793 3.32254e-20)
(-0.108242 -0.299699 -1.03438e-20)
(-0.115177 -0.307494 1.58144e-21)
(-0.121749 -0.314987 -1.94221e-20)
(-0.127764 -0.321906 -2.07755e-21)
(0.000766795 -0.0220487 -3.91847e-20)
(0.000830655 -0.0615716 4.95051e-21)
(-0.00143329 -0.0972644 7.51215e-21)
(-0.00543516 -0.128729 4.73757e-20)
(-0.0109898 -0.155828 -3.75737e-20)
(-0.017878 -0.178681 -5.78945e-20)
(-0.0258417 -0.197637 5.21505e-20)
(-0.0346117 -0.213229 -1.41032e-20)
(-0.0439175 -0.226106 -7.04202e-21)
(-0.0535039 -0.236952 -3.51883e-20)
(-0.0631486 -0.246413 9.50342e-21)
(-0.072676 -0.255038 3.39769e-20)
(-0.0819658 -0.263244 -6.9437e-21)
(-0.0909542 -0.271308 2.74767e-20)
(-0.0996283 -0.279376 -2.25243e-20)
(-0.108011 -0.287484 -6.91243e-21)
(-0.116149 -0.295585 5.3103e-20)
(-0.124116 -0.303565 -3.30181e-21)
(-0.131849 -0.311246 8.26822e-20)
(-0.139184 -0.318357 -1.97074e-20)
(0.00109096 -0.0213171 6.40254e-20)
(0.00154145 -0.0596217 -2.78189e-20)
(-0.000685987 -0.0942949 -1.9177e-20)
(-0.00487028 -0.124905 -4.41432e-20)
(-0.0107727 -0.151306 2.64178e-20)
(-0.0181266 -0.173615 -4.8817e-21)
(-0.0266316 -0.192178 -8.70862e-20)
(-0.0359857 -0.207523 -9.11587e-21)
(-0.0458939 -0.220288 -1.87588e-20)
(-0.0560853 -0.231139 -2.90574e-21)
(-0.06633 -0.240698 -3.22199e-20)
(-0.0764527 -0.249487 3.61111e-20)
(-0.0863399 -0.257895 -5.31431e-20)
(-0.0959409 -0.266171 -1.60484e-21)
(-0.105261 -0.27444 1.43516e-20)
(-0.114344 -0.282727 -1.10182e-19)
(-0.123261 -0.29098 -8.83433e-20)
(-0.132112 -0.299094 4.77526e-20)
(-0.140845 -0.306906 -6.39614e-20)
(-0.149321 -0.314154 1.90347e-21)
(0.00137831 -0.0204706 -8.58533e-21)
(0.00216271 -0.0573954 1.09772e-19)
(-5.82536e-05 -0.0909433 5.08751e-20)
(-0.0044363 -0.120637 -2.19009e-21)
(-0.010681 -0.14631 1.34169e-20)
(-0.0184795 -0.16807 2.07526e-21)
(-0.0274914 -0.186253 4.45405e-20)
(-0.0373832 -0.201372 5.21613e-20)
(-0.0478373 -0.21405 2.19287e-20)
(-0.0585679 -0.22493 7.69675e-20)
(-0.0693381 -0.234609 -8.77657e-20)
(-0.0799724 -0.243576 -1.83943e-20)
(-0.0903636 -0.25219 3.83892e-20)
(-0.100473 -0.260673 -6.61431e-20)
(-0.110321 -0.269128 3.00192e-20)
(-0.119974 -0.277565 6.92656e-20)
(-0.129526 -0.285929 1.68149e-20)
(-0.139102 -0.294126 2.33541e-20)
(-0.148664 -0.302012 -3.72126e-20)
(-0.158086 -0.309337 4.57986e-21)
(0.00162336 -0.0195143 -4.15587e-20)
(0.00268335 -0.0549062 2.57051e-20)
(0.000438426 -0.0872297 -4.17079e-20)
(-0.00414231 -0.115949 3.80797e-20)
(-0.0107198 -0.140869 3.30968e-20)
(-0.018937 -0.162078 1.4997e-20)
(-0.028416 -0.179892 2.7904e-20)
(-0.0387945 -0.194809 -1.94293e-20)
(-0.0497336 -0.207425 -1.18649e-19)
(-0.0609339 -0.218359 -1.051e-19)
(-0.0721516 -0.228177 -6.76332e-20)
(-0.0832108 -0.237337 2.54293e-20)
(-0.0940092 -0.246166 -1.44083e-20)
(-0.104518 -0.254854 1.08865e-19)
(-0.114773 -0.263482 -3.89186e-20)
(-0.124859 -0.272044 3.14557e-20)
(-0.134894 -0.280483 4.56643e-20)
(-0.14503 -0.288714 -2.57435e-20)
(-0.155237 -0.296614 2.20551e-19)
(-0.165402 -0.303953 -8.28498e-20)
(0.00182111 -0.0184545 5.03336e-20)
(0.00309338 -0.05217 -6.17725e-20)
(0.00079383 -0.0831771 -9.35908e-20)
(-0.00399648 -0.110869 -2.39055e-20)
(-0.0108925 -0.135014 1.06458e-20)
(-0.0194978 -0.155671 1.62582e-20)
(-0.0293994 -0.173132 5.38586e-20)
(-0.0402088 -0.187866 1.17838e-20)
(-0.0515679 -0.200445 3.9965e-21)
(-0.0631648 -0.211457 1.88711e-19)
(-0.0747492 -0.221436 1.40556e-19)
(-0.0861439 -0.230805 -8.34136e-20)
(-0.0972502 -0.239857 -1.21938e-20)
(-0.108047 -0.248752 -3.26997e-20)
(-0.118584 -0.257545 3.20214e-20)
(-0.128962 -0.266212 -1.68027e-19)
(-0.139321 -0.274691 -3.48046e-20)
(-0.149842 -0.282909 -5.21232e-20)
(-0.160505 -0.290767 -1.25269e-19)
(-0.171199 -0.298054 6.86105e-20)
(0.00196707 -0.0172989 8.31623e-21)
(0.00338402 -0.0492056 -2.99467e-20)
(0.000999407 -0.078812 8.4403e-20)
(-0.00400399 -0.105429 -3.1589e-20)
(-0.0112012 -0.12878 -2.84292e-20)
(-0.0201587 -0.148886 4.48371e-20)
(-0.0304336 -0.166005 -7.53612e-20)
(-0.041614 -0.180578 -1.02403e-20)
(-0.0533245 -0.193143 1.4019e-19)
(-0.0652418 -0.204257 -8.88458e-20)
(-0.0771092 -0.214416 -3.62556e-20)
(-0.0887476 -0.224011 4.24945e-20)
(-0.10006 -0.233298 -1.10783e-20)
(-0.111032 -0.242407 -5.75546e-21)
(-0.121722 -0.251361 4.66477e-20)
(-0.132246 -0.260118 -1.22699e-19)
(-0.142767 -0.268609 4.28089e-20)
(-0.153493 -0.27677 -3.20049e-20)
(-0.164412 -0.284526 -7.144e-20)
(-0.175415 -0.291694 2.60178e-20)
(0.0020574 -0.0160562 -2.34642e-20)
(0.00354804 -0.0460342 1.64708e-19)
(0.00104851 -0.0741631 -3.62564e-20)
(-0.00416907 -0.0996628 -4.30818e-20)
(-0.0116447 -0.122203 1.02833e-19)
(-0.0209145 -0.141758 -1.06055e-19)
(-0.0315092 -0.15855 -5.16455e-20)
(-0.0429965 -0.17298 -8.90955e-20)
(-0.0549862 -0.185553 -9.67101e-20)
(-0.0671446 -0.196789 -6.32459e-20)
(-0.079209 -0.207149 -8.48199e-20)
(-0.0909972 -0.216987 1.5306e-19)
(-0.102412 -0.226524 -1.68676e-20)
(-0.113443 -0.235854 -3.50627e-20)
(-0.124155 -0.244972 -1.81772e-19)
(-0.134678 -0.253812 1.01374e-19)
(-0.145193 -0.262292 2.51869e-20)
(-0.155939 -0.270357 6.21368e-20)
(-0.166911 -0.277954 4.16792e-20)
(-0.177995 -0.284929 -1.11461e-19)
(0.00208906 -0.014736 -7.26406e-20)
(0.00357984 -0.0426789 9.57241e-20)
(0.00093712 -0.0692629 5.35938e-20)
(-0.00449245 -0.0936072 2.41588e-20)
(-0.0122203 -0.115321 9.14689e-20)
(-0.021758 -0.134328 -7.10029e-20)
(-0.0326146 -0.150802 1.52468e-19)
(-0.044341 -0.165107 8.5274e-21)
(-0.0565343 -0.177707 1.38811e-19)
(-0.0688519 -0.189084 -8.02814e-20)
(-0.0810248 -0.199664 1.28284e-19)
(-0.0928669 -0.209763 -1.25944e-19)
(-0.10428 -0.219566 -1.12541e-19)
(-0.115252 -0.229132 9.53395e-20)
(-0.125854 -0.238422 3.35288e-19)
(-0.136225 -0.247343 -1.83399e-19)
(-0.146564 -0.255797 1.49667e-19)
(-0.15714 -0.263729 3.40445e-20)
(-0.167955 -0.271111 -1.27019e-19)
(-0.178887 -0.27782 1.06657e-19)
(0.00205983 -0.0133493 1.31679e-19)
(0.00347605 -0.0391653 -7.36956e-20)
(0.000663118 -0.064145 2.47217e-20)
(-0.00497257 -0.0873015 9.27572e-20)
(-0.0129224 -0.108176 -7.10765e-20)
(-0.0226798 -0.126635 1.65236e-19)
(-0.0337366 -0.142802 -2.97633e-20)
(-0.0456306 -0.156995 3.75339e-21)
(-0.0579486 -0.169637 -1.9174e-19)
(-0.0703403 -0.181173 1.20371e-19)
(-0.0825307 -0.191989 2.7575e-20)
(-0.0943291 -0.202367 -3.59314e-20)
(-0.105633 -0.212454 4.48279e-20)
(-0.116429 -0.222273 -1.75808e-19)
(-0.126787 -0.23175 -9.72505e-20)
(-0.136853 -0.240758 2.02992e-19)
(-0.146842 -0.249177 -1.12393e-19)
(-0.157055 -0.25695 -1.58973e-19)
(-0.167499 -0.264064 2.92197e-19)
(-0.178042 -0.270428 -9.01444e-22)
(0.00196849 -0.0119076 1.09976e-19)
(0.00323507 -0.0355205 -1.3522e-19)
(0.000227517 -0.0588463 -1.40429e-19)
(-0.00560577 -0.0807863 -6.65555e-20)
(-0.0137437 -0.10081 -4.62229e-20)
(-0.0236683 -0.11872 -5.36815e-20)
(-0.0348598 -0.134586 -2.2524e-19)
(-0.0468463 -0.148678 2.74773e-20)
(-0.0592068 -0.161376 -9.4311e-20)
(-0.0715847 -0.173084 3.27772e-19)
(-0.0836992 -0.184152 -1.89131e-19)
(-0.0953539 -0.194824 1.15245e-19)
(-0.10644 -0.205214 -3.50234e-20)
(-0.116939 -0.215307 1.91104e-19)
(-0.12692 -0.224991 1.55752e-20)
(-0.136528 -0.234103 -1.61163e-19)
(-0.145991 -0.242488 -2.8501e-20)
(-0.155643 -0.250082 7.18199e-21)
(-0.165498 -0.256877 -1.26072e-20)
(-0.175407 -0.262815 1.95407e-19)
(0.00181473 -0.0104233 -1.37004e-19)
(0.00285752 -0.0317732 -1.28924e-19)
(-0.000366781 -0.0534045 5.33003e-20)
(-0.00638554 -0.0741044 1.32254e-19)
(-0.0146741 -0.0932668 -1.10165e-20)
(-0.0247102 -0.110626 -8.98113e-20)
(-0.035967 -0.126195 1.98333e-19)
(-0.0479673 -0.140193 -2.21693e-20)
(-0.0602847 -0.152956 2.37734e-19)
(-0.0725575 -0.164846 -2.62488e-19)
(-0.0844997 -0.176177 6.86875e-20)
(-0.0959083 -0.187159 8.081e-20)
(-0.106667 -0.197871 -2.41882e-21)
(-0.116749 -0.208262 -1.34623e-21)
(-0.126215 -0.21818 -1.50009e-19)
(-0.13521 -0.227417 2.02979e-20)
(-0.14397 -0.235781 1.96857e-19)
(-0.152861 -0.243184 2.5014e-19)
(-0.161906 -0.249617 -2.93511e-19)
(-0.170931 -0.255044 -1.88556e-19)
(0.00159925 -0.00890958 5.723e-20)
(0.00234604 -0.0279534 8.61667e-20)
(-0.00111415 -0.0478592 1.04097e-19)
(-0.00730312 -0.0672997 -1.74807e-19)
(-0.0157015 -0.0855908 1.70372e-19)
(-0.0257897 -0.102396 1.72446e-19)
(-0.0370391 -0.117669 -6.68678e-20)
(-0.0489707 -0.131577 2.90626e-19)
(-0.0611557 -0.144408 -2.92291e-19)
(-0.0732288 -0.156485 1.2864e-19)
(-0.084899 -0.168087 1.29955e-19)
(-0.095956 -0.179391 -9.97928e-21)
(-0.106274 -0.190444 1.68871e-21)
(-0.115815 -0.201159 1.65935e-20)
(-0.12463 -0.211342 -1.17551e-19)
(-0.132857 -0.220737 1.15028e-19)
(-0.140735 -0.229103 -5.86398e-20)
(-0.148662 -0.236315 -1.30177e-19)
(-0.156671 -0.242348 1.65854e-19)
(-0.164554 -0.24718 3.45792e-20)
(0.00132374 -0.00737981 -3.30627e-20)
(0.00170536 -0.0240919 4.04125e-20)
(-0.00200659 -0.042251 -8.70664e-20)
(-0.00834739 -0.0604173 -1.29019e-19)
(-0.0168121 -0.0778275 -1.13665e-19)
(-0.0268891 -0.094075 -1.18209e-19)
(-0.0380549 -0.109049 1.91209e-19)
(-0.0498319 -0.122864 -9.6025e-20)
(-0.0617915 -0.135763 7.61275e-20)
(-0.0735663 -0.148029 8.45504e-21)
(-0.0848608 -0.159906 -2.04431e-20)
(-0.0954572 -0.17154 5.06787e-20)
(-0.105219 -0.18295 -9.76576e-20)
(-0.114094 -0.194015 5.05554e-20)
(-0.122119 -0.204497 1.61748e-19)
(-0.12942 -0.214091 -2.3392e-19)
(-0.136236 -0.222494 -1.47625e-19)
(-0.142993 -0.229529 1.91518e-19)
(-0.149736 -0.235136 -1.10933e-19)
(-0.156209 -0.239285 -1.69541e-19)
(0.000990909 -0.00584777 1.21595e-19)
(0.000942262 -0.0202201 -1.21851e-19)
(-0.00303381 -0.036621 9.79835e-20)
(-0.00950489 -0.0535029 1.56274e-19)
(-0.0179886 -0.0700242 -2.78703e-20)
(-0.0279892 -0.0857062 -1.01533e-19)
(-0.0389913 -0.100376 -1.87868e-19)
(-0.0505242 -0.114094 -1.41806e-19)
(-0.0621615 -0.127055 -2.83789e-19)
(-0.0735353 -0.139504 2.87131e-20)
(-0.0843459 -0.151654 -2.5059e-20)
(-0.0943678 -0.163623 -1.96469e-19)
(-0.103453 -0.175402 1.68838e-19)
(-0.111532 -0.186841 2.0473e-19)
(-0.118626 -0.197661 -1.01646e-20)
(-0.124843 -0.2075 1.22337e-19)
(-0.130415 -0.215986 -6.1374e-20)
(-0.135794 -0.222874 9.70823e-21)
(-0.141037 -0.228041 1.66525e-19)
(-0.145824 -0.231423 3.96728e-19)
(0.00060444 -0.00432723 -5.28404e-20)
(6.55536e-05 -0.0163695 -3.63502e-20)
(-0.00418312 -0.0310109 1.00945e-19)
(-0.01076 -0.0466023 -1.3995e-19)
(-0.0192131 -0.0622271 -7.87975e-20)
(-0.0290678 -0.077336 1.37746e-19)
(-0.0398238 -0.0916926 -5.00059e-20)
(-0.0510195 -0.105302 -1.43554e-19)
(-0.0622336 -0.118316 2.31068e-19)
(-0.0730987 -0.130938 -6.13064e-20)
(-0.083312 -0.143353 4.44763e-20)
(-0.0926403 -0.155654 2.40077e-19)
(-0.100923 -0.16781 -3.30143e-19)
(-0.108073 -0.179643 -8.92494e-20)
(-0.11409 -0.190838 -1.73898e-19)
(-0.119062 -0.200974 3.48442e-19)
(-0.123206 -0.209601 1.09183e-20)
(-0.126996 -0.216389 1.86012e-19)
(-0.130504 -0.22112 -6.70894e-20)
(-0.133316 -0.223655 -3.74335e-19)
(0.000168968 -0.00283184 -1.22778e-19)
(-0.000913957 -0.0125714 1.73441e-19)
(-0.00543976 -0.0254616 2.32402e-21)
(-0.0120944 -0.0397622 -1.73533e-21)
(-0.0204646 -0.0544838 1.7693e-19)
(-0.0301019 -0.0690101 8.48826e-20)
(-0.0405265 -0.083041 -4.87138e-21)
(-0.0512885 -0.0965286 3.72459e-19)
(-0.061974 -0.109578 1.41538e-19)
(-0.0722178 -0.122358 -2.58119e-19)
(-0.0817145 -0.135024 1.19307e-20)
(-0.0902235 -0.147648 -8.27477e-21)
(-0.0975708 -0.160182 3.50247e-19)
(-0.103652 -0.172424 -3.87779e-19)
(-0.108443 -0.184026 1.05518e-19)
(-0.112005 -0.194514 3.85722e-21)
(-0.114536 -0.203352 -2.62524e-19)
(-0.116524 -0.210101 -2.67649e-19)
(-0.11806 -0.214421 -3.19378e-20)
(-0.118595 -0.216044 3.78089e-19)
(-0.000309964 -0.0013749 3.9966e-20)
(-0.00198365 -0.00885639 -1.23347e-19)
(-0.0067865 -0.0200142 1.18661e-19)
(-0.0134886 -0.0330277 -1.75995e-19)
(-0.0217206 -0.0468417 2.16938e-19)
(-0.0310673 -0.0607743 -3.2183e-19)
(-0.0410721 -0.0744651 -8.83652e-20)
(-0.0513009 -0.0878124 -1.94699e-19)
(-0.0613483 -0.100877 -9.10442e-20)
(-0.0708527 -0.113794 1.60923e-19)
(-0.079507 -0.126689 3.25726e-19)
(-0.0870636 -0.13962 -3.61751e-19)
(-0.0933357 -0.152522 -1.33565e-19)
(-0.0982003 -0.16518 4.80355e-19)
(-0.101608 -0.177219 -1.72228e-19)
(-0.103592 -0.18811 -2.44327e-19)
(-0.104322 -0.197233 3.04796e-19)
(-0.104294 -0.204026 6.30869e-20)
(-0.103621 -0.207985 5.90711e-20)
(-0.101566 -0.208646 -2.42373e-19)
(-0.000826008 3.07991e-05 1.57221e-20)
(-0.0031292 -0.00525418 -6.43875e-20)
(-0.0082047 -0.0147083 2.08256e-19)
(-0.0149206 -0.0264443 -2.67212e-19)
(-0.022958 -0.0393473 -2.18687e-19)
(-0.0319386 -0.0526754 5.63384e-20)
(-0.0414339 -0.0660087 3.77568e-19)
(-0.0510264 -0.0791945 -2.36341e-19)
(-0.0603218 -0.0922501 5.68437e-20)
(-0.0689632 -0.105275 -1.11707e-19)
(-0.0766422 -0.118373 -4.47025e-19)
(-0.0831049 -0.131586 2.67863e-19)
(-0.0881525 -0.144839 2.14586e-19)
(-0.0916432 -0.157909 -3.75174e-19)
(-0.0935025 -0.1704 8.65814e-20)
(-0.0937334 -0.181742 3.40891e-19)
(-0.0924712 -0.191227 1.32049e-19)
(-0.090213 -0.19816 4.55287e-20)
(-0.0871018 -0.201838 -2.60689e-19)
(-0.0821307 -0.201513 -1.25452e-19)
(-0.00137213 0.00137319 -1.0785e-19)
(-0.00433494 -0.001793 -1.93814e-19)
(-0.00967407 -0.00958219 -1.10625e-19)
(-0.0163679 -0.0200559 1.45069e-19)
(-0.0241528 -0.0320471 -8.49305e-21)
(-0.0326909 -0.0447592 3.0076e-20)
(-0.0415841 -0.0577169 -5.17386e-20)
(-0.0504346 -0.070717 3.4869e-20)
(-0.0588602 -0.0837348 2.24613e-19)
(-0.0665092 -0.0968368 2.81622e-19)
(-0.073073 -0.110104 -1.32979e-20)
(-0.0782917 -0.123565 -6.10287e-20)
(-0.0819553 -0.13714 -3.54142e-19)
(-0.0839046 -0.150604 2.62272e-19)
(-0.0840405 -0.163552 -2.33602e-20)
(-0.0823355 -0.17538 -1.52765e-19)
(-0.0788856 -0.185301 -7.50783e-19)
(-0.0741815 -0.192479 2.6063e-19)
(-0.0684126 -0.195987 1.29317e-20)
(-0.060193 -0.194687 -1.54898e-19)
(-0.00194073 0.00264114 9.98574e-20)
(-0.00558412 0.00150067 2.53365e-19)
(-0.0111733 -0.00467225 -1.91448e-19)
(-0.0178073 -0.0139047 -9.20749e-20)
(-0.0252801 -0.0249865 7.60978e-20)
(-0.0332985 -0.0370716 -1.82165e-19)
(-0.0414959 -0.0496348 -3.17392e-19)
(-0.0494963 -0.0624234 1.97263e-19)
(-0.0569303 -0.075372 -2.21381e-20)
(-0.0634522 -0.0885151 -4.45626e-19)
(-0.0687536 -0.101912 8.43446e-20)
(-0.0725693 -0.115579 4.74226e-20)
(-0.074679 -0.129438 -8.15994e-20)
(-0.0749074 -0.143265 2.12711e-19)
(-0.0731333 -0.156656 4.0897e-19)
(-0.0692999 -0.168988 -2.61954e-19)
(-0.0634616 -0.179407 2.08559e-19)
(-0.0560951 -0.186941 5.08975e-20)
(-0.0474656 -0.190418 2.79472e-19)
(-0.0356598 -0.1882 1.23313e-19)
(-0.00252381 0.00382462 -1.09495e-19)
(-0.00685914 0.0046026 -1.1965e-20)
(-0.0126804 -1.24786e-05 2.71548e-19)
(-0.0192144 -0.00803099 2.67455e-19)
(-0.0263156 -0.0182088 -5.43556e-20)
(-0.0337359 -0.0296585 -3.39704e-20)
(-0.041143 -0.0418077 3.62883e-19)
(-0.0481831 -0.0543584 -2.60963e-19)
(-0.0545007 -0.0672047 7.92471e-20)
(-0.0597562 -0.08035 3.24607e-19)
(-0.0636412 -0.093832 3.08734e-19)
(-0.0658861 -0.107658 1.19921e-19)
(-0.0662613 -0.121751 5.16398e-19)
(-0.0645776 -0.135896 -6.98295e-20)
(-0.0606942 -0.149697 -5.32296e-19)
(-0.0545287 -0.162528 2.57733e-19)
(-0.0460943 -0.173488 -1.3602e-19)
(-0.0358475 -0.181478 -3.08426e-19)
(-0.0241774 -0.18509 -2.13764e-19)
(-0.00844364 -0.182072 -2.11096e-19)
(-0.00311312 0.00491491 7.03117e-20)
(-0.00814192 0.00749107 1.44137e-19)
(-0.0141727 0.00436598 -9.90224e-20)
(-0.0205652 -0.00247245 -1.22199e-19)
(-0.0272344 -0.0117564 -1.26316e-19)
(-0.0339786 -0.0225637 -3.36718e-20)
(-0.0405003 -0.0342815 -4.64989e-19)
(-0.0464691 -0.0465675 1.78293e-19)
(-0.0515427 -0.0592779 -1.63045e-19)
(-0.055388 -0.072385 -2.73542e-19)
(-0.057697 -0.0859053 9.85506e-21)
(-0.0581954 -0.099837 -6.81377e-19)
(-0.0566456 -0.114104 -5.22619e-19)
(-0.0528466 -0.128506 1.63992e-19)
(-0.0466418 -0.142665 8.10677e-20)
(-0.0379286 -0.155965 -1.72581e-19)
(-0.0266822 -0.16748 6.54902e-19)
(-0.0133364 -0.176004 -1.0034e-19)
(0.00151895 -0.179935 2.66393e-19)
(0.0215148 -0.176271 2.33364e-19)
(-0.00370036 0.0059047 -9.6562e-20)
(-0.00941421 0.0101473 -3.12869e-19)
(-0.0156277 0.0084352 9.89373e-20)
(-0.0218356 0.0027362 5.4707e-21)
(-0.0280124 -0.00566887 4.12826e-19)
(-0.034003 -0.0158303 -2.44587e-19)
(-0.0395444 -0.0271006 -2.07958e-19)
(-0.04433 -0.0390974 2.49031e-19)
(-0.0480303 -0.0516385 -1.45576e-20)
(-0.0503187 -0.0646665 1.14365e-19)
(-0.0508871 -0.0781764 3.46384e-19)
(-0.0494569 -0.0921563 7.16066e-19)
(-0.0457831 -0.106533 5.69792e-20)
(-0.0396553 -0.12112 -3.10283e-19)
(-0.0309048 -0.135564 5.56733e-20)
(-0.0194155 -0.149275 5.33467e-19)
(-0.00513123 -0.161319 -3.54583e-19)
(0.0115378 -0.170417 9.34607e-22)
(0.0296841 -0.17483 2.58857e-19)
(0.0541592 -0.170515 -1.59239e-19)
(-0.00427731 0.00678828 -9.30233e-20)
(-0.0106579 0.0125556 3.71077e-19)
(-0.0170232 0.0121709 -2.80649e-19)
(-0.023002 0.00756357 -5.69579e-20)
(-0.0286265 1.7156e-05 -9.54055e-20)
(-0.0337864 -0.0094996 -2.46448e-19)
(-0.0382537 -0.0203091 2.42774e-19)
(-0.0417439 -0.0319936 -6.32471e-20)
(-0.043941 -0.0443345 -1.41322e-19)
(-0.0445236 -0.0572437 2.29331e-19)
(-0.0431835 -0.0706947 -2.63027e-19)
(-0.0396376 -0.084664 -8.35775e-20)
(-0.0336345 -0.0990796 -9.1057e-21)
(-0.0249561 -0.11377 2.1857e-19)
(-0.013426 -0.128411 -1.95363e-19)
(0.0010794 -0.142447 -3.61273e-19)
(0.0186395 -0.154961 -1.09137e-19)
(0.0388803 -0.164634 -1.53383e-19)
(0.0605054 -0.169644 -4.56203e-19)
(0.0893662 -0.16429 -1.31641e-19)
(-0.00483607 0.00756158 1.32403e-19)
(-0.0118556 0.0147037 -1.62901e-19)
(-0.0183375 0.0155526 -2.0336e-19)
(-0.0240417 0.0119822 -1.90372e-19)
(-0.0290543 0.00526802 6.26037e-20)
(-0.0333079 -0.00360942 3.42306e-20)
(-0.0366077 -0.0139495 8.69871e-20)
(-0.0386914 -0.0253021 -3.008e-19)
(-0.039255 -0.037414 1.72279e-19)
(-0.0379824 -0.0501674 -5.12668e-19)
(-0.0345643 -0.0635129 -2.54722e-19)
(-0.028713 -0.0774137 4.76065e-21)
(-0.0201713 -0.0917967 2.22185e-19)
(-0.0087157 -0.106504 -1.43828e-19)
(0.00583414 -0.12124 3.61647e-19)
(0.0236028 -0.135492 -8.69394e-20)
(0.0446805 -0.148385 1.1058e-19)
(0.0687473 -0.158603 4.08868e-19)
(0.0943154 -0.164281 5.25374e-20)
(0.127573 -0.157904 2.48871e-19)
(-0.0053692 0.00822222 -2.80097e-19)
(-0.0129904 0.016583 2.20568e-19)
(-0.0195501 0.0185644 2.44998e-19)
(-0.024933 0.0159689 -1.41724e-19)
(-0.0292745 0.0100542 2.4012e-19)
(-0.0325473 0.00180456 2.296e-19)
(-0.034588 -0.00806121 -4.08807e-20)
(-0.0351549 -0.0190663 -2.29721e-19)
(-0.0339561 -0.030925 -3.38434e-19)
(-0.0306788 -0.0434887 9.63114e-20)
(-0.0250129 -0.0566853 9.14165e-21)
(-0.0166661 -0.0704625 -2.50685e-19)
(-0.00537569 -0.0847427 1.86236e-19)
(0.00908487 -0.0993778 -1.44165e-19)
(0.0268955 -0.114099 -2.56883e-19)
(0.0481751 -0.128444 -3.30917e-19)
(0.0730082 -0.141595 7.93177e-20)
(0.101099 -0.152291 1.09073e-19)
(0.130915 -0.158649 -9.99505e-20)
(0.169076 -0.151815 4.10794e-19)
(-0.00586986 0.00876954 -2.22301e-19)
(-0.0140468 0.0181882 -2.03155e-19)
(-0.0206415 0.0211946 1.5943e-19)
(-0.0256551 0.019505 9.17328e-20)
(-0.0292669 0.0143504 3.75038e-20)
(-0.0314856 0.00671133 -6.78063e-20)
(-0.0321769 -0.00268148 -4.70538e-20)
(-0.0311186 -0.0133276 1.07451e-19)
(-0.0280292 -0.0249126 -9.68826e-20)
(-0.0225996 -0.0372579 8.02931e-19)
(-0.0145174 -0.0502664 5.81821e-20)
(-0.00348636 -0.0638689 -8.90049e-20)
(0.0107607 -0.0779797 -5.77146e-19)
(0.0284513 -0.0924559 1.09317e-19)
(0.0497597 -0.107051 -2.78771e-19)
(0.0747912 -0.121351 1.80727e-19)
(0.103612 -0.134612 1.63117e-19)
(0.135932 -0.145652 -6.04256e-19)
(0.170059 -0.152629 -1.8269e-19)
(0.213516 -0.145673 -6.13576e-19)
(-0.00633198 0.00920454 1.0735e-19)
(-0.0150105 0.0195181 2.10837e-19)
(-0.0215937 0.0234361 -3.76623e-19)
(-0.0261888 0.0225767 -2.86062e-19)
(-0.0290121 0.0181361 1.44526e-19)
(-0.0301045 0.011084 1.34262e-19)
(-0.0293578 0.00215768 -2.76578e-19)
(-0.0265673 -0.00812385 -2.48175e-20)
(-0.0214615 -0.0194194 3.33997e-20)
(-0.0137333 -0.0315218 -2.41834e-19)
(-0.00306871 -0.0443082 3.50378e-19)
(0.0108322 -0.05769 1.60206e-21)
(0.0282395 -0.0715701 4.34622e-19)
(0.0493786 -0.0858047 2.91421e-19)
(0.0744135 -0.100165 4.82309e-20)
(0.103425 -0.114278 5.96126e-19)
(0.136446 -0.12748 -5.30731e-19)
(0.173194 -0.138686 2.40839e-19)
(0.211674 -0.146241 1.82609e-19)
(0.260572 -0.13917 1.52635e-19)
(-0.00675037 0.00952983 5.20238e-19)
(-0.0158688 0.0205746 -3.57507e-19)
(-0.0223901 0.0252864 8.56622e-20)
(-0.0265156 0.0251755 2.78115e-19)
(-0.0284917 0.0213961 -2.97148e-19)
(-0.0283861 0.0149008 1.432e-20)
(-0.0261139 0.0064283 2.23189e-19)
(-0.0214856 -0.00348739 4.07794e-19)
(-0.0142385 -0.0144827 4.10934e-19)
(-0.00406796 -0.0263225 -4.03409e-19)
(0.00934187 -0.0388578 -3.07935e-19)
(0.0262942 -0.0519784 1.44861e-19)
(0.0470592 -0.0655721 -4.13632e-19)
(0.0718562 -0.0794894 2.82112e-20)
(0.100833 -0.0935108 1.57908e-19)
(0.134035 -0.107296 1.2018e-19)
(0.171445 -0.12026 3.57698e-19)
(0.212782 -0.13142 7.20263e-20)
(0.255648 -0.139468 -2.57001e-19)
(0.310002 -0.13215 2.66132e-19)
(-0.00712073 0.00974944 -4.93925e-19)
(-0.0166106 0.0213631 3.56561e-19)
(-0.0230159 0.0267475 8.56209e-20)
(-0.0266186 0.0272979 -2.76312e-19)
(-0.0276874 0.0241207 1.15973e-19)
(-0.0263122 0.018146 -5.556e-20)
(-0.0224272 0.0101088 -4.08605e-20)
(-0.0158568 0.000554359 -3.44406e-19)
(-0.00634501 -0.0101338 -5.39999e-19)
(0.00640971 -0.0216955 3.49105e-19)
(0.0227254 -0.0339549 -1.78939e-19)
(0.0429056 -0.0467787 5.52003e-21)
(0.0672187 -0.0600362 9.99288e-20)
(0.0958726 -0.0735669 2.10027e-19)
(0.12899 -0.0871512 -2.49634e-20)
(0.166571 -0.100475 -5.73995e-20)
(0.208528 -0.113018 -2.89046e-19)
(0.254565 -0.123893 -1.89469e-19)
(0.301826 -0.13229 -1.75384e-19)
(0.361533 -0.124498 2.70699e-19)
(-0.00743979 0.00986872 3.97543e-19)
(-0.0172266 0.0218923 -1.00783e-19)
(-0.0234576 0.027826 3.40256e-19)
(-0.0264815 0.0289457 8.17719e-20)
(-0.0265815 0.0263059 -1.78863e-19)
(-0.0238638 0.0208096 2.87549e-20)
(-0.0182786 0.013184 -3.76253e-19)
(-0.0096614 0.00398177 1.70017e-19)
(0.00223777 -0.00639679 9.20218e-20)
(0.017718 -0.0176681 1.39068e-20)
(0.0370965 -0.0296303 1.25249e-19)
(0.0606776 -0.0421249 4.47327e-20)
(0.0887217 -0.0550003 -2.00506e-19)
(0.12142 -0.0680801 -4.60901e-19)
(0.15886 -0.0811372 2.31116e-19)
(0.200982 -0.0938712 -1.12174e-19)
(0.247607 -0.105817 -2.60687e-20)
(0.298399 -0.116157 4.58446e-19)
(0.350034 -0.1247 4.63891e-19)
(0.414834 -0.116114 -6.90467e-19)
(-0.00770522 0.00989412 -1.01087e-19)
(-0.0177089 0.0221733 -1.08944e-19)
(-0.0237033 0.0285323 -2.13309e-19)
(-0.0260888 0.0301257 1.55194e-19)
(-0.0251556 0.0279536 2.79096e-19)
(-0.0210206 0.0228885 -3.59048e-19)
(-0.0136461 0.0156461 5.69249e-19)
(-0.00287595 0.00678238 -1.10584e-19)
(0.0115336 -0.00328698 1.62933e-20)
(0.0298803 -0.0142577 -3.78733e-19)
(0.0524787 -0.0259027 1.26447e-20)
(0.0796289 -0.0380377 -3.07029e-19)
(0.111581 -0.0504872 4.07926e-19)
(0.148498 -0.0630553 2.65474e-19)
(0.190424 -0.0755007 -5.11808e-19)
(0.23722 -0.0875261 -4.28576e-19)
(0.288598 -0.0987031 9.70686e-20)
(0.344131 -0.108264 5.50103e-19)
(0.400095 -0.116705 2.45949e-19)
(0.469514 -0.10692 1.26447e-19)
(-0.00791564 0.00983293 3.21091e-20)
(-0.0180515 0.02222 1.05534e-19)
(-0.0237421 0.0288807 1.26218e-19)
(-0.0254253 0.0308497 -1.0429e-19)
(-0.0233905 0.0290719 2.59666e-19)
(-0.0177598 0.0243865 3.45268e-19)
(-0.00850391 0.0174946 5.48559e-21)
(0.00452751 0.00895299 -4.40436e-19)
(0.0215735 -0.000809642 -3.49729e-19)
(0.0429281 -0.0114705 3.63285e-19)
(0.0689028 -0.0227782 -5.90396e-19)
(0.0997892 -0.0345225 -5.39013e-19)
(0.135818 -0.0465025 -5.34756e-20)
(0.177117 -0.0584989 -2.77723e-20)
(0.223669 -0.0702511 1.80553e-19)
(0.275242 -0.0814563 1.16412e-19)
(0.331418 -0.0917038 1.47729e-19)
(0.391602 -0.100258 -6.80325e-19)
(0.451836 -0.108308 -1.80777e-19)
(0.525125 -0.0968795 4.64637e-19)
(-0.0080705 0.00969305 -1.89252e-19)
(-0.0182496 0.0220479 1.80574e-19)
(-0.0235641 0.0288888 -1.31699e-19)
(-0.0244757 0.0311344 -6.48348e-20)
(-0.0212656 0.0296744 -1.75096e-19)
(-0.0140559 0.0253142 -1.31573e-19)
(-0.0028215 0.0187375 -2.34438e-19)
(0.0125837 0.0105002 3.84524e-19)
(0.0323954 0.00104075 1.52075e-19)
(0.0569037 -0.00930001 -3.70624e-19)
(0.0864123 -0.0202486 -4.46639e-19)
(0.121199 -0.0315686 2.37132e-19)
(0.161467 -0.0430325 -2.19672e-19)
(0.207297 -0.0543955 -3.0399e-19)
(0.258595 -0.0653744 -3.82134e-20)
(0.31501 -0.0756539 3.03514e-19)
(0.375982 -0.0848185 -1.96961e-19)
(0.440645 -0.0921739 7.48156e-20)
(0.505095 -0.0995089 1.61485e-19)
(0.581173 -0.0860098 3.93755e-19)
(-0.00816993 0.0094828 -1.92454e-20)
(-0.0182996 0.021674 -4.46184e-19)
(-0.0231602 0.0285771 1.07724e-19)
(-0.0232244 0.0310003 2.37322e-19)
(-0.0187587 0.0297808 -4.27489e-20)
(-0.00987986 0.0256892 -2.82649e-19)
(0.00343649 0.0193913 3.09768e-19)
(0.0213345 0.0114399 3.52458e-19)
(0.0440469 0.00228116 1.3365e-19)
(0.0718578 -0.0077274 6.59557e-19)
(0.10506 -0.0182908 -3.0459e-19)
(0.14391 -0.0291479 1.08843e-19)
(0.188573 -0.0400444 -1.47744e-19)
(0.239065 -0.0507093 3.51251e-19)
(0.295199 -0.0608341 -3.04449e-20)
(0.356482 -0.0700873 -7.83652e-20)
(0.422194 -0.0780218 -1.22072e-19)
(0.491068 -0.0840321 1.87668e-19)
(0.559669 -0.0902522 -4.60591e-19)
(0.637037 -0.0743057 -6.01889e-19)
(-0.0082147 0.00921062 -1.10189e-19)
(-0.0181985 0.0211165 -3.98601e-20)
(-0.0225213 0.0279682 -3.57137e-19)
(-0.0216548 0.0304721 2.16683e-19)
(-0.0158449 0.0294156 -2.19301e-19)
(-0.00519864 0.0255362 -2.21165e-19)
(0.0103114 0.0194807 -1.95954e-20)
(0.0308292 0.0117978 -3.55044e-19)
(0.0565842 0.00294007 -5.60023e-19)
(0.0878527 -0.00671996 1.52032e-19)
(0.124911 -0.0168669 1.69041e-19)
(0.167984 -0.0272159 -7.10062e-20)
(0.217185 -0.0374872 5.51411e-19)
(0.272451 -0.0473846 -4.97061e-20)
(0.333479 -0.0565749 -1.0701e-19)
(0.399608 -0.0647082 -1.43983e-20)
(0.469946 -0.0712758 2.60558e-19)
(0.542682 -0.07585 4.49739e-19)
(0.615297 -0.0803255 -1.23535e-19)
(0.691727 -0.0614952 4.40453e-19)
(-0.00820592 0.00888476 3.46074e-19)
(-0.0179441 0.0203936 -5.46539e-20)
(-0.021638 0.0270867 3.15627e-19)
(-0.0197488 0.0295775 -3.20654e-19)
(-0.0124967 0.0286088 4.69123e-19)
(2.53071e-05 0.0248863 3.8968e-19)
(0.0178506 0.0190389 -3.177e-19)
(0.0411245 0.0116099 -5.87428e-19)
(0.0700725 0.00305751 9.66238e-19)
(0.104959 -0.00623195 2.36995e-19)
(0.146036 -0.0159239 -1.83074e-19)
(0.193486 -0.0257116 -1.79246e-19)
(0.247354 -0.0352927 -1.8635e-19)
(0.307477 -0.0443491 -1.3663e-19)
(0.373411 -0.0525274 -4.44559e-19)
(0.444312 -0.0594616 -1.18286e-19)
(0.51911 -0.0645625 9.52158e-21)
(0.595386 -0.0676734 -3.07763e-19)
(0.67188 -0.06934 1.49959e-19)
(0.744095 -0.0473822 -3.10851e-19)
(-0.00814485 0.00851314 -5.5304e-19)
(-0.0175339 0.019524 3.61414e-19)
(-0.0205005 0.0259581 -5.32762e-19)
(-0.0174868 0.028347 -2.87631e-19)
(-0.0086835 0.0273942 1.062e-19)
(0.00583406 0.0237769 -4.20881e-19)
(0.0261076 0.0181066 6.54856e-19)
(0.0522846 0.0109216 1.14267e-20)
(0.0845844 0.00268483 -3.59559e-19)
(0.123254 -0.00620478 -3.11428e-19)
(0.168513 -0.015395 -5.5125e-19)
(0.220485 -0.0245595 -6.41978e-21)
(0.279127 -0.0333774 -7.68869e-20)
(0.344149 -0.0415157 -2.20682e-19)
(0.414941 -0.0486104 5.36462e-19)
(0.490461 -0.0542936 3.24518e-19)
(0.569477 -0.0579086 7.81827e-20)
(0.64912 -0.059607 -3.32459e-19)
(0.729827 -0.0572264 -1.91388e-20)
(0.795272 -0.0344969 -5.07455e-19)
(-0.00803276 0.00810316 1.96473e-19)
(-0.0169654 0.0185256 -3.61462e-19)
(-0.0190976 0.0246086 4.59903e-19)
(-0.0148469 0.0268132 6.40463e-19)
(-0.00437122 0.0258098 -2.06363e-19)
(0.0122743 0.0222508 2.71015e-20)
(0.0351416 0.0167321 -5.51352e-19)
(0.0643796 0.0097873 -1.35534e-19)
(0.100199 0.00188392 -4.21043e-19)
(0.142822 -0.00656784 5.44596e-19)
(0.192421 -0.0152001 5.00636e-19)
(0.249045 -0.0236702 -8.78102e-20)
(0.312537 -0.0316443 -6.54434e-20)
(0.382447 -0.0387844 -1.03487e-19)
(0.457974 -0.0447308 9.61342e-20)
(0.537848 -0.0491415 -1.70073e-19)
(0.620672 -0.0513461 -1.93509e-19)
(0.703409 -0.051791 3.98269e-19)
(0.788699 -0.0453087 -1.21775e-19)
(0.851299 -0.0303493 1.92716e-20)
(-0.0078706 0.00766149 5.19121e-20)
(-0.016235 0.0174157 7.32251e-20)
(-0.0174169 0.0230645 -2.40693e-19)
(-0.0118049 0.0250101 -6.59869e-19)
(0.000477395 0.0238966 1.06057e-19)
(0.0193969 0.0203557 3.18573e-19)
(0.0450164 0.0149702 1.44336e-19)
(0.0774851 0.00826979 6.14449e-19)
(0.116999 0.000726295 -3.82489e-19)
(0.163746 -0.00723992 -4.93621e-19)
(0.217837 -0.015248 -8.97067e-20)