/*--------------------------------*- C++ -*----------------------------------*\
  =========                 |
  \\      /  F ield         | OpenFOAM: The Open Source CFD Toolbox
   \\    /   O peration     | Website:  https://openfoam.org
    \\  /    A nd           | Version:  7
     \\/     M anipulation  |
\*---------------------------------------------------------------------------*/
FoamFile
{
    version     2.0;
    format      ascii;
    class       volScalarField;
    location    "80";
    object      p;
}
// * * * * * * * * * * * * * * * * * * * * * * * * * * * * * * * * * * * * * //

dimensions      [0 2 -2 0 0 0 0];

internalField   nonuniform List<scalar> 
7158
(
-0.0527463
-0.0580296
-0.0625365
-0.0632807
-0.0597161
-0.0530917
-0.0464324
-0.0408856
-0.0376595
-0.0367867
-0.0385314
-0.0408438
-0.0423464
-0.0403717
-0.0372195
-0.0318069
-0.0284563
-0.0246654
-0.0245724
-0.0235355
-0.0251392
-0.021786
-0.0213277
-0.0144628
-0.0132136
-0.00605101
-0.00715411
0.00100848
-0.00427601
-0.0520069
-0.0569281
-0.0611621
-0.0617902
-0.0582795
-0.051873
-0.0455097
-0.0403073
-0.0374279
-0.0369341
-0.0390437
-0.0416869
-0.043414
-0.0415026
-0.0382748
-0.032633
-0.0290236
-0.0248605
-0.0244385
-0.023021
-0.0243702
-0.0208242
-0.0203104
-0.0135453
-0.0124331
-0.00562203
-0.0069327
0.00098933
-0.00443808
-0.0512619
-0.0558251
-0.0597905
-0.0603057
-0.056849
-0.0506572
-0.0445853
-0.0397237
-0.0371899
-0.0370765
-0.0395539
-0.0425323
-0.0444872
-0.0426401
-0.0393345
-0.0334599
-0.0295887
-0.0250528
-0.0243027
-0.0225077
-0.0236041
-0.0198674
-0.0192966
-0.0126301
-0.0116525
-0.00519283
-0.00670983
0.00096886
-0.00459988
-0.0505125
-0.0547219
-0.0584229
-0.0588281
-0.0554253
-0.0494447
-0.0436594
-0.0391349
-0.0369454
-0.0372134
-0.0400617
-0.0433794
-0.0455654
-0.0437839
-0.0403982
-0.0342871
-0.0301516
-0.0252424
-0.0241652
-0.0219958
-0.0228413
-0.0189159
-0.0182867
-0.0117175
-0.0108721
-0.00476346
-0.00648551
0.00094712
-0.00476137
-0.0497595
-0.0536194
-0.0570603
-0.0573581
-0.054009
-0.0482359
-0.0427323
-0.0385409
-0.036694
-0.0373444
-0.0405663
-0.0442276
-0.0466481
-0.0449336
-0.0414658
-0.0351147
-0.0307121
-0.0254293
-0.0240262
-0.0214854
-0.0220818
-0.0179699
-0.0172806
-0.0108077
-0.0100919
-0.00433395
-0.00625975
0.000924131
-0.00492255
-0.0490038
-0.0525187
-0.0557036
-0.0558966
-0.0526006
-0.0470312
-0.0418041
-0.0379416
-0.0364357
-0.0374691
-0.0410673
-0.0450764
-0.0477347
-0.0460887
-0.0425368
-0.0359425
-0.0312701
-0.0256135
-0.0238858
-0.0209768
-0.021326
-0.0170296
-0.0162787
-0.00990084
-0.0093121
-0.00390434
-0.00603256
0.000899937
-0.00508339
-0.0482464
-0.0514208
-0.0543539
-0.0544444
-0.0512008
-0.0458309
-0.040875
-0.0373371
-0.0361701
-0.0375872
-0.0415642
-0.0459251
-0.0488246
-0.0472489
-0.0436112
-0.0367702
-0.0318257
-0.0257952
-0.0237441
-0.0204702
-0.020574
-0.0160952
-0.015281
-0.00899719
-0.00853278
-0.00347468
-0.00580396
0.000874567
-0.00524385
-0.0474882
-0.0503267
-0.0530119
-0.0530023
-0.04981
-0.0446355
-0.0399453
-0.0367273
-0.0358972
-0.0376981
-0.0420563
-0.0467732
-0.0499174
-0.0484137
-0.0446885
-0.0375976
-0.0323787
-0.0259744
-0.0236014
-0.0199658
-0.0198261
-0.015167
-0.0142879
-0.0080969
-0.00775407
-0.00304499
-0.00557395
0.00084805
-0.00540392
-0.04673
-0.0492373
-0.0516788
-0.051571
-0.048429
-0.0434452
-0.039015
-0.0361123
-0.0356168
-0.0378016
-0.0425432
-0.0476198
-0.0510123
-0.0495825
-0.0457684
-0.0384247
-0.0329292
-0.0261512
-0.0234576
-0.0194637
-0.0190823
-0.014245
-0.0132994
-0.00720016
-0.0069761
-0.00261532
-0.00534254
0.000820422
-0.00556357
-0.0459726
-0.0481534
-0.0503552
-0.0501513
-0.0470581
-0.0422605
-0.0380844
-0.0354922
-0.0353287
-0.0378973
-0.0430242
-0.0484645
-0.0521088
-0.0507551
-0.0468507
-0.0392513
-0.0334769
-0.0263255
-0.0233131
-0.0189641
-0.018343
-0.0133296
-0.0123158
-0.00630714
-0.00619899
-0.00218569
-0.00510976
0.000791715
-0.00572278
-0.045217
-0.0470761
-0.0490421
-0.0487438
-0.045698
-0.0410816
-0.0371537
-0.0348669
-0.0350326
-0.0379846
-0.0434988
-0.0493065
-0.0532063
-0.0519308
-0.047935
-0.0400771
-0.0340219
-0.0264975
-0.0231678
-0.0184673
-0.0176082
-0.0124209
-0.0113372
-0.00541803
-0.00542285
-0.00175613
-0.00487561
0.000761957
-0.00588153
-0.0444638
-0.0460061
-0.0477403
-0.0473492
-0.0443491
-0.0399091
-0.0362232
-0.0342364
-0.0347285
-0.0380633
-0.0439663
-0.0501451
-0.0543041
-0.0531092
-0.0490211
-0.040902
-0.0345641
-0.0266672
-0.0230219
-0.0179734
-0.0168781
-0.0115191
-0.0103639
-0.00453301
-0.0046478
-0.00132668
-0.0046401
0.000731183
-0.00603978
-0.0437138
-0.0449443
-0.0464505
-0.0459682
-0.043012
-0.0387432
-0.0352931
-0.033601
-0.0344162
-0.0381329
-0.0444263
-0.0509797
-0.0554016
-0.0542898
-0.0501085
-0.0417259
-0.0351034
-0.0268346
-0.0228756
-0.0174825
-0.016153
-0.0106244
-0.00939586
-0.00365225
-0.00387396
-0.000897361
-0.00440324
0.00069942
-0.00619751
-0.0429677
-0.0438913
-0.0451734
-0.0446014
-0.0416872
-0.0375843
-0.0343636
-0.0329606
-0.0340955
-0.038193
-0.0448781
-0.0518096
-0.056498
-0.0554721
-0.0511971
-0.0425485
-0.0356398
-0.0269997
-0.0227289
-0.0169949
-0.015433
-0.00973706
-0.00843342
-0.00277593
-0.00310145
-0.000468205
-0.00416506
0.000666695
-0.00635471
-0.0422263
-0.042848
-0.0439099
-0.0432494
-0.0403751
-0.0364328
-0.033435
-0.0323152
-0.0337663
-0.0382433
-0.045321
-0.052634
-0.0575929
-0.0566556
-0.0522864
-0.0433697
-0.0361732
-0.0271627
-0.022582
-0.0165106
-0.0147182
-0.00885715
-0.0074767
-0.00190421
-0.00233037
-3.92338e-05
-0.00392556
0.000633038
-0.00651135
-0.0414902
-0.0418151
-0.0426605
-0.0419127
-0.0390761
-0.035289
-0.0325074
-0.031665
-0.0334285
-0.0382833
-0.0457547
-0.0534523
-0.0586853
-0.0578398
-0.0533762
-0.0441893
-0.0367035
-0.0273235
-0.0224349
-0.0160298
-0.0140089
-0.00798491
-0.00652586
-0.00103727
-0.00156084
0.000389526
-0.00368476
0.000598475
-0.0066674
-0.04076
-0.0407931
-0.0414258
-0.0405919
-0.0377907
-0.0341532
-0.0315813
-0.0310101
-0.0330818
-0.0383128
-0.0461783
-0.0542637
-0.0597747
-0.059024
-0.054466
-0.0450072
-0.0372306
-0.0274821
-0.0222879
-0.0155527
-0.0133051
-0.0071205
-0.00558107
-0.000175256
-0.000792972
0.000818052
-0.00344267
0.000563033
-0.00682284
-0.0400363
-0.0397828
-0.0402065
-0.0392875
-0.0365194
-0.0330259
-0.0306567
-0.0303505
-0.0327263
-0.0383312
-0.0465915
-0.0550676
-0.0608604
-0.0602078
-0.0555555
-0.0458231
-0.0377546
-0.0276386
-0.0221408
-0.0150794
-0.012607
-0.0062641
-0.00464248
0.00068165
-2.68754e-05
0.00124632
-0.0031993
0.000526735
-0.00697765
-0.0393197
-0.0387847
-0.0390031
-0.0380001
-0.0352625
-0.0319074
-0.029734
-0.0296864
-0.0323619
-0.0383383
-0.0469935
-0.0558631
-0.0619416
-0.0613905
-0.0566444
-0.0466369
-0.0382752
-0.0277931
-0.0219939
-0.0146101
-0.0119148
-0.00541587
-0.00371025
0.0015333
0.000737344
0.00167432
-0.00295468
0.000489609
-0.0071318
-0.0386107
-0.0377994
-0.0378162
-0.0367299
-0.0340205
-0.0307979
-0.0288135
-0.0290179
-0.0319883
-0.0383336
-0.0473837
-0.0566496
-0.0630176
-0.0625717
-0.0577323
-0.0474485
-0.0387926
-0.0279455
-0.0218473
-0.0141448
-0.0112285
-0.00457598
-0.00278454
0.00237953
0.00149958
0.00210202
-0.00270881
0.000451675
-0.00728527
-0.0379098
-0.0368273
-0.0366463
-0.0354776
-0.0327938
-0.029698
-0.0278953
-0.0283452
-0.0316056
-0.038317
-0.0477617
-0.0574263
-0.0640877
-0.0637506
-0.0588188
-0.0482575
-0.0393065
-0.0280958
-0.0217009
-0.0136836
-0.0105484
-0.00374458
-0.0018655
0.00322019
0.00225971
0.0025294
-0.00246172
0.000412954
-0.00743804
-0.0372175
-0.035869
-0.0354937
-0.0342435
-0.0315826
-0.0286078
-0.0269799
-0.0276683
-0.0312136
-0.0382879
-0.0481269
-0.0581925
-0.0651511
-0.0649269
-0.0599035
-0.049064
-0.0398169
-0.0282441
-0.0215549
-0.0132267
-0.00987453
-0.00292183
-0.000953262
0.00405512
0.00301765
0.00295646
-0.00221341
0.000373469
-0.00759009
-0.0365342
-0.0349249
-0.0343589
-0.033028
-0.0303874
-0.0275278
-0.0260675
-0.0269874
-0.0308124
-0.0382461
-0.0484786
-0.0589474
-0.0662071
-0.0660997
-0.0609862
-0.0498676
-0.0403238
-0.0283904
-0.0214094
-0.0127743
-0.00920702
-0.00210789
-4.7988e-05
0.00488418
0.00377328
0.00338316
-0.00196392
0.00033324
-0.00774138
-0.0358604
-0.0339953
-0.0332423
-0.0318315
-0.0292086
-0.0264582
-0.0251584
-0.0263026
-0.0304018
-0.0381913
-0.0488164
-0.0596905
-0.0672549
-0.0672686
-0.0620663
-0.0506682
-0.0408271
-0.0285347
-0.0212644
-0.0123263
-0.008546
-0.0013029
0.000850189
0.00570723
0.0045265
0.00380951
-0.00171324
0.000292288
-0.00789191
-0.0351963
-0.0330807
-0.0321442
-0.0306542
-0.0280463
-0.0253994
-0.0242528
-0.0256143
-0.0299819
-0.0381232
-0.0491396
-0.0604208
-0.0682938
-0.0684329
-0.0631434
-0.0514656
-0.0413268
-0.028677
-0.02112
-0.0118828
-0.00789157
-0.000506988
0.00174113
0.00652411
0.00527721
0.00423548
-0.00146141
0.000250625
-0.00804164
-0.0345424
-0.0321813
-0.031065
-0.0294966
-0.026901
-0.0243518
-0.0233511
-0.0249224
-0.0295526
-0.0380415
-0.0494478
-0.0611377
-0.0693231
-0.0695919
-0.0642172
-0.0522597
-0.0418226
-0.0288173
-0.0209762
-0.0114441
-0.00724385
0.000279699
0.00262469
0.00733469
0.00602529
0.00466105
-0.00120844
0.00020827
-0.00819055
-0.0338989
-0.0312974
-0.0300048
-0.0283588
-0.025773
-0.0233155
-0.0224535
-0.0242273
-0.0291139
-0.0379459
-0.0497405
-0.0618405
-0.0703419
-0.0707451
-0.0652873
-0.0530503
-0.0423147
-0.0289556
-0.0208331
-0.01101
-0.00660293
0.00105703
0.00350076
0.00813883
0.00677066
0.00508623
-0.000954356
0.000165242
-0.00833862
-0.0332662
-0.0304293
-0.0289641
-0.0272411
-0.0246625
-0.022291
-0.0215604
-0.0235291
-0.0286658
-0.0378361
-0.0500171
-0.0625285
-0.0713496
-0.0718918
-0.0663531
-0.0538371
-0.0428028
-0.029092
-0.0206907
-0.0105808
-0.00596891
0.00182488
0.00436919
0.0089364
0.0075132
0.00551099
-0.000699173
0.000121549
-0.00848583
-0.0326445
-0.0295773
-0.0279428
-0.0261438
-0.0235698
-0.0212785
-0.0206721
-0.022828
-0.0282084
-0.0377121
-0.0502771
-0.063201
-0.0723453
-0.0730314
-0.0674144
-0.0546199
-0.0432871
-0.0292263
-0.0205491
-0.0101565
-0.00534188
0.00258313
0.00522986
0.00972726
0.00825281
0.00593533
-0.000442913
7.72086e-05
-0.00863214
-0.0320339
-0.0287414
-0.0269413
-0.0250671
-0.0224951
-0.0202784
-0.0197888
-0.0221242
-0.0277417
-0.0375734
-0.0505201
-0.0638573
-0.0733283
-0.0741633
-0.0684706
-0.0553987
-0.0437672
-0.0293587
-0.0204083
-0.00973707
-0.00472193
0.00333166
0.00608264
0.0105113
0.0089894
0.00635924
-0.0001856
3.22327e-05
-0.00877754
-0.0314348
-0.0279218
-0.0259596
-0.024011
-0.0214388
-0.0192909
-0.0189109
-0.0214181
-0.0272658
-0.03742
-0.0507456
-0.0644967
-0.0742979
-0.0752867
-0.0695213
-0.0561731
-0.0442433
-0.0294891
-0.0202683
-0.00932265
-0.00410915
0.00407036
0.00692743
0.0112883
0.00972285
0.00678271
7.27441e-05
-1.33722e-05
-0.00892201
-0.0308473
-0.0271186
-0.0249979
-0.0229759
-0.020401
-0.0183163
-0.0180387
-0.0207097
-0.0267806
-0.0372516
-0.0509532
-0.0651187
-0.0752533
-0.076401
-0.0705661
-0.056943
-0.0447153
-0.0296174
-0.0201291
-0.00891328
-0.0035036
0.00479913
0.0077641
0.0120583
0.0104531
0.00720573
0.000332096
-5.95941e-05
-0.00906551
-0.0302715
-0.026332
-0.0240562
-0.0219617
-0.0193819
-0.0173549
-0.0171725
-0.0199994
-0.0262864
-0.0370681
-0.0511425
-0.0657224
-0.0761937
-0.0775055
-0.0716044
-0.0577082
-0.045183
-0.0297438
-0.0199908
-0.00850898
-0.00290536
0.00551786
0.00859254
0.0128211
0.01118
0.00762829
0.00059243
-0.000106423
-0.00920803
-0.0297076
-0.0255619
-0.0231346
-0.0209686
-0.0183818
-0.0164071
-0.0163127
-0.0192874
-0.0257832
-0.0368693
-0.051313
-0.0663073
-0.0771186
-0.0785997
-0.0726359
-0.0584685
-0.0456463
-0.0298681
-0.0198535
-0.00810979
-0.00231449
0.00622645
0.00941263
0.0135765
0.0119034
0.00805039
0.000853721
-0.000153855
-0.00934953
-0.0291557
-0.0248084
-0.022233
-0.0199967
-0.0174023
-0.015473
-0.0154594
-0.018574
-0.0252711
-0.0366551
-0.0514645
-0.0668729
-0.078027
-0.0796828
-0.0736601
-0.0592236
-0.0461053
-0.0299904
-0.019717
-0.00771574
-0.00173107
0.00692483
0.0102243
0.0143245
0.0126233
0.00847203
0.00111594
-0.000201883
-0.00949
-0.0286159
-0.0240715
-0.0213515
-0.0190459
-0.0164429
-0.0145529
-0.0146131
-0.0178595
-0.0247502
-0.0364255
-0.0515964
-0.0674184
-0.0789183
-0.0807542
-0.0746764
-0.0599734
-0.0465599
-0.0301107
-0.0195815
-0.00732685
-0.00115514
0.00761289
0.0110273
0.0150649
0.0133396
0.0088932
0.00137907
-0.000250502
-0.0096294
-0.0280882
-0.023351
-0.0204899
-0.0181163
-0.0154992
-0.0136471
-0.013774
-0.0171441
-0.0242208
-0.0361802
-0.0517086
-0.0679434
-0.0797919
-0.0818132
-0.0756844
-0.0607176
-0.0470099
-0.0302288
-0.0194469
-0.00694314
-0.00058676
0.00829056
0.0118218
0.0157977
0.0140521
0.00931389
0.00164307
-0.000299709
-0.0097677
-0.0275727
-0.0226471
-0.0196483
-0.017208
-0.0145741
-0.0127559
-0.0129425
-0.0164281
-0.023683
-0.0359194
-0.0518006
-0.0684472
-0.0806469
-0.0828592
-0.0766837
-0.061456
-0.0474554
-0.0303449
-0.0193132
-0.00656461
-2.59852e-05
0.00895777
0.0126074
0.0165226
0.0147608
0.00973412
0.00190791
-0.000349503
-0.00990488
-0.0270695
-0.0219595
-0.0188264
-0.0163208
-0.0136687
-0.0118794
-0.012119
-0.0157118
-0.0231369
-0.0356428
-0.0518723
-0.0689294
-0.0814828
-0.0838915
-0.0776736
-0.0621884
-0.0478961
-0.0304589
-0.0191804
-0.00619128
0.000527147
0.00961445
0.0133842
0.0172397
0.0154656
0.0101539
0.00217357
-0.00039988
-0.0100409
-0.0265786
-0.0212882
-0.0180241
-0.0154547
-0.0127835
-0.0110182
-0.0113036
-0.0149956
-0.0225827
-0.0353506
-0.0519233
-0.0693895
-0.0822988
-0.0849094
-0.0786538
-0.0629146
-0.0483321
-0.0305708
-0.0190486
-0.00582313
0.0010726
0.0102605
0.0141521
0.0179488
0.0161663
0.0105731
0.00244001
-0.000450842
-0.0101758
-0.0260999
-0.020633
-0.0172413
-0.0146095
-0.0119189
-0.0101723
-0.0104968
-0.0142798
-0.0220207
-0.0350427
-0.0519534
-0.0698268
-0.0830944
-0.0859123
-0.0796237
-0.0636343
-0.0487633
-0.0306805
-0.0189177
-0.00546015
0.00161032
0.0108959
0.0149109
0.0186498
0.0168628
0.0109919
0.0027072
-0.00050239
-0.0103094
-0.0256336
-0.0199938
-0.0164777
-0.0137853
-0.0110749
-0.00934206
-0.00969901
-0.0135646
-0.0214511
-0.0347192
-0.0519625
-0.0702411
-0.0838688
-0.0868996
-0.0805829
-0.0643473
-0.0491896
-0.030788
-0.0187877
-0.00510235
0.00214029
0.0115206
0.0156606
0.0193426
0.0175551
0.0114102
0.0029751
-0.000554525
-0.0104418
-0.0251798
-0.0193706
-0.0157334
-0.0129821
-0.0102511
-0.00852783
-0.00891053
-0.0128505
-0.0208742
-0.03438
-0.0519503
-0.0706318
-0.0846215
-0.0878705
-0.0815306
-0.0650533
-0.049611
-0.0308934
-0.0186587
-0.00474975
0.00266242
0.0121345
0.016401
0.020027
0.018243
0.0118281
0.00324368
-0.000607251
-0.010573
-0.0247383
-0.0187631
-0.0150079
-0.0121995
-0.00944758
-0.00772994
-0.00813184
-0.0121378
-0.0202901
-0.0340254
-0.0519166
-0.0709984
-0.0853517
-0.0888244
-0.0824666
-0.0657521
-0.0500274
-0.0309966
-0.0185305
-0.0044023
0.00317674
0.0127375
0.0171321
0.0207031
0.0189264
0.0122454
0.00351291
-0.000660569
-0.0107028
-0.0243077
-0.0181698
-0.0142996
-0.0114362
-0.00866328
-0.00694797
-0.00736292
-0.0114268
-0.0196992
-0.0336553
-0.0518614
-0.0713409
-0.0860594
-0.0897613
-0.0833908
-0.0664439
-0.0504386
-0.0310974
-0.0184029
-0.00405958
0.00368366
0.0133301
0.017854
0.0213708
0.0196052
0.0126623
0.00378274
-0.000714508
-0.0108313
-0.0238864
-0.0175892
-0.0136068
-0.0106902
-0.00789638
-0.00618065
-0.00660304
-0.0107172
-0.0191015
-0.03327
-0.0517852
-0.0716598
-0.0867453
-0.0906818
-0.0843032
-0.0671278
-0.0508437
-0.0311951
-0.0182752
-0.00372106
0.00418361
0.0139126
0.0185671
0.0220302
0.0202795
0.0130787
0.00405311
-0.000769127
-0.0109584
-0.0234823
-0.0170293
-0.0129378
-0.00996938
-0.0071535
-0.0054329
-0.00585563
-0.010011
-0.0184981
-0.03287
-0.0516876
-0.0719536
-0.0874059
-0.0915806
-0.0851985
-0.0678006
-0.0512424
-0.0312898
-0.0181491
-0.00338876
0.00467379
0.0144825
0.0192695
0.0226803
0.0209487
0.0134947
0.00432398
-0.000824243
-0.0110842
-0.0231199
-0.0165128
-0.0123162
-0.0093
-0.00646223
-0.00472823
-0.00513894
-0.00932039
-0.0178944
-0.0324536
-0.0515601
-0.0722071
-0.0880213
-0.0924377
-0.0860653
-0.0684604
-0.0516408
-0.0313883
-0.0180333
-0.00307015
0.00514562
0.0150312
0.0199546
0.0233168
0.0216107
0.01391
0.00459557
-0.000878897
-0.0112085
-0.0227815
-0.0160149
-0.0117157
-0.00865903
-0.00580731
-0.0040595
-0.00445079
-0.00864478
-0.0172885
-0.0320151
-0.0513931
-0.0724107
-0.0885891
-0.0932647
-0.0869249
-0.0691294
-0.0520524
-0.0315
-0.017928
-0.00276325
0.00560627
0.015565
0.0206271
0.0239413
0.0222662
0.0143255
0.00486839
-0.000933725
-0.0113307
-0.0222578
-0.0153238
-0.0109025
-0.00778666
-0.00491557
-0.00318796
-0.00359765
-0.00784744
-0.0166127
-0.0315679
-0.0512828
-0.0727348
-0.0893262
-0.0942744
-0.087911
-0.0698613
-0.0524524
-0.0315911
-0.0177697
-0.00240617
0.00613889
0.0161688
0.0213595
0.0246034
0.0229414
0.0147427
0.00514022
-0.00100177
-0.0114507
-0.0133208
-0.00850605
-0.00508449
-0.00200002
-0.00031805
-0.000841168
-0.00538741
-0.0147171
-0.0306039
-0.0515136
-0.0742653
-0.0918661
-0.0972656
-0.0904918
-0.0715938
-0.0532308
-0.0316911
-0.0172581
-0.00148013
0.00750684
0.0177133
0.0231559
0.0261934
0.0244802
0.0156295
0.00569975
-0.00119213
-0.0117036
-0.0111992
-0.00624511
-0.00278867
0.000257973
0.00187814
0.00134594
-0.00338118
-0.0130876
-0.0296841
-0.051532
-0.0753717
-0.0939421
-0.0998224
-0.0928925
-0.0731917
-0.0538439
-0.0315235
-0.0164213
-0.000226711
0.00916045
0.0195349
0.0252035
0.0281481
0.0264576
0.0168861
0.00652214
-0.00130208
-0.0120765
-0.00913946
-0.00408526
-0.000620054
0.00239618
0.00391732
0.00329167
-0.00161785
-0.0116212
-0.0287834
-0.0513688
-0.0761336
-0.0956352
-0.102078
-0.0950795
-0.0746229
-0.0543337
-0.0312599
-0.0155385
0.00103044
0.010772
0.0212824
0.0271696
0.030015
0.0283734
0.0181318
0.00735127
-0.00135453
-0.0124702
-0.00709773
-0.00195158
0.00154277
0.0045476
0.00600422
0.00533801
0.000280764
-0.0100007
-0.0277279
-0.0510728
-0.076806
-0.0972726
-0.104252
-0.0971366
-0.0759176
-0.054695
-0.0308935
-0.0145973
0.00230407
0.012371
0.0229907
0.0291125
0.0318572
0.0302885
0.019387
0.00819868
-0.00140873
-0.0128781
-0.00509668
0.000111185
0.00361588
0.00658976
0.00802358
0.00737398
0.00222663
-0.00828711
-0.0265494
-0.0506492
-0.0773371
-0.0987222
-0.106168
-0.0989447
-0.0770083
-0.0548982
-0.0304128
-0.0135945
0.0035904
0.0139413
0.0246332
0.0309918
0.0336436
0.0321768
0.0206448
0.00906164
-0.00146531
-0.0132924
-0.00314277
0.00209292
0.00557957
0.00851003
0.00992655
0.00931705
0.00412565
-0.00655994
-0.0252841
-0.0500664
-0.0776219
-0.0998496
-0.107736
-0.100447
-0.0778634
-0.0549283
-0.0298124
-0.0125287
0.00488749
0.0154768
0.0261994
0.0327864
0.0353524
0.0340153
0.0218983
0.00993817
-0.00151216
-0.0137092
-0.00123873
0.00399378
0.00743877
0.0103163
0.01171
0.0111543
0.00595696
-0.00483743
-0.0239314
-0.0492929
-0.0776068
-0.100608
-0.108922
-0.101606
-0.078456
-0.0547707
-0.0290874
-0.0113983
0.00619395
0.0169757
0.0276851
0.0344906
0.0369766
0.0357954
0.0231444
0.0108288
-0.00154351
-0.0141253
0.000612806
0.00581408
0.00919666
0.0120097
0.0133769
0.0128895
0.00772416
-0.00311468
-0.0224819
-0.0483138
-0.0772754
-0.100976
-0.109688
-0.10238
-0.0787571
-0.0544102
-0.0282338
-0.0102028
0.00750814
0.0184355
0.0290865
0.0361
0.0385113
0.0375116
0.0243809
0.0117341
-0.00155754
-0.0145368
0.00240901
0.00755361
0.0108548
0.013591
0.0149282
0.0145222
0.00942683
-0.00139138
-0.0209336
-0.0471241
-0.0766145
-0.100921
-0.10999
-0.102728
-0.0787376
-0.0538321
-0.0272481
-0.00894235
0.00882799
0.019854
0.0303999
0.0376091
0.0399508
0.0391566
0.0256044
0.0126541
-0.00155193
-0.0149378
0.00414696
0.0092121
0.0124152
0.0150621
0.0163639
0.016049
0.0110592
0.000326091
-0.0192899
-0.0457195
-0.0756048
-0.100408
-0.109787
-0.10261
-0.0783696
-0.0530224
-0.0261283
-0.00761825
0.0101509
0.0212286
0.0316221
0.0390125
0.0412886
0.0407215
0.0268108
0.0135887
-0.00152278
-0.0153211
0.00582371
0.0107894
0.0138803
0.0164257
0.017685
0.0174667
0.0126142
0.00202925
-0.0175561
-0.0440944
-0.0742264
-0.0994057
-0.109042
-0.101989
-0.077627
-0.0519684
-0.0248733
-0.00623288
0.0114736
0.0225565
0.0327505
0.0403045
0.0425187
0.0421969
0.0279958
0.0145378
-0.00146498
-0.0156778
0.00743632
0.0122851
0.0152526
0.017685
0.0188935
0.0187734
0.0140858
0.00370957
-0.0157376
-0.0422451
-0.0724644
-0.0978885
-0.107725
-0.100836
-0.0764868
-0.0506589
-0.0234836
-0.00478987
0.0127923
0.023835
0.0337835
0.0414803
0.0436355
0.0435732
0.0291543
0.0155012
-0.00137252
-0.0159974
0.00898193
0.013699
0.0165346
0.0188439
0.0199925
0.019968
0.0154684
0.00535816
-0.0138421
-0.0401717
-0.0703094
-0.0958371
-0.105812
-0.0991236
-0.0749298
-0.049085
-0.021961
-0.00329411
0.014102
0.0250607
0.0347201
0.042535
0.0446338
0.0448404
0.0302806
0.0164782
-0.00123838
-0.0162673
0.0104578
0.0150305
0.0177287
0.0199066
0.0209856
0.0210504
0.0167567
0.00696515
-0.0118798
-0.037879
-0.0677572
-0.093238
-0.103285
-0.0968341
-0.0729416
-0.0472405
-0.0203088
-0.00175178
0.0153973
0.0262303
0.0355601
0.0434645
0.0455089
0.0459885
0.0313685
0.0174676
-0.00105454
-0.016473
0.0118616
0.016279
0.0188371
0.0208773
0.0218773
0.0220211
0.0179456
0.00851953
-0.00986404
-0.0353755
-0.0648091
-0.0900853
-0.100138
-0.0939577
-0.0705144
-0.0451228
-0.0185322
-0.000170332
0.0166717
0.0273397
0.036304
0.0442647
0.0462571
0.047007
0.0324108
0.0184673
-0.000811988
-0.0165984
0.0131911
0.0174436
0.0198616
0.0217599
0.0226663
0.0228811
0.0190304
0.0100093
-0.00781039
-0.0326741
-0.0614728
-0.0863804
-0.0963715
-0.0904945
-0.0676472
-0.0427335
-0.0166379
0.00144165
0.0179177
0.0283844
0.0369532
0.0449322
0.0468751
0.0478857
0.0333997
0.0194742
-0.000501066
-0.016626
0.014445
0.0185236
0.0208031
0.0225585
0.0233686
0.0236322
0.0200065
0.0114219
-0.00573698
-0.0297922
-0.0577629
-0.082134
-0.091997
-0.0864548
-0.0643472
-0.0400789
-0.0146343
0.00307455
0.0191273
0.0293595
0.0375094
0.045464
0.0473604
0.0486148
0.0343263
0.0204835
-0.000111817
-0.016537
0.0156223
0.0195184
0.0216626
0.023276
0.023983
0.0242762
0.0208701
0.0127441
-0.0036641
-0.0267519
-0.0537009
-0.0773669
-0.0870374
-0.0818597
-0.0606305
-0.0371709
-0.0125316
0.00471792
0.0202916
0.0302595
0.0379745
0.0458578
0.0477117
0.0491848
0.0351812
0.0214889
0.000365411
-0.0163128
0.016723
0.0204279
0.0224402
0.0239148
0.0245137
0.0248155
0.0216178
0.0139629
-0.0016137
-0.0235796
-0.049316
-0.0721097
-0.0815261
-0.0767427
-0.0565229
-0.0340273
-0.0103419
0.00636074
0.0214018
0.0310786
0.0383509
0.0461117
0.0479281
0.049587
0.0359541
0.0224819
0.000939226
-0.0159353
0.0177477
0.0212524
0.0231362
0.0244765
0.0249647
0.0252524
0.0222474
0.0150658
0.000391388
-0.0203058
-0.0446448
-0.0664028
-0.0755093
-0.0711501
-0.0520598
-0.030672
-0.00807885
0.00799166
0.0224486
0.0318107
0.0386403
0.0462247
0.0480097
0.0498141
0.036634
0.0234513
0.00161628
-0.0153885
0.0186982
0.0219934
0.0237509
0.0249623
0.0253394
0.0255898
0.0227576
0.0160416
0.00232851
-0.0169637
-0.0397314
-0.0602979
-0.0690457
-0.0651407
-0.0472868
-0.0271353
-0.00575815
0.00959931
0.0234233
0.0324497
0.0388441
0.0461968
0.0479573
0.0498597
0.0372096
0.0243837
0.00240025
-0.0146599
0.0195769
0.0226534
0.0242855
0.0253735
0.0256414
0.0258313
0.0231491
0.0168818
0.00417668
-0.0135892
-0.0346273
-0.0538582
-0.0622062
-0.0587846
-0.0422587
-0.0234538
-0.00339716
0.0111725
0.0243181
0.03299
0.0389629
0.0460287
0.0477721
0.0497193
0.0376693
0.0252625
0.00329076
-0.0137416
0.0203869
0.0232362
0.0247422
0.0257118
0.0258743
0.0259817
0.0234253
0.0175821
0.00591826
-0.0102185
-0.02939
-0.0471589
-0.0550736
-0.0521626
-0.037039
-0.0196693
-0.00101499
0.0127008
0.0251263
0.0334266
0.038996
0.0457226
0.0474558
0.0493903
0.0380018
0.0260688
0.0042824
-0.0126325
0.0211319
0.0237468
0.0251249
0.0259802
0.0260428
0.0260481
0.0235929
0.0181436
0.00754093
-0.00688756
-0.0240831
-0.0402861
-0.0477416
-0.0453659
-0.0316984
-0.0158283
0.00136764
0.0141741
0.0258429
0.0337557
0.0389423
0.045282
0.0470103
0.0488718
0.0381963
0.0267814
0.00536386
-0.0113387
0.0218161
0.0241914
0.0254392
0.0261833
0.0261532
0.0260402
0.0236639
0.0185755
0.00903954
-0.00362943
-0.0187749
-0.0333346
-0.0403143
-0.0384945
-0.0263132
-0.0119802
0.00372868
0.0155836
0.0264652
0.033975
0.0387996
0.044712
0.0464377
0.0481654
0.038243
0.0273781
0.00651747
-0.00987535
0.0224436
0.024577
0.0256924
0.0263279
0.0262137
0.0259715
0.0236564
0.0188958
0.010418
-0.000473568
-0.0135362
-0.0264077
-0.0329047
-0.0316533
-0.0209626
-0.00817602
0.00604516
0.0169212
0.0269923
0.0340844
0.038566
0.0440195
0.0457403
0.0472747
0.0381335
0.0278364
0.00771911
-0.00826634
0.0230183
0.0249112
0.0258933
0.0264229
0.0262345
0.0258597
0.0235952
0.019133
0.0116899
0.00255576
-0.00843841
-0.0196144
-0.025631
-0.0249489
-0.0157255
-0.00446594
0.00829376
0.01818
0.0274259
0.0340858
0.0382403
0.0432137
0.0449213
0.046206
0.0378616
0.0281349
0.00893877
-0.00654445
0.023544
0.0252015
0.0260515
0.0264787
0.0262279
0.0257291
0.0235108
0.0193246
0.0128784
0.00544063
-0.00355072
-0.0130657
-0.0186112
-0.0184851
-0.0106777
-0.000897275
0.0104516
0.0193539
0.0277699
0.0339837
0.0378231
0.0423055
0.0439847
0.0449683
0.0374234
0.0282558
0.0101417
-0.0047501
0.0240236
0.025455
0.026177
0.0265068
0.0262074
0.0256009
0.0234365
0.0195153
0.0140139
0.00816982
0.00106222
-0.00686875
-0.0119597
-0.012341
-0.00588803
0.00248768
0.0124972
0.020438
0.0280299
0.0337845
0.0373179
0.0413086
0.0429369
0.0435741
0.0368183
0.0281859
0.01129
-0.00292962
0.0244598
0.0256781
0.0262786
0.0265186
0.0261855
0.0254969
0.0234061
0.0197517
0.0151311
0.0107385
0.00534426
-0.00112149
-0.0057815
-0.00664203
-0.00141618
0.00565363
0.0144114
0.021428
0.0282128
0.033497
0.0367309
0.0402386
0.0417877
0.0420401
0.0360493
0.0279185
0.0123452
-0.00113265
0.0248545
0.0258761
0.026364
0.0265237
0.0261724
0.0254353
0.0234488
0.0200769
0.0162643
0.0131473
0.00925143
0.00409377
-0.000163057
-0.00143336
0.00269297
0.00857375
0.0161782
0.0223208
0.0283267
0.0331315
0.036072
0.0391126
0.0405504
0.040388
0.0351248
0.0274553
0.0132706
0.000590799
0.0252096
0.026053
0.0264393
0.0265299
0.0261753
0.0254268
0.0235829
0.0205234
0.0174425
0.0154015
0.0127546
0.00871654
0.00483373
0.00324115
0.00640982
0.0112304
0.0177856
0.0231138
0.0283793
0.0326993
0.0353539
0.0379491
0.0392421
0.0386456
0.0340591
0.0268067
0.0140343
0.00219356
0.0255269
0.0262119
0.0265088
0.0265425
0.0261983
0.0254743
0.0238127
0.0211063
0.0186823
0.0175068
0.0158403
0.0127137
0.00917666
0.00736158
0.00972107
0.0136152
0.0192258
0.0238056
0.0283784
0.0322127
0.0345911
0.0367672
0.037884
0.0368472
0.0328737
0.0259924
0.0146118
0.00363427
0.0258084
0.0263548
0.0265752
0.0265643
0.0262419
0.025573
0.0241285
0.021818
0.0199803
0.0194636
0.0185092
0.0160833
0.0128669
0.0109333
0.0126291
0.0157278
0.0204958
0.0243958
0.0283304
0.0316839
0.0337982
0.0355855
0.0365008
0.0350329
0.0315971
0.0250409
0.0149888
0.00487993
0.0260565
0.0264831
0.0266398
0.026596
0.0263036
0.0257125
0.0245078
0.0226258
0.021306
0.0212584
0.0207708
0.0188546
0.0159382
0.0139832
0.0151492
0.0175751
0.0215963
0.024885
0.0282408
0.0311249
0.0329884
0.0344202
0.0351183
0.0332466
0.0302642
0.0239881
0.0151618
0.00590802
0.0262735
0.0265979
0.0267027
0.0266364
0.0263793
0.0258796
0.0249201
0.0234753
0.0226024
0.0228618
0.0226399
0.0210822
0.0184489
0.0165528
0.0173064
0.0191688
0.0225319
0.0252754
0.0281131
0.0305468
0.0321735
0.0332845
0.0337605
0.0315327
0.0289123
0.0228753
0.0151396
0.00670671
0.0264622
0.0266999
0.0267634
0.0266834
0.0264636
0.0260601
0.0253338
0.0243025
0.0237987
0.0242366
0.0241364
0.0228351
0.0204719
0.018692
0.0191296
0.0205239
0.02331
0.0255705
0.02795
0.0299592
0.0313625
0.0321878
0.0324463
0.0299302
0.0275773
0.0217464
0.0149427
0.00727391
0.0266249