/*--------------------------------*- C++ -*----------------------------------*\
  =========                 |
  \\      /  F ield         | OpenFOAM: The Open Source CFD Toolbox
   \\    /   O peration     | Website:  https://openfoam.org
    \\  /    A nd           | Version:  7
     \\/     M anipulation  |
\*---------------------------------------------------------------------------*/
FoamFile
{
    version     2.0;
    format      ascii;
    class       surfaceScalarField;
    location    "80";
    object      phi;
}
// * * * * * * * * * * * * * * * * * * * * * * * * * * * * * * * * * * * * * //

dimensions      [0 3 -1 0 0 0 0];

internalField   nonuniform List<scalar> 
8927
(
0.00141941
-0.00888609
0.00891477
0.00143327
-0.00505939
0.00504554
0.0014782
-0.00021851
0.000173573
0.00152568
0.00397785
-0.00402533
0.00154341
0.00751664
-0.00753436
0.0015224
0.0101738
-0.0101528
0.00148268
0.0116724
-0.0116327
0.00145152
0.0117117
-0.0116805
0.00144706
0.00886984
-0.00886538
0.00146683
0.00519095
-0.00521071
0.00148886
-0.000443255
0.000421228
0.00149108
-0.00461485
0.00461263
0.00147146
-0.00945948
0.00947911
0.00145013
-0.0119431
0.0119644
0.00144248
-0.0121893
0.012197
0.00144218
-0.0104916
0.0104919
0.00144112
-0.00412348
0.00412453
0.00142676
-0.000359277
0.000373639
0.00140426
0.00832358
-0.00830108
0.00138871
0.0106992
-0.0106837
0.0013792
0.0126321
-0.0126226
0.00136092
0.0118508
-0.0118325
0.0010864
-0.00106377
0.00141558
-0.00885911
0.0014319
-0.00507571
0.00147907
-0.000265675
0.00152792
0.003929
0.00154645
0.00749811
0.00152594
0.0101943
0.0014862
0.0117122
0.00145413
0.0117437
0.00144819
0.00887578
0.00146664
0.0051725
0.00148793
-0.00046455
0.00148962
-0.00461655
0.00146937
-0.00943923
0.00144777
-0.0119215
0.00144045
-0.012182
0.00144104
-0.0104922
0.00144063
-0.00412307
0.001427
-0.000345642
0.00140532
0.00834526
0.00139007
0.0107145
0.00138055
0.0126416
0.0013613
0.0118701
0.00110984
0.0014117
-0.00883378
0.00143042
-0.00509444
0.00147977
-0.000315022
0.00153002
0.00387875
0.00154939
0.00747874
0.00152943
0.0102142
0.00148968
0.0117519
0.00145667
0.0117768
0.00144922
0.00888322
0.00146634
0.00515538
0.00148693
-0.00048514
0.00148814
-0.00461775
0.00146726
-0.00941835
0.00144539
-0.0118996
0.00143838
-0.012175
0.00143987
-0.0104937
0.00144014
-0.00412334
0.00142727
-0.00033277
0.00140643
0.0083661
0.00139148
0.0107294
0.00138196
0.0126512
0.00136176
0.0118903
0.00113408
0.00140778
-0.00881006
0.00142883
-0.00511548
0.00148031
-0.000366511
0.00153197
0.0038271
0.00155225
0.00745846
0.00153288
0.0102336
0.00149312
0.0117917
0.00145915
0.0118107
0.00145017
0.00889221
0.00146595
0.00513959
0.00148586
-0.000505052
0.00148663
-0.00461852
0.00146516
-0.00939688
0.00144298
-0.0118774
0.00143626
-0.0121683
0.00143866
-0.0104961
0.00143965
-0.00412433
0.00142758
-0.0003207
0.00140758
0.00838609
0.00139293
0.0107441
0.00138341
0.0126607
0.00136229
0.0119114
0.00115909
0.0014038
-0.0087879
0.0014271
-0.00513878
0.00148069
-0.000420096
0.00153377
0.00377402
0.00155501
0.00743722
0.00153627
0.0102524
0.00149652
0.0118314
0.00146158
0.0118457
0.00145103
0.00890275
0.00146547
0.00512516
0.00148473
-0.000524314
0.0014851
-0.0046189
0.00146306
-0.00937484
0.00144055
-0.0118549
0.0014341
-0.0121618
0.00143742
-0.0104994
0.00143916
-0.00412607
0.00142792
-0.000309468
0.00140879
0.00840523
0.00139442
0.0107584
0.00138492
0.0126702
0.00136288
0.0119334
0.00118487
0.00139977
-0.00876723
0.00142524
-0.00516425
0.00148088
-0.000475739
0.00153541
0.00371949
0.00155766
0.00741496
0.0015396
0.0102704
0.00149988
0.0118711
0.00146395
0.0118816
0.00145181
0.00891489
0.00146489
0.00511208
0.00148353
-0.000542947
0.00148355
-0.00461892
0.00146095
-0.00935224
0.0014381
-0.0118321
0.0014319
-0.0121556
0.00143614
-0.0105036
0.00143866
-0.00412859
0.0014283
-0.000299108
0.00141004
0.00842349
0.00139595
0.0107725
0.00138647
0.0126797
0.00136355
0.0119563
0.00121139
0.00139568
-0.00874801
0.00142324
-0.00519181
0.0014809
-0.000533397
0.00153689
0.0036635
0.00156022
0.00739164
0.00154288
0.0102878
0.00150321
0.0119108
0.00146628
0.0119185
0.00145252
0.00892865
0.00146423
0.00510037
0.00148226
-0.000560976
0.00148198
-0.00461864
0.00145885
-0.0093291
0.00143563
-0.0118088
0.00142965
-0.0121497
0.00143483
-0.0105088
0.00143816
-0.00413192
0.00142871
-0.000289655
0.00141133
0.00844087
0.00139752
0.0107863
0.00138807
0.0126891
0.00136429
0.0119801
0.00123863
0.00139151
-0.00873018
0.0014211
-0.0052214
0.00148073
-0.000593033
0.00153821
0.00360602
0.00156267
0.00736718
0.0015461
0.0103043
0.00150649
0.0119504
0.00146856
0.0119565
0.00145316
0.00894405
0.00146348
0.00509005
0.00148092
-0.00057842
0.00148038
-0.0046181
0.00145674
-0.00930547
0.00143315
-0.0117853
0.00142737
-0.0121439
0.00143348
-0.0105149
0.00143766
-0.00413611
0.00142915
-0.000281143
0.00141267
0.00845735
0.00139913
0.0107999
0.00138972
0.0126985
0.0013651
0.0120047
0.00126658
0.00138727
-0.00871368
0.0014188
-0.00525293
0.00148038
-0.000654608
0.00153936
0.00354704
0.001565
0.00734154
0.00154926
0.0103201
0.00150974
0.0119899
0.00147079
0.0119954
0.00145372
0.00896112
0.00146264
0.00508113
0.00147952
-0.000595298
0.00147877
-0.00461735
0.00145465
-0.00928135
0.00143066
-0.0117613
0.00142505
-0.0121383
0.00143209
-0.0105219
0.00143715
-0.00414117
0.00142962
-0.000273605
0.00141404
0.00847293
0.00140077
0.0108131
0.00139141
0.0127079
0.00136598
0.0120301
0.0012952
0.00138294
-0.00869847
0.00141635
-0.00528634
0.00147982
-0.000718084
0.00154034
0.00348653
0.00156722
0.00731465
0.00155236
0.0103349
0.00151295
0.0120293
0.00147298
0.0120354
0.00145422
0.00897988
0.00146172
0.00507363
0.00147805
-0.000611628
0.00147713
-0.00461643
0.00145255
-0.00925677
0.00142815
-0.0117369
0.00142269
-0.0121328
0.00143067
-0.0105299
0.00143665
-0.00414714
0.00143011
-0.000267073
0.00141546
0.00848759
0.00140245
0.0108262
0.00139314
0.0127172
0.00136694
0.0120563
0.00132448
0.00137853
-0.00868449
0.00141373
-0.00532154
0.00147907
-0.000783424
0.00154114
0.00342446
0.00156932
0.00728647
0.00155539
0.0103489
0.00151612
0.0120686
0.00147513
0.0120764
0.00145466
0.00900035
0.00146072
0.00506757
0.00147651
-0.000627424
0.00147547
-0.00461538
0.00145046
-0.00923176
0.00142563
-0.011712
0.0014203
-0.0121275
0.00142922
-0.0105388
0.00143613
-0.00415405
0.00143064
-0.000261578
0.00141691
0.00850132
0.00140416
0.0108389
0.00139492
0.0127264
0.00136796
0.0120833
0.0013544
0.00137403
-0.00867168
0.00141094
-0.00535845
0.00147811
-0.000850592
0.00154175
0.00336082
0.0015713
0.00725692
0.00155835
0.0103618
0.00151925
0.0121077
0.00147725
0.0121184
0.00145504
0.00902257
0.00145964
0.00506297
0.00147492
-0.000642699
0.00147379
-0.00461426
0.00144838
-0.00920636
0.0014231
-0.0116867
0.00141786
-0.0121222
0.00142773
-0.0105487
0.00143562
-0.00416194
0.00143119
-0.000257151
0.0014184
0.00851411
0.00140591
0.0108514
0.00139674
0.0127356
0.00136905
0.012111
0.00138494
0.00136942
-0.00865999
0.00140798
-0.00539702
0.00147694
-0.000919551
0.00154218
0.00329558
0.00157315
0.00722596
0.00156123
0.0103737
0.00152234
0.0121466
0.00147933
0.0121614
0.00145536
0.00904654
0.00145849
0.00505985
0.00147325
-0.000657463
0.00147209
-0.00461309
0.00144631
-0.00918058
0.00142057
-0.011661
0.0014154
-0.0121171
0.0014262
-0.0105595
0.0014351
-0.00417084
0.00143177
-0.000253822
0.00141992
0.00852595
0.00140768
0.0108636
0.0013986
0.0127447
0.00137021
0.0121394
0.00141607
0.0013647
-0.00864936
0.00140484
-0.00543715
0.00147555
-0.000990265
0.00154241
0.00322872
0.00157485
0.00719352
0.00156404
0.0103845
0.0015254
0.0121852
0.00148138
0.0122054
0.00145564
0.00907229
0.00145726
0.00505822
0.00147152
-0.000671726
0.00147036
-0.00461193
0.00144424
-0.00915447
0.00141803
-0.0116348
0.00141289
-0.0121119
0.00142464
-0.0105713
0.00143457
-0.00418076
0.00143236
-0.000251619
0.00142148
0.00853684
0.00140948
0.0108756
0.0014005
0.0127537
0.00137144
0.0121684
0.00144777
0.00135987
-0.00863975
0.00140151
-0.00547878
0.00147394
-0.0010627
0.00154245
0.00316021
0.00157642
0.00715954
0.00156677
0.0103942
0.00152841
0.0122236
0.0014834
0.0122504
0.00145586
0.00909983
0.00145596
0.00505813
0.00146972
-0.000685494
0.00146861
-0.00461082
0.00144219
-0.00912804
0.00141548
-0.0116081
0.00141036
-0.0121068
0.00142304
-0.010584
0.00143403
-0.00419175
0.00143298
-0.000250571
0.00142306
0.00854676
0.00141131
0.0108874
0.00140244
0.0127625
0.00137274
0.0121981
0.00148003
0.00135492
-0.00863109
0.00139798
-0.00552185
0.0014721
-0.00113682
0.00154228
0.00309004
0.00157784
0.00712397
0.00156941
0.0104026
0.00153138
0.0122616
0.0014854
0.0122964
0.00145604
0.00912918
0.00145459
0.00505958
0.00146786
-0.00069877
0.00146683
-0.00460979
0.00144014
-0.00910135
0.00141294
-0.0115809
0.00140779
-0.0121017
0.00142141
-0.0105976
0.00143349
-0.00420383
0.00143362
-0.000250706
0.00142468
0.0085557
0.00141317
0.0108989
0.00140441
0.0127713
0.00137411
0.0122284
0.0015128
0.00134984
-0.00862334
0.00139426
-0.00556627
0.00147003
-0.00121258
0.00154189
0.00301818
0.00157911
0.00708675
0.00157196
0.0104098
0.0015343
0.0122993
0.00148736
0.0123433
0.00145618
0.00916036
0.00145315
0.00506262
0.00146594
-0.000711556
0.00146503
-0.00460889
0.0014381
-0.00907442
0.0014104
-0.0115532
0.0014052
-0.0120965
0.00141974
-0.0106121
0.00143294
-0.00421702
0.00143428
-0.00025205
0.00142632
0.00856366
0.00141505
0.0109102
0.00140642
0.0127799
0.00137554
0.0122593
0.00154608
0.00134462
-0.00861645
0.00139034
-0.00561199
0.00146772
-0.00128996
0.00154129
0.00294461
0.00158022
0.00704782
0.00157441
0.0104156
0.00153718
0.0123365
0.0014893
0.0123912
0.00145629
0.00919338
0.00145165
0.00506725
0.00146395
-0.000723851
0.0014632
-0.00460814
0.00143608
-0.00904729
0.00140786
-0.0115249
0.00140257
-0.0120912
0.00141803
-0.0106276
0.00143237
-0.00423136
0.00143495
-0.00025463
0.00142799
0.00857062
0.00141695
0.0109212
0.00140846
0.0127884
0.00137704
0.0122908
0.00157984
0.00133926
-0.00861035
0.0013862
-0.00565893
0.00146516
-0.00136892
0.00154046
0.0028693
0.00158116
0.00700712
0.00157677
0.01042
0.00154001
0.0123733
0.00149122
0.01244
0.00145635
0.00922824
0.00145009
0.00507352
0.00146189
-0.000735652
0.00146135
-0.0046076
0.00143406
-0.00902
0.00140532
-0.0114962
0.00139992
-0.0120858
0.00141629
-0.0106439
0.0014318
-0.00424687
0.00143564
-0.000258471
0.00142968
0.00857658
0.00141888
0.010932
0.00141054
0.0127968
0.0013786
0.0123227
0.00161405
0.00133375
-0.008605
0.00138185
-0.00570703
0.00146235
-0.00144942
0.0015394
0.00279225
0.00158193
0.00696459
0.00157901
0.0104229
0.00154279
0.0124095
0.00149311
0.0124897
0.00145639
0.00926496
0.00144847
0.00508144
0.00145977
-0.000746953
0.00145946
-0.00460729
0.00143205
-0.00899259
0.00140279
-0.0114669
0.00139724
-0.0120802
0.00141451
-0.0106612
0.00143121
-0.00426358
0.00143634
-0.000263598
0.0014314
0.00858152
0.00142083
0.0109426
0.00141265
0.0128049
0.00138023
0.0123551
0.00164868
0.00132808
-0.00860033
0.00137728
-0.00575622
0.00145929
-0.00153143
0.00153811
0.00271343
0.00158252
0.00692018
0.00158115
0.0104243
0.00154551
0.0124451
0.00149498
0.0125402
0.0014564
0.00930354
0.0014468
0.00509104
0.00145759
-0.000757746
0.00145755
-0.00460725
0.00143005
-0.00896509
0.00140026
-0.0114372
0.00139453
-0.0120745
0.00141269
-0.0106794
0.00143062
-0.0042815
0.00143705
-0.000270035
0.00143313
0.00858544
0.00142279
0.0109529
0.00141479
0.0128129
0.00138192
0.012388
0.00168372
0.00132225
-0.00859629
0.00137249
-0.00580645
0.00145597
-0.00161491
0.00153657
0.00263282
0.00158293
0.00687383
0.00158317
0.010424
0.00154818
0.0124801
0.00149682
0.0125916
0.00145639
0.00934397
0.00144507
0.00510236
0.00145534
-0.000768022
0.0014556
-0.0046075
0.00142806
-0.00893756
0.00139775
-0.0114068
0.0013918
-0.0120686
0.00141084
-0.0106984
0.00143
-0.00430066
0.00143778
-0.000277806
0.00143489
0.00858833
0.00142478
0.010963
0.00141695
0.0128208
0.00138368
0.0124212
0.00171913
0.00131625
-0.00859282
0.00136746
-0.00585766
0.00145238
-0.00169983
0.00153479
0.00255042
0.00158314
0.00682548
0.00158507
0.0104221
0.00155079
0.0125144
0.00149864
0.0126437
0.00145635
0.00938627
0.00144329
0.00511542
0.00145303
-0.000777766
0.00145361
-0.00460809
0.00142608
-0.00891003
0.00139524
-0.011376
0.00138905
-0.0120624
0.00140895
-0.0107183
0.00142938
-0.00432109
0.00143851
-0.000286934
0.00143666
0.00859017
0.00142678
0.0109729
0.00141915
0.0128284
0.0013855
0.0124549
0.0017549
0.00131008
-0.00858986
0.0013622
-0.00590978
0.00144852
-0.00178615
0.00153274
0.00246619
0.00158315
0.00677508
0.00158684
0.0104184
0.00155333
0.0125479
0.00150044
0.0126966
0.00145629
0.00943043
0.00144146
0.00513025
0.00145066
-0.000786963
0.00145159
-0.00460902
0.00142411
-0.00888255
0.00139275
-0.0113446
0.00138627
-0.0120559
0.00140703
-0.0107391
0.00142873
-0.0043428
0.00143924
-0.000297441
0.00143845
0.00859097
0.00142879
0.0109826
0.00142137
0.0128358
0.00138738
0.0124889
0.00179099
0.00130372
-0.00858735
0.0013567
-0.00596276
0.00144439
-0.00187383
0.00153044
0.00238014
0.00158295
0.00672257
0.00158847
0.0104129
0.0015558
0.0125806
0.00150222
0.0127502
0.00145621
0.00947643
0.00143959
0.00514688
0.00144822
-0.000795597
0.00144954
-0.00461034
0.00142215
-0.00885516
0.00139026
-0.0113127
0.00138347
-0.0120491
0.00140506
-0.0107607
0.00142807
-0.00436581
0.00143998
-0.000309349
0.00144025
0.0085907
0.00143082
0.010992
0.00142361
0.012843
0.00138932
0.0125232
0.00182738
0.00129717
-0.00858521
0.00135096
-0.00601654
0.00143998
-0.00196286
0.00152787
0.00229224
0.00158254
0.0066679
0.00158996
0.0104055
0.00155819
0.0126124
0.00150397
0.0128044
0.00145612
0.00952428
0.00143767
0.00516532
0.00144572
-0.000803647
0.00144744
-0.00461206
0.00142019
-0.00882791
0.0013878
-0.0112803
0.00138066
-0.012042
0.00140306
-0.0107831
0.00142739
-0.00439014
0.00144072
-0.000322679
0.00144206
0.00858936
0.00143286
0.0110012
0.00142588
0.01285
0.00139131
0.0125577
0.00186403
0.00129044
-0.00858338
0.00134496
-0.00607107
0.00143529
-0.00205318
0.00152503
0.0022025
0.0015819
0.00661103
0.0015913
0.0103961
0.00156051
0.0126432
0.00150569
0.0128592
0.00145602
0.00957395
0.00143572
0.00518562
0.00144316
-0.00081109
0.00144531
-0.0046142
0.00141825
-0.00880085
0.00138534
-0.0112474
0.00137782
-0.0120344
0.00140102
-0.0108063
0.00142669
-0.00441581
0.00144146
-0.000337451
0.00144389
0.00858693
0.00143492
0.0110102
0.00142816
0.0128568
0.00139337
0.0125925
0.00190093
0.0012835
-0.00858178
0.00133872
-0.00612628
0.00143031
-0.00214477
0.00152191
0.00211091
0.00158104
0.0065519
0.00159248
0.0103846
0.00156274
0.0126729
0.00150738
0.0129146
0.0014559
0.00962543
0.00143373
0.00520779
0.00144055
-0.000817904
0.00144313
-0.00461679
0.0014163
-0.00877402
0.00138291
-0.0112141
0.00137497
-0.0120265
0.00139895
-0.0108302
0.00142597
-0.00444283
0.00144221
-0.000353684
0.00144572
0.00858341
0.00143698
0.0110189
0.00143047
0.0128633
0.00139548
0.0126275
0.00193805
0.00127637
-0.00858034
0.00133221
-0.00618212
0.00142505
-0.00223761
0.0015185
0.00201745
0.00157994
0.00649046
0.0015935
0.010371
0.00156489
0.0127015
0.00150904
0.0129704
0.00145577
0.00967869
0.00143171
0.00523185
0.00143787
-0.00082406
0.00144091
-0.00461983
0.00141436
-0.00874747
0.00138049
-0.0111802
0.00137211
-0.0120181
0.00139684
-0.010855
0.00142523
-0.00447122
0.00144294
-0.000371398
0.00144757
0.00857879
0.00143906
0.0110274
0.0014328
0.0128695
0.00139765
0.0126627
0.00197535
0.00126903
-0.00857898
0.00132544
-0.00623853
0.00141949
-0.00233166
0.00151481
0.00192213
0.0015786
0.00642667
0.00159435
0.0103553
0.00156693
0.0127289
0.00151067
0.0130267
0.00145564
0.00973372
0.00142966
0.00525783
0.00143513
-0.000829531
0.00143864
-0.00462335
0.00141243
-0.00872125
0.00137809
-0.0111458
0.00136923
-0.0120093
0.0013947
-0.0108804
0.00142447
-0.00450099
0.00144368
-0.00039061
0.00144942
0.00857305
0.00144114
0.0110357
0.00143514
0.0128755
0.00139987
0.0126979
0.00201281
0.00126149
-0.0085776
0.00131841
-0.00629545
0.00141365
-0.00242689
0.00151083
0.00182495
0.00157701
0.0063605
0.00159502
0.0103373
0.00156888
0.0127551
0.00151226
0.0130833
0.0014555
0.00979048
0.00142758
0.00528575
0.00143234
-0.000834287
0.00143633
-0.00462734
0.00141049
-0.00869541
0.0013757
-0.0111111
0.00136634
-0.0119999
0.00139252
-0.0109066
0.00142368
-0.00453215
0.00144441
-0.000411338
0.00145128
0.00856618
0.00144323
0.0110438
0.0014375
0.0128813
0.00140215
0.0127333
0.0020504
0.00125375
-0.00857614
0.00131111
-0.00635281
0.00140751
-0.00252329
0.00150656
0.00172589
0.00157516
0.0062919
0.0015955
0.010317
0.00157072
0.0127798
0.00151382
0.0131402
0.00145535
0.00984895
0.00142548
0.00531563
0.00142948
-0.000838295
0.00143397
-0.00463183
0.00140856
-0.00867
0.00137334
-0.0110758
0.00136344
-0.01199
0.0013903
-0.0109335
0.00142287
-0.00456472
0.00144513
-0.0004336
0.00145314
0.00855818
0.00144532
0.0110516
0.00143988
0.0128867
0.00140447
0.0127687
0.00208808
0.0012458
-0.0085745
0.00130353
-0.00641053
0.00140107
-0.00262084
0.00150199
0.00162498
0.00157305
0.00622084
0.00159578
0.0102942
0.00157244
0.0128032
0.00151533
0.0131973
0.0014552
0.00990907
0.00142335
0.00534748
0.00142658
-0.000841521
0.00143156
-0.00463681
0.00140662
-0.00864507
0.00137099
-0.0110402
0.00136052
-0.0119795
0.00138805
-0.010961
0.00142204
-0.0045987
0.00144585
-0.00045741
0.001455
0.00854903
0.00144742
0.0110591
0.00144226
0.0128919
0.00140685
0.0128041
0.00212584
0.00123764
-0.00857259
0.00129567
-0.00646856
0.00139435
-0.00271952
0.00149713
0.00152219
0.00157068
0.00614729
0.00159587
0.010269
0.00157404
0.012825
0.00151679
0.0132545
0.00145505
0.00997082
0.00142121
0.00538131
0.00142362
-0.000843928
0.0014291
-0.00464228
0.00140469
-0.00862066
0.00136867
-0.0110042
0.00135761
-0.0119685
0.00138577
-0.0109892
0.00142118
-0.0046341
0.00144655
-0.000482785
0.00145686
0.00853871
0.00144953
0.0110665
0.00144466
0.0128967
0.00140928
0.0128395
0.00216364
0.00122929
-0.00857033
0.00128753
-0.0065268
0.00138732
-0.00281931
0.00149198
0.00141754
0.00156803
0.00607123
0.00159575
0.0102413
0.00157551
0.0128453
0.00151821
0.0133119
0.00145489
0.0100341
0.00141906
0.00541714
0.00142061
-0.00084548
0.00142658
-0.00464825
0.00140274
-0.00859682
0.00136636
-0.0109678
0.00135468
-0.0119568
0.00138346
-0.011018
0.00142029
-0.00467093
0.00144724
-0.000509739
0.00145873
0.00852723
0.00145164
0.0110736
0.00144707
0.0129013
0.00141175
0.0128748
0.00220145
0.00122074
-0.00856763
0.00127911
-0.00658518
0.00138
-0.0029202
0.00148653
0.00131101
0.00156512
0.00599264
0.00159541
0.010211
0.00157685
0.0128638
0.00151957
0.0133691
0.00145473
0.010099
0.00141689
0.00545498
0.00141755
-0.000846136
0.00142401
-0.00465471
0.00140079
-0.00857361
0.00136408
-0.0109311
0.00135175
-0.0119445
0.00138112
-0.0110473
0.00141938
-0.00470919
0.00144793
-0.000538288
0.0014606
0.00851456
0.00145375
0.0110804
0.00144948
0.0129056
0.00141427
0.01291
0.00223924
0.00121199
-0.00856441
0.0012704
-0.00664359
0.00137238
-0.00302218
0.0014808
0.00120259
0.00156194
0.00591151
0.00159485
0.0101781
0.00157805
0.0128806
0.00152088
0.0134263
0.00145456
0.0101653
0.00141473
0.00549482
0.00141444
-0.000845855
0.00142138
-0.00466164
0.00139884
-0.00855107
0.00136181
-0.0108941
0.00134882
-0.0119315
0.00137874
-0.0110773
0.00141844
-0.00474889
0.0014486
-0.000568446
0.00146246
0.00850069
0.00145587
0.011087
0.00145191
0.0129095
0.00141683
0.0129451
0.00227697
0.00120304
-0.0085606
0.00126139
-0.00670194
0.00136444
-0.00312523
0.00147478
0.00109226
0.00155848
0.00582781
0.00159407
0.0101425
0.00157909
0.0128956
0.00152213
0.0134833
0.00145441
0.010233
0.00141256
0.00553666
0.0014113
-0.00084459
0.00141869
-0.00466904
0.00139687
-0.00852924
0.00135956
-0.0108568
0.00134589
-0.0119178
0.00137634
-0.0111077
0.00141747
-0.00479002
0.00144925
-0.000600229
0.00146433
0.00848561
0.00145799
0.0110933
0.00145434
0.0129132
0.00141944
0.01298
0.00231463
0.00119394
-0.00855612
0.00125212
-0.00676012
0.00135623
-0.00322934
0.00146851
0.000979986
0.00155478
0.00574153
0.00159307
0.0101042
0.00157998
0.0129087
0.00152331
0.0135399
0.00145426
0.0103021
0.00141039
0.00558053
0.00140809
-0.000842294
0.00141594
-0.00467689
0.00139488
-0.00850818
0.00135733
-0.0108192
0.00134296
-0.0119034
0.00137391
-0.0111387
0.00141647
-0.00483258
0.0014499
-0.000633653
0.0014662
0.0084693
0.00146011
0.0110994
0.00145677
0.0129165
0.00142209
0.0130147
0.00235217
0.00118506
-0.00855096
0.00124295
-0.00681802
0.00134813
-0.00333452
0.00146232
0.000865795
0.0015511
0.00565275
0.00159197
0.0100633
0.00158074
0.0129199
0.00152432
0.0135964
0.0014539
0.0103725
0.00140796
0.00562647
0.00140459
-0.000838926
0.0014131
-0.00468539
0.00139272
-0.0084878
0.00135527
-0.0107818
0.00133997
-0.0118881
0.0013716
-0.0111703
0.00141546
-0.00487644
0.00145059
-0.000668783
0.00146813
0.00845176
0.00146225
0.0111053
0.00145923
0.0129196
0.00142489
0.013049
0.0023897
0.00465202
-0.00838728
0.00463494
-0.00680095
0.0047374
-0.00343697
0.00486083
0.00074236
0.00492571
0.00558788
0.00490256
0.0100865
0.00481171
0.0130108
0.00469555
0.0137125
0.00462427
0.0104438
0.00466257
0.00558816
0.00480201
-0.000978364
0.00492405
-0.00480743
0.00488978
-0.00845353
0.0047661
-0.0106581
0.00464606
-0.0117681
0.00464592
-0.0111701
0.00466516
-0.00489569
0.00467948
-0.000683106
0.00467326
0.00845799
0.00463637
0.0111422
0.00463032
0.0129256
0.00454578
0.0131335
0.00251987
0.00480081
-0.00821151
0.00477675
-0.00677689
0.00487984
-0.00354006
0.00500756
0.000614639
0.0050814
0.00551403
0.00506582
0.0101021
0.00498239
0.0130942
0.0048627
0.0138322
0.00478388
0.0105226
0.00481482
0.00555722
0.00495614
-0.00111969
0.0050876
-0.00493889
0.00505488
-0.00842081
0.00492111
-0.0105243
0.00478402
-0.011631
0.00478085
-0.011167
0.00480266
-0.00491751
0.00482488
-0.000705324
0.00482535
0.00845752
0.00478092
0.0111866
0.00477588
0.0129307
0.00469027
0.0132192
0.00265678
0.00495536
-0.00802258
0.00492342
-0.00674495
0.00502717
-0.00364381
0.00516084
0.00048097
0.00524374
0.00543113
0.00523708
0.0101087
0.00516085
0.0131704
0.00504141
0.0139516
0.00495717
0.0106068
0.00498173
0.00553267
0.00512252
-0.00126048
0.00526051
-0.00507688
0.00522926
-0.00838956
0.0050846
-0.0103797
0.00492916
-0.0114756
0.00492119
-0.011159
0.00494703
-0.00494334
0.00497715
-0.000735436
0.00498337
0.00845129
0.00493225
0.0112378
0.00492641
0.0129365
0.00483958
0.013306
0.002798
0.00511583
-0.00781919
0.00507444
-0.00670356
0.00517875
-0.00374812
0.00531952
0.000340198
0.00541342
0.00533723
0.00541754
0.0101046
0.00535064
0.0132373
0.00523351
0.0140688
0.00514553
0.0106948
0.00516348
0.00551472
0.00530121
-0.00139822
0.0054434
-0.00521906
0.005413
-0.00835916
0.00525719
-0.0102238
0.00508163
-0.0113
0.0050676
-0.011145
0.00509773
-0.00497347
0.00513665
-0.00077435
0.00514956
0.00843837
0.00509069
0.0112966
0.00508315
0.012944
0.00499576
0.0133934
0.00294287
0.00528265
-0.00760033
0.00523004
-0.00665096
0.00533426
-0.00385234
0.00548328
0.000191184
0.00559034
0.00523016
0.00560764
0.0100873
0.00555245
0.0132925
0.00543999
0.0141812
0.00535031
0.0107845
0.00536148
0.00550355
0.00549329
-0.00153003
0.00563689
-0.00536266
0.00560648
-0.00832875
0.00543932
-0.0100567
0.0052419
-0.0111026
0.0052204
-0.0111235
0.00525491
-0.00500798
0.00530359
-0.000823029
0.00532436
0.0084176
0.00525679
0.0113642
0.00524632
0.0129545
0.005159
0.0134807
0.00309065
0.00545615
-0.00736526
0.00539037
-0.00658518
0.00549371
-0.00395567
0.005652
3.28943e-05
0.0057745
0.00510766
0.00580755
0.0100543
0.00576652
0.0133335
0.00566163
0.0142861
0.00557287
0.0108733
0.00557716
0.00549925
0.00569991
-0.00165277
0.00584162
-0.00550438
0.00580997
-0.0082971
0.00563136
-0.00987808
0.00541044
-0.0108817
0.00537987
-0.0110929
0.00541872
-0.00504684
0.00547822
-0.000882522
0.0055082
0.00838761
0.00543115
0.0114413
0.00541615
0.0129695
0.00532952
0.0135673
0.00324046
0.00563667
-0.00711363
0.00555571
-0.00650422
0.00565712
-0.00405709
0.0058256
-0.000135579
0.00596581
0.00496745
0.00601716
0.0100029
0.0059929
0.0133578
0.00589906
0.01438
0.00581429
0.010958
0.00581173
0.00550182
0.00592219
-0.00176323
0.0060582
-0.00564038
0.00602368
-0.00826258
0.00583359
-0.00968799
0.0055877
-0.0106358
0.00554628
-0.0110515
0.00558932
-0.00508987
0.00566074
-0.000953943
0.00570155
0.0083468
0.00561436
0.0115284
0.00559296
0.0129909
0.0055076
0.0136527
0.00339126
0.00582454
-0.00684554
0.00572647
-0.00640615
0.00582461
-0.00415522
0.00600395
-0.000314923
0.00616405
0.00480735
0.0062362
0.00993077
0.00623154
0.0133625
0.00615268
0.0144588
0.00607527
0.0110354
0.00606609
0.005511
0.00616106
-0.0018582
0.00628713
-0.00576645
0.00624774
-0.00822319
0.00604621
-0.00948645
0.0057741
-0.0103637
0.00571993
-0.0109973
0.00576681
-0.00513675
0.0058513
-0.00103843
0.00590485
0.00829324
0.00580712
0.0116262
0.00577719
0.0130208
0.0056936
0.0137363
0.00354196
0.00602008
-0.0065617
0.00590318
-0.00628925
0.00599635
-0.00424839
0.00618693
-0.000505502
0.00636889
0.00462539
0.00646418
0.00983548
0.00648216
0.0133445
0.00642249
0.0145185
0.00635605
0.0111019
0.00634078
0.00552627
0.00641727
-0.00193469
0.00652883
-0.00587801
0.00648215
-0.00817651
0.0062693
-0.0092736
0.00597003
-0.0100644
0.00590108
-0.0109283
0.00595128
-0.00518696
0.00604999
-0.00113714
0.00611854
0.00822469
0.00601017
0.0117346
0.00596938
0.0130616
0.00588798
0.0138177
0.00369132
0.00622354
-0.00626345
0.00608644
-0.00615215
0.00617271
-0.00433466
0.00637444
-0.000707234
0.00657982
0.00442001
0.00670043
0.00971487
0.00674417
0.0133007
0.00670804
0.0145546
0.00665632
0.0111536
0.00663587
0.00554671
0.00669121
-0.00199003
0.00678358
-0.00597039
0.00672679
-0.00811972
0.0065028
-0.00904961
0.00617582
-0.00973744
0.00609
-0.0108425
0.00614278
-0.00523973
0.0062568
-0.00125116
0.00634297
0.00813851
0.00622431
0.0118532
0.00617024
0.0131157
0.0060914
0.0138965
0.00383808
0.00643507
-0.0059528
0.00627693
-0.00599401
0.00635415
-0.00441187
0.0065664
-0.000919485
0.00679621
0.0041902
0.00694399
0.00956708
0.00701664
0.0132281
0.00700837
0.0145629
0.00697521
0.0111868
0.00695086
0.00557107
0.00698288
-0.00202206
0.00705142
-0.00603892
0.0069814
-0.0080497
0.0067465
-0.00881471
0.00639172
-0.00938266
0.00628696
-0.0107378
0.00634132
-0.00529409
0.00647164
-0.00138149
0.00657842
0.00803173
0.00645041
0.0119812
0.00638069
0.0131854
0.00630469
0.0139725
0.00398095
0.00665468
-0.00563243
0.00647531
-0.00581464
0.00654123
-0.00447779
0.00676271
-0.00114097
0.00701728
0.00393563
0.00719369
0.00939067
0.00729824
0.0131236
0.00732198
0.0145392
0.00731123
0.0111975
0.00728465
0.00559765
0.00729184
-0.00202925
0.00733213
-0.00607921
0.00724552
-0.00796309
0.00700001
-0.0085692
0.00661786
-0.00900051
0.00649219
-0.0106121
0.00654685
-0.00534875
0.00669425
-0.00152889
0.00682501
0.00790097
0.00668935
0.0121169
0.0066019
0.0132728
0.00652898
0.0140455
0.0041187
0.00688221
-0.00530559
0.00668215
-0.00561458
0.00673451
-0.00453015
0.00696322
-0.00136968
0.0072421
0.00365675
0.0074481
0.00918467
0.00758723
0.0129844
0.00764682
0.0144796
0.00766226
0.0111821
0.00763555
0.00562436
0.0076171
-0.00201079
0.00762521
-0.00608733
0.00751852
-0.0078564
0.00726277
-0.00831345
0.00685428
-0.00859202
0.00670587
-0.0104637
0.00675929
-0.00540217
0.00692419
-0.00169379
0.00708264
0.00774252
0.00694201
0.0122575
0.00683531
0.0133796
0.00676569
0.0141151
0.00425019
0.00711732
-0.00497601
0.00689785
-0.00539511
0.00693447
-0.00456677
0.0071677
-0.00160291
0.00746958
0.00335487
0.00770555
0.0089487
0.0078815
0.0128085
0.00798029
0.0143808
0.00802559
0.0111368
0.00800124
0.00564871
0.00795711
-0.00196666
0.00792979
-0.00606001
0.00779958
-0.00772618
0.00753399
-0.00804786
0.00710081
-0.00815884
0.00692814
-0.010291
0.00697847
-0.0054525
0.0071608
-0.00187611
0.00735095
0.00755238
0.00720919
0.0123993
0.00708261
0.0135061
0.00701658
0.0141811
0.00437451
0.0073595
-0.00464776
0.00712256
-0.00515817
0.00714139
-0.0045856
0.00737579
-0.00183731
0.00769854
0.00303213
0.00796415
0.00868308
0.00817848
0.0125942
0.00831929
0.01424
0.00839799
0.0110581
0.00837888
0.00566782
0.0083098
-0.00189757
0.0082446
-0.00599481
0.00808763
-0.00756921
0.0078127
-0.00777293
0.00735717
-0.00770331
0.00715909
-0.0100929
0.00720417
-0.00549758
0.00740319
-0.00207513
0.00762921
0.00732636
0.00749151
0.012537
0.00734574
0.0136519
0.00728373
0.0142431
0.004491
0.00760807
-0.0043251
0.00735613
-0.00490623
0.00735527
-0.00458474
0.00758693
-0.00206898
0.00792762
0.00269144
0.00822179
0.00838891
0.00847527
0.0123407
0.00866029
0.0140549
0.00877576
0.0109426
0.00876513
0.00567845
0.00867254
-0.00180498
0.00856799
-0.00589027
0.00838142
-0.00738263
0.00809775
-0.00748927
0.00762282
-0.00722838
0.00739869
-0.0098688
0.00743613
-0.00553502
0.00765021
-0.00228921
0.00791627
0.0070603
0.00778927
0.012664
0.00762671
0.0138145
0.00756946
0.0143004
0.00459938
0.00786222
-0.00401234
0.00759815
-0.00464216
0.00757571
-0.0045623
0.00780026
-0.00229353
0.00815524
0.00233647
0.0084761
0.00806805
0.00876864
0.0120481
0.00899947
0.0138241
0.00915493
0.0107871
0.00915629
0.00567708
0.00904224
-0.00169093
0.00889791
-0.00574594
0.00867948
-0.0071642
0.00838779
-0.00719758
0.00789708
-0.00673766
0.00764679
-0.00961852
0.00767399
-0.00556222
0.00790046
-0.00251568
0.00821047
0.00675029
0.00810232
0.0127721
0.00792744
0.0139893
0.00787617
0.0143516
0.00469974
0.00812107
-0.00371372
0.00784795
-0.00436905
0.00780194
-0.00451629
0.00801447
-0.00250606
0.00837945
0.00197149
0.00872442
0.00772308
0.0090551
0.0117175
0.00933281
0.0135464
0.0095313
0.0105886
0.0095484
0.00565998
0.00941541
-0.00155794
0.00923191
-0.00556244
0.00898018
-0.00691247
0.00868137
-0.00689878
0.00817903
-0.00623531
0.00790314
-0.00934263
0.00791739
-0.00557647
0.00815234
-0.00275063
0.00850963
0.00639299
0.00842986
0.0128519
0.00824949
0.0141697
0.00820614
0.014395
0.00479255
0.00838365
-0.00343329
0.00810475
-0.00409016
0.00803283
-0.00444436
0.00822767
-0.0027009
0.00859776
0.00160141
0.00896371
0.00735712
0.00933098
0.0113502
0.00965629
0.0132211
0.00990067
0.0103443
0.00993727
0.00562338
0.00978822
-0.00140888
0.00956721
-0.00534143
0.00928169
-0.00662696
0.00897693
-0.00659402
0.0084676
-0.00572598
0.00816728
-0.0090423
0.00816588
-0.00557507