/*--------------------------------*- C++ -*----------------------------------*\
  =========                 |
  \\      /  F ield         | OpenFOAM: The Open Source CFD Toolbox
   \\    /   O peration     | Website:  https://openfoam.org
    \\  /    A nd           | Version:  7
     \\/     M anipulation  |
\*---------------------------------------------------------------------------*/
FoamFile
{
    version     2.0;
    format      ascii;
    class       volScalarField;
    location    "200";
    object      p;
}
// * * * * * * * * * * * * * * * * * * * * * * * * * * * * * * * * * * * * * //

dimensions      [0 2 -2 0 0 0 0];

internalField   nonuniform List<scalar> 
7156
(
-0.381347
-0.382144
-0.382621
-0.382999
-0.38074
-0.381685
-0.382248
-0.382698
-0.380156
-0.381247
-0.381896
-0.382417
-0.379605
-0.380841
-0.381572
-0.382164
-0.379095
-0.380472
-0.381285
-0.381945
-0.378636
-0.38015
-0.381042
-0.381769
-0.378236
-0.379883
-0.380851
-0.381641
-0.377904
-0.379677
-0.380718
-0.38157
-0.377648
-0.379541
-0.380651
-0.381562
-0.377477
-0.379482
-0.380657
-0.381623
-0.377397
-0.379506
-0.380741
-0.38176
-0.377417
-0.379621
-0.380911
-0.381978
-0.377542
-0.37983
-0.381171
-0.382284
-0.377777
-0.380141
-0.381527
-0.38268
-0.383666
-0.378129
-0.380556
-0.381981
-0.383171
-0.384193
-0.378601
-0.38108
-0.382538
-0.38376
-0.384813
-0.379196
-0.381716
-0.3832
-0.384449
-0.385531
-0.379916
-0.382465
-0.38397
-0.38524
-0.386347
-0.380764
-0.383329
-0.384847
-0.386135
-0.387262
-0.38174
-0.384307
-0.385833
-0.387132
-0.388277
-0.382842
-0.3854
-0.386926
-0.388232
-0.389389
-0.390411
-0.38407
-0.386605
-0.388124
-0.389431
-0.390597
-0.391633
-0.38542
-0.387919
-0.389425
-0.390728
-0.391897
-0.392945
-0.386889
-0.38934
-0.390825
-0.392119
-0.393287
-0.394343
-0.388472
-0.390863
-0.392321
-0.393599
-0.394763
-0.395822
-0.396814
-0.390164
-0.392483
-0.393907
-0.395164
-0.396318
-0.397377
-0.398377
-0.391958
-0.394194
-0.395577
-0.396809
-0.397947
-0.399002
-0.400006
-0.393847
-0.395989
-0.397325
-0.398525
-0.399645
-0.400691
-0.401696
-0.395824
-0.397862
-0.399145
-0.400308
-0.401403
-0.402437
-0.403438
-0.404416
-0.39788
-0.399804
-0.401029
-0.40215
-0.403216
-0.404232
-0.405225
-0.406203
-0.400006
-0.401809
-0.402969
-0.404043
-0.405075
-0.406069
-0.407049
-0.408022
-0.402193
-0.403868
-0.404959
-0.40598
-0.406973
-0.40794
-0.408903
-0.409866
-0.404433
-0.405972
-0.40699
-0.407954
-0.408901
-0.409837
-0.410777
-0.411725
-0.41267
-0.406715
-0.408114
-0.409054
-0.409956
-0.410854
-0.411752
-0.412664
-0.413591
-0.414521
-0.409031
-0.410286
-0.411144
-0.411979
-0.412823
-0.413677
-0.414556
-0.415456
-0.416365
-0.411372
-0.41248
-0.413252
-0.414017
-0.414801
-0.415607
-0.416445
-0.417312
-0.418194
-0.419062
-0.413729
-0.414689
-0.415373
-0.416062
-0.416782
-0.417533
-0.418325
-0.419152
-0.419999
-0.420835
-0.416094
-0.416905
-0.417499
-0.41811
-0.418759
-0.41945
-0.420189
-0.420969
-0.421773
-0.422571
-0.41846
-0.419124
-0.419624
-0.420153
-0.420728
-0.421352
-0.422031
-0.422757
-0.423511
-0.424261
-0.424965
-0.420821
-0.421338
-0.421744
-0.422188
-0.422683
-0.423236
-0.423848
-0.424512
-0.425207
-0.425901
-0.426551
-0.423171
-0.423544
-0.423855
-0.42421
-0.424622
-0.425096
-0.425635
-0.426228
-0.426856
-0.427486
-0.428072
-0.428558
-0.425505
-0.425737
-0.425953
-0.426217
-0.426541
-0.426931
-0.427389
-0.427905
-0.428457
-0.429013
-0.429526
-0.429939
-0.42782
-0.427916
-0.428036
-0.428206
-0.428438
-0.428738
-0.429108
-0.429539
-0.430007
-0.43048
-0.430911
-0.431241
-0.431398
-0.430114
-0.430077
-0.430102
-0.430176
-0.430312
-0.430517
-0.430793
-0.43113
-0.431506
-0.431888
-0.432228
-0.432466
-0.432529
-0.432385
-0.432221
-0.43215
-0.432127
-0.432162
-0.432267
-0.432443
-0.432679
-0.432955
-0.433236
-0.433476
-0.433613
-0.433574
-0.434633
-0.434347
-0.434181
-0.434059
-0.433991
-0.433991
-0.434059
-0.434188
-0.434355
-0.434528
-0.434659
-0.434687
-0.434536
-0.434118
-0.436859
-0.436457
-0.436196
-0.435974
-0.435799
-0.435689
-0.435645
-0.435659
-0.435711
-0.435768
-0.435782
-0.435692
-0.435422
-0.434882
-0.439065
-0.438552
-0.438198
-0.437873
-0.43759
-0.437365
-0.437203
-0.437096
-0.437026
-0.436959
-0.436849
-0.436633
-0.436237
-0.435568
-0.434522
-0.441255
-0.440635
-0.440188
-0.439761
-0.439365
-0.439023
-0.438737
-0.438504
-0.438305
-0.438108
-0.437866
-0.437518
-0.436988
-0.436184
-0.435
-0.443433
-0.442711
-0.442172
-0.441641
-0.441131
-0.440666
-0.440254
-0.439889
-0.439555
-0.439221
-0.438842
-0.438355
-0.437685
-0.436738
-0.43541
-0.433581
-0.445603
-0.444784
-0.444153
-0.443517
-0.442891
-0.442302
-0.441757
-0.441256
-0.440783
-0.440307
-0.439784
-0.439153
-0.438336
-0.437241
-0.435763
-0.433782
-0.431171
-0.447773
-0.446859
-0.446137
-0.445395
-0.444651
-0.443934
-0.443255
-0.442613
-0.441996
-0.441373
-0.440702
-0.43992
-0.438951
-0.437702
-0.436068
-0.433929
-0.431162
-0.449948
-0.448942
-0.448129
-0.447281
-0.446416
-0.445569
-0.444752
-0.443967
-0.443202
-0.442428
-0.441604
-0.440666
-0.43954
-0.438131
-0.436334
-0.434031
-0.4311
-0.427421
-0.452136
-0.45104
-0.450136
-0.44918
-0.448194
-0.447215
-0.446258
-0.445326
-0.444409
-0.443481
-0.442499
-0.441402
-0.440113
-0.438538
-0.436572
-0.434097
-0.430994
-0.427147
-0.454345
-0.453159
-0.452164
-0.451099
-0.44999
-0.448878
-0.447778
-0.446697
-0.445626
-0.444541
-0.443397
-0.442136
-0.440679
-0.438932
-0.436789
-0.434134
-0.430849
-0.426823
-0.421967
-0.456583
-0.455307
-0.454219
-0.453045
-0.451812
-0.450564
-0.44932
-0.448088
-0.446861
-0.445615
-0.444308
-0.442878
-0.441247
-0.439322
-0.436994
-0.434149
-0.43067
-0.426451
-0.421408
-0.415496
-0.458859
-0.45749
-0.456309
-0.455024
-0.453665
-0.452281
-0.450892
-0.449508
-0.448123
-0.446714
-0.445239
-0.443636
-0.441827
-0.439716
-0.437195
-0.434149
-0.430463
-0.426035
-0.420785
-0.414673
-0.461179
-0.459717
-0.45844
-0.457043
-0.455558
-0.454037
-0.452501
-0.450964
-0.449419
-0.447845
-0.446199
-0.444419
-0.442426
-0.440121
-0.437397
-0.434138
-0.430232
-0.425577
-0.4201
-0.413762
-0.406599
-0.463554
-0.461993
-0.46062
-0.459109
-0.457497
-0.455837
-0.454155
-0.452462
-0.450757
-0.449016
-0.447196
-0.445234
-0.443049
-0.440543
-0.437606
-0.434122
-0.429979
-0.425081
-0.419356
-0.412768
-0.40535
-0.397077
-0.46599
-0.464327
-0.462854
-0.461228
-0.459487
-0.457689
-0.455859
-0.454011
-0.452144
-0.450233
-0.448235
-0.446087
-0.443704
-0.440987
-0.437825
-0.434102
-0.429708
-0.424548
-0.418555
-0.411696
-0.404001
-0.395442
-0.38646
-0.468495
-0.466724
-0.465149
-0.463406
-0.461536
-0.459598
-0.45762
-0.455617
-0.453585
-0.451503
-0.449324
-0.446983
-0.444395
-0.441457
-0.438057
-0.434081
-0.429419
-0.42398
-0.417701
-0.410553
-0.402563
-0.393707
-0.38437
-0.471076
-0.469191
-0.467512
-0.46565
-0.463649
-0.461571
-0.459444
-0.457284
-0.455088
-0.452831
-0.450467
-0.447928
-0.445125
-0.441955
-0.438305
-0.434059
-0.429113
-0.423378
-0.416796
-0.409344
-0.401048
-0.391891
-0.382212
-0.370896
-0.473741
-0.471734
-0.469947
-0.467964
-0.465831
-0.463612
-0.461337
-0.45902
-0.456657
-0.454223
-0.451668
-0.448923
-0.445897
-0.442483
-0.438568
-0.434038
-0.42879
-0.422743
-0.415843
-0.408074
-0.399465
-0.390007
-0.380005
-0.368491
-0.359447
-0.476493
-0.474359
-0.47246
-0.470354
-0.468087
-0.465728
-0.463302
-0.460827
-0.458295
-0.455681
-0.452931
-0.449972
-0.446711
-0.443041
-0.438846
-0.434016
-0.428451
-0.422075
-0.414845
-0.406749
-0.397823
-0.38807
-0.377764
-0.366075
-0.356502
-0.47934
-0.477069
-0.475055
-0.472823
-0.470422
-0.46792
-0.465345
-0.46271
-0.460007
-0.457208
-0.454256
-0.451075
-0.447569
-0.443628
-0.439139
-0.433991
-0.428093
-0.421375
-0.413802
-0.405373
-0.39613
-0.386088
-0.3755
-0.363658
-0.353639
-0.482284
-0.479869
-0.477736
-0.475377
-0.47284
-0.470195
-0.467468
-0.464671
-0.461795
-0.458806
-0.455645
-0.452232
-0.448468
-0.444242
-0.439442
-0.433962
-0.427715
-0.420641
-0.412717
-0.403951
-0.394393
-0.384072
-0.373222
-0.361243
-0.350851
-0.485331
-0.482762
-0.480506
-0.478017
-0.475343
-0.472554
-0.469674
-0.466714
-0.463661
-0.460476
-0.457098
-0.453442
-0.449407
-0.444881
-0.439754
-0.433924
-0.427314
-0.419874
-0.411591
-0.402485
-0.392616
-0.382026
-0.370934
-0.358835
-0.34813
-0.488481
-0.485752
-0.483369
-0.480748
-0.477933
-0.474999
-0.471966
-0.46884
-0.465605
-0.462218
-0.458614
-0.454704
-0.450383
-0.445541
-0.44007
-0.433875
-0.426888
-0.419071
-0.410423
-0.400978
-0.390804
-0.379955
-0.36864
-0.356432
-0.345467
-0.491738
-0.488839
-0.486326
-0.48357
-0.480614
-0.477533
-0.474344
-0.471049
-0.467627
-0.464031
-0.460191
-0.456012
-0.451391
-0.446217
-0.440385
-0.43381
-0.426433
-0.418231
-0.409215
-0.399432
-0.38896
-0.377863
-0.366342
-0.354036
-0.342852
-0.495101
-0.492025
-0.489378
-0.486484
-0.483386
-0.480156
-0.476809
-0.473341
-0.469726
-0.465913
-0.461825
-0.457365
-0.452427
-0.446903
-0.440694
-0.433724
-0.425947
-0.417352
-0.407966
-0.397848
-0.387084
-0.375751
-0.364039
-0.351644
-0.340276
-0.498572
-0.49531
-0.492526
-0.489493
-0.48625
-0.48287
-0.47936
-0.475715
-0.471902
-0.467861
-0.463512
-0.458756
-0.453485
-0.447594
-0.440991
-0.433612
-0.425424
-0.416431
-0.406675
-0.396226
-0.385179
-0.37362
-0.36173
-0.349252
-0.337729
-0.502149
-0.498695
-0.495769
-0.492595
-0.489205
-0.485672
-0.481998
-0.47817
-0.474149
-0.469871
-0.465248
-0.460179
-0.454557
-0.448282
-0.44127
-0.433469
-0.424861
-0.415467
-0.405341
-0.394566
-0.383245
-0.371469
-0.359413
-0.346859
-0.335203
-0.505831
-0.502177
-0.499108
-0.495789
-0.492251
-0.488563
-0.48472
-0.480704
-0.476467
-0.471938
-0.467027
-0.461628
-0.455637
-0.44896
-0.441523
-0.433289
-0.424254
-0.414456
-0.403962
-0.392868
-0.38128
-0.369297
-0.357086
-0.344459
-0.332689
-0.509614
-0.505754
-0.502539
-0.499075
-0.495387
-0.49154
-0.487524
-0.483312
-0.478849
-0.474057
-0.468841
-0.463095
-0.456717
-0.44962
-0.441744
-0.433065
-0.423598
-0.413394
-0.402537
-0.391129
-0.379284
-0.367104
-0.354745
-0.34205
-0.330178
-0.513497
-0.509425
-0.506061
-0.502449
-0.498609
-0.4946
-0.490406
-0.48599
-0.48129
-0.476221
-0.470683
-0.464571
-0.457787
-0.450253
-0.441924
-0.432791
-0.422887
-0.41228
-0.401063
-0.389349
-0.377255
-0.364885
-0.352387
-0.339625
-0.327664
-0.517473
-0.513185
-0.509671
-0.50591
-0.501914
-0.497741
-0.493363
-0.488733
-0.483784
-0.478422
-0.472545
-0.466047
-0.458839
-0.450852
-0.442056
-0.432462
-0.422118
-0.411108
-0.399537
-0.387525
-0.37519
-0.362639
-0.350009
-0.337182
-0.325138
-0.521539
-0.517029
-0.513363
-0.509452
-0.5053
-0.500957
-0.496388
-0.491536
-0.486323
-0.480652
-0.474416
-0.467514
-0.459862
-0.451406
-0.442133
-0.432071
-0.421286
-0.409876
-0.397957
-0.385654
-0.373087
-0.360361
-0.347605
-0.334716
-0.322595
-0.525687
-0.520953
-0.517134
-0.513072
-0.50876
-0.504244
-0.499476
-0.49439
-0.4889
-0.482901
-0.476287
-0.46896
-0.460846
-0.451907
-0.442146
-0.431611
-0.420385
-0.408579
-0.396319
-0.383733
-0.370943
-0.358049
-0.345171
-0.332221
-0.320028
-0.529912
-0.524951
-0.520978
-0.516763
-0.512289
-0.507595
-0.50262
-0.497288
-0.491504
-0.48516
-0.478147
-0.470375
-0.461781
-0.452344
-0.442087
-0.431075
-0.419409
-0.407213
-0.39462
-0.38176
-0.368753
-0.355698
-0.342704
-0.329693
-0.317431
-0.534205
-0.529014
-0.524888
-0.520519
-0.515881
-0.511002
-0.505811
-0.500221
-0.494126
-0.487416
-0.479984
-0.471747
-0.462656
-0.452709
-0.441948
-0.430458
-0.418355
-0.405775
-0.392855
-0.379729
-0.366514
-0.353304
-0.340198
-0.327128
-0.314798
-0.538557
-0.533136
-0.528856
-0.524333
-0.519528
-0.514459
-0.509042
-0.503177
-0.496755
-0.489658
-0.481786
-0.473064
-0.46346
-0.452991
-0.441721
-0.429752
-0.417216
-0.404259
-0.391022
-0.377639
-0.364222
-0.350862
-0.337648
-0.32452
-0.312125
-0.542958
-0.537307
-0.532875
-0.528197
-0.523221
-0.517955
-0.5123
-0.506147
-0.499377
-0.491874
-0.483539
-0.474314
-0.464182
-0.453182
-0.441397
-0.428951
-0.415988
-0.40266
-0.389116
-0.375483
-0.361873
-0.348369
-0.335051
-0.321865
-0.309406
-0.547399
-0.541518
-0.536934
-0.532101
-0.526951
-0.52148
-0.515576
-0.509118
-0.501981
-0.494048
-0.485231
-0.475483
-0.46481
-0.45327
-0.44097
-0.428048
-0.414664
-0.400976
-0.387131
-0.373259
-0.359462
-0.345819
-0.3324
-0.319158
-0.306635
-0.551866
-0.545758
-0.541023
-0.536035
-0.530707
-0.525024
-0.518858
-0.512077
-0.504552
-0.496169
-0.486848
-0.476561
-0.465333
-0.453247
-0.44043
-0.427038
-0.41324
-0.399199
-0.385065
-0.370961
-0.356984
-0.343208
-0.329691
-0.316394
-0.30381
-0.556348
-0.550014
-0.545132
-0.539988
-0.534477
-0.528573
-0.52213
-0.51501
-0.507076
-0.49822
-0.488376
-0.477533
-0.46574
-0.453104
-0.43977
-0.425913
-0.411709
-0.397326
-0.382912
-0.368584
-0.354435
-0.34053
-0.326919
-0.313569
-0.300924
-0.549246
-0.543946
-0.538249
-0.532113
-0.52538
-0.5179
-0.509536
-0.500187
-0.4898
-0.478386
-0.46602
-0.452829
-0.438983
-0.424667
-0.410066
-0.395352
-0.380666
-0.366124
-0.35181
-0.337781
-0.32408
-0.310678
-0.297973
-0.542008
-0.535631
-0.528592
-0.520732
-0.511917
-0.502053
-0.491105
-0.479108
-0.46616
-0.452416
-0.43806
-0.423293
-0.408307
-0.39327
-0.378324
-0.363576
-0.349103
-0.334956
-0.321169
-0.307717
-0.294953
-0.523491
-0.514203
-0.503803
-0.492277
-0.479685
-0.466151
-0.451853
-0.436994
-0.421786
-0.406423
-0.391077
-0.37588
-0.360935
-0.34631
-0.33205
-0.31818
-0.30468
-0.29186
-0.493302
-0.480104
-0.465981
-0.451132
-0.435778
-0.420138
-0.404412
-0.388765
-0.373329
-0.358195
-0.343425
-0.329057
-0.315109
-0.301564
-0.288689
-0.450245
-0.434404
-0.418344
-0.402265
-0.386331
-0.370665
-0.355351
-0.340443
-0.325974
-0.311952
-0.298364
-0.285437
-0.383769
-0.367883
-0.352398
-0.33736
-0.322794
-0.308703
-0.295077
-0.2821
-0.319514
-0.305358
-0.291697
-0.278674
-0.327188
-0.313402
-0.300159
-0.287443
-0.275392
-0.38915
-0.373664
-0.358564
-0.343927
-0.329792
-0.316179
-0.303083
-0.290484
-0.278561
-0.43643
-0.421225
-0.405849
-0.390511
-0.375381
-0.360582
-0.346198
-0.332277
-0.318846
-0.305904
-0.29343
-0.28164
-0.487884
-0.476361
-0.463787
-0.45031
-0.436136
-0.421494
-0.406617
-0.391711
-0.37695
-0.362463
-0.348344
-0.334648
-0.321406
-0.308628
-0.296285
-0.284634
-0.51128
-0.503412
-0.494629
-0.484817
-0.473935
-0.462024
-0.449204
-0.435653
-0.421583
-0.407215
-0.392754
-0.378374
-0.364213
-0.350369
-0.336907
-0.323864
-0.311257
-0.299052
-0.287546
-0.519709
-0.513413
-0.506618
-0.499153
-0.490859
-0.481612
-0.47135
-0.460089
-0.447919
-0.43499
-0.421498
-0.407649
-0.393644
-0.379659
-0.365835
-0.352278
-0.33906
-0.326224
-0.313795
-0.301735
-0.29038
-0.531101
-0.525781
-0.520268
-0.514482
-0.508415
-0.501918
-0.494831
-0.486999
-0.478289
-0.468625
-0.457996
-0.446464
-0.434157
-0.421246
-0.407925
-0.394387
-0.380808
-0.367334
-0.354075
-0.34111
-0.32849
-0.316247
-0.304339
-0.29314
-0.532129
-0.525408
-0.520237
-0.514876
-0.509266
-0.503417
-0.497199
-0.490466
-0.483067
-0.474867
-0.465775
-0.455758
-0.444854
-0.433162
-0.420834
-0.408047
-0.394987
-0.381826
-0.368712
-0.355762
-0.34306
-0.330665
-0.318617
-0.306866
-0.29583
-0.526223
-0.519744
-0.514726
-0.509516
-0.504077
-0.498436
-0.492479
-0.486075
-0.479082
-0.471363
-0.462817
-0.45339
-0.443098
-0.432015
-0.420269
-0.408022
-0.395448
-0.382715
-0.369973
-0.357343
-0.344916
-0.332754
-0.320908
-0.309321
-0.298453
-0.520356
-0.514123
-0.50926
-0.504202
-0.498931
-0.493485
-0.487772
-0.481676
-0.475061
-0.467795
-0.459765
-0.450906
-0.441209
-0.430724
-0.419559
-0.407854
-0.395774
-0.38348
-0.371121
-0.358822
-0.346679
-0.33476
-0.323124
-0.311708
-0.301012
-0.514543
-0.508558
-0.503851
-0.498946
-0.493838
-0.48858
-0.483096
-0.477284
-0.471022
-0.464178
-0.456637
-0.44832
-0.439198
-0.429301
-0.41871
-0.40755
-0.395969
-0.384124
-0.372159
-0.360202
-0.348353
-0.336686
-0.325268
-0.31403
-0.303513
-0.508795
-0.503059
-0.498512
-0.493759
-0.488812
-0.483732
-0.478462
-0.472915
-0.466979
-0.46053
-0.453449
-0.445647
-0.437079
-0.427753
-0.41773
-0.407113
-0.396038
-0.384649
-0.373089
-0.361484
-0.349941
-0.338535
-0.327344
-0.316291
-0.305959
-0.503124
-0.497639
-0.493253
-0.488653
-0.483862
-0.478955
-0.473885
-0.468584
-0.46295
-0.456866
-0.450215
-0.4429
-0.434863
-0.426092
-0.416626
-0.406551
-0.395983
-0.385058
-0.373913
-0.362673
-0.351445
-0.340311
-0.329356
-0.318495
-0.308353
-0.497541
-0.492305
-0.488082
-0.483635
-0.479
-0.474257
-0.469377
-0.464303
-0.458947
-0.453201
-0.44695
-0.440094
-0.432563
-0.424327
-0.415407
-0.405868
-0.395809
-0.385355
-0.374633
-0.363768
-0.352868
-0.342015
-0.331305
-0.320644
-0.310699
-0.492053
-0.487067
-0.483007
-0.478715
-0.474232
-0.469648
-0.464947
-0.460083
-0.454983
-0.449548
-0.443669
-0.437243
-0.43019
-0.422469
-0.41408
-0.405069
-0.39552
-0.385541
-0.375252
-0.364772
-0.354211
-0.343651
-0.333196
-0.322742
-0.313003
-0.48667
-0.481932
-0.478036
-0.473898
-0.469567
-0.465137
-0.460604
-0.455936
-0.451072
-0.445922
-0.440385
-0.434358
-0.427757
-0.420527
-0.412653
-0.404162
-0.395119
-0.385618
-0.37577
-0.365686
-0.355475
-0.34522
-0.335031
-0.324793
-0.315267
-0.481398
-0.476906
-0.473175
-0.469191
-0.46501
-0.46073
-0.456357
-0.451871
-0.447222
-0.442333
-0.43711
-0.431454
-0.425276
-0.418513
-0.411134
-0.403151
-0.39461
-0.385589
-0.376188
-0.366511
-0.356662
-0.346723
-0.336812
-0.326799
-0.317496
-0.476243
-0.471995
-0.468429
-0.464599
-0.460567
-0.456433
-0.452211
-0.447894
-0.443444
-0.438793
-0.433857
-0.428541
-0.422758
-0.416435
-0.409532
-0.402042
-0.393996
-0.385457
-0.376508
-0.367247
-0.357773
-0.348163
-0.338541
-0.328762
-0.319695
-0.47121
-0.467203
-0.463801
-0.460126
-0.456242
-0.45225
-0.448174
-0.444014
-0.439745
-0.43531
-0.430635
-0.425632
-0.420213
-0.414305
-0.407854
-0.400842
-0.393282
-0.385222
-0.376731
-0.367895
-0.358806
-0.349539
-0.340219
-0.330687
-0.321868
-0.466304
-0.462535
-0.459297
-0.455775
-0.452037
-0.448185
-0.444248
-0.440236
-0.436133
-0.431894
-0.427455
-0.422737
-0.417654
-0.412131
-0.406109
-0.399556
-0.392472
-0.384886
-0.376856
-0.368453
-0.359763
-0.350851
-0.34185
-0.332574
-0.32402
-0.461527
-0.457993
-0.454917
-0.451549
-0.447956
-0.44424
-0.440437
-0.436563
-0.432613
-0.428552
-0.424326
-0.419865
-0.415089
-0.409924
-0.404305
-0.398192
-0.39157
-0.384453
-0.376884
-0.368922
-0.360642
-0.3521
-0.343432
-0.334427
-0.326158
-0.456883
-0.453579
-0.450664
-0.447448
-0.443999
-0.440417
-0.436743
-0.433
-0.429189
-0.425289
-0.421254
-0.417025
-0.412529
-0.407693
-0.402452
-0.396756
-0.39058
-0.383925
-0.376816
-0.369301
-0.361442
-0.353286
-0.344969
-0.336247
-0.328286
-0.452374
-0.449295
-0.44654
-0.443475
-0.440168
-0.436718
-0.433168
-0.429547
-0.425866
-0.42211
-0.418247
-0.414225
-0.409981
-0.405447
-0.400556
-0.395254
-0.389507
-0.383303
-0.376653
-0.369588
-0.362162
-0.354406
-0.346458
-0.338036
-0.330412
-0.448
-0.445143
-0.442546
-0.43963
-0.436463
-0.433142
-0.429712
-0.426207
-0.422645
-0.41902
-0.415309
-0.411473
-0.407455
-0.403194
-0.398626
-0.393694
-0.388357
-0.382591
-0.376394
-0.369784
-0.362799
-0.355459
-0.347902
-0.339796
-0.332542
-0.443763
-0.441124
-0.438681
-0.435913
-0.432884
-0.429689
-0.426375
-0.422981
-0.419528
-0.416021
-0.412446
-0.408773
-0.404956
-0.400942
-0.39667
-0.392083
-0.387134
-0.381791
-0.37604
-0.369885
-0.363352
-0.356443
-0.349297
-0.341527
-0.334685
-0.439664
-0.437238
-0.434947
-0.432323
-0.429431
-0.426359
-0.423157
-0.419867
-0.416515
-0.413115
-0.40966
-0.406131
-0.402493
-0.398699
-0.394696
-0.390428
-0.385845
-0.380908
-0.375594
-0.369893
-0.363818
-0.357355
-0.350645
-0.343229
-0.336847
-0.435703
-0.433485
-0.431343
-0.428861
-0.426102
-0.42315
-0.420056
-0.416865
-0.413607
-0.410302
-0.406954
-0.403552
-0.40007
-0.396472
-0.392711
-0.388735
-0.384495
-0.379946
-0.375056
-0.369805
-0.364194
-0.358191
-0.351941
-0.344903
-0.339039
-0.431882
-0.429866
-0.42787
-0.425526
-0.422896
-0.420061
-0.417071
-0.413974
-0.410803
-0.407585
-0.40433
-0.401038
-0.397693
-0.394267
-0.390723
-0.387014
-0.383091
-0.378909
-0.374429
-0.36962
-0.364477
-0.358947
-0.353184
-0.346547
-0.341269
-0.428199
-0.426382
-0.424527
-0.422318
-0.419813
-0.417091
-0.414201
-0.411192
-0.408102
-0.404962
-0.401789
-0.398592
-0.395365
-0.392091
-0.388739
-0.38527
-0.38164
-0.377802
-0.373714
-0.36934
-0.364664
-0.359617
-0.354368
-0.348159
-0.343546
-0.424657
-0.423031
-0.421313
-0.419235
-0.416852
-0.414238
-0.411445
-0.408519
-0.405504
-0.402433
-0.399332
-0.396217
-0.393092
-0.389948
-0.386765
-0.383512
-0.380149
-0.376631
-0.372917
-0.368964
-0.364752
-0.360197
-0.355487
-0.349733
-0.345879
-0.421257
-0.419816
-0.41823
-0.416278
-0.414012
-0.411502
-0.408799
-0.405952
-0.403006
-0.399998
-0.39696
-0.393916
-0.390877
-0.387845
-0.384809
-0.381747
-0.378625
-0.375404
-0.37204
-0.368492
-0.364738
-0.360679
-0.356535
-0.351265
-0.417998
-0.416736
-0.415278
-0.413445
-0.411292
-0.408881
-0.406265
-0.403492
-0.400608
-0.397657
-0.394673
-0.391688
-0.388722
-0.385786
-0.382878
-0.379983
-0.377078
-0.374126
-0.37109
-0.367927
-0.364619
-0.361056
-0.357499
-0.414882
-0.413792
-0.412456
-0.410738
-0.408691
-0.406375
-0.40384
-0.401135
-0.39831
-0.395408
-0.392472
-0.389537
-0.386632
-0.383776
-0.380977
-0.378229
-0.375515
-0.372807
-0.370073
-0.367272
-0.364392
-0.361319
-0.411912
-0.410985
-0.409764
-0.408156
-0.40621
-0.403983
-0.401524
-0.398883
-0.396111
-0.393254
-0.390358
-0.387465
-0.38461
-0.381821
-0.379113
-0.376491
-0.373945
-0.371456
-0.368996
-0.366531
-0.364057
-0.361459
-0.409088
-0.408316
-0.407205
-0.405699
-0.403848
-0.401705
-0.399317
-0.396735
-0.394011
-0.391193
-0.388332
-0.385473
-0.38266
-0.379925
-0.377294
-0.374779
-0.372379
-0.370083
-0.367868
-0.365709
-0.363612
-0.406412
-0.405787
-0.404778
-0.403369
-0.401607
-0.399541
-0.397219
-0.394692
-0.39201
-0.389227
-0.386395
-0.383565
-0.380784
-0.378094
-0.375527
-0.373102
-0.370827
-0.368698
-0.3667
-0.364814
-0.403888
-0.403397
-0.402483
-0.401164
-0.399485
-0.397491
-0.39523
-0.392753
-0.390111
-0.387358
-0.384551
-0.381743
-0.378989
-0.376334
-0.373818
-0.371468
-0.369299
-0.367314
-0.365505
-0.363857
-0.401515
-0.401149
-0.400323
-0.399086
-0.397484
-0.395557
-0.393352
-0.39092
-0.388313
-0.385587
-0.382801
-0.380012
-0.377277
-0.37465
-0.372176
-0.369888
-0.367808
-0.365945
-0.364295
-0.399297
-0.399043
-0.398297
-0.397136
-0.395604
-0.393738
-0.391586
-0.389195
-0.38662
-0.383918
-0.381149
-0.378374
-0.375655
-0.37305
-0.370608
-0.368371
-0.366365
-0.364603
-0.397234
-0.39708
-0.396405
-0.395314
-0.393845
-0.392036
-0.389931
-0.387579
-0.385033
-0.382352
-0.379598
-0.376835
-0.374129
-0.37154
-0.369124
-0.366927
-0.364982
-0.363305
-0.395328
-0.39526
-0.394649
-0.393619
-0.392209
-0.390452
-0.38839
-0.386073
-0.383554
-0.380893
-0.378152
-0.375399
-0.372702
-0.370127
-0.367732
-0.365568
-0.363672
-0.393579
-0.393583
-0.393028
-0.392053
-0.390695
-0.388985
-0.386964
-0.38468
-0.382186
-0.379542
-0.376814
-0.374071
-0.371383
-0.368818
-0.36644
-0.364303
-0.362449
-0.391987
-0.392049
-0.391541
-0.390614
-0.389303
-0.387635
-0.385652
-0.383399
-0.380929
-0.378304
-0.375589
-0.372855
-0.370175
-0.36762
-0.365257
-0.363143
-0.390551
-0.390656
-0.390186
-0.389301
-0.388032
-0.386403
-0.384455
-0.382232
-0.379786
-0.377179
-0.374478
-0.371755
-0.369084
-0.366539
-0.36419
-0.389269
-0.389403
-0.388964
-0.388113
-0.38688
-0.385288
-0.383372
-0.381178
-0.378757
-0.37617
-0.373485
-0.370775
-0.368115
-0.365582
-0.363247
-0.388139
-0.388287
-0.38787
-0.387048
-0.385847
-0.384287
-0.382403
-0.380238
-0.377843
-0.375278
-0.372611
-0.369916
-0.367271
-0.364752
-0.387157
-0.387304
-0.386902
-0.386102
-0.384929
-0.3834
-0.381546
-0.37941
-0.377042
-0.374502
-0.371857
-0.369182
-0.366555
-0.364054
-0.386318
-0.386452
-0.386056
-0.385273
-0.384124
-0.382622
-0.380799
-0.378693
-0.376354
-0.373841
-0.371222
-0.368572
-0.365969
-0.385616
-0.385724
-0.385328
-0.384557
-0.383428
-0.381952
-0.380158
-0.378083
-0.375776
-0.373294
-0.370706
-0.368086
-0.365512
-0.385047
-0.385116
-0.384713
-0.383949
-0.382836
-0.381384
-0.379619
-0.377577
-0.375305
-0.372859
-0.370307
-0.367722
-0.384601
-0.384621
-0.384206
-0.383444
-0.382344
-0.380915
-0.37918
-0.377172
-0.374937
-0.372531
-0.37002
-0.367478
-0.384272
-0.384233
-0.3838
-0.383036
-0.381947
-0.38054
-0.378834
-0.376862
-0.374668
-0.372306
-0.369842
-0.367349
-0.384051
-0.383945
-0.383489
-0.38272
-0.381639
-0.380252
-0.378577
-0.376643
-0.374493
-0.37218
-0.369769
-0.383929
-0.383749
-0.383266
-0.382488
-0.381415
-0.380048
-0.378403
-0.376509
-0.374406
-0.372147
-0.369795
-0.383896
-0.383637
-0.383124
-0.382336
-0.381267
-0.379919
-0.378306
-0.376454
-0.374401
-0.372201
-0.383944
-0.383601
-0.383056
-0.382255
-0.38119
-0.379861
-0.37828
-0.376472
-0.374473
-0.372335
-0.384063
-0.383634
-0.383054
-0.382239
-0.381177
-0.379868
-0.37832
-0.376557
-0.374615
-0.372544
-0.384243
-0.383726
-0.383112
-0.382282
-0.381222
-0.379932
-0.378418
-0.376703
-0.374821
-0.384474
-0.383871
-0.383221
-0.382375
-0.381318
-0.380048
-0.37857
-0.376904
-0.375085
-0.384748
-0.384059
-0.383374
-0.382514
-0.38146
-0.38021
-0.378768
-0.377154
-0.3754
-0.385055
-0.384283
-0.383564
-0.382691
-0.38164
-0.380411
-0.379007
-0.377446
-0.385386
-0.384535
-0.383785
-0.382899
-0.381853
-0.380647
-0.379281
-0.377775
-0.385733
-0.384809
-0.384029
-0.383132
-0.382093
-0.38091
-0.379585
-0.378135
-0.386088
-0.385096
-0.38429
-0.383385
-0.382354
-0.381196
-0.379913
-0.378521
-0.386443
-0.38539
-0.384562
-0.383651
-0.38263
-0.3815
-0.38026
-0.386791
-0.385684
-0.384838
-0.383925
-0.382917
-0.381816
-0.380621
-0.387126
-0.385973
-0.385113
-0.384202
-0.383209
-0.382138
-0.38099
-0.38744
-0.386251
-0.385382
-0.384475
-0.383501
-0.382463
-0.387729
-0.386512
-0.385639
-0.384742
-0.383789
-0.382786
-0.387986
-0.386751
-0.38588
-0.384996
-0.384067
-0.383102
-0.388207
-0.386964
-0.386101
-0.385233
-0.384333
-0.383407
-0.388389
-0.387147
-0.386297
-0.385451
-0.384582
-0.383697
-0.388526
-0.387296
-0.386464
-0.385645
-0.38481
-0.388615
-0.387408
-0.3866
-0.385811
-0.385014
-0.388654
-0.387479
-0.386702
-0.385948
-0.385192
-0.388641
-0.387509
-0.386767
-0.386052
-0.385339
-0.388574
-0.387494
-0.386794
-0.386122
-0.385456
-0.388452
-0.387435
-0.386781
-0.386157
-0.385539
-0.388274
-0.38733
-0.386728
-0.386154
-0.385589
-0.388042
-0.387179
-0.386634
-0.386115
-0.387755
-0.386983
-0.386499
-0.386038
-0.387416
-0.386743
-0.386324
-0.385924
-0.387027
-0.386461
-0.386112
-0.385775
-0.38659
-0.386139
-0.385863
-0.385591
-0.38611
-0.38578
-0.38558
-0.385377
-0.385591
-0.385388
-0.385268
-0.385134
-0.385037
-0.384967
-0.384929
-0.384866
-0.384455
-0.384523
-0.384567
-0.384577
-0.38385
-0.384059
-0.384189
-0.384271
-0.383229
-0.383583
-0.383799
-0.383955
-0.3826
-0.383101
-0.383403
-0.383634
-0.38197
-0.382619
-0.383009
-0.383313
-0.261734
-0.265072
-0.26833
-0.27151
-0.274616
-0.27765
-0.280616
-0.283516
-0.286353
-0.289129
-0.291849
-0.294513
-0.297125
-0.299688
-0.302203
-0.304673
-0.3071
-0.309487
-0.311836
-0.314149
-0.316429
-0.31868
-0.320904
-0.323107
-0.325293
-0.327469
-0.329644
-0.331829
-0.334035
-0.243059
-0.246289
-0.249452
-0.252549
-0.255584
-0.258559
-0.261475
-0.264336
-0.267144
-0.269901
-0.27261
-0.275275
-0.277897
-0.28048
-0.283027
-0.285542
-0.288029
-0.29049
-0.292932
-0.295358
-0.297774
-0.300186
-0.3026
-0.305025
-0.307468
-0.309939
-0.312449
-0.31501
-0.317635
-0.225743
-0.22884
-0.231881
-0.234868
-0.237803
-0.240687
-0.243522
-0.246311
-0.249055
-0.251756
-0.254417
-0.25704
-0.259627
-0.26218
-0.264703
-0.267197
-0.269666
-0.272112
-0.274539
-0.27695
-0.279349
-0.281739
-0.284124
-0.286509
-0.288899
-0.291298
-0.293712
-0.296147
-0.298609
-0.209752
-0.212703
-0.215606
-0.218464
-0.221277
-0.224048
-0.226776
-0.229465
-0.232116
-0.234729
-0.237307
-0.239852
-0.242364
-0.244847
-0.247301
-0.249728
-0.252132
-0.254513
-0.256873
-0.259216
-0.261544
-0.263859
-0.266165
-0.268464
-0.270761
-0.273059
-0.275363
-0.277677
-0.280009
-0.282365
-0.194947
-0.197746
-0.200505
-0.203225
-0.205907
-0.208552
-0.211162
-0.213738
-0.216281
-0.218791
-0.221272
-0.223722
-0.226145
-0.228542
-0.230913
-0.23326
-0.235586
-0.237891
-0.240178
-0.242448
-0.244703
-0.246946
-0.249178
-0.251403
-0.253623
-0.25584
-0.258058
-0.260281
-0.262512
-0.264755
-0.181217
-0.183862
-0.186473
-0.189051
-0.191597
-0.194112
-0.196596
-0.199051
-0.201477
-0.203876
-0.206248
-0.208594
-0.210916
-0.213215
-0.21549
-0.217745
-0.219979
-0.222195
-0.224393
-0.226574
-0.228741
-0.230894
-0.233035
-0.235167
-0.237289
-0.239405
-0.241516
-0.243625
-0.245734
-0.247845
-0.168464
-0.170957
-0.173421
-0.175857
-0.178265
-0.180647
-0.183002
-0.185333
-0.187638
-0.18992
-0.192178
-0.194414
-0.196628
-0.198822
-0.200995
-0.203149
-0.205285
-0.207403
-0.209505
-0.211592
-0.213664
-0.215722
-0.217768
-0.219803
-0.221827
-0.223844
-0.225853
-0.227856
-0.229855
-0.231852
-0.156604
-0.158948
-0.161268
-0.163563
-0.165835
-0.168084
-0.170311
-0.172516
-0.174699
-0.176862
-0.179005
-0.181128
-0.183232
-0.185318
-0.187386
-0.189438
-0.191472
-0.193491
-0.195495
-0.197484
-0.19946
-0.201422
-0.203373
-0.205312
-0.207241
-0.20916
-0.211071
-0.212974
-0.21487
-0.216761
-0.145565
-0.147764
-0.149943
-0.152102
-0.15424
-0.156359
-0.158459
-0.16054
-0.162602
-0.164647
-0.166674
-0.168685
-0.170679
-0.172656
-0.174619
-0.176566
-0.178498
-0.180417
-0.182322
-0.184213
-0.186093
-0.18796
-0.189815
-0.19166
-0.193494
-0.195319
-0.197135
-0.198942
-0.200742
-0.202534
-0.135277
-0.137339
-0.139383
-0.141409
-0.143418
-0.145411
-0.147387
-0.149347
-0.151291
-0.15322
-0.155134
-0.157033
-0.158918
-0.160789
-0.162646
-0.16449
-0.166322
-0.168141
-0.169947
-0.171743
-0.173527
-0.1753
-0.177062
-0.178814
-0.180557
-0.182291
-0.184016
-0.185732
-0.187441
-0.189142
-0.125683
-0.127613
-0.129528
-0.131428
-0.133313
-0.135184
-0.137041
-0.138884
-0.140713
-0.142529
-0.144333
-0.146124
-0.147902
-0.149669
-0.151424
-0.153167
-0.154899
-0.156621
-0.158332
-0.160032
-0.161723
-0.163404
-0.165075
-0.166738
-0.168392
-0.170037
-0.171675
-0.173304
-0.174927
-0.176542
-0.116728
-0.118533
-0.120326
-0.122105
-0.123872
-0.125626
-0.127369
-0.1291
-0.130819
-0.132527
-0.134224
-0.135911
-0.137586
-0.139252
-0.140907
-0.142553
-0.144189
-0.145815
-0.147433
-0.149041
-0.150641
-0.152233
-0.153816
-0.155392
-0.156959