/*--------------------------------*- C++ -*----------------------------------*\
  =========                 |
  \\      /  F ield         | OpenFOAM: The Open Source CFD Toolbox
   \\    /   O peration     | Website:  https://openfoam.org
    \\  /    A nd           | Version:  7
     \\/     M anipulation  |
\*---------------------------------------------------------------------------*/
FoamFile
{
    version     2.0;
    format      ascii;
    class       volScalarField;
    location    "300";
    object      p;
}
// * * * * * * * * * * * * * * * * * * * * * * * * * * * * * * * * * * * * * //

dimensions      [0 2 -2 0 0 0 0];

internalField   nonuniform List<scalar> 
7156
(
-0.109007
-0.126778
-0.144428
-0.155856
-0.156624
-0.146566
-0.129676
-0.111089
-0.0948421
-0.0829074
-0.0755313
-0.0722839
-0.0733508
-0.0792369
-0.0892133
-0.100378
-0.108358
-0.109567
-0.103213
-0.0919632
-0.0799092
-0.0700104
-0.0632763
-0.0600453
-0.0607023
-0.0651
-0.0714996
-0.0768707
-0.0782581
-0.110575
-0.128838
-0.146906
-0.158552
-0.159261
-0.148885
-0.131527
-0.112444
-0.0957361
-0.0833896
-0.0756501
-0.0720629
-0.0727731
-0.0782621
-0.0878205
-0.0986105
-0.106342
-0.107496
-0.101297
-0.0903736
-0.0787263
-0.0692417
-0.0629007
-0.0600586
-0.0611196
-0.0659355
-0.0727247
-0.0783924
-0.0799103
-0.112094
-0.130847
-0.149334
-0.161207
-0.161868
-0.151181
-0.133358
-0.113779
-0.0966088
-0.0838494
-0.0757458
-0.071819
-0.0721731
-0.0772659
-0.0864081
-0.096827
-0.104315
-0.105419
-0.0993778
-0.0887798
-0.0775356
-0.0684608
-0.06251
-0.0600562
-0.0615225
-0.0667593
-0.0739422
-0.0799114
-0.081564
-0.11356
-0.1328
-0.151708
-0.163816
-0.164439
-0.153451
-0.135167
-0.115093
-0.0974603
-0.0842873
-0.0758194
-0.0715534
-0.0715523
-0.0762502
-0.084978
-0.0950293
-0.102279
-0.103337
-0.0974568
-0.0871828
-0.0763372
-0.0676675
-0.0621041
-0.0600374
-0.0619099
-0.06757
-0.0751507
-0.0814264
-0.0832179
-0.114968
-0.134692
-0.154025
-0.166375
-0.166973
-0.155693
-0.136953
-0.116386
-0.0982908
-0.0847039
-0.0758716
-0.0712673
-0.0709123
-0.0752168
-0.0835326
-0.0932198
-0.100236
-0.101253
-0.0955353
-0.0855832
-0.0751315
-0.066862
-0.0616825
-0.0600017
-0.0622807
-0.0683664
-0.0763487
-0.0829359
-0.0848707
-0.116316
-0.136521
-0.15628
-0.168882
-0.169466
-0.157905
-0.138715
-0.117658
-0.0991006
-0.0850998
-0.0759035
-0.0709619
-0.0702546
-0.0741675
-0.0820739
-0.0914006
-0.0981876
-0.0991676
-0.0936144
-0.0839816
-0.0739188
-0.0660441
-0.0612449
-0.0599484
-0.062634
-0.069147
-0.0775347
-0.0844384
-0.0865214
-0.117601
-0.138282
-0.158468
-0.17133
-0.171916
-0.160086
-0.140453
-0.118908
-0.0998899
-0.0854758
-0.0759158
-0.0706384
-0.0695807
-0.0731044
-0.0806041
-0.089574
-0.0961363
-0.0970831
-0.0916952
-0.0823789
-0.0726994
-0.065214
-0.0607911
-0.0598767
-0.0629687
-0.0699106
-0.0787071
-0.0859324
-0.0881685
-0.118818
-0.13997
-0.160585
-0.173718
-0.174319
-0.162234
-0.142166
-0.120136
-0.100659
-0.0858324
-0.0759097
-0.0702979
-0.0688921
-0.0720291
-0.0791252
-0.0877422
-0.0940839
-0.0950009
-0.0897789
-0.0807757
-0.0714737
-0.0643715
-0.0603207
-0.0597862
-0.0632839
-0.0706558
-0.0798644
-0.0874162
-0.0898107
-0.119964
-0.141583
-0.162627
-0.176041
-0.176673
-0.164346
-0.143852
-0.121343
-0.101409
-0.0861705
-0.075886
-0.0699417
-0.0681902
-0.0709435
-0.0776394
-0.0859071
-0.0920325
-0.0929227
-0.0878668
-0.0791728
-0.0702421
-0.063517
-0.0598337
-0.0596762
-0.0635785
-0.0713814
-0.0810051
-0.0888885
-0.0914467
-0.121037
-0.143116
-0.164591
-0.178295
-0.178974
-0.166422
-0.145512
-0.122527
-0.102139
-0.0864908
-0.0758458
-0.069571
-0.0674766
-0.0698494
-0.0761486
-0.084071
-0.0899838
-0.09085
-0.0859598
-0.0775709
-0.069005
-0.0626504
-0.0593297
-0.0595461
-0.0638516
-0.072086
-0.0821276
-0.0903476
-0.0930753
-0.122033
-0.144565
-0.166472
-0.180477
-0.18122
-0.168459
-0.147143
-0.123689
-0.10285
-0.0867939
-0.07579
-0.069187
-0.0667528
-0.0687485
-0.0746549
-0.0822358
-0.0879397
-0.0887842
-0.0840592
-0.0759707
-0.0677628
-0.0617719
-0.0588086
-0.0593954
-0.0641024
-0.0727682
-0.0832305
-0.091792
-0.0946949
-0.12295
-0.145928
-0.168267
-0.182583
-0.183407
-0.170455
-0.148746
-0.124829
-0.103542
-0.0870807
-0.0757197
-0.0687908
-0.0660201
-0.0676426
-0.07316
-0.0804035
-0.0859021
-0.0867269
-0.082166
-0.074373
-0.066516
-0.0608817
-0.0582702
-0.0592236
-0.0643297
-0.0734269
-0.0843121
-0.0932201
-0.0963043
-0.123784
-0.147202
-0.169972
-0.184609
-0.185534
-0.172409
-0.150319
-0.125947
-0.104217
-0.087352
-0.0756358
-0.0683838
-0.06528
-0.0665333
-0.0716661
-0.0785761
-0.0838727
-0.0846795
-0.0802812
-0.0727785
-0.065265
-0.05998
-0.0577145
-0.0590302
-0.0645329
-0.0740607
-0.0853709
-0.0946302
-0.097902
-0.124535
-0.148382
-0.171583
-0.186553
-0.187596
-0.174319
-0.151862
-0.127042
-0.104873
-0.0876086
-0.0755394
-0.067967
-0.0645338
-0.0654222
-0.0701747
-0.0767554
-0.0818532
-0.0826433
-0.078406
-0.0711879
-0.0640104
-0.0590671
-0.0571414
-0.0588148
-0.0647109
-0.0746685
-0.0864055
-0.0960209
-0.0994868
-0.125198
-0.149467
-0.173097
-0.188411
-0.189593
-0.176183
-0.153374
-0.128116
-0.105513
-0.0878512
-0.0754315
-0.0675417
-0.063783
-0.0643109
-0.0686878
-0.0749432
-0.0798452
-0.0806197
-0.0765413
-0.069602
-0.0627526
-0.0581432
-0.0565509
-0.058577
-0.064863
-0.0752488
-0.0874144
-0.0973906
-0.101057
-0.125773
-0.150453
-0.174512
-0.190179
-0.19152
-0.177999
-0.154855
-0.129167
-0.106136
-0.0880807
-0.0753132
-0.067109
-0.0630288
-0.0632009
-0.0672069
-0.0731413
-0.0778504
-0.0786101
-0.0746881
-0.0680215
-0.0614921
-0.0572085
-0.0559429
-0.0583163
-0.0649884
-0.0758007
-0.088396
-0.0987377
-0.102612
-0.126258
-0.151338
-0.175825
-0.191856
-0.193375
-0.179766
-0.156303
-0.130196
-0.106742
-0.0882979
-0.0751854
-0.0666701
-0.0622726
-0.0620937
-0.0657338
-0.0713513
-0.0758703
-0.0766155
-0.0728475
-0.0664472
-0.0602296
-0.0562635
-0.0553176
-0.0580325
-0.0650863
-0.0763229
-0.0893488
-0.100061
-0.104149
-0.12665
-0.15212
-0.177032
-0.193438
-0.195156
-0.181482
-0.157718
-0.131202
-0.107333
-0.0885036
-0.0750491
-0.066226
-0.0615156
-0.0609907
-0.06427
-0.0695749
-0.0739064
-0.0746374
-0.0710203
-0.0648797
-0.0589655
-0.0553086
-0.0546749
-0.0577252
-0.065156
-0.0768143
-0.0902716
-0.101358
-0.105667
-0.126948
-0.152797
-0.178131
-0.194922
-0.196861
-0.183146
-0.1591
-0.132187
-0.107908
-0.0886987
-0.0749053
-0.0657778
-0.0607591
-0.0598932
-0.062817
-0.0678136
-0.0719601
-0.0726768
-0.0692074
-0.0633198
-0.0577005
-0.054344
-0.0540151
-0.0573942
-0.0651969
-0.0772738
-0.0911629
-0.102628
-0.107166
-0.127152
-0.153368
-0.179121
-0.196306
-0.198488
-0.184756
-0.160446
-0.133149
-0.108469
-0.0888838
-0.0747551
-0.0653268
-0.0600041
-0.0588026
-0.0613762
-0.0660688
-0.0700328
-0.0707349
-0.0674099
-0.0617682
-0.0564351
-0.0533703
-0.0533382
-0.0570394
-0.0652082
-0.0777004
-0.0920213
-0.10387
-0.108643
-0.12726
-0.15383
-0.179999
-0.197589
-0.200033
-0.186309
-0.161758
-0.13409
-0.109016
-0.0890599
-0.0745994
-0.0648738
-0.0592519
-0.0577201
-0.0599489
-0.0643421
-0.0681257
-0.0688127
-0.0656284
-0.0602257
-0.05517
-0.0523878
-0.0526444
-0.0566605
-0.0651895
-0.078093
-0.0928455
-0.105081
-0.110098
-0.127271
-0.154183
-0.180763
-0.198767
-0.201495
-0.187806
-0.163034
-0.135008
-0.109548
-0.0892276
-0.0744391
-0.06442
-0.0585035
-0.0566469
-0.0585365
-0.0626346
-0.0662402
-0.0669113
-0.063864
-0.0586928
-0.0539057
-0.0513971
-0.0519341
-0.0562575
-0.0651402
-0.0784508
-0.0936342
-0.106261
-0.111528
-0.127186
-0.154426
-0.181413
-0.199839
-0.202873
-0.189244
-0.164273
-0.135905
-0.110068
-0.0893878
-0.0742753
-0.0639663
-0.05776
-0.055584
-0.0571401
-0.0609476
-0.0643773
-0.0650317
-0.0621173
-0.0571705
-0.052643
-0.0503986
-0.0512074
-0.0558302
-0.0650599
-0.0787728
-0.0943863
-0.107407
-0.112933
-0.127004
-0.154559
-0.181947
-0.200804
-0.204164
-0.190621
-0.165474
-0.136779
-0.110575
-0.0895413
-0.0741087
-0.0635137
-0.0570224
-0.0545326
-0.0557609
-0.0592824
-0.0625383
-0.0631748
-0.0603891
-0.0556592
-0.0513824
-0.0493929
-0.0504648
-0.0553787
-0.064948
-0.0790583
-0.0951005
-0.10852
-0.114311
-0.126724
-0.15458
-0.182364
-0.20166
-0.205367
-0.191937
-0.166638
-0.137631
-0.111069
-0.0896887
-0.0739403
-0.0630631
-0.0562918
-0.0534936
-0.0543999
-0.05764
-0.0607241
-0.0613415
-0.0586803
-0.0541598
-0.0501247
-0.0483806
-0.0497064
-0.0549029
-0.0648043
-0.0793063
-0.0957756
-0.109597
-0.115661
-0.126348
-0.154489
-0.182664
-0.202406
-0.20648
-0.19319
-0.167763
-0.138462
-0.111552
-0.0898307
-0.0737711
-0.0626155
-0.0555689
-0.052468
-0.0530581
-0.0560213
-0.0589358
-0.0595327
-0.0569916
-0.0526729
-0.0488704
-0.0473622
-0.0489328
-0.0544031
-0.0646285
-0.0795163
-0.0964108
-0.110636
-0.116982
-0.125875
-0.154288
-0.182846
-0.20304
-0.207503
-0.194379
-0.168849
-0.139271
-0.112023
-0.0899682
-0.0736017
-0.0621718
-0.0548547
-0.0514567
-0.0517364
-0.0544275
-0.0571743
-0.0577492
-0.0553236
-0.0511991
-0.0476203
-0.0463384
-0.0481443
-0.0538792
-0.0644202
-0.0796874
-0.0970048
-0.111638
-0.118272
-0.125307
-0.153976
-0.18291
-0.203563
-0.208433
-0.195501
-0.169894
-0.140057
-0.112484
-0.0901018
-0.0734331
-0.0617327
-0.0541501
-0.0504605
-0.0504355
-0.0528592
-0.0554404
-0.0559917
-0.0536771
-0.0497391
-0.0463749
-0.0453097
-0.0473415
-0.0533316
-0.0641794
-0.0798193
-0.0975567
-0.1126
-0.11953
-0.124645
-0.153553
-0.182857
-0.203973
-0.209267
-0.196557
-0.170898
-0.140822
-0.112934
-0.090232
-0.073266
-0.0612992
-0.0534558
-0.0494801
-0.0491562
-0.0513174
-0.0537349
-0.0542611
-0.0520526
-0.0482936
-0.0451351
-0.0442768
-0.0465248
-0.0527604
-0.0639058
-0.0799112
-0.0980658
-0.113522
-0.120755
-0.123888
-0.153022
-0.182686
-0.204271
-0.209999
-0.197544
-0.171861
-0.141564
-0.113374
-0.0903597
-0.0731013
-0.060872
-0.0527726
-0.0485162
-0.0478993
-0.0498026
-0.0520586
-0.0525579
-0.0504509
-0.0468632
-0.0439014
-0.0432404
-0.0456947
-0.0521659
-0.0635994
-0.0799628
-0.098531
-0.114402
-0.121945
-0.12304
-0.152382
-0.1824
-0.204457
-0.210626
-0.198461
-0.172781
-0.142285
-0.113804
-0.0904853
-0.0729396
-0.0604518
-0.0521013
-0.0475696
-0.0466652
-0.0483156
-0.050412
-0.0508828
-0.0488725
-0.0454484
-0.0426745
-0.0422012
-0.0448519
-0.0515484
-0.0632603
-0.0799737
-0.0989518
-0.11524
-0.1231
-0.122101
-0.151636
-0.181997
-0.204531
-0.211158
-0.199308
-0.173658
-0.142983
-0.114225
-0.0906094
-0.0727816
-0.0600395
-0.0514424
-0.0466409
-0.0454545
-0.0468568
-0.0487959
-0.0492365
-0.0473181
-0.04405
-0.0414551
-0.0411598
-0.0439968
-0.0509083
-0.0628884
-0.0799435
-0.0993273
-0.116034
-0.124219
-0.150784
-0.181481
-0.204492
-0.2116
-0.200084
-0.17449
-0.143658
-0.114636
-0.0907327
-0.072628
-0.0596356
-0.0507967
-0.0457305
-0.0442676
-0.0454267
-0.0472106
-0.0476194
-0.0457881
-0.0426684
-0.0402439
-0.040117
-0.0431302
-0.0502461
-0.062484
-0.0798719
-0.099657
-0.116783
-0.125301
-0.149829
-0.180852
-0.204343
-0.211952
-0.200788
-0.175278
-0.144311
-0.11504
-0.0908556
-0.0724795
-0.0592409
-0.0501648
-0.0448391
-0.043105
-0.0440257
-0.0456568
-0.0460321
-0.0442831
-0.0413043
-0.0390415
-0.0390734
-0.0422528
-0.0495623
-0.0620471
-0.0797589
-0.0999404
-0.117488
-0.126343
-0.148773
-0.180112
-0.204084
-0.212206
-0.201418
-0.17602
-0.144941
-0.115434
-0.0909787
-0.0723367
-0.0588559
-0.0495471
-0.0439671
-0.0419669
-0.0426541
-0.0441347
-0.0444751
-0.0428037
-0.0399582
-0.0378486
-0.0380299
-0.0413651
-0.0488573
-0.0615781
-0.0796043
-0.100177
-0.118146
-0.127347
-0.147617
-0.179263
-0.203716
-0.212359
-0.201973
-0.176715
-0.145548
-0.115821
-0.0911024
-0.0722001
-0.0584813
-0.0489442
-0.043115
-0.0408538
-0.0413121
-0.0426447
-0.0429487
-0.0413503
-0.0386307
-0.0366659
-0.0369871
-0.0404679
-0.0481317
-0.0610771
-0.079408
-0.100366
-0.118757
-0.128309
-0.146365
-0.178306
-0.203242
-0.212414
-0.202453
-0.177362
-0.146132
-0.116199
-0.0912271
-0.0720703
-0.0581176
-0.0483567
-0.0422831
-0.0397656
-0.04
-0.0411871
-0.0414535
-0.0399235
-0.0373225
-0.0354939
-0.0359458
-0.039562
-0.0473862
-0.0605447
-0.0791701
-0.100508
-0.119321
-0.129231
-0.145018
-0.177245
-0.202661
-0.212372
-0.202857
-0.17796
-0.146691
-0.11657
-0.0913533
-0.0719477
-0.0577653
-0.047785
-0.0414718
-0.0387027
-0.0387176
-0.039762
-0.0399897
-0.0385238
-0.0360339
-0.0343334
-0.0349067
-0.0386481
-0.0466213
-0.0599813
-0.0788907
-0.100601
-0.119837
-0.13011
-0.143579
-0.176082
-0.201976
-0.212235
-0.203183
-0.178509
-0.147226
-0.116934
-0.0914814
-0.0718329
-0.057425
-0.0472295
-0.0406814
-0.0376652
-0.0374652
-0.0383696
-0.0385576
-0.0371516
-0.0347657
-0.0331851
-0.0338707
-0.037727
-0.0458379
-0.0593872
-0.0785699
-0.100647
-0.120304
-0.130946
-0.142051
-0.174818
-0.201188
-0.212002
-0.203431
-0.179007
-0.147737
-0.117289
-0.0916117
-0.0717262
-0.0570971
-0.0466905
-0.0399123
-0.0366532
-0.0362425
-0.0370098
-0.0371574
-0.0358074
-0.0335184
-0.0320495
-0.0328385
-0.0367995
-0.0450366
-0.0587632
-0.0782081
-0.100645
-0.120722
-0.131739
-0.140436
-0.173457
-0.2003
-0.211673
-0.203599
-0.179454
-0.148222
-0.117637
-0.0917444
-0.071628
-0.0567819
-0.0461684
-0.0391646
-0.0356666
-0.0350494
-0.0356827
-0.0357894
-0.0344917
-0.0322926
-0.0309274
-0.0318108
-0.0358665
-0.0442182
-0.0581097
-0.0778055
-0.100594
-0.12109
-0.132487
-0.138738
-0.172002
-0.199314
-0.211248
-0.203688
-0.179847
-0.148681
-0.117978
-0.0918799
-0.0715387
-0.0564799
-0.0456636
-0.0384386
-0.0347057
-0.0338859
-0.0343882
-0.0344537
-0.033205
-0.0310889
-0.0298194
-0.0307885
-0.0349287
-0.0433834
-0.0574274
-0.0773625
-0.100496
-0.121409
-0.13319
-0.136959
-0.170455
-0.198231
-0.210727
-0.203695
-0.180186
-0.149114
-0.118312
-0.0920195
-0.0714596
-0.0561922
-0.045177
-0.037735
-0.0337707
-0.032752
-0.0331264
-0.0331507
-0.0319461
-0.0299081
-0.0287264
-0.0297725
-0.0339871
-0.0425333
-0.0567171
-0.0768796
-0.100349
-0.121678
-0.133847
-0.135103
-0.168819
-0.197052
-0.21011
-0.203618
-0.180469
-0.149521
-0.11864
-0.0921641
-0.0713913
-0.0559193
-0.0447088
-0.0370537
-0.0328614
-0.0316471
-0.0318969
-0.0318806
-0.0307172
-0.028751
-0.0276493
-0.0287637
-0.0330427
-0.0416687
-0.0559794
-0.0763571
-0.100154
-0.121896
-0.134457
-0.133172
-0.167096
-0.19578
-0.2094
-0.203462
-0.180699
-0.1499
-0.118959
-0.0923083
-0.0713287
-0.0556569
-0.0442556
-0.0363922
-0.0319752
-0.0305683
-0.0306966
-0.0306407
-0.0295491
-0.0276174
-0.0265884
-0.0277627
-0.0320962
-0.0407904
-0.0552153
-0.0757959
-0.0999122
-0.122064
-0.135022
-0.131172
-0.165295
-0.194427
-0.208613
-0.203239
-0.180875
-0.150242
-0.119253
-0.0924395
-0.0712621
-0.055398
-0.0438129
-0.0357476
-0.0311105
-0.0295134
-0.0295221
-0.0294267
-0.0283652
-0.0265047
-0.0255422
-0.0267689
-0.0311476
-0.039899
-0.0544257
-0.0751973
-0.0996247
-0.122185
-0.135543
-0.129107
-0.163419
-0.192992
-0.207732
-0.202918
-0.180971
-0.150537
-0.119534
-0.0925767
-0.0712122
-0.055162
-0.0433974
-0.0351348
-0.0302815
-0.028498
-0.0283897
-0.0282534
-0.0272156
-0.0254201
-0.024515
-0.0257852
-0.0301991
-0.038996
-0.0536118
-0.0745622
-0.0992913
-0.122255
-0.136013
-0.126945
-0.161399
-0.191352
-0.206587
-0.202358
-0.180948
-0.150843
-0.119904
-0.0928297
-0.071275
-0.0550255
-0.0430666
-0.0345949
-0.0295215
-0.0275587
-0.027346
-0.0271751
-0.0261595
-0.0244061
-0.0235387
-0.0248357
-0.029268
-0.0380908
-0.052773
-0.0738782
-0.0988864
-0.122235
-0.136384
-0.124627
-0.159125
-0.189381
-0.205119
-0.201603
-0.180926
-0.151273
-0.120434
-0.0932251
-0.071447
-0.0549677
-0.0427885
-0.0340859
-0.0287769
-0.0266327
-0.0263308
-0.0261483
-0.0251824
-0.0234642
-0.0226246
-0.0239337
-0.0283653
-0.0371884
-0.0519036
-0.0731263
-0.0983804
-0.122098
-0.136651
-0.122618
-0.157445
-0.18835
-0.204821
-0.201816
-0.181314
-0.151592
-0.120539
-0.093087
-0.0710977
-0.0544524
-0.0421336
-0.0332685
-0.0277411
-0.0253659
-0.0249022
-0.0246709
-0.023774
-0.0222002
-0.0214728
-0.0228447
-0.0273142
-0.0361907
-0.0510185
-0.0724586
-0.0980735
-0.122276
-0.137312
-0.121206
-0.159415
-0.193252
-0.211077
-0.207071
-0.183966
-0.152084
-0.119581
-0.0913432
-0.0689784
-0.0521948
-0.0398722
-0.0309368
-0.0250213
-0.0219189
-0.0206654
-0.0198905
-0.0187866
-0.0177146
-0.0174145
-0.0190724
-0.0238072
-0.0331798
-0.0489418
-0.0717722
-0.099061
-0.124859
-0.140935
-0.142637
-0.117061
-0.155092
-0.188497
-0.20602
-0.201787
-0.179616
-0.147968
-0.115787
-0.0879462
-0.0659248
-0.0493452
-0.0370648
-0.0280326
-0.0219097
-0.018561
-0.017155
-0.0164035
-0.0154731
-0.0144833
-0.0142873
-0.0161104
-0.0210582
-0.030764
-0.0470296
-0.0705454
-0.0986455
-0.125254
-0.141887
-0.141971
-0.111889
-0.148824
-0.181785
-0.199909
-0.196496
-0.174732
-0.143487
-0.111747
-0.08436
-0.062714
-0.0463727
-0.0341952
-0.0251534
-0.0189075
-0.0153598
-0.0138073
-0.0130495
-0.0121769
-0.0114082
-0.0114759
-0.0135138
-0.0186825
-0.0286481
-0.0452084
-0.0690671
-0.0976053
-0.124809
-0.142114
-0.142865
-0.106103
-0.142485
-0.175545
-0.194008
-0.190761
-0.16916
-0.138344
-0.107207
-0.0804435
-0.0592994
-0.043287
-0.0312845
-0.0222927
-0.0159675
-0.0122386
-0.0105103
-0.00966922
-0.00884607
-0.00826828
-0.0085315
-0.0107371
-0.0160716
-0.0262483
-0.0430809
-0.0673023
-0.096355
-0.124266
-0.14228
-0.143511
-0.0999857
-0.136055
-0.168917
-0.187094
-0.183912
-0.162647
-0.13251
-0.102208
-0.0762347
-0.0557069
-0.0401082
-0.0283492
-0.0194647
-0.0131097
-0.00924016
-0.00736179
-0.00645675
-0.0057197
-0.00524731
-0.00563023
-0.00792903
-0.0133459
-0.0236579
-0.0407184
-0.0652992
-0.0948793
-0.123452
-0.142012
-0.143518
-0.0934503
-0.128909
-0.161151
-0.178982
-0.175965
-0.155251
-0.126037
-0.0967847
-0.0717587
-0.051958
-0.0368537
-0.0254028
-0.0166807
-0.0103455
-0.00637804
-0.00438362
-0.00344274
-0.00278568
-0.00240693
-0.00288091
-0.00522572
-0.010661
-0.0210283
-0.038224
-0.0630575
-0.0930337
-0.122104
-0.141088
-0.142851
-0.0863133
-0.120818
-0.152297
-0.169821
-0.167017
-0.147035
-0.118975
-0.0909767
-0.0670484
-0.048078
-0.0335425
-0.0224591
-0.0139509
-0.00768234
-0.003657
-0.00157492
-0.000613683
-3.01243e-05
0.000252312
-0.000295467
-0.00265482
-0.00805892
-0.0184038
-0.0356185
-0.0605462
-0.0907348
-0.120143
-0.139485
-0.141495
-0.0785699
-0.111937
-0.142563
-0.159708
-0.157145
-0.138074
-0.111388
-0.0848348
-0.0621414
-0.0440946
-0.0301945
-0.0195319
-0.0112844
-0.00512638
-0.00108027
0.00106515
0.00203513
0.00254686
0.00273704
0.00213311
-0.000211548
-0.00553654
-0.0157808
-0.0328938
-0.0577526
-0.0879776
-0.117581
-0.137194
-0.139423
-0.0703545
-0.102444
-0.132061
-0.148732
-0.146457
-0.128468
-0.103357
-0.0784182
-0.0570795
-0.0400375
-0.0268305
-0.016635
-0.0086899
-0.00268271
0.00134959
0.00353647
0.00450553
0.00494672
0.00505035
0.00440613
0.00210421
-0.00309416
-0.0131607
-0.0300552
-0.0546902
-0.084781
-0.114418
-0.134185
-0.136605
-0.0617953
-0.0924447
-0.120893
-0.137027
-0.135091
-0.118336
-0.0949758
-0.071793
-0.051908
-0.0359378
-0.0234714
-0.0137816
-0.00617525
-0.000355363
0.00363097
0.00583967
0.00680065
0.00717292
0.00719451
0.00652216
0.00428716
-0.00074116
-0.0105575
-0.0271222
-0.0513809
-0.0811551
-0.11064
-0.130435
-0.133025
-0.0529863
-0.0820532
-0.109215
-0.124757
-0.123204
-0.107812
-0.086346
-0.0650308
-0.0466748
-0.0318274
-0.0201385
-0.0109848
-0.00374741
0.0018528
0.00576344
0.0079764
0.00892459
0.00923025
0.00917315
0.00848108
0.00633204
0.00151075
-0.0079897
-0.0241182
-0.0478451
-0.0771062
-0.106241
-0.125934
-0.128677
-0.0440349
-0.0714296
-0.0972217
-0.112112
-0.110966
-0.0970416
-0.0775783
-0.058207
-0.0414287
-0.027738
-0.0168524
-0.008257
-0.00141247
0.00394013
0.00774779
0.00994913
0.010882
0.0111245
0.0109916
0.010285
0.0082358
0.0036514
-0.00547531
-0.0210666
-0.0441045
-0.0726493
-0.101229
-0.120686
-0.123567
-0.0350824
-0.0607668
-0.0851225
-0.0992916
-0.09856
-0.086179
-0.0687865
-0.0513979
-0.0362185
-0.0237007
-0.0136332
-0.00561004
0.000824378
0.00590613
0.00958603
0.0117611
0.0126778
0.012862
0.0126565
0.0119382
0.00999763
0.00567249
-0.00303126
-0.0179917
-0.0401872
-0.0678121
-0.0956278
-0.11471
-0.117717
-0.0262925
-0.0502706
-0.0731276
-0.0864963
-0.0861762
-0.0753796
-0.0600838
-0.044679
-0.0310916
-0.0197449
-0.0104993
-0.00305472
0.00295879
0.00775141
0.0112814
0.0134164
0.0143174
0.01445
0.0141758
0.0134465
0.0116186
0.0075671
-0.000674545
-0.014921
-0.0361286
-0.0626322
-0.0894731
-0.108041
-0.111163
-0.0178406
-0.0401461
-0.0614367
-0.0738795
-0.0739949
-0.0647944
-0.0515792
-0.0381218
-0.0260927
-0.0158981
-0.00746788
-0.000600873
0.00498724
0.00947757
0.0128383
0.0149199
0.0158062
0.0158956
0.0155538
0.0148173
0.0131012
0.00932939
0.00157771
-0.011884
-0.0319689
-0.0571561
-0.0828145
-0.100733
-0.10396
-0.00990349
-0.0305752
-0.0502196
-0.0616928
-0.0621892
-0.0545651
-0.0433732
-0.0317917
-0.0212624
-0.0121847
-0.00455374
0.00174292
0.00690695
0.011087
0.0142622
0.0162772
0.0171498
0.0172061
0.0168078
0.016059
0.0144492
0.0109547
0.00370892
-0.00891119
-0.0277521
-0.0514392
-0.0757171
-0.092855
-0.0961824
-0.00263783
-0.0216855
-0.03959
-0.050041
-0.0509138
-0.0448195
-0.0355546
-0.0257458
-0.0166361
-0.00862606
-0.00176956
0.00396945
0.00871584
0.0125827
0.0155594
0.017495
0.0183537
0.018388
0.017942
0.0171799
0.0156675
0.0124396
0.00570401
-0.00603234
-0.0235247
-0.0455458
-0.0682609
-0.0844994
-0.0879216
0.00385426
-0.0135289
-0.0296149
-0.0390448
-0.0403063
-0.0356672
-0.0281972
-0.0200313
-0.0122437
-0.00524004
0.000874405
0.00607303
0.0104125
0.0139682
0.0167372
0.0185807
0.0194235
0.0194466
0.0189636
0.0181879
0.016761
0.0137824
0.00755029
-0.00327536
-0.0193347
-0.0395471
-0.06054
-0.0757738
-0.0792877
0.00955296
-0.00609252
-0.0203402
-0.0288181
-0.0304851
-0.027196
-0.0213575
-0.0146842
-0.00810815
-0.00204077
0.00337032
0.00804964
0.0119962
0.0152471
0.0178029
0.0195426
0.0203654
0.0203866
0.0198785
0.0190899
0.0177352
0.0149831
0.00923841
-0.000664747
-0.0152294
-0.0335201
-0.0526614
-0.0668039
-0.0704056
0.0145122
0.000657907
-0.0118218
-0.0194691
-0.0215445
-0.0194673
-0.0150731
-0.00972862
-0.00424613
0.00096129
0.00571273
0.00989688
0.013467
0.016423
0.0187644
0.0203899
0.0211862
0.021212
0.020691
0.0198916
0.0185954
0.0160439
0.0107634
0.00178009
-0.0112536
-0.027545
-0.0447423
-0.0577306
-0.0614126
0.0188094
0.00672658
-0.00413888
-0.0110922
-0.0135467
-0.0125139
-0.00936241
-0.0051775
-0.000667574
0.00375926
0.00789836
0.011614
0.0148256
0.0174997
0.019629
0.0211321
0.0218935
0.021927
0.0214044
0.0205977
0.0193475
0.0169698
0.012126
0.00404673
-0.00744682
-0.0217022
-0.0369063
-0.048703
-0.052455
0.022492
0.0120724
0.00262404
-0.0037477
-0.00651329
-0.00633902
-0.00422575
-0.00103313
0.00262356
0.00634963
0.00992592
0.0132018
0.0160739
0.0184808
0.0204041
0.0217789
0.0224962
0.0225364
0.0220214
0.0212123
0.0199979
0.0177693
0.0133335
0.00613122
-0.00384199
-0.0160696
-0.0292781
-0.0398737
-0.043684
0.0255668
0.0166409
0.0084153
0.00255518
-0.000424243
-0.000919179
0.00035191
0.00271103
0.00562865
0.00873196
0.0117959
0.0146622
0.0172144
0.0193698
0.021096
0.0223401
0.0230039
0.0230471
0.022546
0.0217398
0.0205549
0.0184556
0.0144008
0.00803898
-0.000463038
-0.0107186
-0.0219792
-0.0313939
-0.0352476
0.028033
0.0204099
0.0132417
0.00786112
0.00477628
0.00378974
0.00439726
0.00606846
0.00835349
0.0109086
0.0135103
0.0159984
0.0182507
0.0201705
0.0217107
0.0228248
0.0234274
0.0234675
0.0229836
0.0221865
0.0210295
0.0190463
0.0153502
0.00978484
0.00267627
-0.00571095
-0.0151221
-0.0234051
-0.0272812
0.0299168
0.0234135
0.0171681
0.012256
0.00916785
0.0078449
0.00794475
0.00905768
0.0108074
0.0128841
0.0150724
0.0172142
0.0191872
0.0208869
0.0222535
0.0232412
0.0237771
0.0238075
0.0233424
0.0225611
0.0214353
0.0195638
0.0162102
0.0113921
0.00557324
-0.00109511
-0.00880323
-0.0160319
-0.019902
0.0312778
0.025732
0.0202982
0.0158481
0.0128409
0.0113096
0.0110331
0.0117005
0.0130023
0.0146652
0.0164868
0.0183143
0.0200287
0.0215235
0.022729
0.0235968
0.0240636
0.0240785
0.0236324
0.0228741
0.0217878
0.0200326
0.0170128
0.0128907
0.00823618
0.00309645
-0.00309783
-0.00937182
-0.0131994
0.0321951
0.0274684
0.022751
0.0187506
0.0158867
0.0142478
0.0137027
0.0140209
0.0149521
0.0162601
0.0177591
0.0193037
0.0207804
0.0220851
0.0231418
0.0238978
0.0242961
0.0242918
0.0238648
0.0231371
0.0221022
0.0204761
0.0177894
0.0143132
0.0106826
0.00684854
0.00194509
-0.00348824
-0.00722986
0.0327514
0.0287265
0.0246417
0.0210712
0.0183916
0.0167211
0.0159937
0.0160436
0.016672
0.0176784
0.0188955
0.0201876
0.0214478
0.0225768
0.0234963
0.0241495
0.0244828
0.0244578
0.0240506
0.023361
0.0223914
0.0209123
0.0185646
0.0156883
0.0129333
0.0101612
0.00630592
0.00159413
-0.00201265
0.033022
0.0295985
0.0260717
0.0229064
0.0204337
0.0187865
0.0179448
0.0177935
0.0181778
0.0189302
0.0199032
0.0209716
0.0220363
0.0230039
0.0237973
0.0243566
0.0246302
0.0245855
0.0241997
0.0235552
0.022664
0.0213504
0.01935
0.0170307
0.0150026
0.0130445
0.00999526
0.00589238
0.00247094
0.0330701
0.0301626
0.0271265
0.0243374
0.0220816
0.0204962
0.0195927
0.0192953
0.0194858
0.0200266
0.0207897
0.0216616
0.022551
0.0233716
0.0240493
0.0245235
0.0247439
0.0246822
0.0243203
0.0237265
0.0229239
0.0217897
0.0201395
0.0183321
0.0168869
0.0155114
0.0130507
0.00946142
0.00627074
0.0329462
0.0304834
0.0278773
0.0254322
0.0233944
0.021897
0.0209717
0.0205727
0.0206121
0.0209786
0.0215628
0.0222635
0.0229973
0.0236848
0.0242572
0.0246543
0.0248281
0.0247533
0.0244183
0.023879
0.0231712
0.0222209
0.0209103
0.0195596
0.0185631
0.0175753
0.0155307
0.0123822
0.00945643
0.0326909
0.0306116
0.0283816
0.026249
0.0244238
0.0230306
0.0221132
0.0216484
0.0215728
0.0217976
0.0222308
0.0227833
0.0233799
0.0239484
0.0244252
0.0247531
0.0248867
0.024803
0.0244976
0.0240146
0.0234031
0.0226301
0.0216302
0.0206672
0.0199993
0.0192537
0.0175065
0.0147461
0.0121041
0.032336
0.0305873
0.028687
0.0268369
0.0252144
0.023934
0.0230461
0.0225438
0.0223831
0.0224944
0.0228016
0.0232271
0.0237039
0.0241667
0.0245578
0.0248237
0.0249228
0.0248338
0.0245513
0.0241334
0.0236153
0.0230031
0.0222687
0.0216139
0.0211736
0.0205745
0.0190538
0.0166424
0.0142859
0.0319067
0.0304444
0.0288327
0.0272359
0.0258039
0.0246399
0.0237967
0.0232789
0.0230579
0.02308
0.0232831
0.0236007
0.0239738
0.0243437
0.0246586
0.0248696
0.0249395
0.0248487
0.024597
0.0242349
0.0238031
0.0233284
0.0228058
0.0223792
0.022087
0.0215785
0.0202454
0.0181501
0.016065
0.0314235
0.0302097
0.0288503
0.0274798
0.0262248
0.0251768
0.0243885
0.0238723
0.0236111
0.0235647
0.0236831
0.0239101
0.0241942
0.0244831
0.0247312
0.0248939
0.024939
0.0248491
0.0246275
0.0243176
0.0239623
0.0235993
0.0232352
0.0229655
0.0227632
0.0223153
0.0211466
0.0193342
0.0174909
0.0309029
0.0299046
0.0287659
0.0275971
0.0265049
0.02557
0.0248428
0.0243408
0.0240558
0.0239584
0.0240091
0.0241608
0.0243693
0.0245885
0.0247783
0.0248991
0.0249235
0.0248359
0.0246425
0.0243798
0.02409
0.0238137
0.0235617
0.0233922
0.0232397
0.0228361
0.0218134
0.0202488
0.0186017
0.0303577
0.0295467
0.028601
0.0276113
0.0266678
0.0258412
0.0251784
0.0247
0.0244043
0.0242706
0.0242682
0.0243582
0.0245033
0.024663
0.0248028
0.0248875
0.0248945
0.0248101
0.0246419
0.0244203
0.0241846
0.0239733
0.0237962
0.0236856
0.0235567
0.0231875
0.0222931
0.0209441
0.0194901
0.0297984
0.0291498
0.0283733
0.0275424
0.026734
0.0260095
0.0254122
0.024964
0.0246678
0.0245099
0.0244671
0.0245075
0.0246
0.0247095
0.0248067
0.0248608
0.0248532
0.0247721
0.0246257
0.0244389
0.0242462
0.0240817
0.0239522
0.0238722
0.0237509
0.023409
0.0226256
0.0214619
0.0201858
0.0292334
0.0287253
0.0280976
0.0274071
0.0267206
0.0260914
0.0255591
0.0251454
0.0248568
0.0246847
0.024612
0.0246133
0.0246629
0.0247308
0.0247922
0.0248205
0.0248008
0.0247226
0.0245943