/*--------------------------------*- C++ -*----------------------------------*\
  =========                 |
  \\      /  F ield         | OpenFOAM: The Open Source CFD Toolbox
   \\    /   O peration     | Website:  https://openfoam.org
    \\  /    A nd           | Version:  7
     \\/     M anipulation  |
\*---------------------------------------------------------------------------*/
FoamFile
{
    version     2.0;
    format      ascii;
    class       volVectorField;
    location    "300";
    object      U;
}
// * * * * * * * * * * * * * * * * * * * * * * * * * * * * * * * * * * * * * //

dimensions      [0 1 -1 0 0 0 0];

internalField   nonuniform List<vector> 
7156
(
(0.778772 0.52314 -1.81e-22)
(0.749816 0.460086 3.0573e-23)
(0.733757 0.335136 3.58934e-23)
(0.733884 0.163163 -9.65012e-23)
(0.749709 -0.0237412 2.60357e-24)
(0.777079 -0.19189 -1.59679e-23)
(0.808713 -0.319418 -1.88883e-23)
(0.837689 -0.400445 6.6039e-24)
(0.860638 -0.440835 -1.71938e-22)
(0.875888 -0.454557 -1.08418e-22)
(0.880604 -0.46031 -3.99414e-23)
(0.872208 -0.471112 5.34564e-23)
(0.851438 -0.482742 -1.30524e-22)
(0.822999 -0.474626 1.4277e-24)
(0.793693 -0.424264 1.11838e-23)
(0.769661 -0.322902 4.28777e-23)
(0.755427 -0.180506 5.0133e-23)
(0.753981 -0.0206939 -6.95957e-23)
(0.766168 0.129024 1.0551e-22)
(0.789022 0.247318 -1.3376e-23)
(0.815515 0.327897 1.23451e-22)
(0.836257 0.378745 -2.05428e-23)
(0.844168 0.412105 -7.0618e-23)
(0.837155 0.431885 5.4504e-23)
(0.818146 0.431138 -3.27234e-23)
(0.793161 0.397531 4.34001e-23)
(0.769816 0.322601 5.8536e-23)
(0.75414 0.20909 1.28714e-23)
(0.750342 0.0712145 2.25491e-23)
(0.780377 0.526215 9.56654e-23)
(0.752251 0.462322 -1.88469e-22)
(0.73691 0.336042 -8.79194e-23)
(0.737515 0.162617 9.60278e-23)
(0.753541 -0.0255268 1.11056e-22)
(0.78086 -0.194396 1.21815e-22)
(0.812203 -0.322 7.43619e-24)
(0.840622 -0.402644 2.74246e-22)
(0.862811 -0.442436 1.22182e-22)
(0.877287 -0.455375 6.01748e-23)
(0.881339 -0.460131 -9.64856e-23)
(0.872363 -0.469885 -1.08127e-22)
(0.851035 -0.480727 2.16478e-22)
(0.822029 -0.472322 -9.68132e-23)
(0.792192 -0.422202 -2.88677e-22)
(0.76777 -0.321491 8.69276e-24)
(0.753352 -0.180006 -2.51432e-22)
(0.751939 -0.0212056 9.91816e-23)
(0.764356 0.127624 1.63872e-22)
(0.787575 0.245434 1.82224e-22)
(0.814462 0.326137 3.89424e-23)
(0.835573 0.377685 -1.14487e-22)
(0.843857 0.412039 5.9362e-23)
(0.837225 0.432755 1.59779e-22)
(0.818584 0.43262 1.20607e-23)
(0.793935 0.39916 1.97434e-22)
(0.770827 0.323927 -7.87143e-23)
(0.755203 0.209788 -7.98232e-23)
(0.751284 0.0711316 -8.42655e-23)
(0.782115 0.529256 3.07675e-22)
(0.754828 0.464592 7.02564e-23)
(0.740203 0.337057 -2.07216e-22)
(0.741275 0.162234 -3.79571e-22)
(0.757485 -0.0271321 -3.35831e-22)
(0.784733 -0.196737 -7.62149e-23)
(0.815768 -0.324443 4.82277e-23)
(0.843621 -0.40473 -3.39136e-22)
(0.865041 -0.443948 3.49416e-22)
(0.878739 -0.456127 -1.66385e-22)
(0.882133 -0.459896 1.99495e-22)
(0.87259 -0.468605 7.47376e-24)
(0.850719 -0.478668 -2.65885e-22)
(0.821161 -0.47 -2.95035e-22)
(0.790801 -0.420164 6.03125e-22)
(0.765989 -0.32015 -1.17191e-22)
(0.751382 -0.179609 1.18896e-22)
(0.749995 -0.0218347 3.63521e-22)
(0.762632 0.126112 -9.08286e-23)
(0.786203 0.243458 2.55157e-22)
(0.813472 0.324308 6.00329e-23)
(0.83495 0.376573 -3.76362e-22)
(0.843611 0.411929 8.55545e-23)
(0.837369 0.433593 -1.29783e-22)
(0.819109 0.434086 2.52272e-23)
(0.794806 0.400799 -1.09282e-22)
(0.771939 0.325293 -5.68651e-24)
(0.756365 0.21055 -9.67943e-23)
(0.752318 0.0711261 -1.68167e-24)
(0.783983 0.532262 1.66554e-22)
(0.757542 0.466898 -4.70772e-22)
(0.743631 0.338186 2.5367e-22)
(0.74516 0.16202 6.94934e-22)
(0.761537 -0.0285531 -3.66737e-22)
(0.788695 -0.198909 1.47891e-21)
(0.819409 -0.326746 -2.2099e-22)
(0.846686 -0.406701 -3.36723e-22)
(0.86733 -0.445371 2.13123e-22)
(0.880245 -0.456813 -1.21013e-23)
(0.882986 -0.459609 5.27851e-22)
(0.872889 -0.467276 -4.71312e-22)
(0.850491 -0.476568 5.04243e-22)
(0.820397 -0.46766 9.96196e-22)
(0.789521 -0.418149 -1.04864e-21)
(0.764318 -0.318876 2.97893e-22)
(0.749517 -0.179313 1.5985e-22)
(0.748149 -0.0225787 -6.98998e-23)
(0.760996 0.124491 -3.73758e-22)
(0.784904 0.241391 -1.94546e-22)
(0.812543 0.322411 -4.29585e-22)
(0.834385 0.375406 4.61744e-22)
(0.843431 0.411775 -1.81434e-23)
(0.837588 0.434397 -2.75307e-22)
(0.819721 0.435537 1.82642e-22)
(0.795774 0.402447 -3.75594e-22)
(0.773152 0.326699 -8.28267e-22)
(0.757625 0.211379 -5.48279e-22)
(0.753444 0.0711991 1.50152e-23)
(0.785977 0.535232 5.13573e-22)
(0.76039 0.46924 4.25631e-22)
(0.74719 0.33943 -1.15997e-21)
(0.749168 0.161976 -1.18555e-21)
(0.765698 -0.0297861 3.38005e-22)
(0.792747 -0.200909 -1.10366e-21)
(0.823123 -0.328906 -4.58511e-22)
(0.849816 -0.408558 8.35618e-22)
(0.869679 -0.446705 -6.25769e-22)
(0.881807 -0.457435 1.27089e-22)
(0.8839 -0.45927 -7.03528e-23)
(0.873262 -0.465899 1.3556e-22)
(0.850352 -0.474428 -5.48965e-22)
(0.819736 -0.465304 -6.63286e-22)
(0.788354 -0.416156 8.37566e-22)
(0.762758 -0.317669 -8.52599e-22)
(0.747759 -0.179116 5.59945e-23)
(0.7464 -0.0234356 -1.93819e-22)
(0.759445 0.122763 8.17303e-22)
(0.783678 0.239236 2.0661e-22)
(0.811675 0.320445 -1.19893e-22)
(0.83388 0.374185 -4.14108e-22)
(0.843315 0.411574 3.64189e-22)
(0.83788 0.435164 -7.95293e-23)
(0.820419 0.436969 -5.95033e-22)
(0.796838 0.404103 -2.10975e-22)
(0.774465 0.328144 5.73127e-22)
(0.758986 0.212275 7.33787e-22)
(0.754664 0.071352 1.74811e-22)
(0.788092 0.538164 4.19155e-22)
(0.763366 0.47162 -1.12514e-22)
(0.750877 0.340793 3.36511e-22)
(0.753296 0.162108 6.78681e-22)
(0.769963 -0.0308272 -9.46366e-22)
(0.796886 -0.202735 9.23705e-22)
(0.826911 -0.330923 1.82795e-22)
(0.853013 -0.4103 3.5206e-22)
(0.872088 -0.447952 -1.9221e-22)
(0.883425 -0.457995 -6.39393e-22)
(0.884874 -0.458885 4.5805e-22)
(0.873709 -0.464479 -3.3113e-22)
(0.850303 -0.472252 3.41369e-24)
(0.81918 -0.462933 -7.76188e-22)
(0.787299 -0.414185 -2.87119e-22)
(0.761311 -0.316525 1.32005e-21)
(0.746106 -0.179016 -3.25013e-22)
(0.744749 -0.0244029 -2.52257e-23)
(0.75798 0.120929 -1.72419e-22)
(0.782522 0.236992 -3.4391e-22)
(0.810867 0.31841 -5.34117e-22)
(0.833432 0.372908 4.87673e-22)
(0.843262 0.411325 -2.56146e-22)
(0.838245 0.435894 8.81944e-22)
(0.821202 0.438381 -2.52698e-23)
(0.797999 0.405767 7.21151e-22)
(0.775879 0.329629 1.14644e-21)
(0.760446 0.213238 -3.05043e-22)
(0.755979 0.0715856 -1.12891e-21)
(0.790324 0.541057 2.76299e-22)
(0.766467 0.474038 1.91384e-22)
(0.754687 0.342277 -1.71761e-21)
(0.757538 0.162417 1.36149e-21)
(0.77433 -0.0316731 3.7064e-22)
(0.801112 -0.204383 1.81922e-22)
(0.830772 -0.332795 8.67409e-22)
(0.856276 -0.411927 -1.60534e-21)
(0.874559 -0.449112 1.5537e-21)
(0.8851 -0.458493 3.81396e-22)
(0.885909 -0.458453 7.02408e-23)
(0.874231 -0.463019 -5.01748e-23)
(0.850345 -0.470041 1.2e-21)
(0.81873 -0.460548 1.00165e-21)
(0.786357 -0.412236 3.50864e-22)
(0.759976 -0.315445 -1.29696e-21)
(0.744561 -0.179011 -2.65724e-22)
(0.743196 -0.0254784 5.31137e-22)
(0.7566 0.118992 2.06142e-22)
(0.781436 0.234663 -5.50093e-22)
(0.810117 0.316308 4.50892e-22)
(0.83304 0.371574 7.94543e-23)
(0.843271 0.411026 -2.79154e-22)
(0.838683 0.436584 -2.21137e-22)
(0.82207 0.439773 -4.439e-22)
(0.799254 0.407437 1.60821e-22)
(0.777393 0.331154 -4.50621e-22)
(0.762005 0.214269 -3.4256e-22)
(0.757388 0.0719011 1.25519e-21)
(0.792669 0.543908 -7.81628e-23)
(0.769687 0.476494 1.56252e-21)
(0.758615 0.343882 -1.52463e-21)
(0.761893 0.162908 -1.38258e-21)
(0.778798 -0.0323202 3.33012e-22)
(0.805423 -0.205852 -8.39197e-22)
(0.834705 -0.334522 -8.04292e-22)
(0.859605 -0.41344 9.52083e-22)
(0.877091 -0.450185 8.43955e-22)
(0.886832 -0.458932 -1.34339e-21)
(0.887006 -0.45798 2.15396e-22)
(0.874827 -0.461521 2.11919e-22)
(0.850477 -0.467798 -6.94277e-22)
(0.818385 -0.45815 1.36903e-22)
(0.785531 -0.410308 1.66227e-21)
(0.758755 -0.314426 -1.60243e-21)
(0.743122 -0.179098 1.77628e-21)
(0.741739 -0.0266598 -9.73726e-22)
(0.755304 0.116955 -2.70748e-22)
(0.780419 0.232249 -3.06608e-23)
(0.809424 0.314137 2.99585e-22)
(0.832703 0.370182 -4.03251e-22)
(0.843341 0.410675 -1.9217e-22)
(0.839191 0.437233 -1.97672e-22)
(0.823022 0.441142 5.02574e-22)
(0.800605 0.409113 1.47282e-22)
(0.779007 0.332717 4.58883e-23)
(0.763665 0.215369 -8.92305e-22)
(0.758893 0.0722995 -1.46972e-21)
(0.795122 0.546717 -6.19997e-22)
(0.773021 0.478989 -1.39064e-21)
(0.762656 0.345612 4.25953e-21)
(0.766354 0.163583 -3.98377e-22)
(0.783362 -0.0327655 3.25339e-21)
(0.809817 -0.207139 -2.27814e-21)
(0.83871 -0.336101 -5.85215e-22)
(0.863 -0.414838 -7.27075e-22)
(0.879686 -0.451171 -3.04261e-22)
(0.888623 -0.459311 4.88281e-23)
(0.888165 -0.457466 9.86609e-22)
(0.875499 -0.459988 -4.07566e-22)
(0.8507 -0.465526 -6.57211e-22)
(0.818145 -0.45574 -1.48722e-21)
(0.784819 -0.408402 -1.57339e-21)
(0.757647 -0.313467 6.1922e-22)
(0.741789 -0.179275 8.95951e-22)
(0.740378 -0.0279441 -4.34061e-22)
(0.754089 0.114819 7.18937e-22)
(0.779468 0.229752 2.29511e-22)
(0.808786 0.311899 -2.529e-22)
(0.83242 0.368731 5.57999e-22)
(0.84347 0.410271 3.43778e-22)
(0.839769 0.437838 4.29711e-22)
(0.824057 0.442486 -1.46255e-21)
(0.802049 0.410793 -1.70602e-21)
(0.780719 0.33432 -8.33335e-22)
(0.765424 0.216537 6.05008e-22)
(0.760494 0.0727817 3.72075e-22)
(0.797677 0.54948 6.29817e-22)
(0.776464 0.481522 1.52904e-21)
(0.766806 0.347467 -1.48638e-22)
(0.770917 0.164444 -3.39177e-21)
(0.788019 -0.0330059 1.11159e-21)
(0.814293 -0.20824 -2.6134e-22)
(0.842786 -0.337531 4.50236e-22)
(0.86646 -0.41612 -1.02696e-21)
(0.882344 -0.452072 1.52661e-21)
(0.890473 -0.459634 2.43829e-23)
(0.889385 -0.456914 -8.34134e-22)
(0.876246 -0.458423 -4.3115e-22)
(0.851014 -0.463227 6.13931e-22)
(0.818012 -0.453319 6.07806e-22)
(0.784223 -0.406515 2.67983e-23)
(0.756654 -0.312564 9.92047e-22)
(0.740563 -0.17954 -1.79432e-21)
(0.739112 -0.0293288 1.52423e-21)
(0.752956 0.112586 -2.70608e-22)
(0.778582 0.227173 1.4346e-21)
(0.808203 0.309593 -8.09051e-22)
(0.83219 0.36722 -5.40218e-22)
(0.843658 0.409812 -3.4542e-23)
(0.840416 0.438398 -1.55036e-21)
(0.825173 0.443804 1.1823e-21)
(0.803586 0.412477 9.2553e-22)
(0.78253 0.335962 2.32233e-21)
(0.767283 0.217775 7.77462e-22)
(0.762192 0.0733484 7.39945e-22)
(0.800329 0.552196 -1.13288e-21)
(0.780009 0.484093 -6.02981e-22)
(0.771057 0.349449 4.5945e-21)
(0.775578 0.165494 -2.00542e-21)
(0.792765 -0.0330387 5.01787e-22)
(0.818847 -0.209154 -6.91118e-22)
(0.84693 -0.338813 2.31174e-21)
(0.869986 -0.417287 2.16826e-21)
(0.885065 -0.452886 3.90906e-23)
(0.892383 -0.4599 -1.01566e-21)
(0.890667 -0.456328 -6.80771e-22)
(0.877067 -0.45683 1.78358e-21)
(0.851418 -0.460903 -7.3511e-22)
(0.817984 -0.450889 2.04787e-21)
(0.783741 -0.404647 -2.04367e-21)
(0.755776 -0.311718 3.85605e-22)
(0.739443 -0.179889 1.84819e-21)
(0.737941 -0.0308113 -2.19634e-21)
(0.751902 0.11026 -6.57907e-22)
(0.77776 0.224513 -1.04002e-21)
(0.807672 0.30722 3.79209e-22)
(0.832012 0.365648 -3.66962e-22)
(0.843902 0.409296 -3.16864e-22)
(0.84113 0.43891 3.81835e-22)
(0.826371 0.445095 -5.02616e-22)
(0.805215 0.414164 -1.977e-21)
(0.784439 0.337642 6.81842e-22)
(0.76924 0.219082 -2.20076e-21)
(0.763986 0.0740005 -3.49405e-23)
(0.803072 0.554863 -2.59201e-21)
(0.783651 0.4867 -2.0496e-21)
(0.775406 0.351557 1.24538e-21)
(0.78033 0.166734 -1.06588e-21)
(0.797597 -0.0328611 -2.51575e-21)
(0.823479 -0.209878 2.06124e-21)
(0.851143 -0.339943 -4.5623e-22)
(0.873576 -0.418339 -6.63452e-22)
(0.88785 -0.453616 2.93323e-22)
(0.894352 -0.460112 -9.70955e-22)
(0.892012 -0.455708 8.35734e-22)
(0.877964 -0.455212 -9.40818e-23)
(0.851914 -0.458556 1.2343e-22)
(0.81806 -0.44845 -7.09326e-22)
(0.783376 -0.402799 6.48641e-22)
(0.755012 -0.310924 -6.65454e-22)
(0.738429 -0.180321 1.68375e-21)
(0.736864 -0.0323887 -6.46203e-22)
(0.750927 0.107842 2.40844e-22)
(0.776999 0.221775 8.82623e-22)
(0.807193 0.304779 -7.38456e-22)
(0.831882 0.364015 -1.44241e-23)
(0.844202 0.408722 1.23151e-21)
(0.84191 0.439374 1.49892e-21)
(0.827647 0.446356 -2.15507e-22)
(0.806933 0.415852 -3.4192e-23)
(0.786443 0.339359 1.26047e-21)
(0.771296 0.220458 3.88203e-22)
(0.765875 0.0747387 -1.11964e-21)
(0.805901 0.557477 5.26997e-22)
(0.787384 0.489343 1.81049e-21)
(0.779844 0.353793 -3.00056e-22)
(0.785169 0.168166 -1.78614e-21)
(0.80251 -0.0324708 2.53155e-21)
(0.828185 -0.210411 -4.28132e-21)
(0.855423 -0.340921 3.13208e-21)
(0.877229 -0.419276 -1.51813e-21)
(0.890698 -0.454261 -1.28596e-21)
(0.896381 -0.460269 -5.81418e-22)
(0.893418 -0.455058 -1.1208e-21)
(0.878935 -0.45357 3.40907e-22)
(0.852499 -0.45619 -2.30803e-21)
(0.818242 -0.446002 -1.10331e-21)
(0.783125 -0.400968 1.20175e-21)
(0.754363 -0.310182 -2.68297e-21)
(0.737521 -0.180831 -4.36276e-22)
(0.73588 -0.0340582 1.39544e-21)
(0.750029 0.105335 -1.1083e-22)
(0.7763 0.218959 -1.48989e-21)
(0.806763 0.302271 4.81437e-22)
(0.831801 0.362318 6.89359e-22)
(0.844555 0.408087 -1.20385e-22)
(0.842754 0.439786 -2.00932e-21)
(0.829001 0.447586 1.74043e-21)
(0.80874 0.41754 6.27145e-22)
(0.788544 0.341114 -1.27117e-21)
(0.77345 0.221904 1.51889e-22)
(0.767862 0.0755637 6.42305e-23)
(0.808809 0.560037 2.37101e-21)
(0.791202 0.492021 -4.01103e-21)
(0.784366 0.356156 3.65281e-21)
(0.790088 0.169792 -5.58745e-22)
(0.8075 -0.0318656 1.36153e-21)
(0.832963 -0.210749 -3.78631e-22)
(0.859768 -0.341746 1.10613e-21)
(0.880946 -0.420098 1.51349e-21)
(0.893609 -0.454822 6.80421e-22)
(0.898472 -0.460374 1.90217e-21)
(0.894885 -0.454379 -2.8288e-22)
(0.87998 -0.451909 -5.96333e-22)
(0.853175 -0.453805 2.54823e-21)
(0.818527 -0.443548 -8.26766e-22)
(0.782989 -0.399154 -2.59554e-22)
(0.753829 -0.309488 2.71083e-21)
(0.736718 -0.181418 1.17413e-21)
(0.734987 -0.0358169 -1.80007e-21)
(0.749206 0.102741 -1.72916e-22)
(0.775659 0.216067 1.34458e-21)
(0.806381 0.299697 -3.82252e-22)
(0.831767 0.360557 1.28074e-21)
(0.84496 0.407391 -4.01961e-22)
(0.843661 0.440146 8.709e-22)
(0.830431 0.448783 -1.75844e-22)
(0.810635 0.419227 8.56874e-22)
(0.790738 0.342906 9.00854e-22)
(0.775701 0.223419 -9.22731e-22)
(0.769943 0.0764758 1.18803e-22)
(0.811791 0.562539 6.27127e-22)
(0.795096 0.494732 3.54008e-21)
(0.788965 0.358646 -2.83828e-22)
(0.795082 0.171613 -1.33704e-21)
(0.812562 -0.0310435 3.92238e-21)
(0.83781 -0.210891 1.1288e-21)
(0.864177 -0.342417 -8.56629e-22)
(0.884725 -0.420804 -2.06046e-21)
(0.896584 -0.455299 1.02154e-21)
(0.900623 -0.460426 -2.26755e-22)
(0.896414 -0.453674 -1.57106e-22)
(0.881098 -0.450231 2.51367e-21)
(0.853941 -0.451405 -3.46748e-22)
(0.818915 -0.441088 -4.16772e-22)
(0.782967 -0.397356 1.33476e-21)
(0.753409 -0.308841 8.25765e-22)
(0.73602 -0.182078 -1.69004e-21)
(0.734185 -0.0376618 1.43096e-21)
(0.748457 0.100063 -5.74708e-22)
(0.775075 0.213101 1.25488e-22)
(0.806046 0.297055 1.63198e-21)
(0.831777 0.358732 -1.45682e-21)
(0.845415 0.406632 -5.00313e-22)
(0.844629 0.44045 -2.33039e-22)
(0.831935 0.449946 -9.19315e-22)
(0.812614 0.420912 2.05775e-22)
(0.793024 0.344732 -2.67342e-22)
(0.778047 0.225003 2.42407e-21)
(0.772121 0.0774757 -2.04002e-22)
(0.814839 0.564981 -1.84034e-21)
(0.799062 0.497473 4.0129e-21)
(0.793635 0.361263 -2.56386e-21)
(0.800144 0.173628 1.21282e-21)
(0.817692 -0.0300028 -3.1271e-21)
(0.842723 -0.210834 -2.03714e-21)
(0.868648 -0.342932 4.47102e-22)
(0.888566 -0.421394 -1.09723e-21)
(0.899621 -0.455693 1.22776e-21)
(0.902835 -0.460427 -1.41293e-21)
(0.898003 -0.452945 -4.56076e-21)
(0.882289 -0.448539 1.4763e-21)
(0.854795 -0.448992 9.8791e-22)
(0.819406 -0.438622 1.83363e-21)
(0.783058 -0.395574 -2.99188e-21)
(0.753104 -0.308239 -1.52618e-21)
(0.735427 -0.182809 3.19017e-22)
(0.733473 -0.0395897 -4.01462e-22)
(0.74778 0.0973036 -6.42287e-22)
(0.774547 0.210062 6.67734e-22)
(0.805756 0.294347 -9.62295e-22)
(0.83183 0.356842 1.21591e-21)
(0.845918 0.405809 4.32385e-22)
(0.845655 0.440698 -3.78769e-22)
(0.833511 0.451071 -1.33366e-22)
(0.814678 0.422592 1.39068e-22)
(0.795402 0.346594 -1.49726e-21)
(0.780488 0.226657 -3.15415e-21)
(0.774392 0.0785637 3.02417e-21)
(0.817948 0.56736 7.95763e-22)
(0.803092 0.500243 -1.0617e-21)
(0.798368 0.364005 -5.35355e-21)
(0.805268 0.17584 2.77176e-21)
(0.822884 -0.0287421 -2.86959e-21)
(0.847699 -0.210578 6.17929e-21)
(0.873179 -0.34329 -4.21486e-21)
(0.892466 -0.421869 2.91739e-21)
(0.902721 -0.456004 -4.7861e-22)
(0.905108 -0.460377 3.72062e-21)
(0.899653 -0.452194 2.70332e-22)
(0.883551 -0.446837 -4.737e-24)
(0.855737 -0.446568 -1.55024e-22)
(0.819997 -0.436152 -3.61353e-21)
(0.783261 -0.393807 1.11768e-21)
(0.752912 -0.307678 4.52931e-23)
(0.734937 -0.183606 3.81676e-22)
(0.732848 -0.0415977 -1.5904e-21)
(0.747174 0.094465 2.12493e-21)
(0.774073 0.206952 -4.29076e-22)
(0.805509 0.291573 -3.93075e-23)
(0.831924 0.354885 4.02695e-22)
(0.846467 0.404918 -6.07017e-22)
(0.846739 0.440888 -1.99947e-22)
(0.835157 0.452159 1.04642e-21)
(0.816822 0.424267 -4.5095e-22)
(0.797869 0.34849 2.40574e-21)
(0.783022 0.228379 9.95277e-22)
(0.776758 0.0797401 5.70535e-22)
(0.821111 0.569671 -4.40738e-21)
(0.807179 0.503039 2.47644e-21)
(0.803157 0.366871 9.15106e-21)
(0.810447 0.178247 -1.72934e-21)
(0.828133 -0.02726 -6.27374e-21)
(0.852734 -0.210119 1.53036e-21)
(0.877769 -0.343491 4.25304e-21)
(0.896425 -0.422228 -1.01931e-21)
(0.905883 -0.456232 -5.2905e-22)
(0.907442 -0.460278 -1.75988e-22)
(0.901363 -0.451422 1.4893e-21)
(0.884883 -0.445126 -9.10493e-23)
(0.856767 -0.444135 6.95601e-22)
(0.820689 -0.433678 -1.21192e-21)
(0.783575 -0.392053 1.60597e-21)
(0.752834 -0.307156 7.90695e-22)
(0.73455 -0.184467 -2.15547e-21)
(0.732311 -0.0436825 -1.62317e-22)
(0.746637 0.0915499 1.15422e-22)
(0.773651 0.203771 -2.75852e-21)
(0.805304 0.288733 2.2598e-21)
(0.832058 0.352861 -1.99942e-22)
(0.847061 0.403961 -1.35528e-21)
(0.847877 0.441016 2.10333e-21)
(0.836871 0.453206 -1.03923e-21)
(0.819047 0.425935 6.40258e-22)
(0.800424 0.350418 -4.1039e-21)
(0.785648 0.230169 7.02682e-22)
(0.779217 0.0810052 -4.35466e-21)
(0.824321 0.571912 -2.12578e-21)
(0.811315 0.505858 -3.6954e-21)
(0.807996 0.36986 -7.24667e-21)
(0.815674 0.18085 4.27704e-21)
(0.833434 -0.0255555 -1.22845e-21)
(0.857826 -0.209458 -5.16317e-21)
(0.882415 -0.343532 -1.90143e-21)
(0.900441 -0.422472 -8.13914e-21)
(0.909107 -0.456377 6.36553e-22)
(0.909837 -0.460129 5.79054e-23)
(0.903133 -0.450632 -2.72265e-21)
(0.886284 -0.443409 9.23159e-22)
(0.857883 -0.441696 3.34851e-21)
(0.82148 -0.431201 -2.21542e-21)
(0.783998 -0.390312 -1.32616e-21)
(0.752869 -0.306671 1.65805e-21)
(0.734266 -0.185389 -9.06752e-22)
(0.73186 -0.0458409 -2.2625e-21)
(0.746167 0.0885609 1.65484e-21)
(0.773279 0.200523 -7.15308e-22)
(0.805138 0.285827 8.42968e-24)
(0.832229 0.350769 -5.94397e-22)
(0.847697 0.402934 6.99816e-22)
(0.849068 0.441083 -7.31037e-22)
(0.838651 0.45421 2.46802e-21)
(0.821348 0.427594 5.42003e-22)
(0.803064 0.352378 7.895e-22)
(0.788365 0.232027 -4.7889e-22)
(0.781768 0.082359 -6.22624e-22)
(0.827571 0.57408 2.20436e-21)
(0.815495 0.508697 -4.84616e-23)
(0.812877 0.37297 -5.37986e-22)
(0.820942 0.183648 4.91098e-21)
(0.838781 -0.0236278 -2.46612e-21)
(0.862971 -0.208591 8.4988e-21)
(0.887115 -0.343414 3.74196e-21)
(0.904513 -0.4226 1.36614e-21)
(0.912391 -0.456441 -3.31374e-21)
(0.912293 -0.459932 1.67622e-21)
(0.904961 -0.449825 -1.14164e-22)
(0.887753 -0.44169 -3.30002e-22)
(0.859084 -0.439253 -9.5103e-22)
(0.822368 -0.428721 1.64392e-21)
(0.78453 -0.388583 -4.70127e-22)
(0.753015 -0.306221 -4.72598e-22)
(0.734084 -0.186368 1.23714e-21)
(0.731494 -0.0480696 2.46616e-21)
(0.745764 0.0855007 2.87688e-21)
(0.772956 0.197207 -1.94125e-21)
(0.80501 0.282856 2.21251e-21)
(0.832436 0.348609 -1.40979e-21)
(0.848373 0.401836 2.33127e-22)
(0.85031 0.441085 5.39713e-22)
(0.840495 0.455171 -1.56935e-21)
(0.823725 0.429243 -2.84034e-21)
(0.805787 0.354368 2.13757e-23)
(0.79117 0.233951 -1.99513e-21)
(0.784409 0.0838017 -5.43275e-22)
(0.830855 0.57617 8.4913e-21)
(0.819711 0.511554 -5.27166e-21)
(0.817792 0.376197 6.45717e-21)
(0.826244 0.18664 -9.30332e-21)
(0.844168 -0.0214765 8.32789e-21)
(0.868164 -0.207518 -3.21899e-21)
(0.891868 -0.343134 1.31379e-21)
(0.90864 -0.422611 -2.59331e-21)
(0.915735 -0.456423 2.8354e-21)
(0.91481 -0.459687 1.34231e-22)
(0.906848 -0.449002 -8.68321e-22)
(0.889288 -0.439971 -3.57023e-22)
(0.860368 -0.436808 -8.20106e-22)
(0.823353 -0.426241 -3.44234e-22)
(0.785167 -0.386866 2.77635e-21)
(0.753272 -0.305803 -1.09962e-21)
(0.734003 -0.1874 2.07816e-21)
(0.731212 -0.0503651 -1.19092e-21)
(0.745424 0.0823719 -1.15929e-21)
(0.772679 0.193826 3.70656e-22)
(0.804919 0.27982 -5.40686e-22)
(0.832675 0.34638 -1.17457e-21)
(0.849086 0.400667 -2.71317e-21)
(0.8516 0.441021 2.56418e-22)
(0.842399 0.456085 -1.44931e-21)
(0.826174 0.43088 -1.02567e-22)
(0.808592 0.356388 -7.93009e-22)
(0.794061 0.235942 -1.19939e-21)
(0.78714 0.0853331 2.00343e-22)
(0.834166 0.57818 -4.43853e-22)
(0.823955 0.514423 2.60092e-21)
(0.822734 0.379541 -5.31677e-22)
(0.831574 0.189826 1.23016e-21)
(0.84959 -0.0191013 -3.07156e-21)
(0.873402 -0.206238 -6.30789e-21)
(0.89667 -0.342692 -3.89446e-21)
(0.91282 -0.422506 4.45623e-21)
(0.919138 -0.456325 -1.3468e-21)
(0.917387 -0.459395 7.67163e-22)
(0.908793 -0.448165 -1.64741e-21)
(0.890888 -0.438255 1.54507e-21)
(0.861735 -0.434363 1.62416e-21)
(0.824433 -0.423759 -7.53154e-22)
(0.785908 -0.385158 -2.33661e-21)
(0.753639 -0.305415 1.00462e-21)
(0.734023 -0.188483 1.0314e-21)
(0.731012 -0.0527242 2.82346e-22)
(0.745148 0.0791772 6.21768e-22)
(0.772448 0.190382 1.19595e-21)
(0.804862 0.27672 1.12749e-25)
(0.832947 0.344082 1.30412e-21)
(0.849836 0.399424 5.6479e-22)
(0.852935 0.440889 1.79127e-21)
(0.844361 0.456952 2.92509e-21)
(0.828693 0.432503 2.96744e-21)
(0.811477 0.358435 1.21892e-21)
(0.797038 0.237999 -2.37298e-22)
(0.78996 0.0869531 4.49999e-21)
(0.837497 0.580104 -2.68829e-21)
(0.82822 0.517302 -1.16024e-21)
(0.827696 0.382997 -3.87838e-21)
(0.836924 0.193203 2.78655e-21)
(0.855041 -0.0165021 2.03587e-21)
(0.878682 -0.20475 1.92014e-21)
(0.90152 -0.342086 5.04115e-21)
(0.917051 -0.422285 -4.74825e-21)
(0.922598 -0.456145 2.14473e-21)
(0.920023 -0.459055 -1.49684e-21)
(0.910795 -0.447315 5.56318e-22)
(0.892552 -0.436543 -2.60673e-21)
(0.863182 -0.431922 -1.65975e-21)
(0.825606 -0.421278 -4.36975e-22)
(0.786752 -0.38346 2.86127e-21)
(0.754114 -0.305055 -9.7402e-22)
(0.734143 -0.189613 2.29346e-22)
(0.730894 -0.0551434 -9.05732e-22)
(0.744932 0.0759193 1.1113e-21)
(0.772261 0.186876 5.30596e-22)
(0.804837 0.273557 7.94035e-22)
(0.833247 0.341713 6.82245e-22)
(0.850618 0.398107 3.63809e-22)
(0.854313 0.440688 -8.95609e-22)
(0.846379 0.457769 -7.69029e-22)
(0.83128 0.43411 8.58473e-22)
(0.814437 0.360508 5.25017e-22)
(0.800097 0.24012 -1.91427e-22)
(0.792865 0.0886616 -4.90767e-22)
(0.840842 0.581939 -2.64697e-22)
(0.8325 0.520186 9.91419e-22)
(0.832671 0.386563 3.14447e-21)
(0.842286 0.19677 -8.65776e-21)
(0.860515 -0.0136793 2.71398e-21)
(0.883999 -0.203052 -3.11072e-21)
(0.906414 -0.341316 1.41473e-21)
(0.921331 -0.421948 4.81466e-21)
(0.926115 -0.455885 1.31476e-21)
(0.922719 -0.458669 8.15628e-23)
(0.912854 -0.446453 6.36829e-22)
(0.894277 -0.434839 -7.98298e-22)
(0.864708 -0.429486 1.46626e-21)
(0.826873 -0.418797 -7.83053e-22)
(0.787695 -0.38177 5.00465e-22)
(0.754695 -0.30472 -1.14192e-21)
(0.734362 -0.190787 -1.07809e-21)
(0.730856 -0.0576192 8.57182e-22)
(0.744776 0.0726011 -9.96215e-22)
(0.772116 0.18331 -1.29948e-21)
(0.804843 0.27033 1.19245e-22)
(0.833575 0.339275 -1.88034e-21)
(0.851431 0.396714 -6.85458e-22)
(0.855732 0.440416 -5.02136e-22)
(0.84845 0.458534 9.17495e-22)
(0.833931 0.4357 -3.00294e-21)
(0.817472 0.362606 -5.50999e-22)
(0.803237 0.242305 -5.25165e-21)
(0.795855 0.0904581 2.55388e-21)
(0.844193 0.58368 -1.06901e-21)
(0.836788 0.523071 -3.4143e-21)
(0.83765 0.390236 9.82751e-21)
(0.847655 0.200526 -5.4401e-21)
(0.866005 -0.0106333 1.17835e-20)
(0.889348 -0.201144 -1.76025e-21)
(0.911351 -0.340381 -1.66219e-21)
(0.925658 -0.421493 -4.82097e-21)
(0.929688 -0.455545 3.86262e-21)
(0.925474 -0.458236 1.22667e-21)
(0.914968 -0.44558 -1.99869e-21)
(0.896062 -0.433145 3.50494e-21)
(0.866312 -0.427057 -7.42157e-22)
(0.82823 -0.416317 -1.68776e-21)
(0.788736 -0.380088 -1.04618e-21)
(0.755381 -0.304407 1.95642e-21)
(0.73468 -0.192001 2.68042e-21)
(0.730898 -0.060148 1.42866e-22)
(0.744679 0.0692254 5.89017e-22)
(0.772011 0.179686 3.28627e-21)
(0.804878 0.267041 -1.41137e-21)
(0.833927 0.336765 -9.38151e-22)
(0.852273 0.395244 -5.85339e-22)
(0.857188 0.44007 3.60035e-21)
(0.850571 0.459245 -1.0487e-21)
(0.836644 0.437271 1.78776e-21)
(0.820579 0.364728 7.36623e-21)
(0.806454 0.244552 -1.64898e-21)
(0.798929 0.0923424 5.39584e-22)
(0.847544 0.585325 -3.6451e-21)
(0.841075 0.525953 -6.14001e-21)
(0.842628 0.39401 8.29391e-22)
(0.853021 0.204467 1.64037e-20)
(0.871506 -0.00736476 -1.54871e-20)
(0.894727 -0.199025 5.62614e-21)
(0.916327 -0.339279 2.84675e-21)
(0.930031 -0.420921 -2.45926e-21)
(0.933314 -0.455125 1.69995e-21)
(0.928287 -0.457757 -3.00784e-21)
(0.917137 -0.444697 -1.62747e-22)
(0.897906 -0.431463 -3.25068e-22)
(0.86799 -0.424639 1.57318e-21)
(0.829677 -0.41384 -8.55826e-22)
(0.789872 -0.378413 -3.95794e-22)
(0.756169 -0.304116 4.81221e-23)
(0.735096 -0.193252 -5.04911e-22)
(0.731019 -0.0627263 9.2443e-24)
(0.744639 0.065795 -2.6975e-21)
(0.771945 0.176004 -1.24252e-21)
(0.80494 0.26369 -1.4699e-21)
(0.834303 0.334185 7.93375e-22)
(0.853141 0.393697 1.38476e-21)
(0.85868 0.43965 -1.00704e-21)
(0.852738 0.4599 -9.12926e-22)
(0.839416 0.43882 6.20112e-22)
(0.823754 0.36687 -3.54077e-23)
(0.809748 0.246861 -9.0334e-22)
(0.802083 0.0943138 1.27955e-21)
(0.850889 0.586867 -6.30501e-22)
(0.845356 0.528825 1.70186e-21)
(0.847596 0.397882 3.74538e-21)
(0.858379 0.208591 -1.28421e-20)
(0.877012 -0.00387511 1.61308e-21)
(0.90013 -0.196695 -5.50803e-21)
(0.92134 -0.338009 2.60253e-21)
(0.934447 -0.420232 1.58178e-21)
(0.936992 -0.454625 -1.898e-21)
(0.931157 -0.457232 -4.05729e-21)
(0.919361 -0.443805 2.19785e-21)
(0.899806 -0.429795 5.47475e-22)
(0.86974 -0.422233 -1.54671e-21)
(0.831212 -0.411366 -3.72421e-22)
(0.791102 -0.376744 6.62647e-22)
(0.757057 -0.303843 -1.66029e-21)
(0.735609 -0.194536 -1.42267e-21)
(0.731218 -0.0653506 -8.13638e-22)
(0.744655 0.0623128 -1.0221e-21)
(0.771916 0.172269 2.22097e-21)
(0.805027 0.260278 1.18132e-21)
(0.8347 0.331534 -2.90448e-21)
(0.854033 0.392071 2.66904e-22)
(0.860204 0.439154 3.03157e-22)
(0.85495 0.460498 2.38868e-21)
(0.842244 0.440345 -3.15003e-22)
(0.826996 0.369033 2.61031e-21)
(0.813115 0.249229 7.70186e-22)
(0.805316 0.0963718 -3.3317e-22)
(0.85422 0.588303 3.03434e-21)
(0.849624 0.531684 -1.06255e-20)
(0.852548 0.401848 5.52823e-21)
(0.863722 0.212895 9.33163e-21)
(0.882517 -0.00016562 7.28035e-22)
(0.905554 -0.194154 -1.55993e-21)
(0.926388 -0.336571 -1.40726e-20)
(0.938905 -0.419424 1.22923e-20)
(0.940722 -0.454047 2.94197e-21)
(0.934084 -0.456661 -4.56133e-22)
(0.921639 -0.442905 3.63315e-22)
(0.901761 -0.428143 8.93028e-23)
(0.871561 -0.419841 4.82085e-22)
(0.832833 -0.408896 -4.8632e-22)
(0.792423 -0.375079 -2.78417e-22)
(0.758042 -0.303587 1.50325e-21)
(0.736217 -0.195851 3.04413e-21)
(0.731496 -0.0680172 7.95288e-23)
(0.744726 0.0587817 1.36681e-21)
(0.771923 0.16848 5.40465e-22)
(0.805138 0.256805 -8.39806e-22)
(0.835115 0.328812 -2.02577e-21)
(0.854945 0.390366 -9.4547e-22)
(0.861757 0.438581 2.64024e-21)
(0.857203 0.461036 -1.70701e-21)
(0.845125 0.441845 -5.68339e-21)
(0.830301 0.371213 -9.11379e-22)
(0.816552 0.251657 5.48353e-22)
(0.808626 0.0985157 3.36863e-21)
(0.857532 0.589629 -4.98895e-22)
(0.853872 0.534524 6.03174e-21)
(0.857477 0.405903 -1.1727e-20)
(0.869042 0.217375 5.56402e-21)
(0.888015 0.00376587 -4.82984e-21)
(0.910993 -0.191401 -1.28792e-20)
(0.931466 -0.334963 2.04277e-20)
(0.943401 -0.418499 -1.04106e-20)
(0.9445 -0.453389 -1.7838e-21)
(0.937067 -0.456045 3.82604e-22)
(0.92397 -0.441996 -3.6049e-22)
(0.90377 -0.426509 3.21081e-21)
(0.87345 -0.417467 -1.96527e-21)
(0.834539 -0.40643 -1.37015e-21)
(0.793832 -0.373418 1.37883e-21)
(0.759122 -0.303346 5.5032e-22)
(0.736921 -0.197194 -2.01326e-21)
(0.73185 -0.0707227 1.13172e-21)
(0.744851 0.0552049 -5.23533e-22)
(0.771965 0.16464 2.60794e-21)
(0.80527 0.253274 5.23571e-22)
(0.835546 0.326018 -1.17557e-22)
(0.855876 0.38858 1.18381e-21)
(0.863337 0.437928 -3.27707e-21)
(0.859494 0.461513 3.30762e-22)
(0.848056 0.443318 -7.03483e-22)
(0.833665 0.373409 -6.71919e-22)
(0.820057 0.254142 7.98559e-22)
(0.812011 0.100745 4.07856e-23)
(0.860819 0.590839 8.03495e-21)
(0.858093 0.537338 5.42786e-21)
(0.862375 0.410042 -5.98765e-21)
(0.874332 0.222028 1.84257e-21)
(0.8935 0.00793122 4.86094e-21)
(0.916445 -0.188436 1.16376e-20)
(0.936572 -0.333185 -2.96636e-21)
(0.947934 -0.417455 -7.16339e-21)
(0.948325 -0.452652 6.37299e-21)
(0.940104 -0.455384 -4.53002e-21)
(0.926353 -0.44108 1.25339e-21)
(0.90583 -0.424895 -1.6087e-21)
(0.875405 -0.415113 -9.86303e-22)
(0.836328 -0.40397 1.74251e-21)
(0.795329 -0.37176 7.62587e-22)
(0.760293 -0.303117 -2.96856e-22)
(0.737718 -0.198561 -1.77021e-21)
(0.732283 -0.0734633 1.53844e-21)
(0.745029 0.0515852 -1.31759e-21)
(0.77204 0.160752 3.87283e-22)
(0.805423 0.249685 -1.60554e-21)
(0.835992 0.323154 7.63589e-22)
(0.856823 0.386713 1.14567e-22)
(0.86494 0.437195 -5.93608e-22)
(0.861819 0.461926 3.79197e-21)
(0.851034 0.444761 3.94028e-21)
(0.837088 0.375619 1.0264e-21)
(0.823628 0.256682 -4.97885e-22)
(0.815469 0.103058 -1.73075e-21)
(0.864073 0.591929 -3.48019e-21)
(0.862282 0.540123 -3.44199e-21)
(0.867237 0.414259 -1.14866e-21)
(0.879589 0.226851 7.06856e-21)
(0.898967 0.0122909 -1.0424e-20)
(0.921903 -0.18526 3.97957e-21)
(0.941704 -0.331235 -2.46873e-21)
(0.952501 -0.416291 2.64508e-21)
(0.952196 -0.451837 -3.69827e-21)
(0.943194 -0.454677 -1.22295e-22)
(0.928787 -0.440156 3.15201e-22)
(0.907941 -0.423302 2.87629e-21)
(0.877422 -0.41278 -4.63038e-21)
(0.838198 -0.401516 2.08887e-21)
(0.796911 -0.370104 -9.82963e-22)
(0.761551 -0.302898 5.88567e-22)
(0.738606 -0.19995 6.52991e-22)
(0.732792 -0.0762358 1.23117e-21)
(0.745261 0.0479258 -1.63671e-21)
(0.772148 0.156817 -1.71271e-21)
(0.805595 0.246038 -1.06472e-21)
(0.836451 0.320219 2.44482e-21)
(0.857784 0.384764 -2.20524e-21)
(0.866564 0.43638 5.33493e-22)