/*--------------------------------*- C++ -*----------------------------------*\
  =========                 |
  \\      /  F ield         | OpenFOAM: The Open Source CFD Toolbox
   \\    /   O peration     | Website:  https://openfoam.org
    \\  /    A nd           | Version:  7
     \\/     M anipulation  |
\*---------------------------------------------------------------------------*/
FoamFile
{
    version     2.0;
    format      ascii;
    class       volScalarField;
    location    "300";
    object      p;
}
// * * * * * * * * * * * * * * * * * * * * * * * * * * * * * * * * * * * * * //

dimensions      [0 2 -2 0 0 0 0];

internalField   nonuniform List<scalar> 
7156
(
-0.401355
-0.402485
-0.403158
-0.403707
-0.397755
-0.398973
-0.399689
-0.400264
-0.394182
-0.395481
-0.396236
-0.396834
-0.390642
-0.392017
-0.392807
-0.393427
-0.387143
-0.388588
-0.389411
-0.390049
-0.383691
-0.385201
-0.386053
-0.386707
-0.380294
-0.381862
-0.38274
-0.383409
-0.376957
-0.378578
-0.379479
-0.380161
-0.373687
-0.375354
-0.376277
-0.376969
-0.370488
-0.372198
-0.373138
-0.37384
-0.367365
-0.369112
-0.370069
-0.370778
-0.364323
-0.366104
-0.367074
-0.367789
-0.361365
-0.363176
-0.364159
-0.364878
-0.358497
-0.360334
-0.361327
-0.362049
-0.362549
-0.355722
-0.357581
-0.358583
-0.359308
-0.359804
-0.353043
-0.354922
-0.355931
-0.356658
-0.35715
-0.350463
-0.35236
-0.353375
-0.354103
-0.35459
-0.347986
-0.349898
-0.350917
-0.351646
-0.352129
-0.345614
-0.347539
-0.348562
-0.349291
-0.349768
-0.343349
-0.345286
-0.346313
-0.347041
-0.347512
-0.341195
-0.343142
-0.344171
-0.344898
-0.345363
-0.345569
-0.339154
-0.34111
-0.342141
-0.342865
-0.343324
-0.343518
-0.337228
-0.339193
-0.340224
-0.340946
-0.341398
-0.341579
-0.335421
-0.337392
-0.338423
-0.339141
-0.339586
-0.339755
-0.333734
-0.33571
-0.33674
-0.337454
-0.337892
-0.338048
-0.337945
-0.33217
-0.33415
-0.335177
-0.335886
-0.336315
-0.336459
-0.336337
-0.330731
-0.332712
-0.333737
-0.33444
-0.334859
-0.33499
-0.334849
-0.32942
-0.331401
-0.33242
-0.333116
-0.333525
-0.333642
-0.333482
-0.328239
-0.330216
-0.331229
-0.331916
-0.332314
-0.332416
-0.332238
-0.331782
-0.327189
-0.329159
-0.330164
-0.330841
-0.331227
-0.331314
-0.331116
-0.330636
-0.326273
-0.328233
-0.329227
-0.329892
-0.330265
-0.330335
-0.330119
-0.329615
-0.325492
-0.327437
-0.328419
-0.32907
-0.329427
-0.329481
-0.329245
-0.328718
-0.324847
-0.326772
-0.327739
-0.328374
-0.328715
-0.328751
-0.328494
-0.327945
-0.327092
-0.32434
-0.32624
-0.327188
-0.327805
-0.328127
-0.328144
-0.327867
-0.327295
-0.326417
-0.32397
-0.325839
-0.326766
-0.327362
-0.327664
-0.32766
-0.327362
-0.326768
-0.325865
-0.323737
-0.32557
-0.326471
-0.327044
-0.327323
-0.327298
-0.326978
-0.326361
-0.325435
-0.324182
-0.323643
-0.325432
-0.326304
-0.32685
-0.327104
-0.327055
-0.326713
-0.326074
-0.325125
-0.323849
-0.323685
-0.325423
-0.326262
-0.326778
-0.327005
-0.32693
-0.326564
-0.325902
-0.324931
-0.323633
-0.323862
-0.325542
-0.326343
-0.326826
-0.327022
-0.326921
-0.326529
-0.325844
-0.324851
-0.323532
-0.321863
-0.324172
-0.325786
-0.326546
-0.326992
-0.327155
-0.327023
-0.326605
-0.325895
-0.32488
-0.323541
-0.321853
-0.324613
-0.326154
-0.326868
-0.327273
-0.327399
-0.327234
-0.326787
-0.326052
-0.325014
-0.323655
-0.321949
-0.319869
-0.325183
-0.326643
-0.327305
-0.327665
-0.327751
-0.327551
-0.327073
-0.32631
-0.325248
-0.323868
-0.322145
-0.32005
-0.325877
-0.327248
-0.327855
-0.328166
-0.328207
-0.327969
-0.327457
-0.326664
-0.325577
-0.324176
-0.322434
-0.320325
-0.317818
-0.326693
-0.327968
-0.328515
-0.328772
-0.328765
-0.328484
-0.327935
-0.32711
-0.325996
-0.324571
-0.32281
-0.320686
-0.318167
-0.327626
-0.328798
-0.32928
-0.329478
-0.329419
-0.329092
-0.328502
-0.327642
-0.326497
-0.325047
-0.323266
-0.321125
-0.318594
-0.328672
-0.329735
-0.330147
-0.330283
-0.330166
-0.329789
-0.329155
-0.328256
-0.327077
-0.325598
-0.323794
-0.321634
-0.319089
-0.316124
-0.329827
-0.330775
-0.331112
-0.33118
-0.331002
-0.33057
-0.329887
-0.328945
-0.327729
-0.326218
-0.324387
-0.322207
-0.319645
-0.316668
-0.331087
-0.331913
-0.332171
-0.332168
-0.331923
-0.331431
-0.330694
-0.329705
-0.328447
-0.326901
-0.32504
-0.322836
-0.320255
-0.317264
-0.313825
-0.332447
-0.333148
-0.333322
-0.333242
-0.332926
-0.332369
-0.331573
-0.330531
-0.329228
-0.327641
-0.325747
-0.323514
-0.320911
-0.317903
-0.314453
-0.333904
-0.334474
-0.334561
-0.334399
-0.334006
-0.333379
-0.33252
-0.33142
-0.330066
-0.328434
-0.326501
-0.324236
-0.321607
-0.318579
-0.315115
-0.311178
-0.335454
-0.335889
-0.335885
-0.335637
-0.335162
-0.33446
-0.333531
-0.332368
-0.330957
-0.329276
-0.3273
-0.324998
-0.322339
-0.319287
-0.315806
-0.311861
-0.307416
-0.337093
-0.33739
-0.337291
-0.336952
-0.33639
-0.335607
-0.334603
-0.333372
-0.331899
-0.330163
-0.328138
-0.325795
-0.323102
-0.320022
-0.316522
-0.312566
-0.308122
-0.338819
-0.338975
-0.338777
-0.338343
-0.337689
-0.336819
-0.335735
-0.33443
-0.332889
-0.331092
-0.329015
-0.326626
-0.323893
-0.320783
-0.317259
-0.313289
-0.308844
-0.303901
-0.340628
-0.340642
-0.340341
-0.339808
-0.339057
-0.338096
-0.336925
-0.335539
-0.333926
-0.332063
-0.329927
-0.327488
-0.324712
-0.321566
-0.318015
-0.314027
-0.309576
-0.304646
-0.342521
-0.342389
-0.341983
-0.341345
-0.340493
-0.339434
-0.338172
-0.336701
-0.335008
-0.333075
-0.330876
-0.32838
-0.325557
-0.322371
-0.318788
-0.314777
-0.310315
-0.305389
-0.300012
-0.344495
-0.344216
-0.343701
-0.342956
-0.341997
-0.340836
-0.339476
-0.337914
-0.336138
-0.334128
-0.33186
-0.329305
-0.326429
-0.323198
-0.319578
-0.315538
-0.311057
-0.306126
-0.300761
-0.295013
-0.34655
-0.346122
-0.345496
-0.344639
-0.343569
-0.3423
-0.340838
-0.33918
-0.337315
-0.335224
-0.332883
-0.330263
-0.327329
-0.324048
-0.320385
-0.31631
-0.311801
-0.306852
-0.30148
-0.295739
-0.348686
-0.348108
-0.347368
-0.346395
-0.345209
-0.343829
-0.34226
-0.340501
-0.338541
-0.336365
-0.333946
-0.331256
-0.32826
-0.324923
-0.32121
-0.317091
-0.312543
-0.307562
-0.302164
-0.296399
-0.290383
-0.350904
-0.350175
-0.349317
-0.348225
-0.34692
-0.345423
-0.343743
-0.341878
-0.33982
-0.337553
-0.335052
-0.332287
-0.329223
-0.325824
-0.322054
-0.317881
-0.313283
-0.308252
-0.302807
-0.296989
-0.290903
-0.284573
-0.353206
-0.352323
-0.351346
-0.350132
-0.348703
-0.347086
-0.345289
-0.343315
-0.341155
-0.338793
-0.336205
-0.33336
-0.330223
-0.326754
-0.322918
-0.31868
-0.314017
-0.308921
-0.303405
-0.297507
-0.291317
-0.284844
-0.278606
-0.355593
-0.354554
-0.353455
-0.352116
-0.35056
-0.348819
-0.346903
-0.344815
-0.342549
-0.340088
-0.337409
-0.334479
-0.331261
-0.327716
-0.323803
-0.319489
-0.314746
-0.309564
-0.303955
-0.29795
-0.291626
-0.284984
-0.278463
-0.358068
-0.356872
-0.355648
-0.35418
-0.352495
-0.350626
-0.348587
-0.346382
-0.344006
-0.341443
-0.338667
-0.335647
-0.332342
-0.328711
-0.324711
-0.320306
-0.315466
-0.31018
-0.304455
-0.298318
-0.291836
-0.285004
-0.278195
-0.270155
-0.360634
-0.359277
-0.357926
-0.356327
-0.354509
-0.35251
-0.350345
-0.348021
-0.345531
-0.342861
-0.339985
-0.336868
-0.333468
-0.329741
-0.325642
-0.321131
-0.316177
-0.310766
-0.304903
-0.298611
-0.29195
-0.284913
-0.277821
-0.269591
-0.264407
-0.363293
-0.361773
-0.360293
-0.35856
-0.356606
-0.354475
-0.352182
-0.349734
-0.347128
-0.344348
-0.341365
-0.338145
-0.334641
-0.330808
-0.326596
-0.321963
-0.316877
-0.31132
-0.305297
-0.29883
-0.291972
-0.284721
-0.277353
-0.268947
-0.263096
-0.366049
-0.364362
-0.36275
-0.360881
-0.35879
-0.356524
-0.3541
-0.351527
-0.348802
-0.345906
-0.342813
-0.339481
-0.335864
-0.331912
-0.327572
-0.3228
-0.317561
-0.311839
-0.305637
-0.298976
-0.291907
-0.284435
-0.276802
-0.268231
-0.261808
-0.368906
-0.367048
-0.365301
-0.363294
-0.361063
-0.35866
-0.356104
-0.353403
-0.350555
-0.347541
-0.344329
-0.340879
-0.337138
-0.333053
-0.328569
-0.32364
-0.318229
-0.312321
-0.305919
-0.299048
-0.291758
-0.284062
-0.276176
-0.26745
-0.260537
-0.371865
-0.369833
-0.367949
-0.365802
-0.36343
-0.360888
-0.358197
-0.355367
-0.352393
-0.349254
-0.345919
-0.34234
-0.338463
-0.334231
-0.329586
-0.324479
-0.318876
-0.312762
-0.306143
-0.299048
-0.291528
-0.283607
-0.27548
-0.266608
-0.259277
-0.37493
-0.372719
-0.370696
-0.368407
-0.365891
-0.36321
-0.360383
-0.357421
-0.354317
-0.35105
-0.347582
-0.343864
-0.339839
-0.335443
-0.330618
-0.325315
-0.319499
-0.31316
-0.306308
-0.298976
-0.291221
-0.283075
-0.274719
-0.265709
-0.258021
-0.378104
-0.375709
-0.373544
-0.371111
-0.368451
-0.365629
-0.362665
-0.359568
-0.356331
-0.352928
-0.34932
-0.345452
-0.341263
-0.336687
-0.331663
-0.326143
-0.320095
-0.313512
-0.306412
-0.298832
-0.290837
-0.282468
-0.273896
-0.264753
-0.256761
-0.381388
-0.378804
-0.376495
-0.373917
-0.371112
-0.368148
-0.365045
-0.361811
-0.358436
-0.354891
-0.351133
-0.347102
-0.342734
-0.337958
-0.332716
-0.326958
-0.320658
-0.313814
-0.306452
-0.298617
-0.290379
-0.28179
-0.273011
-0.263742
-0.255488
-0.384785
-0.382007
-0.379552
-0.376827
-0.373876
-0.370769
-0.367525
-0.364151
-0.360632
-0.356939
-0.35302
-0.348812
-0.344247
-0.339254
-0.333771
-0.327755
-0.321184
-0.314064
-0.306428
-0.298331
-0.289849
-0.281043
-0.272067
-0.262676
-0.254195
-0.388296
-0.385318
-0.382714
-0.379842
-0.376744
-0.373493
-0.370106
-0.366588
-0.362921
-0.35907
-0.354978
-0.350578
-0.345798
-0.340566
-0.334823
-0.328528
-0.321668
-0.314257
-0.306338
-0.297973
-0.289246
-0.280227
-0.271064
-0.261554
-0.252876
-0.39192
-0.388737
-0.385983
-0.382962
-0.379716
-0.37632
-0.372789
-0.369123
-0.365302
-0.361282
-0.357004
-0.352396
-0.347382
-0.341891
-0.335865
-0.329272
-0.322106
-0.314391
-0.306179
-0.297543
-0.288573
-0.279344
-0.270001
-0.260376
-0.251524
-0.395657
-0.392265
-0.389359
-0.386188
-0.382793
-0.379252
-0.375574
-0.371755
-0.367771
-0.363572
-0.359094
-0.35426
-0.348991
-0.343219
-0.33689
-0.32998
-0.322491
-0.314461
-0.30595
-0.297041
-0.287828
-0.278394
-0.268878
-0.25914
-0.250132
-0.399507
-0.3959
-0.39284
-0.389519
-0.385975
-0.382286
-0.378458
-0.374482
-0.370327
-0.365937
-0.361242
-0.356162
-0.350619
-0.344543
-0.337891
-0.330645
-0.32282
-0.314463
-0.305648
-0.296465
-0.287012
-0.277377
-0.267693
-0.257846
-0.248696
-0.403467
-0.39964
-0.396425
-0.392953
-0.38926
-0.385422
-0.381441
-0.377301
-0.372964
-0.36837
-0.363442
-0.358096
-0.352256
-0.345856
-0.338859
-0.33126
-0.323085
-0.314395
-0.305272
-0.295814
-0.286124
-0.276293
-0.266447
-0.256491
-0.247211
-0.407535
-0.403484
-0.400113
-0.396489
-0.392646
-0.388657
-0.384518
-0.380207
-0.375679
-0.370865
-0.365685
-0.360053
-0.353893
-0.347147
-0.339786
-0.331818
-0.323283
-0.314253
-0.304819
-0.295087
-0.285163
-0.27514
-0.265137
-0.255073
-0.245672
-0.411705
-0.407427
-0.403899
-0.400124
-0.39613
-0.391988
-0.387686
-0.383196
-0.378464
-0.373414
-0.367963
-0.362023
-0.355521
-0.348407
-0.340664
-0.332313
-0.323408
-0.314031
-0.304287
-0.294283
-0.284129
-0.273917
-0.263761
-0.253592
-0.244075
-0.415974
-0.411465
-0.407781
-0.403854
-0.399708
-0.39541
-0.39094
-0.386261
-0.381311
-0.376009
-0.370266
-0.363995
-0.357128
-0.349626
-0.341484
-0.332737
-0.323453
-0.313728
-0.303672
-0.293399
-0.283019
-0.272623
-0.262318
-0.252045
-0.242417
-0.420336
-0.415593
-0.411752
-0.407674
-0.403375
-0.398917
-0.394274
-0.389396
-0.384213
-0.37864
-0.372583
-0.365958
-0.358705
-0.350794
-0.342237
-0.333083
-0.323415
-0.313339
-0.302973
-0.292434
-0.281832
-0.271256
-0.260806
-0.250429
-0.240694
-0.424783
-0.419806
-0.415808
-0.411579
-0.407125
-0.402505
-0.397679
-0.39259
-0.38716
-0.381295
-0.374902
-0.3679
-0.360238
-0.351901
-0.342914
-0.333344
-0.323286
-0.312859
-0.302186
-0.291385
-0.280566
-0.269814
-0.259222
-0.248743
-0.238904
-0.429309
-0.424095
-0.419941
-0.415561
-0.410952
-0.406164
-0.401148
-0.395836
-0.39014
-0.383963
-0.377211
-0.369809
-0.361718
-0.352936
-0.343507
-0.333512
-0.323063
-0.312286
-0.301308
-0.29025
-0.279218
-0.268295
-0.257564
-0.246985
-0.237043
-0.433903
-0.428453
-0.424144
-0.419614
-0.414847
-0.409887
-0.404672
-0.399122
-0.393142
-0.386631
-0.379496
-0.371672
-0.363131
-0.353888
-0.344006
-0.333582
-0.32274
-0.311614
-0.300336
-0.289026
-0.277786
-0.266696
-0.255829
-0.245151
-0.235109
-0.438556
-0.43287
-0.428408
-0.423728
-0.418802
-0.413664
-0.408238
-0.402435
-0.396152
-0.389284
-0.381744
-0.373475
-0.364465
-0.354748
-0.344403
-0.333546
-0.322311
-0.31084
-0.299267
-0.28771
-0.276268
-0.265014
-0.254015
-0.24324
-0.233098
-0.443258
-0.437337
-0.432724
-0.427894
-0.422806
-0.417483
-0.411836
-0.405764
-0.399157
-0.39191
-0.383941
-0.375205
-0.365708
-0.355504
-0.34469
-0.333397
-0.321772
-0.30996
-0.298097
-0.2863
-0.27466
-0.263247
-0.252119
-0.241248
-0.231009
-0.437079
-0.432101
-0.426848
-0.421333
-0.415452
-0.409093
-0.402141
-0.394491
-0.38607
-0.376848
-0.366848
-0.356146
-0.344858
-0.333129
-0.321116
-0.308969
-0.296823
-0.28479
-0.272958
-0.261391
-0.250137
-0.239173
-0.228837
-0.430915
-0.4252
-0.419072
-0.412408
-0.405089
-0.397013
-0.388118
-0.37839
-0.367873
-0.356664
-0.344898
-0.332735
-0.320338
-0.307862
-0.29544
-0.283179
-0.271161
-0.259443
-0.248067
-0.237012
-0.226582
-0.415693
-0.407985
-0.39946
-0.390068
-0.379816
-0.36877
-0.357047
-0.344803
-0.332208
-0.319434
-0.306636
-0.293944
-0.281462
-0.269263
-0.2574
-0.245905
-0.234762
-0.224239
-0.391905
-0.381113
-0.369527
-0.357287
-0.344564
-0.331543
-0.318398
-0.305285
-0.292332
-0.279635
-0.267262
-0.255258
-0.243648
-0.23242
-0.221806
-0.357373
-0.344174
-0.330731
-0.317224
-0.303805
-0.290599
-0.277694
-0.265153
-0.253013
-0.241294
-0.229983
-0.219282
-0.302192
-0.28874
-0.275636
-0.262933
-0.250663
-0.238838
-0.227449
-0.216662
-0.248203
-0.236277
-0.224813
-0.213944
-0.401704
-0.385727
-0.37033
-0.355496
-0.341372
-0.473949
-0.456003
-0.438519
-0.42156
-0.405159
-0.389324
-0.374041
-0.359289
-0.34526
-0.530072
-0.512173
-0.494164
-0.476269
-0.458658
-0.441449
-0.424718
-0.408503
-0.392818
-0.377658
-0.362995
-0.349067
-0.592896
-0.578956
-0.563797
-0.54764
-0.530755
-0.513423
-0.495906
-0.478429
-0.461168
-0.44425
-0.427758
-0.411739
-0.396216
-0.381185
-0.366619
-0.352798
-0.622388
-0.613075
-0.602508
-0.590604
-0.577377
-0.562938
-0.547477
-0.531238
-0.514487
-0.497477
-0.480434
-0.463539
-0.446926
-0.430686
-0.414875
-0.399521
-0.38463
-0.370166
-0.356459
-0.63309
-0.626046
-0.618212
-0.609382
-0.59939
-0.588136
-0.575606
-0.561879
-0.547114
-0.531529
-0.51537
-0.498883
-0.48229
-0.465776
-0.449482
-0.433507
-0.417914
-0.402739
-0.387995
-0.373641
-0.360053
-0.6459
-0.640315
-0.634465
-0.628192
-0.621425
-0.613953
-0.60558
-0.596138
-0.58551
-0.573659
-0.560633
-0.546562
-0.531635
-0.516079
-0.500128
-0.484001
-0.467883
-0.451923
-0.436226
-0.420863
-0.405876
-0.391288
-0.377049
-0.363587
-0.647589
-0.640462
-0.635024
-0.629335
-0.623265
-0.616761
-0.609631
-0.60169
-0.592769
-0.582743
-0.571551
-0.559214
-0.545831
-0.531565
-0.516621
-0.501219
-0.485572
-0.469866
-0.454254
-0.438848
-0.423726
-0.408938
-0.394513
-0.380397
-0.367065
-0.641912
-0.635018
-0.62973
-0.624202
-0.618327
-0.612072
-0.605264
-0.597729
-0.589303
-0.579851
-0.569296
-0.557633
-0.544931
-0.531326
-0.517001
-0.50216
-0.487008
-0.471729
-0.456479
-0.441377
-0.426509
-0.411928
-0.397676
-0.383688
-0.370492
-0.636239
-0.629582
-0.624447
-0.619079
-0.613394
-0.607374
-0.600869
-0.593717
-0.585758
-0.576854
-0.566912
-0.555904
-0.543873
-0.530928
-0.517227
-0.502957
-0.488313
-0.473476
-0.458604
-0.44382
-0.429215
-0.414853
-0.400782
-0.386929
-0.373875
-0.630586
-0.624169
-0.619189
-0.61398
-0.608479
-0.602684
-0.596463
-0.589669
-0.58215
-0.573766
-0.564412
-0.55404
-0.542669
-0.530379
-0.517304
-0.503615
-0.489492
-0.475112
-0.460631
-0.446179
-0.431852
-0.417718
-0.403837
-0.390126
-0.377219
-0.624966
-0.618793
-0.61397
-0.60892
-0.603597
-0.598015
-0.592061
-0.585603
-0.578497
-0.570604
-0.561811
-0.552055
-0.541328
-0.529686
-0.51724
-0.504138
-0.490548
-0.476639
-0.462566
-0.448459
-0.434422
-0.420528
-0.406846
-0.393284
-0.38053
-0.619393
-0.613466
-0.608802
-0.60391
-0.598761
-0.593382
-0.587678
-0.581533
-0.574814
-0.567384
-0.559126
-0.549961
-0.539862
-0.52886
-0.517042
-0.504533
-0.491486
-0.478062
-0.46441
-0.450665
-0.436931
-0.423288
-0.409814
-0.396409
-0.383815
-0.613878
-0.608198
-0.603695
-0.59896
-0.593981
-0.588796
-0.583328
-0.577475
-0.571116
-0.564121
-0.55637
-0.547772
-0.538282
-0.52791
-0.516715
-0.504803
-0.49231
-0.479383
-0.466169
-0.452799
-0.439383
-0.426003
-0.412748
-0.399506
-0.387078
-0.608433
-0.603001
-0.598659
-0.594082
-0.589268
-0.584269
-0.579022
-0.573441
-0.567419
-0.56083
-0.553557
-0.5455
-0.5366
-0.526843
-0.516267
-0.504954
-0.493023
-0.480607
-0.467845
-0.454866
-0.441782
-0.428678
-0.415653
-0.402582
-0.390327
-0.603068
-0.597883
-0.593704
-0.589283
-0.584632
-0.57981
-0.57477
-0.569444
-0.563733
-0.557525
-0.550701
-0.543159
-0.534826
-0.525669
-0.515704
-0.504992
-0.493629
-0.481735
-0.46944
-0.456868
-0.444132
-0.431317
-0.418534
-0.405643
-0.393568
-0.597792
-0.592854
-0.588837
-0.584572
-0.580079
-0.575428
-0.570584
-0.565494
-0.560073
-0.554218
-0.547816
-0.540761
-0.532971
-0.524398
-0.515035
-0.504921
-0.494132
-0.482771
-0.470957
-0.458808
-0.446435
-0.433924
-0.421396
-0.408694
-0.396809
-0.592612
-0.587919
-0.584066
-0.579955
-0.575618
-0.571131
-0.566472
-0.561601
-0.556448
-0.550921
-0.544913
-0.538319
-0.531048
-0.523038
-0.514266
-0.504746
-0.494535
-0.483718
-0.472399
-0.460689
-0.448696
-0.436505
-0.424244
-0.411741
-0.400056
-0.587537
-0.583088
-0.579396
-0.575439
-0.571255
-0.566925
-0.562441
-0.557774
-0.55287
-0.547646
-0.542005
-0.535843
-0.529066
-0.5216
-0.513404
-0.504473
-0.494841
-0.484576
-0.473766
-0.462512
-0.450916
-0.439061
-0.427083
-0.414791
-0.403318
-0.582573
-0.578364
-0.574833
-0.571029
-0.566995
-0.562816
-0.558497
-0.554022
-0.549347
-0.544403
-0.539102
-0.533346
-0.527037
-0.520093
-0.512457
-0.504107
-0.495056
-0.485349
-0.475061
-0.464278
-0.453098
-0.441597
-0.429919
-0.417848
-0.406601
-0.577726
-0.573753
-0.570383
-0.566729
-0.562841
-0.55881
-0.554647
-0.550349
-0.545886
-0.541201
-0.536216
-0.530838
-0.524971
-0.518526
-0.511434
-0.503655
-0.495181
-0.486039
-0.476284
-0.46599
-0.455244
-0.444116
-0.432755
-0.42092
-0.409916
-0.573001
-0.569261
-0.566048
-0.562543
-0.558799
-0.554909
-0.550895
-0.546763
-0.542496
-0.538049
-0.533355
-0.528329
-0.522878
-0.516908
-0.510341
-0.503121
-0.495222
-0.486649
-0.477438
-0.467648
-0.457355
-0.446619
-0.435596
-0.424011
-0.41327
-0.568402
-0.564891
-0.561834
-0.558474
-0.554871
-0.551117
-0.547244
-0.543268
-0.539182
-0.534954
-0.530529
-0.52583
-0.520768
-0.51525
-0.509188
-0.502513
-0.495182
-0.487179
-0.478523
-0.469252
-0.459432
-0.44911
-0.438446
-0.427127
-0.416674
-0.563935
-0.560647
-0.557742
-0.554526
-0.551059
-0.547437
-0.543698
-0.539867
-0.535949
-0.531923
-0.527745
-0.523349
-0.518651
-0.51356
-0.507982
-0.501837
-0.495065
-0.487634
-0.479539
-0.470803
-0.461475
-0.451589
-0.441307
-0.430274
-0.420137
-0.559602
-0.556531
-0.553775
-0.550699
-0.547365
-0.543871
-0.540259
-0.536565
-0.532801
-0.528961
-0.525011
-0.520895
-0.516537
-0.511847
-0.506731
-0.5011
-0.494878
-0.488015
-0.480488
-0.4723
-0.463484
-0.454056
-0.444184
-0.433457
-0.423671
-0.555407
-0.552547
-0.549936
-0.546996
-0.543792
-0.54042
-0.53693
-0.533363
-0.529744
-0.526074
-0.522333
-0.518475
-0.514433
-0.510122
-0.505445
-0.500308
-0.494624
-0.488325
-0.48137
-0.473742
-0.465457
-0.456513
-0.447078
-0.43668
-0.427286
-0.551353
-0.548696
-0.546226
-0.543418
-0.540339
-0.537085
-0.533711
-0.530265
-0.526779
-0.523267
-0.519718
-0.516098
-0.512349
-0.508392
-0.504132
-0.49947
-0.49431
-0.488569
-0.482187
-0.475129
-0.467393
-0.458956
-0.44999
-0.439947
-0.430994
-0.547443
-0.544982
-0.542647
-0.539967
-0.537009
-0.533868
-0.530604
-0.527271
-0.52391
-0.520543
-0.517171
-0.513771
-0.510294
-0.506667
-0.502801
-0.498594
-0.493941
-0.488749
-0.48294
-0.47646
-0.469291
-0.461385
-0.45292
-0.44326
-0.434807
-0.54368
-0.541405
-0.539201
-0.536644
-0.533801
-0.530769
-0.52761
-0.524384
-0.521138
-0.517906
-0.514697
-0.511499
-0.508274
-0.504956
-0.501461
-0.497687
-0.493525
-0.48887
-0.48363
-0.477734
-0.471146
-0.463796
-0.455866
-0.446622
-0.438739
-0.540065
-0.537968
-0.535888
-0.533448
-0.530717
-0.527788
-0.524729
-0.521604
-0.518467
-0.51536
-0.512302
-0.50929
-0.506298
-0.503268
-0.500121
-0.496759
-0.493068
-0.488936
-0.48426
-0.47895
-0.472956
-0.466184
-0.458827
-0.450033
-0.4428
-0.536601
-0.534671
-0.532709
-0.530381
-0.527756
-0.524927
-0.521963
-0.518933
-0.515899
-0.512907
-0.509989
-0.50715
-0.504372
-0.50161
-0.498791
-0.495817
-0.492578
-0.488954
-0.484831
-0.480107
-0.474716
-0.468543
-0.461795
-0.453489
-0.533289
-0.531515
-0.529664
-0.527443
-0.524919
-0.522184
-0.519311
-0.516372
-0.513434
-0.510551
-0.507762
-0.505083
-0.502506
-0.499992
-0.497478
-0.494872
-0.492064
-0.488929
-0.485347
-0.481204
-0.476423
-0.470865
-0.464762
-0.530131
-0.528502
-0.526755
-0.524633
-0.522205
-0.519561
-0.516774
-0.513922
-0.511075
-0.508295
-0.505627
-0.503097
-0.500704
-0.498423
-0.496194
-0.493934
-0.491533
-0.488869
-0.485813
-0.482241
-0.478069
-0.47314
-0.527127
-0.52563
-0.52398
-0.521952
-0.519615
-0.517057
-0.514353
-0.511583
-0.508824
-0.506141
-0.503587
-0.501195
-0.498976
-0.496909
-0.494947
-0.493011
-0.490997
-0.488781
-0.486232
-0.483218
-0.479652
-0.475356
-0.524278
-0.5229
-0.521339
-0.5194
-0.517148
-0.514671
-0.512047
-0.509357
-0.506681
-0.504091
-0.501645
-0.499384
-0.497326
-0.49546
-0.493747
-0.492115
-0.490464
-0.488674
-0.48661
-0.484138
-0.481164
-0.521584
-0.520311
-0.518832
-0.516973
-0.514802
-0.512404
-0.509856
-0.507244
-0.504649
-0.502147
-0.499805
-0.497667
-0.495761
-0.494084
-0.492603
-0.491255
-0.489946
-0.488557
-0.486955
-0.485001
-0.519043
-0.517862
-0.516456
-0.514673
-0.512578
-0.510254
-0.50778
-0.505243
-0.502727
-0.500313
-0.49807
-0.496051
-0.494288
-0.492787
-0.491524
-0.490441
-0.489452
-0.488441
-0.487276
-0.485814
-0.516654
-0.515551
-0.51421
-0.512496
-0.510472
-0.508219
-0.505818
-0.503355
-0.500918
-0.498589
-0.496443
-0.494538
-0.492912
-0.491578
-0.490518
-0.489684
-0.488994
-0.488337
-0.487581
-0.514415
-0.513374
-0.51209
-0.510439
-0.508482
-0.506299
-0.503969
-0.501579
-0.499219
-0.496976
-0.494926
-0.493132
-0.491638
-0.490462
-0.489595
-0.488993
-0.488583
-0.488255
-0.512321
-0.511328
-0.510094
-0.508501
-0.506607
-0.50449
-0.502229
-0.499913
-0.497632
-0.495475
-0.49352
-0.491836
-0.49047
-0.489446
-0.488761
-0.488378
-0.488228
-0.488209
-0.510368
-0.509409
-0.508217
-0.506676
-0.504841
-0.502789
-0.500598
-0.498356
-0.496155
-0.494084
-0.492226
-0.490651
-0.48941
-0.488534
-0.488022
-0.487846
-0.487941
-0.50855
-0.507612
-0.506455
-0.504961
-0.503182
-0.501193
-0.499072
-0.496905
-0.494786
-0.492804
-0.491044
-0.489579
-0.488463
-0.487729
-0.487385
-0.487404
-0.48773
-0.506862
-0.50593
-0.504802
-0.50335
-0.501624
-0.499697
-0.497646
-0.495556
-0.493521
-0.491631
-0.489972
-0.488618
-0.487627
-0.487034
-0.486852
-0.487059
-0.505294
-0.504358
-0.503251
-0.501837
-0.500162
-0.498296
-0.496315
-0.494305
-0.492356
-0.490562
-0.489007
-0.487767
-0.486902
-0.48645
-0.486425
-0.50384
-0.502888
-0.501797
-0.500416
-0.498789
-0.496985
-0.495075
-0.493146
-0.491288
-0.489593
-0.488146
-0.487024
-0.486286
-0.485975
-0.486106
-0.50249
-0.501511
-0.50043
-0.49908
-0.497499
-0.495756
-0.493919
-0.492074
-0.49031
-0.488718
-0.487383
-0.486382
-0.485776
-0.485607
-0.501233
-0.500219
-0.499144
-0.497821
-0.496285
-0.494602
-0.49284
-0.491082
-0.489415
-0.487931
-0.486713
-0.485838
-0.485366
-0.48534
-0.50006
-0.499002
-0.49793
-0.496631
-0.495139
-0.493516
-0.491831
-0.490162
-0.488597
-0.487224
-0.486128
-0.485383
-0.485049
-0.498958
-0.497851
-0.496777
-0.495501
-0.494052
-0.492491
-0.490883
-0.489306
-0.487846
-0.48659
-0.48562
-0.48501
-0.484818
-0.497916
-0.496756
-0.495679
-0.494423
-0.493016
-0.491517
-0.489988
-0.488506
-0.487155
-0.486019
-0.48518
-0.484708
-0.496923
-0.495706
-0.494623
-0.493388
-0.492022
-0.490585
-0.489137
-0.487753
-0.486514
-0.485502
-0.484798
-0.484469
-0.495966
-0.494691
-0.493601
-0.492385
-0.491061
-0.489688
-0.488322
-0.487037
-0.485913
-0.485029
-0.484462
-0.48428
-0.495033
-0.493699
-0.492603
-0.491407
-0.490125
-0.488815
-0.487533
-0.48635
-0.485342
-0.484589
-0.484163
-0.494113
-0.492722
-0.49162
-0.490442
-0.489203
-0.487958
-0.486761
-0.48568
-0.484792
-0.484171
-0.483888
-0.493193
-0.491747
-0.49064
-0.489483
-0.488287
-0.487107
-0.485996
-0.48502
-0.484251
-0.483764
-0.492262
-0.490765
-0.489655
-0.488519
-0.487367
-0.486254
-0.485229
-0.484358
-0.483711
-0.483358
-0.491309
-0.489766
-0.488655
-0.487543
-0.486436
-0.485389
-0.484451
-0.483685
-0.483159
-0.482941
-0.490323
-0.48874
-0.487631
-0.486543
-0.485483
-0.484504
-0.483653
-0.482992
-0.482586
-0.489294
-0.487678
-0.486574
-0.485513
-0.484501
-0.48359
-0.482826
-0.482269
-0.481983
-0.488212
-0.48657
-0.485475
-0.484444
-0.48348
-0.482638
-0.481961
-0.481507
-0.481339
-0.487068
-0.485409
-0.484327
-0.483328
-0.482414
-0.48164
-0.481049
-0.480697
-0.485854
-0.484186
-0.483121
-0.482157
-0.481295
-0.48059
-0.480083
-0.479831
-0.484562
-0.482894
-0.48185
-0.480924
-0.480115
-0.479478
-0.479055
-0.4789
-0.483185
-0.481526
-0.480508
-0.479622
-0.478867
-0.478298
-0.477957
-0.477896
-0.481715
-0.480076
-0.479089
-0.478245
-0.477545
-0.477044
-0.476783
-0.480149
-0.478538
-0.477586
-0.476787
-0.476144
-0.47571
-0.475525
-0.47848
-0.476907
-0.475994
-0.475244
-0.474657
-0.474289
-0.474179
-0.476704
-0.47518
-0.47431
-0.473609
-0.47308
-0.472776
-0.474819
-0.473351
-0.472529
-0.471881
-0.471409
-0.471168
-0.472822
-0.471419
-0.470648
-0.470054
-0.46964
-0.469461
-0.47071
-0.469381
-0.468665
-0.468127
-0.467771
-0.46765
-0.468483
-0.467236
-0.466579
-0.466098
-0.465798
-0.465735
-0.466141
-0.464983
-0.464387
-0.463964
-0.463721
-0.463685
-0.462623
-0.462091
-0.461727
-0.461539
-0.461115
-0.460156
-0.45969
-0.459385
-0.459252
-0.458435
-0.457584
-0.457186
-0.456941
-0.456861
-0.455648
-0.45491
-0.454581
-0.454395
-0.454366
-0.452757
-0.452136
-0.451877
-0.45175
-0.45177
-0.449766
-0.449266
-0.449079
-0.449009
-0.449077
-0.446682
-0.446306
-0.446189
-0.446177
-0.443511
-0.443259
-0.443214
-0.443257
-0.440258
-0.440132
-0.440157
-0.440255
-0.43693
-0.436931
-0.437026
-0.437176
-0.433536
-0.433664
-0.433826
-0.434026
-0.430083
-0.430335
-0.430564
-0.430813
-0.42658
-0.426954
-0.427247
-0.427543
-0.423034
-0.423528
-0.423884
-0.424223
-0.419454
-0.420065
-0.420481
-0.420862
-0.415849
-0.416574
-0.417047
-0.417467
-0.412228
-0.413061
-0.41359
-0.414046
-0.4086
-0.409537
-0.410117
-0.410607
-0.404972
-0.406009
-0.406637
-0.407158
-0.199899
-0.202608
-0.205229
-0.207765
-0.210216
-0.212584
-0.214872
-0.217079
-0.219208
-0.221258
-0.223231
-0.225127
-0.226946
-0.228688
-0.230353
-0.23194
-0.233448
-0.234876
-0.236224
-0.23749
-0.238674
-0.239775
-0.240795
-0.241734
-0.242596
-0.243384
-0.244105
-0.244768
-0.245387
-0.184512
-0.1872
-0.189816
-0.19236
-0.194835
-0.19724
-0.199578
-0.201851
-0.204058
-0.206203
-0.208285
-0.210307
-0.212269
-0.214174
-0.216022
-0.217816
-0.219557
-0.221248
-0.222891
-0.224488
-0.226045
-0.227563
-0.229049
-0.230507
-0.231945
-0.23337
-0.23479
-0.236217
-0.237661
-0.170333
-0.172972
-0.175551
-0.178072
-0.180535
-0.182941
-0.185293
-0.18759
-0.189834
-0.192027
-0.194168
-0.196261
-0.198305
-0.200301
-0.202252
-0.204158
-0.206021
-0.207843
-0.209624