/*--------------------------------*- C++ -*----------------------------------*\
  =========                 |
  \\      /  F ield         | OpenFOAM: The Open Source CFD Toolbox
   \\    /   O peration     | Website:  https://openfoam.org
    \\  /    A nd           | Version:  7
     \\/     M anipulation  |
\*---------------------------------------------------------------------------*/
FoamFile
{
    version     2.0;
    format      ascii;
    class       surfaceScalarField;
    location    "300";
    object      phi;
}
// * * * * * * * * * * * * * * * * * * * * * * * * * * * * * * * * * * * * * //

dimensions      [0 3 -1 0 0 0 0];

internalField   nonuniform List<scalar> 
13926
(
-5.74838e-07
-3.52317e-05
3.58066e-05
-2.25501e-06
-9.4532e-05
9.62122e-05
-5.0309e-06
-0.000145178
0.000147954
-0.000187464
0.000191313
-6.26326e-07
-3.46054e-05
-2.43559e-06
-9.27228e-05
-5.39873e-06
-0.000142215
-0.000183385
-6.74494e-07
-3.39309e-05
-2.604e-06
-9.07933e-05
-5.7406e-06
-0.000139078
-0.000179096
-7.19266e-07
-3.32117e-05
-2.76006e-06
-8.87525e-05
-6.05624e-06
-0.000135782
-0.000174615
-7.6064e-07
-3.2451e-05
-2.90375e-06
-8.66094e-05
-6.3457e-06
-0.00013234
-0.00016996
-7.98632e-07
-3.16524e-05
-3.03518e-06
-8.43728e-05
-6.60926e-06
-0.000128766
-0.000165149
-8.33309e-07
-3.08191e-05
-3.15461e-06
-8.20515e-05
-6.84757e-06
-0.000125073
-0.0001602
-8.64772e-07
-2.99543e-05
-3.26244e-06
-7.96539e-05
-7.06147e-06
-0.000121274
-0.000155128
-8.93163e-07
-2.90611e-05
-3.3592e-06
-7.71878e-05
-7.25213e-06
-0.000117381
-0.000149949
-9.18666e-07
-2.81425e-05
-3.44553e-06
-7.4661e-05
-7.42092e-06
-0.000113405
-0.000144679
-9.41504e-07
-2.7201e-05
-3.52225e-06
-7.20802e-05
-7.56953e-06
-0.000109358
-0.00013933
-9.61918e-07
-2.62391e-05
-3.59021e-06
-6.94519e-05
-7.69972e-06
-0.000105249
-0.000133917
-9.80119e-07
-2.52589e-05
-3.65019e-06
-6.67818e-05
-7.81331e-06
-0.000101085
-0.000128448
-9.96284e-07
-2.42626e-05
-3.70292e-06
-6.40752e-05
-7.91187e-06
-9.68765e-05
-1.34244e-05
-0.000122936
-0.000142672
-1.01058e-06
-2.32521e-05
-3.74907e-06
-6.13367e-05
-7.99693e-06
-9.26286e-05
-1.35454e-05
-0.000117387
-0.000136018
-1.02322e-06
-2.22288e-05
-3.78937e-06
-5.85706e-05
-8.07014e-06
-8.83479e-05
-1.36472e-05
-0.00011181
-0.000129348
-1.03447e-06
-2.11944e-05
-3.8247e-06
-5.57803e-05
-8.13307e-06
-8.40395e-05
-1.37324e-05
-0.000106211
-0.00012267
-1.04458e-06
-2.01498e-05
-3.85593e-06
-5.2969e-05
-8.18753e-06
-7.97079e-05
-1.38037e-05
-0.000100595
-0.000115989
-1.05377e-06
-1.9096e-05
-3.8838e-06
-5.0139e-05
-8.23502e-06
-7.53567e-05
-1.38635e-05
-9.49664e-05
-0.000109311
-1.06222e-06
-1.80338e-05
-3.90888e-06
-4.72923e-05
-8.2767e-06
-7.09889e-05
-1.39138e-05
-8.93292e-05
-0.000102641
-1.07003e-06
-1.69638e-05
-3.9315e-06
-4.44308e-05
-8.31328e-06
-6.66071e-05
-1.39559e-05
-8.36866e-05
-2.06159e-05
-9.59805e-05
-0.000103901
-1.07723e-06
-1.58865e-05
-3.95185e-06
-4.15562e-05
-8.3451e-06
-6.22138e-05
-1.39902e-05
-7.80416e-05
-2.06367e-05
-8.9334e-05
-9.64832e-05
-1.08385e-06
-1.48027e-05
-3.96994e-06
-3.86701e-05
-8.37219e-06
-5.78116e-05
-1.4017e-05
-7.23968e-05
-2.06469e-05
-8.2704e-05
-8.91046e-05
-1.08985e-06
-1.37128e-05
-3.98569e-06
-3.57743e-05
-8.39436e-06
-5.34029e-05
-1.40357e-05
-6.67554e-05
-2.06463e-05
-7.60935e-05
-8.17681e-05
-1.09517e-06
-1.26177e-05
-3.99883e-06
-3.28706e-05
-8.41106e-06
-4.89907e-05
-1.40455e-05
-6.11209e-05
-2.06329e-05
-6.95061e-05
-2.79241e-05
-7.44769e-05
-7.6436e-05
-1.0997e-06
-1.1518e-05
-4.00895e-06
-2.99614e-05
-8.42135e-06
-4.45783e-05
-1.40448e-05
-5.54975e-05
-2.06044e-05
-6.29464e-05
-2.78457e-05
-6.72357e-05
-6.87457e-05
-1.10325e-06
-1.04147e-05
-4.01542e-06
-2.70492e-05
-8.42395e-06
-4.01697e-05
-1.40313e-05
-4.98902e-05
-2.05575e-05
-5.64201e-05
-2.77428e-05
-6.00504e-05
-6.1139e-05
-1.10563e-06
-9.30908e-06
-4.01752e-06
-2.41373e-05
-8.4173e-06
-3.577e-05
-1.40023e-05
-4.43052e-05
-2.04879e-05
-4.99345e-05
-2.76097e-05
-5.29286e-05
-5.36242e-05
-1.10659e-06
-8.20249e-06
-4.01436e-06
-2.12296e-05
-8.39952e-06
-3.13848e-05
-1.39546e-05
-3.87501e-05
-2.03908e-05
-4.34983e-05
-2.74392e-05
-4.58802e-05
-3.48518e-05
-4.62115e-05
-4.4861e-05
-1.10585e-06
-7.09664e-06
-4.00493e-06
-1.83305e-05
-8.36851e-06
-2.70212e-05
-1.38848e-05
-3.32338e-05
-2.02608e-05
-3.71223e-05
-2.72234e-05
-3.89176e-05
-3.45203e-05
-3.89146e-05
-3.74618e-05
-1.1031e-06
-5.99354e-06
-3.98816e-06
-1.54454e-05
-8.32196e-06
-2.26874e-05
-1.37887e-05
-2.77671e-05
-2.00916e-05
-3.08194e-05
-2.69539e-05
-3.20554e-05
-3.41183e-05
-3.17502e-05
-3.02318e-05
-1.09802e-06
-4.89552e-06
-3.96289e-06
-1.25805e-05
-8.25746e-06
-1.83929e-05
-1.36623e-05
-2.23622e-05
-1.98771e-05
-2.46046e-05
-2.66212e-05
-2.53113e-05
-3.36332e-05
-2.47381e-05
-2.31941e-05
-1.09027e-06
-3.80525e-06
-3.92795e-06
-9.74286e-06
-8.17251e-06
-1.41483e-05
-1.35013e-05
-1.70334e-05
-1.96106e-05
-1.84953e-05
-2.62161e-05
-1.87058e-05
-3.30521e-05
-1.79021e-05
-3.98709e-05
-1.63753e-05
-1.44611e-05
-1.07955e-06
-2.7257e-06
-3.88219e-06
-6.94022e-06
-8.06465e-06
-9.96586e-06
-1.33014e-05
-1.17966e-05
-1.92857e-05
-1.2511e-05
-2.57292e-05
-1.22622e-05
-3.23619e-05
-1.12695e-05
-3.89302e-05
-9.8069e-06
-8.19486e-06
-1.06553e-06
-1.66017e-06
-3.82449e-06
-4.18126e-06
-7.9315e-06
-5.85886e-06
-1.30586e-05
-6.66954e-06
-1.88958e-05
-6.67381e-06
-2.51512e-05
-6.00683e-06
-3.15498e-05
-4.87092e-06
-3.78319e-05
-3.52486e-06
-2.27467e-06
-1.04794e-06
-6.12231e-07
-3.75383e-06
-1.47536e-06
-7.77085e-06
-1.84184e-06
-1.27689e-05
-1.67148e-06
-1.84351e-05
-1.00765e-06
-2.44734e-05
3.14552e-08
-3.06035e-05
1.25925e-06
-3.65594e-05
2.43099e-06
-4.20869e-05
3.25286e-06
3.38944e-06
-1.02653e-06
4.14304e-07
-3.66932e-06
1.16742e-06
-7.58075e-06
2.06959e-06
-1.24289e-05
3.17671e-06
-1.7898e-05
4.46137e-06
-2.36876e-05
5.82107e-06
-2.95119e-05
7.08356e-06
-3.50973e-05
8.01641e-06
-4.01806e-05
8.33621e-06
7.71544e-06
-1.00112e-06
1.41542e-06
-3.57021e-06
3.73651e-06
-7.35954e-06
5.85893e-06
-1.20357e-05
7.85288e-06
-1.72798e-05
9.70542e-06
-2.27869e-05
1.13282e-05
-2.8265e-05
1.25616e-05
-3.34324e-05
1.31838e-05
-3.80155e-05
1.29193e-05
1.14467e-05
-9.71552e-07
2.38697e-06
-3.45595e-06
6.22091e-06
-7.10596e-06
9.50893e-06
-1.15869e-05
1.23338e-05
-1.65767e-05
1.46952e-05
-2.17656e-05
1.65171e-05
-2.68546e-05
1.76506e-05
-3.15531e-05
1.78824e-05
-3.55764e-05
1.69427e-05
-3.86429e-05
1.45131e-05
1.02326e-05
-9.37761e-07
3.32474e-06
-3.32621e-06
8.60936e-06
-6.81914e-06
1.30019e-05
-1.10808e-05
1.65954e-05
-1.57858e-05
1.94002e-05
-2.06191e-05
2.13505e-05
-2.52742e-05
2.23057e-05
-2.94505e-05
2.20587e-05
-3.28511e-05
2.03432e-05
-3.51791e-05
1.68411e-05
1.11885e-05
-8.99739e-07
4.22447e-06
-3.18087e-06
1.08905e-05
-6.4987e-06
1.63197e-05
-1.05165e-05
2.06132e-05
-1.49055e-05
2.37892e-05
-1.93448e-05
2.57898e-05
-2.35195e-05
2.64804e-05
-2.71184e-05
2.56576e-05
-2.9831e-05
2.30558e-05
-3.13441e-05
1.83543e-05
-3.13391e-05
1.11835e-05
1.13056e-06
-8.57548e-07
5.08202e-06
-3.02005e-06
1.3053e-05
-6.14472e-06
1.94444e-05
-9.89384e-06
2.43623e-05
-1.39351e-05
2.78305e-05
-1.79411e-05
2.97958e-05
-2.15881e-05
3.01274e-05
-2.45531e-05
2.86226e-05
-2.6511e-05
2.50137e-05
-2.71313e-05
1.89745e-05
-2.60745e-05
1.01267e-05
-1.95472e-06
-8.11324e-07
5.89335e-06
-2.84412e-06
1.50858e-05
-5.75776e-06
2.2358e-05
-9.21356e-06
2.78181e-05
-1.28752e-05
3.14922e-05
-1.64086e-05
3.33292e-05
-1.94801e-05
3.31988e-05
-2.1754e-05
3.08965e-05
-2.28898e-05
2.61495e-05
-2.25383e-05
1.86231e-05
-2.03385e-05
7.92689e-06
-1.59147e-05
-6.37861e-06
-2.47755e-05
-7.61267e-07
6.65461e-06
-2.65366e-06
1.69782e-05
-5.33886e-06
2.50432e-05
-8.47706e-06
3.09563e-05
-1.17277e-05
3.47428e-05
-1.47492e-05
3.63507e-05
-1.71974e-05
3.56471e-05
-1.87233e-05
3.24224e-05
-1.89697e-05
2.6396e-05
-1.75681e-05
1.72215e-05
-1.41348e-05
4.49363e-06
-8.26885e-06
-1.22446e-05
-3.34948e-05
-7.07641e-07
7.36225e-06
-2.44948e-06
1.872e-05
-4.88947e-06
2.74832e-05
-7.68648e-06
3.37533e-05
-1.04952e-05
3.75515e-05
-1.29662e-05
3.88217e-05
-1.47442e-05
3.7425e-05
-1.54658e-05
3.3144e-05
-1.47566e-05
2.56867e-05
-1.22276e-05
1.46925e-05
-7.4723e-06
-2.61657e-07
-6.39265e-08
-1.96529e-05
-4.40043e-05
-6.50764e-07
8.01302e-06
-2.23256e-06
2.03018e-05
-4.41144e-06
2.96621e-05
-6.84463e-06
3.61865e-05
-9.1817e-06
3.98886e-05
-1.10646e-05
4.07047e-05
-1.21264e-05
3.84868e-05
-1.19888e-05
3.30063e-05
-1.02592e-05
2.39572e-05
-6.52794e-06
1.09612e-05
-3.65037e-07
-6.42456e-06
8.68184e-06
-2.86998e-05
2.10878e-05
-5.64103e-05
-9.01355e-05
-5.90998e-07
8.60402e-06
-2.00405e-06
2.17149e-05
-3.90695e-06
3.1565e-05
-5.95484e-06
3.82344e-05
-7.79166e-06
4.17254e-05
-9.05036e-06
4.19633e-05
-9.35157e-06
3.8788e-05
-8.30147e-06
3.19562e-05
-5.48912e-06
2.11448e-05
-4.83566e-07
5.95568e-06
7.1686e-06
-1.40767e-05
1.79448e-05
-3.9476e-05
3.23462e-05
-7.08117e-05
-0.000108684
-5.28734e-07
9.13275e-06
-1.76521e-06
2.29513e-05
-3.37841e-06
3.31782e-05
-5.02087e-06
3.98768e-05
-6.33039e-06
4.30349e-05
-6.93031e-06
4.25633e-05
-6.42839e-06
3.82861e-05
-4.41488e-06
2.99427e-05
-4.60007e-07
1.71899e-05
5.88842e-06
-3.92753e-07
1.51069e-05
-2.32952e-05
2.76971e-05
-5.20663e-05
4.41845e-05
-8.72991e-05
6.5114e-05
-0.000129614
-0.000179633
-4.64384e-07
9.59713e-06
-1.51735e-06
2.40043e-05
-2.82837e-06
3.44892e-05
-4.04677e-06
4.10952e-05
-4.80358e-06
4.37918e-05
-4.71203e-06
4.24717e-05
-3.36658e-06
3.69407e-05
-3.41153e-07
2.69173e-05
4.81293e-06
1.20358e-05
1.25689e-05
-8.14873e-06
2.34258e-05
-3.41521e-05
3.79079e-05
-6.65484e-05
5.65627e-05
-0.000105954
7.99548e-05
-0.000153006
-0.000208334
-3.9836e-07
9.99549e-06
-1.26182e-06
2.48678e-05
-2.25949e-06
3.54869e-05
-3.03671e-06
4.18724e-05
-3.21716e-06
4.39722e-05
-2.40345e-06
4.1658e-05
-1.76304e-07
3.47135e-05
3.90684e-06
2.28342e-05
1.03135e-05
5.62916e-06
1.95376e-05
-1.73728e-05
3.20993e-05
-4.67139e-05
4.85441e-05
-8.29932e-05
6.94384e-05
-0.000126848
9.53618e-05
-0.000178929
0.000126896
-0.000239868
-0.000310241
-3.31127e-07
1.03266e-05
-1.00005e-06
2.55367e-05
-1.67447e-06
3.61613e-05
-1.99496e-06
4.21929e-05
-1.57719e-06
4.35544e-05
-1.26162e-08
4.00934e-05
3.13205e-06
3.15688e-05
8.31597e-06
1.76502e-05
1.60253e-05
-2.08015e-06
2.67736e-05
-2.81211e-05
4.11013e-05
-6.10415e-05
5.95722e-05
-0.000101464
8.27681e-05
-0.000150044
0.000111278
-0.000207439
0.000145687
-0.000274277
0.000186552
-0.000351106
-0.000438346
-2.62948e-07
1.05896e-05
-7.33076e-07
2.60068e-05
-1.07554e-06
3.65038e-05
-9.25227e-07
4.20426e-05
1.10897e-07
4.25183e-05
2.45298e-06
3.77513e-05
6.54862e-06
2.74732e-05
1.28735e-05
1.13254e-05
2.19319e-05
-1.11386e-05
3.42563e-05
-4.04455e-05
5.04051e-05
-7.71903e-05
7.09578e-05
-0.000122017
9.65071e-05
-0.000175593
0.000127646
-0.000238579
0.000164953
-0.000311583
0.000208965
-0.000395118
-0.000489542
-1.94216e-07
1.07838e-05
-4.62132e-07
2.62747e-05
-4.65067e-07
3.65067e-05
1.68729e-07
4.14088e-05
1.84169e-06
4.08453e-05
4.98606e-06
3.4607e-05
1.00639e-05
2.23954e-05
1.75672e-05
3.82201e-06
2.80179e-05
-2.15892e-05
4.19658e-05
-5.43934e-05
5.99852e-05
-9.52096e-05
8.26678e-05
-0.0001447
0.000110612
-0.000203538
0.000144409
-0.000272375
0.000184618
-0.000351793
0.000231749
-0.000442249
0.000286227
-0.000544021
-0.000657138
-1.25217e-07
1.0909e-05
-1.88168e-07
2.63377e-05
1.55008e-07
3.61635e-05
1.28372e-06
4.02801e-05
3.61055e-06
3.85185e-05
7.58023e-06
3.06373e-05
1.36694e-05
1.63062e-05
2.23862e-05
-4.89478e-06
3.4269e-05
-3.3472e-05
4.98836e-05
-7.0008e-05
6.98174e-05
-0.000115143
9.46703e-05
-0.000169552
0.000125041
-0.000233909
0.000161509
-0.000308843
0.00020461
-0.000394893
0.000254805
-0.000492445
0.000312454
-0.00060167
-0.000722466
-5.61726e-08
1.09652e-05
8.80322e-08
2.61935e-05
7.83101e-07
3.54685e-05
2.41715e-06
3.86461e-05
5.41359e-06
3.55221e-05
1.02301e-05
2.58208e-05
1.73579e-05
9.17844e-06
2.73207e-05
-1.48576e-05
4.06724e-05
-4.68238e-05
5.79927e-05
-8.73282e-05
7.9879e-05
-0.00013703
0.000106935
-0.000196608
0.000139753
-0.000266727
0.000178893
-0.000347983
0.000224853
-0.000440853
0.000278035
-0.000545627
0.000338716
-0.000662351
0.000407008
-0.000790757
-0.00093023
1.2766e-08
1.09524e-05
3.65915e-07
2.58403e-05
1.41807e-06
3.44163e-05
3.56705e-06
3.64971e-05
7.24784e-06
3.18413e-05
1.29314e-05
2.01373e-05
2.11234e-05
9.86425e-07
3.23626e-05
-2.60968e-05
4.72171e-05
-6.16783e-05
6.6278e-05
-0.000106389
9.01493e-05
-0.000160901
0.000119433
-0.000225892
0.000154708
-0.000302002
0.000196505
-0.00038978
0.000245273
-0.00048962
0.000301342
-0.000601697
0.000364888
-0.000725896
0.000435893
-0.000861762
0.000514122
-0.00100846
-0.00116477
8.15257e-08
1.08709e-05
6.4522e-07
2.52766e-05
2.05923e-06
3.30023e-05
4.73218e-06
3.38241e-05
9.11128e-06
2.74622e-05
1.5681e-05
1.35676e-05
2.49614e-05
-8.29402e-06
3.75055e-05
-3.86409e-05
5.38938e-05
-7.80666e-05
7.47261e-05
-0.000127221
0.000100609
-0.000186784
0.000132136
-0.000257419
0.000169867
-0.000339733
0.000214291
-0.000434205
0.000265797
-0.000541126
0.000324628
-0.000660528
0.000390843
-0.000792112
0.000464283
-0.000935202
0.000544542
-0.00108872
-0.00125119
1.50107e-07
1.07208e-05
9.25861e-07
2.45009e-05
2.70635e-06
3.12218e-05
5.912e-06
3.06185e-05
1.10029e-05
2.23713e-05
1.84772e-05
6.09322e-06
2.88691e-05
-1.86859e-05
4.27446e-05
-5.25163e-05
6.06947e-05
-9.60168e-05
8.33251e-05
-0.000149852
0.00011124
-0.000214698
0.000145018
-0.000291198
0.00018519
-0.000379904
0.000232195
-0.00048121
0.000286348
-0.000595279
0.000347791
-0.000721971
0.000416456
-0.000860777
0.000492027
-0.00101077
0.000573923
-0.00117061
0.000661291
-0.00133856
-0.00151257
2.18585e-07
1.05022e-05
1.20802e-06
2.35114e-05
3.35967e-06
2.90702e-05
7.1067e-06
2.68714e-05
1.29226e-05
1.65554e-05
2.13194e-05
-2.30358e-06
3.28447e-05
-3.02112e-05
4.80764e-05
-6.7748e-05
6.76138e-05
-0.000115554
9.20643e-05
-0.000174302
0.000122024
-0.000244658
0.000158052
-0.000327227
0.000200638
-0.00042249
0.000250161
-0.000530733
0.000306848
-0.000651966
0.00037073
-0.000785852
0.000441597
-0.000931644
0.000518972
-0.00108815
0.000602098
-0.00125374
0.000689944
-0.0014264
0.000781233
-0.00160386
-0.00178369
2.8711e-07
1.02151e-05
1.49212e-06
2.23064e-05
4.01987e-06
2.65424e-05
8.31714e-06
2.25742e-05
1.48713e-05
1.00013e-05
2.4208e-05
-1.16404e-05
3.68878e-05
-4.2891e-05
5.34988e-05
-8.4359e-05
7.46457e-05
-0.000136701
0.000100934
-0.00020059
0.000132945
-0.000276669
0.00017121
-0.000365491
0.000216169
-0.000467448
0.000268128
-0.000582692
0.000327216
-0.000711055
0.000393337
-0.000851974
0.000466134
-0.00100444
0.000544966
-0.00116698
0.000628904
-0.00133768
0.000716755
-0.00151425
0.00080711
-0.00169422
0.000898397
-0.00187498
-0.0020544
3.55894e-07
9.85919e-06
1.77876e-06
2.08836e-05
4.68802e-06
2.36332e-05
9.54475e-06
1.77174e-05
1.68505e-05
2.69556e-06
2.71445e-05
-2.19344e-05
4.0999e-05
-5.67455e-05
5.90104e-05
-0.00010237
8.17858e-05
-0.000159476
0.000109923
-0.000228728
0.000143985
-0.000310731
0.000184463
-0.000405969
0.000231738
-0.000514723
0.000286032
-0.000636987
0.000347364
-0.000772387
0.000415503
-0.000920112
0.000489936
-0.00107887
0.000569858
-0.0012469
0.000654182
-0.001422
0.000741578
-0.00160165
0.000830536
-0.00178318
0.000919448
-0.00196389
-0.00214161
4.25205e-07
9.43398e-06
2.06875e-06
1.924e-05
5.36551e-06
2.03364e-05
1.07915e-05
1.22915e-05
1.88624e-05
-5.37538e-06
3.01307e-05
-3.32027e-05
4.51793e-05
-7.1794e-05
6.46103e-05
-0.000121801
8.90295e-05
-0.000183896
0.000119023
-0.000258721
0.000155124
-0.000346832
0.000197778
-0.000448624
0.000247297
-0.000564242
0.000303807
-0.000693496
0.000367203
-0.000835783
0.000437114
-0.000990022
0.000512868
-0.00115463
0.000593503
-0.00132754
0.000677788
-0.00150629
0.000764281
-0.00168814
0.000851414
-0.00187031
0.000937585
-0.00205006
0.00102123
-0.00222526
-0.00239308
4.95355e-07
8.93863e-06
2.36301e-06
1.73724e-05
6.054e-06
1.66454e-05
1.20595e-05
6.28595e-06
2.09097e-05
-1.42255e-05
3.31693e-05
-4.54623e-05
4.943e-05
-8.80548e-05
7.02975e-05
-0.000142669
9.63716e-05
-0.00020997
0.000128219
-0.000290569
0.00016634
-0.000384953
0.000211122
-0.000493406
0.000262794
-0.000615914
0.000321378
-0.00075208
0.000386639
-0.000901044
0.000458054
-0.00106144
0.000534798
-0.00123137
0.00061576
-0.0014085
0.000699585
-0.00159011
0.000784751
-0.00177331
0.000869668
-0.00195523
0.000952784
-0.00213318
0.00103266
-0.00230513
0.00110818
-0.0024686
-0.00262329
5.66685e-07
8.37194e-06
2.66256e-06
1.52765e-05
6.75527e-06
1.25527e-05
1.33515e-05
-3.10267e-07
2.29952e-05
-2.38693e-05
3.62627e-05
-5.87298e-05
5.37526e-05
-0.000105545
7.60705e-05
-0.000164987
0.000103806
-0.000237705
0.0001375
-0.000324263
0.000177609
-0.000425062
0.000224454
-0.000540251
0.000278173
-0.000669633
0.00033867
-0.000812577
0.000405572
-0.000967946
0.000478207
-0.00113407
0.000555597
-0.00130876
0.000636498
-0.0014894
0.000719454
-0.00167307
0.000802898
-0.00185675
0.000885253
-0.00203758
0.000965053
-0.00221298
0.00104101
-0.00238109
0.00111223
-0.00253982
-0.0026893
0.00117825
6.39552e-07
7.73239e-06
2.96847e-06
1.29476e-05
7.47122e-06
8.04994e-06
1.46698e-05
-7.50888e-06
2.51217e-05
-3.43212e-05
3.94132e-05
-7.30212e-05
5.81475e-05
-0.000124279
8.19266e-05
-0.000188766
0.000111324
-0.000267102
0.000146848
-0.000359788
0.000188903
-0.000467116
0.000237732
-0.00058908
0.000293372
-0.000725273
0.000355601
-0.000874806
0.000423904
-0.00103625
0.000497456
-0.00120762
0.000575142
-0.00138645
0.000655597
-0.00156986
0.000737297
-0.00175477
0.000818656
-0.00193811
0.000898151
-0.00211708
0.00097443
-0.00228926
0.00104638
-0.00245304
0.00111333
-0.00260676
-0.00275096
0.00117498
7.14316e-07
7.01807e-06
3.28181e-06
1.03801e-05
8.20368e-06
3.12807e-06
1.6017e-05
-1.53222e-05
2.72918e-05
-4.55959e-05
4.26226e-05
-8.83521e-05
6.26147e-05
-0.000144271
8.78616e-05
-0.000214013
0.000118915
-0.000298155
0.000156244
-0.000397116
0.000200188
-0.000511061
0.000250907
-0.000639799
0.000308325
-0.000782691
0.000372086
-0.000938568
0.000441531
-0.00110569
0.00051569
-0.00128178
0.000593317
-0.00146408
0.000672954
-0.00164949
0.000753032
-0.00183485
0.000831986
-0.00201707
0.000908371
-0.00219346
0.000980982
-0.00236187
0.0010489
-0.00252096
0.00111164
-0.00266951
-0.00280843
0.00116911
7.91326e-07
6.22675e-06
3.60359e-06
7.56782e-06
8.9544e-06
-2.22275e-06
1.73953e-05
-2.37631e-05
2.95074e-05
-5.77081e-05
4.5892e-05
-0.000104737
6.71525e-05
-0.000165532
9.38696e-05
-0.00024073
0.000126566
-0.000330852
0.000165664
-0.000436214
0.00021143
-0.000556828
0.000263928
-0.000692297
0.000322962
-0.000841725
0.000388039
-0.00100364
0.000458354
-0.00117601
0.0005328
-0.00135623
0.000610017
-0.00154129
0.00068848
-0.00172796
0.000766604
-0.00191297
0.000842873
-0.00209334
0.000915954
-0.00226654
0.000984802
-0.00243072
0.00104869
-0.00258485
0.00110735
-0.00272816
-0.0028619
0.00116082
8.70907e-07
5.35584e-06
3.93476e-06
4.50397e-06
9.72491e-06
-8.0129e-06
1.88063e-05
-3.28445e-05
3.17702e-05
-7.06719e-05
4.92212e-05
-0.000122188
7.17578e-05
-0.000188068
9.99422e-05
-0.000268914
0.000134262
-0.000365171
0.000175081
-0.000477033
0.000222588
-0.000604334
0.000276738
-0.000746448
0.00033721
-0.000902197
0.000403371
-0.00106981
0.000474274
-0.00124691
0.000548685
-0.00143064
0.000625153
-0.00161776
0.000702107
-0.00180491
0.000777979
-0.00198884
0.000851331
-0.00216669
0.000920964
-0.00233618
0.000986004
-0.00249576
0.00104593
-0.00264477
0.00110064
-0.00278288
-0.0029116
0.00115034
9.53347e-07
4.40249e-06
4.27611e-06
1.18121e-06
1.05164e-05
-1.42532e-05
2.02516e-05
-4.25796e-05
3.40805e-05
-8.45009e-05
5.26089e-05
-0.000140716
7.64256e-05
-0.000211885
0.000106069
-0.000298557
0.000141982
-0.000401085
0.000184466
-0.000519516
0.000233616
-0.000653485
0.000289278
-0.000802109
0.000350995
-0.000963914
0.000417996
-0.00113681
0.000489197
-0.00131811
0.000563255
-0.0015047
0.000638646
-0.00169315
0.000713785
-0.00188005
0.000787146
-0.0020622
0.000857396
-0.00223694
0.000923487
-0.00240227
0.000984724
-0.002557
0.00104078
-0.00270082
0.00109172
-0.00283382
-0.00295776
0.00113788
1.03889e-06
3.3636e-06
4.62829e-06
-2.40819e-06
1.13299e-05
-2.09549e-05
2.17317e-05
-5.29814e-05
3.64381e-05
-9.92073e-05
5.60524e-05
-0.00016033
8.11489e-05
-0.000236981
0.000112235
-0.000329644
0.000149705
-0.000438555
0.000193783
-0.000563594
0.000244468
-0.000704171
0.000301484
-0.000859125
0.000364241
-0.00102667
0.000431827
-0.00120439
0.000503036
-0.00138932
0.00057643
-0.00157809
0.000650438
-0.00176716
0.000723486
-0.0019531
0.00079412
-0.00213284
0.000861129
-0.00230395
0.00092363
-0.00246477
0.000981111
-0.00261448
0.00103342
-0.00275313
0.00108079
-0.00288119
-0.0030006
0.00112364
1.12773e-06
2.23587e-06
4.99177e-06
-6.27222e-06
1.21658e-05
-2.8129e-05
2.32466e-05
-6.40621e-05
3.88414e-05
-0.000114802
5.95472e-05
-0.000181036
8.59185e-05
-0.000263353
0.000118426
-0.000362151
0.000157404
-0.000477533
0.000202996
-0.000609186
0.000255093
-0.000756268
0.000313294
-0.000917326
0.000376872
-0.00109025
0.000444784
-0.00127231
0.000515712
-0.00146025
0.000588143
-0.00165052
0.000660486
-0.0018395
0.000731202
-0.00202381
0.000798933
-0.00220057
0.000862609
-0.00236762
0.000921516
-0.00252367
0.000975321
-0.00266828
0.00102404
-0.00280185
0.00106804
-0.00292519
-0.00304038
0.00110781
1.22e-06
1.01587e-06
5.3668e-06
-1.0419e-05
1.30243e-05
-3.57865e-05
2.47955e-05
-7.58333e-05
4.12878e-05
-0.000131294
6.30872e-05
-0.000202836
9.07233e-05
-0.000290989
0.000124622
-0.00039605
0.000165052
-0.000517963
0.000212063
-0.000656197
0.000265438
-0.000809642
0.000324642
-0.00097653
0.000388816
-0.00115442
0.000456792
-0.00134028
0.000527156
-0.00153061
0.000598343
-0.00172171
0.000668765
-0.00190993
0.000736944
-0.00209199
0.000801639
-0.00226526
0.000861931
-0.00242792
0.00091728
-0.00257902
0.000967521
-0.00271852
0.00101282
-0.00284715
0.00105366
-0.00296602
-0.00307731
0.00109059
1.31579e-06
-2.99916e-07
5.75343e-06
-1.48567e-05
1.39049e-05
-4.39379e-05
2.6377e-05
-8.83055e-05
4.37734e-05
-0.000148691
6.6665e-05
-0.000225727
9.55497e-05
-0.000319873
0.000130802
-0.000431302
0.000172616
-0.000559776
0.000220944
-0.000704525
0.000275448
-0.000864146
0.000335464
-0.00103655
0.000400003
-0.00121896
0.000467783
-0.00140806
0.000537311
-0.00160014
0.000606992
-0.00179139
0.000675267
-0.0019782
0.000740743
-0.00215747
0.000802308
-0.00232683
0.000859205
-0.00248481
0.000911063
-0.00263088
0.000957876
-0.00276534
0.000999945
-0.00288922
0.00103783
-0.0030039
-0.00311162
0.00107214
1.41509e-06
-1.71501e-06
6.15149e-06
-1.95931e-05
1.48068e-05
-5.25932e-05
2.79888e-05
-0.000101487
4.62934e-05
-0.000166995
7.02712e-05
-0.000249705
0.000100382
-0.000349985
0.000136943
-0.000467863
0.000180064
-0.000602897
0.000229593
-0.000754055
0.000285069
-0.000919622
0.000345699
-0.00109718
0.000410367
-0.00128363
0.000477695
-0.00147539
0.000546129
-0.00166857
0.000614067
-0.00185933
0.000680002
-0.00204414
0.000742645
-0.00222011
0.000801025
-0.00238521
0.000854551
-0.00253834
0.000903014
-0.00267934
0.000946551
-0.00280887
0.000985578
-0.00292825
0.00102072
-0.00303904
-0.00314352
0.00105262
1.51787e-06
-3.23288e-06
6.5606e-06
-2.46358e-05
1.57287e-05
-6.17613e-05
2.96276e-05
-0.000115386
4.88415e-05
-0.000186209
7.3895e-05
-0.000274758
0.000105204
-0.000381294
0.000143019
-0.000505677
0.00018736
-0.000647238
0.000237965
-0.00080466
0.000294248
-0.000975905
0.000355286
-0.00115821
0.000419852
-0.0013482
0.000486479
-0.00154202
0.000553577
-0.00173567
0.000619562
-0.00192531
0.000682996
-0.00210757
0.00074271
-0.00227982
0.000797887
-0.00244039
0.000848096
-0.00258855
0.00089328
-0.00272453
0.000933708
-0.0028493
0.000969886
-0.00296443
0.00100249
-0.00307164
-0.00317321
0.00103217
1.62403e-06
-4.85691e-06
6.98015e-06
-2.99919e-05
1.66689e-05
-7.14501e-05
3.12898e-05
-0.000130007
5.14106e-05
-0.00020633
7.75244e-05
-0.000300872
0.000109996
-0.000413766
0.000149003
-0.000544684
0.000194468
-0.000692704
0.000246015
-0.000856207
0.000302931
-0.00103282
0.000364171
-0.00121945
0.000428403
-0.00141243
0.000494094
-0.00160771
0.000559635
-0.00180121
0.000623481
-0.00198916
0.000684287
-0.00216837
0.000741013
-0.00233655
0.000792999
-0.00249237
0.000839969
-0.00263552
0.000882011
-0.00276657
0.000919502
-0.00288679
0.000953022
-0.00299795
0.000983275
-0.0031019
-0.00320085
0.00101092
1.7334e-06
-6.59031e-06
7.40937e-06
-3.56679e-05
1.76253e-05
-8.16659e-05
3.29708e-05
-0.000145353
5.39924e-05
-0.000227352
8.1146e-05
-0.000328026
0.000114739
-0.000447359
0.000154866
-0.000584811
0.000201352
-0.00073919
0.000253699
-0.000908554
0.000311069
-0.00109019
0.000372303
-0.00128069
0.000435977
-0.0014761
0.000500509
-0.00167224
0.000564295
-0.001865
0.000625847
-0.00205071
0.000683927
-0.00222645
0.000737638
-0.00239026
0.000786471
-0.0025412
0.000830304
-0.00267935
0.00086935
-0.00280561
0.000904079
-0.00292152
0.000935128
-0.003029
0.000963213
-0.00312998
-0.00322663
0.000988988
1.84579e-06
-8.4361e-06
7.84726e-06
-4.16693e-05
1.85952e-05
-9.24139e-05
3.46654e-05
-0.000161423
5.6578e-05
-0.000249264
8.47453e-05
-0.000356193
0.00011941
-0.000482023
0.000160581
-0.000625982
0.000207974
-0.000786583
0.000260972
-0.000961552
0.000318616
-0.00114784
0.000379637
-0.00134171
0.000442538
-0.001539
0.000505706
-0.00173541
0.000567561
-0.00192685
0.000626692
-0.00210984
0.00068198
-0.00228174
0.000732675
-0.00244096
0.00077842
-0.00258695
0.000819232
-0.00272016
0.000855436
-0.00284182
0.000887578
-0.00295366
0.000916333
-0.00305775
0.000942418
-0.00315607
-0.00325068
0.000966468
1.96093e-06
-1.0397e-05
8.29269e-06
-4.80011e-05
1.95759e-05
-0.000103697
3.6368e-05
-0.000178215
5.91576e-05
-0.000272054
8.83071e-05
-0.000385343
0.000123988
-0.000517704
0.000166117
-0.000668111
0.000214298
-0.000834764
0.000267794
-0.00101505
0.000325528
-0.00120557
0.000386136
-0.00140232
0.000448059
-0.00160093
0.000509676
-0.00179703
0.000569448
-0.00198663
0.000626058
-0.00216645
0.000678517
-0.0023342
0.000726221
-0.00248866
0.000768962
-0.00262969
0.000806882
-0.00275808
0.000840401
-0.00287534
0.000870127
-0.00298339
0.000896755
-0.00308438
0.000920994
-0.0031803
-0.00327314
0.00094345
2.07853e-06
-1.24756e-05
8.74436e-06
-5.46669e-05
2.05642e-05
-0.000115517
3.80725e-05
-0.000195723
6.17207e-05
-0.000295702
9.18154e-05
-0.000415437
0.000128451
-0.00055434
0.000171445
-0.000711105
0.000220289
-0.000883607
0.000274125
-0.00106888
0.000331767
-0.00126321
0.000391767
-0.00146232
0.000452522
-0.00166168
0.000512419
-0.00185692
0.000569982
-0.00204419
0.000623999
-0.00222047
0.000673617
-0.00238382
0.000718379
-0.00253342
0.000758213
-0.00266953
0.000793377
-0.00279325
0.00082437
-0.00290633
0.000851843
-0.00301086
0.000876501
-0.00310904
0.000899032
-0.00320284
-0.00329411
0.000920011
2.19825e-06
-1.46738e-05
9.20085e-06
-6.16695e-05
2.15565e-05
-0.000127873
3.97722e-05
-0.000213939
6.42565e-05
-0.000320186
9.52539e-05
-0.000446435
0.000132776
-0.000591862
0.000176537
-0.000754866
0.000225913
-0.000932983
0.00027993
-0.0011229
0.000337301
-0.00132058
0.000396505
-0.00152152
0.000455916
-0.00172109
0.000513947
-0.00191496
0.000569198
-0.00209944
0.000620575
-0.00227185
0.000667363
-0.00243061
0.000709249
-0.00257531
0.000746287
-0.00270656
0.000778836
-0.0028258
0.000807459
-0.00293495
0.000832835
-0.00303624
0.000855666
-0.00313187
0.000876614
-0.00322378
-0.00331372
0.000896216
2.31974e-06
-1.69935e-05
9.6606e-06
-6.90104e-05
2.25493e-05
-0.000140761
4.14602e-05
-0.00023285
6.67535e-05
-0.00034548
9.86059e-05
-0.000478287
0.00013694
-0.000630196
0.000181364
-0.00079929
0.000231138
-0.000982758
0.000285178
-0.00117694
0.000342102
-0.00137751
0.000400335
-0.00157975
0.000458242
-0.001779
0.00051428
-0.00197099
0.00056714
-0.0021523
0.000615853
-0.00232056
0.000659843
-0.0024746
0.000698933
-0.0026144
0.000733295
-0.00274093
0.000763371
-0.00285587
0.000789773
-0.00296136
0.000813198
-0.00305966
0.000834335
-0.003153
0.000853811
-0.00324326
-0.00333203
0.000872124
2.44257e-06
-1.94361e-05
1.0122e-05
-7.66898e-05
2.35386e-05
-0.000154178
4.31293e-05
-0.000252441
6.92004e-05
-0.000371551
0.000101855
-0.000510941
0.000140921
-0.000669262
0.0001859
-0.000844269
0.000235936
-0.00103279
0.000289839
-0.00123084
0.000346147
-0.00143381
0.000403245
-0.00163685
0.000459506
-0.00183526
0.000513446
-0.00202493
0.000563859
-0.00220271
0.000609904
-0.0023666
0.000651146
-0.00251584
0.000687534
-0.00265079
0.000719343
-0.00277274
0.000747086
-0.00288361
0.000771413
-0.00298568
0.000793022
-0.00308127
0.000812582
-0.00317256
0.000830683
-0.00326136
-0.00334913
0.000847783
2.56631e-06
-2.20024e-05
1.05832e-05
-8.47067e-05
2.45204e-05
-0.000168115
4.47722e-05
-0.000272692
7.15855e-05
-0.000398364
0.000104984
-0.00054434
0.000144699
-0.000708977
0.000190119
-0.000889689
0.00024028
-0.00108295
0.000293891
-0.00128445
0.000349422
-0.00148935
0.000405233
-0.00169266
0.000459722
-0.00188975
0.000511479
-0.00207669
0.000559409
-0.00225064
0.000602804
-0.00241
0.000641361
-0.0025544
0.000675148
-0.00268457
0.000704531
-0.00280212
0.000730079
-0.00290916
0.000752466
-0.00300807
0.000772383
-0.00310119
0.000790473
-0.00319065
0.000807286
-0.00327817
-0.00336508
0.000823237
2.69048e-06
1.10424e-05
2.54905e-05
-0.000182563
4.63815e-05
-0.000293583
7.38972e-05
-0.00042588
0.000107977
-0.00057842
0.000148252
-0.000749251
0.000194
-0.000935437
0.000244147
-0.0011331
0.000297314
-0.00133762
0.000351916
-0.00154395
0.000406302
-0.00174705
0.000458912
-0.00194236
0.000508421
-0.0021262
0.000553853
-0.00229608
0.00059463
-0.00245078
0.000630577
-0.00259034
0.000661871
-0.00271587
0.000688954
-0.0028292
0.000712439
-0.00293265
0.000733013
-0.00302864
0.000751352
-0.00311953
0.000768066
-0.00320737
0.000783664
-0.00329377
-0.00337994
0.000798522
2.64447e-05
4.79494e-05
7.61237e-05
-0.000454054
0.000110819
-0.000613115
0.000151561
-0.000789993
0.000197519
-0.000981396
0.000247516
-0.0011831
0.000300093
-0.0013902
0.000353624
-0.00159748
0.000406462
-0.00179989
0.000457103
-0.001993
0.000504318
-0.00217342
0.000547252
-0.00233901
0.000585458
-0.00248898
0.00061888
-0.00262377
0.000647792
-0.00274478
0.0006727
-0.00285411
0.000694249
-0.0029542
0.000713127
-0.00304752
0.000729989
-0.00313639
0.000745412
-0.00322279