/*--------------------------------*- C++ -*----------------------------------*\
  =========                 |
  \\      /  F ield         | OpenFOAM: The Open Source CFD Toolbox
   \\    /   O peration     | Website:  https://openfoam.org
    \\  /    A nd           | Version:  7
     \\/     M anipulation  |
\*---------------------------------------------------------------------------*/
FoamFile
{
    version     2.0;
    format      ascii;
    class       volScalarField;
    location    "180";
    object      p;
}
// * * * * * * * * * * * * * * * * * * * * * * * * * * * * * * * * * * * * * //

dimensions      [0 2 -2 0 0 0 0];

internalField   nonuniform List<scalar> 
4575
(
-0.410855
-0.411901
-0.412493
-0.41519
-0.41607
-0.416588
-0.4195
-0.420207
-0.420647
-0.423767
-0.424296
-0.424653
-0.427976
-0.428322
-0.428592
-0.432108
-0.432271
-0.432449
-0.436154
-0.436124
-0.43621
-0.440093
-0.439872
-0.439862
-0.443911
-0.443501
-0.443395
-0.443431
-0.447598
-0.447002
-0.446796
-0.446759
-0.45114
-0.450363
-0.450058
-0.449944
-0.454528
-0.453576
-0.453173
-0.45298
-0.457754
-0.456636
-0.456134
-0.45586
-0.460812
-0.459536
-0.458939
-0.458581
-0.463697
-0.462275
-0.461584
-0.461141
-0.466405
-0.464849
-0.464069
-0.463541
-0.468936
-0.467261
-0.466395
-0.465781
-0.465465
-0.471291
-0.469511
-0.468565
-0.467866
-0.467459
-0.473473
-0.471604
-0.470583
-0.469801
-0.469299
-0.475487
-0.473546
-0.472455
-0.471591
-0.470993
-0.477339
-0.475342
-0.47419
-0.473246
-0.47255
-0.472215
-0.479038
-0.477004
-0.475796
-0.474775
-0.473979
-0.473522
-0.480593
-0.478539
-0.477283
-0.476188
-0.475292
-0.47471
-0.482018
-0.479961
-0.478665
-0.477499
-0.476502
-0.47579
-0.483326
-0.481283
-0.479952
-0.478719
-0.477622
-0.476778
-0.476296
-0.484531
-0.482518
-0.48116
-0.479862
-0.478666
-0.477689
-0.477042
-0.48565
-0.483681
-0.482303
-0.480945
-0.47965
-0.478538
-0.477724
-0.486701
-0.48479
-0.483396
-0.481981
-0.48059
-0.479343
-0.47836
-0.477778
-0.487704
-0.485862
-0.484458
-0.482988
-0.481501
-0.48012
-0.478967
-0.478188
-0.48868
-0.486915
-0.485504
-0.483982
-0.482402
-0.480887
-0.479566
-0.478589
-0.489648
-0.487968
-0.486552
-0.48498
-0.483308
-0.481661
-0.480175
-0.479003
-0.478296
-0.490633
-0.48904
-0.487622
-0.486
-0.484237
-0.482462
-0.480813
-0.47945
-0.47853
-0.491656
-0.490151
-0.488729
-0.487059
-0.485208
-0.483307
-0.4815
-0.479951
-0.478824
-0.478269
-0.492741
-0.49132
-0.489894
-0.488175
-0.486237
-0.484213
-0.482253
-0.480526
-0.4792
-0.478429
-0.49391
-0.492568
-0.491135
-0.489365
-0.487341
-0.485199
-0.483092
-0.481194
-0.479677
-0.4787
-0.495187
-0.493913
-0.492468
-0.490646
-0.488537
-0.48628
-0.484033
-0.481973
-0.480275
-0.479102
-0.478583
-0.496593
-0.495375
-0.493911
-0.492034
-0.48984
-0.487472
-0.485092
-0.482878
-0.481011
-0.479651
-0.47893
-0.49815
-0.49697
-0.495481
-0.493545
-0.491266
-0.488791
-0.486284
-0.483926
-0.481897
-0.48036
-0.479445
-0.479235
-0.499875
-0.498714
-0.497191
-0.495192
-0.492828
-0.490248
-0.487621
-0.485127
-0.482947
-0.481242
-0.480138
-0.479713
-0.501787
-0.500624
-0.499056
-0.496989
-0.494538
-0.491856
-0.489114
-0.486492
-0.484169
-0.482302
-0.481013
-0.480372
-0.480381
-0.5039
-0.502711
-0.501088
-0.498945
-0.496405
-0.493625
-0.490772
-0.488028
-0.485569
-0.483545
-0.482072
-0.481209
-0.480947
-0.506228
-0.504987
-0.503297
-0.501072
-0.49844
-0.49556
-0.492601
-0.48974
-0.487149
-0.484971
-0.483312
-0.482218
-0.481666
-0.481551
-0.508781
-0.507462
-0.505692
-0.503377
-0.500649
-0.497669
-0.494605
-0.491631
-0.488909
-0.486576
-0.484725
-0.483388
-0.482524
-0.482012
-0.481642
-0.511568
-0.510144
-0.50828
-0.505866
-0.503037
-0.499956
-0.496787
-0.4937
-0.490848
-0.488357
-0.486304
-0.484706
-0.483503
-0.482558
-0.481648
-0.514593
-0.513037
-0.511066
-0.508543
-0.505607
-0.502422
-0.499148
-0.495946
-0.492961
-0.490304
-0.488037
-0.486156
-0.484583
-0.483164
-0.481665
-0.47987
-0.517862
-0.516146
-0.514054
-0.511413
-0.508364
-0.505069
-0.501686
-0.498367
-0.495242
-0.49241
-0.489911
-0.487722
-0.485745
-0.483808
-0.481671
-0.479113
-0.475723
-0.521375
-0.519475
-0.517248
-0.514478
-0.511306
-0.507898
-0.504401
-0.500958
-0.497686
-0.494663
-0.491912
-0.489386
-0.486966
-0.484467
-0.481644
-0.478279
-0.473992
-0.525132
-0.523023
-0.520647
-0.517738
-0.514437
-0.510907
-0.50729
-0.503715
-0.500284
-0.497054
-0.494025
-0.491129
-0.488227
-0.485121
-0.481568
-0.477357
-0.472148
-0.466228
-0.529132
-0.526791
-0.524254
-0.521195
-0.517755
-0.514096
-0.51035
-0.506633
-0.503028
-0.49957
-0.496236
-0.492933
-0.489506
-0.48575
-0.481427
-0.476342
-0.470199
-0.463251
-0.45412
-0.533374
-0.530779
-0.528068
-0.524849
-0.52126
-0.517464
-0.51358
-0.509708
-0.505911
-0.502201
-0.498528
-0.494779
-0.490784
-0.486336
-0.481209
-0.47523
-0.468156
-0.460219
-0.450257
-0.441728
-0.537853
-0.534985
-0.532089
-0.528698
-0.524952
-0.521009
-0.516975
-0.512933
-0.508924
-0.504933
-0.500886
-0.49665
-0.492043
-0.486862
-0.480902
-0.474021
-0.466026
-0.457149
-0.446413
-0.436851
-0.542565
-0.539407
-0.536314
-0.532743
-0.52883
-0.52473
-0.520534
-0.516305
-0.512059
-0.507755
-0.503295
-0.498527
-0.493264
-0.487314
-0.4805
-0.472713
-0.46382
-0.454052
-0.4426
-0.432151
-0.547507
-0.544042
-0.540743
-0.536983
-0.532894
-0.528625
-0.524252
-0.519816
-0.515306
-0.510654
-0.505738
-0.500392
-0.494432
-0.48768
-0.479995
-0.471309
-0.461542
-0.450939
-0.438826
-0.42761
-0.552673
-0.548887
-0.545373
-0.541416
-0.537141
-0.532693
-0.528127
-0.52346
-0.518655
-0.513615
-0.508198
-0.502229
-0.495529
-0.487948
-0.479382
-0.469808
-0.4592
-0.447814
-0.435091
-0.423209
-0.558057
-0.553938
-0.550202
-0.546039
-0.541571
-0.53693
-0.532153
-0.52723
-0.522095
-0.516625
-0.510659
-0.504019
-0.496542
-0.488107
-0.478656
-0.468212
-0.456797
-0.444679
-0.431395
-0.418929
-0.563655
-0.559191
-0.555226
-0.550852
-0.54618
-0.541334
-0.536326
-0.531118
-0.525613
-0.519667
-0.513102
-0.505746
-0.497456
-0.48815
-0.477816
-0.466522
-0.454336
-0.441534
-0.427732
-0.41475
-0.569457
-0.56464
-0.560441
-0.55585
-0.550966
-0.5459
-0.540637
-0.535111
-0.529196
-0.522724
-0.515511
-0.507394
-0.498259
-0.488068
-0.476858
-0.464738
-0.451819
-0.438378
-0.424098
-0.410653
-0.575458
-0.570279
-0.565842
-0.561028
-0.555923
-0.55062
-0.545078
-0.539199
-0.532827
-0.525778
-0.517866
-0.508945
-0.498939
-0.487855
-0.475779
-0.462861
-0.449245
-0.435207
-0.420484
-0.40662
-0.581647
-0.576099
-0.571422
-0.566381
-0.561044
-0.555488
-0.549638
-0.543365
-0.536489
-0.52881
-0.520148
-0.510384
-0.499483
-0.487503
-0.474577
-0.46089
-0.446612
-0.432017
-0.416882
-0.402635
-0.588013
-0.582093
-0.577173
-0.5719
-0.566322
-0.560492
-0.554304
-0.547595
-0.540162
-0.531798
-0.522338
-0.511695
-0.499882
-0.487008
-0.47325
-0.458823
-0.443918
-0.4288
-0.413283
-0.398682
-0.594545
-0.588249
-0.583086
-0.577576
-0.571745
-0.565619
-0.559058
-0.551867
-0.543824
-0.534722
-0.524417
-0.512863
-0.500126
-0.486363
-0.471794
-0.456657
-0.441159
-0.425551
-0.409676
-0.394746
-0.601229
-0.594554
-0.589147
-0.583398
-0.5773
-0.570855
-0.563883
-0.556161
-0.547452
-0.537558
-0.526364
-0.513873
-0.500203
-0.485563
-0.470206
-0.45439
-0.43833
-0.422261
-0.406052
-0.390812
-0.608047
-0.600994
-0.595345
-0.58935
-0.582972
-0.576179
-0.568756
-0.560452
-0.551022
-0.540283
-0.52816
-0.51471
-0.500105
-0.484601
-0.468481
-0.452017
-0.435426
-0.418923
-0.4024
-0.386868
-0.614982
-0.607551
-0.601661
-0.595416
-0.588742
-0.581573
-0.573654
-0.564714
-0.554506
-0.542873
-0.529787
-0.51536
-0.499823
-0.483472
-0.466616
-0.449533
-0.432438
-0.415528
-0.398709
-0.382899
-0.622012
-0.614207
-0.608077
-0.601577
-0.594589
-0.58701
-0.57855
-0.568919
-0.557878
-0.545304
-0.531223
-0.515809
-0.499347
-0.482169
-0.464604
-0.446931
-0.42936
-0.412065
-0.394969
-0.378895
-0.629114
-0.62094
-0.614572
-0.60781
-0.600488
-0.592464
-0.583415
-0.573037
-0.561109
-0.547551
-0.53245
-0.516044
-0.498667
-0.480685
-0.462439
-0.444205
-0.426184
-0.408526
-0.391168
-0.374843
-0.636261
-0.627726
-0.621122
-0.61409
-0.606412
-0.597906
-0.588217
-0.577036
-0.564169
-0.54959
-0.53345
-0.516051
-0.497775
-0.479014
-0.460114
-0.441348
-0.422901
-0.404901
-0.387297
-0.370732
-0.643426
-0.634537
-0.627701
-0.62039
-0.612332
-0.603304
-0.592922
-0.580883
-0.56703
-0.551396
-0.534205
-0.515817
-0.49666
-0.477146
-0.457623
-0.43835
-0.419501
-0.401179
-0.383343
-0.36655
-0.62668
-0.618216
-0.608622
-0.597496
-0.584546
-0.569662
-0.552946
-0.534695
-0.515329
-0.495313
-0.475074
-0.454956
-0.435204
-0.415975
-0.397351
-0.379298
-0.362287
-0.613825
-0.601901
-0.587989
-0.572035
-0.554216
-0.534903
-0.514574
-0.493724
-0.472789
-0.452105
-0.431901
-0.412314
-0.393405
-0.375149
-0.357933
-0.57412
-0.555183
-0.534813
-0.513539
-0.491883
-0.470282
-0.449061
-0.42843
-0.408506
-0.389333
-0.370888
-0.353477
-0.489779
-0.467543
-0.445814
-0.424782
-0.404544
-0.385123
-0.366503
-0.34891
-0.420946
-0.400415
-0.380765
-0.361985
-0.344223
-0.339405
-0.219236
-0.283451
-0.267197
-0.251623
-0.236745
-0.222724
-0.353916
-0.336822
-0.319645
-0.302672
-0.28611
-0.270098
-0.254706
-0.239952
-0.226059
-0.399144
-0.385341
-0.370337
-0.354439
-0.337998
-0.32136
-0.304815
-0.288586
-0.272827
-0.257628
-0.243006
-0.229246
-0.427887
-0.418863
-0.408614
-0.397008
-0.384045
-0.369867
-0.354729
-0.338953
-0.322868
-0.306769
-0.290888
-0.275394
-0.260397
-0.245913
-0.232289
-0.438192
-0.431219
-0.423617
-0.415136
-0.405549
-0.394703
-0.382551
-0.369182
-0.354804
-0.3397
-0.324182
-0.308542
-0.293022
-0.277804
-0.263019
-0.248679
-0.235195
-0.452642
-0.445225
-0.439404
-0.433213
-0.426545
-0.419335
-0.411355
-0.402388
-0.392258
-0.380884
-0.368304
-0.354678
-0.34025
-0.32531
-0.310144
-0.294998
-0.280067
-0.265501
-0.25131
-0.237969
-0.446896
-0.439832
-0.43424
-0.42829
-0.421913
-0.415067
-0.407553
-0.399159
-0.389702
-0.379069
-0.367254
-0.354368
-0.340617
-0.326263
-0.311581
-0.296822
-0.282188
-0.26785
-0.253812
-0.240617
-0.441224
-0.434518
-0.429156
-0.423445
-0.417345
-0.410841
-0.403756
-0.395894
-0.387065
-0.377133
-0.366053
-0.353892
-0.340813
-0.32705
-0.312862
-0.2985
-0.284174
-0.270071
-0.256192
-0.243144
-0.435648
-0.429299
-0.424171
-0.418697
-0.412864
-0.406679
-0.399991
-0.392619
-0.384373
-0.375101
-0.364724
-0.353266
-0.340852
-0.327681
-0.313995
-0.300041
-0.286031
-0.27217
-0.258454
-0.245556
-0.430185
-0.424194
-0.4193
-0.414062
-0.408487
-0.402602
-0.396281
-0.38936
-0.381653
-0.372997
-0.363287
-0.352508
-0.340745
-0.328165
-0.314987
-0.301449
-0.287764
-0.274154
-0.260604
-0.247859
-0.424852
-0.419215
-0.414557
-0.409553
-0.404229
-0.398628
-0.392648
-0.38614
-0.37893
-0.370847
-0.361764
-0.351636
-0.340507
-0.328512
-0.315844
-0.302729
-0.289378
-0.276027
-0.262647
-0.250059
-0.419661
-0.414375
-0.409953
-0.405181
-0.400102
-0.394772
-0.389107
-0.38298
-0.376226
-0.368671
-0.360177
-0.350666
-0.340151
-0.328731
-0.316573
-0.303887
-0.290878
-0.277793
-0.264588
-0.252162
-0.414624
-0.409682
-0.405496
-0.400956
-0.396117
-0.391044
-0.385676
-0.379899
-0.373561
-0.366493
-0.358544
-0.349617
-0.33969
-0.328831
-0.31718
-0.304927
-0.292267
-0.279456
-0.26643
-0.254176
-0.409748
-0.405144
-0.401192
-0.396883
-0.39228
-0.387456
-0.382365
-0.376911
-0.370954
-0.364331
-0.356886
-0.348504
-0.339138
-0.328823
-0.31767
-0.305852
-0.293546
-0.281019
-0.268177
-0.256107
-0.40504
-0.400765
-0.397046
-0.392967
-0.388597
-0.384014
-0.379185
-0.374029
-0.36842
-0.362203
-0.35522
-0.347344
-0.338507
-0.328714
-0.31805
-0.306664
-0.294719
-0.282485
-0.269832
-0.257965
-0.400503
-0.396548
-0.393061
-0.38921
-0.385071
-0.380722
-0.376142
-0.371263
-0.365973
-0.360124
-0.353563
-0.346153
-0.337809
-0.328514
-0.318324
-0.307367
-0.295786
-0.283855
-0.271397
-0.259759
-0.396139
-0.392495
-0.389237
-0.385614
-0.381702
-0.377582
-0.373241
-0.368621
-0.363622
-0.358108
-0.351928
-0.344945
-0.337059
-0.328232
-0.318498
-0.307963
-0.296747
-0.285129
-0.272872
-0.261498
-0.391948
-0.388606
-0.385573
-0.382176
-0.378491
-0.374596
-0.370483
-0.366107
-0.361376
-0.356164
-0.350329
-0.343732
-0.336266
-0.327877
-0.318576
-0.308451
-0.297599
-0.286307
-0.274259
-0.263193
-0.387928
-0.384878
-0.382067
-0.378895
-0.375434
-0.37176
-0.367869
-0.363723
-0.359239
-0.354302
-0.348776
-0.342527
-0.335441
-0.327455
-0.318562
-0.308833
-0.298342
-0.287386
-0.275553
-0.264856
-0.384076
-0.381307
-0.378716
-0.375766
-0.372528
-0.369071
-0.365396
-0.361468
-0.357213
-0.352525
-0.347277
-0.341338
-0.334595
-0.326976
-0.318461
-0.309108
-0.298971
-0.288363
-0.276752
-0.2665
-0.380386
-0.377891
-0.375514
-0.372785
-0.369766
-0.366524
-0.363059
-0.359339
-0.355298
-0.350836
-0.345836
-0.340173
-0.333735
-0.326445
-0.318276
-0.309277
-0.299481
-0.289231
-0.277849
-0.268136
-0.376852
-0.374623
-0.372457
-0.369945
-0.367144
-0.364113
-0.360853
-0.357333
-0.353491
-0.349237
-0.344458
-0.339038
-0.332867
-0.32587
-0.318012
-0.309338
-0.299866
-0.289981
-0.278833
-0.269775
-0.373469
-0.371498
-0.369539
-0.36724
-0.364653
-0.36183
-0.35877
-0.355442
-0.351788
-0.347723
-0.343143
-0.337936
-0.331998
-0.325255
-0.31767
-0.30929
-0.30012
-0.290603
-0.279691
-0.271423
-0.370229
-0.36851
-0.366753
-0.364663
-0.362287
-0.359667
-0.356801
-0.353659
-0.350183
-0.346292
-0.341889
-0.336869
-0.331132
-0.324606
-0.317255
-0.309132
-0.300232
-0.291081
-0.280401
-0.273083
-0.367126
-0.365653
-0.364094
-0.362208
-0.360037
-0.357616
-0.354939
-0.351974
-0.348666
-0.344937
-0.340694
-0.335836
-0.330269
-0.323925
-0.31677
-0.308862
-0.300196
-0.291395
-0.280938
-0.364152
-0.362921
-0.361555
-0.359868
-0.357897
-0.355669
-0.353174
-0.35038
-0.347231
-0.343651
-0.339551
-0.334835
-0.329413
-0.323217
-0.316217
-0.30848
-0.3
-0.291522
-0.361303
-0.360309
-0.359131
-0.357637
-0.355859
-0.353817
-0.351498
-0.348867
-0.345868
-0.342426
-0.338456
-0.333863
-0.328561
-0.322483
-0.3156
-0.307986
-0.299636
-0.358573
-0.357814
-0.356818
-0.355511
-0.353918
-0.352054
-0.349902
-0.347425
-0.344568
-0.341255
-0.337402
-0.332917
-0.327714
-0.321727
-0.314924
-0.307383
-0.2991
-0.355958
-0.355431
-0.354612
-0.353484
-0.352069
-0.350373
-0.34838
-0.346049
-0.343323
-0.340129
-0.336382
-0.331992
-0.326871
-0.32095
-0.314194
-0.306677
-0.353458
-0.35316
-0.352512
-0.351554
-0.350307
-0.348771
-0.346926
-0.344732
-0.342129
-0.339043
-0.335392
-0.331084
-0.32603
-0.320157
-0.313419
-0.35107
-0.350999
-0.350515
-0.34972
-0.348632
-0.347245
-0.345538
-0.343469
-0.340978
-0.337992
-0.334427
-0.330191
-0.325193
-0.319351
-0.312607
-0.348798
-0.348949
-0.348624
-0.347982
-0.347042
-0.345793
-0.344213
-0.342258
-0.33987
-0.336974
-0.333485
-0.329312
-0.32436
-0.318539
-0.346642
-0.347013
-0.346839
-0.346341
-0.345538
-0.344416
-0.342951
-0.341101
-0.338805
-0.335988
-0.332567
-0.328449
-0.323535
-0.34461
-0.345194
-0.345164
-0.344801
-0.344125
-0.343117
-0.341757
-0.339999
-0.337784
-0.335038
-0.331676
-0.327605
-0.322724
-0.342705
-0.343497
-0.343603
-0.343366
-0.342805
-0.341902
-0.340635
-0.338959
-0.336814
-0.334128
-0.330817
-0.326787
-0.340936
-0.341929
-0.342163
-0.342042
-0.341586
-0.340777
-0.339591
-0.337986
-0.335903
-0.333269
-0.33
-0.326004
-0.339311
-0.340496
-0.34085
-0.340835
-0.340475
-0.339748
-0.338635
-0.337092
-0.33506
-0.33247
-0.329238
-0.337839
-0.339207
-0.339673
-0.339754
-0.33948
-0.338827
-0.337776
-0.336286
-0.334299
-0.331745
-0.328543
-0.33653
-0.33807
-0.338638
-0.338808
-0.33861
-0.338022
-0.337026
-0.335582
-0.333633
-0.33111
-0.335393
-0.337093
-0.337755
-0.338004
-0.337875
-0.337344
-0.336396
-0.334992
-0.333077
-0.330582
-0.334437
-0.336284
-0.337032
-0.337353
-0.337285
-0.336804
-0.335899
-0.334531
-0.332645
-0.333672
-0.335652
-0.336477
-0.336862
-0.336848
-0.336413
-0.335546
-0.334211
-0.332354
-0.333105
-0.335205
-0.336098
-0.33654
-0.336575
-0.33618
-0.335349
-0.334045
-0.332217
-0.332744
-0.334949
-0.335902
-0.336394
-0.336473
-0.336116
-0.335318
-0.334045
-0.332594
-0.33489
-0.335896
-0.336433
-0.33655
-0.336227
-0.335462
-0.334222
-0.33266
-0.335034
-0.336086
-0.33666
-0.336812
-0.336522
-0.335789
-0.334583
-0.332946
-0.335384
-0.336474
-0.337083
-0.337265
-0.337006
-0.336306
-0.333454
-0.335943
-0.337065
-0.337703
-0.337914
-0.337684
-0.337018
-0.334184
-0.336713
-0.337862
-0.338524
-0.33876
-0.338559
-0.337928
-0.335137
-0.337695
-0.338864
-0.339547
-0.339806
-0.339634
-0.33631
-0.338887
-0.340072
-0.340772
-0.341053
-0.340908
-0.337703
-0.34029
-0.341486
-0.3422
-0.3425
-0.342382
-0.33931
-0.341899
-0.343103
-0.343827
-0.344145
-0.344055
-0.341129
-0.343713
-0.34492
-0.345653
-0.345987
-0.343155
-0.345727
-0.346933
-0.347673
-0.348021
-0.345382
-0.347936
-0.349139
-0.349883
-0.350244
-0.347805
-0.350335
-0.351532
-0.352278
-0.352652
-0.350417
-0.352918
-0.354107
-0.354852
-0.353213
-0.355679
-0.356856
-0.3576
-0.356184
-0.358609
-0.359772
-0.360513
-0.359323
-0.361702
-0.362848
-0.363584
-0.362622
-0.364949
-0.366075
-0.366805
-0.366073
-0.368341
-0.369444
-0.370166
-0.369666
-0.371867
-0.372945
-0.373656
-0.373392
-0.375519
-0.376566
-0.377267
-0.377239
-0.379283
-0.380297
-0.381196
-0.383149
-0.384126
-0.385252
-0.387103
-0.388039
-0.389392
-0.391133
-0.392023
-0.393603
-0.395224
-0.396064
-0.397871
-0.399361
-0.400147
-0.402179
-0.403531
-0.404257
-0.406513
-0.407716
-0.408377
-0.316702
-0.321458
-0.326112
-0.330671
-0.335145
-0.339541
-0.343868
-0.348135
-0.35235
-0.356522
-0.360662
-0.364779
-0.368881
-0.37298
-0.377086
-0.381208
-0.385359
-0.389549
-0.393793
-0.398103
-0.402497
-0.406993
-0.411614
-0.416387
-0.292025
-0.296612
-0.301126
-0.305571
-0.309955
-0.314284
-0.318565
-0.322805
-0.327011
-0.331191
-0.335354
-0.339509
-0.343664
-0.34783
-0.352016
-0.356236
-0.360501
-0.364825
-0.369223
-0.373713
-0.378314
-0.383049
-0.387941
-0.393018
-0.269501
-0.273875
-0.278196
-0.282469
-0.286699
-0.290891
-0.295052
-0.299186
-0.3033
-0.307401
-0.311495
-0.31559
-0.319692
-0.32381
-0.327951
-0.332126
-0.336342
-0.34061
-0.344941
-0.349344
-0.353832
-0.358415
-0.363107
-0.367919
-0.249006
-0.253135
-0.257226
-0.261282
-0.265309
-0.26931
-0.27329
-0.277254
-0.281206
-0.285151
-0.289096
-0.293045
-0.297003
-0.300978
-0.304974
-0.309
-0.313061
-0.317164
-0.321318
-0.32553
-0.329809
-0.334164
-0.338606
-0.343147
-0.230226
-0.234097
-0.23794
-0.241758
-0.245556
-0.249336
-0.253102
-0.256859
-0.260609
-0.264358
-0.268109
-0.271867
-0.275636
-0.279421
-0.283228
-0.287062
-0.290928
-0.294833
-0.298783
-0.302784
-0.306845
-0.310973
-0.315176
-0.319464
-0.212983
-0.216588
-0.220174
-0.223743
-0.227298
-0.230841
-0.234376
-0.237906
-0.241433
-0.244962
-0.248495
-0.252037
-0.25559
-0.25916
-0.262749
-0.266363
-0.270006
-0.273681
-0.277396
-0.281153
-0.284959
-0.288819
-0.292739
-0.296726
-0.197099
-0.200442
-0.203772
-0.207089
-0.210397
-0.213698
-0.216994
-0.220287
-0.223582
-0.226879
-0.230182
-0.233495
-0.236819
-0.240158
-0.243515
-0.246894
-0.250298
-0.253731
-0.257197
-0.2607
-0.264244
-0.267834
-0.271475
-0.275171
-0.182439
-0.185527
-0.188604
-0.191674
-0.194738
-0.197797
-0.200854
-0.203911
-0.20697
-0.210033
-0.213103
-0.216182
-0.219273
-0.222377
-0.225498
-0.228639
-0.231802
-0.234991
-0.238208
-0.241458
-0.244743
-0.248067
-0.251434
-0.254849
-0.168882
-0.171724
-0.17456
-0.17739
-0.180216
-0.18304
-0.185863
-0.188688
-0.191516
-0.194348
-0.197188
-0.200036
-0.202895
-0.205767
-0.208654
-0.211558
-0.214483
-0.21743
-0.220402
-0.223402
-0.226432
-0.229496
-0.232596
-0.235737
-0.156324
-0.158934
-0.161539
-0.16414
-0.166739
-0.169337
-0.171935
-0.174536
-0.17714
-0.179749
-0.182365
-0.184989
-0.187623
-0.190269
-0.192928
-0.195603
-0.198296
-0.201009
-0.203743
-0.206502
-0.209286
-0.2121
-0.214946
-0.217826
-0.144678
-0.147068
-0.149455
-0.15184
-0.154223
-0.156607
-0.158991
-0.161378
-0.163769
-0.166165
-0.168567
-0.170976
-0.173395
-0.175824
-0.178266
-0.180722
-0.183192
-0.185681
-0.188188
-0.190716
-0.193267
-0.195843
-0.198446
-0.201079
-0.13386
-0.136046
-0.138229
-0.140411
-0.142592
-0.144774
-0.146957
-0.149143
-0.151332
-0.153526
-0.155726
-0.157933
-0.160148
-0.162372
-0.164608
-0.166855
-0.169116
-0.171392
-0.173684
-0.175995
-0.178325
-0.180677
-0.183052
-0.185452
-0.123805
-0.1258
-0.127794
-0.129786
-0.131779
-0.133772
-0.135767
-0.137764
-0.139765
-0.14177
-0.14378
-0.145797
-0.14782
-0.149852
-0.151894
-0.153946
-0.15601
-0.158087
-0.160178
-0.162284
-0.164408
-0.16655
-0.168712
-0.170896
-0.114449
-0.116268
-0.118086
-0.119903
-0.12172
-0.123538
-0.125358
-0.12718
-0.129006
-0.130835
-0.132668
-0.134507
-0.136353
-0.138206
-0.140066
-0.141937
-0.143817
-0.145708
-0.147612
-0.149529
-0.151461
-0.153408
-0.155372
-0.157355
-0.105736
-0.107393
-0.109048
-0.110704
-0.11236
-0.114016
-0.115674
-0.117334
-0.118997
-0.120663
-0.122333
-0.124008
-0.125688
-0.127375
-0.129069
-0.13077
-0.132481
-0.1342
-0.135931
-0.137672
-0.139427
-0.141194
-0.142976
-0.144774
-0.0976186
-0.0991262
-0.100633
-0.10214
-0.103646
-0.105154
-0.106663
-0.108173
-0.109686
-0.111202
-0.112722
-0.114245
-0.115773
-0.117307
-0.118846
-0.120392
-0.121946
-0.123508
-0.125078
-0.126659
-0.12825
-0.129852
-0.131467
-0.133094
-0.0900525
-0.0914232
-0.0927933
-0.0941633
-0.0955334
-0.0969042
-0.0982761
-0.0996495
-0.101025
-0.102403
-0.103784
-0.105168
-0.106556
-0.107949
-0.109347
-0.11075
-0.11216
-0.113577
-0.115001
-0.116434
-0.117875
-0.119326
-0.120788
-0.12226
-0.0829962
-0.0842419
-0.0854871
-0.0867321
-0.0879772
-0.0892229
-0.0904694
-0.0917172
-0.0929666
-0.0942181
-0.0954721
-0.096729
-0.0979892
-0.0992532
-0.100522
-0.101795
-0.103073
-0.104357
-0.105648
-0.106945
-0.10825
-0.109563
-0.110885
-0.112216
-0.0775463
-0.0786774
-0.0798083
-0.0809392
-0.0820705
-0.0832025
-0.0843355
-0.0854699
-0.0866059
-0.087744
-0.0888845
-0.0900277
-0.0911741
-0.0923241
-0.0934781
-0.0946364
-0.0957997
-0.0969682
-0.0981425
-0.0993231
-0.10051
-0.101705
-0.102908
-0.0713014
-0.0723286
-0.0733555
-0.0743824
-0.0754095
-0.0764371
-0.0774655
-0.078495
-0.0795258
-0.0805582
-0.0815926
-0.0826293
-0.0836686
-0.0847108
-0.0857563
-0.0868055
-0.0878587
-0.0889163
-0.0899787
-0.0910464
-0.0921196
-0.093199
-0.094285
-0.0654772
-0.0664098
-0.067342
-0.0682741
-0.0692064
-0.070139
-0.0710721
-0.0720061
-0.0729411
-0.0738774
-0.0748153
-0.075755
-0.0766969
-0.0776411
-0.078588
-0.0795379
-0.0804912
-0.0814481
-0.0824089
-0.0833741
-0.084344
-0.085319
-0.0862994
-0.0600447
-0.0608913
-0.0617375
-0.0625835
-0.0634295
-0.0642757
-0.0651223
-0.0659695
-0.0668174
-0.0676664
-0.0685166
-0.0693682
-0.0702216
-0.0710768
-0.0719342
-0.0727941
-0.0736567
-0.0745222
-0.0753911
-0.0762634
-0.0771397
-0.0780201
-0.078905
-0.0797947
-0.0549778
-0.0557463
-0.0565143
-0.0572821
-0.0580498
-0.0588176
-0.0595856
-0.0603539
-0.0611229
-0.0618925
-0.0626631
-0.0634349
-0.0642079
-0.0649825
-0.0657588
-0.0665371
-0.0673176
-0.0681004
-0.0688859
-0.0696744
-0.0704659
-0.0712609
-0.0720596
-0.0728622
-0.0502523
-0.0509499
-0.0516471
-0.0523439
-0.0530405
-0.0537371
-0.0544338
-0.0551307
-0.0558279
-0.0565257
-0.0572241
-0.0579234
-0.0586237
-0.0593252
-0.060028
-0.0607324
-0.0614385
-0.0621466
-0.0628567
-0.0635693
-0.0642843
-0.0650022
-0.065723
-0.0664471
-0.0458458
-0.0464792
-0.047112
-0.0477445
-0.0483767
-0.0490087
-0.0496407
-0.0502728
-0.050905
-0.0515376
-0.0521707
-0.0528044
-0.0534388
-0.0540741
-0.0547104
-0.0553479
-0.0559867
-0.0566271
-0.0572692
-0.0579131
-0.058559
-0.0592072
-0.0598578
-0.060511
-0.0417371
-0.0423123
-0.0428869
-0.043461
-0.0440349
-0.0446085
-0.0451819
-0.0457553
-0.0463287
-0.0469023
-0.0474762
-0.0480505
-0.0486252
-0.0492006
-0.0497768
-0.0503538
-0.0509319
-0.0515111
-0.0520916
-0.0526736
-0.0532572
-0.0538425
-0.0544297
-0.0550191
-0.0379076
-0.0384301
-0.0389519
-0.0394733
-0.0399943
-0.0405149
-0.0410353
-0.0415555
-0.0420756
-0.0425958
-0.0431161
-0.0436366
-0.0441574
-0.0446786
-0.0452003
-0.0457227
-0.0462458
-0.0467698
-0.0472947
-0.0478208
-0.0483481
-0.0488767
-0.0494069
-0.0499387
-0.0343391
-0.0348138
-0.0352879
-0.0357614
-0.0362345
-0.0367072
-0.0371796
-0.0376517
-0.0381236
-0.0385954
-0.0390672
-0.0395391
-0.0400111
-0.0404833
-0.0409559
-0.0414288
-0.0419023
-0.0423764
-0.0428512
-0.0433268
-0.0438033
-0.0442808
-0.0447595
-0.0452394
-0.0310159
-0.0314472
-0.0318779
-0.0323081
-0.0327377
-0.0331669
-0.0335958
-0.0340243
-0.0344525
-0.0348806
-0.0353085
-0.0357363
-0.0361642
-0.0365921
-0.0370202
-0.0374485
-0.0378771
-0.0383061
-0.0387356
-0.0391656
-0.0395963
-0.0400278
-0.04046
-0.0408933
-0.0279215
-0.0283136
-0.0287051
-0.0290959
-0.0294863
-0.0298761
-0.0302656
-0.0306546
-0.0310433
-0.0314317
-0.0318199
-0.0322079
-0.0325958
-0.0329837
-0.0333716
-0.0337595
-0.0341476
-0.0345359
-0.0349245
-0.0353134
-0.0357028
-0.0360926
-0.0364831
-0.0368742
-0.0250418
-0.0253983
-0.0257542
-0.0261094
-0.0264642
-0.0268184
-0.0271721
-0.0275254
-0.0278783
-0.0282309
-0.0285831
-0.0289351
-0.0292869
-0.0296385
-0.02999
-0.0303414
-0.0306929
-0.0310444
-0.0313961
-0.0317479
-0.0320999
-0.0324523
-0.032805
-0.0331582
-0.022363
-0.0226873
-0.0230109
-0.023334
-0.0236564
-0.0239783
-0.0242998
-0.0246207
-0.0249412
-0.0252612
-0.0255809
-0.0259003
-0.0262194
-0.0265382
-0.0268569
-0.0271753
-0.0274937
-0.027812
-0.0281302
-0.0284485
-0.0287669
-0.0290854
-0.0294041
-0.0297231
-0.0198726
-0.0201676
-0.0204621
-0.0207559
-0.0210491
-0.0213418
-0.0216339
-0.0219255
-0.0222166
-0.0225073
-0.0227975
-0.0230873
-0.0233768
-0.023666
-0.0239549
-0.0242435
-0.024532
-0.0248202
-0.0251083
-0.0253963
-0.0256843
-0.0259723
-0.0262603
-0.0265484
-0.0175587
-0.0178273
-0.0180952
-0.0183625
-0.0186292
-0.0188953
-0.0191609
-0.0194259
-0.0196904
-0.0199545
-0.020218
-0.0204811
-0.0207438
-0.0210062
-0.0212681
-0.0215298
-0.0217911
-0.0220522
-0.0223131
-0.0225737
-0.0228342
-0.0230946
-0.0233549
-0.0236151
-0.0154103
-0.0156548
-0.0158987
-0.016142
-0.0163846
-0.0166267
-0.0168682
-0.0171091
-0.0173495
-0.0175894
-0.0178288
-0.0180676
-0.0183061
-0.0185441
-0.0187817
-0.0190189
-0.0192557
-0.0194923
-0.0197285
-0.0199644
-0.0202001
-0.0204356
-0.0206708
-0.020906
-0.013417
-0.0136397
-0.0138618
-0.0140832
-0.014304
-0.0145243
-0.0147439
-0.014963
-0.0151815
-0.0153995
-0.015617
-0.0158339
-0.0160503
-0.0162663
-0.0164818
-0.0166969
-0.0169116
-0.0171259
-0.0173398
-0.0175534
-0.0177666
-0.0179796
-0.0181923
-0.0184047
-0.0115691
-0.011772
-0.0119742
-0.0121759
-0.0123769
-0.0125773
-0.0127772
-0.0129764
-0.0131751
-0.0133732
-0.0135708
-0.0137678
-0.0139643
-0.0141603
-0.0143558
-0.0145509
-0.0147455
-0.0149397
-0.0151334
-0.0153267
-0.0155197
-0.0157123
-0.0159045
-0.0160965
-0.0098575
-0.0100424
-0.0102267
-0.0104103
-0.0105934
-0.0107758
-0.0109576
-0.0111389
-0.0113195
-0.0114996
-0.0116791
-0.0118581
-0.0120366
-0.0122145
-0.0123919
-0.0125688
-0.0127452
-0.0129211
-0.0130966
-0.0132716
-0.0134462
-0.0136204
-0.0137942
-0.0139676
-0.00827377
-0.00844231
-0.00861022
-0.00877752
-0.00894421
-0.00911029
-0.00927578
-0.00944067
-0.00960498
-0.00976871
-0.00993187
-0.0100945
-0.0102565
-0.010418
-0.010579
-0.0107394
-0.0108993
-0.0110588
-0.0112177
-0.0113761
-0.0115341
-0.0116916
-0.0118487
-0.0120054
-0.00680995
-0.0069636
-0.00711664
-0.00726908
-0.0074209
-0.00757213
-0.00772276
-0.0078728
-0.00802225
-0.00817113
-0.00831942
-0.00846714
-0.00861431
-0.00876091
-0.00890697
-0.00905248
-0.00919747
-0.00934192
-0.00948586
-0.0096293
-0.00977223
-0.00991468
-0.0100567
-0.0101982
-0.00545856
-0.00559867
-0.00573818
-0.0058771
-0.00601541
-0.00615314
-0.00629027
-0.00642681
-0.00656277
-0.00669814