/*--------------------------------*- C++ -*----------------------------------*\
  =========                 |
  \\      /  F ield         | OpenFOAM: The Open Source CFD Toolbox
   \\    /   O peration     | Website:  https://openfoam.org
    \\  /    A nd           | Version:  7
     \\/     M anipulation  |
\*---------------------------------------------------------------------------*/
FoamFile
{
    version     2.0;
    format      ascii;
    class       surfaceScalarField;
    location    "180";
    object      phi;
}
// * * * * * * * * * * * * * * * * * * * * * * * * * * * * * * * * * * * * * //

dimensions      [0 3 -1 0 0 0 0];

internalField   nonuniform List<scalar> 
8842
(
-8.19429e-07
5.89728e-05
-5.81533e-05
-3.34513e-06
0.000156356
-0.000153831
0.000238237
-0.000233907
-6.62931e-07
5.96357e-05
-2.80098e-06
0.000158494
0.000242007
-5.00718e-07
6.01364e-05
-2.23385e-06
0.000160227
0.000245187
-3.34014e-07
6.04704e-05
-1.64771e-06
0.000161541
0.000247752
-1.64068e-07
6.06345e-05
-1.04688e-06
0.000162424
0.000249678
5.04972e-09
6.06294e-05
-4.36316e-07
0.000162865
0.000250948
1.79373e-07
6.04501e-05
1.79559e-07
0.000162865
0.000251551
3.4923e-07
6.01008e-05
7.94721e-07
0.00016242
0.000251478
5.16417e-07
5.95844e-05
1.4038e-06
0.000161532
2.15333e-06
0.000250729
0.000326827
6.79049e-07
5.89054e-05
2.00106e-06
0.00016021
3.42313e-06
0.000249307
0.000325724
8.35373e-07
5.807e-05
2.58072e-06
0.000158465
4.66486e-06
0.000247223
0.000323746
9.83774e-07
5.70862e-05
3.13684e-06
0.000156312
5.86647e-06
0.000244493
0.000320908
1.12274e-06
5.59635e-05
3.66396e-06
0.000153771
7.01613e-06
0.000241141
0.000317229
1.25086e-06
5.47126e-05
4.15686e-06
0.000150865
8.10268e-06
0.000237195
0.000312737
1.36687e-06
5.33458e-05
4.61067e-06
0.000147621
9.11555e-06
0.00023269
0.00030747
1.46962e-06
5.18761e-05
5.02097e-06
0.000144069
1.00449e-05
0.000227666
0.00030147
1.55811e-06
5.0318e-05
5.38377e-06
0.000140244
1.0882e-05
0.000222168
1.75644e-05
0.000294788
0.000357163
1.63147e-06
4.86866e-05
5.69557e-06
0.00013618
1.16187e-05
0.000216245
1.89271e-05
0.000287479
0.000348829
1.68899e-06
4.69976e-05
5.95338e-06
0.000131915
1.22481e-05
0.00020995
2.01205e-05
0.000279607
0.000339725
1.73014e-06
4.52674e-05
6.15486e-06
0.000127491
1.27645e-05
0.00020334
2.11341e-05
0.000271237
0.000329924
1.75456e-06
4.35129e-05
6.2984e-06
0.000122947
1.31639e-05
0.000196475
2.19597e-05
0.000262441
3.2382e-05
0.000319501
0.000366696
1.76212e-06
4.17507e-05
6.3831e-06
0.000118326
1.34436e-05
0.000189414
2.2592e-05
0.000253293
3.35543e-05
0.000308539
0.000354099
1.75286e-06
3.99979e-05
6.40888e-06
0.00011367
1.3603e-05
0.00018222
2.30287e-05
0.000243867
3.44471e-05
0.000297121
0.000340842
1.72707e-06
3.82708e-05
6.37651e-06
0.00010902
1.3643e-05
0.000174954
2.32705e-05
0.00023424
3.50602e-05
0.000285331
0.000327015
1.68527e-06
3.65856e-05
6.28771e-06
0.000104418
1.35669e-05
0.000167675
2.33218e-05
0.000224485
3.53988e-05
0.000273254
4.9708e-05
0.000312706
0.000341898
1.62825e-06
3.49573e-05
6.1452e-06
9.99009e-05
1.33799e-05
0.00016044
2.31909e-05
0.000214674
3.5474e-05
0.000260971
5.01789e-05
0.000298001
0.000324748
1.55707e-06
3.34002e-05
5.95278e-06
9.55052e-05
1.30897e-05
0.000153303
2.28902e-05
0.000204873
3.53035e-05
0.000248558
5.03235e-05
0.000282981
0.000307063
1.47312e-06
3.19271e-05
5.7154e-06
9.12629e-05
1.27067e-05
0.000146312
2.24365e-05
0.000195143
3.49116e-05
0.000236082
5.01745e-05
0.000267718
6.83247e-05
0.000288913
0.000298775
1.37808e-06
3.0549e-05
5.43919e-06
8.72018e-05
1.22436e-05
0.000139507
2.18511e-05
0.000185536
3.43296e-05
0.000223604
4.97747e-05
0.000252273
6.83323e-05
0.000270355
0.000276884
1.274e-06
2.9275e-05
5.13149e-06
8.33443e-05
1.17159e-05
0.000132923
2.11598e-05
0.000176092
3.3596e-05
0.000211168
4.91773e-05
0.000236692
6.81019e-05
0.00025143
0.000254346
1.16322e-06
2.81118e-05
4.80083e-06
7.97067e-05
1.11414e-05
0.000126582
2.0393e-05
0.00016684
3.2756e-05
0.000198805
4.84454e-05
0.000221002
6.77175e-05
0.000232158
9.08985e-05
0.000231165
0.000217026
1.04845e-06
2.70634e-05
4.45683e-06
7.62983e-05
1.05405e-05
0.000120499
1.95848e-05
0.000157796
3.18612e-05
0.000186528
4.76512e-05
0.000205212
6.72753e-05
0.000212534
9.11243e-05
0.000207316
0.000188461
9.32634e-07
2.61307e-05
4.1101e-06
7.31208e-05
9.93543e-06
0.000114673
1.87732e-05
0.000148958
3.09688e-05
0.000174333
4.68747e-05
0.000189306
6.68824e-05
0.000192526
9.14554e-05
0.000182743
0.000121161
0.000158755
0.000119344
8.18983e-07
2.53118e-05
3.772e-06
7.01678e-05
9.3502e-06
0.000109095
1.79988e-05
0.00014031
3.014e-05
0.000162192
4.62022e-05
0.000173244
6.66541e-05
0.000172075
9.20401e-05
0.000157357
0.000123014
0.000127781
8.19898e-05
7.10845e-07
2.46009e-05
3.4544e-06
6.74242e-05
8.80972e-06
0.00010374
1.73039e-05
0.000131816
2.94388e-05
0.000150057
4.57233e-05
0.000156959
6.671e-05
0.000151088
9.30319e-05
0.000131035
0.000125437
9.53754e-05
4.26087e-05
6.11632e-07
2.39893e-05
3.16931e-06
6.48666e-05
8.33925e-06
9.85698e-05
1.67312e-05
0.000123424
2.89297e-05
0.000137858
4.55286e-05
0.000140361
6.71703e-05
0.000129446
9.45834e-05
0.000103622
0.000128618
6.13411e-05
0.000170269
9.57696e-07
-7.93155e-05
5.24705e-07
2.34646e-05
2.92856e-06
6.24627e-05
7.96356e-06
9.35348e-05
1.63229e-05
0.000115064
2.8676e-05
0.000125505
4.57062e-05
0.00012333
6.81509e-05
0.000107002
9.68403e-05
7.49325e-05
0.000132729
2.5452e-05
0.000176918
-4.3231e-05
-0.000133047
4.53248e-07
2.30113e-05
2.74333e-06
6.01726e-05
7.70611e-06
8.8572e-05
1.61185e-05
0.000106652
2.87372e-05
0.000112886
4.63383e-05
0.000105729
6.97591e-05
8.35808e-05
9.99348e-05
4.47569e-05
0.000137927
-1.254e-05
0.000184935
-9.02389e-05
0.000242282
-0.000190394
-0.000315134
4.00154e-07
2.26112e-05
2.6238e-06
5.7949e-05
7.58822e-06
8.36076e-05
1.61539e-05
9.80861e-05
2.91667e-05
9.98737e-05
4.74985e-05
8.73974e-05
7.2089e-05
5.89903e-05
0.00010398
1.28662e-05
0.000144336
-5.28962e-05
0.000194447
-0.00014035
0.000255694
-0.000251641
-0.000388914
3.67905e-07
2.22433e-05
2.57874e-06
5.57381e-05
7.62828e-06
7.85581e-05
1.64602e-05
8.92542e-05
3.00104e-05
8.63235e-05
4.92485e-05
6.81593e-05
7.52175e-05
3.30212e-05
0.000109064
-2.098e-05
0.000152049
-9.58812e-05
0.000205535
-0.000193836
0.000270934
-0.00031704
0.0003496
-0.00046758
-0.000647211
3.58343e-07
2.18849e-05
2.61499e-06
5.34815e-05
7.84089e-06
7.33322e-05
1.70619e-05
8.00332e-05
3.13042e-05
7.20812e-05
5.16355e-05
4.7828e-05
7.92011e-05
5.45563e-06
0.000115247
-5.70255e-05
0.000161118
-0.000141753
0.000218229
-0.000250948
0.000287984
-0.000386794
0.000371644
-0.00055124
-0.000745705
3.7312e-07
2.15118e-05
2.73813e-06
5.11165e-05
8.2374e-06
6.78329e-05
1.79774e-05
7.02932e-05
3.30741e-05
5.69845e-05
5.46919e-05
2.62102e-05
8.40745e-05
-2.3927e-05
0.000122558
-9.55089e-05
0.000171556
-0.00019075
0.000232504
-0.000311896
0.000306756
-0.000461047
0.000395425
-0.000639908
0.000499159
-0.00084944
-0.00108946
4.1289e-07
2.10989e-05
2.95097e-06
4.85784e-05
8.8241e-06
6.19598e-05
1.92172e-05
5.99001e-05
3.53341e-05
4.08675e-05
5.84329e-05
3.11144e-06
8.9849e-05
-5.5343e-05
0.000130996
-0.000136656
0.000183332
-0.000243087
0.000248283
-0.000376846
0.000327105
-0.000539869
0.000420697
-0.0007335
0.000529365
-0.000958108
0.000652575
-0.00121267
-0.00149441
4.77841e-07
2.06211e-05
3.25455e-06
4.58017e-05
9.6033e-06
5.5611e-05
2.07846e-05
4.87189e-05
3.80873e-05
2.35648e-05
6.28576e-05
-2.1659e-05
9.65135e-05
-8.89989e-05
0.000140529
-0.000180672
0.000196382
-0.000298939
0.000265445
-0.00044591
0.000348828
-0.000623252
0.000447157
-0.000831829
0.000560332
-0.00107128
0.000687291
-0.00133963
-0.00163298
5.67587e-07
2.00535e-05
3.64792e-06
4.27213e-05
1.05732e-05
4.86857e-05
2.26761e-05
3.6616e-05
4.13259e-05
4.91505e-06
6.79501e-05
-4.82832e-05
0.000104036
-0.000125085
0.000151099
-0.000227734
0.000210602
-0.000358443
0.000283827
-0.000519135
0.00037168
-0.000711105
0.000474458
-0.000934607
0.000591602
-0.00118843
0.000721496
-0.00146952
0.00086139
-0.00177287
-0.00209171
6.81244e-07
1.93722e-05
4.12841e-06
3.92742e-05
1.17284e-05
4.10857e-05
2.48819e-05
2.34626e-05
4.50328e-05
-1.52358e-05
7.36804e-05
-7.69308e-05
0.000112366
-0.000163771
0.000162622
-0.00027799
0.000225864
-0.000421685
0.000303234
-0.000596505
0.000395383
-0.000803254
0.000502225
-0.00104145
0.000622705
-0.00130891
0.000754647
-0.00160146
0.00089476
-0.00191299
0.00103885
-0.0022358
-0.00256121
8.17522e-07
1.85547e-05
4.69191e-06
3.53998e-05
1.30605e-05
3.27171e-05
2.73869e-05
9.13619e-06
4.91826e-05
-3.70316e-05
8.00073e-05
-0.000107756
0.000121438
-0.000205202
0.000174996
-0.000331548
0.000242012
-0.000488701
0.000323443
-0.000677935
0.000419632
-0.000899443
0.000530067
-0.00115188
0.000653171
-0.00143201
0.000786225
-0.00173452
0.000925471
-0.00205223
0.00106643
-0.00237676
-0.0026992
9.74842e-07
1.75799e-05
5.33323e-06
3.10414e-05
1.45586e-05
2.34917e-05
3.01718e-05
-6.47706e-06
5.37436e-05
-6.06033e-05
8.68801e-05
-0.000140892
0.000131174
-0.000249496
0.000188104
-0.000388477
0.000258877
-0.000559474
0.000344216
-0.000763274
0.000444113
-0.00099934
0.00055759
-0.00126536
0.000682547
-0.00155697
0.00081576
-0.00186773
0.000953096
-0.00218957
0.00108993
-0.0025136
0.00122171
-0.00283099
-0.00313498
1.15146e-06
1.64284e-05
6.04646e-06
2.61464e-05
1.62101e-05
1.33281e-05
3.32145e-05
-2.34814e-05
5.86792e-05
-8.6068e-05
9.42416e-05
-0.000176454
0.000141486
-0.00029674
0.000201817
-0.000448808
0.000276276
-0.000633933
0.000365307
-0.000852305
0.000468506
-0.00110254
0.000584411
-0.00138127
0.000710409
-0.00168296
0.000842835
-0.00200016
0.000977291
-0.00232402
0.00110914
-0.00264545
0.00123412
-0.00295597
0.00134871
-0.00324957
-0.0035204
1.34557e-06
1.50828e-05
6.82535e-06
2.06666e-05
1.80017e-05
2.15173e-06
3.64907e-05
-4.19704e-05
6.39497e-05
-0.000113527
0.00010203
-0.000214534
0.00015228
-0.000346991
0.000215999
-0.000512527
0.000294018
-0.000711953
0.000386461
-0.000944748
0.000492495
-0.00120857
0.000610164
-0.00149893
0.000736376
-0.00180918
0.000867102
-0.00213088
0.000997799
-0.00245472
0.00112396
-0.00277161
0.00124172
-0.00307372
0.00134816
-0.003356
0.00144186
-0.0036141
-0.00385235
1.55542e-06
1.35274e-05
7.66358e-06
1.45585e-05
1.99194e-05
-1.01041e-05
3.99752e-05
-6.20262e-05
6.95135e-05
-0.000143065
0.000110179
-0.0002552
0.000163461
-0.000400272
0.00023051
-0.000579576
0.000311912
-0.000793355
0.000407429
-0.00104027
0.000515776
-0.00131692
0.00063451
-0.00161767
0.000760109
-0.00193478
0.000888278
-0.00225905
0.00101445
-0.00258089
0.00113438
-0.00289154
0.00124467
-0.00318401
0.00134305
-0.00345439
0.00142877
-0.00369983
-0.0039257
0.00150213
1.77938e-06
1.1748e-05
8.55505e-06
7.78282e-06
2.19496e-05
-2.34987e-05
4.36429e-05
-8.37195e-05
7.53285e-05
-0.000174751
0.000118624
-0.000298496
0.000174927
-0.000456575
0.000245209
-0.000649858
0.000329765
-0.000877912
0.000427965
-0.00113847
0.000538059
-0.00142701
0.000657141
-0.00173675
0.000781326
-0.00205896
0.000906157
-0.00238388
0.00102716
-0.0027019
0.00114045
-0.00300483
0.00124318
-0.00328674
0.00133373
-0.00354494
0.00141194
-0.00377803
-0.00399224
0.00147847
2.01599e-06
9.73205e-06
9.49403e-06
3.04783e-07
2.40791e-05
-3.80838e-05
4.74688e-05
-0.000107109
8.13524e-05
-0.000208634
0.000127298
-0.000344441
0.00018658
-0.000515857
0.000259953
-0.000723231
0.000347387
-0.000965347
0.000447833
-0.00123891
0.000559077
-0.00153826
0.000677788
-0.00185546
0.0007998
-0.00218097
0.000920601
-0.00250468
0.00103593
-0.00281723
0.00114233
-0.00311123
0.00123755
-0.00338196
0.00132057
-0.00362796
0.00139177
-0.00384923
-0.00405259
0.00145213
2.264e-06
7.46805e-06
1.04753e-05
-7.90648e-06
2.62951e-05
-5.39036e-05
5.14285e-05
-0.000132243
8.75434e-05
-0.000244749
0.000136133
-0.000393031
0.000198319
-0.000578043
0.000274601
-0.000799513
0.000364594
-0.00105534
0.00046681
-0.00134113
0.000578587
-0.00165003
0.000696224
-0.0019731
0.000815362
-0.00230011
0.000931543
-0.00262086
0.00104081
-0.0029265
0.00114021
-0.00321063
0.00122807
-0.00346981
0.00130396
-0.00370385
0.00136868
-0.00391396
-0.00410737
0.00142346
2.52234e-06
4.94571e-06
1.14939e-05
-1.68781e-05
2.85857e-05
-7.09953e-05
5.54983e-05
-0.000159155
9.386e-05
-0.000283111
0.000145064
-0.000444235
0.000210045
-0.000643025
0.000289016
-0.000878484
0.000381207
-0.00114753
0.000484688
-0.00144461
0.000596376
-0.00176172
0.000712265
-0.00208899
0.000827901
-0.00241575
0.000938979
-0.00273194
0.00104193
-0.00302945
0.00113433
-0.00330303
0.00121508
-0.00355056
0.00128426
-0.00377304
0.00134305
-0.00397275
-0.00415716
0.00139283
2.79011e-06
2.1556e-06
1.25457e-05
-2.66337e-05
3.09395e-05
-8.93891e-05
5.9655e-05
-0.000187871
0.000100261
-0.000323717
0.000154024
-0.000497998
0.00022166
-0.000710661
0.000303063
-0.000959886
0.000397057
-0.00124152
0.000501279
-0.00154883
0.000612261
-0.0018727
0.000725773
-0.0022025
0.000837358
-0.00252733
0.00094296
-0.00283754
0.00103945
-0.00312594
0.00112496
-0.00338854
0.00119892
-0.00362452
0.00126186
-0.00383598
0.00131523
-0.00402612
-0.00420247
0.00136055
3.06655e-06
-9.10954e-07
1.36264e-05
-3.71935e-05
3.33454e-05
-0.000109108
6.38757e-05
-0.000218401
0.000106706
-0.000366548
0.000162947
-0.000554239
0.000233067
-0.000780781
0.00031661
-0.00104343
0.000411987
-0.0013369
0.000516414
-0.00165326
0.000626095
-0.00198239
0.000736654
-0.00231306
0.000843729
-0.00263441
0.000943587
-0.0029374
0.00103359
-0.00321594
0.00111239
-0.00346734
0.00117992
-0.00369205
0.0012371
-0.00389316
0.00128557
-0.00407458
-0.00424379
0.00132688
3.35098e-06
-4.26193e-06
1.47321e-05
-4.85746e-05
3.57926e-05
-0.000130169
6.81375e-05
-0.000250746
0.000113153
-0.000411563
0.000171768
-0.000612854
0.000244169
-0.000853182
0.000329533
-0.00112879
0.000425851
-0.00143322
0.000529948
-0.00175735
0.000637763
-0.0020902
0.000744859
-0.00242016
0.000847055
-0.0027366
0.000941001
-0.00303135
0.00102456
-0.0032995
0.00109692
-0.0035397
0.00115843
-0.00375357
0.00121032
-0.00394504
0.00125434
-0.00411861
-0.00428153
0.00129208
3.64272e-06
-7.90465e-06
1.58589e-05
-6.07908e-05
3.82699e-05
-0.00015258
7.24171e-05
-0.000284893
0.000119562
-0.000458708
0.00018042
-0.000673712
0.000254874
-0.000927636
0.000341714
-0.00121563
0.000438518
-0.00153002
0.000541761
-0.0018606
0.000647184
-0.00219562
0.000750378
-0.00252335
0.000847415
-0.00283364
0.000935376
-0.00311931
0.00101263
-0.00337676
0.00107885
-0.00360591
0.00113475
-0.00380947
0.0011818
-0.00399209
0.00122181
-0.00415862
-0.00431608
0.00125636
3.94107e-06
-1.18457e-05
1.70027e-05
-7.38525e-05
4.0766e-05
-0.000176343
7.66908e-05
-0.000320818
0.000125889
-0.000507906
0.000188838
-0.000736662
0.000265091
-0.00100389
0.000353041
-0.00130358
0.000449873
-0.00162685
0.000551758
-0.00196248
0.000654315
-0.00229818
0.000753239
-0.00262227
0.000844924
-0.00292533
0.000926908
-0.00320129
0.000998056
-0.00344791
0.00105846
-0.00366632
0.00110918
-0.00386019
0.00115181
-0.00403472
0.00118821
-0.00419502
-0.00434775
0.00121988
4.24525e-06
-1.6091e-05
1.81592e-05
-8.77664e-05
4.3269e-05
-0.000201453
8.09339e-05
-0.000358483
0.000132092
-0.000559064
0.000196958
-0.000801528
0.000274733
-0.00108166
0.000363415
-0.00139227
0.000459819
-0.00172326
0.00055987
-0.00206253
0.00065914
-0.00239745
0.000753504
-0.00271664
0.000839723
-0.00301154
0.000915807
-0.00327738
0.000981089
-0.00351319
0.00103605
-0.00372128
0.00108199
-0.00390613
0.00112061
-0.00407334
0.00115374
-0.00422816
-0.00437682
0.00118281
4.55439e-06
-2.06454e-05
1.93237e-05
-0.000102536
4.57663e-05
-0.000227895
8.51212e-05
-0.000397838
0.000138129
-0.000612071
0.000204715
-0.000868115
0.000283719
-0.00116067
0.000372746
-0.00148129
0.000468279
-0.00181879
0.000566056
-0.00216031
0.000661677
-0.00249307
0.000751262
-0.00280622
0.000831976
-0.00309226
0.000902295
-0.0033477
0.000961988
-0.00357288
0.00101186
-0.00377116
0.00105341
-0.00394767
0.00108839
-0.00410832
0.00111856
-0.00425834
-0.00440351
0.00114526
4.86747e-06
-2.55128e-05
2.04911e-05
-0.000118159
4.82449e-05
-0.000255649
8.92267e-05
-0.00043882
0.000143955
-0.0006668
0.000212049
-0.000936209
0.000291973
-0.00124059
0.000380957
-0.00157028
0.000475192
-0.00191303
0.000570297
-0.00225541
0.000661969
-0.00258474
0.000746625
-0.00289088
0.000821857
-0.00316749
0.000886594
-0.00341243
0.000940998
-0.00362729
0.000986151
-0.00381631
0.00102367
-0.00398519
0.00105533
-0.00413998
0.00108282
-0.00428582
-0.00442804
0.00110735
5.18332e-06
-3.06961e-05
2.16559e-05
-0.000134632
5.06907e-05
-0.000284684
9.32236e-05
-0.000481353
0.00014953
-0.000723106
0.000218901
-0.00100558
0.000299427
-0.00132112
0.000387984
-0.00165883
0.00048052
-0.00200556
0.000572599
-0.00234749
0.000660082
-0.00267223
0.000739724
-0.00297052
0.000809551
-0.00323732
0.000868925
-0.00347181
0.000918351
-0.00367671
0.000959131
-0.00385709
0.000992968
-0.00401903
0.00102161
-0.00416862
0.00104664
-0.00431085
-0.00445055
0.00106915
5.50067e-06
-3.61968e-05
2.28124e-05
-0.000151944
5.30896e-05
-0.000314961
9.70852e-05
-0.000525348
0.00015481
-0.00078083
0.000225216
-0.00107599
0.000306021
-0.00140192
0.000393777
-0.00174659
0.000484242
-0.00209603
0.000572991
-0.00243624
0.000656103
-0.00275534
0.000730703
-0.00304512
0.000795249
-0.00330186
0.000849501
-0.00352606
0.000894263
-0.00372148
0.000931004
-0.00389383
0.000961468
-0.00404949
0.000987348
-0.0041945
0.00101011
-0.00433361
-0.00447117
0.00103073
5.81815e-06
-4.2015e-05
2.39544e-05
-0.00017008
5.54265e-05
-0.000346433
0.000100785
-0.000570706
0.000159755
-0.000839801
0.000230943
-0.00114717
0.000311703
-0.00148268
0.000398299
-0.00183319
0.000486355
-0.00218408
0.000571519
-0.00252141
0.000650133
-0.00283395
0.000719715
-0.0031147
0.000779138
-0.00336129
0.000828527
-0.00357545
0.000868934
-0.00376188
0.000901949
-0.00392685
0.00092932
-0.00407686
0.000952662
-0.00421784
0.000973322
-0.00435427
-0.00449002
0.000992167
6.13421e-06
-4.81492e-05
2.50752e-05
-0.000189021
5.76865e-05
-0.000379044
0.000104295
-0.000617315
0.000164328
-0.000899834
0.000236037
-0.00121888
0.000316433
-0.00156308
0.00040153
-0.00191828
0.000486875
-0.00226943
0.000568247
-0.00260278
0.000642289
-0.00290799
0.000706916
-0.00317933
0.000761404
-0.00341577
0.000806195
-0.00362024
0.000842547
-0.00379824
0.000872125
-0.00395642
0.000896652
-0.00410139
0.000917651
-0.00423884
0.000936344
-0.00437297
-0.00450716
0.000953491
6.44712e-06
2.61682e-05
5.98543e-05
0.000107591
-0.000665052
0.000168493
-0.000960736
0.000240459
-0.00129085
0.000320178
-0.0016428
0.00040346
-0.00200156
0.000485832
-0.0023518
0.000563251
-0.0026802
0.000632692
-0.00297743
0.000692468
-0.00323911
0.000742224
-0.00346553
0.000782686
-0.0036607
0.000815267
-0.00383082
0.000841673
-0.00398283
0.000863575
-0.00412329
0.000882395
-0.00425766
0.000899232
-0.0043898
-0.00452268
0.000914746
0.000110649
0.000172218
0.000244176
-0.00136281
0.000322918
-0.00172154
0.000404095
-0.00208274
0.00048327
-0.00243097
0.00055662
-0.00275355
0.000621472
-0.00304229
0.000676525
-0.00329416
0.000721769
-0.00351077
0.000758163
-0.0036971
0.000787241
-0.00385989
0.000810713
-0.0040063
0.000830183
-0.00414276
0.000846963
-0.00427444
0.000862034
-0.00440488
-0.00453661
0.000875964
0.000247162
0.000324641
0.000403453
0.000479244
-0.00250677
0.000548451
-0.00282275
0.00060876
-0.0031026
0.000659244
-0.00334464
0.000700197
-0.00355173
0.00073278
-0.00372968
0.000758601
-0.00388572
0.000779353
-0.00402705
0.000796556
-0.00415997
0.000811412
-0.0042893
0.00082479
-0.00441825
-0.00454899
0.000837172
0.00047382
0.000538846
0.000594688
0.00064077
0.000677659
-0.00358862
0.000706672
-0.00375869
0.000729463
-0.00390851
0.000747685
-0.00404528
0.000762764
-0.00417504
0.000775791
-0.00430232
0.000787531
-0.00442999
-0.00455985
0.000798392
0.000654292
0.000679962
0.000699929
0.000715787
-0.00406113
0.000728862
-0.00418812
0.000740139
-0.0043136
0.000750286
-0.00444014
-0.00456921
0.000759643
0.000683727
0.0006949
0.00070449
0.000713077
-0.00457707
0.000720943
0.000682306
0.00431145
0.000761377
0.000738201
0.00377156
0.00075611
0.00390541
0.000771983
0.00403559
0.000786642
0.00416552
0.00429753
0.000800563
0.000636931
0.00303711
0.000680647
0.00325086
0.000716294
0.00343671
0.000745269
0.00360022
0.000769158
0.00374767
0.000789464
0.00388511
0.00080743
0.00401763
0.000823986
0.00414896
0.00428182
0.000839697
0.000456279
0.00213334
0.000529312
0.00244213
0.000595219
0.00272604
0.00065242
0.0029799
0.000700544
0.00320273
0.000740216
0.00339704
0.000772718
0.00356772
0.00079962
0.00372077
0.000822487
0.00386224
0.000842666
0.00399745
0.000861198
0.00413043
0.00426427
0.000878743
0.000222145
0.0010948
0.000297449
0.00140531
0.000377217
0.00172904
0.000457414
0.00205314
0.0005342
0.00236535
0.000604501
0.00265574
0.000666372
0.00291803
0.000719099
0.00315001
0.00076304
0.0033531
0.000799321
0.00353143
0.000829468
0.00369062
0.000855088
0.00383662
0.00087762
0.00397491
0.000898224
0.00410982
0.00424483
0.000917664
9.5264e-05
0.000514283
0.000150663
0.00075365
0.000217406
0.00102805
0.000293066
0.00132965
0.000374249
0.00164785
0.000456997
0.00197039
0.000537364
0.00228498
0.000612008
0.00258109
0.000678627
0.00285141
0.000736135
0.0030925
0.00078459
0.00330464
0.000824918
0.00349111
0.000858566
0.00365697
0.000887155
0.00380803
0.000912209
0.00394986
0.000935004
0.00408703
0.00422343
0.000956412
5.25325e-06
3.47813e-05
2.16938e-05
0.000140311
5.03278e-05
0.000286063
9.17869e-05
0.000472824
0.000146024
0.000699413
0.00021204
0.000962037
0.000287742
0.00125395
0.000370005
0.00156559
0.000455
0.0018854
0.000538729
0.00220125
0.00061762
0.0025022
0.000689022
0.00278001
0.000751469
0.00303005
0.000804677
0.00325144
0.000849332
0.00344645
0.000886757
0.00361955
0.000918561
0.00377623
0.000946333
0.00392209
0.000971461
0.0040619
0.00419996
0.000994931
4.95201e-06
2.98293e-05
2.05997e-05
0.000124663
4.80637e-05
0.000258599
8.81483e-05
0.000432739
0.000141053
0.000646508
0.000206095
0.000896995
0.000281521
0.00117852
0.000364508
0.0014826
0.00045141
0.00179849
0.000538233
0.00211443
0.000621223
0.00241921
0.000697401
0.00270383
0.000764911
0.00296254
0.000823099
0.00319325
0.000872365
0.00339718
0.000913866
0.00357805
0.000949158
0.00374094
0.000979875
0.00389137
0.00100751
0.00403427
0.00417431
0.00103316
4.65242e-06
2.51769e-05
1.94979e-05
0.000109818
4.57537e-05
0.000232343
8.43765e-05
0.000394116
0.000135793
0.000595091
0.000199621
0.000833167
0.000274454
0.00110369
0.000357795
0.00139926
0.000446231
0.00171006
0.000535832
0.00202483
0.000622715
0.00233233
0.000703609
0.00262294
0.000776268
0.00288988
0.000839642
0.00312988
0.000893805
0.00334302
0.000939694
0.00353216
0.000978776
0.00370185
0.0010127
0.00385745
0.00104304
0.00400393
0.00414633
0.00107101
4.35614e-06
2.08207e-05
1.83952e-05
9.57785e-05
4.34137e-05
0.000207325
8.05003e-05
0.00035703
0.000130287
0.000545305
0.000192675
0.000770778
0.000266602
0.00102977
0.000349919
0.00131594
0.000439487
0.00162049
0.000531502
0.00193281
0.000622015
0.00224182
0.000707504
0.00253745
0.000785348
0.00281204
0.000854084
0.00306114
0.000913418
0.00328369
0.000964022
0.00348155
0.00100722
0.00365866
0.00104464
0.00382003
0.00107792
0.00397065
0.00411586
0.00110839
4.06478e-06
1.67559e-05
1.72981e-05
8.25452e-05
4.10594e-05
0.000183563
7.65479e-05
0.000321541
0.000124578
0.000497275
0.000185317
0.000710039
0.000258034
0.000957049
0.000340943
0.00123304
0.000431217
0.00153022
0.00052524
0.00183879
0.00061906
0.002148
0.000708957
0.00244755
0.000791963
0.00272903
0.000866196
0.00298691
0.000930958
0.00321893
0.000986606
0.00342591
0.00103427
0.00361099
0.00107551
0.00377879
0.00111201
0.00393415
0.00408269
0.00114519
3.77985e-06
1.29761e-05
1.62129e-05
7.01122e-05
3.87054e-05
0.000161071
7.25474e-05
0.000287699
0.000118712
0.00045111
0.000177608
0.000651143
0.000248826
0.00088583
0.000330945
0.00115092
0.000421484
0.00143968
0.000517066
0.00174321
0.000613809
0.00205125
0.000707859
0.0023535
0.000795938
0.00264096
0.000875749
0.0029071
0.000946166
0.00314851
0.00100718
0.00336489
0.00105968
0.00355849
0.0011051
0.00373337
0.00114513
0.00389412
0.00404655
0.00118127
3.50268e-06
9.4734e-06
1.51453e-05
5.84696e-05
3.63658e-05
0.00013985
6.85253e-05
0.00025554
0.000112732
0.000406904
0.000169613
0.000594263
0.00023906
0.000816383
0.000320016
0.00106996
0.000410365
0.00134933
0.000507025
0.00164655
0.000606251
0.00195203
0.000704125
0.00225563
0.000797111
0.00254797
0.000882518
0.00282169
0.000958775
0.00307225
0.00102547
0.0032982
0.00108318
0.00350078
0.00113316
0.00368339
0.00117708
0.00385021
0.00400717
0.00121646
3.2344e-06
6.239e-06
1.41003e-05
4.76037e-05
3.40531e-05
0.000119897
6.45067e-05
0.000225086
0.000106681
0.000364729
0.000161395
0.000539549
0.00022882
0.000748958
0.000308252
0.000990529
0.000397958
0.00125962
0.000495188
0.00154932
0.000596403
0.00185081
0.000697699
0.00215433
0.000795345
0.00245032
0.000886288
0.00273075
0.000968513
0.00299003
0.00104116
0.00322555
0.00110445
0.00343749
0.00115941
0.00362843
0.00120761
0.00380202
0.00396421
0.00125057
2.97591e-06
3.26309e-06
1.30821e-05
3.74975e-05
3.17786e-05
0.000101201
6.05146e-05
0.00019635
0.0001006
0.000324644
0.000153017
0.000487132
0.000218193
0.000683781
0.000295761
0.000912961
0.000384374
0.00117101
0.000481649
0.00145204
0.000584314
0.00174815
0.000688558
0.00205009
0.000790529
0.00234835
0.000886864
0.00263441
0.000975113
0.00290178
0.00105395
0.00314671
0.00112319
0.00336825
0.00118355
0.00356807
0.00123644
0.00374912
0.00391727
0.00128338
2.7279e-06
5.35183e-07
1.20943e-05
2.81311e-05
2.95519e-05
8.37434e-05
5.65693e-05
0.000169333
9.45243e-05
0.000286689
0.000144539
0.000437118
0.000207266
0.000621054
0.000282653
0.000837573
0.000369736
0.00108393
0.000466523
0.00135525
0.000570064
0.00164461
0.000676715
0.00194344
0.000782588
0.00224248
0.000884075
0.00253292
0.00097832
0.00280753
0.00106353
0.0030615
0.00113904
0.00329274
0.00120523
0.00350188
0.00126327
0.00369108
0.00386593
0.00131461
2.4908e-06
-1.95561e-06
1.11393e-05
1.94826e-05
2.73805e-05
6.75022e-05
5.26882e-05
0.000144025
8.84883e-05
0.000250889
0.000136015
0.000389591
0.00019612
0.00056095
0.00026904
0.000764653
0.000354178
0.000998789
0.000449947
0.00125948
0.000553762
0.00154079
0.000662222
0.00183498
0.000771488
0.00213321
0.000877785
0.00242663
0.0009779
0.00270742
0.00106957
0.00296983
0.00115165
0.00321066
0.00122407
0.00342946
0.00128775
0.0036274
0.00380971
0.00134397
2.26473e-06
-4.22034e-06
1.02188e-05
1.15285e-05
2.52701e-05
5.2451e-05
4.88852e-05
0.00012041
8.252e-05
0.000217254
0.000127497
0.000344613
0.000184836
0.000503611
0.000255033
0.000694456
0.000337839
0.000915982
0.000432074
0.00116525
0.000535549
0.00143732
0.000645171
0.00172536
0.000757239
0.00202115
0.000867898
0.00231597
0.000973646
0.00260167
0.00107177
0.00287171
0.00116064
0.00312179
0.00123969
0.0033504
0.00130949
0.0035576
0.0037481
0.0013711
2.04956e-06
-6.2699e-06
9.33328e-06
4.24477e-06
2.32241e-05
3.85601e-05
4.51707e-05
9.84633e-05
7.66426e-05
0.000185782
0.000119029
0.000302227
0.000173485
0.000449155
0.000240738
0.000627203
0.000320861
0.00083586
0.000413067
0.00107304
0.000515587
0.0013348
0.000625691
0.00161525
0.000739898
0.00190694
0.000854368
0.0022015
0.000965394
0.00249064
0.00106987
0.00276723
0.00116566
0.00302601
0.00125168
0.00326438
0.00132806
0.00348122
0.00368054
0.00139561
1.84485e-06
-8.11476e-06
8.48218e-06
-2.39256e-06
2.12438e-05
2.57985e-05
4.15513e-05
7.81558e-05
7.0874e-05
0.00015646
0.000110645
0.000262456
0.000162132
0.000397668
0.000226255
0.000563079
0.00030338
0.000758735
0.000393098
0.000983325
0.000494062
0.00123383
0.000603946
0.00150537
0.000719569
0.00179132
0.000837204
0.00208386
0.00095303
0.00237482
0.00106362
0.00265664
0.00116635
0.00292328
0.00125961
0.00317112
0.00134302
0.00339781
0.00360649
0.00141708
1.64987e-06
-9.76463e-06
7.66403e-06
-8.40672e-06
1.93283e-05
1.41342e-05
3.80299e-05
5.94542e-05
6.52261e-05
0.000129264
0.000102376
0.000225306
0.000150831
0.000349213
0.000211676
0.000502234
0.000285531
0.00068488
0.000372338
0.000896518
0.00047117
0.001135
0.000580133
0.00139641
0.000696405
0.00167504
0.00081647
0.0019638
0.000936498
0.00225479
0.00105282
0.00254032
0.0011624
0.0028137
0.00126307
0.00307046
0.00135391
0.00330697
0.00352536
0.00143503
1.46364e-06
-1.12283e-05
6.87642e-06
-1.38195e-05
1.74747e-05
3.53592e-06
3.4606e-05
4.23229e-05
5.97055e-05
0.000104164
9.42426e-05
0.000190769
0.000139628
0.000303828
0.000197079
0.000444784
0.000267435
0.000614523
0.000350957
0.000812996
0.00044712
0.00103884
0.000554471
0.00128905
0.000670602
0.00155891
0.000792289
0.00184211
0.000915806
0.00213127
0.00103735
0.00241877
0.00115354
0.00269752
0.00126166
0.00296233
0.00136025
0.00320838
0.00343662
0.00144899
1.28495e-06
-1.25132e-05
6.11615e-06
-1.86507e-05
1.56786e-05
-6.02651e-06
3.12759e-05
2.67256e-05
5.4314e-05
8.11259e-05
8.62581e-05
0.000158825
0.000128558
0.000261528
0.000182531
0.000390811
0.000249204
0.00054785
0.000329116
0.000733084
0.000422119
0.000945835
0.000527198
0.00118398
0.00064239
0.00144372
0.000764841
0.00171966
0.000891032
0.00200508
0.00101715
0.00229265
0.00113953
0.00257513
0.00125504
0.00284683
0.0013616
0.00310181
0.00333978
0.00145844
1.11244e-06
-1.36257e-05
5.37946e-06
-2.29177e-05
1.3934e-05
-1.4581e-05
2.80336e-05
1.2626e-05
4.90486e-05
6.01109e-05
7.84296e-05
0.000129444
0.000117646
0.000222311
0.000168089
0.000340368
0.000230934
0.000485005
0.000306964
0.000657054
0.000396369
0.00085643
0.000498559
0.00108179
0.000612031
0.00133025
0.000734357
0.00159733
0.000862322
0.00187712
0.000992214
0.00216276
0.00112025
0.00244709
0.00124289
0.0027242
0.00135751
0.00298719
0.00323439
0.0014629
9.44639e-07
-1.45703e-05
4.66222e-06
-2.66353e-05
1.22341e-05
-2.21529e-05
2.48709e-05
-1.08102e-08
4.39036e-05
4.10782e-05
7.07583e-05
0.000102589
0.000106908
0.000186161
0.000153795
0.000293481
0.000212709
0.000426091
0.000284636
0.000585128
0.000370065
0.000771
0.000468803
0.000983049
0.000579806
0.00121925
0.00070111
0.00147603
0.000829888
0.00174834
0.000962653
0.00203
0.00109562
0.00231412
0.00122498
0.00259484
0.00134763
0.00286454
7.80076e-07
-1.53504e-05
3.9602e-06
-2.98154e-05
1.0572e-05
-2.87647e-05