/*--------------------------------*- C++ -*----------------------------------*\
  =========                 |
  \\      /  F ield         | OpenFOAM: The Open Source CFD Toolbox
   \\    /   O peration     | Website:  https://openfoam.org
    \\  /    A nd           | Version:  7
     \\/     M anipulation  |
\*---------------------------------------------------------------------------*/
FoamFile
{
    version     2.0;
    format      ascii;
    class       volVectorField;
    location    "180";
    object      U;
}
// * * * * * * * * * * * * * * * * * * * * * * * * * * * * * * * * * * * * * //

dimensions      [0 1 -1 0 0 0 0];

internalField   nonuniform List<vector> 
4575
(
(-0.000538546 0.0338844 -1.11063e-21)
(-0.00244933 0.086509 -5.78771e-21)
(-0.00604343 0.126932 6.90101e-22)
(-0.00116696 0.0342981 -5.49368e-21)
(-0.00389396 0.087755 4.42746e-21)
(-0.00785206 0.128991 -5.16978e-21)
(-0.00180584 0.0346079 -4.28737e-20)
(-0.00536664 0.0887567 5.37347e-21)
(-0.00969607 0.13072 8.10952e-21)
(-0.00244975 0.0348106 7.04441e-20)
(-0.00685565 0.0895049 -3.0794e-20)
(-0.0115615 0.132103 -2.10296e-20)
(-0.00309309 0.0349044 -9.35739e-21)
(-0.00834879 0.0899925 1.22089e-19)
(-0.0134337 0.133129 5.67521e-20)
(-0.00373037 0.0348885 -4.69994e-20)
(-0.00983386 0.090214 2.94717e-20)
(-0.0152981 0.133787 -4.62533e-20)
(-0.00435653 0.0347622 5.72785e-20)
(-0.011299 0.090167 -6.97002e-20)
(-0.01714 0.13407 -1.0605e-19)
(-0.00496535 0.0345261 9.83843e-21)
(-0.0127317 0.0898519 -3.45809e-20)
(-0.018945 0.133975 9.59675e-20)
(-0.00555166 0.0341829 -2.71581e-20)
(-0.0141201 0.0892701 1.90164e-19)
(-0.0206991 0.1335 -4.1692e-20)
(-0.0259876 0.167589 -4.91504e-20)
(-0.00611063 0.0337359 -8.52141e-20)
(-0.0154532 0.0884265 1.12599e-19)
(-0.022389 0.132648 6.24515e-20)
(-0.0277177 0.16699 2.80382e-20)
(-0.00663774 0.0331892 1.55868e-19)
(-0.0167205 0.0873281 -8.58221e-20)
(-0.024002 0.131425 2.95338e-20)
(-0.0293706 0.165936 1.08209e-19)
(-0.00712894 0.0325482 1.31762e-19)
(-0.0179128 0.0859848 -1.59473e-19)
(-0.0255268 0.12984 -1.64471e-19)
(-0.0309349 0.164433 -7.77038e-20)
(-0.00758069 0.0318192 -1.63805e-19)
(-0.0190214 0.0844088 -1.53659e-19)
(-0.0269532 0.127905 6.29284e-20)
(-0.0324007 0.162489 1.55806e-19)
(-0.00799008 0.0310096 6.92364e-20)
(-0.0200391 0.0826147 1.02173e-19)
(-0.0282718 0.125637 1.23812e-19)
(-0.033759 0.16012 -2.06376e-19)
(-0.00835484 0.0301274 -3.9685e-20)
(-0.0209602 0.0806191 4.84568e-20)
(-0.0294753 0.123054 -1.03605e-19)
(-0.0350021 0.15734 -1.53401e-19)
(-0.00867344 0.0291812 1.48102e-19)
(-0.02178 0.0784403 -1.46268e-19)
(-0.0305576 0.120178 1.17022e-19)
(-0.0361237 0.154172 1.85602e-19)
(-0.00894509 0.0281803 -6.3972e-20)
(-0.0224959 0.0760987 -4.34859e-20)
(-0.0315147 0.117034 1.20984e-19)
(-0.0371191 0.150639 -1.6657e-19)
(-0.0398185 0.177014 -9.33648e-20)
(-0.00916979 0.0271345 -1.49423e-19)
(-0.0231066 0.0736155 2.09555e-19)
(-0.0323442 0.113649 2.71905e-21)
(-0.0379856 0.146768 -2.02234e-21)
(-0.0405169 0.17298 2.10159e-19)
(-0.00934835 0.0260537 4.83575e-20)
(-0.0236127 0.0710134 -1.4949e-19)
(-0.0330461 0.11005 1.41977e-19)
(-0.038722 0.142589 -2.1001e-19)
(-0.0410964 0.168549 2.57695e-19)
(-0.00948236 0.0249483 1.88489e-20)
(-0.0240165 0.0683159 -7.80825e-20)
(-0.0336221 0.106268 2.49548e-19)
(-0.0393292 0.138135 -3.18442e-19)
(-0.0415566 0.163752 -2.5947e-19)
(-0.00957418 0.0238284 -1.3166e-19)
(-0.024322 0.0655466 -2.3355e-19)
(-0.0340759 0.102335 -1.32578e-19)
(-0.0398096 0.133438 1.73307e-19)
(-0.0418985 0.158622 -9.89228e-21)
(-0.0407113 0.177922 3.52378e-20)
(-0.00962692 0.0227043 1.21491e-19)
(-0.0245346 0.0627297 3.05388e-19)
(-0.0344128 0.0982822 -2.28819e-19)
(-0.0401669 0.128535 -1.09385e-19)
(-0.0421238 0.153195 9.01978e-20)
(-0.0406194 0.172229 -2.15248e-19)
(-0.00964438 0.0215858 -1.33501e-19)
(-0.0246615 0.059889 -1.54336e-20)
(-0.0346398 0.0941424 3.24226e-19)
(-0.0404061 0.123464 3.1712e-19)
(-0.0422341 0.147507 -6.42719e-20)
(-0.0404235 0.166185 -4.01347e-20)
(-0.00963098 0.0204825 8.53565e-20)
(-0.0247109 0.0570476 1.72273e-19)
(-0.0347654 0.0899477 -1.18301e-19)
(-0.0405332 0.11826 -1.44852e-19)
(-0.0422321 0.141599 -1.48307e-19)
(-0.0401211 0.15983 -3.96853e-20)
(-0.00959167 0.0194036 -1.16923e-19)
(-0.0246921 0.0542278 -3.74366e-19)
(-0.0347988 0.0857297 1.17119e-19)
(-0.0405548 0.112961 6.54558e-21)
(-0.0421193 0.13551 4.8541e-19)
(-0.0397083 0.153203 -2.86034e-19)
(-0.0335807 0.16608 -2.42486e-19)
(-0.00953185 0.0183573 -1.11717e-19)
(-0.0246155 0.0514506 4.41885e-19)
(-0.0347499 0.0815187 -3.32678e-19)
(-0.0404771 0.107605 -6.69739e-20)
(-0.0418962 0.129281 -1.11487e-19)
(-0.0391785 0.146346 -2.86059e-19)
(-0.0325501 0.158804 2.82077e-19)
(-0.00945717 0.0173512 1.5837e-19)
(-0.0244915 0.0487355 -1.93797e-19)
(-0.0346288 0.0773435 -2.39054e-19)
(-0.0403058 0.102227 -2.23204e-19)
(-0.0415616 0.122953 7.35217e-20)
(-0.0385214 0.139304 4.11401e-20)
(-0.0313768 0.151254 1.00406e-19)
(-0.00937346 0.0163921 -3.33965e-19)
(-0.0243309 0.0460998 2.60303e-19)
(-0.034445 0.0732306 2.8847e-19)
(-0.0400454 0.0968606 -1.65351e-19)
(-0.0411117 0.116565 2.78874e-19)
(-0.0377229 0.132119 2.66001e-19)
(-0.0300339 0.143477 -4.77746e-20)
(-0.0182201 0.150757 -2.63669e-19)
(-0.00928648 0.0154854 -2.63024e-19)
(-0.0241439 0.0435588 -2.39302e-19)
(-0.034207 0.0692042 1.86254e-19)
(-0.0396981 0.0915392 1.0711e-19)
(-0.0405392 0.110158 4.29471e-20)
(-0.0367633 0.124837 -7.77817e-20)
(-0.0284877 0.135521 -5.47423e-20)
(-0.0158574 0.142304 1.23053e-19)
(-0.00920179 0.0146356 1.27285e-19)
(-0.0239402 0.0411249 2.47225e-19)
(-0.0339216 0.0652855 -4.39222e-19)
(-0.0392632 0.0862918 -3.3187e-19)
(-0.0398324 0.103768 1.65589e-19)
(-0.035617 0.117502 1.54582e-19)
(-0.0266955 0.127436 -3.16624e-19)
(-0.01318 0.13365 -2.80799e-20)
(-0.00912448 0.0138457 6.10347e-19)
(-0.0237278 0.0388078 -4.17551e-19)
(-0.0335931 0.0614922 1.00335e-19)
(-0.0387368 0.0811451 3.21662e-19)
(-0.0389749 0.0974303 -3.4259e-19)
(-0.0342515 0.110158 1.68918e-20)
(-0.0246057 0.119274 2.53725e-19)
(-0.0101143 0.124851 4.61663e-19)
(0.00914164 0.127056 4.62275e-19)
(-0.00905899 0.0131173 -5.78126e-19)
(-0.0235131 0.0366143 4.1526e-19)
(-0.0332229 0.0578385 9.97305e-20)
(-0.0381104 0.076122 -3.18402e-19)
(-0.0379442 0.0911779 1.32674e-19)
(-0.0326268 0.102846 -6.32545e-20)
(-0.0221572 0.111086 -4.77234e-20)
(-0.00657439 0.115966 -3.89077e-19)
(0.0140777 0.117645 -6.08584e-19)
(-0.00900887 0.0124507 4.61977e-19)
(-0.0233002 0.0345476 -1.17078e-19)
(-0.032809 0.0543347 3.92274e-19)
(-0.0373709 0.0712416 9.39094e-20)
(-0.0367121 0.08504 -2.04344e-19)
(-0.0306952 0.0956074 3.2723e-20)
(-0.0192793 0.102922 -4.25028e-19)
(-0.00246303 0.107057 1.91368e-19)
(0.019751 0.108167 1.02182e-19)
(0.0473901 0.106455 1.56331e-20)
(-0.00897658 0.0118445 -1.18471e-19)
(-0.0230906 0.032608 -1.25547e-19)
(-0.0323452 0.0509868 -2.45844e-19)
(-0.0364999 0.066519 1.77521e-19)
(-0.0352435 0.0790421 3.18426e-19)
(-0.0284014 0.0884781 -4.06227e-19)
(-0.0158921 0.0948308 6.41583e-19)
(0.00232791 0.098186 -1.23982e-19)
(0.0263009 0.0986952 1.76023e-20)
(0.0560998 0.0965575 -4.21031e-19)
(-0.0089633 0.0112959 3.58286e-20)
(-0.0228824 0.0307922 1.21808e-19)
(-0.031821 0.047797 1.44345e-19)
(-0.0354736 0.0619645 -1.1945e-19)
(-0.0334973 0.0732054 2.94608e-19)
(-0.0256826 0.0814921 3.90002e-19)
(-0.0119077 0.0868603 5.90143e-21)
(0.00791511 0.0894119 -4.91602e-19)
(0.0338753 0.0893038 -3.89031e-19)
(0.0660942 0.0867335 4.04138e-19)
(-0.00896875 0.0108006 -2.1836e-19)
(-0.0226708 0.0290939 2.06568e-19)
(-0.0312214 0.0447629 -1.50851e-19)
(-0.0342629 0.0575842 -7.386e-20)
(-0.0314263 0.0675469 -1.9905e-19)
(-0.0224697 0.0746791 -1.48995e-19)
(-0.00723151 0.0790532 -2.63005e-19)
(0.0144214 0.0807929 4.29741e-19)
(0.0426273 0.080065 1.69285e-19)
(0.0775553 0.0770703 -4.10287e-19)
(0.119419 0.07203 -4.95527e-19)
(-0.0089911 0.0103528 -2.26613e-20)
(-0.0224472 0.0275036 -5.098e-19)
(-0.0305265 0.0418784 1.22542e-19)
(-0.0328332 0.0533794 2.69437e-19)
(-0.0289775 0.0620786 -4.93367e-20)
(-0.0186881 0.0680638 -3.18053e-19)
(-0.0017642 0.0714488 3.46066e-19)
(0.0219729 0.072383 3.91768e-19)
(0.0527097 0.0710483 1.48375e-19)
(0.0906607 0.067653 7.29635e-19)
(0.136072 0.0624222 -3.36727e-19)
(-0.0090269 0.00994593 -1.26098e-19)
(-0.0221994 0.0260093 -4.48391e-20)
(-0.0297122 0.0391334 -4.0625e-19)
(-0.0311452 0.049347 2.45492e-19)
(-0.0260936 0.0568075 -2.47406e-19)
(-0.0142594 0.061666 -2.48007e-19)
(0.00459579 0.0640811 -2.22642e-20)
(0.0306951 0.0642318 -3.95254e-19)
(0.0642707 0.0623189 -6.19689e-19)
(0.105576 0.0585624 1.67738e-19)
(0.154877 0.0531943 1.86522e-19)
(0.212424 0.0464501 -7.87214e-20)
(-0.00907106 0.00957207 3.93437e-19)
(-0.0219121 0.0245964 -6.14598e-20)
(-0.0287501 0.0365148 3.57954e-19)
(-0.0291554 0.0454797 -3.62515e-19)
(-0.0227135 0.0517361 5.28622e-19)
(-0.00910304 0.0555005 4.36773e-19)
(0.0119498 0.0569786 -3.54446e-19)
(0.0407095 0.0563828 -6.52047e-19)
(0.0774484 0.0539361 1.06929e-18)
(0.122448 0.049873 2.61457e-19)
(0.175977 0.0444355 -2.02172e-19)
(0.238243 0.0378651 -1.98496e-19)
(-0.00911696 0.00922274 -6.27906e-19)
(-0.0215663 0.0232488 4.1042e-19)
(-0.0276079 0.0340063 -6.0339e-19)
(-0.0268166 0.0417666 -3.24254e-19)
(-0.0187737 0.0468623 1.19401e-19)
(-0.00313794 0.0495765 -4.71629e-19)
(0.0203963 0.0501643 7.30077e-19)
(0.0521299 0.0488735 1.26372e-20)
(0.0923662 0.0459521 -3.97549e-19)
(0.141399 0.041652 -3.43654e-19)
(0.199477 0.0362261 -6.08272e-19)
(0.266729 0.0299221 -7.24868e-21)
(0.343069 0.0229736 -8.589e-20)
(-0.00915653 0.00888904 2.22997e-19)
(-0.0211404 0.0219491 -4.09226e-19)
(-0.0262502 0.0315897 5.20411e-19)
(-0.0240792 0.0381935 7.22625e-19)
(-0.0142096 0.0421798 -2.32287e-19)
(0.00371551 0.0438986 2.99148e-20)
(0.0300286 0.0436553 -6.1519e-19)
(0.065059 0.0417348 -1.50955e-19)
(0.109129 0.0384123 -4.65943e-19)
(0.162524 0.0339583 6.01441e-19)
(0.225439 0.028637 5.52746e-19)
(0.297889 0.0227006 -9.74861e-20)
(0.379585 0.0163792 -7.32285e-20)
(-0.00918046 0.00856192 5.882e-20)
(-0.0206101 0.020679 8.31933e-20)
(-0.024639 0.0292453 -2.72113e-19)
(-0.0208918 0.0347441 -7.43843e-19)
(-0.00895672 0.0376794 1.19356e-19)
(0.0115338 0.0384673 3.56493e-19)
(0.0409322 0.0374636 1.60867e-19)
(0.0795858 0.0349917 6.82356e-19)
(0.127818 0.0313546 -4.23838e-19)
(0.185881 0.0268421 -5.45527e-19)
(0.253882 0.0217288 -9.87685e-20)
(0.331671 0.0162681 2.45194e-19)
(0.418707 0.0106802 5.34222e-20)
(0.513915 0.00513687 2.22792e-20)
(-0.00917833 0.00823249 -2.89546e-19)
(-0.0199491 0.0194208 1.94257e-20)
(-0.0227343 0.0269527 -5.31913e-20)
(-0.0172021 0.0314004 6.44658e-19)
(-0.00295174 0.0333492 2.0142e-19)
(0.0203889 0.0332795 -6.52674e-20)
(0.0531833 0.0315971 2.46909e-19)
(0.095783 0.0286636 2.1626e-19)
(0.148491 0.0248105 5.17118e-19)
(0.211496 0.0203459 6.30728e-20)
(0.284775 0.0155527 -6.12477e-19)
(0.367965 0.0106805 3.4758e-20)
(0.460219 0.00593152 -4.92238e-19)
(0.56007 0.00144239 -4.2113e-20)
(0.665362 -0.0027081 -2.37338e-19)
(-0.00913898 0.00789239 4.73669e-19)
(-0.0191294 0.0181569 3.40447e-19)
(-0.020495 0.024692 2.67748e-19)
(-0.0129578 0.0281444 -3.67699e-19)
(0.00386623 0.0291762 2.47485e-19)
(0.0303469 0.0283301 -2.34167e-19)
(0.0668474 0.0260603 -3.66824e-19)
(0.113706 0.022766 -5.09999e-19)
(0.17118 0.0188061 -2.22357e-19)
(0.239359 0.0145052 4.34412e-19)
(0.318044 0.0101508 3.82453e-19)
(0.406608 0.0059822 5.57237e-19)
(0.503848 0.00217414 4.95367e-19)
(0.607867 -0.00118428 -1.5026e-19)
(0.716053 -0.00408224 -2.06856e-19)
(-0.00905074 0.00753406 -2.89134e-19)
(-0.0181223 0.0168717 -7.77298e-19)
(-0.0178795 0.0224445 -3.16642e-19)
(-0.00810773 0.0249585 3.37674e-19)
(0.011555 0.0251477 9.71887e-20)
(0.0414672 0.0236134 1.59981e-19)
(0.0819785 0.0208562 4.20808e-19)
(0.133393 0.0173114 -4.20045e-19)
(0.195892 0.0133634 5.78081e-19)
(0.269425 0.00934998 -5.95561e-20)
(0.353571 0.00555774 -8.4781e-19)
(0.447388 0.00220759 -1.59492e-19)
(0.549271 -0.000564198 -5.49543e-19)
(0.656871 -0.00272846 -3.79168e-19)
(0.76713 -0.00435456 4.09663e-19)
(0.87639 -0.00571649 3.36326e-19)
(-0.00890162 0.00715092 3.84293e-19)
(-0.0168986 0.0155511 6.06096e-19)
(-0.0148464 0.0201934 -3.2934e-20)
(-0.00260187 0.0218269 -2.79375e-19)
(0.0201685 0.0212517 -3.09239e-19)
(0.0538022 0.019124 6.64471e-20)
(0.0986182 0.0159875 -4.98331e-19)
(0.154862 0.0123114 4.73386e-19)
(0.222606 0.00850209 -1.85112e-19)
(0.301616 0.00490612 -4.04406e-19)
(0.391201 0.00180183 5.06913e-19)
(0.490052 -0.000618133 -1.25171e-19)
(0.59613 -0.00226804 -2.2699e-19)
(0.706624 -0.00319094 4.2128e-19)
(0.818067 -0.00354603 -6.43566e-19)
(0.926536 -0.00369703 3.80313e-21)
(1.0283 -0.00373783 2.63211e-20)
(-0.00867966 0.0067376 -4.28115e-19)
(-0.0154289 0.0141837 -1.69349e-19)
(-0.0113546 0.0179249 3.04393e-19)
(0.00360762 0.0187368 2.52548e-19)
(0.0297565 0.0174793 2.86946e-19)
(0.0673962 0.0148587 -1.65503e-19)
(0.116796 0.0114586 -1.43836e-19)
(0.178116 0.00777802 -6.17784e-20)
(0.25128 0.00424122 -6.5891e-19)
(0.335826 0.0011969 1.22778e-18)
(0.430742 -0.00109377 1.31323e-20)
(0.534313 -0.00247798 1.5659e-19)
(0.644039 -0.00293347 1.52529e-19)
(0.756662 -0.00258706 3.1247e-19)
(0.86836 -0.00169435 5.43638e-19)
(0.975047 -0.00070488 3.11095e-19)
(1.07303 0.00017763 3.33941e-19)
(-0.00837305 0.00629003 1.07733e-19)
(-0.0136845 0.0127608 -9.0512e-20)
(-0.00736473 0.0156287 2.27877e-19)
(0.0105661 0.0156792 -3.45025e-19)
(0.040364 0.0138251 -4.26266e-20)
(0.082286 0.010818 1.58579e-19)
(0.136531 0.00727662 1.90901e-19)
(0.203139 0.00372539 -1.6587e-19)
(0.281848 0.000600335 4.79897e-19)
(0.371919 -0.00175586 -5.0021e-19)
(0.471974 -0.00311012 2.3389e-19)
(0.579855 -0.00336248 -4.47488e-19)
(0.692597 -0.00256745 4.57381e-19)
(0.806522 -0.000945572 3.88406e-19)
(0.917535 0.00114818 -7.17479e-19)
(1.0215 0.00318602 -6.60108e-19)
(1.11491 0.00487538 -2.41073e-19)
(1.19471 0.00489027 -2.07831e-19)
(-0.00797033 0.00580556 6.77701e-19)
(-0.0116373 0.0112769 -3.90667e-19)
(-0.00283846 0.0132987 -5.54539e-19)
(0.0183161 0.0126496 -2.31888e-19)
(0.052031 0.0102886 -3.59843e-19)
(0.0985003 0.0070069 -4.24361e-20)
(0.157826 0.003453 6.36839e-19)
(0.229898 0.00017085 3.24063e-19)
(0.314221 -0.00239934 5.11015e-19)
(0.409735 -0.00393107 1.42004e-19)
(0.514651 -0.00423209 3.95946e-19)
(0.626346 -0.00326945 -4.57751e-19)
(0.741396 -0.00118723 1.92307e-19)
(0.855761 0.00169267 -3.15902e-19)
(0.965165 0.00491714 3.55967e-19)
(1.06555 0.00789161 7.83362e-19)
(1.15372 0.0102588 -6.60017e-20)
(1.2272 0.0108202 4.99901e-19)
(1.28614 0.0117018 -1.77622e-19)
(-0.00746051 0.00528295 -3.52427e-19)
(-0.00926047 0.00972985 3.6645e-21)
(0.00226043 0.0109331 2.79747e-19)
(0.026897 0.00964883 5.63141e-20)
(0.0647925 0.00687489 6.89103e-19)
(0.11606 0.003436 -8.99649e-20)
(0.180678 4.24092e-06 -5.43835e-19)
(0.258345 -0.00286423 -4.05935e-19)
(0.348293 -0.00473444 -5.88953e-19)
(0.449092 -0.00530818 -5.83265e-19)
(0.558508 -0.0044484 -6.97133e-19)
(0.673441 -0.00220389 7.62005e-19)
(0.790036 0.00118013 3.39404e-19)
(0.903962 0.00527615 -4.76263e-20)
(1.01088 0.00953876 -9.72635e-20)
(1.10693 0.0133218 1.15424e-19)
(1.18933 0.016229 3.35797e-19)
(1.25625 0.0171939 1.98801e-19)
(1.30828 0.0180895 1.63299e-19)
(1.34317 0.0117935 5.12543e-20)
(-0.00683315 0.00472231 -1.23353e-19)
(-0.00652828 0.00812075 7.19731e-20)
(0.00796609 0.00853496 1.03079e-19)
(0.0363448 0.00668329 2.69606e-19)
(0.0786781 0.00359517 -2.07603e-19)
(0.134977 0.000122138 5.27613e-20)
(0.205067 -0.0030475 5.59278e-19)
(0.288417 -0.00535416 6.19664e-20)
(0.383937 -0.00637942 -2.72438e-21)
(0.489789 -0.00586743 8.03133e-20)
(0.603264 -0.00375201 4.12252e-19)
(0.72079 -0.0001782 -5.83182e-19)
(0.838128 0.00449839 -6.3797e-19)
(0.950747 0.00974444 -3.49789e-19)
(1.05436 0.0149328 -4.31608e-19)
(1.14543 0.0193842 -5.19345e-19)
(1.22169 0.0226892 -7.26122e-20)
(1.28198 0.023917 -3.35713e-19)
(1.32733 0.0247468 7.43732e-19)
(1.35667 0.0189317 -3.8152e-19)
(-0.0060784 0.00412507 6.33192e-19)
(-0.00341652 0.0064541 -1.54946e-19)
(0.0143103 0.00611224 -2.22995e-19)
(0.0466916 0.00376534 1.13193e-19)
(0.0937113 0.000467111 5.52667e-20)
(0.155256 -0.00291148 -1.60736e-19)
(0.230964 -0.00567437 -4.7126e-20)
(0.320033 -0.0072691 -9.5761e-20)
(0.421009 -0.00730709 2.8566e-19)
(0.531606 -0.00559063 7.03193e-19)
(0.648626 -0.00214081 2.25274e-19)
(0.768046 0.00278767 6.76658e-19)
(0.885306 0.0087228 2.80258e-19)
(0.995782 0.0150301 3.91462e-19)
(1.09536 0.0210156 4.5185e-19)
(1.18094 0.0259878 -4.51746e-20)
(1.25082 0.0295488 -1.18536e-19)
(1.30451 0.0309061 6.23324e-22)
(1.34351 0.0315948 8.2104e-20)
(1.36766 0.0261281 2.01056e-19)
(-0.00518698 0.00349388 -2.85413e-19)
(9.7455e-05 0.00473758 4.26215e-20)
(0.0213222 0.00367753 -3.09594e-19)
(0.0579655 0.00091313 -4.33417e-19)
(0.10991 -0.00248525 -1.84693e-19)
(0.176892 -0.00563534 -1.97757e-20)
(0.258327 -0.00784319 2.47657e-19)
(0.3531 -0.00857574 -2.00535e-19)
(0.459349 -0.0074895 4.03353e-20)
(0.574311 -0.00446212 -4.50545e-20)
(0.694297 0.000381631 -5.87535e-19)
(0.81487 0.00666617 -9.19792e-19)
(0.931233 0.0138012 -1.39468e-19)
(1.03878 0.0210605 -3.08499e-19)
(1.1337 0.0277024 -2.95147e-19)
(1.21339 0.0330452 -5.3254e-20)
(1.27678 0.0367256 -1.93468e-19)
(1.32404 0.0380904 -1.20327e-19)
(1.35707 0.0385703 -3.63482e-19)
(1.37644 0.0333346 -6.56066e-21)
(-0.00415018 0.00283247 -2.7791e-19)
(0.00403471 0.00298184 5.95548e-19)
(0.0290281 0.00124799 3.68381e-19)
(0.0701903 -0.00184958 1.63093e-19)
(0.127285 -0.00523181 -5.82531e-20)
(0.19987 -0.00801418 -3.78777e-19)
(0.287101 -0.00951614 -2.49053e-19)
(0.387507 -0.00923828 -1.21854e-19)
(0.498782 -0.0068992 -1.79787e-19)
(0.617661 -0.00247 -6.42862e-19)
(0.739979 0.00380538 4.77266e-19)
(0.86094 0.0114223 3.12292e-19)
(0.975609 0.0196752 5.01079e-19)
(1.07952 0.0277603 1.45204e-19)
(1.16925 0.0349103 8.11111e-20)
(1.24279 0.0404754 2.97338e-20)
(1.29971 0.0441469 -3.1332e-20)
(1.34077 0.0454114 -1.08455e-19)
(1.36826 0.0456245 -1.20259e-19)
(1.38328 0.0405207 -3.64127e-19)
(-0.00295985 0.00214556 4.9417e-20)
(0.00841457 0.00120035 -9.03539e-20)
(0.0374515 -0.00115497 6.5643e-20)
(0.0833848 -0.00449384 -1.56532e-19)
(0.145839 -0.00773697 3.28505e-19)
(0.224166 -0.0100077 5.89799e-19)
(0.317218 -0.0106519 1.80781e-19)
(0.423131 -0.00921976 5.01197e-19)
(0.539117 -0.0055106 -2.64293e-19)
(0.661404 0.000392766 6.9313e-19)
(0.785377 0.00811365 1.26785e-19)
(0.905956 0.0170143 3.0387e-19)
(1.01817 0.0262818 -5.48512e-19)
(1.11781 0.0350535 -1.96052e-19)
(1.20194 0.0425598 2.01476e-19)
(1.26919 0.048205 3.90296e-19)
(1.31976 0.0517509 2.67066e-19)
(1.35495 0.0528225 -1.17416e-19)
(1.37735 0.0527215 4.86308e-19)
(1.38846 0.0476688 1.61437e-19)
(-0.00160834 0.00143876 -1.66128e-19)
(0.0132546 -0.000590957 -3.76735e-19)
(0.0466122 -0.00350613 -2.82174e-19)
(0.0975625 -0.00698605 8.72894e-20)
(0.165569 -0.00996033 -4.67882e-19)
(0.249743 -0.0115716 -5.77998e-19)
(0.348598 -0.0112067 -7.7162e-20)
(0.459832 -0.00848352 -1.77158e-19)
(0.580153 -0.00330142 6.25981e-19)
(0.705285 0.00412736 -1.64593e-19)
(0.830208 0.0132826 -4.82574e-19)
(0.949644 0.0233942 -7.85376e-19)
(1.05871 0.0335548 4.23589e-19)
(1.15354 0.042865 3.93658e-19)
(1.23178 0.0505772 -1.0494e-19)
(1.29271 0.056169 -2.06231e-19)
(1.33711 0.059486 8.38129e-20)
(1.36679 0.0602878 -1.16301e-19)
(1.38458 0.0598358 -2.28034e-20)
(1.3922 0.0547708 2.9184e-19)
(-8.85389e-05 0.00071842 -1.27902e-19)
(0.0185704 -0.00237388 -9.695e-20)
(0.0565267 -0.00577686 4.34384e-19)
(0.112731 -0.00928861 -2.66229e-19)
(0.186463 -0.0118577 6.81833e-19)
(0.276555 -0.0126588 2.85095e-19)
(0.381146 -0.0111362 -1.85811e-19)
(0.497459 -0.00699472 -3.15406e-19)
(0.621681 -0.000253937 -4.98962e-19)
(0.74905 0.0087284 2.10333e-19)
(0.874202 0.0192817 4.33468e-20)
(0.991761 0.0305091 2.61702e-19)
(1.09704 0.0414268 5.12083e-19)
(1.18663 0.0511227 -2.9164e-19)
(1.25879 0.0588951 1.0509e-19)
(1.31345 0.0643117 -3.73495e-19)
(1.35197 0.0673106 -1.14983e-19)
(1.37655 0.0677809 -9.30574e-20)
(1.39017 0.0669511 -5.42433e-20)
(1.39472 0.0618257 -4.01522e-19)
(0.00160619 -8.3953e-06 2.51318e-19)
(0.0243756 -0.00412827 3.98444e-19)
(0.0672074 -0.00793564 1.57827e-20)
(0.128892 -0.0113607 2.44223e-19)
(0.208497 -0.0133819 -5.84853e-19)
(0.304544 -0.0132205 1.401e-19)
(0.414754 -0.0103963 -9.05319e-20)
(0.535847 -0.00472172 -1.7551e-20)
(0.663483 0.0036439 -1.69538e-19)
(0.792447 0.0141836 -3.69821e-19)
(0.917109 0.0260741 -8.97231e-20)
(1.0321 0.0383027 2.37775e-19)
(1.13303 0.0498307 -7.03489e-19)
(1.21704 0.0597588 1.81025e-19)
(1.28305 0.0674535 -5.36834e-20)
(1.3316 0.0725861 3.15152e-19)
(1.36455 0.0751925 5.93303e-19)
(1.38444 0.0752837 1.89473e-21)
(1.39434 0.0740578 -1.00362e-19)
(1.39622 0.0688369 -1.32258e-19)
(0.00348193 -0.000734012 -4.52291e-20)
(0.0306818 -0.00583225 -6.00386e-19)
(0.0786625 -0.00994852 -4.58545e-19)
(0.14604 -0.0131588 -2.89166e-20)
(0.231641 -0.014484 1.02304e-19)
(0.333639 -0.0132077 -1.96132e-19)
(0.4493 -0.00894512 -7.96588e-22)
(0.574821 -0.00163735 6.44575e-20)
(0.70534 0.00839772 9.41752e-20)
(0.835237 0.0204738 5.2533e-19)
(0.958702 0.0336174 2.15552e-19)
(1.07049 0.0467162 -5.59637e-20)
(1.16661 0.058701 6.35511e-20)
(1.24481 0.0687109 -8.26513e-20)
(1.30466 0.0762004 3.738e-19)
(1.34731 0.0809542 -1.57431e-19)
(1.37506 0.0831076 -2.63807e-19)
(1.39069 0.0827844 -2.13024e-20)
(1.39729 0.081152 1.63661e-19)
(1.39685 0.0758107 1.35538e-20)
(0.00554418 -0.00145019 7.99563e-20)
(0.0374978 -0.00746248 3.18084e-19)
(0.0908956 -0.0117796 1.97448e-19)
(0.164162 -0.0146378 -3.57805e-19)
(0.255853 -0.0151141 7.62967e-20)
(0.363758 -0.0125723 4.6114e-19)
(0.484654 -0.00674382 2.50174e-19)
(0.6142 0.00228005 3.32047e-20)
(0.747033 0.0140063 3.00148e-19)
(0.877189 0.0275731 -6.0523e-19)
(0.998782 0.041865 -1.68284e-19)
(1.10679 0.0556901 -7.1251e-20)
(1.19772 0.0679754 4.15533e-19)
(1.26997 0.0779227 -1.25874e-19)
(1.32375 0.0850913 -3.56673e-20)
(1.36078 0.0893857 -2.2218e-19)
(1.3837 0.0910389 -1.83532e-19)
(1.39548 0.0902769 -6.19127e-20)
(1.39919 0.0882335 -6.73659e-20)
(1.39676 0.0827552 -1.86907e-19)
(0.00779778 -0.00214819 -7.4578e-20)
(0.0448303 -0.00899437 -4.4952e-20)
(0.103905 -0.0133916 -1.14993e-19)
(0.183238 -0.0157515 3.7584e-19)
(0.281082 -0.0152227 2.49132e-19)
(0.394806 -0.0112683 -7.93022e-20)
(0.520673 -0.00375796 -1.41743e-20)
(0.653795 0.00704591 3.06221e-19)
(0.788345 0.0204614 -4.61639e-19)
(0.918093 0.0354499 2.79581e-19)
(1.03718 0.050767 2.83331e-19)
(1.14091 0.0651655 7.44722e-20)
(1.22636 0.0775954 -1.48079e-19)
(1.2926 0.0873443 2.11961e-19)
(1.34048 0.0940893 -5.50027e-19)
(1.37219 0.0978575 7.08264e-20)
(1.39068 0.098975 -1.29903e-19)
(1.39902 0.0977591 3.2625e-19)
(1.40019 0.0953047 5.94033e-19)
(1.39606 0.0896788 7.66255e-20)
(0.0102468 -0.00281878 -1.15392e-19)
(0.0526831 -0.0104023 4.95775e-20)
(0.117685 -0.0147461 3.24233e-19)
(0.20324 -0.0164534 5.411e-21)
(0.307267 -0.0147612 -5.39445e-19)
(0.426679 -0.00925257 -3.67062e-19)
(0.557204 4.1729e-05 -3.11351e-19)
(0.693416 0.0126689 -1.62189e-19)
(0.82907 0.0277479 6.10346e-19)
(0.957755 0.0440672 -2.71063e-20)
(1.07374 0.0602715 8.02848e-20)
(1.17277 0.0750849 1.29834e-19)
(1.25254 0.0875076 -4.30724e-19)
(1.3128 0.0969325 -3.40335e-19)
(1.35499 0.103165 9.04662e-20)
(1.38173 0.106353 4.13914e-19)
(1.39617 0.10691 -3.28797e-20)
(1.40145 0.105232 3.20941e-19)
(1.40043 0.10237 -4.47658e-19)
(1.39485 0.0965901 -5.48555e-20)
(0.0128946 -0.00345228 1.4698e-19)
(0.0610567 -0.0116598 1.81936e-19)
(0.132222 -0.0158042 -3.34751e-19)
(0.224132 -0.0166973 -1.80059e-20)
(0.334336 -0.0136829 6.32355e-19)
(0.459263 -0.00648617 3.92957e-19)
(0.59409 0.00467864 -1.56239e-19)
(0.732874 0.0191509 2.28102e-19)
(0.86901 0.0358443 -2.41614e-19)
(0.996006 0.0533839 -2.41359e-19)
(1.10837 0.0703258 2.4316e-19)
(1.20235 0.0853936 -4.87116e-19)
(1.27632 0.0976634 6.10007e-20)
(1.33069 0.10665 2.29563e-19)
(1.36745 0.112293 -1.23642e-19)
(1.38956 0.114859 1.75103e-19)
(1.40035 0.11484 -2.09391e-19)
(1.40292 0.112698 -4.81874e-19)
(1.40001 0.109434 6.23819e-20)
(1.39322 0.103497 1.62893e-19)
(0.0157434 -0.00403865 1.71874e-19)
(0.0699487 -0.0127397 -5.53823e-19)
(0.1475 -0.0165268 8.81827e-20)
(0.24587 -0.0164378 -9.11251e-20)
(0.362208 -0.0119438 -2.23083e-19)
(0.492434 -0.00293471 -1.76384e-19)
(0.631168 0.0101698 1.57462e-19)
(0.77198 0.0264867 -7.144e-19)
(0.907982 0.0447234 -1.65126e-19)
(1.0327 0.0633558 1.06088e-19)
(1.14097 0.0808772 -1.3308e-19)
(1.22964 0.0960399 3.76018e-19)
(1.29777 0.10802 2.60995e-19)
(1.3464 0.116467 8.95293e-20)
(1.37802 0.121458 4.90882e-19)
(1.39588 0.123371 -4.79652e-19)
(1.40337 0.122766 2.92403e-19)
(1.40357 0.120161 4.0868e-19)
(1.39903 0.116502 -3.72018e-20)
(1.39122 0.110405 -2.6028e-19)
(0.0187945 -0.00456745 1.35552e-20)
(0.0793531 -0.0136146 -5.98948e-21)
(0.163494 -0.0168749 4.00498e-19)
(0.268401 -0.0156314 -5.68924e-20)
(0.390794 -0.00950327 -2.49865e-20)
(0.526062 0.00143094 4.19242e-19)
(0.668272 0.0165258 4.77251e-19)
(0.810554 0.0346646 1.30385e-19)
(0.945817 0.0543529 2.76302e-19)
(1.0677 0.0739364 -1.79059e-19)
(1.17149 0.0918743 -1.50667e-19)
(1.25467 0.106976 -3.52996e-21)
(1.31698 0.118539 -1.80714e-19)
(1.36007 0.126358 -6.73123e-21)
(1.38686 0.130645 -3.44936e-19)
(1.40082 0.131882 1.34825e-19)
(1.40538 0.13069 3.12153e-19)
(1.40351 0.127626 -1.55861e-19)
(1.39757 0.123579 1.77501e-19)
(1.38891 0.117322 3.16109e-19)
(0.0220481 -0.00502793 5.23606e-20)
(0.0892606 -0.0142566 -1.4159e-19)
(0.180175 -0.0168103 -8.27392e-21)
(0.291665 -0.0142363 4.26524e-21)
(0.419997 -0.00632465 -2.77603e-19)
(0.56001 0.00663421 -3.93178e-20)
(0.705239 0.0237504 -4.91929e-19)
(0.848424 0.0436668 5.06202e-19)
(0.982365 0.0646962 2.58277e-19)
(1.10093 0.085078 2.32015e-20)
(1.19991 0.103267 -2.34273e-21)
(1.27747 0.118159 -1.31132e-19)
(1.33404 0.129188 7.62646e-20)
(1.37183 0.136302 2.06918e-19)
(1.39412 0.139844 -3.56123e-19)
(1.40454 0.140393 2.68757e-19)
(1.40649 0.138615 -3.21312e-19)
(1.40282 0.135099 -1.43235e-20)
(1.3957 0.13067 1.25668e-21)
(1.38633 0.12425 1.42273e-19)
(0.0255031 -0.00540916 -1.14956e-19)
(0.0996579 -0.0146381 -1.27413e-19)
(0.197506 -0.0162957 1.81628e-19)
(0.315597 -0.0122136 -8.00297e-20)
(0.449712 -0.00237578 -2.48459e-20)
(0.594139 0.0126925 -2.43106e-19)
(0.741904 0.0318409 2.69667e-19)
(0.885428 0.0534698 -4.79629e-19)
(1.01749 0.0757136 4.30083e-20)
(1.13229 0.0967327 7.27088e-20)
(1.2262 0.11501 -3.91395e-20)
(1.29809 0.129549 2.76618e-20)
(1.34906 0.13994 -3.19267e-19)
(1.38183 0.146284 -2.41609e-19)
(1.39996 0.149051 2.01034e-19)
(1.40717 0.148903 -6.41493e-20)
(1.40681 0.146544 -3.81465e-19)
(1.40159 0.142582 -7.21736e-20)
(1.39346 0.137778 -3.13991e-19)
(1.38351 0.131194 -3.85374e-19)
(0.029157 -0.00570008 -2.71247e-20)
(0.110528 -0.0147317 1.88731e-19)
(0.215448 -0.0152955 1.35494e-19)
(0.34012 -0.00952716 3.95004e-19)
(0.479828 0.00237095 -1.36649e-20)
(0.628306 0.0196172 2.07874e-19)
(0.778109 0.0407883 -4.36328e-19)
(0.921415 0.0640449 1.52306e-19)
(1.05109 0.0873626 -1.26939e-19)
(1.16174 0.108853 1.81165e-19)
(1.25039 0.127056 4.45983e-20)
(1.31663 0.141111 1.03599e-19)
(1.36217 0.15077 2.96232e-19)
(1.39019 0.156292 3.65159e-20)
(1.40449 0.158261 -1.80946e-19)
(1.40882 0.157413 2.9715e-19)
(1.40644 0.15448 1.04137e-19)
(1.39988 0.150079 -4.88762e-20)
(1.39091 0.144906 2.94861e-19)
(1.38048 0.138154 1.94003e-19)
(0.365157 -0.00614473 -5.81492e-20)
(0.510231 0.00793789 6.99059e-20)
(0.662369 0.0274138 -4.0608e-20)
(0.813702 0.0505777 2.47096e-19)
(0.95625 0.0753594 -7.7546e-20)
(1.08306 0.0995992 -9.46572e-20)
(1.18924 0.121392 -3.20138e-19)
(1.27251 0.139366 -2.02095e-19)
(1.33315 0.152814 -1.85886e-19)
(1.37348 0.161661 -1.49871e-19)
(1.39706 0.166315 5.69784e-20)
(1.40785 0.167472 -1.10125e-19)
(1.40961 0.165927 1.3086e-20)
(1.40546 0.162428 2.07157e-19)
(1.39775 0.157594 2.18557e-19)
(1.38808 0.152055 1.57333e-20)
(1.37725 0.145132 1.35724e-19)
(0.696186 0.0360812 -4.21675e-20)
(0.848539 0.061189 -1.35088e-19)
(0.98981 0.087377 3.21938e-19)
(1.11333 0.112378 -8.02951e-20)
(1.21478 0.134304 -2.63362e-21)
(1.29259 0.151901 2.17035e-19)
(1.34774 0.16463 -1.93363e-19)
(1.38311 0.172594 8.44258e-20)
(1.40255 0.176348 -2.11022e-19)
(1.41015 0.176684 3.53842e-19)
(1.40962 0.174445 -2.66489e-19)
(1.40393 0.170389 -1.59858e-19)
(1.39525 0.165128 -1.69676e-21)
(1.38498 0.159226 -2.32415e-19)
(1.37383 0.152126 -2.73962e-21)
(1.14184 0.125655 -5.74009e-20)
(1.23835 0.147548 9.85583e-20)
(1.31069 0.164625 -1.32188e-19)
(1.36051 0.176536 1.67752e-19)
(1.39116 0.183558 1.60247e-19)
(1.40678 0.186386 3.57205e-20)
(1.4115 0.185897 -1.00631e-19)
(1.40893 0.182971 -2.36509e-20)
(1.40191 0.178366 -1.37127e-19)
(1.39241 0.172682 -5.81086e-20)
(1.38165 0.166417 9.51158e-20)
(1.37024 0.159136 -1.62858e-19)
(1.39776 0.194541 -4.22933e-21)
(1.40985 0.196424 1.48466e-19)
(1.41197 0.19511 -4.22601e-20)
(1.40762 0.191504 2.41595e-19)
(1.39945 0.18636 1.27362e-19)
(1.38925 0.180255 -2.12048e-20)
(1.37809 0.173628 6.96304e-20)
(1.36647 0.166158 2.65447e-19)
(1.40574 0.200047 -1.56269e-20)
(1.39658 0.194369 -1.91462e-19)
(1.3858 0.187847 1.57838e-20)
(1.37432 0.180856 -1.26326e-19)
(1.36253 0.173189 1.2671e-21)
(1.35841 0.180225 -2.64034e-20)
(1.28812 -0.229159 -1.03549e-19)
(1.31565 -0.244222 -4.11039e-20)
(1.31239 -0.240691 3.67895e-21)