/*--------------------------------*- C++ -*----------------------------------*\
  =========                 |
  \\      /  F ield         | OpenFOAM: The Open Source CFD Toolbox
   \\    /   O peration     | Website:  https://openfoam.org
    \\  /    A nd           | Version:  7
     \\/     M anipulation  |
\*---------------------------------------------------------------------------*/
FoamFile
{
    version     2.0;
    format      ascii;
    class       volVectorField;
    location    "140";
    object      U;
}
// * * * * * * * * * * * * * * * * * * * * * * * * * * * * * * * * * * * * * //

dimensions      [0 1 -1 0 0 0 0];

internalField   nonuniform List<vector> 
4575
(
(0.261625 0.0596795 7.39615e-22)
(0.367356 -0.170968 -3.19939e-22)
(0.46675 -0.379561 -3.00014e-22)
(0.551608 -0.53264 2.51267e-22)
(0.61441 -0.619988 -2.62089e-22)
(0.652509 -0.654443 -2.23845e-22)
(0.668575 -0.655126 5.03387e-23)
(0.668487 -0.639115 2.10564e-22)
(0.64988 -0.626183 1.26933e-22)
(0.607204 -0.625283 -4.39319e-22)
(0.555261 -0.603922 3.14112e-22)
(0.531686 -0.502334 -1.35833e-22)
(0.558041 -0.300278 -1.08752e-22)
(0.621835 -0.0454682 1.91189e-22)
(0.699527 0.19176 1.5758e-22)
(0.771512 0.366184 -4.93026e-23)
(0.825037 0.47021 -1.67906e-22)
(0.855626 0.519551 -4.67052e-24)
(0.868489 0.531913 -1.89871e-22)
(0.869752 0.525505 1.59576e-22)
(0.856401 0.524878 -4.85675e-23)
(0.822747 0.540029 4.56679e-23)
(0.776035 0.540784 -1.99585e-22)
(0.289384 0.0441435 3.40258e-21)
(0.393994 -0.185347 -2.40739e-22)
(0.491294 -0.392336 -1.88449e-21)
(0.572933 -0.54275 1.16016e-21)
(0.631784 -0.626775 -1.7855e-21)
(0.665967 -0.657974 1.47217e-21)
(0.678425 -0.656077 -9.14731e-23)
(0.675468 -0.637814 -2.40195e-22)
(0.655378 -0.622174 -7.76531e-22)
(0.611831 -0.619206 1.08879e-21)
(0.557495 -0.599108 -8.64617e-22)
(0.529374 -0.50247 1.10496e-21)
(0.551269 -0.30584 -5.97443e-23)
(0.612302 -0.0541265 -1.96854e-21)
(0.689144 0.182689 1.58294e-21)
(0.761848 0.35866 -8.18432e-22)
(0.816971 0.465209 6.72018e-22)
(0.849579 0.516952 -2.51819e-23)
(0.864591 0.53101 -8.9239e-23)
(0.86767 0.526058 3.82124e-22)
(0.855473 0.527248 -5.91463e-22)
(0.822565 0.544055 6.14215e-22)
(0.776874 0.545053 -7.08212e-22)
(0.317765 0.0293197 6.24555e-21)
(0.421062 -0.198896 -5.21032e-21)
(0.516166 -0.404265 -4.96835e-22)
(0.594492 -0.55207 7.76741e-22)
(0.649297 -0.632889 4.19501e-21)
(0.679526 -0.660976 -1.37348e-22)
(0.688399 -0.656637 -8.27513e-22)
(0.682569 -0.636284 4.94293e-22)
(0.660998 -0.618058 -4.39294e-22)
(0.6167 -0.612973 -6.88168e-24)
(0.5602 -0.594 -2.7327e-23)
(0.527636 -0.50235 -4.2046e-22)
(0.54499 -0.311402 -2.79492e-22)
(0.603146 -0.0630316 -2.87356e-22)
(0.679025 0.173249 1.68507e-21)
(0.752339 0.350753 -1.32287e-21)
(0.808987 0.459869 -1.30124e-24)
(0.843592 0.514068 -5.90772e-22)
(0.860761 0.529887 4.66359e-22)
(0.86567 0.526455 -1.28468e-23)
(0.854651 0.529502 2.61069e-22)
(0.822537 0.547973 -1.03257e-22)
(0.777912 0.549253 1.09873e-22)
(0.346617 0.0152438 5.52146e-21)
(0.448458 -0.211598 -5.50642e-21)
(0.541296 -0.415344 3.61079e-21)
(0.616239 -0.560595 -5.4427e-21)
(0.666925 -0.638336 2.10952e-21)
(0.693168 -0.663461 -9.72407e-22)
(0.698488 -0.656817 9.61461e-22)
(0.68979 -0.634537 -1.44481e-21)
(0.666739 -0.613853 8.43203e-22)
(0.621802 -0.60661 5.17757e-22)
(0.563374 -0.588609 5.92714e-22)
(0.526489 -0.501955 8.47553e-22)
(0.539229 -0.316933 -1.65965e-21)
(0.594388 -0.0721588 -1.23723e-21)
(0.669184 0.163454 1.91996e-22)
(0.742993 0.342471 1.56235e-21)
(0.801088 0.454188 1.56527e-21)
(0.837667 0.510893 -2.98951e-22)
(0.856995 0.528535 7.57339e-23)
(0.863748 0.526689 -4.90678e-22)
(0.853931 0.531628 1.68562e-22)
(0.822661 0.551776 7.34919e-23)
(0.779143 0.553381 -1.50313e-21)
(0.375791 0.00195145 4.57833e-21)
(0.476082 -0.223443 -2.98448e-21)
(0.56662 -0.425569 3.6357e-21)
(0.638131 -0.568329 -1.64375e-21)
(0.684641 -0.64312 6.07218e-22)
(0.706877 -0.66544 -2.85213e-21)
(0.708685 -0.656629 3.05376e-21)
(0.697132 -0.632582 -1.11554e-23)
(0.672598 -0.609579 -8.11569e-22)
(0.627126 -0.600145 -1.90975e-21)
(0.567007 -0.582947 3.18056e-22)
(0.525948 -0.501267 -9.79293e-22)
(0.534007 -0.322399 1.27675e-21)
(0.586046 -0.0814821 -3.52042e-22)
(0.659632 0.153321 -4.6158e-22)
(0.733814 0.333819 3.1124e-22)
(0.793276 0.448164 9.50896e-22)
(0.831801 0.507423 3.27082e-22)
(0.853291 0.52695 1.22721e-24)
(0.861901 0.526753 6.9851e-22)
(0.853311 0.533618 -3.00103e-22)
(0.822932 0.555453 -1.1028e-21)
(0.78056 0.557436 6.09981e-22)
(0.405141 -0.0105397 -9.20214e-21)
(0.503836 -0.23443 3.46165e-21)
(0.592075 -0.434943 -5.66156e-22)
(0.660124 -0.575274 -6.66518e-21)
(0.702419 -0.647248 5.51693e-21)
(0.720635 -0.666924 -2.42108e-22)
(0.71898 -0.656086 1.13768e-22)
(0.704596 -0.630429 3.15274e-21)
(0.678573 -0.605252 -2.23778e-21)
(0.632659 -0.593605 2.0749e-21)
(0.57109 -0.577033 -5.96213e-22)
(0.526025 -0.500271 -1.67845e-21)
(0.529344 -0.327766 2.7828e-21)
(0.578136 -0.0909732 -1.55542e-21)
(0.650381 0.142868 -1.26348e-21)
(0.72481 0.324805 -4.92886e-22)
(0.785553 0.441798 -2.08338e-21)
(0.825994 0.503653 8.25284e-22)
(0.849646 0.525126 -1.27363e-21)
(0.860123 0.526638 -3.9777e-22)
(0.852788 0.535461 1.16664e-21)
(0.823348 0.558996 6.39261e-22)
(0.782156 0.561416 7.78267e-22)
(0.434529 -0.0222187 -1.26617e-20)
(0.531632 -0.244562 6.86001e-21)
(0.617599 -0.443472 -9.50381e-21)
(0.682177 -0.581437 -6.30253e-22)
(0.720235 -0.650729 2.95839e-21)
(0.734427 -0.667928 -1.3638e-21)
(0.729366 -0.655202 -6.78401e-22)
(0.71218 -0.628089 -5.32372e-22)
(0.684661 -0.600889 1.53111e-21)
(0.638388 -0.587019 1.80727e-21)
(0.575607 -0.570884 2.68661e-21)
(0.526727 -0.498953 -3.01013e-21)
(0.525259 -0.333 4.10288e-21)
(0.570674 -0.100603 -2.46443e-21)
(0.64144 0.132112 -2.14494e-21)
(0.715985 0.315436 3.27098e-21)
(0.777923 0.435088 1.46619e-21)
(0.820246 0.499578 -3.4883e-21)
(0.846056 0.523055 9.38574e-22)
(0.858411 0.526336 5.58122e-22)
(0.852357 0.537146 -4.96299e-22)
(0.823904 0.562397 1.02876e-21)
(0.783924 0.565319 -7.5235e-22)
(0.463822 -0.0330845 -4.72246e-23)
(0.559385 -0.253849 3.18829e-21)
(0.643137 -0.451165 7.28338e-21)
(0.704248 -0.586826 -5.19532e-21)
(0.738062 -0.653571 7.82991e-23)
(0.748237 -0.668464 -2.25721e-22)
(0.739831 -0.65399 -1.85422e-21)
(0.719885 -0.62557 -1.19748e-21)
(0.69086 -0.596504 3.39816e-21)
(0.6443 -0.580413 -7.26313e-23)
(0.580541 -0.564522 -1.42053e-21)
(0.528059 -0.497301 -2.23753e-21)
(0.52177 -0.338067 4.01782e-21)
(0.563673 -0.110339 -3.34453e-21)
(0.632818 0.121073 6.23296e-22)
(0.707344 0.305723 -1.17084e-21)
(0.770387 0.428034 3.1525e-21)
(0.814554 0.495194 -2.357e-21)
(0.842517 0.520734 7.99703e-22)
(0.85676 0.52584 1.37423e-21)
(0.852013 0.538664 -2.19108e-21)
(0.824595 0.565648 -6.90719e-22)
(0.785855 0.569142 1.69673e-21)
(0.492897 -0.0431435 5.7448e-21)
(0.587018 -0.262307 2.8762e-21)
(0.668635 -0.458034 -2.72593e-21)
(0.726297 -0.591451 3.56866e-21)
(0.755876 -0.655786 5.26714e-21)
(0.762048 -0.668546 -7.85149e-21)
(0.750366 -0.652464 1.48455e-21)
(0.727707 -0.622882 2.42405e-21)
(0.697166 -0.592111 -1.22776e-21)
(0.650381 -0.573815 3.83036e-21)
(0.585872 -0.55797 -4.95157e-21)
(0.530021 -0.495307 2.20819e-21)
(0.518892 -0.342931 -3.92007e-21)
(0.557146 -0.12015 3.84924e-22)
(0.624524 0.109773 -7.77454e-22)
(0.698894 0.295673 2.64459e-21)
(0.762947 0.420638 -1.44564e-21)
(0.808917 0.490497 -1.26985e-21)
(0.839026 0.518155 -3.36723e-22)
(0.855165 0.525142 2.54001e-21)
(0.851753 0.540005 1.35034e-21)
(0.825416 0.568738 4.83129e-22)
(0.787942 0.572883 -1.1115e-21)
(0.521644 -0.0524099 7.68599e-21)
(0.614462 -0.269957 1.03504e-20)
(0.694044 -0.464097 -1.04757e-20)
(0.748286 -0.595324 -1.71804e-20)
(0.773652 -0.657384 5.58996e-22)
(0.775847 -0.668187 2.9971e-21)
(0.76096 -0.650638 1.01936e-20)
(0.735645 -0.620031 -6.0642e-21)
(0.703578 -0.58772 2.42539e-21)
(0.656617 -0.56725 -3.78546e-21)
(0.591576 -0.551254 2.58554e-21)
(0.53261 -0.492965 -1.14334e-21)
(0.51664 -0.347558 1.84602e-21)
(0.551105 -0.130002 -2.48862e-21)
(0.616565 0.0982335 2.87649e-22)
(0.690637 0.285299 -1.8486e-21)
(0.755604 0.4129 3.15646e-21)
(0.803335 0.485484 -1.83256e-21)
(0.835578 0.515313 1.18759e-21)
(0.85362 0.524235 -2.23146e-21)
(0.851572 0.541158 5.88055e-22)
(0.82636 0.571661 -3.25161e-21)
(0.790176 0.576538 1.93379e-21)
(0.549963 -0.0609057 -1.14403e-21)
(0.641655 -0.276825 1.50302e-20)
(0.719319 -0.469369 -1.65644e-20)
(0.770177 -0.598459 3.21275e-21)
(0.791365 -0.658378 -6.59142e-21)
(0.789619 -0.667401 1.021e-20)
(0.7716 -0.648526 4.40767e-21)
(0.743697 -0.617027 -2.1217e-22)
(0.710092 -0.583342 -5.31024e-21)
(0.662994 -0.560743 9.21261e-22)
(0.597629 -0.5444 5.30672e-21)
(0.535819 -0.490274 -6.37816e-22)
(0.515026 -0.351913 -4.55095e-21)
(0.545559 -0.139858 -1.34478e-21)
(0.608948 0.0864776 9.61288e-21)
(0.682578 0.27461 -4.94912e-22)
(0.748361 0.404823 -1.73827e-21)
(0.797805 0.480152 4.82118e-22)
(0.83217 0.512204 -7.96617e-22)
(0.85212 0.52311 2.76744e-21)
(0.851464 0.542115 -1.32166e-21)
(0.827421 0.574408 4.35922e-21)
(0.792547 0.580105 -2.53817e-21)
(0.767233 0.505153 3.90932e-21)
(0.577767 -0.0686596 3.32719e-21)
(0.668548 -0.282942 -1.48875e-20)
(0.744418 -0.473873 -1.00753e-21)
(0.791935 -0.600872 2.21167e-20)
(0.808992 -0.658782 -1.01044e-20)
(0.80335 -0.666202 -1.17969e-20)
(0.782277 -0.646143 1.02799e-20)
(0.751859 -0.613878 6.48922e-22)
(0.716707 -0.578986 -5.17971e-21)
(0.669498 -0.554317 -2.19149e-21)
(0.604004 -0.537439 1.32257e-21)
(0.539634 -0.487236 3.47156e-21)
(0.514063 -0.355965 -8.1553e-21)
(0.540519 -0.14968 1.60499e-21)
(0.601677 0.0745302 1.56952e-21)
(0.674722 0.263619 -7.78169e-21)
(0.741218 0.396408 -1.64321e-21)
(0.792327 0.474497 1.24284e-21)
(0.828796 0.508823 7.12486e-21)
(0.850658 0.52176 -2.61098e-21)
(0.851423 0.542865 2.03007e-21)
(0.828591 0.576971 -7.26759e-21)
(0.795046 0.583579 1.36514e-21)
(0.771038 0.5085 6.09191e-22)
(0.604987 -0.0757073 -1.7741e-20)
(0.695095 -0.288341 4.52438e-21)
(0.769303 -0.477628 4.61067e-21)
(0.813527 -0.602577 -1.46916e-20)
(0.826508 -0.658609 2.08993e-20)
(0.817026 -0.664604 -1.25075e-20)
(0.792978 -0.643502 8.15941e-21)
(0.760127 -0.610591 -9.66663e-21)
(0.723419 -0.574657 8.16227e-21)
(0.676115 -0.547994 2.01382e-21)
(0.610672 -0.530401 2.51274e-21)
(0.544038 -0.483855 -7.65278e-21)
(0.513761 -0.359682 2.64676e-21)
(0.535994 -0.159431 -2.3406e-21)
(0.594759 0.062417 6.59249e-22)
(0.667071 0.252338 6.65549e-21)
(0.734178 0.387659 -1.35054e-21)
(0.786897 0.468518 1.32944e-21)
(0.825453 0.505163 1.32e-21)
(0.84923 0.520178 -1.81677e-21)
(0.851443 0.543399 1.83957e-21)
(0.829863 0.579341 -3.05941e-21)
(0.797664 0.586956 3.22942e-21)
(0.774952 0.511915 8.25443e-22)
(0.631566 -0.08209 2.68845e-21)
(0.721263 -0.293058 -2.41209e-20)
(0.79394 -0.480659 2.23595e-20)
(0.83492 -0.603593 -1.52174e-20)
(0.843892 -0.657876 -9.08311e-21)
(0.830636 -0.662621 2.4151e-21)
(0.803691 -0.640619 3.22881e-21)
(0.768495 -0.607174 -3.34146e-21)
(0.730228 -0.570362 4.37375e-21)
(0.682833 -0.541795 3.6811e-21)
(0.617606 -0.523316 -7.73587e-21)
(0.54901 -0.480142 2.24893e-21)
(0.514128 -0.363034 5.47513e-21)
(0.531994 -0.169071 -8.58922e-21)
(0.588198 0.0501654 1.11425e-20)
(0.65963 0.240782 2.39239e-21)
(0.727242 0.37858 -2.98873e-21)
(0.781516 0.462214 -1.93957e-21)
(0.822135 0.501222 1.91211e-21)
(0.847829 0.518358 -3.04354e-21)
(0.851518 0.543709 2.8676e-21)
(0.831229 0.581511 2.48263e-21)
(0.80039 0.590231 1.83185e-22)
(0.778966 0.515395 1.77825e-21)
(0.657465 -0.087854 -1.06861e-20)
(0.747028 -0.297131 -4.89258e-21)
(0.818299 -0.482988 -9.95609e-22)
(0.856083 -0.603936 5.40865e-21)
(0.86112 -0.656597 -8.18989e-21)
(0.844166 -0.660267 -1.76241e-21)
(0.814407 -0.637507 -7.96505e-23)
(0.776959 -0.603635 5.88211e-21)
(0.73713 -0.566104 -2.16402e-21)
(0.689639 -0.535737 -1.15255e-21)
(0.624778 -0.516217 -7.92096e-21)
(0.554523 -0.476109 -1.75396e-21)
(0.51517 -0.365995 4.97954e-21)
(0.528529 -0.178558 7.65792e-22)
(0.581999 0.0378042 2.08119e-22)
(0.652402 0.228964 1.74923e-21)
(0.720412 0.369174 -2.28073e-21)
(0.77618 0.455582 -2.37957e-21)
(0.818838 0.496995 -1.34867e-21)
(0.846448 0.516291 2.31923e-21)
(0.851642 0.543784 -3.64022e-21)
(0.832679 0.583473 -1.81442e-22)
(0.803215 0.5934 1.23344e-21)
(0.783071 0.518939 -8.09307e-21)
(0.682661 -0.0930495 1.03086e-20)
(0.772373 -0.300599 -1.44698e-20)
(0.842351 -0.484638 5.57988e-21)
(0.876987 -0.603625 1.02347e-20)
(0.87817 -0.654789 2.15852e-21)
(0.857606 -0.657556 -8.19311e-22)
(0.825113 -0.63418 1.68154e-21)
(0.785512 -0.599981 -6.69001e-21)
(0.744124 -0.561886 4.15497e-21)
(0.696521 -0.529836 -2.62114e-22)
(0.632157 -0.509135 4.81145e-21)
(0.560547 -0.471775 -1.54976e-21)
(0.51689 -0.368542 -1.86173e-21)
(0.525612 -0.187851 7.55956e-22)
(0.576167 0.0253603 -5.29569e-21)
(0.645391 0.2169 4.17218e-21)
(0.713689 0.359447 -2.02231e-21)
(0.77089 0.448623 2.07182e-21)
(0.815557 0.492479 -2.47273e-22)
(0.845082 0.513971 -2.67136e-21)
(0.851806 0.543617 8.34863e-22)
(0.834206 0.585218 -1.6204e-21)
(0.806128 0.596457 6.67559e-21)
(0.787255 0.522545 -4.81412e-21)
(0.707148 -0.0977301 1.8567e-20)
(0.79729 -0.303502 1.71593e-20)
(0.866073 -0.485634 -4.14709e-22)
(0.897605 -0.602679 1.0252e-20)
(0.895022 -0.652469 2.30728e-22)
(0.870945 -0.654501 -8.18767e-21)
(0.835799 -0.630651 -3.6849e-22)
(0.794147 -0.59622 3.04286e-21)
(0.75121 -0.557708 4.57436e-21)
(0.703468 -0.524105 -7.48174e-21)
(0.639717 -0.502102 2.62784e-21)
(0.567049 -0.467159 -2.51045e-21)
(0.519288 -0.370655 6.54325e-21)
(0.523254 -0.196908 -8.0853e-23)
(0.57071 0.0128798 3.86912e-21)
(0.638601 0.204607 -3.22073e-21)
(0.707076 0.349406 -1.88645e-21)
(0.765642 0.441337 1.65018e-21)
(0.812287 0.487669 -2.03008e-21)
(0.843723 0.511393 5.1225e-21)
(0.852005 0.543199 -3.19141e-21)
(0.835801 0.586739 3.75381e-21)
(0.80912 0.599396 2.60607e-21)
(0.791508 0.526208 -2.89188e-21)
(0.730938 -0.101951 1.45662e-20)
(0.821777 -0.305879 3.1348e-21)
(0.889441 -0.485998 -9.59858e-21)
(0.917909 -0.601117 4.83234e-21)
(0.911655 -0.649655 4.3512e-21)
(0.884171 -0.651117 2.86625e-21)
(0.846456 -0.626934 -4.08267e-21)
(0.802856 -0.59236 5.07604e-21)
(0.758387 -0.553572 -8.97525e-21)
(0.71047 -0.518557 1.71461e-23)
(0.647431 -0.495149 7.08276e-21)
(0.573993 -0.462287 -6.70629e-21)
(0.522359 -0.372319 -2.47794e-21)
(0.521471 -0.205687 -1.40473e-21)
(0.565633 0.000509341 1.35518e-21)
(0.632035 0.192104 -6.30491e-22)
(0.700574 0.339056 -2.77501e-21)
(0.760438 0.433724 4.84944e-22)
(0.809023 0.482564 3.45489e-21)
(0.842364 0.50855 -1.24731e-22)
(0.852229 0.542523 -2.77808e-21)
(0.837453 0.588028 -3.5139e-21)
(0.81218 0.60221 2.98725e-22)
(0.795819 0.529924 5.36262e-21)
(0.754058 -0.105769 -1.1011e-20)
(0.845842 -0.307766 -1.2079e-20)
(0.912435 -0.485753 -1.0721e-20)
(0.937875 -0.598958 1.88742e-20)
(0.92805 -0.646365 -1.113e-20)
(0.897276 -0.647417 8.06692e-21)
(0.857073 -0.623042 -3.69898e-21)
(0.81163 -0.588409 -5.00617e-21)
(0.765652 -0.549476 -3.74734e-22)
(0.717518 -0.513198 -5.09607e-21)
(0.655271 -0.488305 -7.10109e-23)
(0.58134 -0.457187 5.60723e-21)
(0.526094 -0.373524 4.74706e-21)
(0.52029 -0.214145 -5.77123e-21)
(0.560946 -0.0119508 -5.31939e-22)
(0.625686 0.179403 6.83312e-22)
(0.694187 0.328406 7.93202e-22)
(0.755274 0.425786 -4.13732e-21)
(0.805761 0.477161 2.70665e-21)
(0.841 0.505437 -7.58844e-22)
(0.852472 0.54158 -1.57962e-21)
(0.839153 0.589077 4.81739e-22)
(0.815297 0.604894 -4.11495e-21)
(0.800179 0.533689 -5.85281e-22)
(0.776553 -0.109239 -5.37218e-20)
(0.869493 -0.309199 5.82673e-20)
(0.935035 -0.48492 -3.83249e-20)
(0.957479 -0.596221 1.66853e-21)
(0.944188 -0.642617 1.05956e-20)
(0.910249 -0.643414 -7.35143e-21)
(0.867644 -0.618985 -5.66757e-21)
(0.820461 -0.584375 5.94623e-21)
(0.773005 -0.545418 1.58154e-21)
(0.724602 -0.508036 -5.08715e-21)
(0.663213 -0.4816 2.98103e-21)
(0.58905 -0.45189 -2.93961e-22)
(0.530477 -0.374264 -1.41103e-21)
(0.519702 -0.222249 5.57195e-21)
(0.55666 -0.0244892 4.10947e-21)
(0.619583 0.166531 1.43607e-21)
(0.687918 0.317464 -6.22182e-21)
(0.750151 0.417525 2.37857e-21)
(0.802495 0.471457 1.39477e-21)
(0.839624 0.502048 -9.89919e-22)
(0.852726 0.540364 1.98975e-21)
(0.840892 0.589878 -1.32804e-22)
(0.818462 0.607438 -3.646e-21)
(0.804576 0.537497 2.94418e-21)
(0.798481 -0.112417 -4.45031e-20)
(0.892748 -0.310208 3.30148e-20)
(0.957222 -0.483517 2.06653e-20)
(0.976696 -0.592925 -1.7749e-20)
(0.960052 -0.638429 -2.46396e-20)
(0.923081 -0.639123 1.42604e-20)
(0.878159 -0.614777 -2.00769e-21)
(0.829337 -0.580266 -5.3635e-21)
(0.780445 -0.541397 6.49394e-22)
(0.731717 -0.503075 1.82971e-21)
(0.671233 -0.47506 -2.67284e-22)
(0.597083 -0.446427 2.10123e-21)
(0.535488 -0.374539 2.62339e-21)
(0.519733 -0.229958 -5.85187e-21)
(0.552789 -0.0368298 1.96483e-22)
(0.613726 0.153511 5.92202e-22)
(0.681771 0.306241 -6.41425e-22)
(0.745069 0.408943 2.43113e-21)
(0.799222 0.465453 2.94258e-21)
(0.838228 0.49838 -4.07786e-21)
(0.852981 0.538869 -7.08756e-24)
(0.84266 0.590424 5.651e-22)
(0.821664 0.609837 6.37356e-21)
(0.808999 0.541341 -2.8431e-21)
(0.819915 -0.115353 -2.8459e-20)
(0.915622 -0.310822 3.27431e-21)
(0.978978 -0.481565 -2.93145e-20)
(0.995506 -0.58909 4.09954e-20)
(0.975626 -0.633822 -2.6995e-20)
(0.935764 -0.634557 7.96319e-21)
(0.888612 -0.610427 -1.34845e-20)
(0.83825 -0.576089 2.02363e-20)
(0.787971 -0.537409 -1.20346e-20)
(0.738857 -0.498315 6.11547e-21)
(0.679309 -0.468709 1.89096e-21)
(0.605401 -0.440834 -4.93125e-21)
(0.541099 -0.374354 -5.93207e-22)
(0.520399 -0.237235 -3.56515e-21)
(0.549349 -0.0490258 2.59851e-21)
(0.60812 0.140365 6.16479e-22)
(0.67575 0.294747 -4.07835e-21)
(0.740027 0.400046 2.32492e-21)
(0.795938 0.459146 6.50572e-22)
(0.836806 0.494429 -1.97636e-21)
(0.85323 0.537087 4.3019e-22)
(0.844447 0.590707 -2.39583e-21)
(0.824893 0.612081 1.07424e-21)
(0.813439 0.545214 -1.64746e-21)
(0.840937 -0.118095 2.72403e-20)
(0.938135 -0.311062 -5.01555e-21)
(1.00028 -0.479079 -1.23358e-20)
(1.01389 -0.584735 2.5328e-21)
(0.990895 -0.628813 -3.06425e-21)
(0.948289 -0.629729 4.4682e-21)
(0.898997 -0.605946 -2.6726e-21)
(0.847189 -0.571854 9.87631e-21)
(0.795581 -0.533452 8.39748e-22)
(0.746016 -0.493756 2.61254e-21)
(0.687418 -0.462572 -7.18495e-21)
(0.613964 -0.435147 5.10394e-21)
(0.547278 -0.373719 1.22787e-21)
(0.521711 -0.244048 -1.061e-21)
(0.54636 -0.061056 -2.63289e-21)
(0.602777 0.127119 3.31372e-21)
(0.669861 0.282994 -1.88029e-21)
(0.735027 0.390837 -3.75018e-22)
(0.792637 0.452538 4.50619e-21)
(0.835352 0.49019 -9.35631e-22)
(0.853464 0.535013 -8.5312e-22)
(0.846242 0.590721 6.81036e-21)
(0.828139 0.614162 -4.15422e-22)
(0.817885 0.549109 3.14709e-22)
(0.861638 -0.120685 -3.09312e-20)
(0.960302 -0.310948 1.53703e-21)
(1.02112 -0.476075 -6.50499e-21)
(1.03182 -0.57988 4.0986e-20)
(1.00584 -0.623423 -1.00066e-20)
(0.960648 -0.624652 1.71085e-21)
(0.909309 -0.601343 -5.33884e-22)
(0.856142 -0.567567 -1.74695e-20)
(0.803272 -0.529523 3.85432e-21)
(0.753193 -0.489395 7.78507e-21)
(0.695541 -0.456668 1.81496e-21)
(0.622735 -0.429402 -3.04594e-21)
(0.55399 -0.37265 1.75055e-22)
(0.523678 -0.250371 4.16541e-22)
(0.543843 -0.0728649 1.75165e-21)
(0.597711 0.1138 -3.09622e-21)
(0.664111 0.270997 -6.03268e-21)
(0.730069 0.381322 2.24731e-21)
(0.789318 0.445629 -8.85686e-22)
(0.833859 0.48566 -3.72721e-21)
(0.853676 0.532641 2.23997e-21)
(0.848038 0.590456 1.00551e-21)
(0.831392 0.616071 1.72865e-21)
(0.822326 0.553017 -1.80862e-21)
(0.882116 -0.123157 3.22725e-20)
(0.982139 -0.31049 2.85227e-20)
(1.04147 -0.472567 -3.38419e-20)
(1.04928 -0.574545 2.60553e-20)
(1.02046 -0.617672 -9.27556e-21)
(0.972834 -0.619341 -1.66907e-21)
(0.919543 -0.596627 1.67459e-20)
(0.865101 -0.563238 -3.58887e-21)
(0.811041 -0.525618 -1.36498e-21)
(0.760384 -0.485226 -1.45859e-21)
(0.703659 -0.451014 -2.84777e-21)
(0.631678 -0.423637 6.09452e-21)
(0.561193 -0.371167 -2.16655e-21)
(0.526303 -0.25618 4.51963e-21)
(0.541825 -0.0844055 -7.00175e-21)
(0.592937 0.100438 -3.60365e-21)
(0.658507 0.258771 7.30157e-21)
(0.725155 0.371509 -1.72749e-21)
(0.785976 0.438419 -3.0779e-22)
(0.83232 0.480838 3.8754e-21)
(0.853855 0.529968 -2.96768e-21)
(0.849822 0.589908 -6.14627e-22)
(0.834642 0.6178 -2.29904e-21)
(0.826753 0.556929 6.06392e-21)
(1.00366 -0.309697 -4.10182e-20)
(1.0613 -0.468566 -5.24816e-21)
(1.06626 -0.568748 1.46679e-20)
(1.03474 -0.611579 2.1835e-20)
(0.98484 -0.613807 8.42926e-21)
(0.929695 -0.591807 3.45018e-21)
(0.874054 -0.558873 -1.31152e-20)
(0.818885 -0.521735 1.13717e-21)
(0.767591 -0.481241 1.70051e-21)
(0.711755 -0.445627 3.53732e-22)
(0.64076 -0.417888 -1.70137e-21)
(0.568846 -0.369295 -1.15379e-21)
(0.529583 -0.26146 -4.22102e-21)
(0.540333 -0.0956411 1.67585e-24)
(0.588474 0.0870651 1.23735e-21)
(0.65306 0.246333 2.62296e-21)
(0.720289 0.361404 -1.7853e-21)
(0.78261 0.430912 -4.04501e-21)
(0.83073 0.475722 2.95951e-22)
(0.853994 0.526988 -8.38856e-22)
(0.851586 0.589068 -1.19003e-21)
(0.83788 0.619338 5.54754e-21)
(0.831156 0.560836 3.1246e-21)
(1.02486 -0.308568 -3.66755e-21)
(1.0806 -0.464085 7.65685e-21)
(1.08273 -0.562511 -2.4243e-20)
(1.04866 -0.605163 4.66404e-21)
(0.99666 -0.608065 1.87602e-20)
(0.939762 -0.586889 -2.10167e-20)
(0.882992 -0.554481 3.19987e-21)
(0.826799 -0.517873 2.50129e-21)
(0.774812 -0.477433 3.83153e-21)
(0.719813 -0.440517 -6.54012e-21)
(0.649947 -0.412192 5.18957e-22)
(0.576905 -0.367063 8.4673e-21)
(0.533507 -0.266199 -2.91526e-21)
(0.539393 -0.106536 1.30466e-21)
(0.584345 0.0737151 7.86199e-22)
(0.647782 0.233702 -5.14742e-21)
(0.715474 0.351017 5.12891e-21)
(0.779216 0.42311 -3.95099e-21)
(0.829082 0.470311 4.72988e-21)
(0.854083 0.523698 -3.28155e-21)
(0.85332 0.587929 -7.60577e-21)
(0.841095 0.620676 1.1865e-21)
(0.835526 0.564727 3.40391e-21)
(1.04574 -0.307099 2.07399e-20)
(1.09934 -0.459134 -1.52161e-20)
(1.09869 -0.555854 1.28245e-20)
(1.06223 -0.598444 3.43001e-21)
(1.00829 -0.602126 3.10365e-21)
(0.949741 -0.58188 -1.10144e-20)
(0.891906 -0.550067 1.57588e-21)
(0.834776 -0.514028 7.28361e-21)
(0.782051 -0.47379 6.94414e-22)
(0.727819 -0.435694 1.04135e-21)
(0.65921 -0.406583 -5.01739e-21)
(0.585327 -0.364502 3.7923e-21)
(0.538053 -0.270392 -7.26902e-22)
(0.539033 -0.117052 1.1262e-21)
(0.580577 0.0604243 -5.66211e-21)
(0.642686 0.220898 8.45614e-21)
(0.710715 0.340358 6.01201e-22)
(0.775794 0.415017 -4.77515e-21)
(0.827371 0.464605 6.19659e-21)
(0.854116 0.520096 2.85587e-21)
(0.855013 0.586487 2.44172e-21)
(0.84428 0.621803 -8.95692e-21)
(0.839853 0.568592 -1.85424e-23)
(1.06629 -0.305281 5.06561e-20)
(1.11749 -0.453722 -2.01744e-20)
(1.11411 -0.548797 -1.69929e-20)
(1.07543 -0.591443 4.4657e-21)
(1.01972 -0.596005 1.70433e-20)
(0.959629 -0.576786 -7.94318e-21)
(0.900788 -0.54564 9.61896e-21)
(0.842809 -0.510202 -3.20585e-21)
(0.78931 -0.4703 9.85132e-22)
(0.73576 -0.431164 -3.94903e-21)
(0.668519 -0.401095 -3.37565e-22)
(0.59407 -0.361646 -5.55054e-21)
(0.543193 -0.27404 2.34908e-21)
(0.539276 -0.127156 -8.69696e-22)
(0.5772 0.0472302 -2.55402e-21)
(0.637789 0.207946 4.73868e-21)
(0.706019 0.329438 -3.57013e-21)
(0.772344 0.406639 5.37432e-21)
(0.825592 0.458604 -1.07995e-21)
(0.854082 0.516178 1.33453e-21)
(0.856657 0.584734 -1.6357e-21)
(0.847425 0.62271 -2.67918e-21)
(0.844129 0.572418 -4.16554e-21)
(1.08648 -0.303096 1.35862e-20)
(1.13502 -0.44786 -2.63428e-20)
(1.12898 -0.541363 3.17209e-20)
(1.08825 -0.584178 -2.70692e-20)
(1.03094 -0.589713 4.18419e-20)
(0.969424 -0.571613 -2.99498e-20)
(0.90963 -0.541205 5.83521e-21)
(0.850891 -0.506392 -2.15469e-21)
(0.796593 -0.466951 6.44652e-21)
(0.743627 -0.426931 -1.33864e-21)
(0.677847 -0.395761 7.36039e-21)
(0.603095 -0.358532 -5.64253e-21)
(0.548893 -0.277148 7.03856e-21)
(0.540139 -0.136817 -4.30584e-21)
(0.574251 0.0341707 1.40155e-21)
(0.633113 0.194869 2.09525e-21)
(0.701394 0.318273 -4.9147e-21)
(0.768864 0.397981 -1.62272e-21)
(0.823739 0.452311 6.97195e-21)
(0.853974 0.511943 -5.76749e-22)
(0.858242 0.582664 3.70774e-21)
(0.850521 0.623386 -9.08399e-22)
(0.848345 0.576194 -2.72756e-21)
(1.10627 -0.300528 6.80263e-21)
(1.1519 -0.441558 -8.41901e-20)
(1.1433 -0.533571 1.19817e-20)
(1.10071 -0.576667 -1.0643e-21)
(1.04197 -0.583261 2.38376e-20)
(0.979124 -0.566365 -1.41017e-20)
(0.918426 -0.536766 1.7939e-20)
(0.859013 -0.502598 -8.4664e-21)
(0.803903 -0.463728 -1.96355e-21)
(0.75141 -0.422992 6.28821e-21)
(0.687166 -0.390611 -3.62885e-21)
(0.612366 -0.355196 2.21669e-21)
(0.555112 -0.279727 2.59368e-21)
(0.541632 -0.14601 2.72412e-21)
(0.571767 0.0212831 -5.06133e-21)
(0.628684 0.181696 -3.02977e-21)
(0.696852 0.306875 2.71646e-21)
(0.765359 0.389049 1.9049e-21)
(0.821808 0.445726 -3.39805e-21)
(0.853784 0.507391 -9.07316e-23)
(0.859758 0.580272 -5.03074e-21)
(0.853561 0.623819 4.47732e-21)
(0.852494 0.579908 9.8283e-21)
(1.12562 -0.297554 -1.57788e-20)
(1.16811 -0.434827 9.57595e-21)
(1.15705 -0.525444 1.79464e-20)
(1.11278 -0.568928 -1.59008e-20)
(1.05278 -0.576661 -1.09705e-20)
(0.988727 -0.561045 7.61857e-23)
(0.92717 -0.532327 1.02389e-20)
(0.867164 -0.498821 -4.17393e-22)
(0.811245 -0.460618 -7.88416e-21)
(0.759103 -0.419344 4.92572e-21)
(0.69645 -0.385674 -6.9377e-22)
(0.621848 -0.351676 -3.14164e-21)
(0.561807 -0.281792 -1.69732e-21)
(0.54375 -0.154716 1.33439e-21)
(0.56979 0.00862365 1.11975e-22)
(0.624536 0.168457 -3.06935e-21)
(0.692408 0.295263 4.61337e-21)
(0.761831 0.379853 -5.22935e-21)
(0.819797 0.438855 7.51389e-21)
(0.853504 0.502521 -1.06901e-21)
(0.861196 0.577554 -3.38499e-21)
(0.856536 0.624 -1.38063e-21)
(0.856568 0.583546 -9.0784e-21)
(1.14447 -0.294155 3.92298e-20)
(1.18361 -0.427682 -3.22561e-20)
(1.17023 -0.517007 1.40335e-20)
(1.12448 -0.560985 1.68843e-20)
(1.06337 -0.56993 6.40433e-22)
(0.998232 -0.555663 -3.604e-21)
(0.935858 -0.527897 1.18739e-22)
(0.875336 -0.495068 -1.78157e-21)
(0.818623 -0.45761 2.27666e-21)
(0.766704 -0.415983 2.49334e-21)
(0.705676 -0.380979 -4.18398e-21)
(0.63151 -0.348012 -6.13707e-22)
(0.568936 -0.283363 -2.4207e-21)
(0.546478 -0.162922 8.00067e-21)
(0.568361 -0.00373005 -4.15968e-21)
(0.620709 0.155185 1.77526e-21)
(0.688085 0.283456 1.95793e-21)
(0.758288 0.370403 -2.82836e-21)
(0.817703 0.4317 -3.08812e-21)
(0.853126 0.497333 1.89865e-21)
(0.862547 0.574504 4.15086e-21)
(0.859438 0.623917 -6.19746e-21)
(0.860558 0.587094 -1.07509e-20)
(1.16274 -0.290306 2.31883e-20)
(1.19837 -0.42014 -1.94813e-20)
(1.18284 -0.508296 2.41948e-20)
(1.1358 -0.552872 2.36991e-20)
(1.07375 -0.563096 -3.19633e-20)
(1.00764 -0.550238 2.77531e-21)
(0.944486 -0.523493 4.47381e-21)
(0.883519 -0.491349 8.21808e-21)
(0.826038 -0.454697 -5.50626e-21)
(0.77421 -0.412905 -2.49111e-21)
(0.714818 -0.376553 -1.96977e-21)
(0.641321 -0.344246 3.53074e-21)
(0.576457 -0.284463 -2.92237e-21)
(0.549789 -0.170619 4.01231e-21)
(0.567517 -0.0158684 -2.52222e-21)
(0.617253 0.141908 -1.44728e-21)
(0.683916 0.271474 5.26144e-22)
(0.754743 0.360709 3.20971e-21)
(0.815527 0.424269 -5.33026e-21)
(0.852645 0.49183 3.72355e-21)
(0.863803 0.571119 9.66875e-21)
(0.862261 0.62356 -1.61348e-20)
(0.864459 0.590538 6.58812e-21)
(1.18035 -0.285989 -4.49313e-20)
(1.21236 -0.41222 2.60599e-20)
(1.19487 -0.499327 8.95566e-21)
(1.14675 -0.54459 7.1209e-21)
(1.08392 -0.556151 4.51495e-22)
(1.01694 -0.544754 -1.96442e-20)
(0.953052 -0.519097 9.7788e-21)
(0.891702 -0.487653 4.62816e-21)
(0.833495 -0.451855 2.55791e-21)
(0.781624 -0.410086 -2.45485e-22)
(0.723854 -0.372408 -4.8283e-21)
(0.651253 -0.34041 3.26413e-21)
(0.584337 -0.285108 2.83161e-22)
(0.553629 -0.177802 -6.03473e-22)
(0.567284 -0.0277974 -1.47287e-21)
(0.614244 0.128662 2.61039e-21)
(0.679951 0.25934 -1.3447e-21)
(0.751223 0.350785 2.12672e-21)
(0.813277 0.416567 -1.40795e-21)
(0.852057 0.486015 3.06662e-21)
(0.864956 0.567395 -2.61944e-21)
(0.864998 0.622919 5.10577e-21)
(0.868261 0.593865 -5.33632e-21)
(1.19721 -0.281206 -2.53101e-21)
(1.22557 -0.403916 4.4366e-20)
(1.20632 -0.490052 -4.92058e-22)
(1.15733 -0.536055 1.05124e-20)
(1.09387 -0.548995 -2.0454e-20)
(1.02613 -0.539113 -3.35856e-21)
(0.961552 -0.514628 -2.4004e-21)
(0.899875 -0.483917 1.37764e-20)
(0.840994 -0.44902 -8.38498e-21)
(0.78895 -0.407473 -1.40722e-21)
(0.732762 -0.368535 3.06911e-21)
(0.661278 -0.336521 -5.47371e-21)
(0.592544 -0.285302 1.39536e-21)
(0.557945 -0.184446 4.09291e-21)
(0.567672 -0.039367 -4.06255e-21)
(0.611763 0.115491 1.76783e-21)
(0.676267 0.247087 -7.63168e-24)
(0.747773 0.340647 1.48357e-21)
(0.810971 0.408604 -1.50668e-22)
(0.851363 0.479891 -4.42526e-22)
(0.865998 0.563329 3.27398e-21)
(0.867642 0.621981 -1.06695e-20)
(0.87196 0.597058 9.1456e-21)
(1.21323 -0.275963 -4.3385e-20)
(1.23798 -0.395231 2.5923e-21)
(1.21721 -0.480462 3.24843e-21)
(1.16754 -0.527254 2.43677e-21)
(1.10359 -0.54162 7.86283e-21)
(1.03522 -0.53331 3.37396e-21)
(0.969982 -0.510088 3.40046e-21)
(0.908025 -0.480149 -2.96643e-21)
(0.84853 -0.446191 2.81107e-22)
(0.79619 -0.405057 -7.53557e-22)
(0.741521 -0.364959 -9.13532e-22)
(0.671366 -0.33264 3.92958e-21)
(0.601053 -0.285095 -3.02486e-21)
(0.562682 -0.190566 4.90652e-21)
(0.568666 -0.0505469 -4.66985e-21)
(0.609901 0.102445 2.36972e-21)
(0.672981 0.234763 -1.18169e-21)
(0.744482 0.33033 1.17594e-22)
(0.808657 0.4004 1.19031e-22)
(0.850576 0.47347 1.86034e-21)
(0.866931 0.558924 -1.8897e-21)
(0.870194 0.620734 -6.03679e-21)
(0.87555 0.600089 1.04411e-20)
(1.24958 -0.386351 2.25782e-20)
(1.22754 -0.47098 -2.0282e-20)