/*--------------------------------*- C++ -*----------------------------------*\
  =========                 |
  \\      /  F ield         | OpenFOAM: The Open Source CFD Toolbox
   \\    /   O peration     | Website:  https://openfoam.org
    \\  /    A nd           | Version:  7
     \\/     M anipulation  |
\*---------------------------------------------------------------------------*/
FoamFile
{
    version     2.0;
    format      ascii;
    class       volVectorField;
    location    "200";
    object      U;
}
// * * * * * * * * * * * * * * * * * * * * * * * * * * * * * * * * * * * * * //

dimensions      [0 1 -1 0 0 0 0];

internalField   nonuniform List<vector> 
4575
(
(1.16533 0.35169 -9.22742e-21)
(1.1619 0.370243 3.23325e-20)
(1.15614 0.355066 -2.91305e-20)
(1.16213 0.409777 -3.92741e-20)
(1.1568 0.391121 1.79917e-20)
(1.15207 0.373632 3.51802e-21)
(1.14678 0.358208 2.88424e-20)
(1.15693 0.433494 -2.63881e-20)
(1.15106 0.413556 7.42483e-20)
(1.14625 0.394536 -2.74516e-21)
(1.14204 0.376763 -1.01926e-20)
(1.13725 0.361107 3.93161e-21)
(1.1515 0.458791 4.48089e-20)
(1.14512 0.437375 -2.56135e-20)
(1.13977 0.417042 -3.61897e-20)
(1.1355 0.39767 9.54132e-21)
(1.13183 0.379627 -2.25729e-20)
(1.12755 0.363752 -1.44634e-20)
(1.14563 0.485701 -2.58952e-20)
(1.1389 0.462773 -7.26725e-21)
(1.13308 0.440936 -1.45653e-21)
(1.12827 0.420223 -2.50715e-21)
(1.12454 0.400513 6.06386e-22)
(1.12143 0.382213 -1.58428e-20)
(1.11769 0.366136 1.0635e-20)
(1.13898 0.514206 6.66534e-20)
(1.13217 0.489779 -1.71916e-20)
(1.12606 0.466401 -1.98219e-21)
(1.12082 0.444164 3.19836e-20)
(1.11656 0.423089 7.70843e-21)
(1.11339 0.403054 2.2532e-20)
(1.11084 0.384512 2.44322e-20)
(1.10768 0.368247 3.83079e-21)
(1.13111 0.544197 8.39738e-21)
(1.1246 0.518377 1.72846e-20)
(1.11846 0.493465 3.28526e-20)
(1.113 0.469663 3.59106e-21)
(1.10835 0.447046 8.53337e-21)
(1.10465 0.425627 -2.37535e-20)
(1.10205 0.405285 1.3577e-20)
(1.10008 0.386514 -1.75721e-20)
(1.09752 0.370078 -3.41898e-21)
(1.12133 0.575328 -8.69106e-20)
(1.11575 0.548471 -9.61828e-20)
(1.10995 0.522112 -4.33224e-20)
(1.10452 0.496744 -4.35568e-20)
(1.09972 0.472545 -5.15656e-21)
(1.09569 0.449573 -3.66524e-21)
(1.09257 0.427829 -6.62171e-21)
(1.09054 0.407197 -7.29031e-21)
(1.08916 0.388209 -1.7114e-20)
(1.08722 0.371619 6.10867e-21)
(1.10849 0.606783 -1.46138e-20)
(1.10498 0.579737 6.36657e-20)
(1.1001 0.552258 8.62103e-20)
(1.09504 0.525396 1.3448e-20)
(1.09035 0.499604 5.25085e-20)
(1.08625 0.475034 -2.6194e-21)
(1.08286 0.451731 2.46106e-20)
(1.08032 0.429684 -7.3335e-21)
(1.07887 0.40878 -7.07561e-21)
(1.07807 0.389591 1.15627e-20)
(1.07677 0.37286 -1.71854e-21)
(1.09063 0.636936 2.75553e-20)
(1.0912 0.61139 3.938e-20)
(1.08831 0.583598 2.43835e-20)
(1.08418 0.555541 -5.94109e-20)
(1.0799 0.528213 -4.30534e-20)
(1.07598 0.502029 -2.56187e-20)
(1.0726 0.477118 -3.96407e-20)
(1.06987 0.45351 -7.43182e-21)
(1.06793 0.431184 -3.62561e-21)
(1.06704 0.410028 4.55348e-22)
(1.06683 0.390649 2.14246e-21)
(1.0662 0.373793 -1.74022e-21)
(1.06467 0.662919 -3.87281e-20)
(1.07255 0.641847 -1.34328e-19)
(1.07355 0.615383 -9.08105e-20)
(1.07134 0.586897 -2.55741e-20)
(1.068 0.558307 3.74101e-20)
(1.06454 0.53055 2.84683e-20)
(1.06142 0.504007 9.16815e-22)
(1.05879 0.478785 1.91414e-20)
(1.05673 0.4549 -1.96854e-21)
(1.0554 0.432318 3.42007e-21)
(1.05508 0.410932 2.22897e-21)
(1.05544 0.391378 -6.32981e-21)
(1.05549 0.374407 4.50182e-21)
(1.02607 0.680183 -4.71671e-20)
(1.04606 0.668275 7.86852e-20)
(1.05405 0.646066 8.12773e-20)
(1.05556 0.618744 2.77572e-20)
(1.05409 0.589619 2.56556e-20)
(1.05159 0.56054 -1.06262e-20)
(1.04899 0.532393 -4.70862e-21)
(1.04669 0.505524 -4.30972e-22)
(1.04483 0.480023 1.66149e-20)
(1.04347 0.455889 2.56265e-21)
(1.04277 0.433078 -1.4981e-21)
(1.04301 0.411487 -6.79404e-21)
(1.04392 0.391769 1.21589e-20)
(1.04467 0.37469 1.10519e-20)
(0.968797 0.682205 -2.65369e-20)
(1.00736 0.686135 1.19823e-20)
(1.02697 0.672856 -8.12111e-21)
(1.03516 0.649576 6.83265e-20)
(1.03726 0.621459 -5.83862e-20)
(1.03659 0.591749 -7.9758e-21)
(1.03497 0.562227 2.0911e-22)
(1.03325 0.533729 6.67891e-21)
(1.0318 0.50657 1.4088e-20)
(1.03074 0.48082 -8.59132e-21)
(1.03011 0.456467 -9.97237e-22)
(1.03004 0.433455 3.21015e-21)
(1.03085 0.411686 9.24336e-21)
(1.03228 0.391814 1.6249e-20)
(1.03375 0.37463 -1.95574e-20)
(0.950562 0.688847 -8.96415e-21)
(0.988087 0.691229 -3.20755e-20)
(1.00743 0.676645 -8.87636e-21)
(1.01593 0.652364 -6.27288e-20)
(1.0187 0.623516 7.77216e-20)
(1.01887 0.593276 1.76647e-21)
(1.01816 0.563357 1.73348e-20)
(1.01735 0.534547 -2.73082e-21)
(1.01678 0.507132 -2.77201e-21)
(1.01654 0.481165 -3.60116e-21)
(1.01665 0.456622 -8.93624e-21)
(1.01725 0.433439 -3.4219e-21)
(1.01861 0.41152 2.51701e-20)
(1.02055 0.391505 -1.32181e-20)
(1.02274 0.374207 4.12907e-21)
(0.868546 0.667797 -4.50793e-20)
(0.931684 0.694564 -3.32502e-20)
(0.968297 0.695448 -2.70474e-20)
(0.987493 0.679628 3.78369e-20)
(0.996389 0.654417 -1.70011e-21)
(0.999881 0.624901 -4.27075e-20)
(1.00095 0.594186 2.08475e-20)
(1.00118 0.563917 5.20872e-21)
(1.00132 0.534836 -9.59248e-21)
(1.00164 0.507199 -3.92999e-21)
(1.00224 0.481047 3.24015e-21)
(1.00313 0.456345 2.0827e-21)
(1.00441 0.433019 7.23282e-21)
(1.00633 0.410982 1.73492e-20)
(1.00875 0.390829 -5.24139e-20)
(1.01168 0.373394 1.24062e-20)
(0.753721 0.612857 9.99184e-22)
(0.850804 0.674121 4.72918e-20)
(0.912216 0.699338 5.94195e-20)
(0.948041 0.698778 3.45611e-20)
(0.967198 0.681792 -1.83222e-20)
(0.976573 0.655722 2.3422e-20)
(0.980852 0.625604 -6.0619e-21)
(0.982853 0.594468 -2.11313e-20)
(0.984063 0.563897 -4.83974e-22)
(0.985159 0.534584 1.14289e-21)
(0.986403 0.506762 -3.09059e-21)
(0.987863 0.480457 -2.90847e-21)
(0.989549 0.455623 2.62608e-20)
(0.99154 0.432183 -2.24409e-20)
(0.99404 0.410061 1.20791e-20)
(0.996909 0.389768 6.01355e-20)
(1.00057 0.372148 3.81597e-20)
(0.737989 0.619528 -6.95228e-20)
(0.832409 0.679466 -2.04521e-20)
(0.892211 0.703152 4.7336e-20)
(0.927367 0.701205 -5.95916e-20)
(0.946586 0.683126 -4.26719e-20)
(0.956518 0.656269 -1.68488e-20)
(0.96164 0.625614 1.74628e-20)
(0.964612 0.594115 2.1208e-21)
(0.966824 0.563287 -1.76476e-21)
(0.968902 0.533784 -1.88521e-20)
(0.971081 0.505812 1.3979e-20)
(0.973421 0.479384 -2.82197e-21)
(0.975929 0.454447 -2.98824e-20)
(0.978667 0.430921 -1.14876e-20)
(0.981754 0.408748 -3.71396e-20)
(0.985047 0.388302 2.17108e-20)
(0.989484 0.37041 -4.54813e-20)
(0.586371 0.519818 6.92402e-20)
(0.721577 0.625238 9.8438e-20)
(0.813417 0.683811 3.61152e-20)
(0.871724 0.705992 -1.29046e-20)
(0.906324 0.702718 6.18479e-21)
(0.9257 0.68362 2.33067e-20)
(0.93626 0.656049 1.75216e-20)
(0.942274 0.624923 -5.49936e-21)
(0.946252 0.593115 2.21505e-21)
(0.94949 0.562081 3.42988e-21)
(0.952565 0.532428 2.07772e-20)
(0.955693 0.504341 -1.05523e-21)
(0.958928 0.477822 -8.67198e-21)
(0.962279 0.452806 -5.80974e-21)
(0.965797 0.429218 2.21144e-20)
(0.969489 0.407027 4.47793e-20)
(0.97322 0.38641 -7.42688e-20)
(0.978582 0.368137 5.22091e-20)
(0.390832 0.364896 1.35336e-19)
(0.572983 0.525368 -6.05849e-20)
(0.704541 0.629966 -6.66268e-20)
(0.793885 0.687139 -2.42131e-20)
(0.850807 0.707844 2.7788e-20)
(0.884959 0.703307 1.96438e-20)
(0.904581 0.683265 1.39508e-20)
(0.915835 0.655055 -9.32136e-21)
(0.922786 0.623522 1.0979e-20)
(0.927799 0.591463 4.2541e-21)
(0.932082 0.560269 -1.09651e-20)
(0.93617 0.530509 -1.25111e-20)
(0.940257 0.502344 -1.05576e-20)
(0.944397 0.475764 -1.34956e-21)
(0.948608 0.450693 4.1946e-20)
(0.952926 0.427062 -1.60958e-20)
(0.957238 0.404862 -3.2797e-20)
(0.961523 0.384031 -1.50607e-21)
(0.968102 0.365318 -7.51345e-20)
(0.381634 0.369367 -5.19894e-20)
(0.559005 0.53004 5.64185e-20)
(0.686935 0.633693 7.67031e-20)
(0.773869 0.689437 -2.84306e-20)
(0.829515 0.708698 3.45197e-21)
(0.863322 0.702964 -2.53442e-20)
(0.883272 0.682054 -7.30512e-21)
(0.895279 0.653278 1.21172e-21)
(0.903207 0.621406 -1.54384e-20)
(0.909281 0.589153 -2.33042e-20)
(0.914627 0.557848 -5.13658e-21)
(0.919737 0.528023 6.30909e-22)
(0.924793 0.499817 -1.49692e-20)
(0.929843 0.473207 1.34432e-20)
(0.934919 0.448105 3.67356e-20)
(0.940032 0.424445 1.18107e-20)
(0.944985 0.402218 -6.53768e-20)
(0.950062 0.381023 -2.26756e-21)
(0.957984 0.361719 2.30072e-20)
(0.146023 0.147998 1.60076e-20)
(0.371976 0.373184 1.89836e-20)
(0.544488 0.533814 -4.91096e-20)
(0.668817 0.636402 -2.06832e-20)
(0.753425 0.690692 -1.91729e-20)
(0.8079 0.708545 -1.21205e-20)
(0.841458 0.701681 1.20119e-20)
(0.861814 0.679981 -1.11933e-20)
(0.874629 0.650715 1.68234e-20)
(0.883569 0.618569 4.14953e-20)
(0.890726 0.586178 2.84645e-20)
(0.897148 0.554813 -1.25705e-20)
(0.90329 0.524967 -7.64028e-21)
(0.909318 0.496759 -3.99167e-21)
(0.915282 0.470153 -4.10506e-20)
(0.921217 0.445052 -2.12574e-20)
(0.927104 0.421389 -2.35624e-20)
(0.932737 0.399139 7.80748e-20)
(0.938905 0.37742 -1.81675e-20)
(0.947268 0.355773 6.75837e-20)
(0.142274 0.149758 2.00058e-20)
(0.361893 0.376332 -8.01895e-21)
(0.52948 0.536672 2.49146e-20)
(0.650241 0.638079 -4.95866e-21)
(0.732611 0.690893 9.89659e-21)
(0.786015 0.707379 5.63361e-21)
(0.819417 0.699455 -5.43828e-22)
(0.840249 0.677044 1.38299e-20)
(0.85392 0.647361 -5.20239e-20)
(0.863903 0.615007 1.18547e-20)
(0.872162 0.582537 -1.65986e-20)
(0.879671 0.55116 2.04752e-20)
(0.886851 0.521337 2.00181e-20)
(0.893855 0.493167 3.27089e-20)
(0.900732 0.466605 1.3041e-20)
(0.907517 0.441543 3.63485e-20)
(0.914164 0.417918 1.78037e-20)
(0.92053 0.3957 -4.40238e-21)
(0.927658 0.374023 3.88001e-20)
(0.936085 0.352609 6.49503e-21)
(0.138332 0.151234 -1.20238e-20)
(0.351421 0.378792 -1.66328e-20)
(0.514031 0.5386 -1.17004e-20)
(0.631265 0.638713 5.50982e-21)
(0.711483 0.690035 -3.74458e-21)
(0.763914 0.705195 -2.31404e-21)
(0.797244 0.696282 1.99838e-20)
(0.818617 0.673238 1.04981e-20)
(0.833188 0.643214 3.46181e-20)
(0.844241 0.610719 2.57895e-20)
(0.853617 0.578225 -6.50063e-20)
(0.862222 0.546888 1.6821e-21)
(0.870445 0.517133 -6.40334e-20)
(0.878427 0.489043 -3.82439e-21)
(0.886217 0.462562 -2.79919e-20)
(0.893844 0.437581 4.3301e-20)
(0.901252 0.414034 -6.63132e-20)
(0.90834 0.391876 -1.66318e-20)
(0.916159 0.370237 -2.50451e-20)
(0.924623 0.348903 -8.99048e-20)
(0.134214 0.152418 8.28264e-21)
(0.340599 0.380552 -1.45648e-20)
(0.498192 0.539583 6.20457e-21)
(0.611945 0.638294 -3.00467e-21)
(0.690098 0.68811 8.14795e-21)
(0.741649 0.70199 -8.55077e-21)
(0.774988 0.692161 1.55806e-20)
(0.79696 0.668563 -5.13995e-20)
(0.81247 0.638273 -4.0075e-20)
(0.824615 0.605702 -7.53486e-20)
(0.835119 0.573243 4.73881e-20)
(0.844826 0.541996 -3.3564e-21)
(0.854094 0.512354 -1.17158e-20)
(0.863056 0.484385 -2.25642e-20)
(0.871757 0.458027 -3.23476e-20)
(0.880225 0.433167 1.76566e-20)
(0.888399 0.409739 5.37456e-20)
(0.896213 0.387685 -2.90573e-20)
(0.904659 0.366164 3.76871e-20)
(0.913339 0.345074 1.05314e-19)
(0.129934 0.153302 8.34775e-21)
(0.329464 0.381599 4.62903e-21)
(0.482015 0.539613 5.32627e-21)
(0.592337 0.636815 7.7194e-21)
(0.66851 0.685117 1.03388e-20)
(0.719272 0.697763 2.81255e-20)
(0.752694 0.687092 -2.19187e-20)
(0.775319 0.663021 -1.61758e-20)
(0.791801 0.632537 -1.32621e-20)
(0.805056 0.599956 5.04845e-20)
(0.816698 0.567589 -1.25716e-19)
(0.82751 0.536482 -5.27145e-20)
(0.837825 0.506999 1.30682e-20)
(0.847764 0.479195 1.88806e-20)
(0.857375 0.452999 6.65564e-20)
(0.866683 0.4283 -9.22354e-20)
(0.875625 0.40503 2.68669e-20)
(0.884161 0.383121 1.57249e-20)
(0.893221 0.361776 -2.22033e-20)
(0.902238 0.341009 -7.93391e-20)
(0.12551 0.153879 8.14708e-21)
(0.318054 0.381922 -1.5017e-20)
(0.46555 0.538681 3.68289e-21)
(0.572498 0.634274 1.67171e-20)
(0.646777 0.681053 -1.92505e-20)
(0.696834 0.692517 -4.46883e-20)
(0.730408 0.681078 7.49345e-21)
(0.753734 0.656612 3.31663e-20)
(0.771216 0.62601 8.69763e-20)
(0.785597 0.593484 -9.10005e-20)
(0.798383 0.561266 7.60402e-20)
(0.810301 0.530349 9.22465e-20)
(0.82166 0.501071 7.51961e-20)
(0.832576 0.473473 5.50783e-20)
(0.843094 0.44748 -1.16665e-19)
(0.853239 0.422981 -1.34906e-21)
(0.862952 0.399907 -3.05898e-20)
(0.872208 0.378183 1.17148e-19)
(0.881886 0.357061 -4.66884e-21)
(0.891312 0.336649 -5.61464e-20)
(0.120959 0.154146 1.03846e-20)
(0.30641 0.381516 5.97413e-21)
(0.448849 0.536782 3.44773e-21)
(0.552483 0.630667 -9.30793e-21)
(0.624953 0.675922 -1.53897e-20)
(0.674386 0.686253 -3.38004e-22)
(0.708176 0.674122 -2.09271e-20)
(0.732245 0.64934 -3.54122e-20)
(0.750752 0.618693 3.02289e-20)
(0.766269 0.586287 7.25232e-20)
(0.780201 0.554274 1.82031e-21)
(0.793224 0.523598 3.17703e-20)
(0.805625 0.494571 -4.92483e-20)
(0.817513 0.467221 -6.06107e-20)
(0.828935 0.441472 1.51583e-19)
(0.839915 0.417211 6.03441e-20)
(0.850399 0.394371 -6.18008e-20)
(0.860375 0.372869 -6.96306e-20)
(0.870678 0.35201 -7.75696e-20)
(0.880563 0.331972 -7.20202e-21)
(0.116296 0.154097 -3.92521e-20)
(0.29457 0.380372 -8.23233e-21)
(0.431964 0.533912 -1.85297e-20)
(0.53235 0.625995 -3.80424e-20)
(0.603094 0.669726 6.72541e-20)
(0.651979 0.678978 -5.96147e-20)
(0.686043 0.666229 8.68708e-20)
(0.710892 0.641211 -6.88525e-22)
(0.730442 0.610591 -2.73231e-20)
(0.747102 0.578369 2.39731e-20)
(0.762181 0.546617 1.77117e-20)
(0.776306 0.516232 -8.77938e-20)
(0.789743 0.487501 9.17933e-20)
(0.802599 0.460442 5.57606e-20)
(0.81492 0.434976 -2.11193e-20)
(0.826732 0.410991 -4.07952e-20)
(0.837986 0.38842 3.49984e-20)
(0.848681 0.367176 -6.04696e-20)
(0.859616 0.346615 -8.3007e-20)
(0.869992 0.326963 7.82435e-20)
(0.111539 0.153728 6.37951e-20)
(0.282574 0.378489 -3.68986e-20)
(0.414946 0.530072 -2.08723e-20)
(0.512152 0.620263 2.49299e-20)
(0.581251 0.662471 8.11772e-21)
(0.629662 0.670699 2.20829e-20)
(0.664052 0.657408 2.44765e-20)
(0.689714 0.63223 6.42765e-20)
(0.710323 0.60171 7.75622e-20)
(0.72813 0.569735 -7.34973e-20)
(0.744352 0.5383 8.91922e-20)
(0.759572 0.508255 -1.01306e-19)
(0.774041 0.479865 1.30761e-20)
(0.787858 0.453139 -3.8937e-20)
(0.801071 0.427994 2.82302e-20)
(0.81371 0.404322 2.63416e-20)
(0.825731 0.382055 -1.60299e-20)
(0.837145 0.361103 1.51148e-19)
(0.848717 0.340869 -2.02897e-20)
(0.859605 0.321615 -6.71117e-20)
(0.106706 0.153039 -5.11785e-20)
(0.27046 0.375865 6.60953e-20)
(0.397846 0.525263 -1.54882e-20)
(0.491945 0.613475 -7.7335e-20)
(0.55948 0.654165 5.6481e-20)
(0.607483 0.661424 -2.06311e-20)
(0.642248 0.647666 -7.03375e-20)
(0.668749 0.622407 -1.05619e-20)
(0.690427 0.592057 -1.61885e-19)
(0.709382 0.560391 1.54063e-19)
(0.726742 0.529328 -1.559e-20)
(0.743051 0.499673 4.2145e-20)
(0.75854 0.471668 5.12373e-20)
(0.77331 0.445315 2.02511e-20)
(0.787409 0.420531 -1.3573e-19)
(0.80087 0.397208 3.0382e-20)
(0.813653 0.375278 2.76901e-20)
(0.825784 0.354649 -9.1546e-20)
(0.837993 0.334771 3.35028e-20)
(0.849409 0.315923 1.28082e-20)
(0.101813 0.152026 -4.863e-20)
(0.25827 0.372499 -4.81309e-20)
(0.380715 0.51949 9.50072e-20)
(0.471784 0.605638 6.85393e-20)
(0.537833 0.644818 -5.5409e-20)
(0.585492 0.651164 5.27217e-21)
(0.620674 0.637014 4.66334e-20)
(0.648036 0.61175 1.3748e-20)
(0.67079 0.58164 -2.15724e-21)
(0.690888 0.550345 2.58149e-20)
(0.709379 0.519708 -4.19523e-20)
(0.726765 0.49049 -6.0666e-21)
(0.743266 0.462914 -1.5933e-19)
(0.758979 0.436976 -1.20905e-19)
(0.773954 0.41259 -2.02403e-20)
(0.788229 0.389651 -1.66423e-20)
(0.801769 0.36809 -1.83261e-20)
(0.814612 0.347815 -3.69466e-20)
(0.827456 0.328319 -4.22098e-20)
(0.0968779 0.15069 1.12578e-20)
(0.246041 0.368394 1.11118e-19)
(0.363603 0.512758 -4.42625e-20)
(0.45172 0.596763 -6.82556e-20)
(0.51636 0.634443 -5.00097e-21)
(0.563735 0.639932 9.61716e-20)
(0.59937 0.625465 -9.8753e-20)
(0.627611 0.600271 1.95466e-20)
(0.651444 0.570469 -1.50031e-20)
(0.672681 0.539606 -1.50666e-19)
(0.692291 0.509447 -1.40808e-19)
(0.710742 0.480714 2.53472e-20)
(0.728242 0.453611 2.20953e-19)
(0.744886 0.428128 3.21073e-20)
(0.760727 0.404177 8.601e-20)
(0.775806 0.381655 -1.32217e-19)
(0.790097 0.360495 -3.08363e-20)
(0.803645 0.340603 1.51303e-19)
(0.817119 0.321513 6.60206e-20)
(0.0919185 0.149031 4.4033e-20)
(0.233812 0.363554 4.29872e-20)
(0.346559 0.505077 -1.03346e-19)
(0.431808 0.586863 -4.80661e-21)
(0.495112 0.623052 -4.30674e-20)
(0.542259 0.627742 -5.91651e-20)
(0.57838 0.613032 1.91619e-20)
(0.607512 0.587981 -5.59862e-20)
(0.632423 0.558555 1.0599e-19)
(0.654788 0.528183 -6.59172e-20)
(0.675504 0.498555 4.68886e-20)
(0.695006 0.470354 1.06272e-19)
(0.713491 0.443766 -7.10658e-20)
(0.731052 0.418776 1.76797e-20)
(0.747748 0.395296 8.58007e-20)
(0.763621 0.373227 1.062e-19)
(0.778652 0.352498 -5.48859e-20)
(0.792898 0.333017 -3.07207e-20)
(0.806995 0.314355 4.63957e-20)
(0.0869517 0.14705 -1.04227e-19)
(0.221624 0.357986 3.87665e-20)
(0.329633 0.496457 1.17624e-19)
(0.412097 0.575951 1.35999e-20)
(0.47414 0.610663 -1.72035e-20)
(0.521108 0.61461 -3.06876e-20)
(0.557743 0.599729 -1.57382e-20)
(0.587774 0.574895 6.92489e-20)
(0.613758 0.545911 -1.0139e-19)
(0.637239 0.516087 2.36726e-19)
(0.659046 0.487041 9.79301e-20)
(0.679582 0.459418 -3.1947e-20)
(0.699035 0.433388 -9.86151e-21)
(0.717499 0.408929 4.17469e-20)
(0.735035 0.385956 -1.1402e-19)
(0.75169 0.36437 9.31855e-21)
(0.767451 0.344102 -7.16076e-20)
(0.782385 0.32506 -3.11945e-20)
(0.0819948 0.144749 -2.06919e-20)
(0.209512 0.351698 -1.23659e-19)
(0.312872 0.486912 8.53727e-20)
(0.392639 0.564045 -1.26511e-20)
(0.45349 0.597294 6.5157e-20)
(0.500326 0.600554 2.14083e-20)
(0.537498 0.585574 -3.81404e-21)
(0.568433 0.561028 4.77373e-20)
(0.595481 0.53255 -2.84491e-20)
(0.620063 0.503331 -8.63515e-20)
(0.642942 0.474917 9.32202e-20)
(0.664494 0.447916 9.80702e-20)
(0.684898 0.422484 -2.09379e-22)
(0.704248 0.398595 -2.16628e-20)
(0.722609 0.376164 -1.20811e-20)
(0.74003 0.355094 8.87884e-20)
(0.756509 0.335316 7.78675e-20)
(0.772119 0.316739 2.15133e-20)
(0.0770648 0.142133 9.97174e-20)
(0.197516 0.344699 1.41918e-19)
(0.296324 0.476457 -8.03543e-20)
(0.373483 0.551162 -5.98923e-21)
(0.433211 0.582963 -1.15648e-19)
(0.479958 0.585594 7.11074e-20)
(0.517684 0.570586 -2.85321e-20)
(0.549522 0.546397 -5.42619e-20)
(0.577623 0.518487 -2.03993e-20)
(0.603287 0.489928 -3.11883e-21)
(0.627218 0.462195 -2.02982e-19)
(0.649765 0.435861 -2.54133e-19)
(0.6711 0.411067 -3.86837e-20)
(0.691317 0.387784 8.58426e-20)
(0.710486 0.365928 -3.33026e-20)
(0.728659 0.345404 -1.66652e-19)
(0.745841 0.326144 1.54369e-19)
(0.762114 0.308059 2.18965e-20)
(0.0721785 0.139205 -1.64726e-19)
(0.185671 0.337001 5.55238e-20)
(0.280034 0.46511 -4.51066e-20)
(0.354678 0.537323 6.13272e-20)
(0.413348 0.567694 1.15607e-19)
(0.460044 0.569751 -7.25262e-20)
(0.498338 0.554783 1.32517e-19)
(0.531076 0.531019 -4.55117e-20)
(0.560214 0.503739 6.79751e-20)
(0.58694 0.475894 1.27595e-19)
(0.611899 0.448889 6.87654e-20)
(0.635418 0.423264 2.84559e-19)
(0.657663 0.399147 1.28813e-19)
(0.678728 0.376506 -1.02977e-20)
(0.698685 0.355258 -6.61282e-21)
(0.717594 0.335311 2.12209e-20)
(0.735463 0.316596 -1.71095e-19)
(0.752383 0.299028 -9.01969e-20)
(0.0673526 0.135969 9.22965e-20)
(0.174014 0.328619 -2.5343e-20)
(0.264047 0.45289 -1.18548e-19)
(0.336269 0.522552 -1.07337e-19)
(0.393946 0.551508 -1.93949e-20)
(0.440624 0.553047 1.42785e-20)
(0.479497 0.538186 -1.70095e-19)
(0.513127 0.514913 1.2677e-19)
(0.543284 0.488323 -5.76027e-20)
(0.571047 0.461244 -1.31121e-19)
(0.59701 0.435013 -3.12329e-20)
(0.621477 0.410138 -1.1751e-19)
(0.644607 0.386737 -2.41623e-19)
(0.666498 0.364772 2.05026e-20)
(0.687225 0.344164 1.86042e-19)
(0.706849 0.324823 -8.01165e-20)
(0.725389 0.306681 9.58471e-20)
(0.0626031 0.132433 -1.622e-20)
(0.16258 0.319566 -2.20637e-19)
(0.248408 0.439817 2.19426e-19)
(0.318302 0.506872 -5.4281e-20)
(0.375047 0.534433 7.6227e-20)
(0.42174 0.535507 4.50707e-20)
(0.461197 0.520819 1.81386e-19)
(0.495706 0.498101 -2.16246e-19)
(0.52686 0.472257 1.68077e-19)
(0.555635 0.445994 1.31936e-19)
(0.582575 0.420583 -3.76475e-20)
(0.607963 0.396499 -1.95032e-20)
(0.631954 0.373849 7.05503e-20)
(0.654647 0.352595 -1.19745e-19)
(0.676121 0.332658 -1.57688e-19)
(0.696441 0.313951 5.89065e-20)
(0.715633 0.296408 -5.9129e-20)
(0.0579461 0.128602 -1.6315e-20)
(0.151404 0.30986 7.25718e-20)
(0.233159 0.425917 8.20014e-20)
(0.300822 0.49031 -1.41306e-19)
(0.356695 0.516493 7.13423e-20)
(0.403427 0.517157 -1.8179e-19)
(0.44347 0.502705 -1.40996e-20)
(0.478844 0.480603 1.02011e-20)
(0.51097 0.455561 -1.73788e-20)
(0.540729 0.430164 -1.65979e-19)
(0.568616 0.405615 -7.41414e-21)
(0.594896 0.382361 -2.6188e-20)
(0.619722 0.360498 1.55894e-19)
(0.643192 0.339988 -4.78015e-20)
(0.66539 0.320752 -1.34667e-20)
(0.686385 0.302707 7.79743e-20)
(0.706209 0.285787 2.2386e-19)
(0.0533971 0.124484 -3.09763e-20)
(0.140518 0.29952 -1.81669e-20)
(0.21834 0.411213 -8.94686e-20)
(0.28387 0.472894 5.34198e-20)
(0.338929 0.497719 1.46715e-19)
(0.385724 0.498023 -7.93127e-20)
(0.42635 0.483869 -1.25218e-19)
(0.46257 0.462443 1.21398e-19)
(0.495642 0.438256 -3.97882e-20)
(0.526353 0.413771 1.09253e-19)
(0.555156 0.390127 4.90973e-20)
(0.582299 0.367741 -2.83678e-20)
(0.60793 0.346699 -1.06007e-19)
(0.632151 0.326964 1.2952e-19)
(0.655048 0.308458 -3.20464e-20)
(0.676695 0.291101 -1.371e-19)
(0.69713 0.274829 -4.60747e-20)
(0.0489711 0.120088 6.06738e-20)
(0.129955 0.288565 2.18538e-20)
(0.203992 0.395733 -1.69978e-20)
(0.267488 0.454654 -4.77674e-20)
(0.321787 0.47814 -3.43112e-20)
(0.368665 0.478134 1.95936e-19)
(0.409868 0.464338 3.45623e-20)
(0.446913 0.443645 9.27284e-20)
(0.4809 0.420365 6.76027e-20)
(0.512531 0.396837 -1.8147e-19)
(0.542216 0.374137 -9.34764e-20)
(0.57019 0.352655 1.70464e-19)
(0.596597 0.332468 -5.38886e-21)
(0.621541 0.313538 -1.34231e-19)
(0.645112 0.29579 3.37326e-20)
(0.667386 0.279148 1.60284e-19)
(0.0446826 0.115422 6.99996e-20)
(0.119747 0.277017 -8.9053e-20)
(0.190153 0.379504 -3.94787e-20)
(0.251716 0.435622 -8.77501e-21)
(0.305307 0.457786 -1.12418e-19)
(0.352285 0.45752 -5.85827e-20)
(0.394055 0.444139 -2.43428e-20)
(0.431899 0.424234 -1.85015e-19)
(0.466769 0.40191 -1.38236e-19)
(0.499284 0.379383 1.80237e-19)
(0.529817 0.357665 9.8138e-20)
(0.558588 0.337122 -7.53456e-20)
(0.58574 0.317822 -8.58781e-20)
(0.611378 0.299726 9.13077e-20)
(0.635595 0.282763 -5.09619e-20)
(0.658472 0.266859 7.21876e-20)
(0.0405459 0.110497 8.51634e-20)
(0.109923 0.264899 -1.33514e-19)
(0.17686 0.362558 3.76928e-20)
(0.236589 0.41583 6.52875e-20)
(0.289525 0.436693 -6.36324e-22)
(0.336614 0.436213 -7.91086e-20)
(0.378939 0.423301 6.76918e-20)
(0.417556 0.404237 2.4641e-20)
(0.453273 0.382915 -7.24309e-20)
(0.486635 0.36143 4.75628e-20)
(0.517979 0.340732 -1.23674e-19)
(0.547513 0.32116 -2.69672e-20)
(0.575376 0.302777 1.0889e-19)
(0.601677 0.285544 3.81253e-20)
(0.626512 0.269392 5.87026e-20)
(0.649964 0.25425 -1.09188e-19)
(0.0365743 0.105323 -8.51193e-20)
(0.100511 0.252236 -3.40618e-20)
(0.164146 0.344927 6.57571e-20)
(0.222145 0.395312 -1.34144e-19)
(0.274474 0.414892 -6.41864e-20)
(0.321685 0.414244 1.36599e-19)
(0.364549 0.401853 2.13621e-19)
(0.403907 0.38368 5.98174e-20)
(0.440434 0.363406 7.95029e-20)
(0.474604 0.343001 -9.38369e-22)
(0.50672 0.323358 3.6447e-20)
(0.53698 0.30479 1.25778e-19)
(0.565521 0.287353 -1.80512e-20)
(0.592454 0.271008 -2.16969e-19)
(0.617876 0.255691 1.86563e-21)
(0.641877 0.241335 1.17247e-20)
(0.0327809 0.0999109 2.70155e-20)
(0.09154 0.239052 -6.7706e-20)
(0.152046 0.326643 2.34116e-19)
(0.208418 0.374106 1.03379e-21)
(0.260187 0.392421 8.50874e-20)
(0.307525 0.391648 8.19153e-20)
(0.35091 0.379828 -7.94179e-20)
(0.390976 0.362592 9.54952e-21)
(0.428274 0.343407 -5.00974e-20)
(0.463211 0.324121 1.23522e-20)
(0.49606 0.305566 -1.46453e-21)
(0.527007 0.288031 -5.62529e-20)
(0.55619 0.271567 -2.4743e-20)
(0.583721 0.256137 1.44281e-19)
(0.609701 0.241679 -1.06374e-19)
(0.634221 0.228128 6.99161e-20)
(0.0291779 0.0942729 -5.7727e-20)
(0.0830346 0.225376 -6.33674e-20)
(0.140592 0.307741 -3.39968e-20)
(0.195439 0.352248 7.91288e-20)
(0.246693 0.369316 -6.60463e-20)
(0.294164 0.368458 -1.1388e-19)
(0.338047 0.357256 -6.74981e-20)
(0.378785 0.341003 -1.2844e-19)
(0.416813 0.322947 1.03118e-19)
(0.452473 0.304815 -8.26725e-20)
(0.486014 0.287378 1.73423e-20)
(0.51761 0.270905 1.20042e-20)
(0.547399 0.255441 -5.09803e-20)
(0.575494 0.240949 5.82043e-20)
(0.601999 0.227371 8.62556e-20)
(0.0257769 0.0884216 1.25949e-19)
(0.0750196 0.211234 1.24851e-19)
(0.129812 0.288256 -9.27019e-20)
(0.183239 0.329776 -7.74206e-20)
(0.234021 0.345615 2.11515e-20)
(0.281626 0.34471 4.52045e-20)
(0.325984 0.33417 -1.54937e-19)
(0.367356 0.318942 2.46944e-20)
(0.40607 0.302053 -1.0073e-19)
(0.44241 0.285107 8.40748e-20)
(0.476599 0.268818 1.95751e-20)
(0.508804 0.253434 -8.75725e-20)
(0.53916 0.238994 -1.94411e-20)
(0.567784 0.225462 4.53879e-20)
(0.594782 0.212785 2.10442e-20)
(0.0225889 0.08237 -5.78893e-20)
(0.067518 0.196657 1.47135e-20)
(0.119734 0.268228 1.73668e-19)
(0.171846 0.306732 9.51167e-20)
(0.222198 0.321356 6.24616e-20)
(0.269936 0.320442 1.1591e-19)
(0.314741 0.310605 1.56845e-20)
(0.356708 0.296441 1.07208e-20)
(0.396062 0.280753 -7.84999e-22)
(0.433036 0.265024 -1.07492e-19)
(0.467829 0.249911 5.53268e-20)
(0.500601 0.23564 -8.74988e-20)
(0.531486 0.222246 5.66403e-20)
(0.560603 0.209696 -8.92957e-20)
(0.58806 0.19794 -5.15088e-20)
(0.0196242 0.0761317 -1.24691e-20)
(0.0605512 0.181675 8.49121e-20)
(0.110385 0.247693 -9.85386e-20)
(0.161286 0.283154 -4.38707e-20)
(0.211248 0.29658 3.89129e-20)
(0.259116 0.29569 -8.55291e-20)
(0.304339 0.286595 6.37737e-20)
(0.346859 0.27353 8.82509e-21)
(0.386807 0.259076 5.16411e-20)
(0.424368 0.244592 -1.93349e-21)
(0.45972 0.230681 -4.87172e-20)
(0.493016 0.217546 4.70389e-20)
(0.52439 0.20522 -1.19176e-19)
(0.553962 0.193672 1.63322e-19)
(0.581843 0.182853 6.13952e-20)
(0.0168922 0.0697208 -3.62375e-20)
(0.054139 0.166319 -3.69218e-20)
(0.101789 0.226691 -5.42227e-20)
(0.151584 0.259086 6.19023e-20)
(0.201195 0.271328 -3.30674e-20)
(0.249186 0.270494 -1.62105e-20)
(0.294798 0.262175 -3.20244e-20)
(0.337826 0.250243 -3.99984e-20)
(0.378319 0.237052 -1.08818e-19)
(0.416419 0.22384 4.65465e-20)
(0.452283 0.211153 -6.37535e-20)
(0.48606 0.199176 1.14864e-19)
(0.517882 0.187937 7.61556e-20)
(0.547872 0.177408 -1.31842e-19)
(0.576142 0.167545 -1.30212e-19)
(0.0144017 0.0631521 3.66744e-20)
(0.0482995 0.15062 -9.52635e-20)
(0.0939664 0.205263 -6.45531e-21)
(0.142763 0.23457 -8.47407e-20)
(0.192059 0.245642 -9.3369e-20)
(0.240167 0.244891 1.34114e-19)
(0.286133 0.237381 1.81722e-20)
(0.329624 0.226613 6.43781e-20)
(0.370614 0.214712 6.65371e-20)
(0.409202 0.202795 -1.54337e-20)
(0.445531 0.191354 8.94875e-20)
(0.479744 0.180554 -5.1771e-20)
(0.511973 0.17042 -6.5854e-20)
(0.542341 0.160926 1.03088e-19)
(0.570964 0.152033 1.1509e-19)
(0.0121605 0.0564403 -3.73756e-20)
(0.0430494 0.134612 8.35034e-20)
(0.0869383 0.183449 -8.87779e-20)
(0.134841 0.20965 5.61921e-20)
(0.18386 0.219563 5.17501e-20)
(0.232075 0.218922 -7.24694e-20)
(0.27836 0.21225 3.33435e-20)
(0.322268 0.202673 3.68879e-20)
(0.363702 0.192086 -1.13601e-19)
(0.402729 0.181486 5.45694e-20)
(0.439475 0.17131 6.04929e-21)
(0.474078 0.161705 5.02649e-20)
(0.506671 0.152692 -6.39401e-20)
(0.537379 0.144248 7.87219e-21)
(0.566318 0.136338 -4.84491e-21)
(0.0101759 0.0496011 -4.00676e-20)
(0.0384034 0.118328 5.14939e-20)
(0.080722 0.161293 9.40495e-20)
(0.127838 0.18437 -1.15101e-20)
(0.176613 0.193136 6.36389e-20)
(0.224925 0.192628 -7.86862e-20)
(0.271494 0.186819 1.92358e-20)
(0.31577 0.178457 -6.66314e-20)
(0.357597 0.169207 1.46676e-22)
(0.39701 0.159943 -1.02646e-19)
(0.434123 0.151048 -7.32589e-20)
(0.469071 0.142653 3.84627e-20)
(0.501985 0.134775 9.94373e-21)
(0.532992 0.127395 -2.5916e-20)
(0.56221 0.12048 3.40841e-20)
(0.00845415 0.0426501 3.58151e-20)
(0.0343745 0.101804 1.17232e-20)
(0.0753335 0.138837 2.85851e-20)
(0.12177 0.158776 -4.19214e-20)
(0.170335 0.166404 -1.88187e-20)
(0.218732 0.166049 -3.50672e-20)
(0.265546 0.161127 3.32272e-21)
(0.310141 0.154001 2.37422e-20)
(0.352307 0.146105 7.20081e-20)
(0.392054 0.138194 8.64512e-20)
(0.429485 0.130596 3.28734e-20)
(0.464731 0.123424 -7.75712e-21)
(0.497923 0.116694 -1.64211e-20)
(0.529188 0.110388 -4.06275e-20)
(0.558646 0.10448 4.83254e-21)
(0.00700068 0.0356033 7.41362e-21)
(0.0309742 0.0850723 -4.91472e-20)
(0.0707862 0.116124 -6.68479e-20)
(0.116649 0.132912 -2.31604e-21)
(0.165038 0.139412 -4.86752e-21)
(0.213505 0.139227 2.34112e-20)
(0.260527 0.13521 -7.18924e-20)
(0.30539 0.129339 -2.75771e-20)
(0.347842 0.122814 -4.61087e-20)
(0.38787 0.116269 1.79541e-21)
(0.425568 0.109981 1.47591e-20)
(0.461064 0.104045 3.24093e-20)
(0.49449 0.0984726 -6.29752e-21)
(0.525973 0.093251 2.72769e-20)
(0.555633 0.0883583 -1.31268e-20)
(0.00582012 0.0284771 -3.19051e-20)
(0.0282118 0.0681697 1.84869e-20)
(0.0670916 0.0931979 -1.83643e-20)
(0.112487 0.106826 2.26222e-20)
(0.160732 0.112204 1.72332e-20)
(0.209257 0.112204 4.78687e-21)
(0.256445 0.109108 5.54979e-20)
(0.301525 0.104506 -1.46809e-20)
(0.344208 0.0993664 1.28215e-20)
(0.384464 0.0941996 1.49212e-20)
(0.422379 0.0892318 1.01608e-20)
(0.458077 0.0845395 -2.70411e-20)
(0.491691 0.0801345 3.49442e-20)
(0.52335 0.0760054 2.58134e-20)
(0.553174 0.0721353 -9.97307e-21)
(0.00491621 0.0212879 9.78306e-21)
(0.0260952 0.0511317 2.31973e-20)
(0.0642589 0.0701041 -5.16299e-21)
(0.109295 0.080564 -3.5797e-20)
(0.157427 0.0848259 1.80685e-20)
(0.205994 0.0850218 5.19842e-20)
(0.253309 0.0828605 -4.08811e-20)
(0.298553 0.0795395 -2.31426e-21)
(0.341413 0.0757943 1.01072e-20)
(0.381842 0.0720152 2.20592e-20)
(0.419921 0.0683757 2.032e-21)
(0.455773 0.0649355 -6.80167e-21)
(0.489532 0.0617043 -1.08263e-20)
(0.521325 0.0586742 -1.1228e-20)
(0.0042918 0.0140525 4.4142e-21)
(0.0246303 0.0339941 -1.21102e-20)
(0.0622952 0.0468869 4.91973e-21)
(0.107079 0.0541729 1.51772e-20)
(0.155129 0.0573229 -8.66811e-21)
(0.203722 0.0577234 -2.66456e-20)
(0.251122 0.0565054 1.26163e-20)
(0.296479 0.0544743 -2.88982e-22)
(0.339459 0.0521315 -3.49032e-20)
(0.380007 0.0497467 2.07456e-20)
(0.418199 0.0474416 -1.37101e-20)
(0.454158 0.0452589 1.06507e-20)
(0.488015 0.0432066 -8.59037e-21)
(0.519899 0.04128 4.42841e-21)
(0.00394888 0.0067876 -1.96544e-22)
(0.023821 0.0167933 6.9684e-21)
(0.0612054 0.0235915 2.86688e-21)