/*--------------------------------*- C++ -*----------------------------------*\
  =========                 |
  \\      /  F ield         | OpenFOAM: The Open Source CFD Toolbox
   \\    /   O peration     | Website:  https://openfoam.org
    \\  /    A nd           | Version:  7
     \\/     M anipulation  |
\*---------------------------------------------------------------------------*/
FoamFile
{
    version     2.0;
    format      ascii;
    class       volScalarField;
    location    "40";
    object      p;
}
// * * * * * * * * * * * * * * * * * * * * * * * * * * * * * * * * * * * * * //

dimensions      [0 2 -2 0 0 0 0];

internalField   nonuniform List<scalar> 
4575
(
-0.364716
-0.357844
-0.352542
-0.370381
-0.363161
-0.357645
-0.351814
-0.34567
-0.376091
-0.368529
-0.362802
-0.356747
-0.350335
-0.343543
-0.336204
-0.32817
-0.381822
-0.373925
-0.36799
-0.361708
-0.355015
-0.347862
-0.340059
-0.331456
-0.321967
-0.3116
-0.300459
-0.288736
-0.387547
-0.379324
-0.373186
-0.366673
-0.359682
-0.352139
-0.343835
-0.33462
-0.324433
-0.313316
-0.301421
-0.28898
-0.276257
-0.263512
-0.250962
-0.393236
-0.384698
-0.378362
-0.371612
-0.364307
-0.356343
-0.347498
-0.33763
-0.326705
-0.314812
-0.302148
-0.288986
-0.275619
-0.262316
-0.249297
-0.236718
-0.224682
-0.213234
-0.202391
-0.398859
-0.390018
-0.383489
-0.376496
-0.368856
-0.360441
-0.351015
-0.340453
-0.328756
-0.316062
-0.302619
-0.288738
-0.274736
-0.260891
-0.247419
-0.234467
-0.222124
-0.210422
-0.199379
-0.189049
-0.40438
-0.395253
-0.388534
-0.381291
-0.373297
-0.364396
-0.35435
-0.343054
-0.330554
-0.31704
-0.302813
-0.28822
-0.273597
-0.259227
-0.24532
-0.232011
-0.219377
-0.207435
-0.196203
-0.185684
-0.409766
-0.400368
-0.393463
-0.385963
-0.377591
-0.368171
-0.357466
-0.3454
-0.332069
-0.317724
-0.302712
-0.287416
-0.272189
-0.257314
-0.242991
-0.229344
-0.216433
-0.204265
-0.192856
-0.182158
-0.414978
-0.405327
-0.398242
-0.390475
-0.381701
-0.371728
-0.360326
-0.347456
-0.333274
-0.318088
-0.302297
-0.286313
-0.270501
-0.255142
-0.240424
-0.226456
-0.213286
-0.200906
-0.189331
-0.178465
-0.419977
-0.410094
-0.402831
-0.394787
-0.385588
-0.375028
-0.362892
-0.349191
-0.33414
-0.318111
-0.30155
-0.284896
-0.268522
-0.252701
-0.23761
-0.223341
-0.209927
-0.197351
-0.185624
-0.1746
-0.424723
-0.414629
-0.407193
-0.398859
-0.38921
-0.37803
-0.365128
-0.35057
-0.33464
-0.317771
-0.300455
-0.283153
-0.26624
-0.249982
-0.234539
-0.21999
-0.20635
-0.193594
-0.181728
-0.170559
-0.429175
-0.418892
-0.411285
-0.402652
-0.392527
-0.380695
-0.366998
-0.351564
-0.334748
-0.317048
-0.298995
-0.281069
-0.263645
-0.246976
-0.231205
-0.216395
-0.202548
-0.189628
-0.177638
-0.166337
-0.43329
-0.422841
-0.415067
-0.406121
-0.395497
-0.382982
-0.368464
-0.35214
-0.33444
-0.315922
-0.297156
-0.278635
-0.260727
-0.243673
-0.227599
-0.212549
-0.198515
-0.185449
-0.173348
-0.161929
-0.437026
-0.426435
-0.418496
-0.409224
-0.398076
-0.384853
-0.369493
-0.35227
-0.333692
-0.314376
-0.294924
-0.275837
-0.257476
-0.240065
-0.223712
-0.208446
-0.194243
-0.181049
-0.168854
-0.157333
-0.440338
-0.429631
-0.421529
-0.41192
-0.400225
-0.386269
-0.370051
-0.351927
-0.332484
-0.312393
-0.292285
-0.272665
-0.253884
-0.236145
-0.219539
-0.204079
-0.189728
-0.176424
-0.164151
-0.152543
-0.443184
-0.432387
-0.424124
-0.414164
-0.401902
-0.387192
-0.370106
-0.351085
-0.330794
-0.309957
-0.289227
-0.26911
-0.24994
-0.231904
-0.215071
-0.199441
-0.184962
-0.17157
-0.159235
-0.147557
-0.445522
-0.434659
-0.426237
-0.415914
-0.403066
-0.387588
-0.369628
-0.34972
-0.328604
-0.307054
-0.28574
-0.265162
-0.245639
-0.227335
-0.210303
-0.194526
-0.179943
-0.166481
-0.154103
-0.142371
-0.447308
-0.436407
-0.427827
-0.417131
-0.403681
-0.387421
-0.368589
-0.347809
-0.325898
-0.303672
-0.281813
-0.260812
-0.240971
-0.222431
-0.205228
-0.18933
-0.174664
-0.161153
-0.14875
-0.136985
-0.448503
-0.437589
-0.428853
-0.417773
-0.403707
-0.386661
-0.366962
-0.345333
-0.322661
-0.299798
-0.277436
-0.256054
-0.23593
-0.217188
-0.199842
-0.183847
-0.169121
-0.155584
-0.143174
-0.131394
-0.449066
-0.438166
-0.429275
-0.417802
-0.403112
-0.385276
-0.364724
-0.342273
-0.318878
-0.295423
-0.272603
-0.25088
-0.230512
-0.211598
-0.194139
-0.178074
-0.163311
-0.149768
-0.137373
-0.125596
-0.448958
-0.438098
-0.429054
-0.417182
-0.401861
-0.383241
-0.361854
-0.338614
-0.314538
-0.290539
-0.267306
-0.245285
-0.224709
-0.205659
-0.188115
-0.172006
-0.157231
-0.143704
-0.131343
-0.119589
-0.448144
-0.437349
-0.428154
-0.415879
-0.399925
-0.380529
-0.358332
-0.334341
-0.309632
-0.285136
-0.261538
-0.239263
-0.218519
-0.199365
-0.181767
-0.165641
-0.150878
-0.137389
-0.125084
-0.113376
-0.44659
-0.435884
-0.426542
-0.41386
-0.397276
-0.377119
-0.354143
-0.329443
-0.304151
-0.279211
-0.255297
-0.232811
-0.211938
-0.192715
-0.175093
-0.158977
-0.144249
-0.13082
-0.118596
-0.106962
-0.444262
-0.433672
-0.424185
-0.411097
-0.393889
-0.372991
-0.349271
-0.323911
-0.298088
-0.272757
-0.248578
-0.225927
-0.204964
-0.185707
-0.16809
-0.152011
-0.137342
-0.123995
-0.111879
-0.100339
-0.441133
-0.430681
-0.421054
-0.407562
-0.389743
-0.36813
-0.343705
-0.317737
-0.291439
-0.265773
-0.241379
-0.218607
-0.197595
-0.178338
-0.160759
-0.144744
-0.130157
-0.116911
-0.104922
-0.0934506
-0.437176
-0.426886
-0.417124
-0.403234
-0.384817
-0.36252
-0.337438
-0.310915
-0.284202
-0.258256
-0.233699
-0.210853
-0.189831
-0.170611
-0.1531
-0.137177
-0.122696
-0.109576
-0.0977155
-0.086192
-0.432367
-0.422262
-0.412371
-0.398091
-0.379098
-0.356152
-0.330461
-0.303443
-0.276374
-0.250207
-0.225538
-0.202665
-0.181673
-0.162524
-0.145114
-0.129311
-0.114963
-0.101997
-0.0902712
-0.0785807
-0.426687
-0.416788
-0.406776
-0.392118
-0.372572
-0.349019
-0.322773
-0.29532
-0.267957
-0.241627
-0.216899
-0.194043
-0.173123
-0.154082
-0.136804
-0.121149
-0.106961
-0.094173
-0.0826055
-0.0710589
-0.420118
-0.410447
-0.400321
-0.3853
-0.365231
-0.341114
-0.314371
-0.286546
-0.258953
-0.232518
-0.207784
-0.184993
-0.164184
-0.145286
-0.128173
-0.112695
-0.0986956
-0.0861151
-0.0746888
-0.0634207
-0.412647
-0.403223
-0.392995
-0.377628
-0.357068
-0.332437
-0.305258
-0.277127
-0.249366
-0.222886
-0.198198
-0.175517
-0.15486
-0.136141
-0.119224
-0.103954
-0.0901711
-0.0778168
-0.0665712
-0.055586
-0.404264
-0.395108
-0.384787
-0.369095
-0.348082
-0.322989
-0.295436
-0.267065
-0.239203
-0.212735
-0.188146
-0.16562
-0.145156
-0.126651
-0.109963
-0.094929
-0.0813898
-0.0692849
-0.0582548
-0.394962
-0.386093
-0.375693
-0.359699
-0.338273
-0.312774
-0.284912
-0.25637
-0.22847
-0.202074
-0.177635
-0.15531
-0.135077
-0.116824
-0.100396
-0.0856269
-0.072357
-0.0605258
-0.38474
-0.376174
-0.365709
-0.34944
-0.327645
-0.301799
-0.273695
-0.24505
-0.217177
-0.190911
-0.166673
-0.144593
-0.124634
-0.106665
-0.090529
-0.0760537
-0.373597
-0.365352
-0.354837
-0.338323
-0.316205
-0.290072
-0.261796
-0.233116
-0.205335
-0.179257
-0.15527
-0.133481
-0.113832
-0.0961832
-0.0803703
-0.361539
-0.353631
-0.343082
-0.326354
-0.303963
-0.277607
-0.249227
-0.220582
-0.192956
-0.167122
-0.143436
-0.121981
-0.102681
-0.085387
-0.348573
-0.341018
-0.330453
-0.313545
-0.290932
-0.264418
-0.236005
-0.207463
-0.180055
-0.15452
-0.131184
-0.110106
-0.0911922
-0.334711
-0.327523
-0.316962
-0.29991
-0.27713
-0.250523
-0.222146
-0.193775
-0.166645
-0.141465
-0.118527
-0.0978665
-0.319968
-0.31316
-0.302624
-0.285466
-0.262573
-0.23594
-0.207671
-0.179536
-0.152745
-0.127973
-0.105479
-0.304363
-0.297948
-0.287457
-0.270232
-0.247284
-0.220693
-0.1926
-0.164764
-0.138374
-0.11406
-0.287917
-0.281907
-0.271483
-0.254233
-0.231288
-0.204807
-0.17695
-0.149484
-0.123551
-0.270656
-0.265061
-0.254728
-0.237495
-0.214614
-0.188307
-0.160748
-0.133718
-0.252607
-0.247437
-0.237217
-0.220047
-0.197291
-0.171202
-0.144034
-0.233801
-0.229064
-0.218984
-0.201928
-0.179324
-0.15355
-0.214268
-0.209977
-0.200065
-0.183174
-0.160747
-0.194041
-0.190214
-0.180491
-0.163755
-0.141663
-0.173155
-0.169812
-0.16029
-0.143777
-0.151643
-0.148817
-0.139503
-0.12954
-0.127284
-0.118187
-0.106916
-0.105244
-0.0838904
-0.0604376
-0.0604002
-0.083852
-0.106876
-0.105204
-0.1295
-0.127244
-0.118147
-0.151602
-0.148776
-0.139463
-0.173112
-0.16977
-0.160249
-0.143737
-0.193997
-0.190171
-0.180449
-0.163713
-0.141623
-0.214224
-0.209933
-0.200022
-0.183132
-0.160707
-0.135332
-0.233756
-0.229019
-0.21894
-0.201885
-0.179282
-0.15351
-0.252561
-0.247391
-0.237172
-0.220003
-0.197249
-0.171162
-0.143995
-0.270609
-0.265015
-0.254682
-0.23745
-0.214571
-0.188265
-0.160708
-0.13368
-0.287869
-0.28186
-0.271437
-0.254188
-0.231244
-0.204765
-0.17691
-0.149446
-0.123514
-0.304314
-0.2979
-0.287409
-0.270186
-0.247239
-0.22065
-0.192558
-0.164724
-0.138336
-0.114024
-0.319919
-0.313111
-0.302575
-0.285418
-0.262527
-0.235896
-0.207628
-0.179496
-0.152706
-0.127936
-0.105443
-0.334661
-0.327473
-0.316913
-0.299862
-0.277083
-0.250478
-0.222103
-0.193733
-0.166606
-0.141427
-0.118491
-0.0978317
-0.348522
-0.340967
-0.330403
-0.313496
-0.290885
-0.264372
-0.235961
-0.207421
-0.180014
-0.154481
-0.131148
-0.11007
-0.0911582
-0.361487
-0.35358
-0.343031
-0.326304
-0.303915
-0.277561
-0.249183
-0.220539
-0.192915
-0.167083
-0.143399
-0.121945
-0.102646
-0.0853537
-0.373545
-0.3653
-0.354785
-0.338272
-0.316156
-0.290025
-0.261751
-0.233073
-0.205294
-0.179217
-0.155231
-0.133444
-0.113796
-0.0961492
-0.0803376
-0.384687
-0.376121
-0.365656
-0.349389
-0.327595
-0.301751
-0.273649
-0.245006
-0.217135
-0.190871
-0.166634
-0.144556
-0.124598
-0.106631
-0.0904958
-0.0760217
-0.394908
-0.386039
-0.375639
-0.359647
-0.338222
-0.312725
-0.284865
-0.256325
-0.228427
-0.202033
-0.177595
-0.155272
-0.135041
-0.116789
-0.100362
-0.0855944
-0.0723256
-0.0604955
-0.404209
-0.395053
-0.384733
-0.369042
-0.348031
-0.32294
-0.295388
-0.26702
-0.239159
-0.212693
-0.188106
-0.165582
-0.145118
-0.126615
-0.109929
-0.0948959
-0.0813579
-0.0692541
-0.0582251
-0.412591
-0.403168
-0.39294
-0.377574
-0.357016
-0.332387
-0.305209
-0.27708
-0.249322
-0.222843
-0.198157
-0.175477
-0.154822
-0.136104
-0.119189
-0.10392
-0.0901387
-0.0777855
-0.066541
-0.0555569
-0.420062
-0.410391
-0.400266
-0.385246
-0.365178
-0.341063
-0.314322
-0.286499
-0.258908
-0.232475
-0.207743
-0.184953
-0.164146
-0.145249
-0.128137
-0.112661
-0.0986627
-0.0860833
-0.0746581
-0.0633911
-0.42663
-0.416732
-0.40672
-0.392063
-0.372519
-0.348967
-0.322723
-0.295272
-0.267911
-0.241583
-0.216857
-0.194003
-0.173084
-0.154044
-0.136768
-0.121114
-0.106928
-0.0941408
-0.0825744
-0.0710287
-0.43231
-0.422205
-0.412315
-0.398036
-0.379044
-0.3561
-0.330411
-0.303395
-0.276328
-0.250163
-0.225496
-0.202624
-0.181634
-0.162486
-0.145078
-0.129275
-0.114929
-0.101964
-0.0902395
-0.07855
-0.437119
-0.426829
-0.417067
-0.403178
-0.384763
-0.362467
-0.337387
-0.310866
-0.284155
-0.258211
-0.233655
-0.210812
-0.189791
-0.170572
-0.153063
-0.137141
-0.122661
-0.109543
-0.0976834
-0.0861611
-0.441075
-0.430623
-0.420997
-0.407506
-0.389687
-0.368076
-0.343654
-0.317687
-0.291392
-0.265727
-0.241335
-0.218565
-0.197554
-0.178299
-0.160722
-0.144708
-0.130122
-0.116878
-0.10489
-0.0934191
-0.444204
-0.433613
-0.424127
-0.411039
-0.393833
-0.372937
-0.349218
-0.323861
-0.29804
-0.272711
-0.248533
-0.225884
-0.204923
-0.185667
-0.168052
-0.151974
-0.137307
-0.12396
-0.111846
-0.100307
-0.446531
-0.435825
-0.426483
-0.413802
-0.39722
-0.377064
-0.35409
-0.329393
-0.304102
-0.279164
-0.255252
-0.232768
-0.211897
-0.192675
-0.175054
-0.158939
-0.144213
-0.130786
-0.118563
-0.106929
-0.448085
-0.437289
-0.428095
-0.415821
-0.399869
-0.380474
-0.358279
-0.33429
-0.309583
-0.285089
-0.261493
-0.239219
-0.218477
-0.199325
-0.181728
-0.165603
-0.150841
-0.137354
-0.12505
-0.113343
-0.448898
-0.438038
-0.428994
-0.417124
-0.401804
-0.383185
-0.3618
-0.338562
-0.314488
-0.290491
-0.267259
-0.24524
-0.224667
-0.205617
-0.188075
-0.171968
-0.157194
-0.143668
-0.131309
-0.119556
-0.449005
-0.438106
-0.429215
-0.417743
-0.403054
-0.38522
-0.36467
-0.342221
-0.318827
-0.295375
-0.272556
-0.250835
-0.230468
-0.211556
-0.194098
-0.178035
-0.163274
-0.149732
-0.137338
-0.125562
-0.448442
-0.437529
-0.428793
-0.417714
-0.403649
-0.386604
-0.366907
-0.34528
-0.32261
-0.299749
-0.277389
-0.256009
-0.235887
-0.217145
-0.199801
-0.183808
-0.169083
-0.155547
-0.143139
-0.131359
-0.447248
-0.436347
-0.427767
-0.417071
-0.403622
-0.387364
-0.368533
-0.347755
-0.325847
-0.303622
-0.281765
-0.260766
-0.240926
-0.222388
-0.205187
-0.18929
-0.174625
-0.161116
-0.148714
-0.13695
-0.445461
-0.434599
-0.426177
-0.415855
-0.403008
-0.38753
-0.369572
-0.349666
-0.328552
-0.307004
-0.285691
-0.265115
-0.245594
-0.227291
-0.210261
-0.194486
-0.179904
-0.166443
-0.154066
-0.142336
-0.443123
-0.432326
-0.424063
-0.414104
-0.401843
-0.387135
-0.37005
-0.351031
-0.330741
-0.309906
-0.289178
-0.269063
-0.249895
-0.23186
-0.215029
-0.1994
-0.184923
-0.171531
-0.159198
-0.147521
-0.440277
-0.42957
-0.421469
-0.411859
-0.400166
-0.386211
-0.369995
-0.351872
-0.332431
-0.312341
-0.292235
-0.272617
-0.253838
-0.2361
-0.219496
-0.204037
-0.189687
-0.176385
-0.164113
-0.152506
-0.436964
-0.426374
-0.418435
-0.409164
-0.398017
-0.384795
-0.369437
-0.352215
-0.333639
-0.314324
-0.294874
-0.275788
-0.25743
-0.24002
-0.223669
-0.208404
-0.194202
-0.18101
-0.168816
-0.157296
-0.433229
-0.42278
-0.415006
-0.406061
-0.395437
-0.382924
-0.368407
-0.352084
-0.334386
-0.31587
-0.297106
-0.278586
-0.26068
-0.243627
-0.227555
-0.212507
-0.198473
-0.185409
-0.173309
-0.161892
-0.429114
-0.418831
-0.411224
-0.402591
-0.392468
-0.380636
-0.366941
-0.351508
-0.334694
-0.316995
-0.298944
-0.28102
-0.263598
-0.24693
-0.23116
-0.216352
-0.202506
-0.189588
-0.177599
-0.166299
-0.424662
-0.414568
-0.407132
-0.398799
-0.389151
-0.377971
-0.365071
-0.350514
-0.334585
-0.317718
-0.300403
-0.283103
-0.266192
-0.249935
-0.234494
-0.219946
-0.206308
-0.193553
-0.181688
-0.17052
-0.419915
-0.410033
-0.40277
-0.394726
-0.385528
-0.374969
-0.362834
-0.349134
-0.334085
-0.318058
-0.301498
-0.284846
-0.268473
-0.252654
-0.237564
-0.223297
-0.209884
-0.197309
-0.185584
-0.174561
-0.414916
-0.405266
-0.398181
-0.390414
-0.381641
-0.371669
-0.360268
-0.3474
-0.333219
-0.318035
-0.302245
-0.286263
-0.270452
-0.255094
-0.240378
-0.226412
-0.213242
-0.200863
-0.18929
-0.178425
-0.409705
-0.400307
-0.393403
-0.385903
-0.377531
-0.368112
-0.357408
-0.345343
-0.332014
-0.31767
-0.30266
-0.287366
-0.27214
-0.257266
-0.242945
-0.229299
-0.216389
-0.204222
-0.192814
-0.182117
-0.404319
-0.395192
-0.388473
-0.381231
-0.373237
-0.364337
-0.354292
-0.342997
-0.330498
-0.316986
-0.302761
-0.288169
-0.273547
-0.259178
-0.245273
-0.231966
-0.219332
-0.207391
-0.196161
-0.185643
-0.398798
-0.389958
-0.383428
-0.376436
-0.368797
-0.360382
-0.350957
-0.340396
-0.3287
-0.316007
-0.302566
-0.288686
-0.274686
-0.260842
-0.247371
-0.23442
-0.222079
-0.210378
-0.199336
-0.189008
-0.393175
-0.384638
-0.378302
-0.371552
-0.364248
-0.356285
-0.34744
-0.337573
-0.326649
-0.314757
-0.302095
-0.288934
-0.275568
-0.262266
-0.249248
-0.236671
-0.224636
-0.213189
-0.202347
-0.387486
-0.379263
-0.373126
-0.366613
-0.359623
-0.35208
-0.343777
-0.334563
-0.324376
-0.313261
-0.301368
-0.288928
-0.276206
-0.263462
-0.250914
-0.381761
-0.373865
-0.367931
-0.361649
-0.354956
-0.347803
-0.340001
-0.331399
-0.321911
-0.311544
-0.300405
-0.376031
-0.368469
-0.362742
-0.356687
-0.350276
-0.343485
-0.336146
-0.328113
-0.370321
-0.363102
-0.357585
-0.351755
-0.345611
-0.364657
-0.357785
-0.352483
-0.157645
-0.161652
-0.165511
-0.169225
-0.172799
-0.176236
-0.144336
-0.148197
-0.151943
-0.155577
-0.159101
-0.162518
-0.132587
-0.136296
-0.139915
-0.143446
-0.146891
-0.150253
-0.122366
-0.125907
-0.129377
-0.132779
-0.136113
-0.139382
-0.113339
-0.116712
-0.120028
-0.12329
-0.126499
-0.129657
-0.10539
-0.10859
-0.111746
-0.114858
-0.117929
-0.12096
-0.0983337
-0.101364
-0.10436
-0.107322
-0.110252
-0.113149
-0.0920712
-0.0949359
-0.0977731
-0.100584
-0.103369
-0.106129
-0.08649
-0.0891943
-0.0918771
-0.094539
-0.0971807
-0.0998029
-0.0815057
-0.0840563
-0.0865899
-0.0891072
-0.0916087
-0.094095
-0.0770464
-0.0794499
-0.0818401
-0.0842177
-0.086583
-0.0889365
-0.0730478
-0.0753115
-0.0775649
-0.0798084
-0.0820425
-0.0842676
-0.069453
-0.0715845
-0.073708
-0.0758238
-0.0779325
-0.0800342
-0.0662199
-0.068226
-0.0702259
-0.0722201
-0.0742088
-0.0761923
-0.0633039
-0.0651917
-0.0670748
-0.0689536
-0.0708284
-0.0726993
-0.0606678
-0.0624446
-0.0642178
-0.0659878
-0.0677547
-0.0695188
-0.0582842
-0.0599562
-0.0616255
-0.0632925
-0.0649572
-0.06662
-0.0561264
-0.0576994
-0.0592706
-0.0608401
-0.0624081
-0.0639748
-0.0541664
-0.0556467
-0.0571257
-0.0586036
-0.0600804
-0.0615565
-0.0630318
-0.052385
-0.0537782
-0.0551706
-0.0565622
-0.0579532
-0.0593437
-0.0607338
-0.0507639
-0.0520753
-0.0533861
-0.0546964
-0.0560064
-0.0573162
-0.0586259
-0.0492877
-0.0505221
-0.0517561
-0.0529898
-0.0542235
-0.0554572
-0.0566909
-0.0479407
-0.0491026
-0.0502644
-0.0514262
-0.052588
-0.0537499
-0.054912
-0.0467105
-0.0478044
-0.0488983
-0.0499923
-0.0510864
-0.0521808
-0.0532755
-0.0455846
-0.0466147
-0.0476449
-0.0486753
-0.0497058
-0.0507367
-0.0517678
-0.0445546
-0.0455247
-0.0464949
-0.0474653
-0.048436
-0.049407
-0.0503782
-0.0436118
-0.0445253
-0.0454391
-0.0463531
-0.0472673
-0.0481818
-0.0490967
-0.042747
-0.0436075
-0.0444681
-0.045329
-0.0461902
-0.0470517
-0.0479134
-0.0419541
-0.0427646
-0.0435753
-0.0443862
-0.0451974
-0.0460089
-0.0468206
-0.0412263
-0.0419898
-0.0427535
-0.0435174
-0.0442815
-0.0450459
-0.0458105
-0.0405577
-0.041277
-0.0419965
-0.0427162
-0.043436
-0.0441562
-0.0448765
-0.0399439
-0.0406216
-0.0412995
-0.0419775
-0.0426557
-0.0433341
-0.0440127
-0.0393807
-0.0400192
-0.0406578
-0.0412966
-0.0419356
-0.0425747
-0.0432139
-0.0388634
-0.039465
-0.0400667
-0.0406686
-0.0412706
-0.0418727
-0.0424749
-0.0383887
-0.0389555
-0.0395226
-0.0400897
-0.0406568
-0.0412241
-0.0417914
-0.0379531
-0.0384873
-0.0390216
-0.039556
-0.0400904
-0.0406249
-0.0411594
-0.0375539
-0.0380574
-0.0385609
-0.0390645
-0.0395681
-0.0400717
-0.0405753
-0.0371882
-0.0376628
-0.0381373
-0.0386119
-0.0390865
-0.0395611
-0.0400357
-0.0368535
-0.0373009
-0.0377482
-0.0381956
-0.038643
-0.0390903
-0.0395375
-0.036548
-0.0369698
-0.0373916
-0.0378133
-0.038235
-0.0386567
-0.0390783
-0.0362695
-0.0366673
-0.037065
-0.0374627
-0.0378603
-0.0382578
-0.0386553
-0.0360159
-0.0363911
-0.0367663
-0.0371414
-0.0375164
-0.0378914
-0.0382662
-0.0357857
-0.0361398
-0.0364937
-0.0368477
-0.0372015
-0.0375553
-0.0379089
-0.0355772
-0.0359114
-0.0362456
-0.0365797
-0.0369137
-0.0372477
-0.0375815
-0.0353888
-0.0357045
-0.0360202
-0.0363358
-0.0366513
-0.0369667
-0.037282
-0.0352192
-0.0355177
-0.0358161
-0.0361144
-0.0364127
-0.0367108
-0.0370088
-0.0350671
-0.0353495
-0.0356319
-0.0359142
-0.0361963
-0.0364784
-0.0367603
-0.0349313
-0.0351988
-0.0354662
-0.0357336
-0.0360009
-0.036268
-0.0365351
-0.0348104
-0.0350642
-0.0353179
-0.0355715
-0.035825
-0.0360784
-0.0363316
-0.0347037
-0.0349447
-0.0351858
-0.0354267
-0.0356676
-0.0359083
-0.0361489
-0.0346098
-0.0348393
-0.0350688
-0.0352981
-0.0355274
-0.0357566
-0.0359856
-0.0345281
-0.034747
-0.034966
-0.0351848
-0.0354036
-0.0356222
-0.0358407
-0.0344573
-0.0346668
-0.0348763
-0.0350857
-0.035295
-0.0355042
-0.0357132
-0.0343972
-0.0345982
-0.0347993
-0.0350002
-0.0352011
-0.0354019
-0.0356026
-0.0343463
-0.03454
-0.0347337
-0.0349273
-0.0351208
-0.0353143
-0.0355076
-0.034305
-0.0344924
-0.0346797
-0.034867
-0.0350542
-0.0352414
-0.0354284
-0.0342715
-0.0344537
-0.0346358
-0.0348179
-0.0349999
-0.0351818
-0.0353637
-0.0342474
-0.0344253
-0.0346033
-0.0347812
-0.034959
-0.0351368
-0.0353145
-0.0342299
-0.0344049
-0.03458
-0.034755
-0.0349299
-0.0351048
-0.0352797
-0.0342222
-0.0343952
-0.0345682
-0.0347412
-0.0349141
-0.0350869
-0.0352597
-0.0497336
-0.0569622
-0.0640245
-0.070909
-0.077516
-0.0843175
-0.0908284
-0.097014
-0.102983
-0.108788
-0.114429
-0.119898
-0.125194
-0.13032
-0.135279
-0.140073
-0.144704
-0.149174
-0.153487
-0.0465927
-0.0530054
-0.0592815
-0.0654079
-0.0713523
-0.0769376
-0.0826089
-0.0881994
-0.0936201
-0.0988843
-0.104014
-0.109012
-0.113879
-0.118612
-0.123215
-0.127689
-0.132035
-0.136257
-0.140357
-0.0425377
-0.0482623
-0.0538653
-0.0593428
-0.0646926
-0.0699105
-0.0750823
-0.0802076
-0.0851968
-0.0900429
-0.0947691
-0.0993875
-0.103899
-0.108304
-0.112603
-0.116798
-0.120892
-0.124887
-0.128784
-0.0397283
-0.0448771
-0.049929
-0.0548827
-0.0597343
-0.0644763
-0.0690738
-0.0737271
-0.0782852
-0.0827168
-0.0870466
-0.0912925
-0.0954576
-0.0995405
-0.103541
-0.107461
-0.111302
-0.115065
-0.118753
-0.0370326
-0.0416903
-0.0462707
-0.0507747
-0.0552027
-0.0595541
-0.0638234
-0.0679729
-0.0721267
-0.0762238
-0.0802371
-0.0841739
-0.0880431
-0.091847
-0.0955857
-0.0992599
-0.102871
-0.10642
-0.109909
-0.0348788
-0.0391065
-0.0432698
-0.0473685
-0.0514023
-0.0553693
-0.0592671
-0.0630823
-0.0669339
-0.0707228
-0.0744307
-0.0780738
-0.0816637
-0.085203
-0.0886912
-0.0921284
-0.0955157
-0.0988543
-0.102145
-0.0330159
-0.0368717
-0.0406762
-0.0444303
-0.0481348
-0.0517904
-0.0553965
-0.0589484
-0.0624221
-0.0658948
-0.0693347
-0.0727243
-0.0760664
-0.079366
-0.0826251
-0.0858441
-0.0890235
-0.0921643
-0.0952673
-0.0314741
-0.0350012
-0.038486
-0.0419289
-0.0453305
-0.048691
-0.0520095
-0.0552847
-0.0585029
-0.0617294
-0.0649245
-0.0680752
-0.0711864
-0.0742637
-0.0773091
-0.0803228
-0.083305
-0.0862566
-0.0891784
-0.0301821
-0.033418
-0.036619
-0.0397859
-0.0429189
-0.0460185
-0.0490844
-0.0521164
-0.0551115
-0.0581051
-0.0610723
-0.0640035
-0.0669028
-0.0697752
-0.0726222
-0.0754441
-0.0782413
-0.0810142
-0.0837635
-0.0291215
-0.0321
-0.0350507
-0.0379741
-0.0408711
-0.0437421
-0.046588
-0.0494085
-0.0522016
-0.054941
-0.0576869
-0.060421
-0.0631305
-0.0658155
-0.0684791
-0.0711227
-0.0737467
-0.0763515
-0.0789377
-0.0282489
-0.0309956
-0.0337193
-0.0364204
-0.0390993
-0.0417563
-0.0443917
-0.0470051
-0.0495963
-0.0521607
-0.0547314
-0.0572837
-0.0598123
-0.0623212
-0.0648135
-0.0672903
-0.0697516
-0.0721978
-0.0746292
-0.0275429
-0.030082
-0.0326023
-0.0351043
-0.0375883
-0.0400547
-0.0425038
-0.0449357
-0.0473505
-0.0497466
-0.0521387
-0.0545182
-0.0568805
-0.0592274
-0.0615609
-0.063882
-0.0661909
-0.068488
-0.0707735
-0.0269799
-0.0293321
-0.0316692
-0.0339916
-0.0362997
-0.0385939
-0.0408748
-0.0431427
-0.0453974
-0.0476381
-0.0498488
-0.0520643
-0.0542757
-0.0564755
-0.058663
-0.0608397
-0.0630068
-0.0651645
-0.0673131
-0.026537
-0.0287194
-0.0308894
-0.0330474
-0.0351937
-0.0373285
-0.0394522
-0.0415649
-0.0436667
-0.0457573
-0.0478331
-0.0499105
-0.0519798
-0.0540383
-0.0560872
-0.0581283
-0.0601618
-0.0621882
-0.0642074
-0.0261963
-0.0282242
-0.0302419
-0.0322496
-0.0342477
-0.0362363
-0.0382155
-0.0401854
-0.042146
-0.0440975
-0.0460393
-0.0479981
-0.0499407
-0.0518681
-0.0537873
-0.0557013
-0.0576101
-0.0595134
-0.0614113
-0.025947
-0.027835
-0.0297151
-0.0315874
-0.0334523
-0.0353102
-0.0371613
-0.0390059
-0.0408445
-0.0426769
-0.0445021
-0.0463023
-0.0481096
-0.0499188
-0.0517231
-0.0535213
-0.0553143
-0.0571029
-0.0588873
-0.0257702
-0.0275296
-0.0292824
-0.031029
-0.0327694
-0.0345039
-0.0362326
-0.0379557
-0.0396733
-0.0413853
-0.0430916
-0.0447881
-0.0464869
-0.0481845
-0.0498777
-0.0515662
-0.0532506
-0.0549316
-0.0566094
-0.0256572
-0.0272988
-0.0289352
-0.0305666
-0.032193
-0.0338148
-0.035432
-0.0370449
-0.0386534
-0.0402578
-0.0418578
-0.0434521
-0.0450474
-0.0466395
-0.0482276
-0.0498123
-0.0513944
-0.052974
-0.0545513
-0.0255972
-0.0271304
-0.0286595
-0.0301845
-0.0317055
-0.0332228
-0.0347364
-0.0362464
-0.0377529
-0.0392559
-0.0407555
-0.0422515
-0.0437539
-0.0452504
-0.0467414
-0.0482296
-0.0497163
-0.0512013
-0.0526847
-0.0255836
-0.0270174
-0.028448
-0.0298754
-0.0312999
-0.0327215
-0.0341404
-0.0355567
-0.0369706
-0.0383822
-0.0397914
-0.041198
-0.0425975
-0.0439989
-0.0454005
-0.0468005
-0.0481987
-0.0495953
-0.0509907
-0.0256075
-0.0269493
-0.0282885
-0.0296254
-0.0309599
-0.0322923
-0.0336224
-0.0349506
-0.0362768
-0.0376011
-0.0389236
-0.040244
-0.0415591
-0.0428762
-0.0441939
-0.0455103
-0.0468253
-0.048139
-0.0494518
-0.0256628
-0.0269196
-0.0281744
-0.0294273
-0.0306784
-0.0319279
-0.0331757
-0.034422
-0.0356667
-0.0369101
-0.038152
-0.0393925
-0.0406306
-0.0418694
-0.043108
-0.0443455
-0.045582
-0.0468178
-0.048053
-0.0257447
-0.0269226
-0.0280991
-0.0292742
-0.030448
-0.0316205
-0.0327918
-0.033962
-0.035131
-0.0362991
-0.0374661
-0.0386321
-0.0397967
-0.0409623
-0.0421269
-0.0432906
-0.0444536
-0.0456162
-0.0467786
-0.0258482
-0.026953
-0.0280567
-0.0291594
-0.0302611
-0.0313619
-0.0324618
-0.0335608
-0.034659
-0.0357564
-0.036853
-0.0379489
-0.039044
-0.040143
-0.0412396
-0.0423342
-0.0434283
-0.0445224
-0.0456165
-0.0259705
-0.0270075
-0.0280438
-0.0290793
-0.0301143
-0.0311486
-0.0321824
-0.0332157
-0.0342485
-0.0352809
-0.0363129
-0.0373446
-0.0383757
-0.0394036
-0.0404332
-0.0414638
-0.0424943
-0.0435245
-0.0445545
-0.0261072
-0.0270809
-0.0280542
-0.029027
-0.0299995
-0.0309715
-0.0319432
-0.0329146
-0.0338857
-0.0348564
-0.035827
-0.0367972
-0.0377671
-0.0387351
-0.0397044
-0.0406745
-0.0416447
-0.0426147
-0.0435846
-0.0262558
-0.0271706
-0.0280852
-0.0289995
-0.0299137
-0.0308276
-0.0317413
-0.0326549
-0.0335683
-0.0344815
-0.0353946
-0.0363076
-0.0372205
-0.0381327
-0.0390455
-0.0399587
-0.0408719
-0.0417851
-0.0426984
-0.0264139
-0.0272737
-0.0281335
-0.0289932
-0.0298528
-0.0307124
-0.0315719
-0.0324313
-0.0332907
-0.0341501
-0.0350095
-0.0358689
-0.0367282
-0.0375874
-0.038447
-0.0393068
-0.0401667
-0.0410267
-0.0418868
-0.0265798
-0.0273883
-0.0281968
-0.0290054
-0.0298141
-0.0306228
-0.0314315
-0.0322404
-0.0330493
-0.0338582
-0.0346672
-0.0354763
-0.0362855
-0.0370947
-0.0379044
-0.0387142
-0.0395239
-0.0403338
-0.0411439
-0.0267513
-0.0275118
-0.0282724
-0.0290332
-0.0297941
-0.0305551
-0.0313163
-0.0320775
-0.032839
-0.0336005
-0.0343621
-0.0351239
-0.0358858
-0.0366477
-0.0374115
-0.0381747
-0.0389373
-0.0397
-0.040463
-0.0269278
-0.0276434
-0.0283592
-0.0290752
-0.0297915
-0.030508
-0.0312247
-0.0319416
-0.0326587
-0.033376
-0.0340935
-0.0348112
-0.0355291
-0.0362471
-0.0369642
-0.0376822
-0.0384008
-0.0391196
-0.0398386
-0.0271073
-0.0277808
-0.0284545
-0.0291286
-0.0298029
-0.0304775
-0.0311523
-0.0318274
-0.0325027
-0.0331783
-0.033854
-0.03453
-0.0352062
-0.0358825
-0.0365582
-0.0372347
-0.0379118
-0.038589
-0.0392664
-0.0272891
-0.0279231
-0.0285574
-0.029192
-0.029827
-0.0304623
-0.0310979
-0.0317337
-0.0323698
-0.0330061
-0.0336427
-0.0342795
-0.0349165
-0.0355536
-0.0361908
-0.0368283
-0.0374662
-0.0381042
-0.0387424
-0.0274721
-0.0280691
-0.0286664
-0.0292641
-0.0298622
-0.0304605
-0.0310592
-0.0316581
-0.0322574
-0.0328569
-0.0334566
-0.0340566
-0.0346568
-0.0352571
-0.0358576
-0.0364584
-0.0370594
-0.0376606
-0.0382619
-0.0276559
-0.0282181
-0.0287807
-0.0293437
-0.029907
-0.0304707
-0.0310347
-0.031599
-0.0321636
-0.0327284
-0.0332936
-0.0338589
-0.0344245
-0.0349903
-0.0355562
-0.0361223
-0.0366887
-0.0372552
-0.0378219
-0.0278396
-0.0283691
-0.0288991
-0.0294295
-0.0299602
-0.0304913
-0.0310227
-0.0315544
-0.0320864
-0.0326187
-0.0331513
-0.0336841
-0.0342171
-0.0347503
-0.0352836
-0.0358173
-0.036351
-0.0368849
-0.0374189
-0.0280227
-0.0285216
-0.0290209
-0.0295207
-0.0300208
-0.0305212
-0.031022
-0.0315231
-0.0320245
-0.0325262
-0.0330281
-0.0335303
-0.0340326
-0.0345352