/*--------------------------------*- C++ -*----------------------------------*\
  =========                 |
  \\      /  F ield         | OpenFOAM: The Open Source CFD Toolbox
   \\    /   O peration     | Website:  https://openfoam.org
    \\  /    A nd           | Version:  7
     \\/     M anipulation  |
\*---------------------------------------------------------------------------*/
FoamFile
{
    version     2.0;
    format      ascii;
    class       surfaceScalarField;
    location    "40";
    object      phi;
}
// * * * * * * * * * * * * * * * * * * * * * * * * * * * * * * * * * * * * * //

dimensions      [0 3 -1 0 0 0 0];

internalField   nonuniform List<scalar> 
8882
(
4.78781e-06
-3.11258e-05
1.9887e-05
-0.000128256
-0.000263641
5.08141e-06
-3.62072e-05
2.09536e-05
-0.000144129
4.85687e-05
-0.000291256
8.85442e-05
-0.00047768
-0.000701544
5.37488e-06
-4.15821e-05
2.20058e-05
-0.00016076
5.07198e-05
-0.00031997
9.19538e-05
-0.000518914
0.00014547
-0.00075506
0.000210118
-0.00102316
0.000283733
-0.00131519
-0.00162078
5.6665e-06
-4.72486e-05
2.30367e-05
-0.00017813
5.27959e-05
-0.000349729
9.51821e-05
-0.0005613
0.000149694
-0.000809572
0.000214873
-0.00108834
0.000288244
-0.00138856
0.000366493
-0.00169903
0.00044586
-0.00200775
0.000522687
-0.00230357
0.000593939
-0.00257783
-0.00282534
5.95451e-06
-5.32031e-05
2.40393e-05
-0.000196215
5.47815e-05
-0.000380471
9.8203e-05
-0.000604722
0.000153527
-0.000864895
0.000218983
-0.0011538
0.00029181
-0.00146138
0.000368489
-0.00177571
0.000445214
-0.00208447
0.000518443
-0.0023768
0.000585406
-0.00264479
0.000644405
-0.00288434
0.000694873
-0.00309514
0.000737216
-0.00328
-0.00344377
6.23707e-06
-5.94402e-05
2.50066e-05
-0.000214984
5.66613e-05
-0.000412126
0.000100992
-0.000649052
0.000156935
-0.000920839
0.000222416
-0.00121928
0.000294403
-0.00153337
0.000369222
-0.00185053
0.000443061
-0.00215831
0.000512543
-0.00244628
0.000575184
-0.00270744
0.000629623
-0.00293878
0.000675613
-0.00314113
0.0007138
-0.00331818
0.000745405
-0.00347537
0.000771895
-0.00361869
0.000794716
-0.00375379
0.000815106
-0.0038854
-0.00401701
6.51232e-06
-6.59525e-05
2.59315e-05
-0.000234403
5.84207e-05
-0.000444615
0.000103525
-0.000694157
0.00015989
-0.000977204
0.000225143
-0.00128453
0.000296011
-0.00160424
0.000368701
-0.00192322
0.00043945
-0.00222906
0.000505078
-0.00251191
0.000563402
-0.00276576
0.000613394
-0.00298877
0.000655097
-0.00318283
0.000689362
-0.00335245
0.000717509
-0.00350352
0.000741016
-0.0036422
0.000761267
-0.00377404
0.000779405
-0.00390354
0.00079628
-0.00403389
-0.00416723
0.000812417
6.77839e-06
-7.27309e-05
2.68073e-05
-0.000254432
6.00459e-05
-0.000477853
0.000105782
-0.000739893
0.000162368
-0.00103379
0.000227143
-0.00134931
0.000296627
-0.00167372
0.000366952
-0.00199355
0.000434441
-0.00229655
0.000496145
-0.00257362
0.000550191
-0.00281981
0.00059587
-0.00303445
0.000633485
-0.00322045
0.000664055
-0.00338302
0.00068897
-0.00352844
0.000709689
-0.00366292
0.000727525
-0.00379187
0.000743522
-0.00391953
0.000758433
-0.0040488
-0.00418149
0.000772695
7.03342e-06
-7.97643e-05
2.76274e-05
-0.000275026
6.15236e-05
-0.00051175
0.000107744
-0.000786113
0.000164346
-0.00109039
0.000228404
-0.00141336
0.000296256
-0.00174158
0.000364006
-0.00206129
0.000428101
-0.00236064
0.000485847
-0.00263136
0.000535682
-0.00286964
0.000577196
-0.00307597
0.000610924
-0.00325418
0.000638018
-0.00341011
0.000659906
-0.00355032
0.000678011
-0.00368102
0.000693566
-0.00380743
0.000707516
-0.00393348
0.00072052
-0.0040618
-0.00419391
0.00073294
7.27558e-06
-8.70399e-05
2.83853e-05
-0.000296136
6.28419e-05
-0.000546206
0.000109394
-0.000832665
0.000165811
-0.00114681
0.000228917
-0.00147647
0.000294913
-0.00180757
0.000359906
-0.00212629
0.000420507
-0.00242125
0.000474291
-0.00268514
0.000520004
-0.00291535
0.000557513
-0.00311348
0.000587552
-0.00328421
0.000611375
-0.00343394
0.000630423
-0.00356937
0.000646068
-0.00369667
0.000659454
-0.00382082
0.000671433
-0.00394546
0.000682577
-0.00407295
-0.00420452
0.000693179
7.50307e-06
-9.4543e-05
2.90752e-05
-0.000317708
6.39899e-05
-0.000581121
0.000110719
-0.000879394
0.00016675
-0.00120284
0.000228685
-0.0015384
0.000292616
-0.0018715
0.000354701
-0.00218837
0.000411739
-0.00247828
0.000461584
-0.00273499
0.000503281
-0.00295705
0.000536951
-0.00314715
0.000563495
-0.00331076
0.000584239
-0.00345468
0.000600615
-0.00358575
0.000613933
-0.00370998
0.000625246
-0.00383213
0.000635316
-0.00395553
0.000644635
-0.00408226
-0.00421332
0.000653439
7.71421e-06
-0.000102257
2.96916e-05
-0.000339685
6.49581e-05
-0.000616387
0.000111707
-0.000926143
0.000167157
-0.00125829
0.000227713
-0.00159896
0.000289396
-0.00193319
0.000348448
-0.00224742
0.000401881
-0.00253172
0.000447833
-0.00278094
0.000485634
-0.00299485
0.000515632
-0.00317715
0.000538865
-0.00333399
0.000556707
-0.00347252
0.000570563
-0.00359961
0.000581668
-0.00372109
0.000590988
-0.00384145
0.000599199
-0.00396374
0.000606723
-0.00408979
-0.00422034
0.000613742
7.90818e-06
-0.000110165
3.02311e-05
-0.000362008
6.57409e-05
-0.000651897
0.000112354
-0.000972756
0.000167035
-0.00131297
0.000226018
-0.00165794
0.000285292
-0.00199246
0.000341213
-0.00230334
0.000391024
-0.00258153
0.000433148
-0.00282307
0.000467183
-0.00302889
0.000493675
-0.00320364
0.000513774
-0.00335409
0.000528875
-0.00348762
0.000540343
-0.00361107
0.000549334
-0.00373008
0.000556728
-0.00384884
0.00056312
-0.00397014
0.00056887
-0.00409554
-0.00422559
0.000574115
8.08196e-06
-0.000118247
3.06862e-05
-0.000384613
6.63266e-05
-0.000687538
0.000112647
-0.00101908
0.000166377
-0.0013667
0.000223609
-0.00171517
0.000280333
-0.00204918
0.000333048
-0.00235606
0.000379243
-0.00262772
0.000417618
-0.00286144
0.00044802
-0.00305929
0.000471169
-0.00322679
0.000488299
-0.00337122
0.000500806
-0.00350013
0.000510003
-0.00362027
0.000516965
-0.00373704
0.000522487
-0.00385436
0.000527093
-0.00397474
0.000531085
-0.00409953
-0.00422907
0.000534565
8.23492e-06
-0.000126482
3.10544e-05
-0.000407432
6.67126e-05
-0.000723196
0.000112588
-0.00106495
0.000165193
-0.00141931
0.000220512
-0.00177049
0.000274567
-0.00210324
0.000324025
-0.00240552
0.000366628
-0.00267033
0.000401346
-0.00289616
0.000428253
-0.0030862
0.000448217
-0.00324675
0.000462529
-0.00338553
0.000472575
-0.00351018
0.000479603
-0.0036273
0.000484607
-0.00374205
0.000488302
-0.00385806
0.000491147
-0.00397759
0.000493395
-0.00410178
-0.00423079
0.000495116
8.36582e-06
-0.000134848
3.13328e-05
-0.000430399
6.6895e-05
-0.000758758
0.000112177
-0.00111023
0.000163494
-0.00147062
0.000216754
-0.00182375
0.000268042
-0.00215453
0.000314212
-0.00245169
0.000353263
-0.00270938
0.000384424
-0.00292732
0.000407973
-0.00310974
0.000424902
-0.00326368
0.00043654
-0.00339717
0.000444242
-0.00351788
0.00044919
-0.00363224
0.000452296
-0.00374515
0.000454201
-0.00385996
0.000455305
-0.00397869
0.000455818
-0.00410229
-0.00423075
0.000455785
8.47356e-06
-0.000143322
3.15185e-05
-0.000453444
6.68719e-05
-0.000794112
0.000111415
-0.00115478
0.000161294
-0.0015205
0.000212365
-0.00187482
0.000260807
-0.00220297
0.000303677
-0.00249456
0.00033923
-0.00274493
0.00036694
-0.00295503
0.000387267
-0.00313007
0.000401303
-0.00327772
0.000410395
-0.00340626
0.000415859
-0.00352334
0.000418803
-0.00363519
0.000420062
-0.00374641
0.000420206
-0.00386011
0.000419584
-0.00397807
0.000418369
-0.00410107
-0.00422897
0.000416588
8.55719e-06
-0.000151879
3.16098e-05
-0.000476497
6.66424e-05
-0.000829144
0.000110308
-0.00119844
0.000158607
-0.0015688
0.000207377
-0.00192359
0.000252912
-0.00224851
0.000292486
-0.00253413
0.000324606
-0.00277705
0.000348974
-0.0029794
0.000366213
-0.00314731
0.00037749
-0.00328899
0.000384154
-0.00341293
0.000387472
-0.00352666
0.000388479
-0.00363619
0.000387932
-0.00374586
0.00038634
-0.00385852
0.000384003
-0.00397573
0.000381066
-0.00409814
-0.00422545
0.00037754
8.61593e-06
-0.000160495
3.16053e-05
-0.000499486
6.62073e-05
-0.000863746
0.000108864
-0.0012411
0.000155454
-0.00161539
0.000201825
-0.00196996
0.00024441
-0.00229109
0.000280705
-0.00257043
0.000309466
-0.00280581
0.000330604
-0.00300054
0.000344882
-0.00316159
0.000353523
-0.00329763
0.000357867
-0.00341727
0.000359122
-0.00352792
0.000358248
-0.00363532
0.00035593
-0.00374355
0.00035262
-0.00385521
0.000348577
-0.00397169
0.000343922
-0.00409348
-0.00422018
0.000338656
8.64917e-06
-0.000169144
3.15045e-05
-0.000522341
6.55687e-05
-0.00089781
0.000107091
-0.00128262
0.000151856
-0.00166016
0.000195747
-0.00201386
0.000235353
-0.0023307
0.000268399
-0.00260347
0.000293879
-0.00283129
0.000311899
-0.00301856
0.000323339
-0.00317303
0.000329461
-0.00330376
0.00033158
-0.00341939
0.000330843
-0.00352718
0.000328137
-0.00363261
0.000324078
-0.00373949
0.000319064
-0.00385019
0.000313322
-0.00396595
0.000306951
-0.00408711
-0.00421318
0.000299949
8.65646e-06
-0.0001778
3.13074e-05
-0.000544992
6.473e-05
-0.000931233
0.000105
-0.00132289
0.000147835
-0.00170299
0.000189178
-0.0020552
0.00022579
-0.00236731
0.000255628
-0.00263331
0.000277913
-0.00285358
0.000292925
-0.00303357
0.000301642
-0.00318175
0.000305351
-0.00330746
0.000305332
-0.00341937
0.000302668
-0.00352452
0.00029817
-0.00362812
0.000292393
-0.00373371
0.000285687
-0.00384349
0.00027825
-0.00395851
0.000270165
-0.00407903
-0.00420445
0.000261431
8.63751e-06
-0.000186438
3.10145e-05
-0.000567369
6.36956e-05
-0.000963914
0.000102605
-0.0013618
0.000143416
-0.0017438
0.000182157
-0.00209394
0.000215774
-0.00240093
0.000242452
-0.00265999
0.000261629
-0.00287275
0.000273741
-0.00304568
0.000279846
-0.00318785
0.00028124
-0.00330886
0.00027916
-0.00341729
0.000274623
-0.00351998
0.00026837
-0.00362186
0.000260895
-0.00372624
0.000252506
-0.0038351
0.000243376
-0.00394938
0.000233577
-0.00406923
-0.00419398
0.000223115
8.59222e-06
-0.00019503
3.06271e-05
-0.000589404
6.24711e-05
-0.000995758
9.9918e-05
-0.00139925
0.000138625
-0.00178251
0.000174723
-0.00213004
0.000205353
-0.00243156
0.000228927
-0.00268356
0.000245084
-0.00288891
0.000254401
-0.003055
0.000257997
-0.00319145
0.000257165
-0.00330803
0.000253095
-0.00341322
0.000246734
-0.00351362
0.000238755
-0.00361388
0.000229599
-0.00371708
0.000219534
-0.00382503
0.000208712
-0.00393856
0.000197198
-0.00405771
-0.0041818
0.00018501
8.52062e-06
-0.000203551
3.01468e-05
-0.00061103
6.1063e-05
-0.00102667
9.69551e-05
-0.00143514
0.000133487
-0.00181904
0.000166913
-0.00216346
0.000194574
-0.00245922
0.000215105
-0.00270409
0.000228332
-0.00290214
0.000234954
-0.00306162
0.000236139
-0.00319263
0.000233163
-0.00330505
0.000227164
-0.00340722
0.000219021
-0.00350547
0.000209344
-0.00360421
0.00019852
-0.00370626
0.000186784
-0.0038133
0.00017427
-0.00392604
0.000161039
-0.00404448
-0.00416788
0.000147121
8.42292e-06
-0.000211974
2.95759e-05
-0.000632183
5.94785e-05
-0.00105658
9.37318e-05
-0.00146939
0.000128029
-0.00185334
0.000158764
-0.0021942
0.000183483
-0.00248394
0.000201036
-0.00272165
0.000211423
-0.00291252
0.000215447
-0.00306564
0.00021431
-0.0031915
0.000209265
-0.00330001
0.000201393
-0.00339935
0.000191506
-0.00349559
0.000180152
-0.00359285
0.000167673
-0.00369378
0.00015427
-0.00379989
0.00014006
-0.00391183
0.00012511
-0.00402953
-0.00415221
0.000109447
8.29941e-06
-0.000220273
2.8917e-05
-0.000652801
5.77256e-05
-0.00108539
9.02645e-05
-0.00150193
0.000122278
-0.00188535
0.000150313
-0.00222223
0.000172124
-0.00250575
0.000186767
-0.00273629
0.000194401
-0.00292016
0.000195919
-0.00306716
0.000192544
-0.00318812
0.000185497
-0.00329296
0.000175802
-0.00338965
0.000164205
-0.00348399
0.000151196
-0.00357984
0.000137072
-0.00367965
0.000122007
-0.00378483
0.000106098
-0.00389593
8.94204e-05
-0.00401286
-0.00413477
7.19727e-05
8.15059e-06
-0.000228424
2.8173e-05
-0.000672823
5.58128e-05
-0.00111303
8.65699e-05
-0.00153269
0.00011626
-0.00191504
0.000141595
-0.00224757
0.000160537
-0.00252469
0.00017234
-0.00274809
0.000177307
-0.00292513
0.000176408
-0.00306626
0.000170872
-0.00318258
0.000161886
-0.00328397
0.000150412
-0.00337818
0.000137135
-0.00347071
0.00012249
-0.0035652
0.000106734
-0.0036639
9.0014e-05
-0.00376811
7.24164e-05
-0.00387833
5.39808e-05
-0.00399442
-0.00411545
3.46633e-05
7.97704e-06
-0.000236401
2.73474e-05
-0.000692194
5.37492e-05
-0.00113943
8.26652e-05
-0.0015616
0.000110002
-0.00194238
0.000132644
-0.00227021
0.000148761
-0.00254081
0.000157795
-0.00275713
0.00016018
-0.00292751
0.000156945
-0.00306303
0.000149321
-0.00317496
0.000138452
-0.0032731
0.000125241
-0.00336497
0.00011031
-0.00345578
9.40464e-05
-0.00354893
7.667e-05
-0.00364652
5.83093e-05
-0.00374975
3.90609e-05
-0.00385908
1.89105e-05
-0.00397427
-0.00409352
-3.0217e-06
7.77944e-06
-0.00024418
2.64438e-05
-0.000710858
5.15441e-05
-0.00116453
7.85675e-05
-0.00158863
0.000103528
-0.00196734
0.000123492
-0.00229017
0.000136834
-0.00255415
0.00014317
-0.00276346
0.000143054
-0.00292739
0.000137562
-0.00305753
0.000127916
-0.00316531
0.000115215
-0.0032604
0.000100302
-0.00335006
8.37437e-05
-0.00343922
6.58774e-05
-0.00353107
4.68918e-05
-0.00362754
2.6898e-05
-0.00372975
5.9762e-06
-0.00383816
-1.57487e-05
-0.00395254
-0.00407075
-3.85177e-05
7.55859e-06
-0.000251739
2.54661e-05
-0.000728766
4.9207e-05
-0.00118827
7.4294e-05
-0.00161371
9.68638e-05
-0.00198991
0.00011417
-0.00230748
0.000124788
-0.00256477
0.000128499
-0.00276717
0.00012596
-0.00292486
0.000118284
-0.00304986
0.000106678
-0.00315371
9.21921e-05
-0.00324592
7.56115e-05
-0.00333348
5.74471e-05
-0.00342106
3.79936e-05
-0.00351161
1.74088e-05
-0.00360695
-4.21163e-06
-0.00370813
-2.67675e-05
-0.0038156
-5.02669e-05
-0.00392904
-0.00404652
-7.44992e-05
7.31538e-06
-0.000259054
2.44183e-05
-0.000745868
4.67476e-05
-0.0012106
6.98615e-05
-0.00163683
9.00334e-05
-0.00201008
0.000104708
-0.00232216
0.000112656
-0.00257271
0.000113813
-0.00276833
0.000108926
-0.00291997
9.91357e-05
-0.00304007
8.56259e-05
-0.0031402
6.93984e-05
-0.00322969
5.11803e-05
-0.00331526
3.14311e-05
-0.00340131
1.04046e-05
-0.00349059
-1.17674e-05
-0.00358478
-3.50015e-05
-0.0036849
-5.92182e-05
-0.00379139
-8.43678e-05
-0.0039039
-0.000110284
7.05075e-06
-0.000266105
2.33048e-05
-0.000762123
4.41759e-05
-0.00123147
6.52868e-05
-0.00165794
8.30597e-05
-0.00202785
9.51337e-05
-0.00233423
0.000100467
-0.00257805
9.91398e-05
-0.002767
9.19774e-05
-0.00291281
8.01377e-05
-0.00302823
6.47773e-05
-0.00312484
4.68474e-05
-0.00321176
2.70199e-05
-0.00329543
5.7045e-06
-0.00337999
-1.68785e-05
-0.003468
-4.06277e-05
-0.00356103
-6.54749e-05
-0.00366005
-9.1342e-05
-0.00376552
6.76572e-06
-0.000272871
2.21299e-05
-0.000777487
4.15015e-05
-0.00125084
6.0586e-05
-0.00167702
7.5965e-05
-0.00204323
8.54727e-05
-0.00234374
8.82489e-05
-0.00258082
8.4506e-05
-0.00276326
7.51371e-05
-0.00290344
6.13092e-05
-0.0030144
4.41471e-05
-0.00310768
2.45511e-05
-0.00319216
3.13839e-06
-0.00327402
-1.97201e-05
-0.00335714
-4.38473e-05
-0.00344388
-6.91631e-05
-0.00353571
-9.56157e-05
6.46137e-06
-0.000279332
2.0898e-05
-0.000791923
3.87341e-05
-0.00126868
5.57748e-05
-0.00169406
6.87702e-05
-0.00205623
7.57494e-05
-0.00235072
7.60265e-05
-0.0025811
6.99352e-05
-0.00275717
5.84257e-05
-0.00289193
4.26669e-05
-0.00299864
2.37485e-05
-0.00308876
2.51867e-06
-0.00317093
-2.04494e-05
-0.00325105
-4.48371e-05
-0.00333275
-7.04934e-05
-0.00341822
6.13879e-06
-0.000285471
1.96135e-05
-0.000805398
3.58833e-05
-0.00128495
5.08685e-05
-0.00170905
6.14954e-05
-0.00206686
6.59867e-05
-0.00235521
6.38231e-05
-0.00257894
5.54487e-05
-0.0027488
4.18617e-05
-0.00287834
2.42259e-05
-0.00298101
3.59315e-06
-0.00306812
-1.9235e-05
-0.00314811
-4.37406e-05
-0.00322654
-6.96383e-05
-0.00330685
5.79915e-06
-0.00029127
1.8281e-05
-0.00081788
3.29586e-05
-0.00129962
4.58817e-05
-0.00172197
5.41594e-05
-0.00207513
5.62057e-05
-0.00235725
5.16598e-05
-0.00257439
4.10661e-05
-0.0027382
2.54615e-05
-0.00286274
5.99954e-06
-0.00296154
-1.63068e-05
-0.00304582
-4.07071e-05
-0.00312371
-6.67265e-05
-0.00320052
5.4436e-06
-0.000296713
1.69049e-05
-0.000829341
2.99689e-05
-0.00131269
4.08284e-05
-0.00173283
4.67801e-05
-0.00208109
4.64262e-05
-0.0023569
3.95562e-05
-0.00256752
2.68049e-05
-0.00272545
9.23999e-06
-0.00284517
-1.20003e-05
-0.0029403
-3.59439e-05
-0.00302187
-6.18881e-05
-0.00309776
5.07334e-06
-0.000301787
1.54895e-05
-0.000839757
2.69233e-05
-0.00132412
3.5722e-05
-0.00174163
3.93741e-05
-0.00208474
3.66664e-05
-0.00235419
2.75301e-05
-0.00255838
1.26808e-05
-0.0027106
-6.78961e-06
-0.0028257
-2.97633e-05
-0.00291733
-5.53093e-05
-0.00299633
4.68959e-06
-0.000306476
1.40394e-05
-0.000849107
2.38304e-05
-0.00133391
3.05752e-05
-0.00174838
3.19573e-05
-0.00208612
2.69434e-05
-0.00234918
1.5598e-05
-0.00254704
-1.28755e-06
-0.00269372
-2.26153e-05
-0.00280437
-4.72802e-05
-0.00289266
4.29364e-06
-0.00031077
1.25588e-05
-0.000857372
2.06984e-05
-0.00134205
2.54002e-05
-0.00175308
2.45444e-05
-0.00208526
1.72727e-05
-0.00234191
3.77751e-06
-0.00253354
-1.50992e-05
-0.00267484
-3.82279e-05
-0.00278124
3.88683e-06
-0.000314657
1.10519e-05
-0.000864537
1.75355e-05
-0.00134854
2.02085e-05
-0.00175575
1.71496e-05
-0.0020822
7.66883e-06
-0.00233243
-7.92769e-06
-0.00251795
-2.87313e-05
-0.00265404
3.47071e-06
-0.000318128
9.52312e-06
-0.00087059
1.43492e-05
-0.00135336
1.50114e-05
-0.00175641
9.786e-06
-0.00207698
-1.84184e-06
-0.0023208
-1.94957e-05
-0.00250029
3.04721e-06
-0.000321175
7.97659e-06
-0.000875519
1.11471e-05
-0.00135653
9.81935e-06
-0.00175508
2.47642e-06
-0.00206964
-1.12911e-05
-0.00230703
2.61842e-06
-0.000323793
6.41652e-06
-0.000879317
7.93785e-06
-0.00135805
4.63909e-06
-0.00175179
-4.80391e-06
-0.00206019
2.18349e-06
-0.000325977
4.84578e-06
-0.00088198
4.72965e-06
-0.00135794
-4.61915e-07
-0.00174659
-0.00204864
1.74318e-06
-0.00032772
3.26808e-06
-0.000883505
1.52394e-06
-0.00135619
-5.64908e-06
-0.00173942
1.29785e-06
-0.000329018
1.68441e-06
-0.000883891
-1.6819e-06
-0.00135283
8.45391e-07
-0.000329863
9.71214e-08
-0.000883143
-0.00134785
3.68865e-07
-0.000330232
-1.49273e-06
-0.000881281
-1.37e-07
-0.000330095
-0.000329547
0.000329537
0.000330085
-1.36944e-07
0.000330222
0.000881256
3.68939e-07
0.000329853
-1.49245e-06
0.000883117
0.00134781
8.45453e-07
0.000329007
9.73954e-08
0.000883865
0.00135279
1.29791e-06
0.00032771
1.68468e-06
0.000883478
-1.68124e-06
0.00135616
0.00173938
1.74323e-06
0.000325966
3.26834e-06
0.000881953
1.52458e-06
0.0013579
-5.64791e-06
0.00174655
0.00204859
2.18354e-06
0.000323783
4.84604e-06
0.000879291
4.7303e-06
0.00135801
-4.60648e-07
0.00175174
-1.201e-05
0.00206014
0.00229116
2.61847e-06
0.000321164
6.41677e-06
0.000875492
7.93849e-06
0.00135649
4.64027e-06
0.00175504
-4.80203e-06
0.00206958
0.00230698
3.04725e-06
0.000318117
7.97683e-06
0.000870563
1.11477e-05
0.00135332
9.82052e-06
0.00175636
2.47828e-06
0.00207693
-1.12884e-05
0.00232074
0.00250024
3.47075e-06
0.000314646
9.52335e-06
0.00086451
1.43499e-05
0.0013485
1.50126e-05
0.0017557
9.78789e-06
0.00208215
-1.83914e-06
0.00233237
-1.94922e-05
0.00251789
0.00265398
3.88686e-06
0.000310759
1.10522e-05
0.000857345
1.75361e-05
0.00134201
2.02097e-05
0.00175303
1.71515e-05
0.00208521
7.67153e-06
0.00234185
-7.92414e-06
0.00253349
-2.87269e-05
0.00267478
0.00278119
4.29367e-06
0.000306466
1.2559e-05
0.00084908
2.0699e-05
0.00133387
2.54013e-05
0.00174833
2.45462e-05
0.00208606
1.72754e-05
0.00234912
3.78109e-06
0.00254698
-1.50948e-05
0.00269366
-3.82227e-05
0.00280432
0.00289261
4.68962e-06
0.000301776
1.40396e-05
0.00083973
2.38309e-05
0.00132408
3.05763e-05
0.00174158
3.19592e-05
0.00208468
2.69461e-05
0.00235413
1.56016e-05
0.00255832
-1.28303e-06
0.00271054
-2.261e-05
0.00282564
-4.72741e-05
0.00291727
0.00299627
5.07336e-06
0.000296703
1.54897e-05
0.000829313
2.69238e-05
0.00131265
3.57231e-05
0.00173278
3.9376e-05
0.00208103
3.66692e-05
0.00235684
2.75338e-05
0.00256746
1.26853e-05
0.00272539
-6.78418e-06
0.00284511
-2.97571e-05
0.00294025
-5.53024e-05
0.00302182
0.0030977
5.44361e-06
0.000291259
1.6905e-05
0.000817852
2.99694e-05
0.00129958
4.08294e-05
0.00172192
4.67819e-05
0.00207508
4.64289e-05
0.00235719
3.95599e-05
0.00257433
2.68095e-05
0.00273814
9.24551e-06
0.00286268
-1.19939e-05
0.00296148
-3.59367e-05
0.00304576
-6.18802e-05
0.00312365
0.00320047
5.79915e-06
0.00028546
1.82811e-05
0.00080537
3.2959e-05
0.0012849
4.58827e-05
0.001709
5.41612e-05
0.0020668
5.62084e-05
0.00235515
5.16635e-05
0.00257887
4.10708e-05
0.00274873
2.54672e-05
0.00287828
6.00602e-06
0.00298095
-1.62995e-05
0.00306807
-4.0699e-05
0.00314805
-6.67178e-05
0.00322649
0.00330679
6.13878e-06
0.000279321
1.96136e-05
0.000791895
3.58837e-05
0.00126863
5.08694e-05
0.00169401
6.14971e-05
0.00205617
6.59893e-05
0.00235065
6.38268e-05
0.00258104
5.54534e-05
0.00275711
4.18674e-05
0.00289187
2.42325e-05
0.00299858
3.60059e-06
0.0030887
-1.92268e-05
0.00317088
-4.37316e-05
0.00325099
-6.96286e-05
0.00333269
0.00341816
6.46135e-06
0.00027286
2.0898e-05
0.000777458
3.87344e-05
0.0012508
5.57757e-05
0.00167697
6.87719e-05
0.00204317
7.5752e-05
0.00234367
7.60302e-05
0.00258076
6.99399e-05
0.0027632
5.84315e-05
0.00290337
4.26736e-05
0.00301434
2.37561e-05
0.00310761
2.52706e-06
0.0031921
-2.04402e-05
0.00327396
-4.48272e-05
0.00335708
-7.04828e-05
0.00344382
0.00353566
6.76569e-06
0.000266094
2.21299e-05
0.000762094
4.15017e-05
0.00123143
6.05868e-05
0.00165789
7.59666e-05
0.00202779
8.54752e-05
0.00233417
8.82526e-05
0.00257798
8.45108e-05
0.00276694
7.51429e-05
0.00291274
6.1316e-05
0.00302817
4.41548e-05
0.00312478
2.45597e-05
0.0032117
3.14775e-06
0.00329537
-1.971e-05
0.00337994
-4.38364e-05
0.00346795
-6.91515e-05
0.00356097
-9.56033e-05
0.00366
0.00376546
7.05071e-06
0.000259044
2.33048e-05
0.00074584
4.41761e-05
0.00121055
6.52875e-05
0.00163677
8.30612e-05
0.00201002
9.51362e-05
0.00232209
0.000100471
0.00257265
9.91446e-05
0.00276826
9.19832e-05
0.0029199
8.01446e-05
0.00304
6.47851e-05
0.00314014
4.68561e-05
0.00322963
2.70294e-05
0.0033152
5.71486e-06
0.00340125
-1.68674e-05
0.00349053
-4.06157e-05
0.00358472
-6.54622e-05
0.00368484
-9.13285e-05
0.00379133
0.00390384
7.31533e-06
0.000251728
2.44183e-05
0.000728737
4.67478e-05
0.00118822
6.98622e-05
0.00161366
9.00348e-05
0.00198985
0.000104711
0.00230741
0.000112659
0.0025647
0.000113818
0.00276711
0.000108932
0.00292479
9.91427e-05
0.00304979
8.56338e-05
0.00315364
6.94072e-05
0.00324586
5.119e-05
0.00333341
3.14417e-05
0.003421
1.0416e-05
0.00351155
-1.17552e-05
0.00360689
-3.49885e-05
0.00370808
-5.92043e-05
0.00381554
-8.43531e-05
0.00392899
0.00404646
-0.000110268
7.55853e-06
0.00024417
2.5466e-05
0.00071083
4.9207e-05
0.00116448
7.42945e-05
0.00158857
9.68651e-05
0.00196728
0.000114172
0.00229011
0.000124791
0.00255408
0.000128504
0.00276339
0.000125966
0.00292733
0.000118291
0.00305747
0.000106686
0.00316525
9.22011e-05
0.00326034
7.56214e-05
0.00334999
5.74579e-05
0.00343916
3.80053e-05
0.00353101
1.74213e-05
0.00362748
-4.19829e-06
0.0037297
-2.67533e-05
0.0038381
-5.02518e-05
0.00395249
0.00407069
-7.44831e-05
7.77937e-06
0.00023639
2.64436e-05
0.000692165
5.15441e-05
0.00113938
7.85679e-05
0.00156155
0.000103529
0.00194232
0.000123494
0.00227014
0.000136837
0.00254074
0.000143175
0.00275706
0.00014306
0.00292744
0.000137569
0.00306296
0.000127924
0.00317489
0.000115224
0.00327304
0.000100313
0.00336491
8.37547e-05
0.00345572
6.58893e-05
0.00354887
4.69045e-05
0.00364646
2.69116e-05
0.00374969
5.99082e-06
0.00385902
-1.57331e-05
0.00397421
0.00409346
-3.85012e-05
7.97695e-06
0.000228413
2.73472e-05
0.000672795
5.37491e-05
0.00111298
8.26655e-05
0.00153263
0.000110003
0.00191498
0.000132646
0.0022475
0.000148765
0.00252462
0.0001578
0.00274802
0.000160186
0.00292506
0.000156953
0.00306619
0.000149329
0.00318252
0.000138461
0.00328391
0.000125251
0.00337812
0.000110322
0.00347065
9.40586e-05
0.00356514
7.6683e-05
0.00366384
5.83233e-05
0.00376805
3.90757e-05
0.00387827
1.89261e-05
0.00399436
0.00411539
-3.00632e-06
8.15049e-06
0.000220263
2.81728e-05
0.000652773
5.58127e-05
0.00108534
8.65701e-05
0.00150187
0.000116261
0.00188529
0.000141597
0.00222216
0.00016054
0.00250567
0.000172344
0.00273622
0.000177313
0.00292009
0.000176415
0.00306709
0.00017088
0.00318805
0.000161895
0.00329289
0.000150423
0.00338959
0.000137147
0.00348393
0.000122502
0.00357978
0.000106747
0.00367959
9.00283e-05
0.00378477
7.24316e-05
0.00389586
5.3997e-05
0.0040128
0.00413471
3.46811e-05
8.2993e-06
0.000211964
2.89167e-05
0.000632155
5.77253e-05
0.00105653
9.02645e-05
0.00146933
0.000122279
0.00185327
0.000150315
0.00219413
0.000172127
0.00248386
0.000186771
0.00272157
0.000194407
0.00291245
0.000195926
0.00306557
0.000192552
0.00319143
0.000185507
0.00329994
0.000175813
0.00339928
0.000164217
0.00349552
0.000151209
0.00359279
0.000137086
0.00369371
0.000122021
0.00379983
0.000106113
0.00391177
8.94371e-05
0.00402947
0.00415215
7.19905e-05
8.42279e-06
0.000203541
2.95756e-05
0.000611003
5.94781e-05
0.00102663
9.37317e-05
0.00143508
0.00012803
0.00181897
0.000158766
0.00216339
0.000183486
0.00245914
0.00020104
0.00270402
0.000211429
0.00290206
0.000215454
0.00306155
0.000214318
0.00319256
0.000209274
0.00330498
0.000201403
0.00340715
0.000191518
0.00350541
0.000180165
0.00360414
0.000167686
0.00370619
0.000154285
0.00381323
0.000140076
0.00392598
0.000125127
0.00404442
0.00416782
0.000109465
8.52048e-06
0.00019502
3.01465e-05
0.000589377
6.10625e-05
0.000995714
9.69548e-05
0.00139919
0.000133487
0.00178244
0.000166914
0.00212996
0.000194577
0.00243148
0.000215109
0.00268349
0.000228338
0.00288883
0.000234961
0.00305492
0.000236147
0.00319138
0.000233173
0.00330796
0.000227175
0.00341315
0.000219033
0.00351355
0.000209357
0.00361382
0.000198534
0.00371702
0.0001868
0.00382497
0.000174286
0.0039385
0.000161056
0.00405765
0.00418173
0.00014714
8.59207e-06
0.000186428
3.06267e-05
0.000567342
6.24705e-05
0.00096387
9.99175e-05
0.00136174
0.000138625
0.00174374
0.000174724
0.00209387
0.000205355
0.00240085
0.000228931
0.00265991
0.000245089
0.00287267
0.000254407
0.0030456
0.000258006
0.00318778
0.000257175
0.00330879
0.000253106
0.00341722
0.000246746
0.00351991
0.000238768
0.00362179
0.000229613
0.00372617
0.00021955
0.00383503
0.000208729
0.00394932
0.000197215
0.00406916
0.00419392
0.000185029
8.63734e-06
0.000177791
3.1014e-05
0.000544965
6.36949e-05
0.000931189
0.000102604
0.00132283
0.000143416
0.00170292
0.000182158
0.00205512
0.000215776
0.00236723
0.000242456
0.00263323
0.000261634
0.0028535
0.000273747
0.00303349
0.000279854
0.00318167
0.000281249
0.00330739
0.000279171
0.0034193
0.000274635
0.00352445
0.000268383
0.00362805
0.000260909
0.00373364
0.000252522
0.00384342
0.000243393
0.00395845
0.000233595
0.00407896
0.00420438
0.000223134
8.65627e-06
0.000169135
3.13069e-05
0.000522315
6.47292e-05
0.000897767
0.000104999
0.00128256
0.000147834
0.00166009
0.000189178
0.00201378
0.000225792
0.00233062
0.000255632
0.00260339
0.000277918
0.00283121
0.000292932
0.00301848
0.000301651
0.00317295
0.000305361
0.00330368
0.000305343
0.00341932
0.00030268
0.00352711
0.000298184
0.00363254
0.000292408
0.00373942
0.000285703
0.00385012
0.000278267
0.00396588
0.000270183
0.00408705
0.00421311
0.000261451
8.64897e-06
0.000160486
3.1504e-05
0.00049946
6.55678e-05
0.000863703
0.00010709
0.00124104
0.000151855
0.00161532
0.000195747
0.00196989
0.000235354
0.00229101
0.000268402
0.00257034
0.000293884
0.00280573
0.000311906
0.00300046
0.000323347
0.00316151
0.00032947
0.00329756
0.000331591
0.0034172
0.000330856
0.00352784
0.00032815
0.00363525
0.000324093
0.00374348
0.00031908
0.00385514
0.000313339
0.00397162
0.000306969
0.00409341
0.00422011
0.000299969
8.61572e-06
0.00015187
3.16047e-05
0.000476471
6.62062e-05
0.000829102
0.000108862
0.00119839
0.000155453
0.00156873
0.000201825
0.00192351
0.000244411
0.00224842