/*--------------------------------*- C++ -*----------------------------------*\
  =========                 |
  \\      /  F ield         | OpenFOAM: The Open Source CFD Toolbox
   \\    /   O peration     | Website:  https://openfoam.org
    \\  /    A nd           | Version:  7
     \\/     M anipulation  |
\*---------------------------------------------------------------------------*/
FoamFile
{
    version     2.0;
    format      ascii;
    class       volVectorField;
    location    "40";
    object      U;
}
// * * * * * * * * * * * * * * * * * * * * * * * * * * * * * * * * * * * * * //

dimensions      [0 1 -1 0 0 0 0];

internalField   nonuniform List<vector> 
4575
(
(0.0163969 -0.00265989 1.33259e-20)
(0.067595 -0.00590917 1.33547e-20)
(0.137487 -0.00213845 4.85167e-20)
(0.0192565 -0.00283993 1.57312e-20)
(0.076265 -0.00580725 5.46748e-20)
(0.152042 -0.000966381 4.21382e-20)
(0.244329 0.0100592 1.14705e-20)
(0.350413 0.0272782 1.05856e-19)
(0.0222957 -0.00293875 -7.07316e-20)
(0.0853737 -0.00544819 -2.41918e-20)
(0.167188 0.000639193 -7.86007e-20)
(0.265248 0.0134285 -4.24653e-20)
(0.376486 0.0327399 -2.12421e-20)
(0.496755 0.0578148 -6.60261e-20)
(0.620962 0.0872989 -4.05064e-20)
(0.743452 0.119395 7.15105e-20)
(0.0255122 -0.00294644 2.34967e-20)
(0.0949058 -0.00480823 -3.72174e-20)
(0.182886 0.00270811 6.17313e-20)
(0.28672 0.0174172 2.81035e-20)
(0.402967 0.0389281 -3.96519e-20)
(0.527051 0.0662305 4.79058e-20)
(0.653491 0.0977018 1.16511e-20)
(0.776381 0.131306 -2.07005e-20)
(0.890094 0.164803 2.47589e-20)
(0.990031 0.196056 -1.88929e-20)
(1.07322 0.223342 -5.25686e-20)
(1.13856 0.245559 -5.2161e-21)
(0.0289025 -0.00285304 -1.16266e-20)
(0.104842 -0.00386414 6.11247e-21)
(0.199095 0.00526845 -5.65847e-20)
(0.308675 0.0220501 3.54714e-20)
(0.42975 0.0458565 3.23774e-20)
(0.557327 0.0754076 -4.52344e-20)
(0.68556 0.108805 2.05703e-20)
(0.808359 0.143784 -3.93484e-20)
(0.920154 0.177966 -5.5062e-20)
(1.01666 0.209196 1.96496e-20)
(1.09541 0.235847 3.58078e-21)
(1.15589 0.256989 2.9607e-20)
(1.19927 0.272404 4.58241e-20)
(1.22795 0.282462 -2.1672e-21)
(1.2449 0.287925 7.64199e-21)
(0.0324616 -0.00264867 -1.31629e-20)
(0.115161 -0.00259351 -1.57358e-20)
(0.215767 0.00834619 5.98846e-20)
(0.331032 0.0273483 -7.22497e-21)
(0.456727 0.0535336 2.49321e-22)
(0.587446 0.0853366 -3.08851e-20)
(0.717027 0.120581 -5.28629e-21)
(0.839255 0.156785 2.11122e-20)
(0.948703 0.191464 7.13125e-20)
(1.04148 0.22248 -2.24921e-20)
(1.11565 0.248333 3.8736e-21)
(1.17129 0.268288 1.18936e-20)
(1.21008 0.282334 -2.28858e-20)
(1.23476 0.291023 -1.458e-20)
(1.2485 0.29524 3.83329e-21)
(1.25438 0.295992 1.90286e-20)
(1.25507 0.294233 -4.68235e-21)
(1.25264 0.290776 -2.85685e-22)
(1.24851 0.286242 1.65945e-20)
(0.036183 -0.00232359 2.2951e-20)
(0.125834 -0.000975031 4.41048e-20)
(0.23285 0.0119648 2.97912e-20)
(0.353708 0.0333289 -1.59093e-20)
(0.483785 0.0619629 5.78599e-20)
(0.617278 0.0960028 3.36003e-20)
(0.747753 0.132996 -4.94976e-20)
(0.868952 0.170265 -1.70122e-20)
(0.975664 0.205249 3.75533e-22)
(1.06445 0.235866 -1.37188e-20)
(1.13396 0.260772 -3.91481e-20)
(1.18483 0.279443 6.39977e-21)
(1.21923 0.292078 7.69776e-23)
(1.24018 0.299397 -3.93105e-20)
(1.25099 0.3024 1.77707e-20)
(1.25473 0.302141 -9.4363e-21)
(1.25394 0.299579 -4.12162e-20)
(1.25056 0.295503 1.97299e-20)
(1.24585 0.290476 -4.14413e-20)
(1.2406 0.284728 1.79319e-20)
(0.0400588 -0.00186836 -8.0344e-21)
(0.136834 0.00101126 -1.89024e-20)
(0.250285 0.0161451 -3.09526e-20)
(0.376617 0.040005 -1.46086e-21)
(0.510808 0.0711425 -2.60688e-21)
(0.64669 0.107386 -3.18866e-20)
(0.777612 0.146014 7.10716e-21)
(0.897345 0.184177 6.62146e-21)
(1.00098 0.219275 -1.35743e-20)
(1.08557 0.249316 1.11175e-21)
(1.15039 0.27314 2.0644e-20)
(1.19661 0.290445 -2.70582e-21)
(1.22683 0.301639 1.5332e-20)
(1.24433 0.3076 6.71602e-21)
(1.25249 0.30942 -3.66765e-20)
(1.25432 0.308193 2.76724e-21)
(1.25227 0.304868 2.18574e-20)
(1.24808 0.300205 -5.17033e-21)
(1.2429 0.294706 9.70548e-22)
(1.23738 0.288646 -3.47642e-21)
(0.0440796 -0.00127393 -7.40178e-21)
(0.148125 0.00338367 -6.77402e-21)
(0.268011 0.0209045 -1.17583e-20)
(0.399667 0.0473848 -7.59148e-21)
(0.537683 0.0810654 -1.93189e-20)
(0.675556 0.119462 2.20813e-20)
(0.806486 0.159596 4.30523e-20)
(0.924348 0.198475 1.48042e-20)
(1.0246 0.233496 7.46717e-21)
(1.10486 0.262794 -1.75291e-20)
(1.16499 0.285416 -1.55833e-22)
(1.20671 0.301288 1.10227e-20)
(1.23299 0.311023 -1.39739e-20)
(1.24731 0.315642 5.27143e-21)
(1.25308 0.316317 1.74382e-20)
(1.25324 0.314163 -5.96879e-21)
(1.2501 0.310111 -1.04429e-20)
(1.24525 0.304887 -9.57211e-21)
(1.23968 0.298933 3.37678e-20)
(1.23394 0.292571 1.17952e-20)
(0.0482347 -0.000531734 -1.3316e-20)
(0.159671 0.00615865 1.50548e-20)
(0.285963 0.0262573 -3.37528e-21)
(0.422765 0.0554722 1.03168e-20)
(0.564294 0.0917194 -9.05933e-21)
(0.703757 0.132202 -5.45841e-21)
(0.834268 0.1737 -2.10072e-20)
(0.949886 0.213112 2.47773e-21)
(1.04651 0.247871 5.80443e-21)
(1.12233 0.276269 1.27267e-20)
(1.17783 0.297582 -4.86607e-21)
(1.21522 0.311969 -3.80129e-21)
(1.23781 0.320237 3.41742e-21)
(1.24921 0.323538 -5.94748e-21)
(1.25285 0.323105 1.33524e-20)
(1.25156 0.320062 8.74297e-21)
(1.24749 0.315316 -1.48063e-21)
(1.24209 0.309553 -9.59362e-22)
(1.23621 0.303158 -9.10479e-21)
(1.23029 0.296501 -1.13337e-20)
(0.0525119 0.000366155 2.87639e-21)
(0.171434 0.00935052 -4.71968e-21)
(0.304072 0.0322141 3.14334e-21)
(0.445815 0.0642662 -4.24036e-21)
(0.590529 0.103087 -1.59721e-20)
(0.731177 0.145572 7.25933e-21)
(0.86086 0.188282 3.43734e-21)
(0.973898 0.228041 -1.62276e-20)
(1.06668 0.262358 -1.00533e-20)
(1.13802 0.289713 -9.47366e-22)
(1.18898 0.309624 -1.35965e-20)
(1.22224 0.322486 1.38302e-20)
(1.24138 0.329289 -3.1218e-23)
(1.25013 0.331298 -1.79306e-21)
(1.25187 0.329794 -3.37775e-21)
(1.24932 0.325899 1.63494e-21)
(1.24447 0.320489 1.12779e-21)
(1.23862 0.314207 -4.40174e-22)
(1.2325 0.307382 -3.33277e-21)
(1.22645 0.300432 4.04227e-21)
(0.0568978 0.00142697 9.68669e-22)
(0.18337 0.0129713 3.11951e-21)
(0.322267 0.0387815 1.701e-21)
(0.468723 0.073761 -7.76934e-22)
(0.616278 0.115147 1.05617e-20)
(0.757711 0.159535 -2.30962e-21)
(0.886179 0.203296 3.60425e-21)
(0.996338 0.243216 7.86798e-21)
(1.08512 0.276918 -1.39754e-21)
(1.15197 0.303098 3.42708e-22)
(1.1985 0.321529 3.74258e-21)
(1.22784 0.332838 -1.96245e-21)
(1.24379 0.338184 2.51242e-21)
(1.25015 0.338932 4.45747e-22)
(1.25021 0.336395 -4.60853e-21)
(1.24657 0.331682 2.21654e-22)
(1.24107 0.325633 5.81692e-21)
(1.23485 0.318846 -1.19906e-21)
(1.22855 0.311601 1.75544e-21)
(1.2224 0.304362 -1.96103e-21)
(0.0613779 0.00265711 4.02981e-22)
(0.195435 0.0170304 4.63183e-21)
(0.340476 0.0459625 2.44023e-21)
(0.491393 0.0839461 -4.88848e-22)
(0.641437 0.127873 9.83259e-21)
(0.783259 0.174052 -2.72868e-21)
(0.910152 0.218695 5.01759e-21)
(1.01717 0.258593 6.61667e-21)
(1.10183 0.291516 -1.34134e-21)
(1.16421 0.316403 2.96594e-22)
(1.20648 0.333289 4.26982e-21)
(1.23212 0.343025 -1.69677e-21)
(1.24514 0.34693 1.64339e-21)
(1.24933 0.346449 -3.96426e-22)
(1.24792 0.342915 -3.76212e-21)
(1.24336 0.337415 -1.08443e-22)
(1.23732 0.33075 5.76724e-21)
(1.23082 0.323471 -1.11722e-21)
(1.22438 0.315812 2.06753e-21)
(1.21816 0.308284 -2.19828e-21)
(0.0659366 0.00406211 3.49931e-21)
(0.207583 0.0215348 -5.96629e-21)
(0.358623 0.0537558 2.98122e-21)
(0.513729 0.0948063 -2.34735e-21)
(0.665902 0.141234 -1.55985e-20)
(0.807731 0.189079 6.21537e-21)
(0.932715 0.234432 2.8376e-21)
(1.03637 0.274126 -1.87365e-20)
(1.11684 0.306118 -7.73986e-21)
(1.17482 0.329606 -6.40833e-24)
(1.21298 0.344893 -1.15336e-20)
(1.23516 0.353048 9.46176e-21)
(1.24549 0.355531 -2.08326e-21)
(1.24775 0.353855 1.29631e-21)
(1.24506 0.349359 -4.94884e-21)
(1.23971 0.3431 3.69078e-21)
(1.23323 0.335838 2.31861e-21)
(1.22651 0.328076 -4.03209e-22)
(1.21999 0.32001 -4.44135e-21)
(1.21372 0.312192 4.03111e-21)
(0.0705568 0.00564648 -7.59575e-21)
(0.219766 0.0264884 -3.23048e-21)
(0.376635 0.062156 -4.57263e-21)
(0.535641 0.106322 1.54382e-20)
(0.68958 0.155194 3.02141e-23)
(0.831046 0.204572 -7.85966e-21)
(0.953819 0.250458 -3.14147e-20)
(1.05393 0.289774 2.96127e-21)
(1.13017 0.32069 3.39681e-21)
(1.18383 0.342688 1.49429e-20)
(1.21809 0.356334 2.15934e-21)
(1.23704 0.362907 -1.21003e-20)
(1.24491 0.363993 1.11939e-20)
(1.24545 0.361155 -4.43002e-21)
(1.24165 0.355729 1.64095e-20)
(1.23565 0.348738 -1.4734e-21)
(1.22882 0.340894 8.21087e-22)
(1.22195 0.332659 6.95786e-22)
(1.21538 0.324188 -1.17843e-20)
(1.20909 0.316079 -7.03978e-21)
(0.0752208 0.00741364 -2.91881e-21)
(0.231933 0.0318921 -1.55686e-20)
(0.394436 0.0711535 1.19899e-20)
(0.557036 0.118469 -1.48817e-20)
(0.712379 0.169717 -2.63132e-20)
(0.853132 0.220484 2.24366e-20)
(0.973421 0.266727 3.61706e-20)
(1.06985 0.305493 1.26705e-20)
(1.14185 0.335204 8.63224e-21)
(1.19132 0.35563 -2.42427e-20)
(1.22186 0.367604 1.81894e-20)
(1.23782 0.372601 2.07373e-21)
(1.24347 0.372317 -2.2088e-20)
(1.2425 0.368352 8.45841e-21)
(1.23774 0.362028 2.94581e-20)
(1.2312 0.354326 -1.98338e-20)
(1.2241 0.345915 -5.55971e-21)
(1.21713 0.337212 -5.26914e-21)
(1.21054 0.328339 2.39709e-20)
(1.20426 0.319938 1.35866e-20)
(0.0799101 0.00936589 1.99032e-20)
(0.244034 0.0377442 -3.18216e-20)
(0.411951 0.0807349 -4.51358e-20)
(0.577829 0.131218 1.97878e-21)
(0.734217 0.18476 -7.93166e-21)
(0.873924 0.236765 -3.08814e-20)
(0.991491 0.283189 -4.99854e-21)
(1.08413 0.321245 1.52521e-20)
(1.15191 0.349631 -2.39961e-20)
(1.19733 0.368417 1.92118e-20)
(1.22437 0.378698 2.18535e-20)
(1.23757 0.382131 -1.34512e-20)
(1.24122 0.380506 5.3884e-21)
(1.23892 0.375447 2.66856e-20)
(1.23336 0.368252 -3.49014e-20)
(1.22638 0.35986 5.97629e-21)
(1.21909 0.350895 1.59324e-20)
(1.21206 0.341729 -4.72919e-21)
(1.20549 0.332457 -4.99507e-21)
(1.19923 0.323762 -8.43339e-22)
(0.0846057 0.0115043 2.95923e-20)
(0.256019 0.0440394 5.12045e-20)
(0.429107 0.0908823 2.64359e-20)
(0.597937 0.144537 -3.09202e-20)
(0.755018 0.200279 7.87979e-20)
(0.89337 0.253366 1.18789e-20)
(1.00801 0.299796 -3.20973e-20)
(1.09677 0.336991 -2.26481e-20)
(1.16041 0.363942 -1.78177e-20)
(1.20193 0.381032 5.80619e-21)
(1.22569 0.389608 -1.91591e-20)
(1.23635 0.391494 5.99142e-22)
(1.23822 0.388559 -1.24319e-20)
(1.23476 0.382439 -1.66036e-20)
(1.22853 0.374401 -2.77355e-21)
(1.2212 0.365337 -1.66804e-21)
(1.21378 0.355827 -2.94511e-20)
(1.20674 0.346202 2.18181e-20)
(1.20023 0.336532 -3.25199e-20)
(1.19401 0.32754 -1.87488e-20)
(0.0892881 0.0138288 -3.59815e-20)
(0.267837 0.0507698 -1.37943e-20)
(0.445833 0.101574 6.00212e-20)
(0.617281 0.158391 1.48121e-20)
(0.774711 0.216227 -4.97262e-20)
(0.911423 0.270236 -2.82715e-20)
(1.02296 0.316503 -9.26599e-21)
(1.10781 0.352691 5.83565e-20)
(1.16738 0.378113 4.07925e-20)
(1.20518 0.39346 -1.36844e-20)
(1.22587 0.400327 -7.76834e-21)
(1.23423 0.400687 1.91795e-20)
(1.23451 0.396475 -2.03548e-20)
(1.23006 0.389325 9.2285e-21)
(1.22327 0.380468 3.90142e-21)
(1.21568 0.370748 -4.82511e-21)
(1.20818 0.360702 3.57734e-20)
(1.20118 0.350621 -1.47866e-20)
(1.19474 0.340554 2.92687e-20)
(1.18859 0.331265 -1.01089e-20)
(0.0939373 0.016338 -2.0381e-20)
(0.279436 0.0579243 -3.49976e-20)
(0.462059 0.112786 -5.4004e-20)
(0.635788 0.172739 3.19246e-20)
(0.793236 0.232554 1.72181e-20)
(0.928047 0.287323 -2.40258e-20)
(1.03633 0.333262 3.88631e-20)
(1.11727 0.36831 -5.86564e-20)
(1.17288 0.392117 -6.10007e-20)
(1.20714 0.405687 3.59977e-20)
(1.22498 0.410847 1.31151e-20)
(1.23125 0.409707 -1.42284e-20)
(1.23013 0.404251 2.11845e-20)
(1.22483 0.396101 1.62421e-20)
(1.21759 0.386448 -1.1582e-20)
(1.20982 0.376087 -3.84106e-21)
(1.20231 0.365512 -2.72264e-20)
(1.19536 0.354978 5.4268e-21)
(1.18903 0.344515 -2.22154e-20)
(1.18297 0.334928 -3.49663e-21)
(0.0985334 0.0190292 1.69178e-20)
(0.290768 0.0654886 -2.76414e-20)
(0.477718 0.124487 4.91237e-20)
(0.653389 0.18754 8.12463e-20)
(0.810537 0.24921 -1.13958e-19)
(0.943212 0.304575 9.806e-20)
(1.04814 0.350026 2.57946e-20)
(1.12517 0.383813 -3.66178e-20)
(1.17694 0.405932 4.22325e-20)
(1.20786 0.417699 2.43634e-20)
(1.22307 0.421161 2.94526e-20)
(1.22745 0.418548 -4.9816e-20)
(1.22511 0.411881 -9.99127e-21)
(1.21911 0.402761 2.34747e-20)
(1.21152 0.392334 8.75797e-21)
(1.20364 0.381345 3.92283e-20)
(1.19615 0.370247 4.81319e-20)
(1.18931 0.359261 -1.16126e-20)
(1.18311 0.348403 1.9804e-20)
(1.17716 0.338518 2.18609e-20)
(0.103056 0.0218984 -5.0461e-21)
(0.301785 0.073446 -6.44707e-20)
(0.492748 0.136647 -8.60123e-20)
(0.670021 0.202747 -1.09545e-19)
(0.826568 0.266142 -1.06085e-20)
(0.956897 0.32194 3.85923e-20)
(1.05838 0.366752 -7.09573e-21)
(1.13155 0.399164 1.22701e-20)
(1.17962 0.419534 -1.86891e-20)
(1.2074 0.42948 3.05926e-20)
(1.22019 0.431259 -4.54023e-20)
(1.22289 0.427205 5.77485e-20)
(1.2195 0.41936 3.22904e-20)
(1.21291 0.409298 1.42773e-20)
(1.20507 0.398117 -2.08686e-20)
(1.19714 0.386511 -2.18171e-20)
(1.18971 0.374897 -2.018e-20)
(1.183 0.363462 1.46343e-21)
(1.17696 0.352207 2.54139e-20)
(1.17114 0.342025 -2.64404e-20)
(0.107486 0.0249406 -8.86152e-21)
(0.312437 0.0817765 5.00373e-20)
(0.507089 0.14923 6.15914e-20)
(0.685629 0.218313 -9.47968e-21)
(0.841288 0.283296 2.73362e-20)
(0.969088 0.339366 7.30977e-21)
(1.06707 0.383395 -3.82764e-20)
(1.13645 0.414331 2.96708e-20)
(1.18097 0.432899 2.71826e-20)
(1.20581 0.441017 -4.59525e-20)
(1.2164 0.441133 7.22703e-20)
(1.21761 0.435669 -5.84677e-20)
(1.21331 0.42668 3.29191e-20)
(1.20626 0.415704 -4.66132e-20)
(1.19824 0.403787 6.68252e-20)
(1.19031 0.391576 -4.10817e-20)
(1.183 0.37945 -1.16494e-20)
(1.17645 0.367568 -1.53083e-20)
(1.1706 0.355917 -3.1594e-20)
(1.16494 0.34544 5.83683e-22)
(0.111803 0.0281492 6.34013e-20)
(0.322681 0.0904577 6.2907e-20)
(0.520684 0.162197 -8.87463e-20)
(0.70016 0.234187 -5.2923e-20)
(0.854664 0.300618 7.64369e-20)
(0.979777 0.3568 -2.97341e-20)
(1.07423 0.399911 4.26944e-20)
(1.13989 0.429281 1.79446e-20)
(1.18104 0.446007 -4.0632e-20)
(1.20314 0.452295 -9.81062e-20)
(1.21173 0.450771 -1.70428e-20)
(1.21163 0.443933 -3.48085e-20)
(1.20657 0.433832 -5.02683e-20)
(1.19917 0.421968 3.97508e-21)
(1.19105 0.409333 -5.07303e-21)
(1.18318 0.396527 -4.52651e-21)
(1.17601 0.383895 3.64135e-20)
(1.16966 0.371568 2.55281e-20)
(1.16402 0.359519 2.94264e-21)
(1.15855 0.34875 1.42432e-20)
(0.115988 0.0315167 -1.53162e-20)
(0.332473 0.0994647 1.12032e-19)
(0.533482 0.175507 4.23027e-20)
(0.71357 0.250318 8.42958e-20)
(0.866671 0.318051 2.69306e-20)
(0.988965 0.374193 1.01048e-20)
(1.07987 0.416258 -6.21218e-20)
(1.14193 0.443981 -1.94976e-20)
(1.17988 0.458833 9.43513e-21)
(1.19944 0.463299 7.28659e-20)
(1.20623 0.460163 -2.32685e-20)
(1.20499 0.451986 2.80849e-20)
(1.19932 0.440807 5.74739e-20)
(1.19165 0.428081 1.27566e-20)
(1.1835 0.414744 -1.09016e-20)
(1.17574 0.401353 1.41402e-20)
(1.16875 0.38822 2.59313e-20)
(1.16261 0.37545 1.13177e-20)
(1.15722 0.362998 2.86198e-20)
(1.15196 0.351942 2.11302e-20)
(0.120022 0.0350341 -4.01689e-20)
(0.341772 0.10877 -5.73243e-20)
(0.545436 0.189118 3.56935e-20)
(0.725819 0.266653 1.18027e-20)
(0.877289 0.335541 2.28833e-20)
(0.996654 0.391492 -9.10023e-20)
(1.08404 0.432394 3.22613e-20)
(1.14261 0.458402 -6.79332e-20)
(1.17753 0.471358 -3.67941e-20)
(1.19476 0.474012 4.16359e-20)
(1.19994 0.469298 -4.3836e-21)
(1.19773 0.459818 2.52295e-21)
(1.19156 0.447594 -6.97881e-20)
(1.18372 0.434029 -2.73242e-20)
(1.17561 0.420008 2.16133e-20)
(1.16799 0.406042 -3.69784e-20)
(1.16121 0.392415 -1.93228e-20)
(1.15532 0.379201 -1.9088e-20)
(1.1502 0.36634 -3.19129e-20)
(1.14517 0.355007 -7.14389e-20)
(0.123888 0.0386916 2.33272e-20)
(0.35054 0.118344 -2.71311e-20)
(0.556503 0.202984 -1.4487e-19)
(0.736876 0.283137 7.65396e-20)
(0.886504 0.353031 -9.29489e-20)
(1.00286 0.408647 -1.29615e-20)
(1.08676 0.448278 -1.21858e-19)
(1.14196 0.472512 1.26359e-19)
(1.17404 0.483559 7.02258e-20)
(1.18914 0.484421 -4.10993e-21)
(1.1929 0.478161 2.36476e-20)
(1.18986 0.467416 -2.90616e-20)
(1.18331 0.45418 -2.25033e-21)
(1.17539 0.439802 1.28599e-20)
(1.16737 0.425113 -1.28233e-20)
(1.15995 0.410582 2.30636e-20)
(1.15341 0.396467 -2.95416e-20)
(1.14778 0.382813 -2.57994e-20)
(1.14294 0.369538 1.43956e-20)
(1.1381 0.357942 1.90572e-20)
(0.127568 0.0424782 5.3552e-20)
(0.358741 0.128156 5.0237e-20)
(0.566644 0.217058 3.79232e-20)
(0.746712 0.299714 -8.57696e-22)
(0.89431 0.370466 -2.42452e-20)
(1.00759 0.425609 1.59868e-19)
(1.08805 0.463871 8.85029e-20)
(1.14003 0.486282 5.85503e-20)
(1.16946 0.495415 8.07936e-20)
(1.18262 0.494508 9.57456e-21)
(1.18513 0.486741 -6.35093e-20)
(1.18142 0.474769 -6.45947e-21)
(1.1746 0.460552 -1.28705e-20)
(1.16667 0.445385 -4.07129e-20)
(1.1588 0.430044 -1.46007e-20)
(1.1516 0.41496 -2.0214e-20)
(1.14533 0.400366 6.0997e-20)
(1.14001 0.38628 -6.39286e-22)
(1.13546 0.372619 1.57555e-20)
(1.13069 0.360746 1.22129e-20)
(0.131047 0.0463819 -1.78986e-20)
(0.366342 0.138172 -2.92645e-20)
(0.575827 0.231292 -6.2395e-20)
(0.755307 0.316329 -1.02474e-20)
(0.900706 0.38779 -9.93216e-20)
(1.01086 0.442329 -6.94879e-20)
(1.08797 0.479134 2.25993e-20)
(1.13687 0.499684 -1.59621e-19)
(1.16384 0.506904 -8.41608e-20)
(1.17525 0.504257 1.99266e-20)
(1.17669 0.495022 -9.7384e-21)
(1.17243 0.481863 5.57524e-20)
(1.16544 0.466698 7.33766e-20)
(1.15758 0.450765 1.79943e-20)
(1.14991 0.43479 4.69708e-20)
(1.14297 0.419164 -2.36358e-20)
(1.137 0.404098 3.08989e-20)
(1.13199 0.38959 1.67981e-20)
(1.12776 0.37561 1.3831e-20)
(1.12315 0.363403 -2.56836e-20)
(0.134308 0.0503898 2.70886e-20)
(0.373314 0.148357 -3.20513e-21)
(0.584023 0.245635 -9.68938e-20)
(0.762646 0.332925 -9.91707e-23)
(0.905695 0.404949 2.2349e-19)
(1.01271 0.458759 4.38149e-20)
(1.08653 0.494029 3.23063e-20)
(1.13252 0.512688 9.23476e-20)
(1.15721 0.518005 -7.28349e-20)
(1.16707 0.513651 -7.5858e-20)
(1.16758 0.50299 -5.10868e-22)
(1.16291 0.488683 -5.00728e-20)
(1.15585 0.472603 -2.70196e-20)
(1.14813 0.455929 7.02208e-20)
(1.14069 0.439334 -1.80146e-20)
(1.13405 0.423179 1.61556e-21)
(1.1284 0.40765 -2.26122e-20)
(1.12375 0.392723 -3.23672e-20)
(1.11985 0.378439 1.51157e-21)
(1.11554 0.36594 2.83021e-20)
(0.137337 0.0544883 -1.30681e-19)
(0.379631 0.158676 7.64153e-20)
(0.591209 0.260037 1.66707e-19)
(0.768719 0.349445 5.12559e-20)
(0.909287 0.421887 -2.63697e-19)
(1.01315 0.474854 -1.06508e-19)
(1.0838 0.508519 -8.14076e-20)
(1.12703 0.525266 -2.89286e-20)
(1.14963 0.528697 9.52047e-20)
(1.1581 0.522674 1.01526e-20)
(1.15786 0.510629 -1.84324e-20)
(1.15289 0.495215 3.37799e-20)
(1.14584 0.478252 4.69842e-21)
(1.13831 0.46086 -8.33175e-20)
(1.13117 0.443664 2.36449e-20)
(1.12486 0.426991 3.04203e-20)
(1.11956 0.411007 1.36308e-20)
(1.11528 0.395674 1.83846e-20)
(1.11173 0.381081 -3.03737e-20)
(1.10778 0.368307 -1.41812e-20)
(0.140123 0.0586628 -8.92929e-21)
(0.385269 0.16909 3.86476e-20)
(0.597365 0.274448 1.89342e-20)
(0.77352 0.365834 5.4855e-20)
(0.911495 0.438553 1.47306e-19)
(1.01222 0.490567 -9.386e-20)
(1.07979 0.522569 -5.41492e-21)
(1.12044 0.537393 8.58911e-20)
(1.14113 0.538959 -1.01111e-19)
(1.14839 0.531307 3.20968e-20)
(1.14753 0.517925 7.97495e-20)
(1.14238 0.501444 1.76736e-20)
(1.13543 0.48363 -3.61139e-20)
(1.12816 0.465545 5.90179e-20)
(1.12134 0.447765 -6.58316e-20)
(1.11539 0.430587 1.25561e-21)
(1.11046 0.414158 -1.42816e-20)
(1.10658 0.398429 2.26562e-20)
(1.10341 0.383528 1.9648e-20)
(0.142652 0.0628983 1.69865e-20)
(0.390209 0.179562 6.18763e-20)
(0.602478 0.288814 6.00063e-20)
(0.777051 0.382035 -3.71685e-20)
(0.912337 0.454893 3.16187e-21)
(1.00995 0.505854 8.72045e-20)
(1.07457 0.536143 1.50695e-19)
(1.11279 0.54904 -1.51948e-20)
(1.13176 0.548771 1.38641e-20)
(1.13798 0.539534 -3.95232e-20)
(1.13664 0.52486 -8.11272e-20)
(1.13141 0.507354 1.26656e-20)
(1.12464 0.488722 4.26073e-20)
(1.11767 0.469967 -8.44992e-21)
(1.11122 0.451622 -5.33608e-21)
(1.10566 0.433952 -2.46117e-20)
(1.10113 0.41709 -3.79453e-21)
(1.09765 0.400973 -9.35188e-21)
(0.144915 0.067179 -5.87626e-20)
(0.394435 0.190053 -1.41761e-19)
(0.606538 0.303085 -2.06342e-19)
(0.779317 0.397994 3.4785e-21)
(0.911837 0.470856 -1.31657e-21)
(1.00638 0.520673 -7.92296e-20)
(1.06817 0.549209 4.14104e-20)
(1.10413 0.560182 -4.38142e-20)
(1.12155 0.558111 7.97649e-20)
(1.12689 0.547336 7.7207e-20)
(1.1252 0.531419 3.31398e-20)
(1.11999 0.512929 -8.3593e-21)
(1.11347 0.493512 1.11968e-20)
(1.10686 0.474113 -2.79043e-20)
(1.10081 0.455221 4.55318e-20)
(1.09566 0.437074 -1.8644e-20)
(0.146902 0.0714888 6.38811e-20)
(0.397933 0.200524 1.91638e-19)
(0.609541 0.317208 7.40399e-20)
(0.780328 0.413655 -1.43043e-20)
(0.910019 0.486393 -7.71298e-20)
(1.00154 0.534982 -1.63867e-20)
(1.06063 0.561733 -2.02293e-20)
(1.09451 0.570794 -6.30315e-21)
(1.11056 0.566959 -2.38625e-20)
(1.11516 0.554696 -7.51152e-20)
(1.11325 0.537585 -5.88923e-20)
(1.10815 0.518152 4.11938e-20)
(1.10194 0.497984 -5.36337e-20)
(1.09573 0.477967 -1.91593e-21)
(1.09013 0.458548 1.2956e-20)
(0.148605 0.0758111 6.24097e-21)
(0.400694 0.210934 1.23283e-20)
(0.611485 0.331133 1.69705e-19)
(0.780099 0.428966 -9.38464e-20)
(0.906914 0.501455 2.15785e-19)
(0.995486 0.548741 9.47445e-20)
(1.05201 0.573683 -1.25155e-19)
(1.08397 0.580851 -1.1112e-20)
(1.09881 0.575296 -9.37369e-20)
(1.10283 0.561596 -2.13721e-20)
(1.1008 0.543341 2.36611e-20)
(1.09591 0.523009 2.94696e-20)
(1.09007 0.502123 5.5661e-20)
(1.08432 0.481514 6.54966e-21)
(0.150019 0.080129 5.08114e-20)
(0.402712 0.221245 -2.29359e-19)
(0.612375 0.344808 -5.04995e-20)
(0.778648 0.443875 -3.69834e-20)
(0.902555 0.515995 -1.35089e-19)
(0.988245 0.561911 -1.28902e-19)
(1.04234 0.58503 -3.84293e-20)
(1.07256 0.590329 -4.71395e-20)
(1.08634 0.5831 1.3025e-19)
(1.08992 0.568019 4.95342e-21)
(1.08789 0.54867 -7.41561e-20)
(1.08328 0.527482 -9.76148e-20)
(1.07787 0.505913 4.14767e-20)
(0.151138 0.0844255 4.0141e-21)
(0.403984 0.231416 3.4169e-20)
(0.612219 0.358184 -1.02249e-19)
(0.775998 0.458331 5.8684e-20)
(0.896977 0.529969 6.38985e-21)
(0.979868 0.574456 1.60614e-19)
(1.03168 0.595745 6.12899e-20)
(1.06031 0.599205 9.27229e-20)
(1.0732 0.590354 -5.80026e-20)
(1.07646 0.573946 9.86155e-20)
(1.07453 0.553556 6.25869e-20)
(1.07028 0.531556 1.26683e-20)
(0.151957 0.0886833 -1.02477e-19)
(0.40451 0.241409 2.31873e-19)
(0.611028 0.371212 1.19259e-19)
(0.772175 0.472284 4.31114e-20)
(0.890219 0.543332 -2.23029e-20)
(0.9704 0.58634 -1.3209e-19)
(1.02007 0.605799 1.92462e-20)
(1.04727 0.607457 -1.76332e-20)
(1.05942 0.597037 -5.89527e-20)
(1.06249 0.579362 -6.7477e-20)
(1.06076 0.557983 3.41289e-20)
(0.152476 0.0928853 -2.1357e-20)
(0.404294 0.251184 -6.14081e-20)
(0.608818 0.383844 -1.37251e-19)
(0.767209 0.485688 -6.88655e-20)
(0.882322 0.556043 -7.84549e-20)
(0.959889 0.597528 6.69217e-20)
(1.00757 0.615166 -2.5873e-20)
(1.03349 0.615064 1.52511e-20)
(1.04504 0.603132 -8.5923e-21)
(1.04804 0.584248 -2.92147e-20)
(0.152693 0.0970144 2.06523e-19)
(0.403341 0.260703 6.77171e-21)
(0.605608 0.396035 -6.00552e-20)
(0.761131 0.498496 5.5985e-20)
(0.873329 0.568063 -8.7691e-21)
(0.948383 0.60799 -2.45597e-20)
(0.99421 0.62382 -5.44283e-20)
(1.01901 0.622004 7.44571e-21)
(1.0301 0.608621 5.91911e-20)
(0.152609 0.101054 -4.60715e-20)
(0.401661 0.26993 4.96621e-20)
(0.60142 0.407738 1.37012e-20)
(0.753978 0.510664 1.17107e-19)
(0.863288 0.579354 -1.52155e-20)
(0.935932 0.617696 -6.99882e-20)
(0.980044 0.631736 1.20542e-19)
(1.00388 0.628258 3.63113e-21)
(0.152225 0.104987 -1.88582e-19)
(0.399266 0.278828 -5.96469e-21)
(0.596279 0.41891 1.1177e-19)
(0.745789 0.522151 -1.35013e-20)
(0.852247 0.589881 1.64279e-19)
(0.922581 0.626615 9.45346e-22)
(0.965122 0.638895 -1.2515e-19)
(0.151546 0.1088 1.12558e-19)
(0.396168 0.287363 -8.77021e-20)
(0.590215 0.429512 -1.30137e-19)
(0.736608 0.532917 -2.10786e-20)
(0.840248 0.599608 -1.07275e-19)
(0.908379 0.634722 4.6567e-20)
(0.150573 0.112477 -4.35829e-20)
(0.392385 0.2955 5.59182e-20)
(0.583262 0.439501 -1.54496e-20)
(0.726482 0.54293 -2.0344e-20)
(0.82733 0.608498 4.09368e-21)
(0.149314 0.116005 -6.74975e-20)
(0.387935 0.303208 -6.43649e-20)
(0.575456 0.448837 1.37704e-19)
(0.71544 0.552152 3.82165e-20)
(0.813557 0.616536 9.42674e-21)
(0.147772 0.119368 8.25201e-20)
(0.382841 0.310454 1.22539e-19)
(0.566826 0.457487 -3.19999e-20)
(0.703525 0.56054 -2.91313e-20)
(0.145953 0.122553 -5.41186e-20)
(0.377125 0.31721 -9.43288e-20)
(0.55741 0.465417 -4.35571e-20)
(0.143859 0.125537 5.26609e-20)
(0.370821 0.323451 9.29098e-20)
(0.547251 0.472593 3.77498e-20)
(0.141499 0.128292 -2.68974e-20)
(0.363967 0.32915 -1.3912e-21)
(0.138905 0.130806 2.20127e-20)
(0.136094 0.133089 1.80305e-21)
(0.13609 -0.133085 -2.41985e-20)
(0.138901 -0.130802 4.44373e-21)
(0.141495 -0.128288 -3.98963e-20)
(0.363956 -0.329141 -7.45128e-20)
(0.143855 -0.125533 7.26814e-20)
(0.37081 -0.323441 5.01238e-20)
(0.547235 -0.47258 -9.46646e-21)
(0.145949 -0.122549 -5.12077e-20)
(0.377114 -0.3172 -1.34128e-19)
(0.557394 -0.465404 -5.0623e-20)
(0.147767 -0.119364 8.03859e-20)
(0.382829 -0.310445 1.14696e-19)
(0.56681 -0.457475 -1.18407e-20)
(0.703506 -0.560526 -2.46599e-20)
(0.149309 -0.116001 -9.52408e-20)
(0.387924 -0.303199 -3.48882e-20)
(0.57544 -0.448825 6.07183e-20)
(0.71542 -0.552138 4.65181e-20)
(0.813536 -0.616521 2.79795e-20)
(0.150569 -0.112474 2.44932e-20)
(0.392373 -0.295492 -2.09161e-20)
(0.583245 -0.439489 5.50318e-20)
(0.726462 -0.542916 -7.04676e-20)
(0.827309 -0.608484 -4.15299e-21)
(0.893362 -0.641977 3.69435e-20)
(0.151541 -0.108797 1.85808e-19)
(0.396156 -0.287354 -1.02529e-19)
(0.590198 -0.4295 -1.3432e-19)
(0.736588 -0.532903 -5.50842e-20)
(0.840226 -0.599594 -7.2368e-20)
(0.908356 -0.634708 -1.82364e-21)
(0.15222 -0.104984 -9.88531e-20)
(0.399253 -0.27882 -5.02821e-21)
(0.596261 -0.418899 7.07624e-20)
(0.745768 -0.522138 8.10822e-21)
(0.852225 -0.589867 1.46327e-19)
(0.922557 -0.626602 -1.09104e-20)
(0.965099 -0.638882 8.26099e-21)
(0.152604 -0.10105 -4.06557e-20)
(0.401648 -0.269922 1.66897e-20)
(0.601402 -0.407726 3.03699e-20)
(0.753957 -0.510651 6.7874e-20)
(0.863265 -0.57934 -3.98745e-20)
(0.935908 -0.617682 1.41816e-20)
(0.98002 -0.631724 9.30918e-20)
(1.00385 -0.628246 -8.74791e-21)
(0.152688 -0.0970112 2.06687e-19)
(0.403328 -0.260695 -5.079e-20)
(0.605589 -0.396023 -6.3896e-20)
(0.761109 -0.498483 3.45506e-20)
(0.873305 -0.56805 1.87087e-20)
(0.948358 -0.607977 -3.3054e-20)
(0.994186 -0.623808 -6.10674e-21)
(1.01899 -0.621993 -1.64168e-20)
(1.03007 -0.608611 1.63117e-20)
(0.152471 -0.0928822 -9.18876e-20)
(0.404281 -0.251176 1.00641e-20)
(0.608799 -0.383833 -9.90011e-20)
(0.767186 -0.485675 -1.23331e-19)
(0.882298 -0.55603 -4.6344e-20)
(0.959864 -0.597515 -2.85856e-21)
(1.00754 -0.615154 5.22366e-20)
(1.03347 -0.615053 -3.5042e-20)
(1.04502 -0.603122 1.08611e-20)
(1.04802 -0.58424 5.6461e-20)
(0.151952 -0.0886803 -9.72281e-20)
(0.404497 -0.241401 1.99121e-19)
(0.611008 -0.371201 1.14746e-19)
(0.772152 -0.472272 4.82275e-20)
(0.890194 -0.543319 -1.72572e-20)
(0.970375 -0.586327 -9.66208e-20)
(1.02005 -0.605787 -5.2845e-20)
(1.04725 -0.607447 -2.28665e-20)
(1.0594 -0.597028 -2.59566e-20)
(1.06247 -0.579354 -8.61542e-20)
(1.06074 -0.557976 4.21933e-20)
(0.151132 -0.0844225 1.77065e-20)
(0.40397 -0.231409 -2.70857e-20)
(0.612199 -0.358174 2.03768e-20)
(0.775975 -0.458319 -4.79767e-20)
(0.896952 -0.529956 9.46114e-20)
(0.979842 -0.574444 1.49889e-19)
(1.03166 -0.595734 4.2563e-20)
(1.06028 -0.599195 9.9139e-20)
(1.07317 -0.590345 -4.80493e-20)
(1.07644 -0.573939 9.64818e-20)
(1.07451 -0.553549 2.08759e-20)
(1.07026 -0.531549 7.13286e-20)
(0.150013 -0.0801262 -6.28385e-20)
(0.402698 -0.221238 -1.33805e-19)
(0.612355 -0.344798 -9.97202e-20)
(0.778624 -0.443863 2.87805e-20)
(0.902529 -0.515983 -1.42342e-19)
(0.988219 -0.5619 -1.56835e-19)
(1.04232 -0.585019 -1.63105e-20)
(1.07253 -0.590319 -3.64345e-20)
(1.08632 -0.583092 1.12681e-19)
(1.08989 -0.568011 -2.29271e-20)
(1.08786 -0.548663 -5.9266e-20)
(1.08325 -0.527476 -8.76368e-20)
(1.07785 -0.505908 -4.66898e-20)
(0.1486 -0.0758084 -5.03316e-20)
(0.40068 -0.210927 -3.74215e-20)
(0.611465 -0.331123 1.52684e-19)
(0.780075 -0.428955 -8.90138e-20)
(0.906888 -0.501443 2.11916e-19)
(0.995458 -0.54873 8.04034e-20)
(1.05198 -0.573673 -4.68086e-20)
(1.08395 -0.580842 -7.0421e-20)
(1.09878 -0.575287 -9.39778e-20)
(1.1028 -0.561589 3.67e-20)
(1.10078 -0.543334 5.41451e-21)
(1.09589 -0.523004 2.75828e-20)
(1.09005 -0.502118 5.48048e-20)
(1.0843 -0.481511 1.01059e-20)
(0.146896 -0.0714862 9.95478e-20)
(0.397919 -0.200517 1.49482e-19)
(0.60952 -0.317198 6.95368e-21)
(0.780303 -0.413644 8.2002e-20)
(0.909992 -0.486381 -1.85419e-19)
(1.00152 -0.534971 4.20765e-20)
(1.0606 -0.561722 -2.62441e-20)
(1.09449 -0.570785 -5.45404e-21)
(1.11053 -0.566952 -3.67751e-20)
(1.11514 -0.554689 -6.58173e-20)
(1.11322 -0.537579 -1.51495e-20)
(1.10813 -0.518148 2.89925e-20)
(1.10192 -0.49798 -8.00272e-20)
(1.09571 -0.477964 1.83248e-20)
(1.09011 -0.458545 -3.14233e-20)
(0.144909 -0.0671765 -1.78292e-20)
(0.39442 -0.190047 -2.29676e-19)
(0.606517 -0.303075 -1.69316e-19)
(0.779292 -0.397983 -1.00029e-20)
(0.911809 -0.470844 3.39967e-20)
(1.00635 -0.520662 -5.92274e-20)
(1.06814 -0.549199 -1.58536e-21)
(1.10411 -0.560174 1.44098e-20)
(1.12153 -0.558104 1.8971e-20)
(1.12687 -0.54733 1.01036e-19)
(1.12518 -0.531414 3.62943e-20)
(1.11997 -0.512924 -6.99147e-21)