/*--------------------------------*- C++ -*----------------------------------*\
  =========                 |
  \\      /  F ield         | OpenFOAM: The Open Source CFD Toolbox
   \\    /   O peration     | Website:  https://openfoam.org
    \\  /    A nd           | Version:  7
     \\/     M anipulation  |
\*---------------------------------------------------------------------------*/
FoamFile
{
    version     2.0;
    format      ascii;
    class       volVectorField;
    location    "280";
    object      U;
}
// * * * * * * * * * * * * * * * * * * * * * * * * * * * * * * * * * * * * * //

dimensions      [0 1 -1 0 0 0 0];

internalField   nonuniform List<vector> 
7156
(
(0.0257844 -0.00501992 1.64682e-20)
(0.0892006 -0.0128695 9.38887e-21)
(0.0281071 -0.00505403 -1.4801e-19)
(0.0960291 -0.0126093 5.54096e-20)
(0.176635 -0.0140173 1.70765e-19)
(0.268411 -0.0107599 -1.18654e-19)
(0.0305201 -0.00503302 3.53838e-20)
(0.103075 -0.0121833 1.18493e-19)
(0.188129 -0.0127562 1.14386e-20)
(0.28407 -0.00836942 -1.13293e-20)
(0.388969 0.000723918 -1.40267e-19)
(0.500272 0.0140614 -1.32178e-20)
(0.614879 0.0309221 1.79098e-19)
(0.033021 -0.00495263 -1.08749e-19)
(0.11033 -0.0115815 -1.00843e-19)
(0.199894 -0.0112108 -1.46831e-19)
(0.300001 -0.00559987 -7.12551e-20)
(0.40856 0.00490162 8.86031e-20)
(0.52283 0.0197228 1.07428e-19)
(0.639534 0.0380272 -1.18769e-19)
(0.755071 0.0588036 -1.0762e-19)
(0.865793 0.0809062 -7.31915e-20)
(0.968335 0.103144 2.89731e-20)
(0.0356071 -0.00480869 5.94543e-20)
(0.117781 -0.0107937 7.72789e-20)
(0.211908 -0.00936878 5.60486e-20)
(0.316171 -0.00243911 2.85454e-20)
(0.428314 0.00954195 -5.20224e-21)
(0.545413 0.025889 -1.24666e-19)
(0.664023 0.0456462 6.6265e-20)
(0.780422 0.0676917 8.78846e-21)
(0.890923 0.0907903 -1.08214e-20)
(0.992218 0.113693 1.75107e-19)
(1.08169 0.135255 -4.55445e-21)
(1.15765 0.154535 -2.5621e-20)
(1.21941 0.170874 5.15384e-20)
(0.038275 -0.00459719 1.40894e-20)
(0.125418 -0.00981084 -1.19528e-19)
(0.224147 -0.00721846 -1.39703e-20)
(0.332544 0.00112375 1.32145e-19)
(0.448184 0.0146523 -2.722e-20)
(0.567964 0.0325618 6.48692e-20)
(0.688281 0.053774 -6.8427e-20)
(0.805314 0.0770572 1.82565e-20)
(0.91536 0.101092 -2.46493e-20)
(1.0152 0.124581 3.05065e-21)
(1.10239 0.146371 -4.37455e-20)
(1.17548 0.165553 -1.20272e-19)
(1.23407 0.181528 6.20617e-20)
(1.27868 0.19402 -1.85174e-20)
(1.31061 0.203049 1.08973e-19)
(1.33164 0.208867 -6.97613e-21)
(1.34377 0.211883 -1.67664e-19)
(0.0410209 -0.00431413 3.87427e-20)
(0.133226 -0.00862382 5.98448e-20)
(0.236588 -0.00474929 -1.51118e-20)
(0.349083 0.00509808 -5.87223e-20)
(0.468122 0.0202382 -1.13025e-20)
(0.590425 0.0397408 1.18214e-19)
(0.712247 0.0624033 4.94968e-20)
(0.829685 0.0868862 -1.15697e-20)
(0.939051 0.111792 5.41905e-20)
(1.03723 0.135784 -5.40747e-20)
(1.12199 0.157713 5.01185e-20)
(1.19214 0.176712 4.53483e-21)
(1.24754 0.192251 -5.44756e-20)
(1.28898 0.204136 -7.60295e-20)
(1.31796 0.212467 -1.06077e-19)
(1.33641 0.217568 -7.64087e-20)
(1.3464 0.219899 1.10814e-19)
(1.34994 0.21998 -2.29649e-20)
(1.34884 0.218323 -6.23352e-20)
(1.34459 0.215389 -3.72874e-20)
(1.33833 0.211562 -5.55093e-20)
(0.0438405 -0.00395569 -4.88988e-20)
(0.141191 -0.00722421 2.18455e-20)
(0.249205 -0.00195158 6.20335e-20)
(0.365752 0.00949185 2.70144e-20)
(0.488078 0.0263035 7.02442e-20)
(0.61274 0.0474238 -1.06013e-19)
(0.735859 0.0715249 -2.51023e-20)
(0.853478 0.0971629 2.14048e-20)
(0.961946 0.122869 3.30826e-20)
(1.05829 0.147279 1.13903e-19)
(1.14049 0.169259 -3.5821e-20)
(1.20764 0.187994 5.88175e-20)
(1.25985 0.203029 -3.26414e-20)
(1.29819 0.214256 -2.99499e-20)
(1.32434 0.221858 5.38665e-20)
(1.34033 0.226225 8.10684e-20)
(1.34832 0.227868 -7.11314e-20)
(1.3503 0.227334 -2.26568e-20)
(1.34805 0.225146 1.46628e-20)
(1.34298 0.221764 9.5673e-20)
(1.33617 0.217563 1.51559e-19)
(1.3284 0.212831 6.97191e-20)
(1.32014 0.207781 1.697e-20)
(1.31167 0.202565 8.79606e-20)
(1.30305 0.197034 -1.67272e-20)
(0.0467289 -0.00351817 1.18348e-19)
(0.149298 -0.00560415 -5.19994e-20)
(0.261969 0.00118331 -4.25277e-20)
(0.38251 0.0143115 4.03541e-20)
(0.508005 0.0328499 -1.91078e-19)
(0.634851 0.0556062 2.75431e-20)
(0.759058 0.0811277 4.76209e-20)
(0.876637 0.10787 7.77132e-21)
(0.984002 0.134303 -4.81657e-20)
(1.07834 0.159044 -1.15211e-19)
(1.15788 0.180987 -1.39156e-21)
(1.22198 0.199378 -4.65817e-20)
(1.27104 0.213845 5.24067e-21)
(1.30635 0.22437 1.13102e-19)
(1.32978 0.231215 3.84504e-20)
(1.34346 0.234837 -3.97954e-20)
(1.34958 0.23579 1.32181e-19)
(1.35014 0.234646 -1.73966e-20)
(1.34684 0.231935 6.86612e-20)
(1.34105 0.228114 -1.17802e-19)
(1.33377 0.223546 -4.125e-20)
(1.32569 0.218504 -9.14127e-20)
(1.31726 0.21319 9.13376e-20)
(1.30869 0.207733 -2.59629e-20)
(1.30004 0.20203 -3.35172e-20)
(0.049681 -0.0029981 -3.62781e-20)
(0.157531 -0.00375643 2.10862e-20)
(0.274854 0.00466285 9.5476e-21)
(0.399318 0.0195619 -1.10111e-19)
(0.527851 0.0398774 1.03348e-20)
(0.656702 0.0642817 -2.71808e-20)
(0.781789 0.0911985 -5.25642e-21)
(0.899112 0.118989 4.94169e-20)
(1.00518 0.14607 2.25384e-20)
(1.09737 0.171055 6.9808e-20)
(1.17416 0.192874 3.75508e-20)
(1.23518 0.210846 1.9784e-21)
(1.28113 0.224686 -9.95927e-24)
(1.3135 0.234468 -4.16512e-20)
(1.33433 0.240534 4.72064e-20)
(1.34583 0.243402 -4.83555e-21)
(1.35023 0.243666 -4.55383e-20)
(1.34948 0.241918 -1.10745e-19)
(1.34525 0.238693 -1.77354e-20)
(1.33882 0.23444 -5.35126e-21)
(1.33112 0.229511 -4.55605e-20)
(1.3228 0.224163 8.17364e-20)
(1.31423 0.218585 -6.62496e-20)
(1.30558 0.212886 -2.28824e-20)
(1.2969 0.207009 5.22428e-20)
(0.0526911 -0.00239221 1.93937e-20)
(0.16587 -0.00167457 -3.24641e-20)
(0.287828 0.00849326 5.56152e-20)
(0.416135 0.0252463 8.40571e-20)
(0.547566 0.0473838 1.66596e-20)
(0.678238 0.0734418 3.9579e-20)
(0.803996 0.101723 -8.38738e-20)
(0.920855 0.1305 -3.48955e-20)
(1.02544 0.15815 1.4489e-20)
(1.11535 0.18329 1.84423e-22)
(1.18931 0.204901 -7.94222e-21)
(1.24726 0.222381 3.63218e-20)
(1.29015 0.23554 3.09009e-20)
(1.31968 0.244543 4.83191e-20)
(1.33803 0.249812 -6.55598e-20)
(1.3475 0.251919 -1.85657e-20)
(1.35029 0.251497 -1.82631e-21)
(1.34836 0.249152 7.0658e-20)
(1.34329 0.245421 -4.10998e-20)
(1.3363 0.240743 3.77993e-20)
(1.32825 0.235457 -4.39866e-20)
(1.31972 0.229807 -3.57316e-20)
(1.31104 0.223965 -2.51329e-20)
(1.30234 0.218022 3.44286e-20)
(1.29364 0.211969 1.99889e-21)
(0.0557532 -0.00169752 -2.77154e-20)
(0.174299 0.000647091 -2.56051e-20)
(0.300863 0.0126795 -7.95806e-20)
(0.43292 0.031366 4.9094e-20)
(0.567102 0.0553653 4.79625e-20)
(0.699407 0.0830761 -3.27207e-20)
(0.825628 0.112683 6.60409e-20)
(0.941823 0.142382 -1.17264e-21)
(1.04476 0.170517 2.58164e-21)
(1.13227 0.195724 -2.43755e-20)
(1.20336 0.217045 2.03494e-20)
(1.25824 0.233966 -1.87659e-20)
(1.29813 0.246395 -4.91973e-20)
(1.32493 0.254588 -1.00667e-20)
(1.34093 0.259042 7.06077e-21)
(1.34849 0.260387 2.57482e-20)
(1.34982 0.259282 2.17335e-20)
(1.34681 0.256348 -1.07186e-20)
(1.34099 0.252119 -2.19576e-20)
(1.33351 0.247023 1.61252e-20)
(1.32517 0.241385 3.02296e-20)
(1.31647 0.235433 3.04485e-20)
(1.30769 0.229327 1.97316e-21)
(1.29896 0.22314 3.36769e-20)
(1.29025 0.216907 -7.41145e-21)
(0.0588608 -0.000911314 1.12449e-20)
(0.182798 0.00321338 2.19365e-20)
(0.313926 0.0172251 2.16605e-20)
(0.449631 0.0379208 -9.09981e-21)
(0.58641 0.0638158 -1.75435e-20)
(0.720157 0.0931723 2.08783e-20)
(0.846637 0.124063 -1.30244e-20)
(0.961977 0.154614 1.32521e-20)
(1.06312 0.183148 -4.0819e-20)
(1.14812 0.208335 1.77851e-20)
(1.2163 0.229287 1.12903e-20)
(1.26814 0.245585 3.45721e-20)
(1.30511 0.257238 2.50953e-20)
(1.32929 0.264594 -1.00529e-20)
(1.34307 0.268223 -9.90573e-21)
(1.34885 0.268803 2.83435e-21)
(1.34883 0.267022 -1.37877e-20)
(1.34485 0.263507 5.69254e-21)
(1.33838 0.258787 1.51647e-20)
(1.33047 0.253279 -1.82368e-20)
(1.32187 0.247292 8.06386e-21)
(1.31304 0.24104 -2.18862e-20)
(1.3042 0.234669 2.02726e-20)
(1.29545 0.228237 -2.54774e-20)
(1.28674 0.221822 9.88873e-21)
(0.0620072 -3.11821e-05 -1.7913e-20)
(0.191348 0.00602821 1.92457e-21)
(0.326986 0.0221323 1.26978e-20)
(0.466227 0.0449086 -2.15621e-20)
(0.60544 0.0727276 -4.43807e-21)
(0.740438 0.103716 -2.40945e-20)
(0.866977 0.135842 -2.64054e-20)
(0.981282 0.167171 -7.8592e-21)
(1.08048 0.196019 3.68835e-21)
(1.1629 0.221101 6.73722e-21)
(1.22814 0.241609 -2.42096e-20)
(1.27699 0.257224 -6.04188e-21)
(1.31112 0.26806 -2.41498e-20)
(1.33279 0.274556 -1.42004e-20)
(1.34448 0.277351 1.03535e-20)
(1.34861 0.277167 -8.93232e-21)
(1.34736 0.274715 -1.73117e-20)
(1.34251 0.270627 -1.60574e-20)
(1.33545 0.265424 -1.53305e-21)
(1.32718 0.25951 -2.29532e-20)
(1.31838 0.253177 8.63023e-22)
(1.30944 0.246626 2.67709e-20)
(1.30056 0.239989 3.46163e-22)
(1.2918 0.233309 -6.79512e-21)
(1.28311 0.226709 6.97529e-21)
(0.0651852 0.000944953 8.58113e-21)
(0.199927 0.00909456 3.28966e-21)
(0.340011 0.0274018 -3.87551e-21)
(0.482665 0.0523256 3.66401e-21)
(0.624147 0.0820908 -1.61584e-21)
(0.760202 0.114693 6.86598e-21)
(0.886608 0.148 -1.89803e-21)
(0.999705 0.18003 1.54644e-21)
(1.09684 0.209107 -5.36652e-21)
(1.1766 0.233999 -6.24895e-21)
(1.23891 0.25399 -3.41825e-21)
(1.28481 0.268868 1.08127e-20)
(1.31619 0.278851 5.04196e-21)
(1.33547 0.284467 -5.86657e-21)
(1.3452 0.286422 5.1875e-21)
(1.34781 0.285477 -6.37855e-22)
(1.34543 0.282362 9.69264e-21)
(1.33981 0.277708 4.28952e-21)
(1.33224 0.272029 1.45252e-21)
(1.32366 0.265713 1.35356e-20)
(1.31468 0.259037 -2.54902e-21)
(1.30567 0.252188 -1.10661e-20)
(1.29676 0.245283 -5.52074e-22)
(1.28802 0.238355 1.70349e-21)
(1.27935 0.231566 -5.03713e-21)
(0.0683878 0.00201883 4.64199e-21)
(0.208515 0.0124145 5.56305e-21)
(0.352968 0.0330328 -6.24192e-21)
(0.498904 0.0601662 8.97125e-21)
(0.642484 0.0918939 -2.93869e-21)
(0.779405 0.126083 2.87801e-21)
(0.905488 0.160515 -5.87437e-22)
(1.01722 0.193168 1.55228e-21)
(1.11217 0.222387 -3.47942e-21)
(1.18924 0.247007 -9.23064e-21)
(1.24862 0.266412 -5.86073e-22)
(1.29162 0.280502 9.37909e-21)
(1.32036 0.2896 6.80227e-21)
(1.33737 0.294321 -6.49521e-21)
(1.34526 0.295432 4.56595e-21)
(1.34647 0.293731 1.0546e-21)
(1.34308 0.289959 6.20114e-21)
(1.33675 0.284749 4.57134e-21)
(1.32874 0.278601 2.86759e-21)
(1.31991 0.271888 1.17468e-20)
(1.3108 0.26487 -1.27412e-22)
(1.30173 0.257722 -1.12775e-20)
(1.29282 0.250549 -3.18037e-21)
(1.2841 0.243371 3.13089e-21)
(1.27546 0.236391 -2.32967e-21)
(0.0716074 0.00319185 -1.15391e-20)
(0.217092 0.0159889 -5.07276e-21)
(0.365825 0.0390232 5.20102e-21)
(0.514905 0.0684231 -1.26399e-20)
(0.660406 0.102124 7.19565e-22)
(0.798004 0.13787 -3.85646e-20)
(0.923585 0.173363 -2.326e-20)
(1.0338 0.206559 -7.00142e-21)
(1.12648 0.235834 1.21431e-20)
(1.20081 0.260104 -9.8108e-21)
(1.25728 0.278859 -1.82955e-20)
(1.29746 0.292114 -1.11556e-20)
(1.32366 0.300299 -1.13708e-20)
(1.33852 0.304113 -9.70718e-21)
(1.3447 0.304378 5.30442e-21)
(1.34461 0.301926 -1.04546e-20)
(1.34031 0.297507 -2.0851e-20)
(1.33337 0.291748 -6.0106e-21)
(1.32498 0.285136 -1.02418e-20)
(1.31593 0.27803 -1.74903e-20)
(1.30672 0.270673 -3.38399e-21)
(1.29762 0.263226 1.97248e-20)
(1.28873 0.255782 3.08615e-21)
(1.28004 0.248353 -5.15639e-21)
(1.27145 0.241178 1.79852e-20)
(0.0748358 0.00446502 7.76736e-21)
(0.225635 0.019818 -9.87811e-21)
(0.378549 0.0453694 3.79591e-20)
(0.530626 0.0770873 -2.1195e-20)
(0.677872 0.112765 -7.15323e-21)
(0.815958 0.150033 2.83092e-20)
(0.940864 0.186522 -1.00052e-20)
(1.04943 0.220178 5.33759e-21)
(1.13976 0.249425 -1.53584e-20)
(1.21132 0.273268 -5.72248e-21)
(1.26491 0.291312 3.78012e-21)
(1.30236 0.303691 3.40829e-20)
(1.32612 0.310939 2.10248e-20)
(1.33895 0.313835 8.54808e-21)
(1.34354 0.313257 -1.23221e-20)
(1.34227 0.310059 -4.83651e-21)
(1.33714 0.305001 3.30785e-21)
(1.32967 0.298701 1.63426e-21)
(1.32095 0.291632 5.06e-21)
(1.31173 0.284136 -9.11105e-21)
(1.30246 0.276441 -2.23498e-21)
(1.29335 0.268696 -1.48819e-20)
(1.28449 0.260979 2.45005e-21)
(1.27585 0.253297 -1.7826e-20)
(1.2673 0.245925 3.46355e-21)
(0.0780651 0.00583892 -3.5472e-20)
(0.234123 0.0239006 -2.70539e-20)
(0.391108 0.052066 -4.26206e-20)
(0.546029 0.086148 1.90012e-20)
(0.694839 0.123801 3.3206e-20)
(0.83323 0.162549 -4.783e-21)
(0.957296 0.199966 5.42557e-20)
(1.06409 0.234 1.26526e-20)
(1.15199 0.263136 -2.77652e-20)
(1.22078 0.286478 -1.41588e-20)
(1.27155 0.303755 2.12085e-20)
(1.30633 0.31522 -2.50685e-20)
(1.32777 0.321511 -5.41013e-20)
(1.3387 0.323484 1.25808e-20)
(1.34181 0.322063 -1.19303e-20)
(1.33947 0.318129 5.78975e-20)
(1.3336 0.31244 2.38604e-21)
(1.32566 0.305606 1.18321e-20)
(1.31668 0.298086 -2.13636e-20)
(1.30732 0.290203 4.01919e-21)
(1.29801 0.282171 2.69746e-20)
(1.28892 0.274126 1.26531e-20)
(1.2801 0.266136 1.136e-20)
(1.27151 0.258199 2.00861e-20)
(1.26303 0.250628 3.08797e-21)
(0.0812872 0.00731375 4.26607e-20)
(0.242533 0.0282347 -3.18085e-20)
(0.403469 0.0591066 9.48319e-20)
(0.561075 0.0955927 3.12851e-20)
(0.711269 0.135215 6.71678e-20)
(0.849785 0.175397 -6.16604e-21)
(0.972857 0.213669 -3.69056e-20)
(1.07777 0.247999 -5.82566e-20)
(1.16319 0.276942 1.36861e-20)
(1.22921 0.299715 -3.16617e-20)
(1.2772 0.316172 3.31919e-21)
(1.30942 0.326689 2.49098e-20)
(1.32865 0.332006 5.41552e-20)
(1.33779 0.333051 3.88844e-20)
(1.33954 0.330794 -7.80383e-20)
(1.33623 0.32613 -1.52242e-20)
(1.3297 0.319819 1.73629e-20)
(1.32136 0.312459 4.0434e-20)
(1.31215 0.304493 -3.11921e-20)
(1.3027 0.296225 4.3639e-20)
(1.29337 0.287857 -3.42052e-20)
(1.28432 0.279513 -2.88287e-20)
(1.27556 0.271247 -5.36394e-21)
(1.26704 0.263055 7.88474e-21)
(1.25862 0.255282 -2.46296e-20)
(0.0844936 0.00888928 -7.92491e-20)
(0.250845 0.0328169 3.28621e-20)
(0.415602 0.066483 -1.88511e-20)
(0.575727 0.105408 -7.21046e-20)
(0.727125 0.146985 -8.61885e-21)
(0.865591 0.188552 -1.15462e-20)
(0.987524 0.227606 -1.92224e-20)
(1.09046 0.262149 9.46832e-20)
(1.17335 0.29082 3.05291e-20)
(1.23662 0.312957 2.2568e-20)
(1.28189 0.328546 2.01504e-20)
(1.31164 0.338087 -1.74757e-20)
(1.32878 0.342416 6.69575e-20)
(1.33624 0.342533 -8.17617e-20)
(1.33675 0.339443 5.6123e-20)
(1.33255 0.334059 8.58245e-21)
(1.32546 0.327135 -6.07604e-20)
(1.31677 0.319257 -1.02729e-19)
(1.30739 0.310848 8.77731e-21)
(1.29788 0.3022 -1.02538e-20)
(1.28855 0.293496 -2.8498e-21)
(1.27955 0.284851 1.8376e-20)
(1.27086 0.276309 -5.55361e-20)
(1.26243 0.26786 1.74485e-20)
(1.25409 0.259884 3.20247e-20)
(0.0876762 0.0105649 1.20622e-19)
(0.259036 0.0376432 -5.27473e-20)
(0.427475 0.0741856 -6.24639e-20)
(0.589951 0.115577 -2.50505e-20)
(0.742372 0.159092 -7.17536e-20)
(0.880619 0.201989 4.06762e-21)
(1.00128 0.241751 4.41041e-20)
(1.10214 0.276423 -1.469e-20)
(1.18249 0.304746 -7.64939e-20)
(1.24303 0.326186 -1.00947e-19)
(1.28565 0.340863 -1.93486e-20)
(1.31303 0.349401 -1.49629e-20)
(1.32818 0.352733 -1.86997e-20)
(1.3341 0.351921 1.08194e-19)
(1.33345 0.348007 6.31521e-20)
(1.32848 0.341911 -5.29944e-20)
(1.32088 0.334383 9.65844e-20)
(1.3119 0.325993 5.38658e-20)
(1.30238 0.317148 2.20676e-20)
(1.29284 0.30812 -7.27126e-20)
(1.28355 0.299083 -7.54929e-20)
(1.27461 0.290137 -2.86826e-20)
(1.26602 0.281316 6.48789e-20)
(1.25768 0.272611 -4.22652e-20)
(1.24942 0.264429 -5.78491e-21)
(0.0908265 0.0123395 -5.78869e-20)
(0.267085 0.0427083 3.76593e-20)
(0.439058 0.0822038 2.44373e-20)
(0.603712 0.126085 8.53791e-20)
(0.756976 0.171513 2.13233e-20)
(0.894843 0.215683 -9.39683e-20)
(1.0141 0.256075 -2.58229e-20)
(1.11282 0.290797 2.78114e-21)
(1.1906 0.318698 2.5513e-20)
(1.24844 0.339381 1.29222e-19)
(1.2885 0.353107 -4.91586e-20)
(1.31361 0.360621 6.31973e-20)
(1.3269 0.362948 4.98991e-21)
(1.33137 0.361211 -5.45419e-20)
(1.32968 0.35648 -1.57906e-20)
(1.324 0.349683 8.3541e-20)
(1.31597 0.34156 -6.19678e-20)
(1.30676 0.332665 4.81665e-20)
(1.29715 0.323387 -4.98058e-20)
(1.2876 0.313982 1.15833e-19)
(1.27836 0.30461 1.13575e-19)
(1.26951 0.295364 6.52632e-20)
(1.26102 0.286264 -4.8702e-20)
(1.25279 0.277301 -4.07855e-20)
(1.24462 0.268912 -2.41784e-20)
(0.0939362 0.0142116 4.1833e-20)
(0.274972 0.0480059 9.01801e-20)
(0.450323 0.0905252 -6.69763e-20)
(0.616977 0.136912 -2.77497e-20)
(0.770908 0.184225 8.87212e-21)
(0.908239 0.229607 6.18657e-20)
(1.02598 0.270552 5.88223e-20)
(1.1225 0.305243 -1.23166e-20)
(1.1977 0.332651 9.73816e-20)
(1.25289 0.352524 -7.14544e-20)
(1.29046 0.365264 4.09168e-20)
(1.31341 0.371735 -1.89596e-20)
(1.32494 0.373053 -8.72432e-20)
(1.32808 0.370395 -2.5326e-20)
(1.32545 0.364856 -3.86954e-20)
(1.31915 0.357367 -9.59764e-20)
(1.31075 0.348658 8.12129e-20)
(1.30136 0.339265 6.15049e-21)
(1.29168 0.329558 1.04042e-19)
(1.28216 0.31978 -3.01908e-20)
(1.273 0.310075 -2.22459e-20)
(1.26425 0.300526 2.84767e-20)
(1.25587 0.291147 4.00737e-20)
(1.24775 0.281926 3.85203e-21)
(1.23969 0.273329 3.16415e-20)
(0.096997 0.0161794 -1.40288e-20)
(0.282675 0.0535287 -2.52944e-20)
(0.46124 0.0991365 1.29733e-20)
(0.629717 0.148039 6.37496e-20)
(0.784141 0.197204 5.35438e-20)
(0.920786 0.243734 1.93122e-20)
(1.03691 0.285154 -9.19968e-20)
(1.13117 0.319736 3.32323e-20)
(1.2038 0.346585 -1.5555e-20)
(1.25639 0.365597 -2.88594e-20)
(1.29155 0.377318 -5.40792e-20)
(1.31245 0.382732 -4.64975e-20)
(1.32234 0.383039 5.46485e-20)
(1.32426 0.379466 1.32664e-20)
(1.32078 0.37313 -1.87861e-20)
(1.31393 0.36496 6.86767e-20)
(1.30523 0.355673 -1.24251e-20)
(1.29569 0.345788 6.4196e-20)
(1.28599 0.335658 3.9897e-20)
(1.27652 0.325507 3.5302e-20)
(1.26745 0.315469 4.27076e-20)
(1.25881 0.30562 -6.76928e-20)
(1.25056 0.29596 -3.07905e-20)
(1.24257 0.286481 -6.85233e-21)
(1.23462 0.277676 1.73615e-20)
(0.100001 0.0182406 1.26611e-19)
(0.290174 0.0592687 2.54738e-20)
(0.471784 0.108023 -1.39057e-20)
(0.641902 0.159446 6.00573e-20)
(0.796647 0.210424 6.47401e-20)
(0.932466 0.258037 -1.36052e-19)
(1.04687 0.299853 9.14746e-20)
(1.13884 0.334251 -2.30317e-20)
(1.20891 0.360475 -1.37726e-20)
(1.25896 0.378581 2.04704e-19)
(1.29181 0.389256 -2.34407e-20)
(1.31076 0.393601 8.19717e-20)
(1.31912 0.392898 -4.14799e-20)
(1.31992 0.388418 -4.76789e-20)
(1.31568 0.381295 2.79536e-20)
(1.30836 0.372454 -5.66224e-20)
(1.2994 0.362599 1.60913e-20)
(1.28977 0.352229 -1.28563e-19)
(1.28008 0.341678 -1.88304e-19)
(1.27067 0.331157 2.07178e-20)
(1.26171 0.320788 -1.09389e-19)
(1.25321 0.310637 2.4648e-20)
(1.2451 0.300698 3.61406e-20)
(1.23725 0.29096 9.01329e-20)
(1.22942 0.281947 4.36414e-20)
(0.102939 0.0203923 -1.24296e-19)
(0.29745 0.0652165 -2.03117e-19)
(0.481927 0.117169 -5.27089e-20)
(0.653506 0.17111 -1.45065e-19)
(0.808405 0.223859 1.10862e-19)
(0.943265 0.272486 1.18414e-19)
(1.05587 0.314622 -1.84898e-19)
(1.14551 0.34876 1.84591e-20)
(1.21304 0.374301 6.83295e-21)
(1.26061 0.391457 -1.54861e-19)
(1.29125 0.401063 9.88522e-20)
(1.30836 0.404332 -1.59982e-19)
(1.3153 0.40262 -1.59474e-20)
(1.31508 0.397242 5.08101e-20)
(1.31016 0.389344 6.50816e-20)
(1.30244 0.379844 6.18368e-20)
(1.29329 0.369429 -6.76079e-20)
(1.2836 0.35858 1.11024e-19)
(1.27394 0.347613 3.17753e-20)
(1.26463 0.336725 3.82849e-20)
(1.2558 0.326025 -1.04395e-19)
(1.24744 0.315574 -7.68671e-20)
(1.23948 0.305354 2.72028e-20)
(1.23179 0.295358 -5.65324e-20)
(1.2241 0.286137 1.44573e-21)
(0.105804 0.0226316 -2.78767e-20)
(0.304484 0.0713622 1.17896e-19)
(0.491646 0.126557 -2.54171e-20)
(0.664502 0.183009 5.31715e-21)
(0.819393 0.237482 -1.07128e-19)
(0.953168 0.287054 -2.42606e-21)
(1.06389 0.329432 6.89799e-20)
(1.15119 0.36324 1.97036e-20)
(1.21621 0.38804 -1.08312e-19)
(1.26138 0.404209 -3.08484e-20)
(1.2899 0.412725 -2.60308e-19)
(1.30528 0.414912 2.65815e-20)
(1.31091 0.412198 1.86937e-19)
(1.30976 0.405933 -1.79191e-19)
(1.30424 0.397271 -1.11111e-19)
(1.29619 0.387123 -9.62471e-20)
(1.28689 0.376157 3.70301e-20)
(1.27718 0.364836 -1.40679e-19)
(1.26758 0.353457 6.9583e-20)
(1.25839 0.342203 -7.22163e-20)
(1.2497 0.331174 7.68482e-20)
(1.24151 0.320423 5.9189e-20)
(1.23371 0.309924 2.23293e-20)
(1.22619 0.299667 -3.29091e-20)
(1.21865 0.29024 1.99099e-21)
(0.108589 0.0249549 -1.69507e-19)
(0.311258 0.0776948 5.27143e-20)
(0.500917 0.136169 2.01187e-21)
(0.674869 0.19512 8.14333e-20)
(0.829594 0.251266 6.49976e-21)
(0.962166 0.301712 8.92685e-20)
(1.07095 0.344255 -4.35519e-20)
(1.15589 0.377665 1.91512e-19)
(1.21845 0.401672 -1.30764e-19)
(1.26129 0.416819 2.08769e-19)
(1.28778 0.424229 1.7267e-19)
(1.30154 0.425331 2.01084e-19)
(1.30595 0.421622 -1.45322e-19)
(1.30397 0.41448 1.49736e-19)
(1.29794 0.405068 8.59191e-21)
(1.28961 0.394283 -1.23217e-19)
(1.28021 0.382776 1.45156e-20)
(1.27051 0.370988 7.03648e-20)
(1.26101 0.359201 -4.1679e-20)
(1.25195 0.347584 -6.14288e-20)
(1.24342 0.336229 -1.06665e-19)
(1.2354 0.32518 8.41023e-20)
(1.22779 0.3144 -3.64574e-20)
(1.22044 0.303881 -8.43674e-21)
(1.21306 0.29425 -1.35646e-19)
(0.111285 0.0273584 2.50944e-19)
(0.317754 0.0842026 -6.28657e-20)
(0.509719 0.145988 5.21661e-20)
(0.684586 0.207416 -1.55051e-19)
(0.83899 0.265182 -3.6485e-20)
(0.970252 0.31643 -3.92782e-20)
(1.07704 0.359064 -8.64715e-20)
(1.15962 0.39201 -3.48571e-19)
(1.21975 0.415174 1.52229e-19)
(1.26034 0.42927 -7.07206e-20)
(1.28492 0.435561 -1.72392e-19)
(1.29716 0.435579 -4.72984e-20)
(1.30046 0.430882 4.78029e-20)
(1.29774 0.422878 -1.32592e-19)
(1.29126 0.412727 8.16418e-20)
(1.28272 0.401317 7.19007e-21)
(1.27325 0.389277 4.05948e-21)
(1.26361 0.37703 -1.38478e-20)
(1.25422 0.36484 1.40629e-19)
(1.24531 0.352864 -6.53981e-22)
(1.23696 0.341183 2.73817e-19)
(1.22913 0.329837 -8.98641e-20)
(1.22171 0.318778 -9.03775e-20)
(1.21455 0.307996 1.15152e-19)
(1.20731 0.298169 1.13085e-19)
(0.113885 0.0298378 -4.02785e-21)
(0.323956 0.0908732 1.51396e-19)
(0.518031 0.155992 -1.64574e-20)
(0.693632 0.219874 1.25273e-19)
(0.84757 0.279203 -2.10682e-20)
(0.97742 0.331179 -7.76577e-20)
(1.08216 0.373831 3.99288e-21)
(1.16239 0.406251 2.53561e-19)
(1.22015 0.428527 -1.88678e-20)
(1.25858 0.441545 -1.38477e-19)
(1.28134 0.446707 1.22327e-19)
(1.29216 0.445644 -5.1371e-20)
(1.29445 0.43997 4.79033e-20)
(1.29107 0.431116 1.77426e-19)
(1.28422 0.420242 -5.02197e-20)
(1.27551 0.408218 4.03228e-20)
(1.26603 0.395655 -5.56719e-20)
(1.25646 0.382955 -1.38339e-19)
(1.24721 0.370366 1.38682e-20)
(1.23848 0.358033 -6.1127e-20)
(1.23032 0.34603 -4.75258e-20)
(1.22269 0.33439 -4.43817e-21)
(1.21547 0.323054 2.06346e-19)
(1.20851 0.312019 -5.00101e-21)
(1.20137 0.301998 2.52716e-20)
(0.116382 0.0323886 -2.00254e-19)
(0.329849 0.0976933 -2.06467e-20)
(0.525834 0.166162 8.91687e-20)
(0.701992 0.232468 -1.22956e-19)
(0.855321 0.2933 2.78622e-20)
(0.983666 0.345931 7.79748e-20)
(1.08633 0.388529 4.16585e-21)
(1.16421 0.420362 -2.37868e-19)
(1.21967 0.441709 9.42459e-20)
(1.25601 0.453627 -7.65291e-20)
(1.27705 0.457654 1.46186e-19)
(1.28656 0.455515 3.05718e-20)
(1.28794 0.448877 1.6347e-19)
(1.28398 0.439187 -8.42669e-20)
(1.27683 0.427603 1.38871e-20)
(1.26801 0.414977 3.0883e-20)
(1.25855 0.4019 -2.75587e-20)
(1.24909 0.388754 4.05893e-20)
(1.24 0.375772 8.00268e-20)
(1.23145 0.363086 2.42084e-19)
(1.22351 0.350764 -1.34315e-19)
(1.21609 0.338832 -4.93651e-20)
(1.20909 0.327225 -1.26027e-19)
(1.20232 0.315961 -6.08024e-20)
(1.19533 0.305719 -8.71901e-20)
(0.11877 0.0350059 1.40764e-19)
(0.335417 0.104649 2.64128e-20)
(0.533113 0.176476 -1.34719e-19)
(0.70965 0.24517 1.57895e-20)
(0.862234 0.307442 -7.51429e-20)
(0.988991 0.360656 3.9558e-22)
(1.08954 0.40313 5.78409e-20)
(1.16511 0.434322 1.38408e-19)
(1.21831 0.454702 -7.35257e-20)
(1.25266 0.4655 5.86173e-20)
(1.27209 0.468389 -1.38165e-19)
(1.28039 0.465182 -1.99827e-19)
(1.28094 0.457592 -2.51944e-19)
(1.27648 0.447082 -1.08901e-19)
(1.26909 0.434802 4.17806e-20)
(1.26021 0.421588 1.91062e-20)
(1.25081 0.408006 2.75662e-19)
(1.24148 0.394421 -5.15506e-20)
(1.23257 0.38105 1.1395e-20)
(1.22424 0.368015 -9.04509e-20)
(1.21651 0.355376 1.00143e-19)
(1.20933 0.343157 4.17155e-20)
(1.20256 0.331281 8.38807e-20)
(1.19601 0.319791 -1.86207e-20)
(1.18922 0.309342 -2.99122e-20)
(0.121042 0.0376845 -1.34435e-19)
(0.340648 0.111726 -3.92971e-20)
(0.53985 0.186912 1.0999e-19)
(0.716594 0.257955 -3.44201e-19)
(0.868303 0.321602 -7.87162e-20)
(0.993394 0.375324 2.73838e-20)
(1.09181 0.417607 -4.79402e-20)
(1.16509 0.448105 1.07622e-19)
(1.21611 0.467485 2.22379e-20)
(1.24856 0.477149 1.09439e-19)
(1.26646 0.478899 1.90598e-19)
(1.27365 0.474632 2.90969e-19)
(1.27347 0.466106 1.25883e-19)
(1.26859 0.454793 -7.05422e-20)
(1.26101 0.441832 2.78227e-20)
(1.25212 0.42804 -2.67561e-20)
(1.24282 0.413964 -1.62249e-19)
(1.23365 0.399947 1.55936e-19)
(1.22494 0.386193 -2.78976e-19)
(1.21683 0.372812 2.70676e-20)
(1.20934 0.359861 -3.49447e-20)
(1.2024 0.347356 6.55217e-20)
(1.19587 0.335217 -7.78503e-20)
(1.18956 0.323499 -1.23007e-20)
(1.18299 0.312848 8.34057e-20)
(0.123193 0.0404188 -1.96982e-19)
(0.345528 0.118909 1.46517e-20)
(0.546032 0.197448 4.65797e-20)
(0.722812 0.270795 2.14476e-19)
(0.873524 0.33575 2.60448e-19)
(0.99688 0.389908 1.40443e-19)
(1.09315 0.431935 -1.3135e-19)
(1.16418 0.46169 -2.18559e-19)
(1.21308 0.48004 -1.82616e-19)
(1.24372 0.488557 1.69607e-20)
(1.26021 0.48917 -1.825e-19)
(1.26638 0.483856 -5.05545e-20)
(1.26555 0.474409 -7.72648e-20)
(1.26032 0.462309 1.51297e-19)
(1.25262 0.448683 6.30521e-20)
(1.24375 0.434327 -2.30452e-19)
(1.23457 0.419766 1.06486e-19)
(1.2256 0.405325 5.15623e-20)
(1.21711 0.391192 1.89785e-19)
(1.20923 0.377472 1.08062e-19)
(1.20199 0.364212 -1.2034e-19)
(1.19531 0.351425 -1.35277e-19)
(1.18904 0.339025 8.38627e-20)
(1.18297 0.327082 9.56077e-20)
(1.17663 0.316233 -3.15912e-20)
(0.125216 0.0432033 1.41265e-19)
(0.350047 0.126183 5.59883e-21)
(0.551646 0.208062 -2.4958e-19)
(0.728297 0.283662 -3.73706e-21)
(0.877893 0.349856 -3.73063e-19)
(0.999454 0.404379 9.52447e-21)
(1.09357 0.446087 -5.92436e-20)
(1.16238 0.475053 1.32893e-19)
(1.20924 0.492346 1.92857e-19)
(1.23817 0.499708 4.75591e-20)
(1.25334 0.49919 3.86992e-20)
(1.25859 0.492842 -8.77913e-20)
(1.25719 0.482492 1.03897e-20)
(1.25168 0.469622 1.00518e-19)
(1.2439 0.455347 -9.71264e-20)
(1.23511 0.440439 1.19797e-19)
(1.22609 0.425404 -9.95345e-20)
(1.21732 0.410546 -9.57239e-20)
(1.20907 0.396042 -1.02982e-19)
(1.20145 0.381985 -1.1759e-19)
(1.19448 0.368421 9.87602e-20)
(1.18806 0.355357 1.24899e-19)
(1.18207 0.3427 -2.8675e-20)
(1.17626 0.330534 -2.39066e-20)
(1.17014 0.319491 -1.40756e-20)
(0.127106 0.0460318 -2.51221e-19)
(0.354193 0.133531 1.45155e-19)
(0.556683 0.218729 2.32502e-19)
(0.73304 0.296528 2.27247e-19)
(0.881411 0.363891 1.45723e-19)
(1.00112 0.418707 -1.71431e-19)
(1.09308 0.460037 1.4201e-19)
(1.15973 0.488172 4.84045e-21)
(1.20462 0.504387 -1.55153e-19)
(1.23193 0.510588 -1.77583e-19)
(1.24587 0.508946 2.27655e-19)
(1.2503 0.501579 -6.68471e-20)
(1.24841 0.490344 -1.25501e-19)
(1.24268 0.476723 -8.4822e-20)
(1.23488 0.461814 -5.6724e-21)
(1.2262 0.446369 7.39094e-20)
(1.21737 0.430869 9.24969e-20)
(1.20883 0.415602 -4.12832e-20)
(1.20084 0.400733 1.59695e-19)
(1.19349 0.386346 1.73844e-20)
(1.18679 0.372481 1.189e-20)
(1.18065 0.359144 -7.8234e-20)
(1.17495 0.346235 -1.03754e-19)
(1.16941 0.333851 1.7488e-20)
(1.16353 0.32262 -8.5846e-20)
(0.128859 0.0488982 2.16807e-19)
(0.357957 0.140938 9.95476e-21)
(0.561133 0.229426 -2.79595e-19)
(0.737038 0.309367 4.1139e-21)
(0.884079 0.377827 -1.09868e-19)
(1.00189 0.432866 1.39054e-19)
(1.09171 0.47376 1.58686e-19)
(1.15623 0.501026 -1.13236e-19)
(1.19924 0.516143 -1.12813e-19)
(1.22502 0.521182 9.22174e-20)
(1.23783 0.518426 -1.55525e-19)
(1.24152 0.510057 2.26192e-19)
(1.23922 0.497955 5.23826e-20)
(1.23334 0.483602 -2.16258e-20)
(1.22556 0.468076 2.55869e-19)
(1.21702 0.452107 -6.44423e-20)
(1.20841 0.436153 -6.96088e-20)
(1.20013 0.420487 3.63259e-20)
(1.19241 0.405259 -7.90564e-21)
(1.18534 0.390547 -1.30349e-19)
(1.17893 0.376387 -6.77673e-20)
(1.17309 0.362781 -6.50993e-20)
(1.16768 0.349625 1.23946e-19)
(1.16243 0.337028 -1.73609e-20)
(1.1568 0.325614 1.45357e-19)
(0.13047 0.0517961 1.13237e-19)
(0.361331 0.148386 -4.45246e-19)
(0.564989 0.240131 5.86721e-20)
(0.740287 0.32215 -2.1593e-19)
(0.885901 0.391634 3.9753e-19)
(1.00178 0.446827 -1.75044e-19)
(1.08946 0.487231 1.03505e-19)
(1.15192 0.513593 -4.12236e-20)
(1.19312 0.527597 1.15977e-19)
(1.21746 0.531475 -8.65623e-20)
(1.22924 0.527616 3.51789e-20)
(1.23227 0.518264 6.03712e-20)
(1.22964 0.505317 9.94744e-20)
(1.22366 0.49025 -2.63251e-19)
(1.21596 0.474124 1.1046e-19)
(1.2076 0.457644 6.74575e-20)
(1.19923 0.441248 -2.94509e-20)
(1.19123 0.425191 -4.71609e-20)
(1.18379 0.409612 -2.27079e-20)
(1.17702 0.39458 4.33656e-20)
(1.17091 0.38013 2.34839e-20)
(1.16537 0.366261 1.68434e-19)
(1.16028 0.352863 -6.76828e-20)
(1.15533 0.340059 -1.22902e-20)
(1.14996 0.328469 -1.15653e-19)
(0.131934 0.0547189 -9.6964e-20)
(0.364309 0.15586 7.6534e-21)
(0.568244 0.250817 1.78169e-19)
(0.742786 0.334849 -1.35351e-19)
(0.886881 0.405283 9.45638e-20)
(1.00079 0.460563 8.86936e-20)
(1.08635 0.500427 -1.74657e-19)
(1.1468 0.525853 2.92739e-20)
(1.18627 0.538732 5.37353e-21)
(1.20927 0.541452 2.42901e-19)
(1.22012 0.536506 1.51166e-20)
(1.22257 0.526189 -2.28253e-19)
(1.21967 0.512418 -1.99947e-19)
(1.21365 0.496658 1.96239e-19)
(1.20607 0.479949 -2.48759e-19)
(1.19793 0.462972 4.54276e-20)
(1.18983 0.446146 -1.23997e-20)
(1.18212 0.429707 3.19077e-20)
(1.17499 0.413784 8.2462e-20)
(1.16852 0.39844 -7.26467e-20)
(1.16272 0.383705 1.15065e-19)
(1.15751 0.369578 -5.90334e-21)
(1.15273 0.355943 -4.62258e-20)
(1.14809 0.34294 3.33327e-20)
(0.133249 0.0576598 2.182e-19)
(0.366883 0.163341 1.84953e-19)
(0.570896 0.261463 3.5678e-19)
(0.744535 0.347437 1.32404e-19)
(0.887027 0.418747 -2.88083e-19)
(0.998939 0.474049 4.19233e-20)
(1.08241 0.513322 -7.85094e-20)
(1.14091 0.537785 7.15936e-20)
(1.17874 0.549531 1.32603e-19)
(1.20049 0.551099 -3.62279e-19)
(1.21048 0.545082 4.47278e-20)
(1.21244 0.533822 -1.43658e-19)
(1.20934 0.519248 1.64613e-19)
(1.20333 0.502816 -1.38687e-19)
(1.19591 0.485541 3.31748e-20)
(1.18801 0.468083 5.33693e-20)
(1.18021 0.450838 3.53107e-20)
(1.17281 0.434027 -4.07961e-20)
(1.166 0.417768 -5.09279e-20)
(1.15985 0.402118 -5.91736e-21)
(1.15438 0.387105 -1.28711e-19)
(1.14949 0.372725 4.38691e-20)
(0.134412 0.060612 -3.03401e-19)
(0.369049 0.170812 -2.23134e-19)