/*--------------------------------*- C++ -*----------------------------------*\
  =========                 |
  \\      /  F ield         | OpenFOAM: The Open Source CFD Toolbox
   \\    /   O peration     | Website:  https://openfoam.org
    \\  /    A nd           | Version:  7
     \\/     M anipulation  |
\*---------------------------------------------------------------------------*/
FoamFile
{
    version     2.0;
    format      ascii;
    class       volScalarField;
    location    "260";
    object      p;
}
// * * * * * * * * * * * * * * * * * * * * * * * * * * * * * * * * * * * * * //

dimensions      [0 2 -2 0 0 0 0];

internalField   nonuniform List<scalar> 
4575
(
-0.048743
-0.0476182
-0.0438248
-0.0405692
-0.0370715
-0.0357364
-0.0351671
-0.0360341
-0.0348256
-0.0339329
-0.0300788
-0.02824
-0.0256275
-0.0261941
-0.0240789
-0.0240672
-0.018195
-0.0166772
-0.014183
-0.015793
-0.0101898
-0.0106864
-0.00166344
-0.0474194
-0.0461788
-0.0425166
-0.039549
-0.0364657
-0.0355912
-0.0355003
-0.0367597
-0.0357849
-0.0349713
-0.0309465
-0.0288209
-0.0257087
-0.0258421
-0.0233458
-0.0230978
-0.0173213
-0.015949
-0.0140292
-0.0160071
-0.0107728
-0.0114131
-0.00195595
-0.046111
-0.044753
-0.0412141
-0.0385273
-0.035855
-0.0354414
-0.0358328
-0.0374873
-0.0367476
-0.0360101
-0.0318129
-0.0293992
-0.0257882
-0.0254883
-0.0226132
-0.0221269
-0.0164485
-0.0152198
-0.0138746
-0.0162181
-0.0113562
-0.0121375
-0.0022503
-0.0448189
-0.0433416
-0.0399179
-0.0375043
-0.0352393
-0.0352868
-0.0361642
-0.0382163
-0.0377132
-0.0370489
-0.0326777
-0.0299748
-0.0258663
-0.025133
-0.0218817
-0.021155
-0.0155769
-0.0144901
-0.013719
-0.0164257
-0.0119396
-0.0128593
-0.00254647
-0.0435441
-0.0419455
-0.0386286
-0.0364803
-0.0346185
-0.0351269
-0.0364939
-0.0389462
-0.0386812
-0.0380871
-0.0335406
-0.0305477
-0.0259433
-0.0247768
-0.0211517
-0.0201826
-0.0147069
-0.0137598
-0.0135621
-0.0166297
-0.0125224
-0.0135781
-0.00284441
-0.0422876
-0.0405654
-0.0373466
-0.0354556
-0.0339927
-0.0349613
-0.0368213
-0.0396764
-0.039651
-0.0391245
-0.0344013
-0.0311178
-0.0260193
-0.02442
-0.0204239
-0.0192101
-0.0138389
-0.0130292
-0.0134039
-0.01683
-0.0131043
-0.0142937
-0.00314407
-0.0410502
-0.0392021
-0.0360724
-0.0344307
-0.0333618
-0.0347896
-0.0371457
-0.0404063
-0.0406222
-0.0401605
-0.0352594
-0.0316851
-0.0260946
-0.024063
-0.0196988
-0.0182381
-0.0129733
-0.0122986
-0.0132442
-0.0170263
-0.0136847
-0.0150058
-0.00344542
-0.039833
-0.0378563
-0.0348065
-0.0334058
-0.0327257
-0.0346114
-0.0374667
-0.0411354
-0.0415941
-0.0411947
-0.0361146
-0.0322494
-0.0261695
-0.0237063
-0.0189769
-0.017267
-0.0121104
-0.0115681
-0.0130827
-0.0172185
-0.0142634
-0.015714
-0.00374839
-0.0386365
-0.0365288
-0.0335495
-0.0323814
-0.0320843
-0.0344263
-0.0377836
-0.0418631
-0.0425664
-0.0422268
-0.0369667
-0.0328107
-0.0262442
-0.0233503
-0.0182589
-0.0162973
-0.0112505
-0.0108379
-0.0129194
-0.0174063
-0.0148397
-0.0164181
-0.00405293
-0.0374617
-0.0352202
-0.0323019
-0.0313577
-0.0314377
-0.0342339
-0.0380959
-0.0425888
-0.0435384
-0.0432562
-0.0378153
-0.033369
-0.0263188
-0.0229954
-0.0175451
-0.0153296
-0.0103941
-0.0101082
-0.0127541
-0.0175897
-0.0154132
-0.0171178
-0.00435898
-0.0363092
-0.0339313
-0.0310642
-0.0303351
-0.0307858
-0.0340338
-0.0384028
-0.0433119
-0.0445097
-0.0442827
-0.0386601
-0.0339242
-0.0263937
-0.022642
-0.0168363
-0.0143642
-0.00954139
-0.00937918
-0.0125865
-0.0177683
-0.0159836
-0.0178127
-0.00466647
-0.0351797
-0.0326626
-0.0298368
-0.0293141
-0.0301286
-0.0338256
-0.0387038
-0.0440319
-0.0454799
-0.0453057
-0.0395007
-0.0344761
-0.0264689
-0.0222904
-0.0161328
-0.0134017
-0.00869276
-0.0086511
-0.0124166
-0.0179422
-0.0165503
-0.0185026
-0.00497534
-0.0340738
-0.031415
-0.0286203
-0.028295
-0.029466
-0.0336089
-0.0389983
-0.0447482
-0.0464483
-0.046325
-0.0403369
-0.0350248
-0.0265446
-0.0219412
-0.0154353
-0.0124426
-0.00784853
-0.00792415
-0.0122442
-0.018111
-0.0171129
-0.0191872
-0.00528551
-0.0329919
-0.0301888
-0.0274151
-0.0272783
-0.0287981
-0.0333833
-0.0392856
-0.0454602
-0.0474145
-0.04734
-0.0411682
-0.0355701
-0.0266211
-0.0215946
-0.0147443
-0.0114873
-0.00700902
-0.00719852
-0.0120692
-0.0182748
-0.017671
-0.0198662
-0.0055969
-0.0319347
-0.0289849
-0.0262217
-0.0262644
-0.0281249
-0.0331484
-0.0395652
-0.0461672
-0.048378
-0.0483506
-0.0419945
-0.0361118
-0.0266984
-0.0212512
-0.0140602
-0.0105363
-0.00617455
-0.00647441
-0.0118913
-0.0184332
-0.0182241
-0.0205393
-0.00590942
-0.0309025
-0.0278037
-0.0250405
-0.0252536
-0.0274463
-0.0329038
-0.0398363
-0.0468687
-0.0493383
-0.0493562
-0.0428154
-0.03665
-0.0267768
-0.0209111
-0.0133836
-0.00959015
-0.00534542
-0.00575204
-0.0117104
-0.0185863
-0.0187717
-0.0212062
-0.006223
-0.0298956
-0.0266458
-0.0238721
-0.0242466
-0.0267625
-0.0326491
-0.0400985
-0.0475641
-0.050295
-0.0503565
-0.0436306
-0.0371845
-0.0268564
-0.0205749
-0.012715
-0.00864921
-0.00452194
-0.00503162
-0.0115265
-0.0187338
-0.0193135
-0.0218666
-0.00653753
-0.0289146
-0.0255116
-0.0227168
-0.0232436
-0.0260734
-0.032384
-0.0403509
-0.0482529
-0.0512476
-0.0513513
-0.0444397
-0.0377152
-0.0269372
-0.0202429
-0.0120549
-0.00771398
-0.0037044
-0.00431336
-0.0113393
-0.0188758
-0.019849
-0.0225203
-0.00685292
-0.0279595
-0.0244019
-0.021575
-0.0222453
-0.0253791
-0.0321081
-0.0405931
-0.0489343
-0.0521956
-0.05234
-0.0452424
-0.0382419
-0.0270194
-0.0199154
-0.0114037
-0.00678493
-0.00289309
-0.00359747
-0.0111487
-0.0190119
-0.0203778
-0.023167
-0.00716906
-0.0270307
-0.0233169
-0.0204472
-0.021252
-0.0246797
-0.0318211
-0.0408244
-0.0496078
-0.0531386
-0.0533225
-0.0460386
-0.0387646
-0.0271031
-0.0195928
-0.0107619
-0.0058625
-0.00208829
-0.00288416
-0.0109547
-0.0191423
-0.0208995
-0.0238064
-0.00748586
-0.0261283
-0.0222571
-0.0193336
-0.0202642
-0.0239752
-0.0315226
-0.0410442
-0.0502729
-0.054076
-0.0542983
-0.0468277
-0.0392831
-0.0271884
-0.0192753
-0.01013
-0.00494715
-0.00129027
-0.00217366
-0.010757
-0.0192668
-0.0214136
-0.0244383
-0.0078032
-0.0252523
-0.0212231
-0.0182348
-0.0192826
-0.0232659
-0.0312123
-0.0412518
-0.0509288
-0.0550075
-0.0552672
-0.0476097
-0.0397972
-0.0272753
-0.0189634
-0.00950835
-0.00403933
-0.00049931
-0.00146619
-0.0105555
-0.0193852
-0.0219197
-0.0250623
-0.00812096
-0.024403
-0.0202151
-0.0171509
-0.0183075
-0.0225517
-0.03089
-0.0414467
-0.0515751
-0.0559325
-0.0562289
-0.0483841
-0.0403069
-0.0273638
-0.0186573
-0.00889745
-0.00313947
0.000284334
-0.000761953
-0.0103502
-0.0194976
-0.0224176
-0.0256783
-0.00843903
-0.0235802
-0.0192336
-0.0160823
-0.0173395
-0.0218328
-0.0305553
-0.0416282
-0.052211
-0.0568507
-0.057183
-0.0491506
-0.040812
-0.0274541
-0.0183573
-0.0082977
-0.00224802
0.0010604
-6.11879e-05
-0.010141
-0.0196039
-0.0229066
-0.026286
-0.00875727
-0.022784
-0.0182789
-0.0150293
-0.0163792
-0.0211095
-0.0302079
-0.0417958
-0.052836
-0.0577615
-0.0581292
-0.0499091
-0.0413123
-0.027546
-0.0180637
-0.00770948
-0.00136539
0.00182865
0.000635887
-0.00992771
-0.0197041
-0.0233866
-0.0268851
-0.00907557
-0.0220143
-0.0173513
-0.0139922
-0.015427
-0.0203818
-0.0298477
-0.0419489
-0.0534495
-0.0586645
-0.0590673
-0.0506592
-0.0418078
-0.0276396
-0.0177767
-0.00713319
-0.000492009
0.00258882
0.00132904
-0.00971028
-0.019798
-0.0238571
-0.0274755
-0.0093938
-0.0212709
-0.0164512
-0.0129711
-0.0144836
-0.01965
-0.0294745
-0.0420869
-0.0540509
-0.0595593
-0.059997
-0.0514006
-0.0422981
-0.027735
-0.0174965
-0.00656918
0.000371701
0.00334069
0.00201805
-0.00948862
-0.0198857
-0.0243177
-0.0280568
-0.00971181
-0.0205537
-0.0155789
-0.0119662
-0.0135495
-0.0189142
-0.0290879
-0.0422092
-0.0546396
-0.0604453
-0.060918
-0.0521332
-0.0427832
-0.0278319
-0.0172235
-0.00601781
0.00122533
0.00408401
0.00270268
-0.00926266
-0.0199671
-0.0247681
-0.0286289
-0.0100295
-0.0198625
-0.0147345
-0.0109778
-0.0126254
-0.0181748
-0.0286879
-0.0423153
-0.0552149
-0.0613222
-0.06183
-0.0528565
-0.0432628
-0.0279305
-0.0169578
-0.00547941
0.00206848
0.00481857
0.0033827
-0.00903232
-0.0200423
-0.0252079
-0.0291916
-0.0103466
-0.019197
-0.0139184
-0.010006
-0.0117117
-0.017432
-0.0282744
-0.0424047
-0.0557763
-0.0621894
-0.0627327
-0.0535705
-0.0437369
-0.0280306
-0.0166995
-0.00495428
0.00290075
0.00554413
0.00405787
-0.00879755
-0.0201112
-0.0256369
-0.0297446
-0.0106632
-0.0185569
-0.0131307
-0.00905096
-0.0108092
-0.0166861
-0.0278471
-0.0424768
-0.0563232
-0.0630465
-0.0636259
-0.0542747
-0.0442053
-0.0281322
-0.016449
-0.00444274
0.00372175
0.00626047
0.00472796
-0.00855829
-0.0201738
-0.0260547
-0.0302877
-0.0109789
-0.0179419
-0.0123717
-0.00811269
-0.00991842
-0.0159373
-0.0274061
-0.0425312
-0.056855
-0.0638931
-0.0645093
-0.0549691
-0.0446676
-0.0282351
-0.0162062
-0.00394508
0.00453111
0.00696738
0.00539272
-0.00831448
-0.0202301
-0.026461
-0.0308208
-0.0112938
-0.0173519
-0.0116417
-0.00719144
-0.00904017
-0.0151862
-0.0269513
-0.0425673
-0.057371
-0.0647286
-0.0653825
-0.0556533
-0.0451239
-0.0283393
-0.0159715
-0.00346164
0.0053284
0.00766462
0.0060519
-0.00806609
-0.0202802
-0.0268555
-0.0313436
-0.0116075
-0.0167862
-0.010941
-0.00628731
-0.00817518
-0.0144329
-0.0264826
-0.0425847
-0.0578707
-0.0655524
-0.0662453
-0.0563271
-0.045574
-0.0284447
-0.0157449
-0.00299259
0.00611328
0.00835196
0.00670525
-0.00781307
-0.0203241
-0.0272379
-0.031856
-0.01192
-0.0162428
-0.0102682
-0.00539925
-0.00732368
-0.013678
-0.026
-0.042583
-0.0583536
-0.0663646
-0.0670981
-0.0569909
-0.0460176
-0.028551
-0.015526
-0.00253746
0.00688582
0.0090294
0.00735256
-0.00755543
-0.0203618
-0.0276081
-0.0323579
-0.0122313
-0.0157192
-0.00962113
-0.00452484
-0.00648508
-0.0129212
-0.0255037
-0.0425622
-0.0588201
-0.0671657
-0.0679414
-0.0576443
-0.0464541
-0.028657
-0.015314
-0.00209568
0.00764626
0.0096971
0.00799371
-0.00729318
-0.0203935
-0.0279658
-0.0328491
-0.012541
-0.0152244
-0.00900927
-0.00367047
-0.00566352
-0.0121642
-0.024994
-0.0425218
-0.0592685
-0.0679524
-0.068771
-0.0582834
-0.0468817
-0.028763
-0.0151119
-0.00167167
0.00839139
0.0103534
0.00862802
-0.00702635
-0.0204191
-0.0283106
-0.0333293
-0.0128487
-0.0147879
-0.00846633
-0.00287068
-0.00488026
-0.011417
-0.0244713
-0.0424541
-0.0596839
-0.0687067
-0.0695703
-0.058902
-0.0473035
-0.028876
-0.0149308
-0.00127923
0.00911044
0.0109918
0.00925283
-0.00675424
-0.0204366
-0.0286405
-0.0337977
-0.0131533
-0.0143869
-0.00797109
-0.00212355
-0.00413208
-0.0106784
-0.023931
-0.0423489
-0.0600574
-0.0694301
-0.070348
-0.05952
-0.0477351
-0.0290072
-0.0147688
-0.000910029
0.0098108
0.0116154
0.00986875
-0.00647514
-0.0204451
-0.0289558
-0.0342545
-0.0134569
-0.01376
-0.00721199
-0.0010423
-0.00319491
-0.00983114
-0.0233602
-0.0422926
-0.0605523
-0.0703174
-0.0712807
-0.060226
-0.0481819
-0.0291227
-0.0145394
-0.000441822
0.0105999
0.0122964
0.0105058
-0.00619544
-0.0204663
-0.0292766
-0.0347081
-0.013771
-0.0116812
-0.00456823
0.00313513
-0.000109023
-0.0073086
-0.0219756
-0.0426329
-0.0624619
-0.0730855
-0.0741549
-0.0620356
-0.0491623
-0.0292926
-0.0138184
0.000909863
0.0126293
0.0140216
0.0120061
-0.00562807
-0.0206037
-0.030008
-0.0356741
-0.0144601
-0.00970324
-0.00269235
-0.00112827
0.00202248
-0.00537637
-0.0208334
-0.0429394
-0.0642629
-0.0756595
-0.075958
-0.0635824
-0.0498431
-0.0291984
-0.0128235
0.00246987
0.0148269
0.0159156
0.0137828
-0.00492221
-0.0206868
-0.0307894
-0.0369187
-0.0154078
-0.00780589
-0.000809024
0.00168357
0.00399755
-0.0037021
-0.0197937
-0.0431288
-0.0658506
-0.0780552
-0.0783362
-0.0649664
-0.050369
-0.0290363
-0.0118389
0.00393919
0.0169188
0.0176758
0.0154723
-0.00424315
-0.0207014
-0.0314181
-0.0380415
-0.0163163
-0.00594886
0.00112144
0.00428325
0.0060962
-0.0018798
-0.0186076
-0.0432452
-0.0674916
-0.0805576
-0.0806999
-0.0662265
-0.0507265
-0.0287716
-0.0108417
0.00533245
0.0189475
0.0193808
0.0171396
-0.00354001
-0.0206683
-0.0319474
-0.0390285
-0.0171816
-0.00415147
0.00297522
0.00660292
0.00818476
-1.60807e-05
-0.0173456
-0.0433052
-0.069114
-0.0829999
-0.0828958
-0.0672822
-0.050871
-0.0283884
-0.00983287
0.00663011
0.0208506
0.0209852
0.0187376
-0.00281817
-0.02059
-0.0323581
-0.0398553
-0.0179898
-0.00242246
0.00472573
0.00869841
0.0101583
0.00177566
-0.0160719
-0.0432585
-0.070574
-0.0852456
-0.0848661
-0.0680959
-0.0507819
-0.0278759
-0.00881362
0.00782179
0.0226072
0.0224579
0.0202311
-0.00208705
-0.0204609
-0.0326246
-0.040506
-0.018729
-0.00076533
0.0063639
0.01058
0.0119841
0.00346598
-0.0147846
-0.0430418
-0.0717848
-0.0872254
-0.0865582
-0.0686364
-0.0504391
-0.027223
-0.00778379
0.00890115
0.0242015
0.0237843
0.0216061
-0.00134961
-0.0202778
-0.0327365
-0.0409692
-0.0193876
0.000816107
0.00787924
0.0122517
0.013649
0.0050541
-0.0134674
-0.0426163
-0.0726889
-0.0888618
-0.0879018
-0.0688664
-0.0498232
-0.0264199
-0.0067428
0.00986355
0.0256158
0.0249532
0.0228522
-0.000608746
-0.0200412
-0.0326901
-0.0412341
-0.0199534
0.00231687
0.00926277
0.0137151
0.0151373
0.00653202
-0.0121189
-0.0419558
-0.0732131
-0.0900525
-0.0888128
-0.0687457
-0.0489171
-0.0254582
-0.00568994
0.0107064
0.0268323
0.0259516
0.0239567
0.000129876
-0.0197526
-0.0324828
-0.0412905
-0.0204144
0.00373144
0.0105076
0.0149696
0.0164297
0.0078816
-0.0107476
-0.0410282
-0.0732664
-0.0906831
-0.089199
-0.0682324
-0.0477073
-0.0243327
-0.00462458
0.0114298
0.0278344
0.0267661
0.0249051
0.000858739
-0.0194129
-0.0321129
-0.0411297
-0.0207588
0.00505409
0.0116084
0.0160128
0.0175068
0.00908188
-0.00936097
-0.0397963
-0.0727546
-0.0906354
-0.0889635
-0.0672841
-0.0461847
-0.0230411
-0.00354647
0.0120364
0.0286067
0.0273829
0.0256833
0.00156932
-0.0190219
-0.0315807
-0.0407445
-0.0209754
0.00627942
0.0125615
0.0168427
0.0183509
0.0101137
-0.00796505
-0.0382263
-0.0715889
-0.089794
-0.0880105
-0.0658597
-0.044346
-0.0215855
-0.00245602
0.0125326
0.029136
0.0277895
0.026278
0.00225197
-0.0185791
-0.0308884
-0.0401293
-0.0210535
0.00740318
0.0133658
0.0174583
0.0189481
0.0109601
-0.00656744
-0.0362943
-0.0696918
-0.0880547
-0.0862527
-0.0639224
-0.0421946
-0.0199726
-0.00135471
0.0129275
0.0294123
0.0279749
0.0266764
0.00289589
-0.0180828
-0.0300393
-0.0392797
-0.0209835
0.00842328
0.0140234
0.0178621
0.0192885
0.0116068
-0.00517858
-0.033988
-0.0670047
-0.0853356
-0.0836195
-0.061443
-0.039741
-0.0182142
-0.000245273
0.0132339
0.0294301
0.0279307
0.0268668
0.00348963
-0.0175291
-0.0290374
-0.0381923
-0.0207568
0.00934069
0.014541
0.0180618
0.0193683
0.0120426
-0.00381057
-0.0313087
-0.063496
-0.0815872
-0.0800668
-0.0584041
-0.0370038
-0.0163272
0.000868019
0.0134674
0.0291896
0.0276524
0.0268386
0.00402218
-0.0169111
-0.0278867
-0.0368649
-0.0203658
0.01016
0.0149301
0.018072
0.0191918
0.0122627
-0.00247567
-0.0282741
-0.0591687
-0.076802
-0.075585
-0.0548047
-0.0340094
-0.0143331
0.00197926
0.013646
0.0286991
0.0271408
0.0265838
0.00448433
-0.0162174
-0.0265898
-0.035296
-0.0198043
0.0108897
0.0152077
0.0179161
0.0187748
0.0122709
-0.00118504
-0.0249197
-0.0540655
-0.0710212
-0.0702063
-0.0506641
-0.0307919
-0.0122573
0.00308112
0.0137888
0.0279764
0.0264043
0.026098
0.00487064
-0.0154308
-0.0251469
-0.0334853
-0.0190678
0.011542
0.015396
0.0176271
0.018146
0.0120823
5.31316e-05
-0.0212983
-0.0482703
-0.0643384
-0.0640084
-0.0460253
-0.0273925
-0.010128
0.00416545
0.0139148
0.0270506
0.0254605
0.0253823
0.0051818
-0.0145266
-0.0235549
-0.0314344
-0.0181538
0.012132
0.0155218
0.0172471
0.0173511
0.011727
0.00123626
-0.0174773
-0.0419072
-0.056899
-0.0571152
-0.0409567
-0.0238584
-0.00797449
0.00522392
0.0140419
0.025963
0.0243382
0.024446
0.00542732
-0.0134728
-0.0218058
-0.0291484
-0.0170632
0.0126768
0.0156162
0.0168253
0.0164511
0.0112545
0.00237062
-0.0135346
-0.0351365
-0.0488942
-0.0496867
-0.0355529
-0.0202418
-0.00582586
0.00624872
0.0141849
0.0247665
0.0230791
0.0233092
0.00562788
-0.0122299
-0.0198878
-0.0266378
-0.015801
0.0131933
0.0157116
0.0164193
0.0155001
0.0107361
0.00347429
-0.00955319
-0.0281459
-0.0405502
-0.0416187
-0.0299319
-0.0165987
-0.00370918
0.00723337
0.0143548
0.0235235
0.0217377
0.0220058
0.00581665
-0.0107542
-0.0177867
-0.0239216
-0.0143784
0.0136979
0.0158369
0.0160934
0.0146527
0.010266
0.00457913
-0.00561686
-0.0211394
-0.0321382
-0.0337933
-0.0242455
-0.0129868
-0.00164852
0.00817313
0.0145577
0.0223004
0.0203632
0.0205859
0.00603877
-0.00900479
-0.0154901
-0.0210304
-0.0128144
0.0142033
0.0160141
0.0159043
0.0139879
0.00995314
0.00572895
-0.00180357
-0.014324
-0.0239173
-0.0261159
-0.0186361
-0.00946344
0.000335803
0.00906486
0.0147949
0.0211629
0.0190769
0.0191156
0.00634744
-0.00695313
-0.0129942
-0.0180096
-0.0111383
0.0147172
0.0162544
0.0158915
0.0136051
0.00990982
0.00697194
0.00181764
-0.0078979
-0.0161345
-0.0188011
-0.0132476
-0.00608306
0.00222744
0.00990654
0.0150623
0.0201664
0.0179367
0.0176713
0.00679584
-0.00459649
-0.0103132
-0.0149211
-0.00938947
0.0152413
0.0165568
0.0160682
0.0135742
0.0102244
0.00834687
0.00518741
-0.00203492
-0.0090137
-0.0120519
-0.00820995
-0.00289468
0.00401349
0.0106967
0.0153499
0.0193473
0.0170087
0.0163359
0.00742483
-0.00197102
-0.0074877
-0.0118416
-0.00761679
0.0157727
0.0169102
0.0164184
0.0139147
0.0109347
0.00986806
0.00825695
0.00312849
-0.00273103
-0.00602917
-0.00363282
6.00237e-05
0.00568406
0.011434
0.0156435
0.0187176
0.016338
0.0151879
0.00824853
0.000839444
-0.00458881
-0.00885732
-0.00587644
0.0163045
0.0172966
0.0168973
0.0145851
0.0120115
0.0115164
0.0109913
0.00750576
0.00260372
-0.000831892
0.000407488
0.00274959
0.00723143
0.0121165
0.0159261
0.0182657
0.0159371
0.0142881
0.00924225
0.00370446
-0.00171733
-0.00605581
-0.00422717
0.0168266
0.0176953
0.0174431
0.015487
0.013359
0.013237
0.0133712
0.0110701
0.00695365
0.00350865
0.0038799
0.00515569
0.00864966
0.0127415
0.0161809
0.0179586
0.0157789
0.0136695
0.0103394
0.00646144
0.00100407
-0.00351581
-0.00272401
0.0173283
0.0180865
0.0179934
0.0164887
0.0148323
0.0149414
0.0153881
0.0138569
0.0103637
0.00703135
0.006795
0.00727249
0.00993417
0.0133061
0.0163929
0.0177511
0.0158038
0.0133317
0.0114425
0.00893895
0.0034494
-0.00129795
-0.00141158
0.0178007
0.0184551
0.018501
0.0174617
0.0162674
0.0165158
0.0170337
0.0159499
0.0129465
0.00982544
0.00919448
0.00910464
0.0110817
0.0138075
0.0165512
0.0175971
0.0159349
0.013245
0.0124486
0.0109894
0.00551461
0.000560421
-0.000319029
0.0182362
0.018792
0.0189395
0.0183109
0.0175266
0.0178501
0.0183013
0.0174569
0.0148479
0.0120024
0.0111391
0.0106656
0.0120906
0.0142437
0.0166492
0.017458
0.0160965
0.0133589
0.0132804
0.0125242
0.00713704
0.00204945
0.000543255
0.018628
0.01909
0.019298
0.0189881
0.0185266
0.0188762
0.0192027
0.0184899
0.0162155
0.0136744
0.0126944
0.0119738
0.0129611
0.0146142
0.0166859
0.0173063
0.016228
0.0136102
0.0138981
0.013528
0.00830524
0.00318699
0.00118327
0.0189717
0.0193442
0.0195764
0.0194866
0.0192479
0.0195867
0.0197802
0.0191537
0.0171763
0.0149393
0.0139224
0.0130512
0.0136963
0.01492
0.0166651
0.0171269
0.0162903
0.0139404
0.0143003
0.014055
0.00905762
0.00401264
0.00162497
0.0192649
0.0195537
0.0197809
0.0198281
0.019722
0.0200238
0.0200989
0.0195408
0.0178299
0.0158766
0.0148803
0.0139208
0.0143016
0.0151629
0.0165945
0.0169154
0.0162656
0.0142691
0.0145047
0.0142007
0.00946605
0.00457785
0.00190289
0.0195078
0.0197191
0.0199194
0.0200484
0.0200009
0.0202499
0.0202286
0.0197276
0.0182522
0.0165497
0.0156179
0.0146056
0.0147857
0.0153457
0.0164825
0.0166744
0.0161525
0.0145225
0.0145306
0.0140668
0.00961331
0.00493607
0.00205551
0.0198426
0.0200009
0.0201837
0.0201323
0.0203248
0.0202296
0.0197739
0.0185017
0.0170083
0.0159502
0.0151254
0.0151592
0.0154716
0.0163369
0.0164092
0.0159595
0.0146487
0.0143975
0.0137394
0.00957483
0.0051354
0.0021187
0.0199287
0.0200297
0.0200583
0.0201512
0.0202969
0.0201472
0.0197249
0.0186253
0.0173189
0.0163587
0.0155216
0.0154351
0.0155448
0.016164
0.0161247
0.0156995
0.014628
0.0141296
0.0132845
0.00940956
0.00521555
0.00212172
0.0199831
0.0200352
0.0200675
0.0201116
0.0202034
0.0200132
0.0196136
0.0186583
0.017513
0.016635
0.0158095
0.0156257
0.0155698
0.0159691
0.0158254
0.0153889
0.0144632
0.0137565
0.0127512
0.00915983
0.00520786
0.00208603
0.0200102
0.0200184
0.020034
0.0200325
0.0200697
0.0198489
0.0194638
0.0186266
0.0176163
0.0168072
0.0160054
0.0157428
0.0155516
0.015757
0.0155156
0.0150426
0.0141694
0.0133116
0.0121769
0.00885541
0.00513642
0.00202625
0.0200137
0.0199823
0.0199707
0.0199278
0.0199129
0.0196683
0.0192915
0.0185494
0.0176496
0.0168988
0.0161241
0.0157973
0.0154958
0.0155314
0.0151997
0.0146752
0.0138227
0.0128294
0.0115902
0.00851786
0.00501986
0.0019521
0.0199969
0.0199303
0.0198876
0.0198069
0.0197441
0.0194807
0.0191077
0.0184407
0.0176302
0.0169275
0.0161762
0.0157994
0.0154083
0.0152961
0.0148815
0.0142918
0.0134347
0.0123349
0.011012
0.0081635
0.00487271
0.00187004
0.0199631
0.0198653
0.0197911
0.0196765
0.0195708
0.0192921
0.0189197
0.0183109
0.0175716
0.0169078
0.0161827
0.0157593
0.0152947
0.0150546
0.0145646
0.0139101
0.0130265
0.0118459
0.0104562
0.00780475
0.00470624
0.0017845
0.019915
0.0197902
0.0196861
0.0195413
0.0193977
0.0191061
0.0187322
0.0181678
0.0174842
0.0168513
0.0161484
0.0156846
0.0151602
0.0148101
0.0142514
0.0135341
0.0126142
0.0113735
0.00993187
0.00745095
0.00452924
0.0016986
0.0198552
0.0197073
0.0195758
0.0194045
0.019228
0.0189251
0.0185481
0.0180169
0.0173762
0.0167674
0.0160817
0.0155823
0.0150094
0.014565
0.0139441
0.0131686
0.0122092
0.0109248
0.00944367
0.00710884
0.00434848
0.00161457
0.019786
0.0196188
0.0194628
0.0192685
0.0190635
0.0187503
0.0183693
0.0178623
0.0172543
0.016663
0.0159906
0.0154592
0.0148467
0.0143221
0.0136452
0.012817
0.0118186
0.0105033
0.00899365
0.00678314
0.00416914
0.00153398
0.0197094
0.0195262
0.019349
0.0191348
0.0189051
0.0185828
0.0181971
0.0177071
0.0171232
0.0165441
0.0158814
0.015321
0.014676
0.0140837
0.0133566
0.0124819
0.0114469
0.0101109
0.00858197
0.00647694
0.00399505
0.00145791
0.0196273
0.0194312
0.0192356
0.0190045
0.0187537
0.0184229
0.0180321
0.0175535
0.0169872
0.0164156
0.0157597
0.0151734
0.0145011
0.0138517
0.0130799
0.0121648
0.0110969
0.00974782
0.00820767
0.00619214
0.00382892
0.00138705
0.0195416
0.019335
0.019124
0.0188784
0.0186097
0.0182711
0.0178749
0.0174035
0.0168494
0.0162816
0.01563
0.0150207
0.0143249
0.0136278
0.0128168
0.0118671
0.0107703
0.00941392
0.00786912
0.00592974
0.00367261
0.00132176
0.0194537
0.019239
0.019015
0.0187573
0.0184733
0.0181275
0.017726
0.0172583
0.0167124
0.0161456
0.0154964
0.0148663
0.0141503
0.0134135
0.0125683
0.0115894
0.0104678
0.00910851
0.00756438
0.00569004
0.00352735
0.00126217
0.0193654
0.0191443
0.0189097
0.0186418
0.0183449
0.0179924
0.0175856
0.0171194
0.0165786
0.0160106
0.015362
0.0147135
0.0139799
0.0132102
0.0123355
0.0113323
0.01019
0.00883075
0.00729142
0.00547289
0.00339387
0.00120825
0.0192782
0.0190523
0.0188089
0.0185325
0.0182248
0.0178661
0.0174543
0.0169877
0.0164496
0.0158791
0.0152297
0.014565
0.013816
0.0130192
0.0121194
0.011096
0.0099367
0.00857977
0.00704825
0.00527783
0.00327254
0.00115988
0.0191935
0.018964
0.0187135
0.0184301
0.0181134
0.0177491
0.0173325
0.0168643
0.0163274
0.0157532
0.0151021
0.0144232
0.0136607
0.0128417
0.0119207
0.0108809
0.00970798
0.00835473
0.00683305
0.0051042
0.00316346
0.00111689
0.0191128
0.0188807
0.0186245
0.0183354
0.0180112
0.0176418
0.0172209
0.0167503
0.0162132
0.0156349
0.0149814
0.0142904
0.0135162
0.0126788
0.0117402
0.0106871
0.00950365
0.0081549
0.00664422
0.00495129
0.00306661
0.00107906
0.0190374
0.0188036
0.0185429
0.0182491
0.0179188
0.0175449
0.0171199
0.0166466
0.0161086
0.0155261
0.0148697
0.0141684
0.013384
0.0125318
0.0115787
0.010515
0.00932359
0.0079797
0.0064804
0.00481837
0.00298186
0.00104621
0.0189689
0.0187338
0.0184697
0.0181722
0.0178368
0.017459
0.0170305
0.0165543
0.0160149
0.0154283
0.0147689
0.014059
0.013266
0.0124018
0.011437
0.0103651
0.00916774
0.00782872
0.00634054
0.00470479
0.00290905
0.00101814
0.0189085
0.0186726
0.0184059
0.0181054
0.017766
0.0173849
0.0169534
0.0164745
0.0159335
0.0153431
0.0146809
0.0139638
0.0131637
0.01229
0.011316
0.0102377
0.00903623
0.00770176
0.00622385
0.00461006
0.00284807
0.000994726
0.0188576
0.0186212
0.0183526
0.0180498
0.0177073
0.0173235
0.0168895
0.0164082
0.0158657
0.0152721
0.0146073
0.0138845
0.0130787
0.0121977
0.0112166
0.0101335
0.00892934
0.00759886
0.00612992
0.00453384
0.00279887
0.000975862
0.0188176
0.0185809
0.0183109
0.0180065
0.0176618
0.0172759
0.01684
0.0163566
0.0158128
0.0152166
0.0145497
0.0138226
0.0130126
0.0121262
0.01114
0.0100535
0.0088476
0.00752033
0.00605863
0.00447603
0.00276153
0.000961513
0.0187897
0.0185529
0.018282
0.0179765
0.0176303
0.017243
0.0168057
0.016321
0.0157762
0.0151782
0.0145097
0.0137797
0.0129669
0.0120769
0.0110874
0.00999865
0.00879182
0.00746676
0.0060103
0.00443679
0.00273628
0.0009517
0.0187752
0.0185382
0.018267
0.0179609
0.017614
0.0172259
0.016788
0.0163025
0.0157573
0.0151582
0.0144891
0.0137574
0.0129433
0.0120512
0.0110603
0.00997026
0.00876326
0.00743912
0.00598568
0.00441658
0.00272356
0.000946558
0.0185978
0.0182656
0.0178963
0.0174858
0.0170396
0.0165524
0.01603
0.0154663
0.0148651
0.0142193
0.0135302
0.0127898
0.0119985
0.0111462
0.0102379
0.00925958
0.00822693
0.00712042
0.00596568
0.0047389
0.00346648
0.00212621
0.000735828
0.0186157
0.0182825
0.0179124
0.0175007
0.0170537
0.0165657
0.016043
0.015479
0.014878
0.0142326
0.013544
0.0128041
0.0120132
0.0111609
0.0102525
0.0092732
0.00824
0.00713166
0.00597624
0.00474731
0.00347362
0.00213045
0.000737747
0.0186504
0.0183154
0.0179435
0.0175296
0.0170809
0.0165912
0.0160678
0.0155034
0.0149027
0.0142582
0.0135706
0.0128319
0.0120417
0.0111896
0.0102808
0.00929971
0.00826509
0.00715359
0.00599638
0.00476398
0.00348721
0.00213942
0.000741234
0.0187007
0.018363
0.0179884
0.0175713
0.0171201
0.016628
0.0161034
0.0155386
0.0149384
0.0142953
0.013609
0.0128723
0.012083
0.0112314
0.0103219
0.00933827
0.00830148
0.00718539
0.00602566
0.00478843
0.00350721
0.00215305
0.000746282
0.0187658
0.0184246
0.0180462
0.0176247
0.0171701
0.0166748
0.0161488
0.0155834
0.014984
0.0143429
0.0136585
0.0129246
0.0121365
0.0112857
0.0103752
0.00938813
0.00834847
0.00722637
0.00606365
0.00482034
0.00353363
0.00217137
0.000752976
0.0188449
0.0184991
0.0181159
0.0176887
0.0172299
0.0167304
0.0162027
0.0156368
0.0150386
0.0144002
0.0137183
0.0129882
0.0122015
0.011352
0.01044
0.00944863
0.00840542
0.00727584
0.00610993
0.00485947
0.00356658
0.00219465
0.000761439
0.0189373
0.0185858
0.0181966
0.0177622
0.0172982
0.0167937
0.0162641
0.0156976
0.0151011
0.0144664
0.0137876
0.0130624
0.0122775
0.0114298
0.0105158
0.00951912
0.00847165
0.00733306
0.00616411
0.00490561
0.00360632
0.00222329
0.000771839
0.0190424
0.0186839
0.0182873
0.017844
0.0173737
0.0168631
0.0163316
0.0157648
0.0151707
0.0145405
0.0138658
0.0131468
0.0123639
0.0115187
0.0106022
0.00959895
0.00854644
0.00739721
0.00622575
0.00495858
0.00365336
0.0022579
0.0007844
0.0191598
0.0187927
0.018387
0.017933
0.0174551
0.0169373
0.0164038
0.0158369
0.0152463
0.0146219
0.0139523
0.0132409
0.0124604
0.0116187
0.0106985
0.00968743
0.00862901
0.00746735
0.00629437
0.00501824
0.00370839
0.00229928
0.000799429
0.019289
0.0189116
0.0184948
0.0180278
0.017541
0.0170147
0.0164794
0.0159128
0.015327
0.0147098
0.0140465
0.0133444
0.0125666
0.0117296
0.0108044
0.00978381
0.00871841
0.00754234
0.00636933
0.00508444
0.00377242
0.00234841
0.000817336
0.0194298
0.0190398
0.0186095
0.018127
0.0176297
0.0170936
0.0165569
0.0159912
0.0154116
0.0148034
0.0141479
0.0134568
0.0126821
0.0118514
0.0109192
0.00988721
0.00881354
0.0076208
0.00644983
0.00515701
0.00384673
0.00240652
0.00083867
0.0195818
0.0191767
0.0187301
0.0182289
0.0177192
0.0171723
0.0166344
0.0160706
0.0154993
0.014902
0.0142561
0.0135779
0.0128066
0.011984
0.0110423
0.00999657
0.008913
0.00770101
0.00653474
0.00523575
0.00393297
0.00247508
0.000864162
0.019745
0.0193215
0.018855
0.0183317
0.0178072
0.0172479
0.0167101
0.0161497
0.0155911
0.0150049
0.0143706
0.013707
0.01294
0.0121277
0.0111729
0.0101106
0.00901503
0.00778082
0.00662259
0.00532044
0.00403312
0.00255577
0.000894784
0.019919
0.0194731
0.0189826
0.0184329
0.0178921
0.0173184
0.0167819
0.0162264
0.015682
0.0151111
0.0144909
0.0138437
0.0130818
0.0122824
0.0113098
0.0102277
0.00911739
0.00785744
0.00671137
0.00541079
0.00414956
0.00265045
0.000931803
0.0201038
0.0196305
0.0191106
0.0185298
0.0179704
0.0173809
0.016847
0.016299
0.015773
0.0152226
0.0146164
0.0139872
0.0132316
0.012448
0.0114516
0.0103457
0.00921727
0.00792738
0.00679833
0.00550642
0.00428508
0.00276113
0.000976847
0.0202989
0.0197921
0.0192367
0.0186192
0.0180379
0.0174318
0.0169028
0.0163652
0.0158626
0.0153335
0.0147457
0.0141361
0.0133888
0.0126244
0.0115965
0.010462
0.00931113
0.00798633
0.00687994
0.00560654
0.00444277
0.00289005
0.00103204
0.0205037
0.0199559
0.0193575
0.0186968
0.0180907
0.017467
0.0169457
0.0164228
0.0159493
0.0154456
0.0148777
0.0142887
0.0135523
0.0128107
0.0117419
0.010573
0.00939448
0.00802898
0.00695164
0.0057102
0.00462527
0.00303836
0.00109996
0.0207174
0.020119
0.0194691
0.018758
0.0181237
0.017482
0.016972
0.016469
0.0160316
0.0155576
0.0150106
0.0144426
0.0137203
0.0130056
0.0118844
0.0106739
0.00946166
0.00804878
0.00700778
0.00581685
0.00483605
0.00320796
0.00118351
0.0209385
0.0202779
0.019566
0.0187966
0.0181313
0.0174714
0.0169772
0.0165007
0.0161078
0.0156681
0.0151418
0.0145939
0.01389
0.0132064
0.0120191
0.0107582
0.00950545
0.00803782
0.00704184
0.00592512
0.00507666
0.00339737
0.00128585
0.0211644
0.0204273
0.0196417
0.018805
0.0181063
0.017429
0.0169563
0.0165147
0.0161757
0.0157752
0.0152675
0.014737
0.0140566
0.0134087
0.01214
0.010817
0.0095167
0.00798626
0.00704629
0.00603329
0.00534821
0.00360421
0.00141036
0.0213916
0.0205603
0.0196879
0.0187735
0.01804
0.0173479
0.0169035
0.0165071
0.0162331
0.0158765
0.0153827
0.0148638
0.0142131
0.0136058
0.0122385
0.0108387
0.0094839
0.00788188
0.00701393
0.0061397
0.00565053
0.00382291
0.00155998
0.0216149
0.0206677
0.0196935
0.0186916
0.0179237
0.0172201
0.0168126
0.0164739
0.0162775
0.0159693
0.0154811
0.0149621
0.0143479
0.013787
0.0123034
0.0108071