/*--------------------------------*- C++ -*----------------------------------*\
  =========                 |
  \\      /  F ield         | OpenFOAM: The Open Source CFD Toolbox
   \\    /   O peration     | Website:  https://openfoam.org
    \\  /    A nd           | Version:  7
     \\/     M anipulation  |
\*---------------------------------------------------------------------------*/
FoamFile
{
    version     2.0;
    format      ascii;
    class       volScalarField;
    location    "120";
    object      p;
}
// * * * * * * * * * * * * * * * * * * * * * * * * * * * * * * * * * * * * * //

dimensions      [0 2 -2 0 0 0 0];

internalField   nonuniform List<scalar> 
7156
(
0.249648
0.257042
0.264283
0.276885
0.271368
0.284147
0.278289
0.291236
0.285043
0.298148
0.291622
0.312372
0.304875
0.298023
0.319221
0.311412
0.304239
0.325864
0.317752
0.310265
0.332296
0.323891
0.316096
0.346949
0.338511
0.329822
0.321727
0.353254
0.344503
0.33554
0.327152
0.359317
0.350266
0.341039
0.332368
0.365135
0.355794
0.346314
0.337368
0.370701
0.361083
0.351359
0.34215
0.385939
0.376009
0.366127
0.356172
0.346708
0.391251
0.381055
0.370921
0.360745
0.351038
0.396282
0.385833
0.37546
0.365075
0.355136
0.401026
0.390339
0.37974
0.369158
0.358999
0.405478
0.394568
0.383757
0.37299
0.362623
0.409636
0.398515
0.387507
0.376566
0.366004
0.413493
0.402177
0.390985
0.379884
0.369139
0.428656
0.417046
0.405551
0.394189
0.382939
0.372025
0.432073
0.420291
0.408631
0.397115
0.385729
0.37466
0.435163
0.423225
0.411417
0.399759
0.388251
0.377041
0.437922
0.425845
0.413903
0.40212
0.390502
0.379166
0.440347
0.428147
0.416089
0.404195
0.392481
0.381032
0.442436
0.430131
0.417971
0.405982
0.394184
0.382638
0.444187
0.431792
0.419547
0.407478
0.39561
0.383982
0.445597
0.43313
0.420816
0.408683
0.396758
0.385063
0.446664
0.434143
0.421777
0.409594
0.397626
0.385881
0.447389
0.43483
0.422428
0.410211
0.398213
0.386434
0.447769
0.43519
0.422768
0.410533
0.398519
0.38672
0.447804
0.435222
0.422797
0.410559
0.398543
0.386739
0.447494
0.434927
0.422515
0.41029
0.398285
0.386492
0.446839
0.434303
0.421922
0.409725
0.397744
0.385978
0.445839
0.433353
0.421019
0.408865
0.396922
0.385199
0.444496
0.432076
0.419805
0.407711
0.39582
0.384155
0.44281
0.430474
0.418282
0.406263
0.394437
0.382846
0.440784
0.428548
0.416452
0.404523
0.392776
0.381274
0.438418
0.4263
0.414316
0.402492
0.390837
0.37944
0.435716
0.423732
0.411876
0.400173
0.388623
0.377346
0.432679
0.420846
0.409135
0.397567
0.386136
0.374993
0.429311
0.417646
0.406094
0.394677
0.383378
0.372383
0.425615
0.414134
0.402758
0.391506
0.380351
0.369519
0.421594
0.410313
0.399128
0.388056
0.377058
0.366403
0.406187
0.395209
0.384331
0.373503
0.363038
0.401761
0.391003
0.380334
0.369688
0.359427
0.397038
0.386516
0.376069
0.365618
0.355573
0.392023
0.381751
0.37154
0.361295
0.351479
0.38672
0.376713
0.366751
0.356725
0.34715
0.381135
0.371406
0.361707
0.351911
0.342588
0.375274
0.365836
0.356413
0.346858
0.337798
0.360007
0.350873
0.34157
0.332783
0.353926
0.345092
0.336052
0.327549
0.347597
0.339076
0.33031
0.3221
0.341028
0.332831
0.324348
0.31644
0.334223
0.326361
0.318173
0.310575
0.319674
0.311789
0.304508
0.312774
0.305202
0.298246
0.305669
0.298419
0.291794
0.298365
0.291445
0.285157
0.284286
0.27834
0.276948
0.271349
0.269438
0.26419
0.261762
0.256867
0.249388
0.241756
0.233978
0.114643
0.115322
0.116659
0.118561
0.120983
0.123875
0.1272
0.130919
0.134994
0.139384
0.144039
0.148904
0.153911
0.158983
0.164016
0.168902
0.173491
0.177634
0.181125
0.183772
0.185297
0.185483
0.183952
0.180528
0.174651
0.166384
0.15461
0.114015
0.114671
0.115959
0.117791
0.120118
0.122888
0.126061
0.129596
0.133449
0.137574
0.141916
0.146415
0.150994
0.15557
0.160034
0.164271
0.168128
0.171454
0.174045
0.175714
0.176197
0.175294
0.172665
0.168163
0.161301
0.15217
0.139894
0.113341
0.113972
0.115208
0.116965
0.119189
0.12183
0.124842
0.128183
0.131804
0.135654
0.139673
0.143796
0.147942
0.152021
0.155921
0.159523
0.162676
0.165228
0.166984
0.167769
0.167337
0.165518
0.162004
0.156701
0.149195
0.139644
0.127411
0.112619
0.113224
0.114405
0.116082
0.118199
0.120704
0.12355
0.126689
0.130069
0.133635
0.137324
0.141064
0.144769
0.148348
0.151684
0.154657
0.157117
0.158918
0.159873
0.159821
0.158538
0.155879
0.151582
0.145586
0.13757
0.127706
0.115561
0.111849
0.112425
0.11355
0.115144
0.11715
0.119515
0.122188
0.125119
0.128253
0.131532
0.134885
0.13824
0.141506
0.144589
0.147371
0.149733
0.151528
0.152617
0.152824
0.152003
0.149956
0.146561
0.141604
0.135049
0.12666
0.116596
0.104566
0.11103
0.111577
0.112643
0.114151
0.116042
0.118262
0.120759
0.123478
0.126362
0.129348
0.132365
0.135336
0.138167
0.140764
0.143009
0.144785
0.145951
0.146376
0.145898
0.144388
0.141675
0.13766
0.132173
0.125199
0.116576
0.106445
0.094625
0.110161
0.110679
0.111683
0.113103
0.114876
0.116948
0.119264
0.121767
0.124398
0.127091
0.129772
0.132361
0.134765
0.136888
0.138615
0.139833
0.14041
0.140221
0.139125
0.137006
0.133721
0.129193
0.123295
0.116028
0.107288
0.0972094
0.0856915
0.109243
0.10973
0.110672
0.112
0.113653
0.115573
0.117705
0.11999
0.122366
0.124765
0.127112
0.129325
0.131312
0.132976
0.134209
0.1349
0.134928
0.134179
0.132528
0.129876
0.126108
0.121166
0.114962
0.107508
0.0987506
0.0888156
0.0776628
0.108276
0.10873
0.109608
0.110843
0.112372
0.114139
0.116084
0.11815
0.120271
0.122378
0.124394
0.126239
0.12782
0.129045
0.129808
0.130006
0.129527
0.128271
0.126129
0.123019
0.118852
0.113586
0.107167
0.0996182
0.0909238
0.0812027
0.0704568
0.107259
0.107681
0.108493
0.109633
0.111037
0.112647
0.114406
0.116251
0.118117
0.119935
0.121627
0.123114
0.124305
0.125109
0.12543
0.12517
0.124229
0.122519
0.119949
0.116452
0.111962
0.106454
0.0999003
0.092335
0.0837696
0.0743163
0.0640067
0.106192
0.106581
0.107327
0.10837
0.109648
0.111101
0.112671
0.114297
0.115911
0.117445
0.118821
0.11996
0.120777
0.121185
0.121091
0.12041
0.119053
0.116941
0.114002
0.110185
0.105443
0.0997664
0.0931482
0.0856315
0.0772482
0.0681033
0.0582499
0.105077
0.105432
0.106111
0.107057
0.108206
0.109502
0.110885
0.112293
0.113659
0.114914
0.115983
0.116789
0.11725
0.117284
0.116809
0.115744
0.114013
0.111551
0.108301
0.104225
0.0992955
0.0935144
0.0868923
0.0794781
0.071319
0.0625121
0.0531254
0.103913
0.104234
0.104845
0.105693
0.106715
0.107854
0.109051
0.110243
0.111366
0.11235
0.113123
0.113611
0.113736
0.113423
0.112595
0.111184
0.109123
0.106361
0.102854
0.0985762
0.0935164
0.0876869
0.0811119
0.0738441
0.0659412
0.0574925
0.0485754
0.102701
0.102988
0.103532
0.104281
0.105176
0.106159
0.107172
0.108153
0.109039
0.109761
0.11025
0.110436
0.110246
0.109611
0.108464
0.106743
0.104396
0.10138
0.097665
0.0932378
0.088099
0.0822697
0.0757844
0.068698
0.061075
0.0529968
0.0445459
0.101443
0.101695
0.102172
0.102823
0.103591
0.104421
0.105253
0.106028
0.106683
0.107154
0.107373
0.107274
0.106791
0.105862
0.104426
0.102433
0.0998388
0.0966132
0.092737
0.0882069
0.0830341
0.0772464
0.070886
0.0640082
0.0566817
0.0489796
0.0409871
0.100139
0.100357
0.100767
0.101321
0.101964
0.102642
0.103297
0.103872
0.104306
0.104535
0.104499
0.104134
0.103381
0.102184
0.100491
0.0982605
0.0954589
0.0920648
0.0880695
0.0834782
0.0783106
0.0725994
0.066392
0.0597435
0.0527238
0.0453986
0.0378529
0.0987916
0.0989753
0.0993183
0.0997767
0.100297
0.100827
0.10131
0.101692
0.101912
0.101914
0.101637
0.101026
0.100025
0.098587
0.0966679
0.094234
0.0912611
0.0877364
0.0836601
0.0790443
0.0739155
0.0683097
0.0622779
0.0558733
0.049166
0.042214
0.035101
0.0974014
0.0975514
0.0978289
0.0981931
0.0985935
0.0989786
0.099296
0.0994915
0.0995099
0.0992959
0.0987954
0.0979566
0.0967319
0.0950791
0.0929633
0.0903582
0.087248
0.0836276
0.0795044
0.0748963
0.0698347
0.0643581
0.0585188
0.0523682
0.0459746
0.0393891
0.0326925
0.0959704
0.0960873
0.0963006
0.0965727
0.0968561
0.0971015
0.097259
0.0972771
0.0971039
0.0966881
0.0959802
0.094934
0.093508
0.0916667
0.0893827
0.0866368
0.0834209
0.0797362
0.0755964
0.0710238
0.0660535
0.0607248
0.0550907
0.0491998
0.043118
0.0368896
0.030592
0.0945006
0.0945851
0.0947358
0.0949184
0.0950885
0.0951994
0.0952039
0.0950537
0.0947005
0.094097
0.0931987
0.0919648
0.0903601
0.0883555
0.0859303
0.0830722
0.0797794
0.0760588
0.071929
0.0674157
0.0625562
0.0573903
0.0519701
0.0463412
0.0405665
0.0346841
0.0287673
0.0929941
0.0930471
0.0931371
0.0932332
0.0932941
0.0932763
0.0931354
0.0928265
0.0923052
0.0915285
0.090457
0.0890552
0.0872938
0.0851499
0.0826092
0.0796652
0.0763218
0.0725906
0.0684939
0.0640599
0.0593271
0.054335
0.0491341
0.0437668
0.0382925
0.0327435
0.027189
0.0914534
0.0914759
0.0915073
0.09152
0.0914765
0.0913362
0.0910581
0.0906006
0.0899236
0.0889884
0.0877607
0.0862103
0.0843136
0.0820534
0.0794211
0.0764156
0.0730452
0.0693256
0.065282
0.0609439
0.0563505
0.05154
0.0465611
0.0414527
0.0362704
0.0310415
0.0258304
0.0898809
0.089874
0.0898491
0.0897822
0.0896394
0.0893833
0.0889764
0.0883809
0.0875607
0.086482
0.085115
0.0834348
0.0814233
0.0790686
0.0763669
0.0733219
0.0699459
0.0662574
0.0622837
0.0580552
0.0536107
0.048987
0.0442303
0.0393763
0.0344765
0.0295535
0.0246675
0.0882792
0.0882442
0.0881657
0.0880232
0.0877863
0.0874215
0.0868947
0.0861721
0.0852216
0.0840139
0.0825243
0.0807327
0.0786259
0.0761968
0.0734464
0.070382
0.0670191
0.0633786
0.059489
0.0553809
0.0510923
0.0466582
0.0421222
0.0375165
0.0328888
0.0282575
0.0236784
0.0866512
0.0865895
0.0864602
0.0862462
0.0859212
0.0854551
0.0848175
0.0839786
0.0829106
0.0815886
0.0799925
0.078107
0.0759234
0.073439
0.0706585
0.0675927
0.0642595
0.0606814
0.0568875
0.0529083
0.0487804
0.0445368
0.0402182
0.0358537
0.0314872
0.0271331
0.0228433
0.0849999
0.084913
0.0847358
0.0844549
0.0840476
0.0834878
0.0827488
0.0818047
0.0806319
0.07921
0.0775231
0.0755604
0.0733173
0.070795
0.0680016
0.0649503
0.0616611
0.0581576
0.0544689
0.0506249
0.0466604
0.0426066
0.0385011
0.0343699
0.0302531
0.0261621
0.0221446
0.0833282
0.0832177
0.0829959
0.0826527
0.0821694
0.0815237
0.0806927
0.0796544
0.0783895
0.0768815
0.0751188
0.0730947
0.0708083
0.0682641
0.0654731
0.0624505
0.0592178
0.0557989
0.0522228
0.0485183
0.0447186
0.0408523
0.0369545
0.033048
0.0291696
0.0253276
0.021566
0.0816394
0.081507
0.0812437
0.0808431
0.0802902
0.0795665
0.078653
0.0775315
0.0761866
0.074606
0.0727819
0.0707113
0.0683965
0.0658451
0.0630701
0.0600886
0.0569227
0.0535968
0.0501389
0.0465767
0.0429415
0.0392597
0.0355633
0.0318727
0.0282212
0.0246145
0.0210932
0.0799368
0.0797841
0.0794828
0.0790297
0.0784137
0.07762
0.0766333
0.0754394
0.0740265
0.0723862
0.0705143
0.0684109
0.0660815
0.063536
0.0607892
0.0578594
0.0547692
0.0515427
0.0482071
0.0447887
0.0413166
0.0378151
0.0343135
0.0308296
0.0273935
0.024009
0.0207132
0.0782236
0.0780525
0.0777166
0.077216
0.0765434
0.0756876
0.0746371
0.0733812
0.0719119
0.0702241
0.068317
0.0661938
0.0638623
0.0613345
0.0586266
0.0557576
0.0527504
0.0496283
0.0464177
0.0431431
0.0398318
0.0365059
0.0331919
0.0299055
0.0266738
0.0234987
0.0204142
0.0765033
0.0763155
0.0759485
0.0754055
0.0746828
0.0737728
0.0726675
0.0713598
0.0698451
0.0681215
0.0661912
0.0640598
0.0617376
0.0592379
0.0565781
0.0537777
0.0508591
0.0478452
0.044761
0.0416296
0.038476
0.0353203
0.0321866
0.0290884
0.0260503
0.0230723
0.0201858
0.0747792
0.0745765
0.0741819
0.0736015
0.0728352
0.0718787
0.0707275
0.0693778
0.0678282
0.0660797
0.0641371
0.0620084
0.0597056
0.0572433
0.0546395
0.0519139
0.0490885
0.0461854
0.0432281
0.0402381
0.0372384
0.0342473
0.0312864
0.0283673
0.0255121
0.0227197
0.0200186
0.0730547
0.072839
0.0724203
0.0718075
0.0710038
0.0700084
0.0688199
0.0674375
0.0658628
0.0640995
0.0621549
0.0600387
0.0577643
0.0553474
0.0528063
0.0501607
0.0474319
0.044641
0.0418101
0.0389591
0.0361092
0.0332766
0.030481
0.027732
0.0250497
0.0224317
0.0199042
0.0713333
0.0711063
0.0706669
0.0700267
0.0691919
0.0681648
0.066947
0.0655409
0.0639504
0.0621818
0.0602442
0.0581493
0.0559113
0.0535467
0.0510739
0.0485122
0.0458824
0.0432043
0.0404987
0.0377839
0.0350791
0.0323989
0.0297609
0.0271734
0.0246543
0.0222002
0.019835
0.0696183
0.0693817
0.0689251
0.0682622
0.0674022
0.0663504
0.0651113
0.0636896
0.062092
0.0603268
0.0584047
0.0563387
0.0541441
0.0518376
0.0494376
0.046963
0.0444336
0.0418682
0.0392861
0.036704
0.0341394
0.0316054
0.0291177
0.0266832
0.0243178
0.0220176
0.0198044
0.0679129
0.0676686
0.067198
0.0665171
0.0656376
0.0645678
0.0633146
0.0618853
0.0602885
0.0585345
0.0566354
0.0546053
0.05246
0.0502165
0.0478929
0.0455076
0.0430793
0.0406257
0.0381647
0.0357115
0.0332822
0.0308881
0.0285433
0.0262535
0.0240331
0.0218774
0.0198064
0.0662206
0.0659701
0.0654886
0.0647941
0.0639007
0.0628192
0.0615588
0.0601291
0.0585405
0.0568047
0.0549353
0.0529471
0.0508562
0.0486796
0.0464352
0.0441404
0.0418133
0.0394701
0.0371275
0.0347993
0.0324999
0.0302395
0.0280305
0.0258777
0.0237937
0.0217737
0.0198356
0.0645443
0.0642894
0.0638
0.0630961
0.062194
0.0611067
0.0598456
0.058422
0.0568482
0.0551371
0.0533033
0.051362
0.0493297
0.0472232
0.0450599
0.0428565
0.0406298
0.0383952
0.0361679
0.0339605
0.0317858
0.0296529
0.0275729
0.0255494
0.0235939
0.021701
0.0198873
0.0628872
0.0626293
0.062135
0.0614257
0.0605197
0.0594321
0.0581761
0.0567649
0.0552118
0.053531
0.0517378
0.0498479
0.0478777
0.0458437
0.0437627
0.0416507
0.0395234
0.0373952
0.0352798
0.0331887
0.0311336
0.0291222
0.0271643
0.025263
0.0234283
0.0216548
0.0199574
0.0612522
0.0609927
0.0604962
0.0597853
0.05888
0.0577971
0.0565517
0.0551582
0.0536311
0.0519857
0.0502375
0.0484025
0.0464971
0.0445373
0.0425393
0.0405183
0.0384889
0.0364644
0.0344574
0.0324782
0.0305373
0.0286415
0.0267994
0.0250134
0.0232924
0.0216308
0.0200422
0.0596421
0.0593824
0.0588861
0.0581771
0.0572767
0.0562032
0.0549732
0.0536023
0.0521061
0.0505002
0.0488007
0.0470235
0.0451849
0.0433005
0.0413856
0.0394546
0.0375212
0.0355976
0.0336953
0.0318236
0.0299918
0.0282058
0.0264733
0.0247961
0.0231818
0.0216252
0.0201384
0.0580596
0.0578009
0.0573072
0.0566032
0.0557115
0.0546517
0.0534416
0.0520976
0.0506362
0.0490735
0.0474257
0.0457087
0.0439384
0.0421298
0.0402977
0.0384554
0.0366158
0.0347901
0.0329887
0.0312199
0.0294921
0.0278104
0.0261815
0.0246068
0.023093
0.0216348
0.0202432
0.0565071
0.0562506
0.0557617
0.0550657
0.0541861
0.0531437
0.0519573
0.0506441
0.049221
0.0477044
0.0461107
0.0444557
0.0427545
0.0410219
0.0392717
0.0375166
0.0357683
0.0340373
0.0323328
0.0306626
0.0290338
0.027451
0.0259201
0.0244419
0.0230225
0.0216566
0.0203541
0.054987
0.0547337
0.0542515
0.0535661
0.0527018
0.0516802
0.0505208
0.0492416
0.0478597
0.0463919
0.0448541
0.0432621
0.0416306
0.0399736
0.0383042
0.0366342
0.0349747
0.0333349
0.0317236
0.0301474
0.0286129
0.0271238
0.0256854
0.0242982
0.0229675
0.021688
0.0204689
0.0535016
0.0532524
0.0527786
0.0521061
0.0512598
0.0502619
0.0491326
0.04789
0.0465518
0.0451345
0.0436541
0.0421258
0.0405638
0.0389817
0.0373916
0.0358047
0.034231
0.0326793
0.0311571
0.0296707
0.0282256
0.0268254
0.0254743
0.0241727
0.0229253
0.0217269
0.0205858
0.0520527
0.0518085
0.0513446
0.0506871
0.0498612
0.0488896
0.0477926
0.0465891
0.0452964
0.043931
0.0425088
0.0410444
0.0395517
0.0380433
0.0365308
0.0350246
0.0335339
0.0320667
0.0306299
0.0292289
0.0278688
0.0265525
0.0252838
0.0240629
0.0228936
0.0217713
0.0207032
0.0506422
0.0504037
0.0499511
0.0493104
0.0485069
0.0475636
0.0465011
0.0453383
0.0440925
0.0427802
0.0414166
0.040016
0.0385917
0.0371556
0.0357188
0.0342907
0.03288
0.0314938
0.0301385
0.0288188
0.0275393
0.0263024
0.0251114
0.0239663
0.0228705
0.0218194
0.0208196
0.0492718
0.0490397
0.0485995
0.047977
0.0471976
0.0462844
0.045258
0.0441372
0.0429394
0.0416805
0.0403756
0.0390383
0.0376814
0.0363161
0.0349528
0.0336002
0.0322664
0.0309578
0.0296802
0.0284378
0.0272346
0.0260727
0.0249549
0.0238811
0.0228542
0.0218699
0.020934
0.047943
0.0477177
0.0472908
0.0466879
0.045934
0.0450521
0.044063
0.0429853
0.041836
0.0406309
0.0393843
0.0381095
0.0368186
0.0355222
0.0342301
0.0329503
0.0316903
0.0304558
0.0292522
0.0280831
0.0269521
0.025861
0.0248122
0.0238054
0.0228431
0.0219214
0.0210454
0.046657
0.046439
0.0460262
0.0454438
0.0447164
0.043867
0.0429161
0.041882
0.0407815
0.0396298
0.0384409
0.0372275
0.0360011
0.0347717
0.0335482
0.0323385
0.0311491
0.0299854
0.0288521
0.0277525
0.0266898
0.0256654
0.0246815
0.0237377
0.0228361
0.021973
0.0211529
0.045415
0.0452046
0.0448066
0.0442454
0.0435454
0.0427291
0.0418168
0.0408266
0.0397747
0.038676
0.0375439
0.0363906
0.0352269
0.0340622
0.0329051
0.0317625
0.0306405
0.0295442
0.0284776
0.0274439
0.0264456
0.0254842
0.0245614
0.0236767
0.022832
0.0220238
0.0212561
0.044218
0.0440154
0.0436325
0.0430931
0.042421
0.0416382
0.0407648
0.0398184
0.0388148
0.0377683
0.0366919
0.0355971
0.0344941
0.033392
0.0322984
0.0312201
0.0301625
0.0291302
0.0281269
0.0271554
0.026218
0.0253158
0.0244504
0.0236212
0.0228298
0.022073
0.0213542
0.0430668
0.0428722
0.0425047
0.0419874
0.0413434
0.0405943
0.0397597
0.0388567
0.0379007
0.0369054
0.0358833
0.0348452
0.033801
0.032759
0.0317264
0.0307094
0.0297131
0.0287416
0.0277982
0.0268855
0.0260054
0.025159
0.0243474
0.0235703
0.0228288
0.02212
0.021447
0.041962
0.0417756
0.0414236
0.0409285
0.0403126
0.0395972
0.038801
0.0379408
0.0370314
0.0360861
0.0351167
0.0341336
0.0331459
0.0321615
0.0311873
0.0302287
0.0292906
0.0283766
0.0274899
0.0266326
0.0258065
0.0250124
0.0242515
0.0235231
0.0228284
0.0221645
0.0215343
0.0409043
0.040726
0.0403895
0.0399165
0.0393287
0.0386464
0.0378881
0.0370699
0.0362061
0.0353094
0.0343909
0.0334607
0.0325273
0.0315981
0.0306793
0.0297763
0.0288934
0.0280339
0.0272006
0.0263955
0.0256202
0.0248753
0.0241617
0.0234789
0.0228279
0.0222061
0.0216158
0.039894
0.0397238
0.0394027
0.0389516
0.0383914
0.0377419
0.0370207
0.0362434
0.0354238
0.034574
0.0337047
0.0328252
0.0319437
0.0310671
0.0302012
0.0293509
0.0285202
0.0277121
0.0269291
0.0261731
0.0254454
0.0247465
0.0240774
0.0234373
0.0228271
0.0222445
0.0216914
0.0389315
0.0387692
0.0384633
0.0380338
0.0375007
0.0368831
0.036198
0.0354604
0.0346836
0.033879
0.0330569
0.032226
0.031394
0.0305674
0.0297516
0.0289511
0.0281696
0.0274099
0.0266743
0.0259644
0.0252813
0.0246256
0.0239979
0.0233977
0.0228257
0.0222796
0.0217612
0.0380169
0.0378624
0.0375714
0.0371629
0.0366563
0.0360697
0.0354195
0.0347203
0.0339846
0.0332234
0.0324464
0.0316618
0.0308768
0.0300976
0.0293292
0.0285758
0.0278406
0.0271265
0.0264353
0.0257685
0.0251272
0.0245118
0.0239229
0.0233599
0.0228233
0.0223113
0.0218252
0.0371504
0.0370036
0.036727
0.036339
0.0358579
0.0353012
0.0346848
0.0340225
0.0333262
0.0326064
0.0318722
0.0311316
0.0303912
0.0296568
0.0289331
0.0282239
0.0275323
0.0268608
0.0262112
0.0255848
0.0249825
0.0244047
0.0238519
0.0233235
0.02282
0.0223396
0.0218835
0.0363321
0.0361926
0.03593
0.0355617
0.0351052
0.0345774
0.0339933
0.0333662
0.0327074
0.032027
0.0313335
0.0306345
0.0299362
0.029244
0.0285622
0.0278945
0.0272438
0.0266122
0.0260014
0.0254126
0.0248467
0.0243039
0.0237846
0.0232885
0.0228156
0.0223646
0.0219364
0.035562
0.0354296
0.0351804
0.034831
0.0343981
0.0338978
0.0333445
0.0327508
0.0321277
0.0314845
0.0308295
0.0301696
0.0295109
0.0288582
0.0282158
0.0275869
0.0269743
0.0263799
0.0258053
0.0252515
0.0247194
0.0242091
0.023721
0.0232546
0.0228102
0.0223864
0.0219839
0.0348402
0.0347145
0.034478
0.0341466
0.0337362
0.033262
0.0327379
0.0321759
0.0315864
0.0309783
0.0303594
0.0297363
0.0291146
0.0284989
0.0278932
0.0273005
0.0267233
0.0261634
0.0256224
0.0251011
0.0246002
0.02412
0.0236607
0.0232219
0.0228038
0.0224051
0.0220264
0.0341665
0.0340472
0.0338229
0.0335085
0.0331193
0.0326698
0.0321732
0.031641
0.031083
0.0305078
0.0299226
0.0293338
0.0287466
0.0281653
0.0275937
0.0270345
0.0264902
0.0259623
0.0254523
0.024961
0.024489
0.0240365
0.0236038
0.0231904
0.0227965
0.0224209
0.0220641
0.0335411
0.0334278
0.0332148
0.0329165
0.0325472
0.0321209
0.03165
0.0311456
0.030617
0.0300724
0.0295187
0.0289617
0.0284064
0.027857
0.0273169
0.0267887
0.0262746
0.0257763
0.0252948
0.0248311
0.0243856
0.0239586
0.0235502
0.0231602
0.0227884
0.022434
0.0220972
0.0329639
0.0328563
0.0326539
0.0323705
0.0320198
0.031615
0.031168
0.0306894
0.0301881
0.0296718
0.0291471
0.0286194
0.0280936
0.0275736
0.0270624
0.0265626
0.0260763
0.025605
0.0251496
0.0247111
0.0242899
0.0238862
0.0235001
0.0231313
0.0227798
0.0224447
0.0221262
0.0324352
0.0323327
0.0321402
0.0318706
0.031537
0.0311521
0.0307272
0.0302723
0.0297961
0.0293058
0.0288076
0.0283068
0.027808
0.0273146
0.0268299
0.026356
0.025895
0.0254482
0.0250167
0.0246011
0.024202
0.0238194
0.0234534
0.0231039
0.0227707
0.0224532
0.0221513
0.0319551
0.0318574
0.0316739
0.0314169
0.031099
0.0307322
0.0303274
0.0298942
0.0294407
0.028974
0.0285
0.0280236
0.0275492
0.0270801
0.0266192
0.0261688
0.0257306
0.025306
0.0248959
0.024501
0.0241217
0.0237582
0.0234104
0.0230782
0.0227616
0.0224597
0.0221728
0.0315239
0.0314305
0.0312551
0.0310096
0.0307058
0.0303554
0.0299687
0.029555
0.0291221
0.0286767
0.0282243
0.0277698
0.0273172
0.0268699
0.0264304
0.0260009
0.0255831
0.0251783
0.0247874
0.0244109
0.0240493
0.0237027
0.0233712
0.0230545
0.0227525
0.0224647
0.022191
0.0311421
0.0310526
0.0308845
0.0306491
0.030358
0.0300221
0.0296515
0.0292551
0.0288404
0.0284138
0.0279806
0.0275455
0.0271122
0.026684
0.0262634
0.0258524
0.0254526
0.0250653
0.0246912
0.0243309
0.0239849
0.0236532
0.0233359
0.0230328
0.0227437
0.0224682
0.0222062
0.0308105
0.0307243
0.0305625
0.030336
0.0300559
0.0297327
0.0293762
0.0289949
0.028596
0.0281857
0.0277692
0.0273508
0.0269343
0.0265227
0.0261184
0.0257234
0.0253392
0.024967
0.0246074
0.0242612
0.0239286
0.0236098
0.0233048
0.0230135
0.0227356
0.0224707
0.0222187
0.0305299
0.0304466
0.0302902
0.0300712
0.0298004
0.029488
0.0291434
0.0287748
0.0283893
0.0279929
0.0275904
0.0271863
0.026784
0.0263864
0.0259959
0.0256144
0.0252433
0.0248837
0.0245365
0.0242021
0.0238808
0.0235729
0.0232782
0.0229967
0.0227282
0.0224723
0.0222287
0.0303016
0.0302205
0.0300685
0.0298557
0.0295925
0.0292889
0.028954
0.0285958
0.0282213
0.0278361
0.0274451
0.0270525
0.0266617
0.0262755
0.0258962
0.0255256
0.0251652
0.024816
0.0244787
0.0241538
0.0238418
0.0235426
0.0232563
0.0229828
0.0227219
0.0224732
0.0222365
0.0301269
0.0300477
0.029899
0.029691
0.0294336
0.0291367
0.0288093
0.0284591
0.0280928
0.0277162
0.027334
0.0269502
0.0265682
0.0261907
0.02582
0.0254578
0.0251055
0.0247641
0.0244344
0.0241168
0.0238118
0.0235193
0.0232394
0.022972
0.0227169
0.0224738
0.0222423
0.030008
0.0299299
0.0297836
0.0295788
0.0293254
0.0290331
0.0287107
0.0283659
0.0280054
0.0276346
0.0272584
0.0268806
0.0265046
0.026133
0.0257681
0.0254115
0.0250648
0.0247287
0.0244042
0.0240916
0.0237913
0.0235034
0.0232279
0.0229646
0.0227134
0.022474
0.0222461
0.029947
0.0298696
0.0297244
0.0295213
0.02927
0.0289801
0.0286603
0.0283183
0.0279606
0.0275929
0.0272197
0.026845
0.026472
0.0261034
0.0257415
0.0253879
0.0250439
0.0247106
0.0243887
0.0240787
0.0237808
0.0234952
0.0232219
0.0229607
0.0227116
0.022474
0.0222479
0.119196
0.119914
0.121377
0.123449
0.126126
0.129359
0.133137
0.137449
0.142289
0.147667
0.153581
0.160054
0.167085
0.174707
0.182915
0.191758
0.201227
0.211376
0.222191
0.233737
0.245981
0.259002
0.27274
0.287304
0.302561
0.318695
0.335425
0.353125
0.371104
0.119214
0.119933
0.121397
0.12347
0.126147
0.129381
0.13316
0.137473
0.142315
0.147695
0.15361
0.160085
0.167118
0.174742
0.182952
0.191797
0.201268
0.211419
0.222234
0.233781
0.246025
0.259046
0.272782
0.287343
0.302591
0.318709
0.335438
0.353129
0.371088
0.119228
0.119947
0.121412
0.123485
0.126163
0.129397
0.133177
0.137491
0.142334
0.147714
0.153631
0.160106
0.16714
0.174764
0.182972
0.191817
0.201285
0.211433
0.222244
0.233786
0.246019
0.259027
0.272743
0.287286
0.302511
0.318577
0.335287
0.352948
0.370862
0.119238
0.119957
0.121422
0.123495
0.126174
0.129409
0.133189
0.137503
0.142346
0.147726
0.153642
0.160117
0.16715
0.174772
0.182977
0.191817
0.201279
0.211419
0.222219
0.233748
0.245958
0.258943
0.272624
0.287137
0.302342
0.318433
0.335015
0.352588
0.370395
0.119243
0.119962
0.121427
0.123501
0.12618
0.129414
0.133195
0.137509
0.142352
0.147731
0.153645
0.160118
0.167148
0.174766
0.182965
0.191798
0.20125
0.211376
0.222158
0.233657
0.245841
0.258802
0.272483
0.286943
0.302059
0.318045
0.334551
0.352025
0.369695
0.119243
0.119963
0.121428
0.123501
0.12618
0.129415
0.133195
0.137508
0.14235
0.147727
0.153639
0.160109
0.167135
0.174746
0.182936
0.19176
0.201198
0.211304
0.222059
0.233514
0.245717
0.258632
0.272226
0.286616
0.301656
0.317539
0.333934
0.351275
0.368769
0.119239
0.119959
0.121423
0.123497
0.126176
0.12941
0.133189
0.137501
0.142341
0.147716
0.153624
0.16009
0.16711
0.174713
0.182892
0.191702
0.20112
0.211199
0.221936
0.233423
0.245509
0.258365
0.271892
0.286205
0.301148
0.316916
0.333165
0.350339
0.367617
0.11923
0.11995
0.121415
0.123488
0.126166
0.129399
0.133178
0.137488
0.142326
0.147697
0.1536
0.16006
0.167073
0.174667
0.182832
0.191624
0.201015
0.211084
0.221804
0.233196
0.245245
0.25804
0.271492
0.285711
0.300535
0.316164
0.33224
0.349216
0.366238
0.119217
0.119937
0.121401
0.123474
0.126152
0.129384
0.13316
0.137469
0.142303
0.14767
0.153568
0.160021
0.167025
0.174606
0.182755
0.191522
0.200903
0.210948
0.2216
0.232941
0.244938
0.257662
0.271021
0.28513
0.299816
0.315284
0.331158
0.347906
0.364634
0.1192
0.119919
0.121383
0.123455
0.126132
0.129363
0.133137
0.137443
0.142274
0.147635
0.153527
0.159972
0.166966
0.174533
0.182653
0.191401
0.200777
0.210758
0.221366
0.232658
0.244586
0.257224
0.270477
0.28446
0.298989
0.314274
0.329921
0.34641
0.362806
0.119178
0.119897
0.12136
0.123432
0.126107
0.129336
0.133108
0.137411
0.142237
0.147593
0.153477
0.159912
0.166895
0.174447
0.182527
0.191305
0.200598
0.210543
0.221104
0.232335
0.244183
0.256726
0.26986
0.283703
0.298057
0.313137
0.328529
0.34473
0.360756
0.119152
0.11987
0.121333
0.123403
0.126077
0.129304
0.133074
0.137373
0.142194
0.147544
0.153419
0.159843
0.166813
0.174339
0.182473
0.191135
0.200401
0.210306
0.220811
0.231972
0.243732
0.256169
0.269171
0.282858
0.297018
0.311872
0.326984
0.342866
0.358485
0.119121
0.119839
0.1213
0.12337
0.126042
0.129267
0.133034
0.137329
0.142144
0.147486
0.153351
0.159764
0.166722
0.174206
0.182316
0.190952
0.200186
0.210042
0.220484
0.231568
0.243231
0.255553
0.268411
0.281926
0.295874
0.310481
0.325286
0.34082
0.355996
0.119085
0.119803
0.121264
0.123332
0.126002
0.129225
0.132988
0.137278
0.142088
0.147421
0.153276
0.159675
0.166609
0.174135
0.182145
0.190759
0.19995
0.209751
0.220123
0.231123
0.242682
0.254877
0.267578
0.280907
0.294626
0.308964
0.323436
0.338594
0.353289
0.119046
0.119763
0.121222
0.123289
0.125957
0.129177
0.132936
0.137222
0.142024
0.147349
0.153191
0.159577
0.16647
0.173967
0.181967
0.190549
0.199691
0.209432
0.21973
0.230639
0.242084
0.254142
0.266674
0.279803
0.293273
0.307322
0.321435
0.336188
0.350368
0.119002
0.119718
0.121176
0.123241
0.125907
0.129124
0.132879
0.137159
0.141954
0.147269
0.153099
0.159467
0.1664
0.173799
0.181778
0.190319
0.19941
0.209087
0.219303
0.230115
0.241437
0.253349
0.265699
0.278612
0.291816
0.305556
0.319286
0.333605
0.347235
0.118953
0.119669
0.121126
0.123189
0.125852