/*--------------------------------*- C++ -*----------------------------------*\
  =========                 |
  \\      /  F ield         | OpenFOAM: The Open Source CFD Toolbox
   \\    /   O peration     | Website:  https://openfoam.org
    \\  /    A nd           | Version:  7
     \\/     M anipulation  |
\*---------------------------------------------------------------------------*/
FoamFile
{
    version     2.0;
    format      ascii;
    class       volVectorField;
    location    "60";
    object      U;
}
// * * * * * * * * * * * * * * * * * * * * * * * * * * * * * * * * * * * * * //

dimensions      [0 1 -1 0 0 0 0];

internalField   nonuniform List<vector> 
7156
(
(1.10871 0.363171 9.40118e-21)
(1.10757 0.387967 -4.73629e-20)
(1.10505 0.375842 -3.83103e-20)
(1.10212 0.364895 -5.04412e-20)
(1.10278 0.402801 1.22312e-20)
(1.10033 0.389893 5.77347e-20)
(1.09811 0.377585 -9.5845e-22)
(1.09543 0.366489 -1.90191e-20)
(1.0978 0.41843 2.54444e-20)
(1.09511 0.404793 4.27635e-20)
(1.09297 0.39167 6.60668e-20)
(1.09104 0.379186 1.97772e-20)
(1.08864 0.367947 1.0161e-21)
(1.09272 0.435003 -2.11029e-20)
(1.08968 0.420495 1.23446e-20)
(1.0873 0.406624 -5.3596e-20)
(1.08547 0.393292 -5.69184e-20)
(1.08386 0.380638 1.08666e-20)
(1.08174 0.369265 2.98694e-20)
(1.0916 0.468577 1.28835e-20)
(1.08756 0.452557 2.352e-22)
(1.08415 0.437148 1.43729e-20)
(1.08142 0.422387 1.87708e-20)
(1.07935 0.408288 -4.92106e-21)
(1.07785 0.394752 -1.03826e-20)
(1.07657 0.381936 -2.97437e-20)
(1.07474 0.370438 5.25161e-21)
(1.08647 0.487996 2.05409e-20)
(1.08224 0.471099 -2.97993e-20)
(1.07853 0.454785 6.75303e-21)
(1.07543 0.439107 2.86256e-20)
(1.07302 0.4241 -3.26253e-20)
(1.07126 0.409779 2.30692e-20)
(1.0701 0.396046 1.26195e-20)
(1.06916 0.383075 1.04176e-20)
(1.06764 0.37146 -5.90216e-21)
(1.08085 0.508351 -8.43455e-20)
(1.0766 0.490621 8.21738e-22)
(1.07272 0.47341 -4.46035e-20)
(1.06934 0.456812 -8.48898e-21)
(1.06658 0.440873 -3.48555e-20)
(1.06448 0.425628 7.74434e-21)
(1.06305 0.411092 1.00328e-20)
(1.06223 0.397168 2.53343e-20)
(1.06164 0.384049 -2.42394e-21)
(1.06045 0.372327 -3.96344e-21)
(1.07447 0.529542 -7.40291e-20)
(1.07044 0.511085 3.01888e-20)
(1.06655 0.493014 -1.62233e-20)
(1.06303 0.475501 7.62154e-20)
(1.06001 0.458631 -3.34707e-20)
(1.05759 0.442442 2.23899e-20)
(1.05581 0.426967 -8.28317e-21)
(1.05471 0.412222 2.5197e-21)
(1.05424 0.398113 -2.40727e-20)
(1.05402 0.384854 -1.86295e-21)
(1.05317 0.373035 -9.34704e-22)
(1.06695 0.551358 -8.44531e-20)
(1.06349 0.532397 1.86061e-20)
(1.05983 0.513563 4.44245e-20)
(1.05634 0.495167 4.36503e-20)
(1.0532 0.477367 -4.12781e-20)
(1.05055 0.460236 3.26901e-20)
(1.04846 0.443808 -4.13133e-20)
(1.04702 0.428111 3.0018e-20)
(1.04625 0.413164 -1.74054e-20)
(1.04613 0.398876 9.90268e-21)
(1.04628 0.385484 -3.04793e-21)
(1.04579 0.373577 -1.04172e-20)
(1.05774 0.573406 4.10842e-20)
(1.05541 0.554359 2.5073e-20)
(1.05231 0.534972 3.39545e-20)
(1.04905 0.515779 -3.32898e-21)
(1.04596 0.497074 -2.67806e-20)
(1.04323 0.479001 -2.3108e-20)
(1.04095 0.461621 -1.22789e-20)
(1.03922 0.444964 4.36857e-21)
(1.03811 0.429055 -3.09386e-21)
(1.03767 0.413913 9.78514e-22)
(1.03791 0.399453 -5.56299e-21)
(1.03845 0.385935 -4.27163e-21)
(1.03833 0.373951 2.64505e-20)
(1.04601 0.595015 3.64907e-20)
(1.04566 0.576592 -1.17882e-19)
(1.04365 0.55705 7.0207e-20)
(1.04094 0.537258 -4.87479e-20)
(1.0381 0.517726 -4.01926e-20)
(1.03544 0.498728 1.517e-20)
(1.03312 0.480395 2.57125e-20)
(1.03123 0.46278 2.7605e-20)
(1.02986 0.445906 -1.32561e-20)
(1.02909 0.429795 -5.45419e-21)
(1.02898 0.414465 1.75648e-21)
(1.02959 0.39984 1.32075e-20)
(1.03051 0.386202 -1.83521e-21)
(1.03078 0.37415 -4.50288e-21)
(1.03345 0.59844 3.88302e-20)
(1.03334 0.579434 8.81683e-20)
(1.03168 0.559423 3.75777e-20)
(1.02939 0.539247 1.61032e-20)
(1.027 0.519395 1.82411e-20)
(1.02478 0.500121 -4.58081e-21)
(1.02288 0.481543 -8.94793e-22)
(1.02139 0.463707 -2.23787e-20)
(1.02039 0.446628 7.41373e-21)
(1.01996 0.430325 -7.50247e-21)
(1.02019 0.414817 -6.21227e-21)
(1.02115 0.400032 -1.86023e-20)
(1.02246 0.38628 6.22324e-21)
(1.02315 0.374171 -3.03114e-20)
(1.01763 0.618856 2.59176e-20)
(1.02062 0.601484 4.59649e-20)
(1.02079 0.581923 -4.50207e-20)
(1.01952 0.561469 -3.51699e-20)
(1.01767 0.540933 2.76541e-20)
(1.01574 0.520779 -2.58691e-20)
(1.01398 0.501246 7.03443e-21)
(1.01253 0.48244 -5.32682e-21)
(1.01145 0.464396 -7.54391e-23)
(1.01083 0.447125 -6.48373e-21)
(1.01075 0.430642 -5.34381e-21)
(1.0113 0.414964 2.0911e-20)
(1.01261 0.400026 1.36874e-20)
(1.01432 0.386166 -3.03836e-20)
(1.01543 0.374008 -2.05731e-21)
(0.9966 0.63627 5.46427e-21)
(1.00439 0.622169 -3.04693e-20)
(1.00753 0.604137 -2.8839e-20)
(1.00803 0.584053 -2.89513e-20)
(1.00718 0.563182 1.1486e-20)
(1.0058 0.542308 -8.60197e-21)
(1.00434 0.521872 2.83828e-20)
(1.00306 0.502098 -5.27274e-21)
(1.00206 0.483078 -8.36237e-22)
(1.00141 0.464842 -3.4522e-22)
(1.00118 0.447393 9.46072e-21)
(1.00144 0.430742 -1.76881e-20)
(1.00233 0.414903 2.07807e-20)
(1.00398 0.399819 -1.68741e-20)
(1.00608 0.385855 2.76584e-20)
(1.00762 0.373656 9.0037e-21)
(0.968217 0.648473 -1.18511e-19)
(0.983079 0.639931 -4.10381e-20)
(0.990854 0.62505 -1.78467e-21)
(0.994214 0.606394 1.08187e-21)
(0.995064 0.585816 -3.76653e-20)
(0.994661 0.564555 6.54219e-22)
(0.99377 0.543365 5.07216e-21)
(0.992818 0.522667 -4.13643e-21)
(0.992024 0.502668 3.47734e-21)
(0.991492 0.483452 -3.30844e-21)
(0.99128 0.465038 -7.9587e-21)
(0.991444 0.447426 -4.76224e-21)
(0.992066 0.43062 6.09949e-20)
(0.993277 0.414632 -7.27944e-20)
(0.995265 0.399409 1.15482e-20)
(0.997736 0.385344 4.28733e-20)
(0.999733 0.37311 4.0536e-22)
(0.929811 0.652542 -1.51018e-19)
(0.954622 0.652562 -5.60317e-20)
(0.969239 0.643118 5.31889e-21)
(0.977058 0.627493 7.72017e-20)
(0.980674 0.608246 -4.72062e-21)
(0.981918 0.587206 1.89171e-20)
(0.981989 0.56558 -6.52025e-21)
(0.981607 0.544098 -1.13688e-20)
(0.981171 0.523158 -1.22107e-21)
(0.980881 0.502953 6.02487e-21)
(0.980831 0.483555 -2.0929e-20)
(0.981068 0.46498 2.88474e-20)
(0.981641 0.447219 -6.7791e-21)
(0.982625 0.430272 4.71016e-21)
(0.984159 0.414146 4.03864e-20)
(0.986467 0.398793 1.70722e-21)
(0.989303 0.38463 -2.13742e-21)
(0.991764 0.372363 1.16166e-20)
(0.878236 0.644846 -2.07995e-20)
(0.916393 0.657123 1.80275e-20)
(0.940665 0.656136 1.65234e-19)
(0.955099 0.645823 -9.86579e-21)
(0.963016 0.629491 -4.05745e-20)
(0.96693 0.609687 1.0254e-20)
(0.968601 0.588214 -1.16776e-21)
(0.96917 0.566251 1.81067e-20)
(0.969317 0.544499 -7.29686e-21)
(0.969413 0.523338 4.36478e-21)
(0.969642 0.502945 9.85092e-21)
(0.970086 0.483383 2.10579e-20)
(0.970784 0.464662 -3.24911e-20)
(0.971777 0.446767 1.38638e-20)
(0.973131 0.429694 -8.34444e-20)
(0.974987 0.413444 4.58319e-20)
(0.9776 0.397971 -2.23833e-20)
(0.980782 0.38371 -4.26289e-20)
(0.983713 0.37141 -7.52181e-20)
(0.865301 0.649932 1.73241e-20)
(0.902573 0.661149 1.42897e-19)
(0.926372 0.659185 -9.78503e-20)
(0.940683 0.64804 1.59255e-20)
(0.948747 0.631037 3.61351e-21)
(0.952999 0.61071 2.18145e-20)
(0.955128 0.588836 -3.29903e-21)
(0.956218 0.566562 3.89127e-21)
(0.956912 0.544565 1.3825e-21)
(0.957554 0.523202 5.04851e-21)
(0.958314 0.502638 -8.33601e-21)
(0.959264 0.482929 4.62155e-21)
(0.960437 0.464077 1.02951e-19)
(0.961862 0.446065 -4.16796e-20)
(0.963596 0.428882 5.5923e-20)
(0.965777 0.412521 -1.02152e-19)
(0.96868 0.396939 7.08727e-21)
(0.972178 0.382582 -8.93725e-21)
(0.975586 0.37024 8.28694e-20)
(0.797942 0.626672 -1.10751e-19)
(0.851925 0.654436 -6.66733e-20)
(0.888376 0.664613 -8.53989e-20)
(0.911766 0.661702 -2.47302e-20)
(0.926011 0.649761 2.17454e-20)
(0.93427 0.632125 2.44781e-20)
(0.938898 0.61131 -1.6416e-20)
(0.941512 0.589065 5.298e-22)
(0.943146 0.566508 1.97494e-21)
(0.944403 0.544287 -1.31435e-20)
(0.945605 0.522744 2.29138e-20)
(0.946908 0.502028 1.12347e-20)
(0.948375 0.482188 -2.97874e-20)
(0.950033 0.463222 -1.45849e-20)
(0.951904 0.445108 -4.43694e-20)
(0.95403 0.42783 6.88663e-21)
(0.956542 0.411372 1.38822e-19)
(0.959721 0.395697 2.52239e-20)
(0.963502 0.381242 -3.02362e-20)
(0.96739 0.368842 -1.11461e-20)
(0.710869 0.582611 -4.21019e-21)
(0.785365 0.631601 -6.04168e-20)
(0.838135 0.658347 4.86326e-20)
(0.873829 0.667505 5.53685e-20)
(0.896871 0.66368 2.23938e-20)
(0.911104 0.650981 1.42882e-20)
(0.919604 0.632748 -1.92069e-20)
(0.924642 0.61148 -1.81191e-21)
(0.927769 0.588896 2.69027e-21)
(0.929966 0.566082 -7.59409e-21)
(0.931801 0.543663 6.13206e-21)
(0.933575 0.521959 -7.63344e-21)
(0.935431 0.50111 5.71557e-21)
(0.937427 0.481156 5.28039e-20)
(0.939582 0.462091 -2.36788e-20)
(0.941912 0.44389 -2.52412e-20)
(0.944446 0.426531 8.53597e-20)
(0.947299 0.409994 -1.13619e-20)
(0.950743 0.394241 -4.83235e-20)
(0.95477 0.379686 9.06542e-20)
(0.959132 0.367197 3.78864e-20)
(0.699484 0.587799 -6.32542e-20)
(0.772347 0.635924 8.56309e-20)
(0.823958 0.661657 -6.52191e-20)
(0.858957 0.669818 -5.05361e-20)
(0.881711 0.665113 1.36252e-20)
(0.895986 0.651693 -1.31721e-20)
(0.904767 0.632902 7.07681e-21)
(0.910248 0.611217 -6.79581e-21)
(0.913912 0.588324 1.99799e-21)
(0.91669 0.565281 9.70255e-21)
(0.919118 0.542685 -1.83305e-20)
(0.921475 0.520842 3.55799e-20)
(0.923894 0.499878 -5.56621e-20)
(0.926427 0.479827 1.70454e-20)
(0.929091 0.460678 -6.13295e-20)
(0.931892 0.442405 7.16843e-20)
(0.934851 0.424981 -2.26648e-20)
(0.938063 0.408379 6.70604e-20)
(0.941769 0.392566 9.63028e-20)
(0.945997 0.377904 -5.04705e-20)
(0.950821 0.365275 -9.63145e-20)
(0.591145 0.518055 2.38219e-20)
(0.687649 0.592394 1.797e-20)
(0.758915 0.639633 -9.76292e-20)
(0.809424 0.664357 1.07313e-19)
(0.843788 0.671545 2.7186e-20)
(0.866311 0.665995 9.19577e-21)
(0.880675 0.651894 -7.31938e-21)
(0.889779 0.632583 -1.6267e-21)
(0.895733 0.610514 7.78669e-21)
(0.899956 0.587345 -6.24319e-21)
(0.903332 0.564099 -3.53843e-20)
(0.906365 0.541352 -1.17234e-20)
(0.909316 0.51939 -6.25872e-20)
(0.912306 0.498329 3.31852e-20)
(0.915385 0.478198 -1.73412e-19)
(0.918565 0.458981 6.49862e-20)
(0.92185 0.440649 -9.69712e-20)
(0.925252 0.423172 -1.34781e-19)
(0.928848 0.40652 -1.09002e-19)
(0.932818 0.390667 -1.00391e-19)
(0.937203 0.375887 3.81871e-20)
(0.942489 0.363035 3.14378e-20)
(0.457809 0.417633 1.54988e-20)
(0.580945 0.522641 9.86968e-21)
(0.67539 0.596384 2.09459e-21)
(0.745099 0.642717 -1.87104e-21)
(0.79456 0.666439 -1.2309e-20)
(0.828347 0.67268 -5.31186e-21)
(0.850694 0.666321 -1.21442e-20)
(0.865195 0.651577 1.00104e-22)
(0.874657 0.631785 6.55652e-21)
(0.881113 0.609369 5.06909e-21)
(0.885917 0.585953 1.96015e-20)
(0.889906 0.562532 9.04694e-20)
(0.893554 0.539657 2.71577e-20)
(0.897107 0.517598 3.62135e-20)
(0.900677 0.49646 -6.6436e-21)
(0.904307 0.476265 9.60213e-20)
(0.908012 0.456994 -4.64287e-20)
(0.911792 0.438616 1.14853e-19)
(0.915655 0.421098 -4.84837e-20)
(0.919661 0.404408 1.29472e-20)
(0.923909 0.388535 8.67206e-20)
(0.928428 0.373621 -5.5802e-20)
(0.934234 0.360432 1.50718e-20)
(0.449736 0.421774 3.27079e-20)
(0.570337 0.526667 1.51246e-20)
(0.662735 0.599759 2.79091e-20)
(0.730927 0.645167 -9.77702e-21)
(0.779393 0.667898 -7.96453e-23)
(0.81266 0.673219 -1.257e-21)
(0.834884 0.666086 1.09638e-20)
(0.849565 0.65074 3.30676e-22)
(0.859422 0.630504 -4.69735e-21)
(0.866404 0.607777 1.99265e-20)
(0.871807 0.584146 1.018e-20)
(0.876423 0.560578 -7.71512e-20)
(0.880698 0.537599 -4.34321e-20)
(0.88486 0.515464 3.30519e-20)
(0.889015 0.494268 -8.5727e-20)
(0.893203 0.474026 9.59546e-21)
(0.897438 0.454716 1.06283e-19)
(0.901719 0.436304 5.558e-20)
(0.90606 0.418752 -2.37718e-20)
(0.910501 0.402031 -1.69592e-19)
(0.915044 0.386149 9.64548e-20)
(0.919746 0.371075 9.63089e-20)
(0.926214 0.35746 -1.02202e-19)
(0.292401 0.285468 -1.21147e-20)
(0.441306 0.42544 -1.32643e-20)
(0.559347 0.53012 -1.62452e-21)
(0.649712 0.602508 -3.16602e-20)
(0.716427 0.646975 3.78897e-20)
(0.763952 0.668725 -1.20062e-20)
(0.796754 0.673155 -2.2939e-21)
(0.818905 0.665287 -1.9628e-20)
(0.833808 0.649379 -3.99812e-20)
(0.84409 0.628739 4.56538e-20)
(0.851624 0.605735 -4.17254e-20)
(0.857644 0.581921 -1.25085e-20)
(0.862898 0.558232 2.52906e-20)
(0.867808 0.535174 1.04043e-19)
(0.872587 0.512984 -5.07184e-20)
(0.877331 0.491749 5.7101e-20)
(0.882081 0.471478 -3.86767e-20)
(0.886848 0.452144 -4.90005e-20)
(0.891636 0.433711 -8.76814e-20)
(0.896461 0.416133 1.48984e-19)
(0.901349 0.399382 2.12276e-19)
(0.906216 0.383475 -1.75082e-19)
(0.911249 0.368154 -1.57149e-19)
(0.918428 0.353995 7.51431e-20)
(0.286742 0.288238 7.89892e-21)
(0.432542 0.428622 -8.66795e-21)
(0.547999 0.53299 2.48886e-21)
(0.63635 0.604624 -1.02272e-21)
(0.701629 0.648136 -1.45015e-21)
(0.748264 0.668918 -4.09351e-21)
(0.780655 0.672486 4.62453e-21)
(0.802779 0.663921 -2.29225e-21)
(0.817944 0.64749 -1.46467e-21)
(0.828682 0.626485 -2.92992e-20)
(0.836789 0.60324 2.74828e-20)
(0.84344 0.579274 3.7479e-20)
(0.849344 0.555492 -6.38045e-20)
(0.854897 0.532379 -7.51887e-20)
(0.860297 0.510157 6.47692e-20)
(0.865636 0.488903 1.40792e-20)
(0.87095 0.468621 4.28067e-20)
(0.876252 0.44928 3.93902e-20)
(0.881546 0.430839 -3.36175e-20)
(0.886854 0.413246 -1.94284e-19)
(0.892182 0.39647 -1.67493e-19)
(0.897413 0.380526 -6.72395e-20)
(0.903014 0.364831 1.95908e-19)
(0.91028 0.348886 1.03177e-19)
(0.106459 0.111078 -1.25065e-20)
(0.280839 0.290664 1.55087e-20)
(0.423464 0.43131 -1.31187e-20)
(0.53632 0.53527 2.7561e-21)
(0.622676 0.606099 -1.21372e-21)
(0.686561 0.648643 -1.16689e-20)
(0.732358 0.668472 8.03067e-21)
(0.764388 0.671208 -1.56487e-20)
(0.786531 0.661985 5.01679e-20)
(0.801993 0.645073 4.66876e-20)
(0.813215 0.623742 -5.55644e-20)
(0.821916 0.60029 -4.03513e-20)
(0.829212 0.576203 -1.62033e-20)
(0.835775 0.552357 7.25985e-20)
(0.841976 0.529213 8.84319e-20)
(0.848003 0.506981 -4.32459e-20)
(0.853939 0.485728 -1.22667e-21)
(0.859819 0.465453 6.45464e-20)
(0.865656 0.446123 4.18416e-20)
(0.871456 0.427691 1.06011e-19)
(0.877239 0.4101 2.93371e-20)
(0.882998 0.393317 1.53519e-19)
(0.888635 0.377354 1.49149e-19)
(0.894793 0.361626 -1.30045e-19)
(0.9021 0.345719 -8.21958e-20)
(0.104225 0.112119 -1.21472e-22)
(0.274707 0.292739 1.34231e-21)
(0.414093 0.433493 -2.43559e-22)
(0.524336 0.536949 -3.56172e-21)
(0.608718 0.606925 -1.52231e-21)
(0.671252 0.648492 2.10639e-20)
(0.716261 0.667382 4.92308e-21)
(0.747979 0.66932 2.03445e-20)
(0.770184 0.659477 -2.12875e-20)
(0.785978 0.642125 2.32936e-20)
(0.797709 0.620506 1.56662e-20)
(0.80702 0.596883 7.59149e-20)
(0.814974 0.572707 -2.3191e-20)
(0.822204 0.548824 -2.02044e-19)
(0.82906 0.525674 7.88049e-20)
(0.835716 0.503454 -2.10298e-20)
(0.842252 0.482224 6.64487e-20)
(0.8487 0.461976 -1.61995e-19)
(0.855072 0.442674 -1.50007e-19)
(0.861376 0.42427 -1.11713e-19)
(0.867628 0.406702 -1.27756e-21)
(0.87381 0.389935 -5.20544e-20)
(0.879838 0.373975 1.04855e-19)
(0.886372 0.358238 -1.10177e-19)
(0.893652 0.342376 -5.87769e-20)
(0.101895 0.113017 6.68814e-21)
(0.26836 0.294453 -4.05303e-21)
(0.404453 0.435164 5.56411e-21)
(0.512074 0.538021 -1.73195e-21)
(0.594507 0.607098 1.81935e-20)
(0.655731 0.647678 -5.37228e-20)
(0.700001 0.665647 3.569e-20)
(0.731454 0.666819 4.71933e-20)
(0.753761 0.656396 -1.99407e-20)
(0.769919 0.638645 -7.38835e-20)
(0.782182 0.616777 9.27194e-20)
(0.79212 0.593019 -1.41479e-19)
(0.800741 0.568785 3.85919e-20)
(0.808646 0.544892 4.34765e-20)
(0.81616 0.521762 -2.17488e-19)
(0.823448 0.499576 4.83964e-20)
(0.830585 0.478389 -1.38977e-19)
(0.837602 0.458188 2.86076e-19)
(0.84451 0.438934 -8.50609e-20)
(0.851316 0.420577 3.80199e-19)
(0.858035 0.403053 1.76123e-20)
(0.86464 0.386328 -5.58232e-20)
(0.871059 0.3704 -1.77745e-19)
(0.877926 0.354707 1.14356e-19)
(0.885285 0.338982 3.1403e-20)
(0.0994754 0.113771 8.71403e-23)
(0.261814 0.295802 2.15053e-20)
(0.394565 0.436315 -1.02254e-21)
(0.49956 0.53848 7.51376e-21)
(0.580069 0.606612 -2.24648e-20)
(0.640026 0.646198 6.10659e-20)
(0.683604 0.663266 -5.78422e-20)
(0.714838 0.663704 -2.58134e-21)
(0.737286 0.652742 3.21201e-20)
(0.753836 0.634633 -4.4031e-20)
(0.766652 0.612555 -3.87971e-21)
(0.777231 0.588697 1.71961e-19)
(0.786529 0.564435 -6.8487e-20)
(0.795113 0.540561 1.92192e-20)
(0.803289 0.517474 1.80576e-19)
(0.811212 0.495347 3.92341e-21)
(0.818951 0.474223 -2.57236e-20)
(0.826537 0.454089 -2.71369e-21)
(0.83398 0.434903 1.3059e-19)
(0.841288 0.416612 -2.79864e-19)
(0.848472 0.399153 1.25162e-20)
(0.855504 0.382493 4.76534e-20)
(0.862317 0.366625 8.03433e-20)
(0.869516 0.351011 1.5984e-19)
(0.877038 0.335473 -9.82139e-20)
(0.0969717 0.114376 -1.74035e-20)
(0.255085 0.296779 -3.44362e-21)
(0.384451 0.436941 -2.99145e-20)
(0.486821 0.53832 7.35961e-21)
(0.565435 0.605465 -1.39004e-20)
(0.624167 0.644052 -5.0338e-20)
(0.6671 0.660237 -4.64497e-20)
(0.698156 0.659976 -1.17069e-19)
(0.72078 0.648515 1.45454e-20)
(0.73775 0.630089 -1.35408e-20)
(0.751138 0.60784 -1.59659e-20)
(0.76237 0.583916 -9.91154e-20)
(0.772353 0.559658 2.41299e-20)
(0.78162 0.535829 1.08653e-19)
(0.790461 0.512812 -2.0318e-19)
(0.799019 0.490765 3.79982e-20)
(0.807361 0.469727 6.5265e-20)
(0.815516 0.44968 1.26795e-19)
(0.823494 0.430581 8.11097e-20)
(0.831303 0.412376 5.15902e-20)
(0.838953 0.395003 -3.1549e-20)
(0.846413 0.378428 1.76408e-19)
(0.853624 0.362642 7.82052e-20)
(0.861164 0.347137 -2.12914e-19)
(0.868902 0.331803 -7.54732e-20)
(0.0943906 0.11483 -4.16014e-21)
(0.24819 0.297378 -3.91776e-20)
(0.374136 0.437036 3.12393e-20)
(0.473883 0.537537 -6.22518e-20)
(0.550632 0.603653 2.53848e-20)
(0.608182 0.641237 1.26881e-19)
(0.650514 0.65656 1.11335e-19)
(0.681434 0.655635 -4.98902e-20)
(0.704267 0.643716 -9.24532e-20)
(0.721682 0.625013 2.13258e-21)
(0.735659 0.602632 -2.41694e-20)
(0.747554 0.578677 1.96199e-20)
(0.758228 0.554454 -1.27464e-19)
(0.768182 0.530698 -5.55045e-20)
(0.777688 0.507775 1.22123e-19)
(0.786882 0.485831 -1.34012e-20)
(0.795827 0.464901 -1.23443e-19)
(0.80455 0.444961 -9.79203e-20)
(0.813062 0.425969 1.43454e-19)
(0.821371 0.407869 7.5342e-20)
(0.829488 0.390601 -2.31719e-20)
(0.837379 0.374132 -6.15253e-20)
(0.844992 0.358449 1.21374e-19)
(0.852885 0.343074 6.2614e-20)
(0.860875 0.327953 2.59596e-19)
(0.0917388 0.115131 2.63401e-20)
(0.241145 0.297595 -2.11382e-21)
(0.363642 0.436595 -6.01705e-21)
(0.460775 0.536128 6.33594e-20)
(0.535689 0.601176 -2.88298e-21)
(0.592099 0.637753 -1.20493e-19)
(0.633874 0.652236 -7.44071e-20)
(0.664697 0.650683 3.90424e-20)
(0.687769 0.638346 6.51824e-20)
(0.70565 0.619408 1.82622e-19)
(0.720231 0.596932 5.98175e-20)
(0.7328 0.57298 -4.99242e-20)
(0.744168 0.548823 2.25845e-19)
(0.754811 0.525168 -2.27045e-20)
(0.764984 0.502363 -4.79786e-20)
(0.774813 0.480546 -5.9891e-20)
(0.784359 0.459744 -4.44588e-20)
(0.793649 0.439933 -3.84049e-19)
(0.802695 0.421066 -3.50939e-19)
(0.811504 0.403091 8.46723e-20)
(0.820088 0.385947 7.08755e-20)
(0.828413 0.369602 8.30637e-20)
(0.836431 0.354042 -2.77442e-19)
(0.844688 0.338814 -1.52057e-19)
(0.852952 0.323912 -2.15315e-19)
(0.0890228 0.115276 -1.16128e-20)
(0.233966 0.297427 2.43241e-20)
(0.352992 0.435616 4.25637e-20)
(0.447524 0.534091 -6.70436e-20)
(0.520635 0.598032 6.22682e-20)
(0.575947 0.633602 5.97258e-20)
(0.617207 0.647268 4.8432e-20)
(0.647968 0.645121 5.04141e-20)
(0.671309 0.632408 -2.81401e-20)
(0.689677 0.613275 -1.438e-19)
(0.704874 0.590742 -7.82028e-20)
(0.718123 0.566828 -1.83188e-20)
(0.73019 0.542766 4.13872e-20)
(0.741523 0.51924 1.49373e-19)
(0.752361 0.496579 -1.80857e-19)
(0.762824 0.474911 1.45737e-19)
(0.77297 0.454259 9.03314e-21)
(0.782826 0.434595 3.36793e-19)
(0.792404 0.415875 2.30094e-19)
(0.801712 0.398043 -2.32339e-20)
(0.810763 0.38104 -1.83752e-19)
(0.819522 0.364838 -2.04802e-19)
(0.827951 0.349418 1.17125e-19)
(0.836577 0.334353 3.9213e-19)
(0.845135 0.319674 -8.85202e-20)
(0.0862494 0.115263 -7.30252e-21)
(0.22667 0.29687 -4.40713e-20)
(0.342209 0.434095 -6.32608e-20)
(0.434155 0.531425 3.86469e-20)
(0.505499 0.594223 -3.68631e-20)
(0.559753 0.628785 -7.37497e-20)
(0.600538 0.641657 -1.07065e-19)
(0.631273 0.638953 9.31558e-20)
(0.654908 0.625903 2.67294e-20)
(0.673781 0.606617 1.49689e-19)
(0.689606 0.584065 1.85327e-19)
(0.70354 0.560222 -1.87543e-20)
(0.716308 0.536286 1.08541e-19)
(0.72833 0.512915 -3.26805e-19)
(0.739832 0.490422 9.44598e-20)
(0.750928 0.468927 5.52219e-20)
(0.761672 0.448445 3.01614e-20)
(0.772091 0.42895 -2.49864e-19)
(0.782199 0.410394 6.54501e-20)
(0.792005 0.392724 2.2812e-20)
(0.801522 0.375882 3.41624e-19)
(0.810718 0.359838 -1.80862e-19)
(0.819559 0.344573 1.41935e-19)
(0.828561 0.329686 -1.35601e-19)
(0.837423 0.315234 2.14844e-19)
(0.0834255 0.115091 -4.07551e-20)
(0.219274 0.295922 6.48807e-20)
(0.331318 0.432032 1.10754e-19)
(0.420696 0.52813 -3.22926e-20)
(0.490307 0.589749 -5.62698e-20)
(0.543545 0.623305 1.69466e-20)
(0.583894 0.635407 1.54909e-19)
(0.614635 0.632182 -1.22096e-19)
(0.638588 0.618837 4.38928e-20)
(0.657983 0.599437 -6.76239e-20)
(0.674444 0.576903 8.20438e-21)
(0.689068 0.553164 -2.2672e-20)
(0.702537 0.529385 -2.03402e-19)
(0.715248 0.506195 8.59305e-20)
(0.727411 0.483896 3.09503e-20)
(0.739136 0.462594 -2.20656e-21)
(0.750475 0.442306 -8.84628e-20)
(0.761455 0.422999 8.29972e-20)
(0.77209 0.404626 -1.14992e-19)
(0.782393 0.387136 1.67567e-19)
(0.792375 0.370471 -3.65745e-19)
(0.802007 0.354602 1.4554e-19)
(0.811262 0.339508 -3.34328e-19)
(0.820642 0.324811 5.40771e-20)
(0.829818 0.31059 -2.23816e-19)
(0.0805579 0.114759 7.51869e-21)
(0.211794 0.294582 -1.09476e-20)
(0.32034 0.429425 -7.49362e-20)
(0.407175 0.524207 -6.4744e-20)
(0.475089 0.584613 2.96976e-20)
(0.527351 0.617165 5.33461e-20)
(0.567301 0.628522 -2.18581e-19)
(0.598077 0.624813 1.38944e-19)
(0.622371 0.611213 -4.80429e-20)
(0.642301 0.591738 2.15158e-20)
(0.659406 0.569259 -5.93533e-20)
(0.674722 0.545658 -1.3714e-19)
(0.688893 0.522064 2.62662e-20)
(0.702289 0.499084 1.93252e-19)
(0.715111 0.477001 -1.55912e-19)
(0.727461 0.455917 1.08012e-19)
(0.739391 0.435841 1.67003e-19)
(0.750929 0.416742 3.83819e-20)
(0.762089 0.398572 -3.27266e-19)
(0.772885 0.381279 -1.59806e-19)
(0.783331 0.364808 1.61663e-19)
(0.793399 0.34913 7.51062e-20)
(0.803069 0.33422 2.32104e-19)
(0.812828 0.319725 -2.91444e-19)
(0.822323 0.305741 1.82509e-19)
(0.0776536 0.114265 -3.2494e-20)
(0.204248 0.292849 8.9951e-20)
(0.3093 0.426276 9.29178e-21)
(0.393616 0.519658 1.35459e-19)
(0.459872 0.578819 -4.76635e-20)
(0.511198 0.61037 -5.80114e-20)
(0.550784 0.621007 1.47368e-20)
(0.581625 0.61685 9.40872e-20)
(0.606279 0.603035 -4.89548e-20)
(0.626755 0.583525 -9.66176e-20)
(0.64451 0.561137 3.46742e-20)
(0.660519 0.537707 5.80422e-20)
(0.675388 0.514328 6.4245e-21)
(0.689467 0.491582 -5.44893e-20)
(0.702943 0.469741 -3.26904e-20)
(0.715915 0.448896 1.14109e-19)
(0.728432 0.429054 -2.88935e-19)
(0.740523 0.410183 -1.45073e-20)
(0.752205 0.392234 5.92521e-19)
(0.763491 0.375156 1.89438e-19)
(0.774398 0.358894 1.82847e-19)
(0.784901 0.343421 1.17136e-19)
(0.794985 0.328711 1.22942e-19)
(0.805124 0.31443 2.02919e-19)
(0.814941 0.300687 5.4744e-20)
(0.0747196 0.11361 1.05483e-20)
(0.196653 0.290723 4.82042e-20)
(0.298221 0.422585 7.93644e-20)
(0.380049 0.514485 -1.25933e-19)
(0.444684 0.57237 1.07215e-19)
(0.495112 0.602925 1.85536e-20)
(0.534368 0.612868 -9.93232e-21)
(0.565299 0.608299 -1.15314e-19)
(0.590331 0.594309 -5.17303e-20)
(0.611364 0.574804 7.14223e-20)
(0.629772 0.552543 -2.17097e-20)
(0.646474 0.529315 5.0604e-20)
(0.66204 0.506179 2.98756e-19)
(0.676796 0.483695 -1.2282e-19)
(0.690921 0.462118 -1.28163e-20)
(0.704509 0.441535 -7.91118e-20)
(0.717609 0.421948 -1.11157e-19)
(0.730249 0.403323 6.28462e-20)
(0.742447 0.385613 -2.43739e-19)
(0.754221 0.368766 -1.54523e-19)
(0.765586 0.352731 -8.06626e-20)
(0.77652 0.337478 -2.4948e-19)
(0.787017 0.32298 -3.37362e-19)
(0.797534 0.308924 2.50824e-19)
(0.807676 0.295428 -6.94998e-20)
(0.0717629 0.112793 3.96845e-20)
(0.189025 0.288203 -2.47352e-20)
(0.287126 0.418355 -1.46146e-19)
(0.366497 0.508693 1.89578e-19)
(0.429551 0.565272 -1.24477e-19)
(0.479119 0.594836 1.66753e-20)
(0.518079 0.604111 -5.95998e-21)
(0.549124 0.599167 -6.16807e-20)
(0.574549 0.585042 -1.40733e-19)
(0.596146 0.565579 -1.21043e-19)
(0.61521 0.54348 2.7781e-20)
(0.632603 0.520487 -6.54725e-20)
(0.648861 0.497623 -2.56016e-19)
(0.664289 0.475426 1.57709e-19)
(0.679058 0.454137 2.29753e-19)
(0.693256 0.433837 -1.58833e-19)
(0.706933 0.414525 3.80619e-19)
(0.720116 0.396165 1.99362e-20)
(0.732827 0.378712 -7.02927e-20)
(0.745083 0.362114 -1.66258e-19)
(0.756902 0.34632 -3.20474e-19)
(0.768266 0.331301 -1.37757e-19)
(0.779172 0.317029 -2.62258e-19)
(0.790064 0.303209 -3.07268e-19)
(0.800532 0.289965 6.93931e-20)
(0.0687905 0.111815 5.07689e-20)
(0.181382 0.285293 -7.23046e-20)
(0.276037 0.413588 7.72578e-20)
(0.352988 0.502286 -1.16747e-19)
(0.4145 0.557532 1.13605e-19)
(0.463247 0.586111 -1.40035e-19)
(0.50194 0.594743 4.96666e-20)
(0.533122 0.589461 7.67887e-20)
(0.558953 0.575239 2.53923e-20)
(0.581121 0.555856 7.05904e-20)
(0.600841 0.533954 8.78043e-20)
(0.618922 0.511227 -1.92112e-19)
(0.635866 0.488663 1.35499e-19)
(0.651961 0.466778 1.57803e-20)
(0.667366 0.445801 -6.58908e-20)
(0.682168 0.425805 2.15582e-19)
(0.696414 0.406788 -1.76557e-19)
(0.710135 0.388713 -9.15318e-20)
(0.723352 0.371534 -3.16433e-20)
(0.736086 0.3552 3.03527e-19)
(0.748355 0.339663 4.48918e-19)
(0.760144 0.324892 -1.15033e-19)
(0.771457 0.310858 2.73269e-19)
(0.78272 0.297287 6.13648e-20)
(0.0658094 0.110675 -6.73671e-20)
(0.17374 0.281993 -7.6065e-20)
(0.264978 0.408289 -6.37637e-20)
(0.339546 0.495271 9.2325e-20)
(0.399558 0.549156 -5.8493e-20)
(0.44752 0.576756 1.91667e-20)
(0.485976 0.584773 3.72751e-21)
(0.517314 0.579188 2.54895e-19)
(0.543563 0.564908 -2.14895e-19)
(0.566306 0.545643 -1.24827e-20)
(0.586681 0.523972 -2.62229e-19)
(0.605445 0.501542 1.63203e-19)
(0.623069 0.479305 -1.58181e-19)
(0.639823 0.457757 -1.47767e-19)
(0.655857 0.437114 -1.22098e-20)
(0.671255 0.417444 -1.33459e-19)
(0.686064 0.398741 1.0702e-19)
(0.700315 0.380969 -3.79576e-21)
(0.714033 0.364081 3.14311e-19)
(0.727238 0.348029 -1.70045e-19)
(0.739953 0.332763 -9.34288e-20)
(0.752163 0.318254 1.32169e-19)
(0.763878 0.304471 -2.83091e-20)
(0.775508 0.291159 2.01195e-19)
(0.0628266 0.109374 -2.76753e-20)
(0.166116 0.278307 8.50515e-20)
(0.253971 0.402462 1.16965e-19)
(0.326198 0.487654 -2.44556e-19)
(0.384751 0.540153 -8.86847e-21)
(0.431963 0.566781 1.01404e-21)
(0.47021 0.574209 -2.89187e-20)
(0.501722 0.568357 -1.73631e-19)
(0.528399 0.554058 1.94004e-19)
(0.551718 0.534947 -1.86799e-20)
(0.572746 0.513541 2.30005e-19)
(0.592188 0.491436 3.0882e-20)
(0.610484 0.469554 2.57011e-19)
(0.627888 0.448368 3.22834e-20)
(0.644543 0.428082 -5.26095e-20)
(0.660528 0.408758 -2.85228e-19)
(0.675892 0.390389 -1.24982e-19)
(0.690668 0.372937 -1.97962e-20)
(0.704879 0.356358 -1.51428e-19)
(0.71855 0.340602 -3.08305e-20)
(0.731703 0.325622 2.44226e-19)
(0.744329 0.311389 9.31324e-20)
(0.756441 0.29787 2.56012e-19)
(0.768433 0.284827 -2.68552e-19)
(0.0598491 0.107913 2.01333e-20)
(0.158526 0.274238 3.26078e-20)
(0.243037 0.396114 1.53127e-20)
(0.312968 0.479442 5.50897e-20)
(0.370104 0.530531 -6.02863e-20)
(0.416602 0.556195 3.68177e-20)
(0.454665 0.563061 -3.94447e-20)
(0.486368 0.556977 2.61264e-20)
(0.513479 0.542695 2.13914e-19)
(0.537377 0.523774 1.42689e-20)
(0.559053 0.502666 -1.25279e-19)
(0.579166 0.480918 3.209e-19)
(0.598125 0.459417 -1.60089e-19)
(0.61617 0.438616 -8.76834e-20)
(0.633436 0.418708 1.10286e-19)
(0.65 0.399751 -6.65444e-20)
(0.665911 0.381735 1.21469e-19)
(0.681201 0.364623 7.57942e-21)
(0.695899 0.348368 1.42656e-19)
(0.710028 0.332925 -1.54132e-19)
(0.723614 0.318245 6.15331e-20)
(0.73665 0.3043 1.44355e-19)
(0.749153 0.291057 -3.47567e-19)
(0.0568838 0.106295 -1.79896e-20)
(0.150986 0.269789 -1.07595e-19)
(0.2322 0.389251 -2.78806e-19)
(0.299881 0.470644 2.583e-19)
(0.355641 0.520299 1.13909e-19)
(0.40146 0.545009 8.84708e-20)
(0.439363 0.551339 -3.24961e-20)
(0.471271 0.545058 2.47759e-19)
(0.498823 0.530831 6.25656e-21)
(0.523298 0.512135 -3.71041e-19)
(0.545616 0.491357 -3.09207e-19)
(0.566392 0.469993 -6.75103e-20)
(0.586005 0.448899 3.42761e-19)
(0.604681 0.428507 5.37279e-21)
(0.622548 0.409 -3.20741e-20)
(0.639681 0.39043 8.60258e-20)
(0.656129 0.372785 -8.77769e-20)
(0.671926 0.356029 -1.06056e-19)
(0.687101 0.340116 -1.53195e-19)
(0.701682 0.324999 1.85174e-19)
(0.715694 0.310634 -3.14209e-19)
(0.729132 0.296991 -3.19695e-19)
(0.74202 0.284036 4.22915e-19)
(0.0539374 0.104519 9.31179e-20)
(0.143513 0.264967 1.57166e-20)
(0.22148 0.38188 2.54979e-19)
(0.28696 0.461269 -1.27317e-19)
(0.341389 0.509469 1.57893e-19)
(0.386561 0.533233 -6.89008e-20)
(0.424327 0.539054 -6.30116e-21)
(0.456452 0.53261 -2.23244e-19)
(0.484449 0.518473 8.30844e-20)
(0.509498 0.500037 2.42211e-19)
(0.532453 0.47962 2.37218e-19)
(0.553881 0.45867 1.96261e-19)
(0.574138 0.438008 -2.17541e-19)
(0.593433 0.418048 5.58701e-20)
(0.61189 0.398963 -3.58187e-19)
(0.629582 0.3808 2.32691e-19)
(0.646556 0.363545 2.01946e-19)
(0.662851 0.347161 -7.30966e-20)
(0.678495 0.331605 -1.97274e-19)
(0.693519 0.316831 -1.54992e-19)
(0.707948 0.302794 -1.3183e-19)
(0.721783 0.289465 5.9837e-20)
(0.735048 0.27681 -7.06236e-20)
(0.0510169 0.102589 9.51074e-20)
(0.136123 0.259775 1.41328e-19)
(0.210899 0.37401 -1.61801e-19)
(0.27423 0.451328 -9.3523e-20)
(0.32737 0.498052 -2.41715e-19)
(0.371928 0.520879 -2.21396e-20)
(0.409578 0.526217 5.92891e-20)
(0.441931 0.519644 -8.80354e-20)
(0.470374 0.505633 -1.11433e-19)
(0.495994 0.487491 3.10224e-19)
(0.519577 0.467466 3.43219e-20)
(0.541647 0.446956 -3.08936e-19)
(0.562535 0.426752 1.04136e-19)
(0.582438 0.407246 -8.53089e-20)
(0.601474 0.388604 1.52149e-19)
(0.619712 0.370866 8.92494e-20)
(0.637204 0.354018 -2.00556e-19)
(0.653986 0.338025 3.30451e-19)
(0.67009 0.322842 1.07413e-19)
(0.685547 0.308424 9.58988e-20)
(0.700386 0.294729 -3.20797e-20)
(0.714609 0.281726 4.31698e-19)
(0.728244 0.269383 -1.8387e-20)
(0.0481287 0.100506 -1.11018e-19)
(0.128831 0.254221 1.35628e-19)
(0.200477 0.365649 8.73471e-20)
(0.261713 0.440832 9.2555e-21)
(0.313608 0.48606 1.15595e-19)
(0.357583 0.507959 -1.22117e-19)
(0.395137 0.51284 3.32098e-20)
(0.427727 0.506171 -1.92435e-20)