/*--------------------------------*- C++ -*----------------------------------*\
  =========                 |
  \\      /  F ield         | OpenFOAM: The Open Source CFD Toolbox
   \\    /   O peration     | Website:  https://openfoam.org
    \\  /    A nd           | Version:  7
     \\/     M anipulation  |
\*---------------------------------------------------------------------------*/
FoamFile
{
    version     2.0;
    format      ascii;
    class       volVectorField;
    location    "120";
    object      U;
}
// * * * * * * * * * * * * * * * * * * * * * * * * * * * * * * * * * * * * * //

dimensions      [0 1 -1 0 0 0 0];

internalField   nonuniform List<vector> 
4575
(
(0.8485 0.313085 -1.23902e-19)
(0.838376 0.306909 2.30062e-19)
(0.828469 0.300384 -1.29406e-19)
(0.805448 0.3112 -7.43504e-20)
(0.818788 0.293516 -5.39267e-20)
(0.79545 0.303522 8.78079e-20)
(0.809341 0.28631 4.27817e-20)
(0.785702 0.295498 -2.30634e-20)
(0.800139 0.278773 8.73684e-20)
(0.776215 0.287137 -2.58306e-20)
(0.791191 0.270913 -1.21711e-19)
(0.750161 0.295205 1.20473e-19)
(0.767001 0.278447 7.6084e-20)
(0.782508 0.262737 5.69712e-20)
(0.740678 0.285629 -7.86173e-20)
(0.758072 0.269434 -5.60773e-20)
(0.774099 0.254255 5.7225e-21)
(0.731509 0.275722 -6.8574e-20)
(0.749439 0.26011 -2.51094e-20)
(0.765974 0.245476 4.18803e-20)
(0.722667 0.265494 -2.71375e-20)
(0.741113 0.250482 2.12564e-19)
(0.758143 0.23641 -1.34091e-19)
(0.694463 0.270158 5.98971e-20)
(0.714163 0.254956 -4.9064e-20)
(0.733105 0.240564 -4.18884e-20)
(0.750616 0.227067 9.23748e-20)
(0.685768 0.258664 9.17661e-20)
(0.706008 0.24412 1.25459e-19)
(0.725426 0.230364 2.49921e-20)
(0.7434 0.217458 -1.09399e-19)
(0.677457 0.246865 -2.28257e-20)
(0.698214 0.232998 -1.30627e-20)
(0.718084 0.219895 1.84398e-20)
(0.736506 0.207595 1.00991e-19)
(0.669542 0.234775 4.29694e-20)
(0.69079 0.221604 -6.26209e-20)
(0.711092 0.209169 -5.68201e-20)
(0.729942 0.19749 -1.09009e-19)
(0.662034 0.222406 2.0656e-20)
(0.683747 0.20995 -6.13142e-21)
(0.704457 0.198198 2.07607e-21)
(0.723716 0.187154 6.01244e-20)
(0.631477 0.222281 7.4272e-20)
(0.654943 0.209776 -8.22922e-20)
(0.677095 0.19805 1.55108e-19)
(0.698188 0.186996 -1.37103e-19)
(0.717836 0.1766 4.90417e-20)
(0.624372 0.208607 -4.86828e-20)
(0.648278 0.196898 4.77192e-21)
(0.670842 0.185919 -1.36782e-19)
(0.692295 0.175576 9.57679e-20)
(0.712308 0.165842 8.72856e-20)
(0.617732 0.194686 6.75455e-20)
(0.642049 0.183789 8.69544e-21)
(0.664996 0.173572 2.15721e-20)
(0.686784 0.163952 8.77602e-21)
(0.707141 0.154891 -9.6062e-20)
(0.611567 0.180535 -9.55252e-20)
(0.636265 0.170465 1.22503e-20)
(0.659566 0.161023 7.79846e-20)
(0.681664 0.152138 -1.0855e-19)
(0.70234 0.143763 -4.51476e-22)
(0.605886 0.166171 8.82617e-20)
(0.630932 0.156942 -6.57734e-20)
(0.65456 0.148289 -7.95009e-21)
(0.676941 0.140148 6.22899e-20)
(0.697911 0.132469 -1.13039e-19)
(0.600695 0.151613 -7.90973e-20)
(0.626059 0.143238 1.7159e-20)
(0.649982 0.135384 -1.13031e-20)
(0.672622 0.127998 -3.90693e-20)
(0.693861 0.121025 1.51368e-20)
(0.596003 0.13688 1.67994e-20)
(0.621652 0.12937 3.89993e-20)
(0.645841 0.122325 6.85436e-21)
(0.668711 0.115702 -8.33639e-21)
(0.690193 0.109445 9.72199e-22)
(0.591815 0.12199 4.82013e-20)
(0.617716 0.115354 3.98092e-20)
(0.64214 0.109129 1.92993e-20)
(0.665216 0.103276 4.36046e-20)
(0.686913 0.0977427 1.71792e-20)
(0.588138 0.106962 -1.64416e-20)
(0.614257 0.10121 -3.26716e-20)
(0.638886 0.0958113 -3.25434e-21)
(0.662139 0.0907357 -6.29783e-20)
(0.684023 0.0859329 1.1734e-21)
(0.584975 0.0918162 -3.44159e-20)
(0.61128 0.0869547 -4.87119e-21)
(0.636082 0.0823897 -1.02783e-20)
(0.659484 0.0780966 4.81555e-20)
(0.681529 0.0740305 -8.10151e-21)
(0.582332 0.0765712 4.88082e-20)
(0.608788 0.0726067 6.08756e-20)
(0.633731 0.0688808 -8.78795e-21)
(0.657256 0.0653747 2.19306e-20)
(0.679431 0.0620505 -9.72472e-21)
(0.552014 0.0644985 1.67467e-20)
(0.58021 0.061247 4.16666e-21)
(0.606784 0.0581842 -2.05338e-20)
(0.631836 0.0553018 -1.97658e-21)
(0.655457 0.0525864 -4.73612e-20)
(0.677733 0.0500079 1.93338e-20)
(0.550329 0.048148 8.23461e-21)
(0.578613 0.0458635 -2.26215e-20)
(0.60527 0.0437057 2.08389e-21)
(0.6304 0.0416698 -9.74998e-22)
(0.654088 0.0397476 1.20394e-20)
(0.676437 0.0379172 2.60023e-22)
(0.549208 0.0317559 -4.19642e-21)
(0.577543 0.0304405 5.49794e-21)
(0.604248 0.0291898 1.05286e-20)
(0.629424 0.0280023 7.70979e-22)
(0.653151 0.0268746 1.12712e-21)
(0.675541 0.0257925 4.85821e-21)
(0.54865 0.0153436 -4.99185e-21)
(0.576999 0.014998 4.90349e-21)
(0.603718 0.014655 1.08379e-20)
(0.628909 0.0143168 9.10759e-22)
(0.652647 0.0139845 7.89285e-22)
(0.675045 0.0136534 5.18842e-21)
(0.548656 -0.00106747 3.46186e-21)
(0.576982 -0.000444135 -1.80562e-20)
(0.603682 0.000119968 5.32073e-21)
(0.628854 0.00063062 -8.52084e-22)
(0.652576 0.00109442 8.9465e-21)
(0.674955 0.00152321 9.00719e-22)
(0.549226 -0.0174559 1.10819e-20)
(0.577492 -0.015866 3.5586e-21)
(0.604137 -0.0143971 -2.74985e-20)
(0.62926 -0.0130399 1.60351e-21)
(0.652942 -0.0117828 -3.84936e-20)
(0.67529 -0.0106017 8.45199e-21)
(0.578527 -0.0312478 5.06553e-20)
(0.605082 -0.0288778 4.56957e-20)
(0.630124 -0.0266779 -2.31773e-20)
(0.653736 -0.024632 3.00069e-20)
(0.676012 -0.022712 -6.25364e-22)
(0.580083 -0.0465696 -4.9706e-20)
(0.606516 -0.0433034 -8.62934e-21)
(0.631445 -0.0402652 -1.13549e-20)
(0.654959 -0.0374338 1.78427e-20)
(0.677129 -0.0347743 -1.2083e-21)
(0.582159 -0.0618118 -5.10198e-21)
(0.608435 -0.0576556 -2.37352e-20)
(0.633219 -0.0537847 1.23298e-20)
(0.656607 -0.0501722 -1.03035e-19)
(0.678645 -0.0467767 3.62305e-20)
(0.584749 -0.0769549 6.62905e-20)
(0.610835 -0.0719162 1.73536e-20)
(0.635444 -0.0672194 2.5259e-20)
(0.658679 -0.0628318 5.79758e-20)
(0.680557 -0.0587069 -3.0171e-20)
(0.58785 -0.0919795 5.4828e-20)
(0.613712 -0.0860673 -2.24613e-20)
(0.638115 -0.0805527 1.58896e-20)
(0.66117 -0.0753967 3.30733e-20)
(0.682859 -0.0705498 -1.19441e-20)
(0.591455 -0.106867 -1.04524e-19)
(0.617061 -0.100091 -1.3334e-20)
(0.641227 -0.0937679 -3.00523e-20)
(0.664076 -0.0878513 -1.91532e-20)
(0.685549 -0.0822906 4.85429e-20)
(0.595558 -0.121598 6.80454e-20)
(0.620876 -0.11397 -7.63968e-20)
(0.644775 -0.106849 -1.63139e-20)
(0.667392 -0.10018 5.90994e-20)
(0.688623 -0.0939149 -4.71033e-20)
(0.600153 -0.136154 -1.35924e-19)
(0.625151 -0.127687 5.63696e-20)
(0.648753 -0.119779 7.57304e-20)
(0.671112 -0.112368 -1.35401e-19)
(0.692075 -0.105409 4.35596e-22)
(0.605232 -0.150517 1.17707e-19)
(0.629879 -0.141225 1.36991e-20)
(0.653155 -0.132543 -3.86349e-21)
(0.675229 -0.124401 6.39634e-21)
(0.6959 -0.116758 -8.41908e-20)
(0.610785 -0.16467 3.31031e-20)
(0.635051 -0.154567 -9.70547e-20)
(0.657973 -0.145125 -1.17461e-19)
(0.679738 -0.136263 1.33747e-19)
(0.700092 -0.127949 8.19775e-20)
(0.616804 -0.178595 -1.25872e-19)
(0.640659 -0.167698 2.88212e-20)
(0.663199 -0.157511 6.10244e-20)
(0.68463 -0.147941 -7.48262e-20)
(0.704645 -0.138968 -1.49553e-20)
(0.646694 -0.180601 7.7617e-20)
(0.668825 -0.169685 -8.86087e-20)
(0.689899 -0.159421 5.0218e-20)
(0.709551 -0.149803 7.13467e-20)
(0.653146 -0.193261 -5.03901e-21)
(0.674842 -0.181633 -3.98453e-21)
(0.695535 -0.170689 -7.25823e-20)
(0.714804 -0.16044 -1.67024e-19)
(0.660006 -0.205664 -2.31764e-20)
(0.681241 -0.193342 -8.20746e-20)
(0.70153 -0.181733 3.09895e-20)
(0.720396 -0.170867 1.55693e-19)
(0.667262 -0.217795 5.63706e-20)
(0.688011 -0.204797 1.17827e-19)
(0.707874 -0.19254 1.48754e-20)
(0.726318 -0.181072 -1.5428e-19)
(0.674903 -0.229641 -1.43571e-19)
(0.695143 -0.215987 -2.75895e-20)
(0.714558 -0.203097 -2.33228e-20)
(0.732563 -0.191043 9.78301e-20)
(0.702625 -0.226899 -4.57329e-21)
(0.721572 -0.213394 1.07229e-19)
(0.739121 -0.200769 5.01977e-20)
(0.710447 -0.23752 -5.4385e-20)
(0.728905 -0.223419 -6.19834e-21)
(0.745984 -0.210239 6.09428e-20)
(0.718595 -0.247841 -3.57687e-21)
(0.736546 -0.233162 -1.09411e-19)
(0.753141 -0.219442 -4.64188e-20)
(0.72706 -0.25785 8.5433e-20)
(0.744486 -0.242612 8.16634e-20)
(0.760584 -0.228369 7.93978e-20)
(0.752711 -0.251761 -3.12394e-20)
(0.768302 -0.23701 -8.45644e-20)
(0.761212 -0.260599 -1.29057e-19)
(0.776286 -0.245356 5.78334e-20)
(0.769975 -0.26912 2.10533e-19)
(0.784527 -0.253399 4.44613e-20)
(0.793013 -0.261131 -2.86382e-20)
(0.801736 -0.268546 -1.21429e-19)
(0.810685 -0.275638 2.11008e-19)
(0.999958 0.00250514 0)
(0.998984 0.00768036 0)
(0.997038 0.0130037 0)
(0.994442 0.0185103 0)
(0.991067 0.0242885 0)
(0.987201 0.0304467 0)
(0.982651 0.0371118 0)
(0.977758 0.0444294 0)
(0.972269 0.052584 0)
(0.966646 0.0617277 0)
(0.960557 0.0721043 0)
(0.954676 0.0838337 0)
(0.948536 0.0972274 0)
(0.943165 0.112303 0)
(0.93782 0.129473 0)
(0.934145 0.148497 0)
(0.930785 0.170024 0)
(0.930537 0.193159 0)
(0.930659 0.219377 -9.13449e-29)
(0.936255 0.245684 9.71967e-29)
(0.941558 0.277346 0)
(0.99996 0.00261088 0)
(0.999042 0.00799372 0)
(0.9972 0.0135169 0)
(0.994757 0.0192208 0)
(0.991582 0.0252076 0)
(0.98798 0.0315677 0)
(0.983751 0.0384509 0)
(0.97927 0.045964 0)
(0.974269 0.0543231 0)
(0.969266 0.0636122 0)
(0.963897 0.0741232 0)
(0.958923 0.0858585 0)
(0.953809 0.0992164 0)
(0.949722 0.114002 0)
(0.94577 0.130818 0)
(0.943828 0.149001 0)
(0.942234 0.169688 0)
(0.94417 0.190981 -3.95425e-29)
(0.946282 0.215779 4.20909e-29)
(0.954373 0.238359 -4.70424e-29)
(0.961222 0.268088 5.00661e-29)
(0.99996 0.00271643 0)
(0.999103 0.00830528 0)
(0.997376 0.0140305 0)
(0.995105 0.0199326 0)
(0.992152 0.0261296 0)
(0.988842 0.0326902 0)
(0.984967 0.0397888 0)
(0.980931 0.04749 0)
(0.976453 0.0560431 0)
(0.972098 0.0654591 0)
(0.967473 0.0760817 0)
(0.963408 0.0877853 0)
(0.959306 0.101066 0)
(0.956434 0.115493 0)
(0.953784 0.131887 0)
(0.953359 0.149117 0)
(0.953304 0.168857 0)
(0.956938 0.188207 0)
(0.960629 0.211362 0)
(0.970208 0.23057 0)
(0.978175 0.257555 0)
(0.99996 0.00281951 0)
(0.999166 0.00860855 0)
(0.997563 0.0145294 0)
(0.995473 0.0206196 0)
(0.992761 0.0270126 0)
(0.98976 0.0337559 0)
(0.986261 0.0410452 0)
(0.982691 0.0489059 0)
(0.978763 0.0576155 0)
(0.97507 0.0671174 0)
(0.971208 0.0778006 0)
(0.96804 0.0894204 0)
(0.964944 0.102562 0)
(0.963212 0.116579 0)
(0.961802 0.132491 0)
(0.962695 0.148759 0)
(0.964029 0.1675 0)
(0.968949 0.185083 0)
(0.97397 0.206527 0)
(0.984348 0.223122 0)
(0.993301 0.247359 0)
(0.999961 0.00291785 0)
(0.999233 0.00889579 0)
(0.997758 0.0149997 0)
(0.995857 0.021262 0)
(0.993395 0.0278309 0)
(0.990714 0.0347324 0)
(0.987608 0.0421811 0)
(0.984513 0.0501634 0)
(0.98115 0.0589817 0)
(0.97812 0.0685134 0)
(0.975027 0.0791884 0)
(0.972727 0.090649 0)
(0.970618 0.103563 0)
(0.969938 0.117086 0)
(0.9697 0.132411 0)
(0.971726 0.147672 0)
(0.974305 0.16531 0)
(0.980198 0.181234 0)
(0.986325 0.200886 0)
(0.997111 0.215298 0)
(1.00684 0.2369 0)
(0.999963 0.00301055 0)
(0.999301 0.00916417 0)
(0.99796 0.0154369 0)
(0.996252 0.021854 0)
(0.99405 0.028578 0)
(0.991693 0.0356124 0)
(0.98899 0.0431885 0)
(0.986371 0.051254 0)
(0.98358 0.060133 0)
(0.981198 0.0696384 0)
(0.978868 0.0802372 0)
(0.977392 0.0914656 0)
(0.976233 0.104062 0)
(0.976509 0.117017 0)
(0.977353 0.131655 0)
(0.980341 0.145875 0)
(0.983999 0.162314 0)
(0.990622 0.176669 0)
(0.997622 0.19449 0)
(1.00857 0.206971 0)
(1.01879 0.226052 0)
(0.999965 0.00309702 0)
(0.99937 0.00941228 0)
(0.998168 0.0158389 0)
(0.996655 0.0223929 0)
(0.994719 0.0292504 0)
(0.992687 0.0363919 0)
(0.990393 0.0440632 0)
(0.988245 0.0521737 0)
(0.986024 0.0610664 0)
(0.984269 0.0704931 0)
(0.98268 0.0809515 0)
(0.981977 0.0918851 0)
(0.981711 0.104087 0)
(0.982845 0.116419 0)
(0.984659 0.130288 0)
(0.988453 0.143464 0)
(0.993014 0.158649 0)
(1.00017 0.171534 0)
(1.00782 0.187549 0)
(1.01873 0.198313 0)
(1.0292 0.215033 0)
(0.999967 0.00317668 0)
(0.999441 0.00963864 0)
(0.998381 0.0162032 0)
(0.997064 0.0228753 0)
(0.995399 0.0298437 0)
(0.993691 0.0370655 0)
(0.991807 0.0447992 0)
(0.99012 0.0529171 0)
(0.988459 0.0617774 0)
(0.987305 0.0710765 0)
(0.986425 0.0813347 0)
(0.986437 0.0919206 0)
(0.986994 0.10366 0)
(0.988887 0.115332 0)
(0.991548 0.128375 0)
(0.996005 0.140521 0)
(1.00129 0.154437 0)
(1.00881 0.165957 0)
(1.0169 0.18024 0)
(1.02764 0.189484 0)
(1.03818 0.204054 -3.05685e-30)
(0.999971 0.00324896 0)
(0.999512 0.0098417 0)
(0.998598 0.0165269 0)
(0.997477 0.0232976 0)
(0.996085 0.0303533 0)
(0.994698 0.0376285 0)
(0.993219 0.0453914 0)
(0.991981 0.0534801 0)
(0.990863 0.0622629 0)
(0.990279 0.0713898 0)
(0.990065 0.0813926 0)
(0.990736 0.0915871 0)
(0.992034 0.102807 0)
(0.994589 0.113797 0)
(0.997971 0.125975 0)
(1.00296 0.137119 0)
(1.00881 0.149781 0)
(1.01655 0.160036 0)
(1.02491 0.172694 0)
(1.03536 0.180593 0)
(1.04581 0.193235 0)
(0.999974 0.0033133 0)
(0.999584 0.01002 0)
(0.998816 0.0168077 0)
(0.997892 0.0236566 0)
(0.996771 0.0307754 0)
(0.9957 0.0380769 0)
(0.994619 0.0458358 0)
(0.993815 0.0538604 0)
(0.993216 0.0625227 0)
(0.99317 0.0714376 0)
(0.993573 0.0811355 0)
(0.99484 0.0909033 0)
(0.996795 0.101559 0)
(0.999919 0.111855 0)
(1.0039 0.123151 0)
(1.0093 0.133325 0)
(1.01557 0.144772 0)
(1.02339 0.153859 0)
(1.03188 0.165014 0)
(1.04197 0.171726 0)
(1.05222 0.182649 0)
(0.999978 0.00336916 0)
(0.999656 0.0101722 0)
(0.999034 0.0170431 0)
(0.998305 0.0239495 0)
(0.997453 0.0311065 0)
(0.996692 0.0384078 0)
(0.995996 0.04613 0)
(0.995609 0.0540578 0)
(0.9955 0.0625594 0)
(0.995956 0.071227 0)
(0.996923 0.0805773 0)
(0.998723 0.0898912 0)
(1.00125 0.0999503 0)
(1.00485 0.109549 0)
(1.00931 0.119962 0)
(1.01501 0.129209 0)
(1.02156 0.139496 0)
(1.02938 0.147509 0)
(1.03786 0.157288 0)
(1.04753 0.162955 0)
(1.05749 0.172352 0)
(0.999982 0.00341606 0)
(0.999728 0.0102971 0)
(0.999251 0.0172312 0)
(0.998714 0.0241742 0)
(0.998125 0.0313443 0)
(0.997666 0.0386193 0)
(0.997339 0.0462732 0)
(0.997349 0.0540734 0)
(0.9977 0.0623776 0)
(0.998617 0.0707674 0)
(1.00009 0.0797351 0)
(1.00236 0.0885747 0)
(1.00538 0.098018 0)
(1.00937 0.106925 0)
(1.01421 0.11647 1.52725e-28)
(1.0201 0.124833 -1.62598e-28)
(1.02682 0.134029 0)
(1.03455 0.141061 0)
(1.04293 0.149591 -1.9227e-29)
(1.05214 0.154339 5.82736e-30)
(1.06174 0.162387 1.55785e-29)
(0.999985 0.00345355 0)
(0.9998 0.0103938 0)
(0.999465 0.0173704 0)
(0.999117 0.0243287 0)
(0.998782 0.0314869 0)
(0.998614 0.0387103 0)
(0.99864 0.0462658 0)
(0.999024 0.0539103 0)
(0.999798 0.0619843 0)
(1.00114 0.0700704 0)
(1.00306 0.0786281 0)
(1.00574 0.0869799 0)
(1.00916 0.0957988 0)
(1.01346 0.104025 0)
(1.01858 0.11273 0)
(1.02459 0.120259 0)
(1.03138 0.128438 0)
(1.03894 0.134577 0)
(1.04714 0.141982 0)
(1.05587 0.145928 0)
(1.06507 0.152789 0)
(0.999989 0.00348129 0)
(0.999871 0.0104614 0)
(0.999674 0.0174595 0)
(0.99951 0.0244119 0)
(0.99942 0.0315336 0)
(0.999531 0.038681 0)
(0.999887 0.0461098 0)
(1.00062 0.0535728 0)
(1.00178 0.0613885 0)
(1.0035 0.0691494 0)
(1.00582 0.0772772 0)
(1.00885 0.0851336 0)
(1.0126 0.0933295 0)
(1.01713 0.100894 0)
(1.02244 0.108794 0)
(1.02849 0.115541 0)
(1.03526 0.122781 0)
(1.04261 0.128113 0)
(1.05057 0.134509 0)
(1.05881 0.137758 0)
(1.06756 0.143581 0)
(0.999992 0.00349897 0)
(0.99994 0.0104992 0)
(0.999877 0.0174974 0)
(0.999891 0.0244231 0)
(1.00003 0.0314841 0)
(1.00041 0.0385324 0)
(1.00107 0.0458084 0)
(1.00213 0.053067 0)
(1.00364 0.0606005 0)
(1.0057 0.0680193 0)
(1.00835 0.0757045 0)
(1.01167 0.0830638 0)
(1.01568 0.0906463 0)
(1.02038 0.0975717 0)
(1.0258 0.10471 0)
(1.03183 0.110729 0)
(1.03852 0.117109 0)
(1.04561 0.121715 0)
(1.05328 0.127214 0)
(1.06102 0.129858 0)
(1.06932 0.134774 0)
(0.999995 0.00350641 0)
(1.00001 0.010507 0)
(1.00007 0.017484 0)
(1.00026 0.0243621 0)
(1.00062 0.0313394 0)
(1.00124 0.0382667 0)
(1.00219 0.0453664 0)
(1.00354 0.0524001 0)
(1.00536 0.0596325 0)
(1.00771 0.0666965 0)
(1.01065 0.0739327 0)
(1.0142 0.0807985 0)
(1.0184 0.0877839 0)
(1.02321 0.0940984 0)
(1.02867 0.10052 0)
(1.03462 0.105867 0)
(1.04118 0.111464 0)
(1.04799 0.115422 0)
(1.05533 0.120125 0)
(1.06259 0.122249 0)
(1.07041 0.126377 0)
(0.999997 0.00350348 0)
(1.00007 0.0104845 0)
(1.00026 0.017419 0)
(1.0006 0.0242294 0)
(1.00117 0.031101 0)
(1.00203 0.0378868 0)
(1.00324 0.0447895 0)
(1.00485 0.0515809 0)
(1.00694 0.0584976 0)
(1.00954 0.0651983 0)
(1.01271 0.071985 0)
(1.01643 0.0783656 0)
(1.02078 0.0847756 0)
(1.02563 0.0905104 0)
(1.03108 0.0962645 0)
(1.03692 0.100994 0)
(1.04328 0.105883 0)
(1.04979 0.109264 0)
(1.05678 0.113265 0)
(1.06356 0.114945 0)
(1.07092 0.11839 9.7775e-31)
(0.999999 0.0034902 0)
(1.00013 0.0104317 0)
(1.00043 0.0173032 0)
(1.00093 0.024026 0)
(1.00169 0.0307716 0)
(1.00276 0.0373969 0)
(1.0042 0.0440846 0)
(1.00605 0.0506191 0)
(1.00837 0.0572097 0)
(1.01118 0.0635427 0)
(1.01453 0.0698845 0)
(1.01838 0.0757923 0)
(1.0228 0.0816526 0)
(1.02766 0.0868415 0)
(1.03305 0.091978 0)
(1.03873 0.0961446 0)
(1.04488 0.100396 -3.49295e-29)
(1.05107 0.103267 3.71835e-29)
(1.0577 0.106653 0)
(1.06402 0.107953 0)
(1.07091 0.11081 0)
(1 0.00346663 0)
(1.00019 0.0103489 0)
(1.0006 0.0171373 0)
(1.00124 0.0237537 0)
(1.00217 0.0303543 0)
(1.00343 0.0368021 0)
(1.00508 0.0432596 0)
(1.00713 0.0495255 0)
(1.00965 0.0557837 0)
(1.01262 0.0617484 0)
(1.01611 0.0676538 0)
(1.02005 0.0731049 0)
(1.0245 0.0784443 0)
(1.02932 0.0831226 0)
(1.03461 0.0876914 0)
(1.0401 0.0913469 0)
(1.04601 0.0950291 0)
(1.05187 0.0974514 0)
(1.05814 0.1003 0)
(1.06401 0.101279 0)
(1.07046 0.10363 0)
(1 0.00343297 0)
(1.00025 0.0102368 0)
(1.00075 0.0169228 0)
(1.00152 0.0234148 0)
(1.00261 0.0298532 0)
(1.00404 0.0361082 0)
(1.00586 0.042323 0)
(1.00809 0.0483116 0)
(1.01077 0.0542346 0)
(1.01387 0.0598338 0)
(1.01745 0.0653152 0)
(1.02143 0.0703284 0)
(1.02588 0.0751777 0)
(1.03062 0.0793815 0)
(1.03578 0.0834317 0)
(1.04107 0.0866262 0)
(1.04671 0.0898019 0)
(1.05225 0.0918312 0)
(1.05814 0.0942128 -4.25815e-30)
(1.0636 0.0949219 2.25061e-30)
(1.0696 0.0968402 2.42836e-30)
(1 0.00338949 0)
(1.00029 0.010096 0)
(1.00089 0.0166614 0)
(1.00177 0.0230121 0)
(1.00301 0.0292728 0)
(1.00458 0.0353218 0)
(1.00656 0.0412843 0)
(1.00892 0.0469896 0)
(1.01173 0.0525779 0)
(1.01492 0.0578176 0)
(1.01857 0.06289 0)
(1.02255 0.0674865 0)
(1.02696 0.0718776 0)
(1.0316 0.0756433 0)
(1.03659 0.0792224 0)
(1.04166 0.0820032 0)
(1.04703 0.0847306 0)
(1.05224 0.0864179 0)
(1.05777 0.0883957 0)
(1.06282 0.0888801 0)
(1.06841 0.0904302 0)
(1.00001 0.00333655 0)
(1.00034 0.00992761 0)
(1.00101 0.0163554 0)
(1.002 0.0225491 0)
(1.00336 0.0286185 0)
(1.00506 0.0344503 0)
(1.00717 0.0401533 0)
(1.00964 0.0455721 0)
(1.01254 0.050829 0)
(1.0158 0.0557178 0)
(1.01946 0.0603987 0)
(1.02342 0.0646011 0)
(1.02775 0.0685665 0)
(1.03226 0.0719301 0)
(1.03707 0.0750833 0)
(1.04191 0.077495 5.32382e-29)
(1.04699 0.0798277 -5.66771e-29)
(1.05189 0.0812191 0)
(1.05706 0.0828495 0)
(1.06174 0.0831486 0)
(1.06692 0.0843868 0)
(1.00001 0.0032746 0)
(1.00038 0.009733 0)
(1.00112 0.0160072 0)
(1.0022 0.0220296 0)
(1.00366 0.0278961 0)
(1.00547 0.0335015 0)
(1.00768 0.0389402 0)
(1.01024 0.0440718 0)
(1.0132 0.0490032 0)
(1.01649 0.053552 0)
(1.02014 0.0578603 0)
(1.02405 0.0616926 0)
(1.02828 0.0652647 0)
(1.03264 0.0682611 0)
(1.03725 0.0710316 0)
(1.04185 0.0731156 0)
(1.04665 0.0751025 0)
(1.05123 0.0762394 0)
(1.05607 0.0775725 0)
(1.06038 0.0777206 0)
(1.06518 0.0786963 0)
(1.00001 0.00320415 0)
(1.00041 0.00951366 0)
(1.00122 0.0156198 0)
(1.00238 0.0214582 0)
(1.00392 0.0271117 0)
(1.00582 0.0324835 0)
(1.0081 0.0376555 0)
(1.01072 0.0425015 0)
(1.01372 0.0471155 0)
(1.017 0.0513369 0)
(1.02062 0.055293 0)
(1.02445 0.0587794 0)
(1.02856 0.0619901 0)
(1.03276 0.0646531 0)
(1.03716 0.0670812 0)
(1.04151 0.068876 0)
(1.04604 0.0705615 0)
(1.05032 0.0714809 0)
(1.05482 0.0725613 0)
(1.0588 0.072588 0)
(1.06324 0.0733443 3.44873e-31)
(1.00001 0.00312578 0)
(1.00044 0.00927134 0)
(1.0013 0.0151963 0)
(1.00252 0.0208394 0)
(1.00414 0.0262719 0)
(1.0061 0.0314051 0)
(1.00844 0.03631 -7.93176e-30)
(1.01109 0.0408739 8.44658e-30)
(1.01409 0.0451802 0)
(1.01736 0.0490886 0)
(1.02092 0.0527134 3.3988e-29)
(1.02465 0.0558785 -3.61907e-29)
(1.02861 0.0587588 0)
(1.03264 0.0611204 0)
(1.03683 0.0632438 0)
(1.04094 0.0647845 0)
(1.04519 0.0662087 0)
(1.04917 0.0669435 0)
(1.05336 0.0678104 0)
(1.05702 0.0677413 0)
(1.06112 0.0683155 0)
(1.00001 0.00304014 0)
(1.00047 0.00900797 0)
(1.00137 0.0147401 0)
(1.00264 0.0201783 0)
(1.00431 0.0253835 0)
(1.00631 0.0302748 0)
(1.00868 0.0349141 0)
(1.01135 0.0392014 0)
(1.01434 0.0432114 0)
(1.01756 0.0468219 0)
(1.02104 0.0501367 0)
(1.02466 0.0530048 0)
(1.02847 0.0555843 0)
(1.03231 0.057675 0)
(1.03628 0.0595284 0)
(1.04015 0.0608471 0)
(1.04413 0.062046 0)
(1.04784 0.0626256 0)
(1.05172 0.0633133 0)
(1.05509 0.0631704 0)
(1.05887 0.0635949 0)
(1.00001 0.00294791 0)
(1.00049 0.00872563 5.54265e-30)
(1.00142 0.0142548 -5.90277e-30)
(1.00273 0.0194802 0)
(1.00443 0.0244535 0)
(1.00647 0.0291015 0)
(1.00885 0.0334784 0)
(1.01151 0.0374962 0)
(1.01446 0.041222 0)
(1.01762 0.0445507 0)
(1.021 0.0475769 0)
(1.02449 0.0501717 0)
(1.02814 0.0524787 0)
(1.03179 0.0543269 0)
(1.03555 0.0559421 0)
(1.03918 0.057068 0)
(1.04289 0.0580737 0)
(1.04634 0.0585238 0)
(1.04993 0.0590623 -5.14785e-30)
(1.05303 0.0588644 2.66931e-30)
(1.05651 0.059167 2.99057e-30)
(1.00001 0.00284982 0)
(1.0005 0.00842653 0)
(1.00145 0.0137442 0)
(1.00279 0.0187505 0)
(1.00452 0.023489 0)
(1.00657 0.027894 0)
(1.00894 0.0320131 0)
(1.01157 0.0357696 0)
(1.01447 0.0392244 0)
(1.01755 0.0422877 0)
(1.02082 0.0450463 0)
(1.02417 0.0473908 0)
(1.02765 0.0494519 0)
(1.03111 0.051084 0)
(1.03465 0.0524902 0)
(1.03805 0.0534495 0)
(1.04151 0.0542904 0)
(1.04471 0.0546335 0)
(1.04803 0.055049 0)
(1.05088 0.0548119 0)
(1.05408 0.0550165 0)
(1.00001 0.00274664 0)
(1.00051 0.00811299 0)
(1.00148 0.0132122 0)
(1.00283 0.0179946 0)
(1.00456 0.0224971 0)
(1.00661 0.0266607 0)
(1.00896 0.0305281 0)
(1.01155 0.0340325 0)
(1.01438 0.0372302 0)
(1.01736 0.0400447 0)
(1.02051 0.042556 0)
(1.02371 0.0446721 0)
(1.02702 0.0465122 0)
(1.03029 0.0479526 0)
(1.03361 0.049176 0)
(1.03679 0.0499922 0)
(1.04002 0.0506936 0)
(1.04297 0.0509494 0)
(1.04604 0.0512644 0)
(1.04866 0.0510015 0)
(1.05159 0.0511284 0)
(1.00001 0.00263914 0)
(1.00052 0.00778736 0)
(1.00149 0.0126626 0)
(1.00285 0.017218 0)
(1.00457 0.0214846 0)
(1.0066 0.02541 0)
(1.00891 0.0290327 0)
(1.01144 0.0322953 0)
(1.01419 0.0352497 0)
(1.01707 0.0378319 0)
(1.02008 0.0401158 0)
(1.02314 0.0420243 0)
(1.02627 0.0436665 0)
(1.02935 0.0449375 0)
(1.03246 0.0460018 0)
(1.03543 0.0466958 0)
(1.03842 0.0472798 0)
(1.04116 0.0474653 0)
(1.04398 0.0476991 0)
(1.04639 0.0474214 0)
(1.04908 0.0474878 -9.16681e-31)
(1.00001 0.00252812 0)
(1.00052 0.00745202 0)
(1.00149 0.0120994 0)
(1.00284 0.0164261 0)
(1.00455 0.0204583 0)
(1.00654 0.02415 0)
(1.0088 0.0275359 0)
(1.01127 0.0305673 0)
(1.01392 0.0332927 3.81734e-29)
(1.01668 0.0356586 -4.06494e-29)
(1.01956 0.037734 0)
(1.02247 0.0394545 0)
(1.02542 0.0409199 0)
(1.02831 0.0420418 0)
(1.03122 0.0429683 0)
(1.03398 0.0435586 0)
(1.03676 0.0440444 0)
(1.03928 0.0441741 0)
(1.04189 0.0443434 0)
(1.04409 0.0440599 0)
(1.04656 0.0440803 0)
(1.00001 0.00241435 0)
(1.00052 0.00710928 0)
(1.00148 0.0115264 0)
(1.00282 0.0156241 0)
(1.00449 0.0194249 0)
(1.00644 0.0228881 0)
(1.00864 0.0260458 0)
(1.01103 0.0288572 0)
(1.01358 0.0313676 0)
(1.01622 0.0335331 0)
(1.01896 0.0354177 0)
(1.02171 0.0369684 0)
(1.02449 0.0382766 0)
(1.0272 0.0392677 0)
(1.02991 0.0400752 0)
(1.03248 0.0405779 0)
(1.03504 0.0409823 0)
(1.03737 0.0410687 0)
(1.03977 0.0411874 0)
(1.04179 0.0409056 0)
(1.04405 0.040892 0)
(1.00001 0.0022986 0)
(1.00051 0.00676147 0)
(1.00146 0.0109473 0)
(1.00277 0.0148173 0)
(1.00441 0.0183904 0)
(1.00631 0.0216315 0)
(1.00844 0.0245703 0)
(1.01073 0.0271729 0)
(1.01317 0.0294822 0)
(1.01569 0.0314622 0)
(1.01829 0.0331729 0)
(1.02088 0.0345707 0)
(1.02349 0.0357393 0)
(1.02602 0.036616 0)
(1.02855 0.0373213 0)
(1.03093 0.0377506 0)
(1.0333 0.0380879 0)
(1.03545 0.0381415 0)
(1.03765 0.0382214 -5.95339e-30)
(1.0395 0.0379469 1.77724e-30)
(1.04157 0.0379093 4.85247e-30)
(1.00001 0.00218164 0)
(1.0005 0.00641084 0)
(1.00143 0.0103658 0)
(1.00271 0.0140103 0)
(1.0043 0.0173606 0)
(1.00614 0.0203867 0)
(1.00819 0.0231161 0)
(1.01039 0.0255215 0)
(1.01272 0.027643 0)
(1.01511 0.029452 0)
(1.01756 0.0310044 0)
(1.01999 0.0322648 0)
(1.02244 0.0333097 0)
(1.0248 0.0340868 0)
(1.02715 0.0347044 0)
(1.02935 0.0350726 0)
(1.03154 0.0353551 0)
(1.03352 0.0353846 0)
(1.03554 0.0354355 0)
(1.03724 0.0351729 0)
(1.03913 0.0351193 0)
(1.00001 0.00206421 0)
(1.00049 0.00605958 0)
(1.00139 0.00978532 0)
(1.00263 0.0132078 0)
(1.00417 0.0163411 0)
(1.00594 0.0191597 0)
(1.00791 0.0216897 0)
(1.01001 0.023909 0)
(1.01222 0.0258557 0)
(1.01448 0.0275074 0)
(1.01679 0.0289159 0)
(1.01907 0.0300531 0)
(1.02135 0.0309888 0)
(1.02355 0.0316792 0)
(1.02573 0.0322218 0)
(1.02777 0.0325394 0)
(1.02979 0.0327777 0)
(1.03161 0.0327903 0)
(1.03346 0.0328202 0)
(1.03502 0.0325727 0)
(1.03675 0.0325097 0)
(1.00001 0.00194699 0)
(1.00048 0.00570975 0)
(1.00135 0.00920908 0)
(1.00255 0.012414 0)
(1.00403 0.0153368 0)
(1.00572 0.017956 0)
(1.0076 0.0202964 0)
(1.00959 0.0223408 0)
(1.01169 0.0241252 0)
(1.01382 0.0256323 0)
(1.01598 0.0269104 0)
(1.01812 0.0279371 0)
(1.02025 0.0287763 0)
(1.02229 0.0293915 0)
(1.0243 0.0298703 0)
(1.02619 0.0301462 0)
(1.02805 0.0303489 0)
(1.02972 0.0303505 0)
(1.03142 0.030366 0)
(1.03285 0.030136 0)
(1.03443 0.0300688 -2.98997e-30)
(1.00001 0.00183065 0)
(1.00046 0.00536324 0)
(1.0013 0.00864005 0)
(1.00245 0.0116327 0)
(1.00387 0.014352 0)
(1.00548 0.0167803 0)
(1.00727 0.0189412 0)
(1.00916 0.0208215 0)
(1.01113 0.0224553 0)
(1.01313 0.0238297 0)
(1.01516 0.0249897 0)
(1.01715 0.0259175 0)
(1.01913 0.0266716 0)
(1.02103 0.0272215 0)
(1.02289 0.027646 0)
(1.02462 0.0278878 0)
(1.02633 0.0280623 0)
(1.02787 0.0280575 0)
(1.02943 0.0280638 0)
(1.03074 0.0278529 0)
(1.03218 0.0277853 0)
(1.00001 0.00171579 0)
(1.00044 0.00502182 0)
(1.00125 0.00808097 0)
(1.00235 0.0108674 0)
(1.0037 0.0133908 0)
(1.00523 0.0156369 0)
(1.00692 0.017628 0)
(1.0087 0.0193547 0)
(1.01056 0.0208491 0)
(1.01243 0.0221019 0)
(1.01432 0.0231548 0)
(1.01618 0.0239942 0)
(1.01801 0.0246732 0)
(1.01977 0.0251665 0)
(1.02149 0.0255448 0)
(1.02309 0.0257589 0)
(1.02466 0.025911 0)
(1.02608 0.0259036 0)
(1.0275 0.0259047 0)
(1.0287 0.0257138 -1.55586e-30)
(1.03002 0.0256488 1.65586e-30)
(1.00001 0.00160296 0)
(1.00042 0.00468706 0)
(1.00119 0.00753424 0)
(1.00223 0.0101212 0)
(1.00352 0.0124565 0)
(1.00497 0.0145292 0)
(1.00656 0.0163603 0)
(1.00824 0.0179435 0)
(1.00997 0.0193089 0)
(1.01173 0.0204504 0)
(1.01349 0.0214063 0)
(1.01521 0.0221665 0)
(1.01691 0.0227791 0)
(1.01853 0.0232233 0)
(1.02012 0.0235623 0)
(1.02159 0.0237538 0)
(1.02304 0.0238886 0)
(1.02433 0.0238813 0)
(1.02564 0.0238803 -3.37908e-30)
(1.02674 0.0237095 3.5966e-30)
(1.02794 0.0236492 0)
(1.00001 0.00149265 0)
(1.0004 0.00436038 0)
(1.00113 0.007002 0)
(1.00212 0.0093966 0)
(1.00333 0.0115522 0)
(1.0047 0.0134602 0)
(1.0062 0.0151407 0)
(1.00777 0.01659 0)
(1.00939 0.0178362 0)
(1.01102 0.0188757 0)
(1.01266 0.0197437 0)
(1.01426 0.0204329 0)
(1.01583 0.0209868 0)
(1.01733 0.0213883 0)
(1.01878 0.0216938 0)
(1.02014 0.0218669 0)
(1.02147 0.0219882 0)
(1.02266 0.021983 0)
(1.02385 0.0219824 0)
(1.02486 0.0218315 0)
(1.02596 0.0217774 -2.43711e-30)
(1.00001 0.00138529 0)
(1.00038 0.00404298 0)
(1.00107 0.00648607 0)
(1.002 0.00869596 0)
(1.00314 0.0106801 0)
(1.00443 0.0124322 0)
(1.00583 0.0139713 0)
(1.0073 0.0152958 0)
(1.00881 0.0164318 0)
(1.01033 0.0173779 0)
(1.01184 0.0181663 0)
(1.01332 0.0187917 0)
(1.01477 0.0192935 0)
(1.01615 0.0196576 0)
(1.01749 0.0199345 0)
(1.01874 0.0200927 0)
(1.01996 0.0202035 0)
(1.02105 0.0202018 0)
(1.02214 0.0202031 0)
(1.02307 0.0200715 0)
(1.02407 0.0200245 0)
(1.00001 0.00128123 0)
(1.00036 0.00373588 0)
(1.00101 0.00598794 0)
(1.00188 0.00802104 0)
(1.00295 0.00984216 0)
(1.00416 0.011447 0)
(1.00547 0.0128535 0)
(1.00683 0.0140618 0)
(1.00824 0.0150961 0)
(1.00964 0.0159565 0)
(1.01105 0.0166724 0)
(1.01241 0.0172404 0)
(1.01375 0.0176959 0)
(1.01502 0.0180273 0)
(1.01625 0.0182794 0)
(1.0174 0.0184254 0)
(1.01851 0.018528 0)
(1.01952 0.0185307 0)
(1.02052 0.0185349 0)
(1.02137 0.0184217 0)
(1.02228 0.0183822 0)
(1.00001 0.00118078 0)
(1.00034 0.00343991 0)
(1.00094 0.00550881 0)
(1.00177 0.00737322 0)
(1.00277 0.00903975 0)
(1.00389 0.0105058 0)
(1.00511 0.0117881 0)
(1.00638 0.0128882 0)
(1.00768 0.0138285 0)
(1.00898 0.0146103 0)
(1.01028 0.0152604 0)
(1.01154 0.0157765 0)
(1.01277 0.0161905 0)
(1.01394 0.0164929 0)
(1.01507 0.0167236 0)
(1.01612 0.0168593 0)
(1.01714 0.0169555 0)
(1.01806 0.016963 0)
(1.01898 0.0169707 5.0331e-30)
(1.01976 0.0168748 -4.49053e-31)
(1.02059 0.0168428 -5.2235e-30)
(1.00001 0.00108416 0)
(1.00032 0.00315569 0)
(1.00088 0.00504957 0)
(1.00165 0.0067535 0)
(1.00258 0.00827376 0)
(1.00363 0.00960911 0)
(1.00476 0.0107753 0)
(1.00594 0.0117748 0)
(1.00714 0.0126283 0)
(1.00834 0.0133378 0)
(1.00954 0.0139277 0)
(1.0107 0.0143968 0)
(1.01183 0.0147735 0)
(1.0129 0.0150501 0)
(1.01394 0.0152618 0)
(1.01491 0.0153888 0)
(1.01584 0.0154799 0)
(1.01669 0.0154922 0)
(1.01752 0.0155037 0)
(1.01824 0.0154238 0)
(1.019 0.015399 0)
(1.00001 0.000991554 0)
(1.00029 0.00288369 0)
(1.00082 0.00461082 0)
(1.00154 0.00616247 0)
(1.0024 0.00754464 0)
(1.00337 0.0087572 0)
(1.00442 0.00981482 0)
(1.00551 0.0107208 0)
(1.00662 0.0114939 0)
(1.00773 0.0121369 0)
(1.00883 0.0126717 0)
(1.0099 0.0130979 -4.15424e-30)
(1.01094 0.0134408 4.42333e-30)
(1.01192 0.0136942 -4.13904e-30)
(1.01288 0.0138891 4.4068e-30)
(1.01376 0.0140085 0)
(1.01462 0.0140952 0)
(1.01539 0.0141121 0)
(1.01616 0.0141273 0)
(1.01682 0.014062 0)
(1.01751 0.014044 6.79025e-30)
(1 0.000903056 0)
(1.00027 0.00262415 0)
(1.00076 0.00419286 0)
(1.00143 0.00560037 0)
(1.00223 0.0068524 0)
(1.00313 0.00794973 0)
(1.0041 0.00890595 0)
(1.0051 0.00972485 0)
(1.00613 0.0104235 0)
(1.00715 0.0110052 0)
(1.00816 0.0114893 0)
(1.00914 0.0118763 0)
(1.01009 0.0121884 0)
(1.011 0.0124206 0)
(1.01187 0.0126002 0)
(1.01269 0.0127127 0)
(1.01347 0.0127956 0)
(1.01418 0.0128166 0)
(1.01488 0.0128352 0)
(1.01549 0.012783 0)
(1.01612 0.0127713 0)