/*--------------------------------*- C++ -*----------------------------------*\
  =========                 |
  \\      /  F ield         | OpenFOAM: The Open Source CFD Toolbox
   \\    /   O peration     | Website:  https://openfoam.org
    \\  /    A nd           | Version:  7
     \\/     M anipulation  |
\*---------------------------------------------------------------------------*/
FoamFile
{
    version     2.0;
    format      ascii;
    class       surfaceScalarField;
    location    "220";
    object      phi;
}
// * * * * * * * * * * * * * * * * * * * * * * * * * * * * * * * * * * * * * //

dimensions      [0 3 -1 0 0 0 0];

internalField   nonuniform List<scalar> 
13926
(
-7.08027e-07
-3.13093e-05
3.20174e-05
-2.71473e-06
-8.2547e-05
8.45537e-05
-5.95475e-06
-0.000124806
0.000128046
-0.000158555
0.00016296
-7.43971e-07
-3.05654e-05
-2.8375e-06
-8.04535e-05
-6.19896e-06
-0.000121444
-0.000154008
-7.75894e-07
-2.97895e-05
-2.94585e-06
-7.82835e-05
-6.41294e-06
-0.000117977
-0.000149339
-8.03832e-07
-2.89856e-05
-3.04001e-06
-7.60473e-05
-6.59727e-06
-0.00011442
-0.000144568
-8.27923e-07
-2.81577e-05
-3.12042e-06
-7.37548e-05
-6.7529e-06
-0.000110787
-0.000139714
-8.48308e-07
-2.73094e-05
-3.18762e-06
-7.14155e-05
-6.881e-06
-0.000107094
-0.000134796
-8.65191e-07
-2.64442e-05
-3.24233e-06
-6.90384e-05
-6.98312e-06
-0.000103353
-0.000129831
-8.788e-07
-2.55654e-05
-3.28539e-06
-6.66318e-05
-7.06101e-06
-9.95775e-05
-0.000124835
-8.89407e-07
-2.4676e-05
-3.31777e-06
-6.42034e-05
-7.1167e-06
-9.57785e-05
-0.000119823
-8.97326e-07
-2.37787e-05
-3.34058e-06
-6.17602e-05
-7.15248e-06
-9.19666e-05
-0.000114809
-9.02911e-07
-2.28758e-05
-3.35506e-06
-5.9308e-05
-7.1709e-06
-8.81508e-05
-0.000109802
-9.06529e-07
-2.19692e-05
-3.36249e-06
-5.68521e-05
-7.17461e-06
-8.43387e-05
-0.000104815
-9.08505e-07
-2.10607e-05
-3.36409e-06
-5.43965e-05
-7.16627e-06
-8.05365e-05
-9.98548e-05
-9.09116e-07
-2.01516e-05
-3.36092e-06
-5.19447e-05
-7.1482e-06
-7.67492e-05
-1.20755e-05
-9.49275e-05
-0.000106969
-9.08619e-07
-1.9243e-05
-3.35399e-06
-4.94993e-05
-7.12262e-06
-7.29806e-05
-1.20124e-05
-9.00377e-05
-0.000101144
-9.07318e-07
-1.83357e-05
-3.34436e-06
-4.70623e-05
-7.09188e-06
-6.9233e-05
-1.19414e-05
-8.51881e-05
-9.53842e-05
-9.05575e-07
-1.74301e-05
-3.33324e-06
-4.46346e-05
-7.05821e-06
-6.55081e-05
-1.18663e-05
-8.03801e-05
-8.96916e-05
-9.03754e-07
-1.65264e-05
-3.32187e-06
-4.22165e-05
-7.02414e-06
-6.18058e-05
-1.17906e-05
-7.56136e-05
-8.40654e-05
-9.02177e-07
-1.56242e-05
-3.31133e-06
-3.98073e-05
-6.99185e-06
-5.81253e-05
-1.1718e-05
-7.08875e-05
-7.85041e-05
-9.01097e-07
-1.47231e-05
-3.30247e-06
-3.7406e-05
-6.96309e-06
-5.44647e-05
-1.16514e-05
-6.61992e-05
-7.3005e-05
-9.00687e-07
-1.38224e-05
-3.29589e-06
-3.50108e-05
-6.9391e-06
-5.08214e-05
-1.15929e-05
-6.15454e-05
-1.70341e-05
-6.75638e-05
-6.93359e-05
-9.01057e-07
-1.29213e-05
-3.29197e-06
-3.26198e-05
-6.92066e-06
-4.71928e-05
-1.15438e-05
-5.69222e-05
-1.69322e-05
-6.21755e-05
-6.33936e-05
-9.02275e-07
-1.20191e-05
-3.29094e-06
-3.02312e-05
-6.90818e-06
-4.35755e-05
-1.1505e-05
-5.23254e-05
-1.68459e-05
-5.68347e-05
-5.75259e-05
-9.04364e-07
-1.11147e-05
-3.29286e-06
-2.78427e-05
-6.90178e-06
-3.99666e-05
-1.14764e-05
-4.77507e-05
-1.67755e-05
-5.15356e-05
-5.17263e-05
-9.07296e-07
-1.02074e-05
-3.29762e-06
-2.54524e-05
-6.90119e-06
-3.6363e-05
-1.14576e-05
-4.31942e-05
-1.672e-05
-4.62733e-05
-2.24583e-05
-4.5988e-05
-4.27777e-05
-9.10976e-07
-9.29643e-06
-3.30484e-06
-2.30585e-05
-6.90562e-06
-3.27622e-05
-1.14473e-05
-3.86526e-05
-1.66771e-05
-4.10434e-05
-2.23596e-05
-4.03056e-05
-3.68588e-05
-9.15251e-07
-8.38118e-06
-3.31397e-06
-2.06598e-05
-6.91384e-06
-2.91624e-05
-1.14431e-05
-3.41234e-05
-1.66439e-05
-3.58426e-05
-2.22746e-05
-3.46748e-05
-3.10199e-05
-9.19911e-07
-7.46127e-06
-3.32424e-06
-1.82554e-05
-6.92421e-06
-2.55624e-05
-1.14424e-05
-2.96052e-05
-1.66156e-05
-3.06694e-05
-2.21973e-05
-2.90932e-05
-2.52578e-05
-9.24686e-07
-6.53658e-06
-3.33467e-06
-1.58455e-05
-6.93469e-06
-2.19624e-05
-1.14417e-05
-2.50982e-05
-1.65873e-05
-2.55237e-05
-2.212e-05
-2.35605e-05
-2.78061e-05
-1.95717e-05
-1.39557e-05
-9.29256e-07
-5.60732e-06
-3.34412e-06
-1.34306e-05
-6.94285e-06
-1.83636e-05
-1.14368e-05
-2.06042e-05
-1.65527e-05
-2.04079e-05
-2.20337e-05
-1.80795e-05
-2.76413e-05
-1.39642e-05
-8.44228e-06
-9.33256e-07
-4.67407e-06
-3.35128e-06
-1.10126e-05
-6.94592e-06
-1.4769e-05
-1.14231e-05
-1.61271e-05
-1.65044e-05
-1.53266e-05
-2.19285e-05
-1.26553e-05
-2.74513e-05
-8.44146e-06
-3.04687e-06
-9.36282e-07
-3.73779e-06
-3.35471e-06
-8.59415e-06
-6.94088e-06
-1.11828e-05
-1.13953e-05
-1.16727e-05
-1.64347e-05
-1.02871e-05
-2.17931e-05
-7.29697e-06
-2.72212e-05
-3.01339e-06
2.21876e-06
-9.37903e-07
-2.79988e-06
-3.35288e-06
-6.17918e-06
-6.9245e-06
-7.6112e-06
-1.1348e-05
-7.24918e-06
-1.63354e-05
-5.29969e-06
-2.16158e-05
-2.01664e-06
-2.69347e-05
2.30557e-06
-3.20542e-05
7.33827e-06
1.27226e-05
-9.37674e-07
-1.86221e-06
-3.34421e-06
-3.77264e-06
-6.89343e-06
-4.06198e-06
-1.12756e-05
-2.86706e-06
-1.61977e-05
-3.77502e-07
-2.13842e-05
3.16983e-06
-2.65752e-05
7.4966e-06
-3.15266e-05
1.22896e-05
1.72043e-05
-9.35144e-07
-9.27066e-07
-3.32708e-06
-1.38071e-06
-6.84428e-06
-5.44773e-07
-1.11721e-05
1.46073e-06
-1.60128e-05
4.46327e-06
-2.10858e-05
8.24277e-06
-2.61257e-05
1.25365e-05
-3.08814e-05
1.70453e-05
2.14381e-05
-9.29871e-07
2.80481e-09
-3.29992e-06
9.8934e-07
-6.77371e-06
2.92901e-06
-1.10319e-05
5.7189e-06
-1.5772e-05
9.20339e-06
-2.0708e-05
1.31788e-05
-2.55688e-05
1.73973e-05
-3.00961e-05
2.15727e-05
-3.40433e-05
2.53853e-05
2.84845e-05
-9.21436e-07
9.2424e-07
-3.26122e-06
3.32913e-06
-6.6785e-06
6.3463e-06
-1.08494e-05
9.88984e-06
-1.54668e-05
1.38207e-05
-2.02389e-05
1.79509e-05
-2.48881e-05
2.20465e-05
-2.91485e-05
2.58331e-05
-3.27639e-05
2.90007e-05
3.12061e-05
-9.09455e-07
1.8337e-06
-3.2096e-06
5.62927e-06
-6.55571e-06
9.6924e-06
-1.06197e-05
1.39538e-05
-1.50892e-05
1.82903e-05
-1.9667e-05
2.25286e-05
-2.40681e-05
2.64476e-05
-2.80182e-05
2.97832e-05
-3.12504e-05
3.22329e-05
3.34592e-05
-8.93592e-07
2.72729e-06
-3.14383e-06
7.87951e-06
-6.40268e-06
1.29512e-05
-1.03379e-05
1.78891e-05
-1.46323e-05
2.25846e-05
-1.8982e-05
2.68783e-05
-2.30946e-05
3.05602e-05
-2.66862e-05
3.33748e-05
-2.94784e-05
3.50252e-05
-3.11958e-05
3.51765e-05
3.34586e-05
-8.73571e-07
3.60086e-06
-3.06288e-06
1.00688e-05
-6.21715e-06
1.61055e-05
-1.00003e-05
2.16722e-05
-1.40898e-05
2.66741e-05
-1.8175e-05
3.09636e-05
-2.19552e-05
3.43404e-05
-2.51358e-05
3.65555e-05
-2.7426e-05
3.73153e-05
-2.85348e-05
3.62853e-05
3.30918e-05
-8.49182e-07
4.45004e-06
-2.96594e-06
1.21856e-05
-5.99733e-06
1.91369e-05
-9.60351e-06
2.52784e-05
-1.34565e-05
3.05271e-05
-1.72385e-05
3.47456e-05
-2.06393e-05
3.77412e-05
-2.33532e-05
3.92694e-05
-2.50753e-05
3.90374e-05
-2.54977e-05
3.67077e-05
-2.43067e-05
3.19007e-05
2.41969e-05
-8.20294e-07
5.27033e-06
-2.85247e-06
1.42178e-05
-5.74193e-06
2.20263e-05
-9.1452e-06
2.86817e-05
-1.27286e-05
3.41105e-05
-1.61667e-05
3.81836e-05
-1.9139e-05
4.07135e-05
-2.13274e-05
4.14578e-05
-2.24118e-05
4.01218e-05
-2.20664e-05
3.63623e-05
-1.99561e-05
2.97903e-05
1.99733e-05
-7.86853e-07
6.05719e-06
-2.72219e-06
1.61531e-05
-5.45021e-06
2.47544e-05
-8.62389e-06
3.18554e-05
-1.19036e-05
3.73903e-05
-1.49555e-05
4.12355e-05
-1.74484e-05
4.32064e-05
-1.90505e-05
4.30599e-05
-1.94255e-05
4.04968e-05
-1.82282e-05
3.5165e-05
-1.51009e-05
2.6663e-05
-9.66997e-06
1.45423e-05
-1.68872e-06
-7.48888e-07
6.80608e-06
-2.5751e-06
1.79793e-05
-5.122e-06
2.73013e-05
-8.03902e-06
3.47724e-05
-1.09803e-05
4.03316e-05
-1.36031e-05
4.38583e-05
-1.55645e-05
4.51679e-05
-1.65183e-05
4.40137e-05
-1.61106e-05
4.00891e-05
-1.39759e-05
3.30304e-05
-9.73301e-06
2.24201e-05
-2.98155e-06
7.79088e-06
-1.13706e-05
-7.06511e-07
7.51259e-06
-2.41146e-06
1.96843e-05
-4.75768e-06
2.96475e-05
-7.39095e-06
3.74056e-05
-9.9589e-06
4.28995e-05
-1.21092e-05
4.60086e-05
-1.34867e-05
4.65453e-05
-1.37296e-05
4.42566e-05
-1.24657e-05
3.88252e-05
-9.30811e-06
2.98728e-05
-3.8512e-06
1.69632e-05
4.33251e-06
-3.92828e-07
-2.2732e-05
-6.59907e-07
8.17249e-06
-2.23182e-06
2.12562e-05
-4.35815e-06
3.17738e-05
-6.68094e-06
3.97284e-05
-8.84088e-06
4.50595e-05
-1.04756e-05
4.76434e-05
-1.12169e-05
4.72866e-05
-1.06867e-05
4.37264e-05
-8.49363e-06
3.66321e-05
-4.22857e-06
2.56077e-05
2.53891e-06
1.01957e-05
1.22634e-05
-1.01173e-05
2.54248e-05
-3.58934e-05
-6.7734e-05
-6.09334e-07
8.78183e-06
-2.03694e-06
2.26838e-05
-3.92482e-06
3.36617e-05
-5.91104e-06
4.17146e-05
-7.629e-06
4.67774e-05
-8.70579e-06
4.87202e-05
-8.75931e-06
4.73401e-05
-7.39481e-06
4.23619e-05
-4.20094e-06
3.34382e-05
1.25399e-06
2.01528e-05
9.42543e-06
2.02426e-06
2.07948e-05
-2.14867e-05
3.58699e-05
-5.09685e-05
-8.70464e-05
-5.55107e-07
9.33693e-06
-1.82779e-06
2.39565e-05
-3.45951e-06
3.52934e-05
-5.08405e-06
4.33392e-05
-6.32707e-06
4.80204e-05
-6.80458e-06
4.91977e-05
-6.12021e-06
4.66557e-05
-3.86177e-06
4.01034e-05
4.02328e-07
2.91741e-05
7.1266e-06
1.34285e-05
1.67913e-05
-7.6404e-06
2.99037e-05
-3.45992e-05
4.69979e-05
-6.80626e-05
6.86303e-05
-0.000108679
-0.000157108
-4.97588e-07
9.83452e-06
-1.60553e-06
2.50644e-05
-2.9644e-06
3.66523e-05
-4.20334e-06
4.45781e-05
-4.9398e-06
4.87569e-05
-4.77826e-06
4.90361e-05
-3.30755e-06
4.5185e-05
-9.77229e-08
3.68936e-05
5.30328e-06
2.37731e-05
1.33726e-05
5.35915e-06
2.46147e-05
-1.88825e-05
3.95615e-05
-4.95459e-05
5.87706e-05
-8.72717e-05
8.28197e-05
-0.000132728
-0.000186586
-4.37172e-07
1.02717e-05
-1.37141e-06
2.59986e-05
-2.44193e-06
3.77228e-05
-3.27273e-06
4.54089e-05
-3.4726e-06
4.89568e-05
-2.63401e-06
4.81975e-05
-3.30643e-07
4.28817e-05
3.88545e-06
3.26775e-05
1.04868e-05
1.71718e-05
1.99727e-05
-4.12678e-06
3.28707e-05
-3.17804e-05
4.97353e-05
-6.64105e-05
7.11447e-05
-0.000108681
9.76934e-05
-0.000159277
0.00012998
-0.000218872
-0.000288096
-3.74335e-07
1.0646e-05
-1.12687e-06
2.67512e-05
-1.89482e-06
3.84908e-05
-2.29647e-06
4.58106e-05
-1.93146e-06
4.85918e-05
-3.79832e-07
4.66459e-05
2.80017e-06
3.97017e-05
8.07456e-06
2.74031e-05
1.5936e-05
9.31038e-06
2.69053e-05
-1.50961e-05
4.15315e-05
-4.64066e-05
6.03893e-05
-8.52683e-05
8.40736e-05
-0.000132365
0.00011319
-0.000188393
0.000148339
-0.000254022
0.0001901
-0.000329857
-0.000416382
-3.0937e-07
1.09554e-05
-8.73048e-07
2.73149e-05
-1.32545e-06
3.89432e-05
-1.27849e-06
4.57636e-05
-3.2215e-07
4.76354e-05
1.97635e-06
4.43474e-05
6.07438e-06
3.56036e-05
1.2456e-05
2.10216e-05
2.16334e-05
1.32944e-07
3.41478e-05
-2.76106e-05
5.05679e-05
-6.28267e-05
7.14854e-05
-0.000106186
9.75072e-05
-0.000158387
0.000129243
-0.000220129
0.000167289
-0.000292068
0.000212203
-0.00037477
-0.000468658
-2.42735e-07
1.11981e-05
-6.11354e-07
2.76835e-05
-7.36522e-07
3.90683e-05
-2.23095e-07
4.52502e-05
1.34917e-06
4.60632e-05
4.4262e-06
4.12704e-05
9.48109e-06
3.05488e-05
1.70156e-05
1.34871e-05
2.75609e-05
-1.04124e-05
4.16772e-05
-4.17268e-05
5.99501e-05
-8.10996e-05
8.29848e-05
-0.000129221
0.000111395
-0.000186798
0.000145789
-0.000254522
0.000186744
-0.000333023
0.000234788
-0.000422814
0.000290361
-0.000524231
-0.000637371
-1.74796e-07
1.13729e-05
-3.43001e-07
2.78517e-05
-1.30476e-07
3.88558e-05
8.65767e-07
4.42539e-05
3.07675e-06
4.38522e-05
6.96184e-06
3.73853e-05
1.30099e-05
2.45007e-05
2.17399e-05
4.75705e-06
3.3701e-05
-2.23736e-05
4.94705e-05
-5.74963e-05
6.96484e-05
-0.000101278
9.4849e-05
-0.000154421
0.000125687
-0.000217636
0.000162759
-0.000291594
0.000206617
-0.000376881
0.000257741
-0.000473937
0.000316502
-0.000582992
-0.000704002
-1.05869e-07
1.14788e-05
-6.90309e-08
2.78148e-05
4.90501e-07
3.82963e-05
1.98452e-06
4.27599e-05
4.85532e-06
4.09814e-05
9.57598e-06
3.26646e-05
1.66509e-05
1.74258e-05
2.66159e-05
-5.20798e-06
4.00369e-05
-3.57945e-05
5.75059e-05
-7.49653e-05
7.96341e-05
-0.000123406
0.00010704
-0.000181827
0.000140333
-0.000250929
0.000180088
-0.00033135
0.000226821
-0.000423614
0.000280949
-0.000528066
0.000342759
-0.000644802
0.000412367
-0.000773611
-0.000913922
-3.62287e-08
1.1515e-05
2.09518e-07
2.75691e-05
1.12456e-06
3.73812e-05
3.13009e-06
4.07544e-05
6.6803e-06
3.74312e-05
1.22622e-05
2.70828e-05
2.03955e-05
9.29245e-06
3.16321e-05
-1.64446e-05
4.6553e-05
-5.07154e-05
6.57626e-05
-9.41749e-05
8.98794e-05
-0.000147523
0.000119521
-0.000211468
0.000155282
-0.00028669
0.00019771
-0.000373778
0.000247269
-0.000473173
0.000304301
-0.000585098
0.00036899
-0.000709491
0.00044132
-0.00084594
0.000521046
-0.000993648
-0.00115143
3.39431e-08
1.14811e-05
4.92103e-07
2.71109e-05
1.77024e-06
3.61031e-05
4.29999e-06
3.82246e-05
8.5479e-06
3.31833e-05
1.5015e-05
2.06157e-05
2.42361e-05
7.13328e-08
3.6778e-05
-2.89865e-05
5.32351e-05
-6.71725e-05
7.42214e-05
-0.000115161
0.000100358
-0.000173659
0.000132255
-0.000243366
0.000170487
-0.000324922
0.000215559
-0.00041885
0.000267874
-0.000525487
0.000327685
-0.000644909
0.000395055
-0.000776862
0.000469823
-0.000920708
0.000551568
-0.00107539
-0.00123946
1.04521e-07
1.13766e-05
7.78204e-07
2.64373e-05
2.42652e-06
3.44548e-05
5.4924e-06
3.51588e-05
1.04552e-05
2.82204e-05
1.78301e-05
1.32408e-05
2.81664e-05
-1.0265e-05
4.20448e-05
-4.28649e-05
6.00707e-05
-8.51984e-05
8.28644e-05
-0.000137955
0.000111045
-0.00020184
0.000145208
-0.000277529
0.000185898
-0.000365611
0.00023357
-0.000466522
0.000288549
-0.000580466
0.000350986
-0.000707346
0.000420813
-0.000846689
0.000497708
-0.000997603
0.000581072
-0.00115876
0.000670022
-0.00132841
-0.00150452
1.75457e-07
1.12011e-05
1.06759e-06
2.55451e-05
3.09281e-06
3.24296e-05
6.70617e-06
3.15454e-05
1.24003e-05
2.25263e-05
2.07043e-05
4.9368e-06
3.21815e-05
-2.17422e-05
4.74249e-05
-5.81082e-05
6.70486e-05
-0.000104822
9.16751e-05
-0.000162581
0.000121916
-0.000232081
0.000158346
-0.000313959
0.000201468
-0.000408733
0.000251675
-0.000516729
0.000309205
-0.000637996
0.000374091
-0.000772232
0.000446122
-0.00091872
0.000524811
-0.00107629
0.000609378
-0.00124332
0.000698759
-0.00141779
0.000791635
-0.0015974
-0.00177966
2.4678e-07
1.09543e-05
1.36026e-06
2.44316e-05
3.769e-06
3.00208e-05
7.94087e-06
2.73735e-05
1.43821e-05
1.60851e-05
2.36356e-05
-4.31673e-06
3.62778e-05
-3.43844e-05
5.29122e-05
-7.47426e-05
7.41588e-05
-0.000126069
0.000100638
-0.000189061
0.000132947
-0.00026439
0.000171632
-0.000352643
0.000217145
-0.000454247
0.000269806
-0.00056939
0.000329749
-0.00069794
0.000396882
-0.000839364
0.000470841
-0.000992679
0.000550969
-0.00115642
0.000636313
-0.00132867
0.000725644
-0.00150712
0.000817506
-0.00168926
0.000910279
-0.00187243
-0.00205445
3.18591e-07
1.06357e-05
1.65647e-06
2.30938e-05
4.45538e-06
2.72219e-05
9.19669e-06
2.26322e-05
1.64004e-05
8.88133e-06
2.6623e-05
-1.45393e-05
4.04528e-05
-4.82142e-05
5.85017e-05
-9.27916e-05
8.13923e-05
-0.000148959
0.000109738
-0.000217406
0.000144115
-0.000298768
0.000185031
-0.000393559
0.000232879
-0.000502094
0.000287891
-0.000624402
0.000350089
-0.000760138
0.000419242
-0.000908517
0.000494828
-0.00106827
0.000576023
-0.00123762
0.000661711
-0.00141436
0.000750522
-0.00159594
0.000840902
-0.00177964
0.000931193
-0.00196273
-0.00214295
3.91056e-07
1.02447e-05
1.95666e-06
2.15282e-05
5.15264e-06
2.4026e-05
1.04744e-05
1.73104e-05
1.84559e-05
8.99873e-07
2.96663e-05
-2.57498e-05
4.47047e-05
-6.32526e-05
6.41891e-05
-0.000112276
8.87404e-05
-0.000173511
0.000118959
-0.000247625
0.000155395
-0.000335204
0.000198507
-0.00043667
0.000248615
-0.000552203
0.000305855
-0.000681642
0.000370126
-0.000824409
0.000441049
-0.00097944
0.000517942
-0.00114516
0.00059982
-0.00131949
0.000685418
-0.00149995
0.000773257
-0.00168377
0.00086172
-0.00186811
0.000949162
-0.00205017
0.00103397
-0.00222776
-0.00239802
4.64398e-07
9.78028e-06
2.26144e-06
1.97311e-05
5.86179e-06
2.04256e-05
1.17753e-05
1.13969e-05
2.05495e-05
-7.87437e-06
3.2766e-05
-3.79663e-05
4.90325e-05
-7.95191e-05
6.99703e-05
-0.000133214
9.61945e-05
-0.000199735
0.000128287
-0.000279718
0.000166761
-0.000373678
0.000212018
-0.000481927
0.000264296
-0.000604481
0.000323622
-0.000740968
0.00038976
-0.000890548
0.000462182
-0.00105186
0.000540046
-0.00122302
0.000622213
-0.00140166
0.000707296
-0.00158504
0.000793732
-0.00177021
0.000879886
-0.00195426
0.000964162
-0.00213444
0.00104508
-0.00230868
0.00112151
-0.00247444
-0.00263127
5.38881e-07
9.2414e-06
2.57157e-06
1.76984e-05
6.58409e-06
1.64131e-05
1.31009e-05
4.88017e-06
2.26829e-05
-1.74564e-05
3.59229e-05
-5.12062e-05
5.34352e-05
-9.70315e-05
7.58411e-05
-0.00015562
0.000103745
-0.000227639
0.000137703
-0.000313676
0.000178184
-0.000414159
0.000225521
-0.000529264
0.00027986
-0.00065882
0.000341108
-0.000802215
0.000408889
-0.000958329
0.00048252
-0.00112549
0.000561004
-0.00130151
0.000643068
-0.00148372
0.000727222
-0.00166919
0.000811856
-0.00185484
0.000895352
-0.00203775
0.000976204
-0.0022153
0.00105309
-0.00238557
0.0011251
-0.00254645
-0.00269794
0.00119177
6.14803e-07
8.6266e-06
2.88789e-06
1.54253e-05
7.32097e-06
1.198e-05
1.4453e-05
-2.25185e-06
2.48578e-05
-2.78613e-05
3.91377e-05
-6.54861e-05
5.79117e-05
-0.000115805
8.17968e-05
-0.000179505
0.000111381
-0.000257223
0.000147188
-0.000349483
0.000189633
-0.000456603
0.00023897
-0.000578601
0.000295243
-0.000715092
0.000358229
-0.000865202
0.000427408
-0.00102751
0.000501942
-0.00120003
0.000580691
-0.00138026
0.000662263
-0.0015653
0.000745094
-0.00175202
0.000827562
-0.00193731
0.000908101
-0.00211829
0.000985328
-0.00229252
0.0010581
-0.00245834
0.00112573
-0.00261407
-0.00276015
0.00118794
6.92476e-07
7.93412e-06
3.2113e-06
1.29065e-05
8.07389e-06
7.11743e-06
1.58334e-05
-1.00114e-05
2.70758e-05
-3.91036e-05
4.24113e-05
-8.08216e-05
6.24603e-05
-0.000135855
8.78315e-05
-0.000204876
0.000119091
-0.000288482
0.00015672
-0.000387113
0.000201073
-0.000500956
0.000252315
-0.000629843
0.000310375
-0.000773152
0.000374897
-0.000929724
0.000445212
-0.00109782
0.000520333
-0.00127515
0.000598989
-0.00145891
0.000679691
-0.001646
0.000760833
-0.00183316
0.000840811
-0.00201729
0.000918147
-0.00219563
0.000991604
-0.00236598
0.00106024
-0.00252698
0.00112357
-0.0026774
-0.00281808
0.0011815
7.72217e-07
7.1619e-06
3.54269e-06
1.0136e-05
8.84431e-06
1.81581e-06
1.7244e-05
-1.84111e-05
2.93383e-05
-5.1198e-05
4.57436e-05
-9.72268e-05
6.70783e-05
-0.000157189
9.39377e-05
-0.000231735
0.000126859
-0.000321403
0.000166275
-0.000426529
0.000212466
-0.000547147
0.0002655
-0.000682877
0.000325185
-0.000832836
0.000391023
-0.000995562
0.000462198
-0.001169
0.000537582
-0.00135053
0.000615791
-0.00153712
0.000695264
-0.00172547
0.000774381
-0.00191228
0.000851591
-0.0020945
0.000925531
-0.00226957
0.000995129
-0.00243558
0.00105965
-0.0025915
0.0011188
-0.00273655
-0.00287194
0.00117266
8.5433e-07
6.30757e-06
3.88291e-06
7.10745e-06
9.63358e-06
-3.93486e-06
1.86861e-05
-2.74636e-05
3.16463e-05
-6.41582e-05
4.91339e-05
-0.000114714
7.17616e-05
-0.000179817
0.000100106
-0.00026008
0.000134668
-0.000355965
0.000175824
-0.000467685
0.00022377
-0.000595093
0.000278469
-0.000737576
0.000339597
-0.000893965
0.000406517
-0.00106248
0.000478266
-0.00124075
0.000553589
-0.00142586
0.000631005
-0.00161454
0.000708912
-0.00180338
0.000785706
-0.00198908
0.000859918
-0.00216871
0.000930321
-0.00233997
0.000996023
-0.00250128
0.00105649
-0.00265196
0.00111162
-0.00279169
-0.00292195
0.00116164
9.39097e-07
5.36848e-06
4.23272e-06
3.81383e-06
1.04428e-05
-1.0145e-05
2.01608e-05
-3.71815e-05
3.4e-05
-7.79974e-05
5.25804e-05
-0.000133295
7.65049e-05
-0.000203742
0.000106325
-0.0002899
0.000142499
-0.000392138
0.000185335
-0.000510521
0.000234939
-0.000644697
0.000291159
-0.000793796
0.000353537
-0.000956343
0.000421291
-0.00113024
0.000493321
-0.00131278
0.00056826
-0.00150079
0.000644555
-0.00169083
0.000720587
-0.00187941
0.0007948
-0.00206329
0.00086583
-0.00223974
0.000932607
-0.00240675
0.000994424
-0.0025631
0.00105094
-0.00270848
0.00110224
-0.00284299
-0.00296836
0.00114865
1.02676e-06
4.34171e-06
4.59274e-06
2.47851e-07
1.12729e-05
-1.68251e-05
2.16688e-05
-4.75774e-05
3.63988e-05
-9.27274e-05
5.60801e-05
-0.000152976
8.13006e-05
-0.000228962
0.000112581
-0.000321181
0.000150327
-0.000429885
0.000194774
-0.000554967
0.000245926
-0.00069585
0.000303508
-0.000851378
0.000366926
-0.00101976
0.000435257
-0.00119857
0.000507275
-0.00138479
0.000581516
-0.00157503
0.000656381
-0.0017657
0.000730261
-0.00195329
0.000801676
-0.0021347
0.00086939
-0.00230745
0.000932499
-0.00246986
0.000990484
-0.00262108
0.00104319
-0.00276119
0.00109085
-0.00289065
-0.00301142
0.00113391
1.11753e-06
3.22418e-06
4.96346e-06
-3.59808e-06
1.21243e-05
-2.3986e-05
2.321e-05
-5.8663e-05
3.88412e-05
-0.000108359
5.96284e-05
-0.000173763
8.61395e-05
-0.000255473
0.000118858
-0.000353899
0.000158128
-0.000469155
0.000204103
-0.000600942
0.000256678
-0.000748425
0.000315451
-0.000910151
0.00037969
-0.001084
0.000448336
-0.00126721
0.000520049
-0.00145651
0.000593291
-0.00164828
0.00066644
-0.00183885
0.000737929
-0.00202478
0.000806372
-0.00220315
0.00087068
-0.00237176
0.000930124
-0.0025293
0.000984365
-0.00267532
0.00103342
-0.00281024
0.00107766
-0.00293489
-0.00305136
0.0011176
1.21155e-06
2.01263e-06
5.34517e-06
-7.7317e-06
1.29972e-05
-3.16381e-05
2.47836e-05
-7.04494e-05
4.13246e-05
-0.0001249
6.32195e-05
-0.000195658
9.10104e-05
-0.000283264
0.000125135
-0.000388024
0.000165873
-0.000509893
0.000213281
-0.00064835
0.000267143
-0.000802287
0.000326924
-0.000969932
0.000391754
-0.00114883
0.000460449
-0.00133591
0.000531573
-0.00152763
0.000603532
-0.00172024
0.00067471
-0.00191002
0.000743603
-0.00209367
0.000808944
-0.00226849
0.000869799
-0.00243262
0.000925618
-0.00258512
0.000976235
-0.00272594
0.00102182
-0.00285583
0.00106285
-0.00297592
-0.00308842
0.00109991
1.30892e-06
7.03714e-07
5.73797e-06
-1.21607e-05
1.38913e-05
-3.97914e-05
2.63883e-05
-8.29464e-05
4.38453e-05
-0.000142357
6.68457e-05
-0.000218659
9.58998e-05
-0.000312318
0.000131394
-0.000423518
0.000173529
-0.000552028
0.000222266
-0.000697086
0.000277265
-0.000857287
0.00033786
-0.00103053
0.000403048
-0.00121402
0.00047153
-0.00140439
0.000541789
-0.00159789
0.000612203
-0.00179065
0.000681184
-0.00197901
0.000747314
-0.0021598
0.000809463
-0.00233064
0.00086686
-0.00249001
0.000919128
-0.00263739
0.000966263
-0.00277308
0.00100857
-0.00289814
0.00104661
-0.00301397
-0.00312283
0.00108102
1.40967e-06
-7.05959e-07
6.14174e-06
-1.68928e-05
1.48058e-05
-4.84555e-05
2.80219e-05
-9.61625e-05
4.63984e-05
-0.000160733
7.0498e-05
-0.000242758
0.000100793
-0.000342613
0.000137608
-0.000460333
0.000181064
-0.000595484
0.000231013
-0.000747035
0.000286991
-0.000913265
0.000348199
-0.00109173
0.000413508
-0.00127933
0.000481518
-0.0014724
0.000550652
-0.00166702
0.000619281
-0.00185928
0.000685872
-0.0020456
0.000749112
-0.00222304
0.000808017
-0.00238954
0.000861985
-0.00254398
0.000910803
-0.00268621
0.000954615
-0.00281689
0.000993841
-0.00293736
0.00102911
-0.00304924
-0.0031548
0.00106109
1.51379e-06
-2.21975e-06
6.55618e-06
-2.19352e-05
1.57396e-05
-5.76389e-05
2.96815e-05
-0.000110104
4.8978e-05
-0.00018003
7.41657e-05
-0.000267946
0.000105672
-0.000374119
0.000143755
-0.000498417
0.000188443
-0.000640173
0.000239477
-0.000798068
0.000296266
-0.000970054
0.00035788
-0.00115335
0.000423075
-0.00134452
0.000490363
-0.00153969
0.000558128
-0.00173479
0.000624761
-0.00192591
0.000688801
-0.00210964
0.00074906
-0.0022833
0.000804706
-0.00244519
0.000855303
-0.00259458
0.000900795
-0.0027317
0.000941456
-0.00285755
0.000977799
-0.00297371
0.0010105
-0.00308195
-0.00318454
0.00104024
1.62119e-06
-3.84093e-06
6.98073e-06
-2.72948e-05
1.6691e-05
-6.73492e-05
3.13633e-05
-0.000124777
5.15771e-05
-0.000200243
7.78371e-05
-0.000294206
0.000110519
-0.0004068
0.000149806
-0.000537704
0.00019563
-0.000685997
0.000247613
-0.000850051
0.000305038
-0.00102748
0.000366849
-0.00121516
0.000431695
-0.00140937
0.000498023
-0.00160602
0.000564199
-0.00180096
0.000628651
-0.00199036
0.000690014
-0.002171
0.000747233
-0.00234052
0.000799636
-0.00249759
0.000846947
-0.00264189
0.000889254
-0.00277401
0.000926941
-0.00289524
0.000960597
-0.00300736
0.000990932
-0.00311228
-0.00321222
0.00101862
1.73173e-06
-5.57266e-06
7.41468e-06
-3.29777e-05
1.7658e-05
-7.75925e-05
3.3063e-05
-0.000140182
5.41877e-05
-0.000221368
8.14988e-05
-0.000321517
0.000115313
-0.000440615
0.000155733
-0.000578125
0.000202587
-0.00073285
0.000255376
-0.000902841
0.000313256
-0.00108536
0.000375054
-0.00127696
0.000439326
-0.00147364
0.00050447
-0.00167116
0.000568856
-0.00186535
0.000630972
-0.00205248
0.000689563
-0.00222959
0.000743717
-0.00239467
0.000792921
-0.00254679
0.000837052
-0.00268602
0.000876325
-0.00281328
0.000911219
-0.00293013
0.000942379
-0.00303852
0.000970527
-0.00314043
-0.00323802
0.000996324
1.84522e-06
-7.41788e-06
7.85711e-06
-3.89896e-05
1.86382e-05
-8.83736e-05
3.47757e-05
-0.000156319
5.6801e-05
-0.000243393
8.51366e-05
-0.000349852
0.000120034
-0.000475512
0.000161509
-0.000619599
0.000209278
-0.00078062
0.000262723
-0.000956285
0.000320875
-0.00114351
0.000382451
-0.00133853
0.000445932
-0.00153712
0.000509685
-0.00173491
0.000572104
-0.00192777
0.000631758
-0.00211214
0.000687513
-0.00228534
0.000738606
-0.00244577
0.000784679
-0.00259287
0.00082575
-0.00272709
0.000862148
-0.00284968
0.000894429
-0.00296241
0.000923273
-0.00306737
0.000949406
-0.00316656
-0.00326208
0.000973466
1.96143e-06
-9.37931e-06
8.30691e-06
-4.53351e-05
1.96288e-05
-9.96954e-05
3.64957e-05
-0.000173186
5.94072e-05
-0.000266305
8.87353e-05
-0.00037918
0.00012466
-0.000511437
0.000167102
-0.000662041
0.000215666
-0.000829185
0.000269611
-0.00101023
0.00032785
-0.00120175
0.000389002
-0.00139968
0.000451486
-0.00159961
0.000513659
-0.00179709
0.000573961
-0.00198807
0.000631054
-0.00216923
0.000683937
-0.00233823
0.000731998
-0.00249383
0.000775028
-0.0026359
0.000813171
-0.00276523
0.000846857
-0.00288336
0.000876698
-0.00299225
0.000903398
-0.00309407
0.000927671
-0.00319083
-0.00328453
0.000950126
2.08008e-06
-1.14594e-05
8.76284e-06
-5.20178e-05
2.06266e-05
-0.000111559
3.82171e-05
-0.000190777
6.1996e-05
-0.000290084
9.22792e-05
-0.000409464
0.000129168
-0.000548326
0.000172484
-0.000705357
0.000221717
-0.000878418
0.000276003
-0.00106452
0.000334145
-0.00125989
0.000394675
-0.00146021
0.00045597
-0.0016609
0.000516395
-0.00185751
0.000574453
-0.00204613
0.000628914
-0.00222369
0.000678916
-0.00238823
0.000723997
-0.00253891
0.000764085
-0.00267598
0.000799442
-0.00280059
0.000830576
-0.0029145
0.000858145
-0.00301982
0.00088286
-0.00311878
0.000905414
-0.00321339
-0.0033055
0.000926383
2.20084e-06
-1.36602e-05
9.22351e-06
-5.90405e-05
2.16284e-05
-0.000123964
3.99332e-05
-0.000209081
6.45567e-05
-0.000314707
9.57519e-05
-0.000440659
0.000133536
-0.00058611
0.000177626
-0.000749447
0.000227396
-0.000928187
0.000281863
-0.00111898
0.000339726
-0.00131775
0.000399446
-0.00151993
0.000459375
-0.00172083
0.000517905
-0.00191604
0.000573616
-0.00210184
0.000625401
-0.00227548
0.000672536
-0.00243536
0.000714705
-0.00258108
0.000751966
-0.00271325
0.000784681
-0.00283331
0.000813424
-0.00294324
0.000838879
-0.00304528
0.000861755
-0.00314166
0.000882715
-0.00323435
-0.00332508
0.0009023
2.32335e-06
-1.59836e-05
9.68739e-06
-6.64045e-05
2.26303e-05
-0.000136907
4.16372e-05
-0.000228088
6.70779e-05
-0.000340148
9.91367e-05
-0.000472718
0.000137741
-0.000624714
0.000182501
-0.000794207
0.000232671
-0.000978358
0.000287158
-0.00117347
0.000344565
-0.00137516
0.000403298
-0.00157867
0.0004617
-0.00177923
0.000518209
-0.00197255
0.000571496
-0.00215513
0.000620582
-0.00232456
0.000664884
-0.00247967
0.000704226
-0.00262042
0.000738782
-0.0027478
0.000769001
-0.00286353
0.000795505
-0.00296974
0.000818995
-0.00306877
0.000840165
-0.00316283
0.000859645
-0.00325383
-0.00334337
0.000877935
2.44723e-06
-1.84308e-05
1.01529e-05
-7.41102e-05
2.36287e-05
-0.000150383
4.3322e-05
-0.000247782
6.95482e-05
-0.000366374
0.000102417
-0.000505586
0.000141761
-0.000664058
0.00018708
-0.000839526
0.000237514
-0.00102879
0.000291861
-0.00122782
0.000348642
-0.00143194
0.000406222
-0.00163625
0.000462954
-0.00183597
0.000517335
-0.00202693
0.000568144
-0.00220593
0.000614529
-0.00237095
0.000656052
-0.00252119
0.000692662
-0.00265703
0.000724641
-0.00277978
0.000752508
-0.00289139
0.00077692
-0.00299416
0.000798581
-0.00309043
0.000818166
-0.00318241
0.000836265
-0.00327193
-0.00336045
0.000853336
2.57203e-06
-2.10028e-05
1.06182e-05
-8.21564e-05
2.46195e-05
-0.000164384
4.49803e-05
-0.000268143
7.1956e-05
-0.00039335
0.000105576
-0.000539207
0.000145575
-0.000704057
0.000191341
-0.000885291
0.000241899
-0.00107935
0.000295947
-0.00128187
0.00035194
-0.00148794
0.000408215
-0.00169252
0.000463151
-0.0018909
0.000515322
-0.0020791
0.000563617
-0.00225423
0.000607321
-0.00241465
0.000646129
-0.00256
0.000680113
-0.00269101
0.000709644
-0.00280931
0.000735298
-0.00291705
0.000757756
-0.00301661
0.000777716
-0.00311039
0.000795822
-0.00320052
0.000812626
-0.00328873
-0.00337636
0.000828544
2.6973e-06
1.10815e-05
2.55985e-05
-0.000178901
4.66046e-05
-0.000289149
7.42896e-05
-0.000421035
0.000108598
-0.000573516
0.000149162
-0.000744621
0.000195258
-0.000931386
0.000245801
-0.00112989
0.000299399
-0.00133546
0.000354449
-0.00154299
0.000409281
-0.00174735
0.000462314
-0.00194393
0.000512209
-0.002129
0.000557976
-0.0023
0.000599034
-0.00245571
0.000635206
-0.00259617
0.000666674
-0.00272248
0.000693886
-0.00283652
0.000717462
-0.00294062
0.000738095
-0.00303725
0.000756468
-0.00312876
0.000773192
-0.00321724
0.000788776
-0.00330432
-0.00339118
0.000803596
2.65615e-05
4.81872e-05
7.65373e-05
-0.000449385
0.000111467
-0.000608445
0.000152503
-0.000785657
0.000198811
-0.000977693
0.000249201
-0.00118028
0.000302201
-0.00138846
0.000356166
-0.00159695
0.000409431
-0.00180062
0.000460471
-0.00199498
0.000508045
-0.00217657
0.000551286
-0.00234324
0.000589746
-0.00249417
0.00062337
-0.00262979
0.000652435
-0.00275155
0.000677456
-0.00286154
0.000699083
-0.00296225
0.00071801
-0.00305617
0.000734898
-0.00314565
0.000750324
-0.00323267
0.000764752
-0.00331875
-0.00340495