/*--------------------------------*- C++ -*----------------------------------*\
  =========                 |
  \\      /  F ield         | OpenFOAM: The Open Source CFD Toolbox
   \\    /   O peration     | Website:  https://openfoam.org
    \\  /    A nd           | Version:  7
     \\/     M anipulation  |
\*---------------------------------------------------------------------------*/
FoamFile
{
    version     2.0;
    format      ascii;
    class       volVectorField;
    location    "220";
    object      U;
}
// * * * * * * * * * * * * * * * * * * * * * * * * * * * * * * * * * * * * * //

dimensions      [0 1 -1 0 0 0 0];

internalField   nonuniform List<vector> 
7156
(
(-5.95544e-05 -0.0228863 -3.22736e-21)
(-0.00124749 -0.0586787 -1.61679e-21)
(-0.00417765 -0.0862796 2.59123e-21)
(-0.00835461 -0.10661 -2.0754e-21)
(0.000273254 -0.0223596 7.00044e-21)
(-0.000443643 -0.0572524 3.11716e-21)
(-0.00308728 -0.0840863 -6.36922e-21)
(-0.00711224 -0.103767 1.41373e-20)
(0.00059006 -0.0218037 1.19806e-21)
(0.000322367 -0.0557583 -2.09281e-22)
(-0.00204449 -0.0818026 -2.34273e-20)
(-0.00591861 -0.100825 -1.69355e-20)
(0.0008898 -0.0212218 1.51861e-20)
(0.00104797 -0.054204 -2.20049e-21)
(-0.00105295 -0.0794392 2.62563e-20)
(-0.00477824 -0.0977943 1.21189e-20)
(0.00117154 -0.0206172 -2.5279e-20)
(0.00173089 -0.0525976 -5.52666e-21)
(-0.000115964 -0.0770078 -9.42964e-21)
(-0.00369525 -0.0946899 2.82134e-20)
(0.00143453 -0.0199931 1.58268e-22)
(0.00236924 -0.0509468 2.95403e-20)
(0.000763526 -0.0745189 -7.56582e-22)
(-0.00267349 -0.0915243 2.05472e-20)
(0.00167817 -0.0193524 3.32358e-20)
(0.00296141 -0.049259 3.08663e-20)
(0.00158292 -0.0719832 -2.23983e-20)
(-0.00171652 -0.0883104 1.53576e-20)
(0.001902 -0.0186981 -2.36012e-20)
(0.00350608 -0.0475413 -2.24605e-20)
(0.00233993 -0.0694107 3.26548e-20)
(-0.000827616 -0.0850601 -5.16813e-20)
(0.00210568 -0.0180329 -2.37587e-20)
(0.00400223 -0.0458004 -5.25361e-20)
(0.00303254 -0.0668108 -7.56153e-21)
(-9.83225e-06 -0.0817848 -7.49246e-20)
(0.00228897 -0.0173594 5.27764e-20)
(0.00444899 -0.0440426 1.47439e-20)
(0.00365895 -0.0641924 -7.79636e-21)
(0.000733951 -0.0784951 1.21755e-19)
(0.00245172 -0.0166799 1.67663e-20)
(0.00484568 -0.0422735 -3.83628e-20)
(0.00421745 -0.0615636 -1.4828e-20)
(0.00140078 -0.0752009 -1.32208e-20)
(0.00259386 -0.0159963 3.67022e-21)
(0.00519176 -0.0404981 9.27453e-20)
(0.00470653 -0.0589315 -3.78071e-20)
(0.00198814 -0.071911 -2.67282e-20)
(0.00271538 -0.0153105 1.56446e-20)
(0.00548696 -0.0387209 -6.73533e-20)
(0.00512503 -0.0563029 -7.29237e-21)
(0.00249359 -0.0686335 1.93763e-20)
(0.00281636 -0.014624 -1.31705e-20)
(0.00573117 -0.0369457 8.43877e-20)
(0.0054722 -0.0536828 -4.55264e-20)
(0.00291522 -0.0653759 -2.5677e-20)
(-0.00149687 -0.072688 -3.93668e-20)
(0.00289691 -0.0139381 -7.5335e-20)
(0.0059244 -0.0351758 -5.59084e-20)
(0.00574745 -0.0510764 1.03946e-19)
(0.00325145 -0.0621425 9.06824e-20)
(-0.00110946 -0.069007 2.16189e-20)
(0.00295713 -0.0132542 6.58186e-20)
(0.00606665 -0.0334141 4.03191e-21)
(0.00595007 -0.0484873 -7.9058e-20)
(0.00350077 -0.0589396 1.27298e-20)
(-0.000817617 -0.0653701 5.49377e-20)
(0.00299709 -0.0125729 -1.56179e-20)
(0.00615774 -0.0316629 1.06678e-20)
(0.00607933 -0.045919 3.66832e-20)
(0.00366138 -0.0557697 -5.73908e-20)
(-0.000623907 -0.0617826 -5.95474e-20)
(0.00301681 -0.0118952 -1.20931e-19)
(0.00619745 -0.029924 2.85581e-20)
(0.00613417 -0.0433742 -5.32623e-20)
(0.00373164 -0.0526368 1.62434e-19)
(-0.000530906 -0.058247 4.67083e-20)
(0.00301629 -0.0112213 7.5469e-20)
(0.00618554 -0.0281985 -2.21652e-20)
(0.00611372 -0.0408546 6.63848e-20)
(0.00370975 -0.0495432 1.19594e-19)
(-0.000540735 -0.0547667 4.89132e-20)
(0.00299549 -0.0105516 1.11879e-19)
(0.00612179 -0.0264872 -5.18103e-20)
(0.00601734 -0.0383615 5.83381e-20)
(0.00359451 -0.0464906 -8.50394e-20)
(-0.000655356 -0.0513434 5.288e-21)
(0.00295435 -0.00988601 -8.02712e-20)
(0.00600605 -0.0247904 -3.53273e-21)
(0.00584461 -0.0358956 1.80616e-20)
(0.00338524 -0.0434794 -2.07338e-19)
(-0.000875859 -0.047979 6.64128e-20)
(-0.00647877 -0.0498464 8.12328e-20)
(0.0028928 -0.00922464 -1.8206e-20)
(0.00583818 -0.0231084 8.78604e-20)
(0.00559534 -0.0334569 -1.37512e-19)
(0.00308174 -0.0405106 -1.22629e-20)
(-0.0012026 -0.0446724 -4.89977e-20)
(-0.0067939 -0.0463633 1.11869e-19)
(0.00281073 -0.00856738 -1.23715e-19)
(0.00561806 -0.0214409 -1.80804e-19)
(0.00526949 -0.0310456 1.68468e-19)
(0.00268404 -0.0375833 -4.43372e-20)
(-0.00163533 -0.0414247 7.21023e-20)
(-0.00722224 -0.0429557 -2.09058e-19)
(0.00270801 -0.00791415 5.53903e-20)
(0.00534558 -0.0197879 2.65105e-19)
(0.00486712 -0.0286615 -3.38955e-20)
(0.00219267 -0.0346976 9.25841e-20)
(-0.00217327 -0.038234 -5.25298e-20)
(-0.00776249 -0.0396235 7.97458e-20)
(0.00258451 -0.00726484 -1.43139e-19)
(0.00502068 -0.0181494 -3.96213e-21)
(0.00438856 -0.0263044 -2.342e-19)
(0.00160841 -0.031853 4.4414e-20)
(-0.00281457 -0.0350996 -2.32612e-20)
(-0.00841198 -0.0363646 5.96576e-20)
(-0.0147522 -0.0359722 -2.02177e-19)
(0.00244009 -0.00661943 -1.1743e-20)
(0.00464346 -0.0165252 -1.13248e-19)
(0.00383452 -0.023974 1.52536e-19)
(0.000932873 -0.0290489 7.79104e-20)
(-0.00355671 -0.0320208 -1.70691e-19)
(-0.00916656 -0.0331762 -2.86255e-20)
(-0.0154654 -0.0328091 2.10899e-19)
(0.00227469 -0.00597795 1.84699e-19)
(0.00421417 -0.0149154 1.81596e-19)
(0.00320608 -0.0216705 1.36745e-20)
(0.00016832 -0.0262849 -1.77302e-19)
(-0.00439594 -0.0289959 5.95278e-20)
(-0.0100209 -0.0300576 -8.45137e-20)
(-0.0162768 -0.0297302 -1.36986e-19)
(0.00208825 -0.00534056 1.14345e-19)
(0.00373329 -0.0133205 -1.23164e-19)
(0.0025048 -0.0193941 -4.93756e-20)
(-0.000682248 -0.023561 -2.97598e-22)
(-0.00532744 -0.0260244 -1.18222e-19)
(-0.0109683 -0.0270056 1.12805e-19)
(-0.0171774 -0.0267332 -2.86639e-20)
(0.00188085 -0.00470757 -1.16409e-19)
(0.00320157 -0.0117412 -1.96393e-20)
(0.00173277 -0.0171455 8.99068e-20)
(-0.00161499 -0.0208774 1.16811e-19)
(-0.00634543 -0.0231058 2.96144e-19)
(-0.0120003 -0.0240188 -1.31843e-19)
(-0.0181563 -0.0238143 4.35084e-20)
(-0.0244446 -0.0227013 -1.55249e-19)
(0.00165263 -0.00407948 -5.20685e-20)
(0.00262011 -0.0101786 -2.47003e-20)
(0.000892723 -0.0149258 -2.64345e-19)
(-0.00262516 -0.0182349 2.20493e-20)
(-0.00744268 -0.0202399 6.37157e-20)
(-0.0131072 -0.0210961 -5.45607e-20)
(-0.0192003 -0.0209698 1.41182e-19)
(-0.0253568 -0.0200426 1.29423e-19)
(0.00140391 -0.00345698 -1.32342e-21)
(0.00199041 -0.00863423 1.7934e-19)
(-1.19575e-05 -0.0127367 1.91675e-19)
(-0.003707 -0.0156348 -2.67547e-19)
(-0.00861073 -0.0174271 -1.56974e-19)
(-0.0142772 -0.0182363 1.79664e-21)
(-0.0202942 -0.018198 -6.75696e-20)
(-0.0263012 -0.0174643 -6.31015e-20)
(0.00113517 -0.002841 -2.44908e-21)
(0.00131444 -0.00711013 -4.15146e-20)
(-0.000977139 -0.0105807 -1.55076e-20)
(-0.00485379 -0.0130792 -2.7969e-20)
(-0.00983985 -0.0146687 3.44948e-20)
(-0.0154973 -0.0154392 -2.65529e-20)
(-0.0214212 -0.015496 -1.00455e-20)
(-0.0272565 -0.014963 1.0553e-19)
(0.00084707 -0.0022327 1.12273e-19)
(0.000594639 -0.00560888 -1.1645e-19)
(-0.00199791 -0.00846074 -1.26661e-19)
(-0.00605774 -0.0105707 1.34527e-19)
(-0.011119 -0.0119666 8.12046e-20)
(-0.0167528 -0.0127055 9.89189e-21)
(-0.0225623 -0.0128626 -4.81479e-20)
(-0.028199 -0.0125348 1.24461e-19)
(-0.0333584 -0.0118321 -3.15326e-19)
(0.000540498 -0.00163347 2.05152e-20)
(-0.000165972 -0.00413359 1.332e-19)
(-0.00306856 -0.00638051 -9.94152e-21)
(-0.00731003 -0.00811304 7.63756e-21)
(-0.0124359 -0.00932358 -1.58839e-20)
(-0.0180275 -0.0100366 -3.60388e-21)
(-0.023697 -0.0102978 2.76983e-20)
(-0.0291033 -0.0101763 -1.95695e-19)
(-0.0339465 -0.00975868 2.12696e-19)
(0.00021658 -0.00104492 -7.51086e-20)
(-0.000963812 -0.00268787 8.62241e-20)
(-0.00418251 -0.00434446 1.20672e-20)
(-0.00860078 -0.00571049 4.14446e-20)
(-0.0137769 -0.00674321 -3.54089e-20)
(-0.0193037 -0.00743485 7.60843e-20)
(-0.0248031 -0.00780168 -1.35417e-19)
(-0.0299416 -0.00788671 -1.56182e-20)
(-0.0344249 -0.00775084 -9.73294e-20)
(-0.000123309 -0.000468896 -2.16681e-20)
(-0.0017947 -0.00127586 5.04823e-20)
(-0.00533237 -0.00235769 1.47507e-19)
(-0.00991908 -0.00336827 -1.0089e-19)
(-0.0151273 -0.00423012 1.06887e-19)
(-0.0205624 -0.00490356 -3.66971e-20)
(-0.0258566 -0.00537599 -5.37012e-20)
(-0.0306849 -0.00566435 1.01883e-19)
(-0.0347583 -0.00580656 4.06697e-20)
(-0.0378225 -0.00585535 6.3335e-20)
(-0.000477533 9.25725e-05 -2.28854e-20)
(-0.00265383 9.78726e-05 -5.47848e-20)
(-0.00650992 -0.000425966 -1.31769e-19)
(-0.0112531 -0.0010924 1.75429e-19)
(-0.0164712 -0.00178979 -9.72375e-20)
(-0.0217833 -0.00244718 -6.05125e-20)
(-0.0268327 -0.00302357 -5.14737e-20)
(-0.0313026 -0.00351057 2.36492e-19)
(-0.03491 -0.00392245 1.10395e-19)
(-0.0374034 -0.00429213 -2.04531e-19)
(-0.000844193 0.000637298 -4.73312e-20)
(-0.00353582 0.00142836 1.5191e-20)
(-0.00770613 0.00144437 -9.23247e-20)
(-0.0125899 0.00111038 -2.27796e-19)
(-0.017792 0.000571351 -3.15979e-20)
(-0.0229454 -7.1168e-05 2.21576e-19)
(-0.0277052 -0.000748444 -1.85961e-19)
(-0.0317632 -0.00142719 1.00375e-19)
(-0.0348423 -0.00209952 -6.44623e-20)
(-0.0366934 -0.00277637 1.85465e-20)
(-0.00122113 0.00116297 -6.35089e-20)
(-0.00443469 0.0027103 3.07018e-20)
(-0.00891125 0.00324649 1.7327e-19)
(-0.0139161 0.00323266 1.23158e-19)
(-0.0190719 0.00284607 -5.86013e-20)
(-0.0240267 0.002218 -6.59486e-20)
(-0.0284475 0.00144415 2.88032e-19)
(-0.0320347 0.000582147 -2.44841e-19)
(-0.0345169 -0.00033816 9.50587e-20)
(-0.0356475 -0.0013081 -3.08392e-20)
(-0.0352032 -0.00233451 3.33199e-19)
(-0.00160596 0.00166719 2.96662e-20)
(-0.00534393 0.0039382 -7.54138e-20)
(-0.0101148 0.00497316 -7.0279e-20)
(-0.0152173 0.00526645 8.59999e-20)
(-0.0202926 0.00502638 -9.47681e-20)
(-0.0250045 0.0044129 -1.71871e-20)
(-0.0290321 0.00354785 -3.1682e-19)
(-0.0320846 0.00251252 3.59754e-19)
(-0.0338956 0.00135804 -1.6203e-19)
(-0.0342208 0.000113023 1.2251e-19)
(-0.0328357 -0.00121204 4.10048e-20)
(-0.00199603 0.00214755 -1.57886e-19)
(-0.00625651 0.00510642 3.44851e-19)
(-0.0113058 0.00661688 7.70457e-20)
(-0.0164785 0.00720333 -7.9823e-20)
(-0.0214353 0.00710365 1.9822e-21)
(-0.0258558 0.00650527 1.30484e-19)
(-0.0294316 0.00555522 2.28253e-19)
(-0.0318803 0.0043577 -5.46253e-20)
(-0.0329405 0.00298464 -1.04366e-19)
(-0.0323694 0.00148346 -2.71149e-19)
(-0.0299408 -0.000117029 -2.99705e-19)
(-0.0254438 -0.00180195 6.68169e-21)
(-0.00238855 0.00260164 9.72428e-20)
(-0.00716499 0.00620932 -2.04276e-19)
(-0.0124727 0.00817004 -6.55856e-20)
(-0.0176843 0.00903459 1.11545e-19)
(-0.0224806 0.00906875 7.4527e-20)
(-0.0265573 0.00848615 -3.08664e-19)
(-0.0296184 0.00745786 6.45709e-20)
(-0.0313897 0.00611025 -3.13168e-19)
(-0.0316142 0.00453543 4.27482e-20)
(-0.0300503 0.0027992 3.23684e-19)
(-0.0264698 0.000947709 2.07492e-19)
(-0.0206567 -0.000988213 -6.48891e-20)
(-0.00278051 0.00302714 -4.59504e-20)
(-0.00806155 0.00724134 -1.61392e-19)
(-0.0136034 0.009625 1.18869e-19)
(-0.0188189 0.0107513 -2.4073e-19)
(-0.023409 0.0109122 2.43346e-20)
(-0.0270856 0.010346 4.16695e-19)
(-0.0295649 0.00924662 1.13405e-19)
(-0.0305808 0.0077617 -5.83479e-20)
(-0.0298804 0.00600289 -2.95534e-19)
(-0.0272224 0.00405394 -3.2915e-19)
(-0.0223763 0.00197757 3.85687e-21)
(-0.0151209 -0.000179114 8.18833e-21)
(-0.00524474 -0.00237983 -8.94437e-20)
(-0.00316879 0.00342186 8.04572e-20)
(-0.0089381 0.00819718 8.76121e-20)
(-0.0146858 0.0109743 -1.35668e-19)
(-0.0198662 0.0123448 2.33499e-19)
(-0.0242008 0.0126245 -5.25629e-20)
(-0.0274174 0.012075 -3.36797e-19)
(-0.0292443 0.0109118 -3.29893e-19)
(-0.0294229 0.00930274 -8.10509e-20)
(-0.0277039 0.00737844 4.09806e-19)
(-0.0238464 0.00524002 -1.07827e-19)
(-0.0176169 0.00296633 3.04756e-20)
(-0.00878916 0.000620134 -7.14579e-20)
(0.00285499 -0.00174794 3.7793e-19)
(-0.00355021 0.00378378 1.54538e-19)
(-0.00978636 0.00907185 1.26113e-19)
(-0.0157073 0.0122109 1.93287e-19)
(-0.0208102 0.0138064 -1.37436e-19)
(-0.0248364 0.0141961 1.70904e-19)
(-0.0275296 0.0136631 4.8967e-21)
(-0.0286299 0.0124432 2.21826e-19)
(-0.0278858 0.0107235 2.74512e-19)
(-0.0250514 0.00865271 -2.51094e-20)
(-0.0198854 0.00634872 1.70156e-19)
(-0.0121514 0.00390619 -2.27234e-20)
(-0.00161845 0.00140271 1.36938e-19)
(0.0119378 -0.00109592 -8.73996e-20)
(-0.00392151 0.0041111 5.64462e-20)
(-0.0105979 0.00986081 -1.67576e-19)
(-0.0166554 0.0133281 -2.06606e-19)
(-0.0216346 0.0151278 7.52e-20)
(-0.0252962 0.0156177 6.05273e-20)
(-0.0273995 0.0151005 -1.41703e-19)
(-0.0276958 0.0138308 2.15845e-19)
(-0.0259405 0.012014 5.4456e-20)
(-0.0218906 0.00981593 -1.67442e-19)
(-0.0153045 0.00737078 1.94432e-20)
(-0.00594292 0.00478846 5.2333e-21)
(0.00642968 0.00216112 -2.3711e-19)
(0.0220424 -0.000431522 -1.13095e-19)
(0.0411136 -0.00291788 4.85709e-20)
(-0.00427945 0.0044023 -2.23651e-19)
(-0.0113644 0.0105601 -7.0297e-20)
(-0.0175177 0.0143199 4.02628e-20)
(-0.0223233 0.0163016 -1.64502e-19)
(-0.025561 0.0168807 -1.94183e-19)
(-0.0270047 0.0163777 2.88321e-19)
(-0.0264168 0.0150648 -1.60268e-19)
(-0.0235592 0.0131642 -1.72389e-19)
(-0.0181913 0.0108583 9.904e-20)
(-0.0100714 0.00829676 1.66205e-19)
(0.00104244 0.00560424 -1.18738e-19)
(0.0153893 0.0028869 3.9389e-19)
(0.0332017 0.000238281 -1.80522e-19)
(0.0546996 -0.00225688 -2.23728e-19)
(-0.00462082 0.00465615 -3.00128e-20)
(-0.0120775 0.0111662 6.55609e-20)
(-0.0182816 0.0151811 1.56181e-19)
(-0.0228603 0.017321 1.27818e-19)
(-0.0256116 0.017977 1.68508e-19)
(-0.0263234 0.0174859 -3.40637e-19)
(-0.0247686 0.0161357 -1.87378e-19)
(-0.0207149 0.0141647 7.20652e-20)
(-0.0139247 0.0117705 1.04593e-19)
(-0.00415581 0.00911763 -8.35067e-20)
(0.00883536 0.006345 -1.59337e-19)
(0.0252903 0.00357224 -2.0094e-19)
(0.0454429 0.000905839 2.65574e-19)
(0.0695118 -0.0015563 2.17073e-19)
(0.0976899 -0.00372152 2.93943e-19)
(-0.0049425 0.00487173 1.39591e-19)
(-0.0127289 0.0116767 1.05416e-19)
(-0.0189349 0.0159072 -8.92219e-20)
(-0.0232301 0.01818 -1.53968e-19)
(-0.0254295 0.0188996 -2.15564e-21)
(-0.0253342 0.0184173 1.21682e-19)
(-0.0227271 0.0170353 2.46961e-20)
(-0.0173818 0.0150068 2.8631e-20)
(-0.00906322 0.0125439 -2.54121e-19)
(0.00247044 0.00982521 -2.25774e-19)
(0.0174637 0.0070031 1.58283e-19)
(0.0361588 0.00421019 9.85342e-20)
(0.0587883 0.00156527 -7.95262e-20)
(0.0855657 -0.000821693 -2.13988e-19)
(0.116673 -0.00284625 -3.38836e-20)
(-0.00524149 0.00504846 -2.34413e-19)
(-0.0133107 0.0120895 -1.26742e-19)
(-0.0194657 0.0164949 1.33711e-19)
(-0.0234172 0.0188741 2.10186e-21)
(-0.0249961 0.0196428 3.79656e-20)
(-0.0240161 0.0191651 -6.30121e-20)
(-0.0202693 0.0177564 2.83285e-19)
(-0.013535 0.0156833 -1.49205e-20)
(-0.0035809 0.0131714 1.0806e-20)
(0.00983372 0.0104127 -1.04956e-20)
(0.026953 0.00757246 1.89578e-19)
(0.0480174 0.0047955 -2.19225e-19)
(0.0732552 0.00221227 -4.64361e-20)
(0.102871 -5.63449e-05 8.10602e-20)
(0.137029 -0.00189524 3.22028e-19)
(0.17584 -0.00319173 6.74004e-20)
(-0.00551495 0.00518614 5.23207e-20)
(-0.0138152 0.0124035 2.08162e-19)
(-0.0198623 0.016942 -4.63505e-20)
(-0.0234065 0.0193996 -9.92794e-20)
(-0.0242935 0.020202 -4.69794e-20)
(-0.0223485 0.0197242 2.25465e-19)
(-0.0173724 0.0182933 -1.66242e-19)
(-0.00915015 0.0161883 -2.98437e-19)
(0.00254736 0.0136475 2.05959e-19)
(0.0179589 0.0108753 3.23228e-19)
(0.0373262 0.00804909 -9.30358e-20)
(0.0608857 0.00532528 9.2231e-20)
(0.0888571 0.00284513 1.31968e-19)
(0.12143 0.000739381 -2.03142e-19)
(0.158747 -0.000867971 -2.17613e-19)
(0.200884 -0.00185682 1.6396e-19)
(0.247828 -0.00210715 -1.08216e-19)
(-0.00576019 0.00528485 -1.77154e-19)
(-0.0142349 0.0126184 -3.14419e-20)
(-0.0201132 0.0172471 6.53113e-20)
(-0.0231833 0.0197545 1.98893e-20)
(-0.0233039 0.0205743 2.54298e-19)
(-0.0203111 0.0200911 -1.374e-19)
(-0.0140142 0.0186423 7.98018e-20)
(-0.00420369 0.0165183 2.25012e-19)
(0.00934572 0.0139691 -3.74276e-19)
(0.0268694 0.0112106 -4.32512e-20)
(0.0486048 0.00843168 1.37098e-19)
(0.0747805 0.00579957 -8.38937e-20)
(0.105603 0.00346543 1.38389e-20)
(0.141243 0.00156861 7.51835e-20)
(0.18181 0.000240076 1.13038e-19)
(0.227338 -0.000394939 -1.0596e-19)
(0.277758 -0.000214933 3.02325e-19)
(-0.00597468 0.00534501 2.27205e-20)
(-0.0145628 0.0127347 -3.5924e-21)
(-0.0202075 0.0174103 2.44726e-20)
(-0.022733 0.0199382 -3.88716e-20)
(-0.0220098 0.0207585 9.0443e-20)
(-0.0178839 0.0202642 -4.54458e-21)
(-0.0101727 0.0188019 -2.71084e-19)
(0.00132764 0.0166721 6.29877e-20)
(0.0168377 0.0141354 -1.38095e-19)
(0.0365879 0.011419 7.40915e-20)
(0.0608083 0.00872213 -1.3018e-19)
(0.0897163 0.00622197 -5.11839e-20)
(0.1235 0.00407857 -1.81003e-19)
(0.162302 0.00243858 -2.57613e-19)
(0.206194 0.00143797 -5.92036e-20)
(0.255156 0.00120393 -2.62907e-19)
(0.309051 0.00185604 2.12588e-20)
(0.367605 0.00350769 -3.46003e-19)
(-0.00615607 0.00536734 1.48535e-19)
(-0.0147919 0.0127536 -1.89044e-19)
(-0.0201344 0.0174327 1.4408e-19)
(-0.0220414 0.0199515 -7.48581e-20)
(-0.0203939 0.0207553 2.00675e-20)
(-0.0150471 0.0202442 -2.83419e-19)
(-0.00582605 0.0187728 3.83487e-19)
(0.00746685 0.0166509 2.7529e-19)
(0.0250464 0.014149 1.40864e-19)
(0.047136 0.0115044 -2.27249e-19)
(0.0739552 0.00892589 2.58075e-19)
(0.105705 0.00659991 -1.77874e-19)
(0.142551 0.00469414 2.81865e-19)
(0.184598 0.00336093 1.04659e-19)
(0.23187 0.00273918 5.40075e-21)
(0.284282 0.00295502 4.26773e-19)
(0.341619 0.00412172 -2.72861e-19)
(0.403508 0.00633911 5.28835e-19)
(-0.00630222 0.00535285 5.60257e-21)
(-0.0149159 0.0126772 5.19328e-20)
(-0.0198836 0.0173167 -1.62759e-19)
(-0.0210945 0.0197968 1.84512e-19)
(-0.0184391 0.020567 -1.01945e-19)
(-0.0117808 0.0200338 2.03332e-19)
(-0.000952489 0.0185584 -2.15508e-19)
(0.0142368 0.016459 -4.17292e-19)
(0.0339947 0.0140154 1.63454e-19)
(0.0585347 0.0114739 -2.97498e-20)
(0.0880626 0.00905232 -2.15421e-20)
(0.122758 0.006945 3.31264e-19)
(0.162755 0.00532606 -2.22057e-20)
(0.208114 0.00435183 4.19469e-20)
(0.258801 0.00416172 9.44776e-21)
(0.314655 0.00487764 -9.99929e-20)
(0.375365 0.0066024 6.33812e-20)
(0.44045 0.00941713 -1.65077e-20)
(0.509252 0.013378 -3.78275e-21)
(-0.0064111 0.00530277 1.45031e-21)
(-0.0149284 0.012508 1.02609e-19)
(-0.0194447 0.0170656 -4.97984e-20)
(-0.0198784 0.019478 -2.84411e-19)
(-0.0161282 0.0201984 2.30885e-20)
(-0.00806522 0.0196381 -3.6964e-20)
(0.00446986 0.0181647 8.7997e-20)
(0.0216604 0.016104 3.16818e-19)
(0.0437049 0.0137437 -4.35567e-20)
(0.0708045 0.0113387 2.03642e-19)
(0.103146 0.00911482 -3.18671e-19)
(0.140883 0.00727313 -8.43603e-20)
(0.184108 0.00599269 1.08664e-19)
(0.232831 0.0054318 -3.8001e-20)
(0.286946 0.00572775 -1.31621e-19)
(0.346202 0.00699489 1.70753e-19)
(0.410183 0.00932141 -1.01403e-19)
(0.478285 0.012765 -2.11722e-19)
(0.549717 0.0173473 1.19569e-19)
(0.623515 0.0230523 -3.80845e-19)
(-0.00648087 0.00521857 -1.15087e-19)
(-0.0148236 0.0122494 -1.0485e-19)
(-0.0188078 0.0166841 1.53935e-19)
(-0.0183794 0.0190008 7.12468e-20)
(-0.013444 0.0196556 1.17097e-19)
(-0.00388036 0.0190647 4.06744e-19)
(0.0104629 0.0176007 -3.6515e-19)
(0.0297605 0.0155962 -2.56029e-19)
(0.0541994 0.0133466 -1.00731e-22)
(0.0839649 0.0111138 2.81042e-20)
(0.11922 0.00913092 2.11594e-19)
(0.160085 0.00760442 -2.24121e-19)
(0.206604 0.00671656 2.45961e-20)
(0.258723 0.00662533 -2.16927e-19)
(0.316253 0.00746294 -2.20068e-20)
(0.378844 0.00933257 -2.6098e-20)
(0.445957 0.0123037 1.15103e-20)
(0.516857 0.0164062 2.36205e-19)
(0.59061 0.0216237 1.04061e-19)
(0.666113 0.0278908 2.49668e-20)
(-0.00650974 0.00510184 -4.68721e-20)
(-0.0145955 0.0119053 9.06444e-20)
(-0.0179631 0.0161776 -1.12341e-19)
(-0.0165837 0.0183719 6.19367e-20)
(-0.0103694 0.0189472 -2.44795e-19)
(0.000793802 0.0183235 -2.81968e-19)
(0.0170487 0.0168782 1.02129e-19)
(0.0385597 0.0149497 3.29592e-19)
(0.0655001 0.0128401 -3.60384e-19)
(0.0980346 0.0108181 8.77261e-20)
(0.136297 0.00912219 1.03712e-19)
(0.180366 0.00796307 1.6988e-19)
(0.230229 0.00752409 1.37065e-19)
(0.285757 0.0079603 8.49658e-20)
(0.346665 0.00939558 -1.93036e-19)
(0.412489 0.011918 2.44035e-19)
(0.482561 0.0155741 3.83969e-20)
(0.556002 0.0203621 -1.52825e-19)
(0.631731 0.0262247 -5.02983e-19)
(0.708507 0.0330476 1.17084e-19)
(0.784958 0.0406133 -3.11118e-19)
(-0.00649603 0.00495432 6.16188e-20)
(-0.0142386 0.0114799 6.49656e-20)
(-0.0169008 0.0155525 3.85061e-20)
(-0.0144775 0.0175999 -1.08717e-19)
(-0.00688708 0.0180835 9.2885e-20)
(0.00597744 0.0174269 1.46554e-19)
(0.0242493 0.0160116 1.07345e-19)
(0.0480809 0.0141815 -1.96201e-19)
(0.0776281 0.0122442 5.29488e-19)
(0.113031 0.010474 2.23722e-20)
(0.154388 0.009114 -1.37512e-19)
(0.201725 0.00837693 -3.09547e-20)
(0.254966 0.00844498 6.34653e-20)
(0.313893 0.00946725 9.97072e-20)
(0.378114 0.0115556 -1.47382e-19)
(0.447039 0.014779 -1.19019e-19)
(0.519859 0.0191565 -9.33059e-20)
(0.595544 0.024651 -2.39844e-19)
(0.672872 0.0311623 2.20542e-19)
(0.75047 0.0385282 -3.47763e-20)
(0.826864 0.0464831 4.53208e-19)
(0.900699 0.0548583 1.90843e-19)
(-0.00643808 0.00477783 -1.36191e-19)
(-0.013747 0.0109781 2.32384e-19)
(-0.015611 0.0148163 -2.60639e-19)
(-0.0120472 0.0166944 2.70521e-19)
(-0.00297965 0.0170765 -1.60161e-19)
(0.0116908 0.0163894 -3.40813e-21)
(0.0320867 0.0150183 1.06235e-19)
(0.058346 0.0133115 1.5999e-19)
(0.0906036 0.0115818 -2.47609e-19)
(0.128969 0.0101077 -2.87707e-20)
(0.173498 0.00913518 2.91492e-19)
(0.224157 0.00887706 -2.82995e-20)
(0.280791 0.00951157 1.55568e-19)
(0.343083 0.0111785 -2.28275e-19)
(0.410523 0.0139736 -9.39635e-20)
(0.482382 0.0179422 1.8734e-19)
(0.557702 0.0230717 -6.72867e-20)
(0.635304 0.0292863 -3.12767e-20)
(0.713825 0.0364415 -1.13415e-19)
(0.791777 0.0443289 -6.51831e-20)
(0.867614 0.0526418 1.70503e-19)
(0.939932 0.0611686 -2.21359e-19)
(1.00707 0.0688804 -1.3367e-19)
(-0.00633423 0.00457427 -1.29481e-19)
(-0.0131153 0.0104049 6.86514e-20)
(-0.0140838 0.013977 1.60754e-19)
(-0.00927863 0.0156663 9.42521e-20)
(0.00137037 0.0159399 -1.08159e-19)
(0.017954 0.0152278 -2.86046e-19)
(0.0405826 0.013918 -1.70932e-20)
(0.0693765 0.0123629 -2.18272e-19)
(0.104445 0.0108792 6.15244e-20)
(0.145862 0.00974844 -1.09533e-19)
(0.19363 0.00921754 -2.96477e-21)
(0.247649 0.00949704 -9.7676e-20)
(0.307671 0.010758 -1.62824e-19)
(0.37327 0.0131271 -5.34272e-20)
(0.443803 0.0166794 1.53605e-19)
(0.518395 0.0214321 -3.89508e-21)
(0.595934 0.0273368 1.02728e-19)
(0.675094 0.0342758 1.04509e-19)
(0.75438 0.0420598 3.33487e-19)
(0.832214 0.0504368 -2.60911e-19)
(0.907002 0.0590663 -4.43034e-19)
(0.977342 0.0677026 4.27827e-19)
(1.04169 0.0753935 -1.01985e-20)
(-0.00618277 0.00434553 2.1958e-20)
(-0.0123375 0.00976574 -2.29306e-20)
(-0.0123093 0.0130432 -7.16798e-20)
(-0.00615795 0.0145277 -3.75243e-19)
(0.00618044 0.0146893 1.47449e-19)
(0.0247872 0.0139608 1.68866e-19)
(0.0497581 0.0127329 -4.63313e-20)
(0.0811927 0.0113612 -8.51062e-20)
(0.11917 0.0101652 -3.77159e-19)
(0.16372 0.00942806 3.14687e-20)
(0.214785 0.0093953 -2.51981e-20)
(0.272183 0.0102723 -2.45515e-19)
(0.335568 0.0122195 -2.55009e-20)
(0.404387 0.0153458 7.15454e-20)
(0.477856 0.0197013 1.49311e-19)
(0.554946 0.02527 1.97704e-20)
(0.63439 0.0319639 -2.22377e-19)
(0.71472 0.039621 4.48686e-20)
(0.794331 0.0480075 6.50632e-22)
(0.871573 0.0568312 -1.98473e-19)
(0.944847 0.065725 1.96454e-19)
(1.01279 0.0744187 -1.59195e-19)
(1.07401 0.0820439 1.88706e-19)
(1.12861 0.0902077 -2.62197e-19)
(-0.00598192 0.00409354 -1.29344e-20)
(-0.0114079 0.00906613 7.49724e-20)
(-0.0102774 0.0120243 1.06277e-19)
(-0.00267103 0.0132916 2.47118e-19)
(0.011468 0.0133412 -1.60606e-19)
(0.0322099 0.0126089 -1.68603e-20)
(0.0596335 0.0114873 -2.76425e-19)
(0.0938133 0.0103344 3.57297e-19)
(0.134792 0.00947133 2.9281e-19)
(0.182547 0.00918069 -1.31582e-19)
(0.236953 0.00970442 -2.37222e-19)
(0.297734 0.0112393 8.33859e-20)
(0.36443 0.013931 -4.93881e-20)
(0.436354 0.0178662 -2.56219e-19)
(0.51257 0.0230648 1.99116e-19)
(0.591891 0.029473 -2.07635e-19)
(0.672897 0.0369596 -2.18812e-20)
(0.75399 0.045317 -1.71273e-20)
(0.833475 0.054268 -9.3484e-20)
(0.909665 0.0634846 5.75115e-19)
(0.980987 0.0725809 -2.27683e-19)
(1.04616 0.0812715 -1.19441e-19)
(1.10398 0.0887754 -1.01583e-19)
(1.15457 0.0964778 2.23527e-19)
(1.19398 0.0982298 -1.34134e-19)
(-0.0057298 0.00382022 2.04161e-20)
(-0.0103203 0.00831185 -1.09375e-19)
(-0.00797772 0.0109301 -5.11963e-20)
(0.00119626 0.0119719 -2.09562e-19)
(0.0172502 0.0119137 1.69123e-19)
(0.0402413 0.0111942 2.91896e-20)
(0.070228 0.0102073 -5.69482e-21)
(0.107255 0.00931239 -1.66251e-19)
(0.151322 0.00883063 -1.47746e-19)
(0.202346 0.00904205 -1.2562e-19)
(0.26012 0.0101819 2.4466e-19)
(0.324267 0.0124348 6.32969e-20)
(0.394199 0.0159268 3.6186e-19)
(0.469083 0.0207175 9.9103e-20)
(0.547825 0.0267915 -1.00469e-20)
(0.629078 0.034053 2.4558e-19)
(0.711277 0.0423245 -1.61039e-20)
(0.792712 0.0513523 7.09549e-20)
(0.871621 0.0608183 -2.7998e-19)
(0.946315 0.0703644 -2.70173e-19)
(1.01529 0.0795935 3.4473e-19)
(1.07737 0.0882148 1.37922e-19)
(1.13158 0.0955358 2.55002e-19)
(1.1781 0.102751 -1.00645e-19)
(1.2139 0.104531 2.05005e-19)
(-0.00542438 0.00352746 6.0947e-20)
(-0.0090686 0.00750881 -4.82827e-20)
(-0.00539996 0.00977082 -4.99858e-20)
(0.00545801 0.0105831 1.11122e-19)
(0.023544 0.0104259 -1.85062e-19)
(0.0488995 0.00974009 2.24471e-20)
(0.081559 0.00892046 1.58833e-19)
(0.121532 0.00832658 2.33857e-19)
(0.168767 0.00827772 -1.75031e-19)
(0.223111 0.00904884 4.29262e-19)
(0.284267 0.0108651 -2.49463e-19)
(0.35174 0.0138946 -1.43367e-19)
(0.424804 0.0182392 -1.69489e-19)
(0.502473 0.0239259 5.39864e-20)
(0.583489 0.030899 -2.75755e-19)
(0.666348 0.0390167 -2.8561e-19)
(0.749351 0.0480533 4.17131e-19)
(0.830697 0.0577096 1.92836e-20)
(0.90859 0.0676305 4.13912e-19)
(0.981373 0.0774341 -1.7706e-19)
(1.04764 0.0867206 -2.47898e-19)
(1.10637 0.0952033 1.87304e-19)
(1.15682 0.102278 -5.72572e-19)
(1.19927 0.108979 -2.51815e-20)
(1.23149 0.110711 7.10977e-20)
(-0.0050635 0.00321713 6.82243e-20)
(-0.0076462 0.00666301 7.76042e-20)
(-0.00253352 0.00855699 1.15594e-19)
(0.0101282 0.00914064 -8.45919e-20)
(0.0303657 0.00889781 7.24765e-20)
(0.0582017 0.00827127 -1.81662e-20)
(0.0936421 0.00765578 -1.28961e-20)
(0.136654 0.00740962 -2.8691e-19)
(0.187129 0.00784812 1.10194e-19)
(0.244832 0.00923814 -2.74983e-19)
(0.309362 0.011791 9.35477e-20)
(0.380098 0.0156534 5.97757e-20)
(0.456166 0.020898 8.79356e-20)
(0.536414 0.0275136 1.35477e-19)
(0.619422 0.0353996 1.0214e-19)
(0.703536 0.0443649 1.15242e-19)
(0.786941 0.0541347 -2.98551e-19)
(0.867769 0.0643662 -1.99567e-19)
(0.944221 0.0746723 6.98995e-20)
(1.01471 0.084655 -6.02415e-20)
(1.07796 0.0939202 1.10595e-19)
(1.13315 0.102195 -2.80317e-20)
(1.17974 0.108961 2.00196e-19)
(1.21818 0.115125 6.32393e-20)
(1.24689 0.116735 -5.13926e-19)
(-0.00464483 0.00289112 -5.07822e-20)
(-0.00604644 0.00578061 -1.45168e-19)
(0.000632194 0.00729955 -8.27301e-20)
(0.0152205 0.00766028 1.19194e-19)
(0.0377308 0.0073501 -7.57472e-20)
(0.0681634 0.00681317 1.15065e-19)
(0.10649 0.00644301 4.08839e-21)
(0.15263 0.00659488 2.20004e-19)
(0.206404 0.00757769 -2.4132e-19)
(0.26749 0.0096468 5.94075e-20)
(0.335369 0.0129953 2.72694e-19)
(0.40928 0.0177437 1.17896e-19)
(0.488192 0.0239294 -1.67108e-19)
(0.570786 0.0314982 -1.60695e-19)
(0.655479 0.0403003 -1.57108e-20)
(0.740478 0.0500926 1.97054e-19)
(0.823874 0.0605517 1.42736e-21)
(0.903759 0.0712947 -1.15985e-22)
(0.978371 0.0819086 2.54743e-20)
(1.04622 0.0919877 7.44155e-21)
(1.10621 0.101152 7.71858e-20)
(1.1577 0.109151 -1.89279e-19)
(1.20042 0.115551 2.8341e-19)
(1.23493 0.121157 -2.18697e-20)
(1.26025 0.122582 6.07435e-20)
(-0.00416589 0.0025513 -7.97299e-20)
(-0.00426246 0.00486786 1.14288e-19)
(0.0041078 0.00600968 -3.55284e-20)
(0.0207484 0.00615835 1.41398e-19)
(0.045654 0.0058042 -8.90833e-21)
(0.0787983 0.00539197 -2.45662e-19)
(0.120113 0.00531254 -3.30788e-20)
(0.169461 0.0059161 -1.21138e-19)
(0.226586 0.00750221 4.53024e-19)
(0.29106 0.0103108 -3.17066e-19)
(0.362239 0.0145121 -2.48805e-19)
(0.439213 0.0201949 -3.03419e-19)
(0.520782 0.0273559 5.15013e-21)
(0.60546 0.0358928 3.1869e-20)
(0.691507 0.0456025 3.16553e-21)
(0.777008 0.0561895 -1.15972e-19)
(0.859982 0.0672828 9.43987e-20)
(0.938517 0.0784644 1.92153e-19)
(1.01092 0.0893029 -1.4997e-19)
(1.07584 0.0993936 3.37003e-19)
(1.13236 0.108379 -1.19116e-19)
(1.18006 0.116039 9.19632e-20)
(1.21892 0.122022 -4.47249e-19)
(1.24966 0.127055 1.09001e-19)
(1.27174 0.128239 5.52317e-20)
(-0.00362407 0.00219955 -1.87686e-20)
(-0.00228723 0.00393115 3.93828e-20)
(0.00790382 0.00469888 5.86476e-20)
(0.0267246 0.00465159 -1.52486e-19)
(0.0541486 0.00428198 1.08878e-19)
(0.0901181 0.0040343 4.5308e-20)
(0.134519 0.00429509 -4.37666e-20)
(0.187146 0.00540699 2.78702e-20)
(0.247657 0.00765684 -7.75124e-20)
(0.315509 0.0112649 2.31298e-19)
(0.389918 0.0163732 2.24232e-19)
(0.469814 0.0230332 4.9585e-20)
(0.553827 0.0311955 3.63488e-19)
(0.640302 0.0407048 -2.52641e-20)
(0.727354 0.0513025 4.48111e-20)
(0.812965 0.0626398 -6.0942e-20)
(0.895109 0.0743022 -2.07431e-19)
(0.971907 0.0858421 -9.27504e-20)
(1.04177 0.0968182 -6.06346e-20)
(1.1035 0.106836 -5.32625e-20)
(1.15641 0.115568 -1.24838e-19)
(1.2003 0.122831 2.15839e-19)
(1.23537 0.128353 2.95313e-19)
(1.26249 0.132803 -1.11502e-20)
(1.28151 0.133703 -4.58958e-21)
(-0.0030166 0.0018378 2.10967e-19)
(-0.000113653 0.00297703 -2.18099e-19)
(0.0120306 0.00337888 -8.5671e-20)