/*--------------------------------*- C++ -*----------------------------------*\
  =========                 |
  \\      /  F ield         | OpenFOAM: The Open Source CFD Toolbox
   \\    /   O peration     | Website:  https://openfoam.org
    \\  /    A nd           | Version:  7
     \\/     M anipulation  |
\*---------------------------------------------------------------------------*/
FoamFile
{
    version     2.0;
    format      ascii;
    class       volVectorField;
    location    "40";
    object      U;
}
// * * * * * * * * * * * * * * * * * * * * * * * * * * * * * * * * * * * * * //

dimensions      [0 1 -1 0 0 0 0];

internalField   nonuniform List<vector> 
4575
(
(1.0999 0.370504 -1.16707e-20)
(1.09492 0.385843 3.59442e-20)
(1.09178 0.372487 -3.02456e-20)
(1.0916 0.419829 -4.42508e-20)
(1.08856 0.403333 2.02961e-20)
(1.08621 0.387871 2.99295e-21)
(1.08348 0.374268 2.62053e-20)
(1.08548 0.439983 -2.99456e-20)
(1.0818 0.422286 7.93049e-20)
(1.0792 0.405424 -2.75601e-21)
(1.07732 0.389675 -1.02096e-20)
(1.07502 0.375838 1.50912e-21)
(1.07925 0.461634 5.13734e-20)
(1.07499 0.442581 -2.55114e-20)
(1.07177 0.424486 -3.7692e-20)
(1.06964 0.40727 8.13507e-21)
(1.06823 0.391245 -1.74502e-20)
(1.06639 0.377187 -6.265e-21)
(1.07268 0.484787 -3.00353e-20)
(1.06805 0.464377 -7.55663e-21)
(1.06428 0.444896 2.79315e-21)
(1.06152 0.426418 -4.19375e-21)
(1.05988 0.408859 1.14561e-21)
(1.05895 0.392571 -5.39671e-21)
(1.05759 0.378307 5.2112e-21)
(1.06543 0.509387 7.69709e-20)
(1.06071 0.487678 -1.8692e-20)
(1.0566 0.466806 -2.66738e-21)
(1.05334 0.446918 3.11963e-20)
(1.05107 0.428072 2.8748e-21)
(1.04992 0.410184 1.05688e-20)
(1.0495 0.393644 2.66402e-21)
(1.04864 0.379188 -4.95348e-21)
(1.05701 0.535264 5.91537e-21)
(1.05263 0.512434 1.71627e-20)
(1.04848 0.490218 3.15602e-20)
(1.04494 0.468909 1.31996e-21)
(1.0422 0.448633 6.75442e-21)
(1.04042 0.429435 -1.52296e-20)
(1.03977 0.411233 -7.64006e-22)
(1.03986 0.394455 1.81477e-21)
(1.03954 0.379822 3.16751e-21)
(1.04667 0.561986 -9.57374e-20)
(1.04334 0.538493 -1.00729e-19)
(1.03954 0.515087 -4.35694e-20)
(1.03601 0.492393 -3.52412e-20)
(1.03305 0.470673 -4.14851e-21)
(1.03086 0.45003 -8.21878e-22)
(1.02959 0.4305 -4.32796e-21)
(1.02945 0.411998 -2.99824e-21)
(1.03006 0.394994 3.37536e-20)
(1.03029 0.3802 -1.84956e-20)
(1.03321 0.588643 -1.7627e-20)
(1.03214 0.565448 7.19896e-20)
(1.02936 0.541275 8.57964e-20)
(1.0262 0.51733 1.07199e-20)
(1.02331 0.494189 3.56227e-20)
(1.02097 0.472084 -1.71478e-21)
(1.01934 0.451098 3.7829e-21)
(1.0186 0.431255 2.78571e-21)
(1.01895 0.412471 1.04891e-20)
(1.02009 0.395253 -1.11683e-20)
(1.0209 0.380312 -2.12425e-20)
(1.01471 0.613542 3.13168e-20)
(1.01789 0.592423 3.81107e-20)
(1.01726 0.568402 2.36428e-20)
(1.01509 0.543596 -4.88984e-20)
(1.01261 0.519149 -2.85651e-20)
(1.01039 0.495593 -1.4602e-20)
(1.0087 0.47313 -1.92755e-21)
(1.00766 0.451826 7.29934e-21)
(1.00745 0.431692 1.34213e-20)
(1.00831 0.412644 7.83559e-21)
(1.00996 0.395224 -2.4462e-20)
(1.01138 0.380148 -2.80563e-21)
(0.988211 0.633864 -4.3591e-20)
(0.998749 0.617769 -1.41355e-19)
(1.00217 0.595628 -8.98826e-20)
(1.00206 0.570835 -2.08219e-20)
(1.00056 0.545441 2.70554e-20)
(0.998793 0.52053 1.76764e-20)
(0.997288 0.496592 4.41903e-21)
(0.996263 0.473799 -3.02e-21)
(0.995834 0.452204 8.99123e-21)
(0.996159 0.431801 -1.26583e-20)
(0.997529 0.412509 -5.30433e-21)
(0.999688 0.394899 -3.76333e-20)
(1.00172 0.3797 3.47714e-20)
(0.949581 0.645334 -5.45023e-20)
(0.971891 0.638691 8.66623e-20)
(0.982336 0.62134 8.72514e-20)
(0.986087 0.598241 2.72774e-20)
(0.986565 0.572733 2.33819e-20)
(0.985779 0.546797 -4.4562e-21)
(0.984768 0.521461 2.34667e-21)
(0.984003 0.497172 9.66902e-21)
(0.983673 0.47408 -3.78393e-20)
(0.983874 0.45222 -2.11978e-20)
(0.984755 0.431573 -3.20856e-20)
(0.986626 0.412061 -4.86332e-20)
(0.989277 0.394271 8.40953e-20)
(0.991941 0.378954 4.87711e-20)
(0.893469 0.642052 -3.08631e-20)
(0.933296 0.650912 1.04153e-20)
(0.955044 0.642781 -1.0266e-20)
(0.965507 0.624242 5.80556e-20)
(0.969674 0.600249 -3.96623e-20)
(0.970803 0.574081 -3.3669e-21)
(0.970777 0.54765 5.3211e-21)
(0.970553 0.521927 -1.0022e-20)
(0.970556 0.497321 -2.39319e-20)
(0.970947 0.473961 5.26265e-20)
(0.9718 0.451864 2.72764e-20)
(0.973254 0.430999 4.09028e-20)
(0.975622 0.41129 6.35748e-20)
(0.978744 0.393332 6.22591e-20)
(0.982053 0.377898 -7.86068e-20)
(0.877737 0.648458 -9.78702e-21)
(0.916402 0.655671 -3.76233e-20)
(0.937713 0.646116 -9.99503e-21)
(0.948297 0.62646 -5.21957e-20)
(0.95296 0.601639 4.04903e-20)
(0.954797 0.574867 -2.81963e-22)
(0.955572 0.547988 -3.96745e-21)
(0.956167 0.521917 -2.42881e-20)
(0.956964 0.497028 -1.22685e-20)
(0.9581 0.473429 -8.2255e-20)
(0.95963 0.451124 -6.02878e-20)
(0.961677 0.430068 -1.49311e-20)
(0.964541 0.410191 1.03426e-19)
(0.968109 0.392072 -6.35465e-20)
(0.972077 0.376513 2.03446e-20)
(0.799072 0.623755 -4.65988e-20)
(0.861316 0.653983 -2.95428e-20)
(0.898948 0.659595 -2.43025e-20)
(0.91994 0.648684 2.65245e-20)
(0.930743 0.627983 6.06467e-21)
(0.935975 0.602399 -1.43048e-20)
(0.938573 0.575079 -1.96458e-20)
(0.940186 0.547799 -9.61769e-21)
(0.941629 0.52142 1.58551e-20)
(0.943244 0.496283 1.61127e-21)
(0.945148 0.472475 2.47244e-20)
(0.947381 0.449989 1.58374e-20)
(0.950044 0.42877 2.86305e-20)
(0.953409 0.408754 5.04583e-20)
(0.957396 0.390478 -1.82969e-19)
(0.962031 0.37477 4.24015e-20)
(0.690872 0.568133 4.05084e-22)
(0.783758 0.629996 5.11863e-20)
(0.844259 0.658606 5.76759e-20)
(0.880982 0.662669 2.68389e-20)
(0.901768 0.650471 -1.91733e-20)
(0.912881 0.628798 6.69167e-21)
(0.91875 0.602517 9.90634e-21)
(0.922155 0.574707 2.95316e-20)
(0.924641 0.547073 4.60096e-20)
(0.926957 0.520425 1.67269e-20)
(0.929412 0.495073 9.89553e-21)
(0.932107 0.471088 -9.22435e-21)
(0.935067 0.448448 1.00602e-19)
(0.938377 0.427094 -8.15092e-20)
(0.942251 0.406968 3.09221e-20)
(0.946628 0.388533 1.95632e-19)
(0.951934 0.372626 1.15582e-19)
(0.677389 0.574782 -6.74338e-20)
(0.767749 0.635302 -1.63194e-20)
(0.826619 0.662311 3.9572e-20)
(0.862553 0.664879 -3.88913e-20)
(0.88324 0.651468 -9.30773e-21)
(0.894747 0.628895 4.6832e-21)
(0.901314 0.601985 -3.68576e-20)
(0.905571 0.573741 -3.12428e-20)
(0.90896 0.5458 -4.26906e-20)
(0.912171 0.518924 -1.01907e-19)
(0.915485 0.493391 6.31452e-20)
(0.918989 0.469258 -8.47445e-21)
(0.922702 0.446491 -1.04858e-19)
(0.926692 0.425026 -3.42524e-20)
(0.931091 0.404824 -1.21156e-19)
(0.935832 0.386217 5.89882e-20)
(0.941844 0.370026 -1.36986e-19)
(0.536448 0.479052 6.64089e-20)
(0.663196 0.580519 8.90584e-20)
(0.751102 0.639654 2.83831e-20)
(0.808448 0.665082 -7.60339e-21)
(0.843708 0.666214 7.49912e-21)
(0.864397 0.651662 1.30214e-20)
(0.876377 0.628265 -3.78867e-20)
(0.883698 0.600792 -7.98863e-21)
(0.888846 0.572171 2.32857e-20)
(0.893164 0.543972 2.88402e-20)
(0.897291 0.516907 9.33046e-20)
(0.90148 0.491229 -7.31681e-21)
(0.905808 0.466976 -2.72265e-20)
(0.910297 0.444105 -1.23579e-20)
(0.915 0.422555 6.86029e-20)
(0.919942 0.402306 1.31652e-19)
(0.925065 0.38351 -2.19825e-19)
(0.93193 0.366924 1.48778e-19)
(0.356659 0.334276 1.18306e-19)
(0.524927 0.484652 -5.02623e-20)
(0.648343 0.585324 -5.3217e-20)
(0.733869 0.643033 -2.0975e-20)
(0.789801 0.666906 1.15659e-20)
(0.824497 0.666663 -7.61196e-21)
(0.845282 0.651046 -3.04685e-20)
(0.857807 0.626899 1.41066e-20)
(0.865934 0.598931 1.10886e-19)
(0.872006 0.569991 1.19142e-21)
(0.877278 0.541581 -3.97864e-20)
(0.882336 0.514369 -4.53096e-20)
(0.887412 0.48858 -3.40008e-20)
(0.892577 0.464237 -4.83301e-21)
(0.897859 0.441284 1.2766e-19)
(0.903296 0.419663 -4.86892e-20)
(0.908801 0.399377 -9.42929e-20)
(0.914423 0.380353 -3.19742e-21)
(0.92242 0.363318 -2.09133e-19)
(0.348767 0.338786 -4.37097e-20)
(0.512791 0.489422 3.93771e-20)
(0.632886 0.589174 4.64534e-20)
(0.716109 0.645424 -9.48877e-21)
(0.770731 0.667772 -6.6995e-21)
(0.804968 0.666218 4.02424e-20)
(0.825937 0.649613 7.37827e-21)
(0.839073 0.624792 1.0476e-20)
(0.848052 0.596395 -7.91152e-20)
(0.855079 0.567193 -8.89514e-20)
(0.861324 0.538622 -9.86026e-21)
(0.867327 0.511305 3.39965e-21)
(0.8733 0.48544 -4.04194e-20)
(0.879309 0.461037 3.71485e-20)
(0.885391 0.438024 1.02689e-19)
(0.89156 0.416345 3.05224e-20)
(0.897652 0.395995 -1.76778e-19)
(0.904 0.376591 -5.75499e-21)
(0.913228 0.358975 6.58822e-20)
(0.133118 0.135112 1.74636e-20)
(0.3404 0.342679 5.57376e-21)
(0.50009 0.493339 -2.59872e-20)
(0.616878 0.592052 -1.74418e-20)
(0.697875 0.646814 9.1172e-21)
(0.75129 0.667669 2.53203e-20)
(0.785168 0.664871 -4.94034e-20)
(0.806404 0.647357 -5.36764e-20)
(0.820212 0.621938 6.46213e-20)
(0.830083 0.59318 1.51484e-19)
(0.838092 0.563773 9.20437e-20)
(0.845327 0.535089 -3.22338e-20)
(0.852285 0.507709 -2.09083e-20)
(0.859161 0.481807 -7.76608e-21)
(0.866018 0.457377 -1.10518e-19)
(0.872895 0.434335 -5.76945e-20)
(0.879777 0.41262 -6.47396e-20)
(0.886491 0.392203 2.08073e-19)
(0.893833 0.372231 -4.82327e-20)
(0.903368 0.352223 1.80491e-19)
(0.129883 0.136897 1.1172e-20)
(0.331594 0.34594 -1.49648e-20)
(0.486872 0.496385 6.05264e-21)
(0.600373 0.593941 -1.02753e-21)
(0.679224 0.647192 -1.46039e-20)
(0.731532 0.666591 -3.39208e-20)
(0.765144 0.662618 1.70925e-20)
(0.786724 0.644273 7.99265e-20)
(0.801258 0.618332 -1.85766e-19)
(0.812058 0.58928 2.72533e-20)
(0.821072 0.559726 -5.44728e-20)
(0.82931 0.530979 6.1444e-20)
(0.837233 0.50358 5.45449e-20)
(0.845018 0.47768 8.72718e-20)
(0.852723 0.45326 3.64797e-20)
(0.860386 0.430226 9.5497e-20)
(0.867968 0.408516 4.52784e-20)
(0.875344 0.388095 -1.24621e-20)
(0.883517 0.368123 1.00727e-19)
(0.892913 0.348336 1.53674e-20)
(0.126451 0.138414 1.08756e-20)
(0.322385 0.34855 -9.89696e-21)
(0.473183 0.498543 1.28207e-20)
(0.583426 0.59483 -1.00333e-20)
(0.660212 0.646548 1.71966e-20)
(0.711509 0.664532 9.80395e-21)
(0.744945 0.659454 8.00675e-20)
(0.766937 0.640359 2.27599e-20)
(0.782248 0.613971 1.14873e-19)
(0.794009 0.584693 6.76551e-20)
(0.804046 0.555049 -1.77513e-19)
(0.8133 0.526289 6.59296e-21)
(0.822194 0.498915 -1.64398e-19)
(0.83089 0.473058 -1.11109e-20)
(0.839445 0.448685 -7.05812e-20)
(0.847889 0.425701 1.08806e-19)
(0.856171 0.404038 -1.67372e-19)
(0.864203 0.383647 -4.27011e-20)
(0.872968 0.363697 -6.36933e-20)
(0.88229 0.344009 -2.30834e-19)
(0.122839 0.139657 5.32374e-21)
(0.312808 0.350494 3.12566e-20)
(0.459073 0.499798 3.9614e-21)
(0.566094 0.594707 -1.23446e-20)
(0.640894 0.644878 4.12128e-20)
(0.691273 0.661489 -4.03949e-20)
(0.724617 0.655379 4.39056e-20)
(0.747087 0.635613 -1.60643e-19)
(0.763217 0.608855 -1.09371e-19)
(0.775966 0.579416 -1.97764e-19)
(0.787043 0.549741 1.22832e-19)
(0.797321 0.521018 -6.10839e-21)
(0.80719 0.493714 -2.47756e-20)
(0.816801 0.467939 -5.58675e-20)
(0.826205 0.443654 -7.95423e-20)
(0.83543 0.420758 4.16742e-20)
(0.844419 0.399184 1.344e-19)
(0.853112 0.378871 -7.18075e-20)
(0.862426 0.359022 9.29851e-20)
(0.871897 0.339579 2.65327e-19)
(0.11906 0.140616 1.59868e-20)
(0.302898 0.351759 -1.97734e-20)
(0.444591 0.500139 2.08195e-20)
(0.54843 0.593564 5.12462e-20)
(0.621327 0.642175 2.74646e-20)
(0.670877 0.657461 8.44167e-20)
(0.704207 0.650392 -6.83269e-20)
(0.727212 0.630035 -3.57816e-20)
(0.744202 0.602982 -3.03119e-20)
(0.757961 0.57345 1.2955e-19)
(0.770091 0.543801 -3.08479e-19)
(0.781399 0.515165 -1.24362e-19)
(0.792246 0.487974 3.50013e-20)
(0.802772 0.462324 4.70383e-20)
(0.813025 0.438167 1.62318e-19)
(0.823031 0.415398 -2.25082e-19)
(0.832733 0.393952 6.58963e-20)
(0.842087 0.373758 3.97204e-20)
(0.851949 0.354066 -5.6278e-20)
(0.861714 0.334934 -1.99153e-19)
(0.115131 0.141285 6.54483e-21)
(0.292694 0.352334 -6.85225e-20)
(0.429788 0.499557 2.18977e-21)
(0.530492 0.591395 5.3123e-20)
(0.601565 0.638439 -6.60407e-20)
(0.650373 0.652447 -1.2822e-19)
(0.68376 0.644494 1.67451e-20)
(0.707355 0.623627 8.87899e-20)
(0.725236 0.596354 2.15445e-19)
(0.740026 0.566795 -2.16284e-19)
(0.753217 0.537228 1.86145e-19)
(0.765559 0.508729 2.22756e-19)
(0.777385 0.481698 1.79453e-19)
(0.788825 0.456214 1.29291e-19)
(0.799927 0.432222 -2.77759e-19)
(0.810714 0.40962 -2.32455e-21)
(0.821131 0.388339 -7.37945e-20)
(0.831149 0.368304 2.81994e-19)
(0.841574 0.348814 -1.25241e-20)
(0.851714 0.330015 -1.37164e-19)
(0.111067 0.141657 1.58688e-20)
(0.282233 0.35221 2.83012e-20)
(0.414714 0.498044 3.54581e-21)
(0.512334 0.588199 -3.27015e-20)
(0.581665 0.63367 -3.67975e-20)
(0.62981 0.64645 2.03059e-21)
(0.663322 0.637688 -5.028e-20)
(0.687553 0.616391 -8.48625e-20)
(0.706357 0.588973 6.85427e-20)
(0.722192 0.559451 1.72696e-19)
(0.73645 0.530024 4.52826e-21)
(0.749827 0.501712 7.25641e-20)
(0.762632 0.474885 -1.13605e-19)
(0.774984 0.449609 -1.42253e-19)
(0.786932 0.425822 3.55786e-19)
(0.7985 0.403423 1.42192e-19)
(0.809634 0.382345 -1.457e-19)
(0.820318 0.362504 -1.67755e-19)
(0.831319 0.343253 -1.87246e-19)
(0.841888 0.324799 -1.6152e-20)
(0.106884 0.141729 -1.08208e-19)
(0.271553 0.35138 -2.30678e-20)
(0.399419 0.495596 -5.24332e-20)
(0.494011 0.583973 -9.94403e-20)
(0.561679 0.627871 1.69757e-19)
(0.60924 0.639475 -1.42866e-19)
(0.642939 0.62998 2.04491e-19)
(0.667848 0.608333 -5.4997e-22)
(0.687597 0.580842 -6.55145e-20)
(0.704489 0.551424 5.426e-20)
(0.719818 0.522192 3.9758e-20)
(0.734229 0.494116 -2.01882e-19)
(0.748009 0.467538 2.11446e-19)
(0.76127 0.44251 1.27817e-19)
(0.774061 0.418968 -5.02576e-20)
(0.786407 0.396809 -9.60123e-20)
(0.79826 0.375966 8.35913e-20)
(0.809613 0.356355 -1.42112e-19)
(0.821201 0.337375 -1.96616e-19)
(0.832232 0.319274 1.89253e-19)
(0.1026 0.141496 1.46399e-19)
(0.260693 0.349838 -8.85024e-20)
(0.383954 0.492212 -4.63721e-20)
(0.47558 0.57872 6.05e-20)
(0.541662 0.621045 1.74994e-20)
(0.588711 0.631528 5.20129e-20)
(0.622654 0.621375 5.03817e-20)
(0.648278 0.599457 1.4294e-19)
(0.668992 0.571968 1.69239e-19)
(0.686948 0.542716 -1.61908e-19)
(0.703349 0.513735 1.97555e-19)
(0.718791 0.485944 -2.27101e-19)
(0.73354 0.459659 2.95479e-20)
(0.747706 0.434921 -8.97262e-20)
(0.761336 0.41166 6.35334e-20)
(0.774457 0.389777 5.95455e-20)
(0.787026 0.369204 -3.67385e-20)
(0.79905 0.349855 3.54805e-19)
(0.811232 0.331172 -4.59711e-20)
(0.822746 0.313433 -1.61389e-19)
(0.09823 0.140955 -1.15677e-19)
(0.249691 0.347582 1.54127e-19)
(0.36837 0.487891 -2.9711e-20)
(0.457092 0.572444 -1.74955e-19)
(0.521666 0.613201 1.22859e-19)
(0.568274 0.622617 -4.3789e-20)
(0.602511 0.611883 -1.55579e-19)
(0.628881 0.589771 -2.39372e-20)
(0.650577 0.562355 -3.56768e-19)
(0.669601 0.533333 3.38047e-19)
(0.687069 0.504658 -3.72986e-20)
(0.703537 0.477201 9.47025e-20)
(0.71925 0.451253 1.13226e-19)
(0.734313 0.426843 4.50766e-20)
(0.748776 0.403902 -3.07633e-19)
(0.762668 0.38233 6.84269e-20)
(0.775952 0.362059 6.42706e-20)
(0.788645 0.343001 -2.12749e-19)
(0.801422 0.324643 7.98673e-20)
(0.813435 0.307272 3.0401e-20)
(0.0937914 0.140105 -9.82004e-20)
(0.238585 0.344612 -1.04542e-19)
(0.352715 0.482636 2.09374e-19)
(0.438604 0.565152 1.50513e-19)
(0.501746 0.604346 -1.23407e-19)
(0.547976 0.612752 1.41992e-20)
(0.582553 0.601511 9.80633e-20)
(0.609696 0.579284 2.97833e-20)
(0.632383 0.552012 -3.97602e-21)
(0.652476 0.523281 5.3525e-20)
(0.671008 0.494966 -9.31974e-20)
(0.688492 0.467891 -1.22465e-20)
(0.70516 0.442322 -3.51977e-19)
(0.721113 0.418282 -2.68574e-19)
(0.736401 0.395697 -4.44354e-20)
(0.751058 0.37447 -3.80313e-20)
(0.765052 0.354532 -4.17454e-20)
(0.778412 0.335794 -8.42296e-20)
(0.791784 0.317784 -9.71903e-20)
(0.089301 0.138943 2.4291e-20)
(0.227415 0.340928 2.31612e-19)
(0.33704 0.476454 -9.42195e-20)
(0.420167 0.556852 -1.43175e-19)
(0.481951 0.594493 -1.33093e-20)
(0.527865 0.601944 2.02991e-19)
(0.562823 0.590273 -2.08988e-19)
(0.59076 0.568006 4.16745e-20)
(0.614445 0.540948 -3.10309e-20)
(0.635604 0.512569 -3.21115e-19)
(0.655191 0.484667 -3.02521e-19)
(0.673682 0.45802 5.58715e-20)
(0.691295 0.432874 4.82353e-19)
(0.708127 0.409242 7.22229e-20)
(0.724232 0.387049 1.92032e-19)
(0.739646 0.3662 -2.96546e-19)
(0.754344 0.346625 -7.00656e-20)
(0.768365 0.328236 3.47084e-19)
(0.782329 0.310596 1.53818e-19)
(0.0847757 0.13747 8.36085e-20)
(0.216217 0.336533 8.41384e-20)
(0.321394 0.46935 -2.08212e-19)
(0.401834 0.547556 -8.23221e-21)
(0.462332 0.583654 -8.96101e-20)
(0.507986 0.590207 -1.20336e-19)
(0.543361 0.57818 3.81773e-20)
(0.572109 0.555949 -1.15634e-19)
(0.596796 0.529172 2.20967e-19)
(0.619014 0.501205 -1.36011e-19)
(0.639645 0.473769 1.00215e-19)
(0.659131 0.447596 2.27584e-19)
(0.677676 0.422915 -1.5607e-19)
(0.695375 0.399729 3.97245e-20)
(0.712287 0.377964 1.89282e-19)
(0.728448 0.357524 2.38044e-19)
(0.743843 0.338342 -1.23407e-19)
(0.758519 0.320329 -7.07853e-20)
(0.773067 0.303083 1.07107e-19)
(0.0802324 0.135688 -1.97439e-19)
(0.205031 0.331434 7.37164e-20)
(0.305825 0.461336 2.37123e-19)
(0.383656 0.537276 2.76856e-20)
(0.442939 0.571844 -3.38946e-20)
(0.488385 0.577557 -5.89729e-20)
(0.524208 0.565246 -3.25482e-20)
(0.55378 0.543125 1.41914e-19)
(0.579466 0.516697 -2.10029e-19)
(0.602734 0.489201 4.9509e-19)
(0.624397 0.46228 2.05869e-19)
(0.644863 0.436627 -6.90318e-20)
(0.664325 0.412451 -2.19857e-20)
(0.682879 0.389749 9.10168e-20)
(0.700584 0.368446 -2.5103e-19)
(0.717483 0.348448 2.05061e-20)
(0.733564 0.329688 -1.59758e-19)
(0.748886 0.312077 -7.07866e-20)
(0.0756879 0.133597 -3.78629e-20)
(0.193894 0.325636 -2.39852e-19)
(0.290381 0.452423 1.65768e-19)
(0.365684 0.526029 -2.52074e-20)
(0.423821 0.559081 1.29345e-19)
(0.469107 0.56401 4.50533e-20)
(0.505403 0.551489 -7.29736e-21)
(0.535807 0.52955 9.53924e-20)
(0.562488 0.503536 -5.81843e-20)
(0.586794 0.476566 -1.78712e-19)
(0.609472 0.450211 1.93095e-19)
(0.630901 0.425123 2.06127e-19)
(0.651265 0.401492 -7.09049e-22)
(0.670658 0.379311 -4.67311e-20)
(0.689143 0.358504 -2.61627e-20)
(0.706766 0.338978 1.95371e-19)
(0.723523 0.320668 1.7488e-19)
(0.73948 0.303484 4.87453e-20)
(0.071159 0.1312 1.80382e-19)
(0.182843 0.31915 2.68883e-19)
(0.275108 0.442626 -1.56003e-19)
(0.347967 0.513832 -1.19301e-20)
(0.405024 0.545383 -2.25342e-19)
(0.450194 0.549586 1.40356e-19)
(0.486985 0.536925 -5.58623e-20)
(0.518224 0.515238 -1.10211e-19)
(0.545892 0.489701 -4.15812e-20)
(0.57122 0.463314 -5.85843e-21)
(0.594895 0.437573 -4.22987e-19)
(0.617269 0.413094 -5.3392e-19)
(0.638517 0.390047 -8.23162e-20)
(0.658732 0.368423 1.84435e-19)
(0.677981 0.348144 -7.22249e-20)
(0.696314 0.329121 -3.67076e-19)
(0.713734 0.311288 3.43234e-19)
(0.730314 0.294557 4.92089e-20)
(0.0666621 0.128502 -2.95672e-19)
(0.171915 0.311985 1.0153e-19)
(0.260053 0.43196 -8.6149e-20)
(0.330552 0.500705 1.16687e-19)
(0.386594 0.530771 2.25169e-19)
(0.431688 0.534304 -1.42082e-19)
(0.468992 0.521574 2.61753e-19)
(0.501065 0.500207 -9.05215e-20)
(0.529707 0.475209 1.36697e-19)
(0.55604 0.449459 2.60335e-19)
(0.580692 0.42438 1.4162e-19)
(0.60399 0.40055 5.94598e-19)
(0.626101 0.378127 2.71603e-19)
(0.64712 0.357094 -2.25245e-20)
(0.667116 0.337376 -1.3891e-20)
(0.686143 0.318885 4.66983e-20)
(0.704211 0.301555 -3.78799e-19)
(0.721401 0.285302 -2.0197e-19)
(0.0622136 0.125507 1.63497e-19)
(0.161144 0.304155 -4.86495e-20)
(0.24526 0.420445 -2.21707e-19)
(0.313487 0.486669 -2.04172e-19)
(0.368577 0.515269 -3.68121e-20)
(0.41363 0.518186 2.73274e-20)
(0.451459 0.505455 -3.32908e-19)
(0.484362 0.484476 2.50715e-19)
(0.513963 0.460077 -1.16e-19)
(0.541279 0.435015 -2.65932e-19)
(0.566885 0.410644 -6.42164e-20)
(0.591085 0.387506 -2.45193e-19)
(0.614037 0.365743 -5.0915e-19)
(0.63584 0.345335 4.33012e-20)
(0.656564 0.326209 4.0078e-19)
(0.676268 0.308279 -1.74439e-19)
(0.694969 0.291478 2.12234e-19)
(0.0578294 0.12222 -2.88568e-20)
(0.150567 0.295673 -4.0411e-19)
(0.230774 0.408101 4.0788e-19)
(0.296818 0.471748 -1.01308e-19)
(0.351015 0.498899 1.45177e-19)
(0.39606 0.501257 8.57194e-20)
(0.434423 0.48859 3.52836e-19)
(0.468147 0.468063 -4.25716e-19)
(0.498689 0.444321 3.34229e-19)
(0.526965 0.419999 2.66108e-19)
(0.553499 0.396381 -7.64057e-20)
(0.578575 0.373973 -4.05748e-20)
(0.602346 0.352906 1.48117e-19)
(0.62491 0.333158 -2.54225e-19)
(0.646343 0.314654 -3.39268e-19)
(0.666705 0.297312 1.28438e-19)
(0.686022 0.281066 -1.29471e-19)
(0.0535254 0.118647 -2.86383e-20)
(0.140217 0.286557 1.32496e-19)
(0.216635 0.39495 1.49674e-19)
(0.280588 0.455968 -2.62008e-19)
(0.333951 0.481689 1.34638e-19)
(0.379016 0.48354 -3.47285e-19)
(0.417916 0.471002 -2.80893e-20)
(0.45245 0.45099 2.07124e-20)
(0.48391 0.427961 -3.52635e-20)
(0.51312 0.404428 -3.33622e-19)
(0.540556 0.381605 -1.44326e-20)
(0.566482 0.359967 -5.40916e-20)
(0.591047 0.339632 3.25117e-19)
(0.614349 0.320574 -1.00754e-19)
(0.636468 0.302721 -2.86273e-20)
(0.657468 0.285994 1.68858e-19)
(0.677382 0.270328 4.90857e-19)
(0.0493167 0.114797 -5.36798e-20)
(0.130127 0.276823 -3.27183e-20)
(0.202886 0.381016 -1.64593e-19)
(0.264839 0.439356 1.00286e-19)
(0.317425 0.463667 2.74201e-19)
(0.362534 0.465063 -1.49289e-19)
(0.401972 0.452717 -2.40806e-19)
(0.4373 0.43328 2.36579e-19)
(0.469654 0.411017 -7.88405e-20)
(0.499769 0.38832 2.18643e-19)
(0.528078 0.366334 9.9596e-20)
(0.554825 0.345503 -5.81206e-20)
(0.580157 0.325933 -2.21184e-19)
(0.604173 0.307596 2.72951e-19)
(0.626954 0.290424 -6.80894e-20)
(0.648572 0.274338 -2.96237e-19)
(0.669062 0.259275 -1.01453e-19)
(0.0452183 0.110676 1.03921e-19)
(0.12033 0.266492 3.883e-20)
(0.189566 0.366326 -3.10103e-20)
(0.249613 0.421941 -8.74802e-20)
(0.301475 0.44486 -6.51865e-20)
(0.346649 0.445853 3.70701e-19)
(0.386623 0.433758 6.67022e-20)
(0.422726 0.414954 1.79074e-19)
(0.455947 0.393511 1.32572e-19)
(0.486936 0.371694 -3.61423e-19)
(0.516086 0.350585 -1.88811e-19)
(0.543625 0.330596 3.48824e-19)
(0.569695 0.311824 -1.16177e-20)
(0.594398 0.294239 -2.82023e-19)
(0.617818 0.277774 7.20503e-20)
(0.64003 0.262354 3.45509e-19)
(0.0412445 0.106293 1.1891e-19)
(0.110856 0.255583 -1.58692e-19)
(0.176713 0.350908 -7.10282e-20)
(0.234949 0.403753 -1.57634e-20)
(0.286139 0.425301 -2.08858e-19)
(0.331396 0.425939 -1.10226e-19)
(0.371898 0.414153 -4.60244e-20)
(0.408754 0.396039 -3.57913e-19)
(0.442812 0.375463 -2.70985e-19)
(0.474643 0.354571 3.58143e-19)
(0.5046 0.334377 1.97965e-19)
(0.532899 0.315265 -1.54292e-19)
(0.559678 0.297322 -1.77659e-19)
(0.58504 0.280518 1.91709e-19)
(0.609073 0.264786 -1.0798e-19)
(0.631855 0.250055 1.54914e-19)
(0.0374095 0.101659 1.43805e-19)
(0.101735 0.24412 -2.3607e-19)
(0.164364 0.33479 6.81421e-20)
(0.220885 0.384826 1.18953e-19)
(0.271453 0.405021 -9.87406e-22)
(0.316807 0.405352 -1.47594e-19)
(0.357827 0.393931 1.28757e-19)
(0.39541 0.376558 4.75674e-20)
(0.430272 0.356898 -1.40934e-19)
(0.46291 0.336972 9.37858e-20)
(0.493641 0.31773 -2.48098e-19)
(0.522666 0.299528 -5.50481e-20)
(0.550123 0.282443 2.24664e-19)
(0.576115 0.266446 7.95048e-20)
(0.600734 0.251473 1.24491e-19)
(0.624061 0.237456 -2.34365e-19)
(0.0337264 0.0967834 -1.44313e-19)
(0.0929965 0.232127 -5.9833e-20)
(0.152553 0.318005 1.18071e-19)
(0.207456 0.365193 -2.43383e-19)
(0.25745 0.384054 -1.17941e-19)
(0.302912 0.384124 2.55524e-19)
(0.344437 0.37312 4.03896e-19)
(0.38272 0.35654 1.14589e-19)
(0.418351 0.33784 1.55217e-19)
(0.451758 0.318919 -2.31296e-21)
(0.483226 0.300663 7.32416e-20)
(0.512943 0.283402 2.55318e-19)
(0.541044 0.267204 -3.73642e-20)
(0.567636 0.252041 -4.52621e-19)
(0.592813 0.23785 3.88064e-21)
(0.616659 0.224568 2.52598e-20)
(0.0302081 0.0916769 4.51798e-20)
(0.0846664 0.219628 -1.1865e-19)
(0.141313 0.300585 4.17111e-19)
(0.194697 0.344889 2.17441e-21)
(0.244163 0.362435 1.56023e-19)
(0.289741 0.362286 1.52374e-19)
(0.331753 0.35175 -1.50476e-19)
(0.370706 0.33601 1.77647e-20)
(0.40707 0.318313 -9.71277e-20)
(0.441207 0.300434 2.3989e-20)
(0.473373 0.283198 -2.87077e-21)
(0.503745 0.266907 -1.14291e-19)
(0.532458 0.251624 -5.11079e-20)
(0.559618 0.237319 3.00691e-19)
(0.585324 0.223934 -2.24202e-19)
(0.609661 0.211407 1.4949e-19)
(0.0268669 0.0863514 -9.69753e-20)
(0.076771 0.206649 -1.10307e-19)
(0.130677 0.282564 -6.07562e-20)
(0.182639 0.323951 1.42479e-19)
(0.231621 0.3402 -1.20792e-19)
(0.277321 0.339875 -2.11203e-19)
(0.319802 0.329853 -1.27318e-19)
(0.359391 0.314998 -2.45499e-19)
(0.396447 0.298344 1.99743e-19)
(0.431274 0.281542 -1.62759e-19)
(0.464098 0.265356 3.46419e-20)
(0.49509 0.250064 2.42012e-20)
(0.524378 0.235721 -1.04661e-19)
(0.552074 0.222298 1.21116e-19)
(0.578278 0.209739 1.8201e-19)
(0.0237141 0.0808192 2.10244e-19)
(0.0693344 0.19322 2.18096e-19)
(0.120674 0.263977 -1.64136e-19)
(0.171313 0.302418 -1.39289e-19)
(0.219854 0.317387 3.87627e-20)
(0.265679 0.316923 8.38482e-20)
(0.308606 0.307461 -2.90844e-19)
(0.348795 0.293534 4.716e-20)
(0.386503 0.27796 -1.94831e-19)
(0.421977 0.262268 1.64743e-19)
(0.455419 0.247161 3.91073e-20)
(0.486989 0.232894 -1.76811e-19)
(0.516818 0.219515 -3.98991e-20)
(0.545016 0.206995 9.41927e-20)
(0.571686 0.195284 4.42162e-20)
(0.0207607 0.0750931 -9.68749e-20)
(0.0623796 0.179367 2.55329e-20)
(0.11133 0.244861 3.06448e-19)
(0.160748 0.280327 1.70367e-19)
(0.208887 0.294033 1.13623e-19)
(0.254837 0.293468 2.13922e-19)
(0.298186 0.284607 2.95981e-20)
(0.338937 0.271646 2.04332e-20)
(0.377254 0.257187 -1.46821e-21)
(0.413331 0.242636 -2.10704e-19)
(0.447349 0.228636 1.09959e-19)
(0.479459 0.215418 -1.76239e-19)
(0.50979 0.203025 1.15645e-19)
(0.538455 0.19143 -1.84963e-19)
(0.565559 0.180584 -1.0827e-19)
(0.0180167 0.0691866 -2.07784e-20)
(0.0559278 0.165122 1.46957e-19)
(0.102673 0.225255 -1.73889e-19)
(0.150969 0.25772 -7.85762e-20)
(0.198746 0.270179 7.03974e-20)
(0.244819 0.269546 -1.57606e-19)
(0.288562 0.261324 1.19251e-19)
(0.329837 0.249366 1.68862e-20)
(0.368717 0.236055 9.94361e-20)
(0.405353 0.222673 -3.57569e-21)
(0.439902 0.209805 -9.66516e-20)
(0.47251 0.197659 9.50078e-20)
(0.503305 0.186273 -2.43331e-19)
(0.532402 0.175621 3.38114e-19)
(0.559908 0.165658 1.288e-19)
(0.0154915 0.0631135 -6.01381e-20)
(0.0499987 0.150515 -6.42933e-20)
(0.0947264 0.205196 -9.54001e-20)
(0.142001 0.234638 1.10411e-19)
(0.189454 0.245864 -6.01416e-20)
(0.235645 0.245195 -2.97005e-20)
(0.279754 0.237648 -5.97759e-20)
(0.32151 0.226727 -7.56848e-20)
(0.360908 0.214593 -2.09419e-19)
(0.398055 0.202406 9.10306e-20)
(0.433091 0.190692 -1.26245e-19)
(0.466156 0.179639 2.3105e-19)
(0.497375 0.169279 1.55364e-19)
(0.526867 0.159587 -2.7256e-19)
(0.55474 0.150524 -2.72862e-19)
(0.0131938 0.0568883 6.07007e-20)
(0.0446102 0.135577 -1.64544e-19)
(0.087511 0.184725 -1.13459e-20)
(0.133865 0.211124 -1.50926e-19)
(0.181031 0.22113 -1.68882e-19)
(0.227334 0.220453 2.46163e-19)
(0.271778 0.213613 3.39636e-20)
(0.313972 0.203759 1.21886e-19)
(0.35384 0.192829 1.27835e-19)
(0.39145 0.181861 -3.008e-20)
(0.426928 0.171323 1.77137e-19)
(0.460405 0.161381 -1.03914e-19)
(0.49201 0.152064 -1.34227e-19)
(0.52186 0.143349 2.12977e-19)
(0.550065 0.1352 2.41175e-19)
(0.0111313 0.0505258 -6.18543e-20)
(0.0397787 0.120342 1.44036e-19)
(0.0810471 0.163883 -1.55372e-19)
(0.126583 0.18722 9.99323e-20)
(0.173496 0.196019 9.35334e-20)
(0.219903 0.19536 -1.3298e-19)
(0.264649 0.189256 6.20423e-20)
(0.307237 0.180496 6.96572e-20)
(0.347525 0.170794 -2.18003e-19)
(0.38555 0.161066 1.06275e-19)
(0.421422 0.151723 1.19189e-20)
(0.455269 0.14291 1.00966e-19)
(0.487218 0.134652 -1.30099e-19)
(0.517387 0.126928 1.61977e-20)
(0.54589 0.119706 -1.0139e-20)
(0.00931112 0.0440412 -6.6119e-20)
(0.0355188 0.104842 8.85698e-20)
(0.0753522 0.142712 1.64477e-19)
(0.120171 0.16297 -2.05037e-20)
(0.166866 0.170574 1.1474e-19)
(0.213367 0.169956 -1.44089e-19)
(0.258381 0.164613 3.57102e-20)
(0.301316 0.156971 -1.25853e-19)
(0.341974 0.14852 3.48584e-22)
(0.380365 0.14005 -1.99734e-19)
(0.416584 0.131918 -1.44637e-19)
(0.450756 0.124249 7.72063e-20)
(0.483007 0.117064 2.02737e-20)
(0.513458 0.110343 -5.34762e-20)
(0.542222 0.10406 7.1263e-20)
(0.00773932 0.0374501 5.90625e-20)
(0.0318432 0.0891121 2.00445e-20)
(0.0704418 0.121253 4.98315e-20)
(0.114646 0.13842 -7.43649e-20)
(0.161155 0.144837 -3.39064e-20)
(0.20774 0.14428 -6.40959e-20)
(0.252986 0.139721 6.12659e-21)
(0.29622 0.133219 4.47708e-20)
(0.337198 0.126036 1.37958e-19)
(0.375903 0.118841 1.68191e-19)
(0.412421 0.111935 6.49835e-20)
(0.446873 0.105423 -1.55342e-20)
(0.479384 0.0993223 -3.34144e-20)
(0.510077 0.0936167 -8.3739e-20)
(0.539066 0.0882825 1.00803e-20)
(0.00642124 0.0307684 1.21646e-20)
(0.0287632 0.0731858 -8.44237e-20)
(0.0663291 0.0995512 -1.16628e-19)
(0.11002 0.113614 -4.10611e-21)
(0.156376 0.118854 -8.74117e-21)
(0.203033 0.118375 4.28483e-20)
(0.248474 0.114618 -1.33397e-19)
(0.291959 0.109274 -5.19953e-20)
(0.333205 0.103374 -8.82834e-20)
(0.372173 0.0974679 3.51706e-21)
(0.408941 0.0918005 2.91517e-20)
(0.443627 0.086457 6.48594e-20)
(0.476356 0.0814509 -1.27507e-20)
(0.507252 0.0767695 5.62524e-20)
(0.536429 0.072393 -2.73979e-20)
(0.00536135 0.0240122 -5.24644e-20)
(0.0262878 0.0570984 3.17481e-20)
(0.0630254 0.0776487 -3.19996e-20)
(0.106306 0.0885977 4.00038e-20)
(0.15254 0.0926668 3.1002e-20)
(0.199256 0.0922798 8.79967e-21)
(0.244854 0.0893415 1.02947e-19)
(0.288541 0.0851692 -2.76471e-20)
(0.330002 0.0805668 2.44991e-20)
(0.369181 0.0759607 2.89922e-20)
(0.40615 0.0715418 2.00106e-20)
(0.441023 0.0673757 -5.41497e-20)
(0.473927 0.0634729 7.09134e-20)
(0.504985 0.0598233 5.31565e-20)
(0.534313 0.0564115 -2.07935e-20)
(0.00456321 0.0171978 1.60941e-20)
(0.0244246 0.0408854 3.97476e-20)
(0.0605395 0.05559 -8.97746e-21)
(0.103512 0.0634182 -6.32954e-20)
(0.149656 0.0663218 3.24577e-20)
(0.196415 0.0660377 9.48398e-20)
(0.242132 0.06393 -7.57765e-20)
(0.285972 0.0609411 -4.36237e-21)
(0.327594 0.0576458 1.92919e-20)
(0.366933 0.0543488 4.28118e-20)
(0.404052 0.0511861 3.97722e-21)
(0.439066 0.0482047 -1.35906e-20)
(0.472102 0.0454117 -2.19716e-20)
(0.503282 0.0427999 -2.31266e-20)
(0.00402952 0.0103417 7.25283e-21)
(0.0231791 0.0245824 -2.07411e-20)
(0.0588782 0.0334195 8.55776e-21)
(0.101646 0.0381216 2.68236e-20)
(0.147729 0.0398636 -1.55667e-20)
(0.194518 0.0396902 -4.85907e-20)
(0.240315 0.0384217 2.33861e-20)
(0.284256 0.0366244 -5.34564e-22)
(0.325986 0.0346435 -6.67122e-20)
(0.365431 0.0326619 4.02558e-20)
(0.402651 0.0307612 -2.70017e-20)
(0.437759 0.0289694 2.13126e-20)
(0.470882 0.0272908 -1.74235e-20)
(0.502144 0.0257212 9.1242e-21)
(0.00376206 0.00346062 -3.25808e-22)