/*--------------------------------*- C++ -*----------------------------------*\
  =========                 |
  \\      /  F ield         | OpenFOAM: The Open Source CFD Toolbox
   \\    /   O peration     | Website:  https://openfoam.org
    \\  /    A nd           | Version:  7
     \\/     M anipulation  |
\*---------------------------------------------------------------------------*/
FoamFile
{
    version     2.0;
    format      ascii;
    class       volScalarField;
    location    "280";
    object      p;
}
// * * * * * * * * * * * * * * * * * * * * * * * * * * * * * * * * * * * * * //

dimensions      [0 2 -2 0 0 0 0];

internalField   nonuniform List<scalar> 
4575
(
0.201024
0.211727
0.222203
0.237562
0.232442
0.248145
0.242435
0.258466
0.252171
0.268515
0.261641
0.286768
0.278279
0.270835
0.296772
0.287745
0.279742
0.30645
0.296903
0.288353
0.31579
0.30574
0.296656
0.33492
0.324778
0.314246
0.304644
0.344079
0.333405
0.32241
0.312305
0.35284
0.341657
0.33022
0.319632
0.361192
0.349525
0.337668
0.326616
0.369122
0.356998
0.344742
0.333247
0.389197
0.376622
0.364066
0.351435
0.339519
0.39669
0.38368
0.370719
0.357736
0.345424
0.403703
0.390288
0.37695
0.363639
0.350955
0.410227
0.396435
0.382749
0.369136
0.356104
0.416251
0.402116
0.38811
0.374218
0.360868
0.421769
0.407321
0.393025
0.378881
0.365239
0.426774
0.412045
0.397488
0.383118
0.369213
0.431258
0.416281
0.401494
0.386924
0.372785
0.435216
0.420024
0.405038
0.390295
0.375952
0.438644
0.42327
0.408115
0.393225
0.378711
0.441537
0.426015
0.410722
0.395714
0.381058
0.459702
0.443893
0.428256
0.412857
0.397757
0.382991
0.461602
0.445708
0.429991
0.414518
0.399353
0.384509
0.462925
0.446982
0.431218
0.415702
0.4005
0.385612
0.463669
0.447714
0.431938
0.41641
0.401199
0.386297
0.463835
0.447904
0.43215
0.416642
0.401449
0.386566
0.463425
0.447554
0.431856
0.416399
0.401251
0.386419
0.446664
0.431056
0.415682
0.400607
0.385858
0.445239
0.429755
0.414495
0.399519
0.384885
0.443282
0.427954
0.412839
0.39799
0.383501
0.440797
0.425659
0.410719
0.396023
0.381711
0.43779
0.422874
0.408139
0.393624
0.379517
0.434267
0.419605
0.405105
0.390795
0.376925
0.430234
0.415859
0.401623
0.387544
0.373937
0.4257
0.411642
0.397699
0.383877
0.370561
0.420673
0.406962
0.393341
0.379799
0.366802
0.415163
0.401828
0.388556
0.375319
0.362665
0.409178
0.396249
0.383353
0.370444
0.358159
0.390235
0.377742
0.365184
0.353289
0.383796
0.371731
0.359546
0.348064
0.376944
0.365331
0.353541
0.342493
0.36969
0.358553
0.347178
0.336583
0.362045
0.351408
0.340468
0.330344
0.343907
0.333422
0.323785
0.336064
0.326051
0.316916
0.32789
0.318367
0.309746
0.319398
0.310381
0.302287
0.302105
0.294548
0.293553
0.28654
0.284735
0.278274
0.269759
0.261008
0.252029
0.107189
0.10816
0.110001
0.112602
0.115845
0.11968
0.123987
0.128724
0.133738
0.138963
0.144179
0.149272
0.15391
0.157919
0.160794
0.162324
0.161738
0.158894
0.152572
0.14303
0.128039
0.106013
0.106931
0.108661
0.1111
0.114123
0.117671
0.121619
0.125909
0.130378
0.134943
0.139372
0.143534
0.147087
0.149848
0.151318
0.151292
0.149045
0.144464
0.136478
0.125331
0.109391
0.104763
0.105624
0.107237
0.109504
0.112292
0.115539
0.119111
0.122938
0.126849
0.130747
0.134391
0.137641
0.140152
0.141746
0.141938
0.140554
0.136928
0.131004
0.121898
0.109891
0.0939587
0.103436
0.104235
0.105726
0.107811
0.110357
0.113292
0.116476
0.119831
0.123176
0.126404
0.12927
0.131626
0.133134
0.133619
0.132632
0.130014
0.125203
0.118154
0.108228
0.0956507
0.0798917
0.102032
0.102767
0.10413
0.106028
0.108324
0.110939
0.113731
0.116608
0.119389
0.121955
0.124061
0.125555
0.126117
0.125572
0.123525
0.119825
0.114028
0.106084
0.0955839
0.0826745
0.0671299
0.10055
0.101218
0.10245
0.104156
0.106197
0.108488
0.110884
0.113284
0.115507
0.117424
0.1188
0.119476
0.11916
0.117681
0.114703
0.110084
0.103497
0.0948904
0.0840339
0.0710226
0.0558214
0.0989909
0.0995905
0.100689
0.102198
0.10398
0.105944
0.107944
0.109871
0.111547
0.112836
0.113516
0.113427
0.112308
0.109994
0.106215
0.100839
0.093643
0.0845806
0.0735553
0.0606425
0.045933
0.0973557
0.097885
0.098848
0.100158
0.101679
0.103315
0.104921
0.106383
0.107528
0.108216
0.10824
0.107444
0.1056
0.102555
0.0980994
0.0921173
0.0844741
0.0751352
0.0641007
0.0514433
0.0373312
0.0956453
0.0961031
0.0969291
0.0980377
0.0992978
0.100608
0.101827
0.102836
0.10347
0.103588
0.103002
0.10156
0.0990735
0.0953998
0.0903872
0.0839396
0.0759925
0.0665292
0.0556168
0.0433298
0.0298791
0.0938614
0.0942469
0.0949353
0.095843
0.0968437
0.0978328
0.0986737
0.0992455
0.0993925
0.0989758
0.097829
0.095808
0.0927591
0.0885578
0.083101
0.0763156
0.0681912
0.0587303
0.0480447
0.0362105
0.023459
0.0920059
0.0923189
0.0928702
0.0935784
0.0943232
0.0949982
0.0954732
0.0956266
0.0953149
0.0944034
0.0927472
0.0902142
0.0866838
0.0820512
0.0762552
0.0692458
0.0610538
0.0516994
0.0413223
0.0299986
0.0179665
0.0900817
0.0903224
0.0907378
0.0912494
0.0917437
0.0921142
0.0922379
0.0919954
0.0912558
0.0898918
0.0877798
0.0848023
0.0808688
0.0758959
0.0698564
0.0627232
0.0545569
0.0453927
0.035386
0.0246112
0.0133041
0.0880916
0.088261
0.0885428
0.088862
0.0891131
0.0891908
0.0889806
0.0883671
0.0872331
0.0854609
0.0829475
0.0795919
0.0753304
0.0701011
0.0639047
0.0567345
0.0486718
0.0397638
0.0301726
0.0199693
0.00938069
0.0860394
0.0861387
0.0862901
0.0864228
0.0864396
0.0862384
0.0857139
0.0847568
0.0832637
0.0811285
0.0782679
0.0745986
0.0700801
0.0646712
0.0583946
0.0512613
0.0433663
0.0347651
0.0256201
0.0159979
0.00611199
0.083929
0.0839603
0.0839852
0.0839386
0.0837318
0.0832675
0.0824502
0.0811785
0.0793628
0.0769104
0.0737561
0.0698343
0.0651249
0.0596055
0.0533159
0.0462815
0.0386056
0.0303485
0.0216688
0.012627
0.0034213
0.0817651
0.0817307
0.0816343
0.0814167
0.0809984
0.0802885
0.0792015
0.0776456
0.0755448
0.0728203
0.069424
0.0653075
0.0604678
0.0548993
0.0486546
0.0417703
0.0343534
0.0264667
0.0182614
0.00979168
0.001239
0.0795527
0.0794556
0.0792436
0.0788645
0.0782483
0.0773117
0.0759795
0.0741704
0.071822
0.0688698
0.0652809
0.0610232
0.0561082
0.0505445
0.0443937
0.0377008
0.0305731
0.0230736
0.0153441
0.00743206
-0.000497908
0.0772972
0.0771409
0.0768198
0.0762898
0.0754904
0.074347
0.0727949
0.0707643
0.0682055
0.0650681
0.0613333
0.0569836
0.0520424
0.0465299
0.040514
0.034045
0.0272282
0.0201248
0.0128662
0.00549317
-0.00184627
0.0750044
0.0747927
0.0743699
0.0737005
0.0727336
0.0714042
0.0696582
0.0674374
0.0647044
0.0614225
0.0575852
0.0531881
0.048264
0.0428424
0.0369947
0.0307744
0.0242827
0.017578
0.0107806
0.00392483
-0.00285723
0.0726807
0.0724176
0.0719011
0.0711044
0.0699865
0.0684925
0.0665786
0.0641985
0.0613265
0.0579383
0.0540385
0.0496339
0.0447645
0.039467
0.0338139
0.0278604
0.021702
0.0153934
0.00904382
0.00268131
-0.00357673
0.0703324
0.0700225
0.0694207
0.0685095
0.0672576
0.0656205
0.0635647
0.0610554
0.0580777
0.0546189
0.050693
0.046316
0.0415336
0.0363873
0.0309494
0.0252747
0.0194526
0.0135335
0.00761551
0.00172116
-0.00404592
0.0679663
0.0676143
0.0669361
0.0659235
0.064555
0.0627963
0.0606241
0.0580145
0.0549625
0.0514658
0.0475463
0.0432277
0.0385594
0.0335861
0.0283784
0.0229898
0.0175029
0.0119633
0.00645885
0.00100684
-0.00430156
0.0655894
0.0652002
0.0644548
0.0633542
0.0618864
0.0600274
0.0577635
0.055081
0.0519839
0.0484792
0.044595
0.0403612
0.0358293
0.0310459
0.0260788
0.0209793
0.0158228
0.0106505
0.00554013
0.000504543
-0.00437647
0.0632087
0.0627873
0.061984
0.0608089
0.059259
0.0573205
0.0549885
0.052259
0.0491437
0.0456576
0.041834
0.0377072
0.0333298
0.0287487
0.0240286
0.0192176
0.0143842
0.00956513
0.00482867
0.000183819
-0.00429984
0.0608314
0.0603828
0.059531
0.0582947
0.0566797
0.0546816
0.0523039
0.0495512
0.0464423
0.0429985
0.0392572
0.0352558
0.0310469
0.0266769
0.0222066
0.0176807
0.0131611
0.00867972
0.00429664
1.73904e-05
-0.00409757
0.0584647
0.0579938
0.0571028
0.0558184
0.0541547
0.052116
0.0497136
0.0469597
0.043879
0.0404983
0.0368576
0.0329964
0.0289665
0.024813
0.0205924
0.016346
0.0121289
0.00796915
0.00391891
-1.91297e-05
-0.00379261
0.0561155
0.0556272
0.0547063
0.0533864
0.0516895
0.0496282
0.0472205
0.0444854
0.0414523
0.0381524
0.0346274
0.0309181
0.0270745
0.02314
0.0191667
0.0151921
0.0112654
0.00741054
0.00367284
5.25373e-05
-0.00340515
0.0537908
0.0532899
0.0523478
0.0510047
0.0492894
0.047222
0.0448267
0.0421281
0.0391597
0.0359555
0.0325586
0.0290098
0.0253572
0.0216417
0.0179111
0.0141994
0.01055
0.00698316
0.00353812
0.000213115
-0.00295297
0.0514973
0.0509884
0.0500335
0.0486786
0.0469588
0.0449007
0.0425337
0.0398873
0.0369979
0.033902
0.0306427
0.0272604
0.0238008
0.0203024
0.0168085
0.0133496
0.0099638
0.00666826
0.00349664
0.000445567
-0.00245159
0.0492414
0.0487288
0.0477691
0.0464132
0.0447016
0.0426666
0.0403421
0.0377615
0.0349634
0.0319856
0.0288709
0.0256589
0.0223924
0.0191073
0.0158427
0.0126257
0.00948978
0.00644902
0.00353226
0.000734905
-0.00191453
0.0470294
0.046517
0.0455599
0.0442129
0.042521
0.0405215
0.038252
0.0357487
0.0330517
0.0301998
0.0272347
0.0241945
0.0211195
0.0180425
0.0149989
0.0120126
0.00911248
0.00631036
0.00363071
0.001068
-0.00135348
0.0448669
0.0443586
0.0434108
0.0420816
0.0404198
0.0384667
0.0362627
0.0338464
0.0312585
0.028538
0.0257253
0.022857
0.0199702
0.0170951
0.0142634
0.011496
0.00881799
0.00623889
0.00377943
0.00143344
-0.000778479
0.0427593
0.0422584
0.0413261
0.0400227
0.0384002
0.0365028
0.0343733
0.0320516
0.0295789
0.0269935
0.0243344
0.0216362
0.0189332
0.016253
0.0136236
0.0110633
0.00859383
0.00622271
0.00396742
0.00182134
-0.000198102
0.0407115
0.040221
0.0393097
0.0380392
0.0364637
0.03463
0.0325822
0.0303612
0.0280078
0.0255596
0.0230538
0.0205228
0.0179982
0.015505
0.013068
0.0107031
0.00842892
0.00625137
0.00418508
0.00222321
0.000380419
0.038728
0.0382505
0.0373648
0.0361333
0.0346115
0.0328479
0.0308876
0.0287717
0.0265402
0.0242298
0.0218755
0.0195078
0.0171554
0.0148409
0.0125862
0.0104051
0.00831339
0.00631568
0.00442413
0.00263183
0.000951039
0.0368126
0.0363504
0.0354944
0.0343069
0.0328443
0.031156
0.0292874
0.0272794
0.0251711
0.0229976
0.0207921
0.0185827
0.0163958
0.0142514
0.0121689
0.0101601
0.00823859
0.00640768
0.00467747
0.00304109
0.00150877
0.0349689
0.0345238
0.0337008
0.0325614
0.0311623
0.029553
0.027779
0.0258805
0.0238954
0.021857
0.0197965
0.0177399
0.015711
0.0137279
0.0118076
0.00996009
0.00819691
0.00652046
0.00493903
0.00344591
0.00204957
0.0331996
0.0327732
0.0319857
0.0308977
0.0295652
0.0280378
0.02636
0.0245714
0.0227081
0.020802
0.018882
0.016972
0.0150936
0.0132629
0.0114948
0.00979787
0.00818176
0.00664813
0.00520373
0.0038421
0.00257022
0.0315071
0.0311006
0.0303506
0.0293163
0.0280527
0.0266085
0.0250276
0.023348
0.0216045
0.019827
0.0180422
0.0162723
0.0145366
0.0128495
0.0112239
0.0096672
0.00818743
0.00678565
0.00546732
0.00422629
0.00306824
0.0298933
0.0295075
0.0287963
0.0278172
0.0266237
0.0252634
0.0237788
0.0222067
0.02058
0.0189266
0.0172715
0.0156348
0.0140339
0.0124816
0.010989
0.00956262
0.00820903
0.0069288
0.00572632
0.00459579
0.00354179
0.0283597
0.0279949
0.0273235
0.0264003
0.0252772
0.0240004
0.0226108
0.0211437
0.01963
0.018096
0.0165645
0.0150539
0.0135798
0.0121536
0.0107851
0.00947946
0.00824241
0.00707408
0.00597793
0.00494854
0.00398957
0.026907
0.0265636
0.025932
0.0250649
0.0240118
0.0228173
0.0215207
0.0201553
0.0187504
0.0173303
0.0159161
0.0145245
0.0131694
0.0118609
0.0106075
0.00941368
0.00828409
0.0072186
0.00621992
0.00528302
0.00441078
0.0255357
0.0252136
0.0246218
0.0238101
0.022826
0.021712
0.0205054
0.0192381
0.0179372
0.0166254
0.015322
0.0140421
0.0127982
0.0115992
0.0104525
0.00936187
0.00833116
0.00736005
0.00645059
0.00559817
0.00480501
0.024246
0.0239449
0.0233921
0.0226348
0.0217179
0.0206819
0.0195622
0.0183886
0.0171867
0.0159772
0.014778
0.0136026
0.0124622
0.0113648
0.0103167
0.00932115
0.00838127
0.00749659
0.00666869
0.00589332
0.00517218
0.0230374
0.0227569
0.0222422
0.0215377
0.0206859
0.0197249
0.0186881
0.0176037
0.0164953
0.0153821
0.0142804
0.0132023
0.0121581
0.0111546
0.0101974
0.00928913
0.00843248
0.00762684
0.00687334
0.00616816
0.00551252
0.0219096
0.0216488
0.0211709
0.0205173
0.0197278
0.0188384
0.0178805
0.0168803
0.0158598
0.0148368
0.0138258
0.0128382
0.0118828
0.0109658
0.0100921
0.00926385
0.00848328
0.00774973
0.007064
0.00642264
0.00582647
0.0208615
0.0206198
0.020177
0.0195719
0.0188417
0.0180202
0.0171366
0.0162155
0.0152772
0.0143381
0.0134113
0.0125072
0.0116337
0.0107961
0.00999883
0.00924371
0.0085325
0.00786456
0.00724039
0.00665691
0.00611465
0.0198921
0.0196685
0.019259
0.0186999
0.0180257
0.017268
0.016454
0.0156067
0.0147448
0.0138833
0.0130343
0.012207
0.0114084
0.0106436
0.00991602
0.00922745
0.00857926
0.00797083
0.00740244
0.00687135
0.00637781
0.0190003
0.0187937
0.0184155
0.0178995
0.0172777
0.0165795
0.0158304
0.0150515
0.0142601
0.01347
0.0126923
0.0119353
0.0112052
0.0105065
0.00984229
0.00921407
0.00862294
0.00806831
0.00755028
0.00706642
0.00661679
0.0181847
0.0179939
0.017645
0.0171691
0.0165959
0.0159529
0.0152635
0.0145475
0.0138208
0.0130961
0.0123834
0.0116902
0.0110223
0.0103835
0.00977659
0.00920282
0.00866312
0.0081569
0.00768415
0.00724272
0.0068325
0.0174441
0.017268
0.016946
0.016507
0.0159786
0.0153861
0.0147514
0.0140927
0.0134249
0.0127596
0.0121057
0.0114703
0.0108584
0.0102735
0.00971807
0.00919316
0.00869953
0.00823665
0.0078044
0.00740088
0.00702585
0.0167772
0.0166145
0.0163171
0.0159117
0.015424
0.0148774
0.0142923
0.0136856
0.0130708
0.0124588
0.0118578
0.0112742
0.0107124
0.0101756
0.00966608
0.00918469
0.00873206
0.00830771
0.00791142
0.00754156
0.00719776
0.016183
0.0160324
0.0157571
0.015382
0.0149309
0.0144255
0.0138848
0.0133244
0.012757
0.0121925
0.0116385
0.0111007
0.0105833
0.0100892
0.00962016
0.00917717
0.00876069
0.00837027
0.00800565
0.0076654
0.00734906
0.0156607
0.0155207
0.0152651
0.0149169
0.0144982
0.0140292
0.0135277
0.0130081
0.0124824
0.0119596
0.0114468
0.0109492
0.0104706
0.0100136
0.00957998
0.00917047
0.00878547
0.00842459
0.00808752
0.00777302
0.00748055
0.0152096
0.015079
0.0148405
0.0145156
0.0141251
0.0136877
0.0132201
0.0127359
0.0122461
0.0117593
0.011282
0.0108189
0.0103737
0.00994865
0.00954535
0.00916453
0.00880649
0.0084709
0.00815741
0.00786492
0.00759287
0.0148298
0.0147071
0.014483
0.014178
0.0138112
0.0134006
0.0129617
0.0125073
0.0120478
0.0115912
0.0111436
0.0107096
0.0102924
0.00989406
0.00951618
0.00915936
0.00882388
0.00850943
0.00821564
0.00794156
0.00768656
0.0145216
0.0144053
0.0141931
0.0139042
0.0135569
0.013168
0.0127523
0.0123221
0.0118872
0.0114551
0.0110317
0.0106212
0.0102265
0.00984984
0.00949247
0.00915503
0.00883775
0.00854035
0.00826244
0.00800318
0.00776192
0.0142863
0.014175
0.0139718
0.0136953
0.0133628
0.0129906
0.0125927
0.012181
0.0117648
0.0113514
0.0109464
0.0105537
0.0101763
0.00981609
0.00947433
0.00915162
0.00884817
0.00856372
0.00829789
0.0080499
0.0078191
0.0141258
0.0140179
0.013821
0.0135529
0.0132307
0.0128698
0.0124841
0.0120849
0.0116815
0.0112809
0.0108883
0.0105078
0.0101421
0.00979309
0.00946193
0.00914924
0.00885518
0.00857953
0.00832189
0.00808154
0.00785781
0.0140434
0.0139371
0.0137434
0.0134798
0.0131628
0.0128079
0.0124284
0.0120357
0.0116388
0.0112447
0.0108586
0.0104843
0.0101246
0.00978128
0.00945556
0.009148
0.00885876
0.00858763
0.00833419
0.00809776
0.00787766
0.117001
0.118163
0.120434
0.123672
0.12779
0.132806
0.138628
0.145359
0.152884
0.161363
0.170672
0.181022
0.192237
0.204608
0.217899
0.232462
0.247992
0.264883
0.282734
0.302055
0.322181
0.343927
0.366016
0.116892
0.118051
0.120318
0.123549
0.127658
0.132663
0.138472
0.145187
0.152694
0.161153
0.170437
0.180761
0.191947
0.204284
0.217537
0.232053
0.247529
0.264362
0.282143
0.301388
0.32142
0.343065
0.365026
0.116777
0.117933
0.120194
0.123418
0.127517
0.132511
0.138306
0.145003
0.15249
0.160926
0.170182
0.180474
0.191624
0.203918
0.217121
0.231577
0.246982
0.263734
0.281415
0.300547
0.320439
0.341928
0.363689
0.116654
0.117807
0.120063
0.123279
0.127368
0.132348
0.138128
0.144807
0.152271
0.160682
0.169907
0.180162
0.191269
0.203511
0.216652
0.231036
0.246351
0.263
0.280551
0.299536
0.31924
0.340519
0.362006
0.116525
0.117673
0.119924
0.123131
0.12721
0.132177
0.13794
0.144598
0.152039
0.160421
0.16961
0.179824
0.190881
0.203064
0.216132
0.230429
0.245636
0.26216
0.279552
0.298352
0.317823
0.338837
0.359978
0.116388
0.117533
0.119777
0.122976
0.127043
0.131996
0.137742
0.144378
0.151792
0.160142
0.169293
0.179461
0.190461
0.202576
0.21556
0.229757
0.244837
0.261213
0.278416
0.296998
0.316188
0.336884
0.357606
0.116244
0.117386
0.119622
0.122813
0.126868
0.131806
0.137533
0.144145
0.151531
0.159847
0.168955
0.179072
0.190009
0.202048
0.214937
0.22902
0.243955
0.26016
0.277145
0.295474
0.314336
0.33466
0.354892
0.116094
0.117231
0.119461
0.122642
0.126685
0.131606
0.137313
0.143901
0.151256
0.159535
0.168597
0.178657
0.189525
0.20148
0.214262
0.228218
0.242989
0.259002
0.27574
0.293779
0.312269
0.332168
0.351839
0.115937
0.11707
0.119291
0.122464
0.126493
0.131397
0.137084
0.143644
0.150967
0.159206
0.168218
0.178218
0.18901
0.200872
0.213536
0.227351
0.24194
0.257739
0.2742
0.291916
0.309988
0.329409
0.348448
0.115772
0.116901
0.119115
0.122277
0.126293
0.131179
0.136844
0.143376
0.150665
0.15886
0.167819
0.177753
0.188462
0.200223
0.212759
0.226419
0.240809
0.256372
0.272526
0.289885
0.307493
0.326384
0.344724
0.115601
0.116726
0.118932
0.122083
0.126085
0.130952
0.136594
0.143096
0.150348
0.158497
0.1674
0.177262
0.187883
0.199535
0.211931
0.225423
0.239595
0.254901
0.27072
0.287687
0.304787
0.323097
0.340669
0.115424
0.116543
0.118742
0.121882
0.125868
0.130716
0.136333
0.142804
0.150018
0.158118
0.166961
0.176747
0.187273
0.198808
0.211053
0.224364
0.2383
0.253326
0.268782
0.285324
0.301871
0.31955
0.336288
0.115239
0.116354
0.118545
0.121672
0.125644
0.130472
0.136063
0.142501
0.149674
0.157723
0.166502
0.176207
0.186631
0.19804
0.210125
0.22324
0.236924
0.251648
0.266713
0.282796
0.298748
0.315746
0.331584
0.115048
0.116158
0.118341
0.121456
0.125411
0.130218
0.135783
0.142186
0.149317
0.157312
0.166023
0.175643
0.185959
0.197234
0.209147
0.222054
0.235466
0.249868
0.264513
0.280105
0.295418
0.311687
0.326562
0.11485
0.115955
0.11813
0.121231
0.125171
0.129956
0.135493
0.141861
0.148947
0.156884
0.165524
0.175054
0.185256
0.196389
0.20812
0.220805
0.233928
0.247987
0.262185
0.277253
0.291885
0.307378
0.321227
0.114645
0.115746
0.117912
0.121
0.124923
0.129685
0.135194
0.141524
0.148564
0.156441
0.165006
0.17444
0.184522
0.195506
0.207043
0.219493
0.232311
0.246006
0.259728
0.274241
0.288151
0.30282
0.315585
0.114434
0.11553
0.117688
0.120761
0.124667
0.129406
0.134885
0.141176
0.148168
0.155982
0.164469
0.173803
0.183759
0.194584
0.205918
0.218119
0.230614
0.243924
0.257144
0.271071
0.284217
0.298019
0.30964
0.114217
0.115307
0.117456
0.120516
0.124403
0.129118
0.134567
0.140817
0.147758
0.155507
0.163912
0.173142
0.182966
0.193623
0.204745
0.216684
0.22884
0.241744
0.254435
0.267745
0.280088
0.292979
0.303399
0.113993
0.115079
0.117218
0.120263
0.124132
0.128822
0.134239
0.140447
0.147337
0.155017
0.163337
0.172457
0.182143
0.192626
0.203524
0.215188
0.226987
0.239465
0.251601
0.264264
0.275765
0.287702
0.296869
0.113762
0.114843
0.116974
0.120004
0.123854
0.128518
0.133902
0.140067
0.146902
0.154512
0.162744
0.171749
0.18129
0.191591
0.202255
0.213631
0.225058
0.23709
0.248644
0.260631
0.271252
0.282194
0.290055
0.113526
0.114602
0.116722
0.119738
0.123569
0.128206
0.133556
0.139677
0.146456
0.153992
0.162132
0.171018
0.180409
0.190518
0.20094
0.212014
0.223052
0.234618
0.245566
0.256848
0.26655
0.276459
0.282965
0.113283
0.114354
0.116465
0.119465
0.123276
0.127886
0.133202
0.139276
0.145997
0.153458
0.161502
0.170265
0.179499
0.189409
0.199578
0.210338
0.220971
0.232051
0.242367
0.252917
0.261664
0.270502
0.275605
0.113034
0.1141
0.116201
0.119186
0.122977
0.127559
0.132838
0.138865
0.145526
0.152909
0.160854
0.169488
0.178561
0.188264
0.19817
0.208602
0.218815
0.22939
0.239049
0.24884
0.256597
0.264327
0.267983
0.112779
0.113841
0.115931
0.118901
0.12267
0.127224
0.132466
0.138445
0.145044
0.152345
0.160188
0.16869
0.177595
0.187083
0.196716
0.206808
0.216586
0.226636
0.235615
0.244619
0.251351
0.257941
0.260107
0.112517
0.113575
0.115654
0.118609
0.122357
0.126881
0.132086
0.138014
0.14455
0.151768
0.159505
0.167869
0.176601
0.185866
0.195218
0.204956
0.214284
0.223789
0.232064
0.240256
0.24593
0.251347
0.251984
0.11225
0.113303
0.115371
0.118311
0.122037
0.126531
0.131698
0.137574
0.144044
0.151176
0.158805
0.167027
0.17558
0.184614
0.193675
0.203046
0.211909
0.22085
0.2284
0.235755
0.240337
0.244552
0.243621
0.111977
0.113026
0.115084
0.118007
0.121711
0.126174
0.131301
0.137125
0.143528
0.150571
0.158088
0.166164
0.174532
0.183327
0.192088
0.20108
0.209464
0.217822
0.224624
0.231117
0.234575
0.23756
0.235027
0.111698
0.112743
0.114792
0.117697
0.121378
0.12581
0.130897
0.136666
0.143001
0.149953
0.157354
0.165279
0.173457
0.182006
0.190458
0.199057
0.206948
0.214703
0.220737
0.226343
0.228647
0.230379
0.226209
0.111413
0.112455
0.114491
0.117381
0.121039
0.12544
0.130484
0.136199
0.142462
0.149321
0.156604
0.164374
0.172355
0.180651
0.188785
0.196979
0.204364
0.211496
0.216743
0.221438
0.222558
0.223012
0.217173
0.111123
0.112161
0.114185
0.11706
0.120694
0.125062
0.130065
0.135723
0.141914
0.148677
0.155838
0.163448
0.171228
0.179262
0.187069
0.194845
0.201711
0.208202
0.212641
0.216402
0.216309
0.215467
0.207927
0.110827
0.111861
0.113874
0.116732
0.120343
0.124678
0.129638
0.135238
0.141355
0.14802
0.155056
0.162502
0.170075
0.177841
0.185311
0.192657
0.19899
0.20482
0.208435
0.211237
0.209906
0.207749
0.198476
0.110526
0.111556
0.113558
0.1164
0.119986
0.124288
0.129203
0.134745
0.140786
0.147351
0.154258
0.161537
0.168897
0.176386
0.183511
0.190415
0.196202
0.201353
0.204127
0.205946
0.203351
0.199864
0.188827
0.110219
0.111246
0.113237
0.116062
0.119623
0.123891
0.128762
0.134243
0.140207
0.146669
0.153446
0.160552
0.167694
0.174899
0.18167
0.18812
0.193349
0.197801
0.199718
0.200529
0.196649
0.191818
0.178981
0.109907
0.110932
0.112911
0.115719
0.119255
0.123489
0.128314
0.133734
0.139619
0.145976
0.152618
0.159548
0.166467
0.173381
0.179789
0.185773
0.190431
0.194165
0.195211
0.194988
0.189804
0.183615
0.168941
0.10959
0.110611
0.11258
0.11537
0.118881
0.12308
0.127859
0.133217
0.139021
0.145271
0.151776
0.158525
0.165214
0.171831
0.177867
0.183372
0.187447
0.190444
0.190606
0.189322
0.182818
0.175257
0.109267
0.110286
0.112243
0.115017
0.118502
0.122665
0.127397
0.132691
0.138412
0.144553
0.150916
0.15748
0.163934
0.170245
0.1759
0.180916
0.184394
0.186638
0.185903
0.183532
0.175697
0.166746
0.108939
0.109956
0.111903
0.114658
0.118118
0.122245
0.126928
0.132157
0.137794
0.143823
0.150042
0.156417
0.16263
0.168629
0.173894
0.178409
0.181281
0.182755
0.181115
0.177632
0.168464
0.158104
0.108607
0.109622
0.111559
0.114299
0.117734
0.121826
0.126463
0.13163
0.137184
0.143103
0.149179
0.155365
0.161337
0.16702
0.171889
0.175896
0.178148
0.178834
0.176271
0.171642
0.16113
0.149339
0.10827
0.109285
0.111213
0.113939
0.117352
0.121413
0.126007
0.131114
0.13659
0.142402
0.148337
0.154334
0.160061
0.165421
0.169881
0.173356
0.174958
0.174813
0.171278
0.165428
0.153514
0.140209
0.107926
0.108936
0.110848
0.113549
0.116928
0.120941
0.125472
0.130496
0.135864
0.141535
0.147291
0.153055
0.158488
0.163471
0.167469
0.170356
0.171262
0.17024
0.165729
0.158621
0.145399
0.115661
0.116837
0.119082
0.122278
0.126281
0.131076
0.136537
0.142642
0.149248
0.156325
0.16366
0.171184
0.178571
0.185705
0.192072
0.197542
0.201288
0.203322
0.202207
0.198685
0.189603
0.115821
0.117
0.119254
0.122464
0.126487
0.131311
0.136812
0.142973
0.149655
0.156837
0.164309
0.172019
0.179645
0.187096
0.19386
0.199842
0.204205
0.207026
0.206797
0.204417
0.196529
0.187208
0.115975
0.117152
0.119407
0.12262
0.126648
0.131483
0.137002
0.143193
0.149919
0.157168
0.164737
0.172586
0.180402
0.188113
0.195219
0.201655
0.206587
0.210143
0.210788
0.209509
0.2029
0.194947
0.116123
0.117298
0.119556
0.122776
0.126811
0.131662
0.137203
0.143429
0.150206
0.157529
0.165199
0.173191
0.181197
0.189166
0.196603
0.203477
0.208952
0.213208
0.214683
0.214438
0.209057
0.202404
0.116265
0.11744
0.119704
0.12293
0.126974
0.131842
0.137409
0.143672
0.150502
0.1579
0.165675
0.17381
0.182006
0.19023
0.197995
0.205299
0.211306
0.216244
0.218534
0.219293
0.215126
0.209756
0.116401
0.117577
0.119848
0.123077
0.12713
0.132015
0.137606
0.143905
0.150787
0.158259
0.166134
0.174408
0.182789
0.191261
0.199346
0.207068
0.213596
0.219202
0.222297
0.224038
0.221082
0.216982
0.116531
0.117707
0.119975
0.123218
0.127279
0.132181
0.137795
0.144129
0.151059
0.158602
0.166574
0.174983
0.183542
0.192255
0.20065
0.208781
0.215817
0.222074
0.225963
0.228661
0.226907
0.224064
0.116655
0.117831
0.120107
0.12336
0.127422
0.132339
0.137976
0.144342
0.15132
0.158932
0.166998
0.175537
0.18427
0.193218
0.201914
0.210442
0.217974
0.224864
0.229533
0.233165
0.232597
0.230998
0.222181
0.116773
0.117949
0.12023
0.123502
0.127558
0.13249
0.138148
0.144547
0.151571
0.159249
0.167406
0.176072
0.184973
0.194148
0.203137
0.21205
0.220067
0.227572
0.233007
0.237548
0.238148
0.237783
0.230606
0.116884
0.118061
0.120343
0.123553
0.127687
0.132633
0.138312
0.144742
0.151811
0.159553
0.167798
0.176587
0.18565
0.195045
0.204318
0.213605
0.222094
0.230197
0.236383
0.24181
0.243556
0.244411
0.238847
0.11699
0.118167
0.120451
0.123683
0.127809
0.132769
0.138468
0.144928
0.152039
0.159844
0.168173
0.177081
0.186301
0.195909
0.205458
0.215107
0.224055
0.232737
0.239657
0.245948
0.248817
0.250878
0.246898
0.117088
0.118266
0.120554
0.123798
0.127928
0.132897
0.138616
0.145104
0.152256
0.160121
0.168532
0.177553
0.186926
0.19674
0.206555
0.216554
0.225949
0.235192
0.242829
0.24996
0.253928
0.257176
0.254754
0.117181
0.118359
0.12065
0.123899
0.128047
0.133019
0.138755
0.14527
0.152461
0.160383
0.168873
0.178005
0.187524
0.197536
0.20761
0.217947
0.227775
0.23756
0.245896
0.253845
0.258884
0.263301
0.262407
0.117267
0.118446
0.120739
0.123992
0.128129
0.133133
0.138885
0.145425
0.152654
0.160632
0.169197
0.178435
0.188095
0.198298
0.208621
0.219284
0.229532
0.239841
0.248856
0.2576
0.263681
0.269246
0.26985
0.117346
0.118526
0.120822
0.124079
0.128236
0.133238
0.139006
0.145571
0.152835
0.160866
0.169503
0.178843
0.188638
0.199026
0.209588
0.220564
0.231219
0.242033
0.251707
0.261222
0.268317
0.275005
0.277076
0.117419
0.1186
0.120898
0.12416
0.128327
0.133335
0.139118
0.145705
0.153004
0.161085
0.169792
0.179229
0.189154
0.199717
0.210511
0.221788
0.232835
0.244136
0.254448
0.26471
0.272788
0.280572
0.284077
0.117486
0.118667
0.120967
0.124233
0.128403
0.133426
0.139222
0.14583
0.153161
0.16129
0.170062
0.179592
0.189641
0.200373
0.211389
0.222954
0.23438
0.246148
0.257075
0.268061
0.27709
0.285942
0.290844
0.117545
0.118727
0.121029
0.124299
0.128471
0.133496
0.139317
0.145943
0.153305
0.16148
0.170314
0.179933
0.190101
0.200993
0.212221
0.224063
0.235851
0.248069
0.259589
0.271272
0.281219
0.291109
0.29737
0.117598
0.11878
0.121084
0.124358
0.128531
0.133558
0.139402
0.146045
0.153436
0.161654
0.170548
0.18025
0.190531
0.201577
0.213008
0.225113
0.23725
0.249897
0.261986
0.274341
0.285174
0.296067
0.303647
0.117644
0.118827
0.121132
0.124409
0.128584
0.133631
0.139478
0.146137
0.153554
0.161813
0.170763
0.180545
0.190933
0.202124
0.213749
0.226103
0.238573
0.251631
0.264266
0.277266
0.288949
0.300811
0.309668
0.117684
0.118867
0.121173
0.124453
0.12863
0.133688
0.139543
0.146217
0.153659
0.161956
0.170959
0.180815
0.191305
0.202633
0.214442
0.227034
0.239822
0.253271
0.266427
0.280044
0.292542
0.305337
0.315424
0.117716
0.1189
0.121207
0.124489
0.128667
0.133732
0.139603
0.146286
0.153751
0.162084
0.171135
0.181062
0.191647
0.203105
0.215088
0.227905
0.240994
0.254814
0.268467
0.282673
0.29595
0.309639
0.320908
0.117742
0.118926
0.121234
0.124517
0.128697
0.133765
0.139659
0.146344
0.15383
0.162196
0.171293
0.181285
0.19196
0.203539
0.215687
0.228715
0.242089
0.256261
0.270384
0.285152
0.29917
0.313712
0.326113
0.11776
0.118945
0.121253
0.124538
0.128718
0.133789
0.139604
0.146391
0.153895
0.162291
0.17143
0.181484
0.192242
0.203935
0.216237
0.229464
0.243107
0.257611
0.272178
0.287477
0.302198
0.317553
0.331033
0.117772
0.118956
0.121265
0.124551
0.128732
0.133804
0.139647
0.146426
0.153946
0.162371
0.171549
0.181658
0.192494
0.204293
0.216739
0.230151
0.244047
0.258861
0.273847
0.289647
0.305032
0.321157
0.335661
0.117777
0.118961
0.12127
0.124556
0.128737
0.133811
0.139674
0.146447
0.153984
0.162434
0.171647
0.181808
0.192716
0.204611
0.217192
0.230776
0.244907
0.260013
0.27539
0.29166
0.307669
0.324519
0.33999
0.117775
0.118959
0.121267
0.124553
0.128733
0.13381
0.139682
0.146456
0.154009
0.16248
0.171725
0.181933
0.192906
0.204891
0.217595
0.231339
0.245688
0.261064
0.276806
0.293515
0.310106
0.327636
0.344015
0.117766
0.118949
0.121257
0.124542
0.128722
0.133799
0.139677
0.146454
0.154019
0.162511
0.171783
0.182033
0.193065
0.205132
0.217949
0.231839
0.246388
0.262013
0.278092
0.295209
0.312342
0.330505
0.347731
0.117749
0.118932
0.121239
0.124523
0.128702
0.13378
0.13966
0.146441
0.154017
0.162524
0.17182
0.182107
0.193193
0.205333
0.218253
0.232275
0.247008
0.262861
0.27925
0.296741
0.314373
0.333121
0.351132
0.117726
0.118908
0.121214
0.124497
0.128673
0.13375
0.139632
0.146413
0.154
0.162521
0.171837
0.182157
0.19329
0.205494
0.218506
0.232648
0.247546
0.263607
0.280276
0.298109
0.316197
0.335482
0.354213
0.117695
0.118877
0.121181
0.124462
0.128636
0.133712
0.139594
0.146395
0.153968
0.162501
0.171834
0.182181
0.193355
0.205615
0.218709
0.232956
0.248003
0.264249
0.281171
0.299312
0.317813
0.337584
0.35697
0.117658
0.118838
0.12114
0.124419
0.128591
0.133664
0.139546
0.146353
0.153924
0.162465
0.171809
0.182179
0.193388
0.205697
0.218861
0.2332
0.248377
0.264787
0.281934
0.300349
0.319218
0.339425
0.359398
0.117613
0.118793
0.121092
0.124369
0.128536
0.133607
0.139487
0.146292