/*--------------------------------*- C++ -*----------------------------------*\
  =========                 |
  \\      /  F ield         | OpenFOAM: The Open Source CFD Toolbox
   \\    /   O peration     | Website:  https://openfoam.org
    \\  /    A nd           | Version:  7
     \\/     M anipulation  |
\*---------------------------------------------------------------------------*/
FoamFile
{
    version     2.0;
    format      ascii;
    class       surfaceScalarField;
    location    "140";
    object      phi;
}
// * * * * * * * * * * * * * * * * * * * * * * * * * * * * * * * * * * * * * //

dimensions      [0 3 -1 0 0 0 0];

internalField   nonuniform List<scalar> 
14027
(
-0.001792
-0.000870932
-0.00174401
-0.000882162
-0.00169556
-0.000893103
-0.000854871
-0.00161409
-0.00164668
-0.000903752
-0.000864795
-0.00156574
-0.00159737
-0.000914105
-0.000874431
-0.00151697
-0.00154765
-0.000924159
-0.000883775
-0.00146781
-0.00149751
-0.000933911
-0.000843272
-0.00139054
-0.000892826
-0.00141825
-0.00144698
-0.000943359
-0.000851649
-0.00134156
-0.000901581
-0.00136832
-0.00139606
-0.000952499
-0.00085974
-0.00129222
-0.000910039
-0.00131802
-0.00134477
-0.00096133
-0.000867543
-0.00124253
-0.000918196
-0.00126737
-0.00129312
-0.000969848
-0.000825031
-0.00116968
-0.000875056
-0.00119251
-0.000926052
-0.00121637
-0.00124112
-0.000978052
-0.000831928
-0.00112026
-0.000882278
-0.00114216
-0.000933603
-0.00116505
-0.00118878
-0.000985939
-0.000838545
-0.00107054
-0.000889206
-0.00109149
-0.000940848
-0.00111341
-0.00113612
-0.000993507
-0.00084488
-0.00102052
-0.00089584
-0.00104053
-0.000947786
-0.00106146
-0.00108315
-0.00100075
-0.000850932
-0.000970225
-0.000902178
-0.000989289
-0.000954415
-0.00100922
-0.00102989
-0.00100768
-0.000806133
-0.000902365
-0.000856699
-0.000919659
-0.000908218
-0.00093777
-0.000960732
-0.000956707
-0.000976342
-0.00101428
-0.000811358
-0.000852457
-0.00086218
-0.000868837
-0.000913959
-0.000885992
-0.000966738
-0.000903929
-0.000922526
-0.00102055
-0.00081631
-0.000802309
-0.000867375
-0.000817772
-0.000919399
-0.000833967
-0.000972429
-0.000850899
-0.000868455
-0.0010265
-0.000820987
-0.000751935
-0.000872281
-0.000766478
-0.000924539
-0.000781709
-0.000977805
-0.000797633
-0.000814142
-0.00103212
-0.000825388
-0.000701349
-0.000876898
-0.000714968
-0.000929375
-0.000729232
-0.000982865
-0.000744143
-0.000759602
-0.0010374
-0.000829513
-0.000650562
-0.000881225
-0.000663256
-0.000933908
-0.000676549
-0.000987607
-0.000690444
-0.00070485
-0.00104236
-0.00083336
-0.00059959
-0.000885262
-0.000611355
-0.000938136
-0.000623675
-0.00099203
-0.00063655
-0.000649898
-0.00104698
-0.000785784
-0.000538108
-0.00083693
-0.000548444
-0.000889006
-0.000559278
-0.000942059
-0.000570622
-0.000996134
-0.000582476
-0.000594763
-0.00105127
-0.000788916
-0.000487692
-0.00084022
-0.00049714
-0.000892458
-0.00050704
-0.000945675
-0.000517405
-0.000999917
-0.000528234
-0.000539458
-0.00105522
-0.000791781
-0.000437132
-0.000843232
-0.000445689
-0.000895617
-0.000454654
-0.000948984
-0.000464039
-0.00100338
-0.00047384
-0.000483999
-0.00105884
-0.00079438
-0.000386442
-0.000845963
-0.000394106
-0.000898483
-0.000402135
-0.000951985
-0.000410536
-0.00100652
-0.000419308
-0.000428399
-0.00106212
-0.000796713
-0.000335635
-0.000848414
-0.000342405
-0.000901054
-0.000349495
-0.000954678
-0.000356912
-0.00100933
-0.000364653
-0.000372673
-0.00106506
-0.000798778
-0.000284724
-0.000850584
-0.000290599
-0.00090333
-0.000296749
-0.000957062
-0.00030318
-0.00101183
-0.000309888
-0.000316837
-0.00106766
-0.000800577
-0.000233723
-0.000852473
-0.000238703
-0.000905311
-0.000243912
-0.000959136
-0.000249355
-0.00101399
-0.000255029
-0.000260904
-0.00106993
-0.000802107
-0.000182646
-0.000854081
-0.000186729
-0.000906997
-0.000190996
-0.0009609
-0.000195451
-0.00101584
-0.00020009
-0.000204891
-0.00107185
-0.00080337
-0.000131507
-0.000855407
-0.000134692
-0.000908386
-0.000138017
-0.000962355
-0.000141483
-0.00101736
-0.000145086
-0.000148811
-0.00107344
-0.000804365
-8.03178e-05
-0.000856451
-8.26057e-05
-0.00090948
-8.4988e-05
-0.000963499
-8.74641e-05
-0.00101855
-9.00312e-05
-9.26807e-05
-0.00107468
-0.000805092
-2.90937e-05
-0.000857213
-3.0484e-05
-0.000910278
-3.19234e-05
-0.000964332
-3.34098e-05
-0.00101942
-3.49404e-05
-3.65137e-05
-0.00107559
-0.00080555
2.2152e-05
-0.000857693
2.16593e-05
-0.000910779
2.11627e-05
-0.000964855
2.06658e-05
-0.00101997
2.01716e-05
1.96733e-05
-0.00107615
-0.000805741
7.34056e-05
-0.000857892
7.38102e-05
-0.000910985
7.42561e-05
-0.000965068
7.47484e-05
-0.00102019
7.52902e-05
7.58672e-05
-0.00107638
-0.000805663
0.000124653
-0.000857808
0.000125955
-0.000910895
0.000127343
-0.00096497
0.000128824
-0.00102008
0.000130401
0.000132053
-0.00107627
-0.000805318
0.000175882
-0.000857443
0.000178079
-0.000910508
0.000180408
-0.000964562
0.000182877
-0.00101965
0.000185489
0.000188215
-0.00107581
-0.000804705
0.000227077
-0.000856796
0.00023017
-0.000909826
0.000233439
-0.000963843
0.000236894
-0.00101889
0.00024054
0.000244338
-0.00107502
-0.000803825
0.000278226
-0.000855867
0.000282212
-0.000908849
0.00028642
-0.000962815
0.000290861
-0.00101781
0.000295538
0.000300407
-0.00107388
-0.000802677
0.000329314
-0.000854658
0.000334193
-0.000907576
0.000339339
-0.000961478
0.000344763
-0.00101641
0.000350471
0.000356409
-0.00107241
-0.000801263
0.000380328
-0.000853168
0.000386099
-0.000906009
0.00039218
-0.000959832
0.000398586
-0.00101468
0.000405322
0.000412327
-0.0010706
-0.000799582
0.000431254
-0.000851398
0.000437915
-0.000904148
0.00044493
-0.000957878
0.000452316
-0.00101263
0.000460077
0.000468147
-0.00106845
-0.000797635
0.00048208
-0.000849348
0.000489628
-0.000901993
0.000497575
-0.000955615
0.000505938
-0.00101026
0.000514723
0.000523854
-0.00106597
-0.000795423
0.000532791
-0.00084702
0.000541224
-0.000899546
0.0005501
-0.000953046
0.000559438
-0.00100757
0.000569244
0.000579434
-0.00106315
-0.000792946
0.000583374
-0.000844413
0.000592691
-0.000896806
0.000602494
-0.000950171
0.000612803
-0.00100455
0.000623626
0.000634871
-0.00105999
-0.000790205
-0.000841528
0.000644013
-0.000893775
0.00065474
-0.00094699
0.000666019
-0.00100122
0.000677855
0.000690153
-0.0010565
-0.000838367
0.000695179
-0.000890453
0.000706827
-0.000943505
0.00071907
-0.000997567
0.000731918
0.000745263
-0.00105268
-0.000834929
0.000746174
-0.000886842
0.000758739
-0.000939716
0.000771945
-0.000993597
0.000785799
0.000800188
-0.00104852
-0.000831216
0.000796985
-0.000882942
0.000810465
-0.000935625
0.000824628
-0.000989311
0.000839484
0.000854913
-0.00104404
-0.000827229
0.0008476
-0.000878754
0.00086199
-0.000931233
0.000877107
-0.00098471
0.000892961
0.000909424
-0.00103922
-0.000822969
0.000898004
-0.00087428
0.000913301
-0.000926541
0.000929368
-0.000979795
0.000946216
0.000963708
-0.00103408
-0.000818436
0.000948185
-0.00086952
0.000964386
-0.00092155
0.000981397
-0.000974568
0.000999233
0.00101775
-0.00102861
-0.000813632
-0.000864477
0.00101523
-0.000916262
0.00103318
-0.00096903
0.001052
0.00107154
-0.00102282
-0.000859151
0.00106582
-0.000910678
0.00108471
-0.000963183
0.00110451
0.00112506
-0.0010167
-0.000853543
0.00111615
-0.0009048
0.00113597
-0.000957029
0.00115674
0.00117829
-0.00101027
-0.000847655
0.0011662
-0.000898629
0.00118694
-0.000950569
0.00120868
0.00123123
-0.00100351
-0.000841489
0.00121596
-0.000892167
0.00123762
-0.000943805
0.00126031
0.00128387
-0.000996438
-0.000835046
-0.000885416
0.00128799
-0.00093674
0.00131164
0.00133618
-0.000989052
-0.000878377
0.00133804
-0.000929375
0.00136264
0.00138816
-0.000981354
-0.000871053
0.00138775
-0.000921712
0.0014133
0.00143979
-0.000973346
-0.000863445
0.00143713
-0.000913754
0.00146361
0.00149107
-0.00096503
-0.000855556
-0.000905503
0.00151355
0.00154197
-0.00095641
-0.000896962
0.00156313
0.0015925
-0.000947488
-0.000888132
0.00161232
0.00164264
-0.000938267
-0.000879017
0.00166112
0.00169237
-0.00092875
-0.000869618
0.00174169
-0.000918941
0.00179059
-0.000908842
0.00183907
-0.000898457
-0.000887789
0.0044822
2.18851e-05
-2.01238e-05
0.0044772
6.38774e-05
-5.88688e-05
0.0044694
0.000105633
-9.78382e-05
0.00445907
0.000148061
-0.000137729
0.00444646
0.000192288
-0.000179682
0.00443176
0.000238606
-0.000223905
0.00441513
0.000287173
-0.000270541
0.00439671
0.00033799
-0.000319569
0.00437663
0.000390992
-0.000370916
0.00435505
0.00044615
-0.000424569
0.00433212
0.000503395
-0.000480465
0.00430804
0.000562727
-0.000538648
0.00428304
0.000624109
-0.000599103
0.0042574
0.000687545
-0.000661907
0.00423146
0.000752991
-0.00072705
0.00420565
0.000820381
-0.000794577
0.00418046
0.000889602
-0.000864409
0.00415651
0.000960412
-0.000936463
0.00413445
0.00103258
-0.00101052
0.00411515
0.00110555
-0.00108625
0.0040994
0.00117901
-0.00116326
0.00408841
0.00125177
-0.00124078
0.00408297
0.00132388
-0.00131844
0.00408485
0.0013926
-0.00139448
0.0040942
0.00146022
-0.00146957
0.00411476
0.00151833
-0.00153888
0.00158114
-0.00160939
0.00456703
2.36185e-05
0.00456206
6.88406e-05
0.00455435
0.000113345
0.00454414
0.00015827
0.00453171
0.000204719
0.00451726
0.000253062
0.00450096
0.000303473
0.00448298
0.000355968
0.00446348
0.000410489
0.00444265
0.000466984
0.00442066
0.00052538
0.00439777
0.000585621
0.00437423
0.000647652
0.00435038
0.00071139
0.0043266
0.000776767
0.0043034
0.000843588
0.00428127
0.000911727
0.00426093
0.000980758
0.00424302
0.00105049
0.00422848
0.00112008
0.00421806
0.00118943
0.004213
0.00125683
0.00421391
0.00132297
0.00422264
0.00138387
0.00423898
0.00144388
0.00426652
0.00149079
0.00154467
0.00465345
2.5328e-05
0.00464856
7.37257e-05
0.00464097
0.000120936
0.00463094
0.000168296
0.00461876
0.000216901
0.00460464
0.000267183
0.00458878
0.000319335
0.00457136
0.000373382
0.00455258
0.000429273
0.00453264
0.000486928
0.00451175
0.000546264
0.0044902
0.000607171
0.00446828
0.000669572
0.00444638
0.000733296
0.0044249
0.000798248
0.00440437
0.00086411
0.00438535
0.000930745
0.00436856
0.000997553
0.00435465
0.0010644
0.00434457
0.00113017
0.00433901
0.00119499
0.00433918
0.00125666
0.00434557
0.00131659
0.00435983
0.00136961
0.00438175
0.00142197
0.00441371
0.00145883
0.00150438
0.00474151
2.70082e-05
0.00473672
7.85148e-05
0.00472928
0.000128374
0.00471948
0.000178094
0.00470761
0.000228774
0.00469389
0.000280895
0.00467856
0.000334673
0.00466181
0.000390133
0.00464385
0.000447229
0.00462492
0.000505854
0.00460527
0.000565913
0.00458521
0.000627237
0.00456505
0.000689728
0.00454522
0.000753127
0.00452615
0.000817316
0.0045084
0.000881859
0.00449253
0.000946614
0.00447927
0.00101082
0.00446926
0.00107441
0.0044634
0.00113602
0.00446235
0.00119604
0.00446719
0.00125182
0.00447835
0.00130542
0.00449714
0.00135082
0.00452342
0.00139569
0.00455846
0.00142378
0.00146129
0.00483123
2.86537e-05
0.00482656
8.31923e-05
0.0048193
0.000135631
0.00480977
0.000187626
0.00479825
0.000240287
0.00478501
0.000294138
0.00477027
0.000349411
0.00475427
0.000406134
0.00473724
0.000464263
0.00471943
0.000523659
0.00470113
0.000584214
0.00468267
0.000645704
0.00466439
0.000708004
0.00464674
0.000770777
0.00463018
0.00083388
0.00461526
0.000896771
0.00460257
0.000959309
0.00459279
0.00102059
0.00458657
0.00108063
0.00458474
0.00113786
0.00458788
0.0011929
0.00459694
0.00124277
0.00461228
0.00129008
0.00463485
0.00132825
0.00466461
0.00136593
0.00470214
0.00138625
0.00141604
0.00492267
3.02593e-05
0.00491811
8.77436e-05
0.00491106
0.000142683
0.00490183
0.000196858
0.00489072
0.000251397
0.004878
0.000306855
0.00486393
0.000363487
0.00484875
0.000421314
0.00483272
0.000480293
0.00481612
0.000540255
0.00479926
0.000601075
0.00478249
0.000662478
0.00476618
0.000724313
0.00475079
0.00078617
0.00473678
0.000847884
0.00472473
0.000908821
0.0047152
0.000968847
0.00470884
0.00102695
0.00470627
0.0010832
0.00470823
0.0011359
0.00471525
0.00118588
0.00472809
0.00122993
0.00474707
0.0012711
0.00477281
0.00130251
0.00480536
0.00133338
0.00484481
0.0013468
0.00136949
0.00501583
3.18197e-05
0.00501142
9.21543e-05
0.0050046
0.000149505
0.0049957
0.000205757
0.00498503
0.000262061
0.00497289
0.000318999
0.00495954
0.000376842
0.00494524
0.000435607
0.00493029
0.000495248
0.00491497
0.000555567
0.00489963
0.000616423
0.00488461
0.00067749
0.00487033
0.000738595
0.00485724
0.000799259
0.00484582
0.000859306
0.00483662
0.000918018
0.00483019
0.00097528
0.00482715
0.00102998
0.00482806
0.0010823
0.00483356
0.0011304
0.00484412
0.00117531
0.00486033
0.00121372
0.00488246
0.00124897
0.00491085
0.00127412
0.00494558
0.00129865
0.00498639
0.00130599
0.00132231
0.00511076
3.33295e-05
0.00510651
9.64097e-05
0.00509994
0.000156074
0.0050914
0.000214291
0.00508122
0.000272241
0.0050697
0.000330523
0.00505712
0.000389424
0.00504377
0.000448956
0.00502995
0.000509069
0.00501598
0.000569536
0.0050022
0.0006302
0.004989
0.000690688
0.00497679
0.000750809
0.00496602
0.000810026
0.00495718
0.000868152
0.00495079
0.000924404
0.00494737
0.000978696
0.00494751
0.00102985
0.00495169
0.00107812
0.00496047
0.00112162
0.00497424
0.00116154
0.00499343
0.00119453
0.00501825
0.00122415
0.00504882
0.00124355
0.00508521
0.00126225
0.00512691
0.0012643
0.00127494
0.00520749
3.47834e-05
0.00520341
0.000100495
0.00519711
0.000162365
0.00518898
0.000222431
0.00517932
0.000281899
0.00516846
0.000341384
0.0051567
0.000401186
0.00514434
0.00046131
0.00513171
0.000521704
0.00511913
0.00058211
0.00510697
0.000642361
0.00509562
0.000702039
0.00508549
0.000760939
0.00507704
0.000818472
0.00507074
0.000874454
0.0050671
0.00092805
0.00506659
0.000979207
0.00506973
0.0010267
0.00507697
0.00107088
0.00508875
0.00110983
0.0051054
0.00114489
0.00512719
0.00117274
0.00515428
0.00119706
0.0051866
0.00121123
0.00522423
0.00122463
0.00526645
0.00122207
0.00122771
0.00530606
3.61759e-05
0.00530215
0.000104397
0.00529616
0.000168356
0.00528845
0.000230146
0.00527935
0.000290998
0.00526919
0.00035154
0.00525829
0.000412084
0.00524698
0.000472624
0.00523558
0.000533108
0.00522444
0.000593251
0.00521392
0.000652874
0.00520444
0.000711521
0.0051964
0.000768981
0.00519025
0.000824622
0.00518644
0.000878267
0.00518544
0.000929048
0.0051877
0.000976948
0.00519367
0.00102073
0.00520373
0.00106082
0.00521823
0.00109533
0.00523742
0.0011257
0.00526146
0.00114871
0.00529043
0.00116809
0.00532414
0.00117753
0.00536261
0.00118615
0.00540507
0.00117962
0.00118089
0.00540649
3.7502e-05
0.00540278
0.000108101
0.00539711
0.000174025
0.00538985
0.000237408
0.00538134
0.000299506
0.00537193
0.000360954
0.00536194
0.000422076
0.0053517
0.000482858
0.00534157
0.000543243
0.00533189
0.000602926
0.00532305
0.000661717
0.00531544
0.000719131
0.00530947
0.000774951
0.00530558
0.000828517
0.00530418
0.000879664
0.00530572
0.000927508
0.0053106
0.000972072
0.00531919
0.00101214
0.00533183
0.00104818
0.00534877
0.00107839
0.0053702
0.00110427
0.00539613
0.00112277
0.00542664
0.00113759
0.00546139
0.00114277
0.0055004
0.00114713
0.00554283
0.0011372
0.00113467
0.00550882
3.87566e-05
0.00550533
0.000111594
0.0055
0.00017935
0.00549322
0.00024419
0.00548534
0.00030739
0.0054767
0.000369592
0.00546765
0.000431128
0.00545853
0.000491976
0.00544969
0.000552081
0.00544151
0.000611113
0.00543434
0.000668882
0.0054286
0.000724875
0.00542467
0.000778879
0.00542297
0.000830214
0.0054239
0.000878734
0.00542785
0.000923556
0.00543518
0.000964743
0.00544621
0.00100111
0.00546118
0.0010332
0.00548028
0.0010593
0.00550363
0.00108093
0.00553115
0.00109524
0.00556286
0.00110588
0.00559836
0.00110727
0.00563764
0.00110785
0.00567981
0.00109503
0.00108924
0.0056131
3.99349e-05
0.00560983
0.000114863
0.00560487
0.000184312
0.00559859
0.000250466
0.00559136
0.000314621
0.00558353
0.000377421
0.00557545
0.000439208
0.00556747
0.000499952
0.00555996
0.000559597
0.00555327
0.000617801
0.00554778
0.000674369
0.00554388
0.000728774
0.00554196
0.000780806
0.00554239
0.000829783
0.00554554
0.000875577
0.00555177
0.000917328
0.00556138
0.000955135
0.00557462
0.000987875
0.00559169
0.00101613
0.00561268
0.0010383
0.00563766
0.00105595
0.00566649
0.00106641
0.00569911
0.00107326
0.0057351
0.00107129
0.00577441
0.00106854
0.00581614
0.00105329
0.00104473
0.00571934
4.10323e-05
0.00571631
0.000117896
0.00571173
0.000188891
0.00570598
0.000256213
0.00569943
0.000321172
0.00569244
0.000384415
0.00568536
0.00044629
0.00567855
0.000506763
0.00567236
0.000565779
0.00566718
0.000622986
0.00566336
0.000678189
0.00566128
0.000730857
0.0056613
0.000780786
0.00566377
0.000827305
0.00566904
0.000870308
0.0056774
0.000908969
0.00568911
0.000943426
0.00570436
0.000972629
0.00572329
0.000997205
0.00574591
0.00101568
0.00577226
0.00102961
0.00580212
0.00103655
0.00583541
0.00103997
0.00587165
0.00103504
0.00591079
0.0010294
0.00595194
0.00101214
0.00100122
0.0058276
4.20446e-05
0.00582482
0.000120682
0.00582064
0.000193071
0.00581544
0.00026141
0.00580959
0.000327021
0.00580346
0.00039055
0.0057974
0.000452353
0.00579177
0.000512393
0.00578693
0.000570619
0.00578324
0.000626673
0.00578106
0.000680365
0.00578075
0.000731166
0.00578265
0.000778886
0.00578709
0.000822873
0.00579435
0.000863046
0.00580469
0.000898628
0.00581832
0.000929794
0.00583537
0.000955581
0.00585593
0.000976646
0.00587995
0.000991647
0.00590742
0.00100214
0.00593807
0.0010059
0.00597179
0.00100625
0.00600809
0.000998743
0.0060469
0.000990597
0.00608735
0.000971686
0.00095881
0.00593791
4.29678e-05
0.00593539
0.00012321
0.00593162
0.000196836
0.00592699
0.000266038
0.00592187
0.000332146
0.00591661
0.000395807
0.00591158
0.000457382
0.00590714
0.000516834
0.00590364
0.000574118
0.00590144
0.000628876
0.00590088
0.000680927
0.00590229
0.000729753
0.005906
0.000775179
0.00591229
0.000816585
0.00592141
0.000853918
0.00593358
0.00088646
0.00594896
0.000914421
0.00596761
0.00093693
0.00598958
0.000954674
0.00601478
0.000966446
0.00604314
0.000973788
0.00607436
0.00097467
0.00610832
0.000972288
0.00614451
0.000962558
0.00618284
0.000952264
0.00622249
0.000932034
0.000917538
0.00605031
4.37985e-05
0.00604805
0.000125471
0.00604471
0.000200172
0.00604067
0.000270081
0.00603629
0.000336532
0.00603192
0.000400171
0.00602794
0.000461366
0.00602469
0.000520084
0.00602252
0.000576284
0.00602178
0.000629618
0.00602279
0.000679914
0.00602587
0.000726676
0.0060313
0.000769748
0.00603934
0.000808548
0.0060502
0.000843056
0.00606404
0.000872619
0.00608098
0.000897481
0.00610104
0.00091687
0.00612422
0.000931493
0.00615039
0.00094028
0.00617943
0.000944745
0.00621104
0.000943058
0.00624506
0.000938269
0.00628099
0.000926631
0.00631873
0.000914517
0.00635751
0.000893256
0.000877443
0.00616484
4.45334e-05
0.00616285
0.000127457
0.00615995
0.000203067
0.00615651
0.000273526
0.00615288
0.000340166
0.00614941
0.000403634
0.00614648
0.000464303
0.00614441
0.000522146
0.00614357
0.000577133
0.00614426
0.000628928
0.00614679
0.000677375
0.00615147
0.000722004
0.00615853
0.000762681
0.00616821
0.000798875
0.00618067
0.000830594
0.00619603
0.000857259
0.00621436
0.000879147
0.00623565
0.000895585
0.00625984
0.000907295
0.00628678
0.000913341
0.00631633
0.000915201
0.00634815
0.000911233
0.00638208
0.000904338
0.00641763
0.000891087
0.0064547
0.000877447
0.00649255
0.00085541
0.000838547
0.00628153
4.517e-05
0.00627982
0.000129161
0.00627738
0.000205513
0.00627454
0.000276363
0.00627167
0.000343039
0.00626911
0.000406189
0.00626722
0.000466192
0.00626634
0.000523032
0.00626678
0.000576688
0.00626886
0.000626846
0.00627287
0.000673365
0.00627907
0.000715811
0.00628767
0.000754075
0.00629887
0.000787681
0.00631279
0.000816668
0.00632952
0.000840533
0.00634908
0.000859586
0.00637142
0.00087325
0.00639645
0.000882261
0.00642399
0.000885805
0.00645386
0.000885322
0.00648575
0.000879345
0.00651947
0.000870624
0.00655453
0.000856026
0.00659085
0.000841127
0.00662772
0.000818536
0.000800858
0.00640043
4.57061e-05
0.00639901
0.000130579
0.00639702
0.000207501
0.0063948
0.000278584
0.00639269
0.000345146
0.00639104
0.000407837
0.00639019
0.000467043
0.00639047
0.000522759
0.00639217
0.00057498
0.0063956
0.000623415
0.00640102
0.000667946
0.00640866
0.000708177
0.0064187
0.000744029
0.0064313
0.000775083
0.00644656
0.000801412
0.0064645
0.000822592
0.00648513
0.000838958
0.00650834
0.000850032
0.00653405
0.000856555
0.00656202
0.000857832
0.00659209
0.000855258
0.00662391
0.000847527
0.00665729
0.000837238
0.00669178
0.000821534
0.0067273
0.000805615
0.00676317
0.000782666
0.000764378
0.00652157
4.61401e-05
0.00652045
0.000131705
0.00651892
0.000209027
0.00651732
0.000280185
0.00651598
0.000346487
0.00651523
0.000408584
0.00651541
0.000466867
0.00651681
0.000521351
0.00651975
0.000572044
0.00652448
0.000618688
0.00653124
0.000661186
0.00654023
0.000699188
0.00655161
0.000732646
0.00656549
0.000761201
0.00658194
0.000784962
0.00660096
0.000803579
0.0066225
0.000817417
0.00664644
0.000826087
0.00667266
0.000830332
0.00670093
0.000829568
0.00673105
0.000825141
0.00676268
0.000815893
0.00679564
0.000804274
0.0068295
0.000787681
0.00686416
0.000770955
0.006899
0.000747817
0.000729101
0.00664501
4.64708e-05
0.00664418
0.000132538
0.00664311
0.000210089
0.00664213
0.000281167
0.00664155
0.000347064
0.0066417
0.000408438
0.00664288
0.000465683
0.0066454
0.000518837
0.00664952
0.000567924
0.00665549
0.000612721
0.00666351
0.000653158
0.00667377
0.000688932
0.00668638
0.00072003
0.00670143
0.000746154
0.00671894
0.000767448
0.00673889
0.000783636
0.0067612
0.000795108
0.00678573
0.000801559
0.00681232
0.000803733
0.00684075
0.000801145
0.0068708
0.000795088
0.00690215
0.000784543
0.00693461
0.000771812
0.00696777
0.000754525
0.00700154
0.000737182
0.00703536
0.000714003
0.000695014
0.00677078
4.66977e-05
0.00677024
0.000133076
0.00676964
0.000210687
0.00676928
0.000281531
0.00676945
0.000346887
0.00677048
0.000407414
0.00677265
0.000463516
0.00677623
0.000515251
0.00678149
0.000562667
0.00678863
0.000605577
0.00679785
0.000643939
0.00680928
0.000677503
0.00682302
0.000706289
0.00683912
0.000730061
0.00685756
0.000748999
0.0068783
0.000762897
0.00690124
0.000772167
0.00692622
0.000776584
0.00695307
0.000776886
0.00698153
0.00077268
0.00701141
0.000765205
0.00704239
0.000753565
0.00707429
0.000739919
0.0071067
0.000722113
0.00713956
0.000704321
0.00717234
0.000681227
0.000662102
0.00689892
4.68208e-05
0.00689868
0.00013332
0.00689854
0.000210822
0.00689879
0.000281284
0.00689971
0.000345966
0.00690159
0.000405531
0.00690472
0.000460393
0.00690933
0.000510635
0.00691567
0.000556326
0.00692393
0.000597321
0.00693426
0.00063361
0.00694677
0.000664993
0.00696153
0.000691528
0.00697855
0.000713039
0.00699781
0.000729739
0.00701922
0.00074149
0.00704266
0.000748723
0.00706796
0.000751286
0.00709494
0.000749909
0.00712334
0.000744279
0.00715296
0.000735582
0.00718349
0.000723032
0.00721476
0.000708651
0.00724639
0.000690481
0.00727832
0.00067239
0.00731006
0.000649491
0.000630347
0.00702949
4.68407e-05
0.00702954
0.000133272
0.00702986
0.0002105
0.00703071
0.000280435
0.00703236
0.000344317
0.00703507
0.000402814
0.00703912
0.000456348
0.00704472
0.000505031
0.00705209
0.000548958
0.00706139
0.000588024
0.00707274
0.000622253
0.00708624
0.000651499
0.00710191
0.000675853
0.00711975
0.000695202
0.0071397
0.000709788
0.00716165
0.000719537
0.00718548
0.000724898
0.00721098
0.000725781
0.00723798
0.000722909
0.00726622
0.000716038
0.00729551
0.0007063
0.00732553
0.00069301
0.00735613
0.000678054
0.00738695
0.000659659
0.00741794
0.0006414
0.00744864
0.000618789
0.000599729
0.00716252
4.67584e-05
0.00716286
0.000132937
0.00716363
0.000209729
0.00716507
0.000278997
0.00716742
0.00034196
0.00717095
0.000399289
0.00717588
0.00045142
0.00718242
0.000498491
0.00719075
0.000540624
0.00720102
0.000577759
0.00721332
0.000609954
0.0072277
0.000637114
0.00724418
0.000659369
0.00726273
0.00067666
0.00728325
0.000689261
0.00730564
0.000697154
0.00732973
0.000700802
0.00735534
0.000700175
0.00738227
0.00069598
0.00741027
0.00068804
0.00743914
0.000677429
0.00746859
0.000663552
0.00749848
0.000648168
0.00752847
0.000629668
0.00755851
0.000611357
0.00758819
0.000589114
0.000570227
0.00729806
4.65757e-05
0.00729868
0.000132319
0.00729989
0.000208518
0.00730191
0.000276985
0.00730495
0.000338916
0.00730925
0.000394989
0.00731502
0.000445648
0.00732245
0.000491065
0.00733168
0.000531388
0.00734284
0.000566601
0.007356
0.000596798
0.00737118
0.000621936
0.00738837
0.000642178
0.00740751
0.000657521
0.0074285
0.000668265
0.00745121
0.000674447
0.00747547
0.00067654
0.00750108
0.000674564
0.00752785
0.000669211
0.00755553
0.00066036
0.00758393
0.000649029
0.00761278
0.000634705
0.00764192
0.000619023
0.00767107
0.000600527
0.00770016
0.000582264
0.00772882
0.000560456
0.000541816
0.00743617
4.62948e-05
0.00743706
0.000131425
0.0074387
0.000206879
0.00744127
0.000274417
0.00744497
0.000335214
0.00745001
0.000389948
0.00745658
0.000439079
0.00746484
0.000482809
0.00747491
0.000521316
0.00748688
0.000554627
0.00750081
0.000582871
0.00751669
0.000606056
0.00753449
0.000624379
0.00755412
0.000637888
0.00757548
0.000646906
0.00759841
0.000651519
0.00762274
0.000652206
0.00764827
0.000649035
0.00767481
0.000642677
0.0077021
0.000633063
0.00772998
0.000621154
0.00775818
0.000606507
0.00778655
0.000590644
0.00781484
0.000572245
0.00784298
0.000554119
0.00787063
0.000532804
0.000514475
0.00757688
4.59184e-05
0.00757804
0.000130263
0.00758009
0.000204828
0.00758319
0.000271316
0.00758753
0.00033088
0.00759327
0.000384204
0.00760059
0.000431761
0.00760961
0.000473782
0.00762045
0.000510476
0.00763317
0.000541914
0.00764778
0.000568259
0.00766427
0.000589568
0.00768258
0.000606069
0.00770261
0.000617858
0.00772423
0.000625279
0.00774729
0.000628462
0.00777161
0.000627889
0.00779698
0.000623667
0.0078232
0.00061645
0.00785006
0.000606207
0.00787737
0.000593847
0.00790488
0.000578992
0.00793247
0.000563051
0.00795989
0.000544832
0.00798709
0.000526918
0.00801375
0.000506142
0.000488179
0.00772024
4.54498e-05
0.00772166
0.000128843
0.00772411
0.000202379
0.00772772
0.000267705
0.00773266
0.000325949
0.00773906
0.0003778
0.00774708
0.000423744
0.00775682
0.000464044
0.00776835
0.000498938
0.00778173
0.000528539
0.00779694
0.000553046
0.00781395
0.000572561
0.00783268
0.00058734
0.00785301
0.000597525
0.00787481
0.000603477
0.00789791
0.000605363
0.00792213
0.000603669
0.00794726
0.000598534
0.00797312
0.00059059
0.00799949
0.000579843
0.00802619
0.000567149
0.00805299
0.000552186
0.00807979
0.000536258
0.00810633
0.00051829
0.00813259
0.000500655
0.00815828
0.000480456
0.000462906
0.00786632
4.48926e-05
0.00786798
0.000127176
0.00787081
0.000199552
0.00787491
0.00026361
0.0078804
0.000320455
0.00788742
0.000370778
0.00789609
0.000415081
0.00790647
0.000453656
0.00791864
0.000486771
0.0079326
0.000514581
0.00794833
0.000537316
0.00796577
0.000555122
0.00798483
0.000568282
0.00800537
0.000576977
0.00802727
0.000581584
0.00805033
0.000582304
0.00807438
0.000579619
0.00809921
0.000573698
0.00812465
0.00056515
0.00815048
0.000554013
0.00817654
0.00054109
0.00820262
0.000526109
0.0082286
0.000510275
0.00825427
0.00049262
0.0082796
0.000475321
0.00830433
0.00045573
0.000438629
0.00801514
4.4251e-05
0.00801705
0.000125274
0.00802023
0.000196366
0.00802478
0.000259059
0.0080308
0.000314433
0.0080384
0.000363183
0.00804765
0.000405825
0.00805863
0.00044268
0.00807135
0.000474046
0.00808582
0.000500115
0.00810199
0.00052115
0.00811977
0.000537334
0.00813908
0.000548979
0.00815976
0.000556297
0.00818166
0.000559681
0.00820461
0.000559356
0.00822842
0.000555805
0.0082529
0.000549218
0.00827787
0.00054018
0.00830313
0.000528756
0.00832852
0.000515698
0.00835385
0.000500779
0.00837902
0.00048511
0.00840382
0.000467821
0.00842823
0.000450904
0.00845202
0.000431946
0.000415327
0.00816678
4.35295e-05
0.0081689
0.00012315
0.00817243