/*--------------------------------*- C++ -*----------------------------------*\
  =========                 |
  \\      /  F ield         | OpenFOAM: The Open Source CFD Toolbox
   \\    /   O peration     | Website:  https://openfoam.org
    \\  /    A nd           | Version:  7
     \\/     M anipulation  |
\*---------------------------------------------------------------------------*/
FoamFile
{
    version     2.0;
    format      ascii;
    class       volVectorField;
    location    "140";
    object      U;
}
// * * * * * * * * * * * * * * * * * * * * * * * * * * * * * * * * * * * * * //

dimensions      [0 1 -1 0 0 0 0];

internalField   nonuniform List<vector> 
7156
(
(0.807633 0.279499 1.4181e-19)
(0.800571 0.273687 -1.5445e-19)
(0.793654 0.267672 7.88264e-20)
(0.7752 0.273896 -2.32632e-19)
(0.786888 0.261458 -6.36021e-21)
(0.768263 0.267183 -2.169e-19)
(0.780277 0.255048 2.35944e-19)
(0.761491 0.26027 3.56355e-19)
(0.773827 0.248447 1.75331e-19)
(0.754889 0.253161 1.94774e-19)
(0.767543 0.241657 -4.45914e-19)
(0.73475 0.25762 -3.02172e-19)
(0.748465 0.245861 -1.91474e-19)
(0.76143 0.234683 3.14502e-19)
(0.728181 0.249783 6.48869e-19)
(0.742222 0.238373 -5.49852e-20)
(0.755493 0.22753 -9.06613e-20)
(0.721809 0.241754 -1.61709e-19)
(0.736167 0.230703 -1.42934e-19)
(0.749737 0.220203 1.91356e-19)
(0.71564 0.233538 -2.24655e-19)
(0.730306 0.222855 -3.18639e-20)
(0.744168 0.212706 -4.40006e-19)
(0.694245 0.235914 3.98566e-19)
(0.709679 0.22514 7.84615e-20)
(0.724643 0.214835 1.80563e-19)
(0.73879 0.205045 5.20837e-20)
(0.688178 0.226945 -1.68805e-20)
(0.703933 0.216566 8.87155e-20)
(0.719185 0.206648 -2.17649e-19)
(0.733607 0.197225 8.24169e-20)
(0.682342 0.217795 -1.73271e-19)
(0.698406 0.207823 -1.03482e-19)
(0.713935 0.1983 -5.66093e-20)
(0.728626 0.189251 2.22449e-19)
(0.676742 0.208472 -4.6924e-20)
(0.693104 0.198916 -6.57581e-21)
(0.7089 0.189796 2.68731e-20)
(0.72385 0.181129 -7.11831e-20)
(0.671385 0.198982 1.74207e-19)
(0.688032 0.189851 2.15455e-19)
(0.704083 0.181143 1.36175e-19)
(0.719283 0.172866 1.81201e-19)
(0.648566 0.198503 -1.5798e-19)
(0.666275 0.189333 -1.54505e-19)
(0.683195 0.180636 6.38085e-20)
(0.69949 0.172347 -1.96429e-19)
(0.71493 0.164466 -1.49118e-19)
(0.643434 0.188236 2.53798e-19)
(0.661417 0.179531 9.23764e-20)
(0.678598 0.171276 -4.1226e-20)
(0.695126 0.163414 4.07487e-20)
(0.710794 0.155937 1.40255e-19)
(0.638572 0.177814 -3.02219e-19)
(0.656817 0.169583 -6.45807e-20)
(0.674245 0.16178 -6.04273e-20)
(0.690993 0.154351 -8.31e-20)
(0.70688 0.147285 -2.38007e-19)
(0.633986 0.167246 -6.8018e-20)
(0.652478 0.159498 -5.52137e-21)
(0.67014 0.152153 2.05447e-19)
(0.687097 0.145165 -2.17049e-20)
(0.703192 0.138516 -4.38871e-22)
(0.62968 0.15654 4.36093e-19)
(0.648405 0.149283 1.61339e-19)
(0.666288 0.142404 -2.5562e-19)
(0.683442 0.135862 2.66601e-19)
(0.699733 0.129636 3.79738e-20)
(0.62566 0.145705 -2.41695e-19)
(0.644603 0.138946 -1.16947e-19)
(0.662693 0.13254 1.69889e-19)
(0.68003 0.126451 -6.03392e-20)
(0.696505 0.120654 6.40811e-20)
(0.621929 0.134748 6.8946e-20)
(0.641076 0.128494 1.57762e-19)
(0.659357 0.122567 -1.70821e-19)
(0.676866 0.116937 -7.56019e-20)
(0.693514 0.111575 3.1487e-20)
(0.598227 0.12974 -4.47048e-20)
(0.61849 0.123679 -9.9928e-20)
(0.637826 0.117936 -9.42409e-20)
(0.656285 0.112495 7.14622e-20)
(0.673952 0.107328 -1.31391e-19)
(0.69076 0.102406 -4.32157e-20)
(0.594903 0.118021 -1.27611e-19)
(0.615348 0.112506 7.94155e-20)
(0.634857 0.107281 9.05863e-21)
(0.65348 0.10233 5.6055e-20)
(0.671292 0.0976315 4.59668e-20)
(0.688248 0.0931545 1.76381e-20)
(0.591895 0.106202 1.4158e-20)
(0.612507 0.101238 1.4987e-19)
(0.632173 0.0965359 6.30613e-20)
(0.650945 0.0920818 -1.59994e-19)
(0.668889 0.0878554 4.77349e-21)
(0.685979 0.083828 8.8267e-21)
(0.589206 0.094292 8.76644e-20)
(0.609968 0.0898844 -1.42241e-20)
(0.629776 0.08571 1.7741e-20)
(0.648682 0.0817568 -1.54111e-20)
(0.666745 0.0780072 -4.35858e-20)
(0.683955 0.0744335 -1.68098e-20)
(0.58684 0.0823 -6.34745e-21)
(0.607735 0.0784537 -7.40568e-20)
(0.62767 0.0748119 -5.43505e-20)
(0.646694 0.0713638 4.47866e-20)
(0.664862 0.0680946 5.60651e-20)
(0.68218 0.0649784 4.06732e-20)
(0.5848 0.070236 -1.14632e-19)
(0.605811 0.0669554 1.49162e-20)
(0.625855 0.0638502 -2.3971e-20)
(0.644983 0.060911 1.19226e-19)
(0.663243 0.0581254 -3.46088e-20)
(0.680655 0.0554701 -2.13135e-20)
(0.583087 0.05811 9.77767e-21)
(0.604197 0.0553987 -1.25438e-19)
(0.624335 0.0528336 1.24086e-20)
(0.64355 0.0504067 -8.7026e-20)
(0.661889 0.0481076 4.99411e-20)
(0.679381 0.045916 4.56063e-20)
(0.581703 0.0459318 6.89436e-20)
(0.602895 0.0437931 7.56498e-20)
(0.62311 0.0417712 -3.18745e-20)
(0.642399 0.0398593 -4.89721e-20)
(0.660802 0.0380491 -3.46606e-20)
(0.67836 0.0363239 8.14922e-20)
(0.580651 0.0337114 -3.08067e-21)
(0.601908 0.032148 -2.70676e-20)
(0.622184 0.0306717 4.06527e-20)
(0.641529 0.0292772 2.4317e-21)
(0.659983 0.0279579 -2.10014e-20)
(0.677593 0.0267012 1.52407e-20)
(0.579932 0.0214589 -6.74859e-20)
(0.601236 0.0204729 -5.65972e-21)
(0.621556 0.0195442 1.40632e-21)
(0.640943 0.0186689 2.79983e-20)
(0.659433 0.0178421 1.96271e-20)
(0.677081 0.0170556 -1.12906e-20)
(0.579546 0.00918437 2.65034e-20)
(0.60088 0.00877727 -6.98195e-21)
(0.621228 0.00839773 3.70924e-20)
(0.64064 0.0080429 -2.84209e-20)
(0.659154 0.00770987 -9.43049e-21)
(0.676825 0.00739459 -2.70522e-21)
(0.579495 -0.00310206 -1.53992e-21)
(0.600841 -0.00292924 -6.69197e-21)
(0.6212 -0.00275875 -1.27898e-20)
(0.640622 -0.00259213 -3.15106e-21)
(0.659145 -0.00243063 2.14696e-21)
(0.676824 -0.00227353 -7.52019e-21)
(0.579779 -0.0153902 -2.36785e-21)
(0.601119 -0.014637 -5.4678e-21)
(0.621473 -0.0139161 -1.1459e-20)
(0.640889 -0.0132277 -3.40947e-21)
(0.659407 -0.0125713 8.28011e-22)
(0.677081 -0.0119413 -3.63133e-21)
(0.580398 -0.02767 2.53596e-20)
(0.601715 -0.0263366 3.36914e-21)
(0.622046 -0.0250653 2.80274e-20)
(0.641441 -0.0238552 -2.48718e-20)
(0.65994 -0.022704 -8.03593e-21)
(0.677594 -0.0216015 -1.09153e-20)
(0.581352 -0.0399312 -3.97311e-20)
(0.602628 -0.0380182 1.31175e-20)
(0.62292 -0.0361973 -5.2532e-20)
(0.642277 -0.0344661 6.17737e-20)
(0.660744 -0.0328205 1.27631e-20)
(0.678364 -0.0312461 -7.48096e-21)
(0.58264 -0.0521636 2.93522e-20)
(0.603858 -0.0496724 -2.66141e-20)
(0.624094 -0.047303 1.87473e-20)
(0.643398 -0.0450518 1.73816e-20)
(0.661818 -0.0429127 -1.01843e-20)
(0.679389 -0.0408674 -2.04338e-20)
(0.584261 -0.0643573 4.13218e-20)
(0.605403 -0.0612895 8.14377e-20)
(0.625567 -0.0583734 -5.81537e-20)
(0.644802 -0.0556037 6.83706e-21)
(0.663161 -0.0529725 -1.44068e-20)
(0.68067 -0.0504576 -1.49844e-20)
(0.586214 -0.076502 -3.09508e-20)
(0.607263 -0.0728601 -6.86188e-20)
(0.627338 -0.0693994 -1.61863e-21)
(0.646489 -0.0661134 -8.70639e-20)
(0.664773 -0.0629918 5.57812e-20)
(0.682205 -0.0600091 8.00469e-20)
(0.588497 -0.0885878 -1.36441e-19)
(0.609437 -0.0843746 4.83231e-20)
(0.629406 -0.0803721 1.71631e-20)
(0.648457 -0.0765724 1.02471e-19)
(0.666652 -0.0729625 -6.82312e-20)
(0.683994 -0.0695143 -3.38684e-20)
(0.591109 -0.100605 1.76222e-20)
(0.611921 -0.0958237 -8.61649e-20)
(0.631769 -0.0912826 -1.84703e-20)
(0.650704 -0.0869722 7.07312e-21)
(0.668797 -0.0828765 9.07393e-20)
(0.686034 -0.0789656 3.33302e-20)
(0.594048 -0.112543 1.47775e-19)
(0.614715 -0.107198 -6.54285e-20)
(0.634425 -0.102122 7.64118e-20)
(0.653229 -0.0973044 -7.6646e-20)
(0.671207 -0.092726 4.65279e-21)
(0.688324 -0.0883554 -4.49657e-20)
(0.59731 -0.124392 5.83814e-20)
(0.617816 -0.118488 6.84773e-20)
(0.637372 -0.112882 1.07192e-20)
(0.656029 -0.107561 2.58417e-21)
(0.673878 -0.102503 -6.72957e-20)
(0.690863 -0.0976763 -1.70425e-20)
(0.600893 -0.136143 -1.30579e-19)
(0.621221 -0.129685 -4.61186e-20)
(0.640607 -0.123553 3.92314e-20)
(0.659103 -0.117733 5.91096e-20)
(0.676809 -0.1122 1.01899e-19)
(0.693649 -0.106921 2.9274e-20)
(0.604794 -0.147786 1.76597e-19)
(0.624927 -0.140779 -1.05888e-19)
(0.644127 -0.134127 -1.29991e-19)
(0.662448 -0.127814 -9.95653e-21)
(0.679997 -0.121808 -1.00585e-19)
(0.696679 -0.116082 -4.4365e-20)
(0.628931 -0.151763 9.33617e-20)
(0.647931 -0.144595 9.91224e-20)
(0.66606 -0.137794 -2.2823e-19)
(0.68344 -0.131322 -9.11018e-21)
(0.69995 -0.125151 4.13084e-21)
(0.63323 -0.162626 -2.34113e-19)
(0.652013 -0.15495 -8.12056e-20)
(0.669937 -0.147666 1.51462e-19)
(0.687134 -0.140732 -1.7498e-20)
(0.703461 -0.134123 -7.33774e-20)
(0.63782 -0.17336 3.05352e-19)
(0.656371 -0.165182 1.29995e-19)
(0.674075 -0.157422 -1.65246e-19)
(0.691077 -0.150031 1.6706e-19)
(0.707208 -0.14299 8.0722e-20)
(0.642696 -0.183956 -5.23602e-20)
(0.661001 -0.175284 -5.71513e-21)
(0.678471 -0.167054 1.74193e-19)
(0.695265 -0.159213 -5.48089e-20)
(0.711188 -0.151744 -1.28628e-19)
(0.647855 -0.194407 -2.40464e-19)
(0.665899 -0.185248 -8.81676e-20)
(0.683121 -0.176556 -2.94183e-20)
(0.699695 -0.168269 -1.18464e-19)
(0.715398 -0.160379 6.21522e-21)
(0.653291 -0.204703 2.89745e-19)
(0.671061 -0.195066 1.29975e-19)
(0.688021 -0.185919 -4.29166e-20)
(0.704362 -0.177194 1.00048e-19)
(0.719835 -0.168889 1.14383e-19)
(0.659 -0.214838 -8.27965e-20)
(0.676481 -0.20473 -1.38702e-19)
(0.693167 -0.195136 4.71766e-20)
(0.709262 -0.18598 -2.17768e-19)
(0.724494 -0.177266 -1.75493e-19)
(0.682156 -0.214233 2.02259e-19)
(0.698554 -0.204201 1.18388e-19)
(0.714392 -0.19462 2.00515e-19)
(0.729372 -0.185504 1.94898e-19)
(0.688079 -0.223567 -1.3116e-19)
(0.704177 -0.213106 1.37298e-19)
(0.719747 -0.203108 -5.70378e-20)
(0.734465 -0.193598 -1.20898e-19)
(0.694247 -0.232727 -3.29919e-19)
(0.710032 -0.221844 -1.34207e-19)
(0.725322 -0.211438 3.94499e-20)
(0.739769 -0.20154 1.25545e-19)
(0.700654 -0.241703 2.59975e-20)
(0.716114 -0.23041 -1.9255e-19)
(0.731113 -0.219603 -4.39612e-20)
(0.745279 -0.209324 2.87298e-20)
(0.707293 -0.250491 1.17949e-20)
(0.722417 -0.238797 2.97197e-20)
(0.737114 -0.227597 3.82455e-19)
(0.750991 -0.216945 -6.25732e-20)
(0.728936 -0.246998 -1.84299e-20)
(0.743321 -0.235415 -1.88421e-20)
(0.756901 -0.224398 -2.72959e-19)
(0.735665 -0.255009 -2.82215e-19)
(0.749728 -0.243051 -7.48278e-20)
(0.763003 -0.231676 1.87093e-19)
(0.7426 -0.262822 5.22646e-19)
(0.75633 -0.250499 -7.63963e-20)
(0.769293 -0.238775 -5.01043e-20)
(0.749733 -0.270434 -2.0833e-19)
(0.763121 -0.257755 -1.80659e-19)
(0.775766 -0.245689 2.00798e-19)
(0.770097 -0.264814 9.55461e-20)
(0.782417 -0.252413 -3.16182e-19)
(0.77725 -0.271671 2.00689e-19)
(0.789241 -0.258943 1.09815e-19)
(0.784577 -0.278321 -3.56577e-20)
(0.796232 -0.265274 9.6251e-20)
(0.79207 -0.284761 1.50282e-20)
(0.803386 -0.271402 -7.51667e-20)
(0.810697 -0.277324 -5.50548e-20)
(0.81816 -0.283035 -1.2555e-19)
(0.82577 -0.288532 3.86503e-21)
(0.999984 0.00100961 0)
(0.99923 0.00309796 0)
(0.997785 0.00539681 0)
(0.995758 0.00796489 0)
(0.993191 0.0108939 0)
(0.990144 0.0142347 0)
(0.986645 0.0180387 0)
(0.982737 0.0223517 0)
(0.978439 0.0272188 0)
(0.973795 0.0326928 0)
(0.968824 0.0388262 0)
(0.963582 0.0456839 0)
(0.958096 0.0533307 0)
(0.952446 0.0618447 0)
(0.946672 0.0713016 0)
(0.940897 0.0817879 0)
(0.935173 0.0933833 0)
(0.929688 0.106171 0)
(0.924493 0.120223 0)
(0.919886 0.135598 0)
(0.915866 0.152343 0)
(0.912929 0.170453 0)
(0.910882 0.189958 0)
(0.910656 0.210688 0)
(0.911441 0.232791 0)
(0.91533 0.255493 0)
(0.919648 0.28018 0)
(0.999985 0.00109098 0)
(0.999252 0.00334357 0)
(0.997849 0.00579644 0)
(0.99588 0.00851948 0)
(0.993394 0.0116011 0)
(0.990448 0.0150959 0)
(0.987077 0.0190551 0)
(0.983325 0.0235247 0)
(0.979217 0.0285496 0)
(0.974803 0.0341796 0)
(0.970108 0.0404655 0)
(0.965196 0.0474659 0)
(0.960099 0.0552416 0)
(0.95491 0.0638592 0)
(0.949674 0.0733875 0)
(0.944529 0.0838943 0)
(0.939527 0.0954501 0)
(0.934878 0.108108 0)
(0.930624 0.121932 0)
(0.927086 0.136932 0)
(0.924234 0.153162 0)
(0.922606 0.170522 0)
(0.921912 0.189116 0)
(0.923197 0.208536 0)
(0.925387 0.229273 0)
(0.930914 0.249737 0)
(0.936277 0.272736 -1.65041e-28)
(0.999985 0.00117259 0)
(0.999277 0.00358961 0)
(0.997922 0.00619831 0)
(0.996021 0.00907838 0)
(0.993626 0.0123156 0)
(0.990797 0.0159677 0)
(0.98757 0.0200858 0)
(0.983994 0.0247156 0)
(0.980098 0.0299016 0)
(0.975937 0.0356905 0)
(0.971541 0.0421309 0)
(0.966981 0.0492745 0)
(0.962295 0.0571776 0)
(0.957583 0.0658944 0)
(0.952895 0.0754866 0)
(0.948379 0.0860016 0)
(0.944087 0.0975004 0)
(0.94024 0.110004 0)
(0.936868 0.12357 0)
(0.93431 0.138153 0)
(0.932497 0.153822 0)
(0.932001 0.170377 0)
(0.932442 0.188004 0)
(0.93493 0.20606 0)
(0.938205 0.22536 0)
(0.944817 0.243673 0)
(0.950901 0.26471 0)
(0.999986 0.00125374 0)
(0.999303 0.00383329 0)
(0.998 0.00659641 0)
(0.996173 0.0096306 0)
(0.993879 0.0130202 0)
(0.991178 0.0168248 0)
(0.988107 0.021096 0)
(0.984722 0.0258787 0)
(0.981054 0.0312167 0)
(0.977163 0.0371532 0)
(0.973084 0.0437347 0)
(0.968894 0.051006 0)
(0.964635 0.0590184 0)
(0.960414 0.0678145 0)
(0.956283 0.0774484 0)
(0.952397 0.0879489 0)
(0.948805 0.0993679 0)
(0.945734 0.111698 0)
(0.943202 0.124988 0)
(0.941553 0.139151 0)
(0.940687 0.154264 0)
(0.941179 0.170045 0)
(0.942597 0.186753 0)
(0.946037 0.203571 0)
(0.950189 0.221535 0)
(0.957475 0.238082 0)
(0.964195 0.257329 0)
(0.999986 0.00133345 0)
(0.99933 0.00407185 0)
(0.998082 0.00698571 0)
(0.996335 0.0101688 0)
(0.994147 0.0137045 0)
(0.991581 0.0176537 0)
(0.988677 0.022068 0)
(0.985493 0.0269912 0)
(0.982065 0.0324659 0)
(0.978457 0.0385317 0)
(0.974707 0.0452318 0)
(0.970898 0.0526041 0)
(0.967076 0.0606944 0)
(0.963353 0.0695337 0)
(0.959781 0.0791679 0)
(0.956519 0.0896081 0)
(0.953613 0.100897 0)
(0.95129 0.113 0)
(0.949555 0.125963 0)
(0.948748 0.139654 0)
(0.948748 0.154166 0)
(0.950103 0.169149 0)
(0.952371 0.184919 0)
(0.956564 0.200543 0)
(0.961435 0.217201 0)
(0.969143 0.232182 0)
(0.976385 0.249766 0)
(0.999986 0.00141134 0)
(0.999359 0.00430425 0)
(0.998168 0.00736441 0)
(0.996504 0.0106906 0)
(0.994428 0.0143655 0)
(0.992003 0.0184508 0)
(0.989272 0.0229976 0)
(0.986297 0.0280482 0)
(0.983117 0.0336437 0)
(0.979799 0.0398193 0)
(0.976387 0.0466147 0)
(0.972965 0.0540604 0)
(0.969584 0.0621961 0)
(0.966357 0.0710412 0)
(0.963339 0.0806332 0)
(0.960688 0.0909661 0)
(0.958446 0.102073 0)
(0.956834 0.113896 0)
(0.95585 0.126476 0)
(0.955813 0.139646 0)
(0.956597 0.153509 0)
(0.958701 0.167664 0)
(0.961701 0.182471 0)
(0.966487 0.196925 0)
(0.971932 0.212297 0)
(0.979894 0.225827 0)
(0.987495 0.241816 0)
(0.999987 0.00148716 0)
(0.999389 0.00452986 0)
(0.998258 0.00773147 0)
(0.99668 0.0111946 0)
(0.994719 0.0150016 0)
(0.992439 0.0192139 0)
(0.989888 0.0238823 0)
(0.987127 0.029047 0)
(0.9842 0.034747 0)
(0.981177 0.041013 0)
(0.978105 0.0478808 0)
(0.975073 0.0553731 0)
(0.97213 0.0635232 0)
(0.969394 0.0723391 0)
(0.966919 0.0818499 0)
(0.964857 0.0920333 0)
(0.963251 0.102915 0)
(0.962307 0.114413 0)
(0.962022 0.126566 0)
(0.962682 0.139178 0)
(0.964169 0.152362 0)
(0.966914 0.165679 0)
(0.970534 0.179523 0)
(0.975783 0.192851 0)
(0.981668 0.206978 0)
(0.989756 0.219169 0)
(0.997568 0.23365 0)
(0.999988 0.00156069 0)
(0.99942 0.00474802 0)
(0.99835 0.00808574 0)
(0.996862 0.0116793 0)
(0.995019 0.0156105 0)
(0.992889 0.0199405 0)
(0.99052 0.024719 0)
(0.987977 0.0299839 0)
(0.985307 0.0357718 0)
(0.982582 0.0421087 0)
(0.979851 0.0490258 0)
(0.977204 0.0565383 0)
(0.974695 0.0646729 0)
(0.972438 0.0734263 0)
(0.970488 0.0828198 0)
(0.968989 0.0928159 0)
(0.967985 0.103433 0)
(0.967663 0.11457 0)
(0.968019 0.126262 0)
(0.969305 0.138293 0)
(0.97141 0.150781 0)
(0.974701 0.163266 0)
(0.978834 0.176163 0)
(0.984436 0.18842 0)
(0.990644 0.201363 0)
(0.99876 0.212331 0)
(1.00667 0.225416 0)
(0.999988 0.00163166 0)
(0.999453 0.004958 0)
(0.998445 0.00842597 0)
(0.997049 0.0121429 0)
(0.995328 0.0161901 0)
(0.99335 0.0206276 0)
(0.991167 0.0255042 0)
(0.988845 0.0308551 0)
(0.986432 0.0367139 0)
(0.984004 0.0431019 0)
(0.981612 0.0500455 0)
(0.979346 0.0575521 0)
(0.977261 0.0656423 0)
(0.975467 0.0743017 0)
(0.974021 0.0835444 0)
(0.973056 0.093319 0)
(0.972615 0.103637 0)
(0.972864 0.114383 0)
(0.973802 0.12559 0)
(0.975642 0.137023 0)
(0.978285 0.14881 0)
(0.982031 0.160478 0)
(0.98658 0.172453 0)
(0.99244 0.183701 0)
(0.998872 0.195528 2.29375e-28)
(1.00694 0.205383 -2.40508e-28)
(1.01486 0.217189 0)
(0.999989 0.00169983 0)
(0.999486 0.00515907 0)
(0.998543 0.00875092 0)
(0.99724 0.0125837 0)
(0.995644 0.016738 0)
(0.993821 0.0212728 0)
(0.991825 0.0262351 0)
(0.989724 0.0316572 0)
(0.98757 0.0375699 0)
(0.985437 0.0439891 0)
(0.98338 0.0509367 0)
(0.981485 0.0584123 0)
(0.979812 0.0664303 0)
(0.978463 0.0749663 0)
(0.977495 0.0840275 0)
(0.977031 0.0935504 0)
(0.977112 0.103541 0)
(0.977882 0.113872 0)
(0.979341 0.124573 0)
(0.981665 0.135402 0)
(0.984767 0.146489 0)
(0.988887 0.157362 0)
(0.993763 0.168449 0)
(0.999799 0.178748 0)
(1.00637 0.189531 0)
(1.01433 0.198375 0)
(1.0222 0.209014 0)
(0.999989 0.00176492 0)
(0.99952 0.00535052 0)
(0.998643 0.00905939 0)
(0.997436 0.013 0)
(0.995965 0.0172524 0)
(0.994298 0.0218735 0)
(0.992492 0.0269088 0)
(0.990612 0.0323874 0)
(0.988715 0.0383368 0)
(0.986873 0.0447678 0)
(0.985143 0.0516973 0)
(0.983611 0.0591178 0)
(0.982333 0.0670376 0)
(0.981409 0.075423 0)
(0.980892 0.0842751 0)
(0.980893 0.0935203 0)
(0.981453 0.10316 0)
(0.982692 0.113057 0)
(0.984612 0.123241 0)
(0.987354 0.133465 0)
(0.990841 0.143861 0)
(0.995259 0.153965 0)
(1.00038 0.164203 0)
(1.00652 0.173614 0)
(1.01316 0.183427 0)
(1.02097 0.191353 0)
(1.02873 0.200929 0)
(0.99999 0.00182671 0)
(0.999555 0.00553167 0)
(0.998745 0.00935024 0)
(0.997634 0.0133904 0)
(0.996291 0.0177312 0)
(0.994781 0.0224276 0)
(0.993164 0.027523 0)
(0.991505 0.0330432 0)
(0.989861 0.0390123 0)
(0.988305 0.0454358 0)
(0.986895 0.0523262 0)
(0.985711 0.0596687 0)
(0.984813 0.0674661 0)
(0.984289 0.0756765 0)
(0.984195 0.0842953 0)
(0.984626 0.0932408 0)
(0.985619 0.10251 0)
(0.987277 0.111961 0)
(0.989599 0.121622 0)
(0.992696 0.131246 0)
(0.996499 0.140965 0)
(1.00115 0.150332 0)
(1.00645 0.159763 0)
(1.01263 0.168347 0)
(1.01928 0.17726 0)
(1.02689 0.184356 0)
(1.0345 0.192967 0)
(0.999991 0.00188496 0)
(0.99959 0.00570186 0)
(0.998848 0.00962236 0)
(0.997835 0.0137534 0)
(0.996619 0.0181727 0)
(0.995268 0.022933 0)
(0.993838 0.0280755 0)
(0.992397 0.0336224 0)
(0.991004 0.0395944 0)
(0.989727 0.045992 0)
(0.988626 0.052823 0)
(0.987777 0.0600662 0)
(0.987239 0.067719 0)
(0.987092 0.0757325 0)
(0.987389 0.0840971 0)
(0.988212 0.092725 0)
(0.989596 0.10161 0)
(0.991623 0.110608 0)
(0.994292 0.119744 0)
(0.997684 0.128778 0)
(1.00174 0.13784 0)
(1.00656 0.146504 0)
(1.01197 0.155172 0)
(1.01815 0.162989 1.0172e-28)
(1.02475 0.171073 -1.06678e-28)
(1.03214 0.177417 9.21744e-29)
(1.03957 0.185154 -9.66264e-29)
(0.999992 0.00193944 0)
(0.999626 0.00586045 0)
(0.998952 0.00987474 0)
(0.998037 0.0140876 0)
(0.99695 0.0185753 0)
(0.995755 0.0233879 0)
(0.994512 0.0285644 0)
(0.993286 0.0341233 0)
(0.992137 0.0400819 0)
(0.991131 0.0464358 0)
(0.990328 0.0531883 0)
(0.989799 0.0603123 0)
(0.9896 0.0678004 0)
(0.989805 0.0755979 0)
(0.990461 0.0836908 0)
(0.99164 0.0919873 0)
(0.993372 0.100478 0)
(0.995719 0.109019 0)
(0.998682 0.117635 0)
(1.00231 0.126094 0)
(1.00657 0.134522 0)
(1.0115 0.142519 0)
(1.01698 0.15047 0)
(1.02311 0.157576 0)
(1.02962 0.164898 0)
(1.03677 0.170564 0)
(1.04399 0.177509 0)
(0.999992 0.00198995 0)
(0.999662 0.00600687 0)
(0.999056 0.0101064 0)
(0.99824 0.0143918 0)
(0.99728 0.0189374 0)
(0.996241 0.0237908 0)
(0.995182 0.0289882 0)
(0.994167 0.0345447 0)
(0.993255 0.040474 0)
(0.992511 0.0467672 0)
(0.991993 0.0534232 0)
(0.991767 0.0604101 0)
(0.991886 0.0677156 0)
(0.992416 0.0752808 0)
(0.993401 0.0830876 0)
(0.994899 0.0910424 0)
(0.996936 0.0991335 0)
(0.999559 0.107219 0)
(1.00277 0.115322 0)
(1.00659 0.123223 0)
(1.01099 0.131045 0)
(1.01599 0.138411 0)
(1.02148 0.145691 0)
(1.02753 0.152142 0)
(1.03392 0.158764 0)
(1.04081 0.163818 0)
(1.0478 0.170049 -1.00267e-28)
(0.999993 0.00203627 0)
(0.999698 0.00614057 0)
(0.999161 0.0103165 0)
(0.998443 0.0146649 0)
(0.997609 0.0192579 0)
(0.996723 0.0241403 0)
(0.995845 0.0293457 0)
(0.995036 0.0348857 0)
(0.994354 0.0407705 0)
(0.993862 0.046987 0)
(0.993614 0.05353 0)
(0.993673 0.0603633 0)
(0.994088 0.0674706 0)
(0.994917 0.0747898 0)
(0.996198 0.0822995 0)
(0.997979 0.0899057 0)
(1.00028 0.0975949 0)
(1.00314 0.10523 0)
(1.00654 0.112832 0)
(1.01051 0.120196 0)
(1.01501 0.127438 0)
(1.02003 0.13421 0)
(1.02551 0.140865 0)
(1.03144 0.146712 0)
(1.03769 0.152694 0)
(1.04431 0.157196 0)
(1.05106 0.162782 0)
(0.999994 0.00207825 0)
(0.999734 0.00626105 0)
(0.999265 0.0105043 0)
(0.998644 0.0149058 0)
(0.997935 0.0195356 0)
(0.9972 0.0244354 0)
(0.996498 0.0296362 0)
(0.995889 0.035146 0)
(0.995428 0.0409717 -1.11367e-27)
(0.995176 0.0470965 1.16969e-27)
(0.995184 0.0535113 0)
(0.995509 0.0601765 0)
(0.996198 0.0670723 0)
(0.997298 0.0741343 0)
(0.998846 0.0813389 0)
(1.00088 0.0885927 0)
(1.00341 0.0958812 0)
(1.00646 0.103073 0)
(1.01002 0.11019 0)
(1.01409 0.117037 0)
(1.01865 0.12373 0)
(1.02366 0.129946 0)
(1.02908 0.136019 0)
(1.03488 0.141312 0)
(1.04096 0.146709 0)
(1.04731 0.150715 0)
(1.05381 0.155718 0)
(0.999995 0.00211572 0)
(0.99977 0.00636789 0)
(0.999368 0.0106691 0)
(0.998842 0.0151139 0)
(0.998257 0.0197697 0)
(0.99767 0.0246755 0)
(0.997139 0.0298591 0)
(0.996722 0.0353256 0)
(0.996473 0.0410785 0)
(0.996448 0.0470977 0)
(0.996697 0.0533707 0)
(0.997269 0.0598551 0)
(0.998208 0.0665281 0)
(0.999553 0.0733245 0)
(1.00134 0.0802184 0)
(1.00358 0.0871191 0)
(1.0063 0.0940111 0)
(1.00951 0.10077 0)
(1.01319 0.107417 0)
(1.01734 0.113773 0)
(1.02191 0.119946 0)
(1.02689 0.125642 0)
(1.03223 0.131175 0)
(1.03787 0.13596 0)
(1.04377 0.140823 0)
(1.04985 0.144383 0)
(1.05609 0.148861 0)
(0.999995 0.00214854 0)
(0.999806 0.00646071 0)
(0.999469 0.0108103 0)
(0.999038 0.0152884 0)
(0.998572 0.0199596 0)
(0.998129 0.02486 0)
(0.997764 0.0300145 0)
(0.997531 0.0354251 0)
(0.997484 0.0410923 0)
(0.997673 0.0469931 0)
(0.998146 0.0531121 0)
(0.998946 0.0594048 0)
(1.00011 0.065846 0)
(1.00168 0.0723705 0)
(1.00367 0.0789512 0)
(1.0061 0.0855003 0)
(1.00898 0.0920024 0)
(1.0123 0.0983409 0)
(1.01607 0.104537 0)
(1.02025 0.110424 0)
(1.02482 0.116109 0)
(1.02974 0.121319 0)
(1.03497 0.126354 0)
(1.04044 0.130673 0)
(1.04614 0.135051 0)
(1.05195 0.138209 0)
(1.05795 0.142214 0)
(0.999996 0.0021766 0)
(0.99984 0.00653921 0)
(0.999569 0.0109274 0)
(0.99923 0.0154288 0)
(0.998881 0.0201049 0)
(0.998576 0.0249887 0)
(0.99837 0.0301025 0)
(0.998313 0.0354453 0)
(0.998457 0.041015 0)
(0.998847 0.046786 0)
(0.999527 0.0527403 0)
(1.00053 0.0588322 0)
(1.00191 0.0650346 0)
(1.00366 0.0712832 0)
(1.00583 0.0775501 0)
(1.00842 0.0837516 0)
(1.01142 0.0898726 0)
(1.01484 0.0958046 0)
(1.01866 0.101569 0)
(1.02285 0.107013 0)
(1.02739 0.112239 0)
(1.03222 0.116998 0)
(1.03733 0.121573 0)
(1.04262 0.125467 0)
(1.04813 0.129401 0)
(1.05367 0.132199 0)
(1.0594 0.135776 0)
(0.999997 0.0021998 0)
(0.999875 0.00660315 0)
(0.999666 0.0110203 0)
(0.999417 0.0155349 0)
(0.999181 0.0202054 0)
(0.99901 0.0250619 0)
(0.998956 0.0301238 0)
(0.999066 0.0353878 0)
(0.999388 0.0408489 0)
(0.999964 0.0464798 5.99421e-28)
(1.00083 0.0522603 -6.29547e-28)
(1.00203 0.058144 0)
(1.00358 0.0641027 0)
(1.00551 0.0700733 0)
(1.00783 0.0760281 0)
(1.01054 0.0818878 0)
(1.01365 0.0876381 0)
(1.01713 0.0931789 0)
(1.02098 0.0985313 0)
(1.02515 0.103557 0)
(1.02963 0.108354 0)
(1.03436 0.112694 0)
(1.03933 0.116845 0)
(1.04444 0.120351 0)
(1.04974 0.123883 -7.84709e-29)
(1.05502 0.126356 8.22781e-29)
(1.0605 0.129548 0)
(0.999998 0.00221809 0)
(0.999908 0.00665236 0)
(0.999761 0.0110886 0)
(0.999598 0.0156065 0)
(0.999471 0.0202612 0)
(0.999428 0.02508 0)
(0.999518 0.0300795 0)
(0.999785 0.0352543 0)
(1.00027 0.0405969 0)
(1.00102 0.0460788 0)
(1.00207 0.0516777 0)
(1.00343 0.0573476 0)
(1.00515 0.0630592 0)
(1.00722 0.0687517 0)
(1.00966 0.0743979 0)
(1.01247 0.0799233 0)
(1.01565 0.0853148 0)
(1.01917 0.0904807 0)
(1.02302 0.0954422 0)
(1.02716 0.100074 0)
(1.03157 0.10447 0)
(1.03618 0.108423 0)
(1.041 0.112184 0)
(1.04592 0.115335 0)
(1.05101 0.118502 0)
(1.05603 0.120684 0)
(1.06127 0.123528 0)
(0.999998 0.00223142 0)
(0.99994 0.00668676 0)
(0.999852 0.0111324 0)
(0.999773 0.0156437 0)
(0.99975 0.0202726 0)
(0.999828 0.0250437 0)
(1.00005 0.029971 0)
(1.00047 0.035047 0)
(1.00111 0.0402622 0)
(1.00202 0.0455872 0)
(1.00322 0.0509984 0)
(1.00473 0.0564503 0)
(1.00659 0.0619133 0)
(1.00878 0.0673294 0)
(1.01133 0.072672 0)
(1.01422 0.077872 0)
(1.01744 0.0829177 0)
(1.02097 0.0877254 0)
(1.02481 0.0923169 0)
(1.02889 0.0965791 0)
(1.03321 0.100601 0)
(1.03769 0.104197 0)
(1.04236 0.107599 0)
(1.04708 0.110428 0)
(1.05196 0.113263 0)
(1.05674 0.115183 6.44542e-29)
(1.06173 0.117714 -6.7566e-29)
(0.999999 0.00223978 0)
(0.999971 0.00670635 0)
(0.99994 0.0111516 0)
(0.99994 0.0156468 0)
(1.00002 0.0202402 0)
(1.00021 0.0249541 0)
(1.00056 0.0297999 0)
(1.00111 0.0347684 0)
(1.0019 0.0398484 0)
(1.00295 0.04501 0)
(1.00429 0.0502287 0)
(1.00594 0.0554599 0)
(1.00791 0.0606744 -7.89673e-28)
(1.0102 0.0658171 8.29221e-28)
(1.01283 0.0708626 0)
(1.01577 0.0757472 0)
(1.01902 0.0804608 0)
(1.02255 0.0849277 0)
(1.02635 0.0891699 0)
(1.03035 0.0930859 0)
(1.03458 0.0967609 0)
(1.03892 0.100026 0)
(1.04343 0.1031 0)
(1.04796 0.105635 -3.47251e-29)
(1.05263 0.108169 3.6417e-29)
(1.05717 0.109855 0)
(1.06192 0.112103 0)
(0.999999 0.00224318 0)
(1 0.00671119 0)
(1.00002 0.0111465 0)
(1.0001 0.0156161 0)
(1.00027 0.0201648 0)
(1.00057 0.0248126 0)
(1.00104 0.0295682 0)
(1.00172 0.0344214 0)
(1.00264 0.0393595 0)
(1.00381 0.0443522 0)
(1.00527 0.0493748 0)
(1.00703 0.0543842 0)
(1.00911 0.0593515 0)
(1.01148 0.0642252 0)
(1.01417 0.0689813 0)
(1.01714 0.0735615 0)
(1.0204 0.0779572 0)
(1.02391 0.0821008 0)
(1.02765 0.0860142 0)
(1.03157 0.0896068 0)
(1.03568 0.0929597 0)
(1.03989 0.0959207 0)
(1.04423 0.0986938 0)
(1.04857 0.100962 0)
(1.05303 0.103222 0)
(1.05733 0.104698 0)
(1.06186 0.10669 -7.74576e-29)
(1 0.00224167 0)
(1.00003 0.00670144 0)
(1.0001 0.0111174 0)
(1.00025 0.0155522 0)
(1.00051 0.0200475 0)
(1.00091 0.0246205 0)
(1.00149 0.0292782 0)
(1.00229 0.0340092 0)
(1.00332 0.0387995 0)
(1.00461 0.0436193 0)
(1.00618 0.0484436 0)
(1.00803 0.053231 0)
(1.01018 0.0579539 0)
(1.01262 0.0625641 0)
(1.01535 0.0670393 0)
(1.01834 0.0713267 0)
(1.02159 0.0754194 0)
(1.02506 0.0792569 0)
(1.02873 0.0828616 0)
(1.03256 0.0861527 0)
(1.03655 0.0892073 0)
(1.04061 0.0918884 0)
(1.04478 0.0943861 0)
(1.04893 0.0964112 0)
(1.05319 0.0984243 0)
(1.05727 0.099711 0)
(1.06157 0.101474 0)
(1 0.00223531 0)
(1.00006 0.00667733 0)
(1.00018 0.0110648 0)
(1.00039 0.0154561 0)
(1.00073 0.0198894 0)
(1.00123 0.0243799 0)
(1.00191 0.0289326 0)
(1.00281 0.0335352 0)
(1.00394 0.038173 0)
(1.00533 0.0428167 0)
(1.00699 0.0474416 0)
(1.00893 0.0520084 0)
(1.01115 0.0564906 0)
(1.01363 0.0608437 0)
(1.01638 0.0650475 0)
(1.01937 0.0690541 0)
(1.02259 0.0728586 0)
(1.02601 0.0764073 0)
(1.02961 0.0797228 0)
(1.03333 0.0827334 0)
(1.03719 0.0855121 0)
(1.0411 0.0879361 0)
(1.04511 0.0901821 0)
(1.04906 0.0919868 0)
(1.05312 0.0937757 0)
(1.05699 0.0948934 0)
(1.06107 0.0964486 0)
(1 0.0022242 0)
(1.00008 0.00663916 0)
(1.00025 0.0109892 0)
(1.00053 0.0153285 0)
(1.00094 0.019692 0)
(1.00152 0.0240927 0)
(1.0023 0.028534 0)
(1.00329 0.0330031 0)
(1.00451 0.0374846 0)
(1.00599 0.0419502 0)
(1.00773 0.0463757 0)
(1.00973 0.050724 0)
(1.01199 0.0549703 0)
(1.0145 0.0590736 0)
(1.01726 0.0630159 -8.04835e-28)
(1.02024 0.0667543 8.4502e-28)
(1.02342 0.0702855 0)
(1.02677 0.0735623 0)
(1.03028 0.0766073 0)
(1.03389 0.0793574 0)
(1.03762 0.0818814 0)
(1.04138 0.0840695 0)
(1.04522 0.0860856 0)
(1.04899 0.0876905 0)
(1.05285 0.0892765 0)
(1.05651 0.090243 0)
(1.06039 0.0916112 0)
(1 0.00220845 0)
(1.0001 0.00658732 0)
(1.00032 0.0108914 0)
(1.00065 0.0151707 0)
(1.00114 0.0194569 0)
(1.00179 0.0237613 0)
(1.00265 0.0280856 0)
(1.00372 0.0324167 0)
(1.00503 0.0367391 0)
(1.00658 0.0410255 0)
(1.00838 0.0452525 0)
(1.01043 0.0493855 0)
(1.01272 0.0534014 0)
(1.01525 0.057263 0)
(1.018 0.0609541 0)
(1.02095 0.0644369 0)
(1.02408 0.0677096 0)
(1.02735 0.0707311 0)
(1.03077 0.0735237 0)
(1.03427 0.0760322 0)
(1.03786 0.0783215 0)
(1.04146 0.0802934 0)
(1.04513 0.0820998 0)
(1.04873 0.0835237 0)
(1.0524 0.0849262 0)
(1.05586 0.0857575 0)
(1.05953 0.0869574 0)
(1 0.00218822 0)
(1.00013 0.00652225 0)
(1.00038 0.0107722 0)
(1.00076 0.0149839 0)
(1.00131 0.0191859 0)
(1.00204 0.023388 0)
(1.00297 0.0275904 0)
(1.00411 0.03178 0)
(1.00549 0.0359414 0)
(1.0071 0.0400484 0)
(1.00895 0.0440788 0)
(1.01103 0.0480006 0)
(1.01334 0.0517923 0)
(1.01587 0.0554206 0)
(1.0186 0.0588713 0)
(1.02151 0.0621112 0)
(1.02458 0.06514 0)
(1.02777 0.0679221 0)
(1.03109 0.0704797 0)
(1.03446 0.0727645 0)
(1.03792 0.0748377 0)
(1.04137 0.0766117 0)
(1.04487 0.0782272 0)
(1.04829 0.0794872 0)
(1.05178 0.080724 4.80766e-29)
(1.05505 0.0814346 -5.04084e-29)
(1.05853 0.0824831 0)
(1 0.00216366 0)
(1.00015 0.00644447 0)
(1.00043 0.0106325 0)
(1.00087 0.0147694 0)
(1.00147 0.018881 0)
(1.00226 0.0229754 0)
(1.00326 0.0270519 0)
(1.00446 0.0310973 0)
(1.00589 0.0350965 0)
(1.00755 0.0390247 0)
(1.00943 0.0428612 0)
(1.01154 0.0465764 0)
(1.01386 0.0501509 0)
(1.01638 0.0535547 0)
(1.01908 0.0567759 0)
(1.02193 0.0597854 0)
(1.02493 0.0625847 0)
(1.02804 0.0651428 0)
(1.03125 0.0674819 0)
(1.0345 0.0695599 0)
(1.03781 0.0714346 0)
(1.04111 0.0730277 0)
(1.04446 0.0744694 0)
(1.0477 0.0755813 0)
(1.05101 0.0766685 0)
(1.0541 0.0772717 0)
(1.05739 0.0781842 0)
(1 0.00213496 0)
(1.00016 0.00635456 0)
(1.00048 0.0104732 0)
(1.00096 0.0145288 0)
(1.00162 0.0185443 0)
(1.00246 0.0225263 0)
(1.00351 0.0264734 0)
(1.00477 0.0303726 0)
(1.00624 0.0342093 0)
(1.00794 0.0379603 0)
(1.00985 0.0416062 0)
(1.01196 0.04512 0)
(1.01428 0.0484845 0)
(1.01677 0.051673 0)
(1.01943 0.0546757 0)
(1.02223 0.0574675 0)
(1.02515 0.060051 0)
(1.02816 0.0624 0)
(1.03126 0.0645363 0)
(1.03439 0.0664236 0)
(1.03756 0.068116 0)
(1.04071 0.069544 0)
(1.04389 0.0708277 0)
(1.04697 0.0718059 0)
(1.05011 0.0727584 0)
(1.05302 0.0732659 6.63384e-29)
(1.05614 0.0740563 -6.95401e-29)
(1 0.00210233 0)
(1.00018 0.00625316 0)