/*--------------------------------*- C++ -*----------------------------------*\
  =========                 |
  \\      /  F ield         | OpenFOAM: The Open Source CFD Toolbox
   \\    /   O peration     | Website:  https://openfoam.org
    \\  /    A nd           | Version:  7
     \\/     M anipulation  |
\*---------------------------------------------------------------------------*/
FoamFile
{
    version     2.0;
    format      ascii;
    class       surfaceScalarField;
    location    "200";
    object      phi;
}
// * * * * * * * * * * * * * * * * * * * * * * * * * * * * * * * * * * * * * //

dimensions      [0 3 -1 0 0 0 0];

internalField   nonuniform List<scalar> 
8923
(
0.000791988
0.00781894
-0.00795026
0.000882754
0.00884759
-0.00893835
0.00092773
0.00930638
-0.00935135
0.000922616
0.00946607
-0.00946096
0.000868484
0.00959823
-0.0095441
0.000799975
0.00967453
-0.00960602
0.000786603
0.00906113
-0.00904775
0.000869293
0.00700379
-0.00708648
0.0010235
0.00355644
-0.00371065
0.00120106
-0.000433884
0.000256323
0.00136441
-0.0040489
0.00388555
0.00149119
-0.00672748
0.0066007
0.001572
-0.00836214
0.00828132
0.0016092
-0.00918581
0.00914862
0.00161535
-0.00948631
0.00948016
0.00159896
-0.00947568
0.00949207
0.00155329
-0.009465
0.00951067
0.00147363
-0.00974234
0.009822
0.00138284
-0.0100119
0.0101027
0.00132326
-0.00931417
0.00937375
0.00132181
-0.0068844
0.00688585
0.00137529
-0.00297842
0.00292494
0.00133965
-0.00142523
0.000772197
0.00767762
0.00087178
0.00874801
0.000923571
0.00925459
0.000923092
0.00946655
0.000873598
0.00964772
0.000813039
0.00973509
0.000809725
0.00906444
0.000898401
0.00691512
0.00105161
0.00340323
0.00122336
-0.000605639
0.00137877
-0.00420431
0.00149748
-0.00684619
0.00157143
-0.00843609
0.0016032
-0.00921758
0.00160516
-0.00948827
0.00158595
-0.00945647
0.00153863
-0.00941768
0.00145759
-0.0096613
0.00136529
-0.00991958
0.00130529
-0.00925417
0.00130598
-0.00688509
0.00136377
-0.00303621
0.00124899
0.000752432
0.00752643
0.000860765
0.00863967
0.000919398
0.00919595
0.00092381
0.00946214
0.000879547
0.00969199
0.000827507
0.00978713
0.00083415
0.0090578
0.000928105
0.00682116
0.00107964
0.00325169
0.0012452
-0.000771195
0.00139248
-0.00435159
0.00150308
-0.00695679
0.00157025
-0.00850325
0.00159673
-0.00924407
0.00159465
-0.00948618
0.00157275
-0.00943457
0.00152397
-0.0093689
0.00144178
-0.00957911
0.00134805
-0.00982585
0.00128752
-0.00919364
0.00129009
-0.00688766
0.00135197
-0.00309809
0.00115341
0.000732722
0.0073656
0.00084971
0.00852268
0.000915203
0.00913046
0.00092478
0.00945256
0.000886341
0.00973042
0.00084333
0.00983014
0.000859755
0.00904137
0.000958281
0.00672264
0.00110753
0.00310244
0.00126653
-0.000930195
0.00140554
-0.0044906
0.00150801
-0.00705926
0.00156846
-0.00856369
0.00158981
-0.00926542
0.00158383
-0.00948021
0.00155939
-0.00941014
0.00150933
-0.00931884
0.00142619
-0.00949597
0.00133116
-0.00973082
0.00126997
-0.00913245
0.00127415
-0.00689185
0.00133986
-0.0031638
0.00105306
0.000713088
0.00719534
0.00083861
0.00839716
0.000910976
0.00905809
0.000926008
0.00943753
0.000893982
0.00976245
0.000860442
0.00986368
0.000886409
0.0090154
0.000988807
0.00662024
0.00113519
0.00295606
0.00128732
-0.00108232
0.00141794
-0.00462122
0.00151228
-0.0071536
0.00156608
-0.0086175
0.00158244
-0.00928179
0.00157272
-0.00947049
0.00154588
-0.00938329
0.00149472
-0.00926768
0.00141086
-0.0094121
0.00131463
-0.0096346
0.00125265
-0.00907046
0.00125817
-0.00689737
0.00132745
-0.00323308
0.000948099
0.000693547
0.00701592
0.000827454
0.00826326
0.000906703
0.00897885
0.000927495
0.00941674
0.000902456
0.00978749
0.000878764
0.00988737
0.000913974
0.00898019
0.00101956
0.00651465
0.00116255
0.00281307
0.00130753
-0.00122729
0.00142966
-0.00474335
0.00151588
-0.00723982
0.00156313
-0.00866474
0.00157465
-0.00929331
0.00156135
-0.00945718
0.00153223
-0.00935418
0.00148014
-0.00921559
0.00139577
-0.00932773
0.00129848
-0.0095373
0.00123558
-0.00900756
0.00124215
-0.00690394
0.00131474
-0.00330567
0.000838704
0.000674105
0.00682766
0.000816228
0.00812113
0.000902368
0.0088927
0.000929236
0.00938987
0.000911741
0.00980498
0.000898204
0.00990091
0.00094231
0.00893609
0.00105043
0.00640652
0.00118954
0.00267396
0.00132712
-0.00136487
0.0014407
-0.00485693
0.00151883
-0.00731795
0.00155962
-0.00870553
0.00156646
-0.00930016
0.00154972
-0.00944044
0.00151845
-0.00932292
0.0014656
-0.00916273
0.00138093
-0.00924306
0.0012827
-0.00943908
0.00121878
-0.00894364
0.00122609
-0.00691125
0.0013017
-0.00338128
0.000725044
0.000654762
0.00663087
0.000804909
0.00797099
0.000897952
0.00879966
0.000931221
0.0093566
0.000921803
0.0098144
0.000918659
0.00990405
0.000971272
0.00888348
0.0010813
0.0062965
0.00121609
0.00253917
0.00134606
-0.00149483
0.00145104
-0.00496191
0.00152113
-0.00738804
0.00155556
-0.00873996
0.00155787
-0.00930247
0.00153784
-0.00942041
0.00150455
-0.00928963
0.00145108
-0.00910926
0.00136633
-0.00915831
0.00126731
-0.00934006
0.00120226
-0.00887859
0.00121002
-0.00691901
0.00128835
-0.00345961
0.0006073
0.000635508
0.00642594
0.000793473
0.00781302
0.000893434
0.0086997
0.000933437
0.0093166
0.000932594
0.00981524
0.000940016
0.00989663
0.00100071
0.00882278
0.00111205
0.00618516
0.00124213
0.00240908
0.00136432
-0.00161702
0.00146068
-0.00505827
0.00152279
-0.00745015
0.00155096
-0.00876814
0.0015489
-0.0093004
0.00152573
-0.00939725
0.00149054
-0.00925444
0.00143661
-0.00905533
0.00135198
-0.00907368
0.00125232
-0.0092404
0.00118605
-0.00881232
0.00119392
-0.00692689
0.00127468
-0.00354037
0.00048566
0.000616331
0.00621325
0.000781892
0.00764746
0.000888792
0.0085928
0.000935863
0.00926953
0.000944062
0.00980705
0.000962153
0.00987854
0.00103049
0.00875444
0.00114256
0.00607309
0.00126759
0.00228405
0.00138186
-0.00173129
0.00146961
-0.00514602
0.00152382
-0.00750436
0.00154584
-0.00879016
0.00153955
-0.00929411
0.0015134
-0.0093711
0.00147641
-0.00921745
0.00142215
-0.00900107
0.00133785
-0.00898938
0.00123771
-0.00914026
0.00117014
-0.00874475
0.00117783
-0.00693457
0.00126069
-0.00362322
0.000360319
0.000597207
0.00599323
0.000770139
0.00747453
0.000884004
0.00847893
0.000938476
0.00921506
0.000956139
0.00978938
0.000984941
0.00984974
0.00106045
0.00867893
0.00117274
0.0059608
0.00129242
0.00216438
0.00139866
-0.00183752
0.00147782
-0.00522518
0.00152422
-0.00755076
0.00154021
-0.00880615
0.00152984
-0.00928374
0.00150086
-0.00934212
0.00146218
-0.00917877
0.00140772
-0.00894661
0.00132394
-0.0089056
0.0012235
-0.00903982
0.00115457
-0.00867582
0.00116175
-0.00694176
0.00124637
-0.00370784
0.00137521
0.000231483
0.00387955
0.000578113
0.00576631
0.000758182
0.00729446
0.000879047
0.00835807
0.000941248
0.00915286
0.000968755
0.00976187
0.00100825
0.00981025
0.00109046
0.00859672
0.00120248
0.00584878
0.00131655
0.00205031
0.00141469
-0.00193566
0.0014853
-0.00529579
0.00152399
-0.00758946
0.00153406
-0.00881622
0.00151976
-0.00926944
0.0014881
-0.00931047
0.00144784
-0.00913851
0.00139331
-0.00889208
0.00131024
-0.00882253
0.00120966
-0.00893924
0.00113933
-0.00860548
0.0011457
-0.00694813
0.00123174
-0.00379388
0.00136386
9.93685e-05
0.0037402
0.000559023
0.00553292
0.000745996
0.00710749
0.000873902
0.00823016
0.000944149
0.00908261
0.00098183
0.00972419
0.00103193
0.00976014
0.00112036
0.00850829
0.00123168
0.00573746
0.00133993
0.00194206
0.00142992
-0.00202565
0.00149204
-0.00535791
0.00152314
-0.00762055
0.00152741
-0.0088205
0.00150933
-0.00925136
0.00147514
-0.00927628
0.0014334
-0.00909676
0.00137889
-0.00883757
0.00129672
-0.00874036
0.0011962
-0.00883871
0.00112445
-0.00853373
0.0011297
-0.00695339
0.0012168
-0.00388098
0.00135197
-3.5798e-05
0.00359675
0.000539916
0.00529354
0.000733557
0.00691385
0.000868551
0.00809517
0.000947147
0.00900401
0.000995279
0.00967606
0.00105586
0.00969956
0.00115003
0.00841412
0.00126023
0.00562726
0.0013625
0.00183979
0.00144434
-0.00210749
0.00149804
-0.00541162
0.00152167
-0.00764418
0.00152027
-0.0088191
0.00149855
-0.00922964
0.00146198
-0.00923971
0.00141884
-0.00905362
0.00136447
-0.0087832
0.00128337
-0.00865926
0.00118309
-0.00873843
0.00110992
-0.00846056
0.00111377
-0.00695724
0.00120156
-0.00396877
0.00133954
-0.000173775
0.00344929
0.000520777
0.00504861
0.000720849
0.00671377
0.000862981
0.00795304
0.000950207
0.00891679
0.00100901
0.00961726
0.0010799
0.00962868
0.00117932
0.00831469
0.00128805
0.00551853
0.00138421
0.00174364
0.00145791
-0.00218119
0.0015033
-0.00545701
0.00151959
-0.00766047
0.00151264
-0.00881215
0.00148742
-0.00920441
0.00144861
-0.00920091
0.00140418
-0.00900919
0.00135002
-0.00872905
0.00127017
-0.00857941
0.00117032
-0.00863858
0.00109575
-0.00838599
0.00109793
-0.00695941
0.00118604
-0.00405689
0.00132655
-0.000314277
0.00329793
0.000501605
0.00479863
0.000707868
0.00650751
0.000857185
0.00780372
0.000953295
0.00882068
0.00102294
0.00954761
0.00110389
0.00954772
0.00120812
0.00821047
0.00131505
0.0054116
0.00140501
0.00165368
0.00147062
-0.0022468
0.00150779
-0.00549419
0.00151689
-0.00766956
0.00150453
-0.00879979
0.00147593
-0.00917582
0.00143504
-0.00916002
0.0013894
-0.00896354
0.00133554
-0.00867519
0.00125709
-0.00850096
0.00115788
-0.00853937
0.00108196
-0.00831007
0.00108219
-0.00695965
0.00117024
-0.00414494
0.00131303
-0.000457064
0.00314283
0.000482421
0.00454409
0.000694619
0.00629531
0.000851161
0.00764718
0.000956377
0.00871546
0.00103696
0.00946703
0.00112772
0.00945696
0.00123628
0.00810191
0.00134114
0.00530674
0.00142485
0.00156997
0.00148244
-0.00230439
0.00151153
-0.00552328
0.00151358
-0.00767161
0.00149594
-0.00878215
0.0014641
-0.00914398
0.00142127
-0.00911718
0.0013745
-0.00891677
0.001321
-0.00862169
0.0012441
-0.00842406
0.00114572
-0.00844099
0.00106853
-0.00823287
0.0010666
-0.00695772
0.00115418
-0.00423252
0.00129897
-0.000601853
0.00298411
0.000463263
0.00428551
0.000681126
0.00607745
0.000844918
0.00748339
0.000959422
0.00860096
0.00105099
0.00937545
0.00115125
0.00935671
0.0012637
0.00798945
0.00136625
0.0052042
0.00144371
0.0014925
0.00149337
-0.00235406
0.0015145
-0.0055444
0.00150966
-0.00766677
0.00148687
-0.00875936
0.00145192
-0.00910904
0.00140729
-0.00907254
0.00135947
-0.00886896
0.00130639
-0.00856861
0.00123119
-0.00834886
0.00113385
-0.00834365
0.00105546
-0.00815448
0.00105116
-0.00695342
0.00113789
-0.00431925
0.00128437
-0.000748342
0.00282194
0.000444196
0.00402349
0.000667432
0.00585421
0.000838474
0.00731234
0.0009624
0.00847703
0.00106494
0.00927291
0.00117434
0.00924731
0.00129027
0.00787352
0.00139029
0.00510417
0.00146153
0.00142127
0.00150339
-0.00239592
0.0015167
-0.00555771
0.00150513
-0.0076552
0.00147733
-0.00873156
0.00143939
-0.00907111
0.00139309
-0.00902624
0.00134432
-0.00882019
0.0012917
-0.008516
0.00121832
-0.00827547
0.00112221
-0.00824754
0.00104275
-0.00807502
0.0010359
-0.00694658
0.00112139
-0.00440473
0.00126926
-0.000896213
0.00265648
0.000425322
0.00375874
0.000653603
0.00562593
0.000831859
0.00713409
0.000965289
0.0083436
0.00107871
0.00915949
0.00119689
0.00912913
0.00131588
0.00775454
0.00141322
0.00500683
0.00147829
0.0013562
0.00151249
-0.00243012
0.00151813
-0.00556335
0.00149999
-0.00763706
0.00146732
-0.00869889
0.00142651
-0.0090303
0.00137868
-0.0089784
0.00132903
-0.00877054
0.0012769
-0.00846387
0.00120546
-0.00820403
0.00111079
-0.00815287
0.00103038
-0.00799461
0.00102085
-0.00693705
0.00110471
-0.00448859
0.00125363
-0.00104513
0.00248792
0.000406789
0.0034921
0.000639731
0.00539299
0.000825117
0.0069487
0.000968068
0.00820065
0.00109222
0.00903534
0.00121877
0.00900258
0.00134043
0.00763287
0.00143496
0.0049123
0.00149396
0.0012972
0.00152065
-0.00245682
0.00151878
-0.00556148
0.00149424
-0.00761251
0.00145684
-0.00866149
0.00141327
-0.00898673
0.00136404
-0.00892916
0.00131359
-0.0087201
0.00126198
-0.00841226
0.00119258
-0.00813463
0.00109955
-0.00805984
0.00101835
-0.00791341
0.00100603
-0.00692472
0.00108789
-0.00457046
0.0012375
-0.00119474
0.00231645
0.000388794
0.00322456
0.000625936
0.00515585
0.000818305
0.00675633
0.000970725
0.00804823
0.00110539
0.00890067
0.00123988
0.00886809
0.00136385
0.00750891
0.00145546
0.00482068
0.00150851
0.00124416
0.00152788
-0.00247619
0.00151866
-0.00555226
0.00148788
-0.00758174
0.0014459
-0.00861951
0.00139968
-0.0089405
0.00134916
-0.00887865
0.00129801
-0.00866894
0.00124692
-0.00836117
0.00117966
-0.00806737
0.00108847
-0.00796865
0.00100663
-0.00783158
0.000991441
-0.00690953
0.00107097
-0.00464998
0.0012209
-0.00134468
0.00214228
0.000371585
0.00295725
0.000612368
0.00491506
0.000811496
0.00655721
0.000973254
0.00788647
0.00111815
0.00875577
0.00126013
0.00872612
0.00138604
0.007383
0.00147469
0.00473204
0.00152192
0.00119692
0.00153416
-0.00248842
0.00151775
-0.00553585
0.00148091
-0.0075449
0.0014345
-0.0085731
0.00138572
-0.00889172
0.00133405
-0.00882698
0.00128226
-0.00861716
0.00123171
-0.00831062
0.00116666
-0.00800231
0.00107749
-0.00787949
0.000995207
-0.00774929
0.000977108
-0.00689143
0.00105397
-0.00472684
0.00120385
-0.00149456
0.00196567
0.00035546
0.00269153
0.000599209
0.00467131
0.000804779
0.00635164
0.000975659
0.00771559
0.00113043
0.008601
0.00127942
0.00857713
0.00140694
0.00725548
0.00149259
0.0046464
0.00153419
0.00115531
0.00153948
-0.00249372
0.00151607
-0.00551243
0.00147333
-0.00750217
0.00142263
-0.00852239
0.00137139
-0.00884049
0.00131868
-0.00877427
0.00126635
-0.00856482
0.00121632
-0.0082606
0.00115354
-0.00793953
0.0010666
-0.00779255
0.000984051
-0.00766674
0.000963037
-0.00687042
0.00103694
-0.00480074
0.00118638
-0.00164401
0.00178685
0.000340766
0.00058667
0.00442541
0.000798261
0.00614005
0.00097795
0.0075359
0.00114217
0.00843678
0.00129768
0.00842162
0.0014265
0.00712666
0.00150914
0.00456376
0.0015453
0.00111915
0.00154387
-0.00249228
0.0015136
-0.00548217
0.00146514
-0.00745371
0.00141029
-0.00846754
0.0013567
-0.0087869
0.00130305
-0.00872062
0.00125026
-0.00851203
0.00120075
-0.00821109
0.00114028
-0.00787906
0.00105576
-0.00770802
0.000973136
-0.00758412
0.000949232
-0.00684651
0.00101991
-0.00487142
0.00116853
-0.00179263
0.00160611
0.00057499
0.00417831
0.000792061
0.00592297
0.000980147
0.00734782
0.00115333
0.0082636
0.00131483
0.00826012
0.00144465
0.00699684
0.00152431
0.0044841
0.00155525
0.0010882
0.0015473
-0.00248433
0.00151036
-0.00544523
0.00145635
-0.00739969
0.0013975
-0.00840869
0.00134164
-0.00873105
0.00128715
-0.00866613
0.00123398
-0.00845886
0.00118498
-0.00816209
0.00112685
-0.00782092
0.00104492
-0.00762609
0.000962435
-0.00750164
0.000935693
-0.00681977
0.00100292
-0.00493864
0.00115032
-0.00194004
0.00142375
0.000564432
0.00393112
0.000786316
0.00570109
0.000982279
0.00715185
0.00116385
0.00808202
0.00133081
0.00809317
0.00146135
0.00686629
0.0015381
0.00440735
0.00156405
0.00106225
0.0015498
-0.00247008
0.00150635
-0.00540178
0.00144694
-0.00734027
0.00138424
-0.00834599
0.0013262
-0.00867301
0.00127097
-0.0086109
0.00121751
-0.0084054
0.00116899
-0.00811357
0.0011132
-0.00776513
0.00103404
-0.00754693
0.000951917
-0.00741951
0.000922413
-0.00679027
0.000986001
-0.00500223
0.00113182
-0.00208585
0.00124009
0.000555276
0.00368509
0.000781171
0.00547519
0.000984383
0.00694864
0.00117371
0.0078927
0.00134557
0.00792131
0.00147657
0.00673529
0.0015505
0.00433343
0.00157171
0.00104104
0.00155137
-0.00244975
0.00150157
-0.00535197
0.00143692
-0.00727562
0.00137052
-0.0082796
0.00131039
-0.00861287
0.0012545
-0.00855501
0.00120083
-0.00835174
0.00115278
-0.00806551
0.00109932
-0.00771168
0.0010231
-0.00747071
0.000941551
-0.00733797
0.000909382
-0.0067581
0.000969179
-0.00506203
0.00111305
-0.00222972
0.00105546
0.000547817
0.00344164
0.000776783
0.00524623
0.000986504
0.00673892
0.00118289
0.00769631
0.00135907
0.00774512
0.00149029
0.00660407
0.00156151
0.00426221
0.00157825
0.0010243
0.00155203
-0.00242353
0.00149601
-0.00529596
0.00142629
-0.0072059
0.00135633
-0.00820965
0.00129419
-0.00855073
0.00123772
-0.00849855
0.00118394
-0.00829796
0.00113633
-0.0080179
0.00108517
-0.00766052
0.00101204
-0.00739758
0.000931304
-0.00725723
0.000896583
-0.00672338
0.000952476
-0.00511792
0.00109406
-0.0023713
0.000870211
0.000542354
0.00320234
0.000773316
0.00501527
0.000988692
0.00652354
0.00119136
0.00749365
0.00137128
0.0075652
0.00150249
0.00647286
0.00157117
0.00419353
0.0015837
0.00101177
0.00155178
-0.00239161
0.0014897
-0.00523388
0.00141505
-0.00713124
0.00134169
-0.00813629
0.00127761
-0.00848665
0.00122063
-0.00844156
0.00116682
-0.00824415
0.00111963
-0.00797071
0.00107073
-0.00761162
0.00100083
-0.00732767
0.000921144
-0.00717755
0.000883999
-0.00668623
0.000935907
-0.00516983
0.00107491
-0.0025103
0.000684701
0.000539188
0.00296885
0.000770934
0.00478352
0.000991005
0.00630347
0.00119912
0.00728553
0.00138217
0.00738216
0.00151317
0.00634186
0.0015795
0.0041272
0.0015881
0.00100317
0.00155065
-0.00235416
0.00148263
-0.00516585
0.0014032
-0.00705181
0.00132657
-0.00805966
0.00126064
-0.00842072
0.00120321
-0.00838413
0.00114946
-0.0081904
0.00110268
-0.00792392
0.00105597
-0.00756492
0.000989426
-0.00726113
0.000911038
-0.00709916
0.000871607
-0.0066468
0.000919478
-0.0052177
0.00105563
-0.00264646
0.000499286
0.000538612
0.0027429
0.000769808
0.00455233
0.000993506
0.00607977
0.00120618
0.00707285
0.00139172
0.00719661
0.00152235
0.00621124
0.00158657
0.00406297
0.00159152
0.000998221
0.00154867
-0.0023113
0.0014748
-0.00509199
0.00139074
-0.00696775
0.001311
-0.00797992
0.00124329
-0.00835301
0.00118546
-0.0083263
0.00113185
-0.00813679
0.00108546
-0.00787753
0.00104086
-0.00752032
0.000977785
-0.00719805
0.00090095
-0.00702232
0.000859386
-0.00660524
0.000903189
-0.0052615
0.00103628
-0.00277955
0.000314312
0.000540923
0.00252622
0.000770114
0.00432313
0.000996267
0.00585362
0.00121254
0.00685658
0.00139995
0.0070092
0.00153006
0.00608113
0.00159246
0.00400057
0.00159403
0.000996651
0.00154585
-0.00226312
0.00146624
-0.00501237
0.00137767
-0.00687918
0.00129495
-0.0078972
0.00122554
-0.0082836
0.00116736
-0.00826813
0.00111398
-0.00808341
0.00106797
-0.00783152
0.00102539
-0.00747775
0.000965865
-0.00713852
0.000890846
-0.0069473
0.000847311
-0.0065617
0.000887033
-0.00530122
0.00101688
-0.0029094
0.000130098
0.000546421
0.00232044
0.000772051
0.00409751
0.000999383
0.00562629
0.00121824
0.00663773
0.00140687
0.00682057
0.0015364
0.00595159
0.00159731
0.00393966
0.00159573
0.000998234
0.00154225
-0.00220964
0.00145693
-0.00492706
0.00136399
-0.00678624
0.00127843
-0.00781164
0.0012074
-0.00821257
0.00114891
-0.00820964
0.00109583
-0.00803034
0.0010502
-0.00778589
0.00100954
-0.00743709
0.000953628
-0.0070826
0.000880692
-0.00687437
0.000835362
-0.00651637
0.000870996
-0.00533686
0.000997469
-0.00303587
-5.30752e-05
0.000555434
0.00212701
0.000775869
0.00387707
0.00100299
0.00539917
0.00122334
0.00641738
0.00141256
0.00663134
0.00154152
0.00582264
0.0016013
0.00387988
0.00159671
0.00100282
0.00153787
-0.0021508
0.0014469
-0.00483609
0.00134974
-0.00668908
0.00126149
-0.00772339
0.0011889
-0.00813998
0.00113013
-0.00815086
0.00107743
-0.00797764
0.00103218
-0.00774064
0.00099331
-0.00739822
0.000941043
-0.00703034
0.000870455
-0.00680378
0.000823525
-0.00646944
0.000855067
-0.0053684
0.000978079
-0.00315888
-0.000234936
0.000568344
0.00194704
0.000781932
0.00366348
0.00100733
0.00517377
0.00122802
0.00619669
0.0014172
0.00644216
0.00154567
0.00569417
0.00160469
0.00382086
0.00159712
0.00101039
0.00153274
-0.00208642
0.00143616
-0.0047395
0.00133492
-0.00658784
0.00124413
-0.0076326
0.00117006
-0.00806592
0.00111102
-0.00809182
0.00105875
-0.00792537
0.00101388
-0.00769576
0.000976676
-0.00736102
0.000928065
-0.00698173
0.000860088
-0.0067358
0.00081177
-0.00642112
0.000839215
-0.00539584
0.000958678
-0.00327835
-0.000415362
0.000585553
0.000790815
0.00345822
0.00101292
0.00495166
0.00123271
0.0059769
0.00142125
0.00625362
0.00154945
0.00556598
0.00160804
0.00376227
0.00159726
0.00102116
0.00152698
-0.00201614
0.00142466
-0.00463719
0.00131939
-0.00648257
0.00122614
-0.00753935
0.00115066
-0.00799044
0.00109138
-0.00803254
0.00103964
-0.00787362
0.000995195
-0.00765132
0.00095955
-0.00732538
0.000914594
-0.00693677
0.0008495
-0.00667071
0.000800031
-0.00637165
0.00082336
-0.00541917
0.0009392
-0.00339419
-0.000594315
0.000803446
0.0032622
0.00102086
0.00473425
0.00123853
0.00575923
0.00142596
0.00606619
0.00155424
0.0054377
0.00161255
0.00370397
0.00159783
0.00103588
0.00152082
-0.00193913
0.00141234
-0.0045287
0.00130289
-0.00637313
0.00120722
-0.00744367
0.00113042
-0.00791364
0.00107101
-0.00797314
0.00101994
-0.00782256
0.000976021
-0.0076074
0.000941857
-0.00729121
0.000900561
-0.00689547
0.000838645
-0.00660879
0.000788301
-0.00632131
0.000807459
-0.00543833
0.000919546
-0.00350627
-0.000771814
0.000821364
0.00307562
0.00103301
0.0045226
0.00124744
0.0055448
0.00143327
0.00588036
0.00156163
0.00530933
0.00161881
0.0036468
0.00159855
0.00105613
0.00151392
-0.00185449
0.00139937
-0.00441415
0.0012861
-0.00625986
0.00118826
-0.00734583
0.00111024
-0.00783562
0.00105067
-0.00791357
0.00100028
-0.00777216
0.000956864
-0.00756399
0.000924012
-0.00725836
0.000886288
-0.00685775
0.000827793
-0.0065503
0.00077689
-0.00627041
0.000791874
-0.00545331
0.000900026
-0.00361443
-0.000947818
0.00084832
0.00289835
0.00105321
0.00431771
0.00126269
0.00533532
0.00144516
0.00569789
0.00157153
0.00518296
0.00162431
0.00359402
0.00159644
0.00108401
0.00150551
-0.00176357
0.00138729
-0.00429593
0.00127196
-0.00614453
0.00117261
-0.00724649
0.00109324
-0.00775625
0.00103299
-0.00785332
0.000982761
-0.00772193
0.000939478
-0.0075207
0.000907517
-0.0072264
0.000873051
-0.00682328
0.000818163
-0.00649541
0.000767258
-0.0062195
0.000778415
-0.00546447
0.000882642
-0.00371865
-0.00112212
0.00237872
0.0027452
0.00277235
0.00392408
0.00338558
0.0047221
0.00415112
0.00493235
0.00499488
0.0043392
0.00580869
0.00278021
0.00642443
0.000468262
0.00679583
-0.00213497
0.00690778
-0.00440788
0.00681629
-0.00605303
0.00658653
-0.00701673
0.00628765
-0.00745737
0.00597669
-0.00754236
0.00567109
-0.00741632
0.00537497
-0.00722459
0.00510558
-0.00695702
0.00484125
-0.00655895
0.00452435
-0.0061785
0.00416567
-0.00586083
0.00387897
-0.00517777
0.00377768
-0.00361736
0.00388942
-0.00123386
0.00140178
0.00316188
0.00261672
0.00353171
0.00355425
0.00411236
0.00414145
0.0048359
0.0042088
0.00561766
0.00355744
0.00633986
0.002058
0.00689792
-8.97957e-05
0.0071951
-0.00243214
0.00724406
-0.00445684
0.00708995
-0.00589892
0.00681106
-0.00673784
0.00648016
-0.00712647
0.00615063
-0.00721284
0.00583701
-0.00710269
0.005535
-0.00692258
0.00525787
-0.00667989
0.00499439
-0.00629547
0.00468981
-0.00587392
0.00433921
-0.00551023
0.00404285
-0.00488141
0.00392233
-0.00349685
0.00401231
-0.00132384
0.00114104
0.00401935
0.00250671
0.00435199
0.00322162
0.00487907
0.00361437
0.00554062
0.00354726
0.00625214
0.00284592
0.00689591
0.00141424
0.00736527
-0.000559162
0.00758345
-0.00265032
0.0075549
-0.00442828
0.00734151
-0.00568554
0.00702664
-0.00642296
0.0066758
-0.00677563
0.00633409
-0.00687113
0.00601428
-0.00678288
0.00570683
-0.00661513
0.00542133
-0.0063944
0.0051568
-0.00603094
0.00486341
-0.00558053
0.0045217
-0.00516853
0.00421764
-0.00457735
0.00407684
-0.00335604
0.00415256
-0.00139956
0.000887072
0.00489989
0.00239539
0.00519952
0.00292199
0.0056687
0.00314519
0.00625856
0.0029574
0.0068871
0.00221738
0.00743938
0.000861957
0.00781062
-0.000930408
0.00793577
-0.00277547
0.00783083
-0.00432334
0.00756706
-0.00542178
0.00722528
-0.00608118
0.00686159
-0.00641194
0.00651245
-0.00652199
0.00618963
-0.00646005
0.00588033
-0.00630583
0.00558902
-0.00610309
0.00532348
-0.00576539
0.00504229
-0.00529934
0.00471308
-0.00483932
0.00440469
-0.00426895
0.00424543
-0.00319679
0.00430427
-0.0014584
0.000642265
0.00573942
0.00225913
0.00602281
0.0026386
0.0064415
0.0027265
0.00695635
0.00244255
0.00749231
0.00168141
0.007942
0.000412271
0.00820598
-0.00119438
0.00823791
-0.0028074
0.00806707
-0.00415251
0.00776617
-0.00512088
0.00740852
-0.00572352
0.00704003
-0.00604346
0.0066885
-0.00617046
0.00636523
-0.00613678
0.00605675
-0.00599735
0.00576187
-0.00580821
0.00549482
-0.00549835
0.00522589
-0.00503041
0.00491311
-0.00452654
0.00460494
-0.00396078
0.00442782
-0.00301968
0.00446608
-0.00149665
0.000410092
0.00647745
0.00208478
0.00676069
0.00235536
0.00714086
0.00234633
0.00758514
0.00199827
0.00802718
0.00123937
0.00837074
6.87144e-05
0.00853043
-0.00135408
0.00848176
-0.00275872
0.00826257
-0.00393332
0.00794037
-0.00479868
0.00757796
-0.00536112
0.00721193
-0.00567742
0.00686252
-0.00582106
0.006541
-0.00581526
0.00623566
-0.005692
0.00593983
-0.00551238
0.00567103
-0.00522955
0.0054135
-0.00477288
0.00512055
-0.00423358
0.00481777
-0.003658
0.00462365
-0.00282556
0.00463739
-0.00151039
0.000195224
0.00707911
0.00187598
0.00736759
0.00206689
0.00771866
0.00199526
0.0081013
0.00161562
0.00845649
0.000884184
0.00870275
-0.000177548
0.00877578
-0.00142711
0.00866868
-0.00265162
0.00842204
-0.00368668
0.00809406
-0.0044707
0.00773651
-0.00500356
0.00737871
-0.00531963
0.00703524
-0.00547759
0.0067173
-0.00549731
0.00641684
-0.00539155
0.00612283
-0.00521838
0.00585249
-0.00495921
0.00560455
-0.00452494
0.0053337
-0.00396273
0.00504216
-0.00336647
0.00483309
-0.00261649
0.00481806
-0.00149536
3.44384e-06
0.0075447
0.00164797
0.00783272
0.00177887
0.00815769
0.00167028
0.00848729
0.00128602
0.00876901
0.000602463
0.00893759
-0.000346121
0.00894965
-0.00143917
0.00880895
-0.00251092
0.00855405
-0.00343178
0.00823283
-0.00414947
0.00788726
-0.004658
0.00754183
-0.00497419
0.00720732
-0.00514308
0.0068945
-0.00518449
0.0066001
-0.00509714
0.00631061
-0.00492889
0.00603962
-0.00468822
0.00579881
-0.00428413
0.00555072
-0.00371464
0.00527655
-0.0030923
0.00505654
-0.00239647
0.00500899
-0.00144781
-0.000158311
0.0078999
0.00141825
0.00817667
0.0015021
0.00847359
0.00137337
0.00875701
0.0010026
0.0089808
0.000378673
0.00909469
-0.000460008
0.00907063
-0.00141512
0.00891725
-0.00235753
0.00866823
-0.00318276
0.00836218
-0.00384343
0.00803316
-0.00432897
0.00770262
-0.00464366
0.00737931
-0.00481977
0.00707302
-0.0048782
0.00678532
-0.00480945
0.00650272
-0.00464629
0.00623281
-0.00441831
0.00599654
-0.00404785
0.00576984
-0.00348794
0.00551866
-0.00284111
0.00529409
-0.00217191
0.00521244
-0.00136616
-0.000282136
0.00817854
0.00120029
0.00843442
0.00124622
0.0087003
0.00110749
0.00894316
0.000759742
0.00912302
0.000198806
0.00920144
-0.000538423
0.00915995
-0.00137363
0.00900786
-0.00220545
0.00877313
-0.00294803
0.00848677
-0.00355707
0.00817663
-0.00401884
0.00786227
-0.00432929
0.00755167
-0.00450917
0.00725324
-0.00457977
0.00697257
-0.00452877
0.00669856
-0.00437228
0.0064322
-0.00415195
0.00619842
-0.00381408
0.00598975
-0.00327927
0.00576548
-0.00261684
0.00554497
-0.00195139
0.00543113
-0.00125233
-0.000360995
0.00841038
0.00100178
0.00863966
0.00101693
0.00887331
0.000873848
0.0090804
0.000552649
0.00922679
5.24214e-05
0.00928289
-0.000594529
0.00923532
-0.00132605
0.00909193
-0.00206206
0.00887513
-0.00273124
0.00861
-0.00329193
0.00831953
-0.00372837
0.00802174
-0.0040315
0.00772476
-0.00421219
0.00743549
-0.0042905
0.00716204
-0.00425532
0.00689758
-0.00410783
0.00663755
-0.00389191
0.00640543
-0.00358196
0.00620998
-0.00308383
0.00601376
-0.00242062
0.00580694
-0.00174457
0.00566768
-0.00111306
-0.000390411
0.00861642
0.000825662
0.00881747
0.000815879
0.0090195
0.000671822
0.00919527
0.000376879
0.00931531
-6.76248e-05
0.00935681
-0.000636025
0.0093087
-0.00127795
0.00917673
-0.00193009
0.00897843
-0.00253293
0.0087342
-0.0030477
0.00846319
-0.00345736
0.00818187
-0.00375019
0.00789891
-0.00392923
0.00761996
-0.00401155
0.00735405
-0.00398941
0.00709934
-0.00385312
0.00684823