/*--------------------------------*- C++ -*----------------------------------*\
  =========                 |
  \\      /  F ield         | OpenFOAM: The Open Source CFD Toolbox
   \\    /   O peration     | Website:  https://openfoam.org
    \\  /    A nd           | Version:  7
     \\/     M anipulation  |
\*---------------------------------------------------------------------------*/
FoamFile
{
    version     2.0;
    format      ascii;
    class       volScalarField;
    location    "20";
    object      p;
}
// * * * * * * * * * * * * * * * * * * * * * * * * * * * * * * * * * * * * * //

dimensions      [0 2 -2 0 0 0 0];

internalField   nonuniform List<scalar> 
4575
(
-0.250896
-0.2519
-0.252509
-0.250938
-0.25194
-0.252547
-0.251023
-0.252019
-0.252623
-0.25115
-0.252138
-0.252737
-0.251319
-0.252296
-0.252888
-0.251528
-0.252492
-0.253076
-0.251778
-0.252726
-0.253301
-0.252066
-0.252998
-0.253561
-0.252394
-0.253305
-0.253856
-0.254326
-0.252758
-0.253648
-0.254185
-0.254642
-0.253158
-0.254026
-0.254548
-0.25499
-0.253593
-0.254437
-0.254943
-0.255369
-0.254062
-0.25488
-0.255369
-0.255779
-0.254564
-0.255356
-0.255826
-0.256218
-0.255098
-0.255862
-0.256314
-0.256685
-0.255662
-0.256399
-0.25683
-0.257181
-0.256257
-0.256965
-0.257375
-0.257704
-0.257964
-0.25688
-0.25756
-0.257949
-0.258255
-0.258489
-0.257533
-0.258183
-0.25855
-0.258831
-0.259039
-0.258214
-0.258835
-0.259178
-0.259434
-0.259614
-0.258924
-0.259515
-0.259834
-0.260063
-0.260213
-0.260287
-0.259661
-0.260223
-0.260516
-0.260718
-0.260836
-0.260877
-0.260428
-0.260959
-0.261227
-0.261398
-0.261484
-0.261488
-0.261224
-0.261725
-0.261965
-0.262105
-0.262156
-0.262122
-0.26205
-0.262519
-0.262732
-0.262839
-0.262853
-0.262779
-0.262631
-0.262907
-0.263345
-0.263528
-0.263601
-0.263575
-0.263458
-0.263265
-0.263797
-0.264202
-0.264354
-0.26439
-0.264323
-0.264161
-0.263919
-0.264721
-0.265092
-0.265211
-0.265209
-0.265098
-0.264888
-0.264595
-0.264235
-0.26568
-0.266017
-0.266102
-0.266058
-0.2659
-0.265639
-0.265293
-0.264876
-0.266678
-0.266979
-0.267027
-0.266939
-0.266732
-0.266416
-0.266013
-0.265537
-0.267717
-0.26798
-0.267988
-0.267854
-0.267594
-0.26722
-0.266756
-0.266219
-0.265622
-0.268799
-0.269022
-0.268989
-0.268805
-0.268488
-0.268053
-0.267524
-0.266921
-0.266258
-0.269928
-0.270108
-0.270031
-0.269794
-0.269416
-0.268916
-0.268318
-0.267645
-0.266913
-0.26613
-0.271107
-0.271242
-0.271118
-0.270823
-0.27038
-0.269811
-0.26914
-0.268393
-0.267587
-0.266732
-0.27234
-0.272427
-0.272252
-0.271896
-0.271384
-0.27074
-0.269992
-0.269167
-0.268283
-0.267352
-0.273632
-0.273667
-0.273437
-0.273016
-0.27243
-0.271706
-0.270876
-0.269967
-0.269001
-0.267991
-0.26694
-0.274987
-0.274966
-0.274677
-0.274186
-0.273521
-0.272713
-0.271796
-0.270798
-0.269745
-0.268651
-0.267519
-0.27641
-0.276328
-0.275977
-0.27541
-0.274661
-0.273763
-0.272753
-0.271663
-0.270518
-0.269335
-0.26812
-0.266866
-0.277907
-0.277759
-0.27734
-0.276693
-0.275854
-0.274861
-0.273753
-0.272565
-0.271323
-0.270047
-0.268744
-0.267409
-0.279484
-0.279264
-0.278771
-0.278038
-0.277104
-0.276011
-0.2748
-0.273508
-0.272166
-0.270793
-0.269398
-0.267979
-0.266519
-0.281147
-0.280848
-0.280276
-0.279451
-0.278416
-0.277217
-0.275898
-0.274498
-0.27305
-0.271576
-0.270086
-0.26858
-0.267045
-0.282903
-0.282517
-0.28186
-0.280938
-0.279796
-0.278485
-0.277052
-0.275539
-0.273982
-0.272403
-0.270815
-0.269219
-0.267606
-0.265958
-0.284757
-0.284277
-0.283529
-0.282502
-0.281247
-0.279819
-0.278268
-0.276638
-0.274967
-0.27328
-0.271591
-0.269902
-0.268209
-0.266498
-0.264764
-0.286718
-0.286134
-0.285288
-0.284151
-0.282776
-0.281226
-0.279551
-0.277801
-0.276013
-0.274214
-0.27242
-0.270636
-0.268858
-0.267078
-0.2653
-0.288791
-0.288095
-0.287144
-0.285889
-0.284389
-0.282711
-0.280909
-0.279033
-0.277125
-0.275212
-0.27331
-0.271427
-0.269558
-0.267701
-0.265861
-0.264119
-0.290986
-0.290165
-0.289101
-0.287722
-0.286092
-0.28428
-0.282346
-0.280342
-0.27831
-0.27628
-0.274268
-0.27228
-0.270314
-0.268367
-0.266446
-0.264629
-0.262848
-0.293307
-0.292351
-0.291168
-0.289658
-0.28789
-0.28594
-0.28387
-0.281734
-0.279576
-0.277425
-0.275298
-0.273201
-0.271129
-0.269078
-0.267051
-0.265117
-0.263195
-0.295763
-0.29466
-0.293349
-0.291701
-0.28979
-0.287697
-0.285487
-0.283216
-0.280928
-0.278654
-0.276408
-0.274193
-0.272004
-0.269831
-0.267671
-0.265579
-0.263458
-0.262106
-0.298359
-0.297097
-0.29565
-0.293858
-0.291798
-0.289558
-0.287204
-0.284795
-0.282374
-0.279972
-0.277601
-0.275261
-0.27294
-0.270626
-0.268304
-0.266012
-0.263642
-0.26185
-0.258394
-0.301104
-0.299669
-0.298078
-0.296134
-0.29392
-0.291528
-0.289027
-0.286476
-0.28392
-0.281385
-0.278882
-0.276405
-0.273937
-0.271458
-0.268943
-0.266411
-0.263747
-0.261479
-0.257666
-0.258736
-0.304002
-0.302381
-0.300638
-0.298536
-0.296162
-0.293613
-0.290962
-0.288266
-0.28557
-0.282897
-0.280253
-0.277626
-0.274993
-0.272323
-0.269583
-0.266774
-0.263778
-0.261012
-0.256831
-0.256522
-0.307059
-0.305239
-0.303336
-0.301069
-0.298529
-0.295821
-0.293015
-0.290171
-0.28733
-0.284512
-0.281716
-0.278925
-0.276104
-0.273217
-0.270218
-0.267096
-0.263735
-0.260462
-0.255906
-0.254387
-0.310281
-0.308247
-0.306176
-0.303738
-0.301028
-0.298155
-0.295192
-0.292196
-0.289205
-0.286232
-0.283272
-0.280297
-0.277266
-0.274131
-0.270841
-0.267373
-0.26362
-0.259839
-0.254905
-0.252335
-0.313671
-0.311411
-0.309163
-0.306548
-0.303663
-0.300622
-0.297498
-0.294345
-0.291196
-0.288059
-0.284919
-0.28174
-0.278471
-0.275057
-0.271444
-0.2676
-0.263434
-0.259149
-0.253838
-0.250362
-0.317234
-0.314732
-0.312302
-0.309503
-0.306439
-0.303227
-0.299937
-0.296621
-0.293307
-0.289993
-0.286654
-0.283247
-0.279711
-0.275987
-0.272018
-0.267773
-0.263175
-0.258397
-0.252711
-0.248455
-0.320973
-0.318216
-0.315595
-0.312608
-0.30936
-0.305973
-0.302513
-0.299028
-0.295537
-0.292031
-0.288473
-0.284811
-0.280977
-0.27691
-0.272554
-0.267884
-0.262843
-0.257581
-0.251527
-0.2466
-0.324889
-0.321864
-0.319046
-0.315865
-0.31243
-0.308863
-0.305228
-0.301566
-0.297887
-0.294169
-0.290369
-0.286422
-0.282258
-0.277815
-0.273044
-0.267928
-0.262435
-0.256702
-0.250285
-0.244779
-0.328984
-0.325678
-0.322656
-0.319278
-0.315651
-0.311901
-0.308085
-0.304236
-0.300352
-0.296404
-0.292333
-0.28807
-0.283542
-0.27869
-0.273476
-0.267899
-0.261947
-0.255757
-0.248985
-0.242975
-0.333257
-0.329657
-0.326426
-0.322847
-0.319025
-0.315087
-0.311083
-0.307035
-0.30293
-0.298726
-0.294355
-0.289741
-0.284814
-0.279522
-0.273841
-0.267788
-0.261376
-0.254742
-0.247624
-0.24117
-0.337707
-0.333802
-0.330357
-0.326573
-0.322553
-0.318422
-0.314221
-0.309959
-0.305613
-0.301126
-0.296422
-0.291422
-0.28606
-0.280298
-0.27413
-0.26759
-0.260717
-0.253652
-0.246197
-0.239348
-0.34233
-0.33811
-0.334448
-0.330456
-0.326233
-0.321903
-0.317495
-0.313004
-0.308393
-0.303592
-0.298519
-0.293096
-0.287266
-0.281005
-0.27433
-0.267297
-0.259966
-0.252483
-0.2447
-0.237494
-0.347123
-0.342578
-0.338695
-0.334492
-0.330064
-0.325529
-0.3209
-0.316161
-0.311258
-0.30611
-0.300631
-0.294747
-0.288414
-0.28163
-0.274434
-0.266903
-0.259118
-0.251229
-0.243127
-0.235593
-0.352079
-0.347201
-0.343094
-0.33868
-0.334042
-0.329292
-0.32443
-0.31942
-0.314194
-0.308663
-0.30274
-0.296357
-0.28949
-0.28216
-0.27443
-0.2664
-0.258168
-0.249885
-0.241473
-0.233634
-0.357191
-0.351973
-0.347641
-0.343012
-0.338161
-0.333187
-0.328073
-0.322767
-0.317186
-0.311234
-0.304825
-0.297907
-0.290477
-0.282581
-0.27431
-0.265781
-0.257109
-0.248444
-0.23973
-0.231604
-0.362448
-0.356885
-0.352327
-0.347483
-0.342412
-0.337203
-0.331819
-0.326188
-0.320216
-0.313801
-0.306866
-0.299378
-0.291358
-0.282882
-0.274064
-0.26504
-0.255936
-0.2469
-0.237894
-0.229493
-0.367839
-0.361927
-0.357144
-0.352082
-0.346786
-0.341329
-0.335651
-0.329664
-0.323262
-0.316343
-0.308843
-0.300751
-0.292118
-0.283049
-0.273683
-0.264169
-0.254643
-0.245247
-0.235958
-0.227293
-0.373349
-0.367087
-0.362079
-0.356799
-0.35127
-0.345549
-0.339553
-0.333176
-0.326302
-0.318837
-0.310732
-0.302006
-0.29274
-0.283071
-0.273157
-0.263161
-0.253224
-0.243479
-0.233914
-0.224995
-0.378963
-0.37235
-0.367119
-0.361619
-0.355849
-0.349846
-0.343504
-0.336699
-0.329312
-0.321258
-0.312511
-0.303123
-0.29321
-0.282936
-0.272478
-0.26201
-0.251672
-0.24159
-0.231758
-0.222591
-0.366527
-0.360505
-0.354201
-0.347481
-0.340209
-0.332265
-0.32358
-0.314157
-0.304085
-0.293513
-0.282632
-0.271638
-0.260707
-0.249981
-0.239572
-0.229482
-0.220074
-0.35859
-0.351459
-0.343679
-0.335134
-0.325777
-0.315648
-0.304871
-0.293633
-0.282148
-0.270626
-0.259245
-0.248142
-0.237418
-0.227079
-0.217437
-0.337889
-0.327823
-0.31696
-0.305464
-0.293557
-0.281474
-0.269435
-0.257617
-0.24615
-0.235122
-0.224543
-0.214673
-0.29327
-0.280599
-0.268055
-0.255814
-0.243998
-0.232678
-0.221868
-0.211776
-0.25383
-0.241676
-0.230077
-0.219046
-0.208739
-0.205557
-0.205565
-0.253839
-0.241686
-0.230086
-0.219055
-0.208747
-0.305858
-0.293282
-0.28061
-0.268066
-0.255824
-0.244007
-0.232687
-0.221877
-0.211784
-0.337903
-0.327837
-0.316973
-0.305476
-0.293569
-0.281486
-0.269446
-0.257627
-0.24616
-0.235132
-0.224552
-0.214681
-0.358604
-0.351474
-0.343693
-0.335148
-0.32579
-0.315661
-0.304883
-0.293645
-0.28216
-0.270637
-0.259255
-0.248152
-0.237428
-0.227088
-0.217445
-0.366541
-0.36052
-0.354216
-0.347496
-0.340223
-0.332279
-0.323593
-0.314171
-0.304097
-0.293525
-0.282643
-0.271649
-0.260717
-0.249991
-0.239581
-0.229491
-0.220083
-0.378978
-0.372365
-0.367134
-0.361634
-0.355864
-0.349861
-0.343518
-0.336713
-0.329326
-0.321271
-0.312524
-0.303136
-0.293223
-0.282947
-0.27249
-0.262021
-0.251683
-0.2416
-0.231767
-0.2226
-0.373364
-0.367102
-0.362094
-0.356814
-0.351285
-0.345564
-0.339568
-0.33319
-0.326316
-0.318851
-0.310745
-0.302018
-0.292753
-0.283083
-0.273169
-0.263173
-0.253235
-0.24349
-0.233924
-0.225004
-0.367854
-0.361942
-0.357159
-0.352097
-0.346801
-0.341343
-0.335666
-0.329679
-0.323276
-0.316357
-0.308856
-0.300764
-0.29213
-0.283061
-0.273694
-0.26418
-0.254654
-0.245258
-0.235967
-0.227303
-0.362463
-0.3569
-0.352342
-0.347498
-0.342427
-0.337218
-0.331833
-0.326202
-0.32023
-0.313815
-0.30688
-0.299391
-0.291371
-0.282894
-0.274076
-0.265051
-0.255947
-0.24691
-0.237904
-0.229503
-0.357206
-0.351988
-0.347656
-0.343027
-0.338175
-0.333202
-0.328088
-0.322782
-0.3172
-0.311248
-0.304838
-0.29792
-0.29049
-0.282594
-0.274322
-0.265793
-0.25712
-0.248454
-0.239741
-0.231613
-0.352094
-0.347216
-0.343109
-0.338694
-0.334057
-0.329307
-0.324444
-0.319434
-0.314208
-0.308677
-0.302753
-0.296371
-0.289503
-0.282173
-0.274443
-0.266412
-0.258179
-0.249896
-0.241483
-0.233643
-0.347138
-0.342593
-0.338709
-0.334507
-0.330079
-0.325543
-0.320915
-0.316175
-0.311272
-0.306124
-0.300645
-0.294761
-0.288428
-0.281643
-0.274446
-0.266915
-0.25913
-0.25124
-0.243138
-0.235603
-0.342345
-0.338125
-0.334462
-0.33047
-0.326248
-0.321918
-0.317509
-0.313019
-0.308407
-0.303606
-0.298533
-0.29311
-0.287279
-0.281018
-0.274343
-0.26731
-0.259978
-0.252495
-0.244711
-0.237504
-0.337722
-0.333817
-0.330372
-0.326588
-0.322567
-0.318436
-0.314235
-0.309974
-0.305628
-0.30114
-0.296436
-0.291436
-0.286074
-0.280311
-0.274143
-0.267603
-0.260729
-0.253664
-0.246209
-0.239359
-0.333272
-0.329672
-0.326441
-0.322862
-0.31904
-0.315102
-0.311097
-0.307049
-0.302944
-0.29874
-0.294369
-0.289755
-0.284828
-0.279535
-0.273855
-0.267801
-0.261388
-0.254754
-0.247636
-0.241181
-0.328999
-0.325692
-0.32267
-0.319292
-0.315665
-0.311915
-0.308099
-0.30425
-0.300367
-0.296418
-0.292347
-0.288084
-0.283556
-0.278704
-0.27349
-0.267912
-0.26196
-0.255769
-0.248997
-0.242986
-0.324904
-0.321879
-0.31906
-0.31588
-0.312444
-0.308878
-0.305243
-0.30158
-0.297901
-0.294184
-0.290383
-0.286436
-0.282273
-0.277829
-0.273057
-0.267942
-0.262448
-0.256715
-0.250297
-0.24479
-0.320988
-0.318231
-0.31561
-0.312623
-0.309374
-0.305987
-0.302527
-0.299042
-0.295551
-0.292045
-0.288488
-0.284825
-0.280992
-0.276924
-0.272568
-0.267898
-0.262857
-0.257594
-0.251539
-0.246612
-0.317249
-0.314747
-0.312316
-0.309518
-0.306453
-0.303241
-0.299951
-0.296636
-0.293321
-0.290007
-0.286669
-0.283261
-0.279726
-0.276002
-0.272032
-0.267787
-0.263189
-0.25841
-0.252724
-0.248467
-0.313686
-0.311425
-0.309178
-0.306562
-0.303677
-0.300637
-0.297512
-0.294359
-0.29121
-0.288074
-0.284934
-0.281754
-0.278485
-0.275072
-0.271458
-0.267614
-0.263448
-0.259163
-0.253851
-0.250374
-0.310295
-0.308262
-0.306191
-0.303752
-0.301042
-0.29817
-0.295206
-0.29221
-0.289219
-0.286247
-0.283287
-0.280312
-0.27728
-0.274145
-0.270855
-0.267387
-0.263634
-0.259853
-0.254919
-0.252348
-0.307073
-0.305254
-0.30335
-0.301083
-0.298544
-0.295835
-0.293029
-0.290186
-0.287345
-0.284526
-0.281731
-0.278939
-0.276119
-0.273231
-0.270233
-0.26711
-0.263749
-0.260476
-0.25592
-0.254401
-0.304016
-0.302396
-0.300653
-0.29855
-0.296176
-0.293628
-0.290976
-0.288281
-0.285584
-0.282911
-0.280267
-0.277641
-0.275008
-0.272338
-0.269598
-0.266789
-0.263792
-0.261027
-0.256845
-0.256536
-0.301118
-0.299684
-0.298093
-0.296149
-0.293934
-0.291542
-0.289041
-0.28649
-0.283934
-0.281399
-0.278896
-0.276419
-0.273952
-0.271473
-0.268958
-0.266426
-0.263762
-0.261495
-0.257681
-0.25875
-0.298374
-0.297112
-0.295665
-0.293872
-0.291812
-0.289572
-0.287218
-0.284809
-0.282389
-0.279986
-0.277615
-0.275275
-0.272955
-0.270641
-0.268319
-0.266027
-0.263657
-0.261866
-0.258409
-0.295777
-0.294674
-0.293363
-0.291715
-0.289804
-0.287712
-0.285501
-0.28323
-0.280943
-0.278668
-0.276422
-0.274208
-0.272019
-0.269847
-0.267687
-0.265595
-0.263474
-0.262122
-0.293321
-0.292366
-0.291182
-0.289672
-0.287904
-0.285954
-0.283884
-0.281748
-0.27959
-0.277439
-0.275313
-0.273216
-0.271144
-0.269093
-0.267066
-0.265133
-0.263211
-0.291
-0.290179
-0.289116
-0.287737
-0.286106
-0.284294
-0.28236
-0.280356
-0.278324
-0.276294
-0.274282
-0.272295
-0.270329
-0.268383
-0.266462
-0.264645
-0.262865
-0.288806
-0.288109
-0.287158
-0.285903
-0.284403
-0.282725
-0.280923
-0.279047
-0.277139
-0.275226
-0.273325
-0.271442
-0.269574
-0.267717
-0.265878
-0.264135
-0.286732
-0.286148
-0.285302
-0.284165
-0.28279
-0.28124
-0.279565
-0.277815
-0.276027
-0.274228
-0.272435
-0.270651
-0.268873
-0.267094
-0.265316
-0.284771
-0.284291
-0.283543
-0.282516
-0.281261
-0.279833
-0.278282
-0.276652
-0.274981
-0.273294
-0.271606
-0.269918
-0.268224
-0.266514
-0.26478
-0.282917
-0.282531
-0.281874
-0.280951
-0.279809
-0.278498
-0.277066
-0.275553
-0.273996
-0.272417
-0.27083
-0.269235
-0.267622
-0.265974
-0.281162
-0.280862
-0.28029
-0.279465
-0.27843
-0.277231
-0.275912
-0.274512
-0.273064
-0.27159
-0.270101
-0.268596
-0.26706
-0.279498
-0.279278
-0.278785
-0.278052
-0.277118
-0.276025
-0.274814
-0.273522
-0.27218
-0.270807
-0.269413
-0.267994
-0.266534
-0.277921
-0.277773
-0.277353
-0.276706
-0.275868
-0.274875
-0.273767
-0.272579
-0.271338
-0.270062
-0.268759
-0.267425
-0.276424
-0.276342
-0.27599
-0.275424
-0.274675
-0.273777
-0.272767
-0.271677
-0.270532
-0.269349
-0.268135
-0.266881
-0.275
-0.274979
-0.274691
-0.274199
-0.273534
-0.272727
-0.271809
-0.270812
-0.269759
-0.268665
-0.267534
-0.273645
-0.27368
-0.27345
-0.273029
-0.272443
-0.27172
-0.27089
-0.269981
-0.269015
-0.268005
-0.266954
-0.272353
-0.27244
-0.272265
-0.271909
-0.271397
-0.270753
-0.270006
-0.26918
-0.268296
-0.267366
-0.27112
-0.271255
-0.271131
-0.270836
-0.270393
-0.269824
-0.269154
-0.268407
-0.267601
-0.266746
-0.26994
-0.270121
-0.270044
-0.269806
-0.269428
-0.268928
-0.268331
-0.267659
-0.266926
-0.268811
-0.269034
-0.269001
-0.268817
-0.2685
-0.268065
-0.267537
-0.266934
-0.266271
-0.267729
-0.267992
-0.268
-0.267866
-0.267606
-0.267233
-0.266769
-0.266232
-0.265635
-0.26669
-0.266991
-0.267038
-0.266951
-0.266744
-0.266428
-0.266025
-0.26555
-0.265692
-0.266029
-0.266113
-0.26607
-0.265912
-0.265651
-0.265305
-0.264889
-0.264732
-0.265103
-0.265222
-0.26522
-0.265109
-0.264899
-0.264607
-0.264246
-0.263808
-0.264213
-0.264364
-0.264401
-0.264334
-0.264172
-0.263931
-0.262918
-0.263355
-0.263538
-0.263611
-0.263586
-0.263469
-0.263276
-0.26206
-0.262529
-0.262742
-0.262849
-0.262863
-0.262789
-0.262642
-0.261234
-0.261734
-0.261975
-0.262115
-0.262166
-0.262132
-0.260437
-0.260968
-0.261236
-0.261408
-0.261494
-0.261498
-0.25967
-0.260232
-0.260525
-0.260727
-0.260846
-0.260886
-0.258932
-0.259523
-0.259842
-0.260071
-0.260222
-0.260296
-0.258222
-0.258843
-0.259186
-0.259442
-0.259622
-0.25754
-0.258191
-0.258557
-0.258839
-0.259047
-0.256887
-0.257567
-0.257956
-0.258262
-0.258496
-0.256263
-0.256972
-0.257382
-0.257711
-0.257971
-0.255668
-0.256405
-0.256837
-0.257188
-0.255104
-0.255868
-0.25632
-0.256691
-0.25457
-0.255361
-0.255832
-0.256223
-0.254067
-0.254885
-0.255374
-0.255784
-0.253598
-0.254441
-0.254947
-0.255374
-0.253162
-0.25403
-0.254552
-0.254995
-0.252761
-0.253652
-0.254189
-0.254646
-0.252397
-0.253308
-0.253859
-0.25433
-0.252069
-0.253001
-0.253564
-0.25178
-0.252729
-0.253303
-0.25153
-0.252494
-0.253078
-0.25132
-0.252298
-0.25289
-0.251151
-0.252139
-0.252738
-0.251024
-0.25202
-0.252624
-0.250939
-0.25194
-0.252547
-0.250896
-0.2519
-0.252509
-0.192358
-0.195651
-0.198819
-0.201865
-0.204792
-0.207604
-0.210303
-0.212893
-0.215376
-0.217753
-0.220028
-0.2222
-0.224273
-0.226248
-0.228128
-0.229915
-0.231614
-0.233233
-0.234779
-0.236264
-0.237705
-0.239122
-0.240541
-0.241997
-0.178103
-0.181428
-0.184655
-0.187788
-0.19083
-0.193783
-0.196652
-0.19944
-0.20215
-0.204785
-0.207352
-0.209853
-0.212295
-0.214683
-0.217025
-0.219329
-0.221605
-0.223865
-0.226123
-0.228394
-0.230697
-0.233053
-0.235484
-0.238014
-0.165298
-0.168605
-0.171837
-0.174996
-0.178086
-0.181108
-0.184065
-0.186962
-0.189801
-0.192584
-0.195317
-0.198002
-0.200644
-0.203246
-0.205813
-0.208351
-0.210863
-0.213354
-0.21583
-0.218296
-0.220757
-0.223217
-0.225683
-0.228159
-0.153877
-0.157119
-0.160303
-0.163431
-0.166503
-0.169523
-0.172492
-0.175412
-0.178285
-0.181114
-0.183899
-0.186645
-0.189351
-0.192022
-0.194658
-0.197263
-0.199838
-0.202387
-0.204913
-0.20742
-0.209913
-0.212398
-0.214882
-0.217374
-0.143607
-0.146758
-0.149863
-0.152923
-0.155941
-0.158917
-0.161853
-0.164751
-0.167613
-0.170439
-0.173231
-0.175992
-0.178723
-0.181425
-0.184101
-0.186753
-0.189383
-0.191995
-0.19459
-0.197172
-0.199745
-0.202311
-0.204876
-0.207443
-0.134365
-0.137405
-0.140409
-0.143378
-0.146315
-0.14922
-0.152093
-0.154937
-0.157753
-0.160542
-0.163304
-0.166042
-0.168757
-0.171449
-0.174121
-0.176773
-0.179408
-0.182025
-0.184627
-0.187215
-0.18979
-0.192354
-0.194908
-0.197454
-0.126019
-0.128937
-0.131827
-0.13469
-0.137528
-0.140341
-0.14313
-0.145896
-0.148641
-0.151364
-0.154068
-0.156752
-0.159418
-0.162066
-0.164698
-0.167314
-0.169915
-0.172502
-0.175076
-0.177638
-0.180189
-0.18273
-0.185262
-0.187787
-0.118471
-0.121259
-0.124026
-0.126773
-0.1295
-0.132208
-0.134898
-0.137572
-0.140228
-0.142869
-0.145494
-0.148105
-0.150702
-0.153287
-0.155859
-0.158419
-0.160968
-0.163506
-0.166035
-0.168555
-0.171066
-0.17357
-0.176066
-0.178556
-0.111627
-0.114283
-0.116923
-0.119548
-0.122158
-0.124754
-0.127336
-0.129906
-0.132464
-0.13501
-0.137544
-0.140069
-0.142583
-0.145089
-0.147585
-0.150073
-0.152553
-0.155025
-0.157491
-0.15995
-0.162403
-0.164851
-0.167293
-0.16973
-0.105411
-0.107934
-0.110446
-0.112946
-0.115436
-0.117915
-0.120385
-0.122845
-0.125297
-0.127741
-0.130176
-0.132605
-0.135027
-0.137442
-0.139852
-0.142256
-0.144655
-0.147049
-0.149439
-0.151825
-0.154208
-0.156587
-0.158963
-0.161337
-0.099753
-0.102146
-0.10453
-0.106906
-0.109275
-0.111636
-0.11399
-0.116338
-0.118681
-0.121017
-0.123349
-0.125676
-0.127999
-0.130318
-0.132634
-0.134946
-0.137256
-0.139563
-0.141869
-0.144172
-0.146475
-0.148776
-0.151076
-0.153375
-0.0945927
-0.0968581
-0.0991175
-0.101371
-0.103619
-0.105863
-0.108102
-0.110337
-0.112568
-0.114796
-0.117021
-0.119244
-0.121464
-0.123683
-0.1259
-0.128116
-0.130331
-0.132546
-0.13476
-0.136974
-0.139189
-0.141404
-0.143621
-0.145838
-0.089878
-0.0920199
-0.0941576
-0.0962916
-0.0984222
-0.10055
-0.102675
-0.104797
-0.106918
-0.109037
-0.111155
-0.113272
-0.115389
-0.117505
-0.119621
-0.121737
-0.123854
-0.125972
-0.128092
-0.130212
-0.132335
-0.134459
-0.136586
-0.138715
-0.0855606
-0.0875834
-0.0896038
-0.0916219
-0.093638
-0.0956527
-0.097666
-0.0996784
-0.10169
-0.103702
-0.105713
-0.107725
-0.109738
-0.111751
-0.113765
-0.115781
-0.117799
-0.119819
-0.121841
-0.123865
-0.125893
-0.127923
-0.129956
-0.131993
-0.081599
-0.0835079
-0.0854154
-0.0873218
-0.0892275
-0.0911326
-0.0930376
-0.0949427
-0.0968481
-0.0987542
-0.100661
-0.10257
-0.104479
-0.106391
-0.108304
-0.11022
-0.112138
-0.11406
-0.115984
-0.117911
-0.119842
-0.121777
-0.123715
-0.125658
-0.0779569
-0.0797568
-0.0815563
-0.0833556
-0.0851549
-0.0869546
-0.0887549
-0.090556
-0.0923583
-0.0941619
-0.0959671
-0.0977742
-0.0995834
-0.101395
-0.103209
-0.105026
-0.106846
-0.10867
-0.110497
-0.112327
-0.114162
-0.116001
-0.117844
-0.119692
-0.0746015
-0.0762976
-0.077994
-0.0796909
-0.0813884
-0.0830869
-0.0847865
-0.0864875
-0.0881902
-0.0898947
-0.0916013
-0.0933103
-0.0950217
-0.096736
-0.0984532
-0.100174
-0.101897
-0.103625
-0.105356
-0.107092
-0.108831
-0.110575
-0.112324
-0.114077
-0.0715031
-0.0731007
-0.074699
-0.0762982
-0.0778986
-0.0795003
-0.0811036
-0.0827087
-0.0843157
-0.0859249
-0.0875365
-0.0891507
-0.0907677
-0.0923877
-0.0940109
-0.0956375
-0.0972677
-0.0989016
-0.10054
-0.102182
-0.103828
-0.105479
-0.107135
-0.108795
-0.070141
-0.0716461
-0.0731525
-0.0746603
-0.0761697
-0.077681
-0.0791942
-0.0807097
-0.0822275
-0.0837479
-0.085271
-0.0867971
-0.0883263
-0.0898587
-0.0913947
-0.0929342
-0.0944776
-0.096025
-0.0975766
-0.0991324
-0.100693
-0.102258
-0.103828
-0.0673954
-0.0688121
-0.0702303
-0.0716501
-0.0730717
-0.0744952
-0.075921
-0.077349
-0.0787795
-0.0802126
-0.0816485
-0.0830874
-0.0845294
-0.0859746
-0.0874234
-0.0888757
-0.0903318
-0.0917918
-0.0932559
-0.0947242
-0.0961968
-0.097674
-0.0991558
-0.0648436
-0.0661765
-0.0675111
-0.0688473
-0.0701855
-0.0715257
-0.0728681
-0.0742128
-0.07556
-0.0769099
-0.0782625
-0.079618
-0.0809766
-0.0823384
-0.0837035
-0.0850721
-0.0864444
-0.0878204
-0.0892003
-0.0905843
-0.0919724
-0.0933649
-0.0947618
-0.0624674
-0.063721
-0.0649763
-0.0662335
-0.0674925
-0.0687535
-0.0700168
-0.0712823
-0.0725503
-0.0738208
-0.075094
-0.0763701
-0.0776491
-0.0789311
-0.0802164
-0.0815049
-0.082797
-0.0840925
-0.0853918
-0.0866949
-0.088002
-0.089313
-0.0906283
-0.0919478
-0.0602505
-0.0614292
-0.0626096
-0.0637918
-0.0649758
-0.0661619
-0.06735
-0.0685404
-0.0697331
-0.0709283
-0.072126
-0.0733264
-0.0745295
-0.0757356
-0.0769447
-0.0781569
-0.0793724
-0.0805912
-0.0818134
-0.0830392
-0.0842686
-0.0855018
-0.0867389
-0.0879799
-0.0581791
-0.059287
-0.0603965
-0.0615078
-0.0626208
-0.0637358
-0.0648528
-0.0659718
-0.0670932
-0.0682168
-0.0693428
-0.0704713
-0.0716024
-0.0727363
-0.0738729
-0.0750124
-0.0761549
-0.0773006
-0.0784493
-0.0796014
-0.0807568
-0.0819157
-0.0830781
-0.0842441
-0.0562404
-0.0572813
-0.0583238
-0.059368
-0.0604139
-0.0614616
-0.0625112
-0.0635628
-0.0646164
-0.0656722
-0.0667302
-0.0677906
-0.0688533
-0.0699186
-0.0709864
-0.0720568
-0.0731301
-0.0742061
-0.075285
-0.0763669
-0.0774519
-0.07854
-0.0796313
-0.0807259
-0.054423
-0.0554008
-0.05638
-0.0573608
-0.0583432
-0.0593273
-0.0603132
-0.0613009
-0.0622904
-0.063282
-0.0642756
-0.0652714
-0.0662693
-0.0672695
-0.068272
-0.069277
-0.0702844
-0.0712944
-0.072307
-0.0733223
-0.0743403
-0.0753611
-0.0763849
-0.0774116
-0.0527168
-0.053635
-0.0545545
-0.0554755
-0.0563979
-0.0573219
-0.0582475
-0.0591748
-0.0601038
-0.0610346
-0.0619673
-0.0629018
-0.0638384
-0.064777
-0.0657177
-0.0666606
-0.0676057
-0.0685531
-0.0695028
-0.0704549
-0.0714095
-0.0723666
-0.0733262
-0.0742885
-0.051113
-0.0519749
-0.0528381
-0.0537025
-0.0545684
-0.0554356
-0.0563043
-0.0571745
-0.0580463
-0.0589197
-0.0597947
-0.0606715
-0.06155
-0.0624304
-0.0633126
-0.0641967
-0.0650828
-0.065971
-0.0668612
-0.0677535
-0.068648
-0.0695447
-0.0704436
-0.0713449
-0.0496037
-0.0504125
-0.0512225
-0.0520337
-0.0528461
-0.0536598
-0.0544747
-0.0552911
-0.0561088
-0.0569279
-0.0577485
-0.0585706
-0.0593943
-0.0602196
-0.0610466
-0.0618752
-0.0627055
-0.0635377
-0.0643716
-0.0652074
-0.066045
-0.0668846
-0.0677262
-0.0685697
-0.0481824
-0.0489412
-0.049701
-0.0504618
-0.0512238
-0.0519869
-0.0527511
-0.0535166
-0.0542832
-0.0550511
-0.0558204
-0.0565909
-0.0573628
-0.0581361
-0.0589108
-0.059687
-0.0604647
-0.0612439
-0.0620247
-0.062807
-0.063591
-0.0643766
-0.065164
-0.065953
-0.046842
-0.0475536
-0.0482662
-0.0489796
-0.0496941
-0.0504095
-0.0511259
-0.0518434
-0.0525619
-0.0532815
-0.0540023
-0.0547241
-0.0554472
-0.0561714
-0.0568969
-0.0576236
-0.0583516
-0.0590809
-0.0598115
-0.0605435
-0.0612768
-0.0620116
-0.0627478
-0.0634854
-0.0455777
-0.0462449
-0.0469129
-0.0475817
-0.0482513
-0.0489218
-0.0495931
-0.0502653
-0.0509385
-0.0516125
-0.0522875
-0.0529635
-0.0536405
-0.0543185
-0.0549975
-0.0556776
-0.0563587
-0.0570409
-0.0577243
-0.0584088
-0.0590944
-0.0597812
-0.0604691
-0.0611583
-0.0443843
-0.0450097
-0.0456357
-0.0462624
-0.0468898
-0.0475179
-0.0481468
-0.0487764
-0.0494067
-0.0500379
-0.0506698
-0.0513026
-0.0519362
-0.0525706
-0.0532058
-0.053842
-0.054479
-0.0551169
-0.0557557
-0.0563955
-0.0570361
-0.0576778
-0.0583203
-0.0589639
-0.0432574
-0.0438433
-0.0444298
-0.0450169
-0.0456046
-0.0461928
-0.0467817
-0.0473712
-0.0479613
-0.048552
-0.0491434
-0.0497355
-0.0503282
-0.0509216
-0.0515157
-0.0521105
-0.052706
-0.0533022
-0.0538991
-0.0544968
-0.0550952
-0.0556943
-0.0562942
-0.0568949
-0.0421934
-0.0427422
-0.0432915
-0.0438413
-0.0443916
-0.0449423
-0.0454935
-0.0460453
-0.0465975
-0.0471502
-0.0477035
-0.0482572
-0.0488115
-0.0493663
-0.0499217
-0.0504775
-0.051034
-0.051591
-0.0521485
-0.0527066
-0.0532652
-0.0538245
-0.0543843
-0.0549446
-0.0411887
-0.0417027
-0.042217
-0.0427317
-0.0432467
-0.0437622
-0.044278
-0.0447942
-0.0453108
-0.0458278
-0.0463452
-0.0468629
-0.0473811
-0.0478996
-0.0484186
-0.0489379
-0.0494576
-0.0499778
-0.0504983
-0.0510192
-0.0515406
-0.0520623
-0.0525845
-0.053107
-0.0402402
-0.0407214
-0.0412028
-0.0416845
-0.0421665
-0.0426488
-0.0431314
-0.0436142
-0.0440973
-0.0445807
-0.0450644
-0.0455483
-0.0460325
-0.046517
-0.0470018
-0.0474868
-0.0479721
-0.0484576
-0.0489434
-0.0494295
-0.0499159
-0.0504025
-0.0508893
-0.0513764
-0.0393454
-0.0397957
-0.0402463
-0.040697
-0.0411479
-0.041599
-0.0420504
-0.0425019
-0.0429535
-0.0434054
-0.0438574
-0.0443096
-0.044762
-0.0452145
-0.0456672
-0.04612
-0.046573
-0.0470261
-0.0474794
-0.0479328
-0.0483863
-0.0488399
-0.0492937
-0.0497476
-0.0385015
-0.0389229
-0.0393444
-0.0397661
-0.0401879
-0.0406098
-0.0410318
-0.0414539
-0.0418761
-0.0422984
-0.0427207
-0.0431432
-0.0435657
-0.0439882
-0.0444108
-0.0448335
-0.0452562
-0.045679
-0.0461017
-0.0465245
-0.0469473
-0.0473702
-0.047793
-0.0482158
-0.0377065
-0.0381008
-0.0384951
-0.0388895
-0.039284
-0.0396785
-0.040073
-0.0404676
-0.0408621
-0.0412567
-0.0416512
-0.0420458
-0.0424403
-0.0428348
-0.0432293
-0.0436238
-0.0440181
-0.0444125
-0.0448067
-0.0452009
-0.045595
-0.045989
-0.0463829
-0.0467767
-0.0369584
-0.0373273
-0.0376961
-0.038065
-0.0384339
-0.0388027
-0.0391715
-0.0395402
-0.0399089
-0.0402776
-0.0406461