/*--------------------------------*- C++ -*----------------------------------*\
  =========                 |
  \\      /  F ield         | OpenFOAM: The Open Source CFD Toolbox
   \\    /   O peration     | Website:  https://openfoam.org
    \\  /    A nd           | Version:  7
     \\/     M anipulation  |
\*---------------------------------------------------------------------------*/
FoamFile
{
    version     2.0;
    format      ascii;
    class       volVectorField;
    location    "20";
    object      U;
}
// * * * * * * * * * * * * * * * * * * * * * * * * * * * * * * * * * * * * * //

dimensions      [0 1 -1 0 0 0 0];

internalField   nonuniform List<vector> 
4575
(
(-0.00023236 0.00023596 -6.75244e-22)
(-0.00158049 0.000621819 -3.52577e-21)
(-0.00438084 0.000933554 4.2647e-22)
(-0.000250288 0.000707571 -3.29955e-21)
(-0.00162544 0.00186389 2.67966e-21)
(-0.0044436 0.00279731 -3.11392e-21)
(-0.000286045 0.00117637 -2.55482e-20)
(-0.0017151 0.00309888 3.22361e-21)
(-0.00456884 0.00465077 4.89439e-21)
(-0.000339412 0.00164054 4.1796e-20)
(-0.00184899 0.00432216 -1.8188e-20)
(-0.00475598 0.00648716 -1.25226e-20)
(-0.00041007 0.00209828 -5.59249e-21)
(-0.00202639 0.0055292 7.18462e-20)
(-0.0050041 0.00829992 3.33215e-20)
(-0.000497602 0.00254791 -2.73068e-20)
(-0.00224635 0.00671569 1.69313e-20)
(-0.00531203 0.0100826 -2.72865e-20)
(-0.0006015 0.00298783 3.31229e-20)
(-0.00250771 0.00787749 -4.055e-20)
(-0.0056783 0.0118293 -6.14767e-20)
(-0.000721178 0.00341653 5.52762e-21)
(-0.00280912 0.00901072 -1.9751e-20)
(-0.0061012 0.013534 5.54734e-20)
(-0.000855976 0.00383265 -1.5506e-20)
(-0.00314906 0.0101118 1.08628e-19)
(-0.00657877 0.0151915 -2.38896e-20)
(-0.0106984 0.019223 -2.83249e-20)
(-0.00100518 0.00423497 -4.81327e-20)
(-0.00352583 0.0111774 6.33864e-20)
(-0.00710882 0.0167966 3.53825e-20)
(-0.011321 0.021257 1.59211e-20)
(-0.00116802 0.00462239 8.74364e-20)
(-0.00393763 0.0122046 -4.87251e-20)
(-0.00768896 0.0183449 1.63654e-20)
(-0.012003 0.0232194 6.11799e-20)
(-0.00134369 0.00499397 7.31923e-20)
(-0.00438252 0.0131908 -8.95351e-20)
(-0.0083166 0.0198322 -9.27421e-20)
(-0.0127416 0.0251049 -4.39071e-20)
(-0.00153137 0.00534894 -9.11666e-20)
(-0.00485847 0.0141336 -8.54832e-20)
(-0.00898895 0.0212548 3.52345e-20)
(-0.0135334 0.0269084 8.72952e-20)
(-0.00173021 0.00568663 3.81418e-20)
(-0.00536338 0.0150311 5.71097e-20)
(-0.00970309 0.0226094 6.88228e-20)
(-0.0143749 0.0286256 -1.15386e-19)
(-0.00193937 0.00600656 -2.20011e-20)
(-0.00589507 0.0158817 2.68603e-20)
(-0.0104559 0.0238933 -5.75826e-20)
(-0.0152624 0.0302525 -8.51682e-20)
(-0.00215799 0.00630834 8.09902e-20)
(-0.00645132 0.016684 -8.06912e-20)
(-0.0112441 0.0251041 6.48567e-20)
(-0.0161916 0.0317858 1.03046e-19)
(-0.00238524 0.00659174 -3.5234e-20)
(-0.00702988 0.017437 -2.39653e-20)
(-0.0120643 0.0262398 6.67931e-20)
(-0.0171581 0.0332223 -9.2201e-20)
(-0.0221938 0.0385486 -5.17563e-20)
(-0.00262029 0.00685661 -8.16659e-20)
(-0.00762843 0.0181398 1.14821e-19)
(-0.0129129 0.0272986 1.56344e-21)
(-0.0181571 0.0345597 -1.07485e-21)
(-0.0232491 0.0400917 1.16151e-19)
(-0.00286233 0.00710291 2.64062e-20)
(-0.00824465 0.018792 -8.17259e-20)
(-0.0137862 0.0282794 7.80943e-20)
(-0.0191836 0.0357957 -1.15607e-19)
(-0.0243298 0.041514 1.42013e-19)
(-0.00311056 0.00733065 1.03031e-20)
(-0.00887618 0.0193932 -4.25804e-20)
(-0.0146802 0.029181 1.36816e-19)
(-0.0202319 0.0369285 -1.75061e-19)
(-0.025429 0.0428131 -1.43226e-19)
(-0.00336421 0.00753993 -7.14386e-20)
(-0.00952059 0.019943 -1.27502e-19)
(-0.0155909 0.0300026 -7.28127e-20)
(-0.0212962 0.0379565 9.5304e-20)
(-0.0265386 0.0439867 -5.50373e-21)
(-0.0312287 0.0482864 1.93543e-20)
(-0.00362252 0.00773089 6.58573e-20)
(-0.0101754 0.0204415 1.66552e-19)
(-0.0165139 0.0307435 -1.25337e-19)
(-0.0223701 0.0388785 -6.00359e-20)
(-0.0276502 0.0450328 4.96375e-20)
(-0.0322696 0.0494048 -1.18613e-19)
(-0.00388473 0.00790369 -7.22228e-20)
(-0.0108382 0.0208885 -8.26708e-21)
(-0.0174447 0.0314032 1.77562e-19)
(-0.0234467 0.0396931 1.74185e-19)
(-0.0287541 0.0459496 -3.53059e-20)
(-0.033287 0.0503762 -2.21054e-20)
(-0.0041501 0.00805851 4.61714e-20)
(-0.0115063 0.0212841 9.39245e-20)
(-0.0183785 0.0319812 -6.46964e-20)
(-0.0245189 0.0403994 -7.95716e-20)
(-0.0298402 0.0467355 -8.16334e-20)
(-0.0342673 0.0511985 -2.18407e-20)
(-0.00441787 0.00819553 -6.33615e-20)
(-0.0121771 0.0216283 -2.04168e-19)
(-0.0193103 0.0324772 6.41402e-20)
(-0.0255785 0.0409965 3.54136e-21)
(-0.0308974 0.0473891 2.67138e-19)
(-0.0351957 0.0518698 -1.57669e-19)
(-0.0384106 0.054658 -1.33726e-19)
(-0.00468729 0.00831492 -6.06518e-20)
(-0.0128478 0.0219212 2.41213e-19)
(-0.0202347 0.0328907 -1.82194e-19)
(-0.0266173 0.0414833 -3.6845e-20)
(-0.0319135 0.0479087 -6.1461e-20)
(-0.0360557 0.0523883 -1.57932e-19)
(-0.0389855 0.0551472 1.55669e-19)
(-0.00495759 0.00841684 8.60295e-20)
(-0.0135154 0.0221627 -1.05889e-19)
(-0.0211459 0.0332214 -1.31206e-19)
(-0.0276261 0.0418591 -1.22757e-19)
(-0.0328754 0.0482931 4.0431e-20)
(-0.0368297 0.0527523 2.25122e-20)
(-0.0394342 0.0554679 5.5532e-20)
(-0.00522798 0.00850143 -1.81721e-19)
(-0.0141769 0.0223529 1.42394e-19)
(-0.022038 0.0334688 1.58292e-19)
(-0.0285952 0.0421228 -9.10379e-20)
(-0.0337691 0.0485409 1.53905e-19)
(-0.0374984 0.0529601 1.46949e-19)
(-0.0397316 0.0556185 -2.63377e-20)
(-0.0404271 0.0567458 -1.45806e-19)
(-0.00549763 0.00856879 -1.43463e-19)
(-0.014829 0.0224915 -1.31037e-19)
(-0.0229044 0.0336325 1.02451e-19)
(-0.029514 0.0422735 5.89739e-20)
(-0.0345794 0.0486507 2.37932e-20)
(-0.0380411 0.05301 -4.3131e-20)
(-0.0398503 0.0555971 -3.01557e-20)
(-0.0399672 0.0566483 6.81479e-20)
(-0.00576567 0.00861898 6.9382e-20)
(-0.0154682 0.0225785 1.35602e-19)
(-0.0237381 0.0337119 -2.41644e-19)
(-0.0303713 0.0423104 -1.8309e-19)
(-0.0352897 0.0486214 9.18222e-20)
(-0.0384353 0.0529006 8.55559e-20)
(-0.0397609 0.0554025 -1.7553e-19)
(-0.0392275 0.0563703 -1.56214e-20)
(-0.00603117 0.00865205 3.33951e-19)
(-0.0160909 0.0226137 -2.29271e-19)
(-0.0245317 0.0337066 5.51425e-20)
(-0.0311549 0.0422327 1.77693e-19)
(-0.0358824 0.0484517 -1.89534e-19)
(-0.0386568 0.0526307 9.27059e-21)
(-0.0394319 0.0550335 1.41081e-19)
(-0.0381678 0.0559113 2.56661e-19)
(-0.0348232 0.055498 2.5707e-19)
(-0.00629316 0.00866799 -3.16621e-19)
(-0.016693 0.0225967 2.28315e-19)
(-0.025277 0.0336159 5.49031e-20)
(-0.0318518 0.0420394 -1.76125e-19)
(-0.0363384 0.0481409 7.36245e-20)
(-0.0386798 0.0521995 -3.51906e-20)
(-0.0388292 0.0544895 -2.62794e-20)
(-0.0367449 0.0552709 -2.16616e-19)
(-0.0323816 0.0547853 -3.38284e-19)
(-0.00655055 0.00866674 2.53846e-19)
(-0.0172703 0.0225271 -6.43916e-20)
(-0.0259653 0.0334392 2.16853e-19)
(-0.0324477 0.04173 5.2036e-20)
(-0.0366372 0.0476883 -1.13493e-19)
(-0.0384763 0.0516066 1.81991e-20)
(-0.0379165 0.0537707 -2.36907e-19)
(-0.0349128 0.0544501 1.0663e-19)
(-0.029414 0.0538953 5.71216e-20)
(-0.0213563 0.0523347 8.54259e-21)
(-0.00680217 0.00864821 -6.48024e-20)
(-0.0178178 0.0224046 -6.93309e-20)
(-0.0265871 0.0331761 -1.35895e-19)
(-0.0329274 0.0413039 9.85224e-20)
(-0.0367568 0.0470937 1.76929e-19)
(-0.0380163 0.0508524 -2.26473e-19)
(-0.036655 0.0528779 3.58025e-19)
(-0.0326225 0.0534509 -6.92604e-20)
(-0.02586 0.052831 1.00377e-20)
(-0.0162932 0.0512561 -2.35084e-19)
(-0.00704671 0.00861224 2.01157e-20)
(-0.0183305 0.0222287 6.724e-20)
(-0.0271321 0.0328259 8.00939e-20)
(-0.0332743 0.0407609 -6.62534e-20)
(-0.0366733 0.0463574 1.64155e-19)
(-0.0372679 0.0499379 2.1766e-19)
(-0.0350032 0.0518136 3.39132e-21)
(-0.0298221 0.0522767 -2.75186e-19)
(-0.021656 0.0515977 -2.17667e-19)
(-0.0104179 0.0500245 2.25576e-19)
(-0.00728272 0.00855863 -1.20383e-19)
(-0.0188027 0.0219988 1.14576e-19)
(-0.0275891 0.0323883 -8.36501e-20)
(-0.0334705 0.0401011 -4.1095e-20)
(-0.0363611 0.0454804 -1.10808e-19)
(-0.0361965 0.0488654 -8.30881e-20)
(-0.0329168 0.0505814 -1.47089e-19)
(-0.0264566 0.0509332 2.4051e-19)
(-0.0167351 0.0502029 9.46176e-20)
(-0.00365091 0.0486498 -2.29787e-19)
(0.0129202 0.0465119 -2.76146e-19)
(-0.00750856 0.0084871 -1.23418e-20)
(-0.019228 0.0217143 -2.83002e-19)
(-0.0279456 0.031863 6.82284e-20)
(-0.0334965 0.0393249 1.50123e-19)
(-0.0357925 0.0444643 -2.73004e-20)
(-0.0347655 0.0476382 -1.77898e-19)
(-0.0303491 0.0491869 1.94038e-19)
(-0.0224678 0.0494284 2.19837e-19)
(-0.0110274 0.0486573 8.32107e-20)
(0.00409026 0.0471453 4.0876e-19)
(0.0230271 0.0451439 -1.88081e-19)
(-0.0077224 0.0083973 -6.98343e-20)
(-0.0195995 0.0213745 -2.51423e-20)
(-0.0281884 0.0312497 -2.26197e-19)
(-0.0333314 0.0384331 1.36997e-19)
(-0.0349379 0.0433117 -1.3835e-19)
(-0.0329354 0.0462611 -1.39006e-19)
(-0.02725 0.0476375 -1.2405e-20)
(-0.0177945 0.0477729 -2.21736e-19)
(-0.00445968 0.0469751 -3.47995e-19)
(0.0128904 0.0455289 9.41643e-20)
(0.0344163 0.0437001 1.04381e-19)
(0.0602953 0.0417402 -4.37229e-20)
(-0.00792215 0.00828881 2.18911e-19)
(-0.0199095 0.0209788 -3.45024e-20)
(-0.0283026 0.0305485 1.99736e-19)
(-0.0329525 0.0374273 -2.02603e-19)
(-0.0337656 0.0420262 2.95868e-19)
(-0.0306646 0.0447405 2.44918e-19)
(-0.0235669 0.045943 -1.99044e-19)
(-0.0123728 0.0459805 -3.66445e-19)
(0.00304346 0.0451743 6.00823e-19)
(0.0228359 0.0438232 1.46765e-19)
(0.0471834 0.0422076 -1.13111e-19)
(0.0762781 0.0405952 -1.10579e-19)
(-0.00810544 0.00816117 -3.49748e-19)
(-0.0201495 0.0205264 2.28776e-19)
(-0.0282724 0.0297594 -3.37084e-19)
(-0.0323351 0.0363094 -1.8164e-19)
(-0.0322415 0.0406124 6.69717e-20)
(-0.0279086 0.0430845 -2.64641e-19)
(-0.0192445 0.0441157 4.10235e-19)
(-0.00613587 0.0440681 7.0175e-21)
(0.0115598 0.0432773 -2.23395e-19)
(0.0340143 0.0420563 -1.93014e-19)
(0.0614227 0.0406998 -3.40864e-19)
(0.0939878 0.0394911 -4.10701e-21)
(0.131896 0.0387098 -4.74991e-20)
(-0.00826951 0.00801376 1.24237e-19)
(-0.0203102 0.0200166 -2.28771e-19)
(-0.0280803 0.028883 2.91016e-19)
(-0.0314529 0.0350821 4.04716e-19)
(-0.0303292 0.0390762 -1.30247e-19)
(-0.0246205 0.0413029 1.68082e-20)
(-0.0142249 0.0421702 -3.45795e-19)
(0.000985193 0.0420561 -8.49778e-20)
(0.0211684 0.0413108 -2.62036e-19)
(0.0465127 0.0402614 3.37907e-19)
(0.077225 0.0392167 3.0975e-19)
(0.113512 0.0384736 -5.44568e-20)
(0.155551 0.0383248 -4.05386e-20)
(-0.00841129 0.00784609 3.28021e-20)
(-0.020381 0.0194489 4.62707e-20)
(-0.0277076 0.0279201 -1.52338e-19)
(-0.0302777 0.0337488 -4.17086e-19)
(-0.0279905 0.0374246 6.68956e-20)
(-0.0207513 0.0394076 2.00361e-19)
(-0.00844784 0.0401241 9.04651e-20)
(0.00906108 0.0399685 3.83925e-19)
(0.0319491 0.039306 -2.38422e-19)
(0.0604166 0.0384776 -3.06561e-19)
(0.0946764 0.0378049 -5.55128e-20)
(0.134928 0.0375961 1.36747e-19)
(0.181324 0.0381516 2.96057e-20)
(0.233926 0.0397726 1.22969e-20)
(-0.00852744 0.00765745 -1.62128e-19)
(-0.0203506 0.0188223 1.06786e-20)
(-0.0271338 0.0268717 -2.99255e-20)
(-0.0287792 0.0323137 3.61795e-19)
(-0.0251847 0.0356662 1.13137e-19)
(-0.0162494 0.0374124 -3.66582e-20)
(-0.00185142 0.0379976 1.38969e-19)
(0.0181634 0.0378327 1.21699e-19)
(0.0439808 0.0372984 2.90843e-19)
(0.0758083 0.0367488 3.53702e-20)
(0.113855 0.0365172 -3.43229e-19)
(0.1583 0.0369192 1.94896e-20)
(0.209249 0.0382572 -2.73882e-19)
(0.266688 0.0408231 -2.33494e-20)
(0.330435 0.0449075 -1.30352e-19)
(-0.00861403 0.00744707 2.65478e-19)
(-0.0202067 0.0181365 1.90965e-19)
(-0.026337 0.0257395 1.50232e-19)
(-0.0269257 0.0307819 -2.0652e-19)
(-0.0218694 0.0338109 1.39183e-19)
(-0.011062 0.0353332 -1.31708e-19)
(0.0056275 0.0358134 -2.06443e-19)
(0.0283638 0.0356797 -2.87013e-19)
(0.0573406 0.0353275 -1.25076e-19)
(0.0927647 0.0351238 2.4399e-19)
(0.134829 0.0354111 2.14353e-19)
(0.183673 0.036509 3.11193e-19)
(0.239332 0.0387144 2.75525e-19)
(0.301681 0.0422995 -8.32848e-20)
(0.370388 0.0475126 -1.14176e-19)
(-0.00866675 0.00721425 -1.62217e-19)
(-0.0199356 0.0173911 -4.36522e-19)
(-0.0252939 0.0245255 -1.77942e-19)
(-0.0246833 0.0291596 1.89828e-19)
(-0.0180003 0.0318701 5.47386e-20)
(-0.00513455 0.0331879 9.00505e-20)
(0.0140526 0.0335973 2.36837e-19)
(0.0397329 0.0335436 -2.36307e-19)
(0.0721018 0.0334367 3.25088e-19)
(0.111355 0.0336553 -3.34647e-20)
(0.157654 0.0345483 -4.74914e-19)
(0.211075 0.0364346 -8.91818e-20)
(0.271553 0.0395985 -3.05869e-19)
(0.338815 0.0442813 -2.10103e-19)
(0.412332 0.0506758 2.26392e-19)
(0.491228 0.0588502 1.84739e-19)
(-0.00868084 0.0069583 2.15992e-19)
(-0.0195228 0.0165861 3.40677e-19)
(-0.0239797 0.0232327 -1.86423e-20)
(-0.0220168 0.0274539 -1.5719e-19)
(-0.013532 0.0298568 -1.74008e-19)
(0.00158819 0.0309967 3.74322e-20)
(0.0234871 0.0313775 -2.8049e-19)
(0.052339 0.0314615 2.66338e-19)
(0.0883323 0.0316725 -1.04122e-19)
(0.131639 0.0323988 -2.2696e-19)
(0.182368 0.0339926 2.8383e-19)
(0.240508 0.0367663 -6.98754e-20)
(0.305858 0.040983 -1.26352e-19)
(0.377958 0.0468427 2.33411e-19)
(0.456038 0.0544705 -3.56524e-19)
(0.538933 0.0638267 1.81024e-21)
(0.625413 0.0750798 1.44146e-20)
(-0.00865109 0.00667862 -2.40775e-19)
(-0.0189526 0.0157218 -9.52372e-20)
(-0.0223682 0.0218644 1.71332e-19)
(-0.0188896 0.0256732 1.42171e-19)
(-0.00841784 0.0277858 1.61577e-19)
(0.00916165 0.0287818 -9.31733e-20)
(0.033993 0.0291847 -8.09458e-20)
(0.0662463 0.0294733 -3.47092e-20)
(0.106092 0.0300841 -3.70114e-19)
(0.153662 0.0314123 6.88813e-19)
(0.20899 0.0338089 7.3348e-21)
(0.271947 0.0375729 8.75066e-20)
(0.342158 0.0429371 8.49699e-20)
(0.418937 0.0500484 1.73554e-19)
(0.501231 0.0589528 3.0159e-19)
(0.587561 0.069499 1.72481e-19)
(0.676331 0.0817143 1.85376e-19)
(-0.00857183 0.00637468 6.06163e-20)
(-0.0182085 0.0147989 -5.09792e-20)
(-0.0204321 0.020425 1.28517e-19)
(-0.0152641 0.0238274 -1.94409e-19)
(-0.00261064 0.0256737 -2.39767e-20)
(0.0176407 0.0265678 8.93358e-20)
(0.0456298 0.0270523 1.0746e-19)
(0.0815139 0.0276216 -9.32365e-20)
(0.125432 0.0287228 2.69641e-19)
(0.177456 0.0307545 -2.80488e-19)
(0.237518 0.0340611 1.30869e-19)
(0.305335 0.0389196 -2.49933e-19)
(0.380325 0.0455218 2.54921e-19)
(0.461532 0.0539493 2.16222e-19)
(0.547594 0.0641579 -3.99008e-19)
(0.636702 0.0758822 -3.67658e-19)
(0.726903 0.0890057 -1.34993e-19)
(0.815254 0.101637 -1.17695e-19)
(-0.00843694 0.00604616 3.82238e-19)
(-0.0172728 0.0138187 -2.20406e-19)
(-0.0181428 0.01892 -3.12738e-19)
(-0.0111017 0.0219275 -1.30834e-19)
(0.0039368 0.0235387 -2.02853e-19)
(0.0270789 0.0243812 -2.38553e-20)
(0.0584536 0.0250158 3.58426e-19)
(0.0981939 0.0259509 1.82144e-19)
(0.146392 0.0276413 2.86812e-19)
(0.203033 0.0304846 7.95381e-20)
(0.267921 0.0348109 2.21485e-19)
(0.340583 0.0408659 -2.55755e-19)
(0.420189 0.0487878 1.07297e-19)
(0.505484 0.0585805 -1.75919e-19)
(0.594771 0.0700987 1.9831e-19)
(0.685916 0.0829617 4.37637e-19)
(0.776651 0.0969103 -3.75064e-20)
(0.863963 0.110106 2.81795e-19)
(0.947507 0.125969 -1.02543e-19)
(-0.00823991 0.0056929 -1.98843e-19)
(-0.0161272 0.0127833 1.87292e-21)
(-0.0154711 0.017356 1.57862e-19)
(-0.00636356 0.0199865 3.16482e-20)
(0.0112712 0.0214013 3.8859e-19)
(0.0375277 0.022251 -5.06299e-20)
(0.0725153 0.0231131 -3.06119e-19)
(0.11633 0.0245075 -2.28216e-19)
(0.168995 0.0268931 -3.30655e-19)
(0.230387 0.0306603 -3.26979e-19)
(0.300143 0.0361162 -3.90116e-19)
(0.377567 0.0434634 4.25938e-19)
(0.461543 0.0527735 1.89638e-19)
(0.550491 0.0639594 -2.64913e-20)
(0.642373 0.0767651 -5.41266e-20)
(0.734753 0.0906955 6.49894e-20)
(0.825107 0.105356 1.89342e-19)
(0.910433 0.118994 1.13448e-19)
(0.989974 0.134403 9.21614e-20)
(1.05376 0.139744 2.91887e-20)
(-0.00797384 0.00531506 -6.98293e-20)
(-0.0147524 0.0116956 4.05211e-20)
(-0.0123872 0.0157408 5.83084e-20)
(-0.00101061 0.0180189 1.52213e-19)
(0.0194381 0.019284 -1.16972e-19)
(0.0490353 0.0202084 2.97834e-20)
(0.08786 0.021384 3.14793e-19)
(0.135954 0.0233393 3.48292e-20)
(0.193251 0.026532 -1.53907e-21)
(0.259487 0.0313375 4.50329e-20)
(0.334098 0.0380297 2.30776e-19)
(0.416126 0.0467548 -3.26105e-19)
(0.504142 0.0575034 -3.56673e-19)
(0.596219 0.0700851 -1.95861e-19)
(0.689992 0.0841257 -2.41825e-19)
(0.78276 0.0990193 -2.92153e-19)
(0.871829 0.114248 -4.05831e-20)
(0.954296 0.128171 -1.91351e-19)
(1.02919 0.14302 4.2872e-19)
(1.08869 0.148691 -2.23471e-19)
(-0.00763148 0.00491307 3.5843e-19)
(-0.0131289 0.0105593 -8.78267e-20)
(-0.00886078 0.0140838 -1.26084e-19)
(0.00499567 0.0160411 6.40882e-20)
(0.0284812 0.0172116 3.13271e-20)
(0.0616459 0.0182867 -9.05846e-20)
(0.104525 0.0198703 -2.65196e-20)
(0.157088 0.022495 -5.38663e-20)
(0.219152 0.0266109 1.60376e-19)
(0.290278 0.032569 3.94154e-19)
(0.369669 0.0405975 1.2621e-19)
(0.456067 0.0507719 3.78845e-19)
(0.547705 0.0629874 1.56881e-19)
(0.642309 0.0769387 2.19548e-19)
(0.737208 0.0921296 2.54248e-19)
(0.829502 0.107851 -2.53827e-20)
(0.916421 0.123481 -6.7507e-20)
(0.995252 0.137505 5.187e-22)
(1.065 0.151682 4.88179e-20)
(1.11974 0.1575 1.17944e-19)
(-0.0072053 0.00448778 -1.61482e-19)
(-0.0112364 0.00937924 2.39496e-20)
(-0.00486157 0.0123961 -1.7548e-19)
(0.011693 0.0140719 -2.4514e-19)
(0.0384418 0.0152109 -1.04294e-19)
(0.0753986 0.0165214 -1.10989e-20)
(0.12254 0.0186154 1.39523e-19)
(0.17974 0.022024 -1.12753e-19)
(0.246669 0.0271814 2.27287e-20)
(0.322683 0.0344032 -2.52296e-20)
(0.406709 0.0438578 -3.29139e-19)
(0.497164 0.055535 -5.15402e-19)
(0.591926 0.0692201 -7.83994e-20)
(0.688385 0.0844843 -1.73309e-19)
(0.78361 0.10071 -1.66687e-19)
(0.874577 0.117096 -3.01216e-20)
(0.958545 0.132943 -1.11015e-19)
(1.03308 0.146872 -7.0008e-20)
(1.09733 0.160268 -2.09828e-19)
(1.14702 0.166039 -3.16436e-21)
(-0.00668755 0.00404045 -1.57662e-19)
(-0.00905457 0.00816148 3.37891e-19)
(-0.000359584 0.0106903 2.08659e-19)
(0.0191175 0.0121318 9.23184e-20)
(0.0493577 0.0133112 -3.2984e-20)
(0.0903265 0.0149503 -2.13919e-19)
(0.141923 0.0176642 -1.40322e-19)
(0.203902 0.0219755 -6.85163e-20)
(0.275755 0.0282927 -1.00921e-19)
(0.356595 0.0368832 -3.60749e-19)
(0.445042 0.0478403 2.67769e-19)
(0.539164 0.0610519 1.75194e-19)
(0.636479 0.0761813 2.81616e-19)
(0.734069 0.0926707 8.18899e-20)
(0.828804 0.109786 4.56959e-20)
(0.917626 0.126653 1.70923e-20)
(0.997932 0.142522 -1.83987e-20)
(1.06765 0.156164 -6.30225e-20)
(1.12618 0.168677 -7.03766e-20)
(1.17067 0.174216 -2.15133e-19)
(-0.00607029 0.0035728 2.80599e-20)
(-0.00656307 0.00691333 -5.10243e-20)
(0.00467451 0.00898102 3.71669e-20)
(0.0273036 0.0102437 -8.86795e-20)
(0.061263 0.011544 1.85912e-19)
(0.106456 0.0136129 3.33044e-19)
(0.162683 0.0170624 1.01946e-19)
(0.22955 0.022398 2.82046e-19)
(0.30634 0.0299912 -1.48621e-19)
(0.391884 0.040046 3.8913e-19)
(0.484468 0.0525645 7.15014e-20)
(0.58179 0.0673178 1.71112e-19)
(0.681024 0.0838366 -3.09429e-19)
(0.778987 0.101434 -1.11031e-19)
(0.872426 0.11927 1.14414e-19)
(0.958347 0.136419 2.24166e-19)
(1.03438 0.152116 1.53765e-19)
(1.09889 0.165286 -6.81982e-20)
(1.15162 0.176831 2.84258e-19)
(1.19092 0.181973 9.52005e-20)
(-0.00534548 0.00308709 -9.46119e-20)
(-0.00374164 0.00564345 -2.14317e-19)
(0.010269 0.00728488 -1.60616e-19)
(0.0362831 0.00843285 4.9576e-20)
(0.0741866 0.00994318 -2.65175e-19)
(0.123804 0.0125505 -3.2678e-19)
(0.184814 0.0168563 -4.34451e-20)
(0.256646 0.0233389 -9.97291e-20)
(0.338334 0.0323189 3.52059e-19)
(0.428397 0.0439212 -9.23961e-20)
(0.524759 0.0580399 -2.71134e-19)
(0.62475 0.0743152 -4.42457e-19)
(0.725221 0.0921391 2.38978e-19)
(0.822785 0.110699 2.23594e-19)
(0.914155 0.129069 -5.97858e-20)
(0.996499 0.146295 -1.1752e-19)
(1.06778 0.161631 4.81095e-20)
(1.12683 0.174164 -6.80382e-20)
(1.1738 0.184673 -1.31513e-20)
(1.20803 0.189284 1.74003e-19)
(-0.00450508 0.00258612 -7.30537e-20)
(-0.000570486 0.00436193 -5.5465e-20)
(0.0164509 0.00562041 2.47194e-19)
(0.0460845 0.00672669 -1.51315e-19)
(0.088152 0.00854455 3.86734e-19)
(0.14238 0.0118058 1.6133e-19)
(0.208301 0.0170923 -1.04929e-19)
(0.28513 0.0248432 -1.77822e-19)
(0.371623 0.035313 -2.80862e-19)
(0.465955 0.0485304 1.1859e-19)
(0.565672 0.064265 2.4594e-20)
(0.667741 0.0820148 1.47446e-19)
(0.768734 0.101031 2.9072e-19)
(0.865136 0.120386 -1.65855e-19)
(0.953719 0.139089 5.97905e-20)
(1.03191 0.156188 -2.1495e-19)
(1.09808 0.170988 -6.72182e-20)
(1.15155 0.182741 -5.41284e-20)
(1.19291 0.192166 -3.16656e-20)
(1.22228 0.196144 -2.38807e-19)
(-0.00354106 0.00207325 1.43669e-19)
(0.00296957 0.00308035 2.27531e-19)
(0.023245 0.00400819 9.14387e-21)
(0.056733 0.00515486 1.38824e-19)
(0.103176 0.00738593 -3.32019e-19)
(0.162183 0.0114225 7.94528e-20)
(0.23311 0.0178163 -5.13505e-20)
(0.314928 0.0269532 -9.99703e-21)
(0.406077 0.0390051 -9.57864e-20)
(0.504363 0.0538867 -2.08564e-19)
(0.606946 0.0712279 -5.05412e-20)
(0.710457 0.0903765 1.34809e-19)
(0.811245 0.110446 -3.99423e-19)
(0.905749 0.130411 1.039e-19)
(0.990901 0.149241 -3.09942e-20)
(1.06447 0.166017 1.82694e-19)
(1.12528 0.180121 3.46114e-19)
(1.17319 0.190981 1.25884e-21)
(1.20916 0.199294 -5.94071e-20)
(1.23397 0.202568 -7.90574e-20)
(-0.00244555 0.00155246 -2.58329e-20)
(0.00689678 0.00181179 -3.43523e-19)
(0.0306744 0.00247082 -2.61955e-19)
(0.068249 0.00374913 -1.65148e-20)
(0.119269 0.00650682 5.81953e-20)
(0.183201 0.0114451 -1.11301e-19)
(0.259196 0.0190729 -6.10662e-22)
(0.345945 0.0297075 3.63111e-20)
(0.441543 0.0434201 5.30063e-20)
(0.543405 0.0599939 2.96868e-19)
(0.648315 0.0789061 1.21985e-19)
(0.7526 0.0993504 -3.1717e-20)
(0.85246 0.120312 3.60068e-20)
(0.944379 0.140689 -4.71729e-20)
(1.02554 0.15944 2.16334e-19)
(1.09413 0.17571 -9.12268e-20)
(1.14947 0.188984 -1.54017e-19)
(1.19191 0.198862 -1.26731e-20)
(1.22281 0.206056 9.74465e-20)
(1.2434 0.208583 8.334e-21)
(-0.00121089 0.00102835 4.59912e-20)
(0.0112283 0.000570854 1.82217e-19)
(0.038759 0.00103286 1.12646e-19)
(0.0806484 0.0025432 -2.04694e-19)
(0.136433 0.00594806 4.347e-20)
(0.205412 0.0119178 2.61999e-19)
(0.286498 0.0209047 1.41839e-19)
(0.378072 0.0331401 1.86305e-20)
(0.477852 0.0485759 1.69943e-19)
(0.582857 0.066847 -3.42748e-19)
(0.689508 0.0872677 -9.56309e-20)
(0.793883 0.108879 -4.05018e-20)
(0.892113 0.130553 2.38154e-19)
(0.980824 0.151137 -7.26727e-20)
(1.05754 0.169612 -1.97406e-20)
(1.1209 0.185212 -1.29768e-19)
(1.17076 0.197544 -1.07813e-19)
(1.20793 0.206378 -3.72479e-20)
(1.2341 0.212463 -4.03496e-20)
(1.25085 0.214226 -1.12188e-19)
(0.00017029 0.00050611 -4.28938e-20)
(0.0159796 -0.000626389 -2.58605e-20)
(0.0475157 -0.000279281 -6.61034e-20)
(0.0939414 0.00157248 2.14772e-19)
(0.154662 0.00575142 1.42455e-19)
(0.228781 0.0128847 -4.50054e-20)
(0.314942 0.0233519 -7.88162e-21)
(0.411181 0.03728 1.73668e-19)
(0.514821 0.0544827 -2.61982e-19)
(0.622483 0.0744316 1.58806e-19)
(0.730257 0.0962723 1.61367e-19)
(0.83404 0.1189 4.27643e-20)
(0.929979 0.141094 -8.44894e-20)
(1.01494 0.16168 1.22471e-19)
(1.08684 0.179692 -3.19851e-19)
(1.14485 0.194478 4.07998e-20)
(1.18931 0.205781 -7.68073e-20)
(1.22147 0.213537 1.93193e-19)
(1.24329 0.218535 3.55067e-19)
(1.25659 0.219539 4.6371e-20)
(0.00170492 -8.41931e-06 -6.68124e-20)
(0.0211649 -0.00176242 2.86035e-20)
(0.0569579 -0.00143748 1.86423e-19)
(0.108132 0.000873798 3.05239e-21)
(0.17394 0.00595918 -3.08323e-19)
(0.253262 0.0143885 -2.09562e-19)
(0.344438 0.0264511 -1.77175e-19)
(0.445131 0.0421501 -9.21373e-20)
(0.552255 0.0611428 3.4704e-19)
(0.662045 0.0827249 -1.52341e-20)
(0.770307 0.105872 4.63263e-20)
(0.872829 0.129347 7.52278e-20)
(0.965868 0.151859 -2.4841e-19)
(1.04661 0.172247 -1.97782e-19)
(1.11345 0.189627 5.2415e-20)
(1.16607 0.203478 2.42938e-19)
(1.2053 0.213689 -1.97959e-20)
(1.23276 0.220353 1.90932e-19)
(1.25063 0.224302 -2.68048e-19)
(1.26086 0.224565 -3.30872e-20)
(0.00339946 -0.000508805 8.49312e-20)
(0.026796 -0.00281835 1.0544e-19)
(0.0670951 -0.00241208 -1.92842e-19)
(0.123218 0.000485111 -1.04024e-20)
(0.194242 0.00661362 3.62539e-19)
(0.278794 0.0164701 2.2433e-19)
(0.37488 0.030235 -8.93446e-20)
(0.479767 0.0477672 1.30243e-19)
(0.589952 0.0685507 -1.37757e-19)
(0.701307 0.0916963 -1.38093e-19)
(0.809415 0.116014 1.39934e-19)
(0.910037 0.140151 -2.80173e-19)
(0.999636 0.162779 3.52621e-20)
(1.07579 0.182779 1.33577e-19)
(1.13741 0.199375 -7.27021e-20)
(1.1847 0.212194 1.03646e-19)
(1.21892 0.221274 -1.24206e-19)
(1.24202 0.22685 -2.87185e-19)
(1.25633 0.229794 3.72459e-20)
(1.26388 0.229349 9.81424e-20)
(0.00525974 -0.000988016 9.96688e-20)
(0.0328827 -0.00377403 -3.20728e-19)
(0.0779322 -0.00317211 5.08865e-20)
(0.139191 0.000445074 -5.26272e-20)
(0.215535 0.00775645 -1.27658e-19)
(0.305309 0.0191681 -1.01308e-19)
(0.406154 0.0347314 8.99433e-20)
(0.514923 0.0541413 -4.08508e-19)
(0.627702 0.0766929 -9.48251e-20)
(0.74004 0.101308 6.06188e-20)
(0.847358 0.12664 -7.60304e-20)
(0.945485 0.151245 2.17669e-19)
(1.03118 0.173788 1.51871e-19)
(1.10247 0.193222 5.25217e-20)
(1.1588 0.208904 2.88695e-19)
(1.20088 0.220619 -2.83477e-19)
(1.23037 0.228547 1.73322e-19)
(1.24949 0.233056 2.44265e-19)
(1.26063 0.235046 -2.2442e-20)
(1.26584 0.233932 -1.57349e-19)
(0.00729088 -0.00143846 7.99248e-21)
(0.039432 -0.00460815 -3.4191e-21)
(0.0894694 -0.00368554 2.3215e-19)
(0.156033 0.00079265 -3.31271e-20)
(0.237774 0.00942827 -1.41394e-20)
(0.332722 0.022518 2.40727e-19)
(0.438132 0.039963 2.74069e-19)
(0.550427 0.0612752 7.42568e-20)
(0.665299 0.0855489 1.58313e-19)
(0.778021 0.111517 -1.03433e-19)
(0.883937 0.137691 -8.70477e-20)
(0.97903 0.162564 -1.54361e-21)
(1.06042 0.184828 -1.05173e-19)
(1.12666 0.203536 -3.69553e-21)
(1.17772 0.218196 -2.03165e-19)
(1.21479 0.228753 7.98156e-20)
(1.23987 0.235528 1.86462e-19)
(1.25536 0.239002 -9.33152e-20)
(1.26371 0.240092 1.06752e-19)
(1.26691 0.238352 1.9132e-19)
(0.00949721 -0.001852 3.08138e-20)
(0.0464486 -0.00529843 -8.25906e-20)
(0.101702 -0.0039196 -4.80713e-21)
(0.173721 0.00156665 2.16295e-21)
(0.260904 0.011668 -1.60333e-19)
(0.360941 0.0265514 -2.24513e-20)
(0.470674 0.0459468 -2.82806e-19)
(0.586098 0.0691651 2.91349e-19)
(0.702537 0.0950912 1.49036e-19)
(0.815048 0.122274 1.30037e-20)
(0.918979 0.149106 -1.50976e-21)
(1.01056 0.174048 -7.62347e-20)
(1.08735 0.195847 4.48341e-20)
(1.14843 0.213688 1.22157e-19)
(1.1943 0.227238 -2.10915e-19)
(1.2266 0.236606 1.59681e-19)
(1.2476 0.24224 -1.91719e-19)
(1.25984 0.244719 -8.6217e-21)
(1.26573 0.244966 8.90442e-22)
(1.26722 0.242644 8.62184e-20)
(0.0118821 -0.00222004 -6.73257e-20)
(0.0539336 -0.00582174 -7.48935e-20)
(0.11462 -0.00384106 1.0585e-19)
(0.192222 0.00280527 -4.66712e-20)
(0.284863 0.0145122 -1.45487e-20)
(0.389863 0.0312959 -1.40525e-19)
(0.503636 0.0526936 1.55747e-19)
(0.621756 0.0778001 -2.76815e-19)
(0.739218 0.105287 2.53259e-20)
(0.850932 0.13353 4.18934e-20)
(0.952339 0.160826 -2.30752e-20)
(1.04 0.185639 1.62542e-20)
(1.11195 0.206803 -1.87976e-19)
(1.16785 0.223653 -1.42754e-19)
(1.2087 0.236027 1.18971e-19)
(1.2365 0.244192 -3.81846e-20)
(1.25377 0.248709 -2.28433e-19)
(1.2631 0.25024 -4.36442e-20)
(1.26686 0.249698 -1.8975e-19)
(1.26688 0.24684 -2.33655e-19)
(0.014448 -0.00253354 -1.60011e-20)
(0.0618854 -0.00615433 1.10491e-19)
(0.128207 -0.00341664 7.95823e-20)
(0.211498 0.00454558 2.30375e-19)
(0.309577 0.0179946 -8.16671e-21)
(0.419374 0.036774 1.20332e-19)
(0.536866 0.0602084 -2.52959e-19)
(0.65722 0.0871631 8.82004e-20)
(0.775153 0.116097 -7.3302e-20)
(0.885506 0.14523 1.05896e-19)
(0.983901 0.172795 2.58379e-20)
(1.0673 0.197287 6.12781e-20)
(1.13428 0.217661 1.74666e-19)
(1.18503 0.233417 2.16882e-20)
(1.22105 0.244568 -1.07936e-19)
(1.24466 0.251529 1.77644e-19)
(1.25853 0.254963 6.24783e-20)
(1.26529 0.255595 -2.95045e-20)
(1.26722 0.254317 1.78162e-19)
(1.26601 0.250964 1.17653e-19)
(0.231501 0.00682307 -3.36947e-20)
(0.334965 0.0221458 4.07564e-20)
(0.449354 0.0430036 -2.37634e-20)
(0.570207 0.0684894 1.43484e-19)
(0.692312 0.0972307 -4.52451e-20)
(0.810166 0.127479 -5.51513e-20)
(0.918624 0.157321 -1.87077e-19)
(1.01358 0.184956 -1.19197e-19)
(1.09244 0.208946 -1.09445e-19)
(1.15437 0.228392 -8.90314e-20)
(1.20009 0.242971 3.39598e-20)
(1.23151 0.252869 -6.60726e-20)
(1.25124 0.258639 7.9551e-21)
(1.26206 0.26103 1.24465e-19)
(1.26657 0.260812 1.31731e-19)
(1.26692 0.258849 9.58932e-21)
(1.26468 0.255039 8.24134e-20)
(0.479677 0.0499966 -2.48587e-20)
(0.603501 0.0775292 -7.90896e-20)
(0.726859 0.107974 1.88376e-19)
(0.844096 0.139388 -4.70805e-20)
(0.950166 0.16975 -1.81328e-21)
(1.0413 0.197259 1.27895e-19)
(1.11545 0.22058 -1.14575e-19)
(1.17231 0.238977 5.00676e-20)
(1.21315 0.252313 -1.25963e-19)
(1.24024 0.260944 2.1174e-19)
(1.25642 0.265545 -1.59884e-19)
(1.2645 0.266936 -9.61405e-20)
(1.26704 0.265918 -1.00894e-21)
(1.26605 0.263314 -1.40633e-19)
(1.26295 0.259083 -1.67967e-21)
(0.876799 0.151776 -3.3858e-20)
(0.98003 0.182464 5.78964e-20)
(1.06705 0.20966 -7.8496e-20)
(1.13634 0.232156 9.96417e-20)
(1.18819 0.2494 9.56558e-20)
(1.22434 0.261445 2.11247e-20)
(1.24739 0.268807 -6.0304e-20)
(1.26032 0.272269 -1.43669e-20)
(1.26598 0.272706 -8.2616e-20)
(1.26681 0.270936 -3.5093e-20)
(1.26469 0.267733 5.74921e-20)
(1.26088 0.26311 -9.89077e-20)
(1.20211 0.259652 -2.40269e-21)
(1.23379 0.270374 8.90546e-20)
(1.2531 0.276475 -2.53599e-20)
(1.2631 0.278834 1.4541e-19)
(1.26662 0.278363 7.67864e-20)
(1.26598 0.275885 -1.28361e-20)
(1.2629 0.272119 4.20898e-20)
(1.25851 0.26713 1.60936e-19)
(1.26487 0.285262 -9.40604e-21)
(1.26651 0.283928 -1.15535e-19)
(1.26462 0.280782 9.51167e-21)
(1.26073 0.276485 -7.6479e-20)
(1.25586 0.271152 6.65607e-22)
(1.25296 0.27518 -1.60245e-20)
(1.25296 -0.275173 -9.72188e-20)
(1.26488 -0.285255 -3.67674e-20)