/*--------------------------------*- C++ -*----------------------------------*\
  =========                 |
  \\      /  F ield         | OpenFOAM: The Open Source CFD Toolbox
   \\    /   O peration     | Website:  https://openfoam.org
    \\  /    A nd           | Version:  7
     \\/     M anipulation  |
\*---------------------------------------------------------------------------*/
FoamFile
{
    version     2.0;
    format      ascii;
    class       surfaceScalarField;
    location    "180";
    object      phi;
}
// * * * * * * * * * * * * * * * * * * * * * * * * * * * * * * * * * * * * * //

dimensions      [0 3 -1 0 0 0 0];

internalField   nonuniform List<scalar> 
8921
(
-0.0024656
-0.00107642
-0.00239131
-0.00109404
-0.00231616
-0.00111114
-0.0010517
-0.00218864
-0.00224017
-0.00112769
-0.00106689
-0.00211362
-0.00216336
-0.0011437
-0.00108154
-0.00203782
-0.00208574
-0.00115915
-0.00109564
-0.00196126
-0.00200734
-0.00117404
-0.00103189
-0.00184162
-0.00110919
-0.00188395
-0.00192818
-0.00118835
-0.00104417
-0.00176541
-0.00112219
-0.00180594
-0.00184828
-0.00120208
-0.00105592
-0.00168853
-0.00113463
-0.00172723
-0.00176769
-0.00121522
-0.00106713
-0.00161101
-0.00114649
-0.00164787
-0.00168641
-0.00122777
-0.000999666
-0.00149986
-0.0010778
-0.00153288
-0.00115779
-0.00156788
-0.00160449
-0.00123971
-0.0010092
-0.00142291
-0.00108791
-0.00145416
-0.0011685
-0.00148729
-0.00152195
-0.00125104
-0.0010182
-0.00134542
-0.00109748
-0.00137489
-0.00117864
-0.00140614
-0.00143883
-0.00126176
-0.00102669
-0.00126742
-0.00110648
-0.0012951
-0.00118818
-0.00132444
-0.00135515
-0.00127186
-0.00103464
-0.00118894
-0.00111493
-0.00121481
-0.00119713
-0.00124223
-0.00127095
-0.00128133
-0.000963123
-0.00108742
-0.00104206
-0.00111001
-0.00112281
-0.00113405
-0.00120549
-0.00115956
-0.00118626
-0.00129018
-0.000969586
-0.0010098
-0.00104894
-0.00103066
-0.00113012
-0.00105287
-0.00121324
-0.00107644
-0.00110111
-0.00129838
-0.000975542
-0.000931796
-0.00105528
-0.000950922
-0.00113686
-0.000971292
-0.00122039
-0.000992907
-0.00101555
-0.00130595
-0.000980989
-0.000853445
-0.00106108
-0.000870828
-0.00114303
-0.000889347
-0.00122693
-0.000909003
-0.000929595
-0.00131288
-0.000985924
-0.000774778
-0.00106634
-0.000790411
-0.00114862
-0.000807071
-0.00123286
-0.000824758
-0.000843291
-0.00131917
-0.000990347
-0.000695828
-0.00107105
-0.000709704
-0.00115363
-0.000724497
-0.00123818
-0.000740206
-0.00075667
-0.0013248
-0.000994254
-0.000616627
-0.00107522
-0.00062874
-0.00115806
-0.000641658
-0.00124288
-0.000655382
-0.000669768
-0.00132978
-0.000997645
-0.000537207
-0.00107883
-0.000547551
-0.0011619
-0.000558589
-0.00124696
-0.00057032
-0.000582621
-0.00133411
-0.00100052
-0.000457601
-0.0010819
-0.000466172
-0.00116516
-0.000475324
-0.00125043
-0.000485056
-0.000495264
-0.00133778
-0.00100287
-0.000377843
-0.00108441
-0.000384636
-0.00116784
-0.000391897
-0.00125327
-0.000399625
-0.000407734
-0.0013408
-0.00100471
-0.000297965
-0.00108637
-0.000302977
-0.00116992
-0.000308343
-0.00125548
-0.000314062
-0.000320067
-0.00134315
-0.000926054
-0.000214993
-0.00100602
-0.000218
-0.00108777
-0.000221228
-0.00117141
-0.000224696
-0.00125707
-0.000228404
-0.0002323
-0.00134484
-0.000926792
-0.000136651
-0.00100681
-0.000137982
-0.00108861
-0.000139424
-0.00117232
-0.000140991
-0.00125804
-0.000142684
-0.000144469
-0.00134587
-0.000927041
-5.82909e-05
-0.00100708
-5.79442e-05
-0.0010889
-5.75989e-05
-0.00117263
-5.72631e-05
-0.00125838
-5.69408e-05
-5.66127e-05
-0.00134623
-0.0009268
2.00554e-05
-0.00100682
2.20802e-05
-0.00108864
2.42138e-05
-0.00117235
2.64526e-05
-0.00125808
2.87913e-05
3.12286e-05
-0.00134593
-0.00092607
9.83548e-05
-0.00100605
0.000102058
-0.00108781
0.00010598
-0.00117148
0.000110122
-0.00125717
0.000114477
0.000119022
-0.00134496
-0.00092485
-0.00100475
0.000181955
-0.00108643
0.000187665
-0.00117002
0.00019371
-0.00125563
0.000200082
0.000206742
-0.00134335
-0.00100292
0.000261739
-0.0010845
0.000269236
-0.00116797
0.000277183
-0.00125346
0.00028557
0.000294344
-0.00134106
-0.00100058
0.000341377
-0.001082
0.000350659
-0.00116532
0.000360504
-0.00125066
0.000370905
0.000381789
-0.0013381
-0.000997712
0.000420834
-0.00107895
0.000431898
-0.00116209
0.00044364
-0.00124723
0.00045605
0.00046904
-0.00133448
-0.000994324
0.000500078
-0.00107535
0.000512921
-0.00115826
0.000526555
-0.00124318
0.000540971
0.000556061
-0.0013302
-0.000990414
0.000579075
-0.00107119
0.000593694
-0.00115385
0.000609216
-0.00123851
0.000625632
0.000642817
-0.00132526
-0.000985985
0.000657794
-0.00106647
0.000674183
-0.00114885
0.000691587
-0.00123321
0.000709997
0.00072927
-0.00131966
-0.000981038
0.000736201
-0.00106121
0.000754355
-0.00114326
0.000773635
-0.00122729
0.000794033
0.000815386
-0.00131341
-0.000975574
0.000814263
-0.0010554
0.000834177
-0.00113709
0.000855326
-0.00122076
0.000877703
0.000901128
-0.0013065
-0.000969594
0.000891949
-0.00104903
0.000913616
-0.00113033
0.000936626
-0.0012136
0.000960975
0.000986461
-0.00129894
-0.000963101
0.000969227
-0.00104212
0.000992639
-0.001123
0.0010175
-0.00120584
0.00104381
0.00107135
-0.00129073
-0.000956095
-0.00103467
0.00107122
-0.00111509
0.00109792
-0.00119746
0.00112618
0.00115576
-0.00128187
-0.00102668
0.00114931
-0.00110661
0.00117785
-0.00118848
0.00120805
0.00123966
-0.00127238
-0.00101814
0.0012269
-0.00109755
0.00125726
-0.00117889
0.00128939
0.00132301
-0.00126224
-0.00100907
0.00130394
-0.00108793
0.00133612
-0.0011687
0.00137016
0.00140578
-0.00125147
-0.000999467
0.00138041
-0.00107774
0.00141439
-0.00115791
0.00145034
0.00148794
-0.00124007
-0.000989332
-0.00106699
0.00149204
-0.00114653
0.00152988
0.00156946
-0.00122805
-0.00105568
0.00156906
-0.00113457
0.00160877
0.0016503
-0.00121541
-0.00104382
0.00164539
-0.00112202
0.00168697
0.00173043
-0.00120215
-0.00103141
0.00172103
-0.00110889
0.00176445
0.00180983
-0.00118829
-0.00101846
-0.00109519
0.00184119
0.00188847
-0.00117383
-0.00108093
0.00191715
0.00196631
-0.00115877
-0.0010661
0.00199232
0.00204334
-0.00114313
-0.00105072
0.00211952
-0.0011269
0.00219485
-0.00111011
0.00226929
-0.00109276
-0.00107485
0.00559904
7.1216e-05
-6.82812e-05
0.00559087
0.000200371
-0.000192201
0.00557819
0.000313071
-0.000300394
0.00556154
0.000412396
-0.000395744
0.00554118
0.00050219
-0.000481829
0.00551758
0.000585531
-0.000561936
0.00549089
0.000665525
-0.000638829
0.00546167
0.000744192
-0.00071498
0.00543013
0.000824178
-0.000792635
0.00539713
0.000906064
-0.000873064
0.00536302
0.000992285
-0.000958176
0.00532918
0.00108169
-0.00104786
0.00529617
0.00117697
-0.00114396
0.00526617
0.00127462
-0.00124462
0.00523982
0.00137855
-0.0013522
0.00522066
0.00148124
-0.00146209
0.00520873
0.00159051
-0.00157858
0.0052103
0.00169005
-0.00169162
0.00522231
0.00180008
-0.00181209
0.00525843
0.00187977
-0.00191588
0.00199209
-0.00203774
0.00573234
7.40365e-05
0.00572445
0.000208258
0.0057122
0.000325322
0.00569618
0.000428412
0.00567664
0.000521731
0.00565417
0.000608002
0.00562889
0.000690803
0.00560157
0.00077152
0.00557237
0.000853373
0.00554243
0.000936009
0.00551205
0.00102266
0.00548297
0.00111077
0.00545561
0.00120433
0.00543268
0.00129755
0.0054144
0.00139684
0.00540508
0.00149056
0.00540383
0.00159177
0.00541792
0.00167596
0.0054431
0.0017749
0.00549248
0.00183039
0.00192786
0.0058688
7.67456e-05
0.00586126
0.000215795
0.00584956
0.000337026
0.00583433
0.000443643
0.00581583
0.000540231
0.00579471
0.000629121
0.00577116
0.000714354
0.00574601
0.000796669
0.00571953
0.000879849
0.00569295
0.000962591
0.00566667
0.00104894
0.00564255
0.00113489
0.00562106
0.00122583
0.005605
0.00131361
0.00559458
0.00140726
0.00559406
0.00149108
0.00560253
0.0015833
0.00562641
0.00165208
0.00566256
0.00173875
0.00571906
0.00177388
0.00185571
0.00600852
7.93267e-05
0.00600138
0.000222935
0.00599032
0.000348092
0.00597599
0.000457965
0.0059587
0.000557524
0.00593913
0.00064869
0.00591754
0.000735943
0.00589483
0.000819383
0.00587135
0.000903327
0.0058484
0.000985542
0.00582648
0.00107086
0.00580748
0.00115389
0.00579195
0.00124136
0.00578262
0.00132294
0.00577978
0.0014101
0.00578722
0.00148364
0.00580442
0.0015661
0.00583608
0.00162042
0.00588072
0.0016941
0.00594153
0.00171307
0.0017788
0.00615158
8.17624e-05
0.00614488
0.000229632
0.00613453
0.000358444
0.00612122
0.000471273
0.00610528
0.000573471
0.00608742
0.000666543
0.00606799
0.000755381
0.00604791
0.000839457
0.00602765
0.000923592
0.00600852
0.00100467
0.00599113
0.00108825
0.00597734
0.00116768
0.00596779
0.00125091
0.00596499
0.00132574
0.00596939
0.0014057
0.00598404
0.00146899
0.00600899
0.00154114
0.00604704
0.00158237
0.00609823
0.00164292
0.0061626
0.0016487
0.00169871
0.00629805
8.40367e-05
0.00629184
0.000235844
0.00628227
0.00036801
0.00627007
0.000483471
0.00625559
0.000587954
0.00623959
0.000682544
0.00622246
0.000772512
0.00620518
0.000856734
0.00618828
0.00094049
0.00617311
0.00101984
0.00616034
0.00110103
0.00615175
0.00117627
0.00614807
0.00125458
0.00615149
0.00132232
0.00616266
0.00139453
0.0061838
0.00144786
0.00621547
0.00150947
0.00625885
0.00153899
0.00631504
0.00158673
0.00638224
0.0015815
0.00161717
0.00644802
8.61338e-05
0.00644233
0.00024153
0.00643362
0.000376723
0.00642262
0.000494475
0.0064097
0.000600868
0.00639567
0.000696574
0.00638097
0.000787212
0.00636661
0.000871093
0.00635319
0.000953914
0.00634203
0.001031
0.00633387
0.00110918
0.00633038
0.00117977
0.00633237
0.00125259
0.00634162
0.00131306
0.006359
0.00137715
0.00638588
0.00142098
0.00642323
0.00147213
0.00647101
0.0014912
0.00653085
0.0015269
0.00659983
0.00151251
0.0015356
0.00660156
8.80383e-05
0.00659644
0.00024665
0.00658864
0.000384518
0.00657892
0.000504203
0.00656767
0.000612116
0.00655571
0.000708532
0.00654354
0.000799379
0.00653218
0.000882453
0.00652229
0.000963804
0.00651514
0.00103815
0.00651155
0.00111277
0.00651297
0.00117835
0.00652034
0.00124523
0.00653499
0.00129841
0.00655793
0.00135421
0.00658981
0.00138909
0.00663184
0.0014301
0.00668311
0.00143994
0.00674541
0.00146459
0.00681523
0.0014427
0.00145492
0.00675876
8.97353e-05
0.00675425
0.000251166
0.00674743
0.000391336
0.00673905
0.000512583
0.00672955
0.000621615
0.00671974
0.000718337
0.00671019
0.000808934
0.00670188
0.000890763
0.00669554
0.00097014
0.00669236
0.00104134
0.00669321
0.00111191
0.00669932
0.00117224
0.0067117
0.00123285
0.00673125
0.00127886
0.00675908
0.00132638
0.00679525
0.00135292
0.00684102
0.00138433
0.00689491
0.00138604
0.00695869
0.00140081
0.00702857
0.00137281
0.00137576
0.00691971
9.12105e-05
0.00691583
0.000255046
0.00691005
0.000397121
0.00690308
0.000519552
0.0068954
0.000629293
0.00688781
0.000725924
0.00688093
0.000815822
0.00687569
0.000896001
0.00687289
0.000972942
0.00687357
0.00104065
0.0068787
0.00110679
0.00688922
0.00116172
0.0069062
0.00121587
0.00693016
0.0012549
0.00696221
0.00129434
0.00700195
0.00131318
0.00705059
0.00133569
0.00710632
0.00133031
0.00717076
0.00133638
0.00724008
0.00130349
0.00129862
0.0070845
9.24508e-05
0.00708128
0.000258258
0.00707658
0.000401825
0.00707108
0.000525055
0.00706528
0.000635091
0.00705996
0.000731247
0.00705577
0.000820013
0.00705359
0.000898178
0.00705426
0.000972269
0.0070587
0.00103621
0.00706787
0.00109761
0.00708251
0.00114708
0.00710366
0.00119473
0.00713151
0.00122705
0.00716711
0.00125874
0.00720974
0.00127054
0.00726049
0.00128494
0.00731736
0.00127345
0.00738177
0.00127196
0.00745001
0.00123525
0.0012239
0.0072532
9.34443e-05
0.00725069
0.000260777
0.00724711
0.000405405
0.00724311
0.000529049
0.00723924
0.000638965
0.00723621
0.000734278
0.00723472
0.000821505
0.00723557
0.000897327
0.00723962
0.000968212
0.00724765
0.00102819
0.00726062
0.00108464
0.00727904
0.00112866
0.0073039
0.00116987
0.00733513
0.00119582
0.00737365
0.00122021
0.00741855
0.00122565
0.00747072
0.00123276
0.00752811
0.00121606
0.00759194
0.00120813
0.00765867
0.00116853
0.00115187
0.00742593
9.41809e-05
0.00742413
0.000262579
0.0074217
0.00040783
0.00741925
0.0005315
0.00741732
0.00064089
0.00741659
0.000735007
0.00741778
0.000820319
0.0074216
0.000893511
0.00742891
0.000960898
0.00744034
0.00101675
0.00745683
0.00106815
0.00747869
0.00110681
0.00750679
0.00114176
0.00754089
0.00116172
0.00758176
0.00117934
0.00762833
0.00117908
0.00768134
0.00117975
0.00773871
0.00115869
0.00780151
0.00114533
0.00786638
0.00110366
0.00108275
0.00760276
9.46524e-05
0.00760169
0.000263649
0.00760045
0.000409076
0.00759956
0.000532389
0.00759959
0.000640856
0.00760115
0.000733447
0.00760497
0.000816502
0.00761166
0.00088682
0.00762208
0.000950481
0.0076367
0.00100213
0.00765641
0.00104845
0.00768133
0.00108188
0.00771225
0.00111085
0.00774873
0.00112523
0.0077914
0.00113667
0.00783911
0.00113137
0.00789244
0.00112643
0.00794934
0.00110178
0.00801074
0.00108393
0.0080735
0.0010409
0.00101666
0.0077838
9.48528e-05
0.00778347
0.000263974
0.00778342
0.000409128
0.0077841
0.000531707
0.00778609
0.000638871
0.00778991
0.000729628
0.00779628
0.000810126
0.00780574
0.000877364
0.00781908
0.000937139
0.00783667
0.000984539
0.00785927
0.00102584
0.0078869
0.00105425
0.00792019
0.00107757
0.00795859
0.00108683
0.00800258
0.00109268
0.00805095
0.001083
0.00810415
0.00107323
0.00816022
0.00104572
0.00821992
0.00102423
0.00828039
0.000980441
0.000953657
0.00796913
9.47785e-05
0.00796956
0.000263547
0.00797071
0.000407982
0.00797296
0.000529457
0.00797687
0.000634961
0.00798289
0.0007236
0.00799173
0.000801285
0.00800382
0.000865281
0.00801989
0.000921071
0.00804018
0.000964243
0.00806537
0.00100065
0.00809534
0.00102429
0.00813058
0.00104233
0.00817046
0.00104695
0.00821532
0.00104783
0.00826394
0.00103437
0.00831664
0.00102054
0.00837156
0.000990792
0.00842936
0.000966427
0.0084874
0.000922401
0.00089377
0.00815887
9.44285e-05
0.00816005
0.000262367
0.00816239
0.000405647
0.00816618
0.000525659
0.00817198
0.000629169
0.00818014
0.000715433
0.00819134
0.000790093
0.00820589
0.000850725
0.00822447
0.000902491
0.00824721
0.000941501
0.00827467
0.000973195
0.00830661
0.00099234
0.00834341
0.00100553
0.00838437
0.00100598
0.00842971
0.0010025
0.00847821
0.000985868
0.00853009
0.000968656
0.00858362
0.000937259
0.00863935
0.000910698
0.00869489
0.000866861
0.000836978
0.00835311
9.38046e-05
0.00835504
0.00026044
0.00835855
0.00040214
0.00836386
0.000520342
0.00837148
0.000621554
0.0083817
0.000705214
0.00839511
0.000776682
0.00841196
0.000833871
0.00843283
0.000881626
0.00845774
0.000916585
0.00848714
0.000943799
0.00852072
0.000958764
0.0085587
0.000967547
0.00860038
0.000964301
0.00864583
0.000957043
0.00869391
0.000937795
0.00874472
0.000917847
0.00879666
0.000885309
0.00885021
0.000857149
0.00890321
0.000813863
0.00078323
0.00855196
9.29107e-05
0.00855462
0.000257776
0.00855928
0.000397487
0.00856607
0.000513552
0.00857543
0.000612191
0.0085876
0.000693049
0.00860308
0.000761199
0.00862204
0.000814906
0.00864496
0.000858713
0.00867177
0.000889768
0.0087028
0.00091277
0.00873768
0.00092389
0.00877651
0.000928713
0.00881856
0.000922247
0.00886383
0.000911776
0.0089112
0.000890421
0.00896073
0.000868319
0.00901095
0.000835091
0.00906225
0.000805852
0.0091127
0.000763412
0.000732455
0.00875552
9.17535e-05
0.0087589
0.000254394
0.00876466
0.000391728
0.00877287
0.000505346
0.00878389
0.000601168
0.00879789
0.000679056
0.00881528
0.000743806
0.00883615
0.000794029
0.00886088
0.000833991
0.00888932
0.000861325
0.00892168
0.000880409
0.00895754
0.000888034
0.0089969
0.000889345
0.00903904
0.000880115
0.00908385
0.000866961
0.0091303
0.000843971
0.00917838
0.000820236
0.00922676
0.000786711
0.00927577
0.000756842
0.0093237
0.00071549
0.000684564
0.00896391
9.0342e-05
0.00896799
0.000250318
0.0089748
0.00038491
0.00898436
0.000495793
0.00899694
0.000588587
0.00901262
0.00066337
0.00903175
0.000724676
0.00905434
0.000771448
0.00908062
0.000807704
0.00911042
0.000831526
0.00914383
0.000847003
0.00918037
0.00085149
0.00921999
0.000849728
0.00926193
0.00083817
0.00930607
0.000822825
0.00935141
0.000798628
0.00939792
0.000773728
0.00944439
0.000740243
0.0094911
0.00071013
0.00953654
0.000670056
0.000639455
0.00917723
8.86875e-05
0.00918197
0.000245577
0.0091898
0.000377087
0.00920061
0.000484975
0.00921464
0.000574562
0.00923187
0.000646137
0.00925256
0.000703987
0.00927663
0.000747376
0.00930425
0.000780091
0.00933514
0.000800631
0.00936932
0.000812826
0.00940628
0.000814528
0.00944589
0.00081012
0.00948742
0.000796645
0.00953068
0.000779561
0.00957477
0.000754542
0.00961961
0.000728886
0.00966412
0.000695731
0.00970855
0.0006657
0.00975155
0.000627053
0.000597018
0.00939561
8.68032e-05
0.00940098
0.000240209
0.00940974
0.000368325
0.00942173
0.000472982
0.00943708
0.000559215
0.00945571
0.000627508
0.00947777
0.000681927
0.00950312
0.000722025
0.00953182
0.00075139
0.00956356
0.000768892
0.00959825
0.000778131
0.00963538
0.000777398
0.00967475
0.000770749
0.00971566
0.000755739
0.00975789
0.000737329
0.00980061
0.000711829
0.00984372
0.000685776
0.00988625
0.000653195
0.00992843
0.000623519
0.00996907
0.000586411
0.000557136
0.00961916
8.47043e-05
0.00962511
0.000234254
0.00963474
0.000358695
0.00964781
0.000459915
0.00966435
0.000542676
0.00968421
0.000607647
0.00970745
0.000658684
0.00973387
0.00069561
0.00976343
0.00072183
0.00979577
0.000736549
0.00983075
0.000743155
0.00986782
0.000740326
0.00990675
0.000731816
0.00994687
0.000715623
0.00998794
0.000696258
0.0100292
0.000670579
0.0100705
0.000644438
0.0101111
0.000612634
0.0101511
0.000583539
0.0101894
0.00054805
0.000519687
0.009848
8.24075e-05
0.00985449
0.000227761
0.00986491
0.000348274
0.00987895
0.000445881
0.00989654
0.000525084
0.00991747
0.000586717
0.00994171
0.000634448
0.00996898
0.00066834
0.00999918
0.000691633
0.0100319
0.000703827
0.0100669
0.000708117
0.0101037
0.000703513
0.0101421
0.000693496
0.0101813
0.000676442
0.0102211
0.000656452
0.0102608
0.000630856
0.0103003
0.000604892
0.0103389
0.00057403
0.0103768
0.000545699
0.0104129
0.000511883
0.00048455
0.0100823
7.99309e-05
0.0100892
0.000220778
0.0101004
0.000337144
0.0101153
0.000430991
0.0101338
0.000506579
0.0101556
0.000564886
0.0101806
0.000609407
0.0102086
0.000640419
0.0102392
0.000661008
0.0102721
0.000670935
0.010307
0.000673212
0.0103434
0.000667138
0.0103809
0.000655939
0.010419
0.000638314
0.0104575
0.000617991
0.0104957
0.000592703
0.0105334
0.000567138
0.0105701
0.000537351
0.0106059
0.000509931
0.0106399
0.000477816
0.000451602
0.0103221
7.72938e-05
0.0103295
0.00021336
0.0103412
0.000325392
0.0103569
0.000415364
0.0103761
0.000487304
0.0103987
0.000542321
0.0104244
0.000583745
0.0104527
0.000612041
0.0104836
0.000630154
0.0105165
0.000638065
0.0105511
0.00063862
0.0105868
0.000631359
0.0106235
0.000619273
0.0106605
0.000601335
0.0106975
0.000580932
0.0107341
0.000556143
0.0107701
0.000531164
0.0108049
0.000502553
0.0108386
0.000476159
0.0108707
0.000445755
0.000420721
0.0105675
7.45166e-05
0.0105753
0.000205565
0.0105876
0.000313107
0.0106039
0.000399118
0.0106238
0.000467405
0.0106469
0.000519186
0.010673
0.00055764
0.0107017
0.000583393
0.0107326
0.000599254
0.0107652
0.000605393
0.0107994
0.000604498
0.0108344
0.000596311
0.0108701
0.000583604
0.0109058
0.000565579
0.0109414
0.000545315
0.0109764
0.000521184
0.0110106
0.000496942
0.0110436
0.000469585
0.0110754
0.000444302
0.0111056
0.000415601
0.000391788
0.0108188
7.162e-05
0.010827
0.00019745
0.0108397
0.000300382
0.0108564
0.000382372
0.0108768
0.000447024
0.0109003
0.000495642
0.0109267
0.000531264
0.0109555
0.000554649
0.0109862
0.000568479
0.0110186
0.000573079
0.0110521
0.000570985
0.0110863
0.000562109
0.0111209
0.000549017
0.0111553
0.000531103
0.0111895
0.000511163
0.0112229
0.000487821
0.0112554
0.000464436
0.0112866
0.000438386
0.0113166
0.000414275
0.0113449
0.000387257
0.000364686
0.0110761
6.86254e-05
0.0110845
0.000189076
0.0110975
0.000287307
0.0111147
0.000365246
0.0111354
0.0004263
0.0111592
0.000471845
0.0111857
0.000504779
0.0112143
0.000525973
0.0112448
0.000537984
0.0112767
0.000541263
0.0113094
0.000538203
0.0113427
0.00052885
0.0113761
0.00051558
0.0114093
0.000497946
0.011442
0.000478485
0.0114737
0.000456036
0.0115046
0.000433602
0.0115341
0.000408893
0.0115624
0.000385994
0.011589
0.000360626
0.000339303
0.0113394
6.5554e-05
0.011348
0.000180501
0.0113613
0.000273974
0.0113787
0.000347855
0.0113996
0.000405368
0.0114236
0.000447941
0.01145
0.000478337
0.0114785
0.000497515
0.0115085
0.000507908
0.0115397
0.000510071
0.0115717
0.000506253
0.0116039
0.000496612
0.0116361
0.000483346
0.011668
0.000466133
0.0116992
0.000447279
0.0117294
0.000425802
0.0117586
0.000404388
0.0117865
0.000381036
0.0118131
0.000359371
0.0118381
0.000335613
0.000315529
0.011609
6.24272e-05
0.0116177
0.000171786
0.0116312
0.000260471
0.0116488
0.000330314
0.0116698
0.000384359
0.0116936
0.000424069
0.0117199
0.000452078
0.011748
0.00046941
0.0117775
0.000478376
0.011808
0.00047961
0.011839
0.000475223
0.0118702
0.00046546
0.0119012
0.000452349
0.0119316
0.000435676
0.0119614
0.000417531
0.0119901
0.000397085
0.0120177
0.000376741
0.012044
0.000354747
0.0120691
0.000334321
0.0120926
0.000312123
0.000293263
0.011885
5.92656e-05
0.0118938
0.000162987
0.0119073
0.000246885
0.0119249
0.000312729
0.0119459
0.000363393
0.0119696
0.000400359
0.0119955
0.000426131
0.0120232
0.00044178
0.0120521
0.000449497
0.0120817
0.000449971
0.0121117
0.000445183
0.0121418
0.000435441
0.0121715
0.000422615
0.0122006
0.000406576
0.0122289
0.000389218
0.0122561
0.000369843
0.0122823
0.000350599
0.0123071
0.000329953
0.0123306
0.00031076
0.0123527
0.000290068
0.000272404
0.0121675
5.60893e-05
0.0121763
0.00015416
0.0121899
0.000233297
0.0122074
0.000295203
0.0122282
0.000342584
0.0122516
0.00037693
0.0122772
0.000400613
0.0123042
0.000414735
0.0123323
0.000421365
0.0123611
0.000421233
0.0123901
0.000416188
0.0124189
0.000406589
0.0124474
0.000394154
0.0124751
0.000378824
0.012502
0.000362312
0.0125278
0.000344032
0.0125525
0.000325903
0.0125759
0.000306582
0.0125981
0.000288604
0.0126188
0.00026936
0.00025286
0.0124567
5.29175e-05
0.0124655
0.000145359
0.012479
0.000219786
0.0124963
0.000277831
0.0125169
0.000322038
0.0125399
0.000353888
0.0125649
0.000375627
0.0125913
0.000388368
0.0126186
0.000394061
0.0126464
0.000393458
0.0126743
0.000388283
0.0127019
0.000378927
0.0127291
0.000366969
0.0127555
0.000352403
0.0127811
0.000336778
0.0128055
0.000319602
0.0128288
0.000302589
0.0128508
0.000284564
0.0128717
0.000267775
0.0128911
0.000249917
0.000234541
0.0127527
4.97681e-05
0.0127614
0.000136631
0.0127748
0.000206422
0.0127919
0.000260699
0.0128121
0.000301849
0.0128347
0.00033133
0.012859
0.000351264
0.0128847
0.00036276
0.0129111
0.000367649
0.0129378
0.000366695
0.0129646
0.000361496
0.0129911
0.000352467
0.013017
0.000341052
0.0130421
0.000327289
0.0130663
0.000312576
0.0130894
0.0002965
0.0131114
0.000280594
0.0131321
0.000263827
0.0131517
0.000248194
0.01317
0.000231659
0.000217366
0.0130558
4.66576e-05
0.0130644
0.000128023
0.0130775
0.000193272
0.0130944
0.000243886
0.0131141
0.000282101
0.0131361
0.000309341
0.0131598
0.000327601
0.0131845
0.000337978
0.01321
0.000342185
0.0132357
0.00034098
0.0132614
0.000335847
0.0132866
0.000327209
0.0133113
0.000316388
0.0133351
0.000303451
0.013358
0.000289662
0.0133799
0.000274674
0.0134006
0.000259855
0.0134201
0.000244303
0.0134385
0.000229788
0.0134557
0.000214511
0.000201256
0.0133661
4.36014e-05
0.0133745
0.000119575
0.0133874
0.000180395
0.0134038
0.000227463
0.013423
0.000262868
0.0134444
0.000287992
0.0134673
0.000304705
0.0134912
0.000314077
0.0135157
0.000317706
0.0135403
0.00031634
0.0135648
0.000311345
0.0135889
0.000303148
0.0136123
0.000292955
0.0136349
0.000280857
0.0136566
0.00026799
0.0136772
0.000254068
0.0136967
0.000240309
0.0137151
0.000225926
0.0137324
0.000212486
0.0137485
0.000198403
0.000186139
0.0136837
4.06128e-05
0.0136919
0.000111324
0.0137045
0.000167842
0.0137205
0.000211491
0.0137391
0.000244215
0.0137598
0.000267345
0.0137818
0.000282627
0.0138048
0.000291099
0.0138283
0.000294243
0.0138518
0.000292787
0.0138752
0.000287989
0.0138981
0.00028027
0.0139203
0.000270725
0.0139417
0.000259466
0.0139622
0.000247512
0.0139816
0.000234628
0.014
0.000221896
0.0140173
0.000208631
0.0140336
0.000196221
0.0140487
0.000183267
0.000171946
0.0140089
3.77038e-05
0.0140169
0.000103302
0.0140291
0.00015566
0.0140445
0.000196021
0.0140626
0.000226193
0.0140825
0.000247447
0.0141037
0.000261409
0.0141257
0.000269074
0.0141481
0.000271814
0.0141706
0.000270328
0.0141928
0.000265771
0.0142145
0.000258552
0.0142356
0.000249667
0.0142558
0.000239237
0.0142751
0.000228179
0.0142935
0.000216296
0.0143108
0.000204555
0.0143271
0.000192356
0.0143424
0.000180928
0.0143566
0.00016904
0.000158615
0.0143418
3.48846e-05
0.0143495
9.55357e-05
0.0143613
0.000143884
0.0143762
0.000181096
0.0143936
0.000208845
0.0144127
0.000228338
0.014433
0.000241081
0.0144541
0.000248022
0.0144755
0.000250425
0.0144968
0.000248957
0.0145179
0.000244674
0.0145385
0.000237969
0.0145584
0.000229744
0.0145775
0.000220126
0.0145958
0.000209938
0.0146131
0.000199019
0.0146294
0.000188227
0.0146447
0.000177041
0.0146591
0.000166547
0.0146725
0.000155663
0.000146086
0.0146826
3.21634e-05
0.0146901
8.80473e-05
0.0147014
0.000132547
0.0147157
0.000166751
0.0147324
0.000192203
0.0147507
0.000210044
0.0147701
0.000221661
0.0147902
0.000227952
0.0148105
0.000230076
0.0148308
0.000228664
0.0148508
0.000224676
0.0148703
0.000218489
0.0148891
0.000210916
0.0149072
0.000202088
0.0149244
0.000192739
0.0149406
0.000182742
0.014956
0.000172855
0.0149704
0.000162628
0.0149839
0.000153019
0.0149965
0.00014308
0.000134303
0.0150315
2.9547e-05
0.0150387
8.08539e-05
0.0150495
0.00012167
0.0150633
0.000153009
0.0150792
0.00017629
0.0150967
0.000192581
0.0151152
0.000203159
0.0151343
0.000208865
0.0151536
0.000210757
0.0151728
0.000209428
0.0151917
0.000205748
0.0152101
0.000200075
0.0152279
0.000193139
0.0152449
0.000185073
0.0152611
0.00017653
0.0152765
0.00016741
0.015291
0.000158384
0.0153045
0.000149063
0.0153172
0.00014029
0.0153291
0.000131237
0.000123216
0.0153887
2.70401e-05
0.0153956
7.3968e-05
0.015406
0.00011127
0.0154191
0.000139887
0.0154343
0.000161118
0.0154509
0.000175958
0.0154685
0.000185575
0.0154866
0.000190751
0.0155049
0.00019245
0.0155231
0.000191224
0.015541
0.000187858
0.0155584
0.000182688
0.0155751
0.00017637
0.0155912
0.000169032
0.0156064
0.00016126
0.0156209
0.00015297
0.0156345
0.00014476
0.0156473
0.000136292
0.0156593
0.000128308
0.0156704
0.000120086
0.000112777
0.0157544
2.46461e-05
0.0157609
6.73975e-05
0.0157708
0.000101357
0.0157833
0.000127393
0.0157978
0.000146691
0.0158136
0.000160172
0.0158302
0.000168899
0.0158474
0.000173594
0.0158647
0.000175131
0.0158819
0.000174019
0.0158988
0.000170966
0.0159152
0.000166285
0.015931
0.000160559
0.0159461
0.000153916
0.0159605
0.000146875
0.0159741
0.000139371
0.0159869
0.00013193
0.015999
0.000124264
0.0160103
0.000117022
0.0160208
0.000109578
0.000102938
0.0161287
2.23665e-05
0.016135
6.11457e-05
0.0161444
9.19331e-05
0.0161563
0.000115528
0.01617
0.000133005
0.0161849
0.000145213
0.0162007
0.000153113
0.0162169
0.000157369
0.0162333
0.000158768
0.0162495
0.000157778
0.0162655
0.000155032
0.0162809
0.000150818
0.0162959
0.000145658
0.0163101
0.000139674
0.0163236
0.000133323
0.0163365
0.000126559
0.0163485
0.000119843
0.0163599
0.000112929
0.0163705
0.000106385
0.0163804
9.9669e-05
9.36581e-05
0.016512
2.02013e-05
0.016518
5.5212e-05
0.0165269
8.29957e-05
0.0165382
0.000104284
0.0165511
0.000120048
0.0165653
0.000131063
0.0165802
0.000138193
0.0165955
0.000142046
0.0166109
0.000143325
0.0166263
0.000142457
0.0166413
0.000140007
0.0166559
0.000136239
0.0166699
0.000131616
0.0166833