/*--------------------------------*- C++ -*----------------------------------*\
  =========                 |
  \\      /  F ield         | OpenFOAM: The Open Source CFD Toolbox
   \\    /   O peration     | Website:  https://openfoam.org
    \\  /    A nd           | Version:  7
     \\/     M anipulation  |
\*---------------------------------------------------------------------------*/
FoamFile
{
    version     2.0;
    format      ascii;
    class       surfaceScalarField;
    location    "200";
    object      phi;
}
// * * * * * * * * * * * * * * * * * * * * * * * * * * * * * * * * * * * * * //

dimensions      [0 3 -1 0 0 0 0];

internalField   nonuniform List<scalar> 
8882
(
6.13495e-06
-4.49181e-05
2.50842e-05
-0.00017962
-0.000363501
6.44824e-06
-5.13664e-05
2.61725e-05
-0.000199344
5.98411e-05
-0.000397169
0.000107495
-0.000643277
-0.000932594
6.75579e-06
-5.81222e-05
2.72228e-05
-0.000219811
6.18727e-05
-0.000431819
0.000110482
-0.000691887
0.000171781
-0.000993892
0.000243265
-0.00132758
0.000321299
-0.00167921
-0.00203313
7.05564e-06
-6.51778e-05
2.82276e-05
-0.000240983
6.37742e-05
-0.000467366
0.000113193
-0.000741306
0.00017488
-0.00105558
0.000246001
-0.0013987
0.000322664
-0.00175588
0.000400431
-0.0021109
0.000475011
-0.0024487
0.000542933
-0.00275773
0.000601992
-0.00303139
-0.00326833
7.34582e-06
-7.25236e-05
2.91799e-05
-0.000262817
6.55311e-05
-0.000503717
0.000115605
-0.000791379
0.000177465
-0.00111744
0.000247961
-0.0014692
0.000322984
-0.0018309
0.000398049
-0.00218596
0.000469006
-0.00251966
0.000532678
-0.0028214
0.000587226
-0.00308594
0.000632165
-0.00331327
0.000668127
-0.00350751
0.000696458
-0.0036753
-0.00382415
7.62438e-06
-8.0148e-05
3.00728e-05
-0.000285266
6.71301e-05
-0.000540774
0.000117701
-0.00084195
0.000179518
-0.00117926
0.000249136
-0.00153882
0.000322272
-0.00190404
0.000394437
-0.00225813
0.000461666
-0.00258689
0.000521094
-0.00288083
0.000571237
-0.00313609
0.000611934
-0.00335397
0.000644039
-0.00353962
0.000669009
-0.00370027
0.000688505
-0.00384364
0.000704082
-0.00397674
0.000717019
-0.00410521
0.000728245
-0.00423311
-0.0043629
7.88941e-06
-8.80374e-05
3.08997e-05
-0.000308276
6.8559e-05
-0.000578434
0.000119463
-0.000892854
0.000181023
-0.00124082
0.000249524
-0.00160732
0.000320546
-0.00197506
0.000389648
-0.00232723
0.000453076
-0.00265032
0.000508293
-0.00293605
0.000554159
-0.00318195
0.000590803
-0.00339061
0.000619269
-0.00356808
0.000641093
-0.00372209
0.000657915
-0.00386046
0.000671218
-0.00399004
0.000682174
-0.00411617
0.000691613
-0.00424254
0.00070006
-0.00437135
-0.00450362
0.000707759
8.13906e-06
-9.61765e-05
3.16546e-05
-0.000331792
6.98068e-05
-0.000616586
0.00012088
-0.000943928
0.000181972
-0.00130191
0.000249129
-0.00167447
0.000317837
-0.00204377
0.000383739
-0.00239313
0.000443326
-0.0027099
0.000494389
-0.00298711
0.000536117
-0.00322368
0.0005689
-0.00342339
0.000593936
-0.00359312
0.000612808
-0.00374097
0.000627122
-0.00387478
0.000638273
-0.00400119
0.000647334
-0.00412523
0.000655037
-0.00425025
0.000661834
-0.00437815
-0.00450971
0.000667917
8.37155e-06
-0.000104548
3.23317e-05
-0.000355752
7.0864e-05
-0.000655118
0.00012194
-0.000995004
0.000182361
-0.00136233
0.000247962
-0.00174008
0.000314177
-0.00210998
0.000376773
-0.00245573
0.000432505
-0.00276563
0.000479491
-0.0030341
0.00051723
-0.00326142
0.00054634
-0.0034525
0.000568142
-0.00361492
0.000584241
-0.00375706
0.000596192
-0.00388673
0.000605298
-0.0040103
0.000612534
-0.00413247
0.000618545
-0.00425626
0.000623714
-0.00438332
-0.00451418
0.00062819
8.5852e-06
-0.000113133
3.29261e-05
-0.000380093
7.17225e-05
-0.000693915
0.000122637
-0.00104592
0.000182189
-0.00142188
0.000246039
-0.00180393
0.000309608
-0.00217355
0.000368819
-0.00251494
0.000420705
-0.00281752
0.000463707
-0.0030771
0.000497611
-0.00329532
0.000523231
-0.00347812
0.000541983
-0.00363367
0.000555471
-0.00377055
0.000565185
-0.00389644
0.000572337
-0.00401745
0.000577806
-0.00413793
0.000582157
-0.00426061
0.000585714
-0.00438687
-0.00451706
0.00058859
8.77847e-06
-0.000121912
3.34331e-05
-0.000404747
7.23758e-05
-0.000732857
0.000122965
-0.00109651
0.000181461
-0.00148038
0.000243383
-0.00186585
0.000304175
-0.00223434
0.000359944
-0.00257071
0.000408016
-0.00286559
0.000447139
-0.00311622
0.000477363
-0.00332555
0.00049967
-0.00350043
0.000515542
-0.00364955
0.000526563
-0.00378157
0.000534152
-0.00390403
0.000539426
-0.00402273
0.000543175
-0.00414168
0.000545893
-0.00426333
0.000547851
-0.00438883
-0.00451834
0.000549132
8.94993e-06
-0.000130862
3.38491e-05
-0.000429646
7.28191e-05
-0.000771827
0.000122923
-0.00114661
0.000180186
-0.00153764
0.000240018
-0.00192568
0.000297925
-0.00229225
0.000350222
-0.002623
0.000394525
-0.0029099
0.000429884
-0.00315158
0.000456583
-0.00335225
0.000475746
-0.00351959
0.000488894
-0.00366269
0.000497577
-0.00379026
0.000503136
-0.00390959
0.000506597
-0.00402619
0.000508664
-0.00414375
0.000509769
-0.00426443
0.000510136
-0.0043892
-0.00451803
0.000509825
9.09934e-06
-0.000139961
3.41728e-05
-0.00045472
7.30522e-05
-0.000810707
0.000122517
-0.00119608
0.000178381
-0.0015935
0.000235983
-0.00198328
0.000290918
-0.00234719
0.000339729
-0.00267181
0.000380326
-0.00295049
0.000412041
-0.0031833
0.000435369
-0.00337557
0.000451545
-0.00353577
0.000462112
-0.00367326
0.000468572
-0.00379672
0.000472184
-0.0039132
0.000473884
-0.00402789
0.000474301
-0.00414417
0.000473807
-0.00426394
0.00047259
-0.00438798
-0.00451613
0.000470688
9.22365e-06
-0.000149185
3.43977e-05
-0.000479894
7.30671e-05
-0.000849376
0.000121742
-0.00124475
0.000176052
-0.00164781
0.000231297
-0.00203853
0.000283192
-0.00239908
0.000328522
-0.00271714
0.000365487
-0.00298746
0.000393681
-0.00321149
0.000413785
-0.00339568
0.000427123
-0.00354911
0.000435238
-0.00368138
0.000439576
-0.00380105
0.000441312
-0.00391494
0.000441296
-0.00402787
0.000440086
-0.00414296
0.000438006
-0.00426186
0.000435208
-0.00438518
-0.00451264
0.000431718
9.32288e-06
-0.000158508
3.4524e-05
-0.000505095
7.28667e-05
-0.000887719
0.000120609
-0.00129249
0.000173223
-0.00170043
0.000226003
-0.00209131
0.000274809
-0.00244789
0.000316677
-0.00275901
0.000350092
-0.00302087
0.000374891
-0.00323629
0.000391914
-0.0034127
0.000402551
-0.00355974
0.000408331
-0.00368716
0.000410637
-0.00380336
0.000410556
-0.00391486
0.000408861
-0.00402618
0.000406044
-0.00414014
0.000402385
-0.0042582
0.00039801
-0.00438081
-0.00450756
0.00039293
9.39624e-06
-0.000167904
3.45505e-05
-0.000530249
7.24521e-05
-0.00092562
0.000119125
-0.00133917
0.000169914
-0.00175122
0.000220137
-0.00214153
0.000265822
-0.00249357
0.000304262
-0.00279745
0.000334217
-0.00305083
0.000355744
-0.00325782
0.000369822
-0.00342678
0.000377886
-0.00356781
0.000381437
-0.00369071
0.000381787
-0.00380371
0.000379942
-0.00391301
0.000376597
-0.00402283
0.000372188
-0.00413573
0.000366955
-0.00425297
0.000361003
-0.00437486
-0.00450089
0.000354336
9.4431e-06
-0.000177347
3.44766e-05
-0.000555283
7.18258e-05
-0.000962969
0.000117301
-0.00138464
0.000166149
-0.00180007
0.000213739
-0.00218912
0.000256285
-0.00253612
0.000291343
-0.00283251
0.00031793
-0.00307741
0.000336309
-0.0032762
0.000347571
-0.00343804
0.000353178
-0.00357341
0.000354594
-0.00369212
0.000353056
-0.00380217
0.00034949
-0.00390945
0.00034452
-0.00401786
0.00033853
-0.00412974
0.000331728
-0.00424616
0.000324199
-0.00436733
-0.00449263
0.000315944
9.46302e-06
-0.00018681
3.43026e-05
-0.000580122
7.09917e-05
-0.000999659
0.000115149
-0.0014288
0.000161952
-0.00184687
0.000206848
-0.00223402
0.000246252
-0.00257552
0.000277979
-0.00286424
0.000301297
-0.00310073
0.000316648
-0.00329155
0.000325215
-0.00344661
0.000328473
-0.00357667
0.000327837
-0.00369149
0.000324471
-0.00379881
0.00031922
-0.0039042
0.000312644
-0.00401129
0.000305081
-0.00412218
0.000296711
-0.00423779
0.000287605
-0.00435822
-0.00448279
0.000277764
9.45572e-06
-0.000196266
3.4029e-05
-0.000604696
6.99548e-05
-0.00103558
0.000112683
-0.00147153
0.000157349
-0.00189154
0.000199503
-0.00227617
0.000235773
-0.00261179
0.000264232
-0.0028927
0.000284378
-0.00312088
0.000296816
-0.00330398
0.000302803
-0.00345259
0.000303809
-0.00357768
0.000301196
-0.00368887
0.000296052
-0.00379366
0.000289148
-0.00389729
0.000280983
-0.00400312
0.000271853
-0.00411305
0.000261915
-0.00422786
0.000251229
-0.00434754
-0.00447137
0.000239802
9.42109e-06
-0.000205687
3.36574e-05
-0.000628932
6.8721e-05
-0.00107065
0.000109917
-0.00151272
0.000152368
-0.00193399
0.000191745
-0.00231555
0.0002249
-0.00264495
0.000250157
-0.00291795
0.00026723
-0.00313795
0.000276866
-0.00331362
0.000280379
-0.00345611
0.000279221
-0.00357652
0.000274699
-0.00368435
0.000267822
-0.00378678
0.00025929
-0.00388876
0.000249548
-0.00399338
0.000238855
-0.00410236
0.000227349
-0.00421635
0.00021508
-0.00433527
-0.00445835
0.000202066
9.35918e-06
-0.000215046
3.31895e-05
-0.000652762
6.72973e-05
-0.00110476
0.000106868
-0.00155229
0.000147035
-0.00197415
0.000183613
-0.00235212
0.00021368
-0.00267501
0.000235806
-0.00294008
0.000249904
-0.00315205
0.000256845
-0.00332056
0.000257981
-0.00345724
0.000254742
-0.00357328
0.000248368
-0.00367798
0.000239796
-0.00377821
0.000229659
-0.00387862
0.00021835
-0.00398207
0.000206097
-0.0040901
0.00019302
-0.00420327
0.000179165
-0.00432141
-0.00444375
0.00016456
9.2702e-06
-0.000224316
3.26275e-05
-0.000676119
6.56914e-05
-0.00113782
0.000103552
-0.00159015
0.000141378
-0.00201198
0.000175143
-0.00238589
0.000202159
-0.00270203
0.000221227
-0.00295915
0.000232448
-0.00316327
0.000236794
-0.00332491
0.000235645
-0.00345609
0.000230396
-0.00356803
0.000222223
-0.00366981
0.00021199
-0.00376798
0.000200267
-0.0038669
0.0001874
-0.0039692
0.000173589
-0.00407629
0.000158937
-0.00418862
0.000143494
-0.00430597
-0.00442754
0.000127283
9.15451e-06
-0.000233471
3.19744e-05
-0.000698939
6.39117e-05
-0.00116976
9.99856e-05
-0.00162623
0.000135424
-0.00204742
0.000166375
-0.00241684
0.00019038
-0.00272603
0.000206468
-0.00297524
0.000214904
-0.00317171
0.000216752
-0.00332676
0.000213402
-0.00345274
0.00020621
-0.00356084
0.000196284
-0.00365988
0.000184419
-0.00375611
0.000171126
-0.00385361
0.000156709
-0.00395479
0.00014134
-0.00406092
0.000125109
-0.00417239
0.000108072
-0.00428893
-0.00440969
9.02303e-05
9.01256e-06
-0.000242483
3.12333e-05
-0.00072116
6.19671e-05
-0.00120049
9.61869e-05
-0.00166045
0.000129201
-0.00208043
0.000157343
-0.00244498
0.000178385
-0.00274707
0.000191569
-0.00298842
0.000197313
-0.00317745
0.000196752
-0.00332619
0.000191279
-0.00344727
0.000182203
-0.00355177
0.000170566
-0.00364824
0.000157096
-0.00374264
0.000142247
-0.00383876
0.000126288
-0.00393883
0.000109364
-0.004044
9.15525e-05
-0.00415458
7.28997e-05
-0.00427028
-0.00439018
5.33873e-05
8.84498e-06
-0.000251328
3.04076e-05
-0.000742723
5.98669e-05
-0.00122995
9.21735e-05
-0.00169275
0.000122736
-0.00211099
0.000148082
-0.00247033
0.000166211
-0.0027652
0.000176569
-0.00299878
0.00017971
-0.00318059
0.000176825
-0.00332331
0.0001693
-0.00343974
0.000158394
-0.00354086
0.000145084
-0.00363493
0.00013003
-0.00372759
0.00011364
-0.00382237
9.61457e-05
-0.00392133
7.76771e-05
-0.00402553
5.83079e-05
-0.00413521
3.79941e-05
-0.00424997
-0.00436875
1.65591e-05
8.65247e-06
-0.000259981
2.95011e-05
-0.000763571
5.76208e-05
-0.00125807
8.7963e-05
-0.0017231
0.000116055
-0.00213909
0.000138624
-0.0024929
0.000153896
-0.00278048
0.000161506
-0.00300639
0.000162127
-0.00318121
0.000156998
-0.00331818
0.000147487
-0.00343023
0.000134801
-0.00352817
0.000119849
-0.00361998
0.000103234
-0.00371098
8.53134e-05
-0.00380445
6.62897e-05
-0.00390231
4.6279e-05
-0.00400552
2.53906e-05
-0.00411432
3.80147e-06
-0.00422838
-0.00434543
-1.95177e-05
8.43584e-06
-0.000268416
2.85179e-05
-0.000783653
5.52387e-05
-0.00128479
8.35729e-05
-0.00175143
0.000109182
-0.0021647
0.000129001
-0.00251272
0.000141473
-0.00279295
0.000146411
-0.00301133
0.000144595
-0.0031794
0.000137296
-0.00331088
0.000125859
-0.0034188
0.000111436
-0.00351375
9.48731e-05
-0.00360342
7.67145e-05
-0.00369282
5.72753e-05
-0.00378501
3.67283e-05
-0.00388176
1.51769e-05
-0.00398397
-7.30202e-06
-0.00409184
-3.07211e-05
-0.00420496
-0.00432118
-5.49665e-05
8.19599e-06
-0.000276612
2.7462e-05
-0.00080292
5.27305e-05
-0.00131006
7.90206e-05
-0.00177772
0.000102143
-0.00218782
0.000119241
-0.00252982
0.000128973
-0.00280268
0.000131314
-0.00301367
0.000127138
-0.00317522
0.000117739
-0.00330148
0.000104433
-0.00340549
8.83139e-05
-0.00349763
7.01663e-05
-0.00358527
5.04814e-05
-0.00367313
2.95343e-05
-0.00376406
7.46961e-06
-0.0038597
-1.56149e-05
-0.00396089
-3.9641e-05
-0.00406781
-6.46333e-05
-0.00417997
-0.00429544
-9.03781e-05
7.93388e-06
-0.000284546
2.6338e-05
-0.000821324
5.01063e-05
-0.00133383
7.43229e-05
-0.00180194
9.49595e-05
-0.00220845
0.000109373
-0.00254423
0.000116424
-0.00280973
0.000116242
-0.00301348
0.000109782
-0.00316876
9.83478e-05
-0.00329005
8.32229e-05
-0.00339036
6.54447e-05
-0.00347985
4.57375e-05
-0.00356556
2.45422e-05
-0.00365194
2.0908e-06
-0.00374161
-2.14775e-05
-0.00383613
-4.60935e-05
-0.00393627
-7.16816e-05
-0.00404223
-9.82059e-05
-0.00415344
-0.0042681
-0.000125541
7.65055e-06
-0.000292197
2.51501e-05
-0.000838823
4.73761e-05
-0.00135605
6.94964e-05
-0.00182406
8.76553e-05
-0.00222661
9.9422e-05
-0.002556
0.000103855
-0.00281416
0.000101222
-0.00301085
9.25461e-05
-0.00316009
7.91385e-05
-0.00327664
6.22424e-05
-0.00337347
4.28388e-05
-0.00346045
2.15942e-05
-0.00354432
-1.10264e-06
-0.00362924
-2.503e-05
-0.00371768
-5.01061e-05
-0.00381105
-7.62526e-05
-0.00391012
-0.000103396
-0.00401508
-0.000131468
-0.00412537
-0.00423917
-0.0001604
7.34709e-06
-0.000299544
2.39029e-05
-0.000855379
4.45496e-05
-0.0013767
6.4557e-05
-0.00184407
8.02508e-05
-0.00224231
8.94123e-05
-0.00256516
9.12878e-05
-0.00281604
8.62737e-05
-0.00300584
7.54508e-05
-0.00314926
6.01264e-05
-0.00326132
4.15028e-05
-0.00335484
2.05049e-05
-0.00343945
-2.2583e-06
-0.00352155
-2.64257e-05
-0.00360507
-5.18377e-05
-0.00369227
-7.84099e-05
-0.00378448
-0.000106082
-0.00388245
-0.000134777
-0.00398639
-0.000164409
-0.00409574
-0.00019493
7.02459e-06
-0.000306569
2.26009e-05
-0.000870955
4.16367e-05
-0.00139574
5.952e-05
-0.00186195
7.27661e-05
-0.00225555
7.93662e-05
-0.00257176
7.87463e-05
-0.00281542
7.1419e-05
-0.00299851
5.85124e-05
-0.00313636
4.13244e-05
-0.00324413
2.10144e-05
-0.00333453
-1.55277e-06
-0.00341688
-2.58046e-05
-0.0034973
-5.14421e-05
-0.00357944
-7.83211e-05
-0.00366539
-0.000106381
-0.00375642
-0.000135574
-0.00385326
-0.000165819
-0.00395614
6.68423e-06
-0.000313253
2.12487e-05
-0.00088552
3.86467e-05
-0.00141313
5.44001e-05
-0.0018777
6.522e-05
-0.00226637
6.93046e-05
-0.00257584
6.62506e-05
-0.00281237
5.66757e-05
-0.00298893
4.17462e-05
-0.00312143
2.27442e-05
-0.00322513
7.80531e-07
-0.00331257
-2.33166e-05
-0.00339279
-4.90483e-05
-0.00347157
-7.61388e-05
-0.00355234
-0.000104474
-0.00363706
-0.000134012
-0.00372688
-0.000164719
6.32717e-06
-0.00031958
1.98507e-05
-0.000899043
3.55889e-05
-0.00142887
4.92114e-05
-0.00189132
5.76302e-05
-0.00227479
5.92466e-05
-0.00257746
5.38195e-05
-0.00280694
4.20605e-05
-0.00297718
2.51655e-05
-0.00310453
4.39727e-06
-0.00320436
-1.91747e-05
-0.003289
-4.47907e-05
-0.00336717
-7.19812e-05
-0.00344438
-0.00010051
-0.00352382
-0.000130289
-0.00360728
5.9546e-06
-0.000325535
1.84114e-05
-0.0009115
3.24723e-05
-0.00144293
4.39674e-05
-0.00190282
5.00134e-05
-0.00228084
4.92099e-05
-0.00257665
4.14699e-05
-0.0027992
2.75878e-05
-0.00296329
8.78215e-06
-0.00308573
-1.37081e-05
-0.00318187
-3.88616e-05
-0.00326385
-6.59668e-05
-0.00334007
-9.45984e-05
-0.00341575
-0.000124552
-0.00349386
5.56773e-06
-0.000331102
1.69352e-05
-0.000922868
2.93055e-05
-0.0014553
3.86808e-05
-0.00191219
4.23848e-05
-0.00228454
3.92111e-05
-0.00257348
2.92175e-05
-0.0027892
1.32708e-05
-0.00294735
-7.39311e-06
-0.00306506
-3.15643e-05
-0.0031577
-5.8268e-05
-0.00323714
-8.68399e-05
-0.00331149
-0.000116895
-0.00338569
5.1678e-06
-0.00033627
1.54263e-05
-0.000933126
2.60969e-05
-0.00146597
3.33636e-05
-0.00191946
3.47589e-05
-0.00228594
2.92654e-05
-0.00256799
1.70763e-05
-0.00277702
-8.70604e-07
-0.0029294
-2.33505e-05
-0.00304258
-4.91643e-05
-0.00313188
-7.73886e-05
-0.00320892
-0.000107406
-0.00328148
4.75611e-06
-0.000341026
1.38891e-05
-0.000942259
2.28545e-05
-0.00147494
2.80276e-05
-0.00192463
2.71495e-05
-0.00228506
1.93856e-05
-0.00256022
5.06088e-06
-0.00276269
-1.48479e-05
-0.00290949
-3.9084e-05
-0.00301835
-6.6502e-05
-0.00310447
-9.62189e-05
-0.0031792
4.33401e-06
-0.00034536
1.23277e-05
-0.000950253
1.9586e-05
-0.0014822
2.26841e-05
-0.00192773
1.95729e-05
-0.00228195
9.57753e-06
-0.00255023
-6.82167e-06
-0.00274629
-2.86291e-05
-0.00288768
-5.45846e-05
-0.00299239
-8.35719e-05
-0.00307548
3.9031e-06
-0.000349263
1.07461e-05
-0.000957096
1.6298e-05
-0.00148775
1.73414e-05
-0.00192878
1.20456e-05
-0.00227665
-8.83299e-09
-0.00253817
-1.85475e-05
-0.00272775
-4.22169e-05
-0.00286401
-6.98471e-05
-0.00296476
3.46547e-06
-0.000352729
9.14824e-06
-0.000962779
1.29973e-05
-0.0014916
1.20094e-05
-0.00192779
4.5547e-06
-0.0022692
-9.73951e-06
-0.00252388
-3.01431e-05
-0.00270735
-5.56024e-05
-0.00283856
3.02182e-06
-0.000355751
7.53801e-06
-0.000967295
9.69241e-06
-0.00149375
6.69692e-06
-0.00192479
-2.86883e-06
-0.00225963
-1.92259e-05
-0.00250752
-4.15697e-05
-0.00268501
2.57255e-06
-0.000358323
5.91858e-06
-0.000970641
6.38973e-06
-0.00149422
1.44406e-06
-0.00191985
-1.02451e-05
-0.00224794
-2.86009e-05
-0.00248917
2.11939e-06
-0.000360442
4.29593e-06
-0.000972817
3.08628e-06
-0.00149301
-3.83441e-06
-0.00191293
-1.75306e-05
-0.00223425
1.66201e-06
-0.000362105
2.67601e-06
-0.000973831
-1.15446e-07
-0.00149022
-9.04469e-06
-0.001904
-0.00221856
1.19845e-06
-0.000363303
1.03781e-06
-0.000973671
-3.48046e-06
-0.0014857
-1.42152e-05
-0.00189326
7.24781e-07
-0.000364028
-5.95804e-07
-0.00097235
-6.73229e-06
-0.00147957
1.96412e-07
-0.000364224
-2.23024e-06
-0.000969924
-0.00147184
-2.71052e-07
-0.000363953
-3.85037e-06
-0.000966344
-7.06289e-07
-0.000363247
-0.000362081
0.000359868
0.000361455
-1.12999e-06
0.000362585
0.000957421
-6.78015e-07
0.000363263
-5.28863e-06
0.000962032
0.0014539
-2.52335e-07
0.000363515
-3.70892e-06
0.000965489
0.00146295
2.13802e-07
0.000363302
-2.11433e-06
0.000967817
-9.61008e-06
0.00147045
0.00186738
7.26992e-07
0.000362575
-5.0857e-07
0.000969052
-6.43294e-06
0.00147637
-1.86796e-05
0.00187962
0.00218403
1.19026e-06
0.000361384
1.09425e-06
0.000969148
-3.23403e-06
0.0014807
-1.36383e-05
0.00189003
-3.08178e-05
0.00220121
0.00242705
1.64326e-06
0.000359741
2.70043e-06
0.000968091
8.14423e-08
0.00148332
-8.54461e-06
0.00189866
-2.37997e-05
0.00221647
0.00244877
2.08939e-06
0.000357652
4.28438e-06
0.000965896
3.21164e-06
0.00148439
-3.41805e-06
0.00190528
-1.66993e-05
0.00222975
-3.65042e-05
0.00246857
0.00263879
2.53075e-06
0.000355121
5.8696e-06
0.000962557
6.44893e-06
0.00148381
1.75714e-06
0.00190998
-9.52528e-06
0.00224103
-2.73721e-05
0.00248642
-5.1032e-05
0.00266245
0.00278796
2.96775e-06
0.000352153
7.44956e-06
0.000958075
9.68086e-06
0.00148158
6.91771e-06
0.00191274
-2.26408e-06
0.00225021
-1.81254e-05
0.00250228
-3.9914e-05
0.00268424
-6.65262e-05
0.00281458
0.00291092
3.3986e-06
0.000348755
9.01809e-06
0.000952456
1.29095e-05
0.00147769
1.21204e-05
0.00191353
5.01786e-06
0.00225732
-8.77734e-06
0.00251607
-2.86402e-05
0.00270411
-5.35006e-05
0.00283944
-8.2149e-05
0.00293957
0.00301915
3.82289e-06
0.000344932
1.05719e-05
0.000945707
1.61284e-05
0.00147213
1.73354e-05
0.00191232
1.23615e-05
0.00226229
7.14775e-07
0.00252772
-1.72178e-05
0.00272204
-4.02824e-05
0.0028625
-6.72949e-05
0.00296658
-9.71883e-05
0.00304904
0.0031208
4.23991e-06
0.000340692
1.21074e-05
0.000937839
1.93302e-05
0.00146491
2.25537e-05
0.0019091
1.97422e-05
0.0022651
1.02048e-05
0.00253726
-5.66403e-06
0.00273791
-2.6879e-05
0.00288372
-5.2215e-05
0.00299192
-8.05704e-05
0.0030774
-0.000111105
0.00315134
0.00322118
4.64763e-06
0.000336044
1.36206e-05
0.000928867
2.25078e-05
0.00145602
2.77651e-05
0.00190384
2.71545e-05
0.00226571
1.98172e-05
0.00254459
6.01887e-06
0.00275171
-1.33001e-05
0.00290304
-3.69158e-05
0.00301553
-6.37e-05
0.00310418
-9.27664e-05
0.0031804
-0.00012353
0.00325195
0.00332352
5.04453e-06
0.000331
1.51075e-05
0.000918804
2.56541e-05
0.00144548
3.29597e-05
0.00189654
3.45848e-05
0.00226409
2.94914e-05
0.00254969
1.78177e-05
0.00276338
4.59621e-07
0.00292039
-2.14041e-05
0.0030374
-4.65829e-05
0.00312936
-7.41547e-05
0.00320797
-0.000103491
0.00328128
-0.00013423
0.00335426
0.00342975
5.42925e-06
0.00032557
1.6564e-05
0.000907669
2.87617e-05
0.00143328
3.81264e-05
0.00188717
4.20189e-05
0.00226019
3.92159e-05
0.00255249
2.97216e-05
0.00277287
1.43537e-05
0.00293576
-5.69108e-06
0.00305744
-2.92255e-05
0.00315289
-5.52752e-05
0.00323402
-8.31646e-05
0.00330917
-0.000112494
0.00338359
-0.000143071
0.00346033
0.00354111
5.8006e-06
0.00031977
1.79861e-05
0.000895483
3.18226e-05
0.00141944
4.32539e-05
0.00187574
4.94426e-05
0.00225401
4.89768e-05
0.00255296
4.17175e-05
0.00278013
2.84065e-05
0.00294907
1.02173e-05
0.00307563
-1.16353e-05
0.00317475
-3.61338e-05
0.00325852
-6.25547e-05
0.00333559
-9.04581e-05
0.00341149
-0.000119621
0.00348949
-0.000149958
0.00357145
0.0036585
6.15738e-06
0.000313612
1.93695e-05
0.000882271
3.48288e-05
0.00140398
4.833e-05
0.00186224
5.68416e-05
0.00224549
5.87584e-05
0.00255104
5.37902e-05
0.0027851
4.25918e-05
0.00296027
2.631e-05
0.00309191
6.1797e-06
0.00319488
-1.6737e-05
0.00328144
-4.16672e-05
0.00336052
-6.81281e-05
0.00343796
-9.5863e-05
0.00351723
-0.000124761
0.00360035
-0.000154781
0.00368852
-0.000185877
0.00378241
0.00388218
6.49846e-06
0.000307114
2.07101e-05
0.00086806
3.77717e-05
0.00138692
5.33423e-05
0.00184667
6.42002e-05
0.00223464
6.85438e-05
0.0025467
6.59232e-05
0.00278772
5.68959e-05
0.0029693
4.25748e-05
0.00310623
2.42104e-05
0.00321324
2.90667e-06
0.00330274
-2.05083e-05
0.00338394
-4.55096e-05
0.00346296
-7.18035e-05
0.00354352
-9.92521e-05
0.0036278
-0.000127794
0.00371706
-0.000157373
0.00381199
-0.000187902
0.00391271
0.00401861
6.82275e-06
0.000300291
2.20036e-05
0.000852879
4.06428e-05
0.00136828
5.82775e-05
0.00182903
7.15019e-05
0.00222141
7.83148e-05
0.00253988
7.80985e-05
0.00278794
7.1303e-05
0.00297609
5.89987e-05
0.00311854
4.24463e-05
0.00322979
2.27922e-05
0.0033224
9.09365e-07
0.00340582
-2.26091e-05
0.00348648
-4.74492e-05
0.00356836
-7.34375e-05
0.00365379
-0.000100493
0.00374412
-0.000128549
0.00384005
-0.00015752
0.00394168
-0.000187322
0.00404841
0.00415845
-0.000217921
7.12913e-06
0.000293162
2.32459e-05
0.000836762
4.34331e-05
0.0013481
6.31218e-05
0.00180934
7.87289e-05
0.0022058
8.80519e-05
0.00253056
9.02969e-05
0.00278569
8.57957e-05
0.0029806
7.55668e-05
0.00312877
6.08756e-05
0.00324449
4.29083e-05
0.00334036
2.25946e-05
0.00342613
5.57212e-07
0.00350851
-2.28072e-05
0.00359172
-4.73252e-05
0.0036783
-7.28873e-05
0.00376968
-9.94161e-05
0.00386658
-0.000126829
0.0039691
-0.000155056
0.00407663
0.00418745
-0.000184058
7.41656e-06
0.000285746
2.44325e-05
0.000819746
4.61335e-05
0.0013264
6.78608e-05
0.00178762
8.58626e-05
0.0021878
9.7734e-05
0.00251869
0.000102497
0.00278093
0.000100355
0.00298274
9.2263e-05
0.00313686
7.94852e-05
0.00325726
6.32443e-05
0.0033566
4.45243e-05
0.00344485
2.401e-05
0.00352903
2.11313e-06
0.00361362
-2.09236e-05
0.00370134
-4.49865e-05
0.00379374
-6.99851e-05
0.00389158
-9.58384e-05
0.00399495
-0.000122498
0.00410329
0.00421485
-0.000149898
7.68402e-06
0.000278062
2.55594e-05
0.000801871
4.87349e-05
0.00130322
7.24798e-05
0.00176387
9.28833e-05
0.0021674
0.000107339
0.00250423
0.000114676
0.00277359
0.000114959
0.00298246
0.000109069
0.00314275
9.82602e-05
0.00326807
8.37888e-05
0.00337108
6.66928e-05
0.00346195
4.77126e-05
0.00354801
2.73138e-05
0.00363402
5.75911e-06
0.0037229
-1.67995e-05
0.0038163
-4.02664e-05
0.00391504
-6.45564e-05
0.00401924
-8.96628e-05
0.0041284
0.00424064
-0.000115457
7.93051e-06
0.000270131
2.66222e-05
0.000783179
5.12278e-05
0.00127861
7.69633e-05
0.00173814
9.97703e-05
0.00214459
0.000116842
0.00248716
0.00012681
0.00276362
0.000129584
0.00297968
0.000125964
0.00314637
0.000117184
0.00327685
0.000104529
0.00338373
8.90899e-05
0.00347739
7.16664e-05
0.00356543
5.27747e-05
0.00365291
3.27177e-05
0.00374295
1.16657e-05
0.00383735
-1.02731e-05
0.00393698
-3.29909e-05
0.00404196
-5.65557e-05
0.00415197
0.00426485
-8.07636e-05
8.15513e-06
0.000261976
2.7617e-05
0.000763717
5.3603e-05
0.00125263
8.12955e-05
0.00171044
0.000106502
0.00211939
0.000126217
0.00246745
0.00013887
0.00275097
0.000144205
0.00297435
0.000142926
0.00314765
0.000136238
0.00328354
0.000125449
0.00339452
0.000111704
0.00349114
9.58612e-05
0.00358127
7.84915e-05
0.00367028
5.99386e-05
0.00376151
4.04003e-05
0.00385689
1.99893e-05
0.00395739
-1.24871e-06
0.0040632
-2.31253e-05
0.00417384
0.00428762
-4.58952e-05
8.35701e-06
0.000253619
2.85398e-05
0.000743534
5.58511e-05
0.00122532
8.54604e-05
0.00168083
0.000113055
0.00209179
0.000135439
0.00244506
0.000150828
0.00273558
0.000158794
0.00296638
0.00015993
0.00314651
0.000155402
0.00328807
0.000146534
0.00340339
0.000134522
0.00350315
0.000120286
0.00359551
0.000104455
0.00368611
8.7415e-05
0.00377855
6.93945e-05
0.00387491
5.05275e-05
0.00397626
3.09212e-05
0.0040828
1.05967e-05
0.00419417
0.00430939
-1.11747e-05
8.53538e-06
0.000245083
2.93867e-05
0.000722683
5.79627e-05
0.00119674
8.94416e-05
0.00164936
0.000119408
0.00206182
0.000144477
0.00241999
0.000162653
0.00271741
0.000173321
0.00295571
0.000176949
0.00314288
0.000174652
0.00329037
0.000167765
0.00341028
0.000157529
0.00351338
0.00014493
0.00360811
0.000130654
0.00370039
0.000115138
0.00379406
9.86398e-05
0.00389141
8.13112e-05
0.00399359
6.32311e-05
0.00410088
4.44011e-05
0.004213
0.00432909
2.4704e-05
8.68954e-06
0.000236394
3.01543e-05
0.000701218
5.99289e-05
0.00116697
9.32227e-05
0.00161606
0.000125534
0.00202951
0.000153301
0.00239223
0.000174311
0.0026964
0.00018775
0.00294227
0.000193951
0.00313668
0.000193962
0.00329035
0.00018912
0.00341512
0.00018071
0.00352179
0.000169779
0.00361904
0.000157079
0.00371309
0.000143096
0.00380805
0.000128125
0.00390638
0.000112337
0.00400938
9.58198e-05
0.0041174
7.86271e-05
0.00423019
0.00434697
6.07462e-05
8.8189e-06
0.000227575
3.08391e-05
0.000679198
6.17409e-05
0.00113606
9.67872e-05
0.00158102
0.00013141
0.00199489
0.000161881
0.00236176
0.000185767
0.00267251
0.000202048
0.00292599
0.000210903
0.00312783
0.000213304
0.00328795
0.000210576
0.00341785
0.000204045
0.00352832
0.000194819
0.00362826
0.000183716
0.00372419
0.000171278
0.00382048
0.000157839
0.00391982
0.000143597
0.00402362
0.000128654
0.00413234
0.000113065
0.00424578
0.00436319
9.68494e-05
8.92299e-06
0.000218652
3.14382e-05
0.000656683
6.33903e-05
0.00110411
0.000100119
0.00154429
0.000137011
0.001958
0.000170182
0.00232859
0.000196982
0.00264571
0.000216174
0.0029068
0.000227769
0.00311623
0.000232646
0.00328308
0.000232108
0.00341838
0.000227513
0.00353292
0.000220034
0.00363574
0.000210553
0.00373367
0.000199673
0.00383136
0.000187772
0.00393172
0.000175074
0.00403632
0.0001617
0.00414572
0.000147701
0.00425978
0.00437778
0.000133112
9.00143e-06
0.000209651
3.19488e-05
0.000633735
6.48691e-05
0.00107119
0.000103201
0.00150596
0.000142311
0.00191889
0.00017817
0.00229273
0.000207916
0.00261596
0.000230087
0.00288463
0.000244509
0.00310181
0.000251951
0.00327564
0.000253684
0.00341665
0.000251092
0.00353551
0.000245404
0.00364143
0.000237574
0.0037415
0.000228267
0.00384067
0.000217909
0.00394208
0.000206755
0.00404747
0.000194942
0.00415753
0.000182526
0.00427219
0.00439076
0.000169539
9.05401e-06
0.000200597
3.23687e-05
0.000610421
6.61701e-05
0.00103739
0.00010602