/*--------------------------------*- C++ -*----------------------------------*\
  =========                 |
  \\      /  F ield         | OpenFOAM: The Open Source CFD Toolbox
   \\    /   O peration     | Website:  https://openfoam.org
    \\  /    A nd           | Version:  7
     \\/     M anipulation  |
\*---------------------------------------------------------------------------*/
FoamFile
{
    version     2.0;
    format      ascii;
    class       volScalarField;
    location    "160";
    object      p;
}
// * * * * * * * * * * * * * * * * * * * * * * * * * * * * * * * * * * * * * //

dimensions      [0 2 -2 0 0 0 0];

internalField   nonuniform List<scalar> 
7156
(
-0.550002
-0.542984
-0.555965
-0.548714
-0.54321
-0.5375
-0.561916
-0.554439
-0.548792
-0.542929
-0.536715
-0.530096
-0.522878
-0.567837
-0.560141
-0.554355
-0.548338
-0.541925
-0.535045
-0.527481
-0.519038
-0.509556
-0.498938
-0.573709
-0.565801
-0.55988
-0.553708
-0.54709
-0.539932
-0.532001
-0.523095
-0.513059
-0.501815
-0.489378
-0.475856
-0.461436
-0.579513
-0.571402
-0.56535
-0.55902
-0.552188
-0.544736
-0.536417
-0.527022
-0.516406
-0.504514
-0.49139
-0.477175
-0.462087
-0.446385
-0.43034
-0.414199
-0.398175
-0.585228
-0.576923
-0.570744
-0.564255
-0.557199
-0.549438
-0.540707
-0.530798
-0.519578
-0.507017
-0.493192
-0.478278
-0.462523
-0.446209
-0.429618
-0.413004
-0.396576
-0.38049
-0.364856
-0.349739
-0.335171
-0.590831
-0.582343
-0.57604
-0.56939
-0.562102
-0.554014
-0.544849
-0.534401
-0.522555
-0.509306
-0.494769
-0.479153
-0.462735
-0.445818
-0.428695
-0.411622
-0.394803
-0.37839
-0.362481
-0.347134
-0.332373
-0.318203
-0.304607
-0.291571
-0.279198
-0.596301
-0.58764
-0.581218
-0.574405
-0.566873
-0.558441
-0.548821
-0.53781
-0.525315
-0.511364
-0.496105
-0.479787
-0.462712
-0.445204
-0.427563
-0.410047
-0.392854
-0.376127
-0.359957
-0.344391
-0.329447
-0.315124
-0.301399
-0.288261
-0.275776
-0.601615
-0.592793
-0.586256
-0.579275
-0.57149
-0.562697
-0.552599
-0.541003
-0.52784
-0.513172
-0.497188
-0.480168
-0.462446
-0.444359
-0.426217
-0.408273
-0.390722
-0.373697
-0.357278
-0.341505
-0.326389
-0.311922
-0.298077
-0.284846
-0.272255
-0.606749
-0.597778
-0.591129
-0.583979
-0.575928
-0.566756
-0.556159
-0.543958
-0.530109
-0.514714
-0.498001
-0.480286
-0.461927
-0.443277
-0.424649
-0.406296
-0.388404
-0.371095
-0.354441
-0.338473
-0.323195
-0.308593
-0.294638
-0.28132
-0.268631
-0.611679
-0.602571
-0.595814
-0.588491
-0.580165
-0.570596
-0.55948
-0.546653
-0.532104
-0.515975
-0.498532
-0.480129
-0.461146
-0.44195
-0.422855
-0.40411
-0.385892
-0.368315
-0.351439
-0.335289
-0.31986
-0.305134
-0.291077
-0.277681
-0.264902
-0.616381
-0.607149
-0.600288
-0.592787
-0.584174
-0.574192
-0.562538
-0.549067
-0.533806
-0.516936
-0.498769
-0.479687
-0.460096
-0.440371
-0.420828
-0.40171
-0.383183
-0.365353
-0.34827
-0.331949
-0.31638
-0.30154
-0.287391
-0.273925
-0.261065
-0.620829
-0.611487
-0.604527
-0.596844
-0.587932
-0.57752
-0.565309
-0.55118
-0.535196
-0.517585
-0.498698
-0.47895
-0.458767
-0.438533
-0.418562
-0.399089
-0.380272
-0.362204
-0.344928
-0.328449
-0.312752
-0.297807
-0.283577
-0.270049
-0.257115
-0.625
-0.615561
-0.608504
-0.600636
-0.591415
-0.580557
-0.567772
-0.552971
-0.536258
-0.517906
-0.498307
-0.477909
-0.457153
-0.43643
-0.416051
-0.396244
-0.377154
-0.358865
-0.341409
-0.324785
-0.308971
-0.293933
-0.27963
-0.26605
-0.253051
-0.628869
-0.619348
-0.612197
-0.604139
-0.594597
-0.583278
-0.569905
-0.554421
-0.536974
-0.517885
-0.497586
-0.476554
-0.455246
-0.434056
-0.413291
-0.393168
-0.373824
-0.355329
-0.337708
-0.320952
-0.305033
-0.289913
-0.275548
-0.261924
-0.24887
-0.632409
-0.62282
-0.61558
-0.607328
-0.597454
-0.58566
-0.571686
-0.555509
-0.537328
-0.517509
-0.496525
-0.474878
-0.453039
-0.431405
-0.410275
-0.389858
-0.370277
-0.351593
-0.333822
-0.316947
-0.300936
-0.285744
-0.271328
-0.257669
-0.244568
-0.635598
-0.625955
-0.618628
-0.610177
-0.599961
-0.58768
-0.573093
-0.556219
-0.537305
-0.516766
-0.495112
-0.472872
-0.450526
-0.428471
-0.406999
-0.386308
-0.366509
-0.347654
-0.329747
-0.312767
-0.296675
-0.281423
-0.266967
-0.253283
-0.240144
-0.638409
-0.628728
-0.621318
-0.612664
-0.602097
-0.589317
-0.574108
-0.556533
-0.536891
-0.515643
-0.493339
-0.470528
-0.4477
-0.425249
-0.403458
-0.382514
-0.362516
-0.343505
-0.325478
-0.308407
-0.292247
-0.276947
-0.262462
-0.248762
-0.235596
-0.64082
-0.631116
-0.623624
-0.614764
-0.603837
-0.590547
-0.57471
-0.556435
-0.536071
-0.514131
-0.491197
-0.46784
-0.444556
-0.421733
-0.399648
-0.378472
-0.358294
-0.339145
-0.321013
-0.303864
-0.287649
-0.272313
-0.25781
-0.244104
-0.23092
-0.642807
-0.633094
-0.625525
-0.616453
-0.605158
-0.591352
-0.574882
-0.555908
-0.534834
-0.512219
-0.488679
-0.464802
-0.441088
-0.41792
-0.395563
-0.374177
-0.353839
-0.334569
-0.316348
-0.299136
-0.282879
-0.267519
-0.253009
-0.239307
-0.226116
-0.644347
-0.634639
-0.626996
-0.61771
-0.60604
-0.59171
-0.574606
-0.554938
-0.533168
-0.509898
-0.485777
-0.461407
-0.437291
-0.413805
-0.391201
-0.369627
-0.349148
-0.329774
-0.31148
-0.294219
-0.277934
-0.262562
-0.248057
-0.23437
-0.221182
-0.645418
-0.63573
-0.628015
-0.618512
-0.606462
-0.591604
-0.573865
-0.553513
-0.531061
-0.50716
-0.482484
-0.457651
-0.433162
-0.409384
-0.386557
-0.364817
-0.344217
-0.324758
-0.306407
-0.289111
-0.272811
-0.25744
-0.242953
-0.229291
-0.216116
-0.645998
-0.636346
-0.628562
-0.618839
-0.606404
-0.591015
-0.572645
-0.551619
-0.528505
-0.503996
-0.478795
-0.453528
-0.428695
-0.404653
-0.381629
-0.359745
-0.339043
-0.319517
-0.301125
-0.28381
-0.267509
-0.252151
-0.237693
-0.224067
-0.210917
-0.646067
-0.636464
-0.628615
-0.61867
-0.605847
-0.589927
-0.570932
-0.549244
-0.52549
-0.500401
-0.474705
-0.449035
-0.423888
-0.399609
-0.376413
-0.354407
-0.333625
-0.314049
-0.295632
-0.278313
-0.262025
-0.246694
-0.232277
-0.218698
-0.205583
-0.645605
-0.636066
-0.628154
-0.617987
-0.604773
-0.588324
-0.568712
-0.54638
-0.522008
-0.496368
-0.470208
-0.444168
-0.418737
-0.39425
-0.370906
-0.348802
-0.32796
-0.308352
-0.289928
-0.27262
-0.256358
-0.241066
-0.226704
-0.213182
-0.200114
-0.644595
-0.635133
-0.627162
-0.616771
-0.603167
-0.586192
-0.565974
-0.543017
-0.518053
-0.491893
-0.465302
-0.438924
-0.41324
-0.388573
-0.365108
-0.342928
-0.322045
-0.302425
-0.284009
-0.266728
-0.250506
-0.235268
-0.220972
-0.20752
-0.194512
-0.643018
-0.633647
-0.62562
-0.615006
-0.601013
-0.583518
-0.562707
-0.539146
-0.513619
-0.48697
-0.459983
-0.433301
-0.407396
-0.382576
-0.359016
-0.336783
-0.31588
-0.296265
-0.277875
-0.260636
-0.24447
-0.229297
-0.215079
-0.201711
-0.188776
-0.640859
-0.631593
-0.623513
-0.612676
-0.598297
-0.580291
-0.558903
-0.534762
-0.508701
-0.481598
-0.454249
-0.427296
-0.401201
-0.376259
-0.352628
-0.330365
-0.309463
-0.289873
-0.271526
-0.254344
-0.238247
-0.223153
-0.209025
-0.195752
-0.182893
-0.638103
-0.628954
-0.620826
-0.609768
-0.595008
-0.5765
-0.554554
-0.529858
-0.503296
-0.475774
-0.448099
-0.420909
-0.394656
-0.36962
-0.345945
-0.323675
-0.302794
-0.283247
-0.26496
-0.247851
-0.231838
-0.216836
-0.202809
-0.189637
-0.176832
-0.634736
-0.625718
-0.617544
-0.606269
-0.591133
-0.572137
-0.549653
-0.524431
-0.497401
-0.469495
-0.441531
-0.41414
-0.387761
-0.362659
-0.338965
-0.316711
-0.295873
-0.276388
-0.258178
-0.241158
-0.225244
-0.210347
-0.196437
-0.183373
-0.170577
-0.630747
-0.621871
-0.613657
-0.602168
-0.586664
-0.567194
-0.544194
-0.518476
-0.491013
-0.462762
-0.434545
-0.406987
-0.380515
-0.355377
-0.331689
-0.309475
-0.288699
-0.269295
-0.251179
-0.234265
-0.218464
-0.203687
-0.189911
-0.176983
-0.164237
-0.626124
-0.617403
-0.609153
-0.597455
-0.581593
-0.561665
-0.538175
-0.511992
-0.484133
-0.455574
-0.427142
-0.399453
-0.372919
-0.347773
-0.324118
-0.301966
-0.281273
-0.261969
-0.243965
-0.227172
-0.211499
-0.196857
-0.183224
-0.170403
-0.15784
-0.620859
-0.612304
-0.604022
-0.592122
-0.575912
-0.555546
-0.531592
-0.504978
-0.47676
-0.447933
-0.419323
-0.391538
-0.364974
-0.339849
-0.316252
-0.294185
-0.273597
-0.254411
-0.236536
-0.219881
-0.204351
-0.189858
-0.176379
-0.163689
-0.1513
-0.614944
-0.606567
-0.598258
-0.586162
-0.569617
-0.548833
-0.524444
-0.497434
-0.468896
-0.439839
-0.41109
-0.383244
-0.356682
-0.331607
-0.308094
-0.286134
-0.265672
-0.246623
-0.228895
-0.212392
-0.19702
-0.18269
-0.169378
-0.156838
-0.144618
-0.608373
-0.600184
-0.591854
-0.57957
-0.562705
-0.541525
-0.516731
-0.489362
-0.460542
-0.431297
-0.402446
-0.374575
-0.348046
-0.323049
-0.299645
-0.277816
-0.257499
-0.238606
-0.221042
-0.204708
-0.189509
-0.175354
-0.162224
-0.149848
-0.137797
-0.601141
-0.593151
-0.584806
-0.572343
-0.555173
-0.533621
-0.508454
-0.480763
-0.451703
-0.422308
-0.393394
-0.365533
-0.339069
-0.314178
-0.290907
-0.269232
-0.249081
-0.230363
-0.212979
-0.196831
-0.181819
-0.167854
-0.154917
-0.142718
-0.130842
-0.593246
-0.585464
-0.57711
-0.564478
-0.54702
-0.525122
-0.499616
-0.471641
-0.442381
-0.412877
-0.383939
-0.356121
-0.329754
-0.304996
-0.281885
-0.260386
-0.240421
-0.221897
-0.204711
-0.188763
-0.173953
-0.160192
-0.147461
-0.13545
-0.123756
-0.584685
-0.577121
-0.568765
-0.555974
-0.538248
-0.516031
-0.49022
-0.462001
-0.432582
-0.40301
-0.374085
-0.346346
-0.320106
-0.295509
-0.272582
-0.25128
-0.231523
-0.21321
-0.196238
-0.180507
-0.165914
-0.152369
-0.139858
-0.128044
-0.116541
-0.575459
-0.568123
-0.559771
-0.546834
-0.528859
-0.506351
-0.480271
-0.451848
-0.422312
-0.392712
-0.363837
-0.33621
-0.310129
-0.285721
-0.263002
-0.24192
-0.222389
-0.204306
-0.187566
-0.172066
-0.157704
-0.144388
-0.132109
-0.120504
-0.56557
-0.55847
-0.550129
-0.537059
-0.518856
-0.496088
-0.469775
-0.441188
-0.411577
-0.381989
-0.353202
-0.325722
-0.299828
-0.275636
-0.253149
-0.232308
-0.213023
-0.195189
-0.178697
-0.163444
-0.149326
-0.136254
-0.55502
-0.548165
-0.539843
-0.526654
-0.508245
-0.485248
-0.458739
-0.43003
-0.400385
-0.370849
-0.342187
-0.314886
-0.28921
-0.265259
-0.243028
-0.222451
-0.203432
-0.185863
-0.169635
-0.154645
-0.140786
-0.543815
-0.537212
-0.528918
-0.515623
-0.497033
-0.473837
-0.447171
-0.418382
-0.388744
-0.3593
-0.330798
-0.30371
-0.278281
-0.254598
-0.232646
-0.212353
-0.193619
-0.176333
-0.160386
-0.145673
-0.53196
-0.525618
-0.517359
-0.503974
-0.485226
-0.461865
-0.435081
-0.406252
-0.376663
-0.34735
-0.319045
-0.292201
-0.267047
-0.243658
-0.222008
-0.20202
-0.18359
-0.166605
-0.150954
-0.519464
-0.513389
-0.505174
-0.491716
-0.472835
-0.449343
-0.422479
-0.393651
-0.364152
-0.335008
-0.306935
-0.280367
-0.255517
-0.232446
-0.211121
-0.191458
-0.173351
-0.506335
-0.500534
-0.492372
-0.478857
-0.45987
-0.43628
-0.409376
-0.380591
-0.351223
-0.322286
-0.294479
-0.268217
-0.243698
-0.22097
-0.199992
-0.180674
-0.492584
-0.487064
-0.478963
-0.465409
-0.446343
-0.422689
-0.395784
-0.367083
-0.337886
-0.309192
-0.281685
-0.25576
-0.231599
-0.209238
-0.188628
-0.478222
-0.472989
-0.46496
-0.451384
-0.432265
-0.408583
-0.381716
-0.353141
-0.324152
-0.29574
-0.268565
-0.243007
-0.219229
-0.197257
-0.463263
-0.458323
-0.450375
-0.436796
-0.417652
-0.393976
-0.367188
-0.338776
-0.310035
-0.28194
-0.25513
-0.229966
-0.206596
-0.447722
-0.44308
-0.435223
-0.421659
-0.402519
-0.378884
-0.352213
-0.324004
-0.295549
-0.267805
-0.241391
-0.216648
-0.431614
-0.427275
-0.419519
-0.40599
-0.386881
-0.363324
-0.336804
-0.308839
-0.280708
-0.253348
-0.22736
-0.414956
-0.410924
-0.403279
-0.389805
-0.370756
-0.347314
-0.320977
-0.293298
-0.265526
-0.238584
-0.21305
-0.397766
-0.394046
-0.386522
-0.373122
-0.354163
-0.33086
-0.30476
-0.277397
-0.250018
-0.223524
-0.380063
-0.376659
-0.369266
-0.355961
-0.337117
-0.313992
-0.288163
-0.261152
-0.2342
-0.361866
-0.358783
-0.351532
-0.338342
-0.319637
-0.296729
-0.271203
-0.244581
-0.343196
-0.34044
-0.333339
-0.320281
-0.301751
-0.27909
-0.2539
-0.324075
-0.32165
-0.314711
-0.301802
-0.283476
-0.261094
-0.304522
-0.302439
-0.295665
-0.282933
-0.264835
-0.242762
-0.284555
-0.282835
-0.276229
-0.263692
-0.245849
-0.264198
-0.262868
-0.25643
-0.244105
-0.243514
-0.242532
-0.236291
-0.224195
-0.222523
-0.221854
-0.215836
-0.201226
-0.200879
-0.17965
-0.179635
-0.157827
-0.135786
-0.0846103
-0.106196
-0.127599
-0.127939
-0.14879
-0.148798
-0.16974
-0.169422
-0.164152
-0.190421
-0.189786
-0.184292
-0.173483
-0.210808
-0.209863
-0.204154
-0.193109
-0.230909
-0.229603
-0.223711
-0.212448
-0.196401
-0.250681
-0.248998
-0.242942
-0.231476
-0.215167
-0.195292
-0.270076
-0.268047
-0.261818
-0.25017
-0.233625
-0.213434
-0.191074
-0.289075
-0.286715
-0.280322
-0.268508
-0.251751
-0.231274
-0.208541
-0.307662
-0.304978
-0.298427
-0.286469
-0.269524
-0.24879
-0.225717
-0.201679
-0.325815
-0.322814
-0.316114
-0.304027
-0.286927
-0.265962
-0.242583
-0.218154
-0.193802
-0.343516
-0.340202
-0.333363
-0.321167
-0.303941
-0.282769
-0.259119
-0.234333
-0.209554
-0.185599
-0.360746
-0.357124
-0.350154
-0.337866
-0.320527
-0.299209
-0.275309
-0.250198
-0.225025
-0.200622
-0.177516
-0.377485
-0.37356
-0.36647
-0.35411
-0.336687
-0.315244
-0.291135
-0.265733
-0.240198
-0.215378
-0.191818
-0.169811
-0.393717
-0.389493
-0.382293
-0.36988
-0.352402
-0.33086
-0.306582
-0.280923
-0.25506
-0.229852
-0.205865
-0.18341
-0.409426
-0.404909
-0.397607
-0.385158
-0.367653
-0.346044
-0.321629
-0.295755
-0.269595
-0.244031
-0.219647
-0.196768
-0.175535
-0.424596
-0.41979
-0.412397
-0.39993
-0.382423
-0.360782
-0.336266
-0.310211
-0.28379
-0.257903
-0.233149
-0.209873
-0.188228
-0.16824
-0.439212
-0.434125
-0.42665
-0.414182
-0.396698
-0.375057
-0.350477
-0.324277
-0.297633
-0.271455
-0.246361
-0.222714
-0.200682
-0.180299
-0.161521
-0.453264
-0.4479
-0.440352
-0.4279
-0.410466
-0.388856
-0.364249
-0.337942
-0.311111
-0.284676
-0.259273
-0.235282
-0.212886
-0.19213
-0.172978
-0.155348
-0.466737
-0.461104
-0.453492
-0.441073
-0.423713
-0.402167
-0.377569
-0.351193
-0.324212
-0.297555
-0.271874
-0.247568
-0.224832
-0.203725
-0.184218
-0.166235
-0.149678
-0.134439
-0.479624
-0.473728
-0.466061
-0.453689
-0.436428
-0.414978
-0.390425
-0.364019
-0.336925
-0.310081
-0.284155
-0.259561
-0.236512
-0.215077
-0.195236
-0.176918
-0.160028
-0.144463
-0.130118
-0.491914
-0.485764
-0.478049
-0.465741
-0.448602
-0.427278
-0.402807
-0.376409
-0.349241
-0.322246
-0.296107
-0.271254
-0.247917
-0.226177
-0.206023
-0.187389
-0.170185
-0.154307
-0.139655
-0.126131
-0.5036
-0.497203
-0.489449
-0.477219
-0.460225
-0.439058
-0.414704
-0.388353
-0.361149
-0.334039
-0.30772
-0.28264
-0.259042
-0.23702
-0.216574
-0.197643
-0.180141
-0.163968
-0.149023
-0.13521
-0.122431
-0.514677
-0.508041
-0.500255
-0.488118
-0.47129
-0.45031
-0.426109
-0.399843
-0.37264
-0.345453
-0.318988
-0.29371
-0.269878
-0.247599
-0.226882
-0.207674
-0.189892
-0.173439
-0.158216
-0.144127
-0.131076
-0.118981
-0.525139
-0.518273
-0.510464
-0.498432
-0.481791
-0.461026
-0.437013
-0.410869
-0.383708
-0.35648
-0.329903
-0.304458
-0.280419
-0.257908
-0.236942
-0.217476
-0.199432
-0.182715
-0.167229
-0.152879
-0.139568
-0.127216
-0.115813
-0.105018
-0.534984
-0.527896
-0.520071
-0.508156
-0.491723
-0.471201
-0.447409
-0.421426
-0.394344
-0.367113
-0.340459
-0.314878
-0.290661
-0.267942
-0.246749
-0.227046
-0.208757
-0.191794
-0.176059
-0.161461
-0.147904
-0.135306
-0.123656
-0.112637
-0.101893
-0.544209
-0.53691
-0.529075
-0.517289
-0.501083
-0.480829
-0.457292
-0.431507
-0.404543
-0.377345
-0.350649
-0.324965
-0.300597
-0.277695
-0.256299
-0.236378
-0.217864
-0.20067
-0.184702
-0.169869
-0.156079
-0.143247
-0.131362
-0.120127
-0.109176
-0.552815
-0.545314
-0.537477
-0.52583
-0.509868
-0.489908
-0.466658
-0.441106
-0.414298
-0.387172
-0.360469
-0.334712
-0.310223
-0.287165
-0.265587
-0.245469
-0.226747
-0.20934
-0.193154
-0.178102
-0.16409
-0.151037
-0.138928
-0.127488
-0.116337
-0.560804
-0.55311
-0.545276
-0.53378
-0.518077
-0.498436
-0.475502
-0.45022
-0.423606
-0.396589
-0.369914
-0.344117
-0.319536
-0.296346
-0.27461
-0.254315
-0.235405
-0.2178
-0.201413
-0.186155
-0.171936
-0.158673
-0.146351
-0.134716
-0.123371
-0.568176
-0.560301
-0.552477
-0.541139
-0.525711
-0.506411
-0.483824
-0.458845
-0.432462
-0.405591
-0.37898
-0.353176
-0.328531
-0.305235
-0.283365
-0.262914
-0.243834
-0.22605
-0.209476
-0.194026
-0.179612
-0.166153
-0.15363
-0.141809
-0.130277
-0.574938
-0.566893
-0.559084
-0.547912
-0.532773
-0.513833
-0.491621
-0.46698
-0.440864
-0.414175
-0.387663
-0.361885
-0.337205
-0.313831
-0.291848
-0.271263
-0.252032
-0.234085
-0.21734
-0.201713
-0.187119
-0.173474
-0.160762
-0.148769
-0.13705
-0.581094
-0.57289
-0.565102
-0.554103
-0.539264
-0.520706
-0.498894
-0.474623
-0.44881
-0.42234
-0.395962
-0.370241
-0.345558
-0.322131
-0.30006
-0.279361
-0.259997
-0.241905
-0.225005
-0.209215
-0.194453
-0.180636
-0.167745
-0.155596
-0.143687
-0.586652
-0.5783
-0.570538
-0.559718
-0.545192
-0.527031
-0.505645
-0.481774
-0.456298
-0.430083
-0.403874
-0.378244
-0.353585
-0.330132
-0.307997
-0.287205
-0.267728
-0.249507
-0.232467
-0.21653
-0.201613
-0.187636
-0.174577
-0.162292
-0.150188
-0.59162
-0.583133
-0.575402
-0.564766
-0.55056
-0.532813
-0.511876
-0.488434
-0.463329
-0.437404
-0.411399
-0.385892
-0.361288
-0.337835
-0.315658
-0.294794
-0.275223
-0.256891
-0.239728
-0.223656
-0.208598
-0.194474
-0.181256
-0.168813
-0.156621
-0.596008
-0.587398
-0.579702
-0.569256
-0.555378
-0.538058
-0.517591
-0.494606
-0.469904
-0.444303
-0.418536
-0.393184
-0.368664
-0.345238
-0.323044
-0.302129
-0.282483
-0.264057
-0.246785
-0.230593
-0.215407
-0.20115
-0.187788
-0.175209
-0.162971
-0.599827
-0.591107
-0.583451
-0.573197
-0.559654
-0.542773
-0.522795
-0.500293
-0.476024
-0.450781
-0.425284
-0.40012
-0.375714
-0.352341
-0.330154
-0.30921
-0.289506
-0.271003
-0.253638
-0.237341
-0.222041
-0.207661
-0.194169
-0.181462
-0.169134
-0.60309
-0.594272
-0.586661
-0.576602
-0.563399
-0.546967
-0.527494
-0.505499
-0.481693
-0.456839
-0.431647
-0.406701
-0.382438
-0.359146
-0.336988
-0.316035
-0.296294
-0.27773
-0.260288
-0.2439
-0.228497
-0.214007
-0.200396
-0.187564
-0.175129
-0.605811
-0.596908
-0.589345
-0.579484
-0.566623
-0.550649
-0.531696
-0.510229
-0.486913
-0.46248
-0.437624
-0.412928
-0.388837
-0.365651
-0.343547
-0.322607
-0.302846
-0.284239
-0.266734
-0.250269
-0.234777
-0.220188
-0.206467
-0.193521
-0.180982
-0.608003
-0.59903
-0.59152
-0.581856
-0.569341
-0.55383
-0.535409
-0.514491
-0.491691
-0.467707
-0.443218
-0.418804
-0.394914
-0.37186
-0.349833
-0.328926
-0.309165
-0.290531
-0.272979
-0.25645
-0.240881
-0.226204
-0.212383
-0.199335
-0.186703
-0.609684
-0.600654
-0.5932
-0.583735
-0.571566
-0.556522
-0.538644
-0.518291
-0.49603
-0.472525
-0.448433
-0.424329
-0.400669
-0.377774
-0.355846
-0.334994
-0.315251
-0.296607
-0.279022
-0.262443
-0.24681
-0.232056
-0.218146
-0.205006
-0.192293
-0.610871
-0.601797
-0.594403
-0.585137
-0.573313
-0.558739
-0.541412
-0.521639
-0.499939
-0.476938
-0.453272
-0.429508
-0.406105
-0.383394
-0.361591
-0.340812
-0.321106
-0.302468
-0.284866
-0.268251
-0.252564
-0.237746
-0.223757
-0.210534
-0.197749
-0.61158
-0.602478
-0.595147
-0.58608
-0.574598
-0.560494
-0.543724
-0.524544
-0.503424
-0.480952
-0.457739
-0.434344
-0.411226
-0.388725
-0.367068
-0.346385
-0.326733
-0.308117
-0.290512
-0.273873
-0.258147
-0.243275
-0.229217
-0.215921
-0.203073
-0.611832
-0.602715
-0.595452
-0.586581
-0.575439
-0.561804
-0.545594
-0.527017
-0.506494
-0.484574
-0.461841
-0.438841
-0.416035
-0.393769
-0.372281
-0.351713
-0.332134
-0.313557
-0.295963
-0.279313
-0.263559
-0.248643
-0.234528
-0.221166
-0.208265
-0.611646
-0.602528
-0.595336
-0.58666
-0.575855
-0.562685
-0.547037
-0.52907
-0.509159
-0.487811
-0.465582
-0.443005
-0.420536
-0.398529
-0.377233
-0.356801
-0.337311
-0.318789
-0.301221
-0.284573
-0.268802
-0.253854
-0.23969
-0.226273
-0.213326
-0.611042
-0.601937
-0.59482
-0.586337
-0.575863
-0.563155
-0.548066
-0.530716
-0.511429
-0.490671
-0.468969
-0.446839
-0.424733
-0.40301
-0.381928
-0.361651
-0.34227
-0.323817
-0.306288
-0.289655
-0.273878
-0.258908
-0.244707
-0.231241
-0.218258
-0.610041
-0.600964
-0.593925
-0.585633
-0.575485
-0.563231
-0.5487
-0.531968
-0.513315
-0.493164
-0.472009
-0.45035
-0.428632
-0.407217
-0.38637
-0.366268
-0.347012
-0.328644
-0.311168
-0.294563
-0.278791
-0.263809
-0.249579
-0.236074
-0.223063
-0.608664
-0.59963
-0.592673
-0.584569
-0.574739
-0.562932
-0.548954
-0.532841
-0.514829
-0.495298
-0.474711
-0.453545
-0.432238
-0.411153
-0.390563
-0.370656
-0.351542
-0.333274
-0.315865
-0.299298
-0.283543
-0.268559
-0.254309
-0.240772
-0.227741
-0.606935
-0.597957
-0.591085
-0.583167
-0.573649
-0.56228
-0.548846
-0.53335
-0.515984
-0.497085
-0.477082
-0.45643
-0.435556
-0.414824
-0.394512
-0.374818
-0.355863
-0.337711
-0.320381
-0.303865
-0.288137
-0.273161
-0.2589
-0.245339
-0.232295
-0.604874
-0.595965
-0.589183
-0.581448
-0.572234
-0.561293
-0.548395
-0.533512
-0.516793
-0.498535
-0.479132
-0.459013
-0.438594
-0.418235
-0.398222
-0.37876
-0.359981
-0.341959
-0.324722
-0.308268
-0.292577
-0.277617
-0.263354
-0.249775
-0.236726
-0.602503
-0.593679
-0.586989
-0.579435
-0.570516
-0.559992
-0.54762
-0.533343
-0.517272
-0.499661
-0.480869
-0.461301
-0.441356
-0.421392
-0.401698
-0.382486
-0.3639
-0.346022
-0.328889
-0.312509
-0.296865
-0.281931
-0.267673
-0.254085
-0.241037
-0.599847
-0.59112
-0.584527
-0.57715
-0.568518
-0.558399
-0.546541
-0.532861
-0.517434
-0.500475
-0.482305
-0.463303
-0.443851
-0.424302
-0.404945
-0.386002
-0.367624
-0.349904
-0.332889
-0.316593
-0.301006
-0.286106
-0.271862
-0.25827
-0.24523
-0.596928
-0.58831
-0.581818
-0.574616
-0.566262
-0.556535
-0.545178
-0.532085
-0.517296
-0.50099
-0.483451
-0.465028
-0.446086
-0.42697
-0.40797
-0.389312
-0.371158
-0.353611
-0.336726
-0.320524
-0.305003
-0.290145
-0.275923
-0.262333
-0.249308
-0.593767
-0.585271
-0.578884
-0.571854
-0.56377
-0.554422
-0.543551
-0.531031
-0.516874
-0.50122
-0.484317
-0.466484
-0.448069
-0.429403
-0.410777
-0.392422
-0.374508
-0.357147
-0.340404
-0.324307
-0.30886
-0.294053
-0.27986
-0.266278
-0.253273
-0.590387
-0.582025
-0.575747
-0.568887
-0.561063
-0.552081
-0.54168
-0.529721
-0.516185
-0.501179
-0.484915
-0.467683
-0.449807
-0.431608
-0.413374
-0.395338
-0.377679
-0.360518
-0.343927
-0.327945
-0.312582
-0.297833
-0.283675
-0.270107
-0.257128
-0.58681
-0.578594
-0.572428
-0.565736
-0.558164
-0.549533
-0.539587
-0.528171
-0.515246
-0.500882
-0.485258
-0.468634
-0.45131
-0.433593
-0.415766
-0.398066
-0.380677
-0.363728
-0.347302
-0.331445
-0.316174
-0.301489
-0.287374
-0.273825
-0.260876
-0.583058
-0.574999
-0.568949
-0.562422
-0.555094
-0.546801
-0.537291
-0.526404
-0.514074
-0.500344
-0.485359
-0.469347
-0.452585
-0.435364
-0.41796
-0.400611
-0.383506
-0.366782
-0.350532
-0.334809
-0.319638
-0.305026
-0.290959
-0.277434
-0.26452
-0.579151
-0.571259
-0.56533
-0.558966
-0.551874
-0.543904
-0.534814
-0.524436
-0.512687
-0.49958
-0.485231
-0.469834
-0.453642
-0.436929
-0.419962
-0.402979
-0.386172
-0.369687
-0.353624
-0.338045
-0.322981
-0.308447
-0.294434
-0.280938
-0.268064
-0.57511
-0.567395
-0.56159
-0.555388
-0.548524
-0.540864
-0.532176
-0.522289
-0.511103
-0.498608
-0.484887
-0.470106
-0.454491
-0.438296
-0.42178
-0.405177
-0.388682
-0.372447
-0.356582
-0.341155
-0.570956
-0.563427
-0.55775
-0.551708
-0.545064
-0.537701
-0.529397
-0.51998
-0.50934
-0.497442
-0.484342
-0.470175
-0.45514
-0.439474
-0.42342
-0.40721
-0.566707
-0.559372
-0.553826
-0.547943
-0.541512
-0.534433
-0.526496
-0.517531
-0.507416
-0.496099
-0.483609
-0.470052
-0.455601
-0.562383
-0.555248
-0.549838
-0.544113
-0.537889
-0.531081
-0.523493
-0.514958
-0.505349
-0.558001
-0.551074
-0.545801
-0.540234
-0.53421
-0.527662
-0.553578
-0.546864
-0.541733
-0.536323
-0.54913
-0.237561
-0.241506
-0.245354
-0.249109
-0.252772
-0.256347
-0.259837
-0.263244
-0.220767
-0.224558
-0.228273
-0.231914
-0.235483
-0.238983
-0.242416
-0.245783
-0.205488
-0.209107
-0.212665
-0.216166
-0.219611
-0.223002
-0.226341
-0.22963
-0.191554
-0.194999
-0.198397
-0.201749
-0.205058
-0.208325
-0.211551
-0.214739
-0.178788
-0.182059
-0.185294
-0.188492
-0.191657
-0.194789
-0.197891
-0.200962
-0.167043
-0.170142
-0.173212
-0.176254
-0.179271
-0.182262
-0.18523
-0.188175
-0.156198
-0.159128
-0.162035
-0.164921
-0.167788
-0.170635
-0.173464
-0.176277
-0.146156
-0.14892
-0.151668
-0.154399
-0.157115
-0.159817
-0.162506
-0.165183
-0.136823
-0.139428
-0.14202
-0.1446
-0.147168
-0.149726
-0.152275
-0.154814
-0.128136
-0.130587
-0.133027
-0.135459
-0.137882
-0.140298
-0.142707
-0.145111
-0.120021
-0.122323
-0.124619
-0.126907
-0.12919
-0.131468
-0.133741
-0.136011
-0.112427
-0.114588
-0.116744
-0.118896
-0.121043
-0.123187
-0.125328
-0.127466
-0.105306
-0.107332
-0.109355
-0.111375
-0.113391
-0.115406
-0.117419
-0.119432
-0.0986164
-0.100515
-0.10241
-0.104304
-0.106196
-0.108087
-0.109977
-0.111867
-0.0923196
-0.0940963
-0.0958713
-0.0976452
-0.0994182
-0.101191
-0.102964
-0.104737
-0.086385
-0.0880466
-0.0897074
-0.0913675
-0.0930274
-0.0946876
-0.0963483
-0.09801
-0.0807826
-0.0823357
-0.0838883
-0.0854408
-0.0869936
-0.0885469
-0.0901012
-0.0916567
-0.0754884
-0.076939
-0.0783896
-0.0798404
-0.0812917
-0.0827439
-0.0841972
-0.0856519
-0.0704797
-0.0718339
-0.0731883
-0.0745431
-0.0758987
-0.0772552
-0.0786131
-0.0799725
-0.0657363
-0.0669998
-0.0682636
-0.069528
-0.0707933
-0.0720597
-0.0733275
-0.0745968
-0.061239
-0.0624176
-0.0635966
-0.0647764
-0.065957
-0.0671387
-0.0683217
-0.0695063
-0.0569748
-0.0580735
-0.0591727
-0.0602726
-0.0613735
-0.0624754
-0.0635786
-0.0646834
-0.0529282
-0.053952
-0.0549764
-0.0560015
-0.0570275
-0.0580546
-0.0590829
-0.0601126
-0.0490853
-0.0500391
-0.0509935
-0.0519486
-0.0529045
-0.0538614
-0.0548195
-0.0557789
-0.0454348
-0.0463231
-0.047212
-0.0481016
-0.0489919
-0.0498832
-0.0507755
-0.051669
-0.0419664
-0.0427935
-0.0436211
-0.0444494
-0.0452783
-0.0461082
-0.0469389
-0.0477708
-0.0386697
-0.0394397
-0.0402101
-0.0409811
-0.0417528
-0.0425252
-0.0432984
-0.0440726
-0.035536
-0.0362526
-0.0369697
-0.0376872
-0.0384053
-0.0391241
-0.0398437
-0.040564
-0.0325569
-0.0332238
-0.0338911
-0.0345588
-0.035227
-0.0358957
-0.0365651
-0.0372353
-0.0297248
-0.0303454
-0.0309662
-0.0315874
-0.032209
-0.0328311
-0.0334538
-0.0340771
-0.0270321
-0.0276095
-0.0281872
-0.0287651
-0.0293433
-0.029922
-0.0305012
-0.0310808
-0.0244731
-0.0250102
-0.0255476
-0.0260852
-0.026623
-0.0271612
-0.0276997
-0.0282387
-0.0220409
-0.0225406
-0.0230404
-0.0235405
-0.0240407
-0.0245412
-0.025042
-0.0255431
-0.0197298
-0.0201947
-0.0206596
-0.0211247
-0.0215899
-0.0220553
-0.022521
-0.0229869
-0.0175344
-0.0179669
-0.0183994
-0.0188319
-0.0192646
-0.0196974
-0.0201303
-0.0205634
-0.0154495
-0.0158518
-0.0162541
-0.0166565
-0.0170589
-0.0174613
-0.0178638
-0.0182665
-0.0134702
-0.0138445
-0.0142188
-0.014593
-0.0149672
-0.0153415
-0.0157157
-0.0160901
-0.0115921
-0.0119403
-0.0122885
-0.0126365
-0.0129846
-0.0133326
-0.0136806
-0.0140286
-0.0098105
-0.0101344
-0.0104583
-0.0107821
-0.0111058
-0.0114294
-0.011753
-0.0120765
-0.00812062
-0.00842224
-0.00872368
-0.00902497
-0.00932612
-0.00962716
-0.00992809
-0.0102289
-0.00651994
-0.00680057
-0.00708103
-0.00736132
-0.00764146
-0.00792146
-0.00820131
-0.00848104
-0.00500396
-0.00526514
-0.00552613
-0.00578692
-0.00604754
-0.00630798
-0.00656826
-0.00682838
-0.00356886
-0.00381198
-0.00405489
-0.00429758
-0.00454008
-0.00478237
-0.00502447
-0.00526638
-0.00221135
-0.00243769
-0.0026638
-0.00288968
-0.00311533
-0.00334077
-0.00356598
-0.00379099
-0.000928062
-0.00113881
-0.00134932
-0.00155958
-0.00176959
-0.00197937
-0.00218891
-0.00239821
0.000284165
8.78985e-05
-0.000108108
-0.000303856
-0.000499346
-0.000694581
-0.000889562
-0.00108429
0.00142839
0.00124558
0.00106304
0.000880771
0.000698771
0.00051704
0.000335576
0.000154378
0.00250753
0.00233722
0.00216719
0.00199744
0.00182797
0.00165878
0.00148987
0.00132123
0.00352439
0.0033657
0.00320729
0.00304917
0.00289133
0.00273379
0.00257652
0.00241955
0.00448167
0.00433377
0.00418615
0.00403883
0.0038918
0.00374506
0.00359861
0.00345246
0.00538195
0.00524406
0.00510647
0.00496917
0.00483217
0.00469547
0.00455906
0.00442296
0.0062277
0.00609912
0.00597083
0.00584284
0.00571515
0.00558775
0.00546067
0.00533388
0.0070213
0.00690135
0.0067817
0.00666235
0.00654329
0.00642454
0.0063061
0.00618796
0.00776501
0.00765308
0.00754145
0.00743011
0.00731907
0.00720833
0.0070979
0.00698778
0.00846102
0.00835653
0.00825232
0.00814842
0.00804481
0.0079415
0.0078385
0.00773581
0.0091114
0.0090138
0.00891649
0.00881947
0.00872275
0.00862633
0.00853021
0.00843439
0.00971813
0.00962691
0.00953598
0.00944535
0.009355
0.00926495
0.0091752
0.00908576
0.0102831
0.0101978
0.0101128
0.010028
0.00994359
0.00985944
0.00977558
0.00969202
0.0108081
0.0107283
0.0106487
0.0105694
0.0104904
0.0104117
0.0103333
0.0102552
0.0112948
0.01122
0.0111455
0.0110712
0.0109973
0.0109236
0.0108502
0.0107771
0.0117448
0.0116747
0.0116048
0.0115352
0.0114658
0.0113968
0.011328
0.0112595
0.0121596
0.0120937
0.0120281
0.0119628
0.0118977
0.0118329
0.0117684
0.0117041
0.0125406
0.0124786
0.0124169
0.0123554
0.0122943
0.0122334
0.0121727
0.0121124
0.012889
0.0128306
0.0127724
0.0127146
0.0126569
0.0125996
0.0125425
0.0124857
0.0132059
0.0131508
0.0130959
0.0130413
0.0129869
0.0129328
0.0128789
0.0128253
0.012772
0.0134925
0.0134403
0.0133883
0.0133366
0.0132852
0.013234
0.0131831
0.0131324
0.013082
0.0137495
0.0136999
0.0136506
0.0136016
0.0135528
0.0135042
0.0134559
0.0134078
0.01336
0.0139777
0.0139305
0.0138836
0.0138369
0.0137904
0.0137442
0.0136982
0.0136525
0.013607
0.0141777
0.0141326
0.0140877
0.014043
0.0139986
0.0139545
0.0139105
0.0138668
0.0138234
0.0143499
0.0143066
0.0142635
0.0142207
0.014178
0.0141356
0.0140935
0.0140516
0.0140099
0.0144943
0.0144526
0.014411
0.0143696
0.0143285
0.0142876
0.014247
0.0142066
0.0141664
0.0146113
0.0145708
0.0145304
0.0144903
0.0144504
0.0144108
0.0143714
0.0143322
0.0142932
0.0147
0.0146604
0.0146211
0.014582
0.014543
0.0145043
0.0144659
0.0144276
0.0143896
0.0147605
0.0147216
0.0146829
0.0146445
0.0146062
0.0145682
0.0145304
0.0144928
0.0144554
0.0147911
0.0147526
0.0147144
0.0146764
0.0146386
0.014601
0.0145636