/*--------------------------------*- C++ -*----------------------------------*\
  =========                 |
  \\      /  F ield         | OpenFOAM: The Open Source CFD Toolbox
   \\    /   O peration     | Website:  https://openfoam.org
    \\  /    A nd           | Version:  7
     \\/     M anipulation  |
\*---------------------------------------------------------------------------*/
FoamFile
{
    version     2.0;
    format      ascii;
    class       volScalarField;
    location    "60";
    object      p;
}
// * * * * * * * * * * * * * * * * * * * * * * * * * * * * * * * * * * * * * //

dimensions      [0 2 -2 0 0 0 0];

internalField   nonuniform List<scalar> 
7156
(
0.261133
0.268277
0.275282
0.287538
0.282145
0.294573
0.28886
0.301451
0.295421
0.308166
0.301822
0.321937
0.314712
0.308058
0.328605
0.321082
0.314123
0.335085
0.327271
0.320013
0.341369
0.333273
0.325721
0.355536
0.347451
0.339082
0.331243
0.361712
0.353326
0.344693
0.336573
0.367664
0.358987
0.350099
0.341707
0.373386
0.36443
0.355296
0.34664
0.378873
0.369648
0.360278
0.351366
0.393613
0.384119
0.374636
0.36504
0.355883
0.398872
0.389119
0.379389
0.369578
0.360185
0.403867
0.393867
0.383903
0.373887
0.364269
0.408593
0.398358
0.388173
0.377963
0.368129
0.413044
0.402588
0.392194
0.381802
0.371764
0.417216
0.406553
0.395963
0.385399
0.375169
0.421105
0.410248
0.399475
0.38875
0.378341
0.435821
0.424706
0.413669
0.402726
0.391854
0.381277
0.439304
0.428016
0.416813
0.405714
0.394705
0.383973
0.442477
0.431031
0.419677
0.408436
0.397302
0.386428
0.445337
0.433747
0.422257
0.410887
0.399641
0.38864
0.447879
0.436163
0.424551
0.413067
0.401721
0.390604
0.450103
0.438274
0.426556
0.414972
0.403538
0.392321
0.452004
0.44008
0.428271
0.416601
0.405091
0.393788
0.453581
0.441578
0.429692
0.417951
0.406379
0.395004
0.454833
0.442766
0.43082
0.419021
0.4074
0.395967
0.455758
0.443644
0.431652
0.419811
0.408152
0.396677
0.456354
0.444209
0.432188
0.420319
0.408636
0.397132
0.456622
0.444462
0.432427
0.420545
0.40885
0.397333
0.45656
0.444402
0.432368
0.420488
0.408794
0.397278
0.456169
0.444029
0.432013
0.420148
0.408469
0.396969
0.455449
0.443343
0.43136
0.419526
0.407874
0.396405
0.454401
0.442346
0.430411
0.418623
0.40701
0.395587
0.453026
0.441038
0.429166
0.417438
0.405878
0.394515
0.451325
0.43942
0.427628
0.415974
0.404479
0.393191
0.4493
0.437494
0.425797
0.414232
0.402815
0.391616
0.446954
0.435263
0.423675
0.412214
0.400886
0.389791
0.444288
0.432727
0.421264
0.409921
0.398696
0.387718
0.441306
0.429891
0.418568
0.407356
0.396246
0.385399
0.43801
0.426757
0.415588
0.404521
0.393538
0.382835
0.434404
0.423328
0.412328
0.40142
0.390576
0.380031
0.419608
0.40879
0.398055
0.387363
0.376987
0.4156
0.40498
0.394431
0.383901
0.373708
0.411309
0.4009
0.390549
0.380194
0.370196
0.406739
0.396554
0.386416
0.376245
0.366454
0.401895
0.391948
0.382034
0.37206
0.362486
0.396782
0.387085
0.377408
0.367641
0.358295
0.391405
0.381971
0.372543
0.362994
0.353886
0.37661
0.367443
0.358122
0.349263
0.371009
0.362114
0.353031
0.34443
0.365173
0.35656
0.347726
0.339391
0.359107
0.350788
0.342211
0.334151
0.352817
0.344803
0.336493
0.328715
0.33861
0.330576
0.323088
0.332216
0.324467
0.317274
0.325627
0.31817
0.311279
0.31885
0.311693
0.305109
0.305041
0.298769
0.298219
0.292263
0.291235
0.285598
0.284094
0.27878
0.271813
0.264704
0.257458
0.114939
0.115719
0.117259
0.119445
0.122221
0.125526
0.129313
0.133534
0.138141
0.143086
0.148311
0.153756
0.159344
0.164994
0.170598
0.176043
0.181182
0.185862
0.189882
0.193053
0.195108
0.195835
0.194881
0.192073
0.186897
0.179414
0.168586
0.114161
0.114916
0.116404
0.118515
0.12119
0.124367
0.127994
0.132023
0.1364
0.141072
0.145976
0.151047
0.156202
0.161352
0.166386
0.171185
0.175598
0.179472
0.18261
0.184827
0.185871
0.185551
0.183544
0.179714
0.173612
0.165332
0.154056
0.113328
0.114058
0.11549
0.117521
0.120087
0.123127
0.126586
0.130412
0.134547
0.138934
0.143507
0.148194
0.152908
0.157556
0.162023
0.166188
0.169902
0.173012
0.17533
0.176685
0.176842
0.175638
0.172786
0.168201
0.161497
0.152846
0.141636
0.11244
0.113141
0.114514
0.116461
0.118913
0.121809
0.125092
0.128705
0.13259
0.136683
0.140915
0.145209
0.149475
0.153617
0.157516
0.161052
0.164075
0.166442
0.16797
0.168505
0.167831
0.165815
0.162208
0.156964
0.149777
0.140842
0.129728
0.111494
0.112166
0.113477
0.115335
0.117669
0.120416
0.123517
0.126912
0.13054
0.134334
0.13822
0.142119
0.145937
0.149575
0.152916
0.155838
0.158197
0.159856
0.160644
0.160421
0.158998
0.156263
0.152014
0.146228
0.138682
0.129555
0.11855
0.11049
0.111131
0.112379
0.114145
0.116356
0.118949
0.121863
0.125036
0.128402
0.131893
0.135432
0.138935
0.142309
0.145452
0.148249
0.150581
0.152309
0.153304
0.153412
0.152506
0.150424
0.147078
0.142307
0.136109
0.128327
0.119125
0.108309
0.109428
0.110036
0.111219
0.11289
0.114975
0.11741
0.120133
0.123079
0.12618
0.129365
0.132555
0.135665
0.138601
0.141261
0.143532
0.145299
0.146433
0.146813
0.1463
0.144786
0.142134
0.138277
0.133093
0.126597
0.118687
0.109516
0.0989688
0.108306
0.108882
0.109997
0.11157
0.113526
0.1158
0.118327
0.121043
0.123876
0.126755
0.129597
0.132319
0.134825
0.137015
0.138781
0.140013
0.14059
0.140404
0.139331
0.13728
0.134141
0.129863
0.124363
0.117665
0.109714
0.100655
0.0904291
0.107125
0.107667
0.108713
0.110185
0.112009
0.114119
0.116449
0.118932
0.121497
0.124069
0.126567
0.128907
0.130994
0.132731
0.134015
0.134742
0.134803
0.1341
0.132526
0.130007
0.126457
0.121841
0.116108
0.109291
0.101371
0.0924846
0.082613
0.105885
0.106391
0.107367
0.108736
0.110426
0.112369
0.114499
0.116749
0.119045
0.121314
0.123473
0.125439
0.12712
0.128423
0.12925
0.129506
0.129091
0.12792
0.125904
0.122983
0.119092
0.114214
0.10832
0.101455
0.0936245
0.0849559
0.0754607
0.104585
0.105056
0.105959
0.107224
0.108778
0.110553
0.112482
0.114498
0.116528
0.118496
0.120323
0.121926
0.123216
0.124106
0.124503
0.124321
0.123472
0.121883
0.11948
0.116218
0.112052
0.106978
0.100988
0.0941324
0.0864374
0.0780215
0.0689171
0.103226
0.10366
0.104491
0.10565
0.107066
0.108672
0.110401
0.112184
0.113949
0.115623
0.117126
0.118377
0.119294
0.119792
0.119788
0.119203
0.117962
0.116001
0.113265
0.109719
0.105337
0.100126
0.094094
0.0872969
0.0797741
0.0716357
0.0629288
0.101807
0.102204
0.102962
0.104015
0.105293
0.106729
0.108258
0.109811
0.111316
0.112702
0.11389
0.114805
0.115365
0.115496
0.115119
0.114167
0.112573
0.110288
0.107267
0.103491
0.0989462
0.093649
0.0876216
0.0809218
0.0735992
0.0657548
0.0574458
0.100331
0.10069
0.101374
0.10232
0.10346
0.104727
0.106058
0.107383
0.108634
0.10974
0.110625
0.111217
0.111442
0.111229
0.11051
0.109224
0.107318
0.104751
0.101493
0.0975344
0.0928739
0.0875355
0.0815512
0.07498
0.0678781
0.0603375
0.0524218
0.098796
0.0991177
0.0997278
0.100567
0.101569
0.102669
0.103804
0.104907
0.10591
0.106744
0.107338
0.107625
0.107534
0.107003
0.10597
0.104385
0.102204
0.0993978
0.0959462
0.0918479
0.0871133
0.0817718
0.0758625
0.0694445
0.0625778
0.0553455
0.0478148
0.0972048
0.0974889
0.0980253
0.0987583
0.0996236
0.100559
0.101501
0.102386
0.103148
0.103721
0.104039
0.104037
0.103652
0.102827
0.101511
0.0996601
0.0972412
0.0942331
0.0906267
0.0864281
0.0816556
0.0763433
0.0705352
0.064289
0.0576669
0.0507431
0.0435864
0.0955582
0.0958048
0.096268
0.0968956
0.097626
0.0983986
0.0991527
0.0998264
0.100356
0.10068
0.100735
0.100462
0.0998041
0.0987117
0.0971406
0.095056
0.0924332
0.0892595
0.0855341
0.0812696
0.0764908
0.0712348
0.0655486
0.059488
0.0531157
0.0464972
0.0397017
0.0938577
0.094067
0.0944579
0.0949814
0.0955792
0.0961928
0.0967639
0.097233
0.0975402
0.0976263
0.0974337
0.0969082
0.0959997
0.0946647
0.0928668
0.090579
0.0877845
0.084478
0.0806658
0.0763659
0.0716078
0.0664303
0.0608824
0.0550172
0.0488963
0.0425776
0.0361291
0.0921048
0.0922774
0.092597
0.0930184
0.0934863
0.0939451
0.094339
0.0946114
0.0947059
0.0945673
0.0941429
0.0933839
0.0922464
0.0906933
0.0886957
0.0862336
0.0832975
0.0798882
0.0760181
0.0717093
0.0669948
0.0619142
0.0565169
0.0508532
0.0449829
0.0389563
0.0328399
0.0903016
0.0904381
0.0906877
0.0910092
0.0913507
0.0916595
0.0918826
0.0919668
0.0918595
0.0915097
0.0908696
0.0898959
0.0885509
0.0868038
0.0846325
0.0820233
0.0789732
0.0754884
0.0715861
0.0672913
0.0626395
0.0576704
0.0524331
0.0469742
0.0413513
0.0356081
0.0298085
0.0884501
0.0885512
0.0887327
0.0889569
0.0891759
0.0893399
0.0893994
0.0893046
0.0890068
0.0884596
0.0876203
0.0864508
0.0849194
0.0830015
0.0806811
0.0779503
0.0748117
0.0712759
0.0673638
0.0631029
0.0585298
0.0536837
0.0486125
0.0433595
0.0379794
0.0325098
0.0270116
0.0865526
0.0866192
0.0867345
0.0868646
0.0869654
0.0869907
0.0868942
0.08663
0.0861537
0.0854232
0.084401
0.0830544
0.0813573
0.0792909
0.0768445
0.0740158
0.0708118
0.0672469
0.0633448
0.0591345
0.0546531
0.0499388
0.0450377
0.0399898
0.0348467
0.0296401
0.0244284
0.0846117
0.0846449
0.0846962
0.0847356
0.084723
0.0846159
0.0843716
0.0839482
0.0833054
0.0824061
0.0812174
0.079712
0.0778692
0.0756753
0.0731249
0.07022
0.0669716
0.063397
0.0595221
0.0553765
0.0509973
0.0464212
0.0416924
0.0368472
0.0319343
0.02698
0.0220399
0.0826301
0.0826312
0.0826209
0.0825734
0.0824527
0.0822199
0.0818364
0.0812642
0.0804675
0.0794136
0.0780747
0.0764283
0.074459
0.0721577
0.0695235
0.0665623
0.0632884
0.0597213
0.0558882
0.0518191
0.0475504
0.043117
0.0385609
0.033915
0.0292248
0.0245121
0.0198293
0.0806107
0.0805809
0.0805119
0.0803815
0.0801582
0.079807
0.0792932
0.0785829
0.0776447
0.0764505
0.0749773
0.0732074
0.0711298
0.0687399
0.0660407
0.0630415
0.0597589
0.0562143
0.0524356
0.0484526
0.0443007
0.0400128
0.0356286
0.0311777
0.0267024
0.0222205
0.0177812
0.0785565
0.0784974
0.0783724
0.0781637
0.0778436
0.0773814
0.0767464
0.0759089
0.0748418
0.0735216
0.0719297
0.0700528
0.0678842
0.0654233
0.0626764
0.0596555
0.0563793
0.0528702
0.0491565
0.0452674
0.041237
0.0370961
0.0328819
0.028621
0.0243526
0.0200908
0.015882
0.0764709
0.0763839
0.0762062
0.0759235
0.0755129
0.0749474
0.0742006
0.0732468
0.0720634
0.0706309
0.0689353
0.0669673
0.0647241
0.0622085
0.0594298
0.056402
0.0531454
0.0496832
0.0460433
0.0422542
0.0383484
0.0343549
0.030308
0.0262316
0.022162
0.01811
0.0141193
0.0743572
0.074244
0.0740167
0.073665
0.0731701
0.0725093
0.07166
0.0706009
0.0693134
0.0677823
0.0659974
0.0639534
0.061651
0.0590958
0.0562996
0.0532782
0.0500528
0.046647
0.0430882
0.0394038
0.0356248
0.0317779
0.027895
0.0239974
0.0201184
0.0162662
0.0124817
0.072219
0.0720813
0.0718078
0.071392
0.0708192
0.070071
0.0691288
0.0679753
0.0665957
0.0649791
0.0631188
0.0610131
0.0586657
0.0560848
0.0532841
0.0502809
0.0470968
0.0437554
0.0402836
0.0367075
0.0330562
0.0293545
0.0256318
0.021907
0.0182107
0.0145486
0.0109592
0.0700598
0.0698994
0.0695831
0.0691083
0.0684643
0.0676368
0.0666111
0.0653737
0.0639139
0.0622243
0.0603019
0.0581479
0.0557687
0.0531747
0.0503813
0.0474065
0.0442725
0.0410024
0.0376223
0.0341568
0.0306335
0.0270748
0.0235082
0.01995
0.0164286
0.0129474
0.00954253
0.0678835
0.0677021
0.0673467
0.066818
0.0661093
0.0652105
0.0641105
0.0627998
0.0612712
0.0595207
0.0575486
0.0553587
0.05296
0.0503645
0.0475888
0.0446516
0.041575
0.0383818
0.0350969
0.0317436
0.0283476
0.0249296
0.0215146
0.018117
0.0147628
0.0114538
0.00822345
0.0656937
0.0654933
0.0651023
0.0645248
0.0637582
0.0627959
0.0616309
0.060257
0.0586705
0.0568707
0.0548605
0.0526465
0.0502393
0.0476527
0.0449039
0.0420122
0.0389995
0.0358876
0.0327006
0.0294603
0.0261905
0.0229101
0.0196421
0.0163991
0.0132047
0.0100594
0.00699435
0.0634944
0.0632768
0.0628537
0.0622327
0.0614147
0.0603968
0.0591756
0.0577484
0.0561145
0.0542761
0.0522388
0.0500114
0.047606
0.0450375
0.042324
0.0394846
0.0365409
0.033514
0.0304267
0.0272994
0.0241542
0.0210083
0.0178826
0.0147881
0.0117465
0.00875686
0.00584834
0.0612895
0.0610565
0.060605
0.0599456
0.0590825
0.0580168
0.0567481
0.0552768
0.0536055
0.0517388
0.0496847
0.0474536
0.0450591
0.0425172
0.039846
0.0370648
0.0341944
0.0312553
0.0282688
0.025254
0.0222314
0.0192165
0.0162284
0.0132766
0.010381
0.0075394
0.00477916
0.0590828
0.0588364
0.05836
0.0576671
0.0567654
0.0556592
0.0543513
0.0528451
0.0511457
0.0492603
0.0471986
0.0449729
0.0425977
0.0400897
0.037467
0.0347489
0.0319554
0.029106
0.0262208
0.0233176
0.0204152
0.0175277
0.0146725
0.0118577
0.00910142
0.00640077
0.00378107
0.0568783
0.0566202
0.0561224
0.055401
0.0544669
0.0533273
0.0519881
0.0504555
0.0487369
0.0468416
0.0447811
0.0425689
0.0402205
0.0377527
0.035184
0.032533
0.0298191
0.0270608
0.0242769
0.021484
0.0186992
0.0159354
0.0132083
0.010525
0.00790181
0.00533525
0.00284884
0.0546799
0.0544119
0.0538961
0.053151
0.0521903
0.0510243
0.0496614
0.0481103
0.0463808
0.0444838
0.0424323
0.040241
0.0379258
0.035504
0.0329938
0.0304132
0.027781
0.0251146
0.0224316
0.0197473
0.0170774
0.0144335
0.0118299
0.00927264
0.00677655
0.00433762
0.00197766
0.0524914
0.0522152
0.0516847
0.0509205
0.049939
0.048753
0.0473736
0.0458116
0.0440787
0.0421875
0.0401523
0.0379884
0.0357123
0.0333414
0.0308934
0.0283859
0.0258369
0.0232626
0.0206796
0.0181019
0.015544
0.0130163
0.0105317
0.00809521
0.00572049
0.00340306
0.00116313
0.0503166
0.0500339
0.0494919
0.048713
0.047716
0.0465162
0.045127
0.0435612
0.041832
0.0399535
0.0379409
0.0358102
0.0335783
0.0312623
0.0288797
0.0264474
0.0239824
0.0215002
0.019016
0.0165429
0.0140939
0.0116785
0.00930833
0.0069877
0.00472888
0.00252715
0.000401208
0.0481592
0.0478717
0.0473211
0.0465317
0.0455244
0.0443167
0.0429239
0.0413606
0.0396415
0.0377819
0.0357978
0.0337055
0.0315221
0.0292645
0.0269497
0.0245941
0.0222137
0.019823
0.0174362
0.0150652
0.0127221
0.0104152
0.00815516
0.0059455
0.00379736
0.00170583
-0.000311825
0.0460229
0.045732
0.0451757
0.0443798
0.043367
0.0421567
0.0407662
0.0392114
0.0375083
0.0356732
0.0337225
0.0316731
0.0295419
0.0273455
0.0251006
0.0228226
0.0205268
0.0182268
0.0159357
0.0136644
0.011424
0.00922193
0.0070677
0.00496434
0.00292188
0.000935336
-0.000979397
0.0439112
0.0436183
0.043059
0.0422603
0.0412465
0.0400387
0.0386557
0.0371148
0.035433
0.0336272
0.0317145
0.0297118
0.0276359
0.0255031
0.0233294
0.0211296
0.0189181
0.0167077
0.0145104
0.0123363
0.0101954
0.00809437
0.00604184
0.00404028
0.00209874
0.000212219
-0.00160467
0.0418275
0.0415339
0.0409741
0.040176
0.0391654
0.0379647
0.0365941
0.0350719
0.0334161
0.0316441
0.0297733
0.0278205
0.0258024
0.0237349
0.0216334
0.019512
0.0173843
0.015262
0.0131565
0.0110768
0.00903222
0.00702863
0.00507376
0.00316966
0.0013245
-0.000466715
-0.00219055
0.039775
0.0394821
0.0389241
0.0381298
0.0371261
0.0359367
0.0345829
0.0330838
0.0314582
0.0297237
0.027898
0.0259979
0.0240396
0.0220388
0.02001
0.0179668
0.0159218
0.0138862
0.0118702
0.00988235
0.00793084
0.00602106
0.00415994
0.00234913
0.000595982
-0.00110441
-0.00273975
0.0377569
0.0374658
0.0369117
0.0361242
0.0351309
0.0339566
0.0326234
0.0311513
0.0295595
0.0278658
0.026088
0.0242427
0.0223458
0.0204125
0.0184566
0.0164911
0.0145278
0.012577
0.0106483
0.00874939
0.00688779
0.00506829
0.00329711
0.00157555
-8.97463e-05
-0.00170359
-0.00325474
0.0357763
0.0354879
0.0349397
0.0341616
0.0331818
0.032026
0.0307169
0.0292752
0.0277202
0.0260701
0.0243425
0.0225537
0.0207193
0.0188539
0.0169708
0.0150821
0.0131991
0.0113313
0.00948749
0.00767474
0.00589988
0.00416719
0.00248223
0.000846063
-0.000735392
-0.00226678
-0.00373783
0.0338358
0.0335512
0.0330106
0.0322442
0.0312807
0.0301464
0.0288645
0.027456
0.0259405
0.0243363
0.0226606
0.0209296
0.0191585
0.0173611
0.0155503
0.0137375
0.0119331
0.0101462
0.00838483
0.0066554
0.00496413
0.00331484
0.00171253
0.000157988
-0.00134346
-0.00279628
-0.00419115
0.0319384
0.0316583
0.0311269
0.0303743
0.0294295
0.0283192
0.0270671
0.0256943
0.0242206
0.022664
0.0210416
0.0193693
0.0176616
0.0159321
0.0141928
0.0124546
0.0107272
0.00901905
0.00733756
0.0056886
0.00407779
0.00250857
0.000985395
-0.000491131
-0.00191626
-0.00329425
-0.00461665
0.0300864
0.0298116
0.0292907
0.0285537
0.0276298
0.0265458
0.0253256
0.0239906
0.0225603
0.0210527
0.0194846
0.0178714
0.0162273
0.014565
0.0128963
0.0112312
0.00957897
0.0079473
0.00634311
0.00477174
0.00323832
0.00174589
0.00029845
-0.00110357
-0.00245592
-0.00376267
-0.00501616
0.0282822
0.0280134
0.0275042
0.0267843
0.0258831
0.0248272
0.0236408
0.0223451
0.0209596
0.019502
0.0179888
0.0164349
0.0148539
0.0132582
0.0116588
0.0100652
0.00848609
0.00692858
0.00539907
0.00390245
0.00244335
0.00102451
-0.000350518
-0.00168141
-0.00296442
-0.00420336
-0.00539135
0.0265281
0.0262658
0.0257692
0.0250679
0.0241907
0.0231645
0.0220133
0.0207582
0.0194184
0.0180115
0.0165533
0.0150585
0.0135401
0.0120099
0.0104784
0.00895457
0.00744645
0.00596071
0.00450323
0.00307849
0.00169069
0.000342295
-0.000963541
-0.0022266
-0.00344356
-0.004618
-0.00574375
0.0248261
0.0245708
0.0240876
0.0234058
0.022554
0.0215587
0.0204437
0.0192301
0.0179367
0.0165806
0.0151774
0.0137412
0.0122846
0.0108187
0.00935345
0.00789743
0.0064581
0.00504166
0.00365353
0.00229782
0.000978347
-0.000302698
-0.00154249
-0.00274091
-0.00389501
-0.00500815
-0.0060748
0.0231781
0.0229301
0.0224611
0.0217996
0.020974
0.0200105
0.0189325
0.0177609
0.0165141
0.0152089
0.0138603
0.012482
0.011086
0.00968295
0.00828228
0.00689203
0.00551919
0.00416954
0.00284807
0.00155856
0.000304455
-0.000912266
-0.00208909
-0.00322597
-0.0043203
-0.00537522
-0.00638579
0.0215859
0.0213455
0.020891
0.0202506
0.0194518
0.0185206
0.0174801
0.0163507
0.0151506
0.0138959
0.0126013
0.0112798
0.00994315
0.00860136
0.00726337
0.00593675
0.00462805
0.00334263
0.00208512
0.000858966
-0.000332683
-0.00148805
-0.00260492
-0.00368327
-0.00472083
-0.0057205
-0.0066779
0.0200511
0.0198184
0.0193789
0.0187599
0.0179884
0.0170899
0.016087
0.0149998
0.0138459
0.0126411
0.0113996
0.0101338
0.00885496
0.00757266
0.00629532
0.00503009
0.00378309
0.00255932
0.00136305
0.000197451
-0.000934622
-0.00203157
-0.00309141
-0.00411417
-0.00509787
-0.00604518
-0.00695224
0.0185753
0.0183505
0.0179261
0.0173286
0.0165846
0.0157188
0.0147534
0.013708
0.0125998
0.0114441
0.0102545
0.00904306
0.00782037
0.00659564
0.00537684
0.00417068
0.00298291
0.00181817
0.000680411
-0.000427436
-0.00150278
-0.00254418
-0.00354987
-0.00451992
-0.00545259
-0.00635033
-0.00720977
0.0171597
0.0169428
0.0165336
0.0159578
0.0152412
0.0144079
0.0134797
0.0124756
0.0114122
0.0103045
0.0091655
0.00800676
0.00683843
0.00566924
0.00450674
0.00335727
0.00222618
0.00111783
3.58661e-05
-0.00101701
-0.00203845
-0.00302713
-0.0039815
-0.00490163
-0.00578603
-0.00663693
-0.00745139
0.0158057
0.0155967
0.0152026
0.0146483
0.0139589
0.0131578
0.0122661
0.0113024
0.0102829
0.00922189
0.00813196
0.0070242
0.00590826
0.00479247
0.00368396
0.0025887
0.00151174
0.000457111
-0.00057179
-0.00157247
-0.00254278
-0.00348154
-0.00438735
-0.00526031
-0.00609913
-0.00690584
-0.0076779
0.0145145
0.0143133
0.0139342
0.0134011
0.0127384
0.0119688
0.0111129
0.0101886
0.00921172
0.00819594
0.0071534
0.00609471
0.00502909
0.00396444
0.00290753
0.00186397
0.000838512
-0.00016507
-0.00114363
-0.00209487
-0.00301682
-0.0039084
-0.00476839
-0.00559686
-0.00639274
-0.00715784
-0.00789
0.0132872
0.0130937
0.0127292
0.0122169
0.0115803
0.0108415
0.0100203
0.0091343
0.00819856
0.00722637
0.00622938
0.00521773
0.00420022
0.00318438
0.00217659
0.00118217
0.000205573
-0.000749666
-0.00168062
-0.00258516
-0.00346149
-0.00430861
-0.00512545
-0.00591209
-0.00666759
-0.00739362
-0.00808832
0.0121249
0.011939
0.0115887
0.0110966
0.0104853
0.00977628
0.00898873
0.00813954
0.00724336
0.00631297
0.00535954
0.00439278
0.00342108
0.00245161
0.00149041
0.000542514
-0.000387901
-0.00129751
-0.00218359
-0.00304417
-0.00387759
-0.00468295
-0.00545928
-0.00620667
-0.00692434
-0.00761377
-0.0082734
0.0110287
0.01085
0.0105135
0.0100409
0.00945408
0.0087737
0.0080184
0.0072045
0.00634613
0.00545559
0.00454361
0.00361947
0.00269119
0.00176557
0.000848367
-5.56685e-05
-0.000942603
-0.00180931
-0.00265326
-0.0034726
-0.00426581
-0.00503206
-0.00577051
-0.00648122
-0.00716354
-0.0078188
-0.00844571
0.00999953
0.00982781
0.00950452
0.00905066
0.00848725
0.00783426
0.00710972
0.0063294
0.00550694
0.00465419
0.00378142
0.00289753
0.00201017
0.00112583
0.000249966
-0.000612915
-0.0014591
-0.00228566
-0.00309021
-0.00387103
-0.00462673
-0.00535652
-0.00605967
-0.00673622
-0.00738566
-0.00800914
-0.00860563
0.00903859
0.00887351
0.00856281
0.00812674
0.00758555
0.00695855
0.00626314
0.00551456
0.00472599
0.00390881
0.00307291
0.0022268
0.00137779
0.000532071
-0.000305164
-0.00112964
-0.00193785
-0.00272702
-0.00349492
-0.00423995
-0.0049608
-0.00565677
-0.00632718
-0.00697209
-0.00759107
-0.00818514
-0.00875348
0.00814696
0.00798815
0.00768933
0.00727003
0.00674979
0.00614723
0.00547919
0.00476039
0.00400354
0.00321963
0.00241814
0.00160724
0.000793929
-1.58873e-05
-0.000817259
-0.00160612
-0.00237915
-0.00313372
-0.00386774
-0.00457969
-0.00526839
-0.00593315
-0.00657338
-0.00718913
-0.00778005
-0.00834705
-0.0088895
0.00732585
0.0071729
0.00688519
0.00648157
0.00598088
0.00540111
0.00475854
0.00406742
0.00334003
0.00258696
0.00181732
0.00103898
0.000258628
-0.000518075
-0.00128641
-0.00204249
-0.00278317
-0.00350595
-0.00420887
-0.0048905
-0.00554971
-0.00618588
-0.00679849
-0.00738755
-0.00795281
-0.00849506
-0.00901384
0.00657659
0.00642906
0.00615162
0.00576248
0.00527984
0.00472109
0.004102
0.00343635
0.00273603
0.00201125
0.00127082
0.000522289
-0.000227915
-0.000974365
-0.00171254
-0.00243873
-0.00314993
-0.00384378
-0.00451841
-0.00517245
-0.00580488
-0.00641509
-0.00700262
-0.00756747
-0.00810946
-0.00862928
-0.0091266
0.00590066
0.00575808
0.00549001
0.00511408
0.0046479
0.00410829
0.00351055
0.00286805
0.00219229
0.00149318
0.000779197
5.76309e-05
-0.000665323
-0.00138445
-0.00209541
-0.00279466
-0.00347931
-0.0041471
-0.00479627
-0.00542552
-0.00603387
-0.00662077
-0.00718578
-0.0077289
-0.00825002
-0.00874972
-0.00922781
0.00529974
0.00516161
0.00490196
0.00453789
0.00408646
0.00356402
0.0029854
0.00236359
0.00170979
0.00103359
0.000343202
-0.000354328
-0.00105302
-0.00174783
-0.0024346
-0.0031099
-0.00377098
-0.00441566
-0.00504225
-0.00564951
-0.00623654
-0.00680279
-0.00734786
-0.00787176
-0.00837441
-0.00885631
-0.0093174
0.00477578
0.00464156
0.00438931
0.00403566
0.00359721
0.00308983
0.00252798
0.00192433
0.00128976
0.000633596
-3.61595e-05
-0.000712687
-0.00139019
-0.00206379
-0.00272947
-0.0033839
-0.00402444
-0.004649
-0.00525595
-0.0058441
-0.00641259
-0.00696088
-0.00748865
-0.00799585
-0.00848246
-0.00894892
-0.00939525
0.004331
0.00420013
0.0039542
0.00360947
0.0031821
0.00268759
0.00214006
0.00155187
0.000933682
0.000294591
-0.000357612
-0.00101628
-0.00167578
-0.00233137
-0.00297913
-0.00361587
-0.00423899
-0.00484649
-0.0054368
-0.00600876
-0.00656155
-0.00709466
-0.00760777
-0.00810085
-0.0085739
-0.0090273
-0.00946115
0.00396801
0.00383988
0.00359915
0.00326174
0.00284347
0.00235952
0.00182371
0.0012482
0.000643412
1.82827e-05
-0.000619567
-0.00126364
-0.00190843
-0.00254931
-0.00318246
-0.00380476
-0.00441369
-0.00500728
-0.00558403
-0.0061428
-0.00668281
-0.00720355
-0.00770473
-0.00818632
-0.00864834
-0.00909112
-0.00951483
0.00368983
0.00356381
0.00332709
0.00299532
0.00258407
0.00210824
0.00158145
0.00101566
0.000421171
-0.000193242
-0.000820078
-0.00145295
-0.00208646
-0.00271607
-0.00333803
-0.00394926
-0.00454732
-0.00513027
-0.00569664
-0.00624532
-0.00677554
-0.00728683
-0.00777889
-0.00825169
-0.00870526
-0.00913992
-0.00955587
0.00350001
0.00337541
0.00314143
0.00281355
0.00240712
0.00193686
0.00141624
0.000857096
0.00026963
-0.000337464
-0.000956778
-0.00158201
-0.00220782
-0.00282973
-0.00344405
-0.00404774
-0.00463838
-0.00521408
-0.00577337
-0.00631517
-0.00683874
-0.00734358
-0.00782943
-0.00829625
-0.00874408
-0.00917321
-0.00958385
0.00340272
0.00327882
0.00304621
0.00272035
0.00231642
0.00184903
0.00133158
0.000775846
0.000191982
-0.000411361
-0.00102682
-0.00164813
-0.00226999
-0.00288796
-0.00349836
-0.00409818
-0.00468502
-0.005257
-0.00581267
-0.00635095
-0.0068711
-0.00737265
-0.00785532
-0.00831908
-0.00876398
-0.0091903
-0.0095983
0.121081
0.1219
0.123567
0.125921
0.128953
0.132599
0.136843
0.141661
0.147042
0.152984
0.159478
0.16654
0.174162
0.182366
0.191149
0.200544
0.210538
0.221175
0.232436
0.244376
0.256959
0.270255
0.284199
0.29889
0.314196
0.330291
0.346889
0.364367
0.382038
0.121084
0.121902
0.12357
0.125924
0.128956
0.132602
0.136846
0.141665
0.147046
0.152987
0.159481
0.166543
0.174165
0.182371
0.191153
0.200544
0.210535
0.22117
0.232427
0.244362
0.256938
0.270226
0.28416
0.298838
0.314129
0.330205
0.346781
0.364232
0.381868
0.121081
0.1219
0.123567
0.125921
0.128953
0.132599
0.136843
0.141662
0.147041
0.152983
0.159479
0.166537
0.174157
0.182359
0.191137
0.200525
0.21051
0.221137
0.232384
0.244307
0.256868
0.270139
0.284049
0.298701
0.313957
0.329994
0.34652
0.363914
0.381478
0.121073
0.121892
0.123559
0.125913
0.128945
0.13259
0.136834
0.141652
0.147029
0.152972
0.159464
0.16652
0.174136
0.182333
0.191105
0.200486
0.210461
0.221076
0.232308
0.244212
0.25675
0.269992
0.283867
0.298477
0.313682
0.329657
0.346107
0.363415
0.380868
0.12106
0.121879
0.123546
0.125899
0.128931
0.132576
0.136819
0.141635
0.147016
0.152951
0.15944
0.166493
0.174103
0.182294
0.191058
0.200428
0.21039
0.220988
0.232199
0.244078
0.256584
0.269788
0.283615
0.298168
0.313302
0.329196
0.345542
0.362735
0.380039
0.121042
0.121861
0.123527
0.12588
0.128911
0.132555
0.136797
0.141611
0.146989
0.152922
0.159407
0.166455
0.174059
0.182242
0.190995
0.200351
0.210296
0.220873
0.232057
0.243904
0.256369
0.269525
0.283292
0.297773
0.312819
0.328609
0.344827
0.361873
0.378991
0.121019
0.121837
0.123503
0.125856
0.128886
0.132529
0.136769
0.141578
0.146955
0.152885
0.159366
0.166407
0.174003
0.182175
0.190915
0.200255
0.210179
0.22073
0.231883
0.24369
0.256107
0.269204
0.282898
0.297293
0.312232
0.327897
0.343961
0.360832
0.377725
0.120991
0.121809
0.123474
0.125826
0.128855
0.132496
0.136735
0.141546
0.146915
0.15284
0.159315
0.166349
0.173936
0.182095
0.19082
0.20014
0.21004
0.220561
0.231675
0.243437
0.255796
0.268824
0.282434
0.296728
0.311542
0.327062
0.342945
0.359611
0.376243
0.120958
0.121775
0.12344
0.125791
0.128818
0.132458
0.136695
0.141505
0.146867
0.152788
0.159256
0.166281
0.173856
0.182002
0.190708
0.200006
0.209878
0.220364
0.231435
0.243144
0.255438
0.268387
0.281899
0.296077
0.310749
0.326103
0.341779
0.358211
0.374545
0.120919
0.121736
0.1234
0.12575
0.128776
0.132414
0.136648
0.141453
0.146812
0.152727
0.159187
0.166203
0.173765
0.181895
0.190581
0.199853
0.209693
0.22014
0.231162
0.242812
0.255032
0.267892
0.281294
0.295342
0.309853
0.32502
0.340465
0.356634
0.372633
0.120876
0.121692
0.123355
0.125704
0.128728
0.132364
0.136595
0.141396
0.14675
0.152658
0.15911
0.166114
0.173663
0.181774
0.190438
0.199682
0.209486
0.219889
0.230857
0.24244
0.254578
0.267339
0.280619
0.294523
0.308856
0.323815
0.339002
0.354881
0.37051
0.120827
0.121642
0.123305
0.125652
0.128675
0.132308
0.136536
0.141332
0.14668
0.152581
0.159024
0.166016
0.173548
0.18164
0.190279
0.199491
0.209256
0.219612
0.230519
0.242029
0.254076
0.266729
0.279875
0.29362
0.307757
0.322488
0.337393
0.352953
0.368175
0.120774
0.121588
0.123249
0.125595
0.128616
0.132246
0.136471
0.141262
0.146604
0.152497
0.158929
0.165907
0.173423
0.181493
0.190104
0.199282
0.209005
0.219307
0.230149
0.241579
0.253527
0.266062
0.279061
0.292633
0.306557
0.32104
0.335638
0.350851
0.365633
0.120715
0.121528
0.123188
0.125533
0.128551
0.132179
0.1364
0.141186
0.14652
0.152405
0.158825
0.165789
0.173286
0.181332
0.189913
0.199055
0.20873
0.218976
0.229747
0.24109
0.252931
0.265338
0.278179
0.291563
0.305256
0.319471
0.333737
0.348576
0.362883
0.120651
0.121464
0.123122
0.125465
0.128481
0.132106
0.136319
0.141102
0.14643
0.152304
0.158712
0.16566
0.173137
0.181158
0.189707
0.198808
0.208434
0.218618
0.229312
0.240563
0.252288
0.264557
0.277227
0.290411
0.303855
0.317783
0.331694
0.346132
0.35993
0.120583
0.121394
0.123051
0.125392
0.128406
0.132027
0.13623
0.141012
0.146332
0.152196
0.158591
0.165522
0.172977
0.180971
0.189485
0.198544
0.208116
0.218233
0.228845
0.239997
0.251599
0.263719
0.276207
0.289175
0.302355
0.315976
0.329507
0.343519
0.356776
0.120509
0.121319
0.122975
0.125314
0.128325
0.131943
0.136156
0.140915
0.146228
0.152081
0.158461
0.165374
0.172806
0.18077
0.189248
0.19826
0.207775
0.217822
0.228347
0.239392
0.250862
0.262825
0.275119
0.287859
0.300757
0.314051
0.32718
0.340738
0.353422
0.12043
0.12124
0.122893
0.12523
0.128238
0.131853
0.136057
0.140812
0.146116
0.151957
0.158323
0.165216
0.172623
0.180556
0.188996
0.197959
0.207413
0.217385
0.227817
0.238749
0.25008
0.261876
0.273964
0.28646
0.29906
0.31201
0.324712
0.337793
0.349872
0.120347
0.121155
0.122807
0.125142
0.128146
0.131757
0.135953
0.140703
0.145997
0.151826
0.158175
0.165048
0.17243
0.18033
0.188728
0.197639
0.207029
0.216922
0.227255
0.238067
0.249251
0.26087
0.272741
0.284982
0.297267
0.309853
0.322107
0.334685
0.34613
0.120258
0.121065
0.122715
0.125048
0.128049
0.131656
0.135845
0.140587
0.145872
0.151688
0.15802
0.164871
0.172225
0.18009
0.188445
0.197302
0.206624
0.216433
0.226662
0.237348
0.248376
0.25981
0.271451
0.283423
0.295377
0.307581
0.319365
0.331417
0.342197
0.120164
0.12097
0.122619
0.124949
0.127947
0.131549
0.135732
0.140466
0.14574
0.151541
0.157856
0.164684
0.172009
0.179838
0.188146
0.196946
0.206196
0.215917
0.226038
0.236592
0.247456
0.258694
0.270095
0.281784
0.293392
0.305196
0.316488
0.32799
0.338077
0.120066
0.120871
0.122517
0.124845
0.127839
0.131436
0.135613
0.140338
0.145601
0.151388
0.157684
0.164488
0.171783
0.179573
0.187833
0.196572
0.205748
0.215376
0.225382
0.235797
0.246491
0.257524
0.268673
0.280067
0.291312
0.302699
0.313478
0.324408
0.333774
0.119962
0.120766
0.12241
0.124735
0.127726
0.131316
0.135487
0.140204
0.145455
0.151227
0.157503
0.164282
0.171545
0.179295
0.187505
0.196181
0.205278
0.21481
0.224696
0.234966
0.24548
0.256299
0.267186
0.278271
0.289138
0.300091
0.310336
0.320672