/*--------------------------------*- C++ -*----------------------------------*\
  =========                 |
  \\      /  F ield         | OpenFOAM: The Open Source CFD Toolbox
   \\    /   O peration     | Website:  https://openfoam.org
    \\  /    A nd           | Version:  7
     \\/     M anipulation  |
\*---------------------------------------------------------------------------*/
FoamFile
{
    version     2.0;
    format      ascii;
    class       volScalarField;
    location    "200";
    object      p;
}
// * * * * * * * * * * * * * * * * * * * * * * * * * * * * * * * * * * * * * //

dimensions      [0 2 -2 0 0 0 0];

internalField   nonuniform List<scalar> 
4575
(
-0.143107
-0.119805
-0.0983149
-0.0831898
-0.0746438
-0.071574
-0.0748583
-0.0852152
-0.0989289
-0.108238
-0.106875
-0.0955755
-0.0808854
-0.068311
-0.0597855
-0.0552304
-0.0555676
-0.0601189
-0.0650269
-0.0657383
-0.061419
-0.0545107
-0.0484866
-0.0439603
-0.140278
-0.117771
-0.0970208
-0.0825662
-0.0746053
-0.072078
-0.0759497
-0.0869319
-0.101194
-0.110819
-0.109428
-0.0977668
-0.0824979
-0.0692867
-0.0601732
-0.0550627
-0.0548301
-0.058823
-0.0632977
-0.0638296
-0.0596428
-0.0531068
-0.0475459
-0.0435156
-0.13741
-0.115697
-0.0956847
-0.0819006
-0.0745261
-0.0725437
-0.077003
-0.0886095
-0.103423
-0.113369
-0.111961
-0.0999449
-0.0840971
-0.0702457
-0.0605435
-0.0548817
-0.0540865
-0.0575301
-0.0615798
-0.0619358
-0.0578781
-0.051705
-0.0465989
-0.0430618
-0.134505
-0.113582
-0.0943065
-0.0811918
-0.0744043
-0.0729681
-0.0780146
-0.0902436
-0.105609
-0.115886
-0.114473
-0.102108
-0.0856822
-0.0711885
-0.0608974
-0.0546887
-0.0533388
-0.0562424
-0.0598755
-0.060059
-0.0561263
-0.050306
-0.0456455
-0.0425986
-0.131566
-0.111429
-0.0928862
-0.0804388
-0.0742379
-0.0733486
-0.0789807
-0.0918298
-0.107749
-0.118365
-0.116958
-0.104254
-0.0872528
-0.0721154
-0.061236
-0.0544854
-0.0525889
-0.0549622
-0.0581872
-0.058201
-0.0543884
-0.0489102
-0.044686
-0.0421255
-0.128596
-0.109238
-0.091424
-0.0796406
-0.0740253
-0.0736826
-0.0798978
-0.0933638
-0.109838
-0.120803
-0.119416
-0.106382
-0.0888084
-0.073027
-0.0615604
-0.0542732
-0.0518387
-0.0536917
-0.056517
-0.0563637
-0.0526657
-0.0475184
-0.0437204
-0.0416423
-0.125598
-0.107012
-0.08992
-0.0787963
-0.0737648
-0.0739676
-0.0807623
-0.0948413
-0.111872
-0.123194
-0.121841
-0.10849
-0.0903486
-0.0739238
-0.0618715
-0.0540534
-0.05109
-0.052433
-0.0548671
-0.0545488
-0.0509593
-0.0461312
-0.0427489
-0.0411485
-0.122574
-0.104752
-0.088375
-0.0779056
-0.0734549
-0.0742011
-0.0815708
-0.0962583
-0.113846
-0.125535
-0.124232
-0.110575
-0.0918729
-0.0748064
-0.0621704
-0.0538276
-0.0503444
-0.0511879
-0.0532394
-0.0527579
-0.0492705
-0.0447493
-0.0417718
-0.0406439
-0.119528
-0.10246
-0.0867894
-0.0769677
-0.0730942
-0.0743809
-0.0823201
-0.0976107
-0.115757
-0.127823
-0.126585
-0.112636
-0.0933808
-0.0756753
-0.0624583
-0.0535969
-0.0496037
-0.0499584
-0.0516358
-0.0509927
-0.0476003
-0.0433732
-0.0407891
-0.0401281
-0.116463
-0.100137
-0.0851641
-0.0759826
-0.0726817
-0.0745049
-0.083007
-0.0988949
-0.117599
-0.130054
-0.128898
-0.114672
-0.0948721
-0.0765312
-0.0627361
-0.0533628
-0.0488692
-0.048746
-0.0500579
-0.0492547
-0.0459498
-0.0420039
-0.0398012
-0.0396008
-0.0977865
-0.0835002
-0.0749501
-0.0722163
-0.0745711
-0.0836288
-0.100107
-0.11937
-0.132223
-0.131167
-0.11668
-0.0963462
-0.0773747
-0.0630049
-0.0531266
-0.0481425
-0.0475524
-0.0485075
-0.0475453
-0.0443201
-0.0406419
-0.0388084
-0.0390618
-0.0954101
-0.0817988
-0.0738703
-0.0716972
-0.0745777
-0.0841825
-0.101244
-0.121065
-0.134328
-0.133389
-0.11866
-0.0978029
-0.0782063
-0.0632659
-0.0528893
-0.0474249
-0.0463789
-0.0469859
-0.0458659
-0.0427123
-0.039288
-0.037811
-0.0385108
-0.0930101
-0.0800612
-0.0727435
-0.0711236
-0.074523
-0.0846656
-0.102302
-0.122682
-0.136365
-0.135563
-0.120609
-0.0992417
-0.0790267
-0.06352
-0.0526523
-0.0467175
-0.0452269
-0.0454945
-0.0442178
-0.0411274
-0.0379429
-0.0368092
-0.0379474
-0.0905889
-0.078289
-0.0715703
-0.0704953
-0.0744058
-0.0850758
-0.103279
-0.124217
-0.138332
-0.137685
-0.122525
-0.100662
-0.0798366
-0.0637683
-0.0524165
-0.0460215
-0.0440976
-0.0440345
-0.0426022
-0.0395664
-0.0366075
-0.0358035
-0.0373716
-0.0881493
-0.076484
-0.0703512
-0.0698118
-0.0742246
-0.085411
-0.104171
-0.125666
-0.140224
-0.139752
-0.124408
-0.102064
-0.0806365
-0.0640118
-0.0521832
-0.045338
-0.0429919
-0.0426071
-0.0410202
-0.0380304
-0.0352825
-0.0347942
-0.0367831
-0.0856937
-0.074648
-0.0690872
-0.0690731
-0.0739785
-0.0856692
-0.104977
-0.127027
-0.142039
-0.141763
-0.126256
-0.103447
-0.081427
-0.0642515
-0.0519533
-0.044668
-0.0419108
-0.0412131
-0.0394729
-0.0365202
-0.0339688
-0.0337818
-0.0361818
-0.083225
-0.072783
-0.0677794
-0.0682793
-0.0736667
-0.0858487
-0.105693
-0.128298
-0.143775
-0.143714
-0.128066
-0.10481
-0.0822088
-0.0644885
-0.0517279
-0.0440122
-0.0408551
-0.0398533
-0.0379611
-0.0350369
-0.032667
-0.0327667
-0.0355674
-0.0807459
-0.0708912
-0.066429
-0.0674307
-0.0732885
-0.0859481
-0.106318
-0.129476
-0.145429
-0.145604
-0.129839
-0.106153
-0.0829822
-0.0647236
-0.0515078
-0.0433716
-0.0398254
-0.0385285
-0.0364858
-0.0335813
-0.0313781
-0.0317493
-0.03494
-0.0782595
-0.0689751
-0.0650375
-0.066528
-0.0728437
-0.0859661
-0.106849
-0.130558
-0.146998
-0.14743
-0.131571
-0.107476
-0.0837479
-0.0649579
-0.0512941
-0.0427467
-0.0388223
-0.0372393
-0.0350477
-0.0321543
-0.0301029
-0.0307303
-0.0342995
-0.0757686
-0.0670371
-0.0636067
-0.0655718
-0.0723319
-0.0859019
-0.107286
-0.131543
-0.148481
-0.14919
-0.133261
-0.108778
-0.0845063
-0.0651922
-0.0510874
-0.0421383
-0.0378462
-0.0359859
-0.0336474
-0.0307567
-0.0288422
-0.02971
-0.0336457
-0.0732764
-0.0650798
-0.0621383
-0.0645631
-0.0717534
-0.0857546
-0.107627
-0.13243
-0.149875
-0.150883
-0.134909
-0.110058
-0.0852579
-0.0654274
-0.0508887
-0.0415468
-0.0368975
-0.0347688
-0.0322855
-0.0293894
-0.0275968
-0.0286892
-0.0329788
-0.0707859
-0.063106
-0.0606344
-0.063503
-0.0711085
-0.0855238
-0.10787
-0.133216
-0.15118
-0.152506
-0.136513
-0.111317
-0.0860029
-0.0656644
-0.0506986
-0.0409728
-0.0359763
-0.0335881
-0.0309625
-0.0280531
-0.0263676
-0.0276683
-0.0322988
-0.0683003
-0.0611186
-0.0590972
-0.0623929
-0.0703976
-0.0852094
-0.108015
-0.133901
-0.152392
-0.154059
-0.13807
-0.112553
-0.0867418
-0.0659039
-0.0505181
-0.0404167
-0.0350827
-0.0324439
-0.0296788
-0.0267473
-0.0251554
-0.026648
-0.0316057
-0.0658227
-0.0591206
-0.0575291
-0.0612343
-0.0696215
-0.0848112
-0.108062
-0.134483
-0.153511
-0.155558
-0.13958
-0.113766
-0.0874749
-0.0661468
-0.0503476
-0.0398789
-0.0342168
-0.0313362
-0.0284346
-0.0254739
-0.0239611
-0.0256289
-0.0308998
-0.0633565
-0.0571148
-0.0559327
-0.060029
-0.0687812
-0.0843297
-0.10801
-0.134963
-0.154536
-0.156973
-0.141042
-0.114955
-0.0882022
-0.0663939
-0.0501879
-0.0393598
-0.0333786
-0.0302647
-0.0272301
-0.0242837
-0.0227853
-0.0246117
-0.0301812
-0.0609049
-0.0551046
-0.0543105
-0.0587789
-0.067878
-0.0837652
-0.107859
-0.135339
-0.155466
-0.158291
-0.142453
-0.11612
-0.0889241
-0.0666457
-0.0500397
-0.0388595
-0.0325678
-0.0292292
-0.0260651
-0.0230722
-0.021629
-0.0235971
-0.02945
-0.058471
-0.0530929
-0.0526655
-0.0574862
-0.0669132
-0.0831185
-0.107609
-0.135612
-0.1563
-0.159527
-0.143813
-0.117259
-0.0896405
-0.066903
-0.0499034
-0.0383784
-0.0317843
-0.0282293
-0.0249396
-0.0218923
-0.0204929
-0.0225857
-0.0287067
-0.0560583
-0.0510831
-0.0510006
-0.0561531
-0.0658885
-0.0823907
-0.10726
-0.135781
-0.157037
-0.160684
-0.145119
-0.118373
-0.0903516
-0.0671663
-0.0497797
-0.0379167
-0.0310278
-0.0272646
-0.0238536
-0.0207482
-0.0193779
-0.0215783
-0.0279514
-0.05367
-0.0490784
-0.0493189
-0.054782
-0.0648057
-0.081583
-0.106814
-0.135847
-0.157678
-0.161761
-0.146372
-0.11946
-0.0910573
-0.0674363
-0.049669
-0.0374746
-0.030298
-0.0263346
-0.0228067
-0.0196403
-0.0182849
-0.0205757
-0.0271846
-0.0513097
-0.0470819
-0.0476234
-0.0533756
-0.0636669
-0.0806967
-0.10627
-0.13581
-0.158222
-0.162758
-0.147569
-0.120519
-0.0917575
-0.0677133
-0.0495719
-0.0370522
-0.0295944
-0.0254386
-0.0217987
-0.01857
-0.0172148
-0.0195786
-0.0264066
-0.0489808
-0.0450971
-0.0459174
-0.0519366
-0.0624743
-0.0797335
-0.10563
-0.135671
-0.15867
-0.163674
-0.148709
-0.12155
-0.0924519
-0.0679977
-0.0494887
-0.0366496
-0.0289167
-0.024576
-0.0208292
-0.017537
-0.0161681
-0.0185879
-0.025618
-0.0466871
-0.0431273
-0.0442043
-0.0504679
-0.0612303
-0.0786953
-0.104896
-0.135431
-0.159021
-0.164507
-0.14979
-0.122551
-0.0931404
-0.0682901
-0.04942
-0.0362671
-0.0282645
-0.0237459
-0.0198979
-0.0165401
-0.0151458
-0.0176044
-0.0248191
-0.0444324
-0.0411758
-0.0424874
-0.0489726
-0.0599376
-0.0775841
-0.104067
-0.135091
-0.159278
-0.165255
-0.150811
-0.123522
-0.0938231
-0.0685914
-0.0493668
-0.0359051
-0.0276376
-0.0229478
-0.0190043
-0.0155794
-0.0141486
-0.0166291
-0.0240107
-0.0422218
-0.0392467
-0.0407703
-0.0474539
-0.0585989
-0.0764022
-0.103147
-0.134652
-0.159439
-0.165917
-0.151769
-0.124463
-0.0945007
-0.0689023
-0.0493296
-0.0355637
-0.0270355
-0.0221806
-0.0181477
-0.0146555
-0.0131777
-0.0156629
-0.0231933
-0.0400588
-0.0373434
-0.0390567
-0.045915
-0.0572173
-0.0751522
-0.102137
-0.134115
-0.159506
-0.166496
-0.152667
-0.125373
-0.0951698
-0.069219
-0.049305
-0.0352402
-0.0264555
-0.0214412
-0.0173254
-0.0137667
-0.0122328
-0.0147065
-0.0223676
-0.0379407
-0.0354666
-0.0373487
-0.0443585
-0.0557952
-0.0738365
-0.101039
-0.133484
-0.159485
-0.167002
-0.153507
-0.126244
-0.0958202
-0.0695322
-0.0492867
-0.0349305
-0.0258949
-0.0207267
-0.0165338
-0.0129094
-0.0113122
-0.0137593
-0.0215335
-0.0358792
-0.0336199
-0.0356488
-0.0427868
-0.0543351
-0.0724578
-0.0998561
-0.132762
-0.159375
-0.167419
-0.154267
-0.127066
-0.0964548
-0.0698549
-0.0492896
-0.034648
-0.0253649
-0.0200476
-0.0157836
-0.0120928
-0.0104226
-0.0128254
-0.020693
-0.0339533
-0.0318486
-0.0339825
-0.0412196
-0.0528508
-0.0710189
-0.0985776
-0.131914
-0.159101
-0.167637
-0.154884
-0.127858
-0.0971443
-0.0702679
-0.0493812
-0.0344397
-0.0248985
-0.019436
-0.0151141
-0.0113595
-0.00959967
-0.0119286
-0.0198577
-0.0322122
-0.0302149
-0.0324
-0.0396958
-0.0513723
-0.0695275
-0.0971726
-0.130866
-0.158579
-0.167635
-0.155432
-0.128728
-0.0979678
-0.0708061
-0.0495644
-0.0342888
-0.0244668
-0.0188573
-0.0144946
-0.0106931
-0.00884044
-0.0110729
-0.0190303
-0.0299839
-0.0283611
-0.0307128
-0.0380519
-0.0497688
-0.0679904
-0.0958481
-0.130108
-0.158649
-0.168397
-0.156487
-0.129677
-0.0985666
-0.0709908
-0.0493969
-0.033851
-0.0237967
-0.0180223
-0.0135705
-0.00970038
-0.00779663
-0.0100047
-0.0180733
-0.0216408
-0.0249387
-0.0324024
-0.0442952
-0.0638361
-0.0945089
-0.132466
-0.163944
-0.174668
-0.161098
-0.131957
-0.099032
-0.0702288
-0.0479907
-0.032167
-0.021803
-0.0155331
-0.0105145
-0.00610945
-0.00398534
-0.00631434
-0.0150594
-0.0162739
-0.0199998
-0.0278857
-0.0403804
-0.0607604
-0.0923985
-0.131212
-0.163161
-0.17399
-0.160303
-0.130881
-0.0974755
-0.068352
-0.0459358
-0.0299689
-0.0194234
-0.0130316
-0.00804408
-0.00368584
-0.00165254
-0.00382151
-0.0129536
-0.0114046
-0.0156866
-0.0241132
-0.0372192
-0.0580378
-0.089655
-0.128323
-0.160767
-0.172526
-0.15903
-0.129282
-0.095583
-0.0662681
-0.0437523
-0.0277319
-0.0170992
-0.0106435
-0.00569743
-0.00136163
0.00066635
-0.00166171
-0.0111979
-0.00658613
-0.0112847
-0.0200412
-0.0334929
-0.0545216
-0.086103
-0.12508
-0.158466
-0.170743
-0.156953
-0.126867
-0.0930704
-0.0638187
-0.0413968
-0.0254481
-0.0148109
-0.00833871
-0.00342261
0.000929218
0.00302562
0.000660235
-0.0092176
-0.00210136
-0.00697604
-0.0157863
-0.0293041
-0.0503804
-0.0820625
-0.121547
-0.155435
-0.167673
-0.153704
-0.123536
-0.0899505
-0.0610246
-0.0388818
-0.0231257
-0.0125642
-0.00612863
-0.00128779
0.00304212
0.00525675
0.00297579
-0.00713941
0.00192677
-0.00294904
-0.0116294
-0.0250281
-0.0459871
-0.0775987
-0.117127
-0.150995
-0.163211
-0.149244
-0.119287
-0.0862213
-0.0578868
-0.0362163
-0.0207757
-0.0103687
-0.00402043
0.000697375
0.0049794
0.00730769
0.00514734
-0.0051229
0.00550869
0.000747099
-0.00768975
-0.0208321
-0.0414299
-0.0725014
-0.111488
-0.145103
-0.157343
-0.143548
-0.114118
-0.0818957
-0.0544195
-0.0334143
-0.0184107
-0.00823384
-0.00201709
0.0025402
0.00674964
0.00917007
0.00714195
-0.00321104
0.00869119
0.00412969
-0.00397224
-0.0167108
-0.0366264
-0.0666559
-0.104678
-0.137817
-0.150028
-0.136609
-0.108055
-0.0770043
-0.0506449
-0.0304919
-0.0160432
-0.00616856
-0.000121595
0.00424442
0.0083518
0.0108428
0.00895912
-0.00139819
0.0115282
0.007235
-0.000449942
-0.0126266
-0.0315471
-0.0601336
-0.096795
-0.129135
-0.141263
-0.128466
-0.101151
-0.071596
-0.046595
-0.0274679
-0.013686
-0.00418163
0.00166164
0.00581194
0.00978661
0.0123238
0.010594
0.000314366
0.0140692
0.0101003
0.00289771
-0.00858245
-0.0262525
-0.0530308
-0.0878753
-0.119087
-0.131114
-0.119205
-0.0934915
-0.0657376
-0.0423108
-0.0243637
-0.0113518
-0.0022812
0.00332753
0.00724417
0.0110557
0.0136086
0.0120338
0.00190902
0.0163591
0.0127572
0.00607952
-0.00460574
-0.0208029
-0.0453937
-0.0779777
-0.107787
-0.11972
-0.108961
-0.0851917
-0.0595136
-0.0378428
-0.0212036
-0.00905233
-0.000474095
0.00487117
0.00854178
0.01216
0.0146912
0.0132618
0.00336182
0.0184335
0.0152284
0.00910357
-0.000704776
-0.0152168
-0.0372708
-0.0672413
-0.0954385
-0.107289
-0.0979194
-0.076395
-0.0530231
-0.0332493
-0.0180141
-0.00679868
0.00123469
0.00628867
0.0097049
0.0131004
0.0155649
0.0142615
0.00465052
0.0203162
0.0175302
0.0119889
0.00314408
-0.00949618
-0.0287563
-0.0558764
-0.0823186
-0.0941026
-0.08631
-0.0672686
-0.0463763
-0.0285942
-0.0148238
-0.00460065
0.00284244
0.00757821
0.0107341
0.0138788
0.0162241
0.0150177
0.0057555
0.0220257
0.0196831
0.0147701
0.00698563
-0.00364727
-0.0199835
-0.0441541
-0.0687773
-0.0804937
-0.0743975
-0.0579955
-0.0396891
-0.0239448
-0.0116631
-0.00246691
0.004349
0.00874105
0.0116316
0.0144994
0.0166659
0.0155175
0.00665825
0.0235798
0.0217178
0.0175008
0.0108836
0.00232376
-0.0111141
-0.0324056
-0.0552176
-0.0668259
-0.0624636
-0.0487652
-0.0330778
-0.0193681
-0.00856287
-0.000404979
0.00575681
0.00978229
0.012403
0.0149707
0.0168926
0.0157523
0.00734259
0.0249931
0.0236688
0.0202504
0.014921
0.00840945
-0.00234761
-0.0210108
-0.04206
-0.0534704
-0.0507916
-0.0397631
-0.0266526
-0.0149274
-0.00555378
0.00157856
0.0070706
0.010711
0.0130581
0.0153075
0.0169155
0.0157208
0.0077988
0.0262762
0.0255569
0.0230774
0.0191646
0.0145663
0.00606328
-0.0103658
-0.029701
-0.0407733
-0.0396449
-0.0311598
-0.0205123
-0.0106795
-0.00266471
0.0034779
0.00829701
0.0115401
0.0136117
0.0155321
0.0167588
0.015435
0.00802904
0.0274294
0.0273675
0.0259707
0.0235718
0.0206337
0.0138062
-0.000824164
-0.0184514
-0.0290155
-0.0292481
-0.0231015
-0.0147398
-0.00667128
7.84948e-05
0.00528775
0.00944408
0.0122854
0.014083
0.0156737
0.0164624
0.0149271
0.00805404
0.0284462
0.0290422
0.0287945
0.0278907
0.0262647
0.0205401
0.00738207
-0.00848648
-0.0183957
-0.0197771
-0.0157036
-0.00939884
-0.00293854
0.00265438
0.00700301
0.0105205
0.0129645
0.014495
0.0157679
0.0160843
0.0142561
0.00792084
0.0293147
0.0305032
0.0313143
0.0316976
0.031002
0.0259889
0.0141841
0.000133237
-0.00905114
-0.0113541
-0.00904649
-0.00453305
0.000494859
0.00504683
0.00861859
0.0115348
0.0135952
0.0148722
0.0158538
0.0156993
0.0135128
0.00771059
0.0300111
0.0316768
0.033306
0.0346067
0.0344983
0.030047
0.0196356
0.00740079
-0.00106492
-0.0040432
-0.00317226
-0.00016533
0.00361656
0.00724565
0.0101295
0.012494
0.0141935
0.0152379
0.0159691
0.015392
0.0128188
0.00754222
0.0305088
0.0325057
0.034642
0.0364569
0.0366826
0.0327944
0.0238338
0.0133308
0.00560131
0.00215255
0.00191529
0.0037007
0.00642436
0.00924654
0.0115311
0.0134033
0.0147718
0.0156111
0.0161441
0.0152427
0.0123029
0.00756393
0.0307904
0.0329735
0.0353336
0.037337
0.037728
0.0344226
0.0268875
0.0179713
0.0109928
0.00728509
0.0062466
0.007078
0.00892426
0.0110506
0.0128199
0.0142652
0.015338
0.0160038
0.016396
0.015313
0.01215
0.00792913
0.0308517
0.0330995
0.035479
0.0374593
0.0379073
0.0351624
0.0289361
0.0214356
0.0152177
0.0114495
0.00987751
0.00999187
0.0111282
0.0126635
0.0139942
0.0150796
0.015896
0.0164215
0.0167265
0.0156231
0.0124333
0.00875388
0.0307042
0.0329264
0.0352022
0.0370445
0.0374862
0.0352425
0.0301606
0.0239015
0.0184283
0.0147616
0.0128774
0.0124759
0.0130521
0.0140937
0.0150547
0.0158445
0.0164456
0.0168625
0.0171262
0.0161492
0.0131701
0.0100791
0.0303715
0.0325087
0.0346187
0.0362745
0.0366809
0.0348671
0.0307531
0.0255632
0.0208024
0.0173503
0.0153222
0.0145678
0.0147144
0.0153519
0.0160044
0.0165569
0.0169832
0.0173182
0.0175758
0.0168335
0.0142867
0.0118404
0.0298838
0.0319022
0.0338245
0.0352857
0.0356503
0.0341974
0.0308841
0.0266028
0.0225082
0.0193387
0.0172865
0.0163074
0.0161348
0.0164495
0.0168483
0.0172132
0.0175028
0.0177776
0.018047
0.0175921
0.0156358
0.0138718
0.0292736
0.0311583
0.0328938
0.0341744
0.0345027
0.033349
0.0306921
0.0271789
0.0236868
0.0208309
0.018839
0.017734
0.017334
0.0173979
0.0175921
0.0178105
0.0179972
0.0182292
0.0185135
0.0183367
0.0170357
0.0159412
0.0285722
0.0303205
0.0318825
0.0330059
0.0333085
0.032403
0.0302815
0.02741
0.0244551
0.021921
0.0200429
0.0188856
0.0183327
0.0182081
0.0182419
0.018347
0.0184583
0.0186598
0.0189555
0.01901
0.018316
0.017807
0.027808
0.0294241
0.0308317
0.0318243
0.032112
0.0314129
0.0297272
0.027389
0.0249068
0.0226868
0.0209541
0.019798
0.0191514
0.0188913
0.0188031
0.0188218
0.0188785
0.0190571
0.0193567
0.0195806
0.0193699
0.0193019
0.027005
0.0284977
0.0297712
0.030658
0.0309406
0.0304136
0.0290833
0.0271888
0.0251155
0.0231903
0.0216205
0.0205041
0.0198099
0.0194581
0.0192808
0.0192346
0.0192515
0.019411
0.0197039
0.0200306
0.0201499
0.0203679
0.0261834
0.0275633
0.0287223
0.0295253
0.0298105
0.029428
0.0283876
0.026861
0.0251398
0.0234861
0.0220847
0.0210337
0.0203271
0.0199188
0.01968
0.0195864
0.0195732
0.0197144
0.0199902
0.020366
0.0206492
0.0210391
0.0253596
0.0266378
0.0277001
0.0284374
0.0287306
0.02847
0.0276673
0.0264455
0.0250264
0.0236187
0.0223833
0.0214135
0.0207205
0.0202836
0.0200058
0.0198786
0.0198418
0.0199637
0.0202146
0.0205996
0.0209556
0.0214023
0.0245466
0.0257339
0.0267146
0.0274011
0.027706
0.0275482
0.0269408
0.0259723
0.0248119
0.0236241
0.0225471
0.0216673
0.0210063
0.0205622
0.0202634
0.0201136
0.0200576
0.0201587
0.0203797
0.0207443
0.0211135
0.0215472
0.023754
0.0248605
0.0257725
0.0264198
0.0267383
0.0266675
0.0262213
0.0254633
0.0245241
0.0235311
0.0226022
0.0218158
0.0211994
0.020764
0.020458
0.0202942
0.0202227
0.0203017
0.0204893
0.0208155
0.0211605
0.0215439
0.0229892
0.0240241
0.0248782
0.0254949
0.0258275
0.0258307
0.0255181
0.0249354
0.0241842
0.0233626
0.0225702
0.021877
0.0213131
0.0208979
0.0205952
0.0204241
0.0203405
0.0203966
0.0205485
0.0208279
0.0211277
0.0214436
0.021724
0.0222577
0.0232289
0.0240336
0.0246262
0.0249726
0.0250386
0.0248368
0.0244003
0.0238095
0.0231375
0.0224694
0.0218666
0.0213594
0.0209723
0.0206807
0.0205076
0.0204147
0.0204481
0.0205639
0.0207933
0.0210377
0.0212818
0.0214724
0.021563
0.0224772
0.0232396
0.0238127
0.0241719
0.0242911
0.0241813
0.0238672
0.0234128
0.0228706
0.0223149
0.021798
0.021349
0.0209949
0.0207201
0.0205491
0.0204494
0.0204612
0.0205415
0.0207056
0.0209074
0.0210828
0.0211962
0.0209063
0.0217702
0.0224957
0.0230529
0.0234236
0.0235874
0.0235543
0.023342
0.0229984
0.0225736
0.0221192
0.0216827
0.0212915
0.0209733
0.0207189
0.0205533
0.0204491
0.0204412
0.0204897
0.0206073
0.0207521
0.0208633
0.020911
0.0202892
0.0211081
0.0218013
0.0223447
0.0227251
0.0229264
0.0229573
0.0228306
0.0225836
0.0222574
0.0218931
0.0215307
0.0211952
0.020914
0.0206824
0.0205247
0.0204183
0.0203928
0.020413
0.0204881
0.0205806
0.0206345
0.0206266
0.0197117
0.0204904
0.0211549
0.0216861
0.0220743
0.0223067
0.022391
0.0223364
0.0221721
0.0219302
0.0216451
0.0213502
0.0210678
0.0208234
0.0206158
0.0204678
0.0203612
0.0203208
0.0203162
0.0203529
0.0203993
0.0204034
0.0203491
0.0191779
0.0199163
0.0205546
0.0210747
0.0214689
0.0217271
0.0218557
0.0218615
0.0217673
0.0215981
0.0213826
0.0211486
0.0209156
0.020707
0.0205238
0.0203868
0.0202817
0.0202291
0.0202033
0.0202065
0.0202127
0.0201746
0.020082
0.0186795
0.0193836
0.0199982
0.020508
0.0209065
0.0211858
0.0213511
0.0214075
0.0213725
0.0212659
0.0211113
0.0209318
0.0207444
0.02057
0.0204108
0.0202858
0.0201838
0.0201214
0.0200778
0.0200524
0.0200245
0.0199511
0.019827
0.01822
0.0188925
0.0194842
0.0199837
0.0203849
0.0206813
0.0208768
0.0209744
0.0209902
0.0209375
0.0208361
0.0207052
0.0205593
0.0204169
0.0202811
0.0201686
0.0200708
0.0200012
0.0199429
0.0198936
0.019837
0.0197347
0.0195849
0.0177976
0.0184406
0.019011
0.0194999
0.019902
0.0202121
0.0204324
0.0205653
0.020623
0.0206162
0.020561
0.020473
0.0203647
0.020252
0.0201385
0.0200386
0.019946
0.0198714
0.0198015
0.0197327
0.0196523
0.0195266
0.0193562
0.0174103
0.0180262
0.0185776
0.0190552
0.019456
0.0197769
0.0200175
0.0201794
0.0202723
0.0203047
0.0202893
0.0202391
0.0201645
0.020079
0.0199865
0.0198991
0.0198125
0.0197349
0.019656
0.0195714
0.0194718
0.0193273
0.0191405
0.0170566
0.0176471
0.0181801
0.0186484
0.0190492
0.0193756
0.0196315
0.0198172
0.0199395
0.020005
0.020024
0.0200067
0.019962
0.0199014
0.0198284
0.0197532
0.019673
0.019594
0.0195085
0.0194117
0.0192966
0.0191374
0.0189377
0.016735
0.0173017
0.0178173
0.0182753
0.0186729
0.0190051
0.0192737
0.0194787
0.0196255
0.019719
0.0197673
0.0197787
0.0197605
0.0197221
0.019667
0.0196036
0.0195301
0.0194512
0.0193612
0.0192549
0.0191277
0.0189572
0.0187475
0.016444
0.0169884
0.0174874
0.0179353
0.0183291
0.0186649
0.0189433
0.019164
0.0193311
0.0194481
0.0195214
0.0195575
0.0195625
0.0195441
0.0195053
0.0194531
0.0193864
0.0193086
0.0192157
0.0191025
0.018966
0.018787
0.0185697
0.0161821
0.0167057
0.0171891
0.017627
0.0180166
0.0183542
0.01864
0.0188733
0.0190569
0.0191935
0.019288
0.0193454
0.0193706
0.0193698
0.0193458
0.019304
0.0192441
0.0191682
0.0190737
0.0189558
0.0188123
0.0186272
0.0184043
0.0159478
0.0164523
0.016921
0.0173491
0.017734
0.0180722
0.0183634
0.0186065
0.0188037
0.0189565
0.0190688
0.0191443
0.019187
0.0192017
0.0191909
0.0191587
0.0191053
0.019032
0.0189371
0.018816
0.0186675
0.018478
0.0182511
0.0157398
0.0162267
0.0166817
0.0171005
0.0174803
0.0178181
0.0181131
0.0183639
0.018572
0.0187381
0.0188653
0.0189561
0.0190138
0.0190419
0.0190428
0.0190194
0.0189722
0.0189017
0.0188073
0.0186843
0.0185324
0.01834
0.0181104
0.0155571
0.0160278
0.0164702
0.0168801
0.0172549
0.0175915
0.0178889
0.0181456
0.0183623
0.0185393
0.0186787
0.0187824
0.0188528
0.0188926
0.0189036
0.0188881
0.0188466
0.0187793
0.0186858
0.018562
0.0184079
0.0182137
0.0179824
0.0153983
0.0158547
0.0162856
0.0166872
0.017057
0.017392
0.0176908
0.0179518
0.0181753
0.0183611
0.0185106
0.0186249
0.0187059
0.0187556
0.0187754
0.0187668
0.0187306
0.0186664
0.0185743
0.0184503
0.018295
0.0180998
0.0178676
0.0152629
0.0157064
0.0161271
0.0165213
0.0168863
0.0172194
0.0175189
0.0177831
0.0180118
0.0182045
0.018362
0.018485
0.0185749
0.0186328
0.0186601
0.0186575
0.018626
0.0185648
0.0184742
0.0183506
0.0181947
0.0179992
0.0177665
0.0151499
0.0155825
0.0159944
0.016382
0.0167427
0.0170737
0.0173734
0.0176398
0.0178725
0.0180705
0.0182345
0.0183644
0.0184614
0.018526
0.0185595
0.018562
0.0185345
0.018476
0.0183869
0.018264
0.018108
0.0179125
0.0176798
0.0150591
0.0154827
0.0158872
0.0162692
0.0166262
0.0169554
0.0172549
0.0175228
0.0177583
0.0179604
0.0181293
0.0182646
0.0183671
0.0184371
0.0184754
0.0184821
0.018458
0.0184018
0.0183141
0.018192
0.0180361
0.0178409
0.0176083
0.0149902
0.0154068
0.0158056
0.0161833
0.0165373
0.0168648
0.0171641
0.0174329
0.0176705
0.0178755
0.0180479
0.0181871
0.0182938
0.0183677
0.0184098
0.0184196
0.018398
0.0183437
0.0182573
0.0181358
0.0179802
0.0177853
0.017553
0.0149435
0.0153553
0.0157501
0.0161248
0.0164767
0.0168031
0.017102
0.0173714
0.0176102
0.0178171
0.0179918
0.0181337
0.0182431
0.0183197
0.0183643
0.0183762
0.0183564
0.0183034
0.0182178
0.0180969
0.0179415
0.017747
0.0175149
0.0149196
0.0153289
0.0157217
0.0160948
0.0164456
0.0167713
0.01707
0.0173397
0.0175791
0.0177869
0.0179628
0.018106
0.0182168
0.0182948
0.0183406
0.0183537
0.0183347
0.0182824
0.0181973
0.0180768
0.0179215
0.0177272
0.0174952
0.0193569
0.019631
0.0198973
0.0201544
0.0204005
0.0206339
0.020853
0.0210562
0.0212416
0.0214078
0.0215526
0.0216746
0.0217713
0.0218416
0.0218831
0.0218951
0.0218753
0.021824
0.0217394
0.0216231
0.0214739
0.0212941
0.0210831
0.0193694
0.019645
0.0199127
0.0201709
0.0204179
0.0206523
0.0208721
0.0210761
0.0212622
0.021429
0.0215743
0.0216967
0.0217937
0.0218642
0.0219056
0.0219174
0.0218969
0.0218448
0.0217591
0.0216415
0.021491
0.0213098
0.0210975
0.0193938
0.0196723
0.0199425
0.0202029
0.0204518
0.0206878
0.0209091
0.0211145
0.0213018
0.0214698
0.0216162
0.0217395
0.0218371
0.021908
0.0219493
0.0219605
0.0219389
0.0218851
0.0217973
0.0216772
0.021524
0.0213401
0.0211254
0.0194298
0.0197125
0.0199862
0.0202497
0.0205012
0.0207395
0.020963
0.0211702
0.0213594
0.0215292
0.0216771
0.0218017
0.0219003
0.0219718
0.0220129
0.0220234
0.0220001
0.0219439
0.0218529
0.021729
0.0215717
0.0213838
0.0211655
0.0194775
0.0197653
0.0200434
0.0203105
0.0205653
0.0208064
0.0210325
0.0212423
0.0214339
0.0216059
0.0217558
0.0218823
0.0219822
0.0220546
0.0220956
0.022105
0.0220795
0.0220201
0.0219247
0.0217959
0.0216331
0.0214396
0.0212164
0.019537
0.0198307
0.0201137
0.020385
0.0206433
0.0208878
0.0211169
0.0213296
0.021524
0.0216988
0.0218514
0.0219803
0.022082
0.0221555
0.0221965
0.0222048
0.0221765
0.022113
0.0220121
0.0218768
0.0217069
0.0215065
0.0212771
0.0196086
0.0199085
0.0201968
0.0204725
0.0207347
0.0209826
0.0212151
0.0214311
0.0216289
0.021807
0.0219629
0.0220948
0.0221989
0.022274
0.0223151
0.022322
0.0222904
0.022222
0.0221141
0.0219708
0.0217923
0.0215831
0.021346
0.0196927
0.019999
0.0202925
0.0205726
0.0208387
0.0210902
0.0213262
0.0215458
0.0217474
0.0219294
0.0220892
0.0222251
0.0223322
0.0224093
0.0224508
0.0224564
0.0224208
0.0223465
0.0222302
0.0220772
0.021888
0.0216684
0.0214218
0.0197895
0.020102
0.0204005
0.0206847
0.0209545
0.0212095
0.0214492
0.0216727
0.0218785
0.0220651
0.0222294
0.0223696
0.022481
0.022561
0.0226033
0.0226076
0.0225675
0.0224861
0.0223598
0.0221949
0.0219929
0.0217608
0.0215042
0.0198995
0.0202177
0.0205205
0.0208084
0.0210814
0.0213397
0.021583
0.0218106
0.0220212
0.022213
0.022383
0.0225289
0.0226452
0.0227289
0.0227725
0.0227756
0.0227304
0.0226406
0.0225023
0.0223233
0.022106
0.0218588
0.0215894
0.020023
0.0203458
0.0206521
0.0209427
0.0212184
0.0214796
0.0217264
0.0219583
0.0221741
0.022372
0.0225489
0.0227018
0.0228241
0.0229127
0.0229583
0.0229605
0.0229095
0.02281
0.0226572
0.0224615
0.0222259
0.0219609
0.0216768
0.0201601
0.0204862
0.0207948
0.021087
0.0213645
0.0216279
0.0218781
0.0221145
0.0223361
0.0225412
0.0227261
0.0228874
0.0230173
0.0231123
0.0231611
0.0231625
0.023105
0.0229941
0.0228242
0.0226085
0.0223513
0.0220656
0.0217645
0.020311
0.0206386
0.0209476
0.0212401
0.0215183
0.0217833
0.0220366
0.0222776
0.0225059
0.0227192
0.0229136
0.0230851
0.0232246
0.0233278
0.0233809
0.0233823
0.0233174
0.0231931
0.0230029
0.0227634
0.0224807
0.0221717
0.0218505
0.0204755
0.0208023
0.0211097
0.0214007
0.0216783
0.0219442
0.0222003
0.0224462
0.0226818
0.0229046
0.0231103
0.023294
0.0234455
0.0235592
0.0236182
0.0236203
0.0235473
0.0234073