/*--------------------------------*- C++ -*----------------------------------*\
  =========                 |
  \\      /  F ield         | OpenFOAM: The Open Source CFD Toolbox
   \\    /   O peration     | Website:  https://openfoam.org
    \\  /    A nd           | Version:  7
     \\/     M anipulation  |
\*---------------------------------------------------------------------------*/
FoamFile
{
    version     2.0;
    format      ascii;
    class       surfaceScalarField;
    location    "200";
    object      phi;
}
// * * * * * * * * * * * * * * * * * * * * * * * * * * * * * * * * * * * * * //

dimensions      [0 3 -1 0 0 0 0];

internalField   nonuniform List<scalar> 
8924
(
0.00154957
0.00502752
-0.00511622
0.0016213
0.0075733
-0.00764503
0.00166954
0.00896255
-0.00901079
0.00168946
0.00954671
-0.00956662
0.00167183
0.00993398
-0.00991636
0.00161472
0.0105194
-0.0104623
0.00153587
0.0109444
-0.0108656
0.00146545
0.0102698
-0.0101994
0.00142631
0.00785207
-0.00781293
0.00142615
0.00395877
-0.00395861
0.00146136
-0.000461772
0.000426569
0.00151864
-0.00437723
0.00431995
0.00157574
-0.00719846
0.00714136
0.00160701
-0.00894455
0.00891328
0.00159553
-0.0100718
0.0100833
0.00154473
-0.0108318
0.0108826
0.00147868
-0.0109178
0.0109838
0.00142757
-0.00964293
0.00969403
0.00141109
-0.0067096
0.00672608
0.00143263
-0.00261899
0.00259746
0.00147904
0.00167533
-0.00172174
0.00152242
0.00527481
-0.00531819
0.00153622
0.00808922
-0.00810302
0.0100633
-0.0100428
0.00154805
0.00493389
0.00162423
0.00749713
0.00167612
0.00891066
0.00169871
0.00952412
0.00168308
0.00994961
0.00162766
0.0105748
0.00154998
0.0110221
0.00147927
0.0103405
0.00143764
0.0078937
0.00143327
0.00396314
0.00146367
-0.000492177
0.00151663
-0.00443019
0.0015706
-0.00725242
0.00159996
-0.00897392
0.00158741
-0.0100593
0.00153609
-0.0107805
0.00147016
-0.0108518
0.00142035
-0.00959312
0.00140653
-0.00669578
0.00143137
-0.00264384
0.00148056
0.00162613
0.00152574
0.00522964
0.00154067
0.00807428
0.0100829
0.00154604
0.0048354
0.00162667
0.0074165
0.00168227
0.00885506
0.00170764
0.00949875
0.00169415
0.0099631
0.00164058
0.0106283
0.00156417
0.0110985
0.00149314
0.0104116
0.00144892
0.00793791
0.00144024
0.00397182
0.00146577
-0.000517708
0.00151436
-0.00447878
0.00156518
-0.00730324
0.00159271
-0.00900145
0.0015792
-0.0100458
0.00152745
-0.0107287
0.0014617
-0.0107861
0.00141316
-0.00954458
0.00140191
-0.00668453
0.00142997
-0.00267189
0.00148189
0.00157421
0.00152889
0.00518265
0.00154502
0.00805815
0.0101018
0.00154352
0.00473209
0.00162862
0.0073314
0.00168797
0.00879571
0.00171622
0.00947051
0.00170502
0.0099743
0.00165346
0.0106799
0.00157842
0.0111736
0.00150704
0.010483
0.00146016
0.00798479
0.00144708
0.0039849
0.00146767
-0.000538294
0.00151183
-0.00452294
0.0015595
-0.00735091
0.00158527
-0.00902722
0.0015709
-0.0100314
0.00151881
-0.0106766
0.00145329
-0.0107206
0.00140599
-0.00949728
0.00139724
-0.00667577
0.00142841
-0.00270307
0.00148302
0.0015196
0.00153185
0.00513382
0.00154926
0.00804074
0.0101199
0.00154048
0.00462402
0.00163006
0.00724182
0.00169321
0.00873255
0.00172443
0.00943929
0.00171567
0.00998306
0.00166629
0.0107293
0.0015927
0.0112472
0.00152097
0.0105547
0.00147134
0.00803442
0.00145379
0.00400245
0.00146936
-0.000553871
0.00150905
-0.00456263
0.00155357
-0.00739543
0.00157762
-0.00905128
0.00156251
-0.0100163
0.00151018
-0.0106243
0.00144493
-0.0106553
0.00139884
-0.00945119
0.00139249
-0.00666942
0.00142669
-0.00273727
0.00148394
0.00146235
0.00153464
0.00508312
0.00155337
0.00802201
0.010137
0.00153689
0.00451126
0.00163096
0.00714776
0.00169797
0.00866554
0.00173226
0.00940499
0.00172609
0.00998923
0.00167903
0.0107763
0.001607
0.0113192
0.0015349
0.0106268
0.00148246
0.00808686
0.00146036
0.00402455
0.00147087
-0.000564382
0.00150604
-0.0045978
0.00154739
-0.00743678
0.0015698
-0.00907369
0.00155402
-0.0100005
0.00150155
-0.0105718
0.00143662
-0.0105904
0.00139171
-0.00940628
0.00138766
-0.00666537
0.00142479
-0.00277441
0.00148464
0.0014025
0.00153723
0.00503054
0.00155736
0.00800187
0.0101532
0.00153275
0.00439388
0.00163131
0.0070492
0.00170222
0.00859462
0.00173969
0.00936753
0.00173625
0.00999267
0.00169168
0.0108209
0.0016213
0.0113896
0.00154882
0.0106993
0.00149351
0.00814218
0.00146681
0.00405126
0.0014722
-0.000569775
0.00150281
-0.0046284
0.00154098
-0.00747495
0.00156178
-0.00909449
0.00154545
-0.00998416
0.00149292
-0.0105193
0.00142835
-0.0105258
0.00138458
-0.00936251
0.00138274
-0.00666353
0.00142271
-0.00281438
0.00148511
0.0013401
0.00153962
0.00497603
0.00156122
0.00798027
0.0101684
0.00152804
0.00427193
0.00163108
0.00694616
0.00170595
0.00851975
0.00174669
0.00932679
0.00174613
0.00999323
0.00170421
0.0108628
0.00163556
0.0114582
0.00156272
0.0107721
0.0015045
0.0082004
0.00147312
0.00408263
0.00147335
-0.000570005
0.00149936
-0.00465441
0.00153434
-0.00750993
0.00155359
-0.00911375
0.00153679
-0.00996736
0.00148428
-0.0104668
0.00142012
-0.0104617
0.00137745
-0.00931984
0.00137772
-0.0066638
0.00142043
-0.00285709
0.00148535
0.00127518
0.0015418
0.00491957
0.00156494
0.00795714
0.0101824
0.00152274
0.00414551
0.00163027
0.00683863
0.00170914
0.00844088
0.00175324
0.00928269
0.00175571
0.00999077
0.00171658
0.010902
0.00164977
0.011525
0.00157658
0.0108453
0.0015154
0.00826158
0.00147931
0.00411872
0.00147434
-0.000565033
0.00149572
-0.00467578
0.00152748
-0.00754169
0.00154522
-0.00913148
0.00152804
-0.00995018
0.00147565
-0.0104144
0.00141192
-0.0103979
0.00137032
-0.00927824
0.0013726
-0.00666608
0.00141795
-0.00290244
0.00148534
0.0012078
0.00154378
0.00486113
0.00156852
0.0079324
0.0101954
0.00151685
0.00162885
0.00672663
0.00171175
0.00835798
0.00175931
0.00923513
0.00176495
0.00998513
0.00172878
0.0109381
0.0016639
0.0115899
0.00159038
0.0109188
0.00152622
0.00832575
0.00148538
0.00415955
0.00147517
-0.000554825
0.00149188
-0.00469249
0.00152041
-0.00757023
0.00153667
-0.00914775
0.0015192
-0.00993272
0.001467
-0.0103622
0.00140374
-0.0103347
0.00136317
-0.00923767
0.00136736
-0.00667027
0.00141525
-0.00295032
0.00148507
0.00113798
0.00154553
0.00480068
0.00157194
0.00790598
0.0102071
0.0016268
0.00661016
0.00171378
0.008271
0.00176489
0.00918402
0.00177384
0.00997618
0.00174078
0.0109712
0.00167793
0.0116528
0.0016041
0.0109926
0.00153694
0.00839291
0.00149132
0.00420517
0.00147584
-0.000539353
0.00148785
-0.0047045
0.00151313
-0.0075955
0.00152794
-0.00916256
0.00151028
-0.00991505
0.00145834
-0.0103102
0.00139559
-0.0102719
0.00135601
-0.0091981
0.001362
-0.00667626
0.00141233
-0.00300065
0.00148454
0.00106576
0.00154705
0.00473818
0.00157521
0.00787782
0.0102176
0.00162411
0.00648926
0.0017152
0.00817992
0.00176995
0.00912927
0.00178235
0.00996378
0.00175254
0.011001
0.00169183
0.0117135
0.00161773
0.0110667
0.00154756
0.00846308
0.00149712
0.00425561
0.00147637
-0.000518595
0.00148365
-0.00471178
0.00150565
-0.0076175
0.00151904
-0.00917596
0.00150125
-0.00989725
0.00144965
-0.0102586
0.00138744
-0.0102097
0.00134881
-0.00915947
0.00135651
-0.00668397
0.00140917
-0.00305331
0.00148374
0.000991193
0.00154833
0.00467359
0.00157831
0.00784783
0.0102267
0.00162075
0.00636394
0.00171598
0.00808469
0.00177446
0.00907079
0.00179045
0.00994778
0.00176404
0.0110274
0.00170556
0.011772
0.00163124
0.0111411
0.00155806
0.00853626
0.0015028
0.00431087
0.00147674
-0.000492533
0.00147928
-0.00471433
0.00149797
-0.00763619
0.00150996
-0.00918795
0.00149213
-0.00987942
0.00144095
-0.0102075
0.00137929
-0.0101481
0.00134157
-0.00912176
0.00135088
-0.00669327
0.00140577
-0.00310821
0.00148266
0.000914307
0.00154936
0.00460689
0.00158123
0.00781596
0.0102344
0.00161671
0.00623422
0.0017161
0.0079853
0.00177839
0.00900851
0.0017981
0.00992807
0.00177525
0.0110503
0.00171912
0.0118281
0.00164462
0.0112156
0.00156845
0.00861243
0.00150835
0.00437096
0.00147698
-0.000461154
0.00147476
-0.00471211
0.00149011
-0.00765154
0.00150071
-0.00919855
0.0014829
-0.00986161
0.00143221
-0.0101568
0.00137113
-0.010087
0.00133429
-0.00908492
0.0013451
-0.00670408
0.00140213
-0.00316523
0.00148129
0.000835143
0.00155014
0.00453805
0.00158397
0.00778212
0.0102406
0.00161197
0.00610015
0.00171555
0.00788172
0.00178172
0.00894234
0.00180528
0.00990451
0.00178613
0.0110694
0.00173245
0.0118818
0.00165785
0.0112902
0.00157871
0.00869157
0.00151377
0.00443591
0.00147707
-0.000424452
0.00147007
-0.00470511
0.00148206
-0.00766353
0.00149128
-0.00920777
0.00147357
-0.0098439
0.00142343
-0.0101066
0.00136296
-0.0100265
0.00132695
-0.00904891
0.00133916
-0.00671629
0.00139822
-0.00322429
0.00147962
0.000753742
0.00155064
0.00446702
0.00158652
0.00774625
0.0102453
0.00160651
0.00596178
0.00171429
0.00777393
0.00178442
0.00887221
0.00181196
0.00987696
0.00179664
0.0110847
0.00174555
0.0119329
0.00167092
0.0113648
0.00158884
0.00877365
0.00151905
0.00450569
0.00147702
-0.000382422
0.00146524
-0.00469333
0.00147384
-0.00767212
0.00148167
-0.0092156
0.00146412
-0.00982635
0.00141461
-0.0100571
0.00135476
-0.00996666
0.00131955
-0.0090137
0.00133306
-0.0067298
0.00139404
-0.00328526
0.00147764
0.000670145
0.00155088
0.00439378
0.00158886
0.00770826
0.0102483
0.00160032
0.00581914
0.00171232
0.00766193
0.00178647
0.00879806
0.00181811
0.00984533
0.00180677
0.0110961
0.00175837
0.0119813
0.00168379
0.0114394
0.00159881
0.00885863
0.0015242
0.0045803
0.00147684
-0.000335067
0.00146027
-0.00467675
0.00146544
-0.00767729
0.00147188
-0.00922204
0.00145456
-0.00980903
0.00140574
-0.0100083
0.00134653
-0.00990744
0.00131207
-0.00897923
0.00132679
-0.00674453
0.00138959
-0.00334806
0.00147534
0.000584394
0.00155082
0.00431829
0.00159099
0.00766809
0.0102496
0.00159338
0.00567231
0.00170959
0.00754572
0.00178784
0.00871981
0.00182369
0.00980948
0.00181646
0.0111033
0.00177088
0.0120268
0.00169645
0.0115138
0.00160863
0.00894644
0.0015292
0.00465973
0.00147653
-0.000282392
0.00145515
-0.00465538
0.00145687
-0.00767901
0.0014619
-0.00922707
0.00144486
-0.00979199
0.00139682
-0.00996025
0.00133825
-0.00984887
0.0013045
-0.00894548
0.00132033
-0.00676036
0.00138485
-0.00341258
0.00147271
0.000496533
0.00155047
0.00424054
0.00159289
0.00762566
0.010249
0.00158568
0.00552134
0.00170611
0.00742529
0.0017885
0.00863742
0.00182867
0.0097693
0.00182569
0.0111063
0.00178306
0.0120695
0.00170888
0.011588
0.00161828
0.00903704
0.00153407
0.00474394
0.00147608
-0.000224405
0.0014499
-0.0046292
0.00144814
-0.00767725
0.00145175
-0.00923068
0.00143504
-0.00977528
0.00138783
-0.00991304
0.00132993
-0.00979097
0.00129684
-0.00891239
0.00131369
-0.00677722
0.00137982
-0.00347871
0.00146975
0.000406607
0.00154981
0.00416048
0.00159456
0.00758091
0.0102466
0.00157721
0.00536632
0.00170184
0.00730066
0.00178843
0.00855083
0.00183302
0.00972471
0.00183442
0.0111049
0.00179488
0.012109
0.00172106
0.0116618
0.00162776
0.00913034
0.00153878
0.00483292
0.0014755
-0.000161122
0.00144453
-0.00459823
0.00143925
-0.00767198
0.00144141
-0.00923284
0.00142507
-0.00975894
0.00137876
-0.00986674
0.00132154
-0.00973375
0.00128907
-0.00887992
0.00130686
-0.00679501
0.0013745
-0.00354636
0.00146645
0.000314664
0.00154883
0.00407809
0.00159599
0.00753376
0.0102422
0.00156795
0.00520735
0.00169677
0.00717185
0.0017876
0.00846
0.00183671
0.00967559
0.00184262
0.011099
0.00180629
0.0121453
0.00173297
0.0117351
0.00163704
0.00922626
0.00154335
0.00492662
0.00147478
-9.25576e-05
0.00143902
-0.00456247
0.00143021
-0.00766317
0.00143089
-0.00923351
0.00141496
-0.00974301
0.00136962
-0.00982141
0.00131308
-0.00967721
0.00128118
-0.00884802
0.00129982
-0.00681365
0.00136888
-0.00361541
0.00146279
0.000220752
0.00154752
0.00399336
0.00159715
0.00748413
0.0102358
0.00155791
0.0050445
0.00169088
0.00703888
0.00178598
0.0083649
0.00183971
0.00962186
0.00185025
0.0110884
0.00181728
0.0121783
0.00174458
0.0118078
0.00164613
0.00932471
0.00154776
0.00502499
0.00147394
-1.87344e-05
0.00143339
-0.00452192
0.00142102
-0.00765079
0.00142018
-0.00923267
0.00140468
-0.00972751
0.0013604
-0.00977712
0.00130456
-0.00962137
0.00127317
-0.00881663
0.00129257
-0.00683304
0.00136294
-0.00368579
0.00145877
0.000124923
0.00154588
0.00390625
0.00159804
0.00743197
0.0102272
0.00154706
0.00487792
0.00168415
0.00690179
0.00178356
0.00826549
0.00184198
0.00956344
0.00185727
0.0110731
0.0018278
0.0122078
0.00175587
0.0118798
0.00165501
0.00942557
0.00155202
0.00512798
0.00147296
6.03237e-05
0.00142764
-0.0044766
0.00141167
-0.00763483
0.00140928
-0.00923028
0.00139425
-0.00971248
0.00135107
-0.00973394
0.00129595
-0.00956624
0.00126503
-0.00878571
0.0012851
-0.00685312
0.0013567
-0.00375739
0.00145439
2.72312e-05
0.00154389
0.00381675
0.00159866
0.0073772
0.0102164
0.00153541
0.00470771
0.00167657
0.00676063
0.0017803
0.00816176
0.00184349
0.00950026
0.00186365
0.011053
0.00183784
0.0122336
0.00176683
0.0119508
0.00166367
0.00952874
0.00155611
0.00523554
0.00147185
0.00014459
0.00142177
-0.00442652
0.00140219
-0.00761525
0.00139819
-0.00922629
0.00138364
-0.00969793
0.00134165
-0.00969195
0.00128725
-0.00951184
0.00125674
-0.00875521
0.00127741
-0.00687379
0.00135014
-0.00383011
0.00144964
-7.2269e-05
0.00154153
0.00372486
0.00159898
0.00731976
0.0102032
0.00152295
0.00453403
0.00166813
0.00661545
0.00177619
0.00805369
0.00184421
0.00943224
0.00186935
0.0110278
0.00184734
0.0122556
0.00177743
0.0120207
0.00167209
0.00963408
0.00156005
0.00534758
0.0014706
0.000234032
0.00141577
-0.00437169
0.00139256
-0.00759204
0.00138692
-0.00922065
0.00137285
-0.00968386
0.00133211
-0.0096512
0.00127846
-0.0094582
0.00124831
-0.00872506
0.00126949
-0.00689497
0.00134325
-0.00390387
0.0014445
-0.000173517
0.00153881
0.00363054
0.00159899
0.00725958
0.0101877
0.00150968
0.00435703
0.00165881
0.00646631
0.00177121
0.00794129
0.00184411
0.00935934
0.00187434
0.0109976
0.00185629
0.0122736
0.00178764
0.0120893
0.00168027
0.00974145
0.00156381
0.00546404
0.00146923
0.000328614
0.00140967
-0.00431213
0.0013828
-0.00756517
0.00137546
-0.00921331
0.00136187
-0.00967027
0.00132245
-0.00961178
0.00126957
-0.00940532
0.00123972
-0.0086952
0.00126133
-0.00691658
0.00133604
-0.00397859
0.00143898
-0.000276457
0.00153571
0.00353381
0.00159869
0.0071966
0.0101696
0.00149561
0.0041769
0.00164861
0.00631331
0.00176533
0.00782457
0.00184317
0.0092815
0.00187858
0.0109622
0.00186466
0.0122876
0.00179745
0.0121566
0.00168819
0.00985071
0.0015674
0.00558482
0.00146772
0.000428297
0.00140344
-0.00424785
0.0013729
-0.00753463
0.00136381
-0.00920422
0.0013507
-0.00965716
0.00131265
-0.00957373
0.00126058
-0.00935325
0.00123096
-0.00866559
0.00125292
-0.00693853
0.0013285
-0.00405418
0.00143308
-0.000381029
0.00153223
0.00343466
0.00159806
0.00713078
0.010149
0.00148074
0.00399383
0.00163752
0.00615653
0.00175854
0.00770355
0.00184135
0.00919869
0.00188205
0.0109215
0.0018724
0.0122972
0.00180682
0.0122221
0.00169584
0.00996169
0.00157082
0.00570984
0.00146608
0.000533037
0.0013971
-0.00417887
0.00136286
-0.00750039
0.00135197
-0.00919332
0.00133932
-0.00964451
0.00130272
-0.00953713
0.00125148
-0.00930201
0.00122204
-0.00863615
0.00124426
-0.00696074
0.00132063
-0.00413056
0.00142678
-0.000487172
0.00152835
0.00333309
0.00159708
0.00706204
0.0101257
0.00146509
0.00380805
0.00162554
0.00599609
0.00175083
0.00757826
0.00183863
0.00911089
0.0018847
0.0108754
0.00187948
0.0123024
0.00181574
0.0122859
0.0017032
0.0100742
0.00157406
0.00583899
0.00146431
0.000642785
0.00139065
-0.00410521
0.0013527
-0.00746244
0.00133994
-0.00918056
0.00132773
-0.0096323
0.00129264
-0.00950204
0.00124228
-0.00925165
0.00121295
-0.00860682
0.00123533
-0.00698313
0.00131243
-0.00420765
0.00142008
-0.000594827
0.00152406
0.00322911
0.00159575
0.00699035
0.0100997
0.00144867
0.0036198
0.00161266
0.0058321
0.00174217
0.00744875
0.00183498
0.00901808
0.00188651
0.0108239
0.00188588
0.0123031
0.00182418
0.0123476
0.00171027
0.0101881
0.00157712
0.00597214
0.00146241
0.000757492
0.00138408
-0.00402689
0.00134241
-0.00742077
0.00132773
-0.00916587
0.00131593
-0.0096205
0.00128239
-0.00946851
0.00123295
-0.00920221
0.00120369
-0.00857756
0.00122615
-0.00700559
0.00130388
-0.00428539
0.00141299
-0.000703937
0.00151937
0.00312274
0.00159406
0.00691565
0.0100708
0.00143151
0.00342933
0.00159889
0.00566472
0.00173256
0.00731508
0.00183039
0.00892025
0.00188744
0.0107669
0.00189157
0.0122989
0.00183212
0.012407
0.00171704
0.0103032
0.00158
0.00610918
0.00146039
0.000877101
0.00137741
-0.00394391
0.00133199
-0.00737536
0.00131533
-0.00914921
0.0013039
-0.00960908
0.00127198
-0.00943658
0.00122351
-0.00915374
0.00119425
-0.0085483
0.00121669
-0.00702802
0.001295
-0.0043637
0.00140551
-0.000814448
0.00151426
0.00301399
0.001592
0.00683791
0.0100389
0.00141363
0.00323695
0.00158425
0.00549411
0.001722
0.00717733
0.00182482
0.00881743
0.00188746
0.0107042
0.0018965
0.0122899
0.00183952
0.012464
0.00172348
0.0104193
0.0015827
0.00624996
0.00145824
0.00100155
0.00137062
-0.00385629
0.00132145
-0.00732619
0.00130274
-0.00913049
0.00129164
-0.00959798
0.00126138
-0.00940632
0.00121395
-0.00910631
0.00118464
-0.00851899
0.00120695
-0.00705033
0.00128577
-0.00444252
0.00139764
-0.000926309
0.00150874
0.00290289
0.00158955
0.0067571
0.0100041
0.00139509
0.00304296
0.00156874
0.00532046
0.00171047
0.00703559
0.00181826
0.00870964
0.00188655
0.0106359
0.00190066
0.0122758
0.00184638
0.0125183
0.00172959
0.0105361
0.00158522
0.00639433
0.00145598
0.00113079
0.00136373
-0.00376403
0.00131079
-0.00727324
0.00128997
-0.00910968
0.00127916
-0.00958717
0.0012506
-0.00937776
0.00120425
-0.00905996
0.00117486
-0.0084896
0.00119694
-0.00707241
0.0012762
-0.00452178
0.00138937
-0.00103948
0.00150279
0.00278946
0.0015867
0.0066732
0.00996621
0.00137593
0.00284767
0.0015524
0.00514399
0.00169798
0.00689001
0.0018107
0.00859693
0.00188467
0.010562
0.00190401
0.0122564
0.00185266
0.0125696
0.00173535
0.0106534
0.00158757
0.00654211
0.00145361
0.00126475
0.00135673
-0.00366714
0.0013
-0.00721652
0.00127702
-0.0090867
0.00126643
-0.00957658
0.00123961
-0.00935093
0.00119443
-0.00901479
0.00116492
-0.00846008
0.00118665
-0.00709414
0.00126627
-0.00460141
0.00138071
-0.00115391
0.00149643
0.00267374
0.00158346
0.00658617
0.00992516
0.00135624
0.00265138
0.00153527
0.00496496
0.00168456
0.00674072
0.00180212
0.00847937
0.00188181
0.0104823
0.00190652
0.0122317
0.00185833
0.0126178
0.00174077
0.0107709
0.00158976
0.00669312
0.00145114
0.00140336
0.00134962
-0.00356562
0.00128909
-0.00715599
0.0012639
-0.00906151
0.00125347
-0.00956615
0.00122841
-0.00932587
0.00118447
-0.00897084
0.00115481
-0.00843042
0.00117607
-0.00711541
0.001256
-0.00468134
0.00137167
-0.00126959
0.00148966
0.00255575
0.00157981
0.00649603
0.0098809
0.00133611
0.00245437
0.00151744
0.00478363
0.00167024
0.00658793
0.00179254
0.00835707
0.00187794
0.0103969
0.00190816
0.0122015
0.00186338
0.0126626
0.00174583
0.0108885
0.0015918
0.00684715
0.00144858
0.00154658
0.00134241
-0.00345945
0.00127808
-0.00709166
0.0012506
-0.00903403
0.00124028
-0.00955583
0.001217
-0.0093026
0.00117437
-0.00892821
0.00114454
-0.00840059
0.00116522
-0.00713608
0.00124536
-0.00476147
0.00136226
-0.00138649
0.00148249
0.00243551
0.00157576
0.00640276
0.00983337
0.00131568
0.00225684
0.00149903
0.00460028
0.00165508
0.00643187
0.00178196
0.00823019
0.00187307
0.0103058
0.00190893
0.0121656
0.00186779
0.0127037
0.00175057
0.0110057
0.00159376
0.00700397
0.00144598
0.00169435
0.00133512
-0.00334859
0.00126694
-0.00702347
0.00123712
-0.00900421
0.00122681
-0.00954552
0.00120534
-0.00928113
0.00116411
-0.00888698
0.00113411
-0.00837059
0.00115408
-0.00715605
0.00123434
-0.00484173
0.00135246
-0.00150462
0.00147493
0.00231304
0.00157131
0.00630638
0.00978253
0.00129502
0.00205887
0.00148016
0.00441513
0.0016392
0.00627283
0.00177046
0.00809893
0.0018672
0.010209
0.00190882
0.012124
0.00187161
0.012741
0.00175511
0.0111222
0.00159579
0.00716329
0.00144344
0.0018467
0.00132775
-0.00323289
0.00125562
-0.00695134
0.00122338
-0.00897197
0.00121303
-0.00953518
0.0011934
-0.0092615
0.00115366
-0.00884724
0.00112351
-0.00834044
0.00114264
-0.00717518
0.00122292
-0.00492201
0.00134226
-0.00162396
0.00146698
0.00218832
0.00156647
0.00620689
0.00972833
0.00127442
0.00186048
0.00146115
0.00422841
0.00162285
0.00611113
0.00175818
0.0079636
0.00186042
0.0101068
0.00190793
0.0120765
0.00187496
0.0127739
0.00175955
0.0112376
0.00159786
0.00732498
0.00144078
0.00200378
0.00132015
-0.00311226
0.00124412
-0.00687531
0.00120947
-0.00893732
0.00119905
-0.00952476
0.00118126
-0.00924371
0.00114311
-0.00880908
0.00111282
-0.00831016
0.001131
-0.00719336
0.00121118
-0.00500219
0.00133174
-0.00174452
0.00145872
0.00206134
0.00156131
0.0061043
0.00967077
0.00125545
0.0014433
0.00404057
0.00160714
0.00594729
0.00174603
0.00782471
0.0018534
0.00999941
0.00190657
0.0120234
0.00187774
0.0128028
0.00176327
0.0113521
0.00159872
0.00748953
0.00143667
0.00216584
0.0013116
-0.00298718
0.00123237
-0.00679608
0.00119578
-0.00890073
0.0011854
-0.00951438
0.00116947
-0.00922779
0.00113295
-0.00877256
0.00110259
-0.0082798
0.00111973
-0.00721051
0.00119971
-0.00508216
0.00132147
-0.00186628
0.00145069
0.00193212
0.00155624
0.00599875
0.00961001
0.00448026
0.00370993
0.00478587
0.00564167
0.00500013
0.00761046
0.00511618
0.00988336
0.00516594
0.0119736
0.00517977
0.0127889
0.00519382
0.011338
0.00524936
0.00743399
0.00533947
0.00207573
0.00542636
-0.00307407
0.00544965
-0.00681938
0.00541342
-0.0088645
0.00533056
-0.00943151
0.00517834
-0.00907557
0.00494537
-0.0085396
0.00470196
-0.00803639
0.00455486
-0.00706341
0.00455606
-0.00508336
0.00466622
-0.00197644
0.00479863
0.0017997
0.00488782
0.00590956
0.00959155
0.00460821
0.00337475
0.00492077
0.00532912
0.00514879
0.00738244
0.00528906
0.00974309
0.00536597
0.0118967
0.00539943
0.0127555
0.00542194
0.0113155
0.00547918
0.00737675
0.00558525
0.00196966
0.00566967
-0.00315849
0.00567938
-0.00682909
0.00561925
-0.00880436
0.00551618
-0.00932845
0.00535397
-0.00891336
0.00511499
-0.00830062
0.00486197
-0.00778337
0.00470312
-0.00690456
0.00469845
-0.00507869
0.0048084
-0.00208639
0.00494895
0.00165916
0.00505008
0.00580843
0.00955996
0.00474324
0.00303804
0.00506244
0.00500992
0.00530492
0.00713996
0.00546772
0.0095803
0.00556902
0.0117954
0.00562325
0.0127012
0.00566244
0.0112763
0.00573588
0.00730331
0.0058482
0.00185734
0.00592988
-0.00324018
0.00592106
-0.00682026
0.0058348
-0.00871811
0.0057099
-0.00920354
0.00553696
-0.00874042
0.00529181
-0.00805547
0.00502867
-0.00752023
0.00485712
-0.00673301
0.00484498
-0.00506656
0.00495684
-0.00219824
0.00510592
0.00151008
0.00521992
0.00569443
0.00951446
0.00488441
0.00270271
0.0052093
0.00468502
0.00546694
0.00688233
0.0056529
0.00939433
0.0057799
0.0116684
0.00585785
0.0126233
0.00591837
0.0112158
0.00600963
0.00721205
0.00612919
0.00173777
0.00620374
-0.00331473
0.00617433
-0.00679085
0.00605995
-0.00860373
0.00591103
-0.00905462
0.00572643
-0.00855582
0.00547565
-0.00780469
0.00520253
-0.00724711
0.0050168
-0.00654728
0.00499585
-0.0050456
0.00510958
-0.00231197
0.0052687
0.00135096
0.00539766
0.00556547
0.00945285
0.00502973
0.00237123
0.00535997
0.00435478
0.00563373
0.00660857
0.00584438
0.00918368
0.00599937
0.0115134
0.00610345
0.0125192
0.00618819
0.0111311
0.00630015
0.00710008
0.00642655
0.00161138
0.00649089
-0.00337907
0.00643854
-0.0067385
0.00629414
-0.00845933
0.00611921
-0.00887969
0.00592198
-0.00835859
0.00566628
-0.00754899
0.00538383
-0.00696466
0.00518277
-0.00634622
0.00515116
-0.00501399
0.00526601
-0.00242682
0.00543666
0.00118031
0.00558306
0.00541906
0.00937235
0.00517746
0.00204603
0.00551313
0.00401911
0.00580432
0.00631738
0.00604161
0.00894639
0.0062263
0.0113287
0.00635835
0.0123872
0.00647158
0.0110178
0.00660737
0.0069643
0.00673922
0.00147952
0.00679018
-0.00343003
0.00671249
-0.00666081
0.00653656
-0.00828339
0.00633396
-0.0086771
0.00612315
-0.00814778
0.00586338
-0.00728921
0.00557268
-0.00667396
0.00535541
-0.00612896
0.00531096
-0.00496954
0.00542606
-0.00254192
0.00560949
0.000996882
0.00577595
0.0052526
0.00927005
0.00532598
0.00172988
0.00566736
0.00367773
0.00597755
0.00600719
0.00624311
0.00868084
0.00645834
0.0111135
0.00662098
0.0122245
0.00676796
0.0108708
0.00693009
0.00680216
0.00706572
0.00134389
0.00709998
-0.00346429
0.00699465
-0.00655547
0.00678616
-0.0080749
0.00655466
-0.0084456
0.00632939
-0.00792251
0.00606646
-0.00702629
0.00576908
-0.00637657
0.00553512
-0.005895
0.00547552
-0.00490995
0.00558962
-0.00265602
0.0057869
0.000799609
0.00597604
0.00506346
0.00914314
0.00547394
0.00142668
0.00582097
0.0033307
0.00615173
0.00567643
0.00644658
0.00838598
0.00669303
0.010867
0.00688974
0.0120278
0.00707557
0.010685
0.00726622
0.00661152
0.00740391
0.0012062
0.00741815
-0.00347853
0.00728309
-0.00642042
0.00704161
-0.00783341
0.00678056
-0.00818456
0.00654007
-0.00768201
0.00627497
-0.00676119
0.00597293
-0.00607453
0.00572236
-0.00564443
0.00564529
-0.00483288
0.00575665
-0.00276738
0.00596852
0.000587747
0.00618283
0.00484914
0.00898902
0.00562076
0.00114219
0.00597229
0.00297918
0.00632473
0.00532399
0.00664939
0.00806132
0.00692778
0.0105886
0.00716224
0.0117934
0.00739179
0.0104555
0.00761289
0.00639042
0.00775091
0.00106818
0.00774198
-0.0034696
0.00757553
-0.00625397
0.00730132
-0.0075592
0.00701081
-0.00789405
0.00675453
-0.00742573
0.0064882
-0.00649486
0.00618398
-0.00577031
0.00591765
-0.0053781
0.00582091
-0.00473614
0.00592725
-0.00287372
0.00615396
0.000361037
0.00639564
0.00460746
0.00880527
0.00576758
0.000884604
0.00612032
0.00262643
0.00649432
0.00494999
0.00684855
0.00770709
0.00715947
0.0102777
0.00743542
0.0115174
0.00771331
0.0101776
0.00796644
0.00613729
0.00810311
0.000931508
0.00806829
-0.00343478
0.00786934
-0.00605502
0.00756349
-0.00725335
0.00724444
-0.007575
0.00697211
-0.0071534
0.00670541
-0.00622816
0.00640185
-0.00546675
0.00612143
-0.00509768
0.00600318
-0.00461789
0.00610174
-0.00297228
0.00634287
0.000119909
0.00661359
0.00433673
0.00858981
0.00591788
0.000663812
0.00626539
0.00227893
0.00665841
0.00455697
0.00704063
0.00732488
0.00738438
0.00993395
0.0077057
0.0111961
0.0080363
0.00984697
0.00832249
0.0058511
0.00845626
0.000797739
0.0083934
-0.00337193
0.00816162
-0.00582324
0.00782613
-0.00691787
0.00748041
-0.00722928
0.00719216
-0.00686515
0.0069258
-0.0059618
0.00662594
-0.00516689
0.00633406
-0.0048058
0.00619313
-0.00447696
0.00628073
-0.00305987
0.00653495
-0.00013432
0.00683563
0.00403606
0.00834095
0.00607759
0.00048979
0.00640946
0.00194705
0.00681513
0.00415129
0.0072218
0.00691821
0.00759851
0.00955724
0.00796934
0.0108252
0.00835637
0.00945994
0.00867616
0.00553132
0.00880554
0.00066835
0.00871332
-0.0032797
0.00844933
-0.00555925
0.00808719
-0.00655572
0.00771765
-0.00685974
0.00741406
-0.00656156
0.00714856
-0.0056963
0.00685552
-0.00487385
0.00655571
-0.00450599
0.00639181
-0.00431306
0.00646503
-0.00313309
0.00672997
-0.00039926
0.00706053
0.0037055
0.0080576
0.00625397
0.000370124
0.0065561
0.00164492
0.00696314
0.00374425
0.00738825
0.0064931
0.00779788
0.00914761
0.00822251
0.0104006
0.00866922
0.00901323
0.00902233
0.00517821
0.00914589
0.000544784
0.0090239
-0.00315771
0.00872945
-0.00526479
0.00834461
-0.00617089
0.0079551
-0.00647023
0.0076373
-0.00624377
0.00737296
-0.00543195
0.00708968
-0.00459057
0.0067863
-0.0042026
0.00660027
-0.00412704
0.00665561
-0.00318843
0.00692768
-0.000671331
0.00728688
0.00334631
0.00773931
0.00645386
0.000307222
0.00671007
0.00138871
0.00710202
0.0033523
0.00753668
0.00605844
0.00797903
0.00870526
0.00846196
0.0099177
0.00897078
0.0085044
0.00935605
0.00479294
0.0094722
0.000428636
0.00932111
-0.00300662
0.00899912
-0.0049428
0.00859649
-0.00576825
0.00819175
-0.00606549
0.00786146