/*--------------------------------*- C++ -*----------------------------------*\
  =========                 |
  \\      /  F ield         | OpenFOAM: The Open Source CFD Toolbox
   \\    /   O peration     | Website:  https://openfoam.org
    \\  /    A nd           | Version:  7
     \\/     M anipulation  |
\*---------------------------------------------------------------------------*/
FoamFile
{
    version     2.0;
    format      ascii;
    class       surfaceScalarField;
    location    "20";
    object      phi;
}
// * * * * * * * * * * * * * * * * * * * * * * * * * * * * * * * * * * * * * //

dimensions      [0 3 -1 0 0 0 0];

internalField   nonuniform List<scalar> 
72657
(
-8.24414e-07
8.23867e-07
5.46733e-10
-3.11026e-06
2.28511e-06
7.30044e-10
-6.74083e-06
3.63047e-06
1.00935e-10
-1.15998e-05
4.86023e-06
-1.25439e-09
-1.75728e-05
5.97628e-06
-3.24238e-09
-2.45496e-05
6.98258e-06
-5.76856e-09
-3.24262e-05
7.88531e-06
-8.74044e-09
-4.11073e-05
8.69316e-06
-1.20751e-08
-5.05092e-05
9.41764e-06
-1.57053e-08
-6.05629e-05
1.00733e-05
-1.95848e-08
-7.12172e-05
1.06779e-05
-2.36918e-08
-8.24418e-05
1.12526e-05
-2.80303e-08
-9.42309e-05
1.18217e-05
-3.26311e-08
-0.000106606
1.24123e-05
-3.7551e-08
-0.000119616
1.30536e-05
-4.28715e-08
-0.000133343
1.37752e-05
-4.86981e-08
-0.000147893
1.46054e-05
-5.51595e-08
-0.000163399
1.55683e-05
-6.24075e-08
-0.000180006
1.66773e-05
-7.06142e-08
1.7945e-05
-7.99789e-08
-0.000197871
-8.22049e-07
1.64592e-06
-3.10155e-06
4.56462e-06
-6.72212e-06
7.25104e-06
-1.15676e-05
9.70569e-06
-1.75236e-05
1.19323e-05
-2.44797e-05
1.39387e-05
-3.23316e-05
1.57372e-05
-4.09835e-05
1.73451e-05
-5.03512e-05
1.87853e-05
-6.03647e-05
2.00869e-05
-7.0972e-05
2.12852e-05
-8.21415e-05
2.24222e-05
-9.38664e-05
2.35466e-05
-0.000106167
2.47125e-05
-0.000119091
2.59783e-05
-0.00013272
2.74035e-05
-0.000147159
2.90451e-05
-0.000162542
3.09513e-05
-0.000179015
3.31495e-05
3.56647e-05
-0.000196734
-8.17356e-07
2.46327e-06
-3.08427e-06
6.83153e-06
-6.68498e-06
1.08517e-05
-1.15036e-05
1.45243e-05
-1.74257e-05
1.78544e-05
-2.43407e-05
2.08536e-05
-3.21434e-05
2.35399e-05
-4.07374e-05
2.5939e-05
-5.00369e-05
2.80849e-05
-5.99706e-05
3.00205e-05
-7.04842e-05
3.17988e-05
-8.15442e-05
3.34822e-05
-9.31412e-05
3.51435e-05
-0.000105293
3.6864e-05
-0.000118046
3.87315e-05
-0.000131479
4.08361e-05
-0.000145697
4.32639e-05
-0.000160835
4.6089e-05
-0.000177039
4.93532e-05
5.30944e-05
-0.000194469
-8.10398e-07
3.27367e-06
-3.05864e-06
9.07977e-06
-6.62984e-06
1.4423e-05
-1.14085e-05
1.9303e-05
-1.72803e-05
2.37262e-05
-2.4134e-05
2.77073e-05
-3.18636e-05
3.12696e-05
-4.03712e-05
3.44466e-05
-4.95692e-05
3.72829e-05
-5.93838e-05
3.98351e-05
-6.97579e-05
4.21728e-05
-8.06545e-05
4.43788e-05
-9.20605e-05
4.65496e-05
-0.00010399
4.87936e-05
-0.000116487
5.12285e-05
-0.000129627
5.39756e-05
-0.000143515
5.71521e-05
-0.000158285
6.08591e-05
-0.000174086
6.51547e-05
7.009e-05
-0.000191082
-8.01268e-07
4.07494e-06
-3.02495e-06
1.13035e-05
-6.55732e-06
1.79553e-05
-1.12834e-05
2.40291e-05
-1.70888e-05
2.95316e-05
-2.38616e-05
3.44801e-05
-3.14947e-05
3.89027e-05
-3.98882e-05
4.28401e-05
-4.89521e-05
4.63468e-05
-5.86093e-05
4.94923e-05
-6.87987e-05
5.23622e-05
-7.94791e-05
5.50592e-05
-9.06323e-05
5.77028e-05
-0.000102267
6.04288e-05
-0.000114424
6.33851e-05
-0.000127174
6.67257e-05
-0.000140622
7.06002e-05
-0.000154903
7.51396e-05
-0.000170168
8.04204e-05
8.6508e-05
-0.000186586
-7.90084e-07
4.86502e-06
-2.98362e-06
1.3497e-05
-6.46825e-06
2.144e-05
-1.11296e-05
2.86905e-05
-1.68532e-05
3.52551e-05
-2.35262e-05
4.11531e-05
-3.10401e-05
4.64166e-05
-3.92927e-05
5.10927e-05
-4.81908e-05
5.52449e-05
-5.76533e-05
5.89549e-05
-6.76144e-05
6.23233e-05
-7.8027e-05
6.54717e-05
-8.88668e-05
6.85426e-05
-0.000100137
7.16986e-05
-0.00011187
7.51186e-05
-0.000124135
7.89906e-05
-0.000137034
8.34994e-05
-0.000150703
8.88086e-05
-0.0001653
9.50168e-05
0.000102205
-0.000180997
-7.76992e-07
5.64201e-06
-2.93514e-06
1.56551e-05
-6.36359e-06
2.48684e-05
-1.09487e-05
3.32756e-05
-1.65756e-05
4.08821e-05
-2.31308e-05
4.77083e-05
-3.05037e-05
5.37895e-05
-3.85896e-05
5.91785e-05
-4.72915e-05
6.39469e-05
-5.65236e-05
6.8187e-05
-6.62141e-05
7.20138e-05
-7.6309e-05
7.55667e-05
-8.67766e-05
7.90102e-05
-9.76118e-05
8.25338e-05
-0.000108841
8.63479e-05
-0.000120527
9.06762e-05
-0.000132769
9.57416e-05
-0.000145705
0.000101745
-0.000159499
0.000108811
0.000117039
-0.000174333
-7.62156e-07
6.40417e-06
-2.88006e-06
1.7773e-05
-6.24448e-06
2.82328e-05
-1.07424e-05
3.77735e-05
-1.62588e-05
4.63985e-05
-2.2679e-05
5.41284e-05
-2.98903e-05
6.10009e-05
-3.77849e-05
6.7073e-05
-4.62615e-05
7.24235e-05
-5.52287e-05
7.71542e-05
-6.46081e-05
8.13931e-05
-7.43374e-05
8.52961e-05
-8.4376e-05
8.90488e-05
-9.47093e-05
9.28671e-05
-0.000105355
9.69935e-05
-0.000116368
0.000101689
-0.000127846
0.000107219
-0.000139928
0.000113826
-0.000152785
0.000121668
0.000130867
-0.000166613
-7.45758e-07
7.14993e-06
-2.819e-06
1.98463e-05
-6.11215e-06
3.1526e-05
-1.05128e-05
4.21741e-05
-1.59057e-05
5.17914e-05
-2.21747e-05
6.03974e-05
-2.92049e-05
6.80311e-05
-3.68848e-05
7.4753e-05
-4.51085e-05
8.06472e-05
-5.37784e-05
8.58241e-05
-6.2808e-05
9.04227e-05
-7.21261e-05
9.46141e-05
-8.16812e-05
9.86039e-05
-9.14476e-05
0.000102633
-0.000101432
0.000106978
-0.000111682
0.000111939
-0.000122289
0.000117826
-0.000133395
0.000124932
-0.000145181
0.000133455
0.000143546
-0.00015786
-7.27993e-07
7.87792e-06
-2.75261e-06
2.18709e-05
-5.96793e-06
3.47413e-05
-1.02621e-05
4.64683e-05
-1.55193e-05
5.70486e-05
-2.1622e-05
6.65001e-05
-2.84528e-05
7.48618e-05
-3.58961e-05
8.21963e-05
-4.3841e-05
8.8592e-05
-5.21827e-05
9.41658e-05
-6.08261e-05
9.90662e-05
-6.96895e-05
0.000103478
-7.87093e-05
0.000107624
-8.78466e-05
0.000111771
-9.70956e-05
0.000116227
-0.000106492
0.000121336
-0.000116123
0.000127457
-0.000126131
0.00013494
-0.000136711
0.000144034
0.000154929
-0.000148094
-7.09064e-07
8.58698e-06
-2.68159e-06
2.38434e-05
-5.81316e-06
3.78729e-05
-9.99236e-06
5.06475e-05
-1.51028e-05
6.21591e-05
-2.10253e-05
7.24226e-05
-2.76395e-05
8.1476e-05
-3.48258e-05
8.93827e-05
-4.24674e-05
9.62336e-05
-5.04521e-05
0.00010215
-5.86751e-05
0.000107289
-6.70429e-05
0.000111845
-7.54783e-05
0.000116059
-8.39271e-05
0.00012022
-9.23684e-05
0.000124668
-0.000100825
0.000129792
-0.000109375
0.000136007
-0.000118163
0.000143729
-0.000127398
0.000153269
0.000164868
-0.000137338
-6.89178e-07
9.27616e-06
-2.60662e-06
2.57609e-05
-5.64926e-06
4.09155e-05
-9.70591e-06
5.47041e-05
-1.46594e-05
6.71126e-05
-2.03888e-05
7.81519e-05
-2.67705e-05
8.78577e-05
-3.36806e-05
9.62928e-05
-4.09962e-05
0.000103549
-4.85968e-05
0.000109751
-5.63674e-05
0.00011506
-6.42014e-05
0.000119679
-7.20062e-05
0.000123864
-7.97104e-05
0.000127924
-8.72749e-05
0.000132233
-9.47063e-05
0.000137223
-0.000102073
0.000143373
-0.000109519
0.000151175
-0.000117268
0.000161019
0.00017321
-0.000125611
-6.68539e-07
9.9447e-06
-2.52839e-06
2.76207e-05
-5.47756e-06
4.38647e-05
-9.40488e-06
5.86315e-05
-1.41923e-05
7.19e-05
-1.97165e-05
8.36762e-05
-2.5851e-05
9.39923e-05
-3.24671e-05
0.000102909
-3.94353e-05
0.000110517
-4.66267e-05
0.000116942
-5.39149e-05
0.000122348
-6.11794e-05
0.000126944
-6.83104e-05
0.000130995
-7.52169e-05
0.00013483
-8.18389e-05
0.000138855
-8.81634e-05
0.000143548
-9.42444e-05
0.000149455
-0.000100225
0.000157155
-0.000106346
0.00016714
0.000179795
-0.00011293
-6.47345e-07
1.0592e-05
-2.44756e-06
2.94209e-05
-5.29937e-06
4.67165e-05
-9.09135e-06
6.24234e-05
-1.37042e-05
7.65128e-05
-1.90124e-05
8.89844e-05
-2.4886e-05
9.98658e-05
-3.11913e-05
0.000109214
-3.77921e-05
0.000117118
-4.45506e-05
0.000123701
-5.13285e-05
0.000129126
-5.799e-05
0.000133605
-6.44068e-05
0.000137411
-7.04659e-05
0.000140889
-7.60829e-05
0.000144472
-8.12215e-05
0.000148686
-8.59173e-05
0.00015415
-9.03083e-05
0.000161546
-9.4653e-05
0.000171485
0.000184453
-9.93108e-05
-6.25784e-07
1.12178e-05
-2.36474e-06
3.11599e-05
-5.11589e-06
4.94676e-05
-8.76719e-06
6.60748e-05
-1.31978e-05
8.09434e-05
-1.82798e-05
9.40664e-05
-2.38795e-05
0.000105466
-2.98581e-05
0.000115193
-3.60727e-05
0.000123333
-4.23758e-05
0.000130004
-4.86169e-05
0.000135367
-5.46442e-05
0.000139633
-6.0309e-05
0.000143076
-6.54739e-05
0.000146054
-7.0027e-05
0.000149025
-7.39035e-05
0.000152563
-7.71161e-05
0.000157363
-7.97936e-05
0.000164224
-8.22115e-05
0.000173903
0.000187005
-8.47633e-05
-6.04024e-07
1.18219e-05
-2.28049e-06
3.28364e-05
-4.9282e-06
5.21153e-05
-8.43407e-06
6.95806e-05
-1.26754e-05
8.51847e-05
-1.75215e-05
9.89125e-05
-2.28349e-05
0.000110779
-2.84717e-05
0.00012083
-3.42816e-05
0.000129143
-4.01077e-05
0.00013583
-4.57866e-05
0.000141046
-5.11499e-05
0.000144996
-5.60269e-05
0.000147953
-6.02536e-05
0.000150281
-6.36867e-05
0.000152458
-6.62283e-05
0.000155105
-6.78616e-05
0.000158996
-6.87012e-05
0.000165063
-6.90383e-05
0.00017424
0.000187261
-6.92951e-05
-5.82216e-07
1.24041e-05
-2.19529e-06
3.44494e-05
-4.73721e-06
5.46573e-05
-8.09335e-06
7.29368e-05
-1.21388e-05
8.92301e-05
-1.67398e-05
0.000103514
-2.17548e-05
0.000115794
-2.70346e-05
0.000126109
-3.24215e-05
0.00013453
-3.77492e-05
0.000141158
-4.28411e-05
0.000146138
-4.75111e-05
0.000149666
-5.15659e-05
0.000152008
-5.48123e-05
0.000153527
-5.70719e-05
0.000154718
-5.82081e-05
0.000156241
-5.81681e-05
0.000158956
-5.70457e-05
0.000163941
-5.51454e-05
0.000172339
0.000185028
-5.2912e-05
-5.60487e-07
1.29646e-05
-2.10954e-06
3.59985e-05
-4.54365e-06
5.70914e-05
-7.74607e-06
7.61392e-05
-1.15892e-05
9.30732e-05
-1.59359e-05
0.00010786
-2.06403e-05
0.000120498
-2.55477e-05
0.000131017
-3.04931e-05
0.000139475
-3.53003e-05
0.000145965
-3.97796e-05
0.000150617
-4.3727e-05
0.000153613
-4.69254e-05
0.000155207
-4.91503e-05
0.000155752
-5.01845e-05
0.000155752
-4.98468e-05
0.000155903
-4.80408e-05
0.00015715
-4.48324e-05
0.000160733
-4.05395e-05
0.000168046
0.000180112
-3.56232e-05
-5.3894e-07
1.35035e-05
-2.02355e-06
3.74831e-05
-4.34803e-06
5.94159e-05
-7.3929e-06
7.9184e-05
-1.10273e-05
9.67076e-05
-1.51103e-05
0.000111943
-1.94914e-05
0.00012488
-2.40101e-05
0.000135536
-2.84942e-05
0.000143959
-3.27575e-05
0.000150228
-3.65971e-05
0.000154457
-3.9791e-05
0.000156807
-4.20975e-05
0.000157513
-4.32591e-05
0.000156914
-4.30162e-05
0.000155509
-4.11366e-05
0.000154023
-3.74711e-05
0.000153485
-3.20471e-05
0.000155309
-2.52158e-05
0.000161215
0.000172376
-1.74799e-05
-5.17647e-07
1.40211e-05
-1.93751e-06
3.8903e-05
-4.15066e-06
6.1629e-05
-7.03411e-06
8.20675e-05
-1.04531e-05
0.000100127
-1.42624e-05
0.000115752
-1.83065e-05
0.000128924
-2.2419e-05
0.000139648
-2.64199e-05
0.00014796
-3.01134e-05
0.000153922
-3.32834e-05
0.000157627
-3.56898e-05
0.000159214
-3.70658e-05
0.000158889
-3.71199e-05
0.000156968
-3.55465e-05
0.000153936
-3.20554e-05
0.000150532
-2.64328e-05
0.000147862
-1.86385e-05
0.000147514
-9.00977e-06
0.000151586
0.000162673
6.92902e-07
-4.96656e-07
1.45178e-05
-1.85154e-06
4.02578e-05
-3.95161e-06
6.37291e-05
-6.66954e-06
8.47854e-05
-9.86595e-06
0.000103323
-1.33907e-05
0.000119277
-1.70827e-05
0.000132616
-2.07692e-05
0.000143334
-2.42624e-05
0.000151453
-2.73566e-05
0.000157016
-2.98226e-05
0.000160093
-3.14024e-05
0.000160793
-3.18044e-05
0.000159291
-3.07018e-05
0.000155865
-2.77406e-05
0.000150974
-2.25655e-05
0.000145357
-1.48839e-05
0.000140181
-4.57954e-06
0.00013721
8.16782e-06
0.000138839
0.00014856
2.22805e-05
-4.75986e-07
1.49938e-05
-1.76561e-06
4.15475e-05
-3.75071e-06
6.57142e-05
-6.29863e-06
8.73333e-05
-9.26454e-06
0.000106289
-1.24925e-05
0.000122505
-1.58154e-05
0.000135939
-1.90533e-05
0.000146572
-2.20105e-05
0.00015441
-2.4471e-05
0.000159476
-2.61927e-05
0.000161814
-2.68999e-05
0.000161501
-2.62763e-05
0.000158667
-2.39603e-05
0.000153549
-1.95474e-05
0.000146562
-1.26125e-05
0.000138422
-2.76955e-06
0.000130338
1.01949e-05
0.000124246
2.60846e-05
0.000122949
0.000130573
4.40722e-05
-4.55628e-07
1.54494e-05
-1.67964e-06
4.27715e-05
-3.54757e-06
6.75821e-05
-5.92039e-06
8.97062e-05
-8.64681e-06
0.000109015
-1.15642e-05
0.000125423
-1.44985e-05
0.000138873
-1.72619e-05
0.000149336
-1.965e-05
0.000156799
-2.14363e-05
0.000161263
-2.23654e-05
0.000162744
-2.21445e-05
0.00016128
-2.04333e-05
0.000156956
-1.68357e-05
0.000149952
-1.08969e-05
0.000140623
-2.1183e-06
0.000129644
9.98692e-06
0.000118232
2.57539e-05
0.000108479
4.50817e-05
0.000103622
0.000108546
6.71084e-05
-4.35549e-07
1.5885e-05
-1.59341e-06
4.39293e-05
-3.34156e-06
6.93303e-05
-5.53343e-06
9.1898e-05
-8.01007e-06
0.000111492
-1.06011e-05
0.000128014
-1.31243e-05
0.000141396
-1.53831e-05
0.000151595
-1.71634e-05
0.000158579
-1.82274e-05
0.000162327
-1.83063e-05
0.000162822
-1.70899e-05
0.000160063
-1.42149e-05
0.000154081
-9.25216e-06
0.000144989
-1.69786e-06
0.000133068
9.0201e-06
0.000118926
2.34972e-05
0.000103755
4.22087e-05
8.97671e-05
6.51848e-05
8.06454e-05
8.21764e-05
9.15544e-05
-4.15694e-07
1.63007e-05
-1.50661e-06
4.50203e-05
-3.13187e-06
7.09555e-05
-5.13595e-06
9.39021e-05
-7.35101e-06
0.000113707
-9.59755e-06
0.00013026
-1.16838e-05
0.000143482
-1.34031e-05
0.000153314
-1.45304e-05
0.000159706
-1.48153e-05
0.000162612
-1.39748e-05
0.000161982
-1.16812e-05
0.00015777
-7.54881e-06
0.000149949
-1.1174e-06
0.000138558
8.16295e-06
0.000123788
2.09359e-05
0.000106153
3.79073e-05
8.67839e-05
5.97089e-05
6.79655e-05
8.65393e-05
5.38151e-05
5.11417e-05
0.000117574
-3.95983e-07
1.66966e-05
-1.41888e-06
4.60432e-05
-2.91746e-06
7.24541e-05
-4.72583e-06
9.57105e-05
-6.66571e-06
0.000115647
-8.54693e-06
0.000132141
-1.01665e-05
0.000145102
-1.13062e-05
0.000154454
-1.17278e-05
0.000160128
-1.1167e-05
0.000162051
-9.32485e-06
0.00016014
-5.85555e-06
0.0001543
-3.51335e-07
0.000144445
7.67699e-06
0.000130529
1.88213e-05
0.000112644
3.37913e-05
9.11829e-05
5.34005e-05
6.71747e-05
7.84474e-05
4.29186e-05
0.000109335
2.29271e-05
1.51125e-05
0.000145365
-3.76322e-07
1.7073e-05
-1.32975e-06
4.69966e-05
-2.69712e-06
7.38215e-05
-4.30059e-06
9.7314e-05
-5.94973e-06
0.000117296
-7.44193e-06
0.000133634
-8.56113e-06
0.000146221
-9.075e-06
0.000154967
-8.73028e-06
0.000159783
-7.24626e-06
0.000160567
-4.30584e-06
0.000157199
4.56511e-07
0.000149538
7.47098e-06
0.00013743
1.72538e-05
0.000120747
3.04337e-05
9.94639e-05
4.7778e-05
7.38385e-05
7.0199e-05
4.47537e-05
9.86634e-05
1.44543e-05
0.000133811
-1.222e-05
-2.62337e-05
0.000175157
-3.56596e-07
1.74296e-05
-1.23868e-06
4.78787e-05
-2.46948e-06
7.50523e-05
-3.85744e-06
9.87019e-05
-5.19815e-06
0.000118637
-6.27447e-06
0.00013471
-6.85498e-06
0.000146802
-6.69078e-06
0.000154803
-5.51063e-06
0.000158603
-3.01425e-06
0.000158071
1.13655e-06
0.000153049
7.32976e-06
0.000143345
1.60193e-05
0.000128741
2.77474e-05
0.000109018
4.31743e-05
8.4037e-05
6.31139e-05
5.38989e-05
8.85618e-05
1.93058e-05
0.000120643
-1.76266e-05
0.000160251
-5.18287e-05
-7.31955e-05
0.000207213
-3.36673e-07
1.77662e-05
-1.14506e-06
4.86871e-05
-2.23299e-06
7.61402e-05
-3.39331e-06
9.98622e-05
-4.40557e-06
0.000119649
-5.03584e-06
0.00013534
-5.0347e-06
0.0001468
-4.13368e-06
0.000153902
-2.04011e-06
0.000156509
1.56969e-06
0.000154461
7.05905e-06
0.000147559
1.48423e-05
0.000135562
2.53999e-05
0.000118183
3.93002e-05
9.51181e-05
5.72301e-05
6.6107e-05
8.00376e-05
3.10914e-05
0.000108779
-9.43603e-06
0.000144714
-5.35609e-05
0.000188992
-9.61071e-05
-0.000126033
0.000241829
-3.16407e-07
1.80826e-05
-1.04821e-06
4.94189e-05
-1.98594e-06
7.70779e-05
-2.90484e-06
0.000100781
-3.56619e-06
0.00012031
-3.71673e-06
0.000135491
-3.08614e-06
0.00014617
-1.38295e-06
0.000152199
1.71097e-06
0.000153415
6.54729e-06
0.000149624
1.35195e-05
0.000140587
2.30735e-05
0.000126008
3.57206e-05
0.000105536
5.20574e-05
7.87814e-05
7.27941e-05
4.53703e-05
9.87995e-05
5.086e-06
0.000131164
-4.18009e-05
0.00017124
-9.36368e-05
0.000220412
-0.000145279
-0.000184949
0.000279328
-2.95629e-07
1.83783e-05
-9.47367e-07
5.00706e-05
-1.72645e-06
7.7857e-05
-2.38836e-06
0.000101443
-2.67374e-06
0.000120596
-2.30728e-06
0.000135124
-9.94514e-07
0.000144857
1.58286e-06
0.000149622
5.77294e-06
0.000149225
1.19607e-05
0.000143437
2.05758e-05
0.000131972
3.2102e-05
0.000114482
4.70878e-05
9.055e-05
6.61619e-05
5.97073e-05
9.0057e-05
2.14752e-05
0.000119651
-2.4508e-05
0.000156038
-7.81877e-05
0.000200607
-0.000138206
0.000254923
-0.000199595
-0.000250074
0.000320048
-2.74152e-07
1.86524e-05
-8.41684e-07
5.06381e-05
-1.45245e-06
7.84678e-05
-1.8399e-06
0.00010183
-1.72155e-06
0.000120477
-7.97071e-07
0.0001342
1.25561e-06
0.000142804
4.78577e-06
0.000146091
1.01765e-05
0.000143835
1.78517e-05
0.000135761
2.82844e-05
0.000121539
4.20035e-05
0.000100762
5.96025e-05
7.2951e-05
8.17488e-05
3.7561e-05
0.000109199
-5.9754e-06
0.000142832
-5.8141e-05
0.000183714
-0.000119069
0.000233202
-0.000187694
0.000292963
-0.000259356
-0.000321447
0.000364336
-2.51758e-07
1.89042e-05
-7.30211e-07
5.11166e-05
-1.16164e-06
7.88992e-05
-1.25515e-06
0.000101924
-7.02422e-07
0.000119925
8.24935e-07
0.000132672
3.68029e-06
0.000139949
8.24834e-06
0.000141523
1.49523e-05
0.000137131
2.42618e-05
0.000126452
3.66999e-05
0.000109101
5.28495e-05
8.46128e-05
7.33579e-05
5.24426e-05
9.89399e-05
1.19791e-05
0.000130382
-3.74176e-05
0.000168558
-9.63173e-05
0.00021448
-0.000164991
0.000269396
-0.00024261
0.000334971
-0.000324931
-0.000399
0.000412525
-2.282e-07
1.91324e-05
-6.11879e-07
5.15003e-05
-8.51495e-07
7.91388e-05
-6.29384e-07
0.000101702
3.91379e-07
0.000118904
2.57044e-06
0.000130493
6.29634e-06
0.000136223
1.19937e-05
0.000135826
2.01316e-05
0.000128993
3.12313e-05
0.000115352
4.58741e-05
9.44583e-05
6.47055e-05
6.57814e-05
8.84364e-05
2.87117e-05
0.000117839
-1.74237e-05
0.000153739
-7.33173e-05
0.000197007
-0.000139585
0.000248579
-0.000216564
0.000309517
-0.000303548
0.000381371
-0.000396784
-0.000482544
0.000464915
-2.03191e-07
1.93356e-05
-4.85485e-07
5.17826e-05
-5.192e-07
7.91725e-05
4.26746e-08
0.00010114
1.5682e-06
0.000117378
4.45192e-06
0.00012761
9.12134e-06
0.000131554
1.60457e-05
0.000128902
2.57453e-05
0.000119293
3.87998e-05
0.000102298
5.58559e-05
7.74022e-05
7.76303e-05
4.4007e-05
0.000104908
1.43442e-06
0.000138529
-5.1045e-05
0.000179369
-0.000114157
0.000228304
-0.00018852
0.000286189
-0.000274449
0.00035383
-0.000371188
0.000432553
-0.000475507
-0.000571743
0.000521751
-1.76401e-07
1.9512e-05
-3.49669e-07
5.19558e-05
-1.61634e-07
7.89845e-05
7.66408e-07
0.000100212
2.83711e-06
0.000115308
6.48273e-06
0.000123964
1.21738e-05
0.000125863
2.0429e-05
0.000120647
3.18249e-05
0.000107897
4.70058e-05
8.71167e-05
6.66907e-05
5.77173e-05
9.16753e-05
1.90224e-05
0.000122827
-2.97172e-05
0.000161066
-8.92844e-05
0.000207331
-0.000160422
0.000262518
-0.000243707
0.000327405
-0.000339336
0.000402506
-0.000446289
0.00048885
-0.000561852
-0.00066609
0.000583197
-1.47443e-07
1.96594e-05
-2.02898e-07
5.20113e-05
2.24659e-07
7.85569e-05
1.54833e-06
9.88883e-05
4.20794e-06
0.000112648
8.67715e-06
0.000119495
1.54734e-05
0.000119066
2.5169e-05
0.000110951
3.84022e-05
9.46641e-05
5.58871e-05
6.96319e-05
7.84206e-05
3.51838e-05
0.000106884
-9.44093e-06
0.000142234
-6.50673e-05
0.00018548
-0.000132531
0.000237637
-0.00021258
0.000299641
-0.000305711
0.000372217
-0.000411911
0.000455593
-0.000529666
0.000550461
-0.00065672
-0.000764997
0.000649368
-1.15875e-07
1.97753e-05
-4.32568e-08
5.19387e-05
6.43533e-07
7.78702e-05
2.39514e-06
9.71367e-05
5.69134e-06
0.000109352
1.10505e-05
0.000114136
1.90408e-05
0.000111076
3.02924e-05
9.96994e-05
4.55094e-05
7.9447e-05
6.54803e-05
4.96609e-05
9.10843e-05
9.57977e-06
0.000123291
-4.16479e-05
0.000163151
-0.000104927
0.000211768
-0.000181148
0.000270247
-0.000271058
0.000339592
-0.000375056
0.000420527
-0.000492846
0.000513064
-0.000622203
0.000617336
-0.000760991
-0.000868192
0.000720531
-8.12534e-08
1.98565e-05
1.30545e-07
5.17269e-05
1.09916e-06
7.69015e-05
3.31424e-06
9.49216e-05
7.29875e-06
0.000105367
1.36191e-05
0.000107815
2.28977e-05
0.000101797
3.58264e-05
8.67706e-05
5.3179e-05
6.20944e-05
7.58212e-05
2.70188e-05
0.000104716
-1.93151e-05
0.000140922
-7.78543e-05
0.000185582
-0.000149587
0.000239891
-0.000235457
0.000305052
-0.000336219
0.000382179
-0.000452184
0.000472139
-0.000582805
0.000575053
-0.000725116
0.000689692
-0.000875631
-0.000975599
0.000797099
-4.3005e-08
1.98995e-05
3.21202e-07
5.13627e-05
1.59615e-06
7.56266e-05
4.31359e-06
9.22042e-05
9.04237e-06
0.000100639
1.64e-05
0.000100458
2.70667e-05
9.11308e-05
4.17991e-05
7.20382e-05
6.14433e-05
4.24503e-05
8.69433e-05
1.51873e-06
0.000119345
-5.17171e-05
0.000159792
-0.000118301
0.000209508
-0.000199303
0.000269768
-0.000295717
0.000341861
-0.000408311
0.000427033
-0.000537356
0.000526486
-0.000682258
0.000641378
-0.000840009
0.000770271
-0.00100452
-0.00108326
0.000877932
-1.96364e-10
1.98997e-05
5.30636e-07
5.08318e-05
2.13912e-06
7.40181e-05
5.40135e-06
8.89419e-05
1.09348e-05
9.51051e-05
1.9411e-05
9.19815e-05
3.1571e-05
7.89709e-05
4.82388e-05
5.53704e-05
7.03338e-05
2.03553e-05
9.88781e-05
-2.70255e-05
0.000134996
-8.7835e-05
0.000179904
-0.000163209
0.000234891
-0.000254289
0.000301281
-0.000362108
0.000380405
-0.000487435
0.000473585
-0.000630535
0.000582257
-0.00079093
0.000708535
-0.000966287
0.000857884
-0.00115387
-0.00130449
0.00107912
4.69479e-08
1.98528e-05
7.61546e-07
5.01172e-05
2.73379e-06
7.20459e-05
6.58697e-06
8.50888e-05
1.29899e-05
8.87022e-05
2.2671e-05
8.23003e-05
3.64344e-05
6.52075e-05
5.51733e-05
3.66315e-05
7.98806e-05
-4.35199e-06
0.000111653
-5.87975e-05
0.000151684
-0.000127866
0.000201249
-0.000212774
0.000261671
-0.000314711
0.000334281
-0.000434718
0.000420375
-0.00057353
0.000521208
-0.000731368
0.000638133
-0.000907855
0.000773412
-0.00110157
0.000930805
-0.00131127
-0.0015054
0.00113171
1.00055e-07
1.97527e-05
1.01634e-06
4.9201e-05
3.38523e-06
6.9677e-05
7.87924e-06
8.05947e-05
1.52209e-05
8.13606e-05
2.61981e-05
7.13231e-05
4.16798e-05
4.97258e-05
6.26291e-05
1.56823e-05
9.01103e-05
-3.18332e-05
0.000125288
-9.39756e-05
0.000169415
-0.000171993
0.000223802
-0.000267161
0.000289772
-0.000380681
0.000368604
-0.00051355
0.000461471
-0.000666397
0.000569407
-0.000839305
0.00069335
-0.0010318
0.000834724
-0.00124294
0.000994557
-0.0014711
-0.00169436
0.00118352
1.5947e-07
1.95933e-05
1.29759e-06
4.80628e-05
4.09892e-06
6.68757e-05
9.28732e-06
7.54063e-05
1.76414e-05
7.30066e-05
3.00102e-05
5.89542e-05
4.7329e-05
3.24069e-05
7.063e-05
-7.61866e-06
0.000101045
-6.22486e-05
0.0001398
-0.00013273
0.000188186
-0.000220379
0.000247523
-0.000326498
0.000319094
-0.000452253
0.000404065
-0.000598521
0.000503396
-0.000765728
0.000617775
-0.000953684
0.000747551
-0.00116157
0.000893085
-0.00138847
0.0010536
-0.00163161
-0.00187431
0.00123355
2.25942e-07
1.93673e-05
1.6079e-06
4.66809e-05
4.8803e-06
6.36033e-05
1.08203e-05
6.94664e-05
2.02642e-05
6.35626e-05
3.41242e-05
4.50942e-05
5.34019e-05
1.31293e-05
7.91963e-05
-3.3413e-05
0.000112701
-9.57537e-05
0.000155189
-0.000175218
0.000207973
-0.000273163
0.00027235
-0.000390874
0.000349512
-0.000529416
0.000440452
-0.00068946
0.000545837
-0.000871113
0.000665917
-0.00107376
0.000800386
-0.00129604
0.000948577
-0.00153666
0.00110847
-0.0017915
-0.00204684
0.001281
3.0021e-07
1.90671e-05
1.94987e-06
4.50312e-05
5.73469e-06
5.98184e-05
1.24867e-05
6.27144e-05
2.31018e-05
5.29475e-05
3.85555e-05
2.96405e-05
5.99152e-05
-8.23036e-06
8.83429e-05
-6.18408e-05
0.000125086
-0.000132497
0.000171448
-0.00022158
0.000228739
-0.000330454
0.000298193
-0.000460328
0.000380867
-0.00061209
0.000477514
-0.000786107
0.000588442
-0.000982041
0.000713399
-0.00119872
0.000851418
-0.00143406
0.0010009
-0.00168615
0.00115898
-0.00194958
-0.0022126
0.00132473
3.82995e-07
1.86841e-05
2.32598e-06
4.30882e-05
6.66712e-06
5.54773e-05
1.42947e-05
5.50868e-05
2.6165e-05
4.10771e-05
4.33171e-05
1.24884e-05
6.68818e-05
-3.1795e-05
9.80786e-05
-9.30375e-05
0.000138196
-0.000172615
0.000188551
-0.000271935
0.000250419
-0.000392321
0.000324934
-0.000534843
0.000412963
-0.00070012
0.000514961
-0.000888105
0.00063082
-0.0010979
0.000759748
-0.00132765
0.000900141
-0.00157445
0.00104962
-0.00183563
0.00120476
-0.00210472
-0.00237154
0.0013637
4.74982e-07
1.82091e-05
2.73855e-06
4.08247e-05
7.68221e-06
5.05336e-05
1.62513e-05
4.65177e-05
2.94631e-05
2.78654e-05
4.84191e-05
-6.46765e-06
7.43097e-05
-5.76856e-05
0.000108404
-0.000127132
0.000152017
-0.000216228
0.000206456
-0.000326374
0.000272928
-0.000458793
0.000352423
-0.000614338
0.000445567
-0.000793263
0.000552461
-0.000994999
0.000672537
-0.00121798
0.000804453
-0.00145956
0.000946019
-0.00171602
0.00109424
-0.00198385
0.00124537
-0.00225585
-0.00252329
0.00139712
5.76808e-07
1.76323e-05
3.18972e-06
3.82117e-05
8.78406e-06
4.49393e-05
1.83628e-05
3.6939e-05
3.30035e-05
1.32247e-05
5.3868e-05
-2.73322e-05
8.2201e-05
-8.60186e-05
0.00011931
-0.00016424
0.00016652
-0.000263438
0.0002251
-0.000384954
0.000296153
-0.000529847
0.000380478
-0.000698663
0.000478407
-0.000891192
0.000589644
-0.00110624
0.000713132
-0.00134146
0.00084699
-0.00159342
0.000988518
-0.00185755
0.00113427
-0.00212959
0.0012804
-0.00240198
-0.00266738
0.00142449
6.89051e-07
1.69433e-05
3.68134e-06
3.52195e-05
9.97611e-06
3.86445e-05
2.06337e-05
2.62814e-05
3.67909e-05
-2.93255e-06
5.96663e-05
-5.02076e-05
9.05513e-05
-0.000116904
0.000130778
-0.000204467
0.000181661
-0.000314321
0.0002444
-0.000447693
0.000319955
-0.000605401
0.000408884
-0.000787593
0.000511181
-0.000993488
0.000626112
-0.00122117
0.000752126
-0.00146748
0.000886839
-0.00172814
0.00102713
-0.00199784
0.00116929
-0.00227175
0.00130953
-0.00254222
-0.00280336
0.00144551
8.12213e-07
1.61311e-05
4.21497e-06
3.18167e-05
1.1261e-05
3.15985e-05
2.30673e-05
1.44752e-05
4.08275e-05
-2.06927e-05
6.58118e-05
-7.5192e-05
9.93486e-05
-0.00015044
0.000142779
-0.000247898
0.000197381
-0.000368923
0.000264253
-0.000514565
0.000344167
-0.000685315
0.000437398
-0.000880825
0.000543556
-0.00109965
0.000661451
-0.00133906
0.000789046
-0.00159507
0.000923513
-0.0018626
0.00106143
-0.00213576
0.00119897
-0.00240929
0.00133258
-0.00267583
-0.00293091
0.00146013
9.46718e-07
1.51844e-05
4.79182e-06
2.79716e-05
1.26407e-05
2.37496e-05
2.56651e-05
1.45074e-06
4.51123e-05
-4.014e-05
7.22974e-05
-0.000102377
0.000108573
-0.000186716
0.000155272
-0.000294596
0.000213605
-0.000427256
0.000284534
-0.000585494
0.000368601
-0.000769382
0.000465753
-0.000977977
0.000575185
-0.00120908
0.000695243
-0.00145912
0.000823435
-0.00172327
0.000956574
-0.00199574
0.00109106
-0.00227024
0.00122311
-0.00254134
0.00134952
-0.00280224
-0.00304985
0.00146846
1.0929e-06
1.40914e-05
5.41273e-06
2.36518e-05
1.41159e-05
1.50465e-05
2.84268e-05
-1.28601e-05
4.96413e-05
-6.13545e-05
7.91105e-05
-0.000131846
0.000118198
-0.000225804
0.000168203
-0.000344601
0.000230242
-0.000489295
0.000305099
-0.000660351
0.000393046
-0.000857328
0.000493662
-0.00107859
0.00060571
-0.00132112
0.000727079
-0.00158049
0.000854879
-0.00185107
0.000985658
-0.00212652
0.00111576
-0.00240035
0.00124161
-0.00266718
0.00136042
-0.00292105
-0.0031602
0.00147077
1.25101e-06
1.28404e-05
6.07814e-06
1.88246e-05
1.56867e-05
5.43787e-06
3.13501e-05
-2.85236e-05
5.44069e-05
-8.44113e-05
8.62333e-05
-0.000163673
0.000128186
-0.000267757
0.000181507
-0.000397922
0.000247186
-0.000554974
0.000325788
-0.000738954
0.000417274
-0.000948814
0.00052083
-0.00118215
0.000634776
-0.00143507
0.000756577
-0.00170229
0.000883015
-0.0019775
0.00101048
-0.00225399
0.0011354
-0.00252526
0.0012545
-0.00278629
0.00136552
-0.00303207
-0.00326212
0.00146743
1.42119e-06
1.14193e-05
6.7881e-06
1.34577e-05
1.7352e-05
-5.12605e-06
3.44308e-05
-4.56024e-05
5.93978e-05
-0.000109378
9.3642e-05
-0.000197917
0.000138494
-0.000312609
0.00019511
-0.000454538
0.000264315
-0.00062418
0.000346423
-0.000821061
0.000441046
-0.00104344
0.000546957
-0.00128806
0.000662043
-0.00155016
0.000783392
-0.00182364
0.000907546
-0.00210166
0.00103086
-0.0023773