/*--------------------------------*- C++ -*----------------------------------*\
  =========                 |
  \\      /  F ield         | OpenFOAM: The Open Source CFD Toolbox
   \\    /   O peration     | Website:  https://openfoam.org
    \\  /    A nd           | Version:  7
     \\/     M anipulation  |
\*---------------------------------------------------------------------------*/
FoamFile
{
    version     2.0;
    format      ascii;
    class       surfaceScalarField;
    location    "100";
    object      phi;
}
// * * * * * * * * * * * * * * * * * * * * * * * * * * * * * * * * * * * * * //

dimensions      [0 3 -1 0 0 0 0];

internalField   nonuniform List<scalar> 
72657
(
-1.65019e-06
3.42798e-05
-3.26296e-05
-6.10499e-06
8.27897e-05
-7.83349e-05
-1.30617e-05
0.00011545
-0.000108493
-2.22529e-05
0.000133997
-0.000124805
-3.34504e-05
0.0001404
-0.000129203
-4.64671e-05
0.000136726
-0.000123709
-6.11551e-05
0.000124992
-0.000110304
-7.74013e-05
0.000107024
-9.07774e-05
-9.51219e-05
8.43161e-05
-6.65955e-05
-0.000114257
5.79443e-05
-3.88091e-05
-0.000134769
2.85181e-05
-8.00613e-06
-0.000156642
-3.81022e-06
2.56834e-05
-0.000179888
-3.92988e-05
6.25449e-05
-0.000204553
-7.85473e-05
0.000103212
-0.000230721
-0.00012243
0.000148598
-0.000258521
-0.000172051
0.000199851
-0.000288125
-0.000228724
0.000258328
-0.000319733
-0.000293983
0.000325591
-0.00035354
-0.000369582
0.00040339
-0.000457653
0.000493853
-0.000389741
-1.62509e-06
3.59049e-05
-6.03896e-06
8.72036e-05
-1.29646e-05
0.000122375
-2.21524e-05
0.000143184
-3.33844e-05
0.000151632
-4.64773e-05
0.000149818
-6.12813e-05
0.000139796
-7.76779e-05
0.00012342
-9.5576e-05
0.000102214
-0.000114908
7.72767e-05
-0.000135631
4.92409e-05
-0.000157726
1.82847e-05
-0.000181206
-1.58188e-05
-0.000206123
-5.36304e-05
-0.000232576
-9.59778e-05
-0.000260714
-0.000143912
-0.00029074
-0.000198698
-0.000322896
-0.000261827
-0.00035743
-0.000335049
-0.00042048
-0.000394602
-1.58589e-06
3.74908e-05
-5.9233e-06
9.1541e-05
-1.27649e-05
0.000129217
-2.18815e-05
0.000152301
-3.30669e-05
0.000162818
-4.61417e-05
0.000162893
-6.09538e-05
0.000154608
-7.73778e-05
0.000139844
-9.5313e-05
0.000120149
-0.000114682
9.66455e-05
-0.000135431
6.99898e-05
-0.000157533
4.03875e-05
-0.000180998
7.64584e-06
-0.000205876
-2.87527e-05
-0.00023227
-6.95837e-05
-0.000260343
-0.000115839
-0.000290319
-0.000168722
-0.000322474
-0.000229673
-0.000357101
-0.000300422
-0.000383058
-0.000394523
-1.5323e-06
3.90231e-05
-5.75678e-06
9.57655e-05
-1.24596e-05
0.00013592
-2.14347e-05
0.000161276
-3.24894e-05
0.000173872
-4.54488e-05
0.000175853
-6.01579e-05
0.000169317
-7.64832e-05
0.00015617
-9.43124e-05
0.000137979
-0.000113555
0.000115888
-0.000134143
9.05781e-05
-0.000156038
6.22826e-05
-0.000179237
3.08447e-05
-0.000203782
-4.20756e-06
-0.000229773
-4.35932e-05
-0.000257373
-8.82387e-05
-0.000286819
-0.000139276
-0.000318412
-0.00019808
-0.000352485
-0.000266349
-0.000346125
-0.000389418
-1.46422e-06
4.04873e-05
-5.53879e-06
9.984e-05
-1.20472e-05
0.000142428
-2.08091e-05
0.000170038
-3.16472e-05
0.000184711
-4.43917e-05
0.000188597
-5.88847e-05
0.00018381
-7.49835e-05
0.000172268
-9.25625e-05
0.000155558
-0.000111515
0.00013484
-0.000131756
0.000110819
-0.00015323
8.3756e-05
-0.000175914
5.35293e-05
-0.000199836
1.97143e-05
-0.00022508
-1.83491e-05
-0.000251803
-6.15163e-05
-0.00028024
-0.000110839
-0.000310709
-0.000167611
-0.000343576
-0.000233481
-0.000310428
-0.000379273
-1.38181e-06
4.18691e-05
-5.26959e-06
0.000103728
-1.15278e-05
0.000148686
-2.00044e-05
0.000178514
-3.05391e-05
0.000195245
-4.29683e-05
0.000201026
-5.71312e-05
0.000197973
-7.28753e-05
0.000188012
-9.00601e-05
0.000172742
-0.00010856
0.000153341
-0.000128271
0.00013053
-0.000149112
0.000104597
-0.00017104
7.54567e-05
-0.000194055
4.2729e-05
-0.000218218
5.81401e-06
-0.000243665
-3.60685e-05
-0.000270624
-8.38807e-05
-0.000299414
-0.000138821
-0.00033043
-0.000202464
-0.00027671
-0.000364149
-1.28541e-06
4.31545e-05
-4.9502e-06
0.000107393
-1.0903e-05
0.000154639
-1.90229e-05
0.000186634
-2.91678e-05
0.00020539
-4.11814e-05
0.00021304
-5.49005e-05
0.000211692
-7.01625e-05
0.000203274
-8.68107e-05
0.000189391
-0.0001047
0.00017123
-0.0001237
0.00014953
-0.000143705
0.000124603
-0.000164641
9.63923e-05
-0.000186475
6.45635e-05
-0.000209236
2.85748e-05
-0.000233027
-1.22772e-05
-0.000258052
-5.8856e-05
-0.000284626
-0.000112247
-0.000313162
-0.000173928
-0.000245693
-0.000344178
-1.17567e-06
4.43302e-05
-4.58245e-06
0.000110799
-1.01763e-05
0.000160233
-1.78693e-05
0.000194327
-2.75392e-05
0.00021506
-3.90382e-05
0.000224539
-5.22014e-05
0.000224856
-6.68558e-05
0.000217929
-8.28281e-05
0.000205363
-9.99504e-05
0.000188352
-0.000118067
0.000167647
-0.00013704
0.000143576
-0.00015676
0.000116112
-0.000177156
8.49589e-05
-0.000198211
4.96297e-05
-0.000219985
9.49713e-06
-0.000242646
-3.61952e-05
-0.000266489
-8.8404e-05
-0.000291942
-0.000148476
-0.000218074
-0.00031956
-1.05356e-06
4.53838e-05
-4.16922e-06
0.000113915
-9.35244e-06
0.000165416
-1.65508e-05
0.000201526
-2.56628e-05
0.000224172
-3.65504e-05
0.000235427
-4.9048e-05
0.000237353
-6.29726e-05
0.000231853
-7.81333e-05
0.000220524
-9.43392e-05
0.000204558
-0.000111406
0.000184713
-0.000129161
0.000161332
-0.000147455
0.000134407
-0.00016617
0.000103674
-0.000185237
6.86964e-05
-0.000204662
2.89225e-05
-0.000224559
-1.62983e-05
-0.000245193
-6.77702e-05
-0.000266994
-0.000126675
-0.000194513
-0.000290556
-9.20298e-07
4.63041e-05
-3.71414e-06
0.000116709
-8.43806e-06
0.00017014
-1.50766e-05
0.000208164
-2.35509e-05
0.000232646
-3.37339e-05
0.00024561
-4.54598e-05
0.000249079
-5.85362e-05
0.00024493
-7.27549e-05
0.000234742
-8.79008e-05
0.000219704
-0.000103759
0.000200572
-0.000120122
0.000177694
-0.000136795
0.00015108
-0.000153608
0.000120487
-0.000170431
8.55195e-05
-0.000187204
4.56955e-05
-0.000203976
4.73231e-07
-0.000220963
-5.07833e-05
-0.000238589
-0.000109048
-0.000175621
-0.000257481
-7.77303e-07
4.70814e-05
-3.22154e-06
0.000119153
-7.44114e-06
0.00017436
-1.34587e-05
0.000214182
-2.12196e-05
0.000240407
-3.06087e-05
0.000254999
-4.14613e-05
0.000259932
-5.35761e-05
0.000257045
-6.67279e-05
0.000247894
-8.06772e-05
0.000233653
-9.51787e-05
0.000215073
-0.000109986
0.000192502
-0.000124858
0.000165952
-0.000139569
0.000135197
-0.00015392
9.98704e-05
-0.000167774
5.95497e-05
-0.000181101
1.38004e-05
-0.000194053
-3.78313e-05
-0.000207036
-9.60659e-05
-0.000161961
-0.000220695
-6.26085e-07
4.77075e-05
-2.69643e-06
0.000121223
-6.37096e-06
0.000178034
-1.17112e-05
0.000219522
-1.86879e-05
0.000247384
-2.71992e-05
0.00026351
-3.70821e-05
0.000269815
-4.81274e-05
0.00026809
-6.00935e-05
0.00025986
-7.27172e-05
0.000246277
-8.5722e-05
0.000228078
-9.88231e-05
0.000205603
-0.000111731
0.00017886
-0.00012416
0.000147626
-0.000135839
0.00011155
-0.000146546
7.02563e-05
-0.000156157
2.34114e-05
-0.000164741
-2.92469e-05
-0.000172671
-8.81362e-05
-0.000154037
-0.000180596
-4.68259e-07
4.81757e-05
-2.14411e-06
0.000122899
-5.23817e-06
0.000181128
-9.85037e-06
0.000224134
-1.5978e-05
0.000253512
-2.35332e-05
0.000271065
-3.2356e-05
0.000278637
-4.22302e-05
0.000277964
-5.28986e-05
0.000270528
-6.40752e-05
0.000257453
-7.54531e-05
0.000239456
-8.67088e-05
0.000216859
-9.75051e-05
0.000189657
-0.000107495
0.000157615
-0.000116331
0.000120386
-0.000123699
7.76243e-05
-0.000129371
2.90831e-05
-0.000133315
-2.53027e-05
-0.000135852
-8.55997e-05
-0.000152284
-0.000137604
-3.05568e-07
4.84813e-05
-1.57039e-06
0.000124164
-4.05407e-06
0.000183612
-7.89431e-06
0.000227974
-1.31147e-05
0.000258732
-1.96422e-05
0.000277593
-2.73211e-05
0.000286316
-3.59292e-05
0.000286572
-4.51952e-05
0.000279794
-5.48111e-05
0.000267069
-6.44406e-05
0.000249085
-7.3723e-05
0.000226141
-8.22738e-05
0.000198208
-8.96853e-05
0.000165027
-9.55345e-05
0.000126235
-9.94091e-05
8.14989e-05
-0.000100967
3.0641e-05
-0.000100062
-2.6208e-05
-9.69423e-05
-8.87191e-05
-0.000157063
-9.21634e-05
-1.39888e-07
4.86212e-05
-9.8154e-07
0.000125006
-2.83103e-06
0.000185461
-5.86236e-06
0.000231006
-1.01251e-05
0.000262995
-1.5561e-05
0.000283029
-2.20194e-05
0.000292775
-2.92738e-05
0.000293827
-3.70399e-05
0.000287561
-4.49891e-05
0.000275018
-5.27574e-05
0.000256853
-5.99487e-05
0.000233332
-6.61331e-05
0.000204392
-7.08447e-05
0.000169738
-7.35848e-05
0.000128975
-7.38429e-05
8.17569e-05
-7.11563e-05
2.79545e-05
-6.525e-05
-3.21143e-05
-5.63174e-05
-9.76517e-05
-0.000168634
-4.47463e-05
2.63492e-08
4.85948e-05
-3.84211e-07
0.000125416
-1.58206e-06
0.000186659
-3.77529e-06
0.000233199
-7.0379e-06
0.000266257
-1.13265e-05
0.000287317
-1.64962e-05
0.000297944
-2.23172e-05
0.000299648
-2.84937e-05
0.000293737
-3.4678e-05
0.000281203
-4.04804e-05
0.000262656
-4.54712e-05
0.000238323
-4.91785e-05
0.000208099
-5.10815e-05
0.000171641
-5.06089e-05
0.000128503
-4.7153e-05
7.8301e-05
-4.01254e-05
2.09269e-05
-2.90868e-05
-4.31529e-05
-1.41629e-05
-0.000112576
-0.000185254
2.45686e-06
1.92562e-07
4.84023e-05
2.14796e-07
0.000125394
-3.209e-07
0.000187195
-1.65453e-06
0.000234533
-3.88358e-06
0.000268486
-6.9781e-06
0.000290412
-1.07995e-05
0.000301766
-1.5116e-05
0.000303964
-1.96212e-05
0.000298242
-2.39503e-05
0.000285532
-2.76894e-05
0.000266395
-3.0378e-05
0.000241012
-3.15053e-05
0.000209227
-3.05005e-05
0.000170637
-2.67243e-05
0.000124727
-1.94751e-05
7.10518e-05
-8.03704e-06
9.48887e-06
8.17999e-06
-5.93699e-05
2.9458e-05
-0.000133854
-0.000210586
5.47906e-05
3.55001e-07
4.80473e-05
8.08218e-07
0.000124941
9.38158e-07
0.000187065
4.7716e-07
0.000234994
-6.93613e-07
0.000269657
-2.55702e-06
0.000292275
-4.98014e-06
0.000304189
-7.72989e-06
0.000306714
-1.04908e-05
0.000301003
-1.28821e-05
0.000287923
-1.44675e-05
0.00026798
-1.47583e-05
0.000241303
-1.32086e-05
0.000207677
-9.20202e-06
0.00016663
-2.03863e-06
0.000117563
9.07044e-06
5.99427e-05
2.49732e-05
-6.41387e-06
4.64585e-05
-8.08552e-05
7.38324e-05
-0.000161228
-0.00024331
0.000106556
5.12336e-07
4.75349e-05
1.38893e-06
0.000124064
2.18077e-06
0.000186273
2.59653e-06
0.000234578
2.49926e-06
0.000269754
1.89424e-06
0.00029288
9.0926e-07
0.000305174
-2.21228e-07
0.000307845
-1.17373e-06
0.000301956
-1.55248e-06
0.000288302
-9.00749e-07
0.000267329
1.29588e-06
0.000239106
5.61665e-06
0.000203356
1.27168e-05
0.00015953
2.33496e-05
0.00010693
3.83812e-05
4.49111e-05
5.87797e-05
-2.68124e-05
8.55114e-05
-0.000107587
0.00011911
-0.000194827
-0.000283323
0.000159123
6.6253e-07
4.68724e-05
1.95e-06
0.000122777
3.39259e-06
0.000184831
4.68074e-06
0.00023329
5.66199e-06
0.000268773
6.33217e-06
0.00029221
6.81492e-06
0.000304691
7.34596e-06
0.000307313
8.25666e-06
0.000301045
9.95672e-06
0.000286602
1.29224e-05
0.000264363
1.7693e-05
0.000234335
2.48756e-05
0.000196173
3.51615e-05
0.000149244
4.93494e-05
9.27425e-05
6.83708e-05
2.58897e-05
9.32989e-05
-5.17405e-05
0.000125276
-0.000139564
0.000165072
-0.000234622
-0.000330652
0.000212401
8.03679e-07
4.60687e-05
2.48472e-06
0.000121096
4.5598e-06
0.000182756
6.70676e-06
0.000231143
8.762e-06
0.000266718
1.07133e-05
0.000290259
1.26823e-05
0.000302722
1.49067e-05
0.000305089
1.77254e-05
0.000298226
2.15619e-05
0.000282765
2.69113e-05
0.000259013
3.43362e-05
0.00022691
4.44712e-05
0.000186039
5.80387e-05
0.000135676
7.58753e-05
7.49059e-05
9.89656e-05
2.7995e-06
0.000128469
-8.12443e-05
0.00016569
-0.000176785
0.000211641
-0.000280573
-0.000385295
0.000266284
9.34012e-07
4.51347e-05
2.98672e-06
0.000119043
5.66915e-06
0.000180073
8.65259e-06
0.000228159
1.17669e-05
0.000263604
1.49949e-05
0.000287031
1.84575e-05
0.000299259
2.2396e-05
0.000301151
2.71573e-05
0.000293465
3.31787e-05
0.000276744
4.09743e-05
0.000251218
5.113e-05
0.000216755
6.43068e-05
0.000172862
8.12556e-05
0.000118728
0.000102845
5.33164e-05
0.000130101
-2.44561e-05
0.000164248
-0.000115392
0.000206729
-0.000219265
0.000258792
-0.000332636
-0.000447229
0.000320726
1.05191e-06
4.40828e-05
3.45011e-06
0.000116645
6.70815e-06
0.000176815
1.04975e-05
0.00022437
1.46461e-05
0.000259455
1.91355e-05
0.000282541
2.40882e-05
0.000294307
2.97504e-05
0.000295488
3.64785e-05
0.000286737
4.4724e-05
0.000268499
5.50208e-05
0.000240921
6.79788e-05
0.000203797
8.42857e-05
0.000156555
0.00010472
9.8293e-05
0.000130179
2.78576e-05
0.000161718
-5.59946e-05
0.000200606
-0.000154281
0.000248392
-0.000267051
0.000306544
-0.000390788
-0.000516419
0.000375734
1.15596e-06
4.29269e-05
3.86966e-06
0.000113931
7.66557e-06
0.000173019
1.22221e-05
0.000219813
1.73712e-05
0.000254306
2.30966e-05
0.000276816
2.9525e-05
0.000287878
3.691e-05
0.000288103
4.56185e-05
0.000278028
5.61179e-05
0.000257999
6.89634e-05
0.000228075
8.47903e-05
0.00018797
0.000104315
0.000137031
0.000128344
7.42636e-05
0.000157801
-1.59898e-06
0.000193762
-9.19559e-05
0.000237522
-0.000198041
0.0002907
-0.000320229
0.000354943
-0.000455031
-0.000592831
0.000431356
1.24496e-06
4.16819e-05
4.24089e-06
0.000110935
8.53174e-06
0.000168728
1.381e-05
0.000214535
1.99171e-05
0.000248199
2.68436e-05
0.000269889
3.47231e-05
0.000279999
4.38194e-05
0.000279007
5.45124e-05
0.000267335
6.72868e-05
0.000245225
8.27211e-05
0.000212641
0.000101479
0.000169212
0.000124307
0.000114202
0.000152044
4.65265e-05
0.000185639
-3.51935e-05
0.000226185
-0.000132502
0.000274982
-0.000246839
0.000333679
-0.000378925
0.000404057
-0.00052541
-0.000676429
0.000487655
1.318e-06
4.03639e-05
4.56028e-06
0.000107693
9.29878e-06
0.00016399
1.52472e-05
0.000208587
2.22626e-05
0.000241183
3.03469e-05
0.000261805
3.96444e-05
0.000270701
5.04313e-05
0.00026822
6.31036e-05
0.000254663
7.81664e-05
0.000230162
9.62238e-05
0.000194584
0.000117971
0.000147465
0.000144189
8.79842e-05
0.000175751
1.4964e-05
0.000213635
-7.30771e-05
0.000258947
-0.000177814
0.000312978
-0.00030087
0.000377364
-0.000443311
0.00045396
-0.000602006
-0.000767174
0.000544705
1.37447e-06
3.89894e-05
4.82531e-06
0.000104242
9.96094e-06
0.000158854
1.65235e-05
0.000202024
2.43914e-05
0.000233315
3.35834e-05
0.000252613
4.42579e-05
0.000260027
5.67076e-05
0.00025577
7.13474e-05
0.000240023
8.87059e-05
0.000212803
0.000109417
0.000173873
0.000134209
0.000122673
0.000163905
5.82886e-05
0.000199415
-2.05467e-05
0.000241749
-0.000115411
0.000292026
-0.000228091
0.000351514
-0.000360357
0.000421793
-0.00051359
0.000504728
-0.000684941
-0.000865013
0.000602567
1.41407e-06
3.75753e-05
5.0347e-06
0.000100621
1.05149e-05
0.000153374
1.76323e-05
0.000194907
2.62929e-05
0.000224655
3.65374e-05
0.000242369
4.85433e-05
0.000248021
6.26223e-05
0.000241691
7.92132e-05
0.000223432
9.88717e-05
0.000193145
0.000122264
0.00015048
0.000150161
9.47765e-05
0.000183426
2.50237e-05
0.000223015
-6.01357e-05
0.000269971
-0.000162367
0.000325424
-0.000283545
0.00039061
-0.000425542
0.000467008
-0.000589988
0.000556429
-0.000774362
-0.000969863
0.000661279
1.43691e-06
3.61384e-05
5.18843e-06
9.687e-05
1.096e-05
0.000147602
1.85716e-05
0.000187295
2.7963e-05
0.000215263
3.92023e-05
0.000231129
5.24908e-05
0.000234733
6.81642e-05
0.000226018
8.66883e-05
0.000204908
0.000108651
0.000171182
0.000134758
0.000124374
0.000165821
6.37131e-05
0.000202755
-1.19103e-05
0.000246563
-0.000103943
0.000298323
-0.000214127
0.000359176
-0.000344398
0.00043031
-0.000496676
0.000513057
-0.000672736
0.000609118
-0.000870423
-0.00108158
0.000720836
1.44346e-06
3.4695e-05
5.28793e-06
9.30255e-05
1.12987e-05
0.000141592
1.93446e-05
0.000179249
2.94052e-05
0.000205203
4.15816e-05
0.000218953
5.61042e-05
0.00022021
7.33378e-05
0.000208784
9.37801e-05
0.000184466
0.000118057
0.000146905
0.000146916
9.55149e-05
0.000181219
2.94095e-05
0.000221934
-5.26251e-05
0.000270113
-0.000152123
0.000326872
-0.000270886
0.000393352
-0.000410877
0.000470682
-0.000574006
0.000559993
-0.000762046
0.000662829
-0.000973259
-0.00119993
0.000781178
1.43463e-06
3.32603e-05
5.33608e-06
8.91241e-05
1.15364e-05
0.000135391
1.99595e-05
0.000170826
3.06304e-05
0.000194532
4.36893e-05
0.000205894
5.94017e-05
0.000204498
7.81664e-05
0.00019002
0.000100519
0.000162114
0.000127127
0.000120296
0.000158789
6.38531e-05
0.000196421
-8.22213e-06
0.000241045
-9.72489e-05
0.000293764
-0.000204842
0.000355725
-0.000332847
0.000428059
-0.000483211
0.000511814
-0.000657762
0.000607861
-0.000858093
0.000717559
-0.00108296
-0.00132454
0.000842167
1.41174e-06
3.18486e-05
5.33729e-06
8.51985e-05
1.16817e-05
0.000129047
2.04298e-05
0.000162078
3.16581e-05
0.000183304
4.55514e-05
0.000192001
6.24162e-05
0.000187633
8.26921e-05
0.000169744
0.000106958
0.000137848
0.000135931
9.13233e-05
0.000170463
2.9321e-05
0.000211529
-4.92882e-05
0.000260209
-0.000145929
0.000317653
-0.000262286
0.000385027
-0.000400222
0.00046343
-0.000561613
0.000553803
-0.000748135
0.000656691
-0.000960981
0.00077325
-0.00119952
-0.00145486
0.000903569
1.37653e-06
3.04721e-05
5.29749e-06
8.12775e-05
1.17465e-05
0.000122598
2.07747e-05
0.00015305
3.25157e-05
0.000171563
4.72048e-05
0.000177312
6.51961e-05
0.000169641
8.69764e-05
0.000147963
0.000113174
0.00011165
0.000144563
5.9935e-05
0.000182053
-8.16917e-06
0.000226681
-9.39167e-05
0.000279584
-0.000198831
0.00034195
-0.000324652
0.000414947
-0.00047322
0.000499611
-0.000646278
0.000596736
-0.00084526
0.000706473
-0.00107072
0.000829767
-0.00132281
-0.00159012
0.000965033
1.33117e-06
2.91409e-05
5.22404e-06
7.73847e-05
1.17457e-05
0.000116076
2.10185e-05
0.000143777
3.32385e-05
0.000159343
4.86977e-05
0.000161852
6.78043e-05
0.000150535
9.10993e-05
0.000124668
0.000119268
8.34814e-05
0.000153145
2.60585e-05
0.000193704
-4.87287e-05
0.000242046
-0.000142258
0.000299355
-0.000256141
0.000366846
-0.000392143
0.000445663
-0.000552037
0.000536738
-0.000737352
0.000640664
-0.000949186
0.000757137
-0.00118719
0.000886868
-0.00145254
-0.00172933
0.00102608
1.27819e-06
2.78627e-05
5.12565e-06
7.35372e-05
1.1697e-05
0.000109505
2.11903e-05
0.000134284
3.38694e-05
0.000146664
5.00887e-05
0.000145633
7.03173e-05
0.000130306
9.51575e-05
9.98282e-05
0.000125359
5.32803e-05
0.00016182
-1.04031e-05
0.000205584
-9.24928e-05
0.000257809
-0.000194483
0.000319721
-0.000318052
0.000392536
-0.000464958
0.000477338
-0.000636839
0.000574907
-0.000834922
0.00068557
-0.00105985
0.000808528
-0.00131015
0.000944194
-0.00158821
-0.00187122
0.00108608
1.22046e-06
2.66422e-05
5.01215e-06
6.97455e-05
1.16205e-05
0.000102897
2.13233e-05
0.000124581
3.44571e-05
0.00013353
5.14449e-05
0.000128645
7.28229e-05
0.000108928
9.92617e-05
7.33894e-05
0.00013158
2.09616e-05
0.000170749
-4.95714e-05
0.000217874
-0.000139618
0.000274167
-0.000250776
0.000340878
-0.000384763
0.000419194
-0.000543274
0.000510096
-0.00072774
0.000614152
-0.000938979
0.000731344
-0.00117704
0.000860384
-0.00143919
0.00100124
-0.00172906
-0.00201426
0.00114429
1.16109e-06
2.54812e-05
4.89432e-06
6.60123e-05
1.15383e-05
9.62525e-05
2.14542e-05
0.000114665
3.50557e-05
0.000119928
5.28401e-05
0.000110861
7.54172e-05
8.63513e-05
0.000103532
4.52745e-05
0.000138078
-1.35847e-05
0.000180098
-9.15907e-05
0.000230759
-0.000190279
0.000291312
-0.000311329
0.000363005
-0.000456456
0.000446959
-0.000627228
0.000543997
-0.000824778
0.000654419
-0.0010494
0.00077777
-0.00130039
0.000912321
-0.00157374
0.0010573
-0.00187404
-0.00215687
0.00119991
1.10339e-06
2.43778e-05
4.78351e-06
6.23322e-05
1.14738e-05
8.95622e-05
2.16217e-05
0.000104517
3.57223e-05
0.000105828
5.43525e-05
9.22307e-05
7.82013e-05
6.25025e-05
0.000108094
1.53823e-05
0.000145
-5.04915e-05
0.000190033
-0.000136624
0.000244414
-0.00024466
0.000309412
-0.000376327
0.00038624
-0.000533284
0.000475907
-0.000716895
0.000579019
-0.000927891
0.00069555
-0.00116593
0.000824546
-0.00142939
0.000963908
-0.0017131
0.00111146
-0.00202159
-0.00229771
0.0012523
1.05071e-06
2.33271e-05
4.69137e-06
5.86915e-05
1.14509e-05
8.28027e-05
2.18653e-05
9.41028e-05
3.65151e-05
9.11778e-05
5.60613e-05
7.26846e-05
8.12771e-05
3.72867e-05
0.00011307
-1.64108e-05
0.00015249
-8.99111e-05
0.000200712
-0.000184846
0.000258996
-0.000302944
0.000328603
-0.000445933
0.00041067
-0.000615351
0.000506036
-0.000812262
0.000615034
-0.00103689
0.000737261
-0.00128816
0.000871283
-0.00156341
0.00101482
-0.00185664
0.00116307
-0.00216984
-0.00243536
0.00130072
1.00641e-06
2.23206e-05
4.62942e-06
5.50685e-05
1.14934e-05
7.59388e-05
2.22245e-05
8.33717e-05
3.74917e-05
7.59105e-05
5.80442e-05
5.21321e-05
8.47428e-05
1.05881e-05
0.000118579
-5.02475e-05
0.000160678
-0.00013201
0.000212268
-0.000236436
0.000274627
-0.000365302
0.000348971
-0.000520278
0.000436311
-0.000702692
0.000537257
-0.000913207
0.000651797
-0.00115143
0.000779111
-0.00141547
0.000917358
-0.00170166
0.00106442
-0.00200369
0.00121293
-0.00231835
-0.00256615
0.00134372
9.73536e-07
2.13471e-05
4.60845e-06
5.14336e-05
1.16235e-05
6.89237e-05
2.27362e-05
7.22589e-05
3.87064e-05
5.99403e-05
6.03739e-05
3.04646e-05
8.8689e-05
-1.77269e-05
0.000124726
-8.62849e-05
0.000169678
-0.000176961
0.000224811
-0.000291569
0.000291389
-0.000431881
0.000370547
-0.000599435
0.00046311
-0.000795255
0.000569389
-0.00101949
0.000688965
-0.001271
0.00082054
-0.00154705
0.000961826
-0.00184294
0.00111051
-0.00215237
0.00126127
-0.00246912
-0.00275205
0.00144717
9.55258e-07
2.03919e-05
4.63903e-06
4.77498e-05
1.18627e-05
6.17e-05
2.34353e-05
6.06863e-05
4.0209e-05
4.31667e-05
6.31156e-05
7.55799e-06
9.31941e-05
-4.78054e-05
0.000131598
-0.000124689
0.000179574
-0.000224937
0.000238407
-0.000350402
0.000309314
-0.000502788
0.000393294
-0.000683415
0.00049093
-0.00089289
0.000602167
-0.00113072
0.000726114
-0.00139495
0.000860945
-0.00168188
0.00100389
-0.00198588
0.00115212
-0.00230061
0.00130083
-0.00261782
-0.00291536
0.00146414
9.54001e-07
1.94379e-05
4.72984e-06
4.3974e-05
1.22289e-05
5.4201e-05
2.43513e-05
4.85639e-05
4.20416e-05
2.54765e-05
6.63233e-05
-1.67238e-05
9.83213e-05
-7.98034e-05
0.000139259
-0.000165626
0.000190423
-0.000276101
0.000253087
-0.000413065
0.00032838
-0.000578082
0.000417115
-0.00077215
0.000519568
-0.000995343
0.00063526
-0.00124642
0.000762781
-0.00152247
0.000899749
-0.00181885
0.0010429
-0.00212903
0.00118874
-0.00244645
0.00133261
-0.00276169
-0.00306229
0.00147955
9.71884e-07
1.8466e-05
4.88829e-06
4.00576e-05
1.27373e-05
4.63519e-05
2.55087e-05
3.57925e-05
4.42382e-05
6.74699e-06
7.00391e-05
-4.25246e-05
0.000104116
-0.00011388
0.00014775
-0.00020926
0.000202247
-0.000330598
0.000268835
-0.000479653
0.000348512
-0.00065776
0.000441849
-0.000865486
0.000548756
-0.00110225
0.000668281
-0.00136594
0.000798474
-0.00165267
0.000936412
-0.00195678
0.00107839
-0.00227101
0.0012204
-0.00258846
0.00135797
-0.00289927
-0.00319627
0.00149196
1.01052e-06
1.74555e-05
5.12008e-06
3.5948e-05
1.33996e-05
3.80724e-05
2.69258e-05
2.22662e-05
4.68235e-05
-1.31507e-05
7.42908e-05
-6.99919e-05
0.000110603
-0.000150193
0.000157084
-0.000255741
0.000215031
-0.000388545
0.000285591
-0.000550213
0.000369582
-0.000741751
0.000467276
-0.00096318
0.00057817
-0.00121314
0.000700807
-0.00148858
0.000832698
-0.00178456
0.000970435
-0.00209452
0.00110997
-0.00241055
0.00124704
-0.00272553
0.00137744
-0.00302967
-0.0033191
0.00150027
1.07098e-06
1.63845e-05
5.42909e-06
3.15899e-05
1.42234e-05
2.92781e-05
2.86145e-05
7.87517e-06
4.98119e-05
-3.43481e-05
7.90917e-05
-9.92716e-05
0.000117788
-0.000188889
0.000167247
-0.0003052
0.000228727
-0.000450026
0.000303254
-0.00062474
0.000391415
-0.000829912
0.000493133
-0.0010649
0.000607451
-0.00132746
0.000732394
-0.00161352
0.00086497
-0.00191713
0.00100137
-0.00223092
0.00113734
-0.00254652
0.00126858
-0.00285677
0.00139132
-0.00315241
-0.00343186
0.00150408
1.1538e-06
1.52307e-05
5.81737e-06
2.69263e-05
1.52129e-05
1.98826e-05
3.05801e-05
-7.49204e-06
5.32076e-05
-5.69757e-05
8.44404e-05
-0.000130504
0.000125656
-0.000230105
0.000178198
-0.000357742
0.000243255
-0.000515082
0.000321684
-0.000703169
0.000413795
-0.000922022
0.000519117
-0.00117022
0.000636214
-0.00144456
0.000762601
-0.00173991
0.000894841
-0.00204937
0.00102883
-0.00236491
0.00116026
-0.00267795
0.00128501
-0.00298152
0.00139983
-0.00326722
-0.00353531
0.00150328
1.25903e-06
1.39716e-05
6.2852e-06
2.19002e-05
1.63682e-05
9.79953e-06
3.28215e-05
-2.39454e-05
5.70054e-05
-8.11595e-05
9.03215e-05
-0.000163821
0.000134173
-0.000273956
0.000189874
-0.000413443
0.000258503
-0.000583712
0.000340709
-0.000785375
0.000436475
-0.00101779
0.000544903
-0.00127865
0.000664066
-0.00156372
0.000791003
-0.00186684
0.000921909
-0.00218028
0.00105251
-0.00249551
0.0011786
-0.00280404
0.00129638
-0.0030993
0.0014032
-0.00337404
-0.00363006
0.00149794
1.38624e-06
1.25854e-05
6.83127e-06
1.64551e-05
1.76863e-05
-1.05553e-06
3.5332e-05
-4.1591e-05
6.11907e-05
-0.000107018
9.67072e-05
-0.000199337
0.000143288
-0.000320537
0.000202187
-0.000472342
0.000274338
-0.000655862
0.000360131
-0.000871168
0.000459187
-0.00111684
0.000570155
-0.00138962
0.000690624
-0.00168419
0.000817209
-0.00199343
0.000945836
-0.00230891
0.0010722
-0.00262187
0.00119229
-0.00292414
0.0013028
-0.00320981
0.0014017
-0.00347294
-0.00371666
0.0014883
1.53463e-06
1.10508e-05
7.45291e-06
1.05368e-05
1.91612e-05
-1.27638e-05
3.80994e-05
-6.05292e-05
6.57414e-05
-0.00013466
0.000103558
-0.000237154
0.000152936
-0.000369915
0.000215036
-0.000534442
0.000290604
-0.00073143
0.000379735
-0.000960299
0.00048165
-0.00121876
0.000594535
-0.0015025
0.000715524
-0.00180518
0.000840875
-0.00211878
0.000966355
-0.00243439
0.00108774
-0.00274326
0.00120138
-0.00303777
0.00130447
-0.00331291
0.00139565
-0.00356412
-0.00379567
0.00147466
1.7031e-06
9.34767e-06
8.14629e-06
4.09365e-06
2.07842e-05
-2.54017e-05
4.11075e-05
-8.08525e-05
7.06286e-05
-0.000164181
0.000110826
-0.000277351
0.000163039
-0.000422127
0.000228302
-0.000599706
0.000307133
-0.000810261
0.000399293
-0.00105246
0.000503581
-0.00132305
0.000617722
-0.00161664
0.000738437
-0.0019259
0.000861715
-0.00224206
0.000983275
-0.00255595
0.0010991
-0.00285908
0.00120596
-0.00314463
0.00130165
-0.00340859
0.0013854
-0.00364787
-0.00386765
0.00145738
1.89037e-06
7.4573e-06
8.90679e-06
-2.92277e-06
2.2545e-05
-3.90399e-05
4.43365e-05
-0.000102644
7.58181e-05
-0.000195663
0.000118455
-0.000319988
0.00017351
-0.000477182
0.000241857
-0.000668052
0.000323747
-0.000892151
0.000418574
-0.00114729
0.000524701
-0.00142917
0.000639412
-0.00173135
0.000759075
-0.00204556
0.000879505
-0.00236249
0.000996483
-0.00267292
0.0011063
-0.0029689
0.00120622
-0.00324455
0.00129463
-0.003497
0.00137132
-0.00372457
-0.00393318
0.00143685
2.09501e-06
5.36229e-06
9.72918e-06
-1.05569e-05
2.44317e-05
-5.37424e-05
4.77641e-05
-0.000125976
8.12716e-05
-0.00022917
0.000126383
-0.0003651
0.000184256
-0.000535055
0.000255565
-0.000739362
0.000340262
-0.000976847
0.000437347
-0.00124437
0.000544745
-0.00153657
0.000659334
-0.00184594
0.0007772
-0.00216342
0.000894084
-0.00247937
0.00100594
-0.00278478
0.00110944
-0.00307241
0.00120239
-0.00333749
0.00128374
-0.00357836
0.00135381
-0.00379463
-0.00399283
0.00141346
2.31554e-06
3.04675e-06
1.06079e-05
-1.88493e-05
2.64315e-05
-6.95661e-05
5.13662e-05
-0.000150911
8.69479e-05
-0.000264752
0.000134545
-0.000412697
0.000195178
-0.000595688
0.000269288
-0.000813472
0.000356494
-0.00106405
0.000455389
-0.00134327
0.000563468
-0.00164465
0.00067725
-0.00195973
0.000792624
-0.0022788
0.000905359
-0.00259211
0.00101167
-0.00289109
0.00110869
-0.00316943
0.00119474
-0.00342354
0.00126935
-0.00365297
0.00133325
-0.00385853
-0.00404713
0.00138756
2.55052e-06
4.96226e-07
1.15372e-05
-2.7836e-05
2.85311e-05
-8.656e-05
5.51173e-05
-0.000177497
9.28035e-05
-0.000302438
0.000142872
-0.000462765
0.000206174
-0.000658991
0.000282886
-0.000890183
0.000372264
-0.00115343
0.000472487
-0.00144349
0.000580647
-0.00175281
0.000692964
-0.00207204
0.000805216
-0.00239105
0.000913297
-0.00270019
0.00101376
-0.00299155
0.00110423
-0.0032599
0.00118358
-0.00350289
0.00125181
-0.00372121
0.00131002
-0.00391674
-0.00409662
0.00135951
2.79853e-06
-2.3023e-06
1.25113e-05
-3.75488e-05