/*--------------------------------*- C++ -*----------------------------------*\
  =========                 |
  \\      /  F ield         | OpenFOAM: The Open Source CFD Toolbox
   \\    /   O peration     | Website:  https://openfoam.org
    \\  /    A nd           | Version:  7
     \\/     M anipulation  |
\*---------------------------------------------------------------------------*/
FoamFile
{
    version     2.0;
    format      ascii;
    class       volVectorField;
    location    "260";
    object      U;
}
// * * * * * * * * * * * * * * * * * * * * * * * * * * * * * * * * * * * * * //

dimensions      [0 1 -1 0 0 0 0];

internalField   nonuniform List<vector> 
36600
(
(-0.00035954 0.0307225 -1.08477e-21)
(-0.00147478 0.082828 -5.64426e-21)
(-0.00354505 0.127263 6.76919e-22)
(-0.00656865 0.164196 1.00447e-21)
(-0.0105856 0.194016 1.76587e-21)
(-0.0155521 0.217352 -1.2879e-20)
(-0.0213516 0.235021 2.19132e-21)
(-0.0278188 0.247977 -8.53599e-21)
(-0.0347598 0.257224 -1.81607e-20)
(-0.0419728 0.263733 1.53939e-20)
(-0.0492673 0.26837 4.54209e-21)
(-0.0564774 0.271841 -5.42172e-21)
(-0.0634701 0.274661 6.6176e-21)
(-0.0701477 0.277153 9.0181e-21)
(-0.0764446 0.279458 -5.66514e-21)
(-0.0823181 0.281561 -7.66766e-21)
(-0.087743 0.283318 -1.83957e-20)
(-0.092731 0.284489 -1.42922e-21)
(-0.0971855 0.284757 -3.14873e-21)
(-0.100845 0.283729 -6.2674e-21)
(-0.000907646 0.0308402 -5.33413e-21)
(-0.00274638 0.0833309 4.3077e-21)
(-0.00508987 0.128263 -5.00009e-21)
(-0.00807532 0.165757 -1.96038e-20)
(-0.0118043 0.196149 8.9835e-21)
(-0.0162897 0.22002 5.38298e-20)
(-0.0214664 0.238149 -3.28098e-20)
(-0.0272108 0.251463 5.47096e-21)
(-0.0333604 0.260952 2.62189e-20)
(-0.0397343 0.267587 2.76204e-23)
(-0.0461523 0.272243 1.53868e-20)
(-0.0524489 0.27564 -2.02245e-20)
(-0.058483 0.278315 2.112e-20)
(-0.0641415 0.28061 -1.80163e-20)
(-0.0693385 0.282684 -7.02324e-21)
(-0.0740091 0.284534 3.52892e-20)
(-0.0781045 0.286027 -1.12423e-20)
(-0.0816176 0.286926 1.66668e-21)
(-0.0844455 0.286925 -2.10997e-20)
(-0.0862809 0.285653 -2.37803e-21)
(-0.00145675 0.0308352 -4.1465e-20)
(-0.0040313 0.0835307 5.20744e-21)
(-0.00666681 0.128834 7.84952e-21)
(-0.009632 0.166806 4.96597e-20)
(-0.0130849 0.197723 -3.93484e-20)
(-0.0170921 0.22211 -6.05398e-20)
(-0.0216376 0.240701 5.45554e-20)
(-0.0266388 0.254388 -1.48102e-20)
(-0.0319645 0.264141 -7.29962e-21)
(-0.0374554 0.270922 -3.69541e-20)
(-0.0429422 0.275612 1.00889e-20)
(-0.0482605 0.278944 3.56692e-20)
(-0.0532617 0.281472 -7.15236e-21)
(-0.0578182 0.283556 2.91063e-20)
(-0.0618244 0.285374 -2.40698e-20)
(-0.0651933 0.286937 -7.21723e-21)
(-0.0678536 0.288123 5.70258e-20)
(-0.0697809 0.288708 -3.56482e-21)
(-0.0708683 0.288398 9.03051e-20)
(-0.0707498 0.28685 -2.2051e-20)
(-0.00200053 0.0307106 6.79887e-20)
(-0.00531559 0.0834316 -2.95835e-20)
(-0.00825919 0.128978 -2.02324e-20)
(-0.0112222 0.16734 -4.64509e-20)
(-0.0144136 0.198731 2.77019e-20)
(-0.0179493 0.22361 -5.30022e-21)
(-0.0218602 0.24266 -9.15276e-20)
(-0.026103 0.25673 -9.63642e-21)
(-0.0305779 0.266763 -1.97216e-20)
(-0.0351472 0.27371 -3.24357e-21)
(-0.0396535 0.278449 -3.39173e-20)
(-0.0439347 0.281722 3.82275e-20)
(-0.0478357 0.2841 -5.63986e-20)
(-0.051215 0.28596 -1.70811e-21)
(-0.0539485 0.287497 1.53645e-20)
(-0.0559281 0.288738 -1.18943e-19)
(-0.0570611 0.289578 -9.61428e-20)
(-0.0573068 0.289807 5.25674e-20)
(-0.056559 0.28915 -6.988e-20)
(-0.0543769 0.287301 1.60286e-21)
(-0.00253322 0.0304704 -9.04128e-21)
(-0.00658595 0.0830399 1.16997e-19)
(-0.00985065 0.128699 5.41792e-20)
(-0.0128295 0.167361 -2.30765e-21)
(-0.0157764 0.199167 1.41313e-20)
(-0.0188514 0.22451 1.99485e-21)
(-0.0221292 0.244009 4.69284e-20)
(-0.0256041 0.258469 5.50844e-20)
(-0.0292069 0.268797 2.31895e-20)
(-0.032822 0.275925 8.12503e-20)
(-0.0363048 0.280726 -9.30473e-20)
(-0.0394965 0.283948 -1.94466e-20)
(-0.0422369 0.286172 4.09153e-20)
(-0.0443721 0.287795 -7.1024e-20)
(-0.0457609 0.289026 3.25132e-20)
(-0.0462751 0.289915 7.49393e-20)
(-0.0458017 0.290369 1.77341e-20)
(-0.0442854 0.2902 2.64039e-20)
(-0.0416262 0.289161 -4.16114e-20)
(-0.0372949 0.287001 5.33747e-21)
(-0.00304936 0.0301196 -4.48789e-20)
(-0.00782972 0.082365 2.78336e-20)
(-0.0114255 0.128007 -4.43292e-20)
(-0.0144384 0.166875 4.06389e-20)
(-0.0171596 0.199033 3.5189e-20)
(-0.0197887 0.224803 1.57656e-20)
(-0.02244 0.244738 2.96702e-20)
(-0.0251431 0.259587 -2.04898e-20)
(-0.0278587 0.27022 -1.25774e-19)
(-0.0304933 0.277543 -1.11715e-19)
(-0.0329159 0.282418 -7.22088e-20)
(-0.0349727 0.285595 2.71253e-20)
(-0.0364997 0.287664 -1.54063e-20)
(-0.0373326 0.289036 1.17067e-19)
(-0.0373144 0.289941 -4.21389e-20)
(-0.0362988 0.290444 3.44265e-20)
(-0.0341536 0.290477 4.9986e-20)
(-0.0308099 0.289872 -2.84342e-20)
(-0.0261757 0.288415 2.49787e-19)
(-0.0196386 0.285945 -9.51669e-20)
(-0.00354389 0.0296641 5.45571e-20)
(-0.00903506 0.0814186 -6.63379e-20)
(-0.0129689 0.126913 -1.00482e-19)
(-0.0160335 0.165889 -2.54047e-20)
(-0.0185504 0.198332 1.13794e-20)
(-0.0207521 0.224486 1.73183e-20)
(-0.0227883 0.244836 5.73975e-20)
(-0.0247217 0.260071 1.26173e-20)
(-0.0265411 0.271014 4.00871e-21)
(-0.0281754 0.278543 2.00704e-19)
(-0.0295081 0.283503 1.49858e-19)
(-0.0303916 0.286639 -8.93482e-20)
(-0.0306604 0.288551 -1.30436e-20)
(-0.0301415 0.289663 -3.53215e-20)
(-0.0286641 0.290221 3.49039e-20)
(-0.0260656 0.290311 -1.8513e-19)
(-0.0221967 0.289888 -3.93585e-20)
(-0.0169766 0.28881 -5.87584e-20)
(-0.0103168 0.286904 -1.42972e-19)
(-0.00152972 0.284108 7.83245e-20)
(-0.00401228 0.0291109 9.23616e-21)
(-0.0101911 0.0802147 -3.25398e-20)
(-0.014467 0.125433 9.07318e-20)
(-0.0176008 0.164418 -3.39176e-20)
(-0.0199361 0.197073 -3.06027e-20)
(-0.0217326 0.223563 4.80496e-20)
(-0.0231704 0.2443 -8.03016e-20)
(-0.0243417 0.25991 -1.07851e-20)
(-0.0252623 0.271165 1.49388e-19)
(-0.0258832 0.278906 -9.47494e-20)
(-0.0261033 0.283959 -3.87622e-20)
(-0.0257828 0.287061 4.55074e-20)
(-0.0247564 0.288815 -1.18435e-20)
(-0.0228449 0.289657 -6.25767e-21)
(-0.0198661 0.289851 5.10915e-20)
(-0.0156431 0.289503 -1.3657e-19)
(-0.0100112 0.288592 4.72303e-20)
(-0.00287939 0.287008 -3.62142e-20)
(0.00583349 0.284623 -8.28448e-20)
(0.0169007 0.28148 2.91544e-20)
(-0.00445054 0.0284676 -2.56827e-20)
(-0.0112881 0.0787694 1.78904e-19)
(-0.0159071 0.123587 -3.92763e-20)
(-0.0191271 0.162477 -4.62714e-20)
(-0.0213055 0.195267 1.10353e-19)
(-0.0227222 0.222039 -1.13455e-19)
(-0.0235827 0.24313 -5.52924e-20)
(-0.0240054 0.259098 -9.51612e-20)
(-0.0240311 0.27066 -1.03233e-19)
(-0.0236324 0.278617 -6.77101e-20)
(-0.0227242 0.283769 -9.10264e-20)
(-0.0211763 0.286842 1.64628e-19)
(-0.0188259 0.288439 -1.81798e-20)
(-0.0154899 0.289004 -3.82238e-20)
(-0.0109771 0.288819 -1.99486e-19)
(-0.00509872 0.28801 1.12375e-19)
(0.0023234 0.286583 2.77116e-20)
(0.0113889 0.284462 7.13225e-20)
(0.022165 0.281572 4.89146e-20)
(0.0355233 0.278073 -1.32544e-19)
(-0.00485533 0.0277428 -7.98988e-20)
(-0.0123175 0.0771009 1.04996e-19)
(-0.0172784 0.121395 5.82851e-20)
(-0.0206006 0.160089 2.60972e-20)
(-0.022648 0.192932 9.86669e-20)
(-0.0237134 0.219925 -7.62778e-20)
(-0.0240222 0.241329 1.63242e-19)
(-0.0237151 0.257631 9.03721e-21)
(-0.022856 0.26949 1.4846e-19)
(-0.0214383 0.277663 -8.60072e-20)
(-0.0193936 0.282918 1.37598e-19)
(-0.0166025 0.285966 -1.35523e-19)
(-0.0129072 0.287406 -1.21526e-19)
(-0.00812317 0.287691 1.04051e-19)
(-0.00205297 0.287116 3.69252e-19)
(0.00550154 0.285828 -2.0457e-19)
(0.0147297 0.28386 1.68821e-19)
(0.0257388 0.281173 3.94807e-20)
(0.0385747 0.27775 -1.48742e-19)
(0.0542171 0.273894 1.25722e-19)
(-0.00522398 0.0269455 1.4551e-19)
(-0.0132724 0.0752292 -8.05878e-20)
(-0.0185711 0.118881 2.70212e-20)
(-0.0220113 0.157278 1.00471e-19)
(-0.0239544 0.190088 -7.64459e-20)
(-0.0246996 0.217236 1.77542e-19)
(-0.0244863 0.238905 -3.19289e-20)
(-0.0234736 0.25551 3.96112e-21)
(-0.0217458 0.267652 -2.05156e-19)
(-0.0193164 0.276034 1.28947e-19)
(-0.0161338 0.281393 2.97052e-20)
(-0.0120913 0.284419 -3.85564e-20)
(-0.00703787 0.285706 4.85522e-20)
(-0.000790458 0.285708 -1.92054e-19)
(0.0068519 0.284735 -1.06891e-19)
(0.016094 0.282953 2.26994e-19)
(0.0271339 0.280424 -1.27798e-19)
(0.0400857 0.277146 -1.84878e-19)
(0.0549671 0.273165 3.43884e-19)
(0.0728726 0.268954 -5.65524e-22)
(-0.00555459 0.0260853 1.2206e-19)
(-0.0141474 0.0731758 -1.48196e-19)
(-0.0197779 0.116075 -1.52756e-19)
(-0.0233507 0.15407 -7.21385e-20)
(-0.025217 0.186759 -4.98408e-20)
(-0.025675 0.213991 -5.78194e-20)
(-0.0249727 0.23587 -2.41646e-19)
(-0.0232832 0.252742 2.9458e-20)
(-0.0207087 0.265143 -1.0092e-19)
(-0.0172812 0.273725 3.50913e-19)
(-0.0129666 0.279185 -2.02972e-19)
(-0.00767159 0.282192 1.24032e-19)
(-0.00125428 0.283327 -3.81407e-20)
(0.00646423 0.283048 2.08768e-19)
(0.0156856 0.281672 1.69861e-20)
(0.0266184 0.279386 -1.80574e-19)
(0.0394673 0.276279 -3.27987e-20)
(0.0543523 0.272388 8.01285e-21)
(0.0712565 0.267827 -1.39498e-20)
(0.0913932 0.263262 2.36882e-19)
(-0.00584599 0.0251721 -1.52061e-19)
(-0.0149388 0.0709635 -1.41707e-19)
(-0.020893 0.113003 5.81151e-20)
(-0.0246121 0.150497 1.43522e-19)
(-0.0264293 0.182975 -1.1924e-20)
(-0.0266348 0.210213 -9.65968e-20)
(-0.0254794 0.232242 2.12703e-19)
(-0.0231463 0.249336 -2.36737e-20)
(-0.0197522 0.261967 2.54168e-19)
(-0.0153466 0.270733 -2.80937e-19)
(-0.0099121 0.276289 7.3751e-20)
(-0.00337044 0.279277 8.69358e-20)
(0.00440937 0.280263 -2.8458e-21)
(0.0135996 0.279703 -1.52338e-21)
(0.0243997 0.277924 -1.65811e-19)
(0.0370195 0.275128 2.20284e-20)
(0.0516676 0.271431 2.24375e-19)
(0.0684698 0.266909 2.91696e-19)
(0.0873688 0.261746 -3.48515e-19)
(0.109698 0.25683 -2.26741e-19)
(-0.00609777 0.0242164 6.36852e-20)
(-0.0156445 0.0686162 9.46343e-20)
(-0.0219128 0.109699 1.135e-19)
(-0.0257908 0.146593 -1.8972e-19)
(-0.0275862 0.178768 1.83809e-19)
(-0.0275749 0.20593 1.85232e-19)
(-0.0260049 0.228041 -7.17847e-20)
(-0.0230648 0.245306 3.10618e-19)
(-0.0188831 0.258131 -3.12128e-19)
(-0.0135246 0.267059 1.37177e-19)
(-0.00698876 0.272701 1.39127e-19)
(0.000787322 0.275668 -1.07181e-20)
(0.00992182 0.276508 1.66892e-21)
(0.020578 0.275671 1.84091e-20)
(0.0329505 0.273491 -1.2847e-19)
(0.0472478 0.270184 1.29555e-19)
(0.0636805 0.265888 -6.71606e-20)
(0.0823799 0.260722 -1.51447e-19)
(0.103244 0.254936 1.96884e-19)
(0.127726 0.24967 4.139e-20)
(-0.00631031 0.0232286 -3.66694e-20)
(-0.016264 0.0661586 4.46872e-20)
(-0.0228358 0.106193 -9.50465e-20)
(-0.026884 0.142394 -1.40109e-19)
(-0.0286842 0.174172 -1.22591e-19)
(-0.0284923 0.201173 -1.26962e-19)
(-0.0265477 0.223293 2.04224e-19)
(-0.0230401 0.240671 -1.02872e-19)
(-0.0181067 0.253647 8.1268e-20)
(-0.0118257 0.26271 8.6537e-21)
(-0.00421231 0.268423 -2.16637e-20)
(0.00478015 0.271363 5.38651e-20)
(0.0152557 0.272058 -1.06042e-19)
(0.0273666 0.27095 5.53446e-20)
(0.0413002 0.268373 1.78786e-19)
(0.0572616 0.264556 -2.6071e-19)
(0.0754612 0.259659 -1.68529e-19)
(0.0960366 0.253839 2.22429e-19)
(0.118837 0.247413 -1.31971e-19)
(0.145435 0.241795 -2.06835e-19)
(-0.00648474 0.0222192 1.35045e-19)
(-0.0167989 0.0636158 -1.33456e-19)
(-0.0236623 0.102521 1.07165e-19)
(-0.0278907 0.137937 1.69222e-19)
(-0.0297216 0.169225 -2.98126e-20)
(-0.0293846 0.195977 -1.08402e-19)
(-0.0271064 0.218028 -2.00974e-19)
(-0.0230729 0.235453 -1.51308e-19)
(-0.0174268 0.248532 -3.01162e-19)
(-0.0102574 0.257695 2.99237e-20)
(-0.00159523 0.263459 -2.63478e-20)
(0.00859058 0.266364 -2.09836e-19)
(0.0203887 0.266915 1.81129e-19)
(0.0339386 0.265541 2.21881e-19)
(0.0494184 0.262574 -1.16785e-20)
(0.0670279 0.258254 1.37069e-19)
(0.0869762 0.252756 -6.84485e-20)
(0.109408 0.246274 1.04227e-20)
(0.134123 0.23919 1.96879e-19)
(0.162811 0.233219 4.81237e-19)
(-0.00662292 0.0211987 -5.88438e-20)
(-0.0172522 0.0610132 -3.93869e-20)
(-0.024395 0.0987173 1.10325e-19)
(-0.0288122 0.133261 -1.51275e-19)
(-0.0306979 0.163969 -8.45199e-20)
(-0.0302509 0.190381 1.47544e-19)
(-0.0276796 0.21228 -5.31873e-20)
(-0.0231628 0.229681 -1.52311e-19)
(-0.016845 0.242806 2.45246e-19)
(-0.0088247 0.252029 -6.54379e-20)
(0.000854136 0.257818 4.75822e-20)
(0.0122064 0.260676 2.55072e-19)
(0.0253048 0.26108 -3.52784e-19)
(0.0402748 0.259445 -9.67594e-20)
(0.0572838 0.256098 -1.89702e-19)
(0.0765253 0.251282 3.85765e-19)
(0.098206 0.245189 1.15271e-20)
(0.122481 0.238042 2.14724e-19)
(0.149097 0.230284 -7.86949e-20)
(0.179866 0.223954 -4.54454e-19)
(-0.00672746 0.0201773 -1.3592e-19)
(-0.0176285 0.0583757 1.89917e-19)
(-0.0250382 0.0948161 2.62691e-21)
(-0.0296517 0.128409 -1.62494e-21)
(-0.0316142 0.158444 1.8969e-19)
(-0.0310904 0.184425 9.04355e-20)
(-0.0282657 0.206085 -4.81381e-21)
(-0.0233081 0.223387 3.93546e-19)
(-0.0163605 0.236495 1.49111e-19)
(-0.00752827 0.245731 -2.71655e-19)
(0.00313254 0.251514 1.32341e-20)
(0.0156216 0.254308 -9.64773e-21)
(0.0299957 0.25456 3.72632e-19)
(0.0463655 0.252669 -4.1479e-19)
(0.0648867 0.248952 1.14987e-19)
(0.0857457 0.243652 4.10553e-21)
(0.109148 0.236971 -2.94883e-19)
(0.135261 0.22916 -3.09138e-19)
(0.16378 0.220711 -3.84422e-20)
(0.196649 0.214012 4.60001e-19)
(-0.00680164 0.0191649 4.35802e-20)
(-0.0179342 0.0557281 -1.35344e-19)
(-0.0255987 0.0908525 1.28114e-19)
(-0.0304139 0.123419 -1.89146e-19)
(-0.0324736 0.152696 2.3129e-19)
(-0.0319034 0.178153 -3.41652e-19)
(-0.0288628 0.199484 -9.29982e-20)
(-0.023505 0.216605 -2.0583e-19)
(-0.0159691 0.229629 -9.59601e-20)
(-0.00636437 0.238824 1.69024e-19)
(0.00524292 0.244565 3.41545e-19)
(0.0188383 0.247273 -3.80615e-19)
(0.0344629 0.247366 -1.4252e-19)
(0.0522125 0.245221 5.11796e-19)
(0.0722313 0.241144 -1.8549e-19)
(0.0946986 0.235374 -2.67916e-19)
(0.119819 0.228118 3.41027e-19)
(0.147779 0.219644 7.25639e-20)
(0.178223 0.210489 6.78676e-20)
(0.213243 0.203406 -2.96874e-19)
(-0.0068494 0.0181711 1.68402e-20)
(-0.0181771 0.0530943 -7.03697e-20)
(-0.0260847 0.0868606 2.24133e-19)
(-0.0311058 0.118334 -2.85625e-19)
(-0.0332794 0.146767 -2.33284e-19)
(-0.0326901 0.17161 6.05314e-20)
(-0.0294675 0.192521 3.97676e-19)
(-0.0237479 0.209376 -2.47818e-19)
(-0.0156629 0.222242 5.89405e-20)
(-0.00532352 0.231339 -1.16329e-19)
(0.00719578 0.236994 -4.65898e-19)
(0.0218679 0.23959 2.80023e-19)
(0.0387197 0.239513 2.24205e-19)
(0.0578324 0.237115 -3.97234e-19)
(0.0793393 0.232689 9.30858e-20)
(0.103414 0.226465 3.70825e-19)
(0.130262 0.218646 1.44358e-19)
(0.160097 0.209517 5.1367e-20)
(0.192511 0.199641 -3.04602e-19)
(0.22978 0.192151 -1.50912e-19)
(-0.00687524 0.0172049 -1.18359e-19)
(-0.0183663 0.0504972 -2.09422e-19)
(-0.0265059 0.0828736 -1.1949e-19)
(-0.0317351 0.113193 1.5598e-19)
(-0.0340361 0.140704 -8.83193e-21)
(-0.0334503 0.164843 3.09832e-20)
(-0.0300752 0.185242 -5.49393e-20)
(-0.0240275 0.201743 3.72387e-20)
(-0.0154289 0.214373 2.32321e-19)
(-0.00438942 0.223308 2.914e-19)
(0.00901067 0.228831 -1.26499e-20)
(0.0247338 0.231284 -6.35453e-20)
(0.0427937 0.231021 -3.70397e-19)
(0.0632593 0.228369 2.76691e-19)
(0.0862541 0.223604 -2.34641e-20)
(0.111949 0.216943 -1.65023e-19)
(0.140553 0.208581 -8.30152e-19)
(0.172314 0.198806 2.95462e-19)
(0.206773 0.188194 1.77942e-20)
(0.246444 0.18027 -1.86823e-19)
(-0.00688418 0.0162747 1.0861e-19)
(-0.018512 0.0479584 2.73412e-19)
(-0.0268733 0.0789233 -2.04603e-19)
(-0.0323105 0.108036 -9.75035e-20)
(-0.0347484 0.134551 8.05604e-20)
(-0.034183 0.157897 -1.92027e-19)
(-0.0306791 0.177693 -3.31043e-19)
(-0.0243311 0.193753 2.04687e-19)
(-0.0152485 0.206067 -2.36024e-20)
(-0.00353757 0.214772 -4.59132e-19)
(0.010718 0.220109 8.76289e-20)
(0.0274728 0.222384 4.83932e-20)
(0.0467301 0.221918 -8.40619e-20)
(0.0685487 0.21901 2.21247e-19)
(0.0930452 0.213915 4.30076e-19)
(0.12039 0.206835 -2.80542e-19)
(0.150802 0.197951 2.2971e-19)
(0.184574 0.187546 5.36956e-20)
(0.221187 0.176186 3.23516e-19)
(0.263475 0.167797 1.46492e-19)
(-0.00688163 0.0153881 -1.19176e-19)
(-0.0186251 0.0454979 -1.43107e-20)
(-0.0271987 0.0750396 2.89489e-19)
(-0.0328413 0.102901 2.82508e-19)
(-0.0354201 0.128351 -5.71108e-20)
(-0.0348861 0.150822 -3.57705e-20)
(-0.0312695 0.169925 3.76758e-19)
(-0.024641 0.185454 -2.69593e-19)
(-0.0150957 0.19737 8.07171e-20)
(-0.0027337 0.205774 3.32141e-19)
(0.0123612 0.210872 3.15277e-19)
(0.0301386 0.21293 1.20978e-19)
(0.0505948 0.212238 5.28624e-19)
(0.0737818 0.209068 -7.31309e-20)
(0.0998133 0.203654 -5.58356e-19)
(0.128865 0.196178 2.74783e-19)
(0.161166 0.186799 -1.45334e-19)
(0.19707 0.175788 -3.44021e-19)
(0.235988 0.163671 -2.44946e-19)
(0.281181 0.154785 -2.48974e-19)
(-0.00687331 0.0145522 7.58514e-20)
(-0.0187173 0.0431337 1.52792e-19)
(-0.0274941 0.07125 -1.05429e-19)
(-0.0333364 0.0978238 -1.29027e-19)
(-0.0360546 0.122146 -1.3131e-19)
(-0.0355549 0.143665 -3.52305e-20)
(-0.0318327 0.161988 -4.79869e-19)
(-0.0249336 0.176899 1.83334e-19)
(-0.0149364 0.188334 -1.66643e-19)
(-0.00193208 0.196366 -2.77869e-19)
(0.0139986 0.201165 9.51626e-21)
(0.032804 0.202966 -6.90911e-19)
(0.0544778 0.202024 -5.33607e-19)
(0.0790697 0.198588 1.66863e-19)
(0.106696 0.192865 8.5565e-20)
(0.137541 0.185017 -1.81293e-19)
(0.171854 0.175176 7.08139e-19)
(0.210058 0.163594 -1.11885e-19)
(0.251473 0.150721 3.07141e-19)
(0.299936 0.141314 2.79647e-19)
(-0.00686512 0.0137728 -1.03962e-19)
(-0.0188001 0.0408817 -3.32626e-19)
(-0.0277714 0.0675797 1.03693e-19)
(-0.0338039 0.0928372 5.74903e-21)
(-0.0366531 0.115978 4.30242e-19)
(-0.0361818 0.136471 -2.52832e-19)
(-0.0323503 0.153933 -2.13834e-19)
(-0.0251781 0.16814 2.53033e-19)
(-0.0147264 0.179014 -1.50199e-20)
(-0.00107374 0.186602 1.16004e-19)
(0.0157057 0.191045 3.46684e-19)
(0.035564 0.192545 7.20733e-19)
(0.0584968 0.19133 5.74249e-20)
(0.0845577 0.187621 -3.15921e-19)
(0.113871 0.181602 5.70788e-20)
(0.146638 0.173412 5.55951e-19)
(0.183128 0.163153 -3.79408e-19)
(0.223852 0.151051 2.33111e-21)
(0.268003 0.137435 2.97841e-19)
(0.320176 0.1275 -1.84465e-19)
(-0.00686294 0.0130548 -9.88561e-20)
(-0.0188852 0.0387556 3.91395e-19)
(-0.0280418 0.0640505 -2.94931e-19)
(-0.0342504 0.0879715 -5.93371e-20)
(-0.0372145 0.109884 -9.8518e-20)
(-0.0367549 0.129285 -2.51782e-19)
(-0.0327975 0.14581 2.48273e-19)
(-0.0253358 0.159234 -6.52238e-20)
(-0.0144102 0.16947 -1.42224e-19)
(-8.46866e-05 0.176543 2.2994e-19)
(0.0175779 0.180572 -2.65152e-19)
(0.0385381 0.18173 -8.53394e-20)
(0.0628002 0.180218 -9.63106e-21)
(0.0904283 0.176232 2.20789e-19)
(0.121561 0.169934 -1.98607e-19)
(0.156425 0.161439 -3.78186e-19)
(0.195312 0.150816 -1.15196e-19)
(0.238832 0.138264 -1.68981e-19)
(0.285999 0.12394 -5.19899e-19)
(0.342391 0.1135 -1.57395e-19)
(-0.00687256 0.012402 1.3975e-19)
(-0.0189833 0.0367662 -1.71756e-19)
(-0.028315 0.0606811 -2.11026e-19)
(-0.0346803 0.0832536 -1.97175e-19)
(-0.0377339 0.103899 6.50319e-20)
(-0.0372573 0.122152 3.68097e-20)
(-0.0331432 0.13767 8.81939e-20)
(-0.0253577 0.150237 -3.03255e-19)
(-0.0139197 0.159762 1.72343e-19)
(0.00112568 0.166255 -5.09136e-19)
(0.0197313 0.169814 -2.53253e-19)
(0.0418726 0.170591 3.24831e-21)
(0.0675691 0.168762 2.19299e-19)
(0.0969032 0.164499 -1.43337e-19)
(0.130037 0.157943 3.65031e-19)
(0.167223 0.149189 -8.96504e-20)
(0.208781 0.13827 1.1768e-19)
(0.255429 0.125363 4.43664e-19)
(0.305931 0.110391 5.97991e-20)
(0.367096 0.0995183 2.88409e-19)
(-0.00689939 0.011817 -2.94628e-19)
(-0.0191043 0.0349215 2.29416e-19)
(-0.0285987 0.0574865 2.54936e-19)
(-0.0350945 0.0787065 -1.45679e-19)
(-0.0382021 0.0980549 2.45562e-19)
(-0.0376662 0.115111 2.33996e-19)
(-0.0333476 0.129561 -4.22005e-20)
(-0.0251849 0.141206 -2.30265e-19)
(-0.0131728 0.149954 -3.37404e-19)
(0.00266562 0.155807 9.77537e-20)
(0.0223048 0.158848 9.57137e-21)
(0.0457413 0.159209 -2.47081e-19)
(0.0730181 0.157045 1.8107e-19)
(0.104243 0.15251 -1.41328e-19)
(0.139608 0.145726 -2.58517e-19)
(0.179401 0.136769 -3.3599e-19)
(0.223959 0.125639 8.29886e-20)
(0.274115 0.112501 1.13851e-19)
(0.328293 0.0969699 -1.12153e-19)
(0.394798 0.0858025 4.73952e-19)
(-0.00694833 0.0113009 -2.31309e-19)
(-0.0192564 0.0332263 -2.10885e-19)
(-0.028898 0.0544778 1.64059e-19)
(-0.0354905 0.0743492 9.44386e-20)
(-0.0386047 0.0923799 3.7587e-20)
(-0.037952 0.1082 -6.8261e-20)
(-0.0333624 0.121532 -4.80922e-20)
(-0.0247469 0.132198 1.07529e-19)
(-0.0120732 0.140112 -9.52679e-20)
(0.00466196 0.145274 7.89231e-19)
(0.0254597 0.147754 5.67288e-20)
(0.0503456 0.147671 -8.6186e-20)
(0.0793934 0.145164 -5.6565e-19)
(0.112745 0.14037 1.09694e-19)
(0.150627 0.133396 -2.76094e-19)
(0.193362 0.124304 1.83708e-19)
(0.241297 0.113063 1.68031e-19)
(0.295374 0.0998478 -6.44922e-19)
(0.353577 0.0838804 -2.02235e-19)
(0.425955 0.0726365 -7.0796e-19)
(-0.00702353 0.0108536 1.12037e-19)
(-0.0194458 0.0316825 2.17537e-19)
(-0.0292147 0.051662 -3.86388e-19)
(-0.0358612 0.0701963 -2.91836e-19)
(-0.0389216 0.0868976 1.4515e-19)
(-0.0380778 0.101453 1.35644e-19)
(-0.0331303 0.113628 -2.77132e-19)
(-0.0239614 0.123268 -2.44588e-20)
(-0.0105095 0.130302 3.32244e-20)
(0.00725908 0.13473 -2.3766e-19)
(0.029379 0.136618 3.39397e-19)
(0.0559117 0.136073 2.45541e-21)
(0.0869695 0.133223 4.21878e-19)
(0.122734 0.128191 2.84633e-19)
(0.163469 0.121076 4.74676e-20)
(0.20953 0.111932 5.9894e-19)
(0.261256 0.100698 -5.44605e-19)
(0.319676 0.0875857 2.53168e-19)
(0.382233 0.0713355 2.00507e-19)
(0.460917 0.0603259 1.74898e-19)
(-0.00712821 0.0104733 5.3531e-19)
(-0.0196761 0.0302882 -3.66707e-19)
(-0.0295469 0.0490416 8.84685e-20)
(-0.0361943 0.0662575 2.82664e-19)
(-0.0391265 0.0816274 -3.00891e-19)
(-0.0379988 0.0949009 1.49407e-20)
(-0.0325839 0.105889 2.21806e-19)
(-0.0227348 0.114471 4.01881e-19)
(-0.00835718 0.12059 4.00259e-19)
(0.010618 0.124256 -3.91796e-19)
(0.0342647 0.12553 -2.99697e-19)
(0.062687 0.124515 1.40737e-19)
(0.0960418 0.121332 -4.0049e-19)
(0.134554 0.116097 2.65851e-20)
(0.178525 0.108903 1.53125e-19)
(0.228328 0.0998004 1.16058e-19)
(0.284272 0.088707 3.67083e-19)
(0.347434 0.0759016 7.87822e-20)
(0.414631 0.0595485 -2.79387e-19)
(0.499878 0.0491786 3.03716e-19)
(-0.00726442 0.0101569 -5.06737e-19)
(-0.0199485 0.0290386 3.64501e-19)
(-0.0298883 0.0466151 8.77278e-20)
(-0.0364724 0.0625379 -2.79448e-19)
(-0.0391864 0.0765836 1.16276e-19)
(-0.0376627 0.0885688 -5.54242e-20)
(-0.0316472 0.0983557 -4.20548e-20)
(-0.0209623 0.105858 -3.38874e-19)
(-0.00547868 0.111042 -5.27426e-19)
(0.0149138 0.113927 3.38232e-19)
(0.0403333 0.11458 -1.73207e-19)
(0.0709329 0.113102 5.43971e-21)
(0.106917 0.10961 9.58493e-20)
(0.148554 0.104218 2.02016e-19)
(0.196174 0.0970185 -2.46933e-20)
(0.250152 0.0880644 -5.67313e-20)
(0.31073 0.0772568 -2.9356e-19)
(0.378971 0.0649769 -1.96991e-19)
(0.451023 0.0487212 -1.86486e-19)
(0.542829 0.0394827 3.04717e-19)
(-0.00743291 0.00989965 4.04374e-19)
(-0.0202604 0.0279254 -1.02586e-19)
(-0.0302282 0.0443762 3.44056e-19)
(-0.0366723 0.0590376 8.23877e-20)
(-0.0390617 0.0717755 -1.79097e-19)
(-0.0370095 0.0824774 2.86452e-20)
(-0.0302356 0.09106 -3.70915e-19)
(-0.0185307 0.0974756 1.66352e-19)
(-0.00172672 0.101717 8.82241e-20)
(0.0203311 0.10382 1.31418e-20)
(0.0478109 0.103859 1.2011e-19)
(0.0809164 0.101937 4.20867e-20)
(0.119902 0.0981732 -1.91326e-19)
(0.165072 0.0926845 -4.43737e-19)
(0.21677 0.0855654 2.22916e-19)
(0.275343 0.0768775 -1.13409e-19)
(0.340931 0.066511 -2.87538e-20)
(0.414481 0.0549783 4.7634e-19)
(0.491514 0.0390371 5.04994e-19)
(0.589522 0.0314858 -7.76349e-19)
(-0.00763292 0.00969552 -1.03774e-19)
(-0.0206063 0.0269369 -1.09879e-19)
(-0.0305514 0.0423147 -2.15542e-19)
(-0.0367653 0.0557518 1.55531e-19)
(-0.0387068 0.067207 2.78939e-19)
(-0.0359726 0.0766419 -3.55105e-19)
(-0.0282574 0.0840304 5.59805e-19)
(-0.0153188 0.0893672 -1.07859e-19)
(0.00305269 0.0926749 1.53364e-20)
(0.02706 0.0940083 -3.63191e-19)
(0.056924 0.0934538 1.22155e-20)
(0.0929005 0.0911225 -2.92942e-19)
(0.135287 0.0871391 3.89176e-19)
(0.184413 0.081625 2.54251e-19)
(0.240613 0.0746833 -4.94366e-19)
(0.304164 0.0663864 -4.20418e-19)
(0.375062 0.0566225 9.73906e-20)
(0.454009 0.046047 5.68804e-19)
(0.536044 0.0306561 2.65123e-19)
(0.639461 0.0253776 1.44245e-19)
(-0.00786217 0.00953722 3.12236e-20)
(-0.0209768 0.0260588 1.06694e-19)
(-0.0308376 0.0404161 1.26362e-19)
(-0.0367173 0.0526708 -1.047e-19)
(-0.0380704 0.0628767 2.57876e-19)
(-0.0344798 0.0710717 3.40972e-19)
(-0.0256158 0.0772893 5.17121e-21)
(-0.0112015 0.0815689 -4.27399e-19)
(0.00901574 0.0839657 -3.3694e-19)
(0.0352898 0.0845579 3.48631e-19)
(0.0678936 0.0834473 -5.62006e-19)
(0.107131 0.0807559 -5.11637e-19)
(0.153333 0.0766172 -5.05727e-20)
(0.206836 0.0711612 -2.56584e-20)
(0.267929 0.064502 1.75456e-19)
(0.336772 0.0567242 1.15031e-19)
(0.413177 0.0477268 1.49613e-19)
(0.497431 0.038289 -7.02521e-19)
(0.584391 0.0237112 -1.97773e-19)
(0.691914 0.021265 5.16529e-19)
(-0.00811682 0.00941623 -1.90877e-19)
(-0.0213592 0.025274 1.80759e-19)
(-0.0310623 0.0386623 -1.32145e-19)
(-0.0364896 0.0497801 -6.4702e-20)
(-0.0370962 0.0587777 -1.74278e-19)
(-0.0324545 0.0657703 -1.30376e-19)
(-0.0222107 0.0708524 -2.29337e-19)
(-0.00605269 0.0741102 3.73907e-19)
(0.0163168 0.0756341 1.46453e-19)
(0.045201 0.0755281 -3.54454e-19)
(0.0809234 0.073913 -4.25368e-19)
(0.123826 0.0709248 2.25333e-19)
(0.174259 0.0667077 -2.08403e-19)
(0.232532 0.0614025 -2.9087e-19)
(0.298854 0.0551364 -3.75834e-20)
(0.373208 0.0480041 2.96206e-19)
(0.455183 0.039936 -1.99813e-19)
(0.544461 0.0317684 7.52878e-20)
(0.636166 0.0183091 1.71485e-19)
(0.745951 0.01915 4.37021e-19)
(-0.00839133 0.00932313 -1.98197e-20)
(-0.0217373 0.0245633 -4.46144e-19)
(-0.0311968 0.0370318 1.07265e-19)
(-0.0360387 0.0470612 2.35874e-19)
(-0.0357243 0.054898 -4.33152e-20)
(-0.0298174 0.060735 -2.78016e-19)
(-0.0179412 0.0647285 3.01835e-19)
(0.000251652 0.067013 3.40702e-19)
(0.0251023 0.067716 1.28778e-19)
(0.0569614 0.0669694 6.30284e-19)
(0.0961936 0.0649154 -2.89316e-19)
(0.143167 0.061706 1.03223e-19)
(0.198223 0.0574979 -1.40123e-19)
(0.261615 0.0524431 3.3515e-19)
(0.33342 0.0466818 -2.92162e-20)
(0.413383 0.0403145 -7.73504e-20)
(0.500833 0.0333337 -1.22904e-19)
(0.594657 0.0265056 1.94209e-19)
(0.690808 0.0145571 -4.91752e-19)
(0.80043 0.0189891 -6.70879e-19)
(-0.00867871 0.00924792 -1.10154e-19)
(-0.0220918 0.0239058 -3.92179e-20)
(-0.0312087 0.0355007 -3.55663e-19)
(-0.0353182 0.0444918 2.14937e-19)
(-0.0338922 0.0512208 -2.16534e-19)
(-0.0264885 0.0559575 -2.16784e-19)
(-0.0127083 0.0589201 -1.95083e-20)
(0.00782966 0.0602919 -3.44029e-19)
(0.0355078 0.0602387 -5.37563e-19)
(0.0707173 0.0589223 1.45112e-19)
(0.113853 0.0565077 1.60528e-19)
(0.165287 0.053164 -6.71932e-20)
(0.225322 0.0490607 5.23221e-19)
(0.294109 0.0443592 -4.71567e-20)
(0.371546 0.0392108 -1.04059e-19)
(0.457081 0.0337154 -1.50411e-20)
(0.549749 0.0279635 2.59788e-19)
(0.647478 0.0224706 4.63732e-19)
(0.747596 0.0126293 -1.30496e-19)
(0.853895 0.0208636 4.87054e-19)
(-0.00897056 0.00918026 3.43891e-19)
(-0.0224004 0.0232796 -5.38152e-20)
(-0.0310623 0.0340429 3.13437e-19)
(-0.0342787 0.0420467 -3.1742e-19)
(-0.031536 0.0477254 4.62708e-19)
(-0.0223883 0.0514244 3.81857e-19)
(-0.00641695 0.0534229 -3.09449e-19)
(0.0167907 0.0539535 -5.6773e-19)
(0.0476527 0.053221 9.28547e-19)
(0.0865907 0.0514177 2.26189e-19)
(0.134011 0.0487321 -1.74023e-19)
(0.190265 0.0453505 -1.70183e-19)
(0.255577 0.0414537 -1.7697e-19)
(0.329949 0.037209 -1.30313e-19)
(0.413044 0.0327727 -4.29791e-19)
(0.503966 0.0282346 -1.17292e-19)
(0.601429 0.0238082 9.47473e-21)
(0.702385 0.0195668 -3.1915e-19)
(0.805865 0.0127617 1.58214e-19)
(0.904935 0.0246856 -3.44496e-19)
(-0.00925734 0.00910982 -5.48969e-19)
(-0.0226385 0.0226627 3.59198e-19)
(-0.0307197 0.0326313 -5.2846e-19)
(-0.0328691 0.0396984 -2.84041e-19)
(-0.0285915 0.0443876 1.04568e-19)
(-0.0174398 0.0471176 -4.12535e-19)
(0.00102182 0.0482274 6.37554e-19)
(0.0272325 0.0479979 1.07811e-20)
(0.0616376 0.0466734 -3.45028e-19)
(0.104675 0.0444769 -2.97597e-19)
(0.156739 0.04162 -5.24922e-19)
(0.218125 0.0383048 -6.55155e-21)
(0.288938 0.0347201 -7.32748e-20)
(0.368977 0.0310333 -2.11887e-19)
(0.457615 0.0273958 5.17886e-19)
(0.553575 0.0238714 3.19431e-19)
(0.655236 0.0207816 7.95962e-20)
(0.758804 0.0176497 -3.40217e-19)
(0.865188 0.0149047 -1.70356e-20)
(0.954132 0.028141 -5.58987e-19)
(-0.00952858 0.00902663 1.94967e-19)
(-0.0227798 0.022033 -3.58435e-19)
(-0.0301412 0.0312384 4.55921e-19)
(-0.0310377 0.0374185 6.33127e-19)
(-0.0249957 0.0411814 -2.03507e-19)
(-0.0115695 0.0430161 2.59852e-20)
(0.00968925 0.0433193 -5.37719e-19)
(0.0392396 0.0424196 -1.32079e-19)
(0.0775422 0.0405997 -4.05248e-19)
(0.125031 0.0381132 5.21596e-19)
(0.182062 0.0351934 4.77384e-19)
(0.248835 0.0320554 -8.42177e-20)
(0.325284 0.0288913 -6.26684e-20)
(0.410951 0.0258601 -1.00094e-19)
(0.504867 0.0230942 9.29808e-20)
(0.605344 0.0206109 -1.66659e-19)
(0.710387 0.0187756 -1.93219e-19)
(0.815824 0.0166068 4.10068e-19)
(0.924252 0.0179166 -1.31911e-19)
(1.00548 0.0252187 2.32492e-20)
(-0.00977312 0.00892132 5.14196e-20)
(-0.0227966 0.0213697 7.26957e-20)
(-0.0292859 0.0298375 -2.38493e-19)
(-0.0287326 0.0351783 -6.5202e-19)
(-0.020687 0.0380794 1.04514e-19)
(-0.00470891 0.0390966 3.12075e-19)
(0.0196576 0.0386816 1.40591e-19)
(0.0528817 0.0372089 5.95359e-19)
(0.0954238 0.0349988 -3.6926e-19)
(0.147691 0.0323338 -4.73645e-19)
(0.209965 0.0294669 -8.54572e-20)
(0.282306 0.0266222 2.10843e-19)
(0.364428 0.0239888 4.58005e-20)
(0.455559 0.0217069 1.92508e-20)
(0.554336 0.0198745 -2.06791e-19)
(0.658641 0.0184428 5.93153e-20)
(0.766068 0.0177442 -7.46095e-20)
(0.872261 0.0163855 -4.25117e-20)
(0.97932 0.0191232 9.24232e-20)
(1.06156 0.0171925 9.852e-19)
(-0.00997942 0.00878541 -2.53666e-19)
(-0.0226603 0.0206536 1.68761e-20)
(-0.0281128 0.0284033 -4.67333e-20)
(-0.0259025 0.0329502 5.65383e-19)
(-0.0156068 0.035055 1.76551e-19)
(0.00320532 0.0353356 -5.72191e-20)
(0.0309897 0.0342959 2.15934e-19)
(0.0682135 0.0323542 1.88842e-19)
(0.115317 0.0298666 4.50198e-19)
(0.172653 0.0271421 5.42105e-20)
(0.240391 0.0244503 -5.30494e-19)
(0.318403 0.0220193 2.99694e-20)
(0.406127 0.020027 -4.24013e-19)
(0.502427 0.0185837 -3.60294e-20)
(0.605509 0.0177375 -2.03185e-19)
(0.712811 0.0173589 9.11999e-21)
(0.821509 0.0176855 -3.99393e-19)
(0.927164 0.0170668 -1.06777e-19)
(1.03087 0.0201781 5.09059e-19)