/*--------------------------------*- C++ -*----------------------------------*\
  =========                 |
  \\      /  F ield         | OpenFOAM: The Open Source CFD Toolbox
   \\    /   O peration     | Website:  https://openfoam.org
    \\  /    A nd           | Version:  7
     \\/     M anipulation  |
\*---------------------------------------------------------------------------*/
FoamFile
{
    version     2.0;
    format      ascii;
    class       volScalarField;
    location    "180";
    object      p;
}
// * * * * * * * * * * * * * * * * * * * * * * * * * * * * * * * * * * * * * //

dimensions      [0 2 -2 0 0 0 0];

internalField   nonuniform List<scalar> 
7156
(
-0.410744
-0.405502
-0.382711
-0.343194
-0.294428
-0.245392
-0.203296
-0.171222
-0.149615
-0.137442
-0.13337
-0.136378
-0.146444
-0.164143
-0.187951
-0.212108
-0.22813
-0.22929
-0.214857
-0.189836
-0.161394
-0.135251
-0.11433
-0.0993802
-0.0901936
-0.0861863
-0.086778
-0.0920374
-0.10276
-0.11893
-0.401486
-0.396283
-0.374144
-0.335801
-0.288502
-0.240925
-0.200133
-0.169166
-0.148508
-0.137173
-0.133866
-0.13761
-0.148456
-0.167008
-0.19163
-0.216364
-0.232535
-0.233373
-0.218288
-0.19249
-0.163314
-0.136553
-0.115136
-0.0997782
-0.0902284
-0.0858751
-0.0861206
-0.0909996
-0.101272
-0.116933
-0.391763
-0.386625
-0.365189
-0.328086
-0.282317
-0.236252
-0.196806
-0.166972
-0.147283
-0.136796
-0.134259
-0.138738
-0.15036
-0.169755
-0.195181
-0.220485
-0.236804
-0.237333
-0.221613
-0.195058
-0.165166
-0.137797
-0.115892
-0.100131
-0.0902215
-0.0855242
-0.0854244
-0.0899228
-0.0997429
-0.114894
-0.381605
-0.37655
-0.355865
-0.32006
-0.275879
-0.231377
-0.193313
-0.16464
-0.145935
-0.136306
-0.134541
-0.139754
-0.152147
-0.172376
-0.198593
-0.224458
-0.240929
-0.241162
-0.22483
-0.197538
-0.166946
-0.138985
-0.1166
-0.100441
-0.0901748
-0.0851359
-0.0846919
-0.0888101
-0.0981772
-0.112818
-0.371041
-0.366085
-0.346191
-0.311737
-0.269196
-0.2263
-0.189653
-0.162164
-0.14446
-0.135698
-0.134706
-0.14065
-0.153808
-0.174859
-0.201855
-0.228274
-0.244901
-0.244855
-0.227933
-0.199929
-0.168657
-0.140116
-0.11726
-0.100709
-0.0900902
-0.0847122
-0.0839256
-0.0876643
-0.0965785
-0.110708
-0.360109
-0.355314
-0.336192
-0.303133
-0.262277
-0.221027
-0.185828
-0.159544
-0.142855
-0.134966
-0.134749
-0.141419
-0.155334
-0.177194
-0.204956
-0.231923
-0.248711
-0.248407
-0.23092
-0.202227
-0.170296
-0.141191
-0.117873
-0.100937
-0.0899697
-0.0842554
-0.0831281
-0.0864885
-0.0949503
-0.108569
-0.348854
-0.344163
-0.325888
-0.294263
-0.255131
-0.215562
-0.181837
-0.156778
-0.141115
-0.134106
-0.134663
-0.142055
-0.156717
-0.179373
-0.207888
-0.235395
-0.252353
-0.251812
-0.233788
-0.204433
-0.171865
-0.142211
-0.118441
-0.101126
-0.089815
-0.0837678
-0.0823018
-0.0852857
-0.0932963
-0.106404
-0.337311
-0.332724
-0.315308
-0.285145
-0.247769
-0.209909
-0.177681
-0.153864
-0.139239
-0.133112
-0.134442
-0.14255
-0.157949
-0.181385
-0.210639
-0.238682
-0.25582
-0.255065
-0.236533
-0.206545
-0.173363
-0.143177
-0.118966
-0.101278
-0.0896284
-0.0832515
-0.0814494
-0.0840589
-0.09162
-0.104219
-0.325508
-0.321037
-0.304478
-0.275798
-0.240202
-0.204075
-0.173364
-0.150802
-0.137223
-0.131982
-0.134082
-0.142899
-0.159023
-0.183224
-0.213202
-0.241775
-0.259103
-0.258161
-0.239154
-0.208562
-0.174789
-0.144089
-0.119448
-0.101395
-0.0894117
-0.0827089
-0.0805733
-0.082811
-0.0899249
-0.102018
-0.313504
-0.309137
-0.293427
-0.266243
-0.232442
-0.198066
-0.168886
-0.147592
-0.135065
-0.130711
-0.133577
-0.143095
-0.159931
-0.184879
-0.215567
-0.244666
-0.262198
-0.261096
-0.241647
-0.210482
-0.176145
-0.144949
-0.11989
-0.101478
-0.089167
-0.0821423
-0.0796762
-0.0815449
-0.0882145
-0.0998028
-0.301334
-0.297063
-0.282183
-0.256499
-0.224503
-0.19189
-0.164252
-0.144233
-0.132763
-0.129296
-0.132923
-0.143132
-0.160667
-0.186345
-0.217728
-0.247349
-0.265099
-0.263867
-0.244011
-0.212307
-0.177431
-0.145757
-0.120292
-0.10153
-0.0888963
-0.0815538
-0.0787605
-0.0802635
-0.0864922
-0.097579
-0.288996
-0.284878
-0.270778
-0.246589
-0.216399
-0.185554
-0.159465
-0.140727
-0.130316
-0.127735
-0.132116
-0.143006
-0.161225
-0.187615
-0.219678
-0.249816
-0.267799
-0.266469
-0.246243
-0.214034
-0.178648
-0.146515
-0.120656
-0.101553
-0.0886017
-0.0809458
-0.0778286
-0.0789695
-0.0847611
-0.09535
-0.276509
-0.272635
-0.25924
-0.236534
-0.208144
-0.179068
-0.154529
-0.137075
-0.127725
-0.126025
-0.131153
-0.142713
-0.161599
-0.188682
-0.221409
-0.252062
-0.270296
-0.2689
-0.248343
-0.215663
-0.179794
-0.147224
-0.120984
-0.101547
-0.0882851
-0.0803204
-0.0768831
-0.0776658
-0.0830245
-0.0931193
-0.264267
-0.260044
-0.247601
-0.226359
-0.199753
-0.17244
-0.149449
-0.133279
-0.124987
-0.124163
-0.13003
-0.142248
-0.161785
-0.189541
-0.222916
-0.254082
-0.272584
-0.271156
-0.250308
-0.217195
-0.180873
-0.147885
-0.121278
-0.101515
-0.0879486
-0.0796799
-0.0759264
-0.0763549
-0.0812854
-0.0908904
-0.252001
-0.24748
-0.235887
-0.216085
-0.191242
-0.165681
-0.144232
-0.129341
-0.122104
-0.12215
-0.128746
-0.141608
-0.161779
-0.190188
-0.224195
-0.255871
-0.27466
-0.273236
-0.252137
-0.218629
-0.181883
-0.148499
-0.121539
-0.101459
-0.0875942
-0.0790264
-0.0749607
-0.0750395
-0.0795468
-0.0886666
-0.239762
-0.234965
-0.224116
-0.205736
-0.182626
-0.1588
-0.138882
-0.125265
-0.119075
-0.119983
-0.127297
-0.140791
-0.161576
-0.190618
-0.225242
-0.257426
-0.276521
-0.275137
-0.253829
-0.219965
-0.182826
-0.149068
-0.121768
-0.101381
-0.0872238
-0.0783619
-0.0739884
-0.0737221
-0.0778116
-0.0864512
-0.227612
-0.222511
-0.212357
-0.195335
-0.173923
-0.151809
-0.133406
-0.121053
-0.115904
-0.117663
-0.125683
-0.139793
-0.161175
-0.19083
-0.226054
-0.258745
-0.278165
-0.276858
-0.255385
-0.221203
-0.183703
-0.149593
-0.121968
-0.101282
-0.0868394
-0.0776888
-0.0730117
-0.0724051
-0.0760824
-0.0842472
-0.215595
-0.21015
-0.200581
-0.184906
-0.165148
-0.144719
-0.127812
-0.116711
-0.11259
-0.11519
-0.123903
-0.138613
-0.160574
-0.190819
-0.226628
-0.259824
-0.27959
-0.278398
-0.256802
-0.222344
-0.184515
-0.150076
-0.12214
-0.101165
-0.0864428
-0.0770088
-0.0720328
-0.0710909
-0.074362
-0.0820575
-0.203753
-0.19791
-0.188766
-0.174473
-0.156319
-0.137541
-0.122107
-0.112242
-0.109137
-0.112564
-0.121955
-0.137251
-0.15977
-0.190586
-0.226963
-0.260662
-0.280795
-0.279755
-0.258081
-0.223389
-0.185263
-0.150517
-0.122285
-0.10103
-0.086036
-0.076324
-0.0710538
-0.0697818
-0.0726528
-0.0798849
-0.192123
-0.185804
-0.177049
-0.164063
-0.147451
-0.130287
-0.116299
-0.107652
-0.105547
-0.109786
-0.119841
-0.135706
-0.158764
-0.190129
-0.227058
-0.261259
-0.281779
-0.280929
-0.259222
-0.224336
-0.185947
-0.150918
-0.122406
-0.10088
-0.0856207
-0.0756363
-0.0700768
-0.0684799
-0.0709572
-0.077732
-0.180741
-0.173906
-0.165427
-0.153698
-0.138562
-0.122969
-0.110396
-0.102945
-0.101823
-0.106858
-0.117561
-0.133978
-0.157556
-0.189449
-0.226913
-0.261616
-0.282541
-0.28192
-0.260224
-0.225188
-0.186568
-0.15128
-0.122503
-0.100717
-0.0851987
-0.0749476
-0.0691037
-0.0671874
-0.0692774
-0.0756012
-0.169636
-0.162187
-0.15399
-0.143398
-0.129668
-0.1156
-0.104407
-0.098128
-0.0979687
-0.103782
-0.115117
-0.132068
-0.156145
-0.188546
-0.226529
-0.261732
-0.283084
-0.282729
-0.261089
-0.225945
-0.187129
-0.151606
-0.122579
-0.100542
-0.0847718
-0.0742597
-0.0681364
-0.0659062
-0.0676157
-0.0734949
-0.150711
-0.142752
-0.133182
-0.120785
-0.10819
-0.0983405
-0.093206
-0.0939879
-0.10056
-0.112509
-0.129977
-0.154535
-0.187422
-0.225909
-0.261609
-0.283406
-0.283355
-0.261816
-0.226607
-0.187629
-0.151895
-0.122635
-0.100356
-0.0843415
-0.0735742
-0.0671768
-0.0646382
-0.0659741
-0.0714152
-0.139506
-0.131724
-0.123069
-0.111931
-0.100752
-0.0922054
-0.0881857
-0.0898849
-0.0971953
-0.10974
-0.127707
-0.152726
-0.186079
-0.225053
-0.261249
-0.28351
-0.283799
-0.262405
-0.227176
-0.188071
-0.15215
-0.122672
-0.100162
-0.0839096
-0.0728928
-0.0662265
-0.0633853
-0.0643545
-0.0693643
-0.128614
-0.120907
-0.113071
-0.10312
-0.0932981
-0.0860108
-0.0830737
-0.0856644
-0.0936916
-0.106812
-0.125261
-0.150722
-0.184521
-0.223966
-0.260655
-0.283398
-0.284063
-0.262859
-0.227651
-0.188454
-0.152372
-0.122692
-0.0999612
-0.0834775
-0.0722171
-0.0652872
-0.0621492
-0.0627586
-0.0673438
-0.118066
-0.110318
-0.103181
-0.0943655
-0.0858393
-0.0797659
-0.0778768
-0.0813315
-0.0900523
-0.10373
-0.122642
-0.148526
-0.182751
-0.222652
-0.259831
-0.283071
-0.284147
-0.263177
-0.228035
-0.188781
-0.152561
-0.122696
-0.0997544
-0.0830467
-0.0715486
-0.0643606
-0.0609315
-0.0611883
-0.0653557
-0.107887
-0.0999794
-0.0935198
-0.0856825
-0.0783871
-0.0734797
-0.0726019
-0.0768913
-0.0862818
-0.100496
-0.119854
-0.146141
-0.180774
-0.221114
-0.25878
-0.282534
-0.284054
-0.26336
-0.228328
-0.189052
-0.15272
-0.122686
-0.0995434
-0.0826188
-0.0708886
-0.063448
-0.0597337
-0.059645
-0.0634015
-0.0981012
-0.0899151
-0.0838978
-0.0770845
-0.0709525
-0.0671613
-0.0672561
-0.0723494
-0.0823845
-0.0971155
-0.1169
-0.143573
-0.178595
-0.219357
-0.257507
-0.281788
-0.283786
-0.26341
-0.22853
-0.189268
-0.15285
-0.122662
-0.0993296
-0.0821949
-0.0702386
-0.0625508
-0.0585572
-0.0581303
-0.0614827
-0.0887321
-0.0801543
-0.0744114
-0.0685901
-0.0635464
-0.0608197
-0.0618466
-0.0677116
-0.0783654
-0.0935917
-0.113786
-0.140827
-0.176218
-0.217389
-0.256017
-0.280837
-0.283343
-0.263327
-0.228643
-0.189431
-0.152951
-0.122627
-0.0991143
-0.0817766
-0.0695998
-0.0616705
-0.0574035
-0.0566455
-0.0596007
-0.0798012
-0.0707255
-0.065188
-0.0602151
-0.0561791
-0.0544634
-0.0563807
-0.062984
-0.0742296
-0.0899299
-0.110515
-0.137907
-0.17365
-0.215213
-0.254316
-0.279686
-0.28273
-0.263113
-0.228669
-0.189541
-0.153026
-0.122581
-0.0988986
-0.0813649
-0.0689735
-0.0608081
-0.0562738
-0.055192
-0.0577568
-0.0713289
-0.0616542
-0.0562446
-0.0519695
-0.0488614
-0.0481013
-0.0508657
-0.0581727
-0.0699827
-0.0861354
-0.107094
-0.13482
-0.170897
-0.212838
-0.252409
-0.278339
-0.281948
-0.26277
-0.228607
-0.1896
-0.153074
-0.122526
-0.0986839
-0.080961
-0.0683606
-0.0599648
-0.0551691
-0.0537708
-0.0559522
-0.0633354
-0.0529611
-0.0475591
-0.0438671
-0.0416044
-0.0417417
-0.0453089
-0.0532842
-0.0656305
-0.0822138
-0.103529
-0.131572
-0.167967
-0.21027
-0.250303
-0.2768
-0.280999
-0.262298
-0.228458
-0.189609
-0.153097
-0.122462
-0.0984713
-0.0805661
-0.0677623
-0.0591417
-0.0540907
-0.0523831
-0.0541879
-0.0558459
-0.0446655
-0.0391343
-0.0359302
-0.0344191
-0.035393
-0.0397177
-0.048325
-0.0611792
-0.0781711
-0.0998246
-0.128169
-0.164866
-0.207516
-0.248004
-0.275074
-0.279888
-0.261699
-0.228225
-0.189567
-0.153096
-0.122391
-0.0982617
-0.0801812
-0.0671796
-0.0583397
-0.0530394
-0.0510299
-0.0524648
-0.057157
-0.048902
-0.0367985
-0.0309913
-0.0281678
-0.0273155
-0.0290635
-0.0340996
-0.043302
-0.0566351
-0.0740135
-0.0959884
-0.124619
-0.161601
-0.204585
-0.24552
-0.273166
-0.278615
-0.260974
-0.227907
-0.189478
-0.153072
-0.122314
-0.0980563
-0.0798074
-0.0666133
-0.0575597
-0.0520162
-0.049712
-0.050784
-0.0551037
-0.0424833
-0.0294158
-0.0231559
-0.0205485
-0.0203028
-0.0227615
-0.0284622
-0.038222
-0.0520049
-0.0697476
-0.0920269
-0.120929
-0.158181
-0.201484
-0.242858
-0.271081
-0.277185
-0.260125
-0.227505
-0.18934
-0.153026
-0.12223
-0.0978558
-0.0794454
-0.0660643
-0.0568024
-0.0510218
-0.0484303
-0.049146
-0.0530971
-0.036219
-0.0225231
-0.0156474
-0.0130937
-0.0133946
-0.0164956
-0.0228131
-0.0330921
-0.0472954
-0.0653802
-0.087947
-0.117105
-0.154612
-0.19822
-0.240025
-0.268824
-0.275599
-0.259154
-0.227021
-0.189155
-0.152958
-0.122142
-0.0976612
-0.0790961
-0.0655333
-0.0560686
-0.050057
-0.0471855
-0.0475518
-0.0511379
-0.0307487
-0.015905
-0.00848694
-0.00601031
-0.00660589
-0.0102752
-0.0171602
-0.0279198
-0.0425139
-0.0609184
-0.0837559
-0.113156
-0.150904
-0.194804
-0.23703
-0.266401
-0.273862
-0.25806
-0.226455
-0.188924
-0.15287
-0.12205
-0.0974733
-0.0787604
-0.0650211
-0.0553587
-0.0491224
-0.0459783
-0.0460019
-0.0492263
-0.0258402
-0.00981558
-0.00169656
0.0010499
4.46754e-05
-0.00411055
-0.0115119
-0.0227126
-0.0376676
-0.0563695
-0.0794612
-0.109088
-0.147063
-0.191242
-0.233879
-0.263818
-0.271975
-0.256846
-0.225807
-0.188648
-0.152762
-0.121955
-0.0972927
-0.078439
-0.0645283
-0.0546735
-0.0482186
-0.0448091
-0.0444969
-0.0473628
-0.00425178
0.00470188
0.0077799
0.0065367
0.00198755
-0.00587674
-0.0174785
-0.0327644
-0.0517412
-0.0750705
-0.104911
-0.143099
-0.187543
-0.23058
-0.261079
-0.269942
-0.255514
-0.225079
-0.188326
-0.152634
-0.121858
-0.0971203
-0.0781326
-0.0640554
-0.0540133
-0.0473459
-0.0436785
-0.0430374
-0.0455477
0.000805109
0.010686
0.0141541
0.0128589
0.00800652
-0.000264175
-0.0122257
-0.0278121
-0.0470413
-0.0705916
-0.100632
-0.139019
-0.183716
-0.227141
-0.25819
-0.267764
-0.254062
-0.224271
-0.18796
-0.152488
-0.121758
-0.0969564
-0.0778417
-0.063603
-0.0533785
-0.0465048
-0.0425869
-0.0416239
-0.0437813
0.00535258
0.0162419
0.0202072
0.0189937
0.0139319
0.00531578
-0.00696295
-0.022819
-0.0422779
-0.0660324
-0.0962578
-0.13483
-0.179769
-0.22357
-0.255156
-0.265445
-0.252494
-0.223383
-0.187549
-0.152323
-0.121656
-0.0968013
-0.0775666
-0.0631714
-0.0527692
-0.0456953
-0.0415345
-0.0402566
-0.0420638
0.00938544
0.0213587
0.02594
0.0249187
0.0197482
0.010852
-0.00169964
-0.0177939
-0.0374592
-0.0614012
-0.0917975
-0.130542
-0.17571
-0.219874
-0.251981
-0.262984
-0.250809
-0.222416
-0.187094
-0.15214
-0.121553
-0.0966557
-0.0773081
-0.0627611
-0.0521859
-0.0449179
-0.0405217
-0.0389363
-0.0403956
0.0128989
0.0260234
0.0313303
0.0306102
0.0254374
0.0163319
0.00355408
-0.0127457
-0.0325941
-0.0567061
-0.0872589
-0.126162
-0.171547
-0.216058
-0.248668
-0.260383
-0.249006
-0.22137
-0.186597
-0.151942
-0.121451
-0.0965223
-0.0770683
-0.0623739
-0.0516298
-0.0441735
-0.0395493
-0.0376636
-0.0387772
0.0158901
0.0302242
0.0363569
0.0360442
0.0309795
0.0217407
0.00878676
-0.00768442
-0.0276913
-0.0519555
-0.0826494
-0.121697
-0.167286
-0.212126
-0.245216
-0.257638
-0.247085
-0.220245
-0.18606
-0.151731
-0.121353
-0.0964028
-0.0768487
-0.0620108
-0.0511013
-0.0434621
-0.0386173
-0.0364384
-0.0372085
0.0183828
0.0339699
0.0410143
0.0412264
0.0363572
0.0270638
0.0139863
-0.00262044
-0.0227605
-0.0471584
-0.0779776
-0.117154
-0.162934
-0.208085
-0.241632
-0.254758
-0.245051
-0.219044
-0.185476
-0.151495
-0.121247
-0.0962855
-0.0766394
-0.0616637
-0.0505938
-0.0427783
-0.037721
-0.035257
-0.035686
0.0204387
0.0372972
0.0453204
0.0461495
0.041559
0.0322907
0.0191428
0.00243639
-0.0178118
-0.0423256
-0.0732551
-0.112548
-0.15851
-0.203957
-0.237948
-0.251772
-0.242921
-0.217758
-0.184822
-0.151206
-0.121104
-0.0961466
-0.0764218
-0.0613189
-0.0500971
-0.0421143
-0.0368554
-0.034117
-0.0342092
0.0219967
0.0401402
0.0492097
0.0503644
0.046541
0.0373941
0.0242397
0.00747528
-0.0128532
-0.0374636
-0.0684879
-0.107884
-0.154014
-0.199736
-0.234137
-0.248643
-0.240659
-0.216377
-0.184114
-0.150899
-0.120967
-0.0960299
-0.0762357
-0.0610108
-0.0496408
-0.0414962
-0.0360441
-0.0330413
-0.0328011
0.0226416
0.0421675
0.0524194
0.0544845
0.0511406
0.0422638
0.0292095
0.0124606
-0.00789435
-0.0325536
-0.0636226
-0.103063
-0.14928
-0.195159
-0.229858
-0.245058
-0.238119
-0.214933
-0.183518
-0.150799
-0.121065
-0.0961358
-0.0762453
-0.0608691
-0.049326
-0.041004
-0.0353498
-0.0320748
-0.0314958
0.0224827
0.0435489
0.0551149
0.0581025
0.0553585
0.0468494
0.0339778
0.0173205
-0.00299145
-0.0276258
-0.0586444
-0.098003
-0.144145
-0.190023
-0.224954
-0.240962
-0.235356
-0.213526
-0.183113
-0.150942
-0.121393
-0.0964336
-0.0764047
-0.0608376
-0.0490893
-0.0405682
-0.0346939
-0.0311245
-0.0301843
0.0467721
0.0593903
0.0629441
0.0604223
0.0519125
0.038962
0.0222036
0.00174303
-0.0231371
-0.0544578
-0.0941248
-0.14063
-0.18694
-0.222292
-0.23863
-0.233386
-0.211986
-0.181919
-0.149981
-0.120569
-0.0956755
-0.0756569
-0.0600497
-0.048222
-0.039596
-0.0335783
-0.0297842
-0.0285082
0.0576853
0.0723476
0.0779945
0.0759369
0.0672385
0.0537509
0.0361228
0.0143017
-0.012908
-0.0476826
-0.0915199
-0.142241
-0.191612
-0.227841
-0.242297
-0.233467
-0.209622
-0.178159
-0.145729
-0.116396
-0.091817
-0.0721552
-0.0568448
-0.04517
-0.0365522
-0.0304847
-0.0265398
-0.0247103
0.0638139
0.0794178
0.0856378
0.0854096
0.0781885
0.0653288
0.0477196
0.0253138
-0.00304719
-0.0392121
-0.0839481
-0.13417
-0.181323
-0.214827
-0.227135
-0.219496
-0.196761
-0.167078
-0.136712
-0.109282
-0.0862116
-0.0675982
-0.0529293
-0.0416024
-0.0331152
-0.0269585
-0.0227072
-0.0203979
0.0674388
0.0843227
0.0934636
0.0931843
0.0866344
0.0742184
0.0565774
0.0336753
0.00459157
-0.0320617
-0.0764752
-0.125155
-0.17011
-0.201775
-0.213193
-0.20543
-0.183894
-0.156119
-0.127823
-0.102233
-0.0805958
-0.0629931
-0.048973
-0.0380155
-0.0296776
-0.0234795
-0.0190215
-0.0163459
0.0686751
0.0865644
0.0967693
0.0983207
0.093039
0.0814388
0.0639942
0.0407196
0.0109882
-0.0260961
-0.0701612
-0.117431
-0.160207
-0.189366
-0.199003
-0.190906
-0.170552
-0.144778
-0.118677
-0.0950277
-0.0748913
-0.0583455
-0.0450098
-0.0344472
-0.0262834
-0.0200858
-0.015478
-0.0124853
0.0675742
0.0859544
0.0970549
0.100294
0.0964945
0.0860008
0.0690733
0.0457361
0.0156524
-0.0215467
-0.0648734
-0.110179
-0.149903
-0.175812
-0.1838
-0.175672
-0.156792
-0.133251
-0.109461
-0.0877924
-0.0691699
-0.0536943
-0.041064
-0.0309202
-0.0229575
-0.0167995
-0.0120929
-0.00884015
0.0646514
0.0831255
0.0948398
0.0993217
0.0968464
0.0874957
0.0713075
0.0482942
0.0184006
-0.0182081
-0.0599546
-0.102424
-0.138536
-0.161352
-0.16786
-0.160044
-0.142904
-0.12173
-0.100287
-0.0805954
-0.0634782
-0.0490735
-0.0371611
-0.0274558
-0.019718
-0.0136332
-0.00887501
-0.00542071
0.0604272
0.0786522
0.0906548
0.0959733
0.0945517
0.0862566
0.0709587
0.0486732
0.0196037
-0.01561
-0.0549418
-0.0939626
-0.126311
-0.146217
-0.151526
-0.144341
-0.129128
-0.110379
-0.0912628
-0.0735085
-0.0578654
-0.0445172
-0.0333256
-0.0240734
-0.016581
-0.0105981
-0.00583021
-0.00222995
0.0553087
0.0730383
0.0850614
0.0908935
0.0902823
0.0829493
0.0686727
0.0474958
0.0198391
-0.0132909
-0.049601
-0.0848438
-0.113442
-0.130684
-0.135145
-0.12887
-0.115694
-0.0993504
-0.0824871
-0.0665955
-0.0523749
-0.0400561
-0.0295795
-0.0207901
-0.0135608
-0.00770411
-0.00296276
0.000732207
0.0496048
0.0667086
0.0785588
0.0846765
0.0847011
0.0782772
0.0651531
0.0454185
0.0196584
-0.0108755
-0.0437816
-0.0751284
-0.100161
-0.115116
-0.119093
-0.113931
-0.102807
-0.0887755
-0.0740424
-0.0599109
-0.0470445
-0.0357178
-0.0259427
-0.017621
-0.0106697
-0.00495948
-0.000275344
0.00346791
0.0436712
0.0600099
0.0715539
0.0778079
0.0783619
0.0728364
0.0609922
0.0429709
0.0194656
-0.00814118
-0.0374753
-0.0650247
-0.0868288
-0.0999382
-0.103739
-0.0997856
-0.0906349
-0.0787563
-0.0659941
-0.053499
-0.0419064
-0.0315264
-0.022433
-0.014579
-0.00791777
-0.00237095
0.00223066
0.00598122
0.037682
0.0532016
0.0643542
0.0706513
0.0716739
0.0670551
0.0565921
0.0404719
0.0194403
-0.00509353
-0.0308976
-0.054925
-0.0739045
-0.0855625
-0.0893915
-0.0866313
-0.0792938
-0.0693645
-0.05839
-0.0473945
-0.036987
-0.0275022
-0.0190657
-0.011675
-0.00531298
5.63315e-05
0.00455513
0.00827796
0.031786
0.0464671
0.0571807
0.0634624
0.0649121
0.0611984
0.0521656
0.0380322
0.0195456
-0.00194104
-0.0244126
-0.045275
-0.0618546
-0.0723256
-0.0762669
-0.074591
-0.0688526
-0.0606427
-0.0512613
-0.0416226
-0.0323068
-0.023662
-0.0158534
-0.00891757
-0.00286112
0.00231888
0.00669908
0.0103654
0.0260903
0.0399359
0.0501871
0.0564142
0.0582516
0.055415
0.0477963
0.0356304
0.0196289
0.00103447
-0.0183835
-0.0364442
-0.0509604
-0.0604367
-0.0644767
-0.0637157
-0.0593357
-0.0526077
-0.0446246
-0.0361998
-0.027881
-0.0200189
-0.0128066
-0.0063135
-0.000565877
0.00441496
0.00866451
0.0122517
0.0206699
0.033697
0.0434776
0.0496214
0.0518035
0.0497883
0.0435107
0.0332092
0.0195379
0.00360267
-0.0130704
-0.0286626
-0.041381
-0.0499697
-0.0540365
-0.0539958
-0.0507322
-0.0452565
-0.0384844
-0.0311355
-0.0237201
-0.0165826
-0.00993311
-0.0038676
0.00157097
0.00634464
0.0104544
0.013946
0.015575
0.0278092
0.037121
0.0431592
0.0456396
0.0443718
0.0393252
0.0307337
0.0191841
0.00563972
-0.00859602
-0.0220099
-0.0331344
-0.0408919
-0.0448922
-0.0453798
-0.0430064
-0.0385709
-0.0328361
-0.0264326
-0.0198301
-0.0133595
-0.00723839
-0.00158296
0.00354938
0.00810974
0.0120725
0.0154573
0.0108374
0.0223103
0.0311611
0.0370757
0.0398077
0.0392049
0.0352627
0.0282044
0.0185483
0.00712353
-0.00496509
-0.0164498
-0.0261428
-0.0331043
-0.0369471
-0.0377909
-0.0361075
-0.0325229
-0.0276678
-0.0220891
-0.0162134
-0.0103532
-0.00472566
0.000538967
0.00537075
0.00971375
0.0135239
0.0167949
0.00647626
0.0172227
0.025624
0.0314003
0.0343388
0.0343183
0.0313518
0.0256479
0.0176605
0.00809906
-0.00210628
-0.0118776
-0.0202837
-0.0264765
-0.0300852
-0.0311406
-0.0299764
-0.0270782
-0.0229624
-0.0180986
-0.0128691
-0.00756454
-0.00239598
0.00249826
0.00703772
0.0111616
0.0148145
0.0179678
0.00250274
0.0125576
0.0205227
0.0261486
0.0292515
0.0297342
0.0276209
0.0231026
0.0165743
0.0086398
8.35586e-05
-0.00816208
-0.0154207
-0.0208704
-0.024186
-0.0253375
-0.0245513
-0.0221991
-0.0186996
-0.0144515
-0.00979339
-0.00499205
-0.000248424
0.00429645
0.00855392
0.0124594
0.0159516
0.0189849
-0.00108143
0.00831719
0.0158603
0.021326
0.0245545
0.0254673
0.024094
0.0206073
0.0153484
0.00882877
0.00170507
-0.00532388
-0.0114192
-0.0161505
-0.0191346
-0.0202931
-0.0197705
-0.0178461
-0.0148561
-0.0111353
-0.00698003
-0.00263229
0.00171968
0.00593644
0.00992384
0.0136139
0.0169433
0.0198553
-0.00428232
0.00449608
0.0116326
0.0169301
0.020249
0.0215246
0.0207887
0.018195
0.0140371
0.00874847
0.00288188
-0.00296649
-0.00812947
-0.0121915
-0.0148245
-0.0159245
-0.0155744
-0.0139798
-0.0114074
-0.00813556
-0.00442077
-0.000480059
0.00351251
0.00742235
0.0111527
0.0146326
0.0177986
0.0205885
-0.00710936
0.00108388
0.00782948
0.0129521
0.0163295
0.0179073
0.0177164
0.0158922
0.012686
0.00846597
0.00369587
-0.00112051
-0.00544184
-0.00888353
-0.0111602
-0.0121552
-0.0119063
-0.010561
-0.00832805
-0.00543635
-0.00210568
0.00147132
0.0051355
0.00875938
0.0122462
0.0155232
0.018527
0.0211944
-0.00957594
-0.00193407
0.00443621
0.00937878
0.012786
0.0146111
0.0148826
0.0137178
0.0113313
0.00803545
0.00421953
0.000304714
-0.00326004
-0.00613142
-0.00805696
-0.00891572
-0.00871339
-0.00755185
-0.0055921
-0.00302056
-2.35112e-05
0.00322976
0.00659512
0.00995365
0.0132109
0.0162932
0.0191381
0.0216833
-0.0116989
-0.00457563
0.00143479
0.00619335
0.00960481
0.011628
0.0122878
0.0116848
0.0100016
0.00750208
0.00451514
0.00138657
-0.00150288
-0.00385313
-0.00543993
-0.00614319
-0.00594625
-0.00491578
-0.0031738
-0.000870412
0.00183801
0.00480414
0.00789867
0.0110119
0.0140536
0.0169505
0.019641
0.0220655
-0.013497
-0.00686085
-0.00119523
0.00337643
0.00676936
0.0089467
0.00992892
0.00980141
0.0087189
0.00690171
0.00462056
0.00218825
-0.000100725
-0.00197783
-0.00324326
-0.00378099
-0.00355933
-0.0026181
-0.00104777
0.00103221
0.00349184
0.00620413
0.00905407
0.0119416
0.0147816
0.0175029
0.020045
0.0223511
-0.0149895
-0.0088115
-0.00347601
0.000906898
0.00426135
0.00655371
0.00779989
0.00807167
0.00749903
0.00626666
0.00460169
0.00276471
0.00100602
-0.000444235
-0.00140907
-0.0017783
-0.00151072
-0.000625974
0.000810701
0.0027055
0.0049514
0.00743993
0.0100697
0.0127502
0.0154023
0.017958
0.0203585
0.0225499
-0.0161977
-0.0104503
-0.00543068
-0.00123742
0.00206123
0.004434
0.00589255
0.00649617
0.00635343
0.00561945
0.00448276
0.00316114
0.00186835
0.000800428
0.000113424
-8.96195e-05
0.000237966
0.00109141
0.00242542
0.00416747
0.00623031
0.00852213
0.0109543
0.0134456
0.0159235
0.0183236
0.0205898
0.0226709
-0.0171441
-0.0118006
-0.00708286
-0.00307921
0.00014873
0.00257158
0.00419698
0.00507311
0.00529006
0.00497654
0.00429187
0.00341556
0.00252968
0.00180178
0.00136878
0.00132572
0.00172177
0.00256281
0.00381917
0.00543576
0.00734221
0.00946148
0.0117168
0.0140358
0.0163525
0.0186072
0.0207465
0.0227224
-0.0178503
-0.0128856
-0.00845619
-0.00464124
-0.00149657
0.000949921
0.00270221
0.00379895
0.00431421
0.00435436
0.00405284
0.00355903
0.00302675
0.00259918
0.00239603
0.00250399
0.00297254
0.00381495
0.00501357
0.00652748
0.00830058
0.0102688
0.0123661
0.0145287
0.016697
0.0188161
0.0208362
0.0227121
-0.018338
-0.0137283
-0.00957397
-0.00594595
-0.00289495
-0.000447664
0.00139666
0.00266858
0.00342834
0.00376347
0.0037849
0.00361754
0.0033907
0.00322653
0.00322934
0.00347747
0.00401916
0.00487251
0.006029
0.00745908
0.00911859
0.0109547
0.0129112
0.0149322
0.0169643
0.0189574
0.0208657
0.0226473
-0.018628
-0.014351
-0.0104589
-0.00701531
-0.00406638
-0.00163777
0.000268472
0.00167583
0.00263289
0.00321158
0.00350349
0.00361273
0.00364791
0.00371302
0.00389859
0.00427483
0.0048877
0.00575821
0.00688456
0.00824625
0.00980904
0.0115298
0.0133609
0.0152539
0.0171612
0.0190378
0.0208417
0.0225344
-0.0187407
-0.0147751
-0.0111327
-0.00787037
-0.00503019
-0.00263684
-0.000694544
0.0008139
0.00192723
0.00270452
0.00322081
0.00356249
0.00382069
0.00408371
0.00442982
0.00492148
0.00560168
0.00649285
0.00759807
0.00890388
0.0103842
0.0120041
0.0137238
0.0155012
0.0172947
0.0190638
0.0207704
0.0223796
-0.0186954
-0.0150212
-0.0116161
-0.00853123
-0.00580493
-0.00346068
-0.00150489
7.53321e-05
0.00130978
0.0022464
0.00294648
0.00348158
0.00392788
0.00436013
0.00484575
0.00543989
0.0061822
0.00709544
0.00818602
0.00944596
0.0108558
0.0123875
0.0140081
0.0156814
0.0173712
0.0190413
0.0206576
0.0221884
-0.0185102
-0.0151087
-0.0119289
-0.00901702
-0.00640828
-0.00412455
-0.00217326
-0.000547359
0.000777834
0.00183961
0.00268801
0.00338208
0.00398529
0.00456069
0.00516609
0.00584989
0.00664817
0.00758322
0.00866366
0.00988561
0.0112349
0.0126894
0.0142218
0.0158015
0.0173967
0.0189759
0.0205085
0.021966
-0.0182023
-0.0150556
-0.0120897
-0.00934583
-0.006857
-0.00464291
-0.00271243
-0.00106139
0.000327975
0.00148525
0.00245106
0.00327383
0.00400619
0.00470113
0.00540797
0.00616892
0.00701645
0.00797185
0.00904498
0.010235
0.011532
0.0129186
0.0143725
0.0158678
0.0173773
0.018873
0.0203282
0.0217172
-0.0177877
-0.0148791
-0.0121158
-0.00953476
-0.00716734
-0.00502844
-0.00313193
-0.00147446
-4.37941e-05
0.00118345
0.00223981
0.00316472
0.00400161
0.0047948
0.00558618
0.0064123
0.00730208
0.00827543
0.00934279
0.0105055
0.0117568
0.0130835
0.0144674
0.0158867
0.0173182
0.0187375
0.0201211
0.0214461
-0.0172812
-0.0145949
-0.0120235
-0.0095994
-0.00734847
-0.00529457
-0.00344264
-0.00179455
-0.000341796
0.000933528
0.00205718
0.00306102
0.00398068
0.00485304
0.00571347
0.0065934
0.00751836
0.00850663
0.00956872
0.0107074
0.0119185
0.013192
0.0145132
0.015864
0.0172246
0.0185739
0.0198913
0.0211568
-0.0166963
-0.0142174
-0.0118283
-0.00955393
-0.00742354
-0.00545427
-0.00365524
-0.00202924
-0.000570569
0.00073415
0.00190504
0.00296761
0.00395091
0.00488541
0.00580078
0.0067239
0.00767706
0.00867681
0.00973332
0.0108503
0.0120255
0.0132514
0.0145162
0.0158051
0.0171012
0.0183865
0.0196428
0.0208526
-0.0160454
-0.0137597
-0.0115466
-0.00941268
-0.00739962
-0.00551851
-0.00377936
-0.00218585
-0.000734794
0.000583469
0.0017844
0.00288822
0.00391838
0.00489989
0.00585748
0.00681392
0.00778853
0.00879606
0.00984612
0.0109429
0.0120855
0.0132685
0.0144825
0.0157152
0.0169526
0.018179
0.019379
0.020537
-0.0153396
-0.0132312
-0.0111655
-0.0091845
-0.00728862
-0.00549799
-0.00382399
-0.00227141
-0.000839201
0.000479254
0.00169558
0.00282557
0.00388797
0.00490313
0.0058915