/*--------------------------------*- C++ -*----------------------------------*\
  =========                 |
  \\      /  F ield         | OpenFOAM: The Open Source CFD Toolbox
   \\    /   O peration     | Website:  https://openfoam.org
    \\  /    A nd           | Version:  7
     \\/     M anipulation  |
\*---------------------------------------------------------------------------*/
FoamFile
{
    version     2.0;
    format      ascii;
    class       surfaceScalarField;
    location    "180";
    object      phi;
}
// * * * * * * * * * * * * * * * * * * * * * * * * * * * * * * * * * * * * * //

dimensions      [0 3 -1 0 0 0 0];

internalField   nonuniform List<scalar> 
14029
(
0.000377917
-0.00133964
0.0012062
0.000504804
0.000489705
-0.000616592
0.000626675
0.00241057
-0.00253244
0.000741005
0.00421244
-0.00432677
0.000840397
0.00567948
-0.00577887
0.000918221
0.00669644
-0.00677426
0.000971828
0.00728642
-0.00734003
0.00100253
0.00755217
-0.00758287
0.0010136
0.00761199
-0.00762306
0.00100701
0.00757085
-0.00756426
0.000981366
0.00753732
-0.00751167
0.000936785
0.00759569
-0.00755111
0.000884092
0.00767785
-0.00762516
0.000846361
0.00746946
-0.00743173
0.000845656
0.00655252
-0.00655182
0.000887696
0.0047333
-0.00477534
0.000962212
0.00221066
-0.00228518
0.00105284
-0.000563108
0.000472476
0.00114337
-0.00311781
0.00302729
0.00122111
-0.00513194
0.0050542
0.00127909
-0.00649487
0.0064369
0.00131554
-0.00727651
0.00724005
0.00133245
-0.00764653
0.00762962
0.00133453
-0.00777131
0.00776923
0.00132603
-0.00776189
0.0077704
0.00130673
-0.00772971
0.00774901
0.00127327
-0.00781684
0.0078503
0.00122577
-0.00805897
0.00810647
0.00117274
-0.00821461
0.00826764
-0.00781636
0.00786073
0.000342751
-0.00147664
0.000474594
0.000357861
0.000602062
0.0022831
0.000722175
0.00409233
0.000827242
0.00557441
0.000910335
0.00661334
0.000968524
0.00722823
0.00100301
0.00751768
0.00101706
0.00759794
0.00101263
0.00757528
0.000988509
0.00756144
0.000945439
0.00763876
0.000894933
0.00772835
0.000859939
0.00750445
0.000861315
0.00655115
0.000903589
0.00469102
0.000976365
0.00213788
0.00106392
-0.000650661
0.00115074
-0.00320464
0.00122471
-0.00520591
0.00127928
-0.00654944
0.00131292
-0.00731015
0.0013276
-0.00766121
0.00132792
-0.00777163
0.00131804
-0.00775202
0.00129767
-0.00770934
0.00126326
-0.00778243
0.00121481
-0.00801053
0.00116102
-0.00816082
-0.00777191
0.000307871
-0.00161688
0.000444436
0.000221296
0.000577351
0.00215019
0.000703151
0.00396653
0.000813832
0.00546373
0.000902174
0.006525
0.000964968
0.00716544
0.00100329
0.00747936
0.00102039
0.00758084
0.0010182
0.00757747
0.000995707
0.00758393
0.000954302
0.00768016
0.000906118
0.00777654
0.000873878
0.00753669
0.000877208
0.00654782
0.000919522
0.00464871
0.000990386
0.00206702
0.00107474
-0.000735016
0.0011578
-0.0032877
0.00122799
-0.00527609
0.00127915
-0.0066006
0.00131001
-0.00734101
0.00132252
-0.00767372
0.00132112
-0.00777023
0.00130992
-0.00774082
0.00128854
-0.00768795
0.00125325
-0.00774714
0.00120393
-0.00796121
0.00114943
-0.00810632
-0.00772739
0.000273399
-0.00175999
0.000414416
8.02793e-05
0.000552597
0.00201201
0.000683965
0.00383516
0.000800185
0.00534751
0.000893744
0.00643144
0.000961154
0.00709803
0.00100336
0.00743715
0.00102358
0.00756063
0.00102369
0.00757735
0.00100295
0.00760467
0.000963362
0.00771975
0.000917625
0.00782227
0.000888146
0.00756617
0.000893299
0.00654266
0.000935468
0.00460654
0.00100426
0.00199823
0.00108531
-0.000816065
0.00116454
-0.00336693
0.00123093
-0.00534248
0.0012787
-0.00664838
0.00130682
-0.00736913
0.00131721
-0.00768411
0.00131415
-0.00776717
0.00130168
-0.00772834
0.00127935
-0.00766562
0.00124325
-0.00771105
0.00119314
-0.0079111
0.00113797
-0.00805115
-0.00768276
0.000239451
-0.00190561
0.000384621
-6.48901e-05
0.000527854
0.00186877
0.000664646
0.00369837
0.000786314
0.00522584
0.000885046
0.00633271
0.00095708
0.00702599
0.00100322
0.00739101
0.00102661
0.00753724
0.00102911
0.00757485
0.00101022
0.00762356
0.000972602
0.00775737
0.00092943
0.00786545
0.000902709
0.00759289
0.000909553
0.00653582
0.000951399
0.0045647
0.00101797
0.00193166
0.00109561
-0.000893706
0.00117097
-0.00344229
0.00123355
-0.00540506
0.00127795
-0.00669279
0.00130337
-0.00739455
0.00131168
-0.00769243
0.00130701
-0.0077625
0.00129331
-0.00771464
0.0012701
-0.00764241
0.00123328
-0.00767423
0.00118245
-0.00786027
0.00112665
-0.00799536
-0.00763802
0.000206143
-0.00205332
0.000355131
-0.000213878
0.000503179
0.00172072
0.000645227
0.00355632
0.000772234
0.00509884
0.000876086
0.00622886
0.000952742
0.00694934
0.00100285
0.00734091
0.00102947
0.00751062
0.00103443
0.00756988
0.00101752
0.00764047
0.000982006
0.00779288
0.000941506
0.00790595
0.000917531
0.00761687
0.000925934
0.00652741
0.000967287
0.00452334
0.00103149
0.00186745
0.00110564
-0.000967848
0.00117708
-0.00351373
0.00123584
-0.00546382
0.0012769
-0.00673385
0.00129965
-0.00741729
0.00130595
-0.00769872
0.00129972
-0.00775628
0.00128484
-0.00769976
0.00126079
-0.00761836
0.00122334
-0.00763677
0.00117186
-0.00780879
0.00111548
-0.00793898
-0.00759315
0.000173573
-0.00220278
0.000326031
-0.000366337
0.000478624
0.00156813
0.000625739
0.00340921
0.000757961
0.00496661
0.000866865
0.00611996
0.000948134
0.00686807
0.00100224
0.0072868
0.00103214
0.00748073
0.00103964
0.00756238
0.00102481
0.0076553
0.000991554
0.00782614
0.000953823
0.00794368
0.000932574
0.00763812
0.000942405
0.00651758
0.000983106
0.00448264
0.00104482
0.00180574
0.00111538
-0.00103841
0.00118287
-0.00358122
0.00123782
-0.00551877
0.00127556
-0.00677159
0.00129568
-0.00743741
0.0013
-0.00770305
0.00129227
-0.00774854
0.00127626
-0.00768375
0.00125145
-0.00759355
0.00121342
-0.00759875
0.00116137
-0.00775674
0.00110445
-0.00788206
-0.00754813
0.000141837
-0.00235394
0.000297404
-0.000521904
0.000454244
0.00141129
0.000606213
0.00325724
0.000743507
0.00482932
0.000857387
0.00600608
0.000943252
0.0067822
0.00100139
0.00722866
0.00103462
0.0074475
0.00104472
0.00755228
0.0010321
0.00766792
0.00100122
0.00785702
0.000966351
0.00797855
0.000947799
0.00765667
0.000958931
0.00650645
0.000998828
0.00444274
0.00105794
0.00174663
0.00112485
-0.00110532
0.00118834
-0.00364472
0.00123948
-0.00556991
0.00127393
-0.00680603
0.00129145
-0.00745493
0.00129386
-0.00770546
0.00128468
-0.00773936
0.00126759
-0.00766666
0.00124206
-0.00756802
0.00120354
-0.00756023
0.001151
-0.0077042
0.00109358
-0.00782464
-0.00750295
0.000111034
-0.00250522
0.00026932
-0.000680189
0.000430091
0.00125052
0.00058668
0.00310065
0.000728889
0.00468711
0.000847655
0.00588731
0.000938089
0.00669177
0.00100027
0.00716647
0.00103688
0.0074109
0.00104966
0.00753949
0.00103935
0.00767824
0.00101099
0.00788537
0.000979056
0.00801049
0.000963169
0.00767256
0.000975475
0.00649415
0.00101443
0.00440379
0.00107082
0.00169024
0.00113401
-0.00116852
0.0011935
-0.0037042
0.00124084
-0.00561725
0.00127201
-0.0068372
0.00128699
-0.00746991
0.00128753
-0.007706
0.00127694
-0.00772877
0.00125882
-0.00764853
0.00123264
-0.00754184
0.0011937
-0.0075213
0.00114075
-0.00765124
0.00108287
-0.00776676
-0.00745758
8.12427e-05
-0.00265646
0.000241849
-0.000840795
0.000406212
0.00108616
0.00056717
0.00293969
0.000714119
0.00454016
0.000837671
0.00576376
0.000932641
0.0065968
0.000998887
0.00710023
0.0010389
0.00737088
0.00105444
0.00752396
0.00104655
0.00768613
0.00102083
0.00791109
0.000991903
0.00803942
0.000978642
0.00768582
0.000992
0.00648079
0.00102988
0.00436591
0.00108346
0.00163666
0.00114288
-0.00122794
0.00119834
-0.00375966
0.00124188
-0.0056608
0.00126982
-0.00686514
0.00128229
-0.00748239
0.00128101
-0.00770472
0.00126908
-0.00771683
0.00124996
-0.00762942
0.00122318
-0.00751506
0.0011839
-0.00748203
0.00113061
-0.00759795
0.00107232
-0.00770847
-0.00741202
5.25246e-05
-0.00280703
0.000215053
-0.00100332
0.000382655
0.000918555
0.00054771
0.00277463
0.000699213
0.00438866
0.000827437
0.00563553
0.000926901
0.00649734
0.000997215
0.00702991
0.00104068
0.00732742
0.00105903
0.0075056
0.00105367
0.00769149
0.00103072
0.00793404
0.00100486
0.00806528
0.000994178
0.00769649
0.00100847
0.0064665
0.00104515
0.00432923
0.00109584
0.00158597
0.00115145
-0.00128355
0.00120286
-0.00381107
0.00124263
-0.00570056
0.00126735
-0.00688986
0.00127736
-0.00749239
0.00127431
-0.00770168
0.00126108
-0.0077036
0.00124102
-0.00760936
0.00121369
-0.00748773
0.00117414
-0.00744248
0.00112059
-0.00754439
0.00106193
-0.00764982
-0.00736623
2.48785e-05
-0.00295615
0.000188984
-0.00116743
0.000359463
0.000748076
0.000528328
0.00260577
0.000684182
0.00423281
0.000816957
0.00550276
0.000920863
0.00639343
0.000995243
0.00695553
0.00104219
0.00728047
0.00106342
0.00748437
0.0010607
0.00769421
0.00104062
0.00795412
0.00101788
0.00808802
0.00100974
0.00770464
0.00102485
0.00645138
0.00106023
0.00429385
0.00110794
0.00153825
0.0011597
-0.0013353
0.00120706
-0.00385843
0.00124307
-0.00573657
0.00126462
-0.00691142
0.0012722
-0.00749997
0.00126744
-0.00769692
0.00125296
-0.00768912
0.001232
-0.0075884
0.00120417
-0.0074599
0.00116443
-0.00740274
0.00111068
-0.00749065
0.00105171
-0.00759085
-0.00732022
-3.06185e-06
-0.00310151
0.000163693
-0.00133418
0.000336679
0.00057509
0.00050905
0.0024334
0.000669041
0.00407282
0.000806232
0.00536557
0.00091452
0.00628514
0.000992958
0.0068771
0.00104341
0.00723002
0.00106759
0.00746019
0.00106761
0.00769419
0.0010505
0.00797123
0.00103093
0.00810759
0.00102527
0.00771029
0.0010411
0.00643555
0.00107507
0.00425988
0.00111976
0.00149357
0.00116763
-0.00138318
0.00121094
-0.00390174
0.00124321
-0.00576884
0.00126163
-0.00692983
0.00126682
-0.00750517
0.00126039
-0.00769049
0.00124472
-0.00767344
0.0012229
-0.00756658
0.00119462
-0.00743161
0.00115475
-0.00736287
0.0011009
-0.0074368
0.00104165
-0.0075316
-0.00727396
-2.63851e-05
-0.00324548
0.000139256
-0.00149983
0.000314337
0.000400009
0.0004899
0.00225784
0.000653801
0.00390891
0.000795264
0.00522411
0.000907865
0.00617254
0.000990345
0.00679462
0.00104432
0.00717604
0.00107152
0.007433
0.00107437
0.00769134
0.00106034
0.00798526
0.00104397
0.00812396
0.00104075
0.00771351
0.0010572
0.0064191
0.00108967
0.00422741
0.00113127
0.00145197
0.00117525
-0.00142716
0.00121451
-0.003941
0.00124306
-0.00579739
0.00125838
-0.00694515
0.00126123
-0.00750802
0.00125318
-0.00768243
0.00123636
-0.00765662
0.00121373
-0.00754395
0.00118504
-0.00740292
0.00114511
-0.00732294
0.00109123
-0.00738292
0.00103176
-0.00747213
-0.00722744
-4.94616e-05
-0.00338594
0.00011569
-0.00166498
0.000292475
0.000223225
0.0004709
0.00207941
0.000638474
0.00374134
0.000784055
0.00507852
0.000900892
0.00605571
0.00098739
0.00670812
0.00104492
0.00711852
0.00107517
0.00740274
0.00108096
0.00768556
0.0010701
0.00799612
0.00105696
0.0081371
0.00105613
0.00771435
0.0010731
0.00640213
0.00110399
0.00419651
0.00114247
0.0014135
0.00118253
-0.00146722
0.00121775
-0.00397622
0.00124261
-0.00582225
0.00125487
-0.00695741
0.00125542
-0.00750857
0.00124579
-0.00767281
0.00122788
-0.0076387
0.00120448
-0.00752056
0.00117543
-0.00737388
0.00113551
-0.00728302
0.00108167
-0.00732909
0.00102203
-0.00741249
-0.00718065
-7.11238e-05
-0.00352175
9.3041e-05
-0.00182914
0.000271124
4.51427e-05
0.00045207
0.00189846
0.00062307
0.00357034
0.000772608
0.00492899
0.000893592
0.00593472
0.000984078
0.00661763
0.00104516
0.00705743
0.00107854
0.00736935
0.00108735
0.00767675
0.00107974
0.00800373
0.00106987
0.00814697
0.00107136
0.00771285
0.00108877
0.00638473
0.00111802
0.00416726
0.00115333
0.00137819
0.00118948
-0.00150337
0.00122067
-0.00400742
0.00124188
-0.00584345
0.00125111
-0.00696664
0.00124941
-0.00750687
0.00123825
-0.00766165
0.00121929
-0.00761975
0.00119517
-0.00749643
0.0011658
-0.00734451
0.00112594
-0.00724317
0.00107222
-0.00727537
0.00101246
-0.00735272
-0.00713358
-9.11427e-05
-0.00365178
7.13501e-05
-0.00199164
0.000250307
-0.000133814
0.000433426
0.00171534
0.0006076
0.00339617
0.000760922
0.00477566
0.000885959
0.00580968
0.000980395
0.0065232
0.00104504
0.00699279
0.0010816
0.00733279
0.00109352
0.00766483
0.00108924
0.00800801
0.00108265
0.00815357
0.00108642
0.00770908
0.00110418
0.00636697
0.00113172
0.00413971
0.00116385
0.00134606
0.00119609
-0.00153561
0.00122328
-0.00403461
0.00124085
-0.00586103
0.00124711
-0.0069729
0.00124319
-0.00750294
0.00123055
-0.00764901
0.00121059
-0.00759979
0.00118578
-0.00747162
0.00115613
-0.00731486
0.00111641
-0.00720344
0.00106288
-0.00722184
0.00100304
-0.00729288
-0.00708622
-0.000109354
-0.00377487
5.06572e-05
-0.00215165
0.000230025
-0.000313182
0.000414985
0.00153038
0.000592073
0.00321908
0.000748999
0.00461874
0.000877985
0.0056807
0.000976324
0.00642486
0.00104454
0.00692457
0.00108433
0.007293
0.00109943
0.00764972
0.00109856
0.00800888
0.00109525
0.00815688
0.00110125
0.00770308
0.00111929
0.00634894
0.00114508
0.00411392
0.00117401
0.00131713
0.00120235
-0.00156395
0.00122556
-0.00405782
0.00123955
-0.00587501
0.00124286
-0.00697621
0.00123676
-0.00749685
0.00122268
-0.00763493
0.00120179
-0.0075789
0.00117633
-0.00744616
0.00114643
-0.00728496
0.0011069
-0.00716391
0.00105364
-0.00716859
0.000993782
-0.00723302
-0.00703857
-0.000125592
-0.00388985
3.09287e-05
-0.00230817
0.000210326
-0.00049258
0.000396761
0.00134395
0.000576495
0.00303934
0.00073684
0.00445839
0.000869662
0.00554788
0.000971852
0.00632267
0.00104363
0.00685279
0.00108669
0.00724994
0.00110507
0.00763135
0.00110766
0.00800629
0.00110765
0.00815688
0.00111583
0.0076949
0.00113408
0.00633068
0.00115808
0.00408992
0.00118381
0.0012914
0.00120827
-0.00158841
0.00122753
-0.00407708
0.00123795
-0.00588544
0.00123837
-0.00697663
0.00123014
-0.00748862
0.00121467
-0.00761945
0.00119287
-0.0075571
0.0011668
-0.00742009
0.0011367
-0.00725486
0.00109741
-0.00712461
0.0010445
-0.00711568
0.00098467
-0.0071732
-0.00699063
-0.000139675
-0.00399553
1.20269e-05
-0.00245987
0.000191229
-0.000671782
0.000378767
0.00115641
0.000560874
0.00285724
0.000724445
0.00429482
0.000860982
0.00541134
0.000966962
0.00621669
0.0010423
0.00677745
0.00108868
0.00720356
0.0011104
0.00760963
0.00111651
0.00800018
0.00111981
0.00815359
0.00113011
0.0076846
0.00114852
0.00631227
0.00117069
0.00406775
0.00119323
0.00126887
0.00121384
-0.00160902
0.00122917
-0.00409242
0.00123608
-0.00589234
0.00123365
-0.0069742
0.00122333
-0.0074783
0.00120649
-0.00760262
0.00118385
-0.00753445
0.00115721
-0.00739346
0.00112693
-0.00722457
0.00108793
-0.00708561
0.00103544
-0.00706319
0.000975702
-0.00711346
-0.0069424
-0.000151411
-0.00409077
-6.25397e-06
-0.00260503
0.000172755
-0.000850791
0.000361023
0.000968145
0.000545215
0.00267304
0.000711812
0.00412823
0.000851936
0.00527122
0.000961642
0.00610698
0.00104053
0.00669857
0.00109026
0.00715382
0.00111539
0.00758451
0.00112508
0.00799049
0.00113167
0.00814699
0.00114406
0.00767221
0.00116257
0.00629375
0.0011829
0.00404742
0.00120225
0.00124952
0.00121904
-0.00162581
0.0012305
-0.00410387
0.00123392
-0.00589576
0.00122868
-0.00696896
0.00121632
-0.00746593
0.00119817
-0.00758447
0.00117471
-0.007511
0.00114755
-0.0073663
0.00111712
-0.00719414
0.00107846
-0.00704695
0.00102646
-0.00701119
0.000966874
-0.00705387
-0.00689387
-0.000160596
-2.08096e-05
-0.00274481
0.000154963
-0.00102656
0.000343539
0.000779569
0.000529524
0.00248706
0.000698941
0.00395881
0.000842518
0.00512764
0.000955875
0.00599362
0.00103829
0.00661615
0.00109142
0.00710069
0.00112001
0.00755592
0.00113332
0.00797718
0.00114322
0.00813709
0.00115764
0.00765779
0.00117622
0.00627518
0.00119469
0.00402895
0.00121088
0.00123333
0.00122389
-0.00163882
0.0012315
-0.00411148
0.00123149
-0.00589575
0.00122349
-0.00696096
0.00120911
-0.00745155
0.00118969
-0.00756504
0.00116547
-0.00748679
0.00113783
-0.00733865
0.00110727
-0.00716359
0.001069
-0.00700868
0.00101756
-0.00695975
0.000958178
-0.00699449
-0.00684506
-3.45204e-05
-0.00287734
0.000137893
-0.00119898
0.000326333
0.000591128
0.000513805
0.00229959
0.00068583
0.00378678
0.000832718
0.00498075
0.000949648
0.00587669
0.00103558
0.00653021
0.00109213
0.00704414
0.00112425
0.00752381
0.00114122
0.00796021
0.0011544
0.00812391
0.00117082
0.00764138
0.00118943
0.00625657
0.00120604
0.00401234
0.0012191
0.00122027
0.00122837
-0.0016481
0.00123219
-0.0041153
0.00122878
-0.00589234
0.00121806
-0.00695024
0.00120172
-0.00743521
0.00118105
-0.00754438
0.00115612
-0.00746185
0.00112803
-0.00731056
0.00109738
-0.00713295
0.00105953
-0.00697083
0.00100872
-0.00690894
0.000949608
-0.00693537
-0.00679598
-4.67205e-05
-0.00300119
0.000121618
-0.00136731
0.00030942
0.000403326
0.000498062
0.00211095
0.000672478
0.00361237
0.000822528
0.0048307
0.000942947
0.00575627
0.00103237
0.00644079
0.00109238
0.00698414
0.00112807
0.00748812
0.00114873
0.00793954
0.0011652
0.00810744
0.00118357
0.007623
0.00120217
0.00623797
0.00121693
0.00399759
0.0012269
0.0012103
0.00123249
-0.00165369
0.00123255
-0.00411536
0.00122579
-0.00588557
0.0012124
-0.00693686
0.00119414
-0.00741695
0.00117227
-0.00752252
0.00114666
-0.00743624
0.00111815
-0.00728205
0.00108744
-0.00710223
0.00105005
-0.00693345
0.000999942
-0.00685882
0.000941157
-0.00687659
-0.00674663
-5.71046e-05
-0.00311507
0.000106231
-0.00153065
0.000292829
0.000216728
0.000482302
0.00192147
0.000658882
0.00343579
0.00081194
0.00467764
0.00093576
0.00563245
0.00102865
0.0063479
0.00109213
0.00692066
0.00113144
0.00744881
0.00115583
0.00791516
0.00117556
0.0080877
0.00119586
0.00760271
0.00121443
0.0062194
0.00122734
0.00398468
0.00123427
0.00120337
0.00123624
-0.00165566
0.0012326
-0.00411172
0.00122253
-0.0058755
0.00120651
-0.00692084
0.00118637
-0.0073968
0.00116333
-0.00749948
0.00113709
-0.00741
0.00110821
-0.00725317
0.00107744
-0.00707146
0.00104056
-0.00689656
0.000991207
-0.00680948
0.000932817
-0.0068182
-0.00669703
-6.54223e-05
-0.00321779
9.18538e-05
-0.00168793
0.000276612
3.19698e-05
0.000466534
0.00173155
0.000645041
0.00325728
0.000800947
0.00452174
0.000928073
0.00550533
0.0010244
0.00625158
0.00109137
0.00685368
0.00113435
0.00740584
0.00116248
0.00788703
0.00118547
0.0080647
0.00120765
0.00758053
0.00122618
0.00620086
0.00123728
0.00397358
0.00124121
0.00119943
0.00123962
-0.00165406
0.00123233
-0.00410443
0.00121899
-0.00586216
0.0012004
-0.00690225
0.00117841
-0.00737481
0.00115425
-0.00747532
0.00112741
-0.00738316
0.00109819
-0.00722395
0.00106739
-0.00704067
0.00103103
-0.0068602
0.000982509
-0.00676096
0.000924581
-0.00676027
-0.0066472
-7.14339e-05
-0.0033083
7.8627e-05
-0.00183799
0.000260799
-0.000150202
0.000450766
0.00154158
0.000630955
0.00307709
0.000789542
0.00436315
0.000919876
0.00537499
0.0010196
0.00615185
0.00109009
0.00678319
0.00113676
0.00735917
0.00116865
0.00785514
0.00119489
0.00803847
0.00121893
0.00755649
0.00123741
0.00618238
0.00124671
0.00396428
0.00124772
0.00119842
0.00124262
-0.00164896
0.00123174
-0.00409355
0.00121518
-0.00584561
0.00119406
-0.00688112
0.00117027
-0.00735102
0.00114501
-0.00745006
0.00111761
-0.00735576
0.00108809
-0.00719443
0.00105729
-0.00700987
0.00102147
-0.00682438
0.000973837
-0.00671332
0.000916439
-0.00670287
-0.00659716
-7.49188e-05
-0.0033857
6.67332e-05
-0.00197964
0.00024542
-0.000328889
0.000435023
0.00135198
0.000616625
0.00289549
0.000777719
0.00420206
0.000911159
0.00524155
0.00101425
0.00604877
0.00108826
0.00670917
0.00113866
0.00730877
0.00117433
0.00781947
0.00120379
0.00800901
0.00122966
0.00753062
0.00124808
0.00616396
0.00125563
0.00395674
0.00125378
0.00120027
0.00124525
-0.00164044
0.00123083
-0.00407913
0.0012111
-0.00582589
0.00118749
-0.00685751
0.00116194
-0.00732548
0.00113561
-0.00742373
0.00110769
-0.00732784
0.00107791
-0.00716465
0.00104712
-0.00697908
0.00101187
-0.00678913
0.000965179
-0.00666663
0.000908383
-0.00664608
-0.00654695
-7.56721e-05
-0.00344934
5.62846e-05
-0.0021116
0.000230641
-0.000503245
0.000419331
0.00116329
0.000602059
0.00271276
0.000765476
0.00403864
0.000901914
0.00510512
0.00100832
0.00594236
0.00108587
0.00663162
0.00114002
0.00725462
0.00117947
0.00778002
0.00121214
0.00797634
0.00123982
0.00750293
0.0012582
0.00614559
0.00126403
0.0039509
0.00125939
0.00120491
0.00124751
-0.00162856
0.0012296
-0.00406123
0.00120676
-0.00580304
0.0011807
-0.00683145
0.00115343
-0.00729821
0.00112607
-0.00739636
0.00109765
-0.00729942
0.00106764
-0.00713464
0.00103688
-0.00694831
0.00100221
-0.00675446
0.000956525
-0.00662095
0.000900402
-0.00658995
-0.00649657
-7.35199e-05
-0.00349878
4.75478e-05
-0.00223266
0.000216547
-0.000672244
0.000403743
0.000976095
0.000587267
0.00252924
0.000752811
0.0038731
0.000892134
0.00496579
0.00100182
0.00583267
0.00108291
0.00655054
0.00114083
0.0071967
0.00118406
0.00773678
0.00121992
0.00794049
0.0012494
0.00747345
0.00126772
0.00612726
0.0012719
0.00394673
0.00126455
0.00121226
0.00124939
-0.0016134
0.00122806
-0.0040399
0.00120214
-0.00577711
0.00117368
-0.00680299
0.00114474
-0.00726926
0.00111636
-0.00736799
0.00108749
-0.00727055
0.00105729
-0.00710444
0.00102657
-0.00691759
0.000992502
-0.00672039
0.000947862
-0.00657631
0.000892487
-0.00653458
-0.00644609
-6.83251e-05
-0.0035339
4.08013e-05
-0.00234179
0.000203302
-0.000834745
0.000388321
0.000791076
0.00057227
0.00234529
0.000739728
0.00370564
0.000881816
0.0048237
0.000994729
0.00571976
0.00107935
0.00646591
0.00114106
0.007135
0.00118808
0.00768976
0.0012271
0.00790147
0.00125836
0.0074422
0.00127666
0.00610896
0.00127923
0.00394416
0.00126925
0.00122224
0.0012509
-0.00159504
0.00122621
-0.00401522
0.00119725
-0.00574815
0.00116644
-0.00677218
0.00113586
-0.00723868
0.00110651
-0.00733864
0.00107721
-0.00724126
0.00104685
-0.00707408
0.00101619
-0.00688693
0.000982724
-0.00668692
0.000939178
-0.00653276
0.000884627
-0.00648003
-0.00639552
-6.00093e-05
-0.00355489
3.62893e-05
-0.00243809
0.00019109
-0.000989545
0.000373147
0.000609019
0.000557096
0.00216134
0.000726234
0.0035365
0.000870958
0.00467898
0.000987045
0.00560367
0.0010752
0.00637776
0.0011407
0.0070695
0.0011915
0.00763895
0.00123367
0.0078593
0.00126669
0.00740918
0.00128498
0.00609067
0.00128601
0.00394313
0.00127351
0.00123474
0.00125204
-0.00157357
0.00122405
-0.00398722
0.0011921
-0.0057162
0.00115898
-0.00673906
0.00112679
-0.0072065
0.0010965
-0.00730834
0.0010668
-0.00721156
0.00103632
-0.0070436
0.00100573
-0.00685634
0.000972874
-0.00665407
0.000930462
-0.00649035
0.000876811
-0.00642638
-0.00634492
-4.85705e-05
-0.00356221
3.42426e-05
-0.0025209
0.000180113
-0.00113542
0.000358325
0.000430807
0.00054179
0.00197787
0.000712347
0.00336594
0.000859565
0.00453176
0.000978765
0.00548447
0.00107044
0.00628609
0.00113973
0.0070002
0.00119431
0.00758438
0.00123961
0.007814
0.00127438
0.00737441
0.00129268
0.00607237
0.00129224
0.00394357
0.00127731
0.00124967
0.00125281
-0.00154907
0.00122157
-0.00395598
0.00118668
-0.00568131
0.00115129
-0.00670368
0.00111755
-0.00717275
0.00108633
-0.00727712
0.00105626
-0.00718149
0.00102569
-0.00701303
0.000995194
-0.00682585
0.000962942
-0.00662181
0.000921701
-0.00644911
0.000869026
-0.0063737
0.000818447
-0.00629435
-0.00588392
-3.41113e-05
-0.00355664
3.48613e-05
-0.00258987
0.000170602
-0.00127116
0.000343996
0.000257413
0.00052641
0.00179546
0.000698087
0.00319427
0.000847644
0.00438221
0.000969889
0.00536223
0.00106506
0.00619091
0.00113815
0.00692711
0.00119648
0.00752604
0.00124489
0.0077656
0.00128141
0.00733789
0.00129975
0.00605402
0.00129792
0.0039454
0.00128066
0.00126693
0.00125321
-0.00152162
0.00121878
-0.00392155
0.00118099
-0.00564352
0.00114338
-0.00666606
0.00110812
-0.00713749
0.001076
-0.00724501
0.00104558
-0.00715108
0.00101496
-0.00698241
0.000984568
-0.00679546
0.000952923
-0.00659017
0.000912883
-0.00640907
0.000861262
-0.00632208
0.000810756
-0.00624384
-0.00585876
-1.68988e-05
-0.00354037
3.82842e-05
-0.00264506
0.000162808
-0.00139568
0.000330341
8.98801e-05
0.000511036
0.00161476
0.00068349
0.00302181
0.00083521
0.00423049
0.00096042
0.00523702
0.00105907
0.00609227
0.00113594
0.00685024
0.00119801
0.00746397
0.0012495
0.00771411
0.00128776
0.00729962
0.00130618
0.0060356
0.00130304
0.00394854
0.00128357
0.00128641
0.00125326
-0.00149131
0.00121569
-0.00388398
0.00117504
-0.00560287
0.00113525
-0.00662627
0.0010985
-0.00710074
0.00106551
-0.00721202
0.00103477
-0.00712034
0.00100412
-0.00695175
0.000973854
-0.0067652
0.000942809
-0.00655912
0.000903996
-0.00637025
0.000853505
-0.00627159
0.000803135
-0.00619347
-0.00583273
1.74741e-06
-0.00350983
4.46071e-05
-0.00268792
0.000156962
-0.00150803
0.000317526
-7.06838e-05
0.000495764
0.00143652
0.000668603
0.00284897
0.000822283
0.00407681
0.000950366
0.00510894
0.00105245
0.00599018
0.00113309
0.00676961
0.00119888
0.00739818
0.00125342
0.00765956
0.00129343
0.00725962
0.00131197
0.00601706
0.00130761
0.00395289
0.00128604
0.00130798
0.00125295
-0.00145823
0.0012123
-0.00384333
0.00116883
-0.00555941
0.00112689
-0.00658433
0.0010887
-0.00706254
0.00105487
-0.00717819
0.00102383
-0.0070893
0.000993174
-0.0069211
0.000963047
-0.00673507
0.000932595
-0.00652867
0.000895026
-0.00633269
0.000845742
-0.0062223
0.000795574
-0.0061433
-0.0058058
2.67817e-05
-0.0034715
5.38913e-05
-0.00271503
0.000153342
-0.00160749
0.000305698
-0.00022304
0.000480722
0.0012615
0.000653485
0.00267621
0.000808893
0.0039214
0.00093974
0.00497809
0.00104522
0.0058847
0.00112959
0.00668524
0.00119907
0.0073287
0.00125666
0.00760197
0.0012984
0.00721788
0.0013171
0.00599836
0.00131163
0.00395836
0.00128808
0.00133154
0.0012523
-0.00142246
0.0012086
-0.00379963
0.00116236
-0.00551316
0.00111832
-0.00654029
0.00107871
-0.00702294
0.00104406
-0.00714354
0.00101273
-0.00705797
0.000982115
-0.00689048
0.000952144
-0.0067051
0.000922274
-0.0064988
0.000885964
-0.00629638
0.000837958
-0.0061743
0.000788069
-0.00609341
-0.005778
5.23751e-05
6.6061e-05
-0.00272871
0.000152031
-0.00169346
0.000295195
-0.000366204
0.000466056
0.00109064
0.000638217
0.00250405
0.000795079
0.00376454
0.000928561
0.00484461
0.00103738
0.00577589
0.00112545
0.00659716
0.00119859
0.00725557
0.00125919
0.00754137
0.00130267
0.0071744
0.00132157
0.00597946
0.0013151
0.00396482
0.0012897
0.00135694
0.00125131
-0.00138407
0.00120461
-0.00375293
0.00115562
-0.00546417
0.00110952
-0.00649418
0.00106854
-0.00698196
0.00103309
-0.00710809
0.0010015
-0.00702638
0.000970939
-0.00685992
0.00094114
-0.0066753
0.000911841
-0.0064695
0.000876797
-0.00626133
0.000830141
-0.00612764
0.000780609
-0.00604388
-0.00574931
8.0989e-05
-0.00273013
0.000153221
-0.00176569
0.000286202
-0.000499185
0.000451949
0.000924891
0.000622898
0.0023331
0.000780891
0.00360654
0.000916853
0.00470865
0.00102893
0.00566381
0.00112067
0.00650542
0.00119742
0.00717882
0.00126101
0.00747779
0.00130623
0.00712917
0.00132539
0.00596031
0.00131804
0.00397217
0.00129092
0.00138406
0.00125
-0.00134314
0.00120033
-0.00370326
0.00114863
-0.00541247
0.0011005
-0.00644605
0.00105818
-0.00693964
0.00102196
-0.00707187
0.000990118
-0.00699453
0.000959643
-0.00682944
0.000930033
-0.00664569
0.000901291
-0.00644076
0.000867514
-0.00622756
0.000822276
-0.0060824
0.000773187
-0.00599479
-0.00571976
9.84808e-05
-0.0027205
0.000157057
-0.00182426
0.000278973
-0.000621101
0.000438603
0.000765261
0.000607649
0.00216405
0.000766396
0.0034478
0.000904649
0.00457039
0.0010199
0.00554856
0.00111524
0.00641008
0.00119556
0.00709849
0.00126211
0.00741124
0.00130908
0.00708221
0.00132855
0.00594083
0.00132046
0.00398026
0.00129177
0.00141275
0.00124837
-0.00129974
0.00119576
-0.00365065
0.00114138
-0.00535809
0.00109125
-0.00639592
0.00104764
-0.00689603
0.00101066
-0.0070349
0.000978586
-0.00696245
0.000948221
-0.00679908
0.000918818
-0.00661629
0.000890618
-0.00641256
0.000858104
-0.00619504
0.000814347
-0.00603865
0.000765794
-0.00594624
-0.00568935
0.000118282
-0.00270115