/*--------------------------------*- C++ -*----------------------------------*\
  =========                 |
  \\      /  F ield         | OpenFOAM: The Open Source CFD Toolbox
   \\    /   O peration     | Website:  https://openfoam.org
    \\  /    A nd           | Version:  7
     \\/     M anipulation  |
\*---------------------------------------------------------------------------*/
FoamFile
{
    version     2.0;
    format      ascii;
    class       volScalarField;
    location    "20";
    object      p;
}
// * * * * * * * * * * * * * * * * * * * * * * * * * * * * * * * * * * * * * //

dimensions      [0 2 -2 0 0 0 0];

internalField   nonuniform List<scalar> 
7156
(
-0.0562663
-0.0664014
-0.0578947
-0.0495763
-0.0681615
-0.0592552
-0.0509216
-0.0427672
-0.0702644
-0.0606782
-0.0519756
-0.0438247
-0.0358424
-0.072683
-0.0624258
-0.0530539
-0.0445661
-0.0366073
-0.0288052
-0.0874862
-0.0754527
-0.0644668
-0.0544386
-0.0452928
-0.0370305
-0.029273
-0.0216592
-0.0915332
-0.078617
-0.0668337
-0.0560941
-0.0463074
-0.0373992
-0.0293731
-0.0218259
-0.0144082
-0.0960854
-0.0822153
-0.0695684
-0.05805
-0.0475701
-0.0380372
-0.029378
-0.0215984
-0.0142704
-0.00705625
-0.101185
-0.0862889
-0.0727083
-0.0603463
-0.0491072
-0.0389004
-0.0296334
-0.0212344
-0.0137114
-0.00661105
0.000392253
-0.106869
-0.0908786
-0.076293
-0.0630187
-0.0509571
-0.0400115
-0.0300908
-0.0211018
-0.0129738
-0.00571733
0.00114687
0.00793251
-0.113162
-0.096021
-0.080362
-0.0661049
-0.0531535
-0.0414074
-0.0307693
-0.0211476
-0.0124483
-0.00460238
0.0023779
0.00899779
0.0155592
-0.120059
-0.101741
-0.0849519
-0.0696436
-0.0557324
-0.0431198
-0.0317041
-0.0213874
-0.0120773
-0.00367956
0.00387365
0.0105681
0.0169356
0.0232664
-0.108037
-0.0900879
-0.0736707
-0.0587317
-0.0451834
-0.0329253
-0.0218545
-0.0118726
-0.0028868
0.00519784
0.0124475
0.0188466
0.0249536
0.0310474
-0.11486
-0.0957708
-0.0782123
-0.0621869
-0.0476352
-0.0344663
-0.0225778
-0.0118662
-0.0022323
0.00641685
0.0141768
0.0211121
0.0272063
0.0330444
0.0388942
-0.122079
-0.101956
-0.0832713
-0.0661248
-0.0505103
-0.0363631
-0.0235896
-0.0120856
-0.00174679
0.0075261
0.0158264
0.0232501
0.0298599
0.0356394
0.0411998
0.0467976
-0.129441
-0.108519
-0.0888068
-0.0705503
-0.0538361
-0.038651
-0.0249252
-0.0125622
-0.00145691
0.00849571
0.017395
0.0253344
0.0324102
0.0386833
0.044138
0.0494109
0.0547465
-0.136522
-0.115217
-0.0947022
-0.0754265
-0.0576198
-0.0413577
-0.0266196
-0.013331
-0.00139345
0.00929958
0.0188532
0.0273667
0.0349334
0.0416497
0.0475744
0.0526935
0.0576679
0.0627277
-0.142681
-0.121637
-0.100724
-0.0806438
-0.0618283
-0.0444924
-0.0287012
-0.0144268
-0.0015909
0.00990735
0.0201751
0.0293175
0.0374334
0.0446161
0.0509613
0.0565252
0.0612977
0.0659601
0.0707242
-0.127154
-0.106472
-0.0859784
-0.0663586
-0.048026
-0.0311811
-0.0158787
-0.00208403
0.0102848
0.0213305
0.0311606
0.0398802
0.0475875
0.0543751
0.0603376
0.0655282
0.069942
0.0742757
0.0787133
-0.130906
-0.111334
-0.0910428
-0.0709969
-0.051862
-0.0340339
-0.0176992
-0.00290239
0.0103973
0.0222854
0.0328659
0.042247
0.050533
0.0578213
0.0642035
0.0697722
0.0745763
0.078619
0.082602
0.0866663
-0.131834
-0.114463
-0.0952399
-0.0753687
-0.0557964
-0.0371697
-0.0198668
-0.0040603
0.0102149
0.0230054
0.0343998
0.0445036
0.0534248
0.0612673
0.068127
0.0740945
0.0792589
0.0836636
0.0873227
0.090929
0.0945566
-0.114808
-0.0977374
-0.0788924
-0.0594682
-0.0403943
-0.0222981
-0.00553976
0.00972153
0.02346
0.035728
0.0466168
0.056233
0.0646846
0.0720744
0.0784973
0.084042
0.0887924
0.092785
0.0960506
0.099255
0.102358
-0.111231
-0.0974955
-0.0807514
-0.0623114
-0.0433601
-0.0248084
-0.00726352
0.00893189
0.023632
0.0368198
0.0485527
0.0589249
0.0680435
0.0760165
0.0829457
0.0889245
0.0940398
0.098368
0.101937
0.104807
0.107581
0.109994
-0.102749
-0.0933781
-0.0799186
-0.0635265
-0.0455176
-0.0270639
-0.00905683
0.00791702
0.0235324
0.0376564
0.0502805
0.0614669
0.071312
0.079924
0.0874104
0.093872
0.0994011
0.104082
0.107982
0.111124
0.113609
0.115891
0.117283
-0.0844021
-0.0752628
-0.0621005
-0.0460849
-0.028532
-0.0105994
0.00684196
0.0232263
0.0382458
0.0517799
0.0638281
0.0744574
0.0837662
0.0918633
0.0988559
0.104844
0.109919
0.114163
0.117632
0.120358
0.12249
0.124161
0.12404
-0.0700961
-0.0658023
-0.0569096
-0.044065
-0.0284494
-0.011376
0.00601323
0.0228692
0.038647
0.0530558
0.0659872
0.0774487
0.0875111
0.096275
0.10385
0.110342
0.115852
0.12047
0.124275
0.127318
0.129654
0.131475
0.132417
0.130628
-0.0510435
-0.046975
-0.0383435
-0.0258365
-0.010643
0.00592846
0.0227537
0.039006
0.0541614
0.0679459
0.0802631
0.0911276
0.100614
0.108826
0.115871
0.121858
0.126885
0.131042
0.134409
0.137033
0.139007
0.14051
0.140619
0.138983
-0.0310259
-0.0317813
-0.0279446
-0.0195888
-0.00743863
0.00731131
0.0233597
0.0396015
0.055233
0.0697514
0.0828994
0.0945918
0.10485
0.113754
0.121405
0.127916
0.133392
0.137932
0.141626
0.144552
0.146763
0.148373
0.149535
0.149243
0.148128
-0.0112484
-0.0123364
-0.00873797
-0.000671757
0.0111034
0.0253898
0.0408953
0.0565358
0.0715309
0.0853991
0.0978993
0.108958
0.118602
0.126915
0.134001
0.139971
0.144932
0.148981
0.15221
0.154694
0.156493
0.15773
0.158529
0.157921
0.156929
0.00868528
0.00726417
0.0106181
0.0183817
0.0297647
0.0435685
0.058513
0.0735355
0.08788
0.101086
0.112929
0.123344
0.132367
0.140084
0.146599
0.152024
0.156466
0.160021
0.162781
0.164823
0.166207
0.167064
0.167495
0.166591
0.165527
0.0287474
0.0269934
0.0300969
0.0375454
0.0485199
0.0618236
0.07619
0.0905795
0.104261
0.116794
0.12797
0.137736
0.146132
0.153246
0.159186
0.164063
0.167981
0.17104
0.173329
0.174926
0.175893
0.176363
0.176423
0.175217
0.173991
0.0489101
0.0468238
0.049671
0.0567928
0.0673436
0.080131
0.0939037
0.107647
0.120653
0.132504
0.143007
0.152117
0.15988
0.166388
0.171749
0.176073
0.179467
0.182027
0.183842
0.184991
0.185539
0.185616
0.1853
0.18378
0.182338
0.069145
0.0667275
0.0693133
0.0760974
0.0862103
0.0984663
0.111631
0.124716
0.137037
0.148199
0.158021
0.16647
0.173597
0.179495
0.184274
0.188044
0.19091
0.192968
0.194309
0.195008
0.195133
0.194812
0.194115
0.192269
0.190577
0.0894238
0.0866767
0.088996
0.0954323
0.105094
0.116805
0.12935
0.141765
0.153393
0.163858
0.172995
0.180779
0.187267
0.192553
0.196747
0.199961
0.202298
0.203854
0.204717
0.204965
0.204665
0.203942
0.202859
0.200677
0.198713
0.109718
0.106643
0.108692
0.114771
0.12397
0.135124
0.147037
0.158773
0.169702
0.179465
0.187913
0.195029
0.200874
0.205546
0.209156
0.211812
0.213619
0.214671
0.215057
0.214853
0.214125
0.212997
0.211525
0.208999
0.206748
0.129999
0.126599
0.128373
0.134086
0.142812
0.153398
0.16467
0.17572
0.185942
0.194999
0.202755
0.209202
0.214404
0.218462
0.221486
0.223584
0.224861
0.22541
0.225318
0.22466
0.223503
0.221969
0.220103
0.21723
0.214681
0.150239
0.146516
0.148011
0.153351
0.161594
0.171602
0.182225
0.192583
0.202095
0.210444
0.217506
0.223283
0.227842
0.231286
0.233724
0.235265
0.236012
0.236058
0.235488
0.234377
0.232791
0.230848
0.228588
0.225366
0.22251
0.170409
0.166366
0.167579
0.17254
0.180292
0.189713
0.199681
0.209341
0.21814
0.225779
0.232148
0.237255
0.241172
0.244002
0.245856
0.246842
0.247061
0.246605
0.245558
0.243995
0.241979
0.239628
0.236974
0.2334
0.230233
0.19048
0.18612
0.18705
0.191625
0.198878
0.207708
0.217014
0.225974
0.234058
0.240987
0.246664
0.251102
0.254379
0.256599
0.25787
0.258303
0.257995
0.257039
0.255517
0.253503
0.251059
0.2483
0.245252
0.241328
0.237845
0.210425
0.205752
0.206396
0.21058
0.217329
0.225561
0.234203
0.242461
0.24983
0.256051
0.261036
0.264809
0.267449
0.26906
0.269753
0.269634
0.268803
0.26735
0.265356
0.262892
0.260023
0.256857
0.253416
0.249144
0.245342
0.230214
0.225233
0.22559
0.229379
0.235619
0.24325
0.251225
0.25878
0.265436
0.27095
0.275249
0.27836
0.280366
0.281373
0.28149
0.280825
0.279474
0.277527
0.275063
0.272154
0.268861
0.265291
0.261461
0.256842
0.25272
0.249822
0.244535
0.244604
0.247996
0.253724
0.26075
0.268058
0.274912
0.280857
0.285669
0.289284
0.291738
0.293115
0.293523
0.29307
0.291863
0.289996
0.287559
0.284631
0.281279
0.277566
0.273595
0.269378
0.264417
0.269218
0.263632
0.263413
0.266404
0.271618
0.27804
0.284681
0.290836
0.296074
0.300188
0.303126
0.304929
0.305683
0.305497
0.30448
0.302735
0.300359
0.297437
0.294047
0.290258
0.286129
0.281761
0.277162
0.271862
0.288378
0.282496
0.281989
0.28458
0.289279
0.295095
0.301072
0.306532
0.311069
0.314492
0.316759
0.317917
0.318055
0.317282
0.315707
0.313431
0.31055
0.307149
0.303304
0.299082
0.294542
0.289781
0.284805
0.279171
0.307272
0.3011
0.300307
0.302497
0.306681
0.311895
0.317211
0.321981
0.325822
0.328561
0.330166
0.330687
0.330217
0.328865
0.326738
0.323939
0.32056
0.316686
0.312392
0.307743
0.302797
0.297649
0.292301
0.325876
0.319419
0.31834
0.32013
0.323801
0.328416
0.333076
0.337163
0.340317
0.342381
0.343331
0.343224
0.342155
0.340232
0.337562
0.334247
0.330378
0.326038
0.321301
0.316232
0.310887
0.305357
0.299643
0.344162
0.337427
0.336065
0.337456
0.340617
0.344636
0.348647
0.352059
0.354535
0.355933
0.356239
0.355514
0.353855
0.35137
0.348166
0.344344
0.339993
0.335195
0.330023
0.32454
0.318803
0.312898
0.306825
0.362106
0.355097
0.353455
0.354451
0.357105
0.360536
0.363905
0.366651
0.368459
0.369202
0.368875
0.367543
0.365304
0.362268
0.35854
0.354219
0.349394
0.344147
0.338548
0.332659
0.326537
0.320264
0.313839
0.379681
0.372406
0.370487
0.371091
0.373244
0.376093
0.378829
0.38092
0.382072
0.382172
0.381223
0.379296
0.376489
0.372912
0.36867
0.363861
0.358573
0.352885
0.346868
0.340582
0.334082
0.327448
0.396863
0.389329
0.387137
0.387354
0.389012
0.391287
0.393401
0.394849
0.395357
0.394827
0.39327
0.390759
0.387397
0.383291
0.378546
0.37326
0.367518
0.3614
0.354974
0.348299
0.34143
0.334445
0.413629
0.405842
0.403381
0.403216
0.404387
0.406099
0.407602
0.408419
0.408298
0.407152
0.405
0.40192
0.398015
0.393393
0.388158
0.382405
0.376221
0.369682
0.362857
0.355804
0.348575
0.341245
0.429954
0.421922
0.419197
0.418657
0.41935
0.420508
0.421414
0.421615
0.420879
0.419132
0.4164
0.412766
0.408332
0.403207
0.397493
0.391287
0.384672
0.377724
0.37051
0.363087
0.355508
0.347844
0.445817
0.437547
0.434564
0.433655
0.433879
0.434497
0.43482
0.43442
0.433084
0.430752
0.427457
0.423283
0.418335
0.41272
0.406543
0.399895
0.392861
0.385516
0.377924
0.370143
0.362224
0.461194
0.452694
0.449459
0.448191
0.447957
0.448047
0.447801
0.446817
0.444899
0.441999
0.438157
0.433459
0.428012
0.421924
0.415296
0.40822
0.40078
0.393049
0.385092
0.376963
0.368714
0.476064
0.467342
0.463862
0.462243
0.461563
0.461141
0.460342
0.458791
0.45631
0.452859
0.448487
0.443283
0.437354
0.430806
0.423742
0.416253
0.40842
0.400317
0.392005
0.383541
0.374973
0.490406
0.481471
0.477752
0.475793
0.47468
0.47376
0.472427
0.470328
0.467301
0.463319
0.458436
0.452743
0.446348
0.439358
0.431873
0.423985
0.415774
0.40731
0.398658
0.389869
0.380994
0.504201
0.495061
0.491112
0.488822
0.48729
0.48589
0.484041
0.481412
0.47786
0.473367
0.467991
0.461827
0.454984
0.447568
0.43968
0.431407
0.422831
0.414022
0.405041
0.395941
0.38677
0.51743
0.508093
0.503922
0.501314
0.499377
0.497514
0.495168
0.492031
0.487974
0.48299
0.477141
0.470526
0.463253
0.455429
0.447152
0.438512
0.429586
0.420446
0.41115
0.401751
0.530073
0.520548
0.516165
0.51325
0.510925
0.508616
0.505794
0.50217
0.49763
0.492176
0.485875
0.478829
0.471145
0.46293
0.454282
0.44529
0.436031
0.426573
0.416977
0.407293
0.542114
0.532411
0.527823
0.524614
0.521918
0.519184
0.515907
0.511818
0.506817
0.500915
0.494184
0.486726
0.47865
0.470063
0.461063
0.451735
0.442158
0.432398
0.422515
0.41256
0.553535
0.543663
0.538881
0.535392
0.532341
0.529202
0.525493
0.520962
0.515523
0.509195
0.502056
0.494207
0.48576
0.476821
0.467485
0.457839
0.44796
0.437914
0.42776
0.417547
0.564321
0.55429
0.549323
0.545568
0.542181
0.538659
0.534539
0.52959
0.523738
0.517008
0.509482
0.501265
0.492467
0.483194
0.473542
0.463596
0.453432
0.443116
0.432705
0.422248
0.574457
0.564277
0.559135
0.55513
0.551425
0.547541
0.543036
0.537693
0.531452
0.524344
0.516454
0.507891
0.498763
0.489177
0.479227
0.468999
0.458567
0.447997
0.437345
0.42666
0.583929
0.573609
0.568304
0.564063
0.560061
0.555838
0.550971
0.54526
0.538654
0.531193
0.522964
0.514076
0.50464
0.494761
0.484534
0.474042
0.46336
0.452552
0.441675
0.430776
0.592723
0.582273
0.576817
0.572356
0.568077
0.563538
0.558335
0.552282
0.545338
0.537547
0.529003
0.519815
0.510092
0.499941
0.489456
0.478719
0.467805
0.456777
0.445691
0.600828
0.590259
0.584662
0.579998
0.575463
0.570632
0.565118
0.558749
0.551493
0.5434
0.534565
0.525099
0.515113
0.504711
0.493988
0.483025
0.471897
0.460666
0.449387
0.608232
0.597554
0.591828
0.586978
0.582208
0.577111
0.571313
0.564655
0.557113
0.548743
0.539642
0.529923
0.519696
0.509065
0.498124
0.486956
0.475632
0.464215
0.45276
0.614926
0.604149
0.598306
0.593288
0.588305
0.582965
0.57691
0.569991
0.56219
0.55357
0.544229
0.534281
0.523835
0.512998
0.501861
0.490506
0.479005
0.467421
0.455807
0.620899
0.610034
0.604087
0.598917
0.593744
0.588189
0.581904
0.57475
0.56672
0.557876
0.548321
0.538167
0.527528
0.516505
0.505193
0.493671
0.482013
0.470279
0.458523
0.626143
0.615202
0.609163
0.60386
0.598519
0.592774
0.586287
0.578928
0.570695
0.561655
0.551911
0.541578
0.530768
0.519583
0.508117
0.496449
0.484652
0.472787
0.460906
0.630652
0.619644
0.613526
0.608109
0.602624
0.596715
0.590054
0.582519
0.574112
0.564903
0.554997
0.54451
0.533552
0.522228
0.510629
0.498836
0.48692
0.474942
0.462954
0.634419
0.623356
0.617172
0.611659
0.606053
0.600007
0.593201
0.585518
0.576965
0.567615
0.557574
0.546958
0.535878
0.524437
0.512727
0.50083
0.488814
0.476741
0.464664
0.637438
0.626332
0.620094
0.614504
0.608802
0.602646
0.595723
0.587922
0.579252
0.569789
0.559639
0.548919
0.537741
0.526207
0.514409
0.502427
0.490332
0.478183
0.466034
0.639707
0.628567
0.622289
0.616642
0.610866
0.604628
0.597617
0.589727
0.58097
0.571422
0.561191
0.550393
0.539141
0.527536
0.515672
0.503627
0.491471
0.479266
0.467063
0.641221
0.630059
0.623754
0.618068
0.612244
0.605951
0.598882
0.590932
0.582116
0.572511
0.562226
0.551376
0.540075
0.528423
0.516514
0.504427
0.492232
0.479989
0.46775
0.641978
0.630805
0.624487
0.618782
0.612934
0.606613
0.599514
0.591535
0.58269
0.573056
0.562744
0.551868
0.540542
0.528867
0.516936
0.504828
0.492612
0.48035
0.468093
0.641978
0.630805
0.624487
0.618782
0.612934
0.606613
0.599514
0.591535
0.58269
0.573056
0.562744
0.551868
0.540542
0.528867
0.516936
0.504828
0.492612
0.48035
0.468093
0.641221
0.630059
0.623754
0.618068
0.612244
0.605951
0.598882
0.590932
0.582116
0.572511
0.562226
0.551376
0.540075
0.528423
0.516514
0.504427
0.492232
0.479989
0.46775
0.639707
0.628567
0.622289
0.616642
0.610866
0.604628
0.597617
0.589727
0.58097
0.571422
0.561191
0.550393
0.539141
0.527536
0.515672
0.503627
0.491471
0.479266
0.467063
0.637439
0.626332
0.620094
0.614504
0.608802
0.602646
0.595723
0.587922
0.579252
0.569789
0.559639
0.548919
0.537741
0.526207
0.514409
0.502427
0.490332
0.478183
0.466034
0.634419
0.623356
0.617172
0.611659
0.606053
0.600007
0.593201
0.585518
0.576965
0.567615
0.557574
0.546958
0.535878
0.524437
0.512727
0.50083
0.488814
0.476741
0.464664
0.630652
0.619645
0.613526
0.608109
0.602624
0.596715
0.590054
0.582519
0.574112
0.564903
0.554997
0.54451
0.533552
0.522228
0.510629
0.498836
0.48692
0.474942
0.462954
0.626143
0.615202
0.609163
0.60386
0.598519
0.592774
0.586287
0.578928
0.570695
0.561655
0.551911
0.541578
0.530768
0.519583
0.508117
0.496449
0.484652
0.472787
0.460906
0.620899
0.610035
0.604087
0.598917
0.593744
0.588189
0.581904
0.574751
0.56672
0.557876
0.548321
0.538167
0.527528
0.516505
0.505193
0.493671
0.482013
0.470279
0.458523
0.614926
0.604149
0.598307
0.593288
0.588305
0.582966
0.57691
0.569991
0.562191
0.55357
0.544229
0.534281
0.523835
0.512998
0.50186
0.490506
0.479005
0.467421
0.455806
0.608233
0.597555
0.591829
0.586978
0.582208
0.577111
0.571313
0.564655
0.557113
0.548743
0.539642
0.529923
0.519696
0.509065
0.498124
0.486956
0.475632
0.464215
0.45276
0.600829
0.590259
0.584662
0.579998
0.575463
0.570632
0.565119
0.558749
0.551493
0.5434
0.534565
0.525099
0.515113
0.504711
0.493987
0.483025
0.471897
0.460666
0.449387
0.592724
0.582274
0.576817
0.572356
0.568077
0.563539
0.558335
0.552282
0.545338
0.537547
0.529003
0.519815
0.510092
0.499941
0.489456
0.478719
0.467805
0.456777
0.44569
0.583929
0.573609
0.568305
0.564063
0.560061
0.555838
0.550971
0.54526
0.538655
0.531193
0.522964
0.514076
0.50464
0.494761
0.484534
0.474042
0.46336
0.452552
0.441675
0.430776
0.574458
0.564277
0.559136
0.55513
0.551426
0.547542
0.543036
0.537693
0.531452
0.524344
0.516454
0.507891
0.498763
0.489177
0.479227
0.468999
0.458567
0.447997
0.437345
0.42666
0.564322
0.55429
0.549323
0.545569
0.542182
0.538659
0.53454
0.529591
0.523738
0.517008
0.509482
0.501265
0.492467
0.483194
0.473542
0.463596
0.453432
0.443116
0.432705
0.422248
0.553536
0.543664
0.538881
0.535392
0.532341
0.529203
0.525493
0.520962
0.515523
0.509196
0.502056
0.494207
0.48576
0.476821
0.467485
0.457839
0.44796
0.437914
0.42776
0.417546
0.542114
0.532411
0.527823
0.524614
0.521918
0.519184
0.515907
0.511818
0.506817
0.500915
0.494184
0.486725
0.47865
0.470063
0.461062
0.451735
0.442158
0.432398
0.422515
0.412559
0.530074
0.520549
0.516165
0.51325
0.510925
0.508617
0.505795
0.50217
0.49763
0.492176
0.485875
0.478829
0.471145
0.46293
0.454282
0.44529
0.436031
0.426573
0.416976
0.407292
0.51743
0.508093
0.503922
0.501314
0.499378
0.497514
0.495168
0.492031
0.487974
0.48299
0.477141
0.470526
0.463253
0.455429
0.447152
0.438511
0.429586
0.420445
0.41115
0.401751
0.504202
0.495061
0.491113
0.488823
0.487291
0.48589
0.484041
0.481412
0.47786
0.473367
0.467991
0.461827
0.454984
0.447568
0.439679
0.431407
0.422831
0.414022
0.405041
0.395941
0.38677
0.490407
0.481471
0.477753
0.475793
0.47468
0.47376
0.472428
0.470328
0.467301
0.463319
0.458436
0.452743
0.446348
0.439358
0.431873
0.423985
0.415773
0.40731
0.398657
0.389869
0.380993
0.476064
0.467342
0.463862
0.462243
0.461563
0.461141
0.460343
0.458791
0.45631
0.452859
0.448487
0.443283
0.437353
0.430806
0.423742
0.416253
0.40842
0.400316
0.392005
0.38354
0.374972
0.461194
0.452694
0.449459
0.448191
0.447957
0.448047
0.447801
0.446817
0.444899
0.441999
0.438157
0.433459
0.428012
0.421924
0.415295
0.40822
0.40078
0.393049
0.385091
0.376963
0.368714
0.445817
0.437547
0.434564
0.433656
0.43388
0.434497
0.43482
0.43442
0.433084
0.430752
0.427457
0.423283
0.418334
0.41272
0.406542
0.399894
0.392861
0.385515
0.377924
0.370143
0.362223
0.429955
0.421923
0.419198
0.418657
0.41935
0.420508
0.421414
0.421615
0.420879
0.419132
0.4164
0.412766
0.408332
0.403206
0.397493
0.391286
0.384671
0.377723
0.37051
0.363087
0.355508
0.347844
0.413629
0.405843
0.403381
0.403216
0.404387
0.406099
0.407602
0.408419
0.408298
0.407152
0.405
0.40192
0.398015
0.393393
0.388157
0.382405
0.376221
0.369682
0.362857
0.355803
0.348574
0.341245
0.396864
0.38933
0.387137
0.387354
0.389012
0.391287
0.393401
0.394849
0.395357
0.394827
0.393269
0.390759
0.387397
0.383291
0.378546
0.373259
0.367518
0.361399
0.354973
0.348299
0.34143
0.334444
0.379681
0.372407
0.370487
0.371091
0.373244
0.376093
0.378829
0.38092
0.382072
0.382172
0.381223
0.379295
0.376489
0.372912
0.368669
0.36386
0.358572
0.352884
0.346867
0.340581
0.334081
0.327448
0.362106
0.355098
0.353455
0.354451
0.357105
0.360536
0.363905
0.366651
0.368459
0.369202
0.368874
0.367542
0.365304
0.362267
0.358539
0.354218
0.349394
0.344146
0.338548
0.332659
0.326536
0.320263
0.313838
0.344162
0.337427
0.336065
0.337456
0.340617
0.344636
0.348647
0.352059
0.354535
0.355933
0.356239
0.355514
0.353855
0.35137
0.348166
0.344343
0.339992
0.335194
0.330022
0.324539
0.318802
0.312897
0.306824
0.325876
0.319419
0.31834
0.32013
0.323801
0.328416
0.333076
0.337163
0.340317
0.34238
0.34333
0.343223
0.342154
0.340231
0.337561
0.334246
0.330377
0.326037
0.321301
0.316231
0.310886
0.305356
0.299643
0.307272
0.3011
0.300306
0.302497
0.30668
0.311895
0.31721
0.32198
0.325822
0.328561
0.330165
0.330686
0.330217
0.328864
0.326737
0.323938
0.320559
0.316685
0.312391
0.307742
0.302797
0.297649
0.2923
0.288378
0.282495
0.281989
0.28458
0.289278
0.295095
0.301072
0.306532
0.311068
0.314491
0.316758
0.317916
0.318055
0.317282
0.315706
0.31343
0.310549
0.307148
0.303303
0.299081
0.294541
0.289781
0.284804
0.27917
0.269218
0.263631
0.263412
0.266404
0.271618
0.278039
0.284681
0.290835
0.296073
0.300188
0.303126
0.304928
0.305683
0.305497
0.304479
0.302735
0.300358
0.297436
0.294046
0.290257
0.286128
0.28176
0.277161
0.271861
0.249821
0.244535
0.244604
0.247995
0.253724
0.26075
0.268058
0.274911
0.280856
0.285668
0.289283
0.291737
0.293115
0.293522
0.29307
0.291862
0.289995
0.287558
0.28463
0.281278
0.277565
0.273594
0.269377
0.264416
0.230214
0.225232
0.225589
0.229378
0.235619
0.243249
0.251224
0.258779
0.265435
0.27095
0.275248
0.278359
0.280365
0.281372
0.28149
0.280824
0.279473
0.277526
0.275062
0.272153
0.26886
0.26529
0.26146
0.256841
0.252719
0.210424
0.205751
0.206396
0.210579
0.217329
0.22556
0.234202
0.24246
0.249829
0.25605
0.261035
0.264808
0.267448
0.269059
0.269752
0.269633
0.268802
0.267349
0.265355
0.262891
0.260022
0.256856
0.253415
0.249142
0.245341
0.19048
0.18612
0.18705
0.191624
0.198878
0.207707
0.217014
0.225973
0.234057
0.240987
0.246663
0.251101
0.254378
0.256598
0.257869
0.258302
0.257994
0.257038
0.255516
0.253502
0.251058
0.248299
0.245251
0.241326
0.237844
0.170408
0.166365
0.167579
0.172539
0.180291
0.189713
0.19968
0.20934
0.218139
0.225778
0.232147
0.237254
0.241171
0.244001
0.245855
0.246841
0.24706
0.246603
0.245557
0.243993
0.241978
0.239627
0.236972
0.233399
0.230232
0.150238
0.146515
0.14801
0.153351
0.161594
0.171601
0.182224
0.192582
0.202094
0.210443
0.217505
0.223282
0.227841
0.231284
0.233723
0.235264
0.236011
0.236057
0.235487
0.234376
0.23279
0.230847
0.228587
0.225364
0.222509
0.129998
0.126598
0.128372
0.134085
0.142811
0.153397
0.164669
0.175719
0.185941
0.194998
0.202754
0.209201
0.214403
0.218461
0.221484
0.223583
0.22486
0.225409
0.225317
0.224659
0.223502
0.221968
0.220102
0.217229
0.214679
0.109717
0.106642
0.108691
0.11477
0.123969
0.135123
0.147036
0.158772
0.1697
0.179464
0.187911
0.195028
0.200873
0.205545
0.209154
0.211811
0.213617
0.21467
0.215056
0.214852
0.214123
0.212996
0.211523
0.208998
0.206746
0.0894226
0.0866755
0.0889948
0.0954311
0.105093
0.116804
0.129349
0.141764
0.153392
0.163857
0.172994
0.180778
0.187265
0.192551
0.196746
0.19996
0.202296
0.203852
0.204716
0.204964
0.204663
0.203941
0.202858
0.200676
0.198711
0.0691436
0.0667261
0.0693119
0.076096
0.086209
0.098465
0.11163
0.124714
0.137036
0.148197
0.158019
0.166468
0.173595
0.179494
0.184272
0.188042
0.190908
0.192967
0.194307
0.195007
0.195131
0.194811
0.194114
0.192268
0.190575
0.0489086
0.0468222
0.0496695
0.0567913
0.0673421
0.0801295
0.0939022
0.107645
0.120651
0.132503
0.143005
0.152115
0.159879
0.166387
0.171747
0.176072
0.179465
0.182025
0.183841
0.18499
0.185537
0.185614
0.185299
0.183779
0.182337
0.0287458
0.0269917
0.0300952
0.0375437
0.0485182
0.061822
0.0761883
0.0905779
0.104259
0.116792
0.127969
0.137734
0.14613
0.153244
0.159185
0.164061
0.16798
0.171039
0.173328
0.174924
0.175892
0.176361
0.176422
0.175216
0.17399
0.0086835
0.00726232
0.0106163
0.0183799
0.0297629
0.0435667
0.0585112
0.0735337
0.0878782
0.101084
0.112927
0.123343
0.132366
0.140082
0.146597
0.152023
0.156464
0.160019
0.16278
0.164821
0.166205
0.167062
0.167493
0.166589
0.165525
-0.0112504
-0.0123385
-0.00874
-0.000673774
0.0111015
0.0253878
0.0408934
0.0565339
0.071529
0.0853972
0.0978974
0.108956
0.1186
0.126913
0.133999
0.139969
0.14493
0.148979
0.152208
0.154693
0.156491
0.157728
0.158527
0.157919
0.156928
-0.031028
-0.0317835
-0.0279468
-0.019591
-0.00744078
0.00730919
0.0233576
0.0395995
0.055231
0.0697494
0.0828974
0.0945898
0.104848
0.113752
0.121403
0.127914
0.13339
0.13793
0.141624
0.14455
0.146761
0.148372
0.149533
0.149242
0.148126
-0.0510459
-0.0469774
-0.0383458
-0.0258388
-0.0106453
0.00592622
0.0227515
0.0390038
0.0541592
0.0679438
0.080261
0.0911255
0.100612
0.108824
0.115869
0.121856
0.126883
0.13104
0.134407
0.137031
0.139005
0.140508
0.140617
0.138982
-0.0700987
-0.0658049
-0.0569122
-0.0440675
-0.0284518
-0.0113784
0.00601087
0.0228669
0.0386447
0.0530535
0.065985
0.0774464
0.0875089
0.0962729
0.103848
0.11034
0.11585
0.120467
0.124273
0.127316
0.129652
0.131473
0.132415
0.130626
-0.0844049
-0.0752656
-0.0621032
-0.0460875
-0.0285345
-0.010602
0.00683949
0.0232239
0.0382434
0.0517775
0.0638258
0.0744551
0.083764
0.091861
0.0988536
0.104842
0.109917
0.114161
0.11763
0.120356
0.122488
0.124159
0.124038
-0.102752
-0.093381
-0.0799215
-0.0635293
-0.0455203
-0.0270666
-0.00905946
0.00791443
0.0235299
0.0376539
0.050278
0.0614645
0.0713096
0.0799216
0.087408
0.0938697
0.0993989
0.10408
0.10798
0.111122
0.113607
0.115889
0.117281
-0.111234
-0.0974986
-0.0807544
-0.0623143
-0.0433629
-0.0248112
-0.00726626
0.0089292
0.0236293
0.0368172
0.0485502
0.0589223
0.068041
0.076014
0.0829433
0.0889221
0.0940375
0.0983657
0.101935
0.104805
0.107579
0.109992
-0.114811
-0.0977406
-0.0788955
-0.0594712
-0.0403972
-0.022301
-0.0055426
0.00971874
0.0234573
0.0357253
0.0466142
0.0562304
0.0646821
0.072072
0.0784948
0.0840396
0.0887901
0.0927828
0.0960484
0.0992529
0.102355
-0.131837
-0.114466
-0.0952432
-0.075372
-0.0557995
-0.0371728
-0.0198698
-0.00406324
0.010212
0.0230025
0.034397
0.0445009
0.0534222
0.0612647
0.0681245
0.074092
0.0792565
0.0836613
0.0873204
0.0909268
0.0945544
-0.13091
-0.111337
-0.0910462
-0.0710002
-0.0518652
-0.0340371
-0.0177023
-0.00290541
0.0103943
0.0222825
0.0328631
0.0422442
0.0505303
0.0578186
0.0642009
0.0697697
0.0745739
0.0786166
0.0825997
0.0866641
-0.127157
-0.106475
-0.0859819
-0.0663621
-0.0480293
-0.0311844
-0.0158818
-0.00208713
0.0102818
0.0213275
0.0311577
0.0398774
0.0475848
0.0543724
0.0603351
0.0655256
0.0699396
0.0742734
0.078711
-0.121641
-0.100728
-0.0806474
-0.0618318
-0.0444958
-0.0287046
-0.0144301
-0.00159406
0.00990426
0.0201721
0.0293146
0.0374306
0.0446133
0.0509586
0.0565226
0.0612951
0.0659577
0.0707219
-0.136526
-0.115221
-0.094706
-0.0754302
-0.0576233
-0.0413612
-0.0266229
-0.0133343
-0.00139666
0.00929645
0.0188502
0.0273637
0.0349305
0.041647
0.0475717
0.0526909
0.0576654
0.0627252
-0.129445
-0.108523
-0.0888106
-0.070554
-0.0538398
-0.0386545
-0.0249286
-0.0125656
-0.00146017
0.00849255
0.0173919
0.0253314
0.0324073
0.0386805
0.0441353
0.0494083
0.054744
-0.122083
-0.10196
-0.0832752
-0.0661285
-0.050514
-0.0363667
-0.0235931
-0.012089
-0.00175007
0.00752292
0.0158233
0.0232471
0.029857
0.0356366
0.0411971
0.0467951
-0.114864
-0.0957749
-0.0782163
-0.0621908
-0.0476389
-0.0344699
-0.0225814
-0.0118696
-0.0022356
0.00641365
0.0141737
0.0211091
0.0272034
0.0330416
0.0388916
-0.108041
-0.090092
-0.0736747
-0.0587356
-0.0451872
-0.0329289
-0.0218581
-0.011876
-0.00289011
0.00519464
0.0124444
0.0188437
0.0249507
0.0310446
-0.101745
-0.0849561
-0.0696476
-0.0557363
-0.0431236
-0.0317078
-0.0213909
-0.0120807
-0.00368286
0.00387046
0.0105651
0.0169327
0.0232636
-0.113166
-0.0960254