/*--------------------------------*- C++ -*----------------------------------*\
  =========                 |
  \\      /  F ield         | OpenFOAM: The Open Source CFD Toolbox
   \\    /   O peration     | Website:  https://openfoam.org
    \\  /    A nd           | Version:  7
     \\/     M anipulation  |
\*---------------------------------------------------------------------------*/
FoamFile
{
    version     2.0;
    format      ascii;
    class       volScalarField;
    location    "280";
    object      p;
}
// * * * * * * * * * * * * * * * * * * * * * * * * * * * * * * * * * * * * * //

dimensions      [0 2 -2 0 0 0 0];

internalField   nonuniform List<scalar> 
4575
(
-0.393005
-0.393669
-0.394273
-0.394883
-0.395539
-0.396265
-0.397072
-0.39796
-0.398926
-0.399961
-0.401053
-0.40219
-0.403357
-0.404544
-0.405746
-0.406846
-0.407879
-0.388681
-0.389295
-0.38982
-0.390318
-0.390828
-0.391371
-0.391957
-0.392585
-0.393248
-0.393937
-0.394639
-0.395337
-0.396017
-0.396666
-0.397282
-0.397734
-0.398061
-0.384438
-0.385
-0.385445
-0.385832
-0.386198
-0.38656
-0.386928
-0.387298
-0.387663
-0.38801
-0.388326
-0.388592
-0.388791
-0.38891
-0.388951
-0.38877
-0.388401
-0.380285
-0.380794
-0.38116
-0.381437
-0.38166
-0.381845
-0.381998
-0.382115
-0.382187
-0.3822
-0.382136
-0.381979
-0.381707
-0.38131
-0.380792
-0.379997
-0.378949
-0.376231
-0.376686
-0.376972
-0.377142
-0.377226
-0.377237
-0.377181
-0.377051
-0.376836
-0.376522
-0.37609
-0.37552
-0.374792
-0.373893
-0.372837
-0.371454
-0.369749
-0.372282
-0.372683
-0.372891
-0.372956
-0.372904
-0.372747
-0.372487
-0.372117
-0.371625
-0.370993
-0.370202
-0.369233
-0.368064
-0.366684
-0.365113
-0.363172
-0.360837
-0.368445
-0.368791
-0.368924
-0.368887
-0.368704
-0.368384
-0.367927
-0.367324
-0.366563
-0.365624
-0.364488
-0.363134
-0.361543
-0.359702
-0.357643
-0.355177
-0.352243
-0.364724
-0.365018
-0.365077
-0.364942
-0.364632
-0.364155
-0.363507
-0.362681
-0.361659
-0.360425
-0.358957
-0.357235
-0.35524
-0.352962
-0.350442
-0.347489
-0.343986
-0.361366
-0.361354
-0.361125
-0.360694
-0.360065
-0.359235
-0.358193
-0.356922
-0.355404
-0.353618
-0.351545
-0.349166
-0.346475
-0.343522
-0.340119
-0.336082
-0.357841
-0.357761
-0.357441
-0.356893
-0.35612
-0.355115
-0.353865
-0.352355
-0.350566
-0.348476
-0.346068
-0.343326
-0.340246
-0.336889
-0.333078
-0.328539
-0.354446
-0.3543
-0.353893
-0.353235
-0.352323
-0.35115
-0.349702
-0.347963
-0.345914
-0.343535
-0.34081
-0.337724
-0.334278
-0.330546
-0.326367
-0.321358
-0.351183
-0.350974
-0.350485
-0.34972
-0.348676
-0.347343
-0.345705
-0.343748
-0.341451
-0.338796
-0.33577
-0.332361
-0.328573
-0.324491
-0.319987
-0.314536
-0.348055
-0.347787
-0.347219
-0.346353
-0.345182
-0.343695
-0.341877
-0.33971
-0.337176
-0.33426
-0.330948
-0.327235
-0.323126
-0.318718
-0.313932
-0.308061
-0.345064
-0.344739
-0.344096
-0.343133
-0.341841
-0.340208
-0.338216
-0.335849
-0.333091
-0.329925
-0.326343
-0.322344
-0.317935
-0.313223
-0.308191
-0.3019
-0.342211
-0.341832
-0.341118
-0.340062
-0.338655
-0.336881
-0.334724
-0.332166
-0.329193
-0.32579
-0.321953
-0.317684
-0.312994
-0.308
-0.302759
-0.296017
-0.339499
-0.339068
-0.338285
-0.337142
-0.335624
-0.333716
-0.331399
-0.328659
-0.325481
-0.321853
-0.317774
-0.313252
-0.308301
-0.303048
-0.29763
-0.290481
-0.336449
-0.3356
-0.334372
-0.332748
-0.330711
-0.328243
-0.325329
-0.321955
-0.318113
-0.313805
-0.309043
-0.303849
-0.298362
-0.29275
-0.285504
-0.333975
-0.333064
-0.331754
-0.330028
-0.327868
-0.325255
-0.322174
-0.318614
-0.314568
-0.310043
-0.305056
-0.29963
-0.293937
-0.288094
-0.280852
-0.331649
-0.330677
-0.329289
-0.327465
-0.325187
-0.322435
-0.319195
-0.315457
-0.311218
-0.306487
-0.301293
-0.295635
-0.289757
-0.283724
-0.276445
-0.329471
-0.328441
-0.326977
-0.32506
-0.322669
-0.319785
-0.316394
-0.312487
-0.308064
-0.303139
-0.297762
-0.291853
-0.285813
-0.27962
-0.272295
-0.326357
-0.324822
-0.322815
-0.320316
-0.317306
-0.313772
-0.309705
-0.305107
-0.299994
-0.294402
-0.288349
-0.28211
-0.275767
-0.268392
-0.324429
-0.322824
-0.320731
-0.31813
-0.315002
-0.311333
-0.307116
-0.302354
-0.297064
-0.291282
-0.285063
-0.278644
-0.272156
-0.264718
-0.322659
-0.320986
-0.318812
-0.316114
-0.312875
-0.30908
-0.304724
-0.29981
-0.294355
-0.288399
-0.28201
-0.275416
-0.268787
-0.261255
-0.321048
-0.319311
-0.31706
-0.314272
-0.31093
-0.307019
-0.302535
-0.297482
-0.291876
-0.285759
-0.279203
-0.272435
-0.265659
-0.257985
-0.317802
-0.315479
-0.312608
-0.309171
-0.305156
-0.300557
-0.295379
-0.289637
-0.283373
-0.276655
-0.269712
-0.262779
-0.254891
-0.316462
-0.314072
-0.311124
-0.307603
-0.303495
-0.298796
-0.293509
-0.287649
-0.281251
-0.274382
-0.26726
-0.260159
-0.251958
-0.315294
-0.312842
-0.309827
-0.306231
-0.302043
-0.297259
-0.29188
-0.285919
-0.279407
-0.272396
-0.265094
-0.257814
-0.249174
-0.311793
-0.308718
-0.305058
-0.300804
-0.29595
-0.290498
-0.284456
-0.277849
-0.270712
-0.263229
-0.255762
-0.246535
-0.310927
-0.3078
-0.304088
-0.299781
-0.294874
-0.289367
-0.283265
-0.276583
-0.269337
-0.261677
-0.254021
-0.244043
-0.310245
-0.307075
-0.303322
-0.298975
-0.294031
-0.288487
-0.282345
-0.27561
-0.268274
-0.260442
-0.252605
-0.241711
-0.306543
-0.302758
-0.298385
-0.293419
-0.287856
-0.281693
-0.274925
-0.267519
-0.259523
-0.251522
-0.239557
-0.306202
-0.302395
-0.298008
-0.293033
-0.287467
-0.2813
-0.274517
-0.26706
-0.258911
-0.250766
-0.237608
-0.302228
-0.297835
-0.292864
-0.287307
-0.28115
-0.274369
-0.266878
-0.258589
-0.250319
-0.235897
-0.302248
-0.297859
-0.292901
-0.287364
-0.281229
-0.274462
-0.26695
-0.258538
-0.250153
-0.234464
-0.302446
-0.298067
-0.293129
-0.28762
-0.281515
-0.274773
-0.267253
-0.258746
-0.250237
-0.233378
-0.298447
-0.293533
-0.288057
-0.28199
-0.275282
-0.267765
-0.259207
-0.250547
-0.232749
-0.298982
-0.294096
-0.288657
-0.282634
-0.275973
-0.268471
-0.259927
-0.251026
-0.232587
-0.2948
-0.289402
-0.283431
-0.276836
-0.269378
-0.260956
-0.251564
-0.232503
-0.295629
-0.290275
-0.284365
-0.277864
-0.270526
-0.26246
-0.252343
-0.232669
-0.291257
-0.285418
-0.279042
-0.271926
-0.264562
-0.254407
-0.238652
-0.29233
-0.286565
-0.280333
-0.273489
-0.266931
-0.258207
-0.261071
-0.287781
-0.281685
-0.2751
-0.269217
-0.261405
-0.26729
-0.283055
-0.276671
-0.27118
-0.263799
-0.269307
-0.284407
-0.27815
-0.27281
-0.265635
-0.269988
-0.279504
-0.274126
-0.266981
-0.269707
-0.275149
-0.267896
-0.268824
-0.275903
-0.268444
-0.267613
-0.268688
-0.266237
-0.264788
-0.458991
-0.472878
-0.464818
-0.487064
-0.477418
-0.470847
-0.490716
-0.481909
-0.47703
-0.499023
-0.49425
-0.486287
-0.483264
-0.504721
-0.501468
-0.497622
-0.490473
-0.489348
-0.506315
-0.503801
-0.500781
-0.494375
-0.494917
-0.508579
-0.507866
-0.506028
-0.503682
-0.497896
-0.49941
-0.509172
-0.509518
-0.509391
-0.508169
-0.506294
-0.500938
-0.501007
-0.509658
-0.510492
-0.510907
-0.510268
-0.508701
-0.503827
-0.492945
-0.50889
-0.510219
-0.511511
-0.512435
-0.512374
-0.511061
-0.507665
-0.494091
-0.509145
-0.510851
-0.512577
-0.513987
-0.514528
-0.513596
-0.511934
-0.498823
-0.507741
-0.509478
-0.511545
-0.513682
-0.515561
-0.516706
-0.516263
-0.515977
-0.503447
-0.507823
-0.509873
-0.512284
-0.514813
-0.517139
-0.518861
-0.518949
-0.519694
-0.50775
-0.50613
-0.507951
-0.510306
-0.513047
-0.515949
-0.5187
-0.520956
-0.5216
-0.523178
-0.512069
-0.505997
-0.5081
-0.51075
-0.51381
-0.517065
-0.52022
-0.522968
-0.524183
-0.52646
-0.516437
-0.504113
-0.50586
-0.50824
-0.511177
-0.514541
-0.518132
-0.521669
-0.524872
-0.526661
-0.529524
-0.520751
-0.503679
-0.50569
-0.508339
-0.511554
-0.51521
-0.519118
-0.523017
-0.526639
-0.528991
-0.53235
-0.524919
-0.503189
-0.505457
-0.508366
-0.511847
-0.515781
-0.519989
-0.524227
-0.528237
-0.531132
-0.534921
-0.528872
-0.500773
-0.502615
-0.50513
-0.508289
-0.512023
-0.516219
-0.520709
-0.525264
-0.529635
-0.533046
-0.537217
-0.53255
-0.499857
-0.501931
-0.50468
-0.508075
-0.512048
-0.51649
-0.521243
-0.526093
-0.530798
-0.534696
-0.539219
-0.535901
-0.498818
-0.50111
-0.50408
-0.507696
-0.511891
-0.516561
-0.521556
-0.52668
-0.531694
-0.536049
-0.540904
-0.538877
-0.495818
-0.497634
-0.50013
-0.503304
-0.507122
-0.51152
-0.516399
-0.521617
-0.526991
-0.532292
-0.537072
-0.542248
-0.541439
-0.494285
-0.496286
-0.498968
-0.502328
-0.506329
-0.510911
-0.515977
-0.521395
-0.526997
-0.532565
-0.537737
-0.543226
-0.543554
-0.492587
-0.494755
-0.497606
-0.501131
-0.505295
-0.510037
-0.515269
-0.520866
-0.526673
-0.532486
-0.538021
-0.543817
-0.545194
-0.489055
-0.490709
-0.493028
-0.496027
-0.499695
-0.503999
-0.50888
-0.514255
-0.520008
-0.525997
-0.532033
-0.537901
-0.543996
-0.546333
-0.486855
-0.488642
-0.491092
-0.494217
-0.498007
-0.502427
-0.507423
-0.512917
-0.518802
-0.524949
-0.531188
-0.537358
-0.543742
-0.546949
-0.484472
-0.486374
-0.488936
-0.492166
-0.496054
-0.500567
-0.505654
-0.511241
-0.517234
-0.523516
-0.529933
-0.536376
-0.543035
-0.547022
-0.481901
-0.483901
-0.486553
-0.489866
-0.493828
-0.49841
-0.503562
-0.509219
-0.515294
-0.521685
-0.528257
-0.534939
-0.541853
-0.54653
-0.477671
-0.479137
-0.481216
-0.483939
-0.487313
-0.491326
-0.49595
-0.501143
-0.506843
-0.512975
-0.519448
-0.526146
-0.533033
-0.540178
-0.545455
-0.474642
-0.476179
-0.47832
-0.481093
-0.484504
-0.488544
-0.493187
-0.498393
-0.504111
-0.510272
-0.516799
-0.523593
-0.530644
-0.537994
-0.543778
-0.471434
-0.473028
-0.475212
-0.478014
-0.481442
-0.485484
-0.49012
-0.495315
-0.501022
-0.507184
-0.513734
-0.520589
-0.527759
-0.535285
-0.541483
-0.46805
-0.469686
-0.471896
-0.474708
-0.478129
-0.482151
-0.486755
-0.491912
-0.497581
-0.503713
-0.510253
-0.517129
-0.524365
-0.532047
-0.538552
-0.463342
-0.464497
-0.46616
-0.468378
-0.47118
-0.474572
-0.478551
-0.483098
-0.48819
-0.493793
-0.499865
-0.50636
-0.513214
-0.520438
-0.5283
-0.53496
-0.459592
-0.46078
-0.462455
-0.464665
-0.467438
-0.470781
-0.474693
-0.479159
-0.484159
-0.489666
-0.495647
-0.502062
-0.508849
-0.515932
-0.52409
-0.530683
-0.455699
-0.456909
-0.458583
-0.460768
-0.463492
-0.466766
-0.470589
-0.474949
-0.479832
-0.485214
-0.491071
-0.497371
-0.504075
-0.511208
-0.519005
-0.525762
-0.451673
-0.452894
-0.454553
-0.456697
-0.459356
-0.462541
-0.466253
-0.470484
-0.475221
-0.480449
-0.486149
-0.492297
-0.49887
-0.505913
-0.513441
-0.520444
-0.447527
-0.448748
-0.450378
-0.452467
-0.455044
-0.458121
-0.461701
-0.465779
-0.470346
-0.47539
-0.480897
-0.486853
-0.493243
-0.500112
-0.50739
-0.514433
-0.443272
-0.444483
-0.446073
-0.448093
-0.450572
-0.453523
-0.456951
-0.460854
-0.465224
-0.470055
-0.475337
-0.481059
-0.487214
-0.493843
-0.50084
-0.507772
-0.438924
-0.440114
-0.441653
-0.443591
-0.445956
-0.448766
-0.452023
-0.455729
-0.459879
-0.464468
-0.46949
-0.474938
-0.48081
-0.487138
-0.493807
-0.500522
-0.434497
-0.435657
-0.437134
-0.438977
-0.441217
-0.443869
-0.446938
-0.450427
-0.454333
-0.458653
-0.463383
-0.468519
-0.47406
-0.480033
-0.486323
-0.492727
-0.42909
-0.430006
-0.431128
-0.432534
-0.434271
-0.436372
-0.438853
-0.441719
-0.444973
-0.448613
-0.452639
-0.457047
-0.461834
-0.467001
-0.472568
-0.478425
-0.484435
-0.424562
-0.425467
-0.426544
-0.427869
-0.429492
-0.431443
-0.43374
-0.436388
-0.43939
-0.442746
-0.446454
-0.450512
-0.454918
-0.459672
-0.464787
-0.470161
-0.475704
-0.42001
-0.420896
-0.42192
-0.423157
-0.424657
-0.42645
-0.428551
-0.430969
-0.433706
-0.43676
-0.44013
-0.443814
-0.447809
-0.452114
-0.456738
-0.461584
-0.466595
-0.415448
-0.41631
-0.417275
-0.418417
-0.419787
-0.421413
-0.423311
-0.425488
-0.427946
-0.430683
-0.433698
-0.436987
-0.440546
-0.444373
-0.448472
-0.452749
-0.457175
-0.410892
-0.411724
-0.412624
-0.413666
-0.414899
-0.416352
-0.418039
-0.419967
-0.422137
-0.424546
-0.427191
-0.430069
-0.433171
-0.436495
-0.440042
-0.443718
-0.447514
-0.406356
-0.407152
-0.407983
-0.408921
-0.410014
-0.411288
-0.412759
-0.414432
-0.416306
-0.418378
-0.420642
-0.423094
-0.425725
-0.428528
-0.431502
-0.434551
-0.437683
-0.401854
-0.40261
-0.403368
-0.404199
-0.405147
-0.40624
-0.407491
-0.408904
-0.410477
-0.412206
-0.414083
-0.4161
-0.418247
-0.420517
-0.422905
-0.42531
-0.427755
-0.3974
-0.398112
-0.398794
-0.399514
-0.400317
-0.401227
-0.402256
-0.403407
-0.404676
-0.406058
-0.407543
-0.409121
-0.410779
-0.412508
-0.414303
-0.416056
-0.417797
-0.412734
-0.4087
-0.406598
-0.393324
-0.383202
-0.376331
-0.384256
-0.402204
-0.424807
-0.436924
-0.401871
-0.397324
-0.395653
-0.38439
-0.377941
-0.375544
-0.387898
-0.409401
-0.434408
-0.447687
-0.391294
-0.3862
-0.385
-0.375683
-0.372775
-0.374638
-0.391155
-0.415948
-0.443189
-0.4576
-0.381056
-0.375383
-0.374687
-0.367238
-0.367715
-0.373598
-0.393991
-0.421809
-0.451109
-0.466628
-0.371198
-0.36492
-0.364753
-0.35908
-0.362764
-0.372408
-0.396379
-0.426948
-0.458137
-0.474747
-0.361754
-0.354847
-0.355226
-0.351229
-0.357921
-0.371052
-0.398293
-0.431343
-0.464256
-0.481941
-0.352744
-0.345189
-0.346125
-0.343694
-0.353177
-0.369517
-0.399712
-0.434979
-0.469457
-0.488207
-0.344184
-0.335965
-0.337459
-0.336477
-0.348522
-0.367785
-0.400628
-0.43785
-0.473743
-0.493548
-0.336078
-0.327185
-0.329227
-0.329571
-0.343946
-0.365849
-0.401035
-0.439964
-0.477124
-0.497962
-0.328424
-0.318849
-0.321423
-0.322965
-0.339432
-0.363703
-0.400933
-0.441332
-0.47962
-0.501445
-0.321216
-0.310953
-0.314032
-0.316658
-0.334965
-0.36134
-0.400326
-0.441978
-0.481262
-0.504081
-0.31444
-0.303479
-0.307042
-0.310626
-0.330553
-0.358755
-0.39923
-0.441928
-0.482084
-0.505878
-0.308083
-0.296411
-0.300524
-0.304761
-0.326191
-0.355946
-0.397662
-0.441219
-0.482127
-0.506869
-0.302131
-0.28977
-0.29434
-0.299155
-0.321854
-0.352919
-0.395645
-0.439889
-0.481439
-0.507098
-0.296572
-0.28355
-0.28847
-0.293791
-0.31753
-0.349683
-0.393207
-0.437982
-0.48007
-0.506607
-0.291366
-0.277681
-0.282951
-0.288643
-0.313218
-0.34625
-0.390378
-0.435544
-0.478073
-0.505444
-0.286437
-0.272157
-0.277752
-0.283698
-0.30892
-0.342636
-0.387193
-0.432624
-0.475502
-0.503657
-0.281859
-0.266965
-0.272847
-0.278944
-0.304637
-0.338859
-0.383688
-0.42927
-0.472414
-0.501295
-0.277631
-0.262085
-0.268219
-0.274374
-0.300376
-0.33494
-0.379898
-0.425533
-0.468862
-0.498407
-0.273745
-0.257502
-0.263857
-0.269983
-0.296142
-0.330903
-0.375863
-0.42146
-0.464899
-0.49504
-0.270201
-0.253204
-0.259749
-0.265768
-0.291947
-0.326771
-0.371619
-0.417098
-0.460578
-0.491242
-0.267006
-0.249186
-0.255885
-0.261729
-0.2878
-0.322569
-0.367204
-0.412493
-0.455947
-0.487054
-0.264167
-0.245444
-0.252257
-0.257869
-0.283714
-0.318322
-0.362653
-0.407687
-0.451051
-0.482519
-0.261693
-0.241979
-0.24886
-0.254191
-0.279702
-0.314056
-0.358001
-0.402717
-0.445932
-0.477674
-0.259594
-0.238798
-0.245691
-0.2507
-0.275778
-0.309793
-0.353279
-0.397621
-0.440627
-0.472554
-0.257874
-0.235911
-0.242745
-0.247402
-0.271953
-0.305555
-0.348515
-0.392429
-0.435171
-0.467191
-0.473109
-0.256534
-0.233331
-0.240024
-0.244304
-0.268241
-0.301364
-0.343735
-0.387167
-0.429592
-0.461611
-0.468158
-0.255568
-0.231074
-0.237529
-0.241411
-0.264654
-0.297234
-0.338961
-0.38186
-0.423917
-0.455839
-0.462941
-0.254959
-0.229158
-0.235262
-0.23873
-0.261201
-0.293182
-0.334211
-0.376524
-0.418167
-0.449895
-0.457482
-0.254678
-0.227599
-0.233226
-0.236267
-0.257893
-0.289219
-0.329498
-0.371173
-0.412356
-0.443799
-0.451801
-0.254681
-0.226411
-0.231426
-0.234025
-0.254738
-0.285353
-0.324834
-0.365815
-0.406493
-0.437568
-0.445918
-0.254907
-0.225605
-0.229867
-0.232011
-0.251742
-0.281591
-0.320223
-0.360448
-0.400634
-0.431223
-0.439853
-0.255276
-0.225183
-0.228551
-0.230225
-0.248912
-0.277935
-0.31567
-0.355071
-0.395036
-0.424775
-0.433623
-0.255688
-0.225139
-0.227483
-0.228669
-0.246253
-0.274386
-0.311172
-0.349684
-0.389817
-0.418204
-0.427239
-0.256014
-0.225453
-0.226662
-0.227345
-0.243768
-0.270943
-0.306723
-0.344279
-0.380481
-0.411474
-0.420717
-0.256096
-0.226075
-0.226083
-0.226252
-0.241467
-0.267617
-0.302335
-0.338971
-0.374503
-0.404644
-0.414103
-0.255788
-0.226941
-0.22574
-0.225381
-0.239353
-0.264416
-0.298027
-0.333757
-0.368325
-0.397704
-0.407421
-0.255065
-0.228067
-0.22566
-0.224701
-0.237336
-0.261197
-0.293619
-0.328435
-0.361939
-0.390388
-0.400514
-0.384749
-0.253664
-0.229469
-0.225874
-0.224251
-0.235379
-0.257813
-0.288831
-0.322602
-0.354874
-0.382537
-0.393219
-0.379503
-0.249582
-0.230101
-0.226123
-0.22434
-0.234415
-0.255727
-0.285455
-0.31811
-0.349169
-0.376277
-0.38651
-0.373446
-0.232605
-0.227527
-0.225513
-0.224553
-0.234375
-0.255682
-0.285134
-0.317782
-0.347123
-0.370969
-0.378024
-0.36215
-0.229449
-0.227159
-0.226229
-0.225901
-0.234581
-0.253301
-0.278134
-0.303261
-0.32821
-0.345757
-0.348373
-0.331636
-0.226855
-0.224552
-0.224196
-0.224859
-0.232621
-0.248516
-0.269306
-0.290408
-0.309258
-0.321141
-0.320282
-0.303461
-0.223112
-0.220115
-0.219575
-0.221035
-0.227956
-0.241137
-0.258018
-0.274887
-0.288774
-0.296158
-0.292787
-0.276343
-0.216835
-0.213938
-0.212872
-0.214699
-0.220845
-0.231573
-0.244869
-0.257788
-0.267613
-0.27158
-0.266591
-0.250991
-0.208364
-0.206159
-0.204687
-0.206534
-0.211949
-0.220606
-0.230796
-0.240336
-0.246924
-0.248371
-0.242416
-0.227847
-0.198364
-0.197145
-0.195554
-0.197228
-0.201936
-0.208747
-0.216488
-0.223276
-0.227347
-0.226973
-0.22047
-0.206929
-0.187452
-0.1873
-0.185841
-0.187279
-0.191318
-0.196717
-0.202404
-0.207009
-0.209158
-0.207472
-0.20068
-0.188105
-0.176125
-0.176957
-0.175791
-0.177009
-0.180428
-0.184698
-0.188786
-0.191701
-0.192387
-0.189762
-0.182862
-0.171177
-0.164717
-0.166373
-0.165572
-0.166623
-0.169493
-0.172863
-0.175737
-0.177362
-0.17695
-0.173673
-0.166794
-0.155927
-0.153442
-0.155741
-0.155317
-0.156258
-0.158666
-0.161323
-0.163281
-0.163941
-0.162728
-0.159022
-0.152261
-0.142151
-0.142431
-0.145208
-0.145133
-0.146013
-0.148047
-0.150145
-0.151419
-0.151373
-0.149598
-0.145637
-0.139067
-0.129662
-0.13177
-0.134881
-0.135111
-0.135967
-0.137707
-0.13937
-0.140139
-0.139596
-0.137448
-0.133368
-0.127044
-0.118304
-0.121512
-0.124841
-0.125326
-0.12618
-0.127696
-0.129026
-0.129431
-0.128552
-0.126179
-0.122089
-0.116051
-0.107939
-0.111693
-0.115147
-0.115838
-0.116702
-0.118049
-0.119131
-0.119282
-0.11819
-0.115709
-0.111689
-0.105968
-0.0984531
-0.102335
-0.10584
-0.106693
-0.107573
-0.108793
-0.109694
-0.109676
-0.108467
-0.105965
-0.102078
-0.0966937
-0.0897465
-0.0934501
-0.0969483
-0.0979258
-0.0988214
-0.0999461
-0.100719
-0.100597
-0.0993431
-0.0968872
-0.0931773
-0.0881413
-0.0817344
-0.0850413
-0.0884893
-0.0895582
-0.090467
-0.0915205
-0.0922049
-0.0920296
-0.0907836
-0.0884213
-0.0849199
-0.0802367
-0.0743435
-0.077106
-0.0804704
-0.0816034
-0.0825215
-0.083521
-0.0841467
-0.0839544
-0.0827555
-0.0805204
-0.0772478
-0.0729163
-0.0675106
-0.0696361
-0.0728922
-0.0740668
-0.0749898
-0.0759472
-0.0765359
-0.0763531
-0.0752282
-0.073143
-0.0701103
-0.0661247
-0.0611805
-0.0626193
-0.0657498
-0.0669474
-0.0678707
-0.0687943
-0.0693614
-0.0692064
-0.0681734
-0.0662516
-0.0634631
-0.059814
-0.0553055
-0.0560406
-0.0590338
-0.0602392
-0.0611586
-0.0620542
-0.0626103
-0.0624947
-0.0615643
-0.0598124
-0.0572671
-0.053942
-0.0498435
-0.0498825
-0.0527315
-0.0539327
-0.0548444
-0.0557155
-0.0562675
-0.0561982
-0.0553756
-0.053795
-0.0514875
-0.0484719
-0.044758
-0.0441266
-0.046828
-0.0480157
-0.0489161
-0.049765
-0.0503168
-0.0502971
-0.0495832
-0.0481712
-0.0460932
-0.0433711
-0.0400167
-0.0387533
-0.0413067
-0.0424735
-0.0433597
-0.0441877
-0.0447415
-0.0447717
-0.0441645
-0.0429155
-0.0410563
-0.0386105
-0.0355912
-0.0337427
-0.03615
-0.0372903
-0.0381599
-0.0389678
-0.0395242
-0.0396029
-0.0390979
-0.0380041
-0.0363517
-0.0341645
-0.0314562
-0.0290752
-0.0313397
-0.0324495
-0.0333006
-0.0340885
-0.0346471
-0.0347715
-0.034363
-0.0334152
-0.0319564
-0.0300099
-0.0275895
-0.0247312
-0.0268575
-0.0279339
-0.028765
-0.0295329
-0.0300929
-0.0302592
-0.0299402
-0.0291285
-0.0278497
-0.0261261
-0.0239712
-0.0206917
-0.0226853
-0.0237264
-0.0245364
-0.0252841
-0.0258442
-0.0260481
-0.0258112
-0.0251251
-0.0240124
-0.0224943
-0.0205835
-0.0169382
-0.0188051
-0.01981
-0.0205982
-0.0213259
-0.0218844
-0.0221211
-0.0219585
-0.0213873
-0.0204272
-0.0190976
-0.0174106
-0.0134531
-0.0151996
-0.0161679
-0.0169347
-0.0176473
-0.0181968
-0.0184611
-0.0183654
-0.0178988
-0.017078
-0.0159207
-0.014438
-0.0102194
-0.0118518
-0.0127831
-0.0135265
-0.0142147
-0.0147618
-0.0150514
-0.0150161
-0.0146441
-0.0139499
-0.0129495
-0.0116529
-0.00722108
-0.00874577
-0.00963998
-0.0103597
-0.0110259
-0.0115672
-0.0118779
-0.0118959
-0.0116089
-0.0110293
-0.0101711
-0.00904351
-0.00444298
-0.00586627
-0.00672392
-0.0074202
-0.00806568
-0.00859926
-0.00892668
-0.00899126
-0.0087802
-0.00830352
-0.00757381
-0.00659927
-0.00187087
-0.00319902
-0.00402091
-0.00469411
-0.00531941
-0.00584393
-0.00618438
-0.00628913
-0.00614531
-0.00576088
-0.00514683
-0.00431041
0.000508637
-0.00073046
-0.00151763
-0.00216803
-0.00277324
-0.00328783
-0.00363832
-0.00377728
-0.00369259
-0.00339042
-0.00288011
-0.00216801
0.00270811
0.0015522
0.000798601
0.000170397
-0.000414774
-0.000917013
-0.00127597
-0.00144423
-0.0014113
-0.0011821
-0.000764479
-0.00016393
0.00473939
0.00366106
0.0029398
0.00233282
0.00176579
0.00127055
0.000912638
0.000720958
0.000708904
0.000873668
0.00120872
0.00170944
0.00661357
0.00560756
0.00491761
0.004332
0.00378467
0.00330408
0.00294171
0.00272944
0.0026781
0.00278588
0.00304754
0.00345914
0.00834097
0.00740228
0.00674257
0.00617795
0.00564988
0.00518203
0.00481893
0.00458963
0.00450454
0.0045625
0.00475929
0.00509162
0.0099312
0.00905508
0.00842439
0.00788009
0.00737049
0.00691551
0.00655397
0.00631066
0.00619673
0.00621134
0.00635095
0.00661295
0.0113932
0.0105751
0.00997222
0.00944747
0.00895549
0.00851278
0.00815264
0.0079005
0.00776278
0.00773971
0.007829
0.00802877
0.0127353
0.011971
0.0113946
0.0108888
0.0104142
0.00998449
0.00962882
0.00936814
0.00920967
0.00915394
0.00919932
0.0093443
0.0139653
0.0132507
0.0126995
0.0122121
0.0117542
0.0113374
0.0109866
0.0107198
0.0105441
0.0104605
0.0104677
0.0105645
0.0150902
0.0144215
0.0138944
0.0134246
0.0129827
0.0125784
0.0122327
0.0119619
0.0117726
0.0116653
0.0116392
0.0116938
0.0161168
0.0154904
0.014986
0.0145331
0.0141066
0.0137145
0.0133749
0.0131017
0.012901
0.0127733
0.0127185
0.0127365
0.0170511
0.0164636
0.0159807
0.0155438
0.015132
0.0147518
0.0144186
0.0141443
0.0139348
0.0137897
0.0137104
0.0136965
0.0178989
0.0173469
0.0168843
0.0164627
0.0160648
0.015696
0.0153691
0.0150943
0.0148768
0.0147187
0.0146186
0.0145772
0.0186651
0.0181457
0.017702
0.0172948
0.01691
0.0165522
0.016232
0.0159582
0.0157355
0.0155651
0.0154472
0.0153821
0.0193547
0.0188647
0.0184386
0.018045
0.0176726
0.0173252
0.0170116
0.0167393
0.0165124
0.0163326
0.0161996
0.0161142
0.0199716
0.0195084
0.0190986
0.0187176
0.0183567
0.0180191
0.017712
0.0174416
0.0172117
0.0170237
0.0168783
0.0167758
0.0205198
0.0200804
0.0196856
0.0193163
0.018966
0.0186375
0.0183366
0.0180686
0.0178367
0.0176424
0.0174865
0.0173695
0.0210023
0.0205843
0.020203
0.0198444
0.0195038
0.0191836
0.0188886
0.0186231
0.0183899
0.0181906
0.0180263
0.0178971
0.0214221
0.0210227
0.0206535
0.0203045
0.0199726
0.0196599
0.0193703
0.0191074
0.0188736
0.0186704
0.0184989
0.0183597
0.0217811
0.0213979
0.0210392
0.0206987
0.0203745
0.0200685
0.0197838
0.0195233
0.0192893
0.0190832
0.018906
0.0187585
0.022081
0.0217114
0.0213618
0.0210285
0.0207109
0.0204106
0.0201302
0.019872
0.0196381
0.0194297
0.0192481
0.0190943
0.0223226
0.021964
0.0216219
0.0212947
0.0209825
0.0206869
0.02041
0.0201538
0.0199201
0.0197102
0.0195251
0.019366
0.0225062
0.022156
0.0218197
0.0214971
0.021189
0.0208971
0.020623
0.0203685
0.020135
0.019924
0.0197365
0.0195736
0.0226307
0.0222864
0.021954
0.0216345
0.0213294
0.0210399
0.0207678
0.0205144
0.0202812
0.0200695
0.0198804
0.019715
0.0226949
0.0223534
0.022023
0.0217052
0.0214015
0.0211133
0.0208422
0.0205894
0.0203563
0.0201442
0.0199544
0.0197877
-0.245529
-0.246553
-0.247668
-0.248969
-0.250591
-0.252725
-0.255648
-0.259763
-0.265584
-0.275314
-0.23692
-0.23918
-0.241564
-0.244097
-0.246801
-0.249685
-0.25273
-0.255995
-0.258978
-0.264778
-0.223244
-0.225398
-0.227535
-0.229664
-0.231795
-0.233965
-0.236193
-0.238697
-0.241012
-0.2459
-0.208899
-0.211152
-0.213415
-0.215703
-0.218031
-0.220421
-0.222857
-0.225467
-0.227794
-0.231603
-0.195626
-0.198011
-0.20039
-0.202767
-0.205137
-0.207508
-0.209857
-0.212275
-0.214492
-0.217557
-0.182466
-0.184864
-0.187253
-0.189635
-0.192011
-0.194388
-0.196759
-0.199171
-0.201485
-0.204192
-0.169781
-0.172193
-0.174603
-0.177012
-0.179419
-0.181826
-0.184228
-0.186642
-0.189012
-0.191507
-0.157655
-0.160049
-0.162445
-0.164841
-0.167239
-0.169638
-0.172038
-0.174442
-0.176841
-0.179234
-0.146046
-0.148396
-0.150751
-0.153112
-0.155479
-0.157852
-0.160232
-0.162616
-0.165014
-0.167345
-0.134985
-0.13727
-0.139563
-0.141866
-0.144179
-0.146502
-0.148837
-0.151177
-0.15354
-0.155815
-0.124468
-0.12667
-0.128883
-0.131109
-0.133347
-0.135598
-0.137864
-0.140139
-0.142441
-0.144651
-0.114492
-0.116598
-0.118717
-0.12085
-0.122997
-0.12516
-0.127339
-0.12953
-0.13175
-0.133878
-0.105051
-0.107052
-0.109066
-0.111096
-0.113141
-0.115202
-0.117281
-0.119373
-0.121494
-0.123528
-0.0961347
-0.0980241
-0.099928
-0.101847
-0.103782
-0.105734
-0.107703
-0.109687
-0.111698
-0.113626
-0.0877287
-0.0895045
-0.0912947
-0.0930998
-0.0949207
-0.0967577
-0.0986122
-0.100481
-0.102376
-0.104193
-0.0798169
-0.081479
-0.0831548
-0.084845
-0.0865503
-0.0882711
-0.0900086
-0.0917598
-0.0935365
-0.095239
-0.0723809
-0.0739308
-0.0754937
-0.0770701
-0.0786607
-0.0802659
-0.0818868
-0.0835208
-0.0851783
-0.0867664
-0.0654008
-0.0668416
-0.0682944
-0.0697598
-0.0712383
-0.0727303
-0.0742368
-0.0757556
-0.0772959
-0.0787717
-0.0588558
-0.0601915
-0.0615383
-0.0628965
-0.0642667
-0.0656493
-0.067045
-0.0684521
-0.0698787
-0.0712457
-0.0527247
-0.0539601
-0.0552056
-0.0564613
-0.0577279
-0.0590057
-0.0602953
-0.0615952
-0.0629126
-0.0641754
-0.0469863
-0.0481267
-0.049276
-0.0504345
-0.0516027
-0.0527809
-0.0539696
-0.0551676
-0.0563812
-0.057545
-0.0426704
-0.043729
-0.0447959
-0.0458713
-0.0469555
-0.048049
-0.0491508
-0.0502663
-0.0513367
-0.0375707
-0.0385443
-0.0395252
-0.0405135
-0.0415096
-0.0425138
-0.0435253
-0.0445488
-0.0455316
-0.0328077
-0.0337019
-0.0346025
-0.0355095
-0.0364232
-0.037344
-0.0382712
-0.0392088
-0.0401099
-0.0283619
-0.0291823
-0.0300082
-0.0308396
-0.0316767
-0.03252
-0.0333688
-0.0342265
-0.0350517
-0.0242148
-0.0249667
-0.0257233
-0.0264846
-0.0272508
-0.0280222
-0.0287984
-0.0295821
-0.030337
-0.0203485
-0.0210371
-0.0217296
-0.0224261
-0.0231268
-0.0238318
-0.0245408
-0.0252563
-0.0259463
-0.0167459
-0.0173761
-0.0180095
-0.0186463
-0.0192865
-0.0199304
-0.0205777
-0.0212303
-0.0218605
-0.0133909
-0.0139673
-0.0145463
-0.0151281
-0.0157128
-0.0163005
-0.016891
-0.0174859
-0.0180612
-0.0102682
-0.0107951
-0.0113242
-0.0118555
-0.0123892
-0.0129253
-0.0134637
-0.0140057
-0.0145307
-0.0073631
-0.00784465
-0.00832793
-0.00881301
-0.00929995
-0.00978885
-0.0102796
-0.0107732
-0.011252
-0.00466209
-0.00510206
-0.00554338
-0.0059861
-0.00643027
-0.00687597
-0.00732313
-0.00777254
-0.00820915
-0.00215227
-0.00255418
-0.0029571
-0.00336108
-0.00376617
-0.00417242
-0.00457977
-0.00498885
-0.00538691
0.000178383
-0.000188714
-0.000556545
-0.000925144
-0.00129454
-0.00166479
-0.00203584
-0.00240817
-0.00277103