/*--------------------------------*- C++ -*----------------------------------*\
  =========                 |
  \\      /  F ield         | OpenFOAM: The Open Source CFD Toolbox
   \\    /   O peration     | Website:  https://openfoam.org
    \\  /    A nd           | Version:  7
     \\/     M anipulation  |
\*---------------------------------------------------------------------------*/
FoamFile
{
    version     2.0;
    format      ascii;
    class       surfaceScalarField;
    location    "160";
    object      phi;
}
// * * * * * * * * * * * * * * * * * * * * * * * * * * * * * * * * * * * * * //

dimensions      [0 3 -1 0 0 0 0];

internalField   nonuniform List<scalar> 
8927
(
0.00141166
0.0073677
-0.00735704
0.00142731
0.00331432
-0.00332996
0.00145328
-0.000983066
0.000957092
0.00146551
-0.00506425
0.00505202
0.00145673
-0.00837773
0.0083865
0.00143889
-0.0105802
0.010598
0.00142641
-0.0110552
0.0110677
0.00142163
-0.00913488
0.00913967
0.0014214
-0.00579167
0.0057919
0.00141835
-0.000677641
0.000680694
0.00141003
0.00412499
-0.00411667
0.00139918
0.00864125
-0.0086304
0.00139261
0.0111801
-0.0111735
0.00138751
0.010403
-0.0103979
0.00137865
0.0083239
-0.00831503
0.00136179
0.00202813
-0.00201127
0.00134356
-0.00277128
0.00278951
0.00132833
-0.00845803
0.00847326
0.00132159
-0.0116122
0.0116189
0.00131216
-0.00851225
0.00852168
0.00129401
-0.00759686
0.00761502
0.00126849
0.00206969
-0.00204417
0.00643268
-0.00641579
0.00141357
0.00738074
0.00142694
0.00330095
0.0014514
-0.00100753
0.00146259
-0.00507544
0.00145287
-0.00836801
0.00143445
-0.0105618
0.00142247
-0.0110433
0.00141896
-0.00913137
0.0014203
-0.00579301
0.00141875
-0.000676094
0.00141189
0.00413186
0.00140236
0.00865077
0.00139613
0.0111863
0.00139059
0.0104085
0.00138043
0.00833406
0.00136205
0.00204652
0.00134243
-0.00275166
0.00132582
-0.00844143
0.00131918
-0.0116056
0.00131026
-0.00850332
0.00129348
-0.00758008
0.00126975
0.00209341
0.00644925
0.00141538
0.00739624
0.00142644
0.00328989
0.0014494
-0.0010305
0.0014596
-0.00508564
0.00144897
-0.00835738
0.00142996
-0.0105428
0.00141844
-0.0110317
0.00141619
-0.00912913
0.00141912
-0.00579594
0.00141912
-0.000676093
0.00141374
0.00413723
0.00140555
0.00865897
0.00139964
0.0111923
0.00139368
0.0104145
0.00138224
0.00834549
0.00136235
0.00206641
0.00134138
-0.00273069
0.0013234
-0.00842345
0.00131686
-0.011599
0.00130845
-0.00849491
0.00129307
-0.0075647
0.00127116
0.00211532
0.0064655
0.00141711
0.00741423
0.00142581
0.00328119
0.00144729
-0.00105197
0.00145655
-0.0050949
0.00144504
-0.00834587
0.00142542
-0.0105232
0.00141433
-0.0110206
0.00141333
-0.00912813
0.00141786
-0.00580047
0.00141945
-0.000677682
0.00141559
0.00414108
0.00140873
0.00866583
0.00140314
0.0111978
0.00139676
0.0104208
0.00138408
0.00835818
0.00136272
0.00208776
0.00134042
-0.00270838
0.00132107
-0.0084041
0.00131462
-0.0115926
0.00130675
-0.00848704
0.00129279
-0.00755074
0.0012727
0.0021354
0.00648142
0.00141877
0.00743476
0.00142507
0.00327489
0.00144506
-0.00107195
0.00145343
-0.00510327
0.00144109
-0.00833353
0.00142084
-0.0105029
0.00141013
-0.0110099
0.00141037
-0.00912837
0.00141652
-0.00580662
0.00141974
-0.0006809
0.00141744
0.00414338
0.00141192
0.00867135
0.00140664
0.0112031
0.00139984
0.0104276
0.00138593
0.00837209
0.00136315
0.00211055
0.00133954
-0.00268477
0.00131883
-0.00838339
0.00131248
-0.0115862
0.00130515
-0.00847972
0.00129262
-0.00753821
0.00127438
0.00215364
0.006497
0.00142036
0.00745788
0.00142422
0.00327102
0.00144272
-0.00109045
0.00145025
-0.0051108
0.0014371
-0.00832038
0.00141622
-0.010482
0.00140585
-0.0109996
0.0014073
-0.00912982
0.0014151
-0.00581442
0.00141999
-0.000685787
0.00141927
0.00414409
0.0014151
0.00867553
0.00141013
0.0112081
0.00140292
0.0104349
0.00138781
0.00838719
0.00136363
0.00213473
0.00133875
-0.00265989
0.00131668
-0.00836133
0.00131042
-0.0115799
0.00130365
-0.00847295
0.00129258
-0.00752714
0.0012762
0.00217003
0.00651223
0.00142189
0.00748363
0.00142326
0.00326965
0.00144027
-0.00110746
0.00144701
-0.00511754
0.0014331
-0.00830647
0.00141156
-0.0104605
0.00140149
-0.0109895
0.00140414
-0.00913247
0.0014136
-0.00582388
0.0014202
-0.000692382
0.00142109
0.00414319
0.00141827
0.00867835
0.0014136
0.0112128
0.00140598
0.0104425
0.00138971
0.00840346
0.00136418
0.00216026
0.00133805
-0.00263376
0.00131464
-0.00833791
0.00130845
-0.0115738
0.00130226
-0.00846676
0.00129266
-0.00751754
0.00127814
0.00218454
0.00652711
0.00142337
0.00751205
0.00142221
0.00327081
0.00143772
-0.00112297
0.00144371
-0.00512353
0.00142907
-0.00829184
0.00140687
-0.0104383
0.00139705
-0.0109797
0.00140088
-0.0091363
0.00141201
-0.00583501
0.00142035
-0.000700723
0.0014229
0.00414065
0.00142143
0.00867982
0.00141705
0.0112172
0.00140904
0.0104505
0.00139163
0.00842087
0.00136478
0.00218711
0.00133745
-0.00260643
0.00131269
-0.00831315
0.00130657
-0.0115677
0.00130096
-0.00846114
0.00129285
-0.00750942
0.00128021
0.00219718
0.00654163
0.00142481
0.00754318
0.00142106
0.00327456
0.00143506
-0.00113696
0.00144035
-0.00512882
0.00142503
-0.00827652
0.00140214
-0.0104154
0.00139253
-0.0109701
0.00139751
-0.00914128
0.00141034
-0.00584785
0.00142046
-0.000710847
0.00142467
0.00413644
0.00142457
0.00867992
0.00142048
0.0112212
0.00141208
0.0104589
0.00139357
0.00843938
0.00136545
0.00221524
0.00133693
-0.00257791
0.00131084
-0.00828706
0.00130479
-0.0115616
0.00129977
-0.00845612
0.00129315
-0.00750281
0.00128241
0.00220791
0.00655577
0.00142622
0.00757706
0.00141983
0.00328095
0.0014323
-0.00114944
0.00143692
-0.00513344
0.00142097
-0.00826057
0.00139738
-0.0103918
0.00138793
-0.0109606
0.00139404
-0.00914739
0.00140858
-0.00586239
0.00142052
-0.00072279
0.00142642
0.00413054
0.00142769
0.00867866
0.00142389
0.011225
0.00141511
0.0104677
0.00139553
0.00845896
0.00136617
0.0022446
0.00133652
-0.00254826
0.00130909
-0.00825963
0.00130309
-0.0115556
0.00129867
-0.0084517
0.00129357
-0.0074977
0.00128474
0.00221674
0.00656953
0.0014276
0.0076137
0.00141852
0.00329003
0.00142944
-0.00116037
0.00143344
-0.00513743
0.00141689
-0.00824401
0.00139259
-0.0103675
0.00138325
-0.0109513
0.00139046
-0.0091546
0.00140672
-0.00587865
0.00142052
-0.000736587
0.00142814
0.00412292
0.00143078
0.00867602
0.00142727
0.0112286
0.00141812
0.0104768
0.00139751
0.00847957
0.00136696
0.00227515
0.0013362
-0.0025175
0.00130745
-0.00823087
0.00130149
-0.0115497
0.00129768
-0.00844789
0.0012941
-0.00749412
0.00128719
0.00222366
0.00658288
0.00142896
0.00765314
0.00141713
0.00330185
0.00142649
-0.00116972
0.0014299
-0.00514084
0.00141279
-0.00822691
0.00138777
-0.0103425
0.00137849
-0.010942
0.00138678
-0.00916288
0.00140477
-0.00589665
0.00142046
-0.000752271
0.00142982
0.00411355
0.00143384
0.008672
0.00143061
0.0112318
0.00142112
0.0104863
0.0013995
0.00850119
0.00136781
0.00230684
0.00133598
-0.00248567
0.00130591
-0.00820081
0.00129999
-0.0115437
0.00129679
-0.0084447
0.00129473
-0.00749206
0.00128975
0.00222864
0.00659583
0.00143031
0.0076954
0.00141568
0.00331648
0.00142344
-0.00117748
0.00142629
-0.00514369
0.00140868
-0.0082093
0.00138293
-0.0103167
0.00137366
-0.0109327
0.00138299
-0.00917221
0.00140273
-0.00591639
0.00142033
-0.000769874
0.00143147
0.00410241
0.00143687
0.0086666
0.00143393
0.0112347
0.00142409
0.0104961
0.00140151
0.00852376
0.00136871
0.00233965
0.00133585
-0.00245281
0.00130448
-0.00816943
0.00129857
-0.0115378
0.001296
-0.00844212
0.00129548
-0.00749154
0.00129244
0.00223168
0.00660835
0.00143165
0.0077405
0.00141417
0.00333396
0.0014203
-0.00118361
0.00142263
-0.00514602
0.00140456
-0.00819123
0.00137807
-0.0102902
0.00136876
-0.0109234
0.00137909
-0.00918254
0.00140058
-0.00593788
0.00142014
-0.000789429
0.00143306
0.00408949
0.00143986
0.0086598
0.0014372
0.0112374
0.00142703
0.0105063
0.00140353
0.00854726
0.00136967
0.00237351
0.00133583
-0.00241897
0.00130315
-0.00813675
0.00129725
-0.0115319
0.00129531
-0.00844018
0.00129632
-0.00749255
0.00129524
0.00223276
0.00662042
0.001433
0.00778845
0.00141261
0.00335435
0.00141707
-0.00118806
0.00141889
-0.00514785
0.00140042
-0.00817276
0.00137319
-0.010263
0.00136378
-0.010914
0.00137509
-0.00919385
0.00139833
-0.00596112
0.00141987
-0.000810964
0.0014346
0.00407476
0.0014428
0.00865161
0.00144044
0.0112397
0.00142995
0.0105168
0.00140556
0.00857165
0.00137069
0.00240838
0.0013359
-0.00238418
0.00130194
-0.00810279
0.00129603
-0.011526
0.00129472
-0.00843886
0.00129727
-0.0074951
0.00129815
0.00223188
0.00663204
0.00143436
0.00783926
0.001411
0.00337771
0.00141374
-0.0011908
0.0014151
-0.0051492
0.00139627
-0.00815393
0.00136829
-0.010235
0.00135873
-0.0109045
0.00137098
-0.0092061
0.00139598
-0.00598613
0.00141953
-0.000834508
0.00143609
0.00405819
0.0014457
0.008642
0.00144363
0.0112418
0.00143284
0.0105276
0.0014076
0.00859689
0.00137177
0.00244421
0.00133608
-0.00234849
0.00130084
-0.00806755
0.0012949
-0.0115201
0.00129422
-0.00843818
0.00129831
-0.0074992
0.00130117
0.00222903
0.00664318
0.00143572
0.00789293
0.00140935
0.00340408
0.00141033
-0.00119179
0.00141123
-0.0051501
0.0013921
-0.00813479
0.00136338
-0.0102063
0.00135361
-0.0108947
0.00136676
-0.00921924
0.00139352
-0.00601289
0.0014191
-0.000860089
0.00143752
0.00403977
0.00144854
0.00863099
0.00144677
0.0112436
0.0014357
0.0105387
0.00140965
0.00862294
0.0013729
0.00248096
0.00133635
-0.00231195
0.00129985
-0.00803104
0.00129386
-0.0115141
0.00129382
-0.00843814
0.00129946
-0.00750483
0.00130429
0.0022242
0.00665382
0.00143711
0.00794947
0.00140767
0.00343352
0.00140684
-0.00119096
0.0014073
-0.00515056
0.00138791
-0.00811541
0.00135845
-0.0101768
0.00134843
-0.0108847
0.00136243
-0.00923324
0.00139095
-0.00604141
0.00141859
-0.00088773
0.00143889
0.00401948
0.00145132
0.00861855
0.00144987
0.011245
0.00143851
0.01055
0.0014117
0.00864975
0.00137408
0.00251858
0.00133673
-0.0022746
0.00129897
-0.00799329
0.00129292
-0.0115081
0.00129352
-0.00843874
0.0013007
-0.00751201
0.00130752
0.00221737
0.00666396
0.00143852
0.00800885
0.00140595
0.00346609
0.00140327
-0.00118828
0.0014033
-0.0051506
0.00138371
-0.00809582
0.00135351
-0.0101466
0.00134318
-0.0108743
0.00135799
-0.00924805
0.00138827
-0.00607169
0.001418
-0.000917457
0.00144018
0.00399729
0.00145405
0.00860468
0.0014529
0.0112462
0.0014413
0.0105616
0.00141375
0.00867729
0.00137532
0.00255702
0.0013372
-0.00223649
0.00129821
-0.00795429
0.00129208
-0.0115019
0.00129332
-0.00843998
0.00130203
-0.00752072
0.00131085
0.00220855
0.00667356
0.00143995
0.00807108
0.00140422
0.00350182
0.00139961
-0.00118367
0.00139922
-0.00515021
0.00137949
-0.00807608
0.00134856
-0.0101157
0.00133787
-0.0108636
0.00135344
-0.00926362
0.00138547
-0.00610372
0.0014173
-0.000949291
0.0014414
0.0039732
0.00145671
0.00858937
0.00145589
0.011247
0.00144403
0.0105735
0.0014158
0.00870552
0.0013766
0.00259622
0.00133778
-0.00219766
0.00129755
-0.00791407
0.00129133
-0.0114957
0.0012932
-0.00844185
0.00130345
-0.00753096
0.00131428
0.00219771
0.0066826
0.00144141
0.00813612
0.00140246
0.00354077
0.00139588
-0.00117708
0.00139507
-0.0051494
0.00137524
-0.00805626
0.00134361
-0.0100841
0.0013325
-0.0108525
0.00134878
-0.00927991
0.00138255
-0.00613749
0.00141651
-0.000983252
0.00144254
0.00394717
0.0014593
0.00857262
0.00145881
0.0112475
0.00144673
0.0105855
0.00141785
0.0087344
0.00137793
0.00263614
0.00133845
-0.00215818
0.00129702
-0.00787264
0.00129067
-0.0114894
0.00129319
-0.00844437
0.00130495
-0.00754272
0.00131781
0.00218486
0.00669106
0.00144291
0.00820394
0.0014007
0.00358297
0.00139207
-0.00116845
0.00139084
-0.00514817
0.00137098
-0.0080364
0.00133864
-0.0100517
0.00132707
-0.010841
0.00134402
-0.00929686
0.00137952
-0.00617299
0.00141562
-0.00101936
0.00144359
0.0039192
0.00146181
0.0085544
0.00146167
0.0112476
0.00144937
0.0105978
0.00141989
0.00876388
0.00137931
0.00267673
0.00133922
-0.00211809
0.0012966
-0.00783002
0.00129011
-0.0114829
0.00129326
-0.00844752
0.00130655
-0.00755601
0.00132143
0.00216998
0.00669893
0.00144443
0.00827453
0.00139893
0.00362848
0.00138819
-0.00115771
0.00138653
-0.00514651
0.00136668
-0.00801655
0.00133368
-0.0100187
0.00132158
-0.0108289
0.00133914
-0.00931443
0.00137636
-0.0062102
0.00141463
-0.00105763
0.00144456
0.00388927
0.00146425
0.00853471
0.00146446
0.0112474
0.00145197
0.0106103
0.00142192
0.00879393
0.00138073
0.00271792
0.00134008
-0.00207744
0.0012963
-0.00778624
0.00128965
-0.0114762
0.00129343
-0.0084513
0.00130822
-0.0075708
0.00132513
0.00215307
0.00670617
0.001446
0.00834783
0.00139716
0.00367731
0.00138424
-0.00114479
0.00138214
-0.00514441
0.00136236
-0.00799678
0.0013287
-0.00998507
0.00131604
-0.0108162
0.00133416
-0.00933255
0.00137307
-0.00624912
0.00141352
-0.00109807
0.00144543
0.00385736
0.0014666
0.00851354
0.00146718
0.0112468
0.00145451
0.010623
0.00142394
0.0088245
0.00138218
0.00275968
0.00134104
-0.00203629
0.00129611
-0.00774131
0.00128928
-0.0114694
0.00129369
-0.00845572
0.00130998
-0.00758709
0.00132893
0.00213412
0.00671277
0.00144759
0.0084238
0.00139539
0.00372952
0.00138022
-0.00112962
0.00137766
-0.00514185
0.00135801
-0.00797712
0.00132373
-0.0099508
0.00131045
-0.0108029
0.00132906
-0.00935116
0.00136966
-0.00628972
0.0014123
-0.00114071
0.0014462
0.00382345
0.00146887
0.00849088
0.00146983
0.0112459
0.001457
0.0106358
0.00142595
0.00885555
0.00138368
0.00280195
0.00134209
-0.0019947
0.00129604
-0.00769525
0.001289
-0.0114624
0.00129404
-0.00846075
0.00131181
-0.00760486
0.00133281
0.00211313
0.00671869
0.00144923
0.00850238
0.00139363
0.00378511
0.00137614
-0.00111213
0.0013731
-0.00513881
0.00135362
-0.00795764
0.00131875
-0.00991593
0.00130481
-0.010789
0.00132386
-0.00937021
0.00136612
-0.00633198
0.00141096
-0.00118555
0.00144687
0.00378754
0.00147104
0.00846671
0.0014724
0.0112445
0.00145942
0.0106488
0.00142793
0.00888704
0.00138521
0.00284466
0.00134324
-0.00195273
0.00129608
-0.0076481
0.00128882
-0.0114551
0.00129447
-0.0084664
0.00131372
-0.00762412
0.00133677
0.00209008
0.00672391
0.00145089
0.00858352
0.00139188
0.00384412
0.00137199
-0.00109224
0.00136844
-0.00513526
0.00134919
-0.00793838
0.00131377
-0.00988052
0.00129912
-0.0107743
0.00131855
-0.00938964
0.00136245
-0.00637589
0.0014095
-0.00123259
0.00144744
0.0037496
0.00147313
0.00844102
0.0014749
0.0112428
0.00146179
0.0106619
0.00142989
0.00891893
0.00138677
0.00288778
0.00134447
-0.00191043
0.00129624
-0.00759987
0.00128873
-0.0114476
0.00129499
-0.00847267
0.00131571
-0.00764483
0.0013408
0.00206499
0.0067284
0.00145259
0.00866714
0.00139015
0.00390656
0.00136779
-0.00106989
0.0013637
-0.00513117
0.00134472
-0.0079194
0.00130879
-0.00984459
0.00129339
-0.0107589
0.00131313
-0.00940938
0.00135865
-0.00642141
0.00140791
-0.00128186
0.00144789
0.00370963
0.00147511
0.0084138
0.00147731
0.0112405
0.00146408
0.0106751
0.00143183
0.00895118
0.00138837
0.00293125
0.0013458
-0.00186786
0.00129652
-0.0075506
0.00128874
-0.0114398
0.0012956
-0.00847953
0.00131776
-0.007667
0.00134492
0.00203783
0.00673215
0.00145431
0.00875316
0.00138843
0.00397244
0.00136354
-0.00104499
0.00135887
-0.0051265
0.0013402
-0.00790073
0.00130381
-0.0098082
0.00128762
-0.0107427
0.0013076
-0.00942936
0.00135471
-0.00646852
0.0014062
-0.00133335
0.00144822
0.0036676
0.00147699
0.00838503
0.00147964
0.0112379
0.00146632
0.0106885
0.00143374
0.00898375
0.00138998
0.00297501
0.0013472
-0.00182508
0.00129692
-0.00750031
0.00128884
-0.0114317
0.00129629
-0.00848698
0.00131989
-0.0076906
0.0013491
0.00200862
0.00673511
0.00145606
0.00884151
0.00138674
0.00404176
0.00135923
-0.00101748
0.00135394
-0.00512121
0.00133563
-0.00788242
0.00129882
-0.00977139
0.00128181
-0.0107257
0.00130197
-0.00944952
0.00135064
-0.00651719
0.00140436
-0.00138706
0.00144844
0.00362352
0.00147877
0.00835471
0.00148188
0.0112348
0.00146848
0.0107019
0.00143562
0.0090166
0.00139162
0.00301902
0.0013487
-0.00178216
0.00129743
-0.00744905
0.00128903
-0.0114233
0.00129706
-0.00849501
0.00132208
-0.00771561
0.00135336
0.00197734
0.00673726
0.00145783
0.00893209
0.00138507
0.00411452
0.00135487
-0.000987274
0.00134891
-0.00511525
0.001331
-0.00786451
0.00129383
-0.00973421
0.00127597
-0.0107079
0.00129624
-0.00946979
0.00134643
-0.00656739
0.00140238
-0.00144301
0.00144854
0.00357736
0.00148043
0.00832281
0.00148404
0.0112312
0.00147056
0.0107154
0.00143747
0.00904969
0.00139328
0.00306321
0.00135027
-0.00173915
0.00129807
-0.00739684
0.00128932
-0.0114146
0.00129791
-0.0085036
0.00132433
-0.00774204
0.00135768
0.00194399
0.00673857
0.00145962
0.00902481
0.00138343
0.00419072
0.00135047
-0.000954309
0.00134379
-0.00510857
0.00132632
-0.00784705
0.00128884
-0.00969673
0.00127009
-0.0106891
0.0012904
-0.0094901
0.00134209
-0.00661908
0.00140027
-0.00150119
0.00144851
0.00352912
0.00148199
0.00828933
0.0014861
0.0112271
0.00147258
0.0107289
0.00143928
0.00908299
0.00139495
0.00310754
0.00135192
-0.00169612
0.00129881
-0.00734373
0.00128969
-0.0114054
0.00129884
-0.00851275
0.00132665
-0.00776985
0.00136207
0.00190857
0.00673901
0.00146142
0.00911955
0.00138182
0.00427032
0.00134602
-0.00091851
0.00133856
-0.00510111
0.00132157
-0.00783005
0.00128384
-0.00965899
0.00126418
-0.0106695
0.00128446
-0.00951037
0.0013376
-0.00667222
0.00139802
-0.0015616
0.00144835
0.0034788
0.00148343
0.00825424
0.00148807
0.0112224
0.00147451
0.0107424
0.00144105
0.00911645
0.00139664
0.00315195
0.00135365
-0.00165313
0.00129967
-0.00728975
0.00129016
-0.0113959
0.00129984
-0.00852243
0.00132903
-0.00779903
0.00136652
0.00187108
0.00673855
0.00146323
0.00921621
0.00138024
0.00435331
0.00134154
-0.000879806
0.00133324
-0.00509281
0.00131676
-0.00781357
0.00127883
-0.00962107
0.00125825
-0.0106489
0.00127842
-0.00953054
0.00133298
-0.00672678
0.00139564
-0.00162426
0.00144806
0.00342637
0.00148476
0.00821755
0.00148995
0.0112172
0.00147637
0.010756
0.00144278
0.00915005
0.00139833
0.00319639
0.00135545
-0.00161025
0.00130065
-0.00723495
0.00129072
-0.011386
0.00130092
-0.00853263
0.00133146
-0.00782956
0.00137102
0.00183152
0.00673716
0.00146504
0.00931465
0.0013787
0.00443966
0.00133702
-0.000838128
0.00132782
-0.0050836
0.00131187
-0.00779762
0.00127381
-0.00958301
0.00125229
-0.0106274
0.00127228
-0.00955052
0.00132821
-0.00678272
0.00139311
-0.00168916
0.00144765
0.00337183
0.00148596
0.00817924
0.00149173
0.0112115
0.00147815
0.0107696
0.00144446
0.00918374
0.00140003
0.00324081
0.00135732
-0.00156754
0.00130174
-0.00717936
0.00129136
-0.0113756
0.00130207
-0.00854334
0.00133394
-0.00786143
0.00137558
0.00178988
0.00673481
0.00146685
0.00941476
0.00137719
0.00452932
0.00133247
-0.00079341
0.00132229
-0.00507342
0.0013069
-0.00778223
0.00126879
-0.0095449
0.00124632
-0.0106049
0.00126604
-0.00957025
0.00132331
-0.00683998
0.00139045
-0.00175631
0.00144711
0.00331517
0.00148705
0.00813929
0.00149341
0.0112051
0.00147984
0.0107832
0.00144609
0.00921749
0.00140173
0.00328517
0.00135926
-0.00152507
0.00130294
-0.00712304
0.0012921
-0.0113648
0.00130329
-0.00855454
0.00133648
-0.00789462
0.00138019
0.00174618
0.00673147
0.00146866
0.00951639
0.00137573
0.00462226
0.0013279
-0.000745585
0.00131666
-0.00506219
0.00130185
-0.00776742
0.00126375
-0.00950679
0.00124031
-0.0105815
0.00125971
-0.00958964
0.00131825
-0.00689852
0.00138765
-0.00182571
0.00144644
0.00325638
0.00148803
0.00809771
0.001495
0.0111981
0.00148146
0.0107967
0.00144768
0.00925127
0.00140343
0.00332942
0.00136126
-0.00148289
0.00130425
-0.00706604
0.00129292
-0.0113534
0.00130458
-0.0085662
0.00133907
-0.00792912
0.00138485
0.0017004
0.0067271
0.0014705
0.00961941
0.00137433
0.00471843
0.00132332
-0.000694572
0.00131093
-0.0050498
0.00129671
-0.0077532
0.00125868
-0.00946876
0.00123428
-0.0105571
0.00125327
-0.00960863
0.00131304
-0.00695829
0.0013847
-0.00189737
0.00144566
0.00319543
0.0014889
0.00805447
0.00149649
0.0111905
0.00148299
0.0108102
0.00144921
0.00928505
0.00140513
0.0033735
0.00136332
-0.00144109
0.00130568
-0.00700839
0.00129382
-0.0113416
0.00130594
-0.00857832
0.00134171
-0.00796489
0.00138955
0.00165255
0.00672167
0.00147233
0.00972368
0.00137296
0.0048178
0.00131868
-0.000640298
0.00130507
-0.00503619
0.00129146
-0.00773959
0.00125359
-0.00943089
0.00122825
-0.0105317
0.00124677
-0.00962715
0.0013077
-0.00701922
0.00138164
-0.00197131
0.00144477
0.00313229
0.00148967
0.00800957
0.00149791
0.0111823
0.00148446
0.0108237
0.0014507
0.0093188
0.00140681
0.00341739
0.00136544
-0.00139972
0.00130721
-0.00695017
0.00129481
-0.0113292
0.00130736
-0.00859086
0.00134439
-0.00800192
0.0013943
0.00160264
0.00671515
0.00147372
0.0098293
0.001371
0.00492053
0.0013135
-0.000582801
0.00129881
-0.0050215
0.00128607
-0.00772685
0.00124852
-0.00939334
0.00122235
-0.0105056
0.0012404
-0.0096452
0.00130244
-0.00708126
0.00137865
-0.00204752
0.00144393
0.00306702
0.00149047
0.00796302
0.00149928
0.0111735
0.00148581
0.0108371
0.00145212
0.0093525
0.0014083
0.00346121
0.00136766
-0.00135908
0.00130862
-0.00689113
0.00129599
-0.0113166
0.00130875
-0.00860362
0.00134709
-0.00804025
0.00139914
0.00155059
0.00670755
0.00468221
0.00992525
0.00464981
0.00495293
0.00472756
-0.000660548
0.00484667
-0.00514061
0.00488415
-0.00776434
0.00477306
-0.00928225
0.00463034
-0.0103628
0.00456053
-0.00957539
0.00457881
-0.00709954
0.00463364
-0.00210235
0.00467974
0.00302092
0.00472189
0.00792088
0.00471914
0.0111762
0.00470414
0.0108521
0.00467728
0.00937936
0.00461748
0.00352101
0.00455934
-0.00130093
0.00437672
-0.00670851
0.00431052
-0.0112504
0.00428183
-0.00857493
0.00434955
-0.00810798
0.00448417
0.00141597
0.00669424
0.00487831
0.0100271
0.00483524
0.004996
0.00490607
-0.000731374
0.00502362
-0.00525816
0.0050641
-0.00780482
0.00494531
-0.00916346
0.0047844
-0.0102019
0.00470077
-0.00949175
0.00471928
-0.00711805
0.00478429
-0.00216736
0.00483958
0.00296563
0.00489055
0.00786991
0.00488414
0.0111826
0.00486527
0.010871
0.00483878
0.00940585
0.00478008
0.00357971
0.00473017
-0.00125102
0.00453459
-0.00651294
0.00445607
-0.0111718
0.00442259
-0.00854146
0.00449517
-0.00818056
0.00465021
0.00126094
0.00667574
0.00509373
0.0101286
0.00504262
0.00504711
0.00510243
-0.00079118
0.00521407
-0.0053698
0.00525484
-0.00784558
0.00512795
-0.00903657
0.00494757
-0.0100216
0.00484816
-0.00939235
0.00486577
-0.00713565
0.00494275
-0.00224435
0.00500784
0.00290053
0.00506649
0.00781126
0.00505705
0.0111921
0.00503328
0.0108948
0.00500748
0.00943165
0.00495313
0.00363407
0.00491103
-0.00120893
0.00470458
-0.00630649
0.00461092
-0.0110782
0.00457285
-0.00850339
0.0046484
-0.00825611
0.00482297
0.00108636
0.00664988
0.00532855
0.0102267
0.00527098
0.00510468
0.00531676
-0.000836961
0.00541798
-0.00547103
0.00545661
-0.0078842
0.00532134
-0.0089013
0.00512041
-0.00982063
0.00500287
-0.0092748
0.00501848
-0.00715126
0.00510847
-0.00233434
0.00518468
0.00282432
0.005252
0.00774394
0.00523925
0.0112048
0.00520954
0.0109245
0.00518435
0.00945684
0.00513538
0.00368305
0.00510326
-0.00117681
0.00488695
-0.00609018
0.00477615
-0.0109674
0.00473234
-0.00845957
0.0048095
-0.00833327
0.00500391
0.000891953
0.00661571
0.00558339
0.0103181
0.00552087
0.0051672
0.00555012
-0.000866211
0.00563618
-0.00555709
0.00566972
-0.00791775
0.00552572
-0.0087573
0.00530347
-0.00959838
0.00516546
-0.00913678
0.0051775
-0.00716331
0.00528137
-0.0024382
0.00537026
0.00273543
0.00544754
0.00766666
0.00543156
0.0112208
0.00539464
0.0109614
0.00536975
0.00948173
0.00532717
0.00372563
0.00530739
-0.00115703
0.00508255
-0.00586534
0.00495249
-0.0108373
0.00490153
-0.00840862
0.00497881
-0.00841055
0.00519308
0.000677683
0.00657223
0.00585867
0.0103989
0.00579276
0.00523311
0.00580335
-0.000876795
0.00586939
-0.00562313
0.00589438
-0.00794274
0.00574121
-0.00860413
0.00549718
-0.00935436
0.00533641
-0.00897602
0.00534285
-0.00716975
0.00546144
-0.00255679
0.00556476
0.00263211
0.00565352
0.00757789
0.00563469
0.0112396
0.00558925
0.0110068
0.00556429
0.0095067
0.00552896
0.00376095
0.00552394
-0.00115201
0.00529218
-0.00563358
0.00514061
-0.0106857
0.00508088
-0.00834889
0.00515666
-0.00848633
0.00539051
0.000443838
0.00651842
0.00615411
0.0104652
0.00608662
0.00530061
0.00607692
-0.000867104
0.00611817
-0.00566437
0.00613064
-0.00795521
0.00596773
-0.00844122
0.00570186
-0.00908849
0.00551622
-0.00879038
0.00551463
-0.00716815
0.00564858
-0.00269073
0.00576832
0.00251237
0.00587032
0.00747589
0.00584936
0.0112606
0.00579429
0.0110619
0.00576882
0.00953217
0.00574136
0.00378841
0.00575335
-0.001164
0.00551659
-0.00539681
0.00534119
-0.0105104
0.00527082
-0.00827852
0.00534335
-0.00855886
0.00559617
0.00019102
0.00645329
0.00646873
0.0105134
0.00640179
0.00536755
0.00637087
-0.000836191
0.00638283
-0.00567633
0.00637842
-0.0079508
0.00620505
-0.00826785
0.00591769
-0.00880113
0.0057054
-0.00857809
0.00569298
-0.00715574
0.00584257
-0.00284032
0.00598095
0.00237399
0.00609825
0.00735859
0.00607637
0.0112825
0.00601091
0.0111274
0.00598443
0.00955865
0.00596512
0.00380773
0.00599608
-0.00119496
0.00575646
-0.00515719
0.00555488
-0.0103088
0.00547171
-0.00819535
0.00553917
-0.00862632
0.00581002
-7.98343e-05
0.00637595
0.00680094
0.0105401
0.00673702
0.00543148
0.00668468
-0.000783854
0.00666335
-0.005655
0.00663744
-0.00792489
0.0064527
-0.00808311
0.0061447
-0.00849314
0.00590442
-0.00833781
0.00587809
-0.00712941
0.0060431
-0.00300532
0.00620249
0.00221459
0.00633751
0.00722357
0.00631653
0.0113035
0.00624049
0.0112034
0.00621261
0.00958652
0.00620124
0.00381911
0.00625251
-0.00124624
0.00601238
-0.00491706
0.00578225
-0.0100786
0.00568382
-0.00809692
0.00574435
-0.00868685
0.00603197
-0.000367455
0.0062856
0.00714861
0.0105422
0.00709044
0.00548965
0.00701723
-0.000710642
0.00695931
-0.00559709
0.00690721
-0.00787279
0.00671002
-0.00788592
0.0063827
-0.00816582
0.00611376
-0.00806886
0.00607021
-0.00708586
0.00624975
-0.00318487
0.00643259
0.00203176
0.00658811
0.00706804
0.00657062
0.011321
0.00648469
0.0112893
0.00645524
0.00961598
0.00645098
0.00382337
0.00652305
-0.00131831
0.00628483
-0.00467884
0.00602383
-0.00981764
0.00590735
-0.00798044
0.00595909
-0.00873859
0.00626189
-0.000670253
0.00618164
0.00750902
0.0105168
0.00745959
0.00553908
0.00736676
-0.000617814
0.0072698
-0.00550013
0.00718698
-0.00778996
0.00697611
-0.00767505
0.00663126
-0.00782097
0.00633377
-0.00777137
0.00626965
-0.00702173
0.00646203
-0.00337726
0.00667058
0.00182321
0.0068498
0.00688882
0.00683931
0.0113315
0.00674537
0.0113833
0.00671459
0.00964675
0.00671589
0.00382208
0.00680802
-0.00141044
0.00657406
-0.00444489
0.00628005
-0.00952363
0.00614238
-0.00784276
0.00618348
-0.00877969
0.00649958
-0.000986361
0.00606365
0.00787907
0.0104612
0.00784147
0.00557668
0.00773091
-0.000507253
0.0075934
-0.00536262
0.00747571
-0.00767228
0.00724983
-0.00744917
0.0068897
-0.00746083
0.00656472
-0.00744639
0.00647677
-0.00693378
0.00667933
-0.00357981
0.00691551
0.00158703
0.00712195
0.00668237
0.00712304
0.0113304
0.00702445
0.0114819
0.00699328
0.00967793
0.00699778
0.00381758
0.00710768
-0.00152035
0.00688011
-0.00421731
0.00655121
-0.00919473
0.00638882
-0.00768038
0.0064175
-0.00880837
0.00674482
-0.00131368
0.00593147
0.00825522
0.0103732
0.00823261
0.00559929
0.00810666
-0.0003813
0.0079281
-0.00518406
0.00777202
-0.0075162
0.00752984
-0.00720698
0.00715703
-0.00708803
0.00680667
-0.00709603
0.00669199
-0.0068191
0.00690093
-0.00378876
0.007166
0.00132197
0.00740345
0.00644491
0.00742187
0.011312
0.00732375
0.01158
0.00729403
0.00970764
0.00729861
0.00381299
0.00742219
-0.00164392
0.00720266
-0.00399779
0.00683742
-0.00882949
0.00664647
-0.00748943
0.00666097
-0.00882287
0.00699725
-0.00164997
0.00578514
0.00863376
0.0102506
0.00862914
0.00560391
0.00849047
-0.000242623
0.00827135
-0.00496494
0.00807423
-0.00731908
0.00781458
-0.00694733
0.00743203
-0.00670549
0.00705944
-0.00672344
0.00691573
-0.00667539
0.00712611
-0.00399914
0.00742029
0.00102779
0.00769263
0.00617257
0.00773524
0.0112693
0.00764463
0.0116706
0.00761941
0.00973286
0.00762033
0.00381208
0.00775144
-0.00177503
0.007541
-0.00378735
0.0071386
-0.00842709
0.00691499
-0.00726582
0.00691349
-0.00882137
0.00725639
-0.00199286
0.00562492
0.00901072
0.0100914
0.00902686
0.00558777
0.00887823
-9.39939e-05
0.00862002
-0.00470673
0.00838028
-0.00707935
0.00810235
-0.0066694
0.00771324
-0.00631637
0.0073226
-0.0063328
0.0071484
-0.00650119
0.00735412
-0.00420486
0.00767623
0.000705689
0.00798715
0.00586164
0.00806185
0.0111946
0.00798774
0.0117447
0.0079714
0.0097492
0.00796454
0.00381894
0.00809503
-0.00190553
0.00789384
-0.00358616
0.00745433
-0.00798758
0.00719395
-0.00700544
0.00717445
-0.00880187
0.00752154
-0.00233995
0.00545125
0.00938198
0.00989367
0.0094212
0.00554855
0.00926536
6.18493e-05
0.0089705
-0.00441188
0.00868782
-0.00679666
0.00839132
-0.0063729
0.00799897
-0.00592402
0.00759535
-0.00592917
0.00739032
-0.00629617
0.00758432
-0.00439886
0.00793135
0.000358657
0.00828394
0.00550905
0.00839942
0.0110792
0.00835252
0.0117916
0.00835082
0.0097509
0.00833215
0.00383761
0.00845206
-0.00202544
0.00825929
-0.00339339
0.00778382
-0.00751211
0.00748284
-0.00670446
0.00744297
-0.008762
0.00779175
-0.00268873
0.00526461
0.00974326
0.00965569
0.00980703
0.00548478
0.00964704
0.000221831
0.00931876
-0.00408359
0.00899422
-0.00647211
0.0086796
-0.00605828
0.00828748
-0.00553191
0.00787658
-0.00551827
0.0076416
-0.00606119
0.00781612
-0.00457338
0.00818295
-8.17308e-06
0.00857923
0.00511277
0.00874457
0.0109138
0.00873683
0.0117993
0.00875683
0.0097309
0.0087229
0.00387154
0.00882097
-0.0021235
0.00863471
-0.00320713
0.00812577
-0.00700318
0.00778113
-0.00635982
0.00771792
-0.0086988
0.00806568
-0.00303649
0.00506546
0.01009
0.0093758
0.0101793
0.00539554
0.0100175
0.000383587
0.00966047
-0.00372654
0.00929671
-0.00610835
0.00896528
-0.00572686
0.00857696
-0.00514359
0.00816489
-0.0051062
0.00790209
-0.00579839
0.00804914
-0.00472043
0.0084283
-0.000387331
0.0088686
0.00467246
0.00909273
0.0106897
0.00913671
0.0117554
0.00918643
0.00968118
0.00913494
0.00392304
0.00919938
-0.00218795
0.00901666
-0.0030244
0.00847833
-0.00646485
0.00808827
-0.00596976
0.00799799
-0.00860852
0.00834159
-0.00338009
0.0048541
0.0104173
0.00905273
0.010532
0.00528074
0.0103712