/*--------------------------------*- C++ -*----------------------------------*\
  =========                 |
  \\      /  F ield         | OpenFOAM: The Open Source CFD Toolbox
   \\    /   O peration     | Website:  https://openfoam.org
    \\  /    A nd           | Version:  7
     \\/     M anipulation  |
\*---------------------------------------------------------------------------*/
FoamFile
{
    version     2.0;
    format      ascii;
    class       surfaceScalarField;
    location    "200";
    object      phi;
}
// * * * * * * * * * * * * * * * * * * * * * * * * * * * * * * * * * * * * * //

dimensions      [0 3 -1 0 0 0 0];

internalField   nonuniform List<scalar> 
8842
(
-1.51783e-06
-4.0762e-06
5.59402e-06
-5.5701e-06
-2.18846e-05
2.59369e-05
-4.82047e-05
5.45053e-05
-1.64384e-06
-2.43235e-06
-6.03033e-06
-1.74981e-05
-4.13891e-05
-1.75981e-06
-6.72537e-07
-6.45445e-06
-1.28035e-05
-3.40988e-05
-1.8638e-06
1.19126e-06
-6.8358e-06
-7.83149e-06
-2.63807e-05
-1.95396e-06
3.14522e-06
-7.16827e-06
-2.61717e-06
-1.82875e-05
-2.02859e-06
5.17381e-06
-7.44616e-06
2.80039e-06
-9.87754e-06
-2.08622e-06
7.26003e-06
-7.66458e-06
8.37876e-06
-1.21371e-06
-2.12566e-06
9.3857e-06
-7.81941e-06
1.40725e-05
7.63698e-06
-2.14606e-06
1.15318e-05
-7.90761e-06
1.98341e-05
-1.68747e-05
1.6604e-05
4.13774e-06
-2.14681e-06
1.36786e-05
-7.92674e-06
2.5614e-05
-1.69371e-05
2.56143e-05
1.60148e-05
-2.12748e-06
1.5806e-05
-7.87525e-06
3.13618e-05
-1.68538e-05
3.45929e-05
2.78638e-05
-2.08787e-06
1.78939e-05
-7.75239e-06
3.70263e-05
-1.66232e-05
4.34637e-05
3.95889e-05
-2.02805e-06
1.9922e-05
-7.55831e-06
4.25565e-05
-1.62455e-05
5.21509e-05
5.10938e-05
-1.94845e-06
2.18704e-05
-7.29427e-06
4.79024e-05
-1.57231e-05
6.05797e-05
6.22837e-05
-1.84983e-06
2.37203e-05
-6.96262e-06
5.30152e-05
-1.50601e-05
6.86772e-05
7.30654e-05
-1.73334e-06
2.54536e-05
-6.56685e-06
5.78487e-05
-1.42629e-05
7.63733e-05
8.33492e-05
-1.60044e-06
2.7054e-05
-6.11155e-06
6.23598e-05
-1.33401e-05
8.36018e-05
-2.30396e-05
9.30487e-05
9.28658e-05
-1.45291e-06
2.85069e-05
-5.60227e-06
6.65091e-05
-1.23019e-05
9.03014e-05
-2.13362e-05
0.000102083
0.000103964
-1.29274e-06
2.97997e-05
-5.04541e-06
7.02618e-05
-1.11603e-05
9.64163e-05
-1.94544e-05
0.000110377
0.000114185
-1.12215e-06
3.09218e-05
-4.44806e-06
7.35877e-05
-9.92901e-06
0.000101897
-1.7415e-05
0.000117863
0.000123443
-9.43519e-07
3.18654e-05
-3.81806e-06
7.64623e-05
-8.62306e-06
0.000106702
-1.52414e-05
0.000124481
-2.34591e-05
0.00013166
0.000129947
-7.59428e-07
3.26248e-05
-3.16383e-06
7.88667e-05
-7.25883e-06
0.000110797
-1.29591e-05
0.000130182
-2.00697e-05
0.000138771
0.000138185
-5.72554e-07
3.31973e-05
-2.49425e-06
8.07884e-05
-5.85372e-06
0.000114157
-1.05954e-05
0.000134923
-1.6542e-05
0.000144717
0.000145061
-3.85623e-07
3.3583e-05
-1.81842e-06
8.22212e-05
-4.42563e-06
0.000116764
-8.17853e-06
0.000138676
-1.29155e-05
0.000149454
0.000150512
-2.01347e-07
3.37843e-05
-1.14544e-06
8.31652e-05
-2.99265e-06
0.000118611
-5.7373e-06
0.000141421
-9.23089e-06
0.000152948
-1.32063e-05
0.000154487
0.000147129
-2.25032e-08
3.38068e-05
-4.84259e-07
8.3627e-05
-1.5727e-06
0.0001197
-3.30042e-06
0.000143149
-5.52899e-06
0.000155177
-7.99248e-06
0.000156951
0.000149458
1.48933e-07
3.36579e-05
1.56628e-07
8.36193e-05
-1.83015e-07
0.000120039
-8.95831e-07
0.000143861
-1.84959e-06
0.00015613
-2.7772e-06
0.000157878
0.00014998
3.10023e-07
3.33479e-05
7.69265e-07
8.31601e-05
1.1603e-06
0.000119648
1.45023e-06
0.000143572
1.76926e-06
0.000155811
2.3891e-06
0.000157258
3.70035e-06
0.000148669
0.000130559
4.5912e-07
3.28887e-05
1.3467e-06
8.22725e-05
2.44285e-06
0.000118552
3.71403e-06
0.0001423
5.2932e-06
0.000154232
7.45985e-06
0.000155092
1.06191e-05
0.00014551
0.000125896
5.94532e-07
3.22942e-05
1.88306e-06
8.0984e-05
3.65233e-06
0.000116783
5.8751e-06
0.000140078
8.69215e-06
0.000151415
1.23947e-05
0.000151389
1.74051e-05
0.000140499
0.000119042
7.15007e-07
3.15792e-05
2.37377e-06
7.93252e-05
4.77904e-06
0.000114378
7.91704e-06
0.00013694
1.19418e-05
0.00014739
1.71604e-05
0.000146171
2.40159e-05
0.000133644
3.30707e-05
0.000109987
7.51078e-05
8.19747e-07
3.07594e-05
2.81575e-06
7.73292e-05
5.8162e-06
0.000111377
9.82811e-06
0.000132928
1.50246e-05
0.000142194
2.1733e-05
0.000139462
3.04204e-05
0.000124957
4.16795e-05
9.87284e-05
6.05728e-05
9.08439e-07
2.9851e-05
3.20757e-06
7.50301e-05
6.7603e-06
0.000107824
1.16019e-05
0.000128086
1.79304e-05
0.000135865
2.60984e-05
0.000131294
3.66011e-05
0.000114454
5.00644e-05
8.5265e-05
6.72327e-05
4.34045e-05
-1.17389e-05
9.81275e-07
2.88697e-05
3.54951e-06
7.24618e-05
7.61132e-06
0.000103763
1.32375e-05
0.00012246
2.06575e-05
0.000128445
3.02537e-05
0.000121698
4.25541e-05
0.000102153
5.82219e-05
6.95973e-05
7.80441e-05
2.35823e-05
-3.66137e-05
1.03897e-06
2.78308e-05
3.84361e-06
6.96572e-05
8.37281e-06
9.92333e-05
1.47402e-05
0.000116092
2.32125e-05
0.000119973
3.42078e-05
0.000110703
4.82912e-05
8.80701e-05
6.61672e-05
5.17213e-05
8.86689e-05
1.08052e-06
-6.46901e-05
1.08274e-06
2.6748e-05
4.09366e-06
6.66463e-05
9.05191e-06
9.42751e-05
1.61209e-05
0.000109023
2.56109e-05
0.000110483
3.79812e-05
9.83323e-05
5.38391e-05
7.22121e-05
7.39345e-05
3.16259e-05
9.91503e-05
-2.41353e-05
0.000130487
-9.6027e-05
-0.000185238
1.11428e-06
2.56337e-05
4.30511e-06
6.34554e-05
9.65919e-06
8.8921e-05
1.73963e-05
0.000101286
2.78764e-05
0.000100003
4.16058e-05
8.46029e-05
5.92391e-05
5.45789e-05
8.15758e-05
9.28915e-06
0.000109551
-5.21107e-05
0.000144218
-0.000130694
-0.000227739
1.13575e-06
2.4498e-05
4.48497e-06
6.01062e-05
1.02084e-05
8.31976e-05
1.85883e-05
9.29063e-05
3.00404e-05
8.8551e-05
4.51237e-05
6.95196e-05
6.45452e-05
3.51574e-05
8.91583e-05
-1.53239e-05
0.000119952
-8.29048e-05
0.000158032
-0.000168773
0.000204578
-0.000274286
-0.000400865
1.14965e-06
2.33484e-05
4.64152e-06
5.66143e-05
1.07159e-05
7.71232e-05
1.97233e-05
8.38989e-05
3.2141e-05
7.61334e-05
4.85859e-05
5.30747e-05
6.98226e-05
1.39206e-05
9.67615e-05
-4.22628e-05
0.000130447
-0.00011659
0.00017203
-0.000210356
0.000222723
-0.000324979
-0.00046187
1.15881e-06
2.21895e-05
4.78414e-06
5.2989e-05
1.12004e-05
7.0707e-05
2.08315e-05
7.42678e-05
3.42212e-05
6.27437e-05
5.20501e-05
3.52458e-05
7.51442e-05
-9.17348e-06
0.000104473
-7.1592e-05
0.000141135
-0.000153252
0.000186321
-0.000255542
0.000241258
-0.000379915
0.000307119
-0.000527731
-0.000700025
1.16615e-06
2.10234e-05
4.92273e-06
4.92324e-05
1.16819e-05
6.39478e-05
2.19451e-05
6.40046e-05
3.63278e-05
4.8361e-05
5.55783e-05
1.59952e-05
8.05877e-05
-3.41829e-05
0.000112386
-0.00010339
0.00015212
-0.000192986
0.000201011
-0.000304433
0.000260279
-0.000439183
0.000331037
-0.000598489
-0.000783142
1.17502e-06
1.98484e-05
5.0682e-06
4.53393e-05
1.21819e-05
5.68341e-05
2.30987e-05
5.30879e-05
3.85095e-05
3.29502e-05
5.92344e-05
-4.72964e-06
8.62313e-05
-6.11798e-05
0.000120589
-0.000137748
0.000163497
-0.000235895
0.00021619
-0.000357126
0.000279855
-0.000502849
0.000355508
-0.000674142
0.000443829
-0.000871462
-0.0010943
1.18845e-06
1.86599e-05
5.23086e-06
4.12968e-05
1.27212e-05
4.93437e-05
2.43258e-05
4.14833e-05
4.08143e-05
1.64617e-05
6.30808e-05
-2.69962e-05
9.21506e-05
-9.02496e-05
0.000129167
-0.000174764
0.000175352
-0.000282079
0.000231932
-0.000413707
0.000300032
-0.000570949
0.000380522
-0.000754632
0.000473841
-0.000964782
0.000579817
-0.00120027
-0.00145854
1.20946e-06
1.74505e-05
5.42092e-06
3.70854e-05
1.33203e-05
4.14444e-05
2.56592e-05
2.91444e-05
4.32882e-05
-1.16735e-06
6.71763e-05
-5.08843e-05
9.84143e-05
-0.000121488
0.000138193
-0.000214543
0.000187751
-0.000331637
0.000248285
-0.00047424
0.000320816
-0.00064348
0.000406023
-0.000839838
0.000504048
-0.00106281
0.000614319
-0.00131054
-0.00157964
1.24087e-06
1.62096e-05
5.64789e-06
3.26784e-05
1.3998e-05
3.30942e-05
2.7129e-05
1.60133e-05
4.59729e-05
-2.00112e-05
7.15728e-05
-7.64842e-05
0.000105081
-0.000154995
0.000147724
-0.000257187
0.000200741
-0.000384654
0.000265264
-0.000538764
0.000342173
-0.000720389
0.000431905
-0.00092957
0.000534253
-0.00116516
0.000648203
-0.00142449
0.000771845
-0.00170328
-0.0019957
1.28519e-06
1.49244e-05
5.92024e-06
2.80433e-05
1.47714e-05
2.42431e-05
2.87618e-05
2.02286e-06
4.89043e-05
-4.01537e-05
7.63134e-05
-0.000103893
0.000112195
-0.000190877
0.000157799
-0.000302791
0.000214339
-0.000441193
0.000282851
-0.000607276
0.000364028
-0.000801566
0.000458015
-0.00102356
0.000564213
-0.00127135
0.000681139
-0.00154142
0.000806397
-0.00182854
0.000936809
-0.00212611
-0.00242657
1.34456e-06
1.35798e-05
6.24522e-06
2.31427e-05
1.56545e-05
1.48338e-05
3.05796e-05
-1.29022e-05
5.21112e-05
-6.16853e-05
8.14304e-05
-0.000133213
0.000119786
-0.000229232
0.000168435
-0.00035144
0.000228535
-0.000501292
0.000300991
-0.000679732
0.000386263
-0.000886838
0.000484158
-0.00112145
0.000593649
-0.00138084
0.000712777
-0.00166055
0.000838691
-0.00195445
0.000967863
-0.00225529
-0.00255515
1.42068e-06
1.21591e-05
6.62858e-06
1.79348e-05
1.66588e-05
4.80364e-06
3.2599e-05
-2.88424e-05
5.56141e-05
-8.47005e-05
8.6944e-05
-0.000164542
0.000127868
-0.000270156
0.000179625
-0.000403198
0.00024329
-0.000564957
0.000319594
-0.000756036
0.000408721
-0.000975965
0.000510099
-0.00122283
0.000622252
-0.001493
0.000742756
-0.00178105
0.000868363
-0.00208006
0.000995296
-0.00238222
0.00111967
-0.00267953
-0.00296564
1.51479e-06
1.06444e-05
7.07452e-06
1.2375e-05
1.7792e-05
-5.9138e-06
3.48311e-05
-4.58815e-05
5.9425e-05
-0.000109294
9.28618e-05
-0.000197979
0.000136434
-0.000313729
0.000191341
-0.000458105
0.000258537
-0.000632153
0.000338539
-0.000836038
0.000431212
-0.00106864
0.000535577
-0.0013272
0.0006497
-0.00160712
0.000770725
-0.00190208
0.000895084
-0.00220442
0.00101886
-0.002506
0.00113828
-0.00279894
0.00125001
-0.00307738
-0.00333498
1.62766e-06
9.0167e-06
7.58561e-06
6.41708e-06
1.90587e-05
-1.73869e-05
3.72814e-05
-6.41043e-05
6.35467e-05
-0.00013556
9.91785e-05
-0.000233611
0.000145464
-0.000360014
0.000203531
-0.000516172
0.00027418
-0.000702803
0.000357674
-0.000919531
0.000453521
-0.00116448
0.000560313
-0.00143399
0.000675672
-0.00172248
0.000796358
-0.00202276
0.000918573
-0.00232664
0.00103839
-0.00262581
0.00115224
-0.0029128
0.00125724
-0.00318237
0.00135174
-0.00342948
-0.0036575
1.75961e-06
7.25709e-06
8.16287e-06
1.38196e-08
2.04602e-05
-2.96842e-05
3.99495e-05
-8.35936e-05
6.79734e-05
-0.000163583
0.000105877
-0.000271514
0.000154917
-0.000409054
0.000216123
-0.000577379
0.000290103
-0.000776783
0.000376825
-0.00100625
0.000475413
-0.00126307
0.000584023
-0.0015426
0.000699857
-0.00183831
0.000819363
-0.00214227
0.000938611
-0.00244588
0.00105377
-0.00274098
0.00116161
-0.00302063
0.00125972
-0.00328049
0.00134706
-0.00351681
-0.0037339
0.00142345
1.91055e-06
5.34654e-06
8.80584e-06
-6.88147e-06
2.19946e-05
-4.28729e-05
4.28296e-05
-0.000104429
7.26912e-05
-0.000193445
0.000112927
-0.00031175
0.000164741
-0.000460868
0.000229029
-0.000641666
0.000306169
-0.000853923
0.000395801
-0.00109588
0.000496646
-0.00136392
0.000606427
-0.00165238
0.000721972
-0.00195386
0.000839495
-0.00225979
0.000955044
-0.00256143
0.00106499
-0.00285093
0.00116651
-0.00312214
0.00125773
-0.00337171
0.00133814
-0.00359722
-0.00380375
0.00140799
2.08005e-06
3.26649e-06
9.51278e-06
-1.43142e-05
2.36572e-05
-5.70174e-05
4.59112e-05
-0.000126683
7.76789e-05
-0.000225213
0.000120291
-0.000354362
0.000174869
-0.000515447
0.000242143
-0.000708941
0.000322227
-0.000934007
0.000414403
-0.00118806
0.000516974
-0.00146649
0.000627259
-0.00176266
0.000741765
-0.00206836
0.000856565
-0.00237459
0.000967785
-0.00267265
0.0010721
-0.00295524
0.00116712
-0.00321716
0.00125154
-0.00345614
0.00132536
-0.00367104
-0.00386757
0.00138918
2.26735e-06
9.9914e-07
1.02808e-05
-2.23276e-05
2.5441e-05
-7.21776e-05
4.91796e-05
-0.000150421
8.29088e-05
-0.000258942
0.000127919
-0.000399372
0.000185224
-0.000572751
0.000255351
-0.000779068
0.000338117
-0.00101677
0.000432424
-0.00128237
0.000536163
-0.00157023
0.000646277
-0.00187278
0.000759029
-0.00218112
0.000870441
-0.002486
0.000976814
-0.00277902
0.00107519
-0.00305361
0.00116368
-0.00330566
0.00124151
-0.00353397
0.00130911
-0.00373864
-0.00392586
0.00136739
2.47147e-06
-1.47233e-06
1.11061e-05
-3.09623e-05
2.73368e-05
-8.84083e-05
5.26164e-05
-0.000175701
8.83476e-05
-0.000294673
0.000135758
-0.000446782
0.00019572
-0.000632713
0.000268528
-0.000851876
0.000353672
-0.00110192
0.000449663
-0.00137836
0.00055399
-0.00167456
0.000663271
-0.00198206
0.000773601
-0.00229145
0.000881048
-0.00259345
0.000982172
-0.00288015
0.00107444
-0.00314588
0.00115647
-0.00338768
0.00122797
-0.00360547
0.00128977
-0.00380044
-0.0039791
0.00134302
2.69127e-06
-4.16361e-06
1.19842e-05
-4.02551e-05
2.93337e-05
-0.000105758
5.62003e-05
-0.000202567
9.3958e-05
-0.000332431
0.000143746
-0.00049657
0.000206265
-0.000695232
0.000281545
-0.000927157
0.000368727
-0.0011891
0.000465924
-0.00147556
0.000570253
-0.00177888
0.000678064
-0.00208987
0.000785369
-0.00239875
0.00088837
-0.00269645
0.000983956
-0.00297573
0.00107006
-0.00323198
0.00114577
-0.0034634
0.00121128
-0.00367098
0.00126771
-0.00385687
-0.00402778
0.00131639
2.92548e-06
-7.08909e-06
1.29099e-05
-5.02396e-05
3.14196e-05
-0.000124267
5.99076e-05
-0.000231055
9.96989e-05
-0.000372222
0.000151817
-0.000548688
0.000216762
-0.000760177
0.000294272
-0.00100467
0.000383119
-0.00127794
0.000481027
-0.00157346
0.000584777
-0.00188263
0.000690519
-0.00219561
0.000794269
-0.0025025
0.00089244
-0.00279462
0.000982307
-0.0030656
0.00106227
-0.00331195
0.00113192
-0.00353304
0.00119179
-0.00373086
0.00124329
-0.00390837
-0.00407234
0.00128785
3.17276e-06
-1.02618e-05
1.38779e-05
-6.09447e-05
3.35814e-05
-0.000143971
6.3713e-05
-0.000261187
0.000105527
-0.000414036
0.000159904
-0.000603065
0.000227115
-0.000827388
0.000306579
-0.00108413
0.000396693
-0.00136806
0.000494808
-0.00167158
0.000597414
-0.00198524
0.00070054
-0.00229874
0.000800282
-0.00260224
0.000893338
-0.00288768
0.000977405
-0.00314967
0.00105136
-0.0033859
0.0011152
-0.00359689
0.00116984
-0.00378549
0.00121682
-0.00395535
-0.00411318
0.00125766
3.43173e-06
-1.36936e-05
1.48823e-05
-7.23953e-05
3.58052e-05
-0.000164894
6.75896e-05
-0.000292971
0.000111396
-0.000457843
0.000167937
-0.000659606
0.000237224
-0.000896675
0.00031834
-0.00116525
0.000409304
-0.00145902
0.000507121
-0.0017694
0.00060805
-0.00208617
0.000708068
-0.00239876
0.000803434
-0.00269761
0.000891183
-0.00297543
0.000969455
-0.00322794
0.00103758
-0.00345403
0.00109595
-0.00365526
0.00114573
-0.00383528
0.0011886
-0.00399822
-0.00415067
0.0012261
3.70097e-06
-1.73945e-05
1.59173e-05
-8.46116e-05
3.80766e-05
-0.000187053
7.15098e-05
-0.000326405
0.000117261
-0.000503594
0.000175845
-0.00071819
0.000246992
-0.000967822
0.000329434
-0.00124769
0.000420821
-0.00155041
0.000517847
-0.00186642
0.0006166
-0.00218492
0.000713086
-0.00249524
0.000803789
-0.00278831
0.000886125
-0.00305776
0.000958681
-0.0033005
0.00102121
-0.00351656
0.00107445
-0.0037085
0.00111977
-0.00388059
0.0011589
-0.00403736
-0.00418515
0.00119338
3.97907e-06
-2.13736e-05
1.69766e-05
-9.76091e-05
4.03807e-05
-0.000210457
7.5445e-05
-0.000361469
0.000123073
-0.000551222
0.000183558
-0.000778676
0.000256327
-0.00104059
0.000339751
-0.00133111
0.000431129
-0.00164179
0.000526889
-0.00196218
0.000623014
-0.00228105
0.00071561
-0.00258784
0.000801444
-0.00287415
0.000878339
-0.00313466
0.000945321
-0.00336748
0.00100253
-0.00357377
0.00105099
-0.00375695
0.00109221
-0.00392181
0.00112795
-0.00407311
-0.00421688
0.00115968
4.26459e-06
-2.56382e-05
1.8054e-05
-0.000111399
4.27023e-05
-0.000235105
7.93665e-05
-0.000398133
0.000128786
-0.000600641
0.000191008
-0.000840898
0.000265137
-0.00111472
0.000349188
-0.00141516
0.000440129
-0.00173273
0.000534174
-0.00205623
0.00062727
-0.00237414
0.000715687
-0.00267625
0.000796521
-0.00295498
0.000868015
-0.00320615
0.000929614
-0.00342908
0.000981805
-0.00362596
0.00102582
-0.00380097
0.00106329
-0.00395928
0.00109595
-0.00410576
-0.00424612
0.00112519
4.55606e-06
-3.01943e-05
1.91432e-05
-0.000125986
4.50261e-05
-0.000260988
8.3245e-05
-0.000436352
0.000134352
-0.000651748
0.000198127
-0.000904673
0.00027334
-0.00118993
0.000357654
-0.00149948
0.000447741
-0.00182282
0.000539656
-0.00214814
0.000629377
-0.00246386
0.000713393
-0.00276027
0.000789166
-0.00303075
0.000855355
-0.00327234
0.000911795
-0.00348552
0.000959273
-0.00367344
0.000999195
-0.00384089
0.00103323
-0.00399332
0.00106308
-0.00413561
-0.00427308
0.00109003
4.85195e-06
-3.50462e-05
2.02376e-05
-0.000141371
4.73363e-05
-0.000288087
8.70517e-05
-0.000476067
0.000139726
-0.000704423
0.000204852
-0.000969799
0.000280859
-0.00126594
0.000365071
-0.00158369
0.000453905
-0.00191165
0.000543313
-0.00223755
0.000629367
-0.00254992
0.000708827
-0.00283973
0.000779536
-0.00310146
0.000840563
-0.00333337
0.000892097
-0.00353705
0.000935171
-0.00371651
0.000971318
-0.00387704
0.00100222
-0.00402422
0.00102949
-0.00416288
-0.00429792
0.00105433
5.1507e-06
-4.01969e-05
2.13305e-05
-0.000157551
4.96171e-05
-0.000316374
9.07575e-05
-0.000517208
0.000144863
-0.000758528
0.000211123
-0.00103606
0.000287625
-0.00134244
0.000371375
-0.00166744
0.000458578
-0.00199885
0.000545145
-0.00232412
0.000627297
-0.00263207
0.000702104
-0.00291454
0.000767801
-0.00316716
0.000823844
-0.00338941
0.000870738
-0.00358395
0.000909715
-0.00375549
0.000942386
-0.00390971
0.000970415
-0.00405225
0.000995318
-0.00418779
-0.00432078
0.00101818
5.45058e-06
-4.56475e-05
2.2415e-05
-0.000174516
5.18529e-05
-0.000345811
9.43341e-05
-0.000559689
0.000149719
-0.000813913
0.000216884
-0.00110322
0.000293577
-0.00141914
0.000376515
-0.00175038
0.000461738
-0.00208408
0.000545173
-0.00240755
0.000623244
-0.00271014
0.000693356
-0.00298465
0.000754135
-0.00322794
0.000805399
-0.00344068
0.000847924
-0.00362647
0.000883098
-0.00379066
0.00091257
-0.00393918
0.000937954
-0.00407763
0.000960662
-0.00421049
-0.00434179
0.000981672
5.74993e-06
-5.13974e-05
2.34843e-05
-0.00019225
5.40276e-05
-0.000376355
9.77536e-05
-0.000603415
0.000154256
-0.000870415
0.000222086
-0.00117105
0.000298666
-0.00149572
0.000380454
-0.00183216
0.000463378
-0.002167
0.000543437
-0.00248761
0.000617299
-0.002784
0.000682722
-0.00305007
0.000738713
-0.00328393
0.000785421
-0.00348738
0.000823849
-0.0036649
0.000855496
-0.00382231
0.000882019
-0.0039657
0.00090496
-0.00410057
0.000925619
-0.00423115
-0.00436104
0.000944864
6.04712e-06
2.45316e-05
5.6126e-05
0.00010099
-0.000648279
0.000158433
-0.000927859
0.000226683
-0.0012393
0.000302849
-0.00157188
0.00038317
-0.00191248
0.000463511
-0.00224734
0.000539994
-0.00256409
0.000609565
-0.00285357
0.000670347
-0.00311085
0.000721708
-0.00333529
0.000764091
-0.00352977
0.000798686
-0.00369949
0.000827066
-0.00385069
0.000850863
-0.0039895
0.000871535
-0.00412125
0.000890265
-0.00424988
-0.00437859
0.000907818
0.000104017
0.000162218
0.000230638
-0.00130772
0.000306096
-0.00164734
0.000384653
-0.00199104
0.000462162
-0.00232485
0.000534913
-0.00263684
0.000600157
-0.00291882
0.000656379
-0.00316708
0.000703287
-0.0033822
0.000741581
-0.00356806
0.000772598
-0.00373051
0.000797947
-0.00387604
0.000819216
-0.00401077
0.000837767
-0.0041398
0.000854668
-0.00426678
-0.0043945
0.000870582
0.000233918
0.000308386
0.000384906
0.000459369
-0.00239932
0.000528274
-0.00270575
0.000589192
-0.00297974
0.000640964
-0.00321885
0.00068361
-0.00342484
0.00071805
-0.0036025
0.000745728
-0.00375819
0.000768261
-0.00389857
0.000787175
-0.00402968
0.00080373
-0.00415635
0.00081888
-0.00428193
-0.00440882
0.000833199
0.000455184
0.000520167
0.000576793
0.000624246
0.000662829
-0.00346343
0.000693642
-0.00363331
0.000718204
-0.00378275
0.000738116
-0.00391849
0.000754824
-0.00404639
0.000769486
-0.00417101
0.000782949
-0.0042954
-0.00442158
0.000795702
0.000641086
0.000668491
0.000690142
0.000707603
-0.00393595
0.000722235
-0.00406102
0.000735089
-0.00418387
0.000746914
-0.00430722
-0.00443279
0.000758122
0.000676804
0.000689468
0.000700585
0.000710809
-0.00444246
0.000720485
0.000682815
0.00445106
0.000758382
0.000744225
0.00390424
0.000760152
0.00403931
0.000774071
0.00417153
0.00078672
0.00430416
0.00443928
0.000798494
0.000653473
0.00317118
0.000694987
0.00338588
0.000728281
0.0035716
0.000754931
0.00373485
0.000776606
0.00388256
0.000794805
0.00402111
0.000810712
0.00415563
0.000825172
0.0042897
0.0044258
0.000838658
0.000477178
0.00224585
0.000550407
0.00256634
0.000615442
0.00285781
0.000670943
0.00311568
0.000716849
0.00333997
0.000754075
0.00353438
0.000784115
0.00370481
0.000808654
0.00385803
0.000829276
0.00400049
0.000847277
0.00413763
0.000863615
0.00427337
0.00441056
0.00087885
0.000236394
0.00114896
0.000315195
0.00147991
0.00039776
0.00182307
0.000479706
0.00216391
0.00055703
0.00248902
0.000626707
0.00278813
0.000687011
0.00305537
0.000737537
0.00328945
0.000778955
0.00349296
0.000812641
0.00367112
0.000840268
0.0038304
0.00086349
0.00397727
0.000883712
0.0041174
0.00090201
0.00425507
0.00439353
0.000919044
0.000102205
0.000529258
0.000161252
0.00078469
0.000231938
0.00107828
0.000311394
0.00140045
0.000395754
0.00173871
0.000480665
0.002079
0.000561958
0.00240772
0.000636281
0.00271381
0.000701516
0.00299014
0.000756879
0.00323409
0.000802759
0.00344708
0.000840366
0.00363351
0.000871331
0.00379943
0.000897356
0.00395124
0.00091995
0.00409481
0.000940312
0.00423471
0.00437464
0.000959206
5.66085e-06
3.1235e-05
2.33745e-05
0.000136176
5.41862e-05
0.000287253
9.86832e-05
0.000484761
0.000156653
0.00072672
0.000226794
0.00100814
0.000306582
0.00132066
0.000392409
0.00165288
0.000480009
0.0019914
0.000565096
0.00232264
0.000644027
0.00263488
0.000714286
0.00291988
0.000774693
0.00317368
0.000825307
0.00339646
0.000867129
0.00359169
0.000901709
0.00376485
0.00093077
0.00392218
0.000955915
0.00406966
0.000978466
0.00421216
0.0043538
0.000999299
5.34312e-06
2.58919e-05
2.22316e-05
0.000119287
5.18452e-05
0.000257639
9.49705e-05
0.000441636
0.000151675
0.000670016
0.000221003
0.000938807
0.000300793
0.00124087
0.000387735
0.00156594
0.000477706
0.00190143
0.000566364
0.00223398
0.000649812
0.00255143
0.000725154
0.00284454
0.000790787
0.00310805
0.000846405
0.00334084
0.000892751
0.00354535
0.000931247
0.00372636
0.000963609
0.00388982
0.000991513
0.00404176
0.0010164
0.00418726
0.00433093
0.00103928
5.02613e-06
2.08658e-05
2.10756e-05
0.000103238
4.94435e-05
0.000229271
9.10949e-05
0.000399984
0.000146358
0.000614752
0.000214613
0.000870552
0.000294071
0.00116141
0.000381753
0.00147826
0.000473739
0.00180944
0.000565693
0.00214202
0.000653516
0.00246361
0.00073395
0.00276411
0.000804963
0.00303703
0.000865844
0.00327996
0.00091703
0.00349416
0.000959769
0.00368362
0.000995728
0.00385386
0.00102664
0.00401085
0.00105405
0.00415985
0.00430589
0.00107908
4.71163e-06
1.61542e-05
1.99134e-05
8.80361e-05
4.69974e-05
0.000202187
8.70854e-05
0.000359896
0.000140744
0.000561094
0.000207676
0.00080362
0.000286469
0.00108262
0.000374501
0.00139023
0.000468112
0.00171583
0.000563035
0.0020471
0.00065503
0.00237161
0.00074051
0.00267862
0.000817015
0.00296053
0.000883401
0.00321358
0.000939749
0.00343781
0.000987078
0.00363629
0.00102696
0.00381398
0.00106115
0.00397666
0.0010913
0.0041297
0.00427854
0.00111865
4.40112e-06
1.1753e-05
1.87515e-05
7.36857e-05
4.45222e-05
0.000176417
8.29702e-05
0.000321448
0.000134878
0.000509186
0.000200251
0.000738247
0.000278049
0.00100482
0.000366033
0.00130224
0.000460846
0.00162102
0.000558361
0.00194958
0.000654261
0.00227571
0.00074468
0.00258821
0.000826742
0.00287847
0.000898844
0.00314147
0.00096067
0.00337599
0.00101295
0.00358401
0.00105712
0.00376981
0.0010949
0.00393888
0.00112805
0.00409656
0.00424869
0.00115789
4.09587e-06
7.65718e-06
1.75958e-05
6.01858e-05
4.20326e-05
0.00015198
7.87771e-05
0.000284704
0.000128802
0.000459161
0.000192398
0.000674651
0.000268883
0.000928339
0.000356415
0.00121471
0.000451981
0.00152545
0.000551663
0.0018499
0.000651139
0.00217624
0.000746321
0.00249302
0.000833941
0.00279085
0.000911933
0.00306348
0.000979536
0.00330838
0.00103714
0.0035264
0.00108598
0.00372097
0.00112772
0.00389714
0.00116414
0.00406013
0.00421612
0.00119671
3.79701e-06
3.86017e-06
1.64515e-05
4.75313e-05
3.95422e-05
0.000128889
7.45327e-05
0.000249713
0.000122563
0.000411131
0.000184179
0.000613035
0.000259047
0.00085347
0.000345725
0.00112804
0.000441579
0.0014296
0.00054296
0.00174852
0.000645618
0.00207358
0.000745312
0.00239333
0.000838424
0.00269773
0.000922425
0.00297948
0.000996079
0.00323473
0.00105938
0.0034631
0.0011133
0.00366706
0.00115938
0.00385106
0.00119943
0.00402009
0.00418057
0.00123499
3.50551e-06
3.54666e-07
1.53234e-05
3.57134e-05
3.70634e-05
0.000107149
7.02621e-05
0.000216515
0.000116201
0.000365192
0.000175658
0.000553579
0.000248625
0.000780503
0.000334055
0.00104261
0.00042972
0.00133393
0.000532294
0.00164595
0.000637678
0.00196819
0.000741556
0.00228945
0.000840015
0.00259927
0.000930079
0.00288942
0.00101002
0.00315479
0.00107938
0.00339373
0.0011388
0.00360763
0.00118966
0.00380021
0.00123371
0.00397603
0.00414171
0.00127256
3.22208e-06
-2.86742e-06
1.42155e-05
2.472e-05
3.4607e-05
8.67576e-05
6.59882e-05
0.000185134
0.000109758
0.000321423
0.000166897
0.000496439
0.000237701
0.0007097
0.000321504
0.000958802
0.000416502
0.00123893
0.000519735
0.00154272
0.000627333
0.0018606
0.000734987
0.0021818
0.00083856
0.0024957
0.000934664
0.00279331
0.00102107
0.00306839
0.00109683
0.00331797
0.00116219
0.00354227
0.00121827
0.00374413
0.00126676
0.00392755
0.0040992
0.00130927
2.94722e-06
-5.81464e-06
1.31307e-05
1.45366e-05
3.21824e-05
6.77059e-05
6.17316e-05
0.000155584
0.000103272
0.000279883
0.000157959
0.000441751
0.000226361
0.000641297
0.000308182
0.000876981
0.000402037
0.00114508
0.000505378
0.00143938
0.000614627
0.00175135
0.000725573
0.00207085
0.000833934
0.00238734
0.000935966
0.00269128
0.00102894
0.00297541
0.00111139
0.00323552
0.00118312
0.00347055
0.00124491
0.00368233
0.0012983
0.00387415
0.0040526
0.0013449
2.68113e-06
-8.49577e-06
1.20712e-05
5.14648e-06
2.97969e-05
4.99802e-05
5.751e-05
0.000127871
9.67764e-05
0.000240616
0.000148901
0.000389627
0.000214693
0.000575505
0.000294199
0.000797476
0.000386454
0.00105282
0.00048934
0.00133649
0.000599639
0.00164105
0.00071332
0.00195717
0.00082605
0.00227461
0.000933795
0.00258354
0.00103336
0.00287584
0.00112275
0.00314613
0.00120124
0.00339206
0.00126924
0.00361434
0.00132804
0.00381535
0.00400145
0.00137919
2.42379e-06
-1.09196e-05
1.10385e-05
-3.46825e-06
2.74565e-05
3.35622e-05
5.33385e-05
0.000101989
9.03033e-05
0.000203651
0.000139776
0.000340154
0.000202778
0.000512503
0.000279669
0.000720585
0.000369888
0.000962603
0.000471762
0.00123461
0.000582479
0.00153033
0.000698273
0.00184138
0.000814858
0.00215803
0.000927995
0.0024704
0.00103408
0.00276976
0.00113056
0.00304965
0.00121619
0.00330643
0.00129088
0.00353965
0.00135564
0.00375059
0.00394522
0.00141187
2.17495e-06
-1.30945e-05
1.00332e-05
-1.13265e-05
2.51653e-05
1.84302e-05
4.92296e-05
7.79249e-05
8.38794e-05
0.000169002
0.000130635
0.000293398
0.000190698
0.000452441
0.000264707
0.000646575
0.000352484
0.000874826
0.000452802
0.0011343
0.00056329
0.00141984
0.000680523
0.00172414
0.000800359
0.00203819
0.000918454
0.00235231
0.00103085
0.00265736
0.00113451
0.00294599
0.00122756
0.00321337
0.00130943
0.00345778
0.0013807
0.00367932
0.00388333
0.0014426
1.93418e-06
-1.50287e-05
9.05529e-06
-1.84476e-05
2.29263e-05
4.5592e-06
4.51932e-05
5.5658e-05
7.7528e-05
0.000136667
0.000121523
0.000249404
0.000178526
0.000395438
0.000249424
0.000575676
0.000334389
0.000789861
0.000432632
0.00103605
0.000542243
0.00131023
0.000660202
0.00160618
0.000782604
0.00191579
0.000905109
0.0022298
0.00102351
0.00253896
0.00113427
0.00283523
0.00123499