/*--------------------------------*- C++ -*----------------------------------*\
  =========                 |
  \\      /  F ield         | OpenFOAM: The Open Source CFD Toolbox
   \\    /   O peration     | Website:  https://openfoam.org
    \\  /    A nd           | Version:  7
     \\/     M anipulation  |
\*---------------------------------------------------------------------------*/
FoamFile
{
    version     2.0;
    format      ascii;
    class       volScalarField;
    location    "40";
    object      p;
}
// * * * * * * * * * * * * * * * * * * * * * * * * * * * * * * * * * * * * * //

dimensions      [0 2 -2 0 0 0 0];

internalField   nonuniform List<scalar> 
7156
(
-0.236315
-0.236671
-0.236988
-0.237274
-0.237533
-0.237772
-0.237994
-0.238203
-0.238402
-0.238592
-0.238776
-0.238954
-0.239127
-0.239298
-0.239467
-0.239636
-0.239806
-0.23998
-0.240163
-0.240337
-0.240495
-0.236345
-0.236701
-0.237017
-0.237302
-0.23756
-0.237799
-0.23802
-0.238229
-0.238427
-0.238617
-0.2388
-0.238977
-0.239151
-0.239321
-0.23949
-0.239658
-0.239829
-0.240003
-0.240186
-0.240361
-0.240518
-0.236398
-0.236752
-0.237067
-0.23735
-0.237607
-0.237844
-0.238065
-0.238272
-0.238469
-0.238657
-0.238839
-0.239015
-0.239187
-0.239356
-0.239524
-0.239692
-0.239861
-0.240034
-0.240218
-0.240392
-0.240547
-0.236472
-0.236824
-0.237137
-0.237418
-0.237673
-0.237908
-0.238127
-0.238332
-0.238527
-0.238713
-0.238893
-0.239067
-0.239237
-0.239404
-0.239569
-0.239735
-0.239903
-0.240075
-0.240259
-0.240432
-0.240584
-0.236569
-0.236918
-0.237228
-0.237506
-0.237759
-0.237991
-0.238206
-0.238409
-0.238601
-0.238784
-0.238961
-0.239132
-0.239299
-0.239463
-0.239626
-0.239789
-0.239955
-0.240125
-0.240307
-0.240479
-0.240626
-0.236688
-0.237033
-0.237339
-0.237614
-0.237863
-0.238091
-0.238303
-0.238502
-0.23869
-0.23887
-0.239043
-0.23921
-0.239374
-0.239534
-0.239693
-0.239853
-0.240015
-0.240183
-0.240363
-0.240533
-0.240675
-0.236828
-0.237168
-0.237471
-0.237741
-0.237986
-0.23821
-0.238418
-0.238612
-0.238796
-0.238971
-0.239139
-0.239302
-0.23946
-0.239616
-0.23977
-0.239926
-0.240084
-0.240248
-0.240427
-0.240593
-0.240728
-0.236989
-0.237325
-0.237622
-0.237888
-0.238127
-0.238346
-0.238549
-0.238738
-0.238916
-0.239086
-0.239249
-0.239406
-0.239558
-0.239708
-0.239857
-0.240007
-0.240161
-0.24032
-0.240496
-0.24066
-0.240785
-0.237172
-0.237502
-0.237793
-0.238053
-0.238287
-0.2385
-0.238697
-0.238879
-0.239052
-0.239215
-0.239371
-0.239521
-0.239667
-0.23981
-0.239953
-0.240096
-0.240244
-0.240398
-0.240571
-0.24073
-0.240845
-0.237375
-0.237699
-0.237984
-0.238237
-0.238464
-0.238671
-0.23886
-0.239036
-0.239201
-0.239357
-0.239505
-0.239648
-0.239786
-0.239921
-0.240056
-0.240192
-0.240333
-0.240481
-0.24065
-0.240805
-0.240908
-0.237599
-0.237915
-0.238193
-0.238439
-0.238659
-0.238858
-0.23904
-0.239208
-0.239364
-0.239512
-0.239652
-0.239785
-0.239915
-0.240041
-0.240166
-0.240294
-0.240426
-0.240568
-0.240732
-0.240881
-0.240971
-0.237843
-0.238151
-0.238421
-0.238659
-0.238871
-0.239061
-0.239234
-0.239393
-0.239541
-0.239679
-0.239809
-0.239933
-0.240052
-0.240168
-0.240283
-0.240401
-0.240524
-0.240657
-0.240815
-0.240959
-0.241033
-0.238106
-0.238406
-0.238667
-0.238896
-0.239099
-0.23928
-0.239444
-0.239593
-0.23973
-0.239857
-0.239977
-0.240089
-0.240197
-0.240301
-0.240405
-0.240511
-0.240624
-0.240748
-0.2409
-0.241037
-0.241094
-0.23868
-0.238931
-0.239151
-0.239343
-0.239514
-0.239667
-0.239805
-0.239931
-0.240047
-0.240154
-0.240254
-0.240349
-0.24044
-0.240531
-0.240625
-0.240725
-0.240838
-0.240983
-0.241113
-0.24115
-0.238971
-0.239213
-0.239422
-0.239604
-0.239763
-0.239905
-0.240031
-0.240144
-0.240247
-0.240341
-0.240427
-0.240508
-0.240584
-0.24066
-0.24074
-0.240827
-0.240927
-0.241064
-0.241185
-0.241201
-0.239281
-0.239511
-0.239709
-0.239879
-0.240027
-0.240155
-0.240268
-0.240368
-0.240457
-0.240536
-0.240607
-0.240672
-0.240732
-0.240792
-0.240855
-0.240926
-0.241013
-0.24114
-0.241252
-0.241245
-0.239608
-0.239827
-0.240012
-0.240169
-0.240304
-0.240419
-0.240518
-0.240603
-0.240676
-0.240739
-0.240793
-0.240841
-0.240883
-0.240924
-0.24097
-0.241024
-0.241095
-0.24121
-0.241312
-0.241278
-0.239952
-0.240158
-0.24033
-0.240474
-0.240594
-0.240695
-0.240778
-0.240847
-0.240904
-0.240949
-0.240985
-0.241013
-0.241036
-0.241057
-0.241082
-0.241117
-0.24117
-0.241273
-0.241363
-0.241299
-0.240313
-0.240505
-0.240664
-0.240793
-0.240898
-0.240982
-0.241049
-0.241101
-0.24114
-0.241166
-0.241182
-0.241189
-0.24119
-0.241189
-0.241191
-0.241204
-0.241237
-0.241326
-0.241403
-0.241306
-0.24069
-0.240868
-0.241012
-0.241126
-0.241214
-0.241282
-0.241331
-0.241364
-0.241383
-0.241389
-0.241384
-0.241368
-0.241345
-0.241319
-0.241297
-0.241285
-0.241295
-0.241367
-0.24143
-0.241294
-0.241246
-0.241374
-0.241471
-0.241543
-0.241592
-0.241622
-0.241636
-0.241634
-0.241618
-0.241589
-0.241549
-0.2415
-0.241447
-0.241397
-0.241358
-0.241342
-0.241394
-0.241443
-0.241261
-0.241639
-0.241751
-0.24183
-0.241883
-0.241913
-0.241924
-0.241916
-0.241892
-0.241852
-0.241798
-0.241731
-0.241654
-0.241572
-0.241491
-0.241422
-0.241377
-0.241406
-0.241439
-0.241203
-0.242047
-0.242141
-0.242202
-0.242235
-0.242245
-0.242234
-0.242204
-0.242156
-0.242091
-0.24201
-0.241915
-0.241807
-0.241693
-0.241579
-0.241475
-0.241397
-0.2414
-0.241417
-0.241114
-0.24247
-0.242544
-0.242586
-0.242599
-0.242587
-0.242553
-0.242499
-0.242426
-0.242335
-0.242226
-0.2421
-0.24196
-0.24181
-0.241659
-0.241518
-0.241403
-0.241375
-0.241375
-0.240975
-0.242962
-0.242982
-0.242974
-0.242939
-0.242882
-0.242803
-0.242703
-0.242584
-0.242444
-0.242286
-0.24211
-0.241923
-0.241732
-0.24155
-0.241393
-0.241331
-0.241317
-0.240766
-0.243392
-0.243391
-0.24336
-0.243301
-0.243219
-0.243114
-0.242986
-0.242837
-0.242666
-0.242473
-0.24226
-0.242032
-0.241798
-0.24157
-0.241367
-0.241266
-0.241248
-0.2406
-0.243835
-0.243812
-0.243756
-0.243673
-0.243564
-0.243432
-0.243276
-0.243095
-0.242891
-0.242662
-0.242409
-0.242138
-0.241856
-0.241579
-0.241324
-0.241178
-0.241094
-0.240458
-0.244292
-0.244244
-0.244164
-0.244054
-0.243919
-0.243757
-0.243571
-0.243359
-0.243119
-0.242852
-0.242558
-0.242241
-0.241908
-0.241576
-0.241265
-0.241068
-0.240924
-0.240246
-0.244689
-0.244582
-0.244446
-0.244281
-0.24409
-0.243873
-0.243627
-0.243352
-0.243046
-0.242708
-0.242341
-0.241955
-0.241563
-0.241189
-0.240935
-0.240733
-0.239974
-0.245145
-0.245011
-0.244846
-0.244653
-0.244431
-0.244181
-0.243901
-0.243589
-0.243242
-0.242859
-0.242441
-0.241997
-0.24154
-0.241097
-0.240778
-0.240512
-0.239649
-0.245613
-0.245451
-0.245257
-0.245032
-0.244779
-0.244496
-0.244181
-0.243831
-0.243442
-0.243012
-0.242541
-0.242036
-0.24151
-0.24099
-0.240596
-0.240259
-0.239269
-0.246094
-0.245902
-0.245677
-0.245421
-0.245135
-0.244818
-0.244467
-0.244078
-0.243646
-0.243168
-0.242642
-0.242073
-0.241474
-0.24087
-0.240391
-0.239972
-0.23883
-0.246364
-0.246107
-0.245818
-0.245499
-0.245147
-0.244759
-0.244331
-0.243856
-0.243329
-0.242747
-0.242111
-0.241435
-0.24074
-0.240166
-0.239654
-0.238329
-0.246837
-0.246547
-0.246225
-0.245871
-0.245483
-0.245059
-0.244591
-0.244072
-0.243496
-0.242856
-0.242152
-0.241394
-0.240602
-0.239921
-0.239305
-0.237764
-0.247321
-0.246997
-0.24664
-0.246251
-0.245827
-0.245365
-0.244857
-0.244295
-0.243669
-0.242971
-0.242198
-0.241355
-0.240459
-0.239661
-0.238926
-0.237129
-0.247457
-0.247064
-0.246639
-0.246178
-0.245678
-0.24513
-0.244524
-0.243849
-0.243094
-0.242251
-0.241321
-0.240315
-0.239388
-0.238521
-0.236423
-0.247928
-0.247498
-0.247035
-0.246537
-0.245998
-0.24541
-0.244761
-0.244037
-0.243225
-0.242312
-0.241293
-0.240173
-0.239107
-0.238093
-0.235641
-0.248409
-0.24794
-0.247439
-0.246903
-0.246325
-0.245697
-0.245005
-0.244234
-0.243365
-0.242383
-0.241276
-0.240037
-0.23882
-0.237647
-0.23478
-0.248393
-0.247852
-0.247276
-0.246659
-0.245991
-0.245257
-0.244439
-0.243515
-0.242465
-0.241269
-0.23991
-0.238533
-0.237187
-0.233838
-0.248855
-0.248273
-0.247657
-0.247
-0.246292
-0.245516
-0.244652
-0.243675
-0.242558
-0.241276
-0.239795
-0.238248
-0.236719
-0.232812
-0.248703
-0.248046
-0.247348
-0.246599
-0.245781
-0.244873
-0.243844
-0.242664
-0.241298
-0.239696
-0.237972
-0.236249
-0.231703
-0.249142
-0.248442
-0.247703
-0.246913
-0.246053
-0.245101
-0.244024
-0.242783
-0.241336
-0.239615
-0.237709
-0.235783
-0.230511
-0.248846
-0.248064
-0.247232
-0.246332
-0.245337
-0.244213
-0.242916
-0.241393
-0.239558
-0.237468
-0.235328
-0.229243
-0.249259
-0.248433
-0.247559
-0.246618
-0.245582
-0.244414
-0.243065
-0.241473
-0.239531
-0.237259
-0.234896
-0.227913
-0.24968
-0.248809
-0.247893
-0.24691
-0.245835
-0.244626
-0.243232
-0.241582
-0.239545
-0.237105
-0.234509
-0.226568
-0.249195
-0.248234
-0.247211
-0.246098
-0.244853
-0.243422
-0.241727
-0.239615
-0.237036
-0.234207
-0.225307
-0.249591
-0.248586
-0.247522
-0.246373
-0.245098
-0.243641
-0.241921
-0.239761
-0.237094
-0.234009
-0.22418
-0.248949
-0.247845
-0.246663
-0.245364
-0.243896
-0.24218
-0.240021
-0.237352
-0.233861
-0.222864
-0.249325
-0.248182
-0.24697
-0.245656
-0.244195
-0.242523
-0.24046
-0.237995
-0.233941
-0.221422
-0.248536
-0.247297
-0.245975
-0.244541
-0.242959
-0.241122
-0.239229
-0.23543
-0.225483
-0.247645
-0.24632
-0.244925
-0.243466
-0.24193
-0.240824
-0.239085
-0.247716
-0.248015
-0.24669
-0.245338
-0.244003
-0.242748
-0.242337
-0.241543
-0.253925
-0.247081
-0.245765
-0.244535
-0.243488
-0.243512
-0.242924
-0.255405
-0.24749
-0.246198
-0.245044
-0.244128
-0.244378
-0.243781
-0.255793
-0.246631
-0.245518
-0.244663
-0.24498
-0.244241
-0.255351
-0.245948
-0.245088
-0.245345
-0.244363
-0.254276
-0.24633
-0.245408
-0.245503
-0.244222
-0.252807
-0.245627
-0.245487
-0.243881
-0.251104
-0.245326
-0.243391
-0.249273
-0.242788
-0.247386
-0.242102
-0.24549
-0.24362
-0.243095
-0.241573
-0.244956
-0.244522
-0.242251
-0.246842
-0.244795
-0.242845
-0.24872
-0.245106
-0.244949
-0.243328
-0.250542
-0.24582
-0.244881
-0.244959
-0.24366
-0.252235
-0.245434
-0.244556
-0.244793
-0.243794
-0.253695
-0.246131
-0.244999
-0.244125
-0.244421
-0.243664
-0.254759
-0.247005
-0.245695
-0.244521
-0.243585
-0.243813
-0.243196
-0.255191
-0.246593
-0.245258
-0.244008
-0.24294
-0.24294
-0.24233
-0.254793
-0.247541
-0.246199
-0.244827
-0.243471
-0.242194
-0.241758
-0.240941
-0.253304
-0.247168
-0.245826
-0.244411
-0.242931
-0.241371
-0.240239
-0.238475
-0.247083
-0.248072
-0.246817
-0.245477
-0.244023
-0.242419
-0.240557
-0.238638
-0.23481
-0.224833
-0.248872
-0.247716
-0.246488
-0.245155
-0.243674
-0.241979
-0.239891
-0.237399
-0.233316
-0.220767
-0.248494
-0.247376
-0.246178
-0.244861
-0.243372
-0.241632
-0.239447
-0.236752
-0.23323
-0.222205
-0.249146
-0.248129
-0.247051
-0.245885
-0.244591
-0.243113
-0.241369
-0.239183
-0.236488
-0.233373
-0.223515
-0.248748
-0.247776
-0.246738
-0.245608
-0.244344
-0.242891
-0.241172
-0.239033
-0.236427
-0.233565
-0.224637
-0.249242
-0.248361
-0.247432
-0.246435
-0.245343
-0.244115
-0.242698
-0.241024
-0.23896
-0.236491
-0.233863
-0.225894
-0.24882
-0.247984
-0.247097
-0.246141
-0.245088
-0.2439
-0.242528
-0.240912
-0.238943
-0.236642
-0.234246
-0.227235
-0.24916
-0.248407
-0.247614
-0.24677
-0.245854
-0.244842
-0.243698
-0.242378
-0.24083
-0.238967
-0.236847
-0.234675
-0.22856
-0.248711
-0.248002
-0.247252
-0.246449
-0.245574
-0.244604
-0.243506
-0.242243
-0.24077
-0.239022
-0.237086
-0.235126
-0.229824
-0.248273
-0.247606
-0.246898
-0.246135
-0.245301
-0.244375
-0.243326
-0.242122
-0.24073
-0.2391
-0.237347
-0.23559
-0.231014
-0.248433
-0.247844
-0.247219
-0.24655
-0.245828
-0.245036
-0.244153
-0.243155
-0.242016
-0.240708
-0.239199
-0.237622
-0.236059
-0.232121
-0.247972
-0.247424
-0.246838
-0.24621
-0.245527
-0.244777
-0.24394
-0.242996
-0.241922
-0.2407
-0.239313
-0.237905
-0.236526
-0.233145
-0.247996
-0.247522
-0.247013
-0.246466
-0.245877
-0.245234
-0.244526
-0.243736
-0.242846
-0.24184
-0.240707
-0.23944
-0.238193
-0.236986
-0.234087
-0.247518
-0.247081
-0.24661
-0.246102
-0.245551
-0.244949
-0.244283
-0.243541
-0.242707
-0.24177
-0.240726
-0.239577
-0.23848
-0.237432
-0.234948
-0.24705
-0.246651
-0.246217
-0.245746
-0.245233
-0.244671
-0.244048
-0.243355
-0.242578
-0.241711
-0.240755
-0.239721
-0.238763
-0.237862
-0.235731
-0.246923
-0.246593
-0.24623
-0.245832
-0.245398
-0.244923
-0.244401
-0.243822
-0.243177
-0.242458
-0.241661
-0.240792
-0.239867
-0.239039
-0.238269
-0.236439
-0.246442
-0.246147
-0.245818
-0.245456
-0.245058
-0.244621
-0.244138
-0.243603
-0.243007
-0.242346
-0.241619
-0.240834
-0.240013
-0.239302
-0.238651
-0.237077
-0.245974
-0.245712
-0.245417
-0.245088
-0.244726
-0.244326
-0.243882
-0.243391
-0.242845
-0.242241
-0.241582
-0.240879
-0.240156
-0.23955
-0.239005
-0.237646
-0.245713
-0.245518
-0.245287
-0.245024
-0.244729
-0.244402
-0.244038
-0.243634
-0.243186
-0.242688
-0.242141
-0.241548
-0.240923
-0.240291
-0.239781
-0.239328
-0.238151
-0.245239
-0.245072
-0.244872
-0.244641
-0.244379
-0.244085
-0.243757
-0.243392
-0.242986
-0.242537
-0.242045
-0.241516
-0.240965
-0.240417
-0.239991
-0.23962
-0.238596
-0.244776
-0.244639
-0.244468
-0.244267
-0.244037
-0.243776
-0.243484
-0.243157
-0.242793
-0.242391
-0.241952
-0.241484
-0.241002
-0.24053
-0.24018
-0.239881
-0.238982
-0.244327
-0.244216
-0.244074
-0.243903
-0.243703
-0.243474
-0.243216
-0.242926
-0.242603
-0.242247
-0.241859
-0.241449
-0.241032
-0.24063
-0.240345
-0.24011
-0.239315
-0.24394
-0.24389
-0.243805
-0.24369
-0.243547
-0.243377
-0.24318
-0.242955
-0.242701
-0.242418
-0.242105
-0.241767
-0.241411
-0.241053
-0.240715
-0.240486
-0.24031
-0.239596
-0.243491
-0.243465
-0.243405
-0.243317
-0.243201
-0.243059
-0.242892
-0.2427
-0.242481
-0.242236
-0.241965
-0.241673
-0.241368
-0.241065
-0.240784
-0.240606
-0.240492
-0.239815
-0.243056
-0.243053
-0.243017
-0.242953
-0.242863
-0.242749
-0.242612
-0.24245
-0.242265
-0.242056
-0.241825
-0.241577
-0.24132
-0.241067
-0.240837
-0.240706
-0.240663
-0.239962
-0.242581
-0.242635
-0.242653
-0.24264
-0.2426
-0.242535
-0.242448
-0.242338
-0.242206
-0.242053
-0.241879
-0.241685
-0.241478
-0.241265
-0.241058
-0.240874
-0.240782
-0.240738
-0.240157
-0.242154
-0.242227
-0.242266
-0.242275
-0.242257
-0.242217
-0.242154
-0.242071
-0.241968
-0.241845
-0.241703
-0.241545
-0.241376
-0.241203
-0.241039
-0.240897
-0.24084
-0.240808
-0.240377
-0.241741
-0.241833
-0.241891
-0.241921
-0.241925
-0.241907
-0.241869
-0.241811
-0.241734
-0.24164
-0.241529
-0.241405
-0.241271
-0.241136
-0.241009
-0.240905
-0.240879
-0.240864
-0.240529
-0.241344
-0.241453
-0.24153
-0.241579
-0.241604
-0.241607
-0.241591
-0.241557
-0.241506
-0.241439
-0.241358
-0.241264
-0.241163
-0.241061
-0.240969
-0.240899
-0.2409
-0.240902
-0.240634
-0.240961
-0.241087
-0.241182
-0.241249
-0.241293
-0.241317
-0.241323
-0.241311
-0.241284
-0.241243
-0.241188
-0.241123
-0.241052
-0.240981
-0.24092
-0.240879
-0.240904
-0.240923
-0.240709
-0.240416
-0.240594
-0.240736
-0.240847
-0.240932
-0.240994
-0.241037
-0.241063
-0.241073
-0.241068
-0.24105
-0.24102
-0.240982
-0.240938
-0.240896
-0.240863
-0.240849
-0.240894
-0.240928
-0.240761
-0.240051
-0.240243
-0.240399
-0.240526
-0.240627
-0.240707
-0.240768
-0.240812
-0.240842
-0.240858
-0.240862
-0.240856
-0.240841
-0.240823
-0.240807
-0.240798
-0.240808
-0.240871
-0.24092
-0.240792
-0.239702
-0.239907
-0.240078
-0.240219
-0.240336
-0.240431
-0.240509
-0.240571
-0.240619
-0.240655
-0.240679
-0.240694
-0.240702
-0.240707
-0.240714
-0.240728
-0.240759
-0.240837
-0.2409
-0.240807
-0.23937
-0.239588
-0.239772
-0.239927
-0.240058
-0.240168
-0.240261
-0.24034
-0.240405
-0.240458
-0.240502
-0.240536
-0.240565
-0.240591
-0.240618
-0.240653
-0.240702
-0.240794
-0.24087
-0.240808
-0.239056
-0.239285
-0.239481
-0.239649
-0.239793
-0.239918
-0.240025
-0.240119
-0.2402
-0.24027
-0.24033
-0.240383
-0.24043
-0.240475
-0.240521
-0.240574
-0.240641
-0.240745
-0.240832
-0.240797
-0.238759
-0.239
-0.239207
-0.239387
-0.239543
-0.23968
-0.239801
-0.239909
-0.240004
-0.24009
-0.240166
-0.240235
-0.240299
-0.240361
-0.240425
-0.240494
-0.240575
-0.24069
-0.240788
-0.240778
-0.238481
-0.238732
-0.23895
-0.23914
-0.239308
-0.239457
-0.23959
-0.23971
-0.239819
-0.239918
-0.240009
-0.240093
-0.240173
-0.24025
-0.240329
-0.240413
-0.240507
-0.240632
-0.240739
-0.240752
-0.237921
-0.238221
-0.238481
-0.238709
-0.238909
-0.239088
-0.239247
-0.239392
-0.239524
-0.239645
-0.239757
-0.23986
-0.239958
-0.240051
-0.240143
-0.240235
-0.240332
-0.240438
-0.240572
-0.240688
-0.240721
-0.237671
-0.237979
-0.238249
-0.238485
-0.238695
-0.238883
-0.239053
-0.239207
-0.23935
-0.239482
-0.239605
-0.239721
-0.23983
-0.239936
-0.24004
-0.240145
-0.240253
-0.24037
-0.240511
-0.240635
-0.240688
-0.237441
-0.237758
-0.238035
-0.23828
-0.238498
-0.238694
-0.238873
-0.239037
-0.239189
-0.239331
-0.239464
-0.23959
-0.239711
-0.239828
-0.239943
-0.240058
-0.240177
-0.240304
-0.240452
-0.240583
-0.240653
-0.237232
-0.237555
-0.23784
-0.238092
-0.238318
-0.238522
-0.238708
-0.238881
-0.239041
-0.239192
-0.239335
-0.239471
-0.239601
-0.239728
-0.239852
-0.239978
-0.240106
-0.240241
-0.240395
-0.240533
-0.240618
-0.237043
-0.237373
-0.237664
-0.237923
-0.238155
-0.238366
-0.23856
-0.23874
-0.238908
-0.239067
-0.239217
-0.239362
-0.239501
-0.239636
-0.239769
-0.239903
-0.24004
-0.240182
-0.240341
-0.240486
-0.240584
-0.236875
-0.237211
-0.237507
-0.237772
-0.238011
-0.238228
-0.238428
-0.238614
-0.238789
-0.238955
-0.239113
-0.239264
-0.239411
-0.239554
-0.239695
-0.239836
-0.23998
-0.240128
-0.240292
-0.240443
-0.240553
-0.236728
-0.237069
-0.237371
-0.237641
-0.237884
-0.238107
-0.238313
-0.238504
-0.238685
-0.238857
-0.239021
-0.239179
-0.239332
-0.239481
-0.239629
-0.239777
-0.239927
-0.240081
-0.240249
-0.240405
-0.240526
-0.236603
-0.236948
-0.237254
-0.237529
-0.237777
-0.238004
-0.238214
-0.238411
-0.238597
-0.238773
-0.238943
-0.239106
-0.239264
-0.23942
-0.239573
-0.239727
-0.239882
-0.240041
-0.240213
-0.240373
-0.240503
-0.2365
-0.236849
-0.237158
-0.237436
-0.237688
-0.237919
-0.238133
-0.238334
-0.238524
-0.238705
-0.238878
-0.239046
-0.239209
-0.239369
-0.239527
-0.239686
-0.239845
-0.240009
-0.240183
-0.240347
-0.240486
-0.236419
-0.23677
-0.237083
-0.237363
-0.237618
-0.237852
-0.23807
-0.238273
-0.238467
-0.238651
-0.238828
-0.239
-0.239167
-0.239331
-0.239493
-0.239654
-0.239818
-0.239985
-0.240162
-0.240329
-0.240474
-0.236359
-0.236713
-0.237028
-0.237311
-0.237568
-0.237804
-0.238024
-0.23823
-0.238426
-0.238613
-0.238793
-0.238967
-0.239137
-0.239304
-0.239469
-0.239634
-0.2398
-0.239969
-0.240149
-0.240319
-0.240469
-0.236322
-0.236678
-0.236994
-0.237278
-0.237537
-0.237775
-0.237996
-0.238204
-0.238401
-0.23859
-0.238772
-0.238949
-0.23912
-0.239289
-0.239457
-0.239624
-0.239792
-0.239963
-0.240145
-0.240316
-0.24047
-0.236308
-0.236664
-0.236981
-0.237266
-0.237525
-0.237764
-0.237986
-0.238195
-0.238393
-0.238583
-0.238766
-0.238944
-0.239117
-0.239287
-0.239456
-0.239624
-0.239794
-0.239967
-0.24015
-0.240323
-0.240479
-0.241629
-0.240617
-0.2424
-0.241546
-0.242792
-0.242267
-0.242934
-0.242593
-0.242804
-0.24247
-0.242335
-0.24189
-0.241667
-0.240638
-0.242436
-0.241573
-0.242826
-0.242299
-0.242966
-0.242622
-0.242829
-0.242488
-0.242344
-0.241885
-0.241727
-0.240659
-0.242484
-0.241605
-0.242869
-0.242336
-0.243005
-0.242657
-0.24286
-0.242512
-0.242358
-0.241886
-0.241808
-0.240682
-0.242546
-0.24164
-0.24292
-0.242378
-0.243051
-0.242698
-0.242897
-0.242541
-0.242377
-0.241893
-0.24191
-0.240705
-0.242622
-0.241679
-0.24298
-0.242426
-0.243102
-0.242744
-0.242939
-0.242576
-0.242402
-0.241905
-0.242031
-0.240728
-0.24271
-0.241722
-0.243049
-0.242479
-0.24316
-0.242796
-0.242987
-0.242617
-0.242433
-0.241923
-0.242174
-0.240751
-0.24281
-0.241768
-0.243125
-0.242536
-0.243224
-0.242853
-0.24304
-0.242663
-0.242468
-0.241947
-0.242335
-0.240774
-0.242923
-0.241817
-0.243209
-0.242599
-0.243294
-0.242916
-0.243098
-0.242714
-0.24251
-0.241976
-0.242516
-0.240794
-0.243047
-0.241869
-0.243299
-0.242666
-0.243369
-0.242983
-0.243162
-0.242771
-0.242556
-0.24201
-0.242716
-0.240812
-0.243182
-0.241922
-0.243397
-0.242737
-0.243449
-0.243055
-0.24323
-0.242832
-0.242607
-0.24205
-0.242933
-0.240827
-0.243328
-0.241978
-0.243499
-0.242812
-0.243533
-0.243131
-0.243302
-0.242897
-0.242662
-0.242095
-0.243169
-0.240837
-0.243483
-0.242034
-0.243607
-0.24289
-0.243621
-0.243211
-0.243377
-0.242967
-0.242722
-0.242144
-0.243421
-0.240843
-0.243647
-0.242092
-0.24372
-0.242971
-0.243712
-0.243294
-0.243457
-0.24304
-0.242786
-0.242198
-0.24369
-0.240842
-0.243819
-0.24215
-0.243836
-0.243055
-0.243806
-0.24338
-0.243539
-0.243117
-0.242853
-0.242255
-0.243975
-0.240833
-0.243998
-0.242208
-0.243955
-0.243141
-0.243902
-0.243469
-0.243624
-0.243198
-0.242924
-0.242317
-0.244276
-0.240816
-0.244184
-0.242265
-0.244075
-0.243228
-0.243999
-0.24356
-0.243711
-0.24328
-0.242998
-0.242382
-0.244593
-0.24079
-0.244374
-0.242321
-0.244197
-0.243316
-0.244097
-0.243653
-0.243799
-0.243365
-0.243074
-0.242451
-0.244924
-0.240753
-0.244569
-0.242376
-0.244318
-0.243405
-0.244196
-0.243747
-0.243888
-0.243452
-0.243152
-0.242522
-0.24527
-0.240705
-0.244766
-0.242429
-0.244439
-0.243495
-0.244293
-0.243841
-0.243978
-0.243539
-0.243232
-0.242595
-0.245632
-0.240643
-0.244965
-0.24248
-0.244557
-0.243583
-0.244389
-0.243935
-0.244067
-0.243628
-0.243313
-0.24267
-0.246008
-0.240569
-0.245164
-0.242528
-0.244672
-0.243671
-0.244483
-0.244028
-0.244156
-0.243716
-0.243394
-0.242747
-0.246399
-0.24048
-0.245362
-0.242574
-0.244783
-0.243757
-0.244574
-0.24412
-0.244243
-0.243804
-0.243476
-0.242824
-0.246804
-0.240378
-0.245556
-0.242616
-0.244888
-0.243842
-0.244661
-0.24421
-0.244328
-0.243891
-0.243556
-0.242902
-0.242175
-0.247229
-0.240261
-0.245746
-0.242656
-0.244986
-0.243923
-0.244743
-0.244297
-0.24441
-0.243976
-0.243636
-0.24298
-0.242245
-0.247693
-0.24011
-0.245929
-0.242693
-0.245076
-0.244001
-0.24482
-0.24438
-0.244489
-0.244059
-0.243714
-0.243056
-0.242315
-0.24817
-0.239913
-0.246114
-0.242722
-0.245157
-0.244076
-0.244891
-0.24446
-0.244563
-0.244139
-0.24379
-0.243132
-0.242385
-0.248552
-0.239812
-0.24629
-0.242738
-0.245232
-0.244143
-0.244955
-0.244535
-0.244633
-0.244215
-0.243863
-0.243206
-0.242454
-0.248975
-0.239698
-0.246402
-0.242785
-0.245299
-0.2442
-0.245012
-0.244605
-0.244698
-0.244287
-0.243933
-0.243277
-0.242521
-0.249437
-0.239545
-0.246513
-0.242823
-0.245334
-0.244268
-0.24506
-0.244668
-0.244757
-0.244354
-0.243998
-0.243346
-0.242587
-0.249917
-0.239377
-0.246618
-0.242851
-0.245363
-0.244323
-0.245098
-0.244724
-0.244808
-0.244416
-0.244059
-0.24341
-0.24265
-0.25041
-0.239203
-0.246706
-0.242873
-0.245383
-0.244367
-0.245127
-0.244773
-0.244853
-0.244471
-0.244114
-0.243471
-0.24271
-0.250919
-0.239025
-0.246772
-0.242891
-0.245387
-0.244403
-0.245146
-0.244813
-0.244889
-0.244519
-0.244164
-0.243526
-0.242766
-0.251441
-0.238848
-0.246814
-0.242906
-0.245375
-0.24443
-0.245153
-0.244844
-0.244917
-0.24456
-0.244207
-0.243576
-0.242817
-0.251973
-0.238675
-0.246831
-0.242915
-0.245346
-0.244446
-0.245149
-0.244864
-0.244935
-0.244592
-0.244242
-0.24362
-0.242864
-0.252513
-0.238512
-0.246819
-0.242921
-0.2453
-0.244452
-0.245133
-0.244874
-0.244943
-0.244615
-0.24427
-0.243657
-0.242905
-0.253053
-0.238367
-0.246777
-0.24292
-0.245236
-0.244445
-0.245103
-0.244872
-0.244941
-0.244629
-0.244289
-0.243686
-0.24294
-0.253586
-0.238244
-0.246704
-0.242913
-0.245154
-0.244425
-0.245059
-0.244858
-0.244927
-0.244632
-0.244298
-0.243707
-0.242967
-0.2541
-0.238153
-0.246598
-0.242899
-0.245052
-0.244391
-0.245002
-0.24483
-0.2449
-0.244623
-0.244298
-0.24372
-0.242987
-0.254578
-0.238099
-0.246458
-0.242877
-0.244931
-0.244341
-0.244929
-0.244788
-0.244861
-0.244603
-0.244287
-0.243722
-0.242999
-0.242043
-0.255
-0.23809
-0.246285
-0.242844
-0.244789
-0.244275
-0.24484
-0.244731
-0.244808
-0.24457
-0.244264
-0.243714
-0.243002
-0.242057
-0.255335
-0.238133
-0.24608
-0.2428
-0.244626
-0.244191
-0.244735
-0.244659
-0.244741
-0.244524
-0.244229
-0.243695
-0.242994
-0.242062
-0.255546
-0.23823
-0.245843
-0.242743
-0.244441
-0.244088
-0.244612
-0.244569
-0.244658
-0.244463
-0.244181
-0.243665
-0.242977
-0.242057
-0.255585
-0.238383
-0.245578
-0.24267
-0.244235
-0.243965
-0.244472
-0.244462
-0.24456
-0.244387
-0.24412
-0.243621
-0.242948
-0.242043
-0.255389
-0.238587
-0.245287
-0.242581
-0.244006
-0.24382
-0.244313
-0.244337
-0.244444
-0.244295
-0.244043
-0.243564
-0.242907
-0.242018
-0.254878
-0.238828
-0.244973
-0.242473
-0.243753
-0.243652
-0.244133
-0.244192
-0.24431
-0.244186
-0.243951
-0.243493
-0.242852
-0.241981
-0.25395
-0.239078
-0.24464
-0.242344
-0.243475
-0.243458
-0.243932
-0.244026
-0.244157
-0.244059
-0.243843
-0.243406
-0.242784
-0.241932
-0.252532
-0.239332
-0.244308
-0.242204
-0.243181
-0.243246
-0.243716
-0.243845
-0.24399
-0.243918
-0.243721
-0.243307
-0.242704
-0.241872
-0.250584
-0.239586
-0.243995
-0.242068
-0.242881
-0.24302
-0.243488
-0.24365
-0.24381
-0.243763
-0.243586
-0.243196
-0.242614
-0.241803
-0.247577
-0.239608
-0.243598
-0.241869
-0.242501
-0.242716
-0.243191
-0.243393
-0.243573
-0.243559
-0.243408
-0.243047
-0.242492
-0.241708
-0.241886
-0.238804
-0.242932
-0.241448
-0.241919
-0.242243
-0.242751
-0.243012
-0.243228
-0.243258
-0.243144
-0.24282
-0.242297
-0.241545
-0.24057
-0.226645
-0.236427
-0.242042
-0.240977
-0.241176
-0.241678
-0.242232
-0.242573
-0.242827
-0.24291
-0.24283
-0.242542
-0.242046
-0.241318
-0.24036
-0.220047
-0.234283
-0.240949
-0.239714
-0.239527
-0.240191
-0.24086
-0.241294
-0.241604
-0.24175
-0.241722
-0.241482
-0.241024
-0.240334
-0.23941
-0.218216
-0.231745
-0.238833
-0.237753
-0.237378
-0.238183
-0.239016
-0.239569
-0.239965
-0.240196
-0.240242
-0.24007
-0.239672
-0.239038
-0.238167
-0.217808
-0.228512
-0.235434
-0.234968
-0.234651
-0.235592
-0.236624
-0.237343
-0.237863
-0.238211
-0.238363
-0.238287
-0.237977
-0.237424
-0.23663
-0.217017
-0.224735
-0.230932
-0.231282
-0.231268
-0.23236
-0.233606
-0.234532
-0.235216
-0.235713
-0.236002
-0.236053
-0.235858
-0.235414
-0.234723
-0.215052
-0.220439
-0.225594
-0.226734
-0.227215
-0.228498
-0.229954
-0.231109
-0.23199
-0.232662
-0.233115
-0.23332
-0.233269
-0.23296
-0.232398
-0.211681
-0.215604
-0.219703
-0.221481
-0.222559
-0.224081
-0.225734
-0.227119
-0.228213
-0.229078
-0.229712
-0.230089
-0.230202
-0.230049
-0.229638
-0.207054
-0.210266
-0.213511
-0.215744
-0.217421
-0.21922
-0.221057
-0.222654
-0.223962
-0.225023
-0.225842
-0.2264
-0.226687
-0.226704
-0.226457
-0.201494
-0.204515
-0.2072
-0.209737
-0.211942
-0.214036
-0.216047
-0.217833
-0.21934
-0.220589
-0.221589
-0.222324
-0.222786
-0.222976
-0.2229
-0.195336
-0.198471
-0.200881
-0.203621
-0.206254
-0.208637
-0.210819
-0.212769
-0.214456
-0.215881
-0.217049
-0.217951
-0.21858
-0.218937
-0.219029
-0.18885
-0.192254
-0.194612
-0.197502
-0.200463
-0.203112
-0.205463
-0.207562
-0.209407
-0.210991
-0.212314
-0.213369
-0.214154
-0.214668
-0.214918
-0.182239
-0.185966
-0.18842
-0.191442
-0.194648
-0.197532
-0.200049
-0.202285
-0.204271
-0.205998
-0.207461
-0.208656
-0.209583
-0.210242
-0.21064
-0.175644
-0.179686
-0.182323
-0.185472
-0.188864
-0.191949
-0.194624
-0.196991
-0.199102
-0.200959
-0.20255
-0.203874
-0.204929
-0.205721
-0.206255
-0.169153
-0.173475
-0.176332
-0.179609
-0.183145
-0.186398
-0.189223
-0.191713
-0.193941
-0.195914
-0.197623
-0.199064
-0.200239
-0.201153
-0.201811
-0.162821
-0.167376
-0.170457
-0.173862
-0.177514
-0.180906
-0.183867
-0.186474
-0.18881
-0.190891
-0.192709
-0.194258
-0.195543
-0.196569
-0.197343
-0.156682
-0.16142
-0.164709
-0.168237
-0.171984
-0.175491
-0.178573
-0.18129
-0.183726
-0.185906
-0.187824
-0.189475
-0.190862
-0.191993
-0.192873
-0.150752
-0.155628
-0.1591
-0.162738
-0.166565
-0.170167
-0.173354
-0.176171
-0.1787
-0.180971
-0.182982
-0.184727
-0.18621
-0.187438
-0.188418
-0.145042
-0.150014
-0.153639
-0.157373
-0.161265
-0.164943
-0.16822
-0.171127
-0.17374
-0.176095
-0.17819
-0.180023
-0.181595
-0.182914
-0.183987
-0.139555
-0.144586
-0.148334
-0.152146
-0.15609
-0.159826
-0.163178
-0.166164
-0.168854
-0.171283
-0.173457
-0.175369
-0.177024
-0.178428
-0.179588
-0.134293
-0.139351
-0.143192
-0.147064
-0.151044
-0.154825
-0.158237
-0.161289
-0.164046
-0.166543
-0.168786
-0.170772
-0.172503
-0.173985
-0.175225
-0.129255
-0.134312
-0.138219
-0.142132
-0.146134
-0.149945
-0.153402
-0.156508
-0.159322
-0.161878
-0.164183
-0.166235
-0.168035
-0.169589
-0.170904
-0.124438
-0.129469
-0.133417
-0.137353
-0.141362
-0.145189
-0.148678
-0.151828
-0.154689
-0.157295
-0.159654
-0.161764
-0.163626
-0.165246
-0.166629
-0.119838
-0.124823
-0.128789
-0.13273
-0.136733
-0.140563
-0.144072
-0.147252
-0.15015
-0.152797
-0.155202
-0.157362
-0.15928
-0.160959
-0.162404
-0.115451
-0.120371
-0.124336
-0.128266
-0.132249
-0.13607
-0.139585
-0.142785
-0.145709
-0.148389
-0.150831
-0.153035
-0.155001
-0.156732
-0.158234
-0.11127
-0.11611
-0.120055
-0.12396
-0.127912
-0.131712
-0.135222
-0.138431
-0.141372
-0.144075
-0.146547
-0.148786
-0.150793
-0.15257
-0.154121
-0.10729
-0.112037
-0.115947
-0.119813
-0.123723
-0.12749
-0.130986
-0.134192
-0.137141
-0.139859
-0.142352
-0.144619
-0.14666
-0.148476
-0.150071
-0.103503
-0.108146
-0.112008
-0.115824
-0.119681
-0.123406
-0.126876
-0.130072
-0.13302
-0.135744
-0.13825
-0.140538
-0.142606
-0.144454
-0.146087
-0.0999019
-0.104433
-0.108234
-0.111991
-0.115786
-0.119461
-0.122896
-0.126071
-0.129009
-0.131732
-0.134244
-0.136546
-0.138633
-0.140508
-0.142172
-0.0964798
-0.100891
-0.104623
-0.108311
-0.112037
-0.115653
-0.119046
-0.122192
-0.125112
-0.127825
-0.130337
-0.132645
-0.134746
-0.136641
-0.138331
-0.093229
-0.0975159
-0.10117
-0.104782
-0.108431
-0.111982
-0.115325
-0.118435
-0.121329
-0.124026
-0.12653
-0.128838
-0.130946
-0.132855
-0.134565
-0.0901419
-0.0943006
-0.0978699
-0.1014
-0.104968
-0.108446
-0.111732
-0.114799
-0.117662
-0.120336
-0.122825
-0.125127
-0.127237
-0.129154
-0.130878
-0.0872112
-0.0912392
-0.0947186
-0.0981618
-0.101643
-0.105044
-0.108268
-0.111286
-0.11411
-0.116756
-0.119224
-0.121514
-0.123619