/*--------------------------------*- C++ -*----------------------------------*\
  =========                 |
  \\      /  F ield         | OpenFOAM: The Open Source CFD Toolbox
   \\    /   O peration     | Website:  https://openfoam.org
    \\  /    A nd           | Version:  7
     \\/     M anipulation  |
\*---------------------------------------------------------------------------*/
FoamFile
{
    version     2.0;
    format      ascii;
    class       surfaceScalarField;
    location    "40";
    object      phi;
}
// * * * * * * * * * * * * * * * * * * * * * * * * * * * * * * * * * * * * * //

dimensions      [0 3 -1 0 0 0 0];

internalField   nonuniform List<scalar> 
13997
(
-8.97749e-06
3.57938e-06
-4.89414e-07
-1.26224e-05
4.19667e-06
-5.51789e-07
-1.67778e-05
4.75561e-06
-6.00222e-07
-2.14011e-05
5.25935e-06
-6.3605e-07
-2.64521e-05
5.71171e-06
-6.60666e-07
-3.18938e-05
6.11713e-06
-6.7545e-07
-3.76927e-05
6.48067e-06
-6.81718e-07
-4.382e-05
6.80798e-06
-6.80673e-07
-5.0252e-05
7.10529e-06
-6.7336e-07
-5.69707e-05
7.37934e-06
-6.60625e-07
-6.3965e-05
7.63734e-06
-6.4308e-07
-7.12307e-05
7.88686e-06
-6.21082e-07
-7.87717e-05
8.13572e-06
-5.94714e-07
-8.65997e-05
8.39176e-06
-5.63773e-07
-9.47346e-05
8.66259e-06
-5.27766e-07
-0.000103204
8.95523e-06
-4.85907e-07
-0.000112042
9.27567e-06
-4.37116e-07
-0.000121291
9.62842e-06
-3.80013e-07
-0.000130994
1.0016e-05
-3.12909e-07
-0.000141197
1.04373e-05
-2.33826e-07
1.08918e-05
-1.40296e-07
-0.000151949
-8.96111e-06
6.66373e-06
-1.25993e-05
7.83485e-06
-1.67469e-05
8.9032e-06
-2.13612e-05
9.87371e-06
-2.64021e-05
1.07526e-05
-3.18323e-05
1.15473e-05
-3.76183e-05
1.22667e-05
-4.37311e-05
1.29207e-05
-5.01467e-05
1.35209e-05
-5.6847e-05
1.40797e-05
-6.38207e-05
1.4611e-05
-7.10634e-05
1.51296e-05
-7.85787e-05
1.5651e-05
-8.63782e-05
1.61912e-05
-9.44815e-05
1.6766e-05
-0.000102916
1.73902e-05
-0.000111718
1.80769e-05
-0.000120926
1.88368e-05
-0.000130587
1.96765e-05
-0.000140745
2.05959e-05
2.15966e-05
-0.00015145
-8.92958e-06
9.73723e-06
-1.25548e-05
1.146e-05
-1.66871e-05
1.30356e-05
-2.1284e-05
1.44706e-05
-2.63049e-05
1.57735e-05
-3.17124e-05
1.69549e-05
-3.74728e-05
1.80271e-05
-4.35567e-05
1.90046e-05
-4.99396e-05
1.99038e-05
-5.66033e-05
2.07433e-05
-6.35357e-05
2.15434e-05
-7.07322e-05
2.23261e-05
-7.81958e-05
2.31146e-05
-8.59378e-05
2.39332e-05
-9.39777e-05
2.48058e-05
-0.000102343
2.57554e-05
-0.000111068
2.68024e-05
-0.000120195
2.79635e-05
-0.000129769
2.925e-05
-0.000139836
3.06628e-05
3.22052e-05
-0.000150444
-8.88311e-06
1.27947e-05
-1.2489e-05
1.5066e-05
-1.65989e-05
1.71454e-05
-2.11697e-05
1.90414e-05
-2.61609e-05
2.07647e-05
-3.15347e-05
2.23287e-05
-3.72569e-05
2.37492e-05
-4.32976e-05
2.50452e-05
-4.96318e-05
2.62381e-05
-5.62406e-05
2.73521e-05
-6.31112e-05
2.8414e-05
-7.02383e-05
2.94532e-05
-7.76244e-05
3.05007e-05
-8.528e-05
3.15889e-05
-9.32243e-05
3.27501e-05
-0.000101485
3.40157e-05
-0.000110096
3.54137e-05
-0.0001191
3.69672e-05
-0.000128542
3.86922e-05
-0.00013847
4.05907e-05
4.2668e-05
-0.000148932
-8.82197e-06
1.58311e-05
-1.24025e-05
1.86465e-05
-1.64826e-05
2.12255e-05
-2.10191e-05
2.35779e-05
-2.5971e-05
2.57166e-05
-3.13001e-05
2.76577e-05
-3.69716e-05
2.94208e-05
-4.2955e-05
3.10286e-05
-4.92246e-05
3.25077e-05
-5.57604e-05
3.38879e-05
-6.25489e-05
3.52025e-05
-6.95837e-05
3.6488e-05
-7.68664e-05
3.77834e-05
-8.44069e-05
3.91293e-05
-9.22237e-05
4.05669e-05
-0.000100344
4.21358e-05
-0.000108802
4.38722e-05
-0.000117641
4.5806e-05
-0.000126907
4.79583e-05
-0.000136649
5.03324e-05
5.29354e-05
-0.000146916
-8.74656e-06
1.88414e-05
-1.22957e-05
2.21957e-05
-1.6339e-05
2.52687e-05
-2.08329e-05
2.80718e-05
-2.5736e-05
3.06198e-05
-3.10097e-05
3.29314e-05
-3.66184e-05
3.50295e-05
-4.25306e-05
3.69409e-05
-4.87198e-05
3.86969e-05
-5.51649e-05
4.03329e-05
-6.18511e-05
4.18887e-05
-6.87709e-05
4.34078e-05
-7.59247e-05
4.49372e-05
-8.33213e-05
4.6526e-05
-9.09786e-05
4.82242e-05
-9.89232e-05
5.00804e-05
-0.00010719
5.21393e-05
-0.000115822
5.44381e-05
-0.000124868
5.70034e-05
-0.000134375
5.98404e-05
6.29577e-05
-0.000144398
-8.65734e-06
2.18207e-05
-1.21693e-05
2.57076e-05
-1.61688e-05
2.92682e-05
-2.06121e-05
3.25151e-05
-2.54573e-05
3.5465e-05
-3.0665e-05
3.81391e-05
-3.61988e-05
4.05633e-05
-4.20263e-05
4.27684e-05
-4.81197e-05
4.47902e-05
-5.44564e-05
4.66697e-05
-6.10205e-05
4.84528e-05
-6.78028e-05
5.01902e-05
-7.48023e-05
5.19367e-05
-8.20267e-05
5.37503e-05
-8.94926e-05
5.56901e-05
-9.72264e-05
5.78143e-05
-0.000105263
6.01762e-05
-0.000113647
6.28213e-05
-0.000122426
6.57825e-05
-0.000131652
6.90668e-05
7.26848e-05
-0.000141379
-8.55488e-06
2.47646e-05
-1.20239e-05
2.91767e-05
-1.5973e-05
3.32173e-05
-2.0358e-05
3.69001e-05
-2.51363e-05
4.02433e-05
-3.02677e-05
4.32705e-05
-3.5715e-05
4.60105e-05
-4.14444e-05
4.84978e-05
-4.74268e-05
5.07726e-05
-5.36381e-05
5.2881e-05
-6.00605e-05
5.48752e-05
-6.66832e-05
5.68128e-05
-7.35034e-05
5.87569e-05
-8.05271e-05
6.0774e-05
-8.77701e-05
6.29331e-05
-9.52578e-05
6.5302e-05
-0.000103026
6.7944e-05
-0.000111118
7.09133e-05
-0.000119585
7.42499e-05
-0.000128482
7.79635e-05
8.20665e-05
-0.000137863
-8.43978e-06
2.76684e-05
-1.18605e-05
3.25975e-05
-1.57528e-05
3.71096e-05
-2.00718e-05
4.12191e-05
-2.47745e-05
4.4946e-05
-2.98198e-05
4.83158e-05
-3.51691e-05
5.13599e-05
-4.07876e-05
5.41162e-05
-4.66442e-05
5.66292e-05
-5.27132e-05
5.89501e-05
-5.89749e-05
6.11368e-05
-6.54161e-05
6.32541e-05
-7.20323e-05
6.5373e-05
-7.88275e-05
6.75692e-05
-8.58159e-05
6.99215e-05
-9.30222e-05
7.25083e-05
-0.000100482
7.54036e-05
-0.00010824
7.86714e-05
-0.00011635
8.23596e-05
-0.000124868
8.64817e-05
9.10522e-05
-0.000133853
-8.31273e-06
3.0528e-05
-1.168e-05
3.59647e-05
-1.55092e-05
4.09387e-05
-1.97551e-05
4.54651e-05
-2.43739e-05
4.95648e-05
-2.93233e-05
5.32652e-05
-3.45637e-05
5.66003e-05
-4.00586e-05
5.96111e-05
-4.57751e-05
6.23458e-05
-5.16856e-05
6.48605e-05
-5.77677e-05
6.72189e-05
-6.40063e-05
6.94927e-05
-7.03941e-05
7.17608e-05
-7.6933e-05
7.41081e-05
-8.36354e-05
7.66239e-05
-9.05251e-05
7.9398e-05
-9.76372e-05
8.25157e-05
-0.000105018
8.60523e-05
-0.000112724
9.00651e-05
-0.000120814
9.4572e-05
9.95904e-05
-0.000129352
-8.17448e-06
3.33393e-05
-1.14833e-05
3.92735e-05
-1.52435e-05
4.46989e-05
-1.94094e-05
4.96309e-05
-2.39362e-05
5.40915e-05
-2.87805e-05
5.81096e-05
-3.39014e-05
6.17212e-05
-3.92605e-05
6.49702e-05
-4.48232e-05
6.79085e-05
-5.05591e-05
7.05965e-05
-5.64437e-05
7.31035e-05
-6.24587e-05
7.55078e-05
-6.85942e-05
7.78963e-05
-7.48495e-05
8.03635e-05
-8.12349e-05
8.30093e-05
-8.77727e-05
8.59357e-05
-9.44978e-05
8.92408e-05
-0.000101458
9.30124e-05
-0.000108712
9.73189e-05
-0.000116324
0.000102184
0.000107629
-0.000124363
-8.02579e-06
3.60986e-05
-1.12715e-05
4.25193e-05
-1.49572e-05
4.83846e-05
-1.90364e-05
5.37101e-05
-2.34634e-05
5.85186e-05
-2.81938e-05
6.284e-05
-3.3185e-05
6.67123e-05
-3.83967e-05
7.01819e-05
-4.3792e-05
7.33038e-05
-4.93382e-05
7.61426e-05
-5.50074e-05
7.87727e-05
-6.07786e-05
8.1279e-05
-6.66385e-05
8.37561e-05
-7.25833e-05
8.63083e-05
-7.86207e-05
8.90468e-05
-8.47714e-05
9.20864e-05
-9.10698e-05
9.55393e-05
-9.7565e-05
9.95076e-05
-0.000104319
0.000104073
-0.000111402
0.000109267
0.000115115
-0.000118888
-7.86746e-06
-1.10457e-05
4.56975e-05
-1.46515e-05
5.19904e-05
-1.86377e-05
5.76964e-05
-2.29577e-05
6.28386e-05
-2.75656e-05
6.7448e-05
-3.24173e-05
7.1564e-05
-3.74704e-05
7.5235e-05
-4.26855e-05
7.8519e-05
-4.8027e-05
8.14841e-05
-5.3464e-05
8.42097e-05
-5.89717e-05
8.67866e-05
-6.4533e-05
8.93175e-05
-7.01409e-05
9.19162e-05
-7.57998e-05
9.47057e-05
-8.15282e-05
9.78147e-05
-8.73599e-05
0.000101371
-9.33453e-05
0.000105493
-9.95502e-05
0.000110278
-0.000106051
0.000115768
0.000121994
-0.00011293
-1.08069e-05
4.88041e-05
-1.43278e-05
5.55113e-05
-1.82151e-05
6.15837e-05
-2.2421e-05
6.70445e-05
-2.68985e-05
7.19254e-05
-3.16012e-05
7.62668e-05
-3.6485e-05
8.01187e-05
-4.15076e-05
8.35416e-05
-4.66302e-05
8.66068e-05
-5.18184e-05
8.93979e-05
-5.70434e-05
9.20116e-05
-6.22841e-05
9.45582e-05
-6.75292e-05
9.71612e-05
-7.27793e-05
9.99558e-05
-7.80503e-05
0.000103086
-8.33751e-05
0.000106696
-8.88051e-05
0.000110923
-9.44105e-05
0.000115883
-0.000100275
0.000121632
0.00012821
-0.000106491
-1.05563e-05
5.18353e-05
-1.39876e-05
5.89425e-05
-1.77703e-05
6.53664e-05
-2.18556e-05
7.11298e-05
-2.61947e-05
7.62645e-05
-3.07397e-05
8.08117e-05
-3.54437e-05
8.48228e-05
-4.02619e-05
8.83598e-05
-4.51521e-05
9.14969e-05
-5.00757e-05
9.43215e-05
-5.49996e-05
9.69356e-05
-5.98981e-05
9.94567e-05
-6.47549e-05
0.000102018
-6.95665e-05
0.000104767
-7.43452e-05
0.000107864
-7.91225e-05
0.000111473
-8.39508e-05
0.000115751
-8.89049e-05
0.000120837
-9.40769e-05
0.000126804
0.000133704
-9.95711e-05
-1.02949e-05
5.47874e-05
-1.36321e-05
6.22798e-05
-1.73049e-05
6.90392e-05
-2.12632e-05
7.5088e-05
-2.54566e-05
8.04579e-05
-2.98353e-05
8.51904e-05
-3.43498e-05
8.93373e-05
-3.89523e-05
9.29623e-05
-4.35968e-05
9.61414e-05
-4.82406e-05
9.89653e-05
-5.28458e-05
0.000101541
-5.7381e-05
0.000103992
-6.18249e-05
0.000106462
-6.61685e-05
0.000109111
-7.04203e-05
0.000112116
-7.46092e-05
0.000115662
-7.87887e-05
0.000119931
-8.30382e-05
0.000125087
-8.74596e-05
0.000131225
0.000138416
-9.21711e-05
-1.00237e-05
5.76572e-05
-1.32627e-05
6.55188e-05
-1.68205e-05
7.2597e-05
-2.06458e-05
7.89132e-05
-2.46865e-05
8.44986e-05
-2.88906e-05
8.93945e-05
-3.32062e-05
9.36529e-05
-3.7582e-05
9.73381e-05
-4.19683e-05
0.000100528
-4.63177e-05
0.000103315
-5.05869e-05
0.00010581
-5.47388e-05
0.000108144
-5.87456e-05
0.000110469
-6.25925e-05
0.000112958
-6.62828e-05
0.000115806
-6.98423e-05
0.000119222
-7.33248e-05
0.000123413
-7.68147e-05
0.000128577
-8.04249e-05
0.000134836
0.00014228
-8.42894e-05
-9.74364e-06
6.04415e-05
-1.28805e-05
6.86557e-05
-1.63186e-05
7.6035e-05
-2.0005e-05
8.25996e-05
-2.38861e-05
8.83798e-05
-2.79078e-05
9.34162e-05
-3.20153e-05
9.77605e-05
-3.61541e-05
0.000101477
-4.02701e-05
0.000104644
-4.4311e-05
0.000107356
-4.82278e-05
0.000109727
-5.19767e-05
0.000111893
-5.5523e-05
0.000114015
-5.88448e-05
0.00011628
-6.19393e-05
0.000118901
-6.48283e-05
0.00012211
-6.75648e-05
0.00012615
-7.02384e-05
0.00013125
-7.2974e-05
0.000137571
0.00014523
-7.59233e-05
-9.45563e-06
6.31374e-05
-1.24867e-05
7.16868e-05
-1.58002e-05
7.93486e-05
-1.93423e-05
8.61417e-05
-2.30573e-05
9.20949e-05
-2.68889e-05
9.72477e-05
-3.07795e-05
0.000101651
-3.4671e-05
0.000105368
-3.85049e-05
0.000108478
-4.22238e-05
0.000111075
-4.57722e-05
0.000113275
-4.90992e-05
0.00011522
-5.21622e-05
0.000117078
-5.49313e-05
0.000119049
-5.7396e-05
0.000121366
-5.9573e-05
0.000124287
-6.15137e-05
0.000128091
-6.33124e-05
0.000133049
-6.51071e-05
0.000139366
0.000147191
-6.70686e-05
-9.1604e-06
-1.2082e-05
7.46083e-05
-1.52667e-05
8.25333e-05
-1.86589e-05
8.95339e-05
-2.22014e-05
9.56374e-05
-2.58353e-05
0.000100882
-2.95003e-05
0.000105316
-3.31345e-05
0.000109002
-3.66749e-05
0.000112018
-4.00584e-05
0.000114458
-4.32229e-05
0.00011644
-4.61097e-05
0.000118107
-4.86672e-05
0.000119635
-5.08563e-05
0.000121238
-5.26577e-05
0.000123167
-5.40811e-05
0.000125711
-5.51753e-05
0.000129185
-5.60387e-05
0.000133912
-5.68233e-05
0.000140151
0.000148087
-5.77194e-05
-1.16672e-05
7.7417e-05
-1.47186e-05
8.55846e-05
-1.79556e-05
9.27709e-05
-2.13191e-05
9.90009e-05
-2.47479e-05
0.000104311
-2.81786e-05
0.000108747
-3.15455e-05
0.000112369
-3.47811e-05
0.000115254
-3.78162e-05
0.000117493
-4.05817e-05
0.000119205
-4.30102e-05
0.000120535
-4.50405e-05
0.000121666
-4.6623e-05
0.000122821
-4.77278e-05
0.000124272
-4.8356e-05
0.000126339
-4.8552e-05
0.000129381
-4.84178e-05
0.000133778
-4.81204e-05
0.000139853
0.000147835
-4.78681e-05
-1.12429e-05
8.01093e-05
-1.41566e-05
8.84983e-05
-1.72329e-05
9.58472e-05
-2.0411e-05
0.000102179
-2.3627e-05
0.000107527
-2.68146e-05
0.000111934
-2.99042e-05
0.000115459
-3.28235e-05
0.000118173
-3.54972e-05
0.000120167
-3.78485e-05
0.000121556
-3.9801e-05
0.000122488
-4.12828e-05
0.000123147
-4.22323e-05
0.00012377
-4.26075e-05
0.000124647
-4.23987e-05
0.00012613
-4.16441e-05
0.000128626
-4.04482e-05
0.000132582
-3.89938e-05
0.000138399
0.000146348
-3.75066e-05
-1.08093e-05
8.26818e-05
-1.35808e-05
9.12697e-05
-1.6491e-05
9.87574e-05
-1.94768e-05
0.000105165
-2.24722e-05
0.000110522
-2.54076e-05
0.00011487
-2.82095e-05
0.000118261
-3.08007e-05
0.000120764
-3.30995e-05
0.000122466
-3.50214e-05
0.000123478
-3.64802e-05
0.000123947
-3.73923e-05
0.000124059
-3.76827e-05
0.00012406
-3.72954e-05
0.00012426
-3.62076e-05
0.000125042
-3.44489e-05
0.000126867
-3.21253e-05
0.000130259
-2.94374e-05
0.000135711
0.000143537
-2.66272e-05
-1.03666e-05
-1.29912e-05
9.38944e-05
-1.57294e-05
0.000101496
-1.8516e-05
0.000107951
-2.12824e-05
0.000113288
-2.39559e-05
0.000117543
-2.64592e-05
0.000120764
-2.87098e-05
0.000123015
-3.06198e-05
0.000124376
-3.20965e-05
0.000124955
-3.30434e-05
0.000124893
-3.33644e-05
0.00012438
-3.29697e-05
0.000123666
-3.1787e-05
0.000123077
-2.97776e-05
0.000123033
-2.69598e-05
0.00012405
-2.34393e-05
0.000126738
-1.94421e-05
0.000131714
0.000139327
-1.52321e-05
-1.23873e-05
9.63673e-05
-1.49473e-05
0.000104056
-1.75271e-05
0.000110531
-2.00555e-05
0.000115817
-2.24568e-05
0.000119944
-2.46495e-05
0.000122957
-2.65462e-05
0.000124911
-2.80525e-05
0.000125882
-2.90672e-05
0.000125969
-2.94833e-05
0.00012531
-2.91912e-05
0.000124088
-2.8085e-05
0.00012256
-2.60736e-05
0.000121066
-2.30995e-05
0.000120059
-1.9165e-05
0.000120115
-1.43682e-05
0.000121941
-8.96925e-06
0.000126315
0.000133837
-3.47885e-06
-1.17682e-05
9.86832e-05
-1.41433e-05
0.000106431
-1.65081e-05
0.000112896
-1.87888e-05
0.000118097
-2.09063e-05
0.000122062
-2.27754e-05
0.000124826
-2.43035e-05
0.000126439
-2.53897e-05
0.000126968
-2.59243e-05
0.000126504
-2.57893e-05
0.000125175
-2.4861e-05
0.00012316
-2.3016e-05
0.000120715
-2.01424e-05
0.000118192
-1.61596e-05
0.000116076
-1.10498e-05
0.000115005
-4.89087e-06
0.000115782
2.14866e-06
0.000119275
0.000126681
9.30474e-06
-1.11327e-05
0.000100836
-1.33155e-05
0.000108614
-1.54563e-05
0.000115037
-1.74783e-05
0.00012012
-1.92994e-05
0.000123883
-2.08303e-05
0.000126357
-2.19733e-05
0.000127582
-2.2621e-05
0.000127616
-2.26552e-05
0.000126538
-2.19469e-05
0.000124466
-2.03577e-05
0.000121571
-1.77453e-05
0.000118102
-1.3975e-05
0.000114422
-8.93979e-06
0.000111041
-2.59529e-06
0.000108661
4.98803e-06
0.000108199
1.35506e-05
0.000110713
0.00011757
2.26616e-05
-1.04791e-05
-1.24616e-05
0.000110596
-1.43682e-05
0.000116943
-1.61194e-05
0.000121871
-1.76298e-05
0.000125393
-1.88058e-05
0.000127533
-1.9545e-05
0.000128322
-1.97334e-05
0.000127804
-1.92444e-05
0.000126049
-1.79378e-05
0.00012316
-1.56602e-05
0.000119293
-1.22498e-05
0.000114692
-7.54687e-06
0.000109719
-1.41447e-06
0.000104909
6.22343e-06
0.000101023
1.53207e-05
9.91018e-05
2.56251e-05
0.000100408
0.000106551
3.66443e-05
-1.15785e-05
0.000112369
-1.32397e-05
0.000118604
-1.47064e-05
0.000123338
-1.58897e-05
0.000126577
-1.66922e-05
0.000128336
-1.70061e-05
0.000128635
-1.67112e-05
0.00012751
-1.56726e-05
0.000125011
-1.3739e-05
0.000121226
-1.07422e-05
0.000116296
-6.5001e-06
0.00011045
-8.26363e-07
0.000104045
6.44908e-06
9.76331e-05
1.54402e-05
9.20319e-05
2.61343e-05
8.84077e-05
3.82893e-05
8.82532e-05
9.34879e-05
5.13521e-05
-1.06629e-05
0.000113923
-1.20658e-05
0.000120007
-1.32326e-05
0.000124504
-1.40705e-05
0.000127414
-1.44777e-05
0.000128743
-1.43416e-05
0.000128499
-1.35356e-05
0.000126704
-1.19168e-05
0.000123392
-9.32307e-06
0.000118632
-5.57147e-06
0.000112545
-4.59758e-07
0.000105338
6.22616e-06
9.73591e-05
1.46925e-05
8.91668e-05
2.50965e-05
8.16279e-05
3.74679e-05
7.60363e-05
5.15839e-05
7.41372e-05
7.82349e-05
6.68369e-05
-9.7106e-06
0.000115245
-1.08412e-05
0.000121138
-1.16905e-05
0.000125354
-1.21619e-05
0.000127886
-1.21493e-05
0.00012873
-1.15347e-05
0.000127885
-1.01854e-05
0.000125354
-7.95062e-06
0.000121157
-4.65783e-06
0.000115339
-1.10021e-07
0.000107997
5.91494e-06
9.93131e-05
1.36591e-05
8.96149e-05
2.3367e-05
7.94589e-05
3.52444e-05
6.97505e-05
4.93727e-05
6.19081e-05
6.55611e-05
5.79487e-05
6.0637e-05
8.3159e-05
-8.71731e-06
-9.55954e-06
0.00012198
-1.00717e-05
0.000125866
-1.01529e-05
0.000127967
-9.69227e-06
0.000128269
-8.56643e-06
0.000126759
-6.63645e-06
0.000123424
-3.74386e-06
0.000118265
2.93627e-07
0.000111302
5.68637e-06
0.000102604
1.26755e-05
9.2324e-05
2.15304e-05
8.07599e-05
3.2535e-05
6.84543e-05
4.59479e-05
5.63376e-05
6.19121e-05
4.59439e-05
8.02839e-05
3.9577e-05
4.05331e-05
0.000100388
-8.21414e-06
0.000122516
-8.36713e-06
0.000126019
-8.0313e-06
0.000127631
-7.09061e-06
0.000127329
-5.41604e-06
0.000125084
-2.86221e-06
0.00012087
7.36833e-07
0.000114666
5.57262e-06
0.000106466
1.18678e-05
9.63091e-05
1.9881e-05
8.43108e-05
2.99076e-05
7.07333e-05
4.22705e-05
5.60914e-05
5.72842e-05
4.1324e-05
7.51627e-05
2.80653e-05
9.58266e-05
1.89131e-05
1.77602e-05
0.000118599
-6.79769e-06
0.000122726
-6.56683e-06
0.000125788
-5.7839e-06
0.000126848
-4.32708e-06
0.000125872
-2.06114e-06
0.000122818
1.16601e-06
0.000117643
5.52781e-06
0.000110304
1.12245e-05
0.000100769
1.84899e-05
8.90437e-05
2.7598e-05
7.52027e-05
3.88679e-05
5.94633e-05
5.26595e-05
4.22999e-05
6.93441e-05
2.46394e-05
8.92151e-05
8.19426e-06
0.000112276
-4.1476e-06
-7.84227e-06
0.000137878
-5.30247e-06
-4.66042e-06
0.000125146
-3.39688e-06
0.000125585
-1.38348e-06
0.000123859
1.52192e-06
0.000119913
5.47866e-06
0.000113687
1.06678e-05
0.000105115
1.7298e-05
9.41392e-05
2.56129e-05
8.07289e-05
3.58997e-05
6.4916e-05
4.84975e-05
4.68654e-05
6.37995e-05
2.69979e-05
8.22325e-05
6.20648e-06
0.000104175
-1.37478e-05
0.000129731
-2.97035e-05
-3.6428e-05
0.000158316
-2.63698e-06
0.000124063
-8.55771e-07
0.000123804
1.75916e-06
0.000121244
5.35777e-06
0.000116314
1.01075e-05
0.000108937
1.61974e-05
9.90247e-05
2.38445e-05
8.64922e-05
3.33009e-05
7.12724e-05
4.48646e-05
5.33523e-05
5.88905e-05
3.28395e-05
7.57991e-05
1.00893e-05
9.60678e-05
-1.40622e-05
0.000120161
-3.78414e-05
0.000148303
-5.78451e-05
-6.81381e-05
0.000180013
-4.8522e-07
0.000122505
1.85432e-06
0.000121464
5.12028e-06
0.000117978
9.47164e-06
0.000111963
1.50849e-05
0.000103324
2.21581e-05
9.19514e-05
3.09166e-05
7.77337e-05
4.16204e-05
6.05687e-05
5.45752e-05
4.03974e-05
7.01469e-05
1.72678e-05
8.87757e-05
-8.53953e-06
0.000110981
-3.62673e-05
0.00013731
-6.41707e-05
0.000168118
-8.86531e-05
-0.000103095
0.000203075
1.80644e-06
4.74856e-06
0.000118522
8.71961e-06
0.000114007
1.3889e-05
0.000106794
2.04436e-05
9.6769e-05
2.85917e-05
8.38033e-05
3.85675e-05
6.77579e-05
5.06384e-05
4.84978e-05
6.51158e-05
2.59201e-05
8.23705e-05
1.31537e-08
0.000102853
-2.90224e-05
0.000127113
-6.05267e-05
0.000155769
-9.28271e-05
0.000189315
-0.000122199
-0.000141396
0.000227616
7.84227e-06
0.000114929
1.25769e-05
0.000109272
1.8635e-05
0.000100736
2.62158e-05
8.91882e-05
3.55392e-05
7.448e-05
4.68494e-05
5.64477e-05
6.04214e-05
3.49258e-05
7.65698e-05
9.77162e-06
9.56656e-05
-1.90826e-05
0.000118159
-5.15162e-05
0.000144612
-8.69794e-05
0.000175698
-0.000123913
0.000212045
-0.000158545
-0.000183105
0.000253754
1.11508e-05
1.67116e-05
0.000103711
2.37345e-05
9.37126e-05
3.24329e-05
8.04898e-05
4.30401e-05
6.38728e-05
5.58123e-05
4.36755e-05
7.10324e-05
1.97057e-05
8.90178e-05
-8.21378e-06
0.000110134
-4.0199e-05
0.000134821
-7.62028e-05
0.000163631
-0.000115789
0.000197266
-0.000157548
0.000236469
-0.000197749
-0.000228247
0.000281611
2.1143e-05
9.72575e-05
2.92115e-05
8.56441e-05
3.91245e-05
7.05768e-05
5.11315e-05
5.18658e-05
6.55024e-05
2.93045e-05
8.25301e-05
2.67799e-06
0.000102534
-2.82177e-05
0.000125871
-6.3536e-05
0.000152958
-0.00010329
0.000184319
-0.00014715
0.000220644
-0.000193874
0.000262763
-0.000239868
-0.000276797
0.000311312
2.58897e-05
3.50888e-05
7.6445e-05
4.63187e-05
5.93468e-05
5.98474e-05
3.83372e-05
7.59616e-05
1.31903e-05
9.49661e-05
-1.63266e-05
0.000117184
-5.04357e-05
0.000142961
-8.93132e-05
0.000172683
-0.000133012
0.000206819
-0.000181286
0.000246006
-0.000233061
0.000291107
-0.000284969
-0.000328676
0.000342987
4.1388e-05
6.60268e-05
5.4041e-05
4.66938e-05
6.92181e-05
2.31601e-05
8.72256e-05
-4.81721e-06
0.000108384
-3.74848e-05
0.000133022
-7.50736e-05
0.000161475
-0.000117766
0.00019409
-0.000165627
0.000231262
-0.000218458
0.000273522
-0.000275321
0.000321696
-0.000333143
-0.000383749
0.000376769
4.81295e-05
5.42982e-05
6.23147e-05
3.25086e-05
7.92696e-05
6.20522e-06
9.93237e-05
-2.48714e-05
0.000122816
-6.09774e-05
0.000150087
-0.000102344
0.000181462
-0.000149142
0.000217252
-0.000201416
0.000257757
-0.000258964
0.000303351
-0.000320914
0.000354736
-0.000384528
-0.000441815
0.000412802
5.5332e-05
7.116e-05
1.66806e-05
9.00233e-05
-1.26581e-05
0.000112278
-4.71257e-05
0.000138285
-8.69853e-05
0.000168402
-0.00013246
0.000202953
-0.000183693
0.000242213
-0.000240676
0.000286387
-0.000303138
0.000335638
-0.000370165
0.000390451
-0.000439341
-0.000502609
0.000451245
8.05945e-05
-9.0109e-07
0.000101496
-3.35591e-05
0.000126101
-7.17308e-05
0.0001548
-0.000115684
0.00018797
-0.000165631
0.000225947
-0.00022167
0.000268983
-0.000283712
0.000317193
-0.000351347
0.000370507
-0.00042348
0.000429097
-0.000497931
-0.000565791
0.00049228
9.06329e-05
0.000113698
-5.66239e-05
0.000140798
-9.88309e-05
0.000172354
-0.000147241
0.000208774
-0.00020205
0.000250414
-0.00026331
0.000297527
-0.000330826
0.000350164
-0.000403984
0.000408036
-0.000481352
0.000470927
-0.000560823
-0.000631025
0.000536161
0.000126635
-8.19725e-05
0.000156364
-0.00012856
0.000190928
-0.000181805
0.000230769
-0.000241891
0.000276282
-0.000308824
0.000327757
-0.0003823
0.000385239
-0.000461465
0.000448281
-0.000544394
0.000516138
-0.00062868
-0.000698269
0.000583382
0.000140308
0.000172786
-0.000161038
0.000210485
-0.000219504
0.000253885
-0.000285291
0.000303437
-0.000358376
0.000359516
-0.000438379
0.000422301
-0.00052425
0.000491443
-0.000613536
0.000565248
-0.000702485
-0.000767709
0.000634688
0.00019004
0.000230971
-0.000260435
0.000278021
-0.000332341
0.000331702
-0.000412057
0.000392516
-0.000499192
0.000460975
-0.00059271
0.000537562
-0.000690123
0.000620767
-0.00078569
-0.00083682
0.000689878
0.000252321
-0.000304662
0.000303054
-0.000383074
0.000360848
-0.000469851
0.00042632
-0.000564664
0.000500304
-0.000666693
0.000584255
-0.000774074
0.000682925
-0.000884361
-0.000982552
0.000828658
0.000274457
0.000328845
-0.000437463
0.00039063
-0.000531637
0.000460455
-0.000634488
0.000539248
-0.000745487
0.000628775
-0.000863601
0.000732946
-0.000988531
-0.00111374
0.000864132
0.000355261
-0.000495426
0.000420836
-0.000597211
0.00049459
-0.000708242
0.000577296
-0.000828193
0.000670281
-0.000956586
0.000775458
-0.00109371
-0.00123645
0.000898173
0.000382173
0.000451289
-0.000666327
0.000528523
-0.000785477
0.000614364
-0.000914034
0.000709542
-0.00105176
0.000814592
-0.00119876
-0.00135303
0.000931164
0.000481832
0.000562104
-0.000865748
0.000650435
-0.00100236
0.000747001
-0.00114833
0.000851428
-0.00130319
-0.00146504
0.00096344
0.000595184
-0.000948621
0.000685439
-0.00109262
0.000782779
-0.00124567
0.000886246
-0.00140665
-0.00157346
0.000994663
0.000627598
0.000719253
-0.00118428
0.000816843
-0.00134326
0.00091905
-0.00150886
-0.00167872
0.00102432
0.000751713
0.000849068
-0.00144061
0.000949698
-0.00160949
-0.00178095
0.00105192
0.000879275
0.000977984
-0.0017082
-0.00188005
0.00107708
0.00100369
-0.00180463
-0.00197583
0.00109947
0.00102662
-0.00206807
0.00111886
0.00113508
0.0020666
0.00113468
0.00102615
0.00180321
0.00197434
0.0011184
0.000906731
0.00153594
0.00100317
0.00170677
0.00187854
0.00109897
0.000878704
0.0014393
0.000977415
0.00160806
0.00177943
0.00107653
0.000751123
0.00118311
0.00084846
0.00134196
0.000949086
0.00150744
0.0016772
0.00105132
0.000627011
0.000947628
0.000718633
0.00109149
0.000816199
0.00124439
0.000918396
0.00140524
0.00157193
0.00102366
0.000594573
0.0008648
0.00068479
0.00100127
0.0007821
0.00114708
0.00088555
0.00130179
0.00146352
0.00099396
0.000481247
0.000665568
0.00056147
0.000784578
0.000649757
0.000912984
0.000746288
0.00105055
0.000850693
0.00119738
0.00135152
0.000962691
0.000381621
0.000494848
0.000450683
0.000596507
0.000527865
0.000707396
0.000613657
0.000827191
0.000708795
0.000955416
0.000813817
0.00109236
0.00123497
0.000930371
0.000354691
0.000436941
0.000420208
0.000530989
0.000493906
0.000633698
0.000576559
0.000744538
0.000669499
0.000862476
0.000774644
0.000987217
0.00111228
0.000897336
0.000273925
0.000304308
0.000328255
0.000382611
0.000389981
0.000469263
0.000459745
0.000563934
0.000538481
0.000665803
0.000627956
0.000773001
0.000732088
0.000883085
0.00098112
0.000863247
0.000251771
0.000260137
0.000302444
0.000331937
0.000360176
0.000411531
0.000425584
0.000498526
0.000499504
0.000591882
0.000583394
0.000689111
0.000682015
0.000784465
0.000835416
0.000827718
0.000189529
0.000160887
0.000230402
0.000219264
0.000277391
0.000284948
0.000331007
0.000357915
0.000391753
0.00043778
0.000460143
0.000523492
0.000536659
0.000612595
0.000619792
0.000701332
0.000766384
0.000688824
0.000139835
8.19498e-05
0.000172257
0.000128465
0.000209896
0.000181625
0.000253233
0.000241612
0.000302719
0.000308429
0.000358726
0.000381772
0.000421437
0.000460782
0.000490501
0.000543531
0.000564222
0.000627611
0.000697024
0.000633582
0.000126146
5.66546e-05
0.000155818
9.87929e-05
0.000190321
0.000147122
0.000230097
0.000201836
0.000275541
0.000262985
0.000326943
0.000330371
0.000384346
0.000403378
0.000447305
0.000480572
0.000515073
0.000559843
0.000629864
0.000582233
9.01822e-05
1.0409e-06
0.000113192
3.36445e-05
0.000140234
7.17508e-05
0.000171729
0.000115627
0.000208082
0.000165483
0.000249651
0.000221416
0.000296689
0.000283334
0.000349245
0.000350823
0.00040703
0.000422786
0.00046983
0.000497043
0.000564716
0.000534978
8.013e-05
-1.64885e-05
0.000100975
1.2799e-05
0.000125522
4.72048e-05
0.000154158
8.6991e-05
0.000187261
0.00013238
0.000225166
0.000183511
0.000268124
0.000240375
0.000316251
0.000302696
0.000369478
0.000369559
0.000427974
0.000438546
0.000501623
0.000491068
5.49079e-05
-5.40142e-05
7.06827e-05
-3.22633e-05
8.94896e-05
-6.00798e-06
0.000111684
2.50103e-05
0.000137628
6.1047e-05
0.000167676
0.000102332
0.000202154
0.000149032
0.000241336
0.000201193
0.000285426
0.000258607
0.000334588
0.000320397
0.000389308
0.000383827
0.000440921
0.00045001
4.76948e-05
-6.56918e-05
6.18261e-05
-4.63945e-05
7.8724e-05
-2.29059e-05
9.87176e-05
5.0167e-06
0.000122146
3.76187e-05
0.000149347
7.51299e-05
0.00018065
0.00011773
0.00021636
0.000165483
0.000256782
0.000218185
0.000302285
0.000274893
0.000353577
0.000332535
0.000382949
0.000411549
3.05777e-05
-8.94299e-05
4.09443e-05
-7.60584e-05
5.3543e-05
-5.89932e-05
6.86625e-05
-3.80254e-05
8.66092e-05
-1.293e-05
0.000107703
1.65252e-05
0.000132272
5.05609e-05
0.000160651
8.93512e-05
0.000193187
0.000132946
0.000230276
0.000181096
0.000272447
0.000232722
0.000320527
0.000284455
0.000327973
0.000375503
2.54907e-05
-9.67972e-05
3.46378e-05
-8.52056e-05
4.58131e-05
-7.01685e-05
5.92841e-05
-5.14965e-05
7.53374e-05
-2.89832e-05
9.42772e-05
-2.41467e-06
0.000116426
2.84118e-05
0.00014213
6.36475e-05
0.000171774
0.000103303
0.000205827
0.000147044
0.000244925
0.000193623
0.000289932
0.000239448
0.000276192
0.000341713
2.07387e-05
-0.000103201
2.87552e-05
-9.32221e-05
3.86136e-05
-8.00269e-05
5.0563e-05
-6.34459e-05
6.48732e-05
-4.32934e-05
8.18365e-05
-1.9378e-05
0.000101772
8.47611e-06
0.000125037
4.03831e-05
0.000152046
7.62928e-05
0.000183324
0.000115766
0.000219562
0.000157386
0.000261587
0.000197423
0.000227744
0.000310036
1.07925e-05
-0.000114362
1.63038e-05
-0.000108713
2.32749e-05
-0.000100193
3.19189e-05
-8.86708e-05
4.24689e-05
-7.39959e-05
5.51809e-05
-5.60054e-05
7.03374e-05
-3.45345e-05
8.82554e-05
-9.44186e-06
0.0001093
1.93383e-05
0.000133911
5.16824e-05
0.000162639
8.70365e-05
0.000196188
0.000123838
0.000235298
0.000158313
0.000182705
0.000280337
7.48204e-06
-0.000117907
1.21674e-05
-0.000113398
1.81741e-05
-0.0001062
2.57011e-05
-9.61978e-05
3.4968e-05
-8.32628e-05
4.62189e-05
-6.72562e-05
5.97282e-05
-4.80439e-05
7.58105e-05
-2.55241e-05
9.48361e-05
3.12715e-07
0.000117255
2.92631e-05
0.000143629
6.06634e-05
0.000174629
9.28369e-05
0.000210882
0.00012206
0.000141099
0.000252488
1.4925e-06
-0.000121848
4.38799e-06
-0.000120802
8.31038e-06
-0.00011732
1.3429e-05
-0.000111318
1.99306e-05
-0.000102699
2.80232e-05
-9.13554e-05
3.79408e-05
-7.71738e-05
4.99505e-05
-6.00535e-05
6.43631e-05
-3.99368e-05
8.15494e-05
-1.68735e-05
0.00010196
8.85296e-06
0.000126141
3.64817e-05
0.000154714
6.42645e-05
0.000188167
8.86064e-05
0.000102901
0.000226365
-7.98527e-07
-0.000123361
1.49501e-06
-0.000123096
4.71309e-06
-0.000120539
9.01461e-06
-0.00011562
1.45759e-05
-0.000108261
2.15949e-05
-9.83744e-05
3.02967e-05
-8.58755e-05
4.09408e-05
-7.06977e-05
5.38329e-05
-5.28289e-05
6.93382e-05
-3.23788e-05
8.78964e-05
-9.70524e-06
0.000110026
1.43523e-05
0.000136273
3.80176e-05
0.000166989
5.78897e-05
6.80469e-05
0.000201844
-2.94829e-06
-0.000124401
-1.21223e-06
-0.000124832
1.35581e-06
-0.000123107
4.90576e-06
-0.00011917
9.60486e-06
-0.00011296
1.56421e-05
-0.000104412
2.32342e-05
-9.34676e-05
3.2633e-05
-8.00965e-05
4.4136e-05
-6.4332e-05
5.80978e-05
-4.63406e-05
7.49382e-05
-2.65456e-05
9.51335e-05
-5.84295e-06
0.000119147
1.40044e-05
0.000147199
2.98377e-05
3.64375e-05
0.000178808
-5.56796e-06
-0.000121958
-4.96841e-06
-0.000125001
-3.74898e-06
-0.000126052
-1.78124e-06
-0.000125074
1.07688e-06
-0.000122028
4.98463e-06
-0.000116868
1.01229e-05
-0.00010955
1.67001e-05
-0.000100045
2.49595e-05
-8.83559e-05
3.51881e-05
-7.45605e-05
4.77245e-05
-5.8877e-05
6.29609e-05
-4.1782e-05
8.1323e-05
-2.42051e-05
0.000103187
-7.8599e-06
0.000128656
4.36891e-06
7.94957e-06
0.000157144
-7.05967e-06
-0.000121708
-6.87026e-06
-0.00012519
-6.1302e-06
-0.000126792
-4.71763e-06
-0.000126487
-2.49735e-06
-0.000124248
6.82617e-07
-0.000120048
4.99554e-06
-0.000113863
1.06415e-05
-0.000105691
1.78538e-05
-9.55683e-05
2.69064e-05
-8.3613e-05
3.81176e-05
-7.00882e-05
5.18465e-05
-5.55109e-05
6.84633e-05
-4.08218e-05