/*--------------------------------*- C++ -*----------------------------------*\
  =========                 |
  \\      /  F ield         | OpenFOAM: The Open Source CFD Toolbox
   \\    /   O peration     | Website:  https://openfoam.org
    \\  /    A nd           | Version:  7
     \\/     M anipulation  |
\*---------------------------------------------------------------------------*/
FoamFile
{
    version     2.0;
    format      ascii;
    class       volVectorField;
    location    "40";
    object      U;
}
// * * * * * * * * * * * * * * * * * * * * * * * * * * * * * * * * * * * * * //

dimensions      [0 1 -1 0 0 0 0];

internalField   nonuniform List<vector> 
7156
(
(-0.00826782 0.00124515 8.29603e-23)
(-0.0117542 0.00139309 5.58066e-21)
(-0.0156109 0.0015051 5.74656e-21)
(-0.0197541 0.00158555 1.79977e-22)
(-0.0241095 0.00163863 3.24602e-21)
(-0.0286119 0.00166836 2.27537e-21)
(-0.0332047 0.00167856 -5.58253e-21)
(-0.0378407 0.00167281 -3.36166e-21)
(-0.0424811 0.00165445 1.60678e-21)
(-0.0470957 0.00162656 -1.53755e-21)
(-0.0516624 0.00159193 -1.79221e-21)
(-0.0561671 0.00155308 2.24005e-21)
(-0.060603 0.00151221 -2.80866e-21)
(-0.0649702 0.00147119 -4.34446e-21)
(-0.069275 0.00143152 7.91824e-21)
(-0.0735287 0.00139431 1.17114e-21)
(-0.0777465 0.00136021 2.75145e-21)
(-0.0819464 0.00132943 7.5687e-21)
(-0.0861535 0.00130159 1.91921e-22)
(-0.0903695 0.00127583 -9.35189e-22)
(-0.0945588 0.00125162 7.22149e-21)
(-0.00831812 0.00310302 -1.69504e-21)
(-0.0118069 0.0034865 8.30645e-21)
(-0.0156635 0.00378315 2.6454e-21)
(-0.0198044 0.00400282 2.9551e-21)
(-0.0241554 0.00415509 -5.26794e-21)
(-0.0286515 0.00424929 1.29506e-21)
(-0.0332363 0.00429445 1.49149e-20)
(-0.0378626 0.00429925 5.54549e-21)
(-0.0424918 0.00427195 -8.82033e-21)
(-0.0470937 0.00422044 -4.80252e-22)
(-0.0516463 0.00415209 1.07618e-20)
(-0.0561356 0.00407377 8.43979e-22)
(-0.0605548 0.00399169 7.95078e-21)
(-0.0649043 0.00391138 -8.68726e-21)
(-0.0691902 0.00383752 -7.58578e-21)
(-0.0734242 0.0037738 -1.55727e-20)
(-0.0776217 0.00372277 -1.91759e-21)
(-0.0818009 0.00368571 -1.60351e-20)
(-0.0859872 0.0036624 1.45761e-20)
(-0.0901824 0.0036511 4.79934e-21)
(-0.0943495 0.0036515 6.81811e-21)
(-0.00841473 0.00495438 4.93907e-21)
(-0.0119082 0.00557266 -1.12494e-20)
(-0.0157646 0.00605336 7.49553e-21)
(-0.019901 0.00641176 -2.27962e-21)
(-0.0242435 0.00666282 3.31392e-21)
(-0.0287272 0.00682116 2.50683e-21)
(-0.0332963 0.00690098 -3.27867e-20)
(-0.0379035 0.00691603 7.42179e-21)
(-0.0425105 0.00687952 6.92581e-21)
(-0.0470873 0.00680412 6.89008e-21)
(-0.0516119 0.00670178 1.8122e-20)
(-0.0560705 0.00658371 3.03823e-21)
(-0.0604564 0.0064602 -2.07332e-21)
(-0.0647702 0.00634044 1.90012e-20)
(-0.0690184 0.00623233 1.10135e-20)
(-0.0732129 0.00614217 3.06182e-20)
(-0.0773694 0.00607444 -7.4198e-21)
(-0.0815066 0.00603157 2.99806e-20)
(-0.0856507 0.00601348 -3.62709e-20)
(-0.0898034 0.00601757 -7.74007e-21)
(-0.0939251 0.0060438 4.7823e-21)
(-0.00855737 0.00679508 -1.81735e-20)
(-0.0120578 0.00764693 8.94418e-21)
(-0.015914 0.00831068 -2.2166e-20)
(-0.0200437 0.008807 -5.3583e-21)
(-0.0243735 0.00915617 1.22364e-20)
(-0.028839 0.00937805 -2.52952e-20)
(-0.0333845 0.00949199 3.97702e-20)
(-0.0379633 0.00951679 -5.62411e-21)
(-0.0425372 0.00947058 -7.70611e-22)
(-0.0470763 0.00937079 -2.38583e-20)
(-0.051559 0.00923397 -2.63114e-20)
(-0.0559716 0.00907569 -3.16192e-21)
(-0.0603077 0.00891034 -1.56704e-21)
(-0.0645679 0.00875081 -4.872e-20)
(-0.0687593 0.00860828 -4.37992e-20)
(-0.0728942 0.00849175 -3.07513e-21)
(-0.076989 0.00840769 1.47801e-20)
(-0.0810629 0.00835972 -1.07516e-20)
(-0.0851432 0.00834793 -1.02729e-20)
(-0.0892318 0.00836889 6.1152e-21)
(-0.0932849 0.00842291 1.30167e-20)
(-0.00874566 0.00862104 9.49692e-21)
(-0.0122553 0.00970474 -2.56809e-20)
(-0.0161113 0.0105501 2.19114e-20)
(-0.0202322 0.0111832 1.78118e-20)
(-0.0245452 0.0116295 -6.02415e-21)
(-0.0289864 0.0119141 4.02102e-20)
(-0.0335008 0.0120614 -3.87286e-20)
(-0.0380418 0.0120952 2.38828e-20)
(-0.0425717 0.0120386 -2.84169e-20)
(-0.0470607 0.0119137 4.70083e-20)
(-0.0514876 0.0117417 1.79459e-21)
(-0.0558388 0.0115425 -2.27865e-20)
(-0.0601084 0.0113347 -8.52945e-22)
(-0.0642972 0.0111349 5.28338e-20)
(-0.0684127 0.0109577 6.2699e-20)
(-0.0724679 0.0108148 -3.35341e-20)
(-0.07648 0.0107149 -4.55476e-20)
(-0.0804691 0.0106628 3.35961e-20)
(-0.084464 0.0106588 -4.1217e-21)
(-0.0884666 0.0106987 8.48824e-21)
(-0.0924276 0.0107832 9.53997e-21)
(-0.00897906 0.0104283 5.65392e-21)
(-0.0125002 0.0117416 3.97398e-20)
(-0.016356 0.0127668 -2.64377e-20)
(-0.020466 0.0135352 -4.03256e-20)
(-0.0247581 0.0140774 -1.38553e-20)
(-0.0291692 0.0144235 -1.05907e-20)
(-0.0336448 0.0146032 -2.20514e-20)
(-0.0381387 0.0146451 -2.9603e-21)
(-0.0426137 0.0145771 -5.27777e-22)
(-0.0470403 0.0144262 -1.13148e-20)
(-0.0513975 0.014218 1.14596e-20)
(-0.0556721 0.013977 -5.68832e-21)
(-0.0598583 0.0137259 4.05787e-20)
(-0.0639576 0.0134852 3.16716e-20)
(-0.0679781 0.0132729 -5.92941e-21)
(-0.0719334 0.0131037 2.65022e-20)
(-0.0758417 0.0129884 3.88163e-20)
(-0.0797243 0.0129334 1.06464e-21)
(-0.0836118 0.012939 5.22236e-20)
(-0.0875064 0.0130004 -3.42128e-20)
(-0.0913519 0.0131191 -5.11126e-20)
(-0.00925695 0.0122128 -1.50666e-21)
(-0.0127918 0.0137531 -1.58841e-20)
(-0.0166476 0.0149559 -4.53052e-21)
(-0.0207445 0.0158577 5.98665e-20)
(-0.0250118 0.0164942 3.41772e-20)
(-0.0293869 0.0169006 -3.85473e-21)
(-0.033816 0.0171114 5.94066e-20)
(-0.0382537 0.0171602 7.88096e-21)
(-0.0426629 0.0170797 1.01811e-20)
(-0.0470147 0.0169015 -6.14792e-20)
(-0.0512884 0.016656 -3.80398e-20)
(-0.055471 0.0163721 -9.31357e-21)
(-0.0595572 0.0160766 -6.47776e-20)
(-0.0635489 0.0157941 -1.78946e-20)
(-0.0674549 0.0155461 -3.63497e-20)
(-0.0712899 0.0153505 7.71344e-20)
(-0.075073 0.0152205 -2.70442e-20)
(-0.0788271 0.0151639 -1.00016e-20)
(-0.0825852 0.0151815 -6.17756e-20)
(-0.0863494 0.0152676 4.20912e-20)
(-0.0900556 0.0154249 2.15938e-20)
(-0.00957854 0.0139709 -2.64107e-20)
(-0.0131295 0.0157349 9.53929e-21)
(-0.0169851 0.0171128 1.0632e-20)
(-0.0210671 0.0181458 -5.50136e-20)
(-0.0253055 0.0188748 -1.11523e-20)
(-0.0296389 0.0193398 4.2059e-20)
(-0.0340141 0.0195802 -7.5527e-20)
(-0.0383864 0.0196344 -3.28126e-20)
(-0.0427191 0.01954 8.71413e-21)
(-0.0469837 0.0193332 6.52596e-20)
(-0.05116 0.019049 -1.25225e-20)
(-0.0552352 0.0187206 3.30686e-20)
(-0.0592046 0.0183794 6.40071e-20)
(-0.0630706 0.018054 -3.46436e-20)
(-0.0668426 0.0177696 -5.95198e-20)
(-0.0705365 0.0175475 1.25215e-21)
(-0.0741729 0.0174033 4.92897e-20)
(-0.0777761 0.0173467 1.09981e-20)
(-0.081382 0.0173789 -4.51834e-21)
(-0.0849933 0.0174937 -5.66639e-20)
(-0.0885364 0.017695 -2.19065e-20)
(-0.00994295 0.0156988 -3.56754e-20)
(-0.0135123 0.0176829 -3.88916e-20)
(-0.0173679 0.0192327 -2.42788e-20)
(-0.0214329 0.0203945 1.88471e-20)
(-0.0256386 0.0212138 8.5835e-21)
(-0.0299246 0.0217356 -4.72154e-21)
(-0.0342384 0.0220038 1.69823e-20)
(-0.0385361 0.0220619 5.83651e-20)
(-0.0427816 0.0219519 -2.1664e-20)
(-0.0469468 0.0217148 3.86772e-20)
(-0.0510118 0.0213901 2.42071e-20)
(-0.0549644 0.0210157 1.95612e-20)
(-0.0588 0.0206271 4.75922e-20)
(-0.0625219 0.0202574 -4.5087e-20)
(-0.0661403 0.0199356 9.523e-20)
(-0.0696722 0.0196865 -7.02357e-20)
(-0.0731397 0.0195288 3.79451e-20)
(-0.0765693 0.019474 -4.51084e-20)
(-0.0800002 0.0195239 4.64121e-20)
(-0.0834356 0.0196718 -3.18991e-21)
(-0.086791 0.0199235 2.87475e-20)
(-0.0103492 0.017393 3.15599e-20)
(-0.0139391 0.019593 4.83516e-20)
(-0.0177949 0.0213114 3.85241e-20)
(-0.021841 0.0225991 3.93381e-20)
(-0.0260102 0.0235063 7.01126e-21)
(-0.030243 0.0240826 3.96675e-20)
(-0.0344881 0.0243768 2.13255e-21)
(-0.0387022 0.0244368 -7.2479e-20)
(-0.0428498 0.0243093 1.63231e-20)
(-0.0469034 0.02404 -5.43508e-20)
(-0.0508434 0.0236728 1.18349e-20)
(-0.0546579 0.0232503 -4.62983e-20)
(-0.0583429 0.0228125 -7.54412e-20)
(-0.0619021 0.0223967 -4.86988e-20)
(-0.0653469 0.0220363 -3.29524e-20)
(-0.0686954 0.0217598 -3.08793e-20)
(-0.0719717 0.021589 -3.93523e-20)
(-0.0752045 0.0215378 -5.82986e-21)
(-0.0784367 0.0216089 -1.355e-21)
(-0.0816728 0.0217951 4.21831e-20)
(-0.0848158 0.0221048 1.1091e-20)
(-0.0107961 0.0190502 -1.27217e-20)
(-0.0144089 0.0214614 6.93585e-20)
(-0.0182649 0.0233446 -5.25804e-20)
(-0.0222902 0.024755 -4.42654e-20)
(-0.0264191 0.0257473 6.01132e-21)
(-0.0305932 0.0263757 -4.7873e-20)
(-0.0347623 0.0266936 3.63511e-20)
(-0.0388838 0.0267534 -1.97187e-20)
(-0.042923 0.0266063 -4.68717e-20)
(-0.0468528 0.0263025 2.80829e-20)
(-0.0506539 0.0258907 -3.97489e-20)
(-0.0543149 0.0254177 -6.89496e-20)
(-0.0578322 0.0249284 9.29012e-20)
(-0.0612102 0.0244645 1.19089e-19)
(-0.0644611 0.0240638 -2.30272e-20)
(-0.0676046 0.023759 5.72927e-20)
(-0.0706668 0.0235755 2.73167e-20)
(-0.0736788 0.02353 -2.3058e-20)
(-0.0766883 0.0236261 -3.58511e-20)
(-0.079701 0.0238566 -6.50652e-20)
(-0.0826063 0.0242329 -1.96662e-20)
(-0.0112825 0.020667 1.83085e-20)
(-0.0149204 0.0232845 -4.84174e-20)
(-0.0187767 0.0253282 7.88338e-20)
(-0.0227794 0.0268576 -8.13674e-21)
(-0.0268641 0.027932 2.28061e-20)
(-0.030974 0.0286099 2.37713e-20)
(-0.0350599 0.0289491 2.32111e-20)
(-0.0390799 0.0290063 8.7e-20)
(-0.0430001 0.0288372 9.84705e-21)
(-0.0467939 0.0284966 6.06391e-20)
(-0.0504423 0.0280374 4.66843e-20)
(-0.0539344 0.0275114 1.30114e-19)
(-0.0572669 0.0269678 -5.44778e-20)
(-0.0604448 0.0264533 1.50043e-20)
(-0.0634813 0.0260104 -2.47972e-20)
(-0.0663977 0.0256762 -1.11758e-19)
(-0.0692223 0.0254802 6.21531e-20)
(-0.0719891 0.0254422 7.86571e-20)
(-0.0747509 0.0255674 6.33548e-21)
(-0.0775155 0.0258488 6.53791e-20)
(-0.0801571 0.0263019 2.94375e-20)
(-0.0118071 0.0222405 -3.24986e-20)
(-0.0154721 0.0250587 -5.5405e-20)
(-0.0193288 0.0272582 -1.47374e-21)
(-0.023307 0.0289029 1.77946e-20)
(-0.0273439 0.0300561 -5.42767e-20)
(-0.0313841 0.0307805 6.75236e-20)
(-0.0353794 0.0311382 -1.40235e-20)
(-0.0392892 0.0311902 1.10037e-20)
(-0.0430799 0.0309966 7.91943e-20)
(-0.0467255 0.0306163 -2.36138e-21)
(-0.0502075 0.0301069 7.82156e-21)
(-0.0535151 0.0295248 -4.06909e-20)
(-0.0566455 0.0289239 -9.05023e-20)
(-0.0596043 0.0283559 -8.91184e-20)
(-0.0624055 0.0278684 6.04429e-20)
(-0.0650723 0.0275032 6.58619e-20)
(-0.0676351 0.0272945 -7.36884e-20)
(-0.0701314 0.027266 -6.08149e-20)
(-0.0726199 0.0274246 1.4523e-19)
(-0.0751108 0.0277643 6.85708e-21)
(-0.0774616 0.0283057 -2.85096e-21)
(-0.0160626 0.0267807 4.7061e-20)
(-0.0199197 0.0291311 -3.65861e-20)
(-0.0238715 0.0308868 -1.15167e-19)
(-0.0278569 0.0321151 8.79262e-20)
(-0.0318218 0.0328828 -1.55985e-19)
(-0.0357195 0.0332561 -4.11717e-20)
(-0.03951 0.0333001 -1.38447e-19)
(-0.0431607 0.033079 1.56922e-20)
(-0.0466461 0.0326561 -2.70545e-20)
(-0.0499478 0.0320934 1.73596e-20)
(-0.0530553 0.0314517 -6.16443e-20)
(-0.0559662 0.0307901 1.15124e-19)
(-0.0586865 0.0301652 2.35738e-20)
(-0.0612313 0.02963 -7.92519e-20)
(-0.0636253 0.0292318 5.98866e-20)
(-0.0659016 0.0290099 1.45481e-19)
(-0.0681012 0.0289925 5.07039e-20)
(-0.0702895 0.0291892 -9.66767e-20)
(-0.0724801 0.0295953 1.22664e-20)
(-0.0745125 0.0302378 4.99502e-20)
(-0.0166901 0.0284474 -2.91524e-20)
(-0.0205476 0.0309433 9.35756e-20)
(-0.024471 0.0328054 1.60116e-19)
(-0.0284011 0.0341049 -9.81005e-20)
(-0.0322853 0.0349125 1.6511e-19)
(-0.0360781 0.0352982 6.94076e-20)
(-0.0397406 0.0353312 1.4929e-19)
(-0.0432408 0.0350796 -2.84605e-20)
(-0.0465536 0.0346108 -9.78749e-20)
(-0.0496611 0.0339912 -1.00392e-19)
(-0.0525529 0.0332863 3.95982e-20)
(-0.0552268 0.03256 -3.72118e-21)
(-0.057689 0.0318743 9.21958e-20)
(-0.0599558 0.0312879 1.09394e-19)
(-0.0620533 0.030854 -1.49663e-19)
(-0.0640174 0.0306178 -2.44719e-19)
(-0.0658932 0.030613 -8.1741e-20)
(-0.0677534 0.0308523 1.08102e-19)
(-0.069616 0.0313335 -1.1129e-19)
(-0.0713005 0.0320918 -5.58436e-20)
(-0.0173528 0.030056 1.09562e-19)
(-0.0212105 0.0326915 -2.84668e-20)
(-0.0251036 0.0346552 1.8003e-20)
(-0.0289745 0.0360218 8.75304e-21)
(-0.0327724 0.0368656 -3.09466e-20)
(-0.036453 0.0372603 -6.59457e-20)
(-0.0399785 0.037279 -1.65473e-19)
(-0.0433176 0.0369936 -2.95813e-20)
(-0.0464457 0.0364754 -2.63754e-20)
(-0.0493451 0.0357952 3.66146e-20)
(-0.0520053 0.0350229 -2.64089e-20)
(-0.0544243 0.0342275 -3.64384e-20)
(-0.0566086 0.0334765 -1.22783e-19)
(-0.0585751 0.0328347 -1.71372e-19)
(-0.0603518 0.0323617 2.53049e-19)
(-0.0619773 0.0321096 9.36773e-21)
(-0.063501 0.0321182 2.64093e-21)
(-0.0650039 0.0324049 -1.14085e-19)
(-0.0665094 0.0329706 3.6262e-20)
(-0.0678155 0.0338608 8.98643e-20)
(-0.0180487 0.0316037 -1.46567e-19)
(-0.0219064 0.0343728 -1.13107e-19)
(-0.0257669 0.0364328 -1.05287e-19)
(-0.0295747 0.037862 -1.00562e-19)
(-0.0332806 0.0387381 6.71413e-20)
(-0.0368416 0.0391383 -5.73224e-20)
(-0.0402211 0.0391393 5.47347e-20)
(-0.0433884 0.0388166 -1.05549e-20)
(-0.0463194 0.0382454 5.55808e-20)
(-0.0489965 0.0375006 3.50303e-20)
(-0.0514091 0.0366565 2.21284e-20)
(-0.0535552 0.0357871 1.09218e-19)
(-0.0554413 0.0349657 8.89962e-20)
(-0.0570851 0.0342635 -3.87539e-20)
(-0.0585159 0.0337473 -2.48195e-19)
(-0.0597753 0.0334767 1.47127e-19)
(-0.0609174 0.0334992 5.67379e-20)
(-0.0620323 0.0338376 2.02584e-20)
(-0.06315 0.0344976 8.10417e-20)
(-0.064045 0.0355376 -4.42795e-21)
(-0.0187757 0.0330881 1.5511e-19)
(-0.0226328 0.0359843 8.52337e-20)
(-0.0264584 0.0381351 -6.48937e-20)
(-0.0301989 0.0396221 6.33756e-20)
(-0.0338069 0.0405264 -5.6806e-20)
(-0.0372409 0.0409285 -2.10249e-20)
(-0.0404652 0.0409081 1.22073e-19)
(-0.0434499 0.0405446 1.15854e-19)
(-0.0461712 0.0399166 7.58092e-20)
(-0.0486115 0.0391029 -7.6871e-20)
(-0.0507604 0.0381821 7.26971e-20)
(-0.0526151 0.0372335 -2.37096e-19)
(-0.0541824 0.036336 4.82163e-20)
(-0.0554802 0.0355677 -1.43551e-20)
(-0.0565392 0.0350033 9.18545e-20)
(-0.0574041 0.0347109 -1.13898e-19)
(-0.0581337 0.0347467 -8.61897e-20)
(-0.0588282 0.0351409 3.01644e-20)
(-0.059526 0.0359053 -7.01198e-20)
(-0.059975 0.0371145 -8.24992e-20)
(-0.0195314 0.034507 -9.23754e-20)
(-0.0233871 0.0375233 7.82305e-20)
(-0.0271752 0.0397592 8.33739e-20)
(-0.0308442 0.0412991 -1.16021e-20)
(-0.0343482 0.0422273 -5.96146e-20)
(-0.0376473 0.0426273 4.08225e-20)
(-0.0407069 0.0425821 -3.23917e-20)
(-0.0434978 0.042174 1.46258e-20)
(-0.0459966 0.0414853 -8.55431e-20)
(-0.0481857 0.0405982 6.71872e-20)
(-0.0500541 0.0395958 2.00352e-20)
(-0.0515988 0.0385622 9.97335e-20)
(-0.0528261 0.0375824 -1.48764e-19)
(-0.0537539 0.0367415 2.85716e-19)
(-0.0544145 0.0361228 1.23368e-19)
(-0.0548552 0.035804 4.06491e-21)
(-0.0551398 0.0358519 9.25568e-20)
(-0.0553798 0.0363052 -3.12233e-20)
(-0.0556236 0.0371841 1.55028e-19)
(-0.0555893 0.0385833 1.28667e-19)
(-0.0203134 0.0358581 1.87246e-19)
(-0.0241667 0.0389875 -2.17503e-20)
(-0.0279143 0.0413024 5.41192e-20)
(-0.0315069 0.0428901 9.6992e-20)
(-0.0349006 0.0438377 1.55337e-20)
(-0.0380566 0.0442317 8.04387e-21)
(-0.0409417 0.0441579 -6.76706e-20)
(-0.0435274 0.0437016 3.95273e-21)
(-0.0457905 0.042948 2.79693e-20)
(-0.0477133 0.0419831 -5.99175e-21)
(-0.0492842 0.0408939 1.1203e-19)
(-0.0504996 0.0397692 -9.72901e-20)
(-0.0513652 0.0387002 1.5209e-19)
(-0.0518986 0.0377796 -3.89148e-20)
(-0.0521329 0.0370995 -2.79162e-19)
(-0.0521184 0.0367487 5.06015e-22)
(-0.0519241 0.0368058 -1.42759e-19)
(-0.0516734 0.0373209 -8.2816e-20)
(-0.0514273 0.0383243 -1.43571e-19)
(-0.0508692 0.0399354 -1.44927e-19)
(-0.0249683 0.0403746 -2.6714e-20)
(-0.0286722 0.0427622 -1.18737e-20)
(-0.0321834 0.0443924 -2.40423e-20)
(-0.0354597 0.0453549 2.31237e-20)
(-0.0384642 0.0457389 2.60849e-20)
(-0.0411646 0.0456327 -3.90916e-20)
(-0.0435331 0.0451244 -1.48266e-19)
(-0.0455468 0.0443021 1.59325e-20)
(-0.0471876 0.0432549 -5.34917e-20)
(-0.0484436 0.0420734 -1.03451e-19)
(-0.0493099 0.0408515 5.00118e-20)
(-0.0497912 0.039686 -2.68101e-20)
(-0.0499047 0.0386774 -4.41775e-20)
(-0.049684 0.0379279 2.49325e-19)
(-0.0491819 0.037538 6.11969e-20)
(-0.0484727 0.0376005 4.08153e-20)
(-0.0476928 0.0381787 -9.98269e-20)
(-0.0469193 0.0393162 4.09614e-20)
(-0.0457932 0.0411616 9.05026e-20)
(-0.0257887 0.0416828 -8.11839e-20)
(-0.029445 0.0441365 -8.50145e-20)
(-0.0328691 0.0458036 -1.01328e-19)
(-0.0360208 0.0467763 1.06117e-19)
(-0.0388646 0.0471462 -4.28937e-20)
(-0.0413693 0.0470041 9.45713e-20)
(-0.0435081 0.0464403 9.32987e-20)
(-0.045258 0.0455454 1.75158e-20)
(-0.0466008 0.0444114 1.90503e-19)
(-0.0475235 0.0431324 -6.58601e-20)
(-0.0480201 0.0418066 -4.87473e-20)
(-0.0480939 0.040537 4.62108e-20)
(-0.0477611 0.0394317 -6.09535e-20)
(-0.0470553 0.0386035 -1.74757e-19)
(-0.0460316 0.0381661 9.42553e-20)
(-0.0447696 0.0382284 1.13748e-19)
(-0.0434196 0.0388699 9.67323e-20)
(-0.0420793 0.04015 -2.94522e-20)
(-0.0403369 0.0422515 -9.77983e-20)
(-0.0266241 0.0429101 -6.42646e-20)
(-0.0302284 0.0454231 6.0323e-20)
(-0.0335592 0.0471215 -4.38461e-20)
(-0.0365782 0.0480998 4.79206e-20)
(-0.0392515 0.0484516 9.9654e-20)
(-0.0415491 0.0482699 -1.10443e-19)
(-0.0434448 0.0476472 -2.7915e-19)
(-0.0449158 0.0466761 -1.7288e-19)
(-0.0459435 0.0454511 -2.21431e-19)
(-0.0465138 0.0440696 1.04025e-19)
(-0.0466191 0.0426335 2.56964e-20)
(-0.0462612 0.0412517 -7.93818e-20)
(-0.0454544 0.0400404 -7.07269e-20)
(-0.044232 0.0391232 -2.35362e-20)
(-0.0426508 0.0386284 9.70266e-20)
(-0.0407957 0.0386833 -1.09478e-19)
(-0.0388319 0.0393869 1.42828e-19)
(-0.0368844 0.0408171 3.49762e-20)
(-0.0344724 0.0431952 -2.49138e-20)
(-0.0274705 0.044055 -7.25973e-20)
(-0.0310178 0.0466203 1.35204e-19)
(-0.0342483 0.0483442 -1.09806e-20)
(-0.0371258 0.0493233 -4.79341e-20)
(-0.0396179 0.0496531 -1.75722e-19)
(-0.0416959 0.0494285 -4.8595e-20)
(-0.0433342 0.0487437 1.61191e-19)
(-0.0445102 0.0476932 1.7261e-19)
(-0.0452046 0.0463735 7.8125e-20)
(-0.0454023 0.0448845 -6.46687e-20)
(-0.0450937 0.043332 3.17778e-20)
(-0.0442784 0.04183 5.53771e-20)
(-0.0429686 0.0405029 -1.28877e-19)
(-0.0411965 0.0394854 2.06176e-20)
(-0.0390201 0.0389217 4.4111e-20)
(-0.0365289 0.0389601 -1.21182e-19)
(-0.033904 0.0397235 -2.17423e-20)
(-0.0313087 0.0413114 -2.97923e-19)
(-0.028172 0.0439959 4.64479e-20)
(-0.031808 0.0477264 -6.10546e-21)
(-0.0349304 0.0494699 -1.56711e-21)
(-0.0376566 0.0504451 -5.0721e-20)
(-0.0399558 0.0507491 4.0831e-20)
(-0.0418006 0.0504785 1.70213e-19)
(-0.0431661 0.0497289 2.14062e-20)
(-0.0440297 0.0485962 -1.25691e-19)
(-0.0443715 0.0471785 -2.18368e-19)
(-0.0441748 0.0455778 2.13785e-19)
(-0.0434283 0.043903 1.0954e-20)
(-0.0421286 0.0422732 -4.00754e-20)
(-0.0402853 0.0408201 9.47533e-21)
(-0.0379285 0.0396902 2.94364e-20)
(-0.0351165 0.0390447 1.16651e-19)
(-0.0319429 0.0390555 -2.10205e-19)
(-0.0286044 0.0398737 1.50937e-19)
(-0.025314 0.041627 1.25629e-20)
(-0.0214117 0.0446874 2.21629e-19)
(-0.0325933 0.0487399 -4.55571e-20)
(-0.0355988 0.0504971 -8.29923e-20)
(-0.0381628 0.0514636 1.35179e-19)
(-0.0402563 0.0517383 -3.1468e-20)
(-0.0418531 0.0514189 1.13005e-19)
(-0.0429288 0.0506022 1.03962e-19)
(-0.0434611 0.0493852 -1.09154e-19)
(-0.0434293 0.0478669 1.49603e-19)
(-0.0428151 0.0461511 -5.84394e-20)
(-0.0416048 0.0443491 -1.67363e-19)
(-0.0397918 0.042584 8.69961e-21)
(-0.0373825 0.040995 6.69128e-20)
(-0.0344039 0.0397401 1.05452e-20)
(-0.0309136 0.0389981 -1.6083e-19)
(-0.0270081 0.0389672 1.35451e-19)
(-0.0228971 0.0398299 1.6719e-19)
(-0.0188319 0.0417447 5.99279e-20)
(-0.0141328 0.0452536 -1.53531e-19)
(-0.0333676 0.0496594 3.1126e-20)
(-0.0362462 0.0514244 5.46593e-20)
(-0.0386359 0.0523777 -8.24351e-20)
(-0.0405094 0.0526197 -7.82475e-20)
(-0.0418417 0.0522491 -1.96513e-19)
(-0.0426092 0.0513636 1.46021e-19)
(-0.0427895 0.0500608 2.15185e-20)
(-0.0423611 0.0484405 -1.63398e-20)
(-0.0413041 0.0466071 9.26921e-21)
(-0.039602 0.0446738 1.74673e-19)
(-0.0372449 0.0427672 -2.43317e-20)
(-0.0342348 0.0410329 1.34931e-20)
(-0.030595 0.03964 -6.1063e-20)
(-0.0263811 0.0387855 -4.85126e-20)
(-0.0216921 0.0386958 5.3446e-20)
(-0.0167538 0.0395877 -4.81461e-19)
(-0.011824 0.0416686 6.3281e-20)
(-0.0062539 0.0456243 4.4096e-20)
(-0.0341242 0.0504837 -4.31048e-20)
(-0.0368645 0.0522505 6.07133e-20)
(-0.0390663 0.0531861 1.05024e-19)
(-0.040704 0.0533922 1.62133e-19)
(-0.0417536 0.0529686 3.36946e-20)
(-0.0421924 0.0520133 -1.02937e-19)
(-0.0419979 0.0506243 2.28137e-19)
(-0.0411476 0.0489014 2.11573e-20)
(-0.0396201 0.0469494 2.74728e-20)
(-0.0373958 0.0448823 -5.83092e-20)
(-0.034461 0.0428293 4.62858e-20)
(-0.0308129 0.0409412 -8.85097e-20)
(-0.0264699 0.0393978 1.1428e-19)
(-0.021484 0.0384141 -4.55889e-20)
(-0.0159555 0.0382464 1.22017e-19)
(-0.0101271 0.0391527 2.45147e-19)
(-0.00426824 0.0414061 1.55721e-19)
(0.00227284 0.0457897 -1.76182e-19)
(-0.037445 0.0529742 7.80989e-20)
(-0.0394436 0.0538878 -2.25359e-19)
(-0.0408277 0.0540554 4.54524e-20)
(-0.0415745 0.0535772 1.46765e-19)
(-0.0416618 0.052552 2.00829e-20)
(-0.0410671 0.0510774 -1.4718e-20)
(-0.0397672 0.0492528 -1.00497e-19)
(-0.0377385 0.0471827 5.85875e-21)
(-0.0349587 0.0449811 -1.88276e-21)
(-0.0314095 0.0427786 -1.60788e-19)
(-0.027083 0.0407301 -1.16561e-19)
(-0.0219916 0.0390244 -5.23665e-21)
(-0.0161824 0.0378946 2.10319e-20)
(-0.00975486 0.0376277 -3.27652e-19)
(-0.00296717 0.0385276 1.31862e-20)
(0.00388931 0.040942 -9.72657e-20)
(0.0114911 0.0457754 2.84176e-19)
(-0.0379779 0.0535946 -1.50786e-20)
(-0.0397563 0.0544821 -1.21063e-19)
(-0.0408669 0.0546086 -3.32335e-19)
(-0.0412884 0.0540752 -1.09047e-19)
(-0.0409989 0.0529806 2.12764e-19)
(-0.0399759 0.0514222 1.0389e-20)
(-0.0381952 0.0494984 1.3796e-19)
(-0.0356315 0.0473127 -1.1429e-19)
(-0.0322591 0.0449782 -3.0661e-20)
(-0.0280554 0.0426255 -1.76685e-20)
(-0.0230065 0.0404122 1.54001e-19)
(-0.017118 0.0385347 -4.0606e-20)
(-0.0104309 0.0372423 1.1221e-19)
(-0.00304123 0.0368534 5.94232e-20)
(0.00477879 0.0377214 1.65519e-19)
(0.0127091 0.0402765 -3.02169e-19)
(0.0214627 0.0455873 -9.72008e-20)
(-0.038453 0.0541107 3.78497e-20)
(-0.0399919 0.054968 2.72952e-19)
(-0.040807 0.0550515 7.1591e-20)
(-0.0408779 0.0544627 1.29767e-19)
(-0.0401834 0.0533003 -1.4522e-19)
(-0.0387006 0.0516611 -7.50812e-20)
(-0.0364047 0.0496424 2.52942e-20)
(-0.033268 0.0473457 -1.28144e-19)
(-0.029262 0.0448825 7.65676e-20)
(-0.0243593 0.0423822 1.57442e-19)
(-0.0185397 0.0400031 4.27188e-20)
(-0.0118014 0.037947 4.24546e-20)
(-0.00417768 0.0364774 2.17719e-19)
(0.0042406 0.0359435 9.2244e-20)
(0.0131698 0.0367506 -3.52112e-19)
(0.0222561 0.0394202 8.3982e-20)
(0.0322609 0.0452283 -9.11326e-20)
(-0.038859 0.0545216 -7.94301e-20)
(-0.0401369 0.055345 1.65979e-20)
(-0.0406318 0.0553838 5.58461e-22)
(-0.040324 0.0547401 -1.67086e-19)
(-0.0391929 0.0535126 5.85772e-20)
(-0.0372154 0.051797 -2.32784e-20)
(-0.0343654 0.0496893 3.84295e-20)
(-0.0306136 0.0472889 5.55389e-20)
(-0.025928 0.0447044 -8.35139e-20)
(-0.0202768 0.0420626 -1.77729e-19)
(-0.0136333 0.0395208 -5.19409e-20)
(-0.0059878 0.0372834 9.19992e-20)
(0.00263543 0.0356254 9.47114e-20)
(0.0121529 0.0349243 -1.53975e-19)
(0.022272 0.0356392 2.55919e-19)
(0.0326019 0.0383908 -1.05754e-20)
(0.0439667 0.0447066 7.18365e-20)
(-0.0401767 0.0556123 -7.4635e-20)
(-0.0403238 0.0556052 -1.72613e-19)
(-0.0396061 0.0549079 4.80816e-20)
(-0.0380032 0.0536187 -1.83856e-19)
(-0.0354917 0.0518328 -3.3165e-21)
(-0.0320445 0.0496443 -4.42056e-20)
(-0.0276302 0.0471498 1.46455e-19)
(-0.0222139 0.0444548 1.44854e-19)
(-0.015759 0.0416821 -5.75009e-20)
(-0.00823275 0.0389857 1.57001e-19)
(0.000383066 0.0365697 1.50144e-19)
(0.0100737 0.0347169 -2.21202e-19)
(0.0207653 0.0338297 -6.49865e-20)
(0.0321592 0.0344199 -9.01999e-20)
(0.043825 0.0372138 1.19287e-19)
(0.0566677 0.0440378 3.97695e-20)
(-0.0400956 0.0557695 -8.75732e-20)
(-0.0398642 0.0557157 2.71574e-19)
(-0.0387018 0.0549665 -1.10008e-19)
(-0.036588 0.0536204 1.45096e-19)
(-0.033499 0.0517715 1.47379e-19)
(-0.0294062 0.0495123 -4.03213e-20)
(-0.0242766 0.0469365 -4.43865e-20)
(-0.018072 0.0441455 -8.49598e-20)
(-0.010752 0.0412572 1.65448e-19)
(-0.00227741 0.0384201 -2.60705e-19)
(0.00737797 0.0358351 1.28188e-19)
(0.0182095 0.0337878 3.79748e-20)
(0.0301547 0.0327005 -3.1445e-20)
(0.0429126 0.0331344 5.66211e-20)
(0.0560107 0.0359249 -1.73526e-19)
(0.0704577 0.0432459 6.83677e-20)
(-0.0398766 0.0558159 -8.25982e-20)
(-0.0392328 0.0557151 -2.52474e-20)
(-0.0375871 0.0549166 1.22298e-19)
(-0.0349191 0.0535191 -6.72848e-20)
(-0.0312039 0.0516161 -9.98968e-20)
(-0.0264119 0.0492985 7.82012e-20)
(-0.0205078 0.0466569 -2.58977e-19)
(-0.0134511 0.0437885 2.15219e-19)
(-0.005197 0.040805 2.11868e-19)
(0.00429874 0.037848 2.58682e-20)
(0.0150701 0.0351115 -3.65211e-19)
(0.0271224 0.0328787 -3.40838e-19)
(0.0404058 0.0315851 4.26719e-20)
(0.0546206 0.031835 -1.72306e-19)
(0.06925 0.0345709 -5.94614e-20)
(0.0854359 0.0423656 -4.93884e-20)
(-0.038408 0.0556033 -5.56932e-20)
(-0.0362366 0.0547586 1.28918e-19)
(-0.0329662 0.0533164 1.85226e-19)
(-0.0285711 0.0513697 -9.59713e-20)
(-0.0230202 0.0490078 -1.55708e-19)
(-0.0162761 0.046319 -1.04976e-19)
(-0.00829566 0.0433955 -1.64506e-19)
(0.00096907 0.0403429 -8.64002e-20)
(0.0115671 0.0372941 1.96555e-19)
(0.0235388 0.0344327 1.90002e-19)
(0.0368987 0.0320343 2.29347e-19)
(0.0516103 0.0305388 1.96089e-19)
(0.0673782 0.030584 6.97445e-20)
(0.0836393 0.0332116 2.91749e-19)
(0.101705 0.0414445 -5.12749e-20)
(-0.037367 0.0553803 8.83497e-20)
(-0.0346229 0.0544933 -1.55471e-19)
(-0.0306973 0.0530138 -2.37734e-19)
(-0.0255631 0.051035 5.2815e-20)
(-0.0191873 0.0486452 -5.41812e-20)
(-0.0115305 0.0459302 3.48597e-19)
(-0.00254708 0.0429783 -7.45571e-20)
(0.00781349 0.0398882 8.82483e-21)
(0.0196037 0.0367829 3.30942e-19)
(0.0328691 0.0338336 1.43014e-19)
(0.0476313 0.0313019 -4.13036e-20)
(0.0638664 0.0296227 1.29845e-19)
(0.0812868 0.029454 2.75711e-19)
(0.0992792 0.0319208 -1.19088e-19)
(0.119371 0.0405449 5.74909e-21)
(-0.0360855 0.0550464 -1.67908e-20)
(-0.0327172 0.0541214 -1.32897e-19)
(-0.0280784 0.052613 1.241e-19)
(-0.02214 0.050615 -5.64049e-20)
(-0.0148669 0.0482153 5.11603e-20)
(-0.00621728 0.045498 2.15478e-20)
(0.00385648 0.0425477 8.50544e-20)
(0.015407 0.039457 8.95509e-20)
(0.0284889 0.0363386 -5.43223e-19)
(0.0431505 0.0333489 -9.72987e-20)
(0.059418 0.0307304 -2.82236e-19)
(0.0772781 0.0289025 -2.17193e-20)
(0.0964527 0.0285269 -2.18221e-19)
(0.116273 0.0307864 -2.02596e-19)
(0.138539 0.0397464 6.11495e-20)
(-0.0304894 0.0536437 5.3501e-20)
(-0.0250741 0.0521156 1.4063e-19)
(-0.0182604 0.0501124 -2.82695e-19)
(-0.0100107 0.0477224 1.47296e-19)
(-0.000280668 0.0450288 -1.48295e-19)
(0.0109794 0.0421138 -2.70658e-19)
(0.0238233 0.0390643 9.89413e-20)
(0.0383062 0.0359835 2.5402e-19)
(0.0544766 0.0330117 1.46172e-19)
(0.0723614 0.0303681 -5.39686e-20)
(0.091954 0.0284461 -2.23514e-19)
(0.112986 0.0278922 -3.91293e-20)
(0.134725 0.0299107 1.77733e-19)
(0.159311 0.0391477 -1.39891e-19)
(-0.0279074 0.0530615 7.31153e-20)
(-0.0216469 0.0515236 7.96637e-20)
(-0.0138809 0.0495302 1.42589e-19)
(-0.00456852 0.0471707 -2.01828e-19)
(0.00633717 0.044529 8.99625e-20)
(0.0188879 0.0416856 2.98574e-20)
(0.033138 0.0387237 -1.20907e-19)
(0.0491412 0.0357379 1.42766e-19)
(0.0669432 0.0328527 -2.8605e-19)
(0.0865667 0.030261 4.74723e-19)
(0.108006 0.0283213 -9.55762e-20)
(0.131 0.0276448 2.87602e-19)
(0.15474 0.029409 -1.35687e-19)
(0.181782 0.0388688 3.0728e-19)
(-0.0177582 0.0508392 -1.3061e-19)
(-0.00895659 0.0488714 2.7982e-19)
(0.00151129 0.0465647 -1.77604e-19)
(0.0136955 0.0440042 -1.2823e-20)
(0.0276495 0.0412713 1.94222e-19)
(0.0434277 0.0384468 1.80375e-19)
(0.0610805 0.0356189 -1.86543e-19)
(0.0806472 0.0328983 1.27248e-20)
(0.10214 0.0304509 -3.78871e-19)
(0.125547 0.0285928 2.21484e-19)
(0.150607 0.027881 -1.93454e-19)
(0.176421 0.0294079 2.29392e-19)
(0.20604 0.0390523 -1.51979e-19)
(-0.0133678 0.0500654 -1.25732e-20)
(-0.00344118 0.0481398 -1.26312e-19)
(0.00828167 0.0459087 7.64582e-20)
(0.0218543 0.0434603 3.46455e-21)
(0.0373324 0.040878 -1.73209e-19)
(0.0547691 0.0382431 -4.62733e-19)
(0.0742103 0.0356406 -1.88159e-19)
(0.0956846 0.0331702 6.13338e-20)
(0.119188 0.0309727 2.03985e-19)
(0.144689 0.029319 1.81424e-19)
(0.171922 0.0286952 -8.2184e-20)
(0.199871 0.0300422 -3.55163e-19)
(0.23216 0.0398654 -6.06771e-20)
(0.00271277 0.0473397 -7.94663e-20)
(0.0157964 0.045208 7.82662e-20)
(0.0308744 0.0429031 1.15664e-19)
(0.0480043 0.0405126 1.40351e-19)
(0.0672381 0.0381208 3.26671e-19)
(0.0886146 0.0358133 5.25493e-19)
(0.112149 0.0336839 -1.91452e-19)
(0.137813 0.0318532 -4.48829e-20)
(0.165545 0.0305483 -9.24742e-20)
(0.195054 0.0301742 3.05648e-19)
(0.22519 0.0314512 1.68961e-19)
(0.260199 0.0415019 3.01378e-19)
(0.00955361 0.0464765 2.54491e-19)
(0.0241098 0.0444685 -3.36648e-19)
(0.040816 0.042339 1.72421e-19)
(0.059732 0.0401815 -1.24428e-19)
(0.0809077 0.0380865 1.67418e-19)
(0.104374 0.0361442 -2.88743e-20)
(0.130128 0.0344487 -7.70945e-20)
(0.158112 0.0331087 -4.33933e-20)
(0.188221 0.0323153 1.59938e-19)
(0.220115 0.0323912 -1.93989e-19)
(0.252483 0.033774 -7.42948e-20)
(0.290199 0.044185 -2.8304e-19)
(0.0171304 0.0455571 2.8689e-21)
(0.0332761 0.0436976 2.2408e-19)
(0.0517388 0.0417754 -1.43138e-19)
(0.07258 0.0398918 -1.64378e-19)
(0.0958476 0.0381459 -1.28367e-19)
(0.121563 0.0366372 -1.04817e-19)
(0.149704 0.0354673 -5.87933e-20)
(0.180176 0.0347436 -4.55727e-20)
(0.212817 0.034637 -1.18609e-19)
(0.247211 0.0353982 -6.54875e-20)
(0.281868 0.0371402 2.35627e-19)