/*--------------------------------*- C++ -*----------------------------------*\
  =========                 |
  \\      /  F ield         | OpenFOAM: The Open Source CFD Toolbox
   \\    /   O peration     | Website:  https://openfoam.org
    \\  /    A nd           | Version:  7
     \\/     M anipulation  |
\*---------------------------------------------------------------------------*/
FoamFile
{
    version     2.0;
    format      ascii;
    class       volVectorField;
    location    "20";
    object      U;
}
// * * * * * * * * * * * * * * * * * * * * * * * * * * * * * * * * * * * * * //

dimensions      [0 1 -1 0 0 0 0];

internalField   nonuniform List<vector> 
4575
(
(-0.00812494 0.00118111 6.31847e-22)
(-0.0126245 0.00137136 1.10987e-21)
(-0.0177029 0.00151119 -8.09122e-21)
(-0.0231943 0.00160752 1.37509e-21)
(-0.0289589 0.00166708 -5.35771e-21)
(-0.0348797 0.00169651 -1.13984e-20)
(-0.0408622 0.00170231 9.64032e-21)
(-0.0468342 0.00169082 2.8365e-21)
(-0.052745 0.00166813 -3.36765e-21)
(-0.0585652 0.00164008 4.09309e-21)
(-0.0642851 0.0016121 5.5435e-21)
(-0.0699137 0.00158904 -3.46673e-21)
(-0.0754754 0.00157499 -4.63509e-21)
(-0.0810081 0.00157302 -1.10088e-20)
(-0.0865697 0.00158477 -8.44999e-22)
(-0.0921756 0.0016103 -1.8357e-21)
(-0.0977789 0.00165003 -3.60293e-21)
(-0.00819821 0.00353774 -1.22299e-20)
(-0.0127017 0.00410591 5.60767e-21)
(-0.0177782 0.0045226 3.37099e-20)
(-0.0232624 0.0048086 -2.05493e-20)
(-0.0290149 0.00498424 3.45595e-21)
(-0.0349191 0.00506947 1.64155e-20)
(-0.0408807 0.00508381 -6.14204e-24)
(-0.0468275 0.00504627 9.53346e-21)
(-0.0527092 0.00497518 -1.25078e-20)
(-0.0584963 0.00488801 1.29671e-20)
(-0.0641793 0.00480102 -1.10544e-20)
(-0.0697674 0.00472881 -4.25454e-21)
(-0.0752852 0.00468363 2.12112e-20)
(-0.0807714 0.00467468 -6.58942e-21)
(-0.0862845 0.00470688 1.01305e-21)
(-0.0918403 0.00478041 -1.2145e-20)
(-0.0973893 0.00489653 -1.30493e-21)
(-0.00834449 0.0058816 3.08963e-20)
(-0.012856 0.00682577 -2.4521e-20)
(-0.0179288 0.00751783 -3.7796e-20)
(-0.0233986 0.00799229 3.40591e-20)
(-0.029127 0.00828296 -9.21448e-21)
(-0.034998 0.00842302 -4.58241e-21)
(-0.0409178 0.00844494 -2.29427e-20)
(-0.0468145 0.00838035 6.20694e-21)
(-0.052638 0.00825978 2.20505e-20)
(-0.0583591 0.00811237 -4.48006e-21)
(-0.0639684 0.0079653 1.77293e-20)
(-0.0694754 0.00784299 -1.44891e-20)
(-0.0749057 0.00776606 -4.35407e-21)
(-0.0802986 0.00775003 3.37774e-20)
(-0.0857147 0.00780327 -2.07994e-21)
(-0.0911705 0.0079262 5.19297e-20)
(-0.0966109 0.00812117 -1.22845e-20)
(-0.00856316 0.0082043 -2.88197e-20)
(-0.0130867 0.00952131 1.72462e-20)
(-0.018154 0.0104862 -3.21465e-21)
(-0.0236025 0.0111471 -5.69365e-20)
(-0.0292949 0.0115511 -5.96442e-21)
(-0.0351163 0.0117444 -1.22472e-20)
(-0.0409735 0.0117723 -1.91539e-21)
(-0.0467952 0.0116789 -2.09756e-20)
(-0.0525317 0.0115071 2.35069e-20)
(-0.0581538 0.0112976 -3.44429e-20)
(-0.0636526 0.0110886 -1.04116e-21)
(-0.0690382 0.0109146 9.20977e-21)
(-0.074337 0.0108048 -7.07155e-20)
(-0.0795899 0.0107815 -5.64377e-20)
(-0.0848604 0.0108567 3.02906e-20)
(-0.0901658 0.0110314 -4.02387e-20)
(-0.0954434 0.0113094 1.00604e-21)
(-0.00885326 0.0104976 -1.43119e-21)
(-0.013393 0.012183 8.76926e-21)
(-0.0184532 0.0134174 1.32523e-21)
(-0.0238734 0.0142619 2.91402e-20)
(-0.0295181 0.0147767 3.41341e-20)
(-0.0352736 0.0150209 1.43502e-20)
(-0.0410477 0.0150525 5.02476e-20)
(-0.0467699 0.0149281 -5.7254e-20)
(-0.0523905 0.0147025 -1.19552e-20)
(-0.0578809 0.0144282 2.48971e-20)
(-0.0632326 0.0141546 -4.29009e-20)
(-0.0684562 0.0139265 1.93745e-20)
(-0.0735796 0.0137824 4.44644e-20)
(-0.0786454 0.0137514 1.0585e-20)
(-0.0837213 0.0138499 1.49901e-20)
(-0.0888261 0.0140797 -2.37686e-20)
(-0.0938863 0.0144468 2.60919e-21)
(-0.00921354 0.0127536 2.49718e-20)
(-0.0137736 0.0148018 2.16943e-20)
(-0.0188251 0.016301 9.80172e-21)
(-0.0242103 0.0173254 1.82987e-20)
(-0.0297958 0.017948 -1.27126e-20)
(-0.0354695 0.0182402 -7.76518e-20)
(-0.0411403 0.0182727 -6.87351e-20)
(-0.0467384 0.0181141 -4.41808e-20)
(-0.0522148 0.0178314 1.65658e-20)
(-0.0575409 0.0174888 -9.36065e-21)
(-0.0627088 0.0171472 7.05959e-20)
(-0.06773 0.016862 -2.51466e-20)
(-0.0726337 0.0166812 2.03164e-20)
(-0.0774652 0.0166419 2.9263e-20)
(-0.0822971 0.0167652 -1.62856e-20)
(-0.0871504 0.0170545 1.40691e-19)
(-0.0919388 0.0175187 -5.2547e-20)
(-0.00964244 0.0149647 -1.56601e-20)
(-0.014227 0.0173686 6.98996e-21)
(-0.0192685 0.0191273 1.06709e-20)
(-0.0246122 0.0203272 3.53407e-20)
(-0.0301273 0.0210536 7.74028e-21)
(-0.0357034 0.0213903 2.59061e-21)
(-0.041251 0.02142 1.23427e-19)
(-0.0467009 0.0212235 9.17812e-20)
(-0.0520046 0.0208796 -5.44333e-20)
(-0.0571342 0.0204644 -7.9433e-21)
(-0.0620818 0.0200504 -2.1213e-20)
(-0.0668601 0.019704 2.07488e-20)
(-0.0714998 0.0194836 -1.08675e-19)
(-0.0760492 0.019435 -2.24885e-20)
(-0.0805871 0.0195849 -3.34123e-20)
(-0.0851377 0.0199391 -8.00146e-20)
(-0.089599 0.0205104 4.3446e-20)
(-0.0101381 0.0171234 -2.07638e-20)
(-0.0147514 0.019875 -1.87073e-20)
(-0.0197816 0.0218867 2.94795e-20)
(-0.0250776 0.0232568 -4.94519e-20)
(-0.0305112 0.0240825 -6.69854e-21)
(-0.0359744 0.0244595 9.18519e-20)
(-0.041379 0.0244823 -5.81558e-20)
(-0.0466569 0.0242434 -2.36846e-20)
(-0.0517602 0.0238335 2.76853e-20)
(-0.056661 0.0233404 -7.22863e-21)
(-0.061352 0.0228485 -3.71336e-21)
(-0.0658467 0.0224359 3.02919e-20)
(-0.0701778 0.022172 -7.96944e-20)
(-0.0743968 0.0221125 2.75485e-20)
(-0.07859 0.0222908 -2.07121e-20)
(-0.0827858 0.0227161 -4.60584e-20)
(-0.0868643 0.0234072 1.65389e-20)
(-0.0153446 0.022313 6.76237e-20)
(-0.0203624 0.0245701 -6.96838e-20)
(-0.0256045 0.0261044 -3.39396e-20)
(-0.030946 0.0270241 -5.84781e-20)
(-0.0362811 0.0274366 -6.34049e-20)
(-0.0415234 0.0274476 -4.14127e-20)
(-0.0466059 0.0271612 -5.54639e-20)
(-0.051481 0.0266795 9.99432e-20)
(-0.0561213 0.0261024 -1.09696e-20)
(-0.0605195 0.0255261 -2.28548e-20)
(-0.0646899 0.0250412 -1.18334e-19)
(-0.0686672 0.0247289 6.57495e-20)
(-0.072507 0.0246561 1.61772e-20)
(-0.0763038 0.0248644 4.02894e-20)
(-0.0800917 0.0253681 2.70652e-20)
(-0.0837304 0.026194 -7.22412e-20)
(-0.0160043 0.0246748 6.02553e-20)
(-0.0210085 0.0271691 -4.67129e-20)
(-0.0261908 0.0288605 1.00183e-19)
(-0.0314296 0.0298684 5.57615e-21)
(-0.0366218 0.0303109 9.10296e-20)
(-0.0416828 0.0303047 -5.25908e-20)
(-0.0465467 0.0299649 8.39097e-20)
(-0.0511664 0.0294051 -8.23083e-20)
(-0.0555144 0.0287368 -7.34586e-20)
(-0.0595836 0.0280685 6.21265e-20)
(-0.063389 0.0275037 2.18341e-19)
(-0.0669672 0.0271368 -1.19443e-19)
(-0.0703777 0.0270473 9.73568e-20)
(-0.0737252 0.0272869 2.22504e-20)
(-0.077051 0.027877 -8.28318e-20)
(-0.0801915 0.0288554 6.92301e-20)
(-0.0167274 0.0269534 -4.67765e-20)
(-0.0217171 0.0296755 1.08716e-19)
(-0.0268337 0.0315165 -1.95786e-20)
(-0.0319595 0.0326059 2.43136e-21)
(-0.0369941 0.0330724 -1.25764e-19)
(-0.0418551 0.0330429 7.88361e-20)
(-0.0464775 0.0326433 1.80075e-20)
(-0.0508147 0.0319981 -2.34986e-20)
(-0.054839 0.0312304 2.92538e-20)
(-0.0585432 0.0304613 -1.14674e-19)
(-0.0619425 0.0298077 -6.33739e-20)
(-0.0650756 0.0293784 1.32375e-19)
(-0.0680061 0.0292676 -7.33682e-20)
(-0.0708498 0.029539 -1.03976e-19)
(-0.0736574 0.0302239 1.91388e-19)
(-0.0762391 0.0313754 -2.63086e-22)
(-0.0175109 0.0291422 -3.04474e-20)
(-0.0224849 0.0320818 -3.53532e-20)
(-0.0275301 0.0340639 -1.48063e-19)
(-0.0325325 0.0352277 1.80634e-20)
(-0.0373951 0.0357115 -6.18002e-20)
(-0.0420374 0.0356523 2.14635e-19)
(-0.0463956 0.0351858 -1.23692e-19)
(-0.0504235 0.0344473 7.53305e-20)
(-0.0540928 0.0335712 -2.2852e-20)
(-0.0573958 0.0326912 1.2468e-19)
(-0.0603479 0.0319383 1.01643e-20)
(-0.0629891 0.0314371 -1.05231e-19)
(-0.0653877 0.0312985 -1.87303e-20)
(-0.0676714 0.0316012 4.53848e-21)
(-0.0699028 0.0323896 -7.87949e-21)
(-0.071862 0.0337373 1.29228e-19)
(-0.0183512 0.0312352 -7.26337e-21)
(-0.0233082 0.0343812 -5.90952e-20)
(-0.0282759 0.0364952 1.30352e-19)
(-0.0331448 0.0377257 -1.4527e-20)
(-0.0378208 0.0382197 1.55778e-19)
(-0.0422258 0.0381237 -1.71838e-19)
(-0.0462972 0.0375829 4.49369e-20)
(-0.0499889 0.0367424 5.27574e-20)
(-0.053272 0.0357479 -1.58451e-21)
(-0.0561376 0.0347456 -8.71944e-22)
(-0.0586008 0.0338814 -9.79413e-20)
(-0.0607027 0.0332968 1.31899e-20)
(-0.0625159 0.0331219 1.29005e-19)
(-0.0641814 0.0334537 1.64636e-19)
(-0.0657763 0.0343539 -1.93845e-19)
(-0.0670457 0.0359232 -1.24125e-19)
(-0.0192443 0.033227 1.12226e-19)
(-0.0241826 0.0365672 1.13405e-19)
(-0.0290668 0.0388034 -4.39617e-20)
(-0.0337915 0.0400921 1.90589e-19)
(-0.0382663 0.040589 -1.914e-19)
(-0.0424153 0.0404488 8.41279e-20)
(-0.0461771 0.0398258 8.4914e-20)
(-0.0495056 0.0388743 -6.55825e-21)
(-0.052371 0.0377506 1.06027e-21)
(-0.0547629 0.0366136 1.0858e-20)
(-0.056695 0.0356242 -7.66641e-20)
(-0.0582092 0.0349426 7.53308e-20)
(-0.0593819 0.0347203 -3.84885e-20)
(-0.0603684 0.035077 -8.57036e-20)
(-0.061264 0.0360963 1.09863e-19)
(-0.0617711 0.0379145 2.29274e-20)
(-0.0201858 0.0351127 -7.48542e-20)
(-0.0251032 0.0386343 -7.7721e-20)
(-0.0298972 0.0409821 1.25374e-19)
(-0.0344668 0.0423203 -6.30498e-20)
(-0.0387253 0.0428122 4.98534e-20)
(-0.0425992 0.0426204 5.41773e-21)
(-0.0460284 0.041907 -1.33162e-20)
(-0.0489664 0.0408351 3.29317e-20)
(-0.0513822 0.039571 -6.36872e-20)
(-0.0532633 0.0382857 3.30534e-20)
(-0.0546214 0.0371556 1.05638e-19)
(-0.0554984 0.0363608 -1.53004e-19)
(-0.0559736 0.0360775 -9.70275e-20)
(-0.0562175 0.0364519 1.26442e-19)
(-0.0563483 0.0375959 -7.35069e-20)
(-0.0560148 0.0396912 -1.13631e-19)
(-0.0211708 0.0368878 -1.82863e-20)
(-0.0260645 0.0405772 -6.65608e-20)
(-0.0307609 0.0430256 -1.23295e-19)
(-0.0351638 0.044404 -9.29264e-20)
(-0.0391902 0.044883 -1.85265e-19)
(-0.0427692 0.044632 1.86148e-20)
(-0.0458419 0.0438201 -1.61951e-20)
(-0.0483615 0.0426184 -1.27891e-19)
(-0.0502951 0.0412021 1.09735e-19)
(-0.0516275 0.0397541 1.33273e-19)
(-0.0523677 0.0384664 -6.68466e-21)
(-0.0525562 0.03754 8.0137e-20)
(-0.0522748 0.0371786 -4.01703e-20)
(-0.0517092 0.0375606 6.36212e-21)
(-0.0510071 0.0388321 1.11045e-19)
(-0.0497474 0.0412319 2.65895e-19)
(-0.0270601 0.0423914 9.0445e-20)
(-0.0316507 0.0449287 -3.27218e-20)
(-0.0358743 0.046338 -9.37867e-20)
(-0.0396518 0.046796 1.50849e-19)
(-0.0429151 0.0464782 -4.01298e-20)
(-0.0456064 0.0455601 2.89995e-20)
(-0.0476783 0.0442192 1.55859e-19)
(-0.049096 0.0426392 -2.14422e-19)
(-0.0498407 0.0410136 -5.81099e-20)
(-0.0499173 0.0395499 -1.13221e-19)
(-0.0493642 0.0384711 2.27677e-19)
(-0.0482641 0.0380117 7.04478e-21)
(-0.0468183 0.0383872 1.23185e-19)
(-0.0452131 0.0397849 -4.42305e-20)
(-0.0429319 0.042512 -2.51758e-19)
(-0.0280829 0.0440728 5.55802e-20)
(-0.0325581 0.0466869 -3.06991e-21)
(-0.0365885 0.0481174 2.42827e-19)
(-0.040099 0.0485464 9.20907e-20)
(-0.0430241 0.0481548 -1.67586e-19)
(-0.0453074 0.0471231 7.87056e-21)
(-0.046901 0.0456344 -5.67071e-21)
(-0.0477672 0.0438793 2.26948e-19)
(-0.047883 0.0420613 -2.51348e-19)
(-0.0472486 0.0404025 6.87022e-20)
(-0.0458981 0.0391486 2.50948e-21)
(-0.0439137 0.0385677 -1.72312e-19)
(-0.0415125 0.0389194 -1.77237e-19)
(-0.0389334 0.0404366 -2.12089e-20)
(-0.0355243 0.0435093 2.55487e-19)
(-0.0291248 0.0456178 -2.10332e-19)
(-0.0334735 0.0482963 -5.75051e-20)
(-0.037295 0.0497381 -1.26963e-19)
(-0.0405184 0.0501305 -5.92292e-20)
(-0.043081 0.0496584 1.04455e-19)
(-0.0449276 0.0485066 2.10841e-19)
(-0.0460095 0.0468625 -2.33905e-19)
(-0.0462863 0.0449222 -8.65815e-20)
(-0.0457297 0.0428973 3.10869e-19)
(-0.0443336 0.0410241 -1.11647e-19)
(-0.0421266 0.0395707 -1.59217e-19)
(-0.039188 0.0388421 1.99949e-19)
(-0.0357501 0.0391484 4.17383e-20)
(-0.0321265 0.0407769 3.94112e-20)
(-0.027486 0.0442499 -1.64406e-19)
(-0.0301767 0.0470233 3.70528e-20)
(-0.034386 0.0497533 2.45805e-19)
(-0.0379808 0.0511968 -1.53498e-19)
(-0.0408945 0.051545 3.66724e-20)
(-0.0430675 0.0509867 -7.22144e-20)
(-0.0444458 0.0497095 -2.88415e-19)
(-0.0449797 0.0479038 1.72795e-19)
(-0.0446256 0.0457696 1.37986e-19)
(-0.0433496 0.0435251 -2.42128e-19)
(-0.0411375 0.0414185 5.61489e-20)
(-0.0380102 0.0397403 2.21595e-19)
(-0.0340416 0.0388344 8.60671e-20)
(-0.0294754 0.0390683 2.99922e-20)
(-0.0247137 0.0408021 -1.74108e-19)
(-0.0187904 0.0448551 -8.45784e-20)
(-0.035283 0.051055 -3.3823e-20)
(-0.0386305 0.0524904 2.28632e-20)
(-0.0412091 0.0527876 1.44761e-19)
(-0.0429621 0.0521382 1.81326e-19)
(-0.0438366 0.0507318 -8.27524e-21)
(-0.0437823 0.0487605 -3.92923e-20)
(-0.0427516 0.0464261 -2.27819e-19)
(-0.0407042 0.0439513 1.69007e-19)
(-0.0376169 0.0415941 -1.48112e-20)
(-0.0335003 0.0396654 -9.90642e-20)
(-0.0284197 0.038549 -4.90982e-19)
(-0.0226222 0.0386756 1.72257e-19)
(-0.0165417 0.0405026 9.14104e-21)
(-0.00926198 0.0451893 -1.05082e-19)
(-0.0361505 0.0521986 -2.05599e-19)
(-0.0392271 0.0536163 1.27445e-19)
(-0.0414414 0.0538564 -1.4492e-20)
(-0.0427397 0.0531123 -2.86419e-19)
(-0.0430705 0.051575 5.43695e-20)
(-0.0423823 0.0494364 3.02671e-20)
(-0.0406237 0.0468988 -5.21247e-20)
(-0.0377473 0.0441864 1.36284e-19)
(-0.0337195 0.0415643 2.62722e-19)
(-0.0285383 0.0393607 -1.69327e-19)
(-0.0222571 0.0379977 1.3619e-19)
(-0.0151272 0.0379722 3.28138e-20)
(-0.0075809 0.0398554 1.86627e-19)
(0.00125581 0.0450685 8.37546e-20)
(-0.0369729 0.0531817 2.34511e-19)
(-0.039751 0.0545726 -1.68202e-19)
(-0.0415674 0.0547499 5.06953e-20)
(-0.0423715 0.0539091 2.0793e-19)
(-0.0421129 0.0522411 1.97231e-19)
(-0.0407388 0.049937 7.6018e-20)
(-0.0381941 0.047197 3.29155e-19)
(-0.0344236 0.0442446 -4.48651e-20)
(-0.0293824 0.0413478 -3.41566e-19)
(-0.0230536 0.0388483 1.66322e-19)
(-0.0154753 0.0372031 -8.78844e-20)
(-0.00690059 0.0369774 -2.027e-19)
(0.00223009 0.038878 -1.4227e-19)
(0.0128192 0.0445826 -1.43033e-19)
(-0.0377327 0.0540022 -2.99561e-19)
(-0.0401803 0.0553571 1.14652e-19)
(-0.0415603 0.0554672 -1.04455e-19)
(-0.0418247 0.0545292 -1.74564e-19)
(-0.0409242 0.0527335 6.12192e-21)
(-0.0388047 0.050269 -4.33298e-19)
(-0.035407 0.0473324 -3.32713e-19)
(-0.0306681 0.0441435 1.04074e-19)
(-0.024531 0.0409691 5.21459e-20)
(-0.0169625 0.038159 -1.10719e-19)
(-0.0079817 0.0361994 4.25103e-19)
(0.00216166 0.0357229 -6.60722e-20)
(0.0130052 0.0375829 1.78173e-19)
(0.0255315 0.0437858 1.59914e-19)
(-0.0404907 0.0559683 1.59152e-19)
(-0.0413898 0.0560075 -9.38484e-21)
(-0.0410623 0.0549734 7.29092e-20)
(-0.0394595 0.0530556 2.19206e-19)
(-0.036526 0.0504401 4.53714e-19)
(-0.0321982 0.0473183 3.60426e-20)
(-0.0264054 0.0439038 -1.96894e-19)
(-0.0190784 0.0404578 3.54187e-20)
(-0.0101666 0.0373315 3.411e-19)
(0.000332815 0.0350327 -2.29211e-19)
(0.0121788 0.034256 9.86641e-22)
(0.0248778 0.0360045 1.73376e-19)
(0.0395397 0.0427023 -1.07441e-19)
(-0.0406555 0.0564044 -4.07317e-20)
(-0.0410225 0.05637 -8.98372e-20)
(-0.0400429 0.0552428 1.45484e-19)
(-0.0376684 0.0532116 -1.6698e-19)
(-0.0338418 0.0504588 -5.32717e-20)
(-0.0284949 0.0471696 -5.88105e-21)
(-0.0215496 0.0435489 1.38198e-19)
(-0.0129245 0.0398481 -1.23718e-19)
(-0.00255188 0.0364127 -2.31423e-19)
(0.00959508 0.033762 -7.02101e-20)
(0.0232892 0.0326425 -1.00646e-19)
(0.0379977 0.0342023 -3.04343e-19)
(0.0550142 0.0413708 -9.0838e-20)
(-0.040645 0.0566641 -1.91479e-19)
(-0.0404214 0.0565542 1.09236e-19)
(-0.0387211 0.0553387 -3.23564e-19)
(-0.0354952 0.0532055 -1.6068e-19)
(-0.0306843 0.0503336 2.60377e-21)
(-0.0242159 0.0469015 1.39332e-19)
(-0.016004 0.0431036 -9.03978e-20)
(-0.00595614 0.0391778 2.28271e-19)
(0.00601158 0.0354563 -5.53469e-20)
(0.0199504 0.0324582 7.13068e-20)
(0.0356513 0.0309669 2.66497e-19)
(0.0525334 0.0322598 3.47867e-20)
(0.0721438 0.0398571 1.68829e-19)
(-0.0395463 0.0565595 -2.14172e-19)
(-0.0370469 0.0552621 6.14679e-20)
(-0.0328787 0.0530413 5.92029e-21)
(-0.0269793 0.0500731 -1.57326e-19)
(-0.0192713 0.0465294 1.15906e-19)
(-0.00966165 0.0425934 -8.99682e-20)
(0.00195245 0.0384866 -1.61938e-19)
(0.0156689 0.034521 -2.09258e-19)
(0.0315618 0.0312026 5.07844e-20)
(0.0494435 0.0293319 6.99137e-20)
(0.068672 0.0302867 -6.63623e-20)
(0.0911336 0.0382574 2.79134e-19)
(-0.0383535 0.0563854 -6.08802e-20)
(-0.0349662 0.055014 5.04258e-19)
(-0.0297526 0.0527226 3.63749e-20)
(-0.0226461 0.0496852 -5.53046e-20)
(-0.0135638 0.046068 -3.6058e-19)
(-0.002406 0.0420432 6.8905e-20)
(0.0109387 0.0378145 -1.74556e-19)
(0.0265793 0.0336682 1.14343e-19)
(0.044609 0.0300841 1.03809e-19)
(0.0648619 0.0278567 -3.91294e-19)
(0.086617 0.0284192 -1.20625e-19)
(0.112201 0.0367041 -4.172e-19)
(-0.0367959 0.0560316 2.11105e-20)
(-0.0324209 0.0545956 -1.5185e-19)
(-0.0260455 0.052253 2.18332e-19)
(-0.0175979 0.0491773 1.24724e-21)
(-0.00698895 0.0455308 2.7041e-19)
(0.00588762 0.0414762 1.81611e-19)
(0.02115 0.0371998 3.01623e-20)
(0.0389137 0.0329586 3.75347e-19)
(0.059285 0.029195 -3.37333e-19)
(0.0821173 0.0266727 1.54799e-19)
(0.106585 0.0268187 1.19817e-19)
(0.135569 0.0353696 1.03331e-19)
(-0.0293487 0.0540082 -2.51905e-19)
(-0.0216816 0.0516359 -1.92288e-19)
(-0.011743 0.0485562 9.03046e-20)
(0.000563478 0.0449301 -2.57043e-19)
(0.0153506 0.0409135 1.73446e-20)
(0.032741 0.0366776 9.80262e-20)
(0.0528515 0.0324496 7.44598e-20)
(0.0757927 0.0286263 2.27439e-19)
(0.10143 0.0259177 4.72833e-20)
(0.128801 0.0256675 -1.68303e-19)
(0.161456 0.0344695 1.80413e-19)
(-0.0256837 0.0532535 2.17711e-19)
(-0.0165808 0.0508749 -1.11506e-19)
(-0.00498503 0.0478285 3.4575e-21)
(0.00920852 0.0442768 6.18803e-20)
(0.026119 0.0403732 1.30006e-19)
(0.0458713 0.0362779 -1.56197e-20)
(0.0685771 0.0321916 -3.58704e-20)
(0.0943398 0.0284621 -1.83032e-19)
(0.123025 0.025728 -1.21458e-19)
(0.153491 0.0251614 -1.13731e-19)
(0.190064 0.0342624 1.82271e-19)
(-0.0106591 0.0499747 7.76707e-20)
(0.00277622 0.0470009 2.74763e-20)
(0.0190646 0.0435809 -1.23805e-19)
(0.0383316 0.0398706 -2.85409e-19)
(0.060702 0.0360255 1.4319e-19)
(0.086275 0.0322261 -7.08392e-20)
(0.115134 0.0287748 -1.7255e-20)
(0.147122 0.0262291 2.93702e-19)
(0.180883 0.0254994 3.04078e-19)
(0.221564 0.0350472 -4.65018e-19)
(-0.00382907 0.0489412 7.87063e-21)
(0.0116439 0.0460812 -1.89777e-19)
(0.0302521 0.0428526 2.51916e-19)
(0.0521276 0.0394192 1.6406e-19)
(0.0773921 0.0359397 -3.17272e-19)
(0.106125 0.0325843 -2.67392e-19)
(0.138374 0.0296204 6.10786e-20)
(0.173931 0.0275267 3.52109e-19)
(0.211194 0.0268729 1.60542e-19)
(0.256075 0.0371575 8.62504e-20)
(0.00399971 0.0477831 -3.6493e-19)
(0.0217234 0.0450796 -3.32416e-19)
(0.0428921 0.0421034 -3.29038e-20)
(0.0676441 0.0390316 -1.69424e-20)
(0.0960954 0.0360351 1.122e-19)
(0.128298 0.033286 7.28579e-20)
(0.164249 0.0310354 9.36055e-20)
(0.203644 0.0296961 -4.35342e-19)
(0.244643 0.0294497 -1.18965e-19)
(0.293651 0.040939 3.11085e-19)
(0.0331211 0.0440093 1.46323e-19)
(0.0571041 0.0413471 -1.35357e-19)
(0.085013 0.0387212 -1.8786e-19)
(0.116955 0.0363229 -2.38872e-20)
(0.152948 0.0343408 1.89208e-19)
(0.192926 0.0330357 -1.2504e-19)
(0.236427 0.0327728 4.72006e-20)
(0.28145 0.0333541 1.05086e-19)
(0.334286 0.0467085 2.63125e-19)
(0.0459435 0.0428883 6.70906e-20)
(0.0730046 0.0406022 -9.1077e-20)
(0.104359 0.0385039 2.16891e-19)
(0.140101 0.0368132 -1.88806e-20)
(0.180206 0.0357492 -4.90039e-20)
(0.224539 0.0356169 -7.74237e-20)
(0.272399 0.0367475 1.20428e-19)
(0.321812 0.0386762 -3.00165e-19)
(0.377842 0.0547844 -4.03703e-19)
(0.0907042 0.0398924 3.39881e-19)
(0.125793 0.0383999 -3.06155e-20)
(0.165641 0.0375156 -6.66992e-20)
(0.210177 0.0375026 -9.207e-21)
(0.259193 0.0387499 1.64372e-19)
(0.311644 0.0415581 2.89021e-19)
(0.365869 0.045568 -8.02859e-20)
(0.423743 0.0657809 2.93364e-19)
(0.110305 0.0392485 -1.1494e-19)
(0.14941 0.038435 -8.44161e-20)
(0.193654 0.038441 -2.76529e-19)
(0.242923 0.0395797 -7.45464e-20)
(0.296954 0.0423584 6.12984e-21)
(0.354303 0.0470467 -1.98498e-19)
(0.413959 0.0542989 9.75414e-20)
(0.470952 0.0805522 -2.07617e-19)
(0.175282 0.0386432 -1.36876e-19)
(0.22418 0.0396042 3.3356e-19)
(0.278434 0.0419461 2.03982e-19)
(0.337789 0.046293 5.03245e-20)
(0.400561 0.0528817 -2.14526e-19)
(0.467247 0.0647429 -1.15231e-20)
(0.521067 0.0969269 -3.45273e-19)
(0.20345 0.0390696 -6.44817e-20)
(0.257203 0.0410327 5.9932e-20)
(0.316602 0.044575 -1.06725e-19)
(0.381425 0.0503781 -1.22681e-19)
(0.450032 0.0585627 2.5801e-19)
(0.526044 0.0751162 -8.2991e-20)
(0.583784 0.104194 6.76647e-21)
(0.292657 0.042776 -1.32718e-19)
(0.357225 0.0474892 3.78117e-20)
(0.427389 0.0545624 -4.76467e-20)
(0.501443 0.0636539 -2.62379e-20)
(0.584356 0.0812849 5.73357e-20)
(0.650682 0.0980882 6.35834e-19)
(0.400057 0.0507694 5.62848e-21)
(0.475194 0.0589648 -2.54297e-19)
(0.553955 0.0686028 -6.77386e-20)
(0.641197 0.0861345 3.22702e-19)
(0.7122 0.095674 -3.68678e-19)
(0.444824 0.0545231 2.56652e-19)
(0.524407 0.0637664 8.08136e-20)
(0.607006 0.07391 4.60872e-19)
(0.696702 0.091201 -2.94387e-19)
(0.769835 0.0971501 4.9148e-19)
(0.574622 0.0691094 1.00788e-19)
(0.66013 0.0798183 5.95778e-20)
(0.750834 0.0968555 -5.06035e-19)
(0.824797 0.101134 -2.88694e-19)
(0.712866 0.0864166 8.47979e-20)
(0.803335 0.103201 3.9674e-19)
(0.877084 0.106957 -2.76842e-19)
(0.764734 0.0937085 -2.94799e-19)
(0.853857 0.110233 1.8967e-19)
(0.926411 0.114122 8.93171e-20)
(0.902032 0.117864 -2.99732e-19)
(0.97247 0.122201 4.24715e-19)
(1.01499 0.130837 -2.12653e-19)
(1.01501 -0.130828 -1.61112e-19)
(0.902055 -0.117857 -4.80708e-19)
(0.972492 -0.122192 2.86576e-19)
(0.764759 -0.0937027 -3.18987e-19)
(0.853881 -0.110225 2.55608e-19)
(0.926435 -0.114114 -8.51422e-20)
(0.712891 -0.0864111 -1.80583e-19)
(0.80336 -0.103194 5.44483e-19)
(0.877109 -0.106948 -1.302e-19)
(0.574647 -0.0691053 6.96202e-21)
(0.660157 -0.079813 -4.76147e-20)
(0.750861 -0.0968487 -5.28928e-19)
(0.824824 -0.101126 -2.91206e-19)
(0.444848 -0.0545203 -2.72904e-20)
(0.524433 -0.0637626 7.83484e-20)
(0.607033 -0.0739049 3.24077e-19)
(0.69673 -0.0911943 -1.09486e-19)
(0.769863 -0.0971419 3.43647e-19)
(0.40008 -0.0507668 1.66958e-19)
(0.475219 -0.0589612 -1.66047e-19)
(0.553982 -0.0685979 -2.9454e-19)
(0.641225 -0.0861281 5.03113e-19)
(0.712229 -0.0956659 -3.29186e-19)
(0.292678 -0.0427746 -2.37587e-20)
(0.357248 -0.0474868 -2.98254e-19)
(0.427415 -0.054559 1.1192e-19)
(0.50147 -0.0636493 2.02348e-19)
(0.584385 -0.0812786 5.69834e-21)
(0.650712 -0.0980801 4.37973e-19)
(0.203468 -0.0390692 2.82392e-19)
(0.257223 -0.0410315 -7.11234e-20)
(0.316625 -0.0445729 -2.0435e-19)
(0.38145 -0.050375 -5.00362e-20)
(0.450059 -0.0585583 3.24263e-19)
(0.526074 -0.0751101 1.13967e-20)
(0.583815 -0.104186 -1.55334e-19)
(0.175299 -0.038643 6.40535e-20)
(0.224199 -0.0396032 2.0274e-19)
(0.278456 -0.0419442 1.06586e-19)
(0.337814 -0.0462901 1.22855e-19)
(0.400588 -0.0528776 -3.66837e-19)
(0.467277 -0.0647372 8.21854e-20)
(0.5211 -0.0969202 -3.07372e-19)
(0.110319 -0.0392492 1.76331e-20)
(0.149426 -0.0384349 -1.57116e-19)
(0.193673 -0.03844 -7.20891e-20)
(0.242944 -0.0395779 -1.62172e-19)
(0.296978 -0.0423556 -6.94297e-20)
(0.354329 -0.0470428 2.6131e-20)
(0.413988 -0.0542936 -1.59486e-19)
(0.470985 -0.0805465 -1.0537e-20)
(0.0907171 -0.0398931 2.4565e-19)
(0.125808 -0.0383998 2.33117e-20)
(0.165658 -0.0375147 1.0924e-19)
(0.210197 -0.0375008 -1.62323e-19)
(0.259216 -0.0387472 2.5129e-19)
(0.311669 -0.0415543 6.67493e-20)
(0.365897 -0.045563 9.38348e-20)
(0.423775 -0.0657756 3.30048e-19)
(0.0459534 -0.0428898 1.90247e-19)
(0.0730165 -0.0406029 1.87339e-20)
(0.104373 -0.0385037 8.21909e-20)
(0.140117 -0.0368122 1.12701e-19)
(0.180225 -0.0357473 -4.91136e-20)
(0.224561 -0.035614 -1.95794e-19)
(0.272423 -0.0367437 9.66431e-20)
(0.321839 -0.0386712 -1.23574e-19)
(0.377872 -0.0547792 -3.49641e-19)
(0.0331302 -0.0440107 1.98024e-19)
(0.057115 -0.0413477 -6.33276e-20)
(0.085026 -0.0387208 -6.92799e-20)
(0.11697 -0.0363217 -2.23149e-19)
(0.152965 -0.0343387 3.05821e-19)
(0.192946 -0.0330327 -8.8108e-20)
(0.236449 -0.0327688 -5.79802e-20)
(0.281475 -0.0333489 8.26086e-20)
(0.334315 -0.0467031 2.60848e-19)
(0.00400615 -0.0477851 4.21175e-19)
(0.0217315 -0.0450807 -3.13785e-19)
(0.0429019 -0.0421037 -2.39473e-19)
(0.0676558 -0.0390309 -1.6039e-19)
(0.0961091 -0.0360335 3.49962e-19)
(0.128314 -0.0332835 -1.97796e-21)
(0.164268 -0.031032 9.29313e-20)
(0.203665 -0.0296917 -3.44729e-19)
(0.244666 -0.0294441 2.17422e-20)
(0.293678 -0.0409331 1.6277e-19)
(-0.00382351 -0.0489431 -3.28877e-20)
(0.011651 -0.0460821 -8.43291e-20)
(0.0302608 -0.0428526 1.34115e-19)
(0.052138 -0.0394181 1.74235e-19)
(0.0774044 -0.0359377 -4.25256e-19)
(0.106139 -0.0325812 -1.68266e-19)
(0.138391 -0.0296164 1.6711e-19)
(0.173949 -0.0275217 2.05838e-19)
(0.211215 -0.0268668 2.24783e-19)
(0.256099 -0.0371509 1.22046e-20)
(-0.0213529 -0.0523371 -6.93477e-20)
(-0.0106544 -0.0499762 -4.5756e-20)
(0.00278222 -0.0470014 2.41612e-19)
(0.019072 -0.0435804 -2.47329e-19)
(0.0383406 -0.039869 -1.41684e-19)
(0.0607126 -0.0360229 6.40846e-20)
(0.0862875 -0.0322224 1.13579e-19)
(0.115148 -0.02877 -1.00196e-19)
(0.147138 -0.0262233 1.55264e-19)
(0.180901 -0.0254925 2.15435e-19)
(0.221586 -0.0350398 -2.09248e-19)
(-0.0256811 -0.0532557 2.70198e-19)
(-0.0165771 -0.050876 -2.10964e-19)
(-0.00498012 -0.0478285 2.45133e-19)
(0.00921469 -0.0442757 -3.13644e-20)
(0.0261265 -0.0403709 1.02023e-19)
(0.0458803 -0.0362745 -6.24252e-20)
(0.0685877 -0.0321871 -5.76133e-20)
(0.0943522 -0.0284565 3.65798e-20)
(0.123039 -0.0257213 -3.84309e-19)
(0.153508 -0.0251535 3.80924e-20)
(0.190084 -0.0342539 1.76525e-19)
(-0.0293469 -0.0540099 -4.3338e-19)
(-0.0216788 -0.0516365 5.24702e-20)
(-0.0117392 -0.0485557 -1.02978e-19)
(0.000568353 -0.0449283 -1.09641e-19)
(0.0153566 -0.0409105 -4.28686e-20)
(0.0327483 -0.0366734 3.13013e-19)
(0.0528602 -0.0324442 -6.26998e-20)
(0.0758028 -0.0286197 -6.85788e-20)
(0.101442 -0.02591 2.17524e-19)
(0.128814 -0.0256586 -9.04732e-20)
(0.161472 -0.03446 -3.39192e-20)
(-0.0367957 -0.056034 7.59007e-20)
(-0.0324198 -0.0545969 -4.25966e-20)
(-0.0260436 -0.0522531 1.00676e-19)
(-0.0175952 -0.0491761 6.58518e-21)
(-0.00698537 -0.0455283 3.40713e-19)
(0.00589215 -0.0414724 2.56317e-19)
(0.0211556 -0.0371947 3.84302e-20)
(0.0389204 -0.0329522 3.82619e-20)
(0.0592929 -0.0291874 3.96545e-20)
(0.0821267 -0.0266638 7.81969e-20)
(0.106596 -0.0268086 9.10716e-20)
(0.135582 -0.0353589 1.26703e-19)
(-0.0383539 -0.0563875 2.37753e-20)
(-0.0349659 -0.0550148 2.98248e-19)
(-0.0297517 -0.052722 2.78719e-19)
(-0.0226445 -0.0496832 -5.48825e-20)
(-0.0135615 -0.0460646 -4.3722e-19)
(-0.00240297 -0.0420384 -7.37084e-20)
(0.0109426 -0.0378083 -1.80658e-19)
(0.0265841 -0.0336606 2.69992e-19)
(0.0446147 -0.0300753 6.61891e-20)
(0.0648689 -0.0278466 -3.30213e-19)
(0.0866253 -0.0284079 -1.5366e-19)
(0.112211 -0.0366921 -6.08204e-19)
(-0.0395472 -0.0565611 -1.11086e-19)
(-0.0370474 -0.0552623 1.05964e-19)
(-0.0328787 -0.05304 -8.9702e-20)
(-0.0269788 -0.0500703 -1.95729e-19)
(-0.0192703 -0.0465251 1.46017e-19)
(-0.00966007 -0.0425875 -4.02747e-20)
(0.00195461 -0.0384793 -1.64262e-19)
(0.0156717 -0.0345123 -2.16414e-19)
(0.0315654 -0.0311926 1.08933e-19)
(0.049448 -0.0293205 6.97183e-20)
(0.0686775 -0.0302741 -1.01215e-19)
(0.091141 -0.0382441 2.98032e-19)
(-0.0406469 -0.0566665 2.60547e-20)
(-0.0404229 -0.0565552 1.78287e-19)
(-0.0387223 -0.0553382 -4.15499e-19)
(-0.0354961 -0.0532035 -1.67636e-19)
(-0.0306848 -0.0503299 6.28218e-20)
(-0.024216 -0.0468962 2.22818e-20)
(-0.0160039 -0.0430967 -7.80935e-20)
(-0.00595561 -0.0391694 2.14998e-19)
(0.00601254 -0.0354463 -1.6575e-20)
(0.0199518 -0.0324468 1.33774e-19)
(0.0356534 -0.0309542 6.26624e-20)
(0.0525362 -0.0322459 2.79203e-19)
(0.0721481 -0.0398424 1.2342e-19)
(-0.0406577 -0.0564063 -7.98539e-20)
(-0.0410245 -0.0563704 4.59967e-20)
(-0.0400448 -0.0552416 1.42045e-19)
(-0.0376701 -0.0532087 -1.42431e-19)
(-0.0338432 -0.0504542 -1.56714e-19)
(-0.0284963 -0.0471633 2.06161e-21)
(-0.0215508 -0.0435408 3.69404e-20)
(-0.0129255 -0.0398385 1.99391e-20)
(-0.00255269 -0.0364014 -1.56365e-19)
(0.00959452 -0.0337493 -1.52136e-19)
(0.023289 -0.0326285 -4.229e-20)
(0.0379979 -0.034187 -2.87824e-19)
(0.0550156 -0.0413548 -9.62137e-20)
(-0.0404934 -0.0559696 4.9663e-20)
(-0.0413923 -0.0560072 3.16338e-20)
(-0.0410647 -0.0549714 1.28222e-21)
(-0.0394619 -0.0530519 3.26231e-19)
(-0.0365284 -0.0504345 4.059e-19)
(-0.0322006 -0.047311 6.35831e-20)
(-0.0264078 -0.0438946 -1.42475e-19)
(-0.0190808 -0.0404469 5.6235e-20)
(-0.0101691 -0.0373189 2.9764e-19)
(0.000330344 -0.0350186 -2.79776e-19)
(0.0121764 -0.0342405 -4.12905e-20)
(0.0248755 -0.0359878 1.17695e-19)
(0.0395382 -0.0426848 -1.86897e-19)
(-0.0377357 -0.0540046 1.02664e-19)
(-0.0401833 -0.0553579 6.46805e-20)
(-0.0415632 -0.0554663 -9.59655e-20)
(-0.0418277 -0.0545264 -1.8723e-19)
(-0.0409273 -0.0527288 -1.00916e-19)
(-0.0388079 -0.0502624 -4.35604e-19)
(-0.0354103 -0.0473239 -1.96799e-19)
(-0.0306716 -0.0441331 1.98564e-20)
(-0.0245348 -0.040957 7.93085e-21)
(-0.0169665 -0.0381451 -3.76895e-20)
(-0.00798593 -0.0361839 2.98675e-19)
(0.00215721 -0.035706 1.63422e-19)
(0.0130005 -0.0375646 -7.26406e-20)
(0.0255272 -0.0437669 2.5205e-19)
(-0.0369761 -0.0531836 2.13327e-19)
(-0.0397542 -0.0545727 -1.70781e-19)
(-0.0415707 -0.0547483 8.26286e-20)
(-0.042375 -0.0539056 1.8379e-19)
(-0.0421166 -0.0522356 4.46699e-20)
(-0.0407427 -0.0499294 1.76692e-19)
(-0.0381983 -0.0471874 3.66844e-19)
(-0.0344282 -0.0442331 -2.93097e-20)
(-0.0293873 -0.0413345 -2.94011e-19)
(-0.023059 -0.0388332 1.29697e-19)
(-0.0154812 -0.0371863 -1.67902e-19)
(-0.0069069 -0.0369591 -2.22483e-19)