/*--------------------------------*- C++ -*----------------------------------*\
  =========                 |
  \\      /  F ield         | OpenFOAM: The Open Source CFD Toolbox
   \\    /   O peration     | Website:  https://openfoam.org
    \\  /    A nd           | Version:  7
     \\/     M anipulation  |
\*---------------------------------------------------------------------------*/
FoamFile
{
    version     2.0;
    format      ascii;
    class       volScalarField;
    location    "160";
    object      p;
}
// * * * * * * * * * * * * * * * * * * * * * * * * * * * * * * * * * * * * * //

dimensions      [0 2 -2 0 0 0 0];

internalField   nonuniform List<scalar> 
4575
(
-0.292365
-0.240602
-0.208198
-0.193165
-0.195927
-0.21469
-0.239238
-0.253087
-0.244418
-0.215608
-0.178419
-0.144008
-0.118
-0.101856
-0.0949128
-0.095489
-0.10322
-0.119864
-0.143686
-0.165723
-0.174266
-0.164441
-0.142117
-0.295998
-0.241896
-0.207499
-0.190639
-0.191392
-0.208211
-0.231432
-0.245231
-0.237655
-0.21044
-0.17482
-0.14169
-0.116668
-0.101347
-0.0951576
-0.0964301
-0.104897
-0.122392
-0.147053
-0.169648
-0.178173
-0.167766
-0.144609
-0.299282
-0.242912
-0.206557
-0.187902
-0.186678
-0.201556
-0.223428
-0.237136
-0.230658
-0.205071
-0.171057
-0.139238
-0.115222
-0.10074
-0.0953149
-0.0972889
-0.106491
-0.124832
-0.150326
-0.173483
-0.182003
-0.17103
-0.147048
-0.302235
-0.243675
-0.205404
-0.184988
-0.181819
-0.194764
-0.215266
-0.228835
-0.223449
-0.199513
-0.167138
-0.136654
-0.113661
-0.100032
-0.0953794
-0.0980591
-0.107997
-0.127173
-0.153493
-0.177216
-0.185749
-0.174228
-0.149433
-0.304873
-0.24421
-0.20407
-0.181929
-0.176851
-0.18787
-0.206985
-0.220361
-0.216049
-0.193777
-0.163065
-0.133936
-0.111981
-0.099217
-0.0953459
-0.0987343
-0.109404
-0.129406
-0.156544
-0.180838
-0.189403
-0.177357
-0.151762
-0.307215
-0.244544
-0.202587
-0.178757
-0.171811
-0.180912
-0.198625
-0.211749
-0.20848
-0.187878
-0.158845
-0.131087
-0.110182
-0.0982926
-0.0952095
-0.0993087
-0.110706
-0.131522
-0.159469
-0.184339
-0.192958
-0.180412
-0.154034
-0.30928
-0.244702
-0.200984
-0.175503
-0.166732
-0.173927
-0.190224
-0.203033
-0.200768
-0.181829
-0.154485
-0.128108
-0.108263
-0.0972556
-0.0949657
-0.0997765
-0.111896
-0.13351
-0.162257
-0.187707
-0.196406
-0.183389
-0.156247
-0.311086
-0.244708
-0.199292
-0.172199
-0.161648
-0.166949
-0.18182
-0.194251
-0.192936
-0.175645
-0.149992
-0.125001
-0.106221
-0.0961032
-0.0946103
-0.100132
-0.112966
-0.135362
-0.164898
-0.190934
-0.199739
-0.186283
-0.1584
-0.312651
-0.244587
-0.197538
-0.168875
-0.156591
-0.160015
-0.173449
-0.185436
-0.185009
-0.169341
-0.145373
-0.121769
-0.104059
-0.0948332
-0.0941395
-0.100371
-0.113909
-0.137071
-0.167382
-0.194011
-0.202949
-0.189091
-0.160492
-0.313996
-0.24436
-0.195751
-0.165558
-0.15159
-0.153157
-0.165145
-0.176626
-0.177011
-0.162934
-0.140638
-0.118416
-0.101775
-0.0934438
-0.0935498
-0.100488
-0.114719
-0.138627
-0.1697
-0.196927
-0.206029
-0.191808
-0.162521
-0.315137
-0.244052
-0.193955
-0.162277
-0.146673
-0.146407
-0.156939
-0.167854
-0.168985
-0.156439
-0.135795
-0.114946
-0.0993716
-0.0919339
-0.0928383
-0.100479
-0.11539
-0.140023
-0.171844
-0.199675
-0.208973
-0.19443
-0.164487
-0.131539
-0.316093
-0.243681
-0.192174
-0.159057
-0.141867
-0.139795
-0.14886
-0.159155
-0.160929
-0.149872
-0.130854
-0.111364
-0.0968503
-0.0903029
-0.0920026
-0.100339
-0.115916
-0.141253
-0.173805
-0.202247
-0.211774
-0.196954
-0.166388
-0.132753
-0.316882
-0.243268
-0.190431
-0.155921
-0.137194
-0.133349
-0.140938
-0.15056
-0.152855
-0.143252
-0.125825
-0.107676
-0.0942135
-0.0885506
-0.0910406
-0.100067
-0.116294
-0.142311
-0.175576
-0.204635
-0.214429
-0.199377
-0.168223
-0.133923
-0.31752
-0.242831
-0.188745
-0.152892
-0.132675
-0.127095
-0.133197
-0.142099
-0.144816
-0.136596
-0.120718
-0.103887
-0.0914643
-0.0866775
-0.0899509
-0.099658
-0.116518
-0.14319
-0.177151
-0.206831
-0.21693
-0.201694
-0.169992
-0.135051
-0.318024
-0.242386
-0.187135
-0.149989
-0.128331
-0.121055
-0.12566
-0.1338
-0.136843
-0.129921
-0.115546
-0.100006
-0.0886066
-0.084685
-0.0887325
-0.0991103
-0.116584
-0.143885
-0.178524
-0.208831
-0.21927
-0.203903
-0.171694
-0.136137
-0.318407
-0.241948
-0.185616
-0.147231
-0.124178
-0.115251
-0.11835
-0.125689
-0.128958
-0.123244
-0.110318
-0.0960379
-0.0856448
-0.0825746
-0.0873852
-0.0984221
-0.11649
-0.144394
-0.17969
-0.210629
-0.221445
-0.205999
-0.173327
-0.137181
-0.318684
-0.241532
-0.184202
-0.144632
-0.12023
-0.1097
-0.111287
-0.117787
-0.121185
-0.11658
-0.105047
-0.0919921
-0.0825839
-0.0803487
-0.085909
-0.0975919
-0.116232
-0.144711
-0.180645
-0.212221
-0.22345
-0.207981
-0.174891
-0.138186
-0.318869
-0.241148
-0.182905
-0.142207
-0.116501
-0.104417
-0.104488
-0.110114
-0.113543
-0.109947
-0.0997436
-0.0878768
-0.0794296
-0.0780105
-0.0843048
-0.0966189
-0.11581
-0.144836
-0.181386
-0.213601
-0.22528
-0.209845
-0.176386
-0.139151
-0.318974
-0.240808
-0.181736
-0.139967
-0.113002
-0.0994143
-0.0979705
-0.102686
-0.106055
-0.103362
-0.0944204
-0.0837007
-0.0761882
-0.0755635
-0.0825739
-0.0955029
-0.115221
-0.144765
-0.18191
-0.214767
-0.226932
-0.211588
-0.177809
-0.140078
-0.319009
-0.240521
-0.180702
-0.137921
-0.109742
-0.094701
-0.0917482
-0.0955174
-0.0987417
-0.0968404
-0.0890892
-0.0794734
-0.0728665
-0.073012
-0.0807183
-0.0942443
-0.114465
-0.144498
-0.182216
-0.215718
-0.2284
-0.213208
-0.179162
-0.140967
-0.318985
-0.240293
-0.179809
-0.136076
-0.106727
-0.0902847
-0.085834
-0.088621
-0.0916206
-0.0904019
-0.083762
-0.0752044
-0.069472
-0.0703609
-0.0787405
-0.0928439
-0.113543
-0.144034
-0.182304
-0.216452
-0.229685
-0.214702
-0.180442
-0.141819
-0.318911
-0.240133
-0.179063
-0.134437
-0.103964
-0.0861701
-0.0802384
-0.082007
-0.0847091
-0.0840606
-0.0784507
-0.0709038
-0.0660126
-0.0676157
-0.0766435
-0.0913033
-0.112453
-0.143374
-0.182173
-0.216968
-0.230783
-0.216068
-0.181648
-0.142635
-0.318795
-0.240044
-0.178468
-0.133007
-0.101457
-0.0823603
-0.0749698
-0.0756845
-0.0780224
-0.077809
-0.0731666
-0.0665819
-0.0624967
-0.0647823
-0.0744311
-0.0896243
-0.111199
-0.142519
-0.181826
-0.217266
-0.231697
-0.217304
-0.182781
-0.143416
-0.318644
-0.24003
-0.178024
-0.131789
-0.0992085
-0.0788564
-0.0700346
-0.0696613
-0.0715727
-0.0716689
-0.0679212
-0.0622493
-0.058933
-0.0618674
-0.0721074
-0.0878096
-0.109781
-0.14147
-0.181263
-0.217348
-0.232424
-0.218409
-0.183838
-0.144163
-0.318463
-0.240093
-0.177733
-0.130781
-0.0972185
-0.0756579
-0.0654368
-0.0639437
-0.0653716
-0.065744
-0.0627276
-0.0579165
-0.0553308
-0.0588781
-0.0696773
-0.0858622
-0.108203
-0.14023
-0.180488
-0.217216
-0.232963
-0.219378
-0.184819
-0.144874
-0.240236
-0.177594
-0.129983
-0.0954869
-0.0727632
-0.0611784
-0.0585375
-0.0594265
-0.0598379
-0.0576026
-0.0535947
-0.0516994
-0.0558219
-0.0671461
-0.0837857
-0.106466
-0.138801
-0.179505
-0.216872
-0.233313
-0.220213
-0.185722
-0.145553
-0.240458
-0.177606
-0.129391
-0.0940115
-0.0701694
-0.0572594
-0.0534469
-0.0537455
-0.0541326
-0.0525619
-0.0492942
-0.0480487
-0.0527069
-0.0645195
-0.0815842
-0.104574
-0.137188
-0.178317
-0.21632
-0.233476
-0.220909
-0.186547
-0.146197
-0.240759
-0.177767
-0.129003
-0.0927893
-0.0678729
-0.0536781
-0.0486757
-0.0483368
-0.0486552
-0.0476151
-0.045026
-0.0443884
-0.0495415
-0.0618038
-0.0792622
-0.10253
-0.135393
-0.176929
-0.215563
-0.233452
-0.221466
-0.187292
-0.146808
-0.241138
-0.178074
-0.128813
-0.0918156
-0.0658689
-0.0504312
-0.0442264
-0.043204
-0.0433939
-0.0427733
-0.0408012
-0.0407285
-0.0463343
-0.0590058
-0.0768248
-0.10034
-0.133421
-0.175346
-0.214608
-0.233241
-0.221881
-0.187956
-0.147386
-0.241593
-0.178523
-0.128816
-0.0910844
-0.0641519
-0.0475136
-0.0400998
-0.038348
-0.0383473
-0.0380495
-0.0366311
-0.0370791
-0.0430944
-0.0561326
-0.0742775
-0.0980081
-0.131277
-0.173574
-0.213457
-0.232845
-0.222153
-0.188536
-0.147931
-0.242117
-0.179106
-0.129004
-0.0905874
-0.0627147
-0.0449188
-0.0362956
-0.0337688
-0.0335186
-0.0334563
-0.0325263
-0.03345
-0.039831
-0.0531919
-0.0716262
-0.0955387
-0.128965
-0.171619
-0.212118
-0.232267
-0.222282
-0.189031
-0.148441
-0.242708
-0.17982
-0.12937
-0.0903171
-0.0615508
-0.0426403
-0.0328128
-0.0294665
-0.0289118
-0.0290066
-0.0284978
-0.029851
-0.0365533
-0.0501914
-0.0688772
-0.0929376
-0.12649
-0.169488
-0.210597
-0.231508
-0.222263
-0.189438
-0.148917
-0.243378
-0.180671
-0.129919
-0.0902737
-0.0606586
-0.0406749
-0.0296521
-0.0254423
-0.0245325
-0.0247137
-0.0245565
-0.0262921
-0.0332709
-0.0471395
-0.0660371
-0.0902106
-0.123858
-0.167186
-0.208899
-0.230569
-0.222095
-0.189756
-0.149359
-0.244141
-0.181672
-0.130656
-0.0904567
-0.0600361
-0.0390187
-0.0268122
-0.0216954
-0.020385
-0.0205844
-0.0207137
-0.0227832
-0.0299933
-0.0440446
-0.0631132
-0.0873637
-0.121073
-0.16472
-0.207031
-0.229451
-0.221774
-0.189983
-0.149769
-0.244928
-0.182756
-0.131525
-0.0908184
-0.0596462
-0.0376422
-0.0242721
-0.0182104
-0.0164607
-0.0166158
-0.0169785
-0.0193341
-0.0267303
-0.0409158
-0.0601128
-0.0844036
-0.118142
-0.162096
-0.204998
-0.228159
-0.221304
-0.190117
-0.15014
-0.245564
-0.183766
-0.132397
-0.091257
-0.0594112
-0.0364881
-0.0219946
-0.0149639
-0.0127405
-0.0128921
-0.0133514
-0.0159501
-0.02349
-0.0377614
-0.0570435
-0.0813371
-0.115071
-0.159323
-0.202814
-0.226715
-0.220699
-0.190151
-0.150445
-0.246215
-0.184855
-0.133403
-0.0918742
-0.0594083
-0.035621
-0.0200437
-0.0120176
-0.00927087
-0.00924814
-0.00984643
-0.0126376
-0.0202775
-0.0345878
-0.0539114
-0.0781704
-0.111865
-0.156409
-0.200486
-0.225107
-0.219924
-0.190056
-0.150692
-0.186987
-0.135335
-0.0932923
-0.0601129
-0.0354001
-0.0186871
-0.0095739
-0.0062263
-0.00590119
-0.00658611
-0.00945931
-0.0171196
-0.031411
-0.0507308
-0.0749083
-0.108515
-0.153317
-0.197901
-0.223108
-0.218792
-0.189845
-0.151046
-0.190254
-0.138248
-0.0955246
-0.0615076
-0.0357576
-0.0177708
-0.00741977
-0.00343604
-0.00294533
-0.00366512
-0.00653385
-0.014113
-0.0282965
-0.0475503
-0.0715777
-0.104999
-0.149941
-0.194868
-0.220576
-0.217323
-0.189677
-0.151644
-0.1896
-0.137892
-0.0951013
-0.0608017
-0.034447
-0.0154701
-0.00402042
0.000535881
0.000903153
-0.000157828
-0.00343709
-0.0111615
-0.0252257
-0.0443219
-0.0682471
-0.101638
-0.147002
-0.192823
-0.219496
-0.216897
-0.189603
-0.151623
-0.179235
-0.12936
-0.0877004
-0.0539388
-0.0274992
-0.00779164
0.00526226
0.0118744
0.0137865
0.0126217
0.00756314
-0.00159441
-0.0158795
-0.0345128
-0.0592023
-0.0959569
-0.147097
-0.198283
-0.22694
-0.221932
-0.19046
-0.14999
-0.111843
-0.165521
-0.119385
-0.080138
-0.0477626
-0.0216734
-0.0013745
0.0127232
0.0200444
0.0218701
0.020033
0.0155684
0.00640055
-0.00771342
-0.0262192
-0.051273
-0.0888674
-0.140458
-0.190845
-0.218461
-0.212701
-0.182325
-0.142713
-0.105808
-0.153169
-0.110271
-0.0731526
-0.0420106
-0.016437
0.00404081
0.0189591
0.0273869
0.0298978
0.0280301
0.0229049
0.0134867
-0.000548582
-0.0189785
-0.0439804
-0.0810656
-0.131317
-0.180817
-0.20869
-0.203375
-0.173516
-0.135083
-0.09958
-0.141523
-0.101804
-0.0668432
-0.0369853
-0.0120558
0.00835643
0.0238645
0.0334603
0.036979
0.0355351
0.0303151
0.0210002
0.00738767
-0.0105734
-0.0351732
-0.0717732
-0.121654
-0.171241
-0.198649
-0.192685
-0.163279
-0.126409
-0.0927315
-0.130759
-0.0939944
-0.0611258
-0.0325839
-0.00840933
0.011702
0.027495
0.0380237
0.0426675
0.0420964
0.037407
0.0287307
0.0160092
-0.00110545
-0.0251925
-0.0617675
-0.111831
-0.160724
-0.186584
-0.180072
-0.151691
-0.116946
-0.0854635
-0.12078
-0.0867903
-0.0559676
-0.0287843
-0.00544053
0.0142076
0.0300267
0.041232
0.0470489
0.0476461
0.0439317
0.0363356
0.024837
0.00874459
-0.0148468
-0.0514265
-0.101027
-0.148334
-0.172579
-0.16581
-0.139002
-0.106841
-0.077854
-0.11158
-0.0801811
-0.0513359
-0.0255397
-0.00308666
0.0159989
0.0316515
0.0432902
0.0501618
0.0520781
0.049687
0.0435264
0.0335025
0.0185507
-0.00444631
-0.0406205
-0.0890312
-0.134409
-0.156912
-0.150191
-0.125464
-0.0962828
-0.0700271
-0.10311
-0.0741301
-0.0471878
-0.0227932
-0.00128435
0.0171796
0.0325305
0.0443798
0.0520762
0.0552962
0.0544194
0.0499587
0.0416604
0.0280544
0.00586719
-0.029553
-0.076383
-0.119427
-0.139942
-0.133563
-0.111385
-0.085484
-0.0621082
-0.0953221
-0.0685999
-0.0434817
-0.0204862
3.25027e-05
0.0178318
0.0327953
0.0446715
0.0529464
0.0572863
0.0579026
0.0552358
0.0488553
0.0368393
0.0156433
-0.0188129
-0.0636131
-0.103692
-0.12206
-0.116355
-0.0971073
-0.0746667
-0.0542253
-0.0881636
-0.063549
-0.0401757
-0.0185617
0.000932851
0.0180272
0.0325491
0.0443154
0.0529429
0.0581372
0.0600387
0.059032
0.0545585
0.0442589
0.0242044
-0.00892638
-0.0510112
-0.0874745
-0.103692
-0.0990445
-0.0829849
-0.0640491
-0.0465013
-0.0815827
-0.0589347
-0.0372272
-0.0169669
0.00148424
0.0178349
0.031874
0.0434353
0.052232
0.0580168
0.0608924
0.0612136
0.0583754
0.0497082
0.0310098
-0.000148218
-0.0387037
-0.0710759
-0.0853576
-0.0821287
-0.0693564
-0.0538315
-0.0390478
-0.0755286
-0.0547145
-0.0345941
-0.0156527
0.00174974
0.0173232
0.0308403
0.0421289
0.0509547
0.0571111
0.0606559
0.0618951
0.0602435
0.052965
0.0359288
0.00754681
-0.0267457
-0.0548864
-0.0676431
-0.0660894
-0.0565203
-0.0441824
-0.0319593
-0.0699523
-0.0508474
-0.0322355
-0.0145731
0.00178654
0.0165587
0.0295151
0.0404764
0.049223
0.0555829
0.059558
0.0613672
0.0604672
0.0543184
0.0392597
0.0143279
-0.0153019
-0.0394653
-0.0511589
-0.0513447
-0.0447087
-0.0352282
-0.0253093
-0.0648076
-0.0472943
-0.0301122
-0.0136851
0.00164609
0.0156034
0.0279646
0.0385494
0.0471297
0.0535647
0.0578013
0.0599518
0.0595149
0.0543318
0.041442
0.0202472
-0.00478736
-0.025471
-0.0364245
-0.0381886
-0.0340678
-0.0270479
-0.0191489
-0.0600507
-0.0440187
-0.0281882
-0.0129488
0.00137482
0.0145134
0.0262506
0.0364155
0.0447579
0.0511694
0.0555482
0.0579095
0.0577946
0.0534915
0.0427482
0.0251436
0.00428351
-0.0134249
-0.0237497
-0.0267533
-0.0246542
-0.0196763
-0.0135071
-0.0556416
-0.0409865
-0.0264302
-0.0123281
0.00101427
0.0133383
0.0244295
0.0340924
0.042185
0.0484982
0.0529303
0.0554251
0.05557
0.0520687
0.0432605
0.028831
0.0115904
-0.00354774
-0.0131913
-0.017022
-0.0164505
-0.0131116
-0.00839428
-0.0515431
-0.0381667
-0.0248084
-0.0117909
0.000601509
0.0121227
0.0225625
0.0317289
0.0394944
0.0456451
0.0500599
0.0526333
0.053001
0.0502044
0.0430413
0.0312988
0.0171276
0.00425115
-0.00460326
-0.00887402
-0.00938928
-0.00732663
-0.003806
-0.0477216
-0.0355313
-0.0232965
-0.0113089
0.000168905
0.0109047
0.0206957
0.0293595
0.036756
0.0426946
0.0470366
0.0496462
0.0502066
0.0480162
0.0422238
0.0327141
0.021114
0.0102382
0.00226099
-0.00213693
-0.00337534
-0.00227765
0.000273567
-0.0441472
-0.0330554
-0.0218716
-0.010858
-0.000256211
0.00971671
0.018867
0.0270201
0.0340287
0.0397206
0.0439489
0.0465633
0.0472922
0.0456248
0.0409747
0.0333081
0.0238568
0.0147303
0.00766444
0.00337183
0.00169742
0.00208844
0.00386832
-0.0407929
-0.0307171
-0.0205138
-0.0104183
-0.000651239
0.00858559
0.0171085
0.0247502
0.0313622
0.0367854
0.0408723
0.0434699
0.0443482
0.0431378
0.0394456
0.0332997
0.0256371
0.0180316
0.0118669
0.00783171
0.00593571
0.00582915
0.00700755
-0.037635
-0.0284975
-0.0192068
-0.00997331
-0.000997917
0.00753287
0.0154465
0.022583
0.0287972
0.03394
0.0378684
0.0404347
0.0414467
0.0406383
0.0377557
0.0328662
0.0266844
0.0204035
0.0150985
0.0114061
0.00944208
0.00900363
0.00972397
-0.034653
-0.0263805
-0.017937
-0.0095102
-0.00128216
0.00657527
0.0139012
0.0205439
0.0263657
0.0312244
0.0349849
0.0375102
0.0386412
0.0381865
0.0359909
0.0321419
0.0271901
0.0220511
0.0175384
0.0142349
0.0123122
0.0116706
0.0120521
-0.0318291
-0.0243526
-0.0166937
-0.00901926
-0.00149379
0.00572528
0.0124884
0.0186524
0.0240918
0.0286682
0.0322568
0.0347341
0.0359688
0.0358244
0.0342115
0.0312265
0.0272986
0.0231323
0.0193354
0.0164403
0.0146335
0.0138868
0.0140271
-0.0291478
-0.0224026
-0.0154685
-0.00849358
-0.00162597
0.004991
0.0112186
0.0169212
0.0219926
0.0262922
0.0297084
0.0321315
0.0334543
0.0335797
0.0324602
0.0301925
0.0271125
0.023744
0.020617
0.0181288
0.0164849
0.0157061
0.0156839
-0.0265963
-0.0205217
-0.0142556
-0.007929
-0.00167472
0.00437685
0.0100986
0.0153578
0.0200798
0.0241096
0.0273543
0.0297182
0.031113
0.0314693
0.0307661
0.0290954
0.0267202
0.0240316
0.0214908
0.0193915
0.0179371
0.0171788
0.0170564
-0.0241636
-0.0187029
-0.0130509
-0.00732364
-0.00163937
0.00388398
0.00913397
0.0140119
0.0183614
0.0221265
0.0252023
0.027502
0.0289521
0.0295025
0.0291491
0.0279755
0.0261876
0.0240891
0.0220454
0.0203065
0.0190527
0.0183515
0.0181769
-0.0218408
-0.0169407
-0.0118523
-0.00667749
-0.00152166
0.00350914
0.00831266
0.0127918
0.0168261
0.0203423
0.0232535
0.0254844
0.0269735
0.0276844
0.0276217
0.0268601
0.0255616
0.0239632
0.0223507
0.0209393
0.0198865
0.0192661
0.019076
-0.0196202
-0.0152315
-0.0106589
-0.00599208
-0.00132467
0.00324849
0.00763435
0.0117415
0.0154735
0.0187536
0.0215051
0.0236625
0.0251751
0.0260155
0.0261923
0.02577
0.024879
0.0237007
0.0224616
0.0213444
0.020486
0.0199609
0.0197821
-0.0174957
-0.0135724
-0.00947098
-0.00527014
-0.00105274
0.00309655
0.0070935
0.0108549
0.0142994
0.0173546
0.0199507
0.0220305
0.0235517
0.0244935
0.0248649
0.0247197
0.0241681
0.0233404
0.0224227
0.0215674
0.0208926
0.0204696
0.0203212
-0.0154623
-0.0119618
-0.00828987
-0.00451542
-0.000711568
0.00304635
0.00668244
0.0101226
0.013296
0.0161369
0.0185816
0.0205802
0.0220965
0.0231138
0.0236403
0.0237207
0.023435
0.0229109
0.0222702
0.0216464
0.0211415
0.0208224
0.0207172
-0.013516
-0.0103988
-0.00711749
-0.00373235
-0.000307566
0.00308998
0.00639232
0.00953404
0.0124531
0.0150903
0.0173876
0.0193015
0.0208008
0.0218708
0.0225189
0.0227826
0.0227235
0.0224402
0.0220343
0.0216131
0.021263
0.0210455
0.0209913
-0.0116533
-0.00888294
-0.00595635
-0.0029259
0.000152075
0.00321874
0.0062139
0.00907912
0.0117618
0.0142024
0.0163566
0.0181833
0.0196549
0.0207584
0.0214994
0.0219076
0.0220316
0.0219481
0.0217399
0.021494
0.0212829
0.0211621
0.0211629
-0.00987155
-0.00741455
-0.00480935
-0.00210132
0.000660204
0.00342351
0.00613614
0.00874556
0.0112027
0.0134595
0.0154758
0.0172138
0.0186488
0.0197692
0.0205781
0.0210979
0.0213687
0.0214494
0.0214066
0.0213108
0.0212229
0.0211922
0.0212488
-0.00816852
-0.00599406
-0.00367945
-0.00126399
0.00120931
0.00369525
0.00614789
0.00852095
0.0107692
0.0128527
0.0147335
0.0163811
0.017772
0.0188947
0.0197504
0.0203557
0.0207421
0.020956
0.02105
0.0210817
0.0211016
0.021153
0.0212641
-0.0065423
-0.00462205
-0.00256973
-0.000419286
0.00179201
0.00402481
0.00623873
0.00839325
0.0104489
0.0123689
0.0141197
0.0156742
0.0170149
0.0181282
0.0190121
0.0196803
0.0201563
0.0204765
0.0206826
0.0208213
0.0209344
0.0210593
0.0212221
-0.00499121
-0.00329929
-0.00148329
0.00042761
0.00240119
0.00440323
0.0063985
0.00835153
0.0102277
0.0119946
0.0136232
0.0150896
0.0163721
0.0174624
0.0183592
0.0190706
0.0196139
0.0200176
0.0203143
0.0205416
0.0207342
0.0209239
0.0211342
-0.00351376
-0.00202655
-0.000423064
0.00127169
0.00302993
0.00482203
0.00661734
0.00838489
0.0100944
0.0117172
0.0132275
0.0146033
0.0158269
0.0168888
0.0177861
0.0185244
0.0191165
0.019584
0.0199525
0.0202523
0.0205115
0.0207573
0.0210104
-0.00210855
-0.000804553
0.000608165
0.00210821
0.00367174
0.00527318
0.00688593
0.00848304
0.010038
0.0115257
0.0129231
0.0142106
0.0153725
0.0163993
0.017287
0.018039
0.0186641
0.019179
0.0196033
0.0199611
0.0202753
0.0205688
0.0208595
-0.000774187
0.000366111
0.00160784
0.00293282
0.0043206
0.00574918
0.00719555
0.00863631
0.0100483
0.0114096
0.0126997
0.0139013
0.015
0.0159867
0.0168566
0.0176112
0.0182564
0.0188046
0.0192708
0.019674
0.0200327
0.0203657
0.0206888
0.000490573
0.00148492
0.0025737
0.00374152
0.00497093
0.00624304
0.00753803
0.00883565
0.0101157
0.0113591
0.0125476
0.0136659
0.0147009
0.0156438
0.0164894
0.0172376
0.0178922
0.0184619
0.0189582
0.0193958
0.0197894
0.0201546
0.0205046
0.001687
0.00255144
0.00350365
0.00453066
0.00561762
0.00674837
0.00790588
0.00907267
0.0102313
0.0113648
0.0124575
0.0134955
0.014467
0.0153637
0.01618
0.0169147
0.0175697
0.0181513
0.0186675
0.0191299
0.0195501
0.0199405
0.0203123
0.00281645
0.00356542
0.0043959
0.00529697
0.00625603
0.0072593
0.00829218
0.00933965
0.0103865
0.0114182
0.0124208
0.0133819
0.0142909
0.0151398
0.0159231
0.0166387
0.017287
0.0178722
0.0184
0.018879
0.0193182
0.0197276
0.0201164
0.0038801
0.00452673
0.00524893
0.00603757
0.00688202
0.00777053
0.00869067
0.00962952
0.010574
0.0115114
0.0124295
0.0133173
0.0141653
0.0149659
0.0157136
0.0164058
0.0170417
0.0176239
0.0181562
0.0186448
0.0190966
0.0195194
0.0199205
0.00487918
0.00543533
0.00606143
0.00674991
0.00749184
0.00827728
0.00909562
0.00993583
0.0107867
0.011637
0.0124763
0.0132947
0.0140836
0.014836
0.0155466
0.0162121
0.0168313
0.0174052
0.017936
0.0184284
0.0188872
0.0193184
0.0197279
0.00581493
0.00629127
0.00683227
0.00743173
0.00808219
0.00877525
0.0095019
0.0102527
0.0110181
0.0117884
0.0125544
0.0133073
0.0140396
0.0147446
0.0154171
0.016054
0.016653
0.0172144
0.0177392
0.0182304
0.0186914
0.0191268
0.0195409
0.00668862
0.00709471
0.00756059
0.00808113
0.00865014
0.00926059
0.00990486
0.0105749
0.0112626
0.0119595
0.0126575
0.0133492
0.0140274
0.0146863
0.0153208
0.0159275
0.016504
0.0170497
0.0175647
0.0180508
0.0185102
0.018946
0.0193615
0.00750144
0.00784601
0.00824568
0.0086964
0.00919309
0.00972987
0.0103003
0.0108977
0.0115148
0.0121446
0.0127801
0.0134146
0.0140417
0.0146561
0.0152531
0.0158292
0.0163816
0.0169093
0.0174117
0.0178895
0.0183439
0.0187772
0.0191913
0.00825467
0.00854534
0.00888689
0.00927608
0.00970874
0.01018
0.0106846
0.0112166
0.01177
0.0123389
0.0129169
0.0134983
0.0140775
0.0146495
0.01521
0.0157554
0.016283
0.0167911
0.0172787
0.0177458
0.0181928
0.0186209
0.0190314
0.00894911
0.00919293
0.00948373
0.00981889
0.0101951
0.0106083
0.0110542
0.0115278
0.0120239
0.0125375
0.0130631
0.0135957
0.0141302
0.0146621
0.0151875
0.0157028
0.0162052
0.0166929
0.0171644
0.017619
0.0180566
0.0184777
0.0188828
0.0095863
0.00978935
0.0100358
0.0103237
0.0106503
0.0110123
0.0114062
0.0118277
0.0122726
0.0127363
0.0132144
0.0137022
0.0141954
0.0146899
0.0151818
0.0156681
0.0161457
0.0166127
0.0170672
0.0175082
0.0179351
0.0183476
0.0187458
0.0101669
0.0103348
0.0105428
0.0107894
0.0110726
0.0113898
0.0117378
0.0121132
0.0125124
0.0129316
0.0133667
0.0138139
0.0142692
0.014729
0.0151897
0.0156482
0.0161018
0.0165482
0.0169855
0.0174124
0.0178276
0.0182307
0.0186211
0.0106915
0.0108291
0.011004
0.011215
0.0114606
0.0117386
0.0120464
0.0123813
0.0127402
0.0131197
0.0135165
0.0139271
0.014348
0.014776
0.0152077
0.0156403
0.016071
0.0164975
0.0169178
0.0173303
0.0177336
0.0181267
0.0185086
0.0111609
0.0112725
0.0114191
0.0115995
0.0118127
0.0120568
0.0123298
0.0126293
0.0129528
0.0132975
0.0136603
0.0140384
0.0144285
0.0148276
0.0152329
0.0156415
0.0160508
0.0164585
0.0168625
0.017261
0.0176523
0.0180352
0.0184085
0.0115751
0.011665
0.0117875
0.011942
0.0121275
0.0123425
0.0125856
0.0128547
0.0131476
0.0134619
0.0137951
0.0141445
0.0145074
0.0148809
0.0152624
0.0156493
0.016039
0.0164293
0.016818
0.0172032
0.017583
0.017956
0.0183207
0.0119342
0.0120061
0.0121084
0.0122411
0.0124034
0.012594
0.0128117
0.013055
0.0133219
0.0136103
0.013918
0.0142427
0.0145819
0.0149331
0.0152937
0.0156614
0.0160336
0.0164082
0.0167829
0.0171558
0.0175249
0.0178887
0.0182453
0.0122374
0.0122943
0.0123806
0.0124955
0.0126387
0.0128092
0.0130061
0.0132279
0.0134731
0.0137399
0.0140263
0.0143302
0.0146494
0.0149815
0.0153243
0.0156755
0.0160326
0.0163934
0.0167559
0.0171179
0.0174774
0.0178327
0.018182
0.0124844
0.0125296
0.0126029
0.0127037
0.0128317
0.0129863
0.0131664
0.0133711
0.0135989
0.0138483
0.0141174
0.0144045
0.0147074
0.015024
0.0153522
0.0156897
0.0160342
0.0163836
0.0167357
0.0170885
0.0174399
0.017788
0.0181309
0.0126734
0.01271
0.0127736
0.0128638
0.0129805
0.013123
0.0132906
0.0134823
0.0136969
0.013933
0.0141891
0.0144633
0.0147537
0.0150584
0.0153753
0.0157022
0.0160369
0.0163774
0.0167214
0.0170669
0.0174119
0.0177542
0.0180921
0.0128025
0.0128334
0.0128904
0.0129735
0.0130825
0.0132169
0.013376
0.0135589
0.0137647
0.0139918
0.014239
0.0145044
0.0147863
0.0150829
0.015392
0.0157116
0.0160396
0.0163739
0.0167123
0.0170527
0.0173931
0.0177314
0.0180658
0.012869
0.0128968
0.0129506
0.0130301
0.0131352
0.0132654
0.0134202
0.0135986
0.0137998
0.0140224
0.0142649
0.0145259
0.0148034
0.0150957
0.0154009
0.0157167
0.0160412
0.0163723
0.0167077
0.0170455
0.0173835
0.0177198
0.0180522
0.0101131
0.0101333
0.0101807
0.0102557
0.0103586
0.0104893
0.0106477
0.0108334
0.0110456
0.0112835
0.011546
0.0118315
0.0121384
0.0124648
0.0128085
0.013167
0.0135377
0.0139178
0.0143042
0.0146939
0.0150834
0.0154697
0.0100435
0.0100659
0.0101158
0.0101936
0.0102997
0.0104339
0.0105961
0.0107859
0.0110024
0.0112449
0.011512
0.0118024
0.0121142
0.0124456
0.0127942
0.0131576
0.0135332
0.013918
0.0143089
0.0147028
0.0150963
0.0154862
0.00990827
0.00993482
0.00998962
0.0100731
0.0101854
0.0103265
0.0104961
0.0106938
0.0109188
0.0111701
0.0114463
0.0117461
0.0120675
0.0124085
0.0127669
0.0131399
0.0135248
0.0139187
0.0143184
0.0147206
0.0151217
0.0155186
0.00971023
0.00974304
0.0098051
0.00989681
0.0100183
0.0101696
0.0103502
0.0105596
0.010797
0.0110612
0.0113509
0.0116645
0.012
0.0123552
0.0127277
0.0131147
0.0135135
0.0139207
0.0143331
0.0147474
0.0151597
0.0155668
0.00945157
0.00949271
0.00956445
0.00966712
0.00980086
0.00996548
0.0101605
0.0103854
0.010639
0.0109203
0.0112276
0.0115593
0.0119132
0.012287
0.012678
0.0130834
0.0135001
0.0139248
0.0143539
0.0147838
0.0152108
0.0156311
0.0091338
0.00918538
0.00926923
0.00938565
0.00953463
0.0097159
0.00992893
0.0101729
0.0104467
0.010749
0.0110782
0.0114322
0.0118088
0.0122054
0.0126193
0.0130473
0.0134861
0.0139321
0.0143817
0.0148309
0.0152757
0.0157122
0.00875775
0.00882207
0.00892065
0.00905368
0.00922102
0.00942229
0.00965684
0.00992369
0.0102216
0.010549
0.0109041
0.0112846
0.0116882
0.012112
0.0125529
0.0130077
0.0134726
0.013944
0.0144176
0.0148895
0.0153553
0.0158109
0.00832393
0.00840348
0.0085195
0.00867211
0.00886106
0.00908582
0.00934554
0.0096391
0.00996506
0.0103217
0.0107069
0.0111182
0.011553
0.0120082
0.0124804
0.0129661
0.0134612
0.0139617
0.0144632
0.0149612
0.0154511
0.0159284
0.0078324
0.00792989
0.00806629
0.00824164
0.00845559
0.00870741
0.00899609
0.00932029
0.00967838
0.0100684
0.0104879
0.0109343
0.0114047
0.0118955
0.0124033
0.012924
0.0134533
0.0139868
0.0145198
0.0150473
0.0155643
0.0160661
0.0072831
0.00740136
0.00756125
0.00776272
0.00800522
0.00828786
0.00860941
0.00896833
0.0093627
0.00979031
0.0102485
0.0107344
0.0112446
0.0117755
0.0123231
0.012883
0.0134506
0.014021
0.014589
0.0151493
0.0156966
0.0162255
0.00667588
0.00681779
0.00700445
0.00723558
0.00751041
0.00782781
0.00818632
0.00858414
0.00901911
0.00948871
0.00999003
0.0105198
0.0110743
0.0116496
0.0122413
0.0128447
0.0134546
0.0140657
0.0146725
0.0152691
0.0158497
0.0164083
0.00600979
0.00617878
0.00639583
0.00666042
0.00697154
0.00732781
0.00772753
0.00816862
0.00864861
0.00916468
0.00971361
0.0102918
0.0108951
0.0115193
0.0121595
0.0128106
0.013467
0.0141228
0.0147721
0.0154084
0.0160253
0.0166163
0.0052841
0.00548387
0.00573518
0.00603727
0.00638888
0.00678837
0.00723372
0.00772258
0.00825216
0.0088193
0.00942046
0.0100516
0.0107084
0.011386
0.0120792
0.0127823
0.0134894
0.014194
0.0148895
0.015569
0.0162253
0.0168515
0.00449804
0.00473252
0.00502224
0.00536614