/*--------------------------------*- C++ -*----------------------------------*\
  =========                 |
  \\      /  F ield         | OpenFOAM: The Open Source CFD Toolbox
   \\    /   O peration     | Website:  https://openfoam.org
    \\  /    A nd           | Version:  7
     \\/     M anipulation  |
\*---------------------------------------------------------------------------*/
FoamFile
{
    version     2.0;
    format      ascii;
    class       surfaceScalarField;
    location    "160";
    object      phi;
}
// * * * * * * * * * * * * * * * * * * * * * * * * * * * * * * * * * * * * * //

dimensions      [0 3 -1 0 0 0 0];

internalField   nonuniform List<scalar> 
8923
(
0.000723162
-0.00897054
0.00889781
0.000748028
-0.00932826
0.00930339
0.000720772
-0.0094655
0.00949276
0.000659274
-0.00956253
0.00962403
0.000624039
-0.00936385
0.00939909
0.00067982
-0.00813739
0.00808161
0.00082755
-0.00545826
0.00531053
0.00101955
-0.00178283
0.00159083
0.00121159
0.00200895
-0.00220099
0.00137449
0.00519153
-0.00535443
0.00149274
0.00740822
-0.00752647
0.00156221
0.00869551
-0.00876498
0.00159033
0.00931305
-0.00934116
0.00159048
0.00949393
-0.00949408
0.00156523
0.00947306
-0.00944782
0.00150551
0.00960652
-0.00954681
0.00141696
0.00998881
-0.00990026
0.00133539
0.00996567
-0.0098841
0.0013017
0.00851058
-0.00847688
0.00132943
0.00526615
-0.00529388
0.00140425
0.000963052
-0.00103787
0.00149793
-0.00320483
0.00311114
-0.0063958
0.00631185
0.000736453
-0.00903529
0.000755553
-0.00934736
0.000723794
-0.00943374
0.000655411
-0.00949415
0.0006084
-0.00931684
0.000652429
-0.00818142
0.000795585
-0.00560142
0.000990411
-0.00197765
0.0011894
0.00180996
0.00136078
0.00502014
0.00148717
0.00728183
0.00156347
0.00861921
0.00159708
0.00927944
0.00160137
0.00948964
0.00157882
0.00949562
0.00152095
0.00966439
0.00143431
0.0100755
0.00135431
0.0100457
0.00132006
0.00854483
0.00134431
0.0052419
0.00141388
0.00089348
0.0015021
-0.00329304
-0.0064748
0.000749896
-0.00909201
0.000763323
-0.00936078
0.000727538
-0.00939796
0.000653153
-0.00941977
0.000594954
-0.00925864
0.000626772
-0.00821324
0.000764346
-0.00573899
0.000961239
-0.00217455
0.00116674
0.00160447
0.0013464
0.00484047
0.00148089
0.00714735
0.00156409
0.00853601
0.00160334
0.00924018
0.00161194
0.00948104
0.00159225
0.0095153
0.00153646
0.00972018
0.00145194
0.01016
0.00137351
0.0101241
0.0013385
0.00857984
0.00135904
0.00522136
0.00142317
0.000829353
0.0015058
-0.00337567
-0.00654884
0.000763462
-0.00914067
0.000771295
-0.00936861
0.000731923
-0.00935859
0.000652425
-0.00934027
0.000583735
-0.00918995
0.000602994
-0.0082325
0.000733966
-0.00586997
0.000932115
-0.0023727
0.00114365
0.00139293
0.00133135
0.00465277
0.00147387
0.00700484
0.00156406
0.00844582
0.00160911
0.00919513
0.00162216
0.00946799
0.00160552
0.00953194
0.00155203
0.00977367
0.00146981
0.0102422
0.00139296
0.010201
0.00135702
0.00861579
0.00137362
0.00520475
0.00143211
0.00077086
0.00150904
-0.0034526
-0.0066179
0.000777116
-0.00918126
0.000779429
-0.00937093
0.000736863
-0.00931602
0.00065313
-0.00925654
0.000574752
-0.00911157
0.000581225
-0.00823898
0.00070458
-0.00599332
0.000903122
-0.00257124
0.00112017
0.00117588
0.00131564
0.0044573
0.0014661
0.00685438
0.00156335
0.00834857
0.00161433
0.00914415
0.00163199
0.00945033
0.00161858
0.00954536
0.00156763
0.00982461
0.0014879
0.0103219
0.00141261
0.0102762
0.00137557
0.00865282
0.00138803
0.00519229
0.00144071
0.000718178
0.00151184
-0.00352372
-0.00668198
0.000790818
-0.00921379
0.00078768
-0.00936779
0.000742271
-0.00927061
0.000655158
-0.00916942
0.000567987
-0.0090244
0.000561584
-0.00823257
0.000676323
-0.00610806
0.000874344
-0.00276926
0.00109635
0.000953874
0.00129928
0.00425437
0.00145758
0.00669608
0.00156194
0.00824421
0.001619
0.00908709
0.00164141
0.00942792
0.0016314
0.00955536
0.00158323
0.00987279
0.00150616
0.010399
0.00143243
0.01035
0.00139415
0.0086911
0.00140228
0.00518417
0.00144898
0.000671473
0.0015142
-0.00358894
-0.00674107
0.000804521
-0.00923831
0.000796003
-0.00935927
0.000748056
-0.00922266
0.000658384
-0.00907975
0.000563395
-0.00892941
0.00054417
-0.00821335
0.000649331
-0.00621322
0.000845866
-0.00296579
0.00107221
0.000727527
0.00128226
0.00404432
0.00144828
0.00653006
0.00155981
0.00813269
0.00162306
0.00902384
0.00165038
0.00940061
0.00164396
0.00956178
0.00159879
0.00991797
0.00152455
0.0104732
0.00145239
0.0104221
0.00141273
0.00873077
0.00141635
0.00518055
0.00145692
0.000630898
0.00151615
-0.00364816
-0.00679516
0.000818177
-0.00925488
0.000804352
-0.00934545
0.000754127
-0.00917244
0.000662672
-0.0089883
0.000560903
-0.00882764
0.000529062
-0.00818151
0.000623737
-0.00630789
0.000817773
-0.00315983
0.00104781
0.000497488
0.00126461
0.00382753
0.0014382
0.00635647
0.00155692
0.00801396
0.0016265
0.00895426
0.00165886
0.00936825
0.00165622
0.00956442
0.00161427
0.00995991
0.00154303
0.0105445
0.00147245
0.0104927
0.00143128
0.00877194
0.00143023
0.0051816
0.00146454
0.000596592
0.00151768
-0.0037013
-0.00684426
0.00083173
-0.0092636
0.000812678
-0.0093264
0.000760396
-0.00912016
0.000667878
-0.00889578
0.000560414
-0.00872018
0.000516317
-0.00813741
0.000599673
-0.00639125
0.000790152
-0.00335031
0.00102318
0.000264456
0.00124632
0.00360439
0.00142732
0.00617547
0.00155326
0.00788802
0.00162927
0.00887825
0.00166681
0.00933071
0.00166813
0.00956309
0.00162964
0.00999841
0.00156156
0.0106125
0.00149256
0.0105617
0.00144977
0.00881474
0.00144391
0.00518745
0.00147182
0.00056868
0.0015188
-0.00374828
-0.00688835
0.000845121
-0.00926456
0.000820933
-0.00930221
0.000766773
-0.009066
0.00067385
-0.00880285
0.000561805
-0.00860814
0.000505968
-0.00808157
0.000577265
-0.00646255
0.000763093
-0.00353614
0.000998372
2.9177e-05
0.00122741
0.00337535
0.00141563
0.00598724
0.00154879
0.00775486
0.00163134
0.00879571
0.0016742
0.00928785
0.00167967
0.00955762
0.00164484
0.0100332
0.00158009
0.0106773
0.00151268
0.0106291
0.00146817
0.00885925
0.00145739
0.00519823
0.00147879
0.000547277
0.00151952
-0.00378901
-0.00692744
0.000858289
-0.0092579
0.000829066
-0.00927298
0.000773175
-0.00901011
0.000680433
-0.00871011
0.000564929
-0.00849263
0.000498021
-0.00801467
0.000556637
-0.00652116
0.000736688
-0.00371619
0.000973417
-0.000207552
0.00120789
0.00314088
0.00140312
0.00579201
0.0015435
0.00761448
0.00163267
0.00870654
0.00168098
0.00923953
0.00169078
0.00954783
0.00165984
0.0100642
0.00159857
0.0107386
0.00153277
0.0106949
0.00148646
0.00890556
0.00147064
0.00521405
0.00148543
0.000532482
0.00151986
-0.00382344
0.00155395
-0.00696153
-0.00875534
0.000871171
-0.00924375
0.000837027
-0.00923884
0.00077952
-0.0089526
0.000687473
-0.00861806
0.000569619
-0.00837478
0.000492454
-0.0079375
0.000537902
-0.00656661
0.000711037
-0.00388932
0.000948357
-0.000444871
0.00118776
0.00290147
0.00138978
0.00559
0.00153735
0.00746691
0.00163322
0.00861067
0.00168712
0.00918564
0.00170142
0.00953353
0.00167459
0.010091
0.00161695
0.0107962
0.00155278
0.0107591
0.0015046
0.00895373
0.00148365
0.00523501
0.00149175
0.000524377
0.00151981
-0.0038515
0.0015489
-0.00699061
-0.00877089
0.000883701
-0.00922228
0.000844764
-0.0091999
0.00078573
-0.00889357
0.000694814
-0.00852715
0.000575691
-0.00825565
0.000489217
-0.00785103
0.000521162
-0.00659856
0.000686227
-0.00405439
0.000923246
-0.00068189
0.00116705
0.00265767
0.00137559
0.00538145
0.00153032
0.00731219
0.00163297
0.00850802
0.00169256
0.00912604
0.00171155
0.00951455
0.00168903
0.0101135
0.00163517
0.0108501
0.00157266
0.0108216
0.00152257
0.00900383
0.0014964
0.00526118
0.00149775
0.000523033
0.00151939
-0.00387314
0.00154347
-0.00701469
-0.00878275
0.000895814
-0.00919366
0.000852225
-0.00915631
0.000791735
-0.00883307
0.000702306
-0.00843772
0.000582947
-0.00813629
0.000488228
-0.00775631
0.000506506
-0.00661683
0.000662363
-0.00421025
0.000898131
-0.000917658
0.00114576
0.00241003
0.00136056
0.00516665
0.00152238
0.00715038
0.00163186
0.00839854
0.00169727
0.00906062
0.00172111
0.00949071
0.00170311
0.0101315
0.00165317
0.0109
0.00159238
0.0108824
0.00154033
0.00905588
0.00150889
0.00529261
0.00150342
0.000528504
0.0015186
-0.00388832
0.00153767
-0.00703376
-0.008791
0.000907445
-0.00915808
0.000859358
-0.00910823
0.000797466
-0.00877118
0.000709805
-0.00835006
0.000591179
-0.00801767
0.000489377
-0.00765451
0.000494003
-0.00662146
0.000639555
-0.0043558
0.000873066
-0.00115117
0.00112392
0.00215918
0.00134468
0.00494589
0.00151351
0.00698155
0.00162987
0.00828219
0.0017012
0.00898929
0.00173006
0.00946185
0.00171677
0.0101448
0.00167091
0.0109459
0.00161187
0.0109414
0.00155784
0.00910991
0.00152109
0.00532936
0.00150877
0.000540831
0.00151745
-0.00389701
0.00153152
-0.00704783
-0.00879568
0.000918531
-0.00911571
0.000866111
-0.00905581
0.000802864
-0.00870794
0.000717174
-0.00826437
0.000600173
-0.00790067
0.000492523
-0.00754686
0.000483705
-0.00661264
0.00061792
-0.00449001
0.00084811
-0.00138136
0.00110154
0.00190575
0.00132794
0.00471949
0.0015037
0.00680579
0.00162695
0.00815893
0.00170431
0.00891193
0.00173835
0.00942781
0.00172996
0.0101532
0.00168832
0.0109875
0.0016311
0.0109987
0.00157508
0.00916592
0.00153299
0.00537145
0.00151378
0.000560041
0.00151594
-0.00389917
0.001525
-0.00705689
-0.00879686
0.000929007
-0.00906678
0.000872432
-0.00899923
0.00080787
-0.00864337
0.000724285
-0.00818078
0.000609711
-0.00778609
0.0004975
-0.00743465
0.000475641
-0.00659078
0.000597579
-0.00461195
0.000823333
-0.00160711
0.00107866
0.00165042
0.00131035
0.0044878
0.00149291
0.00662324
0.00162308
0.00802876
0.00170655
0.00882847
0.00174593
0.00938842
0.00174263
0.0101565
0.00170535
0.0110248
0.00165001
0.011054
0.00159201
0.00922392
0.00154457
0.0054189
0.00151846
0.000586147
0.00151407
-0.00389478
0.00151814
-0.00706096
-0.00879458
0.000938817
-0.0090115
0.00087827
-0.00893868
0.000812434
-0.00857754
0.000731024
-0.00809937
0.000619578
-0.00767465
0.000504115
-0.00731918
0.000469809
-0.00655648
0.00057865
-0.00472079
0.000798812
-0.00182728
0.00105531
0.00139392
0.00129191
0.00425119
0.00148113
0.00643402
0.00161821
0.00789167
0.00170787
0.00873881
0.00175274
0.00934355
0.00175471
0.0101545
0.00172194
0.0110576
0.00166856
0.0111074
0.00160861
0.00928387
0.00155581
0.0054717
0.0015228
0.00061915
0.00151186
-0.00388384
0.00151093
-0.00706002
-0.00878889
0.000947901
-0.00895008
0.000883576
-0.00887436
0.000816508
-0.00851047
0.000737284
-0.00802015
0.000629562
-0.00756693
0.000512153
-0.00720178
0.000466182
-0.00651051
0.000561252
-0.00481586
0.000774637
-0.00204066
0.00103152
0.00113704
0.00127263
0.00401008
0.00146835
0.0062383
0.00161232
0.0077477
0.00170823
0.0086429
0.00175873
0.00929306
0.00176614
0.0101471
0.00173803
0.0110857
0.0016867
0.0111587
0.00162483
0.00934575
0.00156669
0.00552983
0.00152681
0.00065903
0.00150931
-0.00386634
0.00150337
-0.00705408
-0.00877986
0.000956209
-0.00888277
0.0008883
-0.00880645
0.00082005
-0.00844222
0.000742974
-0.00794307
0.000639462
-0.00746341
0.000521384
-0.0070837
0.0004647
-0.00645382
0.000545495
-0.00489666
0.000750911
-0.00224608
0.00100734
0.000880616
0.00125252
0.00376489
0.00145456
0.00603627
0.00160538
0.00759688
0.0017076
0.00854068
0.00176385
0.0092368
0.00177687
0.0101341
0.00175356
0.011109
0.00170438
0.0112079
0.00164064
0.00940948
0.0015772
0.00559328
0.00153047
0.00070576
0.00150641
-0.00384228
0.00149548
-0.00704314
-0.00876752
0.00096369
-0.00880981
0.000892398
-0.00873516
0.00082302
-0.00837284
0.000748014
-0.00786807
0.000649085
-0.00736448
0.000531564
-0.00696618
0.000465271
-0.00638753
0.000531482
-0.00496287
0.000727747
-0.00244234
0.000982825
0.000625538
0.00123161
0.00351611
0.00143974
0.00582814
0.00159735
0.00743927
0.00170592
0.00843211
0.00176805
0.00917467
0.00178683
0.0101153
0.00176847
0.0111273
0.00172156
0.0112548
0.00165602
0.00947501
0.00158733
0.00566197
0.00153378
0.000759307
0.00150319
-0.00381169
0.00148725
-0.0070272
-0.00875192
0.0009703
-0.00873144
0.000895824
-0.00866068
0.000825383
-0.0083024
0.000752336
-0.00779502
0.000658254
-0.0072704
0.000542441
-0.00685036
0.000467771
-0.00631286
0.000519294
-0.00501439
0.00070527
-0.00262832
0.00095805
0.000372758
0.0012099
0.00326425
0.00142389
0.00561415
0.0015882
0.00727496
0.00170316
0.00831715
0.00177128
0.00910655
0.00179597
0.0100906
0.00178271
0.0111406
0.00173818
0.0112993
0.00167094
0.00954226
0.00159705
0.00573587
0.00153674
0.000819611
0.00149963
-0.00377457
0.00147869
-0.00700626
-0.0087331
0.000976
-0.00864793
0.000898539
-0.00858322
0.000827107
-0.00823097
0.000755886
-0.0077238
0.000666806
-0.00718132
0.00055376
-0.00673732
0.000472044
-0.00623114
0.000508995
-0.00505134
0.000683619
-0.00280294
0.000933101
0.000123277
0.00118745
0.0030099
0.00140701
0.00539459
0.00157793
0.00710405
0.00169928
0.00819579
0.00177349
0.00903235
0.00180423
0.0100599
0.00179623
0.0111486
0.00175422
0.0113413
0.00168536
0.00961111
0.00160635
0.00581488
0.00153935
0.000886607
0.00149574
-0.00373097
0.0014698
-0.00698032
-0.0087111
0.000980754
-0.00855956
0.000900504
-0.00850297
0.000828161
-0.00815863
0.000758618
-0.00765426
0.000674596
-0.0070973
0.000565268
-0.00662799
0.000477906
-0.00614378
0.000500623
-0.00507406
0.000662924
-0.00296524
0.000908057
-0.000121856
0.00116428
0.00275368
0.00138911
0.00516976
0.0015665
0.00692666
0.00169424
0.00806805
0.00177462
0.00895197
0.00181155
0.010023
0.00180895
0.0111512
0.00176961
0.0113807
0.00169927
0.00968146
0.00161522
0.00589893
0.00154161
0.000960219
0.00149154
-0.00368089
0.00146059
-0.00694937
-0.00868594
0.000984532
0.000901684
-0.00842012
0.000828516
-0.00808546
0.000760499
-0.00758624
0.000681498
-0.0070183
0.00057672
-0.00652321
0.000485146
-0.00605221
0.000494181
-0.00508309
0.000643368
-0.00311443
0.000882974
-0.000361462
0.00114045
0.0024962
0.0013702
0.00494001
0.00155389
0.00674297
0.00168801
0.00793394
0.00177463
0.00886534
0.00181788
0.00997972
0.00182084
0.0111482
0.00178433
0.0114172
0.00171262
0.00975317
0.00162365
0.0059879
0.00154351
0.00104036
0.00148701
-0.0036244
0.00145106
-0.00691341
-0.00865767
0.00090205
-0.00833487
0.000828147
-0.00801155
0.000761503
-0.0075196
0.000687402
-0.0069442
0.00058788
-0.00642369
0.000493535
-0.00595786
0.000489642
-0.0050792
0.000624986
-0.00324977
0.000858043
-0.000594519
0.001116
0.00223825
0.00135028
0.00470573
0.00154011
0.00655313
0.00168055
0.00779349
0.00177348
0.00877241
0.00182316
0.00993004
0.00183183
0.0111396
0.00179832
0.0114507
0.0017254
0.00982609
0.00163162
0.00608168
0.00154505
0.00112693
0.00148218
-0.00356152
0.00144121
-0.00687244
-0.0086263
0.000901575
-0.00824739
0.00082703
-0.00793701
0.000761613
-0.00745418
0.000692221
-0.00687481
0.000598525
-0.00632999
0.000502827
-0.00586216
0.00048694
-0.00506331
0.000607919
-0.00337075
0.000833346
-0.000819946
0.00109101
0.00198059
0.00132938
0.00446736
0.00152513
0.00635738
0.00167184
0.00764678
0.00177112
0.00867314
0.00182733
0.00987383
0.00184188
0.011125
0.00181155
0.011481
0.00173759
0.00990005
0.00163914
0.00618013
0.00154625
0.00121982
0.00147704
-0.00349231
0.00143104
-0.00682644
-0.00859186
0.000900235
-0.00815787
0.00082514
-0.00786191
0.000760818
-0.00738986
0.000695883
-0.00680987
0.000608451
-0.00624256
0.000512767
-0.00576648
0.000485978
-0.00503652
0.000592289
-0.00347706
0.000809019
-0.00103668
0.00106554
0.00172406
0.00130753
0.00422537
0.00150896
0.00615596
0.00166185
0.00749389
0.0017675
0.00856749
0.00183035
0.00981098
0.00185092
0.0111044
0.00182398
0.011508
0.00174915
0.00997489
0.00164618
0.0062831
0.0015471
0.0013189
0.0014716
-0.00341682
0.00142057
-0.00677541
-0.00855435
0.000898013
-0.00806647
0.000822459
-0.00778636
0.000759112
-0.00732651
0.000698336
-0.0067491
0.000617469
-0.00616169
0.000523096
-0.00567211
0.000486627
-0.00500005
0.000578178
-0.00356861
0.000785199
-0.0012437
0.0010397
0.00146956
0.00128477
0.0039803
0.00149159
0.00594913
0.00165057
0.00733491
0.00176259
0.00845547
0.00183216
0.00974141
0.00185892
0.0110777
0.00183557
0.0115313
0.00176007
0.0100504
0.00165275
0.00639042
0.00154761
0.00142405
0.00146587
-0.00333509
0.00140979
-0.00671933
-0.00851378
0.000894895
-0.00797337
0.000818967
-0.00771043
0.000756496
-0.00726404
0.000699545
-0.00669215
0.000625416
-0.00608756
0.000533556
-0.00558025
0.000488728
-0.00495522
0.000565643
-0.00364553
0.000762024
-0.00144008
0.00101356
0.00121802
0.00126113
0.00373273
0.00147304
0.00573722
0.00163796
0.00716999
0.00175636
0.00833707
0.00183272
0.00966506
0.00186581
0.0110446
0.00184629
0.0115508
0.00177033
0.0101263
0.00165885
0.0065019
0.00154779
0.00153512
0.00145987
-0.00324717
0.00139871
-0.00665817
-0.00847015
0.000890872
-0.00787872
0.00081465
-0.00763421
0.000752972
-0.00720236
0.00069949
-0.00663867
0.000632145
-0.00602022
0.000543898
-0.005492
0.000492096
-0.00490342
0.0005547
-0.00370813
0.000739627
-0.001625
0.000987243
0.000970409
0.00123667
0.0034833
0.00145331
0.00552057
0.00162403
0.00699927
0.00174877
0.00821233
0.00183197
0.00958186
0.00187156
0.011005
0.00185608
0.0115663
0.00177991
0.0102025
0.00166448
0.00661732
0.00154766
0.00165194
0.00145359
-0.0031531
0.00138733
-0.00659191
-0.00842347
0.000885931
-0.00778267
0.000809487
-0.00755777
0.00074854
-0.00714141
0.000698162
-0.00658829
0.000637533
-0.00595959
0.000553877
-0.00540834
0.000496526
-0.00484607
0.000545326
-0.00375693
0.000718129
-0.00179781
0.00096086
0.000727678
0.00121145
0.00323271
0.00143244
0.00529959
0.00160876
0.00682295
0.00173979
0.0080813
0.00182988
0.00949176
0.00187612
0.0109587
0.00186493
0.0115775
0.00178879
0.0102787
0.00166965
0.00673646
0.00154724
0.00177435
0.00144706
-0.00305292
0.00137566
-0.00652051
-0.00837371
0.000880047
-0.00768537
0.000803448
-0.00748117
0.000743192
-0.00708116
0.000695556
-0.00654065
0.000641471
-0.00590551
0.000563262
-0.00533014
0.000501797
-0.00478461
0.000537465
-0.0037926
0.00069763
-0.00195797
0.000934541
0.000490767
0.00118556
0.0029817
0.00141044
0.0050747
0.00159215
0.00664124
0.00172939
0.00794406
0.0018264
0.00939475
0.00187944
0.0109057
0.0018728
0.0115841
0.00179696
0.0103545
0.00167437
0.00685905
0.00154656
0.00190216
0.0014403
-0.00294666
0.0013637
-0.00644392
-0.00832087
0.000873235
-0.00758697
0.000796537
-0.00740447
0.000736946
-0.00702157
0.000691697
-0.0064954
0.000643887
-0.0058577
0.000571847
-0.00525809
0.000507688
-0.00472045
0.000531034
-0.00381595
0.000678218
-0.00210515
0.000908429
0.000260555
0.00115908
0.00273104
0.00138737
0.00484642
0.00157421
0.0064544
0.00171756
0.00780072
0.0018215
0.00929081
0.00188148
0.0108457
0.00187964
0.011586
0.0018044
0.0104297
0.00167868
0.00698476
0.00154566
0.00203519
0.00143331
-0.00283431
0.00135146
-0.00636207
-0.00826491
0.000865628
-0.00748759
0.000788859
-0.0073277
0.000729895
-0.0069626
0.000686676
-0.00645218
0.000644769
-0.00581579
0.000579469
-0.00519279
0.000513997
-0.00465498
0.000525937
-0.00382789
0.000659963
-0.00223918
0.000882687
3.78312e-05
0.00113217
0.00248156
0.0013633
0.00461529
0.00155496
0.00626274
0.00170428
0.00765139
0.00181514
0.00917995
0.0018822
0.0107787
0.00188543
0.0115828
0.00181111
0.0105041
0.00168262
0.00711324
0.00154459
0.00217322
0.00142612
-0.00271584
0.00133895
-0.0062749
-0.00820582
0.000857285
-0.00738734
0.000780451
-0.00725087
0.000722078
-0.00690423
0.00068055
-0.00641065
0.000644097
-0.00577934
0.000585961
-0.00513466
0.000520502
-0.00458952
0.000522032
-0.00382942
0.000642876
-0.00236002
0.000857448
-0.000176741
0.00110499
0.00223402
0.00133835
0.00438192
0.00153446
0.00606663
0.00168957
0.00749629
0.0018073
0.00906222
0.00188156
0.0107044
0.00189012
0.0115742
0.00181709
0.0105771
0.00168626
0.00724407
0.00154342
0.00231606
0.00141876
-0.00259118
0.00132618
-0.00618232
-0.00814357
0.000847539
0.000770731
-0.00717406
0.000713032
-0.00684653
0.000672994
-0.00637062
0.000641579
-0.00574792
0.000590956
-0.00508404
0.000526823
-0.00452539
0.00051903
-0.00382163
0.000626849
-0.00246784
0.000832784
-0.000382676
0.00107774
0.00198907
0.00131271
0.00414695
0.00151282
0.00586653
0.00167344
0.00733566
0.00179796
0.00893771
0.00187954
0.0106228
0.0018937
0.01156
0.00182241
0.0106484
0.00168979
0.00737669
0.00154233
0.00246352
0.00141131
-0.00246016
0.00131314
-0.00608415
-0.00807806
0.000758868
-0.0070975
0.000702093
-0.00678976
0.000663527
-0.00633205
0.000636822
-0.00572122
0.000594047
-0.00504126
0.00053259
-0.00446393
0.000516651
-0.00380569
0.000611618
-0.00256281
0.000808678
-0.000579736
0.00105058
0.00174716
0.00128661
0.00391092
0.0014902
0.00566293
0.00165599
0.00716987
0.00178714
0.00880656
0.00187613
0.0105338
0.00189622
0.0115399
0.00182735
0.0107173
0.00169372
0.00751032
0.00154172
0.00261552
0.00140385
-0.0023223
0.00129971
-0.00598002
-0.00800913
0.00074727
-0.00702102
0.000691235
-0.00673372
0.00065376
-0.00629457
0.000631087
-0.00569855
0.000596146
-0.00500632
0.000538513
-0.0044063
0.000515527
-0.0037827
0.0005977
-0.00264498
0.000785479
-0.000767514
0.00102396
0.00150868
0.00126049
0.00367439
0.00146697
0.00545646
0.0016374
0.00699944
0.00177494
0.00866902
0.00187146
0.0104373
0.00189791
0.0115135
0.00183236
0.0107828
0.00169833
0.00764434
0.00154138
0.00277247
0.00139612
-0.00217704
0.00128594
-0.00586983
-0.00793691
0.000742751
-0.00694328
0.000686132
-0.0066771
0.00064845
-0.00625689
0.000628386
-0.00567848
0.000600583
-0.00497852
0.000547521
-0.00435323
0.000518581
-0.00375376
0.00058818
-0.00271458
0.000766109
-0.000945444
0.00100045
0.00127434
0.00123651
0.00343833
0.0014448
0.00524817
0.00161894
0.00682529
0.00176226
0.0085257
0.00186607
0.0103335
0.001899
0.0114806
0.00183711
0.0108447
0.00170198
0.00777947
0.00153895
0.0029355
0.00138698
-0.00202506
0.00127233
-0.00575519
-0.00786238
0.00546916
-0.00651162
0.00505483
-0.00626277
0.00466578
-0.00586785
0.00431823
-0.00533093
0.00396782
-0.00462811
0.00353929
-0.0039247
0.00310146
-0.00331593
0.00285154
-0.00246466
0.0029013
-0.000995203
0.00317034
0.0010053
0.00354952
0.00305915
0.00392658
0.00487111
0.00421179
0.00654008
0.0043884
0.00834908
0.00452305
0.0101989
0.00469405
0.0113096
0.00497321
0.0105655
0.00538336
0.00736933
0.00579191
0.00252694
0.00607496
-0.00230811
0.00617003
-0.00585025
0.0061078
-0.00780015
-0.00852204
0.00565717
-0.00607948
0.00525172
-0.00585732
0.0048715
-0.00548762
0.00452962
-0.00498905
0.00420948
-0.00430797
0.00383246
-0.00354768
0.00340516
-0.00288864
0.00309775
-0.00215725
0.00305734
-0.000954791
0.00328321
0.000779427
0.00364607
0.0026963
0.00401636
0.00450082
0.00430674
0.0062497
0.00451362
0.0081422
0.00469662
0.0100159
0.00491783
0.0110884
0.00524446
0.0102389
0.00568271
0.00693107
0.00612277
0.00208687
0.00639689
-0.00258222
0.00646196
-0.00591533
0.00635812
-0.00769632
-0.00831656
0.00586655
-0.00565444
0.005468
-0.00545877
0.00509363
-0.00511324
0.00475202
-0.00464745
0.00444857
-0.00400452
0.00412018
-0.00321929
0.00372466
-0.00249311
0.00337749
-0.00181008
0.0032576
-0.000834901
0.00341376
0.000623271
0.00374257
0.00236748
0.00410231
0.00414108
0.00440326
0.00594876
0.0046431
0.00790236
0.00486983
0.00978912
0.00514362
0.0108146
0.00553274
0.0098498
0.00602521
0.0064386
0.00647727
0.00163482
0.00673541
-0.00284037
0.00675777
-0.00593768
0.00661091
-0.00754946
-0.00807879
0.00606337
-0.0052418
0.00567608
-0.00507148
0.00531337
-0.00475054
0.00497741
-0.00431148
0.00468529
-0.0037124
0.00440007
-0.00293407
0.00405318
-0.00214623
0.00369632
-0.00145322
0.00350062
-0.000639199
0.00356947
0.000554423
0.00384338
0.00209357
0.00418524
0.00379921
0.00449997
0.00563403
0.00477585
0.00762649
0.00504995
0.00951502
0.0053857
0.0104788
0.00584683
0.00938867
0.00639144
0.00589399
0.00685326
0.001173
0.00708115
-0.00306826
0.00705569
-0.00591222
0.00686386
-0.00735762
-0.00780891
0.0062565
-0.00484544
0.00588244
-0.00469743
0.00553341
-0.00440151
0.00520723
-0.0039853
0.00492302
-0.00342819
0.00467161
-0.00268265
0.00438223
-0.00185685
0.00404574
-0.00111674
0.00379261
-0.000386072
0.00376363
0.00058341
0.00396013
0.00189708
0.00427184
0.0034875
0.00459926
0.00530661
0.00491362
0.00731213
0.00524147
0.00918716
0.00564759
0.0100727
0.00618533
0.00885094
0.00678074
0.00529858
0.00724245
0.000711286
0.00742974
-0.00325554
0.00735187
-0.00583435
0.00711445
-0.00712021
-0.00750842
0.00644714
-0.0044678
0.00608808
-0.00433837
0.00575375
-0.00406718
0.00544101
-0.00367256
0.00516442
-0.0031516
0.00493589
-0.00245413
0.00470255
-0.00162351
0.00441252
-0.000826706
0.00413466
-0.000108212
0.00401371
0.000704362
0.0041143
0.00179649
0.00437715
0.00322465
0.00470866
0.0049751
0.00506094
0.00695985
0.00544705
0.00880104
0.00593037
0.00958939
0.00655022
0.00823109
0.00719134
0.00465745
0.00763874
0.000263885
0.00777514
-0.00339194
0.0076417
-0.00570091
0.00736002
-0.00683854
-0.00717997
0.00663696
-0.00411007
0.00629424
-0.00399565
0.00597489
-0.00374783
0.00567782
-0.00337549
0.00541104
-0.00288481
0.00519634
-0.00223943
0.00500879
-0.00143597
0.00478101
-0.000598921
0.00451771
0.000155089
0.00433193
0.000890137
0.0043319
0.00179652
0.00452449
0.00303206
0.00484235
0.00465723
0.00522496
0.00657724
0.00567035
0.00835566
0.00623865
0.00902109
0.00694393
0.00752581
0.00761852
0.00398286
0.0080348
-0.000152388
0.00811061
-0.00346775
0.00792069
-0.00551099
0.00759814
-0.00651599
-0.00682736
0.0068271
-0.00377261
0.00650171
-0.00367026
0.00619752
-0.00344364
0.00591683
-0.0030948
0.00566297
-0.00263096
0.00545743
-0.00203388
0.00530091
-0.00127946
0.00513671
-0.000434715
0.00492277
0.000369025
0.00471665
0.00109626
0.00463394
0.00187923
0.00474239
0.00292361
0.00502249
0.00437714
0.00541919
0.00618054
0.00592178
0.00785307
0.00658162
0.00836126
0.00736753
0.0067399
0.00805547
0.00329492
0.00842145
-0.000518369
0.00842898
-0.00347528
0.0081845
-0.00526651
0.00782666
-0.00615815
-0.00645548
0.00701845
-0.00345525
0.00671096
-0.00336277
0.00642222
-0.0031549
0.0061576
-0.00283019
0.00591912
-0.00239247
0.00572246
-0.00183722
0.00558372
-0.00114072
0.00547131
-0.000322306
0.00532592
0.000514419
0.00514826
0.00127392
0.00502483
0.00200265
0.00505618
0.00289226
0.00527865
0.00415467
0.00566853
0.00579065
0.00622256
0.00729904
0.00697268
0.00761113
0.00782054
0.00589204
0.00849233
0.00262312
0.0087882
-0.000814232
0.00872305
-0.00341013
0.00842935
-0.00497282
0.008044
-0.0057728
-0.00607012
0.00721165
-0.00315753
0.00692222
-0.00307335
0.00664934
-0.00288203
0.00640019
-0.00258104
0.00617801
-0.00217029
0.00599256
-0.00165176
0.00586368
-0.00101184
0.00578522
-0.000243846
0.00570734
0.000592297
0.00559397
0.0013873
0.00548407
0.00211255
0.00547286
0.00290347
0.00563806
0.00398947
0.0060067
0.00542202
0.00660241
0.00670333
0.00742534
0.0067882
0.00829724
0.00502015
0.00891488
0.00200548
0.00912319
-0.00102254
0.00898633
-0.00327327
0.00865259
-0.00463907
0.00824931
-0.00536951
-0.00567766
0.00740713
-0.00287891
0.0071356
-0.00280182
0.00687893
-0.00262535
0.00664486
-0.00234696
0.00643862
-0.00196405
0.00626668
-0.00147983
0.00614571
-0.000890872
0.00608545
-0.000183582
0.00605891
0.000618836
0.00602125
0.00142496
0.00596984
0.00216395
0.00596748
0.00290583
0.00610403
0.00385292
0.00645617
0.00506988
0.00708137
0.00607812
0.00793852
0.00593105
0.00877893
0.00417974
0.00930338
0.00148103
0.00941445
-0.00113361
0.00921416
-0.00307298
0.00885315
-0.00427806
0.00844265
-0.00495902
-0.00528463
0.00760516
-0.00261879
0.0073512
-0.00254787
0.00711085
-0.002385
0.00689172
-0.00212783
0.00670058
-0.00177292
0.00654317
-0.00132242
0.00643141
-0.000779111
0.00638035
-0.000132522
0.00638476
0.000614428
0.00641152
0.0013982
0.0064371
0.00213837
0.00648739
0.00285554
0.00663979
0.00370052
0.006999
0.00471067
0.00764039
0.00543673
0.00847922
0.00509222
0.0092303
0.00342866
0.00963494
0.00107638
0.00965263
-0.0011513
0.00940503
-0.00282539
0.00903196
-0.00390498
0.008625