/*--------------------------------*- C++ -*----------------------------------*\
  =========                 |
  \\      /  F ield         | OpenFOAM: The Open Source CFD Toolbox
   \\    /   O peration     | Website:  https://openfoam.org
    \\  /    A nd           | Version:  7
     \\/     M anipulation  |
\*---------------------------------------------------------------------------*/
FoamFile
{
    version     2.0;
    format      ascii;
    class       volVectorField;
    location    "300";
    object      U;
}
// * * * * * * * * * * * * * * * * * * * * * * * * * * * * * * * * * * * * * //

dimensions      [0 1 -1 0 0 0 0];

internalField   nonuniform List<vector> 
4575
(
(0.0250141 -0.00424552 1.93401e-20)
(0.0987918 -0.0101711 1.94368e-20)
(0.196498 -0.00747536 7.09022e-20)
(0.0287484 -0.00442195 2.27687e-20)
(0.109839 -0.00990748 7.9482e-20)
(0.214628 -0.00587565 6.14796e-20)
(0.339162 0.00520281 1.67997e-20)
(0.478457 0.0229196 1.55e-19)
(0.0326741 -0.00448664 -1.02547e-19)
(0.121319 -0.00930542 -3.53281e-20)
(0.233281 -0.00372862 -1.14462e-19)
(0.36424 0.00942128 -6.18978e-20)
(0.508694 0.029466 -3.11322e-20)
(0.659577 0.0549818 -9.67047e-20)
(0.808866 0.0838765 -5.93759e-20)
(0.948582 0.113732 1.0466e-19)
(0.0367846 -0.0044286 3.39549e-20)
(0.133205 -0.00834005 -5.40413e-20)
(0.2524 -0.00100544 8.97887e-20)
(0.389675 0.014381 4.10421e-20)
(0.539005 0.0368476 -5.79263e-20)
(0.692825 0.0646515 7.00075e-20)
(0.842792 0.0954044 1.70869e-20)
(0.980914 0.126481 -3.02811e-20)
(1.10076 0.15539 3.60176e-20)
(1.19837 0.180168 -2.74885e-20)
(1.27257 0.199616 -7.6147e-20)
(1.32466 0.213358 -7.47182e-21)
(0.0410717 -0.00423701 -1.68276e-20)
(0.145464 -0.00698784 8.83677e-21)
(0.271924 0.00231982 -8.20646e-20)
(0.415372 0.0201011 5.16408e-20)
(0.569266 0.0450689 4.72748e-20)
(0.725579 0.0751497 -6.61035e-20)
(0.875719 0.107665 2.99922e-20)
(1.01178 0.139807 -5.7311e-20)
(1.12775 0.169043 -8.00622e-20)
(1.22034 0.193496 2.84359e-20)
(1.2891 0.212151 5.1664e-21)
(1.33601 0.224838 4.26319e-20)
(1.36458 0.232052 6.55707e-20)
(1.379 0.234691 -3.124e-21)
(1.38337 0.233798 1.08845e-20)
(0.0455257 -0.00390144 -1.89386e-20)
(0.158061 -0.00522681 -2.27312e-20)
(0.291785 0.00626994 8.67981e-20)
(0.441231 0.0265959 -1.05497e-20)
(0.599353 0.0541287 4.05478e-22)
(0.757706 0.0864569 -4.49928e-20)
(0.907528 0.120624 -7.77431e-21)
(1.04109 0.153668 3.07453e-20)
(1.1529 0.18305 1.03423e-19)
(1.24035 0.207019 -3.25785e-20)
(1.30375 0.22476 5.51545e-21)
(1.34566 0.236319 1.70856e-20)
(1.37 0.242376 -3.28009e-20)
(1.38112 0.243955 -2.08094e-20)
(1.38308 0.242161 5.48412e-21)
(1.37925 0.238002 2.70188e-20)
(1.37211 0.232284 -6.61333e-21)
(1.36332 0.225614 -4.13002e-22)
(1.35383 0.21838 2.3387e-20)
(0.0501353 -0.0034119 3.30005e-20)
(0.170957 -0.00303689 6.35861e-20)
(0.311912 0.0108642 4.30271e-20)
(0.467153 0.0338748 -2.30678e-20)
(0.629145 0.0640203 8.40335e-20)
(0.789079 0.0985485 4.88276e-20)
(0.938111 0.134242 -7.18975e-20)
(1.06879 0.168017 -2.46631e-20)
(1.17618 0.197369 4.37109e-22)
(1.25845 0.220702 -1.98171e-20)
(1.31659 0.23742 -5.62517e-20)
(1.35373 0.24779 9.19617e-21)
(1.37412 0.252668 1.06121e-22)
(1.38223 0.253189 -5.60305e-20)
(1.38205 0.250509 2.52821e-20)
(1.37681 0.24564 -1.34001e-20)
(1.36879 0.239366 -5.83774e-20)
(1.35949 0.232258 2.7899e-20)
(1.3497 0.224651 -5.83659e-20)
(1.33977 0.216583 2.5189e-20)
(0.0548878 -0.00275901 -1.1576e-20)
(0.184108 -0.000400122 -2.73019e-20)
(0.332233 0.0161181 -4.47405e-20)
(0.493034 0.0419422 -2.11773e-21)
(0.65852 0.0747314 -3.88594e-21)
(0.81958 0.111395 -4.62326e-20)
(0.967375 0.148478 1.03779e-20)
(1.09481 0.18281 9.60627e-21)
(1.19761 0.211958 -1.96252e-20)
(1.27467 0.234512 1.58606e-21)
(1.32769 0.25011 2.96612e-20)
(1.36031 0.25924 -3.85942e-21)
(1.37705 0.262924 2.18682e-20)
(1.38242 0.262394 9.57763e-21)
(1.38034 0.258845 -5.21525e-20)
(1.37387 0.253283 3.94262e-21)
(1.36511 0.246462 3.09867e-20)
(1.35538 0.238922 -7.28359e-21)
(1.34536 0.230944 1.33882e-21)
(1.3353 0.222649 -4.90484e-21)
(0.059769 -0.00193407 -1.06223e-20)
(0.197472 0.00269907 -9.73389e-21)
(0.35267 0.0220432 -1.69487e-20)
(0.518772 0.0507974 -1.09697e-20)
(0.687363 0.0862447 -2.80141e-20)
(0.849098 0.124964 3.1972e-20)
(0.995237 0.163287 6.22523e-20)
(1.11913 0.197998 2.13472e-20)
(1.21719 0.226775 1.0737e-20)
(1.28907 0.248418 -2.51727e-20)
(1.33715 0.262812 -2.426e-22)
(1.3655 0.270661 1.57622e-20)
(1.37885 0.273141 -1.9937e-20)
(1.38175 0.271571 7.49865e-21)
(1.37801 0.26717 2.4801e-20)
(1.37047 0.260929 -8.48144e-21)
(1.36109 0.253572 -1.48253e-20)
(1.35102 0.245602 -1.35536e-20)
(1.34082 0.237251 4.77464e-20)
(1.33066 0.228723 1.66435e-20)
(0.0647636 -0.000929199 -1.90248e-20)
(0.210998 0.00627371 2.15724e-20)
(0.373145 0.0286469 -4.83011e-21)
(0.544264 0.0604347 1.48858e-20)
(0.715561 0.0985376 -1.3097e-20)
(0.877533 0.139217 -7.8801e-21)
(1.02163 0.178624 -3.0307e-20)
(1.14171 0.213538 3.51926e-21)
(1.23493 0.241782 8.3004e-21)
(1.30171 0.262393 1.82419e-20)
(1.34503 0.275508 -6.98196e-21)
(1.36937 0.282044 -5.41801e-21)
(1.37963 0.283318 4.8726e-21)
(1.38031 0.280719 -8.46629e-21)
(1.37509 0.275483 1.9001e-20)
(1.36665 0.268577 1.24226e-20)
(1.35676 0.260691 -2.1165e-21)
(1.34641 0.252291 -1.36065e-21)
(1.33607 0.243567 -1.28755e-20)
(1.32584 0.234801 -1.60243e-20)
(0.0698547 0.000262587 4.1023e-21)
(0.224639 0.010334 -6.74936e-21)
(0.393578 0.0359323 4.51717e-21)
(0.56941 0.070843 -6.09956e-21)
(0.743009 0.111583 -2.29863e-20)
(0.904793 0.154114 1.04494e-20)
(1.04648 0.194443 4.97586e-21)
(1.16254 0.229384 -2.3314e-20)
(1.25088 0.256941 -1.44219e-20)
(1.31265 0.27641 -1.35399e-21)
(1.35143 0.288183 -1.94088e-20)
(1.37202 0.29338 1.97183e-20)
(1.37944 0.29345 -4.43239e-23)
(1.37814 0.289838 -2.5534e-21)
(1.37164 0.283781 -4.80048e-21)
(1.36244 0.276222 2.3212e-21)
(1.35211 0.267814 1.59275e-21)
(1.34155 0.258985 -6.25316e-22)
(1.33112 0.249885 -4.72957e-21)
(1.32084 0.240873 5.73908e-21)
(0.0750248 0.00164726 1.37443e-21)
(0.238342 0.0148874 4.45212e-21)
(0.41389 0.0438982 2.43577e-21)
(0.594111 0.0820067 -1.11322e-21)
(0.769605 0.125349 1.51846e-20)
(0.930795 0.169611 -3.32551e-21)
(1.06976 0.210694 5.18505e-21)
(1.18162 0.24549 1.12809e-20)
(1.26505 0.272217 -1.99831e-21)
(1.32195 0.290444 4.90614e-22)
(1.35641 0.300821 5.33821e-21)
(1.37352 0.304663 -2.79611e-21)
(1.37836 0.303534 3.57741e-21)
(1.3753 0.298924 6.34064e-22)
(1.36769 0.292062 -6.56125e-21)
(1.35784 0.283861 3.13821e-22)
(1.34718 0.274935 8.28578e-21)
(1.33646 0.265675 -1.70931e-21)
(1.32597 0.256197 2.50011e-21)
(1.31566 0.246933 -2.78643e-21)
(0.0802554 0.00322974 5.6619e-22)
(0.252055 0.0199381 6.58697e-21)
(0.433999 0.0525392 3.48812e-21)
(0.618271 0.0939051 -6.95809e-22)
(0.795256 0.1398 1.40697e-20)
(0.955467 0.185663 -3.9032e-21)
(1.09142 0.227329 7.16657e-21)
(1.19894 0.261812 9.44408e-21)
(1.2775 0.287575 -1.91405e-21)
(1.32968 0.304471 4.22367e-22)
(1.36005 0.313408 6.07452e-21)
(1.37393 0.315885 -2.41336e-21)
(1.37645 0.313566 2.3403e-21)
(1.37183 0.307973 -5.64371e-22)
(1.36326 0.300321 -5.37138e-21)
(1.35288 0.291487 -1.52315e-22)
(1.34195 0.282046 8.24538e-21)
(1.33112 0.272354 -1.59629e-21)
(1.32061 0.262495 2.9572e-21)
(1.3103 0.25297 -3.15063e-21)
(0.085527 0.00501379 4.93979e-21)
(0.265725 0.0254874 -8.47452e-21)
(0.453828 0.0618452 4.23791e-21)
(0.641797 0.106513 -3.34751e-21)
(0.819876 0.154897 -2.22994e-20)
(0.978745 0.202221 8.88396e-21)
(1.11144 0.2443 4.02047e-21)
(1.21452 0.278309 -2.66998e-20)
(1.28826 0.302981 -1.10051e-20)
(1.33589 0.318468 -9.25519e-24)
(1.36241 0.32593 -1.63967e-20)
(1.37333 0.327037 1.34575e-20)
(1.37375 0.32354 -2.96744e-21)
(1.36777 0.31698 1.849e-21)
(1.35839 0.308553 -7.08591e-21)
(1.34756 0.299093 5.28765e-21)
(1.33644 0.28914 3.34097e-21)
(1.32555 0.279012 -5.76849e-22)
(1.31504 0.268769 -6.38019e-21)
(1.30475 0.258978 5.785e-21)
(0.090819 0.00700195 -1.06891e-20)
(0.279296 0.0315332 -4.57002e-21)
(0.473296 0.071802 -6.52111e-21)
(0.664602 0.119801 2.19672e-20)
(0.843383 0.170597 6.99052e-23)
(1.00057 0.219235 -1.12025e-20)
(1.12979 0.261557 -4.47291e-20)
(1.22838 0.294936 4.24956e-21)
(1.29739 0.318403 4.84798e-21)
(1.34066 0.332414 2.12146e-20)
(1.36358 0.338373 3.07679e-21)
(1.37178 0.33811 -1.72117e-20)
(1.37031 0.33345 1.59457e-20)
(1.36314 0.32594 -6.32028e-21)
(1.35308 0.316749 2.34709e-20)
(1.34191 0.30667 -2.08624e-21)
(1.33065 0.296207 1.20188e-21)
(1.31973 0.285641 1.00035e-21)
(1.30926 0.275011 -1.7037e-20)
(1.29901 0.264947 -1.01829e-20)
(0.0961108 0.00919548 -4.06971e-21)
(0.292714 0.0380705 -2.20071e-20)
(0.492327 0.0823913 1.70107e-20)
(0.686602 0.133735 -2.1144e-20)
(0.865707 0.186853 -3.73432e-20)
(1.02091 0.236654 3.18792e-20)
(1.14648 0.27905 5.13835e-20)
(1.24055 0.311653 1.79968e-20)
(1.30493 0.333811 1.22499e-20)
(1.34404 0.346287 -3.44038e-20)
(1.3636 0.350724 2.58322e-20)
(1.36932 0.349097 2.95419e-21)
(1.36618 0.343288 -3.14963e-20)
(1.35799 0.334845 1.20739e-20)
(1.34736 0.324901 4.2275e-20)
(1.33592 0.31421 -2.85018e-20)
(1.32458 0.303237 -8.01507e-21)
(1.31368 0.29223 -7.64008e-21)
(1.30327 0.28121 3.47172e-20)
(1.29308 0.270866 1.97066e-20)
(0.101381 0.0115944 2.80053e-20)
(0.305926 0.0450906 -4.4776e-20)
(0.510847 0.0935904 -6.37869e-20)
(0.707719 0.148278 2.80893e-21)
(0.886782 0.203618 -1.11304e-20)
(1.03972 0.254425 -4.38208e-20)
(1.16149 0.29673 -7.15909e-21)
(1.25104 0.328418 2.15886e-20)
(1.31093 0.349173 -3.39867e-20)
(1.3461 0.360067 2.72362e-20)
(1.36253 0.362969 3.10319e-20)
(1.36601 0.359986 -1.91329e-20)
(1.3614 0.353045 7.66559e-21)
(1.35232 0.343685 3.82377e-20)
(1.34123 0.333001 -5.00913e-20)
(1.32961 0.321702 8.62583e-21)
(1.31823 0.310219 2.31178e-20)
(1.30738 0.298768 -6.91894e-21)
(1.29706 0.287355 -7.16301e-21)
(1.28695 0.276727 -1.19333e-21)
(0.106609 0.0141972 4.14199e-20)
(0.318877 0.0525821 7.21084e-20)
(0.528785 0.105373 3.74156e-20)
(0.72788 0.163389 -4.37016e-20)
(0.906552 0.22084 1.11556e-19)
(1.05697 0.272495 1.68245e-20)
(1.17482 0.314549 -4.54256e-20)
(1.2599 0.345193 -3.20504e-20)
(1.31544 0.364461 -2.51924e-20)
(1.34689 0.373732 8.20976e-21)
(1.36044 0.375094 -2.71906e-20)
(1.36189 0.370767 8.76245e-22)
(1.35599 0.362713 -1.77708e-20)
(1.34617 0.352451 -2.37932e-20)
(1.33472 0.341037 -4.00475e-21)
(1.32297 0.329136 -2.44258e-21)
(1.3116 0.317143 -4.28157e-20)
(1.30084 0.305246 3.18535e-20)
(1.29064 0.293435 -4.76786e-20)
(1.28063 0.282519 -2.76412e-20)
(0.111772 0.0170013 -5.02956e-20)
(0.331516 0.0605302 -1.93849e-20)
(0.546072 0.117709 8.45166e-20)
(0.747018 0.179023 2.09642e-20)
(0.924967 0.238466 -7.02887e-20)
(1.07264 0.29081 -3.9921e-20)
(1.1865 0.332458 -1.3035e-20)
(1.26715 0.361939 8.24012e-20)
(1.31852 0.379646 5.76597e-20)
(1.34646 0.387264 -1.93963e-20)
(1.35736 0.387084 -1.10695e-20)
(1.357 0.381428 2.73112e-20)
(1.34997 0.37228 -2.92384e-20)
(1.33955 0.361132 1.32556e-20)
(1.32782 0.348998 5.69385e-21)
(1.31601 0.336498 -7.01985e-21)
(1.3047 0.323996 5.22709e-20)
(1.29405 0.31165 -2.16827e-20)
(1.28399 0.29944 4.30729e-20)
(1.27411 0.288232 -1.51892e-20)
(0.11685 0.0200027 -2.8352e-20)
(0.343792 0.0689173 -4.90332e-20)
(0.562644 0.130565 -7.60026e-20)
(0.765073 0.195133 4.49426e-20)
(0.941986 0.256443 2.42065e-20)
(1.08671 0.309315 -3.37746e-20)
(1.19653 0.35041 5.48177e-20)
(1.27284 0.378616 -8.27713e-20)
(1.32021 0.3947 -8.62004e-20)
(1.34488 0.400642 5.09664e-20)
(1.35336 0.398924 1.86493e-20)
(1.35138 0.391957 -2.02832e-20)
(1.34339 0.381734 3.02254e-20)
(1.33247 0.369717 2.33713e-20)
(1.32055 0.356871 -1.68184e-20)
(1.30873 0.343777 -5.66346e-21)
(1.29752 0.330766 -4.00191e-20)
(1.28702 0.317969 8.0962e-21)
(1.27713 0.305355 -3.31557e-20)
(1.2674 0.293855 -5.45816e-21)
(0.121822 0.0231961 2.35605e-20)
(0.355656 0.0777227 -3.85965e-20)
(0.578441 0.143903 6.88785e-20)
(0.781988 0.21167 1.14071e-19)
(0.957574 0.274713 -1.60302e-19)
(1.09919 0.327957 1.38053e-19)
(1.20494 0.368356 3.62986e-20)
(1.27702 0.395188 -5.1578e-20)
(1.32056 0.409594 5.96329e-20)
(1.34218 0.413845 3.45564e-20)
(1.34846 0.4106 4.19941e-20)
(1.34506 0.402341 -7.12502e-20)
(1.33626 0.391064 -1.45137e-20)
(1.32495 0.378192 3.39944e-20)
(1.31292 0.364645 1.26972e-20)
(1.30114 0.35096 5.77349e-20)
(1.29006 0.33744 7.12328e-20)
(1.27973 0.324192 -1.72506e-20)
(1.27004 0.31117 2.95492e-20)
(1.26049 0.299377 3.30687e-20)
(0.126666 0.0265747 -6.87601e-21)
(0.367061 0.0869232 -8.97684e-20)
(0.593406 0.157686 -1.20454e-19)
(0.797717 0.228582 -1.53792e-19)
(0.971702 0.293221 -1.47907e-20)
(1.11007 0.346681 5.41806e-20)
(1.21175 0.386251 -1.00394e-20)
(1.2797 0.411618 1.73096e-20)
(1.31963 0.424302 -2.63725e-20)
(1.33842 0.426853 4.34168e-20)
(1.34272 0.422094 -6.46693e-20)
(1.33807 0.412565 8.28566e-20)
(1.32859 0.400255 4.66204e-20)
(1.31699 0.386545 2.10063e-20)
(1.30492 0.372305 -3.06665e-20)
(1.29323 0.358034 -3.19534e-20)
(1.28232 0.344006 -3.00395e-20)
(1.2722 0.330304 2.14519e-21)
(1.26273 0.316868 3.86911e-20)
(1.25339 0.304785 -4.03419e-20)
(0.131362 0.0301309 -1.22579e-20)
(0.377962 0.0964929 6.98059e-20)
(0.607488 0.171869 8.60782e-20)
(0.812216 0.245814 -1.32347e-20)
(0.98435 0.311909 3.8442e-20)
(1.11935 0.365433 1.02161e-20)
(1.21699 0.404048 -5.37822e-20)
(1.28096 0.42787 4.17563e-20)
(1.31747 0.438796 3.83669e-20)
(1.33364 0.439646 -6.52151e-20)
(1.33616 0.43339 1.03179e-19)
(1.33044 0.422615 -8.41352e-20)
(1.32041 0.409293 4.77597e-20)
(1.30862 0.39476 -6.81279e-20)
(1.29656 0.379837 9.86212e-20)
(1.28501 0.364984 -6.12603e-20)
(1.27429 0.350451 -1.76992e-20)
(1.26441 0.336294 -2.3408e-20)
(1.25519 0.322436 -4.85678e-20)
(1.24607 0.310071 6.81721e-22)
(0.135892 0.0338555 8.77689e-20)
(0.388317 0.106403 8.75526e-20)
(0.62064 0.186408 -1.23843e-19)
(0.825449 0.263313 -7.39065e-20)
(0.995503 0.330718 1.07034e-19)
(1.12704 0.384158 -4.17028e-20)
(1.22068 0.421704 5.99102e-20)
(1.28081 0.44391 2.52543e-20)
(1.31411 0.45305 -5.74488e-20)
(1.32789 0.452204 -1.39593e-19)
(1.32883 0.444471 -2.42181e-20)
(1.32219 0.432475 -5.03013e-20)
(1.31174 0.418163 -7.30022e-20)
(1.29983 0.402823 5.7823e-21)
(1.28785 0.387227 -7.0877e-21)
(1.27648 0.371798 -7.04425e-21)
(1.26599 0.356764 5.52639e-20)
(1.25636 0.34215 3.92506e-20)
(1.24742 0.327863 4.12085e-21)
(1.23851 0.315226 2.23413e-20)
(0.140236 0.0377384 -2.11926e-20)
(0.398088 0.116624 1.55707e-19)
(0.63282 0.201256 5.91144e-20)
(0.837386 0.28102 1.17792e-19)
(1.00515 0.349591 3.76042e-20)
(1.13316 0.402805 1.40782e-20)
(1.22287 0.439172 -8.72604e-20)
(1.27932 0.459701 -2.75145e-20)
(1.30961 0.467038 1.32246e-20)
(1.32121 0.464504 1.03809e-19)
(1.32075 0.455319 -3.32799e-20)
(1.31335 0.44213 4.03425e-20)
(1.30258 0.42685 8.42007e-20)
(1.29065 0.410718 1.88342e-20)
(1.27879 0.39446 -1.60372e-20)
(1.26764 0.378462 2.13349e-20)
(1.25742 0.362931 4.01259e-20)
(1.24807 0.347867 1.81579e-20)
(1.23941 0.333159 4.52926e-20)
(1.23064 0.320237 3.43404e-20)
(0.144377 0.0417682 -5.5447e-20)
(0.407237 0.127123 -7.97194e-20)
(0.643989 0.216365 4.96938e-20)
(0.848003 0.298879 1.64151e-20)
(1.01329 0.368469 3.19754e-20)
(1.13774 0.42132 -1.27387e-19)
(1.22359 0.456411 4.52897e-20)
(1.27653 0.475212 -9.5783e-20)
(1.30401 0.480733 -5.22526e-20)
(1.31364 0.476527 5.95604e-20)
(1.31195 0.465916 -6.18962e-21)
(1.30394 0.451561 3.68944e-21)
(1.29296 0.435337 -1.02615e-19)
(1.28106 0.418431 -4.07695e-20)
(1.26939 0.40152 3.32043e-20)
(1.2585 0.38496 -5.68205e-20)
(1.24856 0.368937 -2.99605e-20)
(1.23954 0.353431 -2.95852e-20)
(1.23121 0.338356 -5.11795e-20)
(1.22254 0.325091 -1.16773e-19)
(0.148297 0.0459327 3.22748e-20)
(0.415731 0.137865 -3.75906e-20)
(0.654116 0.231685 -2.01608e-19)
(0.857281 0.316832 1.06629e-19)
(1.01993 0.387295 -1.29868e-19)
(1.14078 0.439652 -1.81642e-20)
(1.22287 0.473377 -1.71215e-19)
(1.27247 0.490407 1.78445e-19)
(1.29736 0.494109 9.97484e-20)
(1.3052 0.488251 -5.65848e-21)
(1.30248 0.476245 3.43815e-20)
(1.29397 0.460752 -4.26812e-20)
(1.28288 0.443607 -3.47667e-21)
(1.27109 0.425943 1.89678e-20)
(1.25966 0.408391 -1.93412e-20)
(1.24905 0.391277 3.60321e-20)
(1.23944 0.374765 -4.74526e-20)
(1.23076 0.358809 -4.15016e-20)
(1.22277 0.343418 2.30558e-20)
(1.21434 0.329825 3.10261e-20)
(0.15198 0.0502187 7.39679e-20)
(0.423542 0.148815 6.98618e-20)
(0.663174 0.247163 5.28374e-20)
(0.865207 0.334819 -1.23237e-21)
(1.02507 0.40601 -3.38892e-20)
(1.14232 0.45775 2.23953e-19)
(1.22076 0.490029 1.24279e-19)
(1.2672 0.505255 8.28853e-20)
(1.28969 0.50714 1.15257e-19)
(1.29595 0.499654 1.40802e-20)
(1.29234 0.486284 -9.23894e-20)
(1.28347 0.469685 -1.00031e-20)
(1.27235 0.451644 -1.95681e-20)
(1.26075 0.43324 -6.22742e-20)
(1.24959 0.415059 -2.30805e-20)
(1.23931 0.397399 -3.15622e-20)
(1.23004 0.380404 9.7255e-20)
(1.22174 0.364009 -1.38824e-21)
(1.21408 0.348286 2.66822e-20)
(1.20601 0.334393 2.12093e-20)
(0.155413 0.0546121 -2.48511e-20)
(0.430641 0.159936 -4.06758e-20)
(0.671138 0.262747 -8.66685e-20)
(0.871773 0.352782 -1.42581e-20)
(1.02873 0.424558 -1.38874e-19)
(1.14239 0.475565 -9.73859e-20)
(1.2173 0.506327 3.1804e-20)
(1.26075 0.519723 -2.26371e-19)
(1.28105 0.519801 -1.20196e-19)
(1.28591 0.510716 2.88543e-20)
(1.28157 0.496017 -1.49159e-20)
(1.27246 0.478342 8.25735e-20)
(1.2614 0.459429 1.10721e-19)
(1.25003 0.440303 2.74329e-20)
(1.23919 0.421507 7.36084e-20)
(1.22927 0.40331 -3.81589e-20)
(1.22038 0.385839 5.18932e-20)
(1.21247 0.369016 2.84596e-20)
(1.20519 0.35296 2.44981e-20)
(1.1975 0.33877 -4.63573e-20)
(0.158582 0.0590981 3.7496e-20)
(0.437007 0.171188 -4.36746e-21)
(0.677993 0.278385 -1.34785e-19)
(0.876978 0.370663 -8.28521e-23)
(1.03092 0.442883 3.12535e-19)
(1.14102 0.493047 6.15711e-20)
(1.21252 0.52223 4.56518e-20)
(1.25318 0.53378 1.31411e-19)
(1.27148 0.532066 -1.04472e-19)
(1.27512 0.521414 -1.10085e-19)
(1.2702 0.505422 -1.4325e-21)
(1.26095 0.486704 -7.57356e-20)
(1.25003 0.466946 -4.12781e-20)
(1.23895 0.447116 1.09864e-19)
(1.22847 0.427718 -2.82868e-20)
(1.21894 0.408994 1.69371e-21)
(1.21046 0.391056 -3.75349e-20)
(1.20297 0.373815 -5.67854e-20)
(1.19609 0.357427 3.65796e-21)
(1.18879 0.342947 5.31552e-20)
(0.161474 0.0636612 -1.80453e-19)
(0.442619 0.182533 1.05792e-19)
(0.683724 0.294023 2.31972e-19)
(0.880825 0.388404 7.16542e-20)
(1.03166 0.460929 -3.69206e-19)
(1.13825 0.510149 -1.49693e-19)
(1.20648 0.5377 -1.15303e-19)
(1.24452 0.547395 -4.13392e-20)
(1.26102 0.543911 1.37618e-19)
(1.26361 0.531727 1.44164e-20)
(1.25824 0.51448 -2.82688e-20)
(1.24896 0.494754 5.00349e-20)
(1.23826 0.474176 7.26334e-21)
(1.22753 0.453663 -1.31727e-19)
(1.21745 0.433677 3.93161e-20)
(1.20833 0.414438 5.14935e-20)
(1.20028 0.396042 2.46028e-20)
(1.19323 0.378391 3.26606e-20)
(1.18679 0.361677 -5.72005e-20)
(1.17989 0.346915 -2.78823e-20)
(0.164079 0.0682853 -1.24785e-20)
(0.44746 0.19393 5.35483e-20)
(0.688323 0.309607 2.65371e-20)
(0.883319 0.405946 7.69044e-20)
(1.03098 0.478643 2.06403e-19)
(1.13411 0.526824 -1.32496e-19)
(1.19921 0.552701 -8.21352e-21)
(1.23483 0.560538 1.23127e-19)
(1.2497 0.55531 -1.47005e-19)
(1.25141 0.541635 4.72014e-20)
(1.24572 0.523172 1.19849e-19)
(1.23651 0.502471 2.68277e-20)
(1.2261 0.481101 -5.80016e-20)
(1.21576 0.459926 9.56207e-20)
(1.20611 0.439369 -1.10125e-19)
(1.19744 0.419626 3.82206e-21)
(1.18984 0.400783 -2.49978e-20)
(1.18326 0.382731 4.40524e-20)
(1.17728 0.3657 3.83265e-20)
(0.166387 0.0729536 2.34481e-20)
(0.451518 0.205338 8.61074e-20)
(0.691787 0.325083 8.37959e-20)
(0.884474 0.423232 -5.17461e-20)
(1.0289 0.495972 4.53228e-21)
(1.12864 0.543029 1.23183e-19)
(1.19077 0.567194 2.14969e-19)
(1.22414 0.573181 -2.13349e-20)
(1.23757 0.56624 1.99617e-20)
(1.23856 0.551114 -5.92383e-20)
(1.23267 0.531479 -1.23314e-19)
(1.22361 0.509838 1.95483e-20)
(1.21356 0.487704 6.7811e-20)
(1.20366 0.465888 -1.35119e-20)
(1.19448 0.444776 -1.15404e-20)
(1.18629 0.424545 -4.34364e-20)
(1.17915 0.405265 -7.53557e-21)
(1.17306 0.386823 -1.65422e-20)
(0.168389 0.0776494 -8.1522e-20)
(0.454783 0.216718 -1.97484e-19)
(0.694115 0.340399 -2.88264e-19)
(0.884305 0.440208 5.17665e-21)
(1.02546 0.512865 -1.64305e-21)
(1.12189 0.558719 -1.12449e-19)
(1.18119 0.581145 6.00546e-20)
(1.2125 0.585293 -6.32492e-20)
(1.22467 0.576677 1.18579e-19)
(1.22507 0.560145 1.1684e-19)
(1.21911 0.539379 5.14512e-20)
(1.21029 0.516836 -1.3432e-20)
(1.20065 0.493968 1.90226e-20)
(1.19124 0.471534 -4.76894e-20)
(1.18257 0.449886 8.00311e-20)
(1.17487 0.429179 -3.57101e-20)
(0.17008 0.0823551 8.85925e-20)
(0.45725 0.228027 2.67527e-19)
(0.695313 0.355501 1.03606e-19)
(0.882833 0.456819 -1.98997e-20)
(1.02069 0.529271 -1.09448e-19)
(1.11389 0.573853 -2.33862e-20)
(1.17053 0.594521 -2.86663e-20)
(1.19995 0.596849 -8.9216e-21)
(1.21102 0.586596 -3.48535e-20)
(1.21099 0.568706 -1.14856e-19)
(1.20506 0.546854 -9.32781e-20)
(1.19656 0.523446 6.61836e-20)
(1.18739 0.499873 -9.22244e-20)
(1.17851 0.476846 -4.70342e-21)
(1.17038 0.454681 2.41681e-20)
(0.171454 0.0870532 8.75464e-21)
(0.458914 0.239225 1.75987e-20)
(0.695388 0.370338 2.39121e-19)
(0.880082 0.47301 -1.32352e-19)
(1.01463 0.545142 3.072e-19)
(1.1047 0.58839 1.36735e-19)
(1.15883 0.607287 -1.82142e-19)
(1.18654 0.607821 -1.64963e-20)
(1.19667 0.595976 -1.41961e-19)
(1.19633 0.576777 -3.42386e-20)
(1.19054 0.553885 3.68296e-20)
(1.18245 0.52965 5.05167e-20)
(1.1738 0.505404 9.52078e-20)
(1.16549 0.481808 1.11248e-20)
(0.172507 0.0917259 7.13119e-20)
(0.459777 0.250272 -3.22822e-19)
(0.694354 0.384858 -7.06752e-20)
(0.876077 0.488731 -5.27032e-20)
(1.00732 0.560432 -1.93179e-19)
(1.09437 0.60229 -1.86555e-19)
(1.14613 0.619413 -5.73789e-20)
(1.1723 0.618183 -7.18273e-20)
(1.18165 0.604794 1.99886e-19)
(1.18114 0.584337 6.96505e-21)
(1.17558 0.560452 -1.23734e-19)
(1.16795 0.535431 -1.68375e-19)
(1.15989 0.510544 7.74263e-20)
(0.173237 0.0963556 5.76704e-21)
(0.459841 0.261125 4.7551e-20)
(0.692226 0.399011 -1.44919e-19)
(0.870851 0.50393 8.37017e-20)
(0.9988 0.575096 9.19062e-21)
(1.08292 0.615517 2.34433e-19)
(1.1325 0.63087 9.01539e-20)
(1.15728 0.62791 1.4068e-19)
(1.16601 0.613028 -9.03394e-20)
(1.16544 0.591367 1.60423e-19)
(1.1602 0.566537 1.03642e-19)
(1.15311 0.54077 2.10682e-20)
(0.173641 0.100925 -1.45394e-19)
(0.459113 0.271748 3.29829e-19)
(0.689024 0.41275 1.71247e-19)
(0.864437 0.51856 6.20524e-20)
(0.989112 0.589091 -3.24485e-20)
(1.07043 0.628035 -1.94886e-19)
(1.11796 0.641626 2.82218e-20)
(1.14152 0.636978 -2.59836e-20)
(1.14977 0.620657 -9.50291e-20)
(1.14925 0.597847 -1.11701e-19)
(1.14442 0.572122 5.98042e-20)
(0.173722 0.105416 -3.15627e-20)
(0.457602 0.282099 -8.68295e-20)
(0.684771 0.426026 -1.96951e-19)
(0.856871 0.532574 -1.00337e-19)
(0.978306 0.602376 -1.1584e-19)
(1.05694 0.639813 1.00291e-19)
(1.10256 0.651653 -4.00549e-20)
(1.12507 0.645364 2.46066e-20)
(1.13297 0.627661 -1.55447e-20)
(1.13262 0.60376 -5.27466e-20)
(0.173479 0.109813 2.96437e-19)
(0.455319 0.292143 1.06876e-20)
(0.679492 0.438794 -8.74683e-20)
(0.848194 0.545925 8.17217e-20)
(0.966432 0.614912 -1.39288e-20)
(1.04248 0.650817 -3.71058e-20)
(1.08636 0.66093 -8.63205e-20)
(1.10797 0.653045 1.18776e-20)
(1.11564 0.634021 1.00669e-19)
(0.172917 0.1141 -6.6228e-20)
(0.452277 0.301842 7.38041e-20)
(0.673218 0.451009 1.94978e-20)
(0.83845 0.558572 1.7485e-19)
(0.953532 0.626663 -2.40921e-20)
(1.02712 0.661015 -1.09259e-19)
(1.06942 0.66943 1.93101e-19)
(1.09026 0.660001 6.39656e-21)
(0.172039 0.118261 -2.78693e-19)
(0.448493 0.311162 -7.18417e-21)
(0.665981 0.462629 1.67258e-19)
(0.827688 0.57048 -1.86322e-20)
(0.939644 0.637587 2.52891e-19)
(1.0109 0.670379 -3.23558e-22)
(1.05177 0.677127 -2.06895e-19)
(0.170848 0.122282 1.67177e-19)
(0.443987 0.320068 -1.3128e-19)
(0.657821 0.473609 -1.97686e-19)
(0.815937 0.581607 -3.08461e-20)
(0.92483 0.647663 -1.68233e-19)
(0.99389 0.67888 7.41513e-20)
(0.169352 0.126148 -6.56877e-20)
(0.43878 0.328527 8.57018e-20)
(0.648771 0.483918 -2.59782e-20)
(0.803232 0.591905 -3.19683e-20)
(0.909155 0.656859 6.14493e-21)
(0.167555 0.129843 -1.06305e-19)
(0.432897 0.336504 -1.0231e-19)
(0.638862 0.493518 2.19406e-19)
(0.789642 0.601354 6.31305e-20)
(0.89267 0.665137 1.57052e-20)
(0.16546 0.13335 1.31772e-19)
(0.426362 0.343973 1.99602e-19)
(0.628131 0.502365 -5.01937e-20)
(0.775226 0.609922 -4.90799e-20)
(0.163068 0.136637 -9.11005e-20)
(0.419223 0.350913 -1.58101e-19)
(0.616632 0.510436 -7.38492e-20)
(0.160406 0.139676 9.28857e-20)
(0.411507 0.357276 1.64779e-19)
(0.604404 0.517709 6.97406e-20)
(0.157508 0.14248 -4.87749e-20)
(0.403228 0.36303 2.50052e-21)
(0.154375 0.145045 4.75897e-20)
(0.15101 0.147356 1.23938e-20)
(0.147209 -0.143487 -5.07944e-20)
(0.150644 -0.14138 8.80157e-21)
(0.153854 -0.139017 -6.41125e-20)
(0.392459 -0.352419 -1.24057e-19)
(0.156832 -0.136411 1.13498e-19)
(0.40086 -0.347142 7.87418e-20)
(0.587536 -0.501069 -1.70755e-20)
(0.159577 -0.133575 -7.70814e-20)
(0.40872 -0.341262 -2.02506e-19)
(0.59985 -0.494412 -7.76678e-20)
(0.162077 -0.130506 1.16948e-19)
(0.416015 -0.334799 1.69813e-19)
(0.611465 -0.486954 -1.57686e-20)
(0.753486 -0.589333 -3.65478e-20)
(0.164302 -0.127207 -1.36914e-19)
(0.42273 -0.327792 -5.07227e-20)
(0.622343 -0.478724 8.87975e-20)
(0.767945 -0.581441 6.89784e-20)
(0.8673 -0.64145 4.23681e-20)
(0.166234 -0.123706 3.51414e-20)
(0.428831 -0.320279 -2.97537e-20)
(0.632442 -0.469747 7.78407e-20)
(0.781608 -0.572663 -1.02454e-19)
(0.883746 -0.633844 -7.33683e-21)
(0.948393 -0.66104 5.64718e-20)
(0.167873 -0.12003 2.58458e-19)
(0.43428 -0.312284 -1.43256e-19)
(0.641711 -0.460049 -1.89934e-19)
(0.79443 -0.563037 -7.80903e-20)
(0.899412 -0.625328 -1.05524e-19)
(0.966028 -0.654061 -4.57745e-21)
(0.169216 -0.116194 -1.36995e-19)
(0.439055 -0.303832 -5.82071e-21)
(0.650118 -0.449676 9.94579e-20)
(0.80635 -0.552593 1.2621e-20)
(0.914252 -0.615924 2.11342e-19)
(0.982947 -0.646196 -1.7924e-20)
(1.02249 -0.651539 1.51982e-20)
(0.170257 -0.112214 -5.52673e-20)
(0.443135 -0.294962 2.37506e-20)
(0.657638 -0.438666 4.18699e-20)
(0.817312 -0.541359 9.54101e-20)
(0.928209 -0.605667 -5.86822e-20)
(0.999102 -0.637468 1.97309e-20)
(1.03999 -0.644434 1.41445e-19)
(1.06034 -0.634362 -1.39805e-20)
(0.170993 -0.108106 2.81641e-19)
(0.446499 -0.285706 -6.91987e-20)
(0.664233 -0.427054 -8.84075e-20)
(0.827284 -0.529377 4.74118e-20)
(0.941219 -0.594583 2.53542e-20)
(1.01444 -0.627906 -4.81149e-20)
(1.05681 -0.636525 -9.8236e-21)
(1.07785 -0.627948 -2.47741e-20)
(1.08555 -0.608769 2.48397e-20)
(0.171418 -0.103883 -1.25426e-19)
(0.449131 -0.276098 1.4031e-20)
(0.66987 -0.414881 -1.35452e-19)
(0.83623 -0.516686 -1.70823e-19)
(0.953234 -0.582711 -6.52473e-20)
(1.02892 -0.617539 -4.51499e-21)
(1.0729 -0.627833 7.57455e-20)
(1.09477 -0.620805 -5.2791e-20)
(1.10264 -0.602909 1.50793e-20)
(1.10261 -0.579128 9.53786e-20)
(0.171532 -0.0995613 -1.316e-19)
(0.451016 -0.266174 2.71346e-19)
(0.674519 -0.402191 1.57403e-19)
(0.844109 -0.503329 6.65792e-20)
(0.964221 -0.570089 -2.38016e-20)
(1.04246 -0.60639 -1.35925e-19)
(1.08822 -0.618382 -7.65551e-20)
(1.11106 -0.612953 -3.40421e-20)
(1.11922 -0.5964 -4.09352e-20)
(1.119 -0.573681 -1.38656e-19)
(1.11462 -0.548217 7.18039e-20)
(0.171331 -0.0951564 2.39233e-20)
(0.452145 -0.255971 -3.71902e-20)
(0.678154 -0.38903 2.79127e-20)
(0.850879 -0.489348 -6.60071e-20)
(0.974131 -0.55675 1.31162e-19)
(1.05503 -0.594492 2.11268e-19)
(1.10272 -0.6082 6.07876e-20)
(1.12668 -0.604411 1.45856e-19)
(1.13527 -0.589258 -7.19106e-20)
(1.13495 -0.567658 1.53831e-19)
(1.13013 -0.543068 3.19749e-20)
(1.12353 -0.517627 1.24353e-19)
(0.170816 -0.0906849 -8.49009e-20)
(0.452509 -0.245525 -1.81819e-19)
(0.680752 -0.375443 -1.35798e-19)
(0.856503 -0.474789 3.94221e-20)
(0.982919 -0.542735 -1.96398e-19)
(1.06659 -0.581882 -2.19345e-19)
(1.11635 -0.597312 -2.35926e-20)
(1.14159 -0.595204 -5.31458e-20)
(1.15074 -0.581504 1.69211e-19)
(1.15043 -0.561078 -3.65374e-20)
(1.14527 -0.53741 -9.78536e-20)
(1.13811 -0.512699 -1.48957e-19)
(1.13052 -0.488172 -8.58343e-20)
(0.169987 -0.0861638 -6.77802e-20)
(0.4521 -0.234875 -5.06948e-20)
(0.682296 -0.361478 2.07902e-19)
(0.860949 -0.4597 -1.21931e-19)
(0.990539 -0.528086 2.9208e-19)
(1.07708 -0.56859 1.11937e-19)
(1.12907 -0.585746 -6.62423e-20)
(1.15574 -0.585353 -1.01591e-19)
(1.1656 -0.573156 -1.39954e-19)
(1.16542 -0.553958 5.56178e-20)
(1.15999 -0.531261 9.00095e-21)
(1.15234 -0.507322 4.77494e-20)
(1.14416 -0.483424 9.46085e-20)
(1.13631 -0.460212 1.89021e-20)
(0.168846 -0.0816103 1.34374e-19)
(0.450916 -0.22406 2.03014e-19)
(0.682769 -0.347184 9.47177e-21)
(0.864187 -0.444128 1.12254e-19)
(0.996952 -0.512847 -2.55417e-19)
(1.08647 -0.554655 5.83261e-20)
(1.14082 -0.573531 -3.66265e-20)
(1.1691 -0.574883 -7.56221e-21)
(1.17981 -0.564238 -5.34972e-20)
(1.17988 -0.546318 -9.93335e-20)
(1.17429 -0.524639 -2.30669e-20)
(1.16622 -0.50151 4.82008e-20)
(1.15749 -0.478274 -1.3551e-19)
(1.14905 -0.455622 3.23269e-20)
(1.14135 -0.433866 -5.92912e-20)
(0.167397 -0.0770417 -2.40103e-20)
(0.448956 -0.21312 -3.11897e-19)
(0.682159 -0.33261 -2.30876e-19)
(0.866192 -0.428126 -1.38604e-20)
(1.00212 -0.497062 4.66526e-20)
(1.0947 -0.540113 -8.22107e-20)
(1.15157 -0.560697 -2.15036e-21)
(1.18161 -0.56382 2.07538e-20)
(1.19334 -0.554768 2.78605e-20)
(1.19379 -0.538176 1.50254e-19)
(1.18813 -0.517561 5.55086e-20)
(1.17971 -0.495282 -1.15328e-20)
(1.17049 -0.47274 1.27308e-20)
(1.1615 -0.450673 -1.54588e-20)
(1.15325 -0.429428 6.5133e-20)
(1.14596 -0.409157 2.61078e-20)
(0.165645 -0.072475 4.47404e-20)
(0.446223 -0.202095 1.66981e-19)
(0.680457 -0.317806 9.83086e-20)
(0.866939 -0.411744 -1.78777e-19)
(1.006 -0.48078 3.52245e-20)
(1.10173 -0.525003 1.96504e-19)
(1.16127 -0.547278 9.80401e-20)
(1.19325 -0.552188 1.08632e-20)
(1.20615 -0.54477 9.69104e-20)
(1.20712 -0.529551 -1.77783e-19)
(1.20149 -0.510046 -4.49057e-20)
(1.1928 -0.488655 -1.70873e-20)
(1.18315 -0.466836 9.33172e-20)
(1.17366 -0.44538 -2.70391e-20)
(1.16488 -0.424666 -1.64746e-21)
(1.15707 -0.404867 -3.95331e-20)
(1.1503 -0.386051 -1.28425e-20)
(1.14453 -0.368097 -6.34774e-20)
(0.163597 -0.0679273 -4.16558e-20)
(0.442722 -0.191025 -2.41934e-20)
(0.677658 -0.302824 -6.05094e-20)
(0.866409 -0.395036 1.85615e-19)
(1.00857 -0.464047 1.19693e-19)
(1.10752 -0.509368 -3.35678e-20)
(1.16987 -0.533305 -5.25418e-21)
(1.20396 -0.540014 1.11294e-19)
(1.2182 -0.534265 -1.57351e-19)