/*--------------------------------*- C++ -*----------------------------------*\
  =========                 |
  \\      /  F ield         | OpenFOAM: The Open Source CFD Toolbox
   \\    /   O peration     | Website:  https://openfoam.org
    \\  /    A nd           | Version:  7
     \\/     M anipulation  |
\*---------------------------------------------------------------------------*/
FoamFile
{
    version     2.0;
    format      ascii;
    class       surfaceScalarField;
    location    "220";
    object      phi;
}
// * * * * * * * * * * * * * * * * * * * * * * * * * * * * * * * * * * * * * //

dimensions      [0 3 -1 0 0 0 0];

internalField   nonuniform List<scalar> 
13974
(
-0.00325325
-0.00017098
-0.000151952
-0.00309299
-0.000172186
-0.003162
-0.00323253
-0.000192903
-0.000151475
-0.00300622
-0.000172059
-0.0030724
-0.000193111
-0.00314095
-0.003211
-0.000214643
-0.000149696
-0.00292261
-0.000170583
-0.00298534
-0.000191983
-0.003051
-0.000213852
-0.00311908
-0.00318865
-0.000236196
-0.00014671
-0.00284254
-0.000167815
-0.00290151
-0.000189504
-0.00296365
-0.000211718
-0.00302879
-0.000234404
-0.0030964
-0.0031655
-0.000257559
-0.000122023
-0.00271362
-0.000142617
-0.00276606
-0.00016386
-0.0028213
-0.000185744
-0.00287962
-0.000208232
-0.00294116
-0.00023126
-0.00300576
-0.000254764
-0.00307289
-0.00314153
-0.000278727
-0.000116812
-0.00264358
-0.000137493
-0.00269294
-0.000158826
-0.00274473
-0.000180822
-0.00279931
-0.000203479
-0.00285697
-0.000226764
-0.00291788
-0.000250605
-0.00298192
-0.000274926
-0.00304857
-0.00311676
-0.000299696
-0.000110627
-0.00257608
-0.000131381
-0.00262282
-0.000152786
-0.00267154
-0.000174851
-0.00272267
-0.000197593
-0.00277656
-0.000221017
-0.00283354
-0.000245093
-0.0028938
-0.000269747
-0.00295726
-0.000294886
-0.00302343
-0.00309119
-0.000320463
-0.000103499
-0.0025106
-0.000124306
-0.00255528
-0.000145776
-0.00260135
-0.000167899
-0.00264942
-0.000190688
-0.00269988
-0.000214168
-0.00275308
-0.000238353
-0.00280936
-0.000263216
-0.00286894
-0.00028868
-0.0029318
-0.000314638
-0.00299748
-0.0030648
-0.000341021
-9.54826e-05
-0.00244637
-0.000116297
-0.00248978
-0.000137818
-0.00253375
-0.000159998
-0.00257917
-0.00018283
-0.00262658
-0.000206336
-0.00267637
-0.000230546
-0.00272887
-0.000255482
-0.00278442
-0.000281127
-0.00284329
-0.0003074
-0.00290553
-0.000334177
-0.0029707
-0.00303761
-0.000361367
-8.66601e-05
-0.00238225
-0.000107399
-0.00242563
-0.000128932
-0.00246825
-0.00015116
-0.00251153
-0.000174043
-0.00255629
-0.000197579
-0.00260305
-0.000221793
-0.00265216
-0.000246724
-0.00270394
-0.000272402
-0.00275874
-0.00029882
-0.00281687
-0.000325898
-0.00287845
-0.000353498
-0.0029431
-0.00300962
-0.000381495
-7.71587e-05
-0.00231651
-9.76921e-05
-0.00236171
-0.00011916
-0.00240416
-0.000141403
-0.00244601
-0.000164332
-0.0024886
-0.000187911
-0.00253271
-0.000212143
-0.00257882
-0.000237057
-0.00262724
-0.000262698
-0.0026783
-0.000289109
-0.00273233
-0.000316291
-0.00278969
-0.00034417
-0.00285057
-0.000372593
-0.00291468
-0.00298081
-0.0004014
-8.72955e-05
-0.00229638
-0.000108577
-0.00234043
-0.000130765
-0.00238197
-0.00015371
-0.00242306
-0.000177332
-0.00246498
-0.000201601
-0.00250844
-0.000226522
-0.0025539
-0.000252127
-0.00260164
-0.000278469
-0.00265196
-0.000305599
-0.0027052
-0.000333534
-0.00276176
-0.000362208
-0.0028219
-0.000391455
-0.00288543
-0.00295119
-0.000421076
-7.63816e-05
-0.00222716
-9.72946e-05
-0.00227546
-0.000119312
-0.00231842
-0.000142211
-0.00235907
-0.000165851
-0.00239942
-0.00019016
-0.00244067
-0.000215112
-0.00248349
-0.000240714
-0.00252829
-0.000267003
-0.00257535
-0.000294034
-0.00262493
-0.00032187
-0.00267737
-0.000350545
-0.00273308
-0.000380005
-0.00279244
-0.000410078
-0.00285536
-0.00292075
-0.000440515
-6.5181e-05
-0.00215063
-8.54795e-05
-0.00220686
-0.000107154
-0.00225379
-0.000129897
-0.00229567
-0.000153497
-0.00233547
-0.000177825
-0.0023751
-0.000202814
-0.00241568
-0.000228442
-0.00245786
-0.00025472
-0.00250202
-0.000281683
-0.00254839
-0.000309392
-0.00259722
-0.00033792
-0.00264884
-0.000367319
-0.00270368
-0.000397555
-0.0027622
-0.000428452
-0.00282446
-0.00288949
-0.000459711
-5.39824e-05
-0.00206224
-7.33549e-05
-0.00213126
-9.44497e-05
-0.00218577
-0.000116873
-0.00223137
-0.000140331
-0.00227222
-0.000164623
-0.00231118
-0.000189631
-0.00235009
-0.000215294
-0.00239001
-0.000241592
-0.00243156
-0.000268538
-0.00247507
-0.000296169
-0.00252076
-0.000324545
-0.00256884
-0.00035375
-0.00261963
-0.000383854
-0.00267358
-0.00041485
-0.0027312
-0.000446569
-0.00279274
-0.00285741
-0.000478655
-4.31223e-05
-0.00195639
-6.12042e-05
-0.00204416
-8.14147e-05
-0.00211105
-0.00010329
-0.00216389
-0.00012645
-0.00220821
-0.000150612
-0.00224805
-0.000175588
-0.00228621
-0.000201268
-0.00232441
-0.000227597
-0.00236368
-0.00025456
-0.0024046
-0.000282169
-0.00244746
-0.000310459
-0.00249247
-0.000339493
-0.00253981
-0.000369358
-0.00258977
-0.000400148
-0.00264279
-0.000431884
-0.00269947
-0.000464421
-0.0027602
-0.00282449
-0.000497341
-3.29617e-05
-0.00182663
-4.93624e-05
-0.00193999
-6.83274e-05
-0.0020252
-8.93585e-05
-0.00209002
-0.000112
-0.00214125
-0.000135883
-0.00218432
-0.000160739
-0.0022232
-0.00018639
-0.00226055
-0.000212735
-0.00229806
-0.000239724
-0.0023367
-0.000267346
-0.00237698
-0.000295611
-0.0024192
-0.000324555
-0.00246352
-0.000354237
-0.00251013
-0.000384749
-0.00255926
-0.000416201
-0.00261134
-0.000448655
-0.00266701
-0.000482
-0.00272686
-0.00279073
-0.000515762
-3.81947e-05
-0.00181228
-5.55206e-05
-0.00192267
-7.53499e-05
-0.00200537
-9.71846e-05
-0.00206818
-0.000120578
-0.00211786
-0.000145172
-0.00215973
-0.000170711
-0.00219766
-0.000197028
-0.00223424
-0.00022403
-0.00227106
-0.000251674
-0.00230905
-0.000279948
-0.0023487
-0.000308865
-0.00239028
-0.000338457
-0.00243393
-0.00036878
-0.0024798
-0.000399925
-0.00252811
-0.000432018
-0.00257925
-0.000465159
-0.00263387
-0.000499298
-0.00269272
-0.00275611
-0.000533911
-2.80635e-05
-0.00165413
-4.33633e-05
-0.00179698
-6.15947e-05
-0.00190443
-8.22695e-05
-0.00198469
-0.000104891
-0.00204556
-0.000129021
-0.00209373
-0.000154314
-0.00213443
-0.000180526
-0.00217145
-0.000207501
-0.00220726
-0.000235153
-0.00224341
-0.000263444
-0.00228076
-0.000292366
-0.00231978
-0.00032193
-0.00236071
-0.000352166
-0.0024037
-0.000383124
-0.00244885
-0.000414893
-0.00249634
-0.000447603
-0.00254653
-0.0004814
-0.00260008
-0.000516313
-0.0026578
-0.00272064
-0.000551785
-1.92869e-05
-0.00145888
-3.22299e-05
-0.00164119
-4.84649e-05
-0.00178075
-6.75823e-05
-0.00188532
-8.90844e-05
-0.00196319
-0.000112477
-0.00202217
-0.00013733
-0.00206887
-0.00016331
-0.00210845
-0.000190185
-0.00214457
-0.000217809
-0.00217964
-0.000246103
-0.00221512
-0.000275034
-0.00225183
-0.000304597
-0.00229022
-0.000334805
-0.00233051
-0.000365681
-0.00237282
-0.000397273
-0.00241725
-0.000429658
-0.00246396
-0.000462968
-0.00251322
-0.000497386
-0.00256566
-0.000533048
-0.00262214
-0.0026843
-0.000569385
-2.24615e-05
-0.00144852
-3.63464e-05
-0.00162731
-5.34973e-05
-0.0017636
-7.34816e-05
-0.00186533
-9.5793e-05
-0.00194088
-0.00011994
-0.00199802
-0.000145502
-0.00204331
-0.000172157
-0.0020818
-0.000199685
-0.00211704
-0.000227949
-0.00215137
-0.000256878
-0.00218619
-0.000286443
-0.00222227
-0.000316642
-0.00226002
-0.000347487
-0.00229966
-0.000379003
-0.0023413
-0.000411227
-0.00238503
-0.000444228
-0.00243096
-0.000478126
-0.00247933
-0.000513133
-0.00253065
-0.000549515
-0.00258576
-0.00264708
-0.000586743
-1.43251e-05
-0.00121314
-2.56018e-05
-0.00143724
-4.04107e-05
-0.0016125
-5.84585e-05
-0.00174555
-7.92906e-05
-0.0018445
-0.000102394
-0.00191778
-0.000127279
-0.00197313
-0.000153537
-0.00201706
-0.000180856
-0.00205448
-0.000209026
-0.00208887
-0.000237922
-0.00212248
-0.000267477
-0.00215663
-0.000297669
-0.00219207
-0.000328496
-0.00222919
-0.000359975
-0.00226818
-0.000392128
-0.00230915
-0.000424988
-0.00235217
-0.00045861
-0.00239733
-0.000493093
-0.00244484
-0.000528666
-0.00249508
-0.000565745
-0.00254868
-0.00260892
-0.000603897
-7.9844e-06
-0.000930922
-1.65321e-05
-0.00120459
-2.87057e-05
-0.00142507
-4.44208e-05
-0.00159678
-6.33465e-05
-0.00172662
-8.50077e-05
-0.00182284
-0.000108885
-0.0018939
-0.000134494
-0.00194753
-0.000161433
-0.00199012
-0.000189404
-0.00202651
-0.000218207
-0.00206007
-0.000247725
-0.00209296
-0.000277899
-0.00212646
-0.000308709
-0.00216126
-0.000340159
-0.00219774
-0.000372267
-0.00223608
-0.000405054
-0.00227636
-0.000438553
-0.00231867
-0.000472805
-0.00236308
-0.000507887
-0.00240976
-0.000544025
-0.00245894
-0.000581749
-0.00251096
-0.00256983
-0.000620846
-9.34807e-06
-0.000925068
-1.87165e-05
-0.00119522
-3.17715e-05
-0.00141201
-4.83748e-05
-0.00158018
-6.81594e-05
-0.00170684
-9.06313e-05
-0.00180037
-0.000115266
-0.00186926
-0.000141583
-0.00192121
-0.00016919
-0.00196251
-0.000197802
-0.0019979
-0.000227227
-0.00203065
-0.000257358
-0.00206283
-0.000288141
-0.00209567
-0.000319562
-0.00212984
-0.000351627
-0.00216568
-0.000384357
-0.00220335
-0.000417776
-0.00224294
-0.000451916
-0.00228453
-0.000486813
-0.00232819
-0.000522528
-0.00237405
-0.000559269
-0.0024222
-0.000597533
-0.00247269
-0.00252957
-0.000637795
-4.16332e-06
-0.000596597
-1.06997e-05
-0.000918532
-2.08767e-05
-0.00118505
-3.47974e-05
-0.00139809
-5.22709e-05
-0.0015627
-7.28957e-05
-0.00168621
-9.61599e-05
-0.0017771
-0.000121535
-0.00184389
-0.000148544
-0.0018942
-0.000176807
-0.00193425
-0.000206047
-0.00196866
-0.000236085
-0.00200061
-0.000266819
-0.0020321
-0.000298203
-0.00206429
-0.000330226
-0.00209782
-0.000362898
-0.002133
-0.000396242
-0.00217
-0.000430285
-0.0022089
-0.000465064
-0.00224975
-0.000500617
-0.00229263
-0.000537012
-0.00233765
-0.000574455
-0.00238476
-0.000613513
-0.00243364
-0.0024888
-0.000654275
-4.8244e-06
-0.000592797
-1.20346e-05
-0.000911322
-2.3007e-05
-0.00117407
-3.7777e-05
-0.00138332
-5.61026e-05
-0.00154438
-7.75488e-05
-0.00166477
-0.000101587
-0.00175307
-0.000127685
-0.00181779
-0.000155373
-0.00186651
-0.000184279
-0.00190534
-0.000214136
-0.0019388
-0.000244776
-0.00196997
-0.000276104
-0.00200077
-0.000308079
-0.00203231
-0.000340695
-0.0020652
-0.000373965
-0.00209974
-0.000407912
-0.00213605
-0.000442571
-0.00217424
-0.000477979
-0.00221434
-0.000514186
-0.00225642
-0.000551287
-0.00230055
-0.00058938
-0.00234666
-0.000628071
-0.00239494
-0.00244656
-0.000670318
-1.21267e-06
-0.000218273
-5.48248e-06
-0.000588527
-1.33587e-05
-0.000903446
-2.51145e-05
-0.00116232
-4.07183e-05
-0.00136772
-5.98781e-05
-0.00152522
-8.21273e-05
-0.00164252
-0.000106922
-0.00172827
-0.000133727
-0.00179099
-0.000162079
-0.00183816
-0.000191613
-0.00187581
-0.000222076
-0.00190834
-0.000253307
-0.00193874
-0.000285219
-0.00196886
-0.000317776
-0.00199976
-0.000350976
-0.002032
-0.000384832
-0.00206588
-0.000419374
-0.00210151
-0.000454634
-0.00213898
-0.000490656
-0.00217832
-0.000527495
-0.00221959
-0.000565242
-0.0022628
-0.000603962
-0.00230794
-0.000643683
-0.00235522
-0.00240467
-0.000685566
-1.39995e-06
-0.000216873
-6.13437e-06
-0.000583793
-1.46676e-05
-0.000894912
-2.71936e-05
-0.00114979
-4.3615e-05
-0.0013513
-6.35911e-05
-0.00150524
-8.66249e-05
-0.00161948
-0.000112158
-0.00170274
-0.000139654
-0.00176349
-0.000168654
-0.00180916
-0.000198806
-0.00184565
-0.000229863
-0.00187728
-0.000261674
-0.00190693
-0.00029416
-0.00193637
-0.000327289
-0.00196663
-0.000361062
-0.00199823
-0.000395496
-0.00203144
-0.000430619
-0.00206639
-0.000466468
-0.00210313
-0.000503085
-0.0021417
-0.000540527
-0.00218214
-0.000578872
-0.00222446
-0.000618182
-0.00226863
-0.000658577
-0.00231483
-0.00236272
-0.000700528
-1.58571e-06
-0.000215287
-6.77959e-06
-0.000578599
-1.59604e-05
-0.000885732
-2.92432e-05
-0.00113651
-4.64658e-05
-0.00133407
-6.72402e-05
-0.00148447
-9.10403e-05
-0.00159568
-0.000117295
-0.00167648
-0.000145466
-0.00173532
-0.0001751
-0.00177952
-0.000205855
-0.0018149
-0.000237494
-0.00184564
-0.000269876
-0.00187454
-0.000302925
-0.00190332
-0.000336617
-0.00193294
-0.000370952
-0.0019639
-0.000405952
-0.00199644
-0.000441646
-0.0020307
-0.000478069
-0.00206671
-0.000515265
-0.00210451
-0.000553287
-0.00214412
-0.000592201
-0.00218555
-0.000632065
-0.00222877
-0.000672995
-0.0022739
-0.00232053
-0.000715189
-1.76983e-06
-0.000213517
-7.41766e-06
-0.000572951
-1.72362e-05
-0.000875913
-3.12622e-05
-0.00112248
-4.92694e-05
-0.00131607
-7.08241e-05
-0.00146291
-9.53724e-05
-0.00157114
-0.000122331
-0.00164952
-0.00015116
-0.00170649
-0.000181415
-0.00174927
-0.000212761
-0.00178355
-0.000244971
-0.00181343
-0.000277912
-0.0018416
-0.000311514
-0.00186972
-0.000345758
-0.00189869
-0.000380646
-0.00192901
-0.000416201
-0.00196089
-0.000452453
-0.00199445
-0.000489438
-0.00202972
-0.000527197
-0.00206675
-0.00056578
-0.00210554
-0.000605243
-0.00214608
-0.000645639
-0.00218837
-0.000687055
-0.00223248
-0.00227801
-0.000729578
-1.95217e-06
-0.000211565
-8.0481e-06
-0.000566855
-1.84941e-05
-0.000865467
-3.32493e-05
-0.00110773
-5.20246e-05
-0.00129729
-7.43417e-05
-0.0014406
-9.96202e-05
-0.00154586
-0.000127265
-0.00162188
-0.000156738
-0.00167702
-0.000187599
-0.00171841
-0.000219522
-0.00175163
-0.000252292
-0.00178066
-0.000285781
-0.00180811
-0.000319927
-0.00183557
-0.000354711
-0.00186391
-0.000390142
-0.00189358
-0.000426241
-0.00192479
-0.00046304
-0.00195765
-0.000500573
-0.00199219
-0.000538882
-0.00202844
-0.000578011
-0.00206641
-0.000618007
-0.00210609
-0.000658919
-0.00214746
-0.000700809
-0.00219059
-0.0022351
-0.000743713
-2.13258e-06
-0.000209432
-8.67042e-06
-0.000560317
-1.97335e-05
-0.000854404
-3.52037e-05
-0.00109226
-5.47303e-05
-0.00127776
-7.77919e-05
-0.00141754
-0.000103783
-0.00151987
-0.000132098
-0.00159356
-0.000162198
-0.00164692
-0.000193651
-0.00168696
-0.00022614
-0.00171914
-0.000259457
-0.00174734
-0.000293484
-0.00177409
-0.000328162
-0.00180089
-0.000363477
-0.00182859
-0.00039944
-0.00185761
-0.000436072
-0.00188816
-0.000473405
-0.00192031
-0.000511475
-0.00195412
-0.00055032
-0.0019896
-0.000589981
-0.00202675
-0.0006305
-0.00206557
-0.000671918
-0.00210605
-0.00071428
-0.00214823
-0.00219178
-0.000757602
-2.31092e-06
-0.000207121
-9.28419e-06
-0.000553344
-2.09535e-05
-0.000842735
-3.71242e-05
-0.00107609
-5.73854e-05
-0.0012575
-8.11738e-05
-0.00139375
-0.000107859
-0.00149318
-0.000136827
-0.0015646
-0.00016754
-0.0016162
-0.000199571
-0.00165493
-0.000232613
-0.0016861
-0.000266466
-0.00171349
-0.000301019
-0.00173954
-0.000336219
-0.00176569
-0.000372055
-0.00179276
-0.000408538
-0.00182113
-0.000445693
-0.001851
-0.00048355
-0.00188246
-0.000522144
-0.00191553
-0.000561513
-0.00195023
-0.000601694
-0.00198657
-0.000642726
-0.00202454
-0.000684643
-0.00206413
-0.000727479
-0.00210539
-0.00214801
-0.000771245
-2.48703e-06
-0.000204634
-9.88894e-06
-0.000545942
-2.21533e-05
-0.00083047
-3.90101e-05
-0.00105923
-5.99891e-05
-0.00123652
-8.44863e-05
-0.00136925
-0.000111849
-0.00146582
-0.000141453
-0.00153499
-0.000172763
-0.00158489
-0.000205358
-0.00162233
-0.00023894
-0.00165252
-0.000273318
-0.00167911
-0.000308387
-0.00170447
-0.000344098
-0.00172998
-0.000380444
-0.00175641
-0.000417437
-0.00178414
-0.000455103
-0.00181334
-0.000493473
-0.00184409
-0.000532581
-0.00187642
-0.000572462
-0.00191035
-0.000613153
-0.00194588
-0.000654688
-0.001983
-0.000697098
-0.00202172
-0.000740412
-0.00206208
-0.00210379
-0.000784638
-2.66077e-06
-0.000201974
-1.04843e-05
-0.000538119
-2.33324e-05
-0.000817622
-4.08604e-05
-0.0010417
-6.25403e-05
-0.00121484
-8.77287e-05
-0.00134406
-0.000115751
-0.0014378
-0.000145975
-0.00150477
-0.000177867
-0.001553
-0.000211013
-0.00158919
-0.000245122
-0.00161841
-0.000280013
-0.00164422
-0.000315586
-0.00166889
-0.000351798
-0.00169377
-0.000388643
-0.00171957
-0.000426136
-0.00174665
-0.000464303
-0.00177517
-0.000503175
-0.00180521
-0.000542785
-0.00183681
-0.000583168
-0.00186996
-0.000624359
-0.00190469
-0.00066639
-0.00194097
-0.000709288
-0.00197882
-0.000753081
-0.00201829
-0.00205909
-0.000797777
-2.83201e-06
-0.000199142
-1.10698e-05
-0.000529881
-2.449e-05
-0.000804202
-4.26744e-05
-0.00102352
-6.50382e-05
-0.00119248
-9.09001e-05
-0.0013182
-0.000119565
-0.00140913
-0.000150393
-0.00147394
-0.000182851
-0.00152054
-0.000216534
-0.0015555
-0.000251159
-0.00158378
-0.000286551
-0.00160883
-0.000322617
-0.00163283
-0.000359319
-0.00165707
-0.000396653
-0.00168223
-0.000434635
-0.00170866
-0.000473292
-0.00173651
-0.000512655
-0.00176585
-0.000552757
-0.00179671
-0.000593632
-0.00182909
-0.000635313
-0.001863
-0.000677831
-0.00189845
-0.000721213
-0.00193544
-0.000765484
-0.00197402
-0.00201392
-0.000810658
-3.00059e-06
-0.000196141
-1.16451e-05
-0.000521236
-2.56255e-05
-0.000790222
-4.44512e-05
-0.00100469
-6.7482e-05
-0.00116945
-9.39999e-05
-0.00129168
-0.000123289
-0.00137984
-0.000154705
-0.00144252
-0.000187716
-0.00148753
-0.000221922
-0.0015213
-0.00025705
-0.00154866
-0.000292932
-0.00157295
-0.00032948
-0.00159628
-0.000366661
-0.00161989
-0.000404473
-0.00164442
-0.000442933
-0.0016702
-0.000482069
-0.00169738
-0.000521913
-0.00172601
-0.000562496
-0.00175612
-0.000603853
-0.00178773
-0.000646015
-0.00182084
-0.000689014
-0.00185545
-0.000732874
-0.00189158
-0.000777622
-0.00192927
-0.00196827
-3.16639e-06
-0.000192975
-1.22098e-05
-0.000512193
-2.67384e-05
-0.000775693
-4.61902e-05
-0.000985241
-6.9871e-05
-0.00114577
-9.70274e-05
-0.00126452
-0.000126925
-0.00134994
-0.000158912
-0.00141054
-0.00019246
-0.00145398
-0.000227176
-0.00148658
-0.000262794
-0.00151304
-0.000299155
-0.00153659
-0.000336174
-0.00155926
-0.000373823
-0.00158224
-0.000412102
-0.00160614
-0.00045103
-0.00163127
-0.000490635
-0.00165777
-0.000530949
-0.00168569
-0.000572003
-0.00171507
-0.000613832
-0.0017459
-0.000656467
-0.00177821
-0.000699938
-0.00181198
-0.000744271
-0.00184724
-0.000789493
-0.00188405
-0.00192214
-3.32929e-06
-0.000189645
-1.27635e-05
-0.000502759
-2.78281e-05
-0.000760628
-4.78906e-05
-0.000965178
-7.22044e-05
-0.00112145
-9.99818e-05
-0.00123675
-0.00013047
-0.00131946
-0.000163013
-0.00137799
-0.000197084
-0.00141991
-0.000232296
-0.00145137
-0.000268393
-0.00147694
-0.00030522
-0.00149976
-0.000342699
-0.00152178
-0.000380805
-0.00154413
-0.000419541
-0.00156741
-0.000458926
-0.00159189
-0.00049899
-0.00161771
-0.000539763
-0.00164492
-0.000581278
-0.00167355
-0.000623569
-0.00170361
-0.000666667
-0.00173511
-0.000710602
-0.00176805
-0.000755402
-0.00180245
-0.000801093
-0.00183835
-0.00187553
-3.48917e-06
-0.000186156
-1.3306e-05
-0.000492942
-2.8894e-05
-0.00074504
-4.95519e-05
-0.00094452
-7.44817e-05
-0.00109652
-0.000102863
-0.00120837
-0.000133925
-0.00128839
-0.000167008
-0.00134491
-0.000201587
-0.00138533
-0.000237283
-0.00141567
-0.000273845
-0.00144038
-0.000311127
-0.00146248
-0.000349055
-0.00148385
-0.000387608
-0.00150558
-0.000426789
-0.00152823
-0.000466621
-0.00155206
-0.000507132
-0.0015772
-0.000548354
-0.0016037
-0.00059032
-0.00163159
-0.000633064
-0.00166087
-0.000676616
-0.00169156
-0.000721007
-0.00172366
-0.000766266
-0.00175719
-0.00081242
-0.0017922
-3.64589e-06
-0.00018251
-1.38369e-05
-0.000482751
-2.99356e-05
-0.000728942
-5.11734e-05
-0.000923282
-7.67023e-05
-0.001071
-0.00010567
-0.0011794
-0.00013729
-0.00125677
-0.000170896
-0.00131131
-0.000205969
-0.00135026
-0.000242135
-0.00137951
-0.000279151
-0.00140336
-0.000316875
-0.00142475
-0.000355242
-0.00144549
-0.00039423
-0.00146659
-0.000433846
-0.00148861
-0.000474114
-0.00151179
-0.000515062
-0.00153625
-0.000556723
-0.00156204
-0.000599129
-0.00158918
-0.000642315
-0.00161768
-0.000686312
-0.00164756
-0.000731151
-0.00167882
-0.000776861
-0.00171148
-0.00174559
-3.79937e-06
-0.000178711
-1.43559e-05
-0.000472194
-3.09526e-05
-0.000712345
-5.27546e-05
-0.00090148
-7.88654e-05
-0.00104489
-0.000108402
-0.00114986
-0.000140563
-0.00122461
-0.000174678
-0.00127719
-0.00021023
-0.00131471
-0.000246853
-0.00134288
-0.00028431
-0.00136591
-0.000322466
-0.0013866
-0.000361259
-0.00140669
-0.000400671
-0.00142718
-0.000440712
-0.00144857
-0.000481404
-0.0014711
-0.000522779
-0.00149488
-0.000564868
-0.00151995
-0.000607705
-0.00154634
-0.000651323
-0.00157406
-0.000695755
-0.00160313
-0.000741033
-0.00163354
-0.000787186
-0.00166532
-0.00169853
-3.94948e-06
-0.000174761
-1.48627e-05
-0.000461281
-3.19443e-05
-0.000695263
-5.42949e-05
-0.00087913
-8.09708e-05
-0.00101821
-0.000111059
-0.00111977
-0.000143744
-0.00119193
-0.000178353
-0.00124258
-0.00021437
-0.00127869
-0.000251436
-0.00130582
-0.000289322
-0.00132802
-0.000327898
-0.00134802
-0.000367106
-0.00136748
-0.000406931
-0.00138736
-0.000447385
-0.00140811
-0.000488492
-0.00142999
-0.000530282
-0.00145309
-0.000572789
-0.00147744
-0.000616045
-0.00150308
-0.000660086
-0.00153002
-0.000704944
-0.00155827
-0.000750651
-0.00158783
-0.000797238
-0.00161874
-4.09613e-06
-0.000170665
-1.53571e-05
-0.00045002
-3.29105e-05
-0.00067771
-5.57938e-05
-0.000856246
-8.30177e-05
-0.000990985
-0.000113641
-0.00108915
-0.000146834
-0.00115873
-0.00018192
-0.0012075
-0.000218389
-0.00124222
-0.000255885
-0.00126832
-0.000294187
-0.00128972
-0.000333171
-0.00130904
-0.000372783
-0.00132787
-0.000413011
-0.00134713
-0.000453867
-0.00136726
-0.000495377
-0.00138848
-0.000537572
-0.00141089
-0.000580485
-0.00143453
-0.000624151
-0.00145942
-0.000668604
-0.00148557
-0.000713878
-0.001513
-0.000760004
-0.0015417
-0.00157173
-4.23922e-06
-0.000166426
-1.58387e-05
-0.000438421
-3.38506e-05
-0.000659698
-5.72509e-05
-0.000832846
-8.50058e-05
-0.00096323
-0.000116147
-0.00105801
-0.000149832
-0.00112505
-0.000185381
-0.00117195
-0.000222286
-0.00120532
-0.0002602
-0.00123041
-0.000298906
-0.00125101
-0.000338286
-0.00126965
-0.00037829
-0.00128787
-0.000418909
-0.00130651
-0.000460156
-0.00132601
-0.000502058
-0.00134658
-0.000544647
-0.0013683
-0.000587956
-0.00139122
-0.000632021
-0.00141535
-0.000676876
-0.00144072
-0.000722554
-0.00146732
-0.000769091
-0.00149517
-0.0015243
-4.37865e-06
-0.000162047
-1.63073e-05
-0.000426492
-3.47644e-05
-0.000641241
-5.86657e-05
-0.000808945
-8.69347e-05
-0.000934961
-0.000118577
-0.00102637
-0.000152737
-0.00109089
-0.000188733
-0.00113595
-0.000226061
-0.00116799
-0.000264379
-0.00119209
-0.000303477
-0.00121191
-0.000343242
-0.00122989
-0.000383627
-0.00124748
-0.000424625
-0.00126551
-0.000466252
-0.00128438
-0.000508535
-0.00130429
-0.000551507
-0.00132533
-0.000595202
-0.00134753
-0.000639654
-0.0013709
-0.0006849
-0.00139547
-0.000730973
-0.00142124
-0.000777909
-0.00144823
-0.00147647
-4.51434e-06
-0.000157533
-1.67627e-05
-0.000414244
-3.56514e-05
-0.000622352
-6.00378e-05
-0.000784558
-8.88039e-05
-0.000906195
-0.00012093
-0.000994242
-0.000155549
-0.00105627
-0.000191978
-0.00109952
-0.000229715
-0.00113025
-0.000268424
-0.00115338
-0.000307901
-0.00117244
-0.000348039
-0.00118975
-0.000388793
-0.00120673
-0.000430159
-0.00122414
-0.000472155
-0.00124239
-0.000514808
-0.00126164
-0.000558152
-0.00128199
-0.000602221
-0.00130346
-0.00064705
-0.00132607
-0.000692676
-0.00134984
-0.000739133
-0.00137479
-0.000786457
-0.00140091
-4.64619e-06
-0.000152887
-1.72047e-05
-0.000401685
-3.65113e-05
-0.000603046
-6.13668e-05
-0.000759703
-9.06131e-05
-0.000876949
-0.000123206
-0.000961649
-0.000158269
-0.00102121
-0.000195114
-0.00106268
-0.000233246
-0.00109212
-0.000272334
-0.00111429
-0.000312178
-0.00113259
-0.000352676
-0.00114925
-0.000393788
-0.00116562
-0.000435511
-0.00118242
-0.000477864
-0.00120003
-0.000520876
-0.00121863
-0.00056458
-0.00123828
-0.000609012
-0.00125903
-0.000654207
-0.00128088
-0.000700202
-0.00130385
-0.000747032
-0.00132796
-0.00135321
-4.77413e-06
-0.000148113
-1.7633e-05
-0.000388826
-3.73438e-05
-0.000583335
-6.26523e-05
-0.000734395
-9.23618e-05
-0.000847239
-0.000125405
-0.000928605
-0.000160895
-0.000985717
-0.000198143
-0.00102543
-0.000236656
-0.00105361
-0.000276108
-0.00107484
-0.000316307
-0.00109239
-0.000357154
-0.00110841
-0.000398612
-0.00112416
-0.000440681
-0.00114035
-0.00048338
-0.00115734
-0.000526739
-0.00117527
-0.000570792
-0.00119423
-0.000615575
-0.00121424
-0.000661125
-0.00123533
-0.000707477
-0.0012575
-0.000754669
-0.00128076
-0.00130514
-4.89807e-06
-0.000143215
-1.80475e-05
-0.000375677
-3.81486e-05
-0.000563234
-6.3894e-05
-0.000708649
-9.40498e-05
-0.000817084
-0.000127527
-0.000895128
-0.000163428
-0.000949816
-0.000201063
-0.000987792
-0.000239943
-0.00101473
-0.000279748
-0.00103504
-0.000320289
-0.00105185
-0.000361473
-0.00106722
-0.000403265
-0.00108237
-0.000445667
-0.00109795
-0.0004887
-0.0011143
-0.000532395
-0.00113158
-0.000576786
-0.00114984
-0.000621909
-0.00116912
-0.000667802
-0.00118944
-0.000714501
-0.0012108
-0.000762043
-0.00123322
-0.00125671
-5.01795e-06
-0.000138197
-1.84479e-05
-0.000362247
-3.89254e-05
-0.000542756
-6.50916e-05
-0.000682483
-9.56768e-05
-0.000786498
-0.000129571
-0.000861234
-0.000165867
-0.00091352
-0.000203875
-0.000949784
-0.000243109
-0.000975495
-0.000283252
-0.000994892
-0.000324123
-0.00101098
-0.000365631
-0.00102572
-0.000407746
-0.00104025
-0.00045047
-0.00105523
-0.000493826
-0.00107095
-0.000537845
-0.00108756
-0.000582562
-0.00110512
-0.000628014
-0.00112367
-0.000674238
-0.00114321
-0.000721271
-0.00116377
-0.000769152
-0.00118534
-5.13368e-06
-0.000133063
-1.8834e-05
-0.000348547
-3.96738e-05
-0.000521916
-6.62446e-05
-0.000655912
-9.72424e-05
-0.000755501
-0.000131537
-0.000826939
-0.000168213
-0.000876844
-0.000206579
-0.000911418
-0.000246151
-0.000935923
-0.000286621
-0.000954423
-0.000327809
-0.000969794
-0.00036963
-0.000983895
-0.000412055
-0.000997829
-0.00045509
-0.00101219
-0.000498757
-0.00102728
-0.000543088
-0.00104323
-0.00058812
-0.00106009
-0.000633888
-0.0010779
-0.000680431
-0.00109667
-0.000727788
-0.00111641
-0.00113713
-5.2452e-06
-0.000127818
-1.92057e-05
-0.000334586
-4.03937e-05
-0.000500728
-6.73529e-05
-0.000628953
-9.87464e-05
-0.000724107
-0.000133425
-0.000792261
-0.000170465
-0.000839804
-0.000209174
-0.00087271
-0.000249072
-0.000896025
-0.000289854
-0.000913641
-0.000331347
-0.0009283
-0.000373469
-0.000941774
-0.000416192
-0.000955105
-0.000459525
-0.000968859
-0.000503492
-0.000983312
-0.000548124
-0.000998593
-0.000593458
-0.00101476
-0.000639531
-0.00103183
-0.000686382
-0.00104982
-0.000734049
-0.00106874
-0.00108861
-5.35245e-06
-0.000122465
-1.95628e-05
-0.000320376
-4.10848e-05
-0.000479206
-6.84161e-05
-0.000601622
-0.000100188
-0.000692335
-0.000135234
-0.000757215
-0.000172622
-0.000802416
-0.00021166
-0.000833672
-0.00025187
-0.000855815
-0.000292952
-0.000872558
-0.000334737
-0.000886515
-0.000377147
-0.000899364
-0.000420157
-0.000912095
-0.000463776
-0.000925239
-0.00050803
-0.000939059
-0.000552951
-0.000953672
-0.000598575
-0.000969131
-0.000644942
-0.000985459
-0.000692088
-0.00100267
-0.000740054
-0.00102078
-0.00103978
-5.45536e-06
-0.00011701
-1.99051e-05
-0.000305926
-4.17468e-05
-0.000457365
-6.94341e-05
-0.000573934
-0.000101568
-0.000660201
-0.000136965
-0.000721818
-0.000174686
-0.000764696
-0.000214037
-0.000794321
-0.000254545
-0.000815307
-0.000295914
-0.000831189
-0.000337979
-0.00084445
-0.000380665
-0.000856679
-0.000423949
-0.00086881
-0.000467843
-0.000881346
-0.000512372
-0.00089453
-0.00055757
-0.000908475
-0.000603473
-0.000923228
-0.00065012
-0.000938812
-0.00069755
-0.00095524
-0.000745802
-0.000972523
-0.00099067
-5.55387e-06
-0.000111456
-2.02326e-05
-0.000291247
-4.23796e-05
-0.000435217
-7.04064e-05
-0.000545908
-0.000102886
-0.000627721
-0.000138617
-0.000686087
-0.000176655
-0.000726658
-0.000216305
-0.000754671
-0.000257097
-0.000774514
-0.00029874
-0.000789547
-0.000341072
-0.000802117
-0.000384022
-0.000813729
-0.000427569
-0.000825263
-0.000471725
-0.000837189
-0.000516517
-0.000849738
-0.000561979
-0.000863013
-0.000608148
-0.000877059
-0.000655064
-0.000891897
-0.000702765
-0.000907539
-0.000751292
-0.000923996
-5.64793e-06
-0.000105808
-2.05449e-05
-0.00027635
-4.29829e-05
-0.00041278
-7.1333e-05
-0.000517557
-0.000104141
-0.000594913
-0.00014019
-0.000650038
-0.000178529
-0.000688319
-0.000218464
-0.000714736
-0.000259527
-0.000733451
-0.00030143
-0.000747643
-0.000344017
-0.00075953
-0.000387218
-0.000770529
-0.000431015
-0.000781466
-0.000475421
-0.000792783
-0.000520464
-0.000804695
-0.000566179
-0.000817298
-0.000612602
-0.000830635
-0.000659774
-0.000844725
-0.000707734
-0.000859579
-0.000875208
-5.73749e-06
-0.000100071
-2.08421e-05
-0.000261246
-4.35565e-05
-0.000390065
-7.22135e-05
-0.0004889
-0.000105333
-0.000561794
-0.000141684
-0.000613687
-0.000180309
-0.000649695
-0.000220514
-0.000674531
-0.000261834
-0.000692131
-0.000303985
-0.000705492
-0.000346814
-0.000716701
-0.000390253
-0.000727089
-0.000434288
-0.000737431
-0.000478932
-0.000748139
-0.000524214
-0.000759413
-0.000570169
-0.000771344
-0.000616834
-0.00078397
-0.000664249
-0.000797309
-0.000712455
-0.000811373
-0.000826171
-5.82249e-06
-9.42483e-05
-2.1124e-05
-0.000245944
-4.41002e-05
-0.000367089
-7.30478e-05
-0.000459953
-0.000106462
-0.000528379
-0.000143099
-0.00057705
-0.000181994
-0.000610799
-0.000222454
-0.000634071
-0.000264017
-0.000650568
-0.000306403
-0.000663106
-0.000349461
-0.000673643
-0.000393127
-0.000683423
-0.000437387
-0.000693171
-0.000482257
-0.000703269
-0.000527766
-0.000713905
-0.000573948
-0.000725161
-0.000620842
-0.000737075
-0.000668489
-0.000749663
-0.000716929
-0.000762934
-0.000776898
-5.90288e-06
-8.83454e-05
-2.13904e-05
-0.000230457
-4.46139e-05
-0.000343866
-7.38357e-05
-0.000430731
-0.000107528
-0.000494687
-0.000144434
-0.000540145
-0.000183584
-0.000571649
-0.000224286
-0.00059337
-0.000266078
-0.000608775
-0.000308685
-0.000620499
-0.00035196
-0.000630369
-0.00039584
-0.000639544
-0.000440313
-0.000648697
-0.000485396
-0.000658186
-0.000531118
-0.000668182
-0.000577516
-0.000678764
-0.000624627
-0.000689964
-0.000672493
-0.000701797
-0.000721153
-0.000714274
-0.000727401
-5.97863e-06
-8.23668e-05
-2.16413e-05
-0.000214794
-4.50974e-05
-0.000320409
-7.4577e-05
-0.000401251
-0.000108531
-0.000460733
-0.000145689
-0.000502986
-0.00018508