/*--------------------------------*- C++ -*----------------------------------*\
  =========                 |
  \\      /  F ield         | OpenFOAM: The Open Source CFD Toolbox
   \\    /   O peration     | Website:  https://openfoam.org
    \\  /    A nd           | Version:  7
     \\/     M anipulation  |
\*---------------------------------------------------------------------------*/
FoamFile
{
    version     2.0;
    format      ascii;
    class       volVectorField;
    location    "160";
    object      U;
}
// * * * * * * * * * * * * * * * * * * * * * * * * * * * * * * * * * * * * * //

dimensions      [0 1 -1 0 0 0 0];

internalField   nonuniform List<vector> 
10230
(
(-0.000611665 0.000499463 2.39971e-21)
(-0.00321654 0.00112051 3.36071e-21)
(-0.00793613 0.00145842 -7.16562e-21)
(-0.0133786 0.00158226 -1.42074e-21)
(-0.0189351 0.00154376 -1.3969e-20)
(-0.0241436 0.00139029 1.87654e-20)
(-0.0286649 0.00116556 3.40867e-21)
(-0.0323095 0.000910192 -1.3191e-20)
(-0.0350345 0.000662142 -1.11207e-21)
(-0.0369167 0.000451397 5.1378e-22)
(-0.0380561 0.000304659 1.55545e-21)
(-0.000675641 0.00148924 5.93528e-21)
(-0.00333011 0.00333913 2.34087e-20)
(-0.00801484 0.00434399 8.86597e-21)
(-0.0133586 0.00470967 1.5196e-20)
(-0.0187609 0.00459072 1.4697e-20)
(-0.0237667 0.00412872 -2.28798e-20)
(-0.0280426 0.00345434 3.21391e-21)
(-0.0314037 0.00268932 1.2677e-20)
(-0.0338138 0.00194757 -1.65383e-20)
(-0.0353552 0.00131974 2.4099e-20)
(-0.0360956 0.000887744 2.6493e-20)
(-0.00080142 0.00245174 -5.8261e-21)
(-0.00355192 0.00549099 -3.28959e-20)
(-0.00816486 0.0071363 -2.99962e-21)
(-0.0133098 0.00772643 -1.60228e-21)
(-0.0184029 0.00751678 -4.00424e-21)
(-0.0230029 0.00674148 2.79823e-20)
(-0.026788 0.00561698 2.25563e-20)
(-0.0295823 0.00434553 9.96769e-21)
(-0.0313628 0.00311729 4.08492e-20)
(-0.0322239 0.0020855 -2.77285e-20)
(-0.0321662 0.00139254 -2.19256e-20)
(-0.000984703 0.00336941 2.19244e-20)
(-0.00387141 0.00753296 5.41334e-21)
(-0.00837145 0.0097751 -1.79943e-20)
(-0.0132146 0.010561 1.38552e-20)
(-0.0178418 0.0102439 7.73683e-21)
(-0.0218321 0.00914762 3.46806e-20)
(-0.0248808 0.00757231 -4.13956e-20)
(-0.0268256 0.00579983 3.05154e-20)
(-0.0276623 0.00409718 -7.79088e-20)
(-0.0275059 0.00268348 2.65512e-20)
(-0.0262507 0.00176789 -4.41202e-20)
(-0.00121915 0.00422557 -2.13131e-20)
(-0.0042729 0.00942395 1.1858e-20)
(-0.00861263 0.0122029 -2.2448e-20)
(-0.0130469 0.0131454 -6.40384e-20)
(-0.0170487 0.0126979 -3.51538e-20)
(-0.020224 0.0112704 -4.08721e-20)
(-0.0222907 0.00924355 4.86247e-22)
(-0.0231036 0.00697764 1.01943e-21)
(-0.022683 0.00481772 1.57265e-19)
(-0.0211766 0.00305371 -5.69783e-20)
(-0.0183235 0.00196643 -1.67286e-20)
(-0.00149647 0.00500473 2.62768e-20)
(-0.0047358 0.0111256 3.21581e-20)
(-0.00885938 0.014366 -2.96155e-20)
(-0.0127716 0.015416 1.39957e-19)
(-0.015985 0.0148099 -8.86695e-20)
(-0.0181383 0.0130388 5.82344e-20)
(-0.0189768 0.0105601 -2.64307e-20)
(-0.0183756 0.00781044 -7.90627e-20)
(-0.0163838 0.00521342 3.06941e-20)
(-0.0132008 0.00313409 -3.57053e-20)
(-0.0083554 0.0019606 7.52477e-20)
(-0.00180663 0.00569284 -3.6703e-20)
(-0.00523486 0.0126029 8.1076e-20)
(-0.0090758 0.0162154 -2.13875e-20)
(-0.0123454 0.0173151 -1.18606e-20)
(-0.0146025 0.0165178 6.44312e-20)
(-0.0155241 0.0143896 2.22438e-20)
(-0.0148877 0.0114596 -7.67919e-20)
(-0.0125917 0.00823777 -3.3852e-20)
(-0.00871558 0.00522172 -1.90983e-19)
(-0.00351798 0.0028392 1.09465e-19)
(0.00368333 0.00175496 -1.38381e-20)
(-0.00213792 0.00627746 9.72441e-20)
(-0.00574043 0.0138246 -9.09558e-20)
(-0.0092194 0.0177077 -8.53044e-20)
(-0.0117166 0.0187921 -1.22404e-20)
(-0.0128433 0.0177675 -4.19424e-20)
(-0.0123203 0.0152688 -4.12376e-20)
(-0.00996147 0.01189 4.62984e-20)
(-0.005693 0.00821042 1.08064e-19)
(0.000363653 0.00479874 -2.44618e-20)
(0.00794263 0.00216445 3.39178e-21)
(0.0178763 0.00127917 -1.33908e-19)
(-0.00247717 0.00674789 -1.22278e-19)
(-0.00621875 0.014764 4.9301e-20)
(-0.00924136 0.0188056 1.07406e-19)
(-0.0108253 0.0198039 -4.70852e-20)
(-0.01064 0.0185146 -5.50659e-20)
(-0.00845494 0.015633 8.19041e-20)
(-0.00412443 0.0118116 5.17273e-20)
(0.00239537 0.00769331 3.5875e-20)
(0.0109377 0.00392092 1.80409e-19)
(0.0212174 0.00111025 -1.81786e-19)
(0.0342872 0.000470066 1.23626e-19)
(-0.00280985 0.00709523 -1.05179e-20)
(-0.00663223 0.0153985 6.94297e-20)
(-0.00908681 0.0194785 -5.10369e-20)
(-0.00960366 0.0203161 2.83228e-20)
(-0.00791574 0.0187247 2.02774e-19)
(-0.00384576 0.0154513 -7.89079e-20)
(0.002708 0.0111979 -3.61661e-20)
(0.0117579 0.00666492 2.85463e-20)
(0.0230908 0.00256502 1.19287e-19)
(0.0363872 -0.000374626 -7.38666e-21)
(0.05298 -0.000640062 1.53121e-19)
(-0.00312025 0.00731237 7.33609e-20)
(-0.00693974 0.0157104 -1.14922e-19)
(-0.00869527 0.0197028 -2.39403e-20)
(-0.00797656 0.0203038 -3.49642e-20)
(-0.00458471 0.0183749 -2.043e-19)
(0.00159987 0.014706 -1.3161e-19)
(0.0106313 0.0100386 -1.54844e-19)
(0.022489 0.00512129 -1.05747e-19)
(0.0369133 0.000729398 -1.38258e-19)
(0.053541 -0.00229651 1.61715e-19)
(0.0740378 -0.00203784 -3.1461e-20)
(-0.00339151 0.00739394 1.63831e-20)
(-0.00709691 0.0156866 8.8076e-20)
(-0.00800101 0.0194626 1.23645e-19)
(-0.00586169 0.0197515 9.29166e-20)
(-0.000552545 0.0174544 9.04759e-20)
(0.00798432 0.013394 2.21112e-19)
(0.0197516 0.0083403 7.83315e-20)
(0.034694 0.00307901 -9.2071e-20)
(0.052505 -0.00156337 3.46899e-19)
(0.0727729 -0.00463388 -2.16794e-19)
(0.0975515 -0.00370503 -7.67789e-20)
(-0.00360578 0.00733623 1.37732e-19)
(-0.00705646 0.0153192 -2.32298e-19)
(-0.00693352 0.0187491 1.18915e-20)
(-0.00317052 0.0186537 -9.93365e-20)
(0.00428294 0.0159646 -9.08835e-20)
(0.0154191 0.0115271 2.427e-20)
(0.0301851 0.00612834 4.49854e-20)
(0.0484884 0.000577097 -1.59338e-19)
(0.0699754 -0.00426526 -9.14007e-20)
(0.0941834 -0.00734166 2.20327e-19)
(0.123617 -0.0056043 1.9455e-19)
(-0.00374417 0.00713733 -7.54732e-21)
(-0.00676857 0.0146047 -6.87535e-20)
(-0.00541843 0.0175612 2.1755e-19)
(0.00019085 0.0170151 -4.38033e-20)
(0.0100305 0.0139194 -1.60184e-19)
(0.0240234 0.0091327 -4.30146e-20)
(0.0420569 0.00344687 -2.46558e-21)
(0.063997 -0.00232155 -2.27754e-19)
(0.0894421 -0.00729934 -2.72107e-19)
(0.117878 -0.0103455 1.19677e-19)
(0.15233 -0.00767653 6.38801e-20)
(-0.00378706 0.00679689 -1.38634e-19)
(-0.00618123 0.0135445 5.52828e-21)
(-0.00337819 0.0159055 -2.82843e-19)
(0.00432032 0.0148503 2.68895e-19)
(0.0168039 0.0113448 2.01691e-19)
(0.0339226 0.00625233 -7.86671e-21)
(0.0554992 0.00035835 4.41786e-20)
(0.0813524 -0.00552974 2.48137e-19)
(0.111029 -0.0105566 4.28857e-19)
(0.143965 -0.0135344 -1.81531e-19)
(0.183781 -0.00983474 -1.35673e-19)
(-0.00371404 0.00631614 6.54663e-21)
(-0.00524095 0.0121448 1.35495e-19)
(-0.000733266 0.0137959 2.20564e-19)
(0.00931809 0.0121832 -1.48474e-19)
(0.0247195 0.00827797 -5.66299e-20)
(0.0452457 0.00294074 -6.51737e-20)
(0.0706493 -0.00305856 4.3698e-20)
(0.100693 -0.00893756 7.69718e-20)
(0.134867 -0.0138941 1.48202e-19)
(0.172556 -0.0167515 1.33784e-19)
(0.218047 -0.0119547 5.57274e-21)
(-0.00350417 0.00569808 8.54635e-20)
(-0.00389342 0.0104171 2.1984e-20)
(0.00259646 0.0112542 5.5604e-20)
(0.0152845 0.00904739 -6.64211e-20)
(0.0338935 0.00476629 -9.80613e-20)
(0.0581213 -0.000736568 1.04738e-19)
(0.087645 -0.00671276 2.32472e-19)
(0.122162 -0.0124169 -3.50285e-20)
(0.161092 -0.0171368 -3.01457e-19)
(0.203765 -0.0197872 -3.33498e-19)
(0.255192 -0.0138654 -1.36816e-20)
(-0.00313623 0.0049476 -6.4376e-20)
(-0.00208444 0.00837781 -2.92007e-20)
(0.00668993 0.00830956 -1.98292e-19)
(0.0223172 0.00548503 1.18585e-19)
(0.044438 0.000866011 1.90153e-19)
(0.0726729 -0.00470644 4.77626e-20)
(0.10662 -0.0105065 -5.70746e-19)
(0.145899 -0.0158299 -2.20094e-19)
(0.189844 -0.0200861 1.33076e-19)
(0.237724 -0.0223778 -7.77425e-20)
(0.295269 -0.0153405 -1.25354e-19)
(-0.00258909 0.0040717 7.89855e-20)
(0.00023899 0.00604922 9.6131e-21)
(0.0116229 0.00499899 2.03455e-19)
(0.0305084 0.0015471 -9.63005e-20)
(0.0564566 -0.00335896 -2.55035e-19)
(0.0890129 -0.00889141 -3.68875e-20)
(0.127696 -0.0143428 5.04508e-19)
(0.172036 -0.0190425 5.63088e-20)
(0.221265 -0.0225348 7.65512e-20)
(0.27458 -0.0241976 1.49781e-19)
(0.338323 -0.0160388 3.2271e-19)
(-0.00184215 0.00307972 -3.81042e-20)
(0.00312737 0.0034594 1.36203e-19)
(0.0174658 0.00136772 -7.91618e-21)
(0.0399408 -0.00270668 2.33508e-19)
(0.0700386 -0.00783781 -3.01731e-19)
(0.107234 -0.0132128 2.26557e-19)
(0.150972 -0.0181343 2.36083e-19)
(0.200687 -0.0219436 -1.97843e-19)
(0.255492 -0.0242912 -1.02619e-19)
(0.31447 -0.024798 1.71366e-20)
(0.384254 -0.0152495 -2.56833e-19)
(-0.000875905 0.00198358 8.45862e-20)
(0.00662741 0.00064287 -3.09455e-19)
(0.0242814 -0.00253032 -2.80154e-20)
(0.0506847 -0.00720721 -1.50409e-19)
(0.0852539 -0.0124926 4.64559e-20)
(0.127402 -0.0175929 3.26846e-19)
(0.17651 -0.0218138 -5.57432e-19)
(0.231938 -0.0244796 9.23723e-20)
(0.292702 -0.0252383 1.6187e-19)
(0.35766 -0.0236053 -8.60459e-20)
(0.432672 -0.0117402 -6.34639e-20)
(0.000327599 0.000797996 8.31719e-20)
(0.0107807 -0.00235911 2.2337e-19)
(0.0321228 -0.00663188 6.79156e-20)
(0.0627941 -0.0118748 -5.05395e-20)
(0.102146 -0.0172362 2.89709e-19)
(0.14954 -0.0219528 -6.94386e-19)
(0.204315 -0.0253401 -1.17145e-20)
(0.265811 -0.0266946 7.37976e-20)
(0.333146 -0.0254913 -3.07321e-19)
(0.405191 -0.0205394 1.12923e-19)
(0.484855 -0.00564187 1.44075e-19)
(0.00178425 -0.000459493 -1.30809e-19)
(0.0156229 -0.00549833 -1.36037e-19)
(0.0410322 -0.0108637 -3.95522e-19)
(0.0763048 -0.0166175 2.81109e-19)
(0.12073 -0.021968 -2.6609e-19)
(0.173619 -0.026203 3.25508e-19)
(0.234287 -0.0286801 4.37398e-19)
(0.302116 -0.0287169 -1.00366e-19)
(0.376651 -0.0255809 -1.61486e-19)
(0.458219 -0.0173348 -1.04809e-19)
(0.550265 -0.00240324 5.15321e-19)
(0.00350753 -0.00176857 2.16611e-19)
(0.0211826 -0.00871972 -9.91625e-20)
(0.0510397 -0.0151422 3.68798e-19)
(0.091234 -0.0213291 -1.41229e-19)
(0.14099 -0.0265678 -1.24241e-19)
(0.19956 -0.0302249 2.03496e-19)
(0.266221 -0.0317504 -2.97921e-19)
(0.340365 -0.0305961 -3.55435e-19)
(0.421774 -0.0261873 8.68426e-20)
(0.511466 -0.0173572 -1.35367e-19)
(0.609881 -0.00874926 -5.88162e-19)
(0.00550835 -0.00310639 -7.84186e-20)
(0.0274814 -0.0119618 6.71179e-20)
(0.0621636 -0.0193736 -2.07275e-19)
(0.107581 -0.0258889 4.4926e-20)
(0.162886 -0.0308932 1.63726e-19)
(0.227252 -0.0338582 -1.16141e-19)
(0.299878 -0.0343696 -2.74822e-19)
(0.380067 -0.0320888 1.00668e-19)
(0.46752 -0.0267676 -1.42252e-19)
(0.563047 -0.0180519 5.59278e-19)
(0.663916 -0.0136794 3.71996e-19)
(0.00779502 -0.00444806 4.78659e-20)
(0.0345337 -0.0151575 6.38212e-20)
(0.0744108 -0.0234558 6.30553e-20)
(0.125332 -0.0301641 -2.16445e-19)
(0.186362 -0.0347832 2.32859e-19)
(0.256575 -0.0369112 -3.65313e-20)
(0.335037 -0.0362939 7.16178e-20)
(0.420871 -0.0328212 2.58814e-19)
(0.513473 -0.0265588 -1.89838e-19)
(0.613022 -0.0176401 -3.16347e-19)
(0.714738 -0.014985 -2.17854e-19)
(0.0103733 -0.00576711 -1.68459e-19)
(0.0423466 -0.0182358 6.39704e-20)
(0.0877773 -0.0272802 -9.06072e-20)
(0.144456 -0.0340136 -1.27223e-19)
(0.21135 -0.0380669 -1.40834e-19)
(0.287403 -0.0391793 2.34898e-20)
(0.371507 -0.037269 5.15793e-19)
(0.462536 -0.0324447 2.5856e-19)
(0.559479 -0.0250322 4.35273e-19)
(0.661803 -0.0154481 1.13696e-19)
(0.763691 -0.0129255 -1.38446e-19)
(0.0132465 -0.00703596 2.23504e-20)
(0.0509202 -0.0211228 7.11044e-20)
(0.102248 -0.0307347 2.04571e-19)
(0.164911 -0.0372927 5.12262e-20)
(0.237767 -0.0405707 6.85303e-20)
(0.319605 -0.0404606 2.18315e-19)
(0.409107 -0.0370583 -8.91846e-20)
(0.504861 -0.0306756 -2.7008e-19)
(0.605423 -0.0218495 -1.50627e-19)
(0.709602 -0.011174 2.10645e-19)
(0.811158 -0.00774563 2.31049e-19)
(0.0164155 -0.00822641 -3.58224e-20)
(0.0602468 -0.0237431 -2.69469e-19)
(0.117794 -0.0337058 6.97494e-20)
(0.18664 -0.0398572 1.60567e-19)
(0.265515 -0.0421259 7.81265e-20)
(0.353036 -0.0405666 -5.35021e-19)
(0.447654 -0.0354559 6.58104e-21)
(0.547648 -0.0272959 -7.91585e-20)
(0.65116 -0.0168011 3.44918e-19)
(0.756428 -0.00469317 -3.59455e-19)
(0.857156 0.000302999 -7.21535e-20)
(0.0198786 -0.00930991 -1.23722e-19)
(0.0703113 -0.026021 6.55266e-20)
(0.134379 -0.0360811 -2.18891e-19)
(0.20957 -0.041567 -4.29232e-19)
(0.294479 -0.0425737 -3.85207e-19)
(0.387536 -0.0393281 2.17498e-19)
(0.486947 -0.0322921 1.34698e-19)
(0.590682 -0.0221506 -4.61216e-19)
(0.6965 -0.00977744 -1.05383e-19)
(0.802166 0.00399219 -7.85295e-20)
(0.901544 0.0109237 2.68413e-19)
(0.0236314 -0.0102579 -2.71121e-20)
(0.0810905 -0.0278816 1.49406e-20)
(0.151948 -0.0377515 -6.98063e-20)
(0.233609 -0.0422897 1.34611e-20)
(0.324525 -0.0417693 1.80221e-19)
(0.422928 -0.0365999 -1.50801e-21)
(0.52677 -0.0274354 -2.76698e-19)
(0.633725 -0.0151418 2.91802e-19)
(0.741214 -0.000746149 6.09906e-20)
(0.84662 0.0147988 -1.54732e-19)
(0.944105 0.023809 5.17013e-20)
(0.0276666 -0.0110419 1.98877e-19)
(0.0925524 -0.029252 -1.27774e-19)
(0.170438 -0.0386128 4.89003e-20)
(0.258653 -0.0419023 -6.7511e-20)
(0.3555 -0.0395844 -1.65273e-19)
(0.459009 -0.0322628 1.58522e-20)
(0.566882 -0.0207915 1.54381e-19)
(0.676515 -0.00622131 2.1216e-19)
(0.785038 0.0102673 -2.38186e-19)
(0.889551 0.0275942 -9.61511e-20)
(0.98459 0.0386561 6.10012e-20)
(0.0319738 -0.011634 -6.32345e-20)
(0.104656 -0.0300615 3.06713e-20)
(0.189767 -0.0385671 5.25687e-20)
(0.284576 -0.040294 1.0792e-19)
(0.387232 -0.0359098 4.09523e-19)
(0.495561 -0.0262245 7.49697e-20)
(0.607026 -0.0123022 -4.65641e-20)
(0.71877 0.0046161 -1.24376e-19)
(0.827693 0.0231933 5.46211e-20)
(0.930699 0.0422147 -6.50863e-20)
(1.02275 0.0551712 -1.36628e-19)
(0.0365393 -0.0120066 -1.29163e-19)
(0.117351 -0.0302429 2.06192e-19)
(0.209843 -0.0375245 1.53617e-19)
(0.311235 -0.0373674 4.21256e-20)
(0.419527 -0.0306562 9.26044e-21)
(0.532345 -0.0184201 -4.50501e-20)
(0.646927 -0.0019431 2.13672e-19)
(0.7602 0.0173383 -5.49933e-20)
(0.868893 0.0379284 3.05234e-19)
(0.969803 0.0584769 3.50497e-19)
(1.05837 0.0730722 4.11623e-20)
(0.0413453 -0.0121331 2.64732e-20)
(0.130578 -0.0297333 -2.10744e-20)
(0.230557 -0.035404 -2.3839e-19)
(0.338474 -0.0330398 -2.64751e-20)
(0.452179 -0.0237556 -1.31306e-19)
(0.569109 -0.00881196 1.97933e-21)
(0.686301 0.0102786 8.39089e-20)
(0.800508 0.0318807 -3.83462e-19)
(0.908353 0.0543423 -3.25302e-20)
(1.00662 0.0761846 -3.29585e-19)
(1.09124 0.0920917 -1.13975e-19)
(0.0463704 -0.0119881 1.24477e-19)
(0.144267 -0.0284747 -3.43103e-19)
(0.251788 -0.0321349 1.33047e-19)
(0.366117 -0.0272448 1.51913e-19)
(0.484963 -0.015162 3.51204e-20)
(0.605588 0.00261072 7.54012e-21)
(0.724859 0.0243262 -2.18173e-19)
(0.839403 0.0481508 6.04431e-20)
(0.945807 0.0722839 -2.98587e-20)
(1.04092 0.0951347 1.79156e-19)
(1.12121 0.111978 2.06377e-19)
(0.051589 -0.0115476 -1.82049e-19)
(0.158338 -0.0264152 3.44262e-19)
(0.273403 -0.027658 1.16542e-19)
(0.393978 -0.0199329 -2.73111e-19)
(0.517644 -0.00485171 3.35143e-20)
(0.641513 0.0158326 3.65474e-20)
(0.762314 0.0401359 1.02701e-19)
(0.876605 0.0660318 2.19551e-19)
(0.981006 0.0915861 1.92954e-19)
(1.07253 0.115121 1.45305e-19)
(1.14817 0.132497 -1.62238e-19)
(0.0569714 -0.0107899 2.11186e-20)
(0.172703 -0.0235098 -1.53585e-19)
(0.295254 -0.0219264 -4.16034e-20)
(0.421856 -0.011073 9.44602e-20)
(0.549979 0.00717631 7.54608e-20)
(0.676609 0.030813 -5.97443e-20)
(0.798384 0.0576187 -1.35845e-19)
(0.911848 0.0853867 -1.35646e-19)
(1.01373 0.11207 -2.60274e-20)
(1.10128 0.135939 -1.66764e-19)
(1.17205 0.153432 -1.51436e-19)
(0.0624839 -0.00969535 7.80568e-20)
(0.187263 -0.0197216 9.95495e-20)
(0.317186 -0.0149073 1.62296e-20)
(0.449544 -0.000652605 -2.41198e-21)
(0.58172 0.0209003 -1.81673e-19)
(0.710606 0.047487 -4.02018e-20)
(0.832798 0.0766633 7.99002e-21)
(0.94489 0.106061 3.29427e-20)
(1.04379 0.13355 1.84022e-20)
(1.12706 0.157387 3.97347e-20)
(1.19282 0.174586 1.66004e-19)
(0.0680889 -0.00824755 7.79971e-20)
(0.201914 -0.0150226 -1.27896e-19)
(0.339032 -0.00658225 -1.09986e-19)
(0.476827 0.0113211 1.18635e-19)
(0.612616 0.0362762 1.23566e-19)
(0.743239 0.0657668 6.59129e-20)
(0.865302 0.0971381 9.70338e-20)
(0.975514 0.127887 1.38392e-20)
(1.07103 0.155834 -1.47489e-19)
(1.14978 0.179269 3.89496e-20)
(1.21047 0.195778 -1.02469e-19)
(0.073745 -0.00643341 -1.88865e-21)
(0.216542 -0.00939495 -2.79433e-20)
(0.36062 0.0030513 1.57563e-21)
(0.503484 0.0248212 1.09583e-19)
(0.642419 0.0532374 -9.70325e-20)
(0.774255 0.085543 2.59722e-20)
(0.895662 0.118894 -8.72996e-20)
(1.00353 0.150685 1.31377e-20)
(1.09532 0.178729 3.16183e-20)
(1.16941 0.201398 -4.99228e-20)
(1.22504 0.216846 2.28802e-20)
(0.0794079 -0.0042438 1.47635e-20)
(0.231028 -0.00283134 2.13642e-20)
(0.381772 0.0139797 -1.19729e-20)
(0.529297 0.0398005 -1.43309e-20)
(0.670888 0.0716964 3.06216e-20)
(0.803413 0.106686 -3.94611e-20)
(0.923665 0.141767 -1.86609e-20)
(1.02878 0.174269 -4.79892e-20)
(1.11659 0.202045 -2.95948e-20)
(1.18592 0.223596 4.08358e-20)
(1.23659 0.237645 3.38377e-20)
(0.0850302 -0.00167393 -3.84951e-20)
(0.245249 0.00466376 6.88576e-21)
(0.402309 0.0261724 -1.85264e-20)
(0.554047 0.056192 -2.19564e-20)
(0.697791 0.091545 1.82821e-20)
(0.830491 0.12905 -1.20256e-20)
(0.949126 0.16558 2.94555e-21)
(1.05113 0.198447 -2.59304e-20)
(1.13476 0.225592 2.00724e-20)
(1.19935 0.245694 7.44967e-21)
(1.24522 0.258043 -3.1895e-20)
(0.0905626 0.00127625 1.71904e-20)
(0.25908 0.0130737 1.6738e-21)
(0.42205 0.0395817 1.79263e-20)
(0.577523 0.0739088 -5.70319e-21)
(0.722906 0.112656 -1.52743e-20)
(0.855287 0.152472 8.01287e-21)
(0.971885 0.190148 -2.52508e-21)
(1.07049 0.223027 1.8562e-20)
(1.14983 0.249187 5.10846e-22)
(1.20972 0.267536 -8.84022e-21)
(1.25101 0.277925 2.8026e-20)
(0.0959544 0.00460174 1.54728e-20)
(0.272393 0.0223694 -9.6678e-22)
(0.440818 0.0541425 1.96767e-20)
(0.599521 0.0928453 -2.24171e-21)
(0.746029 0.134884 -1.84039e-20)
(0.877622 0.176775 9.52181e-21)
(0.991811 0.215276 -2.33768e-21)
(1.08679 0.247813 1.73964e-20)
(1.16178 0.272652 -2.65612e-21)
(1.21712 0.288973 -3.26781e-21)
(1.2541 0.297186 2.14435e-20)
(0.101154 0.00829231 -3.50375e-20)
(0.285062 0.0325089 7.96938e-21)
(0.45844 0.0697732 -3.64487e-21)
(0.619846 0.112878 -2.29046e-20)
(0.766974 0.158068 4.76451e-21)
(0.89734 0.201773 1.51543e-20)
(1.0088 0.240765 -1.65754e-20)
(1.1 0.272612 -1.46531e-20)
(1.17065 0.295817 1.59901e-20)
(1.22163 0.309869 -5.05405e-22)
(1.25461 0.315732 -3.67102e-20)
(0.106108 0.0123323 -9.64553e-22)
(0.296963 0.0434374 3.07768e-20)
(0.47475 0.0863756 4.63251e-21)
(0.638321 0.133866 2.53562e-21)
(0.785575 0.182034 5.07407e-21)
(0.914312 0.227268 -3.56043e-20)
(1.02278 0.266415 -4.88866e-20)
(1.11009 0.297237 1.0541e-20)
(1.17649 0.31852 -3.99567e-20)
(1.22334 0.330099 4.80169e-20)
(1.25267 0.33348 1.55135e-20)
(0.110767 0.0167004 -3.59793e-20)
(0.307977 0.0550876 3.53242e-20)
(0.489593 0.103836 6.13435e-21)
(0.654782 0.155655 1.69524e-20)
(0.801686 0.206595 2.17558e-20)
(0.928435 0.253057 -4.23744e-20)
(1.0337 0.292024 -2.07772e-20)
(1.1171 0.321503 -4.9411e-20)
(1.17938 0.340608 7.04287e-20)
(1.22238 0.349545 -7.22631e-20)
(1.24842 0.350355 2.8868e-20)
(0.11508 0.02137 1.42079e-20)
(0.317988 0.0673801 -1.03174e-19)
(0.502825 0.122025 -6.55575e-21)
(0.669084 0.178075 -1.98067e-20)
(0.815188 0.231554 1.66744e-19)
(0.939632 0.278935 2.29826e-20)
(1.04154 0.31739 1.34615e-19)
(1.12104 0.345231 -5.28486e-20)
(1.17939 0.361934 -1.00305e-19)
(1.21886 0.368099 2.10819e-20)
(1.24201 0.366287 -4.01479e-20)
(0.119 0.0263092 8.67509e-20)
(0.326893 0.0802243 -1.97287e-21)
(0.514316 0.140803 8.04909e-20)
(0.681103 0.200946 -1.70419e-20)
(0.825985 0.256707 -1.57937e-19)
(0.947855 0.30469 -3.78764e-20)
(1.04631 0.342318 -1.40535e-20)
(1.12199 0.368252 1.07224e-19)
(1.17664 0.382364 -1.94424e-20)
(1.21292 0.385659 4.11774e-20)
(1.23357 0.381213 6.46929e-20)
(0.122482 0.0314812 -7.16086e-20)
(0.334596 0.0935188 -6.56355e-20)
(0.523955 0.160015 2.75099e-20)
(0.690735 0.224077 1.00155e-20)
(0.834007 0.281846 3.91928e-20)
(0.95308 0.330115 -1.9205e-20)
(1.04804 0.366616 -1.20181e-19)
(1.12001 0.390401 -6.3502e-20)
(1.17123 0.401768 4.14793e-20)
(1.2047 0.402134 -1.41013e-19)
(1.22325 0.395079 -4.9815e-20)
(0.125486 0.0368442 -9.37518e-20)
(0.34101 0.107153 2.31117e-19)
(0.531644 0.179501 1.34986e-19)
(0.697901 0.247273 -2.27388e-19)
(0.839209 0.306759 -7.41148e-21)
(0.955309 0.355003 1.29647e-19)
(1.04677 0.390096 7.0016e-20)
(1.11521 0.411526 3.59609e-20)
(1.16329 0.420028 1.49157e-19)
(1.19432 0.417433 4.34653e-21)
(1.21119 0.407836 1.51876e-20)
(0.127975 0.0423525 1.56098e-19)
(0.346064 0.121009 -2.00769e-19)
(0.537307 0.199088 -6.58596e-20)
(0.702546 0.270331 2.22933e-19)
(0.841573 0.331234 4.95632e-20)
(0.954571 0.379151 -7.32899e-20)
(1.04258 0.412583 -3.48076e-20)
(1.10769 0.43148 6.90634e-20)
(1.15294 0.43703 -1.07806e-19)
(1.18193 0.431468 7.85267e-20)
(1.19748 0.419431 3.65272e-20)
(0.129918 0.0479566 3.93695e-20)
(0.349698 0.13496 -8.30594e-22)
(0.540887 0.2186 -1.29298e-19)
(0.704635 0.293046 1.66519e-20)
(0.841107 0.355062 -2.24986e-19)
(0.950916 0.402363 6.46989e-20)
(1.03556 0.433907 3.51191e-20)
(1.09757 0.45013 -1.10236e-19)
(1.14033 0.452678 -5.59194e-20)
(1.16763 0.444175 -9.48598e-20)
(1.18212 0.429747 -4.05393e-20)
(0.131288 0.0536038 -5.02418e-20)
(0.351869 0.148876 1.17921e-19)
(0.54235 0.237858 1.28589e-19)
(0.704163 0.315214 6.83558e-20)
(0.837841 0.378035 -2.94662e-20)
(0.944418 0.424451 -3.7779e-20)
(1.02583 0.453909 9.60076e-20)
(1.08498 0.467352 6.09547e-20)
(1.12558 0.46689 5.061e-20)
(1.15157 0.455562 9.73682e-20)
(1.16545 0.438643 7.65021e-21)
(0.132068 0.0592392 -1.42844e-20)
(0.352546 0.162624 8.08105e-20)
(0.541679 0.256679 -1.51494e-20)
(0.701146 0.336633 8.1241e-20)
(0.831833 0.399954 1.84375e-19)
(0.935173 0.445234 -1.49205e-20)
(1.0135 0.472441 -4.00235e-20)
(1.07006 0.483032 4.87964e-20)
(1.10884 0.479569 -2.90702e-20)
(1.1339 0.46551 -2.55598e-20)
(1.14765 0.446311 -5.85908e-21)
(0.132243 0.064806 3.64391e-20)
(0.351716 0.176067 7.14172e-20)
(0.538882 0.274882 2.02115e-20)
(0.695624 0.357102 -1.38149e-19)
(0.823161 0.420625 -1.08058e-19)
(0.923296 0.464543 1.8222e-20)
(0.998709 0.489366 4.98001e-20)
(1.05295 0.497065 3.46907e-20)
(1.09025 0.490643 -7.59394e-21)
(1.11473 0.473941 -1.92751e-20)
(1.12872 0.452641 1.11707e-20)
(0.131806 0.0702465 -3.04533e-21)
(0.349381 0.189069 -1.04732e-20)
(0.533987 0.292288 -1.41468e-19)
(0.687661 0.37643 1.25529e-20)
(0.811928 0.439866 4.62523e-20)
(0.90892 0.482221 3.10353e-21)
(0.981619 0.504558 -3.41608e-20)
(1.03383 0.509361 3.39166e-20)
(1.06995 0.500048 2.07831e-21)
(1.09418 0.48081 -9.44798e-21)
(1.10873 0.457555 1.57233e-20)
(0.130758 0.0755026 -6.89953e-22)
(0.345558 0.201495 -4.84137e-20)
(0.527041 0.308722 -9.43326e-20)
(0.677343 0.394431 -9.48672e-20)
(0.798256 0.457503 -8.35823e-20)
(0.892196 0.49812 5.03742e-20)
(0.962391 0.517907 -1.26725e-20)
(1.01284 0.519839 -4.84446e-20)
(1.04808 0.507728 9.43407e-21)
(1.07236 0.486076 -5.08859e-21)
(1.08778 0.461002 1.01469e-20)
(0.129106 0.0805175 -5.64708e-20)
(0.34028 0.213212 -5.52592e-20)
(0.518113 0.324015 2.76934e-20)
(0.664775 0.410928 7.60416e-20)
(0.782285 0.473374 -1.53219e-20)
(0.873288 0.512109 -4.67401e-20)
(0.941204 0.529313 -9.87612e-21)
(0.990163 0.528433 7.82377e-21)
(1.02479 0.51364 -3.98985e-21)
(1.04937 0.489705 3.23412e-20)
(1.06597 0.462931 6.05336e-21)
(0.126862 0.0852352 5.23515e-20)
(0.333594 0.224092 -3.20151e-20)
(0.507292 0.338006 5.87592e-20)
(0.650085 0.425757 2.06094e-20)
(0.764175 0.487331 2.47495e-20)
(0.85238 0.524066 2.37998e-20)
(0.918247 0.538689 8.17518e-21)
(0.965972 0.535088 2.18902e-20)
(1.00021 0.517752 5.009e-20)
(1.0253 0.491671 -4.07587e-20)
(1.04335 0.463287 -5.76653e-21)
(0.124042 0.0895975 -2.58355e-21)
(0.325568 0.234017 1.81841e-20)
(0.494682 0.350543 -1.19153e-20)
(0.633416 0.438764 -2.92738e-20)
(0.744099 0.499239 9.1763e-21)
(0.829666 0.533887 2.84447e-21)
(0.893718 0.545962 -5.55409e-20)
(0.940456 0.539761 -3.40046e-21)
(0.974516 0.52005 -1.41301e-19)
(1.00024 0.491962 -3.25037e-20)
(1.01998 0.462008 -8.72698e-21)
(0.120677 0.0935483 1.91594e-21)
(0.316278 0.242866 1.12787e-20)
(0.480403 0.361489 -1.99078e-21)
(0.614927 0.449811 1.01545e-20)
(0.722246 0.508977 7.5949e-21)
(0.805348 0.541476 -2.16345e-20)
(0.867828 0.55107 -2.8215e-20)
(0.913819 0.542422 -8.03579e-20)
(0.947855 0.520531 3.29457e-20)
(0.974249 0.49058 1.89121e-19)
(0.995858 0.459025 3.81504e-21)
(0.116803 0.0970455 1.11281e-20)
(0.305807 0.250532 -5.31646e-21)
(0.464592 0.370711 2.72223e-20)
(0.594793 0.458771 1.29104e-20)
(0.698816 0.516437 -5.82614e-20)
(0.779642 0.546756 5.15459e-20)
(0.840795 0.553962 4.72548e-20)
(0.886274 0.543052 -1.00644e-19)
(0.920408 0.519211 4.68427e-20)
(0.947388 0.487542 -2.36309e-19)
(0.970986 0.454227 -1.71484e-19)
(0.112454 0.100042 3.67971e-21)
(0.294258 0.256919 -1.33641e-21)
(0.447399 0.378097 -5.72172e-20)
(0.573199 0.465535 9.96491e-21)
(0.674016 0.521528 2.80547e-20)
(0.752765 0.549657 -2.88785e-20)
(0.812845 0.554596 8.40163e-20)
(0.858053 0.541641 1.91962e-19)
(0.892389 0.51613 -8.17247e-20)
(0.91977 0.482912 9.9771e-20)
(0.945245 0.447507 1.95482e-19)
(0.10767 0.102495 5.48382e-20)
(0.28174 0.26194 1.0438e-19)
(0.428985 0.383543 8.32855e-20)
(0.550339 0.470006 -9.80643e-20)
(0.64806 0.524173 1.14951e-19)
(0.724941 0.550123 -1.84775e-19)
(0.784203 0.552938 -1.50393e-19)
(0.829397 0.53818 5.36304e-20)
(0.864081 0.511346 -1.08168e-19)
(0.891747 0.476924 1.69507e-19)
(0.918347 0.439271 -1.38188e-19)
(0.102499 0.104368 -8.38126e-20)
(0.268375 0.265521 -6.92835e-20)
(0.40952 0.386966 1.38406e-21)
(0.526417 0.47211 -4.25105e-21)
(0.621167 0.524312 -1.19062e-19)
(0.696389 0.548112 4.6138e-19)
(0.755088 0.548951 -5.14356e-20)
(0.800543 0.532632 -5.38717e-20)
(0.835868 0.504829 2.25902e-19)
(0.864186 0.469847 -1.86982e-19)
(0.889948 0.430126 -1.09034e-19)
(0.0969931 0.105629 -2.0259e-20)
(0.254288 0.267598 1.28074e-19)
(0.389181 0.388295 5.65837e-20)
(0.501642 0.471784 1.38403e-19)
(0.593556 0.521901 -1.54128e-19)
(0.667322 0.543594 -1.22251e-19)
(0.725697 0.542612 3.41023e-19)
(0.771683 0.524936 7.06018e-21)
(0.808098 0.496324 -1.72608e-19)
(0.838065 0.461112 1.25306e-19)
(0.865586 0.421457 3.53868e-20)
(0.0912055 0.106252 4.57779e-20)
(0.239612 0.268119 -1.31054e-19)
(0.368155 0.387478 7.61131e-20)
(0.476224 0.468989 -1.43306e-19)
(0.565446 0.516915 1.00052e-19)
(0.63795 0.536561 -8.23833e-20)
(0.696208 0.533922 -1.92271e-19)
(0.742927 0.515099 9.42095e-20)
(0.78065 0.485842 2.36177e-19)
(0.812336 0.450458 -8.1299e-20)
(0.841287 0.411173 3.28404e-19)
(0.085194 0.106214 -9.47657e-20)
(0.224488 0.267046 -1.4545e-21)
(0.346629 0.384481 -9.94433e-20)
(0.45038 0.463703 1.38181e-19)
(0.537057 0.50935 -5.76895e-21)
(0.60848 0.527023 5.65909e-20)
(0.666797 0.522906 -2.11312e-19)
(0.714402 0.503167 -8.23691e-20)
(0.753551 0.473502 -2.45397e-19)
(0.786942 0.438157 -2.98288e-20)
(0.817278 0.3995 -3.47281e-19)
(0.0790183 0.105502 6.10656e-20)
(0.209057 0.264356 6.16605e-20)
(0.324797 0.379285 1.83613e-19)
(0.424327 0.455921 -2.18546e-19)
(0.508611 0.499219 5.27592e-23)
(0.57912 0.51501 2.2122e-20)
(0.637651 0.509607 4.7826e-19)
(0.686264 0.489196 1.78901e-19)
(0.726923 0.459393 -1.49118e-19)
(0.762042 0.42437 1.15246e-19)
(0.793842 0.386604 2.60652e-19)
(0.0727398 0.104106 9.65622e-21)
(0.193464 0.260039 -7.70547e-20)
(0.302853 0.37189 -7.44382e-20)
(0.398282 0.445659 1.02651e-19)
(0.480326 0.48655 7.03867e-20)
(0.550076 0.500562 9.2842e-20)
(0.608955 0.494075 -1.86276e-19)
(0.658675 0.473244 -2.64466e-19)
(0.700906 0.443572 4.77802e-19)
(0.737776 0.40915 1.63948e-19)
(0.771106 0.372507 2.67875e-19)
(0.066421 0.102025 1.29543e-19)
(0.177856 0.254098 -2.55143e-19)
(0.280992 0.362313 -2.36819e-19)
(0.372461 0.43295 2.30155e-19)
(0.45242 0.471391 -1.08153e-19)
(0.521554 0.483736 5.93435e-20)
(0.580893 0.47637 4.21358e-21)
(0.631797 0.455368 -1.85114e-19)
(0.675644 0.426092 1.26321e-19)
(0.714277 0.392527 -4.15137e-19)
(0.749182 0.357205 -8.81697e-20)
(0.0601243 0.0992621 1.54781e-19)
(0.162378 0.246552 -1.24577e-19)
(0.259405 0.35059 4.48391e-19)
(0.347076 0.417842 -3.68502e-19)
(0.425104 0.453803 -4.16253e-19)
(0.493751 0.464599 -2.39589e-20)
(0.553645 0.45656 1.52889e-19)
(0.60579 0.435634 -5.54108e-19)
(0.651275 0.407006 -6.48249e-19)
(0.691672 0.374531 4.72189e-19)
(0.728176 0.340704 9.99212e-20)
(0.0539123 0.0958269 -2.35471e-20)
(0.147174 0.23743 -9.35749e-20)
(0.238281 0.336769 -5.66618e-20)
(0.322334 0.400403 5.07998e-21)
(0.398585 0.433862 1.22232e-19)
(0.466862 0.443232 -6.89293e-20)
(0.527384 0.434724 6.33853e-20)
(0.580804 0.414112 3.52129e-19)
(0.627932 0.38637 5.07426e-19)
(0.670076 0.355202 -1.88431e-19)
(0.708183 0.323024 8.59932e-20)
(0.0478463 0.0917357 1.25368e-19)
(0.132385 0.226777 6.25816e-20)
(0.217805 0.320918 1.65044e-19)
(0.298434 0.380715 1.84181e-19)
(0.373061 0.41166 5.25153e-20)
(0.44107 0.419728 9.96729e-20)
(0.502275 0.41095 -7.954e-20)
(0.556984 0.390878 1.55956e-19)
(0.605739 0.364249 2.69145e-19)
(0.649595 0.334587 -5.45316e-19)
(0.689287 0.304198 -2.8095e-19)
(0.0419859 0.0870104 -7.64169e-20)
(0.118147 0.21465 -7.46738e-20)
(0.198153 0.30312 -1.34918e-19)
(0.275571 0.358877 -2.50118e-19)
(0.34872 0.387303 -2.73079e-19)
(0.41655 0.39419 -2.28472e-19)
(0.478474 0.385334 -6.25778e-20)
(0.534466 0.366019 -3.00657e-20)
(0.584811 0.340713 -6.39131e-19)
(0.630326 0.312741 4.40645e-19)
(0.671566 0.284272 1.86363e-19)
(0.0363888 0.0816785 -1.04623e-19)
(0.104591 0.201117 2.6125e-19)
(0.179494 0.28347 -2.00083e-20)
(0.253925 0.335002 1.45671e-19)
(0.325742 0.360909 3.74639e-19)
(0.393467 0.366736 1.83548e-19)
(0.456127 0.357984 2.94594e-19)
(0.513375 0.339629 -7.13824e-20)
(0.565253 0.315843 4.40379e-19)
(0.612356 0.289729 -3.69846e-19)
(0.655086 0.263302 6.3567e-20)
(0.0311098 0.0757729 9.5164e-20)
(0.0918411 0.186259 1.01784e-19)
(0.161988 0.262081 -1.98565e-19)
(0.233668 0.309216 6.32447e-20)
(0.304295 0.332609 -2.7373e-19)
(0.371975 0.337492 3.28076e-21)
(0.435369 0.329017 1.26262e-19)
(0.493825 0.31181 -2.66626e-19)
(0.547163 0.289726 -4.67209e-20)
(0.595766 0.265624 -5.88637e-20)
(0.639908 0.241351 -1.81772e-19)
(0.0262005 0.0693316 1.68349e-19)
(0.0800132 0.170168 -1.96313e-19)
(0.145784 0.239074 -1.76231e-19)