/*--------------------------------*- C++ -*----------------------------------*\
  =========                 |
  \\      /  F ield         | OpenFOAM: The Open Source CFD Toolbox
   \\    /   O peration     | Website:  https://openfoam.org
    \\  /    A nd           | Version:  7
     \\/     M anipulation  |
\*---------------------------------------------------------------------------*/
FoamFile
{
    version     2.0;
    format      ascii;
    class       surfaceScalarField;
    location    "140";
    object      phi;
}
// * * * * * * * * * * * * * * * * * * * * * * * * * * * * * * * * * * * * * //

dimensions      [0 3 -1 0 0 0 0];

internalField   nonuniform List<scalar> 
8878
(
-0.00407053
-0.000211002
-0.000212636
-0.00392638
-0.00403792
-0.000245244
-0.000179302
-0.00368519
-0.000211613
-0.00378626
-0.000244909
-0.00389308
-0.00400371
-0.000279125
-0.000175289
-0.00355885
-0.000208028
-0.00365245
-0.000241914
-0.00375238
-0.000276816
-0.00385818
-0.00396789
-0.000312633
-0.00016914
-0.00343946
-0.000202126
-0.00352586
-0.000236384
-0.0036182
-0.00027184
-0.00371692
-0.000308343
-0.00382168
-0.00393048
-0.000345758
-0.000161006
-0.00332634
-0.000194152
-0.00340631
-0.000228598
-0.00349141
-0.000264361
-0.00358243
-0.000301376
-0.00367991
-0.000339479
-0.00378357
-0.00389147
-0.000378487
-0.000150968
-0.00321855
-0.000184249
-0.00329306
-0.00021881
-0.00337175
-0.000254697
-0.00345553
-0.000291948
-0.00354518
-0.000330512
-0.00364134
-0.00037021
-0.00374388
-0.00385087
-0.000410809
-0.000139093
-0.00311488
-0.000172478
-0.00318517
-0.000207149
-0.00325839
-0.000243108
-0.00333579
-0.000280417
-0.00341822
-0.000319137
-0.00350646
-0.000359234
-0.00360124
-0.000400523
-0.00370259
-0.00380868
-0.000442709
-0.000125498
-0.00301351
-0.00015889
-0.00308149
-0.000193658
-0.0031504
-0.000229704
-0.00322234
-0.000267042
-0.00329845
-0.000305752
-0.00337951
-0.000345918
-0.0034663
-0.00038753
-0.00355963
-0.000430403
-0.00365971
-0.00376491
-0.000474174
-0.000110395
-0.00291136
-0.000143586
-0.00298032
-0.00017837
-0.00304671
-0.000214505
-0.00311427
-0.00025191
-0.00318494
-0.00029061
-0.00325975
-0.000330698
-0.00333942
-0.000372283
-0.00342471
-0.000415388
-0.00351653
-0.000459834
-0.00361527
-0.00371956
-0.000505188
-9.41323e-05
-0.00280338
-0.000126763
-0.00287873
-0.000161375
-0.0029457
-0.000197532
-0.00301055
-0.000235017
-0.00307678
-0.000273765
-0.00314619
-0.000313808
-0.00321971
-0.000355252
-0.00329798
-0.000398228
-0.00338174
-0.000442796
-0.00347196
-0.000488803
-0.00356926
-0.00367263
-0.000535736
-7.72267e-05
-0.00268175
-0.000108749
-0.00277185
-0.000142852
-0.00284463
-0.00017886
-0.0029097
-0.000216371
-0.00297304
-0.000255191
-0.00303796
-0.000295267
-0.00310611
-0.000336637
-0.00317834
-0.000379413
-0.0032552
-0.000423748
-0.0033374
-0.000469746
-0.00342596
-0.000517296
-0.00352171
-0.00362412
-0.000565803
-6.03654e-05
-0.00253546
-9.00402e-05
-0.00265207
-0.000123114
-0.00273878
-0.000158659
-0.00280908
-0.00019604
-0.00287232
-0.000234886
-0.00293419
-0.000275026
-0.00299782
-0.000316414
-0.00306473
-0.000359095
-0.00313566
-0.000403181
-0.00321111
-0.000448842
-0.00329174
-0.000496231
-0.00337857
-0.0005453
-0.00347264
-0.00357404
-0.000595379
-4.43699e-05
-0.00235045
-7.13074e-05
-0.00250852
-0.000102634
-0.00262075
-0.000137221
-0.00270419
-0.00017418
-0.00277212
-0.00021291
-0.00283358
-0.000253074
-0.00289403
-0.000294518
-0.00295638
-0.000337206
-0.00302204
-0.000381183
-0.00309168
-0.00042656
-0.00316574
-0.000473515
-0.00324479
-0.00052225
-0.00332984
-0.000572809
-0.00342208
-0.00352239
-0.000624455
-5.33706e-05
-0.00232718
-8.20672e-05
-0.00247982
-0.000115002
-0.00258781
-0.000151068
-0.00266813
-0.000189411
-0.00273378
-0.000229469
-0.00279353
-0.000270932
-0.00285257
-0.000313665
-0.00291364
-0.000357641
-0.00297806
-0.000402902
-0.00304642
-0.000449553
-0.00311909
-0.000497773
-0.00319657
-0.000547809
-0.0032798
-0.000599821
-0.00337007
-0.0034692
-0.00065302
-3.71124e-05
-0.00209196
-6.22303e-05
-0.00230206
-9.2639e-05
-0.00244941
-0.000127141
-0.00255331
-0.00016465
-0.00263062
-0.00020435
-0.00269408
-0.000245713
-0.00275216
-0.000288457
-0.00280982
-0.000332464
-0.00286964
-0.000377716
-0.00293281
-0.000424252
-0.00299988
-0.000472167
-0.00307117
-0.000521629
-0.00314711
-0.000572923
-0.00322851
-0.000626347
-0.00331665
-0.00341446
-0.000681083
-2.33449e-05
-0.00178677
-4.40264e-05
-0.00207128
-7.09431e-05
-0.00227514
-0.000103018
-0.00241734
-0.000139045
-0.00251728
-0.000177965
-0.0025917
-0.000218993
-0.00265305
-0.000261639
-0.00270952
-0.000305646
-0.00276582
-0.000350913
-0.00282437
-0.000397429
-0.00288629
-0.000445232
-0.00295208
-0.000494406
-0.003022
-0.000545097
-0.00309641
-0.000597615
-0.00317599
-0.000652419
-0.00326184
-0.00335816
-0.000708713
-2.83232e-05
-0.0017711
-5.0835e-05
-0.00204877
-7.95033e-05
-0.00224648
-0.000113199
-0.00238364
-0.000150713
-0.00247977
-0.000191009
-0.0025514
-0.000233339
-0.00261072
-0.000277245
-0.00266561
-0.000322496
-0.00272057
-0.000369006
-0.00277786
-0.000416774
-0.00283853
-0.00046584
-0.00290301
-0.000516274
-0.00297156
-0.000568194
-0.00304449
-0.000621922
-0.00312226
-0.000678088
-0.00320568
-0.00330026
-0.000735996
-1.58078e-05
-0.00138771
-3.32345e-05
-0.00175367
-5.75325e-05
-0.00202447
-8.7906e-05
-0.0022161
-0.000123178
-0.00234837
-0.000162139
-0.00244081
-0.000203779
-0.00250976
-0.000247384
-0.00256712
-0.000292527
-0.00262047
-0.000339002
-0.00267409
-0.000386739
-0.00273012
-0.000435746
-0.00278952
-0.000486069
-0.00285269
-0.000537769
-0.00291986
-0.000590941
-0.00299132
-0.000645896
-0.0030673
-0.000703369
-0.00314821
-0.00324069
-0.000762935
-6.87335e-06
-0.000912586
-1.89251e-05
-0.00137566
-3.80738e-05
-0.00173452
-6.41142e-05
-0.00199843
-9.61465e-05
-0.00218407
-0.000132951
-0.00231157
-0.000173321
-0.00240044
-0.000216272
-0.00246681
-0.000261125
-0.00252226
-0.000307483
-0.00257411
-0.00035516
-0.00262641
-0.000404105
-0.00268118
-0.000454336
-0.00273929
-0.000505906
-0.00280112
-0.000558881
-0.00286689
-0.000613357
-0.00293685
-0.000669631
-0.00301103
-0.000728268
-0.00308957
-0.00317911
-0.000789845
-8.44463e-06
-0.000905751
-2.20034e-05
-0.0013621
-4.28369e-05
-0.00171369
-7.05754e-05
-0.00197069
-0.000104221
-0.00215042
-0.000142516
-0.00227327
-0.000184257
-0.0023587
-0.000228487
-0.00242258
-0.00027456
-0.00247619
-0.000322108
-0.00252656
-0.000370966
-0.00257756
-0.000421097
-0.00263105
-0.000472531
-0.00268785
-0.000525332
-0.00274832
-0.00057958
-0.00281264
-0.000635415
-0.00288101
-0.000693176
-0.00295327
-0.000753584
-0.00302916
-0.00311721
-0.000815484
-2.06906e-06
-0.000341876
-9.99641e-06
-0.000897824
-2.50341e-05
-0.00134706
-4.75138e-05
-0.00169121
-7.69056e-05
-0.0019413
-0.000112119
-0.00211521
-0.000151862
-0.00223353
-0.000194937
-0.00231562
-0.000240415
-0.0023771
-0.000287681
-0.00242893
-0.000336394
-0.00247785
-0.00038641
-0.00252754
-0.000437704
-0.00257975
-0.000490315
-0.00263524
-0.000544317
-0.00269432
-0.000599812
-0.00275715
-0.000656993
-0.00282383
-0.000716029
-0.00289423
-0.000776197
-0.00296899
-0.00305001
-0.000843399
-2.52696e-06
-0.000339349
-1.1534e-05
-0.000888817
-2.80239e-05
-0.00133058
-5.2112e-05
-0.00166712
-8.31136e-05
-0.00191029
-0.00011985
-0.00207847
-0.000160999
-0.00219238
-0.000205372
-0.00227125
-0.000252066
-0.00233041
-0.000300497
-0.00238049
-0.000350351
-0.002428
-0.0004015
-0.00247639
-0.000453931
-0.00252732
-0.000507691
-0.00258148
-0.00056286
-0.00263915
-0.000619547
-0.00270046
-0.000677924
-0.00276545
-0.000738069
-0.00283409
-0.000800096
-0.00290697
-0.00298375
-0.000866354
-2.98056e-06
-0.000336368
-1.30514e-05
-0.000878746
-3.09646e-05
-0.00131266
-5.66222e-05
-0.00164146
-8.91894e-05
-0.00187773
-0.000127405
-0.00204026
-0.000169919
-0.00214987
-0.000215554
-0.00222562
-0.000263432
-0.00228253
-0.000313001
-0.00233093
-0.000363969
-0.00237703
-0.000416226
-0.00242413
-0.000469769
-0.00247378
-0.000524649
-0.0025266
-0.00058095
-0.00258285
-0.00063878
-0.00264263
-0.000698279
-0.00270595
-0.000759536
-0.00277283
-0.000822846
-0.00284366
-0.00291748
-0.00088912
-3.42922e-06
-0.000332939
-1.45469e-05
-0.000867629
-3.38534e-05
-0.00129336
-6.10412e-05
-0.00161428
-9.513e-05
-0.00184364
-0.000134781
-0.00200061
-0.00017862
-0.00210603
-0.00022548
-0.00217876
-0.000274513
-0.0022335
-0.000325191
-0.00228025
-0.000377248
-0.00232497
-0.000430587
-0.00237079
-0.000485215
-0.00241915
-0.000541186
-0.00247063
-0.000598586
-0.00252545
-0.000657517
-0.0025837
-0.000718099
-0.00264537
-0.000780431
-0.0027105
-0.000844777
-0.00277931
-0.00285077
-0.000911482
-3.87236e-06
-0.000329067
-1.60186e-05
-0.000855482
-3.66878e-05
-0.00127269
-6.53657e-05
-0.0015856
-0.000100932
-0.00180807
-0.000141975
-0.00195957
-0.000187099
-0.0020609
-0.00023515
-0.00213071
-0.000285305
-0.00218334
-0.000337065
-0.00222849
-0.000390184
-0.00227185
-0.00044458
-0.0023164
-0.000500266
-0.00236347
-0.000557301
-0.00241359
-0.000615768
-0.00246698
-0.000675765
-0.0025237
-0.000737397
-0.00258374
-0.000800765
-0.00264713
-0.000866061
-0.00271401
-0.00278342
-0.000933413
-4.30942e-06
-0.000324757
-1.74651e-05
-0.000842327
-3.94651e-05
-0.00125069
-6.95931e-05
-0.00155547
-0.000106594
-0.00177107
-0.000148985
-0.00191717
-0.000195356
-0.00201453
-0.000244562
-0.0020815
-0.000295809
-0.00213209
-0.000348623
-0.00217567
-0.000402778
-0.0022177
-0.000458204
-0.00226097
-0.000514921
-0.00230675
-0.000572991
-0.00235552
-0.000632496
-0.00240748
-0.000693528
-0.00246267
-0.000756182
-0.00252109
-0.000820552
-0.00258276
-0.000886775
-0.00264779
-0.0027153
-0.000954897
-4.73985e-06
-0.000320017
-1.88846e-05
-0.000828182
-4.21831e-05
-0.00122739
-7.37209e-05
-0.00152393
-0.000112112
-0.00173268
-0.00015581
-0.00187348
-0.000203388
-0.00196696
-0.000253715
-0.00203117
-0.000306023
-0.00207979
-0.000359864
-0.00212183
-0.000415027
-0.00216253
-0.000471458
-0.00220454
-0.00052918
-0.00224903
-0.000588258
-0.00229645
-0.000648772
-0.00234696
-0.00071081
-0.00240063
-0.000774461
-0.00245744
-0.000839808
-0.00251741
-0.000906954
-0.00258064
-0.00264634
-5.16311e-06
-0.000314854
-2.02758e-05
-0.000813069
-4.48396e-05
-0.00120282
-7.77465e-05
-0.00149103
-0.000117486
-0.00169294
-0.000162448
-0.00182851
-0.000211194
-0.00191821
-0.000262609
-0.00197976
-0.000315948
-0.00202645
-0.000370786
-0.00206699
-0.000426932
-0.00210639
-0.000484341
-0.00214713
-0.000543042
-0.00219033
-0.0006031
-0.00223639
-0.000664596
-0.00228547
-0.000727615
-0.00233761
-0.000792238
-0.00239281
-0.000858543
-0.00245111
-0.000926613
-0.00251257
-0.00257649
-5.57868e-06
-0.000309276
-2.16372e-05
-0.000797011
-4.74327e-05
-0.00117703
-8.1668e-05
-0.00145679
-0.000122711
-0.0016519
-0.000168897
-0.00178233
-0.000218774
-0.00186833
-0.000271242
-0.00192729
-0.000325581
-0.00197211
-0.000381389
-0.00201119
-0.000438492
-0.00204929
-0.000496852
-0.00208877
-0.000556505
-0.00213067
-0.000617518
-0.00217537
-0.00067997
-0.00222302
-0.000743943
-0.00227364
-0.000809517
-0.00232724
-0.000876764
-0.00238386
-0.000945756
-0.00244358
-0.00250573
-5.98604e-06
-0.00030329
-2.29676e-05
-0.000780029
-4.99606e-05
-0.00115004
-8.54832e-05
-0.00142127
-0.000127788
-0.00160959
-0.000175156
-0.00173496
-0.000226126
-0.00181736
-0.000279614
-0.0018738
-0.000334923
-0.0019168
-0.000391673
-0.00195444
-0.000449705
-0.00199125
-0.000508991
-0.00202949
-0.00056957
-0.00207009
-0.000631512
-0.00211343
-0.000694894
-0.00215963
-0.000759798
-0.00220873
-0.000826301
-0.00226074
-0.000894473
-0.00231569
-0.000964383
-0.00237367
-6.38473e-06
-0.000296905
-2.42658e-05
-0.000762148
-5.24214e-05
-0.00112188
-8.91904e-05
-0.0013845
-0.000132715
-0.00156607
-0.000181224
-0.00168645
-0.00023325
-0.00176534
-0.000287724
-0.00181932
-0.000343973
-0.00186055
-0.000401637
-0.00189677
-0.000460572
-0.00193232
-0.000520757
-0.0019693
-0.000582237
-0.00200861
-0.000645081
-0.00205059
-0.000709369
-0.00209535
-0.00077518
-0.00214292
-0.000842591
-0.00219333
-0.000911671
-0.00224661
-0.00230285
-6.77429e-06
-0.000290131
-2.55305e-05
-0.000743392
-5.48136e-05
-0.0010926
-9.2788e-05
-0.00134652
-0.000137489
-0.00152137
-0.0001871
-0.00163684
-0.000240145
-0.00171229
-0.000295573
-0.0017639
-0.000352732
-0.00180339
-0.000411282
-0.00183822
-0.000471091
-0.00187251
-0.00053215
-0.00190824
-0.000594504
-0.00194626
-0.000658225
-0.00198687
-0.000723393
-0.00203018
-0.000790088
-0.00207623
-0.000858386
-0.00212503
-0.000928357
-0.00217664
-0.00223113
-7.15427e-06
-0.000282976
-2.67609e-05
-0.000723785
-5.71357e-05
-0.00106222
-9.62744e-05
-0.00130739
-0.00014211
-0.00147553
-0.000192782
-0.00158617
-0.00024681
-0.00165826
-0.000303159
-0.00170755
-0.000361198
-0.00174535
-0.000420605
-0.00177881
-0.000481264
-0.00181185
-0.000543169
-0.00184634
-0.000606371
-0.00188306
-0.000670944
-0.0019223
-0.000736967
-0.00196415
-0.000804522
-0.00200867
-0.000873685
-0.00205587
-0.000944528
-0.0021058
-7.52426e-06
-0.000275452
-2.79557e-05
-0.000703354
-5.93864e-05
-0.00103079
-9.96481e-05
-0.00126712
-0.000146577
-0.0014286
-0.00019827
-0.00153448
-0.000253245
-0.00160329
-0.000310482
-0.00165031
-0.000369371
-0.00168646
-0.000429609
-0.00171858
-0.000491089
-0.00175037
-0.000553814
-0.00178361
-0.000617838
-0.00181903
-0.000683236
-0.0018569
-0.00075009
-0.0018973
-0.00081848
-0.00194028
-0.000888486
-0.00198586
-0.0020341
-7.88387e-06
-0.000267568
-2.91141e-05
-0.000682124
-6.15644e-05
-0.000998341
-0.000102908
-0.00122578
-0.000150888
-0.00138062
-0.000203564
-0.0014818
-0.00025945
-0.0015474
-0.000317543
-0.00159222
-0.000377252
-0.00162676
-0.000438291
-0.00165754
-0.000500565
-0.0016881
-0.000564083
-0.00172009
-0.000628903
-0.00175421
-0.000695101
-0.0017907
-0.00076276
-0.00182964
-0.000831961
-0.00187108
-0.000902786
-0.00191503
-0.00196158
-8.23273e-06
-0.000259336
-3.02353e-05
-0.000660121
-6.36684e-05
-0.000964908
-0.000106053
-0.0011834
-0.000155043
-0.00133163
-0.000208663
-0.00142818
-0.000265424
-0.00149064
-0.00032434
-0.0015333
-0.000384839
-0.00156626
-0.000446651
-0.00159573
-0.000509692
-0.00162506
-0.000573977
-0.00165581
-0.000639566
-0.00168862
-0.000706537
-0.00172373
-0.000774975
-0.0017612
-0.000844963
-0.00180109
-0.000916583
-0.00184342
-0.00188825
-8.57049e-06
-0.000250765
-3.13183e-05
-0.000637373
-6.56975e-05
-0.000930528
-0.000109082
-0.00114001
-0.000159041
-0.00128167
-0.000213565
-0.00137366
-0.000271167
-0.00143304
-0.000330874
-0.0014736
-0.000392133
-0.001505
-0.00045469
-0.00153317
-0.00051847
-0.00156128
-0.000583494
-0.00159079
-0.000649825
-0.00162229
-0.000717544
-0.00165601
-0.000786734
-0.00169201
-0.000857483
-0.00173034
-0.000929873
-0.00177103
-8.89681e-06
-0.000241868
-3.23624e-05
-0.000613908
-6.76505e-05
-0.00089524
-0.000111993
-0.00109567
-0.000162881
-0.00123078
-0.000218271
-0.00131827
-0.000276678
-0.00137463
-0.000337144
-0.00141313
-0.000399134
-0.00144301
-0.000462407
-0.00146989
-0.000526899
-0.00149678
-0.000592634
-0.00152505
-0.00065968
-0.00155525
-0.000728118
-0.00158757
-0.000798035
-0.0016221
-0.000869518
-0.00165886
-0.00169789
-9.21138e-06
-0.000232657
-3.33668e-05
-0.000589752
-6.95265e-05
-0.000859081
-0.000114787
-0.00105041
-0.000166562
-0.00117901
-0.00022278
-0.00126205
-0.000281957
-0.00131546
-0.00034315
-0.00135194
-0.00040584
-0.00138032
-0.000469801
-0.00140593
-0.000534976
-0.00143161
-0.000601396
-0.00145863
-0.000669129
-0.00148751
-0.00073826
-0.00151844
-0.000808876
-0.00155148
-0.000881066
-0.00158667
-0.00162404
-9.51389e-06
-0.000223143
-3.4331e-05
-0.000564935
-7.13246e-05
-0.000822087
-0.000117461
-0.00100427
-0.000170083
-0.00112639
-0.000227092
-0.00120504
-0.000287005
-0.00125554
-0.000348892
-0.00129005
-0.000412253
-0.00131696
-0.000476872
-0.00134131
-0.000542702
-0.00136578
-0.000609778
-0.00139156
-0.000678171
-0.00141912
-0.000747967
-0.00144864
-0.000819254
-0.00148019
-0.000892124
-0.0015138
-0.0015495
-9.80407e-06
-0.000213339
-3.52542e-05
-0.000539485
-7.3044e-05
-0.000784297
-0.000120016
-0.0009573
-0.000173444
-0.00107296
-0.000231206
-0.00114728
-0.00029182
-0.00119493
-0.00035437
-0.0012275
-0.000418371
-0.00125295
-0.00048362
-0.00127607
-0.000550076
-0.00129932
-0.00061778
-0.00132385
-0.000686804
-0.0013501
-0.000757237
-0.00137821
-0.000829168
-0.00140826
-0.00090269
-0.00144028
-1.00817e-05
-0.000203257
-3.61358e-05
-0.000513431
-7.4684e-05
-0.000745749
-0.000122451
-0.000909533
-0.000176645
-0.00101876
-0.000235122
-0.0010888
-0.000296402
-0.00113365
-0.000359583
-0.00116432
-0.000424194
-0.00118834
-0.000490043
-0.00121022
-0.000557098
-0.00123227
-0.000625401
-0.00125555
-0.000695028
-0.00128047
-0.000766069
-0.00130717
-0.000838615
-0.00133572
-0.00136613
-1.03464e-05
-0.000192911
-3.69753e-05
-0.000486802
-7.62437e-05
-0.00070648
-0.000124764
-0.000861013
-0.000179685
-0.000963843
-0.00023884
-0.00102965
-0.000300751
-0.00107174
-0.000364531
-0.00110054
-0.000429722
-0.00112315
-0.000496142
-0.0011438
-0.000563766
-0.00116464
-0.000632639
-0.00118668
-0.000702841
-0.00121027
-0.000774461
-0.00123555
-0.000847593
-0.00126258
-0.00129139
-1.05981e-05
-0.000182313
-3.77721e-05
-0.000459628
-7.77226e-05
-0.00066653
-0.000126956
-0.00081178
-0.000182563
-0.000908236
-0.000242358
-0.000969851
-0.000304868
-0.00100923
-0.000369215
-0.00103619
-0.000434955
-0.00105741
-0.000501916
-0.00107683
-0.000570079
-0.00109648
-0.000639494
-0.00111726
-0.000710241
-0.00113952
-0.000782412
-0.00116338
-0.000856101
-0.00118889
-0.00121609
-1.08364e-05
-0.000171476
-3.85258e-05
-0.000431939
-7.912e-05
-0.000625936
-0.000129025
-0.000761875
-0.000185279
-0.000851982
-0.000245678
-0.000909452
-0.000308751
-0.000946155
-0.000373633
-0.000971311
-0.000439892
-0.000991154
-0.000507365
-0.00100936
-0.000576038
-0.00102781
-0.000645965
-0.00104733
-0.000717228
-0.00106826
-0.000789919
-0.00109069
-0.000864135
-0.00111468
-0.00114025
-1.10613e-05
-0.000160415
-3.92359e-05
-0.000403764
-8.04353e-05
-0.000584736
-0.000130971
-0.000711339
-0.000187833
-0.000795121
-0.000248798
-0.000848487
-0.000312401
-0.000882553
-0.000377786
-0.000905926
-0.000444532
-0.000924407
-0.000512488
-0.000941405
-0.000581641
-0.000958655
-0.000652051
-0.000976924
-0.0007238
-0.000996507
-0.000796982
-0.00101751
-0.000871694
-0.00103997
-1.12724e-05
-0.000149143
-3.99019e-05
-0.000375134
-8.16681e-05
-0.00054297
-0.000132794
-0.000660213
-0.000190223
-0.000737692
-0.000251719
-0.000786991
-0.000315817
-0.000818455
-0.000381673
-0.00084007
-0.000448877
-0.000857203
-0.000517284
-0.000872998
-0.000586888
-0.00088905
-0.00065775
-0.000906062
-0.000729955
-0.000924302
-0.000803598
-0.000943864
-0.000964788
-1.14697e-05
-0.000137673
-4.05236e-05
-0.000346081
-8.28177e-05
-0.000500676
-0.000134494
-0.000608537
-0.000192451
-0.000679735
-0.00025444
-0.000725002
-0.000318999
-0.000753896
-0.000385294
-0.000773775
-0.000452924
-0.000789573
-0.000521753
-0.000804169
-0.000591778
-0.000819025
-0.000663063
-0.000834777
-0.000735694
-0.000851671
-0.000809766
-0.000869792
-0.000889174
-1.16529e-05
-0.00012602
-4.11004e-05
-0.000316633
-8.38839e-05
-0.000457893
-0.000136069
-0.000556352
-0.000194515
-0.000621289
-0.000256961
-0.000662557
-0.000321947
-0.00068891
-0.000388649
-0.000707073
-0.000456675
-0.000721546
-0.000525895
-0.00073495
-0.000596311
-0.000748609
-0.000667988
-0.0007631
-0.000741014
-0.000778645
-0.000815486
-0.00079532
-0.000813156
-1.18219e-05
-0.000114198
-4.16322e-05
-0.000286823
-8.48661e-05
-0.000414659
-0.000137519
-0.000503698
-0.000196415
-0.000562392
-0.000259281
-0.000599691
-0.000324661
-0.00062353
-0.000391738
-0.000639996
-0.000460129
-0.000653155
-0.000529709
-0.00066537
-0.000600485
-0.000677832
-0.000672524
-0.000691062
-0.000745914
-0.000705254
-0.000820755
-0.00072048
-0.000736766
-1.19766e-05
-0.000102222
-4.21185e-05
-0.000256681
-8.5764e-05
-0.000371013
-0.000138845
-0.000450618
-0.000198152
-0.000503085
-0.000261401
-0.000536441
-0.00032714
-0.000557791
-0.00039456
-0.000572577
-0.000463285
-0.00058443
-0.000533195
-0.00059546
-0.000604301
-0.000606726
-0.00067667
-0.000618692
-0.000750395
-0.00063153
-0.000825572
-0.000645303
-0.000660034
-1.21168e-05
-9.01049e-05
-4.25591e-05
-0.000226239
-8.65773e-05
-0.000326995
-0.000140045
-0.00039715
-0.000199724
-0.000443407
-0.000263321
-0.000472845
-0.000329385
-0.000491726
-0.000397116
-0.000504847
-0.000466143
-0.000515403
-0.000536352
-0.00052525
-0.000607757
-0.000535322
-0.000680427
-0.000546022
-0.000754454
-0.000557503
-0.000829937
-0.00056982
-0.000582992
-1.22425e-05
-7.78624e-05
-4.29538e-05
-0.000195527
-8.73056e-05
-0.000282643
-0.00014112
-0.000343335
-0.000201132
-0.000383395
-0.00026504
-0.000408936
-0.000331396
-0.00042537
-0.000399404
-0.000436839
-0.000468703
-0.000446105
-0.00053918
-0.000454773
-0.000610853
-0.000463649
-0.000683793
-0.000473082
-0.000758091
-0.000483205
-0.000833848
-0.000494063
-0.000505674
-1.23534e-05
-6.5509e-05
-4.33024e-05
-0.000164578
-8.79487e-05
-0.000237997
-0.000142069
-0.000289215
-0.000202375
-0.000323089
-0.000266558
-0.000344753
-0.000333172
-0.000358756
-0.000401427
-0.000368584
-0.000470965
-0.000376567
-0.00054168
-0.000384058
-0.00061359
-0.000391738
-0.000686768
-0.000399905
-0.000761306
-0.000408667
-0.000837304
-0.000418064
-0.000428111
-1.24497e-05
-5.30593e-05
-4.36046e-05
-0.000133423
-8.85064e-05
-0.000193095
-0.000142892
-0.000234829
-0.000203453
-0.000262528
-0.000267875
-0.000280332
-0.000334713
-0.000291918
-0.000403182
-0.000300115
-0.000472928
-0.00030682
-0.00054385
-0.000313136
-0.000615966
-0.000319622
-0.000689351
-0.00032652
-0.000764097
-0.000333921
-0.000840306
-0.000341855
-0.000350335
-1.2531e-05
-4.05283e-05
-4.38603e-05
-0.000102094
-8.89785e-05
-0.000147977
-0.000143589
-0.000180219
-0.000204367
-0.000201751
-0.000268991
-0.000215707
-0.000336019
-0.000224889
-0.00040467
-0.000231465
-0.000474594
-0.000236896
-0.00054569
-0.000242039
-0.000617982
-0.000247331
-0.000691542
-0.00025296
-0.000766465
-0.000258998
-0.000842852
-0.000265468
-0.000272379
-1.25975e-05
-2.79308e-05
-4.40694e-05
-7.0622e-05
-8.93648e-05
-0.000102681
-0.00014416
-0.000125424
-0.000205115
-0.000140796
-0.000269906
-0.000150916
-0.000337091
-0.000157704
-0.000405891
-0.000162665
-0.000475961
-0.000166826
-0.000547201
-0.000170799
-0.000619636
-0.000174896
-0.00069334
-0.000179256
-0.000768408
-0.00018393
-0.000844941
-0.000188935
-1.2649e-05
-1.52818e-05
-4.42318e-05
-3.90392e-05
-8.96653e-05
-5.72479e-05
-0.000144605
-7.04843e-05
-0.000205699
-7.97019e-05
-0.00027062
-8.5995e-05
-0.000337928
-9.03967e-05
-0.000406845
-9.37477e-05
-0.000477029
-9.66423e-05
-0.000548382
-9.94451e-05
-0.00062093
-0.000102348
-0.000694747
-0.000105439
-0.000769928
-0.000108749
-0.000112288
-1.26855e-05
-2.59626e-06
-4.43473e-05
-7.37744e-06
-8.98797e-05
-1.17155e-05
-0.000144923
-1.54413e-05
-0.000206117
-1.85074e-05
-0.000271133
-2.09791e-05
-0.00033853
-2.30001e-05
-0.000407532
-2.47454e-05
-0.000477798
-2.63757e-05
-0.000549234
-2.80098e-05
-0.000621862
-2.97197e-05
-0.00069576
-3.15409e-05
-0.000771023
-3.34868e-05
-3.55601e-05
-1.2707e-05
1.01108e-05
-4.4416e-05
2.43315e-05
-9.00081e-05
3.38766e-05
-0.000145114
3.96648e-05
-0.000206371
4.27489e-05
-0.000271445
4.40952e-05
-0.000338897
4.44517e-05
-0.000407952
4.43096e-05
-0.00047827
4.39422e-05
-0.000549755
4.34759e-05
-0.000622434
4.29589e-05
-0.000696382
4.24067e-05
-0.000771693
4.18248e-05
4.12174e-05
-1.27136e-05
2.28243e-05
-4.44379e-05
5.60559e-05
-9.00506e-05
7.94894e-05
-0.00014518
9.47939e-05
-0.000206459
0.000104028
-0.000271556
0.000109192
-0.000339029
0.000111925
-0.000408105
0.000113385
-0.000478443
0.00011428
-0.000549947
0.000114981
-0.000622645
0.000115656
-0.00069661
0.000116372
-0.000771939
0.000117154
0.000118012
-1.27051e-05
3.55294e-05
-4.44129e-05
8.77637e-05
-9.00071e-05
0.000125084
-0.000145119
0.000149906
-0.000206383
0.000165293
-0.000271466
0.000174276
-0.000338928
0.000179386
-0.000407991
0.000182449
-0.000478317
0.000184606
-0.00054981
0.000186473
-0.000622494
0.000188341
-0.000696447
0.000190325
-0.000771761
0.000192469
0.000194791
-1.26815e-05
4.82109e-05
-4.43411e-05
0.000119423
-8.98776e-05
0.00017062
-0.000144931
0.000204959
-0.000206142
0.000226503
-0.000271176
0.00023931
-0.000338591
0.000246801
-0.000407611
0.000251469
-0.000477894
0.000254888
-0.000549343
0.000257923
-0.000621984
0.000260981
-0.000695891
0.000264232
-0.000771159
0.000267737
0.000271522
-1.2643e-05
6.08539e-05
-4.42224e-05
0.000151003
-8.96622e-05
0.00021606
-0.000144618
0.000259915
-0.000205736
0.000287621
-0.000270685
0.000304259
-0.000338021
0.000314137
-0.000406965
0.000320413
-0.000477173
0.000325096
-0.000548547
0.000329297
-0.000621113
0.000333546
-0.000694943
0.000338062
-0.000770134
0.000342928
-0.000846785
0.000348173
0.000353817
-1.25895e-05
7.34434e-05
-4.40571e-05
0.00018247
-8.9361e-05
0.000261364
-0.000144178
0.000314733
-0.000205165
0.000348608
-0.000269993
0.000369087
-0.000337216
0.00038136
-0.000406052
0.000389249
-0.000476154
0.000395198
-0.000547423
0.000400566
-0.000619881
0.000406005
-0.000693604
0.000411785
-0.000768685
0.000418008
-0.000845224
0.000424713
0.000431919
-1.25211e-05
8.59645e-05
-4.38452e-05
0.000213794
-8.89742e-05
0.000306493
-0.000143613
0.000369371
-0.00020443
0.000409425
-0.000269101
0.000433757
-0.000336177
0.000448436
-0.000404872
0.000457944
-0.000474837
0.000465163
-0.00054597
0.000471699
-0.000618291
0.000478326
-0.000691874
0.000485369
-0.000766814
0.000492947
-0.000843209
0.000501108
0.000509874
-1.24379e-05
9.84024e-05
-4.35868e-05
0.000244943
-8.85019e-05
0.000351408
-0.000142922
0.000423791
-0.000203531
0.000470035
-0.000268009
0.000498235
-0.000334904
0.000515331
-0.000403427
0.000526467
-0.000473224
0.00053496
-0.000544188
0.000542664
-0.000616341
0.000550479
-0.000689754
0.000558782
-0.00076452
0.000567714
-0.00084074
0.000577327
0.000587649
-1.23399e-05
0.000110742
-4.32821e-05
0.000275885
-8.79444e-05
0.00039607
-0.000142105
0.000477951
-0.000202468
0.000530398
-0.000266717
0.000562484
-0.000333398
0.000582013
-0.000401717
0.000594786
-0.000471313
0.000604556
-0.00054208
0.00061343
-0.000614033
0.000622432
-0.000687244
0.000631993
-0.000761806
0.000642276
-0.000837817
0.000653339
0.000665212
-1.22272e-05
0.000122969
-4.29313e-05
0.000306589
-8.73019e-05
0.000440441
-0.000141163
0.000531812
-0.000201241
0.000590476
-0.000265225
0.000626468
-0.000331659
0.000648447
-0.000399741
0.000662868
-0.000469107
0.000673922
-0.000539644
0.000683966
-0.000611366
0.000694154
-0.000684345
0.000704972
-0.000758672
0.000716602
-0.000834444
0.000729111
0.000742531
-1.20999e-05
0.000135069
-4.25346e-05
0.000337024
-8.65747e-05
0.000484481
-0.000140096
0.000585333
-0.00019985
0.00065023
-0.000263534
0.000690152
-0.000329687
0.000714599
-0.000397501
0.000730682
-0.000466604
0.000743025
-0.000536881
0.000754243
-0.000608343
0.000765616
-0.000681058
0.000777688
-0.000755118
0.000790661
-0.000830619
0.000804612
0.000819575
-1.19581e-05
0.000147028
-4.20923e-05
0.000367158
-8.57632e-05
0.000528152
-0.000138904
0.000638474
-0.000198296
0.000709623
-0.000261643
0.000753499
-0.000327481
0.000780438
-0.000394995
0.000798196
-0.000463806
0.000811836
-0.000533792
0.000824229
-0.000604963
0.000836787
-0.000677384
0.00085011
-0.000751146
0.000864423
-0.000826345
0.000879811
0.000896311
-1.1802e-05
0.00015883
-4.16046e-05
0.000396961
-8.48676e-05
0.000571415
-0.000137588
0.000691195
-0.000196579
0.000768614
-0.000259554
0.000816473
-0.000325044
0.000845928
-0.000392226
0.000865378
-0.000460713
0.000880323
-0.000530378
0.000893894
-0.000601227
0.000907635
-0.000673324
0.000922207
-0.000746757
0.000937857
-0.000821623
0.000954677
0.000972708
-1.16316e-05
0.000170461
-4.10719e-05
0.000426401
-8.38884e-05
0.000614232
-0.000136148
0.000743455
-0.0001947
0.000827165
-0.000257266
0.000879038
-0.000322374
0.000911037
-0.000389193
0.000932197
-0.000457325
0.000948456
-0.000526639
0.000963208
-0.000597136