/*--------------------------------*- C++ -*----------------------------------*\
  =========                 |
  \\      /  F ield         | OpenFOAM: The Open Source CFD Toolbox
   \\    /   O peration     | Website:  https://openfoam.org
    \\  /    A nd           | Version:  7
     \\/     M anipulation  |
\*---------------------------------------------------------------------------*/
FoamFile
{
    version     2.0;
    format      ascii;
    class       surfaceScalarField;
    location    "220";
    object      phi;
}
// * * * * * * * * * * * * * * * * * * * * * * * * * * * * * * * * * * * * * //

dimensions      [0 3 -1 0 0 0 0];

internalField   nonuniform List<scalar> 
8927
(
0.00145555
0.000860401
-0.000895817
0.00148064
0.00479964
-0.00482472
0.00147921
0.00797735
-0.00797593
0.00145883
0.0103525
-0.0103321
0.00143806
0.0110314
-0.0110106
0.00142689
0.00989541
-0.00988423
0.00142621
0.00674262
-0.00674194
0.00142908
0.00233438
-0.00233725
0.00142609
-0.00237416
0.00237715
0.0014153
-0.00720156
0.00721235
0.00140549
-0.0100094
0.0100192
0.0013996
-0.0114342
0.0114401
0.00139514
-0.0093836
0.00938806
0.00138584
-0.00543826
0.00544756
0.0013715
-0.000354471
0.000368808
0.00135554
0.00631929
-0.00630332
0.00134645
0.00904018
-0.0090311
0.0013398
0.0120257
-0.0120191
0.001329
0.00891241
-0.00890161
0.00130831
0.00377125
-0.00375056
0.00128435
-0.000204783
0.000228745
0.00126694
-0.00964321
0.00966062
-0.00730919
0.00731863
0.00145732
0.000823075
0.0014836
0.00477337
0.00148317
0.00797779
0.00146341
0.0103723
0.00144228
0.0110525
0.00142977
0.00990792
0.00142741
0.00674498
0.0014289
0.0023329
0.00142455
-0.00236981
0.00141249
-0.0071895
0.00140181
-0.00999872
0.00139599
-0.0114284
0.00139262
-0.00938023
0.00138466
-0.00543031
0.00137212
-0.000341927
0.00135755
0.00633385
0.00134938
0.00904835
0.00134279
0.0120323
0.00133076
0.00892444
0.00130913
0.00379287
0.00128347
-0.000179119
0.00126536
-0.0096251
-0.00730051
0.00145893
0.000783845
0.00148645
0.00474585
0.00148707
0.00797717
0.00146793
0.0103914
0.00144642
0.011074
0.00143256
0.00992178
0.00142851
0.00674903
0.00142866
0.00233275
0.00142299
-0.00236414
0.00140968
-0.00717619
0.00139811
-0.00998716
0.00139237
-0.0114227
0.00139008
-0.00937794
0.0013835
-0.00542373
0.00137278
-0.000331207
0.00135962
0.00634702
0.00135237
0.00905561
0.00134584
0.0120388
0.00133261
0.00893767
0.00131007
0.00381541
0.00128273
-0.000151771
0.0012639
-0.00960628
-0.00729261
0.00146038
0.000742715
0.00148919
0.00471704
0.00149091
0.00797545
0.0014724
0.0104099
0.00145049
0.0110959
0.00143524
0.00993702
0.00142951
0.00675476
0.00142834
0.00233391
0.00142141
-0.00235721
0.00140687
-0.00716165
0.00139442
-0.00997471
0.00138872
-0.011417
0.00138753
-0.00937675
0.00138235
-0.00541854
0.00137349
-0.000322342
0.00136175
0.00635875
0.00135541
0.00906195
0.00134896
0.0120453
0.00133455
0.00895208
0.00131113
0.00383883
0.00128212
-0.00012276
0.00126258
-0.00958674
-0.00728549
0.00146167
0.000699688
0.00149182
0.00468689
0.00149468
0.00797259
0.00147682
0.0104278
0.00145447
0.0111183
0.00143783
0.00995367
0.0014304
0.00676219
0.00142796
0.00233635
0.00141981
-0.00234905
0.00140407
-0.00714592
0.00139072
-0.00996136
0.00138506
-0.0114113
0.00138497
-0.00937666
0.00138121
-0.00541479
0.00137423
-0.000315357
0.00136393
0.00636905
0.00135851
0.00906737
0.00135214
0.0120517
0.00133657
0.00896764
0.0013123
0.0038631
0.00128165
-9.21065e-05
0.0012614
-0.0095665
-0.00727914
0.00146278
0.000654761
0.00149432
0.00465535
0.00149839
0.00796852
0.00148118
0.010445
0.00145838
0.0111411
0.00144032
0.00997173
0.0014312
0.0067713
0.00142752
0.00234004
0.00141819
-0.00233973
0.00140129
-0.00712901
0.00138703
-0.00994711
0.00138138
-0.0114057
0.00138239
-0.00937767
0.00138008
-0.00541248
0.00137501
-0.000310281
0.00136617
0.00637789
0.00136167
0.00907187
0.00135538
0.012058
0.00133868
0.00898434
0.0013136
0.00388818
0.00128132
-5.98322e-05
0.00126036
-0.00954553
-0.00727356
0.00146371
0.000607931
0.0014967
0.00462235
0.00150202
0.0079632
0.00148547
0.0104615
0.00146222
0.0111643
0.00144271
0.00999124
0.00143191
0.00678211
0.001427
0.00234494
0.00141656
-0.00232929
0.00139851
-0.00711096
0.00138335
-0.00993195
0.00137769
-0.0114
0.0013798
-0.00937978
0.00137896
-0.00541165
0.00137582
-0.000307138
0.00136845
0.00638526
0.00136487
0.00907545
0.00135868
0.0120641
0.00134087
0.00900215
0.00131501
0.00391405
0.00128114
-2.59611e-05
0.00125946
-0.00952386
-0.00726877
0.00146445
0.000559193
0.00149895
0.00458785
0.00150557
0.00795658
0.00148971
0.0104774
0.00146598
0.0111881
0.00144502
0.0100122
0.00143252
0.00679462
0.00142642
0.00235104
0.00141491
-0.00231778
0.00139576
-0.00709181
0.00137968
-0.00991586
0.00137399
-0.0113943
0.00137719
-0.00938298
0.00137785
-0.00541231
0.00137666
-0.000305951
0.00137078
0.00639114
0.00136812
0.00907811
0.00136204
0.0120702
0.00134315
0.00902105
0.00131654
0.00394066
0.00128109
9.48186e-06
0.00125869
-0.00950145
-0.00726474
0.001465
0.00050854
0.00150106
0.0045518
0.00150904
0.0079486
0.00149388
0.0104925
0.00146967
0.0112123
0.00144724
0.0100346
0.00143303
0.00680882
0.00142578
0.00235829
0.00141326
-0.00230526
0.00139302
-0.00707157
0.00137602
-0.00989886
0.00137028
-0.0113886
0.00137457
-0.00938727
0.00137674
-0.00541448
0.00137753
-0.000306742
0.00137315
0.00639553
0.00137141
0.00907984
0.00136546
0.0120762
0.00134551
0.00904099
0.00131819
0.00396799
0.0012812
4.64699e-05
0.00125807
-0.00947833
-0.00726148
0.00146535
0.000455962
0.00150302
0.00451413
0.00151241
0.00793921
0.00149798
0.010507
0.00147328
0.011237
0.00144937
0.0100585
0.00143346
0.00682473
0.00142507
0.00236669
0.00141158
-0.00229177
0.00139031
-0.0070503
0.00137237
-0.00988093
0.00136656
-0.0113828
0.00137194
-0.00939265
0.00137564
-0.00541818
0.00137843
-0.000309532
0.00137555
0.00639841
0.00137475
0.00908065
0.00136893
0.012082
0.00134796
0.00906196
0.00131995
0.00399599
0.00128145
8.4975e-05
0.00125759
-0.00945447
-0.00725899
0.0014655
0.000401451
0.00150484
0.00447479
0.0015157
0.00792835
0.00150201
0.0105206
0.00147683
0.0112622
0.00145142
0.0100839
0.0014338
0.00684236
0.00142429
0.00237619
0.0014099
-0.00227738
0.00138762
-0.00702802
0.00136875
-0.00986206
0.00136284
-0.0113769
0.00136929
-0.0093991
0.00137453
-0.00542343
0.00137934
-0.00031434
0.00137799
0.00639976
0.00137812
0.00908053
0.00137245
0.0120877
0.00135048
0.00908393
0.00132184
0.00402464
0.00128185
0.000124967
0.00125725
-0.00942987
-0.00725724
0.00146543
0.000344996
0.0015065
0.00443373
0.00151888
0.00791597
0.00150597
0.0105335
0.0014803
0.0112878
0.0014534
0.0101108
0.00143405
0.00686171
0.00142345
0.00238679
0.0014082
-0.00226213
0.00138495
-0.00700477
0.00136514
-0.00984225
0.0013591
-0.0113708
0.00136662
-0.00940662
0.00137343
-0.00543023
0.00138027
-0.000321183
0.00138046
0.00639957
0.00138152
0.00907947
0.00137602
0.0120932
0.00135309
0.00910685
0.00132384
0.00405388
0.00128239
0.000166416
0.00125706
-0.00940453
-0.00725625
0.00146514
0.000286585
0.00150799
0.00439088
0.00152195
0.00790202
0.00150985
0.0105456
0.00148371
0.011314
0.00145529
0.0101393
0.00143422
0.00688278
0.00142255
0.00239847
0.00140649
-0.00224607
0.00138231
-0.00698059
0.00136156
-0.0098215
0.00135537
-0.0113646
0.00136395
-0.00941519
0.00137233
-0.00543861
0.00138122
-0.000330078
0.00138296
0.00639783
0.00138495
0.00907748
0.00137963
0.0120985
0.00135578
0.00913071
0.00132596
0.0040837
0.00128309
0.000209287
0.00125701
-0.00937845
-0.00725599
0.00146463
0.000226208
0.00150932
0.00434619
0.0015249
0.00788643
0.00151365
0.0105569
0.00148705
0.0113406
0.00145712
0.0101692
0.00143431
0.00690559
0.00142157
0.0024112
0.00140476
-0.00222926
0.0013797
-0.00695553
0.001358
-0.0097998
0.00135163
-0.0113583
0.00136125
-0.00942481
0.00137122
-0.00544857
0.00138218
-0.000341039
0.00138548
0.00639452
0.00138841
0.00907455
0.00138329
0.0121036
0.00135854
0.00915546
0.0013282
0.00411404
0.00128394
0.000253546
0.0012571
-0.00935161
-0.00725646
0.00146387
0.000163853
0.00151046
0.00429961
0.00152774
0.00786916
0.00151736
0.0105673
0.00149031
0.0113676
0.00145887
0.0102006
0.00143431
0.00693015
0.00142054
0.00242497
0.00140303
-0.00221175
0.00137712
-0.00692962
0.00135448
-0.00977716
0.00134789
-0.0113517
0.00135854
-0.00943546
0.0013701
-0.00546013
0.00138314
-0.00035408
0.00138802
0.00638964
0.00139189
0.00907068
0.00138699
0.0121085
0.00136138
0.00918108
0.00133055
0.00414486
0.00128494
0.000299157
0.00125734
-0.00932401
-0.00725764
0.00146288
9.95083e-05
0.00151141
0.00425107
0.00153044
0.00785013
0.00152098
0.0105767
0.00149351
0.0113951
0.00146055
0.0102336
0.00143424
0.00695646
0.00141943
0.00243978
0.00140127
-0.00219359
0.00137457
-0.00690292
0.00135098
-0.00975357
0.00134416
-0.0113449
0.00135582
-0.00944713
0.00136897
-0.00547328
0.00138411
-0.000369212
0.00139058
0.00638317
0.00139539
0.00906587
0.00139073
0.0121132
0.00136429
0.00920752
0.00133302
0.00417613
0.0012861
0.000346081
0.00125773
-0.00929564
-0.00725952
0.00146163
3.31646e-05
0.00151217
0.00420053
0.00153301
0.00782929
0.00152451
0.0105852
0.00149664
0.011423
0.00146217
0.0102681
0.00143409
0.00698454
0.00141826
0.0024556
0.0013995
-0.00217483
0.00137205
-0.00687546
0.00134751
-0.00972903
0.00134042
-0.0113378
0.00135308
-0.00945978
0.00136784
-0.00548804
0.00138507
-0.000386446
0.00139314
0.0063751
0.00139891
0.0090601
0.00139451
0.0121176
0.00136728
0.00923475
0.00133561
0.00420781
0.00128741
0.000394278
0.00125827
-0.0092665
-0.00726209
0.00146012
-3.51878e-05
0.00151273
0.00414792
0.00153543
0.00780658
0.00152795
0.0105927
0.0014997
0.0114512
0.00146372
0.010304
0.00143387
0.0070144
0.00141703
0.00247244
0.00139772
-0.00215552
0.00136956
-0.0068473
0.00134408
-0.00970356
0.00133668
-0.0113304
0.00135032
-0.00947342
0.00136669
-0.00550441
0.00138603
-0.000405791
0.00139572
0.00636541
0.00140243
0.00905339
0.00139832
0.0121217
0.00137034
0.00926272
0.0013383
0.00423985
0.00128887
0.000443705
0.00125896
-0.00923659
-0.00726533
0.00145834
-0.000105557
0.00151307
0.00409319
0.00153771
0.00778195
0.00153128
0.0105991
0.00150269
0.0114798
0.00146522
0.0103415
0.00143357
0.00704605
0.00141572
0.00249029
0.00139591
-0.00213571
0.0013671
-0.00681849
0.00134068
-0.00967714
0.00133295
-0.0113226
0.00134755
-0.00948801
0.00136552
-0.00552239
0.00138698
-0.000427252
0.0013983
0.0063541
0.00140597
0.00904572
0.00140216
0.0121255
0.00137347
0.00929142
0.0013411
0.00427221
0.00129049
0.00049432
0.00125979
-0.00920589
-0.00726923
0.00145629
-0.000177946
0.00151319
0.00403629
0.00153982
0.00775531
0.00153451
0.0106045
0.00150562
0.0115087
0.00146666
0.0103805
0.0014332
0.0070795
0.00141435
0.00250914
0.00139408
-0.00211544
0.00136467
-0.00678907
0.00133732
-0.0096498
0.00132922
-0.0113145
0.00134475
-0.00950354
0.00136434
-0.00554198
0.00138793
-0.000450838
0.00140088
0.00634115
0.0014095
0.00903709
0.00140602
0.012129
0.00137666
0.00932078
0.00134402
0.00430485
0.00129226
0.000546075
0.00126077
-0.0091744
-0.00727376
0.00145395
-0.000252362
0.00151307
0.00397717
0.00154176
0.00772663
0.00153762
0.0106086
0.00150847
0.0115378
0.00146804
0.0104209
0.00143277
0.00711476
0.00141291
0.00252901
0.00139223
-0.00209477
0.00136227
-0.00675911
0.001334
-0.00962153
0.0013255
-0.011306
0.00134194
-0.00951998
0.00136314
-0.00556317
0.00138885
-0.000476551
0.00140345
0.00632655
0.00141304
0.0090275
0.00140991
0.0121321
0.00137992
0.00935078
0.00134704
0.00433773
0.00129419
0.000598924
0.00126191
-0.00914212
-0.00727892
0.00145132
-0.00032881
0.00151272
0.00391577
0.00154353
0.00769582
0.00154062
0.0106115
0.00151125
0.0115672
0.00146936
0.0104628
0.00143227
0.00715186
0.0014114
0.00254988
0.00139036
-0.00207372
0.0013599
-0.00672865
0.00133072
-0.00959235
0.00132178
-0.0112971
0.00133911
-0.0095373
0.00136191
-0.00558598
0.00138976
-0.000504396
0.00140602
0.00631029
0.00141658
0.00901694
0.00141382
0.0121348
0.00138324
0.00938137
0.00135017
0.0043708
0.00129627
0.000652815
0.0012632
-0.00910904
-0.00728467
0.00144839
-0.00040729
0.00151211
0.00385205
0.00154511
0.00766282
0.00154349
0.0106131
0.00151396
0.0115967
0.00147064
0.0105061
0.00143171
0.00719078
0.00140982
0.00257177
0.00138845
-0.00205235
0.00135756
-0.00669776
0.00132748
-0.00956227
0.00131807
-0.0112877
0.00133625
-0.00955548
0.00136067
-0.00561039
0.00139064
-0.000534372
0.00140857
0.00629236
0.00142011
0.00900541
0.00141775
0.0121372
0.00138661
0.0094125
0.00135339
0.00440402
0.00129851
0.000707697
0.00126464
-0.00907516
-0.007291
0.00144516
-0.0004878
0.00151125
0.00378596
0.00154649
0.00762758
0.00154624
0.0106134
0.0015166
0.0116264
0.00147186
0.0105509
0.00143109
0.00723156
0.00140817
0.00259469
0.00138652
-0.0020307
0.00135524
-0.00666649
0.00132428
-0.0095313
0.00131437
-0.0112778
0.00133338
-0.00957449
0.00135939
-0.00563641
0.0013915
-0.00056648
0.00141111
0.00627275
0.00142362
0.0089929
0.0014217
0.0121391
0.00139005
0.00944415
0.00135672
0.00443735
0.0013009
0.000763516
0.00126623
-0.00904049
-0.00729789
0.00144162
-0.000570336
0.00151012
0.00371746
0.00154767
0.00759002
0.00154885
0.0106122
0.00151916
0.0116561
0.00147304
0.010597
0.00143041
0.00727419
0.00140646
0.00261864
0.00138455
-0.0020088
0.00135295
-0.00663489
0.00132112
-0.00949947
0.00131067
-0.0112673
0.00133048
-0.0095943
0.00135809
-0.00566401
0.00139233
-0.000600718
0.00141363
0.00625144
0.00142713
0.0089794
0.00142565
0.0121406
0.00139354
0.00947626
0.00136015
0.00447073
0.00130345
0.000820216
0.00126797
-0.00900501
-0.0073053
0.00143775
-0.000654892
0.00150871
0.00364651
0.00154864
0.00755009
0.00155132
0.0106095
0.00152164
0.0116858
0.00147417
0.0106444
0.00142967
0.00731869
0.00140467
0.00264364
0.00138255
-0.00198668
0.00135069
-0.00660303
0.001318
-0.00946678
0.00130699
-0.0112563
0.00132757
-0.00961488
0.00135675
-0.0056932
0.00139312
-0.000637084
0.00141613
0.00622843
0.00143061
0.00896492
0.00142961
0.0121416
0.00139708
0.00950879
0.00136367
0.00450414
0.00130615
0.000877739
0.00126987
-0.00896873
-0.00731323
0.00143356
-0.000741458
0.00150701
0.00357306
0.00154938
0.00750772
0.00155364
0.0106053
0.00152404
0.0117154
0.00147526
0.0106932
0.00142888
0.00736507
0.00140282
0.0026697
0.00138051
-0.00196437
0.00134844
-0.00657096
0.00131493
-0.00943327
0.00130331
-0.0112447
0.00132462
-0.00963619
0.00135539
-0.00572396
0.00139388
-0.000675573
0.0014186
0.00620371
0.00143408
0.00894944
0.00143357
0.0121421
0.00140067
0.0095417
0.00136729
0.00453752
0.001309
0.000936026
0.00127192
-0.00893165
-0.00732164
0.00142904
-0.000830023
0.00150502
0.00349709
0.00154989
0.00746284
0.00155581
0.0105993
0.00152636
0.0117448
0.0014763
0.0107433
0.00142804
0.00741332
0.00140089
0.00269685
0.00137844
-0.00194192
0.00134622
-0.00653874
0.0013119
-0.00939895
0.00129964
-0.0112325
0.00132166
-0.0096582
0.00135399
-0.00575629
0.00139459
-0.00071618
0.00142104
0.00617726
0.00143752
0.00893297
0.00143754
0.0121421
0.0014043
0.00957493
0.00137099
0.00457082
0.001312
0.000995014
0.00127413
-0.00889378
-0.00733051
0.00142419
-0.000920573
0.00150272
0.00341855
0.00155016
0.00741539
0.00155781
0.0105917
0.00152859
0.011774
0.00147729
0.0107946
0.00142715
0.00746346
0.0013989
0.0027251
0.00137632
-0.00191933
0.00134401
-0.00650644
0.00130892
-0.00936386
0.00129599
-0.0112195
0.00131866
-0.00968087
0.00135255
-0.00579018
0.00139527
-0.000758898
0.00142345
0.00614907
0.00144093
0.00891549
0.0014415
0.0121415
0.00140797
0.00960846
0.00137478
0.00460401
0.00131516
0.00105464
0.00127649
-0.00885511
-0.00733981
0.001419
-0.0010131
0.00150011
0.00333744
0.00155018
0.00736532
0.00155964
0.0105822
0.00153073
0.011803
0.00147825
0.010847
0.00142622
0.00751548
0.00139685
0.00275448
0.00137415
-0.00189663
0.00134182
-0.0064741
0.00130598
-0.00932802
0.00129235
-0.0112059
0.00131564
-0.00970417
0.00135107
-0.00582561
0.0013959
-0.00080372
0.00142582
0.00611915
0.00144431
0.008897
0.00144546
0.0121404
0.00141169
0.00964223
0.00137866
0.00463705
0.00131846
0.00111484
0.001279
-0.00881565
-0.00734952
0.00141346
-0.00110757
0.00149719
0.00325371
0.00154994
0.00731257
0.00156129
0.0105709
0.00153277
0.0118315
0.00147916
0.0109007
0.00142524
0.0075694
0.00139472
0.002785
0.00137194
-0.00187385
0.00133963
-0.0064418
0.00130308
-0.00929148
0.00128871
-0.0111915
0.0013126
-0.00972805
0.00134956
-0.00586258
0.00139648
-0.000850639
0.00142816
0.00608747
0.00144766
0.0088775
0.0014494
0.0121386
0.00141544
0.00967619
0.00138261
0.00466987
0.00132191
0.00117554
0.00128167
-0.0087754
-0.0073596
0.00140759
-0.00120399
0.00149394
0.00316736
0.00154944
0.00725708
0.00156276
0.0105576
0.00153471
0.0118595
0.00148002
0.0109554
0.00142423
0.00762519
0.00139253
0.0028167
0.00136967
-0.00185099
0.00133745
-0.00640958
0.00130023
-0.00925425
0.0012851
-0.0111764
0.00130952
-0.00975248
0.001348
-0.00590106
0.00139701
-0.000899647
0.00143045
0.00605403
0.00145097
0.00885698
0.00145333
0.0121363
0.00141922
0.0097103
0.00138664
0.00470245
0.0013255
0.00123668
0.00128448
-0.00873439
-0.00737003
0.00140138
-0.00130234
0.00149037
0.00307836
0.00154865
0.0071988
0.00156403
0.0105422
0.00153655
0.011887
0.00148085
0.0110111
0.00142317
0.00768286
0.00139028
0.0028496
0.00136736
-0.00182807
0.00133528
-0.0063775
0.00129742
-0.00921639
0.00128149
-0.0111605
0.00130642
-0.0097774
0.0013464
-0.00594105
0.00139749
-0.000950736
0.00143269
0.00601883
0.00145424
0.00883543
0.00145725
0.0121332
0.00142303
0.00974452
0.00139074
0.00473474
0.00132924
0.00129819
0.00128746
-0.0086926
-0.00738077
0.00139482
-0.00140259
0.00148647
0.00298671
0.00154758
0.00713768
0.0015651
0.0105247
0.00153828
0.0119138
0.00148163
0.0110677
0.00142209
0.0077424
0.00138796
0.00288373
0.00136498
-0.00180509
0.00133311
-0.00634563
0.00129465
-0.00917793
0.00127791
-0.0111437
0.00130328
-0.00980277
0.00134476
-0.00598252
0.00139792
-0.0010039
0.00143489
0.00598186
0.00145746
0.00881286
0.00146115
0.0121296
0.00142687
0.00977879
0.00139492
0.0047667
0.00133312
0.00135998
0.00129058
-0.00865006
-0.0073918
0.00138792
-0.00150476
0.00148224
0.0028924
0.00154623
0.00707369
0.00156597
0.0105049
0.00153989
0.0119399
0.00148236
0.0111252
0.00142097
0.00780379
0.00138558
0.00291911
0.00136255
-0.00178207
0.00133094
-0.00631402
0.00129192
-0.00913891
0.00127434
-0.0111261
0.00130011
-0.00982854
0.00134306
-0.00602548
0.00139829
-0.00105913
0.00143704
0.00594312
0.00146064
0.00878926
0.00146502
0.0121252
0.00143073
0.00981308
0.00139916
0.00479827
0.00133714
0.001422
0.00129385
-0.00860678
-0.00740309
0.00138069
-0.00160882
0.00147768
0.00279541
0.00154458
0.00700679
0.00156661
0.0104829
0.00154139
0.0119651
0.00148305
0.0111836
0.00141982
0.00786703
0.00138314
0.00295579
0.00136006
-0.00175899
0.00132876
-0.00628271
0.00128923
-0.00909939
0.00127078
-0.0111077
0.00129691
-0.00985467
0.00134132
-0.00606989
0.00139861
-0.00111642
0.00143914
0.00590259
0.00146378
0.00876462
0.00146887
0.0121201
0.00143461
0.00984734
0.00140346
0.00482942
0.00134129
0.00148416
0.00129728
-0.00856276
-0.00741461
0.00137311
-0.00171478
0.0014728
0.00269572
0.00154264
0.00693695
0.00156704
0.0104585
0.00154276
0.0119894
0.00148369
0.0112426
0.00141865
0.00793207
0.00138065
0.00299379
0.00135751
-0.00173585
0.00132657
-0.00625177
0.00128658
-0.0090594
0.00126725
-0.0110883
0.00129367
-0.0098811
0.00133952
-0.00611574
0.00139888
-0.00117578
0.0014412
0.00586026
0.00146687
0.00873895
0.00147269
0.0121143
0.0014385
0.00988153
0.00140781
0.00486011
0.00134558
0.00154639
0.00130085
-0.00851803
-0.00742633
0.00136518
-0.00182263
0.0014676
0.0025933
0.00154042
0.00686413
0.00156725
0.0104317
0.00154401
0.0120127
0.00148431
0.0113024
0.00141747
0.00799891
0.00137812
0.00303314
0.0013549
-0.00171264
0.00132437
-0.00622123
0.00128397
-0.009019
0.00126372
-0.0110681
0.00129039
-0.00990777
0.00133767
-0.00616301
0.00139909
-0.0012372
0.00144321
0.00581614
0.00146992
0.00871225
0.00147648
0.0121077
0.00144241
0.0099156
0.00141222
0.0048903
0.00135
0.00160861
0.00130457
-0.00847259
-0.00743821
0.00135695
-0.00193238
0.00146213
0.00248812
0.00153795
0.00678831
0.00156726
0.0104024
0.00154514
0.0120348
0.00148487
0.0113626
0.00141627
0.00806752
0.00137551
0.0030739
0.00135221
-0.00168934
0.00132213
-0.00619115
0.00128138
-0.00897825
0.00126022
-0.0110469
0.00128709
-0.00993463
0.00133577
-0.00621169
0.00139926
-0.0013007
0.00144519
0.00577021
0.00147293
0.0086845
0.00148025
0.0121004
0.00144632
0.00994953
0.00141668
0.00491994
0.00135455
0.00167075
0.00130844
-0.00842648
-0.00745022
0.00134889
-0.002044
0.0014568
0.00238021
0.00153551
0.0067096
0.0015672
0.0103707
0.0015461
0.0120559
0.00148524
0.0114235
0.00141475
0.00813801
0.00137255
0.00311609
0.00134921
-0.001666
0.00131971
-0.00616165
0.00127886
-0.0089374
0.00125673
-0.0110248
0.00128393
-0.00996183
0.00133385
-0.00626161
0.0013995
-0.00136635
0.00144721
0.0057225
0.00147594
0.00865578
0.00148407
0.0120923
0.00145017
0.00998343
0.00142118
0.00494892
0.00135931
0.00173262
0.00131213
-0.0083793
-0.00746266
0.00469129
-0.0021394
0.00478108
0.00229042
0.00482357
0.00666711
0.0048038
0.0103904
0.00472512
0.0121346
0.00463051
0.0115181
0.00458031
0.00818821
0.00463999
0.00305641
0.00472601
-0.00175202
0.004728
-0.00616365
0.00462827
-0.00883767
0.00450592
-0.0109025
0.00448858
-0.00994449
0.00450734
-0.00628037
0.00458648
-0.00144549
0.00464621
0.00566276
0.00469169
0.0086103
0.00472425
0.0120597
0.00464358
0.0100641
0.00458603
0.00500647
0.00440572
0.00191293
0.00421539
-0.00818898
-0.0074728
0.00483566
-0.00223874
0.00493773
0.00218835
0.00499271
0.00661213
0.00498193
0.0104012
0.00490201
0.0122145
0.00479968
0.0116204
0.00473612
0.00825177
0.00479687
0.00299566
0.00489254
-0.00184769
0.00490142
-0.00617253
0.0047942
-0.00873044
0.00465379
-0.010762
0.00463011
-0.00992082
0.00465099
-0.00630124
0.00474291
-0.00153742
0.0048132
0.00559247
0.00486053
0.00856297
0.00490085
0.0120194
0.00481176
0.0101532
0.00476175
0.00505648
0.00457664
0.00209804
0.0043684
-0.00798074
-0.00747849
0.00498685
-0.00234512
0.00510163
0.00207356
0.00517032
0.00654345
0.00516914
0.0104024
0.00509009
0.0122935
0.00498128
0.0117292
0.00490755
0.00832551
0.00496633
0.00293687
0.0050709
-0.00195226
0.00508614
-0.00618777
0.00497122
-0.00861553
0.00481106
-0.0106019
0.00477903
-0.00988879
0.00480251
-0.00632473
0.00490692
-0.00164182
0.00498791
0.00551148
0.0050376
0.00851329
0.0050831
0.0119739
0.00499086
0.0102454
0.00494672
0.00510062
0.00475937
0.00228539
0.0045338
-0.00775517
-0.00747725
0.00514277
-0.00245857
0.00527254
0.00194379
0.00535728
0.0064587
0.0053682
0.0103915
0.00529207
0.0123697
0.0051785
0.0118428
0.00509497
0.00840904
0.00515026
0.00288159
0.00526138
-0.00206338
0.00528251
-0.0062089
0.00516007
-0.00849308
0.00497821
-0.01042
0.00493579
-0.00984638
0.00496142
-0.00635036
0.00507898
-0.00175938
0.00517164
0.00541882
0.00522315
0.00846178
0.00527387
0.0119232
0.00517917
0.0103401
0.00514197
0.00513781
0.00495464
0.00247272
0.00471144
-0.00751196
-0.0074674
0.00530311
-0.00257884
0.00544993
0.00179697
0.00555365
0.00635499
0.00557979
0.0103653
0.00550913
0.0124403
0.00539296
0.0119589
0.0053007
0.0085013
0.00535043
0.00283186
0.00546519
-0.00217814
0.00549113
-0.00623485
0.00536132
-0.00836327
0.00515591
-0.0102146
0.00510079
-0.00979126
0.00512786
-0.00637743
0.00525912
-0.00189064
0.00536465
0.00531329
0.00541756
0.00840886
0.00547325
0.0118675
0.00537669
0.0104367
0.00534755
0.00516696
0.00516295
0.00265732
0.00490209
-0.0072511
-0.0074472
0.00546782
-0.00270552
0.00563362
0.00163117
0.00575941
0.0062292
0.00580417
0.0103206
0.00574201
0.0125025
0.00562636
0.0120746
0.00552713
0.00860053
0.0055689
0.00279009
0.00568354
-0.00229278
0.00571251
-0.00626381
0.00557545
-0.00822622
0.00534477
-0.00998391
0.00527435
-0.00972084
0.00530195
-0.00640503
0.00544744
-0.00203613
0.00556719
0.00519354
0.00562118
0.00835488
0.00568127
0.0118074
0.00558338
0.0105346
0.00556349
0.00518685
0.00538471
0.00283609
0.00510648
-0.00697287
-0.0074149
0.00563677
-0.00283778
0.00582335
0.0014446
0.00597439
0.00607815
0.00604127
0.0102537
0.00599129
0.0125525
0.00588029
0.0121856
0.00577641
0.00870441
0.00580772
0.00275878
0.00591764
-0.0024027
0.00594703
-0.0062932
0.00580277
-0.00808196
0.00554537
-0.00972651
0.00545677
-0.00963224
0.00548375
-0.00643201
0.00564393
-0.0021963
0.00577947
0.005058
0.00583434
0.00830001
0.00589801
0.0117437
0.00579915
0.0106334
0.00578976
0.00519624
0.00562025
0.0030056
0.0053253
-0.00667791
-0.00736876
0.00580991
-0.00297418
0.00601877
0.00123574
0.00619815
0.00589878
0.00629077
0.0101611
0.0062573
0.012586
0.00615593
0.012287
0.00605028
0.00881006
0.00606876
0.0027403
0.00616867
-0.0025026
0.006195
-0.00631953
0.00604343
-0.00793039
0.00575821
-0.00944129
0.00564835
-0.00952238
0.0056733
-0.00645695
0.0058485
-0.0023715
0.00600161
0.00490489
0.0060574
0.00824421
0.00612354
0.0116776
0.00602391
0.0107331
0.0060263
0.00519385
0.00586981
0.00316209
0.00555915
-0.00636726
-0.00730708
0.0059873
-0.00311269
0.00621944
0.0010036
0.00642997
0.00568825
0.00655206
0.010039
0.00654001
0.012598
0.00645384
0.0123731
0.00634991
0.00891399
0.00635352
0.00273668
0.00643762
-0.0025867
0.00645654
-0.00633846
0.00629736
-0.00777121
0.0059837
-0.00912763
0.00584936
-0.00938805
0.00587054
-0.00647813
0.00606095
-0.00256191
0.00623367
0.00473216
0.00629075
0.00818713
0.00635797
0.0116104
0.00625761
0.0108334
0.00627299
0.00517847
0.00613354
0.00330154
0.00580857
-0.00604229
-0.00722822
0.00616919
-0.00325072
0.00642486
0.000747925
0.00666888
0.00544423
0.00682413
0.00988373
0.00683884
0.0125833
0.00677389
0.0124381
0.00667567
0.00901221
0.00666292
0.00274943
0.0067252
-0.00264898
0.00673158
-0.00634484
0.00656423
-0.00760386
0.00622208
-0.00878548
0.00606004
-0.00922601
0.00607538
-0.00649346
0.00628095
-0.00276749
0.00647559
0.00453753
0.00653474
0.00812798
0.00660147
0.0115436
0.00650024
0.0109347
0.00652976
0.00514895
0.00641155
0.00341976
0.00607402
-0.00570475
-0.00713067
0.00635602
-0.00338508
0.00663449
0.000469455
0.00691361
0.0051651
0.00710554
0.00969179
0.00715255
0.0125363
0.00711508
0.0124756
0.00702696
0.00910033
0.00699708
0.00277931
0.00703171
-0.00268361
0.00701977
-0.0063329
0.00684342
-0.00742751
0.00647343
-0.00841549
0.00628063
-0.00903321
0.00628762
-0.00650045
0.00650804
-0.0029879
0.00672713
0.00431843
0.00678971
0.00806541
0.00685432
0.011479
0.00675198
0.011037
0.00679661
0.00510432
0.00670386
0.00351251
0.0063558
-0.0053567
-0.00701301
0.00654835
-0.00351217
0.00684769
0.000170112
0.00716259
0.0048502
0.00739439
0.00946
0.00747923
0.0124514
0.00747545
0.0124793
0.0074021
0.00917368
0.00735518
0.00282622
0.00735687
-0.0026853
0.00732044
-0.00629647
0.00713396
-0.00724103
0.00673756
-0.00801909
0.0065113
-0.00880695
0.00650705
-0.0064962
0.00674151
-0.00322237
0.0069878
0.00407214
0.0070559
0.00799731
0.00711698
0.0114179
0.00701325
0.0111407
0.00707366
0.00504391
0.00701045
0.00357572
0.00665413
-0.00500039
-0.00687393
0.00674685
-0.00362806
0.00706383
-0.000146877
0.00741401
0.00450003
0.00768827
0.00918575
0.00781618
0.0123235
0.00785199
0.0124435
0.00779822
0.00922746
0.00773529
0.00288915
0.00769968
-0.00264969
0.00763256
-0.00622935
0.00743453
-0.007043
0.007014
-0.00759856
0.0067522
-0.00854515
0.00673337
-0.00647737
0.00698046
-0.00346946
0.00725675
0.00379585
0.00733342
0.00792064
0.0073901
0.0113612
0.00728481
0.011246
0.00736127
0.00496745
0.00733126
0.00360573
0.00696904
-0.00463817
-0.00671225
0.00695215
-0.00372874
0.00728225
-0.000476979
0.00766589
0.00411639
0.00798432
0.00886731
0.00815991
0.0121479
0.00824071
0.0123627
0.00821127
0.00925689
0.00813432
0.0029661
0.00805835
-0.00257372
0.00795464
-0.00612565
0.00774345
-0.0068318
0.00730194
-0.00715706
0.00700341
-0.00824661
0.00696632
-0.00644028
0.00722371
-0.00372686
0.00753269
0.00348688
0.00762211
0.00783122
0.00767454
0.0113088
0.00756791
0.0113527
0.0076601
0.00487526
0.00766622
0.0035996
0.00730037
-0.00427231
-0.00652691
0.0071648
-0.00381035
0.00750231
-0.000814487
0.0079161
0.00370261
0.00827926
0.00850415
0.0085062
0.011921
0.00863662
0.0122323
0.00863614
0.00925738
0.00854805
0.00305419
0.00843018
-0.00245585
0.00828476
-0.00598023
0.00805866
-0.0066057
0.00760018
-0.00669858
0.00726488
-0.00791131
0.00720562
-0.00638102
0.00746983
-0.00399106
0.00781375
0.00314296
0.00792139
0.00772358
0.00797128
0.0112589
0.00786424
0.0114597
0.00797112
0.00476838
0.00801516
0.00355557
0.00764769
-0.00390484
-0.00631695
0.00738507
-0.00386931
0.00772333
-0.00115275
0.00816247
0.00326347
0.00856946
0.00809716
0.00885018
0.0116403
0.00903397
0.0120485
0.00906675
0.0092246
0.00897123
0.00314971
0.0088116
-0.00229621
0.0086205
-0.00578914
0.00837779
-0.00636299
0.00790713
-0.00622792
0.00753645
-0.00754063
0.0074511
-0.00629567
0.00771715
-0.00425711
0.00809741
0.00276269
0.00823003
0.00759097
0.00828128
0.0112077
0.00817596
0.011565
0.00829563
0.00464872
0.00837781
0.00347338
0.00801026
-0.00353729
-0.00608152
0.00761278
-0.00390238
0.00794444
-0.0014844
0.00840274
0.00280517
0.008851
0.0076489
0.00918648
0.0113048
0.00942633
0.0118087
0.00949637
0.00915455
0.00939769
0.00324839
0.00919819
-0.00209671
0.00895899
-0.00554994
0.00869823
-0.00610223
0.00822078
-0.00575046
0.00781769
-0.00713754
0.00770265
-0.00618063
0.00796386
-0.00451833
0.00838049
0.00234606
0.00854599
0.00742547
0.00860524
0.0111484
0.00850543
0.0116648
0.00863506
0.00451908
0.00875364
0.0033548
0.00838689
-0.00317054
-0.0058199
0.00784724
-0.00390649
0.00816438
-0.00180155
0.00863445
0.0023351
0.00911977
0.00716358
0.0095094
0.0109152
0.00980696
0.0115111
0.00991784
0.00904368
0.00982063
0.0033456
0.00958482
-0.00186089
0.00929693
-0.00526205
0.00901717
-0.00582247
0.00853881
-0.00527211
0.00810796
-0.00670669
0.00796025
-0.00603293
0.00820818
-0.00476625
0.00865914
0.0018951
0.00886618
0.00721843
0.00894317
0.0110714
0.00885488
0.0117531
0.00899077
0.00438318
0.00914172
0.00320386
0.00877586
-0.00280468
-0.00553159
0.00808728
-0.00387856
0.00838124
-0.00209551
0.00885475
0.00186159
0.0093714
0.00664693
0.00981315
0.0104734
0.010169
0.0111553
0.0103237
0.00888898
0.0102329
0.0034364
0.0099658
-0.00159381
0.00963073
-0.00492699
0.00933175
-0.00552348
0.00885863
-0.00479899