/*--------------------------------*- C++ -*----------------------------------*\
  =========                 |
  \\      /  F ield         | OpenFOAM: The Open Source CFD Toolbox
   \\    /   O peration     | Website:  https://openfoam.org
    \\  /    A nd           | Version:  7
     \\/     M anipulation  |
\*---------------------------------------------------------------------------*/
FoamFile
{
    version     2.0;
    format      ascii;
    class       volVectorField;
    location    "220";
    object      U;
}
// * * * * * * * * * * * * * * * * * * * * * * * * * * * * * * * * * * * * * //

dimensions      [0 1 -1 0 0 0 0];

internalField   nonuniform List<vector> 
4575
(
(0.775429 0.0294605 -2.95602e-23)
(0.796846 0.158741 2.3805e-23)
(0.804141 0.25857 -2.88809e-23)
(0.797296 0.32943 -2.13413e-23)
(0.784492 0.344937 -4.30921e-23)
(0.777795 0.304137 -6.70039e-24)
(0.775816 0.203716 1.6463e-23)
(0.780947 0.0693154 2.29611e-23)
(0.782846 -0.0693732 -8.8236e-24)
(0.781465 -0.206693 -1.98855e-23)
(0.774659 -0.282189 -5.91119e-24)
(0.773917 -0.316664 2.52915e-23)
(0.771181 -0.255348 4.91273e-24)
(0.771674 -0.145515 -2.67133e-23)
(0.763714 -0.00952598 2.16581e-23)
(0.758261 0.162847 5.78464e-24)
(0.749273 0.229096 -2.63044e-24)
(0.751107 0.299527 -1.73722e-24)
(0.745669 0.218032 -4.97396e-24)
(0.742581 0.0904353 -3.95353e-24)
(0.726794 -0.00517197 2.90322e-25)
(0.718611 -0.224238 -1.46848e-23)
(0.711345 -0.166966 4.41743e-24)
(0.775859 0.0281566 1.82437e-23)
(0.796944 0.157807 -7.1307e-23)
(0.803957 0.258511 1.55743e-23)
(0.797197 0.32998 -5.57007e-23)
(0.784481 0.345505 2.21312e-23)
(0.777731 0.304415 -5.61307e-23)
(0.775597 0.203678 -5.8423e-23)
(0.780833 0.0691686 -8.61757e-23)
(0.782977 -0.0693459 2.41326e-24)
(0.781522 -0.206442 4.94842e-23)
(0.774486 -0.281975 -3.77581e-23)
(0.773387 -0.316576 -2.82311e-23)
(0.770721 -0.255316 7.57607e-25)
(0.771303 -0.145361 4.86576e-24)
(0.763553 -0.00925167 -1.42962e-23)
(0.758647 0.16316 -1.83958e-23)
(0.749928 0.229233 5.90236e-23)
(0.7523 0.299609 -3.12159e-23)
(0.746625 0.21823 -6.04474e-23)
(0.743064 0.0908659 2.7383e-23)
(0.72714 -0.00466026 -2.96022e-23)
(0.71752 -0.223895 -2.08561e-23)
(0.710881 -0.166829 -9.10876e-24)
(0.776359 0.0267886 -9.23983e-23)
(0.797119 0.15683 1.46352e-23)
(0.803868 0.258415 2.59427e-23)
(0.797194 0.330505 1.39943e-22)
(0.784549 0.346079 8.43492e-24)
(0.777724 0.304729 2.70099e-22)
(0.775426 0.203688 -2.72736e-23)
(0.78077 0.0690614 1.55565e-22)
(0.78318 -0.0692777 -1.11616e-22)
(0.781665 -0.206151 -5.08483e-23)
(0.774396 -0.28173 1.06067e-22)
(0.772923 -0.316483 6.16623e-23)
(0.770318 -0.255308 5.5845e-23)
(0.770993 -0.14524 1.65701e-23)
(0.763467 -0.00902427 1.81959e-23)
(0.759114 0.163433 3.69338e-23)
(0.750664 0.229342 -6.12344e-23)
(0.753564 0.299683 2.17693e-23)
(0.747653 0.218454 7.79572e-23)
(0.743627 0.0913173 3.87877e-23)
(0.727576 -0.00410813 3.23079e-23)
(0.716515 -0.22353 7.28047e-23)
(0.710496 -0.166706 7.52691e-24)
(0.776928 0.0253571 1.2956e-22)
(0.797371 0.15581 -1.33112e-22)
(0.803873 0.25828 -1.98804e-23)
(0.797287 0.331004 -2.45444e-23)
(0.784696 0.346659 -3.10832e-23)
(0.777775 0.305081 -1.07863e-22)
(0.775301 0.203745 8.68497e-23)
(0.780758 0.0689931 -1.8576e-22)
(0.783454 -0.0691696 3.7369e-23)
(0.781895 -0.20582 1.05506e-22)
(0.77439 -0.281454 -1.52348e-22)
(0.772527 -0.316384 -9.65795e-23)
(0.769973 -0.255324 -1.48378e-23)
(0.770743 -0.145153 6.70008e-23)
(0.763456 -0.00884429 -4.94137e-23)
(0.759662 0.163667 7.45117e-24)
(0.75148 0.229425 1.09982e-22)
(0.7549 0.29975 -5.08064e-23)
(0.748753 0.218703 3.70248e-23)
(0.74427 0.0917889 -5.07941e-23)
(0.728104 -0.00351581 -2.82253e-23)
(0.715599 -0.223143 4.40177e-23)
(0.710188 -0.166596 -1.71153e-24)
(0.777565 0.0238626 -2.33376e-23)
(0.7977 0.154744 1.96357e-22)
(0.803972 0.258104 -1.55805e-24)
(0.797476 0.331478 9.50041e-23)
(0.784922 0.347247 -1.22073e-22)
(0.777885 0.30547 -5.30197e-23)
(0.775225 0.203851 5.99121e-23)
(0.780797 0.0689629 1.96202e-22)
(0.7838 -0.069023 1.71415e-22)
(0.782211 -0.205449 -3.34758e-22)
(0.774469 -0.281147 2.39491e-22)
(0.772199 -0.316279 1.35108e-22)
(0.769685 -0.255363 -1.44164e-23)
(0.770555 -0.145099 9.2185e-24)
(0.763518 -0.00871222 1.24233e-22)
(0.76029 0.163862 -8.44176e-23)
(0.752376 0.22948 -8.79293e-23)
(0.756306 0.29981 1.09189e-22)
(0.749926 0.218977 -2.79957e-23)
(0.744991 0.0922803 -6.42355e-23)
(0.728724 -0.00288354 3.02126e-23)
(0.714772 -0.222735 -7.05576e-23)
(0.709958 -0.1665 -2.0783e-23)
(0.778267 0.0223054 1.52008e-22)
(0.798103 0.153632 -2.18479e-22)
(0.804165 0.257887 -3.73847e-23)
(0.79776 0.331926 -1.24645e-23)
(0.785228 0.347843 3.04781e-22)
(0.778055 0.305898 -2.07166e-22)
(0.775199 0.204005 -1.07034e-22)
(0.780886 0.0689702 -7.25104e-23)
(0.784216 -0.0688389 2.54735e-22)
(0.782615 -0.205038 1.68077e-22)
(0.774633 -0.280807 3.15906e-23)
(0.771941 -0.316168 -1.04537e-22)
(0.769456 -0.255426 1.59663e-22)
(0.770428 -0.14508 -6.13985e-23)
(0.763654 -0.00862838 -1.85187e-22)
(0.760996 0.164017 3.72333e-23)
(0.753349 0.229509 -1.01496e-23)
(0.757781 0.299863 -3.71573e-23)
(0.75117 0.219276 -5.25129e-23)
(0.745793 0.092791 2.65627e-23)
(0.729436 -0.00221162 3.72954e-23)
(0.714037 -0.222303 -2.07015e-24)
(0.709806 -0.166417 1.58128e-23)
(0.779033 0.0206858 2.11845e-22)
(0.798582 0.152472 3.15783e-22)
(0.804451 0.257628 3.95199e-22)
(0.798139 0.332348 -7.54563e-23)
(0.785614 0.348448 -2.47321e-22)
(0.778287 0.306366 1.29673e-23)
(0.775222 0.204208 1.41434e-22)
(0.781027 0.0690145 -7.9889e-23)
(0.784702 -0.0686186 -2.37398e-22)
(0.783106 -0.204589 -9.10897e-24)
(0.774883 -0.280435 -2.53989e-22)
(0.771752 -0.316048 1.34935e-22)
(0.769284 -0.255512 -2.80973e-23)
(0.770361 -0.145095 -6.54138e-23)
(0.763862 -0.0085931 1.67842e-22)
(0.761781 0.164133 -8.76795e-23)
(0.754398 0.229511 7.9723e-24)
(0.759323 0.299909 1.33088e-23)
(0.752486 0.2196 1.00905e-22)
(0.746673 0.0933203 -7.82969e-23)
(0.730241 -0.00150037 -5.08662e-23)
(0.713393 -0.22185 -7.21587e-23)
(0.709732 -0.166347 1.91695e-23)
(0.77986 0.0190042 -2.81865e-22)
(0.799134 0.151262 1.26902e-22)
(0.804828 0.257324 -1.39467e-22)
(0.798612 0.332745 -3.34906e-22)
(0.786081 0.349063 -3.77895e-23)
(0.778582 0.306874 1.98571e-22)
(0.775298 0.204461 -2.14231e-23)
(0.781218 0.0690951 2.85119e-22)
(0.785257 -0.0683632 -3.02003e-22)
(0.783684 -0.204103 -9.85598e-23)
(0.77522 -0.28003 3.7825e-23)
(0.771635 -0.31592 -2.50572e-22)
(0.769171 -0.255622 -1.13601e-22)
(0.770356 -0.145145 -5.85552e-23)
(0.764141 -0.008607 -1.10006e-23)
(0.762643 0.164209 9.95522e-23)
(0.755523 0.229487 1.03106e-22)
(0.760932 0.299949 -2.42048e-22)
(0.753874 0.219947 -2.06034e-22)
(0.747631 0.0938678 -1.37066e-22)
(0.731141 -0.000750171 1.09298e-22)
(0.712842 -0.221373 -1.78288e-23)
(0.709735 -0.166289 2.56169e-23)
(0.780747 0.0172607 -2.58646e-22)
(0.799759 0.150002 -6.33621e-23)
(0.805297 0.256974 2.37546e-22)
(0.799179 0.333115 4.31876e-22)
(0.78663 0.349688 -3.05122e-22)
(0.778941 0.307424 4.54784e-22)
(0.775425 0.204763 3.0005e-22)
(0.78146 0.0692116 -1.92767e-22)
(0.785882 -0.0680742 2.72317e-22)
(0.784351 -0.203579 1.32796e-22)
(0.775645 -0.279592 3.90414e-23)
(0.771588 -0.315783 -4.9394e-23)
(0.769116 -0.255753 -3.95053e-23)
(0.770411 -0.14523 1.03212e-22)
(0.764491 -0.00867033 -1.04078e-23)
(0.76358 0.164245 -1.54632e-22)
(0.756723 0.229437 -1.74745e-22)
(0.762607 0.299981 1.73507e-22)
(0.755333 0.220319 1.46785e-22)
(0.748669 0.0944328 2.68954e-23)
(0.732134 3.85967e-05 -1.0068e-22)
(0.712386 -0.220873 -1.18425e-22)
(0.709815 -0.166243 -8.72794e-24)
(0.781691 0.0154554 4.59682e-23)
(0.800455 0.14869 -4.69702e-22)
(0.805855 0.256577 -6.24512e-23)
(0.799839 0.333459 -2.17125e-23)
(0.78726 0.350325 3.50204e-22)
(0.779366 0.308016 -6.55132e-22)
(0.775607 0.205115 -3.37793e-22)
(0.781753 0.0693633 -5.48032e-22)
(0.786574 -0.0677526 -2.97294e-23)
(0.785104 -0.203018 -2.98992e-22)
(0.776158 -0.27912 7.14066e-23)
(0.771613 -0.315636 5.39831e-22)
(0.76912 -0.255907 1.87192e-22)
(0.770527 -0.145351 3.59004e-24)
(0.76491 -0.00878318 1.22833e-22)
(0.764592 0.164242 1.48628e-22)
(0.757995 0.229361 1.2649e-22)
(0.764346 0.300007 2.9126e-22)
(0.756863 0.220713 -2.18686e-22)
(0.749784 0.0950148 -5.84236e-23)
(0.733221 0.000865485 2.33949e-22)
(0.712025 -0.220349 2.89852e-22)
(0.709973 -0.166209 -5.03194e-23)
(0.78269 0.0135886 4.42792e-22)
(0.801221 0.147324 4.44288e-23)
(0.806501 0.256132 -4.23691e-22)
(0.800591 0.333775 -9.23255e-23)
(0.787972 0.350972 -1.17262e-22)
(0.779857 0.30865 -5.70626e-23)
(0.775842 0.205517 3.13717e-22)
(0.782095 0.0695499 4.26441e-22)
(0.787334 -0.0673997 -3.50468e-22)
(0.785945 -0.202422 9.81321e-22)
(0.776759 -0.278614 -2.4026e-22)
(0.77171 -0.315477 -4.30719e-22)
(0.769182 -0.256082 -1.10202e-22)
(0.770704 -0.145507 6.72015e-23)
(0.765398 -0.00894593 -4.73799e-23)
(0.765678 0.164199 1.02234e-22)
(0.759339 0.22926 -6.03733e-24)
(0.766148 0.300025 -3.18487e-22)
(0.758463 0.22113 1.20382e-22)
(0.750977 0.0956131 2.68849e-22)
(0.734403 0.00172999 -2.21008e-22)
(0.71176 -0.219802 -3.15854e-22)
(0.710207 -0.166187 3.63742e-23)
(0.783743 0.0116603 7.64186e-23)
(0.802055 0.145903 -1.96438e-22)
(0.807235 0.255637 3.98451e-23)
(0.801434 0.334064 2.61623e-22)
(0.788767 0.351631 1.41629e-22)
(0.780418 0.309327 3.54537e-22)
(0.776134 0.205971 6.29844e-22)
(0.782487 0.069771 -6.18226e-23)
(0.78816 -0.0670169 3.69082e-22)
(0.786874 -0.201791 -2.18032e-22)
(0.77745 -0.278073 2.55011e-22)
(0.77188 -0.315306 1.80871e-22)
(0.769303 -0.256278 -2.73436e-22)
(0.770941 -0.145698 5.5821e-24)
(0.765954 -0.00915862 -5.51787e-23)
(0.766836 0.164116 -1.5933e-22)
(0.760754 0.229134 7.50213e-23)
(0.768011 0.300037 -1.32876e-22)
(0.760133 0.221569 -9.36613e-23)
(0.752247 0.0962271 -7.50568e-23)
(0.735679 0.00263159 5.55124e-23)
(0.711593 -0.219231 1.44416e-22)
(0.710519 -0.166176 -3.96976e-23)
(0.784845 0.00967057 -3.19866e-22)
(0.802955 0.144425 -1.17143e-22)
(0.808054 0.255091 1.86222e-22)
(0.802367 0.334326 -2.7457e-22)
(0.789646 0.352302 6.35225e-23)
(0.781047 0.310048 7.27927e-23)
(0.776482 0.206476 -1.52323e-21)
(0.78293 0.0700263 4.98822e-23)
(0.789052 -0.0666055 -8.52149e-22)
(0.787889 -0.201126 -5.33689e-22)
(0.77823 -0.277497 2.13938e-22)
(0.772124 -0.315122 -1.23308e-22)
(0.769481 -0.256495 1.99878e-22)
(0.771237 -0.145925 3.19348e-23)
(0.766576 -0.0094212 -1.7679e-22)
(0.768064 0.163994 1.37617e-22)
(0.762237 0.228983 -5.62011e-23)
(0.769935 0.300041 3.83261e-22)
(0.761871 0.22203 -9.21649e-23)
(0.753594 0.096856 1.22934e-23)
(0.73705 0.00356974 4.09085e-23)
(0.711525 -0.218635 7.52153e-23)
(0.710906 -0.166175 1.35535e-23)
(0.785996 0.00761957 5.44427e-22)
(0.80392 0.14289 2.01909e-22)
(0.808956 0.254492 -8.34372e-23)
(0.80339 0.334558 1.23247e-22)
(0.790608 0.352983 6.6637e-22)
(0.781749 0.310813 -7.787e-22)
(0.776888 0.207032 1.11486e-21)
(0.783422 0.0703154 -2.97016e-23)
(0.790007 -0.0661666 6.13598e-22)
(0.78899 -0.200428 5.31861e-22)
(0.7791 -0.276887 -4.04321e-22)
(0.772441 -0.314923 -1.06189e-22)
(0.769718 -0.256731 -6.43668e-23)
(0.771593 -0.146188 -2.7416e-22)
(0.767263 -0.00973382 1.30015e-22)
(0.769362 0.163832 -4.0866e-23)
(0.763788 0.228807 4.25777e-23)
(0.771918 0.300039 -2.56527e-23)
(0.763679 0.222513 -3.31098e-23)
(0.755017 0.0974994 -2.35054e-22)
(0.738515 0.00454391 -4.18801e-22)
(0.711556 -0.218014 -3.32007e-23)
(0.71137 -0.166185 -6.2762e-24)
(0.787191 0.00550741 -8.39813e-23)
(0.804946 0.141295 -1.97371e-22)
(0.809941 0.25384 -1.29553e-22)
(0.804501 0.33476 -7.70696e-22)
(0.791654 0.353677 -9.67968e-23)
(0.782522 0.311622 1.64551e-22)
(0.777352 0.207641 -1.56828e-21)
(0.783964 0.0706382 2.2976e-22)
(0.791026 -0.0657016 9.84493e-23)
(0.790177 -0.199697 3.57085e-22)
(0.78006 -0.27624 1.38095e-23)
(0.772832 -0.31471 3.34398e-22)
(0.770013 -0.256987 1.45729e-22)
(0.772008 -0.146485 2.85599e-22)
(0.768014 -0.0100966 -1.02828e-22)
(0.770729 0.16363 -5.51552e-23)
(0.765406 0.228607 -1.28205e-22)
(0.773959 0.300029 5.85335e-23)
(0.765554 0.223016 4.8448e-22)
(0.756515 0.0981564 7.04266e-22)
(0.740075 0.00555357 2.56039e-22)
(0.711688 -0.217368 -2.37263e-22)
(0.71191 -0.166203 -1.07821e-24)
(0.78843 0.00333416 1.44606e-22)
(0.806033 0.139639 5.7119e-22)
(0.811005 0.253131 -1.17116e-22)
(0.8057 0.334932 3.826e-22)
(0.792785 0.354381 3.31472e-22)
(0.78337 0.312476 4.04808e-22)
(0.777877 0.208304 1.01496e-21)
(0.784555 0.0709945 2.08015e-23)
(0.792106 -0.0652117 2.81007e-22)
(0.791448 -0.198936 -4.89664e-22)
(0.781111 -0.275559 4.66443e-22)
(0.773297 -0.31448 -4.47331e-22)
(0.770366 -0.257261 8.4676e-24)
(0.772482 -0.146819 -1.59562e-22)
(0.768828 -0.0105095 8.40122e-23)
(0.772161 0.163389 -5.76472e-24)
(0.767088 0.228383 1.07415e-22)
(0.776055 0.300012 -1.01636e-22)
(0.767495 0.223539 -3.62592e-22)
(0.758087 0.0988263 -7.39947e-22)
(0.741729 0.00659767 5.57219e-22)
(0.711922 -0.216697 3.6658e-22)
(0.712526 -0.166231 8.24039e-23)
(0.789708 0.00109999 2.60431e-23)
(0.807177 0.137921 -2.67903e-22)
(0.812147 0.252365 6.06712e-22)
(0.806984 0.335073 -2.88763e-22)
(0.794 0.355096 -1.79832e-22)
(0.784292 0.313375 -4.5122e-23)
(0.778463 0.209019 -1.31366e-21)
(0.785196 0.0713843 1.38e-21)
(0.793247 -0.0646981 -8.58955e-22)
(0.792804 -0.198145 3.97973e-22)
(0.782252 -0.274841 -2.91132e-22)
(0.773837 -0.314233 1.9887e-22)
(0.770776 -0.257553 -1.12781e-22)
(0.773014 -0.147187 9.15153e-23)
(0.769703 -0.0109723 -1.90321e-23)
(0.77366 0.163108 3.52676e-23)
(0.768834 0.228135 -1.23518e-22)
(0.778207 0.299987 -2.04484e-22)
(0.769503 0.224081 1.73998e-22)
(0.759733 0.0995085 8.56099e-22)
(0.743477 0.00767546 -8.52298e-22)
(0.712258 -0.216 -3.90271e-22)
(0.713217 -0.166268 1.42004e-23)
(0.791024 -0.00119224 3.24489e-22)
(0.808376 0.13614 -4.90992e-23)
(0.813365 0.251541 5.05414e-23)
(0.808354 0.335181 2.1969e-22)
(0.7953 0.355821 -5.17196e-22)
(0.785292 0.314318 4.66602e-22)
(0.779112 0.209789 1.54634e-21)
(0.785887 0.0718076 -1.72614e-21)
(0.794447 -0.064162 8.03312e-23)
(0.794244 -0.197325 -5.09743e-22)
(0.783483 -0.274088 -5.88852e-22)
(0.774452 -0.313967 2.74286e-22)
(0.771243 -0.257862 2.31709e-22)
(0.773603 -0.147591 -8.34475e-23)
(0.770639 -0.0114852 5.77816e-24)
(0.775222 0.162787 -6.35063e-23)
(0.770642 0.227864 -2.22371e-23)
(0.780412 0.299955 4.83914e-23)
(0.771576 0.224642 -5.94585e-22)
(0.761452 0.100202 -4.11735e-22)
(0.745317 0.00878656 6.20977e-23)
(0.712698 -0.215277 6.34737e-22)
(0.713984 -0.166312 -5.17044e-23)
(0.792373 -0.00353889 2.17827e-24)
(0.809627 0.134294 -3.54382e-22)
(0.814657 0.250656 -3.87447e-22)
(0.809806 0.335255 4.33229e-22)
(0.796686 0.356555 1.72219e-22)
(0.786368 0.315307 5.42268e-23)
(0.779824 0.210613 -1.15144e-21)
(0.786628 0.0722644 8.69186e-22)
(0.795705 -0.0636046 7.28085e-22)
(0.795765 -0.196477 -3.20961e-22)
(0.784806 -0.273298 2.5891e-22)
(0.775141 -0.313682 -1.15258e-22)
(0.771767 -0.258187 -4.20555e-22)
(0.77425 -0.148029 1.18513e-22)
(0.771633 -0.0120477 -1.50043e-23)
(0.776846 0.162427 5.3318e-23)
(0.772511 0.22757 8.09565e-23)
(0.782668 0.299914 -3.27031e-23)
(0.773714 0.225222 3.50565e-22)
(0.763243 0.100907 -2.03175e-22)
(0.74725 0.00993008 2.90766e-22)
(0.713243 -0.214528 -8.08214e-22)
(0.714825 -0.166363 2.06965e-23)
(0.793755 -0.00595357 -9.99167e-23)
(0.810928 0.132382 -2.8412e-23)
(0.816019 0.24971 1.20042e-22)
(0.811341 0.335294 -1.05015e-22)
(0.798156 0.357299 -6.71263e-22)
(0.787524 0.31634 9.83352e-23)
(0.780601 0.211493 -4.2997e-22)
(0.787419 0.0727549 -4.07552e-22)
(0.797019 -0.0630271 -6.37661e-22)
(0.797367 -0.195603 -4.17615e-23)
(0.786218 -0.272473 1.15721e-22)
(0.775906 -0.313376 -1.98389e-22)
(0.772347 -0.258527 2.45429e-22)
(0.774953 -0.148502 2.04302e-23)
(0.772685 -0.0126593 -2.67293e-23)
(0.778531 0.162028 -6.82348e-23)
(0.774439 0.227253 2.81736e-23)
(0.784975 0.299866 -1.87857e-22)
(0.775914 0.225819 9.75738e-22)
(0.765106 0.101621 2.57722e-22)
(0.749275 0.0111052 -2.17333e-22)
(0.713894 -0.213752 8.55696e-22)
(0.715742 -0.166422 6.68094e-23)
(0.795165 -0.00843646 -2.55137e-22)
(0.812275 0.130402 4.49192e-22)
(0.817449 0.248701 8.74697e-25)
(0.812955 0.335296 -6.04627e-22)
(0.799712 0.358049 3.66666e-22)
(0.78876 0.317418 -1.60216e-21)
(0.781444 0.212428 8.20831e-22)
(0.78826 0.0732794 1.10876e-21)
(0.798389 -0.0624304 1.47544e-23)
(0.799049 -0.194704 1.0463e-21)
(0.787722 -0.271611 1.32584e-22)
(0.776747 -0.313049 2.35123e-23)
(0.772982 -0.258882 8.5074e-23)
(0.775712 -0.149008 -7.88016e-23)
(0.773793 -0.0133202 3.11488e-23)
(0.780275 0.161589 3.36369e-23)
(0.776424 0.226913 -2.85843e-25)
(0.78733 0.299809 1.08989e-22)
(0.778176 0.226433 1.32546e-22)
(0.767038 0.102345 -4.23321e-22)
(0.751391 0.0123109 -1.59672e-22)
(0.714651 -0.21295 -4.3561e-22)
(0.716734 -0.166485 -1.22385e-22)
(0.7966 -0.0109747 4.86402e-22)
(0.813667 0.128354 -2.76462e-22)
(0.818946 0.247626 3.2468e-22)
(0.814649 0.335261 6.1763e-23)
(0.801352 0.358807 1.81896e-22)
(0.790077 0.318541 1.42396e-21)
(0.782355 0.21342 1.56141e-22)
(0.789152 0.073838 -1.16493e-21)
(0.799812 -0.0618157 -6.30487e-22)
(0.80081 -0.193781 5.06663e-23)
(0.789315 -0.270713 3.94291e-23)
(0.777663 -0.312698 3.44497e-22)
(0.773673 -0.25925 -1.64992e-22)
(0.776527 -0.149549 -1.48384e-22)
(0.774956 -0.0140302 -9.38727e-24)
(0.782076 0.161111 -6.33334e-24)
(0.778466 0.226551 -1.66353e-22)
(0.789733 0.299744 -9.89423e-24)
(0.7805 0.227064 -1.32149e-21)
(0.769039 0.103078 1.0486e-21)
(0.753597 0.0135463 -2.50335e-22)
(0.715516 -0.21212 3.55329e-22)
(0.717799 -0.166555 -9.63003e-23)
(0.798059 -0.0135704 -7.78777e-23)
(0.815099 0.126237 -6.11561e-23)
(0.820505 0.246485 -2.31244e-22)
(0.816419 0.335187 1.15241e-22)
(0.803078 0.359569 -3.85834e-22)
(0.791477 0.319707 -8.89732e-22)
(0.783335 0.214468 3.94587e-22)
(0.790094 0.0744313 1.40924e-21)
(0.801288 -0.0611839 7.2048e-22)
(0.802647 -0.192835 -1.79388e-22)
(0.790997 -0.26978 4.34951e-22)
(0.778654 -0.312324 -5.58656e-22)
(0.774418 -0.25963 2.47147e-22)
(0.777396 -0.150123 1.46194e-22)
(0.776173 -0.0147886 -1.34093e-23)
(0.783933 0.160595 7.79309e-24)
(0.780563 0.226167 2.5356e-23)
(0.792181 0.299671 -2.05862e-22)
(0.782883 0.22771 -5.84196e-23)
(0.771107 0.103818 -8.61255e-22)
(0.755892 0.0148102 3.9668e-22)
(0.716489 -0.211262 4.82553e-23)
(0.718939 -0.166628 9.18555e-23)
(0.799538 -0.016224 -3.38942e-22)
(0.816568 0.124049 -2.53666e-22)
(0.822124 0.245277 4.79049e-22)
(0.818264 0.335071 5.87923e-22)
(0.804888 0.360336 6.91203e-22)
(0.792959 0.320918 -3.27863e-22)
(0.784384 0.215574 -1.55577e-21)
(0.791088 0.0750596 -5.27836e-22)
(0.802816 -0.0605359 -1.0733e-21)
(0.80456 -0.191869 -1.77552e-22)
(0.792769 -0.268811 -5.47481e-22)
(0.779722 -0.311924 6.22658e-22)
(0.775217 -0.260021 9.24198e-23)
(0.77832 -0.150729 -8.37428e-23)
(0.777441 -0.0155958 -1.97656e-23)
(0.785844 0.160039 3.99155e-24)
(0.782713 0.225761 1.54906e-22)
(0.794672 0.299588 6.30229e-22)
(0.785324 0.228371 2.79924e-22)
(0.773243 0.104565 6.78675e-22)
(0.758275 0.0161018 7.85746e-22)
(0.717571 -0.210378 3.89705e-22)
(0.720153 -0.166705 1.14697e-23)
(0.801036 -0.0189347 -5.24935e-23)
(0.818073 0.12179 1.2062e-22)
(0.8238 0.243998 -3.00986e-22)
(0.820182 0.334912 -5.07213e-22)
(0.806781 0.361106 4.01897e-22)
(0.794526 0.322171 2.98425e-22)
(0.785505 0.216738 1.05856e-21)
(0.792134 0.0757235 2.21317e-22)
(0.804394 -0.0598725 1.11198e-21)
(0.806546 -0.190883 -6.57093e-22)
(0.79463 -0.267806 -5.09927e-22)
(0.780866 -0.311498 -1.03642e-22)
(0.776068 -0.260423 -3.30109e-22)
(0.779297 -0.151368 -2.53594e-23)
(0.778761 -0.0164514 3.1541e-23)
(0.787808 0.159445 -1.21048e-23)
(0.784915 0.225334 -8.21448e-23)
(0.797206 0.299497 -1.99878e-22)
(0.787822 0.229045 5.2748e-22)
(0.775443 0.105319 5.29455e-23)
(0.760744 0.01742 -5.19581e-22)
(0.718763 -0.209465 -1.20178e-21)
(0.721441 -0.166785 -8.979e-23)
(0.802549 -0.0217038 4.01723e-22)
(0.819609 0.119458 -2.73492e-22)
(0.82553 0.242649 -6.48579e-25)
(0.822171 0.334709 -7.54074e-24)
(0.808759 0.361877 1.56314e-22)
(0.796177 0.323467 2.85154e-22)
(0.786699 0.21796 -2.78726e-22)
(0.793233 0.0764236 -3.92291e-22)
(0.80602 -0.0591946 -2.15244e-22)
(0.808604 -0.189878 6.89899e-22)
(0.796578 -0.266766 1.92358e-22)
(0.782086 -0.311044 -7.66526e-22)
(0.776972 -0.260833 1.49614e-22)
(0.780327 -0.152038 -8.57078e-23)
(0.78013 -0.0173534 5.59417e-23)
(0.789823 0.158812 -2.79172e-23)
(0.787168 0.224886 -7.9838e-24)
(0.79978 0.299396 2.21098e-22)
(0.790376 0.229734 -2.15647e-22)
(0.777708 0.106078 -7.00434e-22)
(0.763298 0.0187638 7.05887e-22)
(0.720065 -0.208525 4.86353e-22)
(0.722802 -0.166868 6.19728e-25)
(0.804075 -0.0245303 -2.41959e-22)
(0.821173 0.117053 2.26836e-23)
(0.827311 0.241227 -4.6294e-23)
(0.824229 0.33446 1.60015e-22)
(0.810818 0.362647 -1.06801e-21)
(0.797914 0.324805 -1.12689e-21)
(0.787967 0.219241 2.0661e-22)
(0.794384 0.0771605 5.71403e-22)
(0.807695 -0.0585027 -1.12095e-21)
(0.810733 -0.188857 -6.61881e-22)
(0.798612 -0.265691 3.33603e-22)
(0.783382 -0.310562 4.8121e-22)
(0.777927 -0.261252 -8.23383e-23)
(0.781408 -0.15274 6.36531e-23)
(0.781548 -0.0183015 -5.77662e-23)
(0.791888 0.158141 4.02974e-23)
(0.78947 0.224416 4.08178e-23)
(0.802394 0.299286 -2.92337e-22)
(0.792984 0.230435 7.16303e-22)
(0.780036 0.106843 -1.01555e-21)
(0.765936 0.020132 6.61151e-23)
(0.721479 -0.207556 -6.26423e-22)
(0.724235 -0.166951 1.65544e-23)
(0.805614 -0.0274113 -2.46177e-22)
(0.822764 0.114575 1.36436e-22)
(0.82914 0.23973 -2.08472e-22)
(0.826353 0.334162 2.54366e-22)
(0.81296 0.363414 1.29929e-21)
(0.799737 0.326183 1.10454e-22)
(0.78931 0.220581 -1.43945e-21)
(0.79559 0.0779349 -5.61762e-22)
(0.809416 -0.0577975 1.56038e-21)
(0.812929 -0.18782 1.42225e-21)
(0.800733 -0.264582 7.17017e-22)
(0.784755 -0.31005 6.71537e-23)
(0.778933 -0.261677 -9.68903e-25)
(0.782541 -0.153472 2.37454e-23)
(0.783014 -0.0192962 -3.03215e-23)
(0.793999 0.157432 7.20265e-23)
(0.79182 0.223927 -1.40708e-23)
(0.805044 0.299167 8.72403e-23)
(0.795645 0.231148 -1.06887e-21)
(0.782425 0.107611 1.45704e-21)
(0.768656 0.0215233 -5.3573e-22)
(0.723004 -0.206559 6.80322e-22)
(0.725741 -0.167035 2.11784e-23)
(0.807162 -0.0303461 -1.6148e-22)
(0.824377 0.112022 -2.02012e-22)
(0.831013 0.238159 2.84625e-22)
(0.828541 0.333813 2.0887e-22)
(0.815182 0.364178 -5.70685e-22)
(0.801646 0.327601 -5.73555e-23)
(0.790729 0.221981 8.07639e-22)
(0.79685 0.0787477 1.34195e-22)
(0.811183 -0.0570796 -1.64145e-21)
(0.815192 -0.18677 -9.95439e-22)
(0.802938 -0.263439 1.59465e-22)
(0.786205 -0.309507 -5.58752e-22)
(0.779988 -0.262108 4.15795e-23)
(0.783723 -0.154234 5.45712e-23)
(0.784526 -0.020337 4.28729e-23)
(0.796158 0.156685 -3.00277e-23)
(0.794217 0.223417 -1.00023e-23)
(0.80773 0.299037 -7.71106e-23)
(0.798357 0.231872 2.90608e-22)
(0.784875 0.108382 -6.36971e-22)
(0.771457 0.0229367 1.22569e-22)
(0.724642 -0.205534 2.88721e-22)
(0.727319 -0.167119 -4.12078e-23)
(0.80872 -0.0333346 2.43708e-22)
(0.826012 0.109395 -6.30163e-23)
(0.832927 0.23651 -1.00601e-22)
(0.83079 0.333413 -1.7337e-23)
(0.817484 0.364935 4.30326e-22)
(0.803642 0.329058 4.16283e-23)
(0.792227 0.223441 3.26781e-22)
(0.798166 0.0795996 5.09758e-22)
(0.812994 -0.0563492 1.27298e-21)
(0.81752 -0.185707 -3.44712e-22)
(0.805227 -0.262263 -4.05627e-22)
(0.787731 -0.308932 4.02181e-22)
(0.781092 -0.262542 3.853e-23)
(0.784954 -0.155025 4.00347e-24)
(0.786084 -0.0214226 4.52156e-23)
(0.79836 0.1559 -1.00224e-22)
(0.796659 0.222887 1.67277e-23)
(0.81045 0.298898 -6.64666e-23)
(0.801119 0.232606 -3.04175e-22)
(0.787383 0.109156 1.62532e-22)
(0.774336 0.0243707 -4.67369e-22)
(0.726391 -0.204481 -5.54607e-22)
(0.728968 -0.167201 4.41301e-24)
(0.810285 -0.0363753 -5.56974e-23)
(0.827665 0.106693 4.50312e-23)
(0.834881 0.234783 -1.23327e-22)
(0.833099 0.332958 -2.7942e-22)
(0.819864 0.365683 -3.10978e-22)
(0.805725 0.330552 7.26662e-22)
(0.793804 0.22496 -1.03747e-21)
(0.799539 0.0804917 1.25658e-21)
(0.814849 -0.0556069 -3.80064e-22)
(0.819909 -0.184633 2.15569e-23)
(0.807598 -0.261055 6.69978e-24)
(0.789335 -0.308324 3.28903e-23)
(0.782244 -0.26298 9.97673e-23)
(0.786233 -0.155845 3.54329e-23)
(0.787687 -0.0225524 1.67061e-23)
(0.800607 0.155078 1.55238e-22)
(0.799145 0.222338 -2.59592e-24)
(0.813202 0.298749 1.77193e-22)
(0.803928 0.233351 4.82672e-22)
(0.789948 0.109933 -5.59057e-22)
(0.777292 0.0258242 -3.88644e-23)
(0.728254 -0.203399 2.99007e-22)
(0.730688 -0.167281 9.44635e-23)
(0.811858 -0.0394673 -7.33789e-23)
(0.829336 0.103917 -7.21609e-23)
(0.83687 0.232977 3.06286e-22)
(0.835464 0.332447 -3.50647e-23)
(0.82232 0.366421 -4.88054e-22)
(0.807894 0.332082 2.5352e-22)
(0.795461 0.22654 -2.60248e-22)
(0.80097 0.0814247 -1.59038e-21)
(0.816747 -0.0548527 6.76068e-23)
(0.822359 -0.183549 4.58427e-22)
(0.810049 -0.259815 2.1901e-24)
(0.791015 -0.307681 5.54167e-23)
(0.783444 -0.263418 -3.58239e-23)
(0.787557 -0.156692 -1.03948e-23)
(0.789334 -0.0237257 -2.2578e-22)
(0.802895 0.154219 -1.41507e-22)
(0.801674 0.22177 -2.30866e-23)
(0.815985 0.298589 4.6774e-23)
(0.806784 0.234104 1.73961e-22)
(0.792568 0.11071 8.98737e-22)
(0.780323 0.0272958 -3.80543e-22)
(0.73023 -0.202288 -1.49601e-22)
(0.732478 -0.167358 2.23703e-23)
(0.813436 -0.0426097 5.93102e-23)
(0.831026 0.101066 -6.84417e-23)
(0.838893 0.23109 -1.79281e-22)
(0.837883 0.331877 -1.94239e-22)
(0.824853 0.367145 -3.46594e-23)
(0.810151 0.333647 1.13157e-21)
(0.797201 0.228181 -3.03874e-22)
(0.80246 0.0823998 1.64901e-21)
(0.818687 -0.0540867 7.33296e-22)
(0.824867 -0.182456 2.15223e-22)
(0.81258 -0.258544 2.29578e-22)
(0.792772 -0.307004 -6.3581e-24)
(0.784691 -0.263857 5.73267e-23)
(0.788924 -0.157567 -4.71972e-23)
(0.791025 -0.0249421 1.96808e-22)
(0.805225 0.153323 1.79704e-22)
(0.804245 0.221183 -1.23241e-24)
(0.818798 0.298419 -3.795e-23)
(0.809684 0.234866 -6.28713e-24)
(0.795242 0.111488 5.67909e-23)
(0.783427 0.0287841 5.7735e-22)
(0.732318 -0.20115 1.92761e-22)
(0.734338 -0.16743 -7.03312e-23)
(0.815018 -0.0458019 3.414e-24)
(0.832733 0.0981396 -1.08316e-22)
(0.840949 0.229122 2.21581e-22)
(0.840353 0.331247 -1.53351e-22)
(0.827458 0.367855 2.18052e-22)
(0.812494 0.335244 -4.63164e-23)
(0.799024 0.229882 -1.09558e-21)
(0.804012 0.0834182 4.04361e-22)
(0.820668 -0.0533088 -1.17551e-21)
(0.82743 -0.181357 -1.21589e-21)
(0.815188 -0.257243 -4.53217e-22)
(0.794605 -0.306292 -4.33835e-22)
(0.785984 -0.264294 7.31713e-23)
(0.790333 -0.158468 3.06402e-24)
(0.79276 -0.0262011 -8.19014e-23)
(0.807595 0.15239 5.6914e-23)
(0.806857 0.220577 1.61368e-23)
(0.821638 0.298238 4.65831e-23)
(0.812628 0.235635 -1.44555e-22)
(0.797969 0.112265 -5.5363e-23)
(0.786602 0.0302878 -4.46759e-22)
(0.734519 -0.199982 6.14272e-23)
(0.736267 -0.167498 3.49151e-23)
(0.816604 -0.0490419 -1.7524e-23)
(0.834462 0.0951395 8.07226e-23)
(0.843037 0.227071 6.9667e-23)
(0.842874 0.330554 -4.35081e-23)
(0.830136 0.368546 1.86724e-22)
(0.814924 0.336873 -7.83141e-22)
(0.800932 0.231643 5.96472e-22)
(0.805626 0.0844805 -1.53104e-21)
(0.822689 -0.0525195 1.07715e-21)
(0.830047 -0.180253 1.08745e-21)
(0.817873 -0.255913 1.72754e-22)
(0.796514 -0.305542 2.82588e-22)
(0.787324 -0.264728 -3.83572e-23)
(0.791782 -0.159394 9.80227e-24)
(0.794539 -0.0275016 -9.66151e-23)
(0.810005 0.151422 -2.44135e-22)
(0.80951 0.219953 5.71067e-24)
(0.824505 0.298047 -1.63083e-22)
(0.815612 0.23641 -1.13119e-22)
(0.800745 0.113042 -2.05714e-22)
(0.789845 0.0318054 1.45328e-22)
(0.736832 -0.198787 1.92512e-22)
(0.738264 -0.16756 -8.20831e-24)
(0.81819 -0.0523241 -1.47743e-23)
(0.836215 0.092069 -1.88573e-23)
(0.845159 0.224939 -4.44771e-23)
(0.845444 0.329797 -2.92557e-23)
(0.832885 0.369217 -1.27436e-23)
(0.81744 0.33853 -2.34083e-23)
(0.802927 0.233462 3.40241e-22)
(0.807305 0.0855853 3.80735e-22)
(0.824751 -0.0517201 3.54622e-22)
(0.832716 -0.179144 2.58219e-23)
(0.820632 -0.254555 -4.93468e-22)
(0.798499 -0.304753 9.93149e-24)
(0.788709 -0.265155 -2.03282e-23)
(0.793267 -0.160343 6.1305e-24)
(0.79636 -0.0288414 1.207e-22)
(0.812455 0.150418 1.45091e-22)
(0.812204 0.219312 -7.97017e-23)
(0.827398 0.297845 7.88582e-23)
(0.818636 0.237192 6.30815e-23)
(0.803571 0.113817 -5.64007e-23)
(0.793156 0.0333352 -3.13899e-22)
(0.739257 -0.197563 -6.6789e-22)
(0.740329 -0.167614 -3.42843e-23)
(0.819772 -0.0556483 -4.65509e-24)
(0.837997 0.0889297 -8.96663e-24)
(0.847321 0.222728 5.22042e-23)
(0.848065 0.328976 -2.14983e-22)
(0.835705 0.369863 4.80699e-22)
(0.820043 0.34021 2.01882e-22)
(0.805011 0.235335 -8.66942e-22)
(0.809051 0.0867337 4.85031e-22)
(0.826853 -0.0509082 -1.19519e-21)
(0.835433 -0.17803 -1.95431e-22)
(0.823463 -0.253167 -6.13951e-22)
(0.80056 -0.303924 4.26594e-22)
(0.79014 -0.265575 3.82741e-23)
(0.794786 -0.161316 -2.51406e-23)
(0.798225 -0.0302204 -3.67313e-23)
(0.814947 0.149379 -2.99961e-23)
(0.814941 0.218653 3.00024e-23)
(0.830317 0.297631 -9.66736e-23)
(0.821699 0.237978 -1.25755e-22)
(0.806442 0.114589 -1.59579e-22)
(0.796531 0.034876 5.29756e-22)
(0.741793 -0.19631 5.20582e-22)
(0.742461 -0.167661 4.58051e-23)
(0.821346 -0.059057 -4.2898e-23)
(0.839817 0.0856873 5.53835e-23)
(0.849533 0.220417 -5.3471e-23)
(0.850742 0.32808 -9.45553e-23)
(0.838596 0.370485 2.59692e-22)
(0.822732 0.341923 -4.78933e-22)
(0.807187 0.237285 3.9075e-22)
(0.810868 0.0879525 5.72433e-22)
(0.828995 -0.0500649 -1.87214e-22)
(0.838197 -0.176906 4.25053e-22)
(0.826365 -0.251753 3.12263e-22)
(0.802695 -0.303064 -3.24557e-22)
(0.791616 -0.266 -7.87168e-23)
(0.796336 -0.162328 -8.63696e-24)
(0.800131 -0.0316539 1.06675e-23)
(0.817482 0.148299 3.03172e-23)
(0.817722 0.217976 -3.77997e-23)
(0.833262 0.297409 1.96688e-23)
(0.824797 0.238771 2.45052e-22)
(0.809357 0.115362 -1.37374e-22)
(0.79997 0.0364292 4.61567e-23)
(0.74444 -0.195031 -2.6179e-22)
(0.744659 -0.167698 3.64366e-24)
(0.822906 -0.06261 -3.42143e-23)
(0.841682 0.0822767 -1.68812e-23)
(0.851813 0.217955 1.02685e-22)
(0.853488 0.327093 -1.96323e-22)
(0.841563 0.371103 -2.65874e-22)
(0.825511 0.343721 5.40479e-22)
(0.809459 0.239373 -1.00579e-22)
(0.812758 0.0892867 -4.37913e-22)
(0.831177 -0.0491774 2.82583e-23)
(0.841006 -0.175785 -1.15212e-22)
(0.829334 -0.250331 3.92418e-22)
(0.804903 -0.302192 9.85903e-23)
(0.793136 -0.266443 -3.03418e-23)
(0.797916 -0.163396 2.86367e-23)
(0.80208 -0.033163 -4.80804e-24)
(0.820064 0.147166 7.41556e-24)
(0.820551 0.217276 1.72297e-23)