/*--------------------------------*- C++ -*----------------------------------*\
  =========                 |
  \\      /  F ield         | OpenFOAM: The Open Source CFD Toolbox
   \\    /   O peration     | Website:  https://openfoam.org
    \\  /    A nd           | Version:  7
     \\/     M anipulation  |
\*---------------------------------------------------------------------------*/
FoamFile
{
    version     2.0;
    format      ascii;
    class       volScalarField;
    location    "260";
    object      p;
}
// * * * * * * * * * * * * * * * * * * * * * * * * * * * * * * * * * * * * * //

dimensions      [0 2 -2 0 0 0 0];

internalField   nonuniform List<scalar> 
20050
(
-0.401537
-0.402982
-0.403677
-0.404335
-0.405225
-0.406553
-0.408462
-0.411023
-0.414269
-0.418221
-0.422896
-0.428316
-0.434501
-0.441432
-0.449061
-0.407631
-0.40879
-0.409395
-0.410042
-0.411003
-0.412493
-0.414663
-0.417594
-0.421326
-0.425893
-0.431323
-0.437651
-0.444913
-0.453111
-0.462173
-0.413668
-0.414523
-0.415028
-0.415654
-0.416673
-0.418311
-0.420725
-0.424002
-0.428192
-0.433336
-0.439475
-0.446651
-0.454914
-0.464278
-0.474633
-0.419609
-0.420144
-0.420538
-0.42113
-0.422194
-0.423962
-0.426596
-0.430191
-0.434803
-0.44048
-0.447269
-0.455221
-0.464395
-0.474809
-0.486295
-0.425412
-0.425616
-0.42589
-0.426435
-0.427525
-0.429401
-0.432228
-0.436106
-0.441097
-0.447254
-0.454629
-0.463276
-0.473258
-0.484594
-0.497029
-0.431038
-0.430905
-0.431049
-0.431533
-0.432631
-0.434589
-0.437576
-0.441697
-0.44702
-0.453598
-0.461487
-0.470738
-0.481418
-0.493541
-0.506734
-0.436452
-0.435981
-0.435986
-0.436394
-0.437477
-0.439488
-0.4426
-0.446921
-0.452521
-0.459457
-0.467781
-0.477542
-0.488802
-0.501582
-0.515328
-0.441621
-0.440816
-0.440674
-0.440991
-0.442037
-0.44407
-0.447265
-0.451738
-0.457559
-0.464783
-0.473462
-0.483636
-0.495357
-0.508658
-0.522768
-0.446518
-0.445387
-0.445092
-0.445303
-0.446287
-0.448307
-0.451545
-0.456117
-0.462098
-0.469542
-0.478493
-0.488981
-0.501049
-0.51473
-0.529046
-0.45112
-0.449676
-0.449223
-0.449314
-0.45021
-0.452183
-0.455417
-0.460036
-0.466115
-0.473705
-0.482846
-0.493554
-0.505854
-0.5198
-0.534145
-0.455408
-0.453671
-0.453058
-0.453013
-0.453797
-0.455686
-0.45887
-0.463479
-0.469592
-0.477258
-0.486507
-0.497344
-0.509766
-0.523869
-0.538068
-0.459371
-0.457364
-0.45659
-0.456397
-0.457043
-0.45881
-0.461898
-0.466442
-0.472526
-0.480195
-0.489475
-0.500352
-0.512794
-0.526956
-0.54084
-0.463002
-0.460754
-0.45982
-0.459468
-0.45995
-0.461561
-0.464504
-0.468927
-0.474918
-0.482522
-0.491757
-0.502595
-0.514959
-0.529096
-0.542506
-0.466301
-0.463844
-0.462755
-0.462232
-0.462529
-0.463946
-0.466699
-0.470946
-0.476783
-0.484255
-0.493373
-0.504099
-0.516297
-0.530341
-0.543123
-0.469275
-0.466644
-0.465406
-0.464705
-0.464795
-0.465984
-0.468502
-0.47252
-0.478143
-0.485421
-0.494356
-0.504903
-0.516854
-0.530752
-0.542761
-0.471935
-0.469169
-0.467789
-0.466903
-0.466767
-0.467698
-0.469939
-0.473678
-0.479032
-0.486055
-0.494745
-0.505055
-0.516686
-0.530403
-0.541493
-0.4743
-0.471438
-0.469925
-0.468851
-0.468472
-0.469116
-0.471042
-0.474455
-0.479489
-0.486204
-0.494594
-0.504614
-0.515858
-0.529374
-0.539398
-0.476392
-0.473475
-0.471839
-0.470574
-0.46994
-0.470272
-0.471849
-0.474897
-0.479565
-0.485922
-0.493963
-0.50365
-0.514444
-0.52775
-0.536551
-0.47824
-0.475307
-0.47356
-0.472105
-0.471204
-0.471206
-0.472406
-0.475052
-0.479314
-0.485273
-0.492921
-0.502237
-0.512526
-0.525621
-0.533032
-0.479877
-0.476966
-0.475119
-0.473476
-0.472302
-0.471957
-0.472758
-0.474976
-0.4788
-0.484327
-0.491547
-0.500461
-0.510193
-0.523081
-0.528925
-0.481343
-0.478487
-0.476551
-0.474723
-0.473273
-0.472572
-0.472959
-0.474728
-0.478091
-0.48316
-0.489923
-0.498409
-0.50754
-0.520216
-0.524339
-0.482677
-0.479907
-0.477892
-0.475883
-0.474157
-0.473097
-0.473062
-0.474371
-0.477258
-0.48185
-0.488138
-0.496172
-0.504663
-0.517099
-0.519428
-0.483928
-0.481267
-0.479182
-0.476997
-0.474998
-0.47358
-0.473122
-0.473967
-0.476373
-0.480481
-0.486278
-0.493837
-0.501663
-0.513792
-0.51423
-0.485143
-0.482608
-0.480459
-0.478103
-0.475838
-0.474068
-0.473194
-0.473582
-0.475509
-0.479131
-0.484432
-0.491487
-0.498636
-0.510335
-0.508854
-0.486374
-0.483974
-0.481765
-0.479245
-0.476721
-0.474612
-0.473335
-0.473278
-0.474737
-0.477876
-0.482679
-0.489194
-0.495671
-0.506762
-0.50358
-0.487674
-0.485408
-0.483141
-0.480461
-0.47769
-0.475257
-0.473597
-0.473115
-0.474121
-0.476785
-0.481091
-0.487018
-0.49284
-0.503062
-0.498457
-0.489097
-0.486955
-0.484627
-0.481793
-0.478788
-0.476051
-0.474031
-0.473146
-0.473719
-0.475918
-0.479721
-0.485001
-0.49019
-0.4992
-0.493525
-0.490696
-0.488658
-0.486265
-0.483281
-0.480055
-0.477034
-0.47468
-0.47342
-0.473581
-0.47532
-0.478611
-0.483168
-0.48774
-0.495112
-0.488715
-0.492519
-0.490558
-0.488091
-0.48496
-0.481527
-0.478246
-0.475585
-0.473976
-0.473742
-0.475022
-0.477779
-0.481541
-0.485497
-0.490718
-0.483878
-0.494615
-0.492692
-0.490141
-0.486864
-0.483237
-0.479718
-0.476776
-0.474841
-0.474225
-0.475038
-0.477224
-0.480129
-0.483445
-0.486066
-0.479504
-0.497024
-0.495094
-0.492445
-0.489022
-0.485212
-0.481475
-0.478276
-0.476033
-0.475038
-0.475366
-0.476925
-0.478919
-0.481485
-0.481491
-0.47781
-0.499782
-0.497795
-0.495031
-0.491459
-0.487474
-0.483535
-0.480096
-0.477556
-0.476177
-0.475986
-0.476846
-0.477863
-0.479408
-0.477338
-0.480085
-0.502918
-0.500818
-0.49792
-0.494193
-0.490038
-0.485908
-0.48224
-0.479405
-0.477624
-0.47687
-0.476943
-0.476902
-0.477148
-0.473422
-0.474981
-0.506452
-0.504182
-0.501128
-0.497237
-0.492912
-0.488597
-0.484703
-0.481564
-0.479351
-0.477975
-0.477168
-0.475969
-0.474703
-0.469336
-0.468292
-0.510399
-0.507901
-0.504667
-0.500599
-0.496101
-0.491599
-0.487474
-0.484012
-0.481325
-0.479256
-0.477471
-0.475012
-0.4721
-0.465099
-0.461384
-0.514767
-0.511982
-0.508543
-0.504284
-0.499603
-0.494907
-0.490537
-0.486722
-0.483507
-0.480665
-0.477802
-0.473988
-0.469357
-0.460754
-0.454473
-0.519557
-0.51643
-0.512761
-0.508293
-0.503416
-0.498512
-0.493873
-0.489664
-0.485854
-0.482152
-0.478117
-0.472867
-0.466491
-0.456325
-0.447755
-0.524768
-0.521247
-0.517322
-0.512625
-0.507534
-0.502402
-0.497461
-0.492806
-0.488327
-0.483672
-0.478373
-0.471625
-0.463515
-0.451847
-0.441273
-0.530393
-0.52643
-0.522225
-0.517278
-0.511953
-0.506565
-0.501281
-0.496116
-0.490883
-0.48518
-0.478535
-0.470246
-0.460439
-0.447343
-0.43504
-0.536424
-0.531976
-0.527467
-0.522249
-0.516667
-0.510989
-0.505311
-0.499562
-0.493481
-0.486635
-0.478571
-0.46872
-0.457272
-0.442835
-0.429039
-0.542851
-0.53788
-0.533047
-0.527537
-0.521669
-0.515663
-0.509529
-0.503111
-0.496082
-0.487997
-0.478457
-0.467039
-0.454021
-0.438333
-0.423247
-0.549662
-0.544136
-0.53896
-0.533137
-0.526954
-0.520571
-0.51391
-0.506728
-0.498646
-0.489233
-0.478171
-0.4652
-0.450689
-0.433844
-0.417634
-0.556845
-0.550736
-0.545201
-0.539045
-0.532514
-0.525698
-0.518426
-0.510376
-0.501134
-0.490311
-0.477696
-0.463199
-0.44728
-0.429365
-0.412169
-0.564383
-0.55767
-0.551764
-0.545254
-0.538336
-0.531024
-0.523048
-0.514017
-0.503508
-0.491201
-0.477018
-0.461035
-0.44379
-0.424892
-0.406819
-0.57226
-0.564926
-0.558639
-0.551754
-0.544406
-0.536523
-0.52774
-0.51761
-0.505728
-0.491878
-0.476125
-0.458706
-0.440218
-0.420413
-0.401554
-0.580456
-0.572488
-0.565811
-0.55853
-0.550702
-0.542164
-0.532461
-0.521111
-0.507759
-0.492318
-0.475007
-0.456207
-0.436556
-0.415916
-0.396344
-0.588945
-0.580335
-0.573264
-0.565561
-0.557196
-0.54791
-0.537166
-0.524475
-0.509564
-0.492499
-0.473654
-0.453533
-0.432795
-0.411386
-0.39116
-0.597697
-0.588444
-0.580972
-0.572819
-0.563853
-0.553715
-0.541804
-0.527653
-0.511108
-0.492401
-0.472056
-0.450677
-0.428923
-0.406803
-0.385974
-0.606678
-0.596782
-0.588906
-0.58027
-0.57063
-0.559528
-0.546321
-0.530599
-0.512357
-0.492005
-0.470202
-0.447628
-0.424926
-0.402148
-0.380758
-0.615845
-0.605314
-0.597028
-0.587872
-0.577475
-0.56529
-0.550658
-0.533263
-0.513278
-0.491291
-0.468079
-0.444374
-0.420788
-0.397401
-0.375487
-0.625149
-0.613994
-0.605293
-0.595573
-0.584328
-0.570937
-0.554753
-0.535598
-0.51384
-0.490239
-0.465674
-0.440902
-0.416491
-0.39254
-0.370134
-0.634535
-0.622772
-0.613647
-0.603313
-0.591124
-0.576398
-0.558545
-0.537556
-0.51401
-0.488831
-0.462971
-0.437195
-0.412016
-0.387542
-0.364675
-0.643939
-0.631589
-0.622031
-0.611026
-0.597788
-0.581601
-0.56197
-0.53909
-0.513759
-0.487046
-0.459954
-0.433236
-0.407342
-0.382385
-0.359085
-0.653292
-0.64038
-0.630376
-0.618637
-0.60424
-0.586469
-0.564964
-0.540156
-0.513058
-0.484863
-0.456604
-0.429004
-0.402449
-0.377046
-0.353342
-0.662516
-0.649071
-0.638605
-0.626063
-0.610396
-0.590923
-0.567465
-0.540709
-0.511875
-0.48226
-0.452902
-0.42448
-0.397314
-0.371503
-0.347423
-0.671528
-0.657583
-0.646635
-0.633216
-0.616168
-0.594885
-0.569413
-0.540707
-0.510183
-0.479214
-0.448827
-0.419643
-0.391916
-0.365734
-0.341307
-0.68024
-0.665831
-0.654377
-0.640004
-0.621466
-0.598277
-0.570748
-0.540109
-0.507953
-0.475703
-0.444357
-0.41447
-0.386232
-0.359717
-0.334973
-0.688557
-0.673722
-0.661737
-0.646329
-0.626196
-0.601023
-0.571415
-0.538877
-0.505156
-0.471704
-0.439469
-0.408941
-0.380242
-0.35343
-0.328401
-0.696381
-0.681161
-0.668616
-0.652091
-0.630269
-0.603049
-0.571359
-0.536973
-0.501766
-0.467192
-0.434144
-0.403033
-0.373923
-0.346854
-0.321573
-0.703611
-0.688049
-0.674911
-0.657192
-0.633594
-0.604284
-0.57053
-0.534362
-0.497754
-0.462146
-0.428357
-0.396725
-0.367257
-0.339969
-0.314472
-0.710144
-0.694282
-0.680519
-0.661528
-0.636085
-0.604662
-0.568882
-0.531011
-0.493096
-0.456541
-0.422087
-0.389996
-0.360223
-0.332757
-0.307082
-0.715875
-0.699759
-0.685336
-0.665004
-0.637657
-0.60412
-0.566371
-0.526888
-0.487767
-0.450355
-0.415314
-0.382827
-0.352804
-0.325203
-0.29939
-0.720702
-0.704375
-0.689257
-0.667521
-0.638233
-0.6026
-0.562957
-0.521965
-0.481742
-0.443569
-0.408018
-0.3752
-0.344981
-0.317289
-0.291383
-0.72452
-0.708026
-0.692182
-0.668988
-0.637739
-0.600051
-0.558603
-0.516216
-0.475001
-0.436161
-0.40018
-0.367097
-0.33674
-0.309002
-0.283048
-0.727229
-0.710613
-0.694011
-0.669319
-0.636108
-0.596425
-0.553279
-0.509616
-0.467524
-0.428114
-0.391784
-0.358503
-0.328066
-0.300329
-0.274374
-0.728734
-0.712038
-0.694652
-0.668433
-0.63328
-0.591682
-0.546955
-0.502145
-0.459291
-0.419411
-0.382813
-0.349403
-0.318946
-0.29126
-0.265353
-0.728944
-0.712209
-0.694017
-0.666258
-0.6292
-0.585785
-0.539609
-0.493785
-0.450289
-0.410038
-0.373255
-0.339786
-0.30937
-0.281787
-0.255991
-0.727771
-0.71104
-0.692026
-0.662726
-0.623824
-0.578705
-0.53122
-0.484521
-0.440504
-0.399983
-0.363098
-0.32964
-0.299323
-0.271905
-0.246295
-0.725138
-0.70845
-0.688605
-0.657783
-0.617113
-0.570418
-0.521774
-0.474341
-0.429926
-0.389236
-0.352334
-0.318956
-0.288797
-0.261598
-0.236233
-0.720974
-0.704367
-0.683691
-0.651378
-0.609035
-0.560908
-0.511259
-0.463238
-0.418547
-0.377791
-0.340956
-0.307729
-0.277792
-0.250857
-0.225686
-0.715215
-0.698728
-0.677227
-0.643472
-0.599569
-0.550161
-0.49967
-0.451206
-0.406363
-0.365644
-0.328962
-0.29596
-0.26632
-0.239698
-0.214559
-0.707808
-0.691478
-0.669168
-0.634037
-0.588699
-0.538174
-0.487005
-0.438246
-0.393375
-0.352794
-0.31635
-0.283649
-0.254382
-0.228144
-0.203086
-0.69871
-0.682572
-0.65948
-0.623049
-0.576417
-0.524945
-0.473267
-0.424359
-0.379583
-0.339243
-0.303122
-0.270797
-0.241957
-0.21609
-0.191465
-0.687884
-0.671976
-0.648135
-0.610499
-0.562724
-0.51048
-0.458462
-0.409554
-0.364993
-0.324994
-0.289283
-0.257413
-0.229072
-0.203604
-0.179536
-0.675308
-0.659665
-0.63512
-0.596384
-0.547626
-0.494793
-0.442604
-0.393839
-0.349615
-0.310058
-0.274844
-0.243503
-0.215716
-0.190726
-0.167248
-0.660968
-0.645624
-0.620429
-0.58071
-0.531139
-0.477899
-0.425708
-0.37723
-0.333461
-0.294446
-0.259813
-0.229075
-0.201903
-0.177461
-0.154598
-0.64486
-0.629851
-0.604066
-0.563493
-0.513284
-0.459821
-0.407796
-0.359745
-0.316548
-0.278174
-0.244203
-0.21414
-0.187647
-0.163812
-0.141598
-0.626992
-0.612352
-0.586048
-0.544755
-0.494089
-0.440588
-0.388893
-0.341406
-0.298897
-0.261256
-0.228031
-0.198714
-0.172962
-0.149788
-0.128265
-0.607382
-0.593144
-0.566399
-0.524529
-0.473587
-0.420235
-0.369028
-0.32224
-0.280527
-0.243714
-0.211314
-0.182814
-0.157864
-0.1354
-0.114614
-0.586056
-0.572254
-0.545152
-0.502854
-0.451823
-0.398798
-0.348235
-0.302275
-0.261466
-0.225572
-0.194076
-0.16646
-0.142371
-0.120665
-0.100664
-0.563051
-0.549718
-0.522348
-0.47978
-0.428856
-0.376305
-0.326548
-0.281544
-0.241744
-0.206856
-0.176339
-0.149674
-0.126502
-0.105601
-0.0864341
-0.538413
-0.525583
-0.498039
-0.455371
-0.404741
-0.352794
-0.304006
-0.260083
-0.221392
-0.187596
-0.158132
-0.132482
-0.11028
-0.0902306
-0.0719448
-0.512193
-0.499905
-0.472292
-0.429697
-0.379434
-0.328381
-0.280663
-0.237933
-0.200447
-0.167823
-0.139482
-0.114911
-0.0937305
-0.0745765
-0.0572207
-0.484452
-0.472751
-0.445185
-0.402806
-0.353058
-0.303066
-0.256566
-0.215137
-0.178947
-0.147573
-0.120423
-0.0969891
-0.0768794
-0.0586646
-0.0422888
-0.45526
-0.444198
-0.41679
-0.374636
-0.325782
-0.276923
-0.231767
-0.191741
-0.156932
-0.126881
-0.100986
-0.0787481
-0.0597555
-0.0425233
-0.0271811
-0.424693
-0.414328
-0.387136
-0.34541
-0.297587
-0.250014
-0.20632
-0.167794
-0.134446
-0.105787
-0.0812088
-0.0602206
-0.0423886
-0.0261848
-0.0119393
-0.392829
-0.383232
-0.356235
-0.315273
-0.268554
-0.222405
-0.180284
-0.143346
-0.111535
-0.0843313
-0.0611266
-0.0414403
-0.0248098
-0.00968458
0.00338062
-0.359742
-0.350992
-0.324305
-0.284231
-0.238764
-0.194166
-0.153719
-0.118452
-0.0882444
-0.0625554
-0.0407776
-0.0224424
-0.00705012
0.00694491
0.018728
-0.325521
-0.317714
-0.291481
-0.252371
-0.208296
-0.165367
-0.126688
-0.0931666
-0.0646248
-0.0405029
-0.0202016
-0.00326361
0.0108635
0.0236865
0.0340775
-0.290393
-0.283447
-0.25782
-0.219788
-0.177235
-0.136081
-0.099255
-0.067547
-0.0407263
-0.0182186
0.0005604
0.016062
0.0289177
0.0405276
0.0493192
-0.254473
-0.248264
-0.223408
-0.186577
-0.145665
-0.106386
-0.0714876
-0.0416527
-0.0166011
0.00425096
0.0214682
0.0355134
0.0471223
0.0573963
0.0640092
-0.217776
-0.212341
-0.188347
-0.152837
-0.113674
-0.0763566
-0.0434544
-0.0155446
0.00769635
0.0268571
0.042484
0.0550846
0.0654881
0.0741206
0.0775964
-0.180418
-0.175803
-0.152745
-0.118667
-0.0813518
-0.046074
-0.0152259
0.0107145
0.0321095
0.049549
0.0635711
0.0747583
0.0839418
0.0905297
0.090861
-0.142524
-0.138768
-0.116716
-0.0841689
-0.0487894
-0.0156184
0.0131264
0.0370603
0.05658
0.0722749
0.0846873
0.0944698
0.102285
0.106514
0.107284
-0.104216
-0.101349
-0.0803712
-0.049445
-0.0160786
0.0149286
0.0415295
0.0634273
0.0810485
0.0949826
0.105781
0.114122
0.120464
0.123034
0.124368
-0.0656203
-0.063666
-0.0438257
-0.0145997
0.0166878
0.0454846
0.0699099
0.0897494
0.105456
0.117619
0.126797
0.133664
0.138525
0.13978
0.140947
-0.0268608
-0.0258387
-0.00719388
0.0202632
0.0494171
0.075967
0.0981936
0.11596
0.129741
0.140128
0.147682
0.153055
0.156471
0.156561
0.157198
0.0119368
0.0120122
0.0294098
0.0550395
0.0820163
0.106293
0.126307
0.141992
0.153845
0.162454
0.168382
0.172254
0.174253
0.173216
0.173105
0.050647
0.0497657
0.0658711
0.0896258
0.114393
0.13638
0.154175
0.16778
0.177707
0.184543
0.188846
0.19122
0.191824
0.189658
0.188665
0.0891451
0.0873011
0.102077
0.123919
0.146456
0.166147
0.181726
0.193258
0.201267
0.20634
0.209026
0.209908
0.209134
0.205834
0.203871
0.127307
0.124498
0.137915
0.157818
0.178113
0.195512
0.208887
0.21836
0.224467
0.227791
0.228873
0.228277
0.226138
0.221701
0.218715
0.165011
0.161239
0.173274
0.191223
0.209277
0.224396
0.235586
0.243021
0.247248
0.248844
0.248341
0.246283
0.242798
0.237225
0.233182
0.202136
0.197407
0.208046
0.224035
0.239858
0.25272
0.261753
0.267179
0.269554
0.269448
0.267383
0.263884
0.259074
0.252377
0.247259
0.238563
0.232886
0.242124
0.256159
0.269772
0.280407
0.287319
0.290773
0.291329
0.289553
0.285955
0.281042
0.274931
0.267127
0.260928
0.274177
0.267566
0.275404
0.287499
0.298934
0.307383
0.312217
0.313741
0.312519
0.30911
0.304014
0.297718
0.290336
0.281446
0.27417
0.308864
0.301337
0.307785
0.317966
0.327263
0.333575
0.336382
0.336024
0.333072
0.328072
0.321516
0.313873
0.305256
0.295309
0.286964
0.342516
0.334093
0.33917
0.347471
0.35468
0.358912
0.35975
0.357567
0.352935
0.346393
0.338422
0.329472
0.319658
0.308686
0.29929
0.375027
0.365733
0.369464
0.37593
0.381109
0.383327
0.38226
0.378314
0.37206
0.364029
0.354692
0.344481
0.333512
0.32155
0.311126
0.406294
0.396158
0.398576
0.40326
0.406477
0.406754
0.403855
0.398213
0.3904
0.380938
0.370288
0.358864
0.346788
0.333877
0.322452
0.436222
0.425276
0.42642
0.429384
0.430716
0.42913
0.424477
0.417213
0.407908
0.397079
0.385173
0.37259
0.359457
0.345639
0.333247
0.464716
0.452996
0.452913
0.454228
0.453757
0.450397
0.444073
0.435266
0.424543
0.412413
0.399313
0.385629
0.371492
0.356812
0.34349
0.49169
0.479234
0.477979
0.477721
0.475539
0.470497
0.462593
0.452327
0.440263
0.426903
0.412675
0.397949
0.382866
0.367373
0.353164
0.517062
0.503912
0.501544
0.499799
0.496004
0.489379
0.47999
0.468352
0.45503
0.440516
0.425228
0.409525
0.393554
0.377298
0.362249
0.540753
0.526955
0.52354
0.5204
0.515095
0.506993
0.496218
0.483303
0.468807
0.453218
0.436943
0.42033
0.403533
0.386567
0.370729
0.562694
0.548294
0.543903
0.539467
0.532763
0.523293
0.511238
0.497141
0.481562
0.464979
0.447793
0.430339
0.41278
0.395159
0.378587
0.582818
0.567868
0.562577
0.556948
0.54896
0.538238
0.52501
0.509834
0.493263
0.475772
0.457753
0.439531
0.421277
0.403058
0.385809
0.601067
0.585618
0.579508
0.572797
0.563645
0.55179
0.537502
0.521349
0.503883
0.485572
0.466801
0.447885
0.429003
0.410245
0.392381
0.617387
0.601495
0.594651
0.58697
0.57678
0.563914
0.548682
0.53166
0.513398
0.494357
0.474916
0.455383
0.435944
0.416706
0.398292
0.631732
0.615454
0.607964
0.599432
0.588331
0.574581
0.558524
0.540742
0.521784
0.502106
0.482081
0.462009
0.442084
0.422427
0.403531
0.644062
0.627456
0.619411
0.61015
0.598271
0.583765
0.567003
0.548575
0.529023
0.508803
0.48828
0.467749
0.44741
0.427397
0.408088
0.654343
0.637469
0.628964
0.619099
0.606575
0.591445
0.574102
0.55514
0.5351
0.514432
0.4935
0.472592
0.451912
0.431607
0.411957
0.66255
0.645468
0.636599
0.626256
0.613224
0.597604
0.579805
0.560424
0.540001
0.518984
0.497732
0.476528
0.455582
0.435049
0.415131
0.668661
0.651433
0.642299
0.631607
0.618205
0.602229
0.5841
0.564416
0.543718
0.522449
0.500966
0.47955
0.458413
0.437717
0.417607
0.672665
0.655353
0.646052
0.63514
0.621509
0.605311
0.586979
0.567111
0.546244
0.524822
0.503199
0.481654
0.460401
0.439607
0.419381
0.674554
0.657222
0.647853
0.636853
0.62313
0.606848
0.58844
0.568504
0.547576
0.5261
0.504427
0.482837
0.461543
0.440716
0.420447
0.674331
0.65704
0.647703
0.636745
0.62307
0.606839
0.588482
0.568595
0.547715
0.526283
0.504652
0.483099
0.461841
0.441043
0.420807
0.672003
0.654816
0.645609
0.634822
0.621335
0.60529
0.58711
0.56739
0.546664
0.525374
0.503875
0.482444
0.461295
0.440592
0.420462
0.667585
0.650563
0.641584
0.631097
0.617935
0.60221
0.584333
0.564895
0.54443
0.52338
0.502102
0.480875
0.45991
0.439368
0.419421
0.661098
0.644303
0.635648
0.625586
0.612885
0.597613
0.580164
0.561122
0.541022
0.52031
0.499342
0.478401
0.457694
0.437376
0.417686
0.652572
0.636062
0.627825
0.618313
0.606206
0.591518
0.574618
0.556085
0.536456
0.516175
0.495604
0.47503
0.454653
0.434623
0.415263
0.64204
0.625875
0.618147
0.609305
0.597923
0.583946
0.567715
0.549803
0.530745
0.51099
0.490903
0.470774
0.4508
0.431119
0.412159
0.629545
0.613781
0.60665
0.598596
0.588066
0.574925
0.559481
0.542298
0.523912
0.504774
0.485253
0.465648
0.446147
0.426876
0.408383
0.615135
0.599827
0.593378
0.586225
0.576669
0.564485
0.549943
0.533594
0.515977
0.497545
0.478674
0.459668
0.440709
0.421907
0.403945
0.598866
0.584066
0.578378
0.572233
0.563771
0.552662
0.539132
0.523721
0.506966
0.489327
0.471185
0.452852
0.434502
0.416227
0.398858
0.580797
0.566557
0.561705
0.556672
0.549416
0.539495
0.527083
0.512708
0.496908
0.480146
0.46281
0.445221
0.427545
0.409852
0.393136
0.560995
0.547362
0.543418
0.539592
0.533652
0.525026
0.513836
0.500592
0.485834
0.470029
0.453573
0.436796
0.419857
0.402802
0.386792
0.539534
0.526553
0.523581
0.521054
0.51653
0.509302
0.499432
0.48741
0.473778
0.459008
0.443503
0.427604
0.411462
0.395095
0.379843
0.516491
0.504205
0.502264
0.501118
0.498107
0.492374
0.483915
0.473203
0.460776
0.447114
0.432627
0.417669
0.402382
0.386753
0.372306
0.491951
0.480398
0.479541
0.479853
0.478443
0.474295
0.467335
0.458013
0.446867
0.434383
0.420979
0.407019
0.392643
0.377799
0.3642
0.466001
0.455218
0.455491
0.457328
0.4576
0.455122
0.449743
0.441888
0.432093
0.420852
0.40859
0.395685
0.382272
0.368256
0.355543
0.438736
0.428754
0.430198
0.43362
0.435647
0.434916
0.431192
0.424874
0.416498
0.406559
0.395495
0.383698
0.371295
0.35815
0.346357
0.410253
0.401102
0.403748
0.408807
0.412654
0.413738
0.41174
0.407025
0.400126
0.391547
0.381732
0.371089
0.359742
0.347506
0.336662
0.380655
0.37236
0.376234
0.382972
0.388693
0.391656
0.391444
0.388391
0.383025
0.375857
0.367338
0.357892
0.347644
0.336352
0.326479
0.350047
0.342631
0.347749
0.356199
0.363843
0.368738
0.370368
0.369029
0.365246
0.359533
0.352353
0.344144
0.33503
0.324713
0.31583
0.31854
0.312021
0.318393
0.328578
0.338182
0.345055
0.348573
0.348995
0.346838
0.342622
0.336818
0.32988
0.321934
0.312619
0.304737
0.286247
0.280637
0.288266
0.3002
0.311792
0.320678
0.326126
0.328348
0.327855
0.325171
0.320774
0.315136
0.308387
0.300097
0.29322
0.253282
0.248594
0.257474
0.271159
0.284756
0.295685
0.303094
0.307149
0.308351
0.307228
0.304266
0.299953
0.294424
0.287175
0.281302
0.219764
0.216004
0.226121
0.241551
0.257161
0.270151
0.279545
0.285459
0.288381
0.288842
0.287337
0.284369
0.28008
0.273884
0.269
0.185812
0.182983
0.194316
0.211475
0.229095
0.244154
0.255549
0.26334
0.268001
0.270066
0.270033
0.268425
0.265392
0.260252
0.256331
0.151548
0.149649
0.16217
0.181028
0.200645
0.217774
0.231178
0.240858
0.24727
0.250949
0.252401
0.252163
0.250398
0.246313
0.243312
0.117093
0.11612
0.129792
0.150314
0.171903
0.191091
0.206504
0.218075
0.226245
0.231546
0.234487
0.235624
0.23514
0.232104
0.22995
0.0825714
0.0825154
0.0972964
0.119432
0.142959
0.164186
0.181598
0.195058
0.204985
0.211909
0.21634
0.218853
0.219665
0.217674
0.216251
0.0481047
0.0489536
0.0647938
0.088486
0.113904
0.137141
0.156534
0.171872
0.183549
0.192093
0.19801
0.20189
0.204019
0.203096
0.202214
0.0138157
0.0155526
0.032397
0.0575772
0.08483
0.110037
0.131384
0.148583
0.161997
0.172152
0.179547
0.184776
0.188246
0.188506
0.187841
-0.0201738
-0.0175709
0.000217703
0.0268081
0.0558283
0.0829552
0.106222
0.125255
0.140387
0.15214
0.161004
0.167552
0.172352
0.174065
0.17297
-0.0537428
-0.0503016
-0.0316327
-0.00371998
0.0269895
0.0559765
0.0811185
0.101953
0.118777
0.132109
0.142434
0.150268
0.156314
0.160079
0.158667
-0.0867723
-0.0825289
-0.0630452
-0.0339071
-0.00159688
0.0291804
0.0561455
0.0787417
0.0972256
0.11211
0.123887
0.133011
0.140186
0.14576
0.147028
-0.11914
-0.11414
-0.0939126
-0.063655
-0.0298424
0.00264569
0.0313726
0.0556832
0.0757892
0.0921949
0.105405
0.115838
0.124125
0.13118
0.135132
-0.150762
-0.145002
-0.124131
-0.0928676
-0.0576605
-0.0235509
0.00686815
0.0328385
0.0545226
0.0724116
0.0870233
0.0987685
0.10819
0.116455
0.122317
-0.181652
-0.174942
-0.153605
-0.121452
-0.0849666
-0.0493345
-0.0173014
0.0102665
0.0334785
0.0528075
0.0687805
0.0818125
0.0923798
0.101737
0.109017
-0.211551
-0.20399
-0.182261
-0.149315
-0.111679
-0.0746323
-0.0410716
-0.0119754
0.0127073
0.0334277
0.0507158
0.0649944
0.0766953
0.087103
0.095614
-0.240348
-0.231992
-0.210037
-0.176372
-0.137719
-0.0993739
-0.06438
-0.0338321
-0.00774186
0.0143157
0.032869
0.0483484
0.0611542
0.0725717
0.082217
-0.267978
-0.258903
-0.236731
-0.202566
-0.16301
-0.123491
-0.0871668
-0.0552505
-0.027822
-0.00448635
0.0152786
0.0319101
0.0457839
0.0581628
0.0688545
-0.294366
-0.284626
-0.262253
-0.227828
-0.187476
-0.146918
-0.109375
-0.0761798
-0.0474879
-0.0229382
-0.00201838
0.0157139
0.0306147
0.0439076
0.0555718
-0.319437
-0.309081
-0.286605
-0.251973
-0.211091
-0.169591
-0.130949
-0.0965719
-0.0666964
-0.0410011
-0.0189868
-0.000207591
0.015677
0.0298401
0.0424186
-0.343127
-0.332195
-0.309716
-0.27499
-0.233748
-0.191446
-0.151839
-0.116381
-0.0854067
-0.0586383
-0.035593
-0.015823
0.000999738
0.0159908
0.0294336
-0.365378
-0.353904
-0.331514
-0.296839
-0.255322
-0.212478
-0.171999
-0.135564
-0.103581
-0.0758151
-0.0518049
-0.0311026
-0.0133897
0.00238691
0.0166466
-0.38614
-0.374155
-0.351939
-0.317463
-0.275842
-0.232574
-0.191376
-0.15408
-0.121183
-0.0924994
-0.067593
-0.0460187
-0.027466
-0.010947
0.00408344
-0.40537
-0.392907
-0.370942
-0.336805
-0.295254
-0.2517
-0.209933
-0.171895
-0.138181
-0.108661
-0.0829298
-0.0605458
-0.0412057
-0.0239886
-0.00823292
-0.423034
-0.410126
-0.388486
-0.354818
-0.313503
-0.269826
-0.227633
-0.188974
-0.154544
-0.124274
-0.0977905
-0.0746606
-0.0545877
-0.0367179
-0.0202817
-0.439109
-0.425791
-0.404541
-0.371466
-0.330548
-0.286918
-0.244445
-0.205292
-0.170246
-0.139314
-0.112153
-0.0883422
-0.0675929
-0.0491175
-0.0320441
-0.45358
-0.439887
-0.419086
-0.386721
-0.346359
-0.302941
-0.260341
-0.22082
-0.185267
-0.153759
-0.125997
-0.101572
-0.0802046
-0.0611729
-0.0435025
-0.466442
-0.452411
-0.432112
-0.400565
-0.360912
-0.317872
-0.275296
-0.235536
-0.199586
-0.167594
-0.139306
-0.114334
-0.092408
-0.0728735
-0.0546406
-0.477704
-0.46337
-0.443617
-0.412986
-0.374188
-0.331688
-0.28929
-0.249424
-0.213185
-0.180802
-0.152069
-0.126614
-0.104189
-0.0842114
-0.0654453
-0.48738
-0.472783
-0.453611
-0.423982
-0.386177
-0.344376
-0.302309
-0.262468
-0.226052
-0.193371
-0.164272
-0.138412
-0.115529
-0.095177
-0.0759191
-0.495499
-0.480675
-0.462114
-0.433561
-0.396874
-0.355926
-0.314341
-0.27466
-0.238179
-0.205291
-0.175906
-0.149709
-0.126442
-0.10573
-0.0861147
-0.502095
-0.487086
-0.469153
-0.441739
-0.406285
-0.366335
-0.325381
-0.285993
-0.249558
-0.216559
-0.186964
-0.160497
-0.136904
-0.115879
-0.0961621
-0.507217
-0.492062
-0.47477
-0.448541
-0.414422
-0.375607
-0.335428
-0.296465
-0.260189
-0.22717
-0.197443
-0.170775
-0.146919
-0.125621
-0.10577
-0.510917
-0.49566
-0.479013
-0.454002
-0.421304
-0.38375
-0.344485
-0.306077
-0.27007
-0.237125
-0.207344
-0.18054
-0.15648
-0.134943
-0.114891
-0.513261
-0.497943
-0.48194
-0.458166
-0.426958
-0.39078
-0.352561
-0.314834
-0.279208
-0.246428
-0.216669
-0.189792
-0.165584
-0.143851
-0.123605
-0.514319
-0.498985
-0.483617
-0.461085
-0.431421
-0.396718
-0.35967
-0.322747
-0.287608
-0.255084
-0.225421
-0.198536
-0.174234
-0.152355
-0.131965
-0.514169
-0.498865
-0.484118
-0.46282
-0.434735
-0.401593
-0.365829
-0.329827
-0.295282
-0.263102
-0.23361
-0.206776
-0.182435
-0.16046
-0.139979
-0.512896
-0.497667
-0.483523
-0.463439
-0.436952
-0.405438
-0.37106
-0.33609
-0.302241
-0.270493
-0.241243
-0.214523
-0.190195
-0.16817
-0.147644
-0.510587
-0.495481
-0.48192
-0.463017
-0.438128
-0.408294
-0.375391
-0.341558
-0.308503
-0.277271
-0.248335
-0.221786
-0.197522
-0.175489
-0.15496
-0.507335
-0.492399
-0.479399
-0.461636
-0.438327
-0.410205
-0.378853
-0.346251
-0.314085
-0.283452
-0.254896
-0.228576
-0.204426
-0.182425
-0.16193
-0.503237
-0.488518
-0.476055
-0.459382
-0.437621
-0.411224
-0.381483
-0.350198
-0.319008
-0.289052
-0.260944
-0.234907
-0.210918
-0.188985
-0.168563
-0.498387
-0.483933
-0.471984
-0.456345
-0.436083
-0.411407
-0.383321
-0.353426
-0.323295
-0.294092
-0.266495
-0.240793
-0.217009
-0.195181
-0.174864
-0.492886
-0.478741
-0.467283
-0.452618
-0.433796
-0.410817
-0.38441
-0.355967
-0.32697
-0.298592
-0.271567
-0.24625
-0.222713
-0.201022
-0.180842
-0.486827
-0.473038
-0.46205
-0.448295
-0.430842
-0.409519
-0.3848
-0.357857
-0.33006
-0.302573
-0.276178
-0.251294
-0.228044
-0.206521
-0.186505
-0.480307
-0.466915
-0.456378
-0.443471
-0.427306
-0.407583
-0.384543
-0.359132
-0.332593
-0.306059
-0.280349
-0.255942
-0.233017
-0.21169
-0.191863
-0.473416
-0.460462
-0.450359
-0.438238
-0.423277
-0.405082
-0.383693
-0.359834
-0.334599
-0.309074
-0.284101
-0.260213
-0.237648
-0.216542
-0.196926
-0.466243
-0.453763
-0.444082
-0.432686
-0.41884
-0.402092
-0.38231
-0.360004
-0.336108
-0.311642
-0.287453
-0.264125
-0.241952
-0.221092
-0.201704
-0.45887
-0.446898
-0.437627
-0.426902
-0.414082
-0.398689
-0.380454
-0.359688
-0.337155
-0.313787
-0.290428
-0.267697
-0.245945
-0.225352
-0.206209
-0.451375
-0.439939
-0.431072
-0.420966
-0.409085
-0.39495
-0.378189
-0.358932
-0.337771
-0.315537
-0.293046
-0.270945
-0.249644
-0.229336
-0.210451
-0.44383
-0.432955
-0.424485
-0.414954
-0.403928
-0.390951
-0.375578
-0.357786
-0.337994
-0.316916
-0.295327
-0.273889
-0.253064
-0.23306
-0.214443
-0.4363
-0.426005
-0.417929
-0.408933
-0.398684
-0.386764
-0.372687
-0.356299
-0.337858
-0.31795
-0.297292
-0.276545
-0.256221
-0.236535
-0.218194
-0.428843
-0.419143
-0.41146
-0.402965
-0.393421
-0.38246
-0.36958
-0.354524
-0.337403
-0.318667
-0.29896
-0.27893
-0.259128
-0.239774
-0.221718
-0.42151
-0.412414
-0.405123
-0.397102
-0.3882
-0.378105
-0.366319
-0.352514
-0.336665
-0.319093
-0.300352
-0.281058
-0.261799
-0.242789
-0.225023
-0.414347
-0.405859
-0.39896
-0.39139
-0.383074
-0.373757
-0.362965
-0.350319
-0.335686
-0.319254
-0.301484
-0.282945
-0.264246
-0.245591
-0.22812
-0.40739
-0.399508
-0.393002
-0.385866
-0.378088
-0.369471
-0.359574
-0.347992
-0.334504
-0.31918
-0.302377
-0.284602
-0.266479
-0.248189
-0.23102
-0.400669
-0.393387
-0.387275
-0.38056
-0.373281
-0.365293
-0.356197
-0.345581
-0.33316
-0.318897
-0.303046
-0.286042
-0.268507
-0.25059
-0.233732
-0.394206
-0.387517
-0.381798
-0.375493
-0.36868
-0.36126
-0.35288
-0.343134
-0.331693
-0.318433
-0.303509
-0.287273
-0.270338
-0.252799
-0.236267
-0.38802
-0.381908
-0.376584
-0.370681
-0.364309
-0.357405
-0.349661
-0.340691