/*--------------------------------*- C++ -*----------------------------------*\
  =========                 |
  \\      /  F ield         | OpenFOAM: The Open Source CFD Toolbox
   \\    /   O peration     | Website:  https://openfoam.org
    \\  /    A nd           | Version:  7
     \\/     M anipulation  |
\*---------------------------------------------------------------------------*/
FoamFile
{
    version     2.0;
    format      ascii;
    class       surfaceScalarField;
    location    "260";
    object      phi;
}
// * * * * * * * * * * * * * * * * * * * * * * * * * * * * * * * * * * * * * //

dimensions      [0 3 -1 0 0 0 0];

internalField   nonuniform List<scalar> 
39691
(
-2.06794e-06
0.00011268
-0.000110612
-8.46845e-06
0.000286003
-0.000279603
-1.9444e-05
0.00042081
-0.000409835
-3.49606e-05
0.000519604
-0.000504087
-5.47695e-05
0.000587057
-0.000567248
-7.85011e-05
0.0006293
-0.000605569
-0.000105752
0.000652853
-0.000625603
-0.000136147
0.000663567
-0.000633172
-0.000169374
0.00066574
-0.000632513
-0.000205199
0.000661593
-0.000625769
-0.000243463
0.00065114
-0.000612876
-0.000284092
0.000632362
-0.000591734
-0.000327092
0.000601509
-0.000558508
-0.000372539
0.000553293
-0.000507846
0.000480592
-0.000432353
-0.000420778
-1.55393e-06
0.000114234
-6.76467e-06
0.000291214
-1.61078e-05
0.000430153
-2.97196e-05
0.000533216
-4.74519e-05
0.000604789
-6.89684e-05
0.000650817
-9.3839e-05
0.000677724
-0.000121616
0.000691344
-0.00015188
0.000696004
-0.000184268
0.000693982
-0.000218482
0.000685355
-0.000254298
0.000668178
-0.000291585
0.000638795
-0.00033031
0.000592018
0.000521054
-0.000370772
-1.01423e-06
0.000115248
-4.95729e-06
0.000295157
-1.25347e-05
0.000437731
-2.40524e-05
0.000544733
-3.94631e-05
0.0006202
-5.84624e-05
0.000669816
-8.059e-05
0.000699852
-0.000105317
0.000716071
-0.000132107
0.000722795
-0.000160453
0.000722328
-0.000189897
0.000714798
-0.000220042
0.000698324
-0.000250593
0.000669346
-0.000281389
0.000622814
0.000552296
-0.00031263
-4.56525e-07
0.000115705
-3.06841e-06
0.000297769
-8.76446e-06
0.000443427
-1.80168e-05
0.000553986
-3.08795e-05
0.000633062
-4.70805e-05
0.000686017
-6.61283e-05
0.0007189
-8.74097e-05
0.000737352
-0.000110264
0.000745649
-0.000134029
0.000746094
-0.000158074
0.000738843
-0.000181815
0.000722064
-0.000204766
0.000692298
-0.000226624
0.000644671
0.000573116
-0.000247444
1.11617e-07
0.000115593
-1.12341e-06
0.000299004
-4.84406e-06
0.000447148
-1.16834e-05
0.000560825
-2.17959e-05
0.000643175
-3.49443e-05
0.000699165
-5.06077e-05
0.000734563
-6.80889e-05
0.000754833
-8.66007e-05
0.00076416
-0.000105324
0.000764817
-0.000123444
0.000756963
-0.000140179
0.000738799
-0.000154838
0.000706957
-0.000166959
0.000656792
0.000582573
-0.000176416
6.8193e-07
0.000114911
8.48813e-07
0.000298837
-8.26648e-07
0.000448823
-5.13347e-06
0.000565132
-1.23233e-05
0.000650365
-2.21969e-05
0.000709039
-3.42086e-05
0.000746575
-4.75821e-05
0.000768207
-6.14065e-05
0.000777985
-7.4706e-05
0.000778116
-8.6483e-05
0.00076874
-9.57503e-05
0.000748066
-0.000101599
0.000712805
-0.000103399
0.000658592
0.000579963
-0.00010079
1.24203e-06
0.000113669
2.81761e-06
0.000297262
3.22743e-06
0.000448413
1.54476e-06
0.000566815
-2.58609e-06
0.000654496
-8.99974e-06
0.000715453
-1.71342e-05
0.000754709
-2.61422e-05
0.000777215
-3.49972e-05
0.00078684
-4.25728e-05
0.000785692
-4.76937e-05
0.000773861
-4.91701e-05
0.000749543
-4.58572e-05
0.000709492
-3.69616e-05
0.000649697
0.000564895
-2.18933e-05
1.78446e-06
0.000111885
4.75142e-06
0.000294295
7.25676e-06
0.000445908
8.24658e-06
0.000565825
7.27955e-06
0.000655463
4.47123e-06
0.000718261
3.94555e-07
0.000758786
-4.04204e-06
0.000781651
-7.70834e-06
0.000790506
-9.33919e-06
0.000787323
-7.59172e-06
0.000772113
-1.08752e-06
0.000743038
1.15084e-05
0.000696896
3.14585e-05
0.000629746
0.000537498
5.88559e-05
2.29937e-06
0.000109586
6.6179e-06
0.000289976
1.11975e-05
0.000441328
1.48773e-05
0.000562145
1.71311e-05
0.000653209
1.8029e-05
0.000717363
1.81442e-05
0.000758671
1.84324e-05
0.000781363
2.0113e-05
0.000788825
2.45744e-05
0.000782862
3.3311e-05
0.000763377
4.78858e-05
0.000728463
6.98795e-05
0.000674903
0.000100499
0.000599127
0.000497416
0.000140581
2.7776e-06
0.000106808
8.38527e-06
0.000284368
1.49846e-05
0.000434729
2.13301e-05
0.000555799
2.68206e-05
0.000647718
3.14796e-05
0.000712704
3.58719e-05
0.000754278
4.09866e-05
0.000776248
4.81152e-05
0.000781697
5.87506e-05
0.000772226
7.45197e-05
0.000747608
9.71482e-05
0.000705835
0.000128421
0.000643629
0.000169776
0.000557772
0.000444887
0.000222305
3.21065e-06
0.000103597
1.0023e-05
0.000277556
1.85549e-05
0.000426197
2.75011e-05
0.000546853
3.61989e-05
0.000639021
4.46263e-05
0.000704277
5.33319e-05
0.000745573
6.3324e-05
0.000766256
7.59486e-05
0.000769072
9.27829e-05
0.000755392
0.000115566
0.000724824
0.000146166
0.000675235
0.000186575
0.00060322
0.000238462
0.000505885
0.000380034
0.000303315
3.59085e-06
0.000100006
1.15027e-05
0.000269644
2.18479e-05
0.000415852
3.32895e-05
0.000535412
4.51192e-05
0.000627191
5.72735e-05
0.000692123
7.0279e-05
0.000732567
8.51506e-05
0.000751385
0.000103271
0.000750952
0.000126283
0.00073238
0.000156016
0.000695092
0.000194459
0.000636792
0.000243807
0.000553872
0.000305976
0.000443716
0.000303032
0.000382978
3.91159e-06
9.60949e-05
1.2799e-05
0.000260757
2.48079e-05
0.000403843
3.86003e-05
0.000521619
5.34409e-05
0.00061235
6.92319e-05
0.000676332
8.64748e-05
0.000715324
0.000106181
0.000731679
0.000129754
0.000727379
0.000158884
0.00070325
0.000195474
0.000658502
0.000241614
0.000590652
0.000299691
0.000495794
0.000371883
0.000371525
0.000214018
0.000460896
4.16738e-06
9.19275e-05
1.38896e-05
0.000251035
2.73853e-05
0.000390347
4.33465e-05
0.000505658
6.10328e-05
0.000594664
8.03226e-05
0.000657042
0.000101693
0.000693954
0.000126143
0.000707229
0.000155087
0.000698434
0.00019025
0.000668087
0.000233591
0.000615161
0.000287288
0.000536955
0.000353911
0.000429171
0.000435906
0.000289529
0.00011302
0.000536905
4.35403e-06
8.75735e-05
1.47569e-05
0.000240632
2.95382e-05
0.000375566
4.74526e-05
0.000487744
6.77783e-05
0.000574338
9.03834e-05
0.000634437
0.000115725
0.000668613
0.000144787
0.000678166
0.000178989
0.000664233
0.000220079
0.000626998
0.000270069
0.00056517
0.000331216
0.000475808
0.000406268
0.000354119
0.000497941
0.000197856
-9.73995e-08
0.000611059
4.46869e-06
8.31048e-05
1.53875e-05
0.000229713
3.12337e-05
0.00035972
5.08567e-05
0.000468121
7.35786e-05
0.000551617
9.92743e-05
0.000608741
0.000128389
0.000639498
0.000161895
0.00064466
0.000201214
0.000624914
0.000248118
0.000580093
0.000304675
0.000508613
0.000373222
0.000407261
0.000456689
0.000270652
0.000558055
9.64897e-05
-0.000125663
0.000683621
4.50997e-06
7.85948e-05
1.57734e-05
0.000218449
3.24496e-05
0.000343043
5.35138e-05
0.000447057
7.83584e-05
0.000526772
0.000106885
0.000580214
0.000139539
0.000606844
0.000177291
0.000606908
0.000221568
0.000580637
0.000274179
0.000527483
0.000337256
0.000445536
0.00041324
0.000331277
0.000505244
0.000178648
0.000616514
-1.47801e-05
-0.000264219
0.000755069
4.47803e-06
7.41168e-05
1.59124e-05
0.000207015
3.31756e-05
0.00032578
5.53985e-05
0.000424834
8.20705e-05
0.0005001
0.000113142
0.000549143
0.000149077
0.000570909
0.000190856
0.000565129
0.000239929
0.000531564
0.000298156
0.000469256
0.000367767
0.000375925
0.000451336
0.000247708
0.000552175
7.78093e-05
0.000673797
-0.000136402
-0.000416517
0.000826095
4.37465e-06
6.97421e-05
1.58085e-05
0.000195581
3.34151e-05
0.000308174
5.65085e-05
0.00040174
8.47014e-05
0.000471907
0.000118017
0.000515827
0.000156961
0.000531965
0.000202545
0.000519546
0.000256264
0.000477845
0.000320061
0.000405459
0.000396302
0.000299684
0.000487752
0.000156257
0.000597925
-3.23643e-05
0.000730627
-0.000269103
-0.00058346
0.000897569
4.20342e-06
6.55387e-05
1.54724e-05
0.000184312
3.31864e-05
0.00029046
5.6867e-05
0.00037806
8.62766e-05
0.000442497
0.000121538
0.000480566
0.000163224
0.000490278
0.000212406
0.000470364
0.00027066
0.000419592
0.000340052
0.000336067
0.000423135
0.0002166
0.000522937
5.64558e-05
0.000643172
-0.000152599
0.000787996
-0.000413927
-0.000765995
0.000970531
3.9699e-06
6.15688e-05
1.49227e-05
0.000173359
3.25241e-05
0.000272858
5.65262e-05
0.000354058
8.68657e-05
0.000412158
0.000123794
0.000443638
0.000167983
0.000446089
0.0002206
0.000417746
0.000283345
0.000356847
0.000358462
0.00026095
0.000448753
0.00012631
0.000557579
-5.2371e-05
0.000688823
-0.000283843
0.000847094
-0.000572198
-0.000965042
0.00104614
3.68172e-06
5.78871e-05
1.41853e-05
0.000162856
3.14804e-05
0.000255563
5.55686e-05
0.000329969
8.65865e-05
0.00038114
0.000124944
0.000405281
0.00017145
0.000399583
0.000227415
0.000361781
0.000294712
0.000289549
0.000375827
0.000179835
0.000473871
2.82659e-05
0.000592609
-0.000171109
0.000735991
-0.000427225
0.000909145
-0.000745351
-0.00118169
0.00112579
3.34877e-06
5.45383e-05
1.32947e-05
0.00015291
3.01252e-05
0.000238733
5.41092e-05
0.000305985
8.56075e-05
0.000349642
0.000125222
0.000365666
0.000173942
0.000350862
0.000233273
0.000302451
0.000305325
0.000217497
0.000392885
9.22745e-05
0.000499431
-7.82795e-05
0.00062916
-0.000300839
0.000785953
-0.000584018
0.000975498
-0.000934897
-0.00141455
0.00120836
2.98322e-06
5.15551e-05
1.22935e-05
0.0001436
2.85464e-05
0.00022248
5.22944e-05
0.000282237
8.41475e-05
0.000317789
0.000124936
0.000324878
0.000175878
0.00029992
0.000238731
0.000239599
0.000315908
0.00014032
0.000410558
-2.37541e-06
0.000526546
-0.000194267
0.000668477
-0.00044277
0.000839951
-0.000755491
0.00104721
-0.00114216
-0.00166354
0.0012962
2.59941e-06
4.89557e-05
1.12316e-05
0.000134968
2.68482e-05
0.000206863
5.02998e-05
0.000258786
8.24717e-05
0.000285617
0.000124462
0.000282887
0.000177769
0.000246613
0.000244463
0.000172905
0.000327321
5.74621e-05
0.000429893
-0.000104948
0.000556413
-0.000320787
0.000711759
-0.000598117
0.00089901
-0.000942742
0.00112475
-0.0013679
-0.00192639
0.0013876
2.21357e-06
4.67421e-05
1.01655e-05
0.000127016
2.51485e-05
0.00019188
4.83255e-05
0.000235609
8.0884e-05
0.000253058
0.000124231
0.000239541
0.000180197
0.000190647
0.000251225
0.000101876
0.000340501
-3.18141e-05
0.00045198
-0.000216426
0.000590181
-0.000458988
0.000759987
-0.000767923
0.0009637
-0.00114645
0.00120754
-0.00161173
-0.00219903
0.00148018
1.84334e-06
4.48988e-05
9.15616e-06
0.000119703
2.35748e-05
0.000177461
4.65882e-05
0.000212595
7.97134e-05
0.000219933
0.000124707
0.000194548
0.000183783
0.00013157
0.000259804
2.58552e-05
0.000356384
-0.000128394
0.000477834
-0.000337876
0.000628798
-0.000609952
0.000813743
-0.000952868
0.00103399
-0.0013667
0.00129417
-0.00187192
-0.00247623
0.00157137
1.50698e-06
4.33918e-05
8.26644e-06
0.000112943
2.22584e-05
0.000163469
4.53109e-05
0.000189543
7.92978e-05
0.000185946
0.000126364
0.000147482
0.000189148
6.8786e-05
0.000270959
-5.59553e-05
0.000375817
-0.000233252
0.000508279
-0.000470338
0.000672861
-0.000774534
0.000873081
-0.00115309
0.00110912
-0.00160274
0.00138227
-0.00214507
-0.00275212
0.00165817
1.22244e-06
4.21693e-05
7.55784e-06
0.000106608
2.13276e-05
0.0001497
4.4711e-05
0.00016616
7.99633e-05
0.000150694
0.000129649
9.77957e-05
0.00019686
1.57513e-06
0.000285346
-0.000144441
0.000399464
-0.00034737
0.000543827
-0.000614701
0.000722494
-0.000953201
0.000937474
-0.00136807
0.00118767
-0.00185294
0.00146871
-0.0024261
-0.00302139
0.00173798
1.0063e-06
4.1163e-05
7.08715e-06
0.000100527
2.09006e-05
0.000135886
4.49871e-05
0.000142073
8.20036e-05
0.000113677
0.000134957
4.48429e-05
0.000207393
-7.08617e-05
0.000303462
-0.00024051
0.000427729
-0.000471637
0.000584598
-0.00077157
0.000777273
-0.00114588
0.0010058
-0.0015966
0.00126763
-0.00211477
0.00155045
-0.00270892
-0.00328083
0.00180989
8.72702e-07
4.02903e-05
6.90303e-06
9.44968e-05
2.10784e-05
0.000121711
4.6307e-05
0.000116845
8.56604e-05
7.43238e-05
0.000142593
-1.20895e-05
0.000221084
-0.000149353
0.000325594
-0.00034502
0.000460702
-0.000606745
0.00063028
-0.000941148
0.000836226
-0.00135182
0.00107633
-0.0018367
0.00134615
-0.0023846
0.0016258
-0.00298857
-0.00353178
0.00187675
8.32188e-07
3.94582e-05
7.04282e-06
8.82861e-05
2.19385e-05
0.000106815
4.87969e-05
8.99861e-05
9.11074e-05
3.20134e-05
0.000152758
-7.37403e-05
0.000238105
-0.0002347
0.000351787
-0.000458702
0.000498147
-0.000753105
0.000680151
-0.00112315
0.000897942
-0.00156961
0.00114684
-0.0020856
0.00141941
-0.00265716
0.00169354
-0.0032627
-0.00383611
0.00199787
8.91947e-07
3.85662e-05
7.5318e-06
8.16463e-05
2.35322e-05
9.08146e-05
5.25362e-05
6.09821e-05
9.84409e-05
-1.38913e-05
0.000165534
-0.000140833
0.000258456
-0.000327621
0.000381842
-0.000582089
0.000539509
-0.000910771
0.000733131
-0.00131677
0.000960717
-0.0017972
0.00121509
-0.00233997
0.0014855
-0.00292757
0.00175222
-0.00352942
-0.00410647
0.00202257
1.0544e-06
3.75118e-05
8.38049e-06
7.43202e-05
2.5881e-05
7.33141e-05
5.75529e-05
2.93102e-05
0.000107677
-6.40155e-05
0.00018088
-0.000214036
0.000281964
-0.000428705
0.00041534
-0.000715465
0.000583976
-0.00107941
0.000787895
-0.00152069
0.00102272
-0.00203202
0.00127886
-0.00259611
0.00154294
-0.00319165
0.00179761
-0.00378409
-0.0043487
0.00203984
1.31823e-06
3.61936e-05
9.58639e-06
6.6052e-05
2.89791e-05
5.39214e-05
6.38272e-05
-5.538e-06
0.000118756
-0.000118944
0.000198648
-0.000293928
0.000308308
-0.000538364
0.000451673
-0.000858831
0.000630536
-0.00125827
0.000842968
-0.00173313
0.00108213
-0.00227119
0.00133632
-0.0028503
0.00159067
-0.00344601
0.00182978
-0.0040232
-0.00456692
0.002048
1.67861e-06
3.4515e-05
1.11353e-05
5.65953e-05
3.27958e-05
3.22609e-05
7.12968e-05
-4.40391e-05
0.000131553
-0.0001792
0.000218594
-0.00038097
0.000337042
-0.000656812
0.000490091
-0.00101188
0.00067805
-0.00144623
0.000896835
-0.00195191
0.00113726
-0.00251161
0.001386
-0.00309904
0.00162782
-0.00368783
0.00184947
-0.00424484
-0.00476282
0.00204537
2.12807e-06
3.23869e-05
1.30039e-05
4.57195e-05
3.72811e-05
7.9837e-06
7.98654e-05
-8.66233e-05
0.000145889
-0.000245224
0.0002404
-0.000475481
0.000367631
-0.000784042
0.000529754
-0.001174
0.000725331
-0.00164181
0.000948043
-0.00217462
0.00118665
-0.00275022
0.00142686
-0.00333925
0.00165403
-0.003915
0.00185726
-0.00444808
-0.00493787
0.00203232
2.65754e-06
2.97294e-05
1.51626e-05
3.32144e-05
4.23714e-05
-1.9225e-05
8.94123e-05
-0.000133664
0.000161549
-0.000317361
0.0002637
-0.000577631
0.000399479
-0.000919822
0.000569775
-0.0013443
0.000771204
-0.00184323
0.000995277
-0.0023987
0.00122915
-0.00298409
0.00145828
-0.00356838
0.00166935
-0.00412606
0.00185402
-0.00463275
-0.00509364
0.00200978
3.25736e-06
2.6472e-05
1.75789e-05
1.88929e-05
4.79948e-05
-4.9641e-05
9.9802e-05
-0.000185472
0.000178295
-0.000395854
0.000288092
-0.000687428
0.000431961
-0.00106369
0.000609262
-0.0015216
0.000814567
-0.00204854
0.00103742
-0.00262155
0.00126394
-0.00321061
0.00148003
-0.00378447
0.00167422
-0.00432025
0.00184075
-0.00479928
-0.00523177
0.00197889
3.91822e-06
2.25538e-05
2.02196e-05
2.59153e-06
5.40768e-05
-8.34982e-05
0.000110892
-0.000242286
0.000195874
-0.000480836
0.000313161
-0.000804716
0.000464442
-0.00121497
0.000647355
-0.00170451
0.00085443
-0.00225562
0.00107359
-0.00284071
0.00129053
-0.00342755
0.00149221
-0.00398615
0.00166933
-0.00449738
0.00181859
-0.00494854
-0.00535402
0.00194084
4.63174e-06
1.7922e-05
2.3053e-05
-1.58297e-05
6.05433e-05
-0.000120988
0.000122536
-0.000304279
0.000214028
-0.000572328
0.000338485
-0.000929172
0.000496297
-0.00137278
0.000683249
-0.00189146
0.000889957
-0.00246232
0.00110317
-0.00305392
0.00130875
-0.00363314
0.0014952
-0.0041726
0.00165555
-0.00465772
0.00178868
-0.00508167
-0.00546214
0.0018968
5.39086e-06
1.25312e-05
2.60501e-05
-3.6489e-05
6.7323e-05
-0.000162261
0.000134592
-0.000371548
0.0002325
-0.000670236
0.000363644
-0.00106032
0.000526925
-0.00153607
0.000716225
-0.00208076
0.000920477
-0.00266657
0.00112576
-0.0032592
0.00131869
-0.00382607
0.00148961
-0.00434352
0.00163384
-0.00480195
0.00175217
-0.0052
-0.0055578
0.00184783
6.18986e-06
6.34132e-06
2.91846e-05
-5.94837e-05
7.43474e-05
-0.000207424
0.000146917
-0.000444118
0.000251032
-0.00077435
0.000388227
-0.00119751
0.000555764
-0.0017036
0.000745661
-0.00227066
0.000945503
-0.00286642
0.00114123
-0.00345493
0.00132066
-0.00400551
0.00147616
-0.00449902
0.0016052
-0.00493099
0.00171011
-0.00530492
-0.00564254
0.00179486
7.02412e-06
-6.828e-07
3.24322e-05
-8.48918e-05
8.15505e-05
-0.000256543
0.000159371
-0.000521939
0.000269368
-0.000884347
0.000411837
-0.00133998
0.000582302
-0.00187407
0.000771052
-0.00245941
0.000964728
-0.00306009
0.00114964
-0.00363984
0.00131514
-0.00417101
0.00145567
-0.00463954
0.0015706
-0.00504592
0.00166348
-0.0053978
-0.00571777
0.00173871
7.88974e-06
-8.57254e-06
3.57701e-05
-0.000112772
8.88669e-05
-0.000309639
0.000171813
-0.000604885
0.000287257
-0.000999792
0.000434097
-0.00148682
0.000606089
-0.00204606
0.000792016
-0.00264534
0.000978018
-0.0032461
0.00115121
-0.00381303
0.00130271
-0.00432251
0.00142896
-0.00476578
0.00153096
-0.00514792
0.00161313
-0.00547997
-0.00578471
0.00168006
8.78315e-06
-1.73557e-05
3.91757e-05
-0.000143165
9.62304e-05
-0.000366694
0.0001841
-0.000692755
0.000304449
-0.00112014
0.000454654
-0.00163702
0.000626747
-0.00221815
0.000808298
-0.00282689
0.000985392
-0.00342319
0.00114631
-0.00397395
0.00128404
-0.00446024
0.00139686
-0.0048786
0.00148712
-0.00523818
0.00155979
-0.00555264
-0.0058444
0.00161949
9.70057e-06
-2.70563e-05
4.26253e-05
-0.000176089
0.000103573
-0.000427641
0.000196088
-0.00078527
0.000320704
-0.00124476
0.000473192
-0.00178951
0.000643979
-0.00238894
0.000819766
-0.00300268
0.000987002
-0.00359043
0.0011354
-0.00412235
0.00125981
-0.00458466
0.00136016
-0.00497895
0.00143983
-0.00531785
0.0015041
-0.00561691
-0.00589773
0.00155743
1.06377e-05
-3.76939e-05
4.60936e-05
-0.000211545
0.000110822
-0.00049237
0.000207631
-0.000882079
0.00033579
-0.00137292
0.000489436
-0.00194316
0.000657571
-0.00255707
0.000826403
-0.00317151
0.000983108
-0.00374713
0.001119
-0.00425823
0.00123072
-0.00469638
0.00131959
-0.00506782
0.00138976
-0.00538802
0.00144659
-0.00567375
-0.00594542
0.00149428
1.15894e-05
-4.92833e-05
4.95529e-05
-0.000249509
0.000117904
-0.000560722
0.000218586
-0.00098276
0.000349494
-0.00150382
0.000503158
-0.00209682
0.000667396
-0.00272131
0.000828291
-0.0033324
0.000974049
-0.00389289
0.00109766
-0.00438184
0.00119742
-0.00479614
0.0012758
-0.00514621
0.00133747
-0.00544968
0.00138768
-0.00572397
-0.00598805
0.00143031
1.25496e-05
-6.18329e-05
5.29731e-05
-0.000289932
0.000124742
-0.000632491
0.00022881
-0.00108683
0.000361624
-0.00163664
0.000514185
-0.00224938
0.000673406
-0.00288053
0.0008256
-0.0034846
0.000960224
-0.00402751
0.00107194
-0.00449356
0.00116054
-0.00488473
0.00122939
-0.00521506
0.00128343
-0.00550373
0.00132773
-0.00576827
-0.00602608
0.00136576
1.35114e-05
-7.53443e-05
5.63221e-05
-0.000332743
0.000131258
-0.000707427
0.00023817
-0.00119374
0.000372015
-0.00177048
0.000522399
-0.00239977
0.00067563
-0.00303376
0.000818566
-0.00362753
0.000942063
-0.00415101
0.0010424
-0.0045939
0.00112065
-0.00496298
0.00118086
-0.00527527
0.00122806
-0.00555094
0.00126702
-0.00580723
-0.00605987
0.00130081
1.44668e-05
-8.98111e-05
5.95661e-05
-0.000377842
0.000137374
-0.000785235
0.000246542
-0.00130291
0.000380534
-0.00190447
0.000527736
-0.00254697
0.000674162
-0.00318019
0.000807477
-0.00376085
0.000920014
-0.00426355
0.00100957
-0.00468345
0.00107827
-0.00503168
0.00113065
-0.00532764
0.00117169
-0.00559198
0.00120578
-0.00584132
-0.00608968
0.0012356
1.54075e-05
-0.000105219
6.26704e-05
-0.000425105
0.000143014
-0.000865578
0.000253814
-0.00141371
0.000387079
-0.00203774
0.000530186
-0.00269008
0.000669152
-0.00331916
0.000792654
-0.00388435
0.000894523
-0.00436542
0.000973925
-0.00476285
0.00103386
-0.00509162
0.00107914
-0.00537292
0.00111459
-0.00562742
0.00114419
-0.00587092
-0.00611574
0.00117024
1.63242e-05
-0.000121543
6.56e-05
-0.000474381
0.000148107
-0.000948086
0.000259893
-0.00152549
0.000391586
-0.00216943
0.000529788
-0.00282828
0.000660793
-0.00345016
0.000774439
-0.003998
0.000866025
-0.004457
0.00093593
-0.00483276
0.000987828
-0.00514352
0.00102665
-0.00541174
0.00105698
-0.00565775
0.00108239
-0.00589633
-0.00613817
0.00110482
1.72077e-05
-0.00013875
6.83209e-05
-0.000525494
0.00015259
-0.00103235
0.000264703
-0.00163761
0.000394024
-0.00229875
0.000526624
-0.00296088
0.000649311
-0.00357285
0.000753181
-0.00410187
0.000834933
-0.00453876
0.00089599
-0.00489381
0.000940517
-0.00518805
0.000973439
-0.00544466
0.000999043
-0.00568336
0.00102049
-0.00591778
-0.00615708
0.0010394
1.80485e-05
-0.000156799
7.08007e-05
-0.000578247
0.000156404
-0.00111796
0.00026819
-0.00174939
0.000394397
-0.00242496
0.00052081
-0.00308729
0.000634953
-0.00368699
0.00072923
-0.00419614
0.000801636
-0.00461116
0.00085447
-0.00494665
0.000892231
-0.00522581
0.000919735
-0.00547216
0.000940934
-0.00570456
0.000958598
-0.00593545
-0.00617254
0.000974058
1.88373e-05
-0.000175636
7.3009e-05
-0.000632418
0.000159503
-0.00120445
0.000270319
-0.00186021
0.000392737
-0.00254738
0.000512491
-0.00320705
0.000617981
-0.00379248
0.000702921
-0.00428108
0.000766488
-0.00467473
0.000811693
-0.00499185
0.000843226
-0.00525734
0.000865718
-0.00549466
0.000882768
-0.00572161
0.000896779
-0.00594946
-0.00618459
0.000908829
1.95653e-05
-0.000195202
7.49189e-05
-0.000687772
0.000161847
-0.00129138
0.000271076
-0.00196944
0.000389103
-0.00266541
0.000501834
-0.00331978
0.000598659
-0.00388931
0.000674577
-0.004357
0.000729815
-0.00472997
0.000767941
-0.00502998
0.00079372
-0.00528312
0.00081154
-0.00551248
0.000824642
-0.00573471
0.000835095
-0.00595991
-0.00619325
0.000843759
2.0224e-05
-0.000215426
7.65066e-05
-0.000744054
0.00016341
-0.00137828
0.000270465
-0.00207649
0.00038358
-0.00277852
0.00048902
-0.00342522
0.000577252
-0.00397754
0.0006445
-0.00442425
0.000691907
-0.00477737
0.000723458
-0.00506153
0.000743896
-0.00530356
0.000757324
-0.0055259
0.000766637
-0.00574402
0.0007736
-0.00596687
-0.00619854
0.000778886
2.08056e-05
-0.000236231
7.77527e-05
-0.000801001
0.000164176
-0.00146471
0.000268509
-0.00218082
0.000376267
-0.00288628
0.000474241
-0.00352319
0.000554017
-0.00405731
0.00061297
-0.0044832
0.000653024
-0.00481743
0.000678457
-0.00508696
0.000693907
-0.00531901
0.000703173
-0.00553517
0.000708819
-0.00574967
0.000712336
-0.00597039
-0.00620045
0.000714246
2.13034e-05
-0.000257535
7.86416e-05
-0.00085834
0.000164137
-0.0015502
0.000265248
-0.00228193
0.000367279
-0.00298831
0.00045769
-0.0036136
0.000529199
-0.00412882
0.000580242
-0.00453425
0.000613396
-0.00485058
0.000633118
-0.00510668
0.000643883
-0.00532977
0.000649174
-0.00554046
0.000651242
-0.00575173
0.000651343
-0.00597049
-0.00619898
0.000649871
2.17111e-05
-0.000279246
7.91624e-05
-0.000915791
0.000163298
-0.00163434
0.000260733
-0.00237937
0.000356742
-0.00308432
0.000439561
-0.00369642
0.00050303
-0.00419229
0.000546549
-0.00457776
0.000573224
-0.00487726
0.000587596
-0.00512106
0.000593932
-0.00533611
0.000595395
-0.00554192
0.000593953
-0.00575029
0.000590656
-0.00596719
-0.00619412
0.000585794
2.2026e-05
-0.000301272
7.93128e-05
-0.000973078
0.000161678
-0.0017167
0.000255037
-0.00247273
0.000344797
-0.00317408
0.000420054
-0.00377168
0.000475739
-0.00424798
0.000512112
-0.00461414
0.000532694
-0.00489784
0.000542034
-0.0051304
0.000544153
-0.00533823
0.000541907
-0.00553968
0.000537004
-0.00574539
0.000530314
-0.00596051
-0.00618586
0.000522054
2.22403e-05
-0.000323512
7.90825e-05
-0.00102992
0.000159287
-0.00179691
0.000248215
-0.00256166
0.000331559
-0.00325742
0.00039933
-0.00383945
0.000447503
-0.00429615
0.000477094
-0.00464373
0.000491938
-0.00491268
0.000496521
-0.00513498
0.000494603
-0.00533631
0.00048874
-0.00553381
0.000480408
-0.00573706
0.000470329
-0.00595043
-0.00617419
0.000458661
2.23529e-05
-0.000345865
7.84773e-05
-0.00108604
0.000156158
-0.00187459
0.000240355
-0.00264585
0.000317172
-0.00333424
0.000377572
-0.00389985
0.000418516
-0.00433709
0.000441672
-0.00466688
0.000451097
-0.00492211
0.000451163
-0.00513504
0.000445355
-0.0053305
0.000435948
-0.00552441
0.000424209
-0.00572532
0.000410735
-0.00593695
-0.00615911
0.000395652
2.23622e-05
-0.000368227
7.75029e-05
-0.00114119
0.000152327
-0.00194941
0.00023154
-0.00272507
0.000301769
-0.00340447
0.000354946
-0.00395303
0.000388945
-0.00437109
0.000405992
-0.00468393
0.000410286
-0.0049264
0.000406041
-0.0051308
0.000396465
-0.00532093
0.000383568
-0.00551151
0.000368436
-0.00571019
0.000351561
-0.00592008
-0.0061406
0.000333053
2.22672e-05
-0.000390494
7.61683e-05
-0.00119509
0.000147834
-0.00202108
0.000221855
-0.00279909
0.00028548
-0.00346809
0.000331601
-0.00399915
0.000358938
-0.00439843
0.000370182
-0.00469518
0.000369601
-0.00492582
0.000361223
-0.00512242
0.000347977
-0.00530768
0.000331633
-0.00549517
0.000313114
-0.00569167
0.000292832
-0.00589979
-0.00611865
0.000270886
2.20682e-05
-0.000412562
7.44858e-05
-0.0012475
0.000142721
-0.00208931
0.000211388
-0.00286775
0.000268426
-0.00352513
0.000307678
-0.0040384
0.000328631
-0.00441938
0.000334354
-0.0047009
0.000329127
-0.0049206
0.000316767
-0.00511006
0.000299933
-0.00529085
0.00028017
-0.0054754
0.000258263
-0.00566976
0.000234573
-0.0058761
-0.00609326
0.00020918
2.17666e-05
-0.000434329
7.24703e-05
-0.00129821
0.000137036
-0.00215388
0.000200223
-0.00293094
0.000250727
-0.00357564
0.000283307
-0.00407098
0.000298142
-0.00443422
0.000298605
-0.00470136
0.000288935
-0.00491093
0.000272723
-0.00509385
0.000252369
-0.00527049
0.000229209
-0.00545224
0.000203903
-0.00564445
0.000176789
-0.00584899
-0.00606443
0.000147963
2.13642e-05
-0.000455693
7.01389e-05
-0.00134698
0.000130825
-0.00221457
0.000188447
-0.00298856
0.000232491
-0.00361968
0.000258603
-0.00409709
0.000267579
-0.00444319
0.000263019
-0.0046968
0.000249086
-0.00489699
0.000229135
-0.0050739
0.000205319
-0.00524668
0.000178785
-0.00542571
0.000150078
-0.00561575
0.000119482
-0.00581839
-0.00603205
8.71025e-05
2.08639e-05
-0.000476557
6.75105e-05
-0.00139363
0.000124139
-0.00227119
0.000176139
-0.00304056
0.000213822
-0.00365736
0.000233674
-0.00411694
0.000237033
-0.00444655
0.00022767
-0.00468744
0.000209633
-0.00487896
0.00018604
-0.0050503
0.00015881
-0.00521945
0.00012893
-0.00539583
9.68741e-05
-0.00558369
6.27516e-05
-0.00578427
-0.00599536
2.60538e-05
2.02693e-05
-0.000496826
6.46052e-05
-0.00143796
0.000117025
-0.00232361
0.000163378
-0.00308692
0.000194815
-0.0036888
0.000208613
-0.00413074
0.000206588
-0.00444453
0.000192621
-0.00467347
0.00017062
-0.00485695
0.000143468
-0.00502315
0.000112864
-0.00518884
7.96541e-05
-0.00536262
4.43027e-05
-0.00554834
7.15502e-06
-0.00574712
-0.00595493
-3.32672e-05
1.95845e-05
-0.000516411
6.14444e-05
-0.00147982
0.000109533
-0.0023717
0.000150238
-0.00312762
0.000175556
-0.00371412
0.000183508
-0.00413869
0.000176315
-0.00443734
0.000157925
-0.00465508
0.000132086
-0.00483112
0.000101448
-0.00499251
6.75078e-05
-0.0051549
3.09733e-05
-0.00532609
-7.8338e-06
-0.00550953
-4.87573e-05
-0.0057062
-0.00591203
-9.16651e-05
1.88142e-05
-0.000535225
5.80498e-05
-0.00151906
0.000101709
-0.00241536
0.000136789
-0.0031627
0.000156126
-0.00373345
0.000158432
-0.004141
0.000146278
-0.00442518
0.000123629
-0.00463243
9.40633e-05
-0.00480155
6.00043e-05
-0.00495846
2.27599e-05
-0.00511766
-1.70715e-05
-0.00528625
-5.91742e-05
-0.00546743
-0.000103569
-0.0056618
-0.00586577
-0.000149826
1.79632e-05
-0.000553188
5.44434e-05
-0.00155554
9.36002e-05
-0.00245452
0.000123096
-0.0031922
0.000136597
-0.00374696
0.000133455
-0.00413786
0.000116529
-0.00440825
8.97735e-05
-0.00460568
5.65803e-05
-0.00476836
1.91552e-05
-0.00492103
-2.13545e-05
-0.00507715
-6.44592e-05
-0.00524315
-0.000109936
-0.00542195