/*--------------------------------*- C++ -*----------------------------------*\
  =========                 |
  \\      /  F ield         | OpenFOAM: The Open Source CFD Toolbox
   \\    /   O peration     | Website:  https://openfoam.org
    \\  /    A nd           | Version:  7
     \\/     M anipulation  |
\*---------------------------------------------------------------------------*/
FoamFile
{
    version     2.0;
    format      ascii;
    class       volVectorField;
    location    "260";
    object      U;
}
// * * * * * * * * * * * * * * * * * * * * * * * * * * * * * * * * * * * * * //

dimensions      [0 1 -1 0 0 0 0];

internalField   nonuniform List<vector> 
20050
(
(-0.00102638 0.0485016 5.45598e-21)
(-0.00456674 0.116887 -1.01876e-21)
(-0.0112744 0.163291 -1.24465e-20)
(-0.0202581 0.191415 -1.87011e-20)
(-0.0311285 0.20528 -1.70636e-21)
(-0.0434037 0.208841 1.15341e-20)
(-0.0566024 0.20559 -1.29008e-20)
(-0.0703153 0.198263 3.2725e-21)
(-0.084213 0.188699 -9.21029e-21)
(-0.0980438 0.17786 1.71326e-20)
(-0.111624 0.165971 1.46469e-20)
(-0.124827 0.152719 -1.80267e-20)
(-0.137589 0.137455 -9.36024e-21)
(-0.149853 0.119329 1.00081e-20)
(-0.161603 0.0972643 -1.06536e-20)
(-0.00214942 0.0492537 9.1655e-21)
(-0.00689484 0.119166 -6.24891e-21)
(-0.0138143 0.167024 -2.8945e-21)
(-0.0224218 0.196413 1.87611e-20)
(-0.0325244 0.211278 2.34859e-20)
(-0.0437856 0.215556 -5.77565e-20)
(-0.0558178 0.212754 3.52313e-20)
(-0.0682555 0.205649 3.75125e-20)
(-0.0807746 0.196128 4.90653e-20)
(-0.0931014 0.185202 -4.65888e-20)
(-0.105013 0.173135 3.2271e-20)
(-0.116335 0.159652 3.00555e-20)
(-0.126956 0.144139 1.75438e-20)
(-0.136801 0.125767 -5.72437e-20)
(-0.145789 0.103532 4.7939e-20)
(-0.00329157 0.049751 -3.78963e-20)
(-0.00927148 0.120896 -4.80098e-20)
(-0.016397 0.170069 3.59775e-20)
(-0.0245892 0.200686 4.57795e-20)
(-0.0338496 0.216573 -2.89061e-20)
(-0.0439878 0.221612 -5.55333e-20)
(-0.0547117 0.219302 3.48301e-20)
(-0.0657009 0.212445 -1.00079e-19)
(-0.0766371 0.202974 -4.83595e-20)
(-0.087224 0.191944 -4.09425e-20)
(-0.0971977 0.179664 -5.65337e-20)
(-0.106334 0.165904 1.06839e-20)
(-0.114471 0.150086 4.38625e-20)
(-0.121511 0.131425 1.99454e-19)
(-0.127267 0.108998 -7.78528e-20)
(-0.00443623 0.0499841 4.80102e-21)
(-0.011665 0.122046 9.64075e-20)
(-0.0189902 0.172381 3.83242e-20)
(-0.0267336 0.204175 -6.64841e-20)
(-0.035086 0.221095 1.61225e-20)
(-0.0440021 0.226931 6.17527e-20)
(-0.0532867 0.225153 5.89851e-20)
(-0.0626666 0.218573 3.84034e-20)
(-0.0718309 0.209156 -7.45356e-20)
(-0.0804615 0.198004 2.09106e-19)
(-0.0882543 0.185476 -9.20154e-20)
(-0.0949329 0.171386 1.30041e-19)
(-0.100289 0.155207 -4.2088e-20)
(-0.104191 0.136206 -1.69427e-19)
(-0.106304 0.113565 6.57925e-20)
(-0.00556656 0.0499473 1.40274e-19)
(-0.0140429 0.122597 -5.3408e-20)
(-0.0215609 0.173921 -3.42278e-21)
(-0.0288294 0.206826 3.90293e-20)
(-0.0362186 0.224779 2.48808e-20)
(-0.0438257 0.231445 3.24315e-20)
(-0.0515531 0.230235 -1.2808e-19)
(-0.0591772 0.223956 -1.19504e-20)
(-0.0663981 0.2146 6.80861e-21)
(-0.0728786 0.203311 -2.08117e-19)
(-0.0782755 0.190498 1.89147e-19)
(-0.0822617 0.176027 -1.33052e-19)
(-0.0845817 0.159428 -6.2343e-20)
(-0.0850767 0.140036 -3.55189e-20)
(-0.0831965 0.117152 -8.89596e-20)
(-0.00666553 0.0496394 -8.31187e-20)
(-0.0163727 0.122535 -3.47082e-20)
(-0.024077 0.17466 -1.09318e-19)
(-0.0308522 0.208594 -1.8364e-20)
(-0.0372351 0.227568 -7.57898e-20)
(-0.0434599 0.235088 -6.2431e-20)
(-0.0495272 0.23448 -7.86579e-20)
(-0.0552659 0.228528 4.57672e-20)
(-0.060391 0.21924 5.58906e-20)
(-0.0645506 0.207802 2.02073e-20)
(-0.0673668 0.194672 4.18088e-20)
(-0.0684634 0.17977 6.66899e-20)
(-0.0675392 0.16269 -1.17399e-19)
(-0.0644189 0.142855 -8.00176e-20)
(-0.0582522 0.119695 2.63015e-19)
(-0.00771658 0.0490643 -5.26314e-20)
(-0.0186223 0.121857 -5.4325e-20)
(-0.0265069 0.17458 2.40132e-19)
(-0.032779 0.209445 1.27791e-19)
(-0.0381259 0.229414 3.8207e-21)
(-0.0429105 0.237802 4.27189e-20)
(-0.0472312 0.237826 1.15214e-19)
(-0.0509725 0.232226 -7.8723e-20)
(-0.0538694 0.223018 5.67995e-20)
(-0.0555615 0.211423 7.36595e-20)
(-0.0556414 0.197948 -2.36054e-19)
(-0.0536885 0.182571 -4.62995e-20)
(-0.0493545 0.164952 -2.12486e-19)
(-0.0424724 0.144614 1.31938e-19)
(-0.031793 0.121152 -1.6713e-19)
(-0.00870436 0.0482309 6.97694e-20)
(-0.0207612 0.12057 -5.43684e-20)
(-0.0288209 0.173673 -1.88144e-19)
(-0.0345887 0.209355 -2.07598e-19)
(-0.0388831 0.230277 -2.51562e-19)
(-0.0421864 0.239536 6.51477e-20)
(-0.0446913 0.240216 8.49956e-20)
(-0.0463416 0.234994 1.70746e-19)
(-0.0468984 0.225882 -8.39581e-20)
(-0.0459997 0.214128 -7.39347e-20)
(-0.0432158 0.200291 1.44599e-19)
(-0.0380882 0.184403 -1.52867e-19)
(-0.0302222 0.166194 1.45018e-19)
(-0.0194801 0.145273 -2.38991e-19)
(-0.00417942 0.121513 1.6029e-19)
(-0.00961502 0.0471522 -1.14347e-20)
(-0.022761 0.11869 5.67364e-20)
(-0.0309911 0.171945 2.8179e-19)
(-0.0362623 0.208309 2.69918e-19)
(-0.0395017 0.230126 1.08934e-19)
(-0.0412988 0.240249 -3.40138e-20)
(-0.0419369 0.241601 -1.38613e-19)
(-0.0414216 0.236783 6.29632e-20)
(-0.0395463 0.227785 3.14573e-20)
(-0.0359554 0.215881 -9.60332e-20)
(-0.0302053 0.201671 -3.09145e-19)
(-0.0218067 0.185246 -9.92836e-20)
(-0.0103284 0.166402 2.6786e-19)
(0.00433755 0.144842 3.94239e-20)
(0.0243438 0.12078 -3.34245e-19)
(-0.0104366 0.0458458 -1.10347e-19)
(-0.0245967 0.116243 -2.99247e-19)
(-0.0329923 0.169412 -3.29454e-19)
(-0.0377829 0.20631 -1.99889e-19)
(-0.0399784 0.228944 1.41719e-19)
(-0.040261 0.239906 2.43089e-20)
(-0.0389995 0.24194 5.5923e-20)
(-0.0362625 0.237547 -5.41575e-20)
(-0.0318823 0.228687 4.98669e-19)
(-0.0255177 0.216647 1.69454e-19)
(-0.0167206 0.202067 2.81509e-19)
(-0.00497964 0.185091 3.9886e-19)
(0.0101734 0.165578 -2.96331e-19)
(0.0287854 0.143348 4.7247e-19)
(0.053597 0.118946 6.59427e-20)
(-0.0111596 0.0443336 1.10652e-19)
(-0.026247 0.113265 1.70793e-19)
(-0.0348031 0.166103 1.46435e-19)
(-0.0391362 0.203367 -1.72095e-19)
(-0.0403117 0.226723 1.40509e-19)
(-0.0390878 0.238484 2.37233e-20)
(-0.0359112 0.241197 -4.01671e-19)
(-0.0309146 0.237248 3.6109e-19)
(-0.0239741 0.228551 -2.96896e-19)
(-0.0147719 0.216398 -8.59737e-20)
(-0.0028641 0.201462 -1.51485e-21)
(0.0122729 0.183935 2.43946e-19)
(0.0311507 0.163734 3.18415e-19)
(0.0537084 0.140789 -2.80901e-19)
(0.0834287 0.116015 6.32695e-20)
(-0.0117769 0.0426406 -2.02881e-19)
(-0.0276951 0.109801 5.98432e-20)
(-0.0364061 0.16206 -1.35272e-19)
(-0.0403109 0.199508 -1.21953e-20)
(-0.0405017 0.223469 1.69044e-19)
(-0.0377941 0.23597 -2.0839e-19)
(-0.0327038 0.239346 2.79755e-19)
(-0.0254264 0.235852 -3.44619e-19)
(-0.0158867 0.227344 -4.47828e-19)
(-0.00379708 0.215107 1.32847e-19)
(0.011273 0.199841 2.81261e-19)
(0.0298495 0.181777 -3.41384e-19)
(0.0524975 0.160885 3.02352e-19)
(0.078992 0.137176 -5.33954e-19)
(0.113738 0.111996 3.83167e-19)
(-0.0122844 0.0407953 5.39468e-19)
(-0.0289295 0.105904 -3.48459e-19)
(-0.0377889 0.157335 1.60203e-19)
(-0.041299 0.19477 2.34229e-19)
(-0.0405499 0.2192 -2.73027e-19)
(-0.0363946 0.232362 4.04826e-19)
(-0.0294074 0.236369 -5.73741e-20)
(-0.0198435 0.233333 -5.15497e-19)
(-0.00767909 0.225036 1.48169e-19)
(0.00733647 0.212749 7.6499e-20)
(0.0256135 0.197189 -3.91534e-19)
(0.0476704 0.178618 3.34542e-19)
(0.074141 0.157047 -1.1017e-18)
(0.104569 0.132532 9.24071e-19)
(0.144495 0.106906 -3.39003e-19)
(-0.0126813 0.0388282 -3.8529e-19)
(-0.0299444 0.101633 5.81295e-20)
(-0.0389441 0.151991 -3.0857e-19)
(-0.0420956 0.189204 -2.66302e-19)
(-0.0404587 0.213947 -2.83193e-19)
(-0.034903 0.227669 -4.53868e-19)
(-0.0260485 0.232257 5.69467e-19)
(-0.0142055 0.229668 6.96038e-19)
(0.000597428 0.221602 4.87288e-20)
(0.0185701 0.209299 -3.5264e-19)
(0.0400975 0.193488 2.49538e-20)
(0.0656813 0.174454 3.16527e-19)
(0.0960463 0.152236 -1.39042e-19)
(0.130425 0.126886 -3.7945e-20)
(0.175752 0.100762 5.10695e-19)
(-0.0129697 0.0367715 2.41415e-19)
(-0.0307399 0.0970524 3.05203e-19)
(-0.03987 0.146101 9.35195e-20)
(-0.0426997 0.182874 3.60258e-19)
(-0.0402311 0.207752 1.52169e-19)
(-0.0333301 0.221912 3.02061e-19)
(-0.0226484 0.227011 -3.44244e-20)
(-0.00854416 0.224845 -3.09449e-19)
(0.00890311 0.217017 1.49494e-19)
(0.0298608 0.204732 5.43383e-19)
(0.0546868 0.188719 1.95193e-19)
(0.0838582 0.169276 -2.49251e-19)
(0.118222 0.146465 4.81735e-19)
(0.156603 0.120262 -3.33642e-19)
(0.207652 0.0935838 3.87572e-20)
(-0.0131552 0.0346581 -4.1684e-20)
(-0.0313221 0.0922314 -1.18834e-19)
(-0.0405702 0.139743 2.91231e-19)
(-0.0431129 0.175852 1.77514e-19)
(-0.0398701 0.200675 3.57257e-19)
(-0.031683 0.215128 -1.94612e-19)
(-0.0192203 0.220647 -4.36352e-19)
(-0.00287938 0.218859 -2.01118e-19)
(0.017214 0.211267 -2.86831e-19)
(0.0411865 0.199028 -6.55258e-19)
(0.0693712 0.182862 -3.70829e-19)
(0.102215 0.163072 -1.03868e-19)
(0.140728 0.139741 -4.66319e-19)
(0.183214 0.112684 -8.67501e-21)
(0.240429 0.0853948 2.61199e-19)
(-0.0132463 0.0325212 -1.75438e-19)
(-0.0317031 0.0872408 -1.07507e-19)
(-0.0410538 0.133003 1.60968e-20)
(-0.0433397 0.168221 -7.56701e-19)
(-0.0393767 0.192782 -7.12863e-19)
(-0.0299625 0.207364 -2.78798e-19)
(-0.0157667 0.213189 5.36433e-19)
(0.002785 0.211719 -2.60882e-19)
(0.0255281 0.204344 2.5074e-19)
(0.0525538 0.192168 3.48661e-19)
(0.0841777 0.175896 1.2735e-19)
(0.120813 0.155825 -2.40693e-19)
(0.163687 0.132069 2.74087e-19)
(0.210442 0.104174 2.31837e-19)
(0.274425 0.076234 -3.42639e-19)
(-0.0132545 0.0303932 -4.51988e-20)
(-0.0319003 0.0821522 1.41621e-19)
(-0.0413342 0.125971 -4.11133e-19)
(-0.0433857 0.160074 9.45941e-19)
(-0.0387491 0.184155 6.71971e-19)
(-0.0281605 0.198683 1.10734e-19)
(-0.012275 0.20468 -3.37825e-19)
(0.00846706 0.203445 1.37037e-19)
(0.0338729 0.196253 1.75786e-19)
(0.0640079 0.184145 -4.38066e-19)
(0.0991826 0.167808 5.3497e-19)
(0.139778 0.147521 2.15541e-19)
(0.187299 0.123455 -3.59571e-19)
(0.238567 0.0947573 2.53943e-19)
(0.31009 0.0661695 1.00443e-19)
(-0.0131937 0.0283048 7.22485e-20)
(-0.0319357 0.0770356 3.63427e-19)
(-0.0414282 0.118738 -1.68352e-20)
(-0.0432568 0.151505 -5.47796e-19)
(-0.0379799 0.174884 -3.93689e-19)
(-0.0262571 0.189162 4.10127e-19)
(-0.00871239 0.195179 5.71508e-19)
(0.0142138 0.194076 -8.62124e-20)
(0.0423151 0.187015 -2.55465e-19)
(0.0756453 0.174968 6.52418e-19)
(0.114528 0.158598 -5.35875e-19)
(0.159316 0.138159 2.83944e-19)
(0.211859 0.113917 3.82914e-19)
(0.267978 0.0844701 -1.20868e-18)
(0.34798 0.0553185 1.56099e-19)
(-0.01308 0.0262847 2.02886e-19)
(-0.0318348 0.0719581 -1.62592e-19)
(-0.0413546 0.111393 -7.21417e-22)
(-0.0429564 0.142617 1.21399e-19)
(-0.0370537 0.16507 1.55644e-19)
(-0.0242161 0.178891 -4.52361e-19)
(-0.0050206 0.18476 -2.17425e-19)
(0.0201093 0.183671 -4.455e-19)
(0.0509717 0.176674 -4.36748e-19)
(0.087628 0.164668 3.82279e-19)
(0.130437 0.14829 -4.32774e-19)
(0.179736 0.127759 -5.34482e-20)
(0.237773 0.1035 1.32121e-19)
(0.299195 0.0733735 -5.79201e-20)
(0.388733 0.0438651 4.99436e-19)
(-0.0129307 0.0243585 -6.36968e-20)
(-0.031625 0.0669816 -4.29829e-19)
(-0.0411314 0.104024 -3.61389e-19)
(-0.042483 0.133512 -7.51783e-20)
(-0.0359431 0.15482 6.79923e-20)
(-0.0219804 0.167975 -1.27337e-20)
(-0.00110917 0.173519 -8.26251e-20)
(0.0262834 0.172314 -6.33682e-20)
(0.0600214 0.165301 2.2903e-19)
(0.100198 0.153306 -1.7417e-19)
(0.147233 0.136942 5.07261e-19)
(0.201462 0.116379 -5.59112e-19)
(0.265565 0.0922875 -4.21222e-19)
(0.332863 0.0615707 3.03938e-19)
(0.433062 0.0320806 -3.81784e-19)
(-0.0127639 0.0225481 -1.65252e-19)
(-0.0313337 0.0621618 5.39699e-20)
(-0.0407741 0.0967147 3.07832e-19)
(-0.0418273 0.124291 -1.58436e-19)
(-0.0346055 0.144246 2.52578e-19)
(-0.0194676 0.156528 -8.21729e-20)
(0.00315069 0.16157 -4.26816e-19)
(0.0329199 0.160113 5.60226e-19)
(0.0697155 0.152998 2.50827e-19)
(0.113689 0.140983 -7.10624e-19)
(0.165348 0.124655 6.80758e-20)
(0.225042 0.104131 -1.31457e-20)
(0.295863 0.0804184 8.51932e-19)
(0.369728 0.0492315 1.80191e-19)
(0.481579 0.0202822 5.1659e-19)
(-0.0125972 0.0208709 7.63353e-21)
(-0.0309865 0.0575455 3.68511e-19)
(-0.0402924 0.0895387 -1.75365e-19)
(-0.0409688 0.115053 2.40675e-19)
(-0.0329792 0.133465 4.51679e-19)
(-0.0165655 0.14468 5.75136e-19)
(0.0079316 0.149045 1.73978e-19)
(0.0402632 0.147203 -3.68981e-20)
(0.0803841 0.139904 7.04518e-19)
(0.128533 0.127842 7.9702e-19)
(0.185323 0.111583 7.24025e-20)
(0.251136 0.091187 7.91236e-19)
(0.329369 0.0680954 -3.30494e-21)
(0.410575 0.0365988 -7.17038e-19)
(0.534483 0.00884016 -5.03909e-19)
(-0.012447 0.0193393 2.00211e-19)
(-0.0306045 0.0531704 4.02127e-19)
(-0.0396876 0.0825621 6.71113e-20)
(-0.0398726 0.10589 4.61297e-19)
(-0.0309799 0.122593 -5.50768e-19)
(-0.0131281 0.132565 -7.20803e-20)
(0.0134534 0.136095 -1.16612e-19)
(0.048621 0.133746 8.36034e-19)
(0.0924371 0.126192 -1.14816e-18)
(0.145254 0.114073 -7.87932e-19)
(0.207794 0.0979373 3.00127e-19)
(0.280484 0.0777912 -3.89265e-19)
(0.366797 0.055578 -1.08153e-19)
(0.456208 0.0240174 3.37024e-19)
(0.592249 -0.00151438 1.23185e-18)
(-0.0123272 0.0179602 1.88621e-19)
(-0.0302024 0.0490629 -7.32524e-19)
(-0.0389497 0.0758395 1.59089e-19)
(-0.0384868 0.0968888 -7.10363e-19)
(-0.0284985 0.111745 3.54114e-19)
(-0.00897464 0.120324 -2.35201e-19)
(0.0199836 0.122884 -2.54906e-19)
(0.0583619 0.119929 -6.17894e-19)
(0.106356 0.112072 2.22785e-19)
(0.164448 0.0999086 3.20355e-19)
(0.233453 0.0839808 -2.03813e-20)
(0.313834 0.064254 3.18789e-19)
(0.408778 0.0431687 -1.70492e-19)
(0.507241 0.0118903 -6.63034e-20)
(0.65442 -0.0104551 -9.06599e-20)
(-0.0122481 0.0167345 -8.26841e-19)
(-0.0297861 0.045238 3.44004e-20)
(-0.038055 0.0694129 -6.6126e-20)
(-0.0367405 0.0881228 1.17288e-19)
(-0.0254 0.10103 -5.29896e-19)
(-0.00388991 0.1081 6.40338e-19)
(0.027833 0.109586 -1.83219e-20)
(0.0699054 0.105956 -7.85447e-19)
(0.122674 0.0977791 -7.27382e-19)
(0.186753 0.085623 -6.27252e-19)
(0.262996 0.0700227 -2.89113e-19)
(0.351865 0.0509429 -1.84396e-19)
(0.455755 0.0311929 -6.32636e-19)
(0.56396 0.000693692 -4.40729e-19)
(0.719923 -0.0176518 5.49009e-19)
(-0.0122153 0.0156571 4.72192e-19)
(-0.0293509 0.0416984 3.7294e-19)
(-0.0369647 0.0633104 4.37969e-19)
(-0.034543 0.0796544 -1.29388e-19)
(-0.0215248 0.0905477 2.3274e-19)
(0.00237138 0.0960331 -3.21809e-19)
(0.0373468 0.0963815 1.63288e-19)
(0.0837049 0.0920464 1.01528e-18)
(0.141948 0.0835725 3.88506e-19)
(0.212797 0.0715151 8.32729e-19)
(0.297052 0.0564022 3.17203e-19)
(0.395081 0.0382597 -5.8877e-20)
(0.507904 0.0199797 5.71424e-19)
(0.626201 -0.00903104 -6.10945e-19)
(0.787146 -0.0228349 -7.29933e-19)
(-0.0122292 0.014717 -4.12386e-19)
(-0.0288802 0.0384349 -6.62248e-19)
(-0.0356241 0.0575457 1.38272e-19)
(-0.0317845 0.0715316 -2.59726e-19)
(-0.0166916 0.0803874 3.08151e-19)
(0.0100772 0.0842547 -6.40385e-19)
(0.0488904 0.083446 1.85034e-19)
(0.100223 0.0784211 -2.8556e-19)
(0.164717 0.0697182 -2.72185e-19)
(0.243143 0.0578953 -3.72332e-19)
(0.336107 0.0434684 -6.4521e-19)
(0.443722 0.0266075 6.69425e-20)
(0.565072 0.00984011 5.82955e-19)
(0.693241 -0.0167194 4.79938e-19)
(0.853982 -0.0258894 3.47805e-19)
(-0.0122838 0.0138978 3.02584e-19)
(-0.028345 0.0354268 -4.66434e-20)
(-0.0339627 0.0521183 2.19468e-19)
(-0.0283385 0.0637868 6.99428e-19)
(-0.010703 0.0706226 -7.53392e-19)
(0.0195076 0.0728848 6.70009e-19)
(0.0628309 0.0709471 -6.28414e-19)
(0.119903 0.0652955 1.02726e-19)
(0.191461 0.0564781 2.72086e-19)
(0.278227 0.0450678 2.36336e-20)
(0.380434 0.0315583 4.2597e-19)
(0.497698 0.016345 4.53658e-19)
(0.626778 0.00105505 -3.1809e-19)
(0.763764 -0.0218025 -7.75238e-19)
(0.91804 -0.0268615 1.15672e-18)
(-0.0123671 0.0131782 -1.8546e-19)
(-0.0277037 0.032643 4.75279e-19)
(-0.0318961 0.0470136 -2.90815e-19)
(-0.0240653 0.0564369 -1.96381e-19)
(-0.00335286 0.0613104 3.99118e-19)
(0.0309422 0.0620263 -7.97878e-20)
(0.0795165 0.0590365 2.45259e-19)
(0.143135 0.0528697 1.45201e-18)
(0.222556 0.0440975 1.89869e-19)
(0.318308 0.0333135 9.83942e-20)
(0.43004 0.0209749 -1.84075e-19)
(0.556559 0.00773993 -2.72154e-19)
(0.692258 -0.00611283 -2.27163e-19)
(0.836006 -0.0238106 3.14394e-19)
(0.977386 -0.0264596 -1.75316e-18)
(-0.0124607 0.0125335 5.83412e-19)
(-0.0269032 0.0300445 4.99804e-19)
(-0.0293275 0.0422049 1.63622e-19)
(-0.0188165 0.0494828 -3.82517e-20)
(0.00556599 0.0524902 2.43205e-19)
(0.0446466 0.0517632 -1.85619e-19)
(0.0992558 0.0478453 -1.13802e-19)
(0.170231 0.041321 -1.7728e-19)
(0.258238 0.0327943 -8.11409e-19)
(0.363427 0.0228768 1.94082e-19)
(0.484632 0.0119713 7.71406e-20)
(0.619508 0.000947299 8.58881e-20)
(0.760444 -0.0113751 6.61194e-19)
(0.907899 -0.0227972 -4.42e-20)
(1.03204 -0.027202 3.21832e-19)
(-0.0125408 0.0119368 -9.21197e-19)
(-0.0258803 0.0275858 -3.55784e-19)
(-0.0261513 0.0376554 -9.19702e-20)
(-0.01244 0.0429122 -7.74888e-21)
(0.016253 0.0441845 -4.21808e-19)
(0.0608593 0.0421592 1.91837e-19)
(0.1223 0.0374811 1.83641e-20)
(0.201398 0.0307997 5.61704e-19)
(0.29858 0.0227528 -2.10668e-19)
(0.413395 0.0139584 -1.95442e-19)
(0.543623 0.00474044 -2.78949e-20)
(0.68546 -0.00395948 -1.76469e-20)
(0.829879 -0.0144329 -6.07676e-19)
(0.976931 -0.020039 1.5733e-19)
(1.08489 -0.0322446 -3.97725e-19)
(-0.0125788 0.0113605 6.70598e-19)
(-0.0245634 0.0252187 2.03605e-19)
(-0.0222564 0.0333212 -4.13618e-19)
(-0.00478571 0.0367013 1.92254e-19)
(0.0288923 0.0364004 -7.49379e-19)
(0.0797815 0.0332592 1.47376e-19)
(0.148829 0.028029 2.56915e-19)
(0.236728 0.0214276 -5.85525e-19)
(0.34348 0.0141216 7.88699e-19)
(0.467795 0.00671117 4.59056e-19)
(0.606174 -0.000588174 3.09026e-19)
(0.753176 -0.00693409 8.9905e-20)
(0.898829 -0.0151909 -9.69133e-21)
(1.04047 -0.0177412 -1.63088e-19)
(1.14442 -0.0347784 7.27555e-19)
(-0.0125426 0.0107777 -7.5419e-19)
(-0.0228756 0.0228943 -6.70645e-19)
(-0.017529 0.0291552 6.20459e-20)
(0.00429078 0.0308195 1.94177e-19)
(0.043647 0.0291343 6.99726e-19)
(0.101569 0.0250932 -2.30486e-19)
(0.178944 0.0195543 -8.96212e-19)
(0.276187 0.0133009 -6.97158e-19)
(0.392667 0.00701371 -4.37764e-19)
(0.526011 0.00124051 -8.22337e-19)
(0.671264 -0.00395198 3.23013e-19)
(0.821341 -0.00796458 1.83558e-19)
(0.965621 -0.0138819 1.72854e-19)
(1.09952 -0.0147188 3.97287e-19)
(1.19731 -0.0309195 2.06386e-19)
(-0.0123978 0.0101641 5.02418e-19)
(-0.0207364 0.0205673 4.51426e-19)
(-0.011856 0.025111 1.84352e-19)
(0.0149239 0.0252337 -5.37691e-19)
(0.0606549 0.0223766 -3.49456e-19)
(0.12633 0.0176812 2.54608e-19)
(0.212663 0.0121077 3.45057e-19)
(0.319621 0.00649409 6.79389e-19)
(0.445715 0.00151061 2.05605e-19)
(0.587264 -0.00239417 1.20325e-19)
(0.737758 -0.0053504 -7.17803e-19)
(0.888642 -0.00709542 -5.33604e-19)
(1.02901 -0.0107556 8.72225e-20)
(1.15348 -0.0103236 -1.78912e-19)
(1.24232 -0.0248104 4.29094e-19)
(-0.012109 0.00949869 1.48678e-19)
(-0.0180645 0.0181979 -3.29023e-19)
(-0.00512778 0.0211473 -3.23193e-19)
(0.0272359 0.0199134 6.36842e-20)
(0.080026 0.0161178 2.87933e-19)
(0.15412 0.0110398 5.15494e-19)
(0.249926 0.00573148 -3.03665e-19)
(0.366765 0.00106587 3.06519e-19)
(0.502064 -0.00233408 1.27518e-19)
(0.650658 -0.00417578 -6.652e-19)
(0.804492 -0.0048374 1.34365e-19)
(0.953865 -0.00443849 7.19334e-20)
(1.08806 -0.00605634 -2.095e-19)
(1.20179 -0.00468401 -3.68561e-19)
(1.28085 -0.0173144 -8.01369e-19)
(-0.011641 0.00876544 9.22406e-20)
(-0.0147794 0.0157552 -1.25779e-19)
(0.00276015 0.0172315 3.20195e-19)
(0.041335 0.0148366 -2.84581e-19)
(0.101842 0.0103545 5.15046e-20)
(0.184948 0.00518894 -1.34063e-19)
(0.290595 0.000466074 -1.72783e-19)
(0.417254 -0.00293602 1.01625e-19)
(0.561052 -0.00449084 3.92247e-20)
(0.715233 -0.00412572 6.18169e-19)
(0.870336 -0.00251257 2.62866e-19)
(1.01597 -0.000156589 2.96894e-19)
(1.14209 -3.27125e-05 8.02736e-19)
(1.24428 0.00200148 -2.37513e-19)
(1.31299 -0.0089588 4.39141e-19)
(-0.0109596 0.00795338 -2.79567e-19)
(-0.0108034 0.0132183 6.0157e-19)
(0.0119054 0.0133437 1.70602e-19)
(0.0573145 0.0099935 7.5785e-19)
(0.126157 0.00509479 1.77959e-19)
(0.218772 0.000157202 -6.42289e-19)
(0.334466 -0.00364532 2.78495e-19)
(0.470639 -0.0054715 6.25195e-19)
(0.621941 -0.00495219 -5.71655e-19)
(0.780011 -0.00229994 -1.45151e-19)
(0.934255 0.00148898 -1.28671e-20)
(1.07411 0.00555682 -3.3134e-19)
(1.19071 0.00707707 -4.57352e-19)
(1.28099 0.00951149 4.39616e-19)
(1.33936 -9.36746e-05 1.60219e-19)
(-0.0100325 0.0070571 -9.49957e-20)
(-0.00606262 0.0105787 -3.35462e-19)
(0.0223976 0.00947864 4.7538e-19)
(0.0752518 0.00539092 -3.34686e-19)
(0.152995 0.000363 8.3551e-20)
(0.255507 -0.00401404 -7.52923e-21)
(0.381267 -0.0065541 3.92279e-19)
(0.526398 -0.00650742 -4.97228e-19)
(0.683945 -0.0037322 1.33814e-18)
(0.844044 0.00121515 2.81096e-19)
(0.995352 0.00700687 -2.6387e-19)
(1.12768 0.0124955 2.36083e-20)
(1.23377 0.0150522 -7.32593e-20)
(1.31215 0.0176396 9.2154e-20)
(1.36053 0.00905997 -6.11451e-19)
(-0.00882924 0.00607665 6.03868e-20)
(-0.000488139 0.00783984 -3.93055e-19)
(0.0343175 0.00564799 -3.68947e-19)
(0.0952079 0.00105434 -2.26378e-19)
(0.182352 -0.00379844 -3.94496e-19)
(0.295022 -0.00726912 -1.9739e-19)
(0.430669 -0.00820641 -5.69706e-19)
(0.583954 -0.00601919 1.9953e-19)
(0.746267 -0.000866777 -9.42805e-19)
(0.906457 0.0063075 -1.85513e-19)
(1.0529 0.0138655 -6.94158e-19)
(1.17632 0.0204547 5.02337e-19)
(1.27131 0.0236959 4.00081e-19)
(1.33815 0.0262103 2.21422e-22)
(1.37715 0.0183505 9.72215e-19)
(-0.00732179 0.00501714 4.79974e-20)
(0.00598362 0.00501785 3.9499e-19)
(0.0477356 0.00188049 5.82237e-19)
(0.117226 -0.00297116 7.62734e-20)
(0.214195 -0.00732828 -2.86891e-19)
(0.337142 -0.00953897 2.53645e-19)
(0.482291 -0.00854592 2.65631e-20)
(0.642692 -0.00399397 -2.73907e-19)
(0.808123 0.00358617 -2.2986e-19)
(0.966476 0.012845 -2.29162e-19)
(1.10635 0.0218834 5.82055e-19)
(1.21983 0.029241 3.82392e-19)
(1.30354 0.032839 -4.59641e-19)
(1.35944 0.0350825 3.42168e-19)
(1.38987 0.0276821 3.26022e-20)
(-0.00548425 0.00388831 1.24159e-19)
(0.0134101 0.00214052 -8.62737e-19)
(0.0627113 -0.00177833 -6.06475e-19)
(0.141329 -0.0066216 -3.48997e-20)
(0.248457 -0.0101481 1.33121e-19)
(0.381645 -0.0107443 3.38176e-19)
(0.535701 -0.00751836 -1.1826e-19)
(0.701971 -0.000434426 2.25015e-19)
(0.868772 0.0095476 5.55539e-19)
(1.02345 0.0206818 1.99554e-19)
(1.15535 0.030882 2.10889e-19)
(1.25824 0.03868 -9.25915e-20)
(1.3308 0.0423418 -2.41954e-19)
(1.37654 0.044149 -7.91499e-19)
(1.39928 0.0369973 -4.33693e-20)
(-0.00329282 0.00270392 -4.60135e-19)
(0.0218423 -0.000753567 9.42251e-19)
(0.0792915 -0.00526753 -1.76593e-19)
(0.167519 -0.00981603 -5.61088e-20)
(0.285038 -0.0121654 -1.93274e-19)
(0.428267 -0.0108006 -3.68749e-19)
(0.590429 -0.00507712 2.57373e-19)
(0.761152 0.00463834 -4.69219e-19)
(0.927543 0.0169198 -1.88005e-19)
(1.07688 0.0296652 -1.35213e-19)
(1.19969 0.040692 -4.29753e-19)
(1.29167 0.0486198 9.24809e-20)
(1.3535 0.052093 3.0113e-19)
(1.38995 0.0533326 4.46191e-20)
(1.40593 0.0462671 -6.30743e-19)
(-0.000725729 0.00148113 1.20986e-19)
(0.0313237 -0.00361633 6.18483e-20)
(0.0975084 -0.00851273 1.15968e-18)
(0.195771 -0.0124596 5.12878e-19)
(0.323801 -0.0132785 2.23604e-19)
(0.476698 -0.00962372 3.81816e-20)
(0.645976 -0.00118852 -6.77544e-19)
(0.819612 0.0111833 7.66445e-19)
(0.983849 0.0255902 4.22097e-20)
(1.12639 0.039642 1.75344e-19)
(1.23933 0.0511588 -1.59843e-19)
(1.3204 0.058933 -4.92779e-19)
(1.37208 0.062008 -7.3212e-19)
(1.4002 0.0625811 9.65856e-19)
(1.41031 0.0554814 1.33586e-19)
(0.00223686 0.000240029 -7.47428e-21)
(0.0418901 -0.00639163 -4.51194e-19)
(0.117378 -0.0114286 -4.34749e-19)
(0.226037 -0.0144475 -3.63449e-19)
(0.36457 -0.0133815 2.48065e-19)
(0.526589 -0.00713632 -1.53732e-19)
(0.701823 0.00416392 4.93607e-19)
(0.876765 0.01914 -3.8672e-19)
(1.03721 0.0354362 1.37446e-19)
(1.17175 0.0504642 -2.88697e-19)
(1.27434 0.0621458 6.26986e-20)
(1.34474 0.0695164 -2.0735e-19)
(1.38701 0.072025 1.98279e-19)
(1.40774 0.0718624 -5.53334e-19)
(1.41285 0.064643 -2.0019e-19)
(0.00561269 -0.0009968 -6.43511e-19)
(0.0535683 -0.00901667 5.7376e-19)
(0.138899 -0.0139213 -7.0917e-20)
(0.258234 -0.0156688 2.585e-19)
(0.407131 -0.0123699 -4.09535e-19)
(0.577558 -0.00327295 3.64255e-19)
(0.757453 0.0109769 -4.18653e-19)
(0.932081 0.0284308 -2.4838e-19)
(1.08725 0.0463303 7.54185e-20)
(1.21286 0.0619932 -2.24229e-19)
(1.30491 0.0735357 -3.25342e-19)
(1.36506 0.0802894 9.07338e-19)
(1.39873 0.0821022 -1.11134e-19)
(1.41301 0.0811592 5.90842e-19)
(1.41389 0.073762 -1.36021e-19)
(0.00941715 -0.00220466 1.20745e-19)
(0.0663751 -0.0114234 -9.37151e-20)
(0.16205 -0.0158919 -5.70475e-19)
(0.292254 -0.0160108 -8.23164e-20)
(0.451234 -0.0101456 7.08163e-19)
(0.629197 0.00201557 -4.96993e-19)
(0.81236 0.0192269 7.33896e-19)
(0.985098 0.0389641 -3.74375e-19)
(1.13369 0.0581451 4.62048e-19)
(1.24973 0.0741035 3.53395e-19)
(1.33126 0.0852309 -2.2988e-19)
(1.38175 0.0911915 -3.50241e-19)
(1.40768 0.0922131 3.94371e-19)
(1.41637 0.0904655 -4.3328e-19)
(1.41373 0.0828526 -2.30041e-19)
(0.013663 -0.00335699 4.41242e-19)
(0.0803165 -0.0135399 -7.17377e-20)
(0.186787 -0.0172379 3.0935e-19)
(0.327954 -0.0153629 -3.77672e-19)
(0.496595 -0.00662144 -8.67555e-19)
(0.681084 0.00875931 1.28038e-19)
(0.866069 0.0288706 -2.01354e-19)
(1.03543 0.0506387 6.75159e-19)
(1.17638 0.0707571 -2.20878e-19)
(1.28243 0.086684 8.0566e-21)
(1.3537 0.0971528 3.06001e-19)
(1.39521 0.10218 2.50973e-19)
(1.41424 0.102343 -5.99258e-19)
(1.41815 0.0997822 3.55026e-19)
(1.41261 0.0919297 4.15263e-19)
(0.0183598 -0.00442565 -1.90976e-19)
(0.0953865 -0.0152913 -9.46009e-20)
(0.213045 -0.017857 -2.91854e-19)
(0.365162 -0.0136206 1.94428e-19)
(0.542903 -0.00172481 3.97983e-19)
(0.732793 0.016968 -4.05828e-20)
(0.918142 0.039848 3.71642e-19)
(1.08278 0.0633481 -3.83408e-19)
(1.21524 0.0840503 4.08464e-19)
(1.31112 0.0996391 -4.34299e-19)
(1.37254 0.10924 4.78896e-19)
(1.40581 0.113224 -4.52078e-19)
(1.41876 0.112488 -1.54141e-19)
(1.41861 0.109114 1.6538e-19)
(1.4107 0.101008 5.51299e-20)
(0.0235135 -0.00538106 1.44792e-19)
(0.111566 -0.0166015 -1.68066e-20)
(0.240737 -0.0176486 -3.79932e-19)
(0.403677 -0.0106881 2.89447e-19)
(0.589826 0.0045999 1.17853e-19)
(0.783906 0.0266313 1.15108e-19)
(0.968196 0.0520849 -1.20151e-19)
(1.12691 0.0769838 -8.42111e-20)
(1.25027 0.0979179 -7.08402e-19)
(1.33602 0.112888 4.35003e-19)
(1.3881 0.121444 -2.79947e-19)
(1.4139 0.124308 -5.86117e-20)
(1.42155 0.122646 9.39035e-19)
(1.41799 0.118469 -7.32185e-19)
(1.40815 0.110098 -5.10035e-19)
(0.029126 -0.00619255 -2.55338e-20)
(0.128823 -0.0173938 2.17689e-19)
(0.269752 -0.0165161 3.61784e-19)
(0.443273 -0.00648122 -4.74935e-20)
(0.63702 0.0123897 -2.67704e-19)
(0.834026 0.0377196 2.75934e-19)
(1.0159 0.0654967 -2.82508e-19)
(1.16769 0.091439 -1.58667e-19)
(1.28154 0.112264 4.67532e-19)
(1.35735 0.126364 3.26992e-19)
(1.4007 0.133733 5.68134e-20)
(1.4198 0.13542 2.36801e-19)
(1.42286 0.132823 -4.89569e-19)
(1.41647 0.127855 3.17595e-19)
(1.40507 0.119211 5.75391e-19)
(0.0351944 -0.00682857 -8.79375e-20)
(0.14711 -0.0175925 -5.97815e-19)
(0.299958 -0.0143693 -3.79059e-19)
(0.483702 -0.000929369 -3.81259e-19)
(0.684134 0.0216626 -2.57025e-19)
(0.882784 0.0501867 1.33051e-19)
(1.06099 0.0799914 4.92063e-19)
(1.20503 0.106611 -1.64339e-19)
(1.30916 0.127003 2.82966e-19)
(1.37537 0.140013 -4.8291e-20)
(1.41066 0.146081 7.48298e-20)
(1.4238 0.146557 -1.31119e-19)
(1.42293 0.143022 5.13455e-20)
(1.41418 0.137276 -7.55727e-20)
(1.40154 0.128353 -2.08271e-19)
(0.0417108 -0.00725708 1.41247e-19)
(0.166367 -0.0171236 6.31043e-19)
(0.331202 -0.0111257 -1.30231e-19)
(0.524702 0.00602276 3.06963e-19)
(0.730822 0.0324176 6.08933e-20)
(0.929844 0.0639716 4.54953e-20)
(1.10326 0.0954731 -2.36475e-19)
(1.23891 0.122402 2.74333e-19)
(1.3333 0.142061 -4.07531e-19)
(1.39035 0.153792 -2.17625e-19)
(1.41825 0.158471 -7.38887e-20)
(1.42614 0.157718 -5.29485e-20)
(1.42193 0.15325 -1.98217e-19)
(1.41125 0.146739 -2.83562e-20)
(1.39762 0.137528 9.92171e-20)
(0.048662 -0.00744597 -4.45145e-20)
(0.186518 -0.0159167 2.78366e-20)
(0.363315 -0.00671249 3.59658e-19)
(0.565995 0.0144143 3.48679e-19)
(0.77675 0.0446359 1.4544e-19)
(0.974914 0.0790018 -2.5432e-19)
(1.14255 0.111844 8.27208e-20)
(1.26936 0.138722 2.17038e-19)
(1.35412 0.157374 -3.25923e-20)
(1.40254 0.167667 4.08284e-20)
(1.42374 0.170894 8.51902e-20)
(1.42704 0.168905 2.42054e-20)
(1.42 0.16351 -1.94087e-19)
(1.40776 0.156246 -7.55961e-21)
(1.39335 0.146734 2.21792e-19)
(0.0560292 -0.00736347 2.90867e-20)
(0.207474 -0.0139057 -1.20245e-19)
(0.39611 -0.00106802 -2.04866e-19)
(0.607301 0.0242675 -4.12067e-19)
(0.8216 0.0582819 -4.42036e-20)
(1.01774 0.0951952 1.99106e-19)
(1.17876 0.129007 -1.0303e-19)
(1.29646 0.155487 -2.67527e-19)
(1.37183 0.172887 -2.48028e-19)
(1.41219 0.181611 1.16296e-19)
(1.42736 0.183341 -6.43139e-20)
(1.42667 0.180117 -3.07408e-19)
(1.41728 0.173806 3.00951e-19)
(1.40376 0.165795 3.06279e-19)
(1.38874 0.155971 -1.51531e-19)
(0.063788 -0.00697869 1.27145e-20)
(0.229134 -0.0110301 -2.35596e-19)
(0.429386 0.00585724 1.02877e-19)
(0.648337 0.035588 1.95816e-19)
(0.865077 0.0733051 3.93741e-20)
(1.05812 0.112463 -9.44432e-21)
(1.21184 0.146867 1.20209e-19)
(1.3203 0.17262 9.52832e-20)
(1.38663 0.188551 1.28602e-20)
(1.41952 0.195602 -8.29663e-20)
(1.42933 0.195806 1.16029e-20)
(1.42521 0.191356 1.17417e-19)
(1.41385 0.184135 -1.11084e-19)
(1.39932 0.175386 -8.4247e-20)
(1.38382 0.165233 -1.38789e-19)
(0.0719084 -0.00626211 1.6067e-19)
(0.251383 -0.00723644 2.20772e-20)
(0.462935 0.0140995 2.10745e-20)
(0.688825 0.0483645 -5.41442e-20)
(0.906913 0.089642 -2.19939e-19)
(1.09588 0.130711 4.0703e-20)
(1.24178 0.16533 -4.24321e-20)
(1.34101 0.190053 1.08843e-19)
(1.39871 0.204327 2.60263e-19)
(1.42476 0.209623 -3.71609e-22)
(1.42981 0.208286 9.93429e-20)
(1.42276 0.202621 -1.5885e-20)
(1.40978 0.194497 4.32906e-20)
(1.39445 0.185011 -1.095e-19)
(1.3786 0.174511 1.315e-19)
(0.0803551 -0.00518615 -3.14416e-20)
(0.274097 -0.00247906 1.34355e-20)
(0.496541 0.023681 6.29672e-20)
(0.728497 0.06257 3.58509e-20)
(0.946869 0.107218 -1.53436e-19)
(1.1309 0.149844 2.96249e-20)
(1.2686 0.184309 -1.5927e-19)
(1.35872 0.207721 2.64627e-20)
(1.40827 0.220179 -1.16507e-19)
(1.42809 0.223657 3.13128e-20)
(1.42896 0.220774 -3.93742e-20)
(1.41943 0.213907 1.41136e-19)
(1.40513 0.204885 6.65658e-20)