/*--------------------------------*- C++ -*----------------------------------*\
  =========                 |
  \\      /  F ield         | OpenFOAM: The Open Source CFD Toolbox
   \\    /   O peration     | Website:  https://openfoam.org
    \\  /    A nd           | Version:  7
     \\/     M anipulation  |
\*---------------------------------------------------------------------------*/
FoamFile
{
    version     2.0;
    format      ascii;
    class       volScalarField;
    location    "20";
    object      p;
}
// * * * * * * * * * * * * * * * * * * * * * * * * * * * * * * * * * * * * * //

dimensions      [0 2 -2 0 0 0 0];

internalField   nonuniform List<scalar> 
4575
(
0.243216
0.252534
0.261653
0.276398
0.270563
0.285611
0.279254
0.294591
0.287715
0.303325
0.295937
0.320553
0.311803
0.303908
0.329241
0.320011
0.311618
0.337634
0.327938
0.319057
0.345717
0.335572
0.326215
0.363696
0.353479
0.342901
0.333081
0.371602
0.360908
0.349915
0.339647
0.379142
0.367992
0.356602
0.345902
0.386304
0.374721
0.362953
0.351837
0.393076
0.381082
0.368957
0.357446
0.411811
0.399448
0.387068
0.374605
0.362718
0.418163
0.40541
0.392667
0.379888
0.367647
0.424068
0.410952
0.397871
0.384798
0.372225
0.429516
0.416064
0.402671
0.389328
0.376446
0.434499
0.420738
0.407061
0.393469
0.380303
0.439007
0.424968
0.411032
0.397215
0.383791
0.443033
0.428745
0.414578
0.40056
0.386905
0.446572
0.432064
0.417694
0.403499
0.389639
0.449615
0.434919
0.420375
0.406027
0.391991
0.45216
0.437305
0.422615
0.40814
0.393956
0.4542
0.439219
0.424412
0.409835
0.395531
0.470928
0.455734
0.440657
0.425762
0.411108
0.396715
0.472019
0.456758
0.441618
0.426663
0.411958
0.397505
0.472565
0.45727
0.442098
0.427114
0.412384
0.397901
0.472565
0.45727
0.442098
0.427114
0.412384
0.397901
0.472019
0.456758
0.441618
0.426663
0.411958
0.397505
0.470927
0.455734
0.440657
0.425762
0.411108
0.396715
0.4542
0.439219
0.424412
0.409835
0.395531
0.45216
0.437305
0.422615
0.40814
0.393956
0.449615
0.434919
0.420375
0.406027
0.391991
0.446571
0.432064
0.417694
0.403499
0.389639
0.443033
0.428745
0.414578
0.40056
0.386904
0.439007
0.424968
0.411032
0.397214
0.383791
0.434498
0.420738
0.40706
0.393468
0.380303
0.429516
0.416063
0.402671
0.389327
0.376445
0.424068
0.410951
0.39787
0.384798
0.372225
0.418163
0.40541
0.392666
0.379888
0.367646
0.411811
0.399448
0.387067
0.374604
0.362717
0.393075
0.381082
0.368956
0.357445
0.386303
0.37472
0.362952
0.351837
0.379141
0.367992
0.356601
0.345901
0.371601
0.360907
0.349914
0.339646
0.363695
0.353479
0.3429
0.33308
0.345716
0.335571
0.326214
0.337633
0.327937
0.319057
0.32924
0.32001
0.311617
0.320552
0.311802
0.303907
0.303324
0.295936
0.294589
0.287714
0.285609
0.279253
0.270562
0.261652
0.252533
0.110935
0.112221
0.114667
0.118112
0.122414
0.127491
0.133211
0.139507
0.146221
0.153266
0.160428
0.167576
0.174395
0.180697
0.186019
0.190128
0.192344
0.192482
0.189499
0.183551
0.172766
0.109882
0.111117
0.113456
0.116746
0.120836
0.125639
0.131013
0.13688
0.143071
0.149484
0.155893
0.16215
0.167934
0.173045
0.177028
0.179659
0.180295
0.178789
0.174218
0.16676
0.155014
0.108741
0.10992
0.112144
0.115266
0.119128
0.123636
0.128643
0.13406
0.139707
0.145473
0.151119
0.156492
0.161265
0.165247
0.167992
0.16931
0.168606
0.1658
0.160111
0.151796
0.139922
0.107508
0.108626
0.110729
0.113672
0.117293
0.121494
0.126119
0.13107
0.136162
0.141269
0.146151
0.150648
0.154438
0.157335
0.158922
0.159032
0.157152
0.153231
0.146684
0.137752
0.125898
0.106181
0.107236
0.10921
0.111966
0.115338
0.119221
0.123455
0.127932
0.132462
0.136913
0.141041
0.144685
0.147535
0.149413
0.149941
0.148972
0.146086
0.141248
0.134056
0.124702
0.112905
0.104759
0.105747
0.107589
0.110151
0.113265
0.116821
0.120657
0.124655
0.128624
0.132425
0.135819
0.138644
0.140609
0.141545
0.141126
0.139217
0.135498
0.12994
0.122293
0.112711
0.101081
0.103241
0.104159
0.105865
0.108226
0.111076
0.114299
0.117731
0.121249
0.124662
0.127825
0.130511
0.132556
0.133699
0.133777
0.132521
0.12981
0.125414
0.119315
0.111377
0.101738
0.0903996
0.101626
0.102473
0.104038
0.106194
0.108775
0.11166
0.114687
0.117727
0.120592
0.123136
0.125144
0.126456
0.126841
0.126148
0.124161
0.120779
0.115846
0.109359
0.101269
0.0917071
0.0807493
0.0999148
0.100687
0.102109
0.104055
0.106364
0.108911
0.111534
0.114101
0.116432
0.118379
0.119745
0.120375
0.120069
0.118693
0.116078
0.112145
0.1068
0.100056
0.0919263
0.0825399
0.0720159
0.0981072
0.0988037
0.10008
0.101815
0.10385
0.106057
0.10828
0.110385
0.112199
0.113577
0.11434
0.114341
0.113414
0.11144
0.108295
0.103921
0.0982742
0.0913833
0.0833047
0.0741638
0.0641046
0.0962038
0.0968233
0.0979528
0.0994743
0.101236
0.103107
0.104938
0.106592
0.107911
0.108751
0.108953
0.108382
0.106902
0.104412
0.100828
0.0961119
0.0902594
0.0833123
0.0753561
0.0665109
0.0569336
0.094206
0.0947479
0.0957302
0.0970389
0.0985284
0.100069
0.101517
0.102738
0.103584
0.10392
0.103606
0.10252
0.100555
0.0976277
0.0936886
0.0887177
0.0827413
0.0758117
0.0680327
0.0595174
0.0504278
0.0921156
0.0925797
0.0934153
0.0945128
0.0957344
0.096952
0.0980291
0.0988358
0.0992366
0.0991046
0.0983195
0.0967755
0.0943895
0.0910992
0.0868807
0.0817321
0.0757011
0.0688481
0.0612874
0.0531237
0.0445181
0.089935
0.0903217
0.0910119
0.0919014
0.0928607
0.0937647
0.0944857
0.0948994
0.0948834
0.0943215
0.0931121
0.0911653
0.0884209
0.0848348
0.0804052
0.075145
0.0691174
0.0623875
0.0550746
0.047274
0.039142
0.087667
0.0879772
0.0885243
0.0892103
0.0899146
0.0905168
0.0908984
0.0909425
0.0905402
0.0895871
0.0879995
0.0857036
0.0826592
0.0788388
0.0742587
0.0689435
0.0629669
0.0563961
0.049351
0.0419172
0.0342435
0.085315
0.0855502
0.0859574
0.0864457
0.0869039
0.0872177
0.0872785
0.0869781
0.0862211
0.0849159
0.0829953
0.0804014
0.0771113
0.0731125
0.0684349
0.0631124
0.0572252
0.0508405
0.0440757
0.0370065
0.0297729
0.0828831
0.0830452
0.0833167
0.0836143
0.0838368
0.0838773
0.0836374
0.0830189
0.0819394
0.0803207
0.0781111
0.0752673
0.0717816
0.0676539
0.0629249
0.0576352
0.051868
0.0456889
0.0392108
0.0324997
0.025686
0.0803757
0.0804672
0.0806079
0.0807231
0.0807217
0.0805052
0.0799859
0.0790764
0.077707
0.0758128
0.0733562
0.0703076
0.0666717
0.0624592
0.0577184
0.0524943
0.0468708
0.0409108
0.0347211
0.0283585
0.0219437
0.077798
0.0778218
0.0778374
0.0777794
0.0775669
0.077111
0.0763348
0.0751618
0.0735349
0.071402
0.0687382
0.0655263
0.0617812
0.0575224
0.0528033
0.0476717
0.0422101
0.0364776
0.0305745
0.0245487
0.0185114
0.0751553
0.0751148
0.0750118
0.0747906
0.0743811
0.0737043
0.072694
0.0712851
0.0694324
0.0670961
0.0642626
0.0609254
0.0571079
0.0528363
0.0481672
0.0431493
0.0378629
0.0323626
0.0267413
0.0210395
0.0153586
0.0724537
0.0723526
0.0721381
0.0717647
0.0711729
0.0702942
0.0690731
0.0674557
0.0654082
0.0629019
0.0599334
0.0565054
0.0526481
0.0483924
0.0437967
0.0389096
0.0338075
0.0285407
0.0231949
0.017803
0.0124581
0.0696996
0.0695419
0.0692236
0.0687095
0.0679508
0.0668896
0.0654809
0.063682
0.0614692
0.0588245
0.0557531
0.0522655
0.0483968
0.0441817
0.0396785
0.034935
0.0300233
0.024989
0.0199106
0.0148148
0.00978602
0.0668997
0.0666897
0.0662757
0.065633
0.0647231
0.063499
0.0619259
0.0599715
0.0576218
0.0548681
0.051723
0.0482035
0.0443484
0.0401944
0.0357994
0.0312091
0.026491
0.0216863
0.0168664
0.0120524
0.00732115
0.0640611
0.0638033
0.0633022
0.062543
0.061498
0.0601306
0.0584156
0.0563307
0.0538708
0.0510353
0.0478431
0.0443164
0.0404962
0.0364207
0.0321461
0.0277158
0.0231926
0.0186131
0.0140422
0.00949617
0.00504463
0.0611913
0.0608902
0.0603106
0.0594477
0.0582835
0.0567919
0.054957
0.0527656
0.0502204
0.0473281
0.0441127
0.0406003
0.0368334
0.0328506
0.0287058
0.02444
0.020111
0.0157514
0.0114198
0.00712816
0.00293969
0.0582976
0.0579581
0.0573088
0.0563547
0.0550873
0.0534903
0.0515564
0.0492811
0.0466737
0.0437474
0.04053
0.0370508
0.0333527
0.0294741
0.0254663
0.0213675
0.0172309
0.013085
0.00898264
0.00493239
0.000991345
0.055388
0.0550146
0.0543047
0.0532718
0.0519167
0.0502324
0.0482197
0.0458815
0.0432333
0.0402934
0.0370928
0.0336629
0.0300466
0.0262814
0.0224157
0.0184849
0.0145375
0.0105987
0.00671583
0.00289446
-0.000813795
0.0524702
0.0520678
0.0513059
0.0502064
0.0487788
0.0470245
0.0449518
0.0425703
0.0399007
0.0369656
0.0337984
0.0304317
0.0269078
0.023263
0.0195428
0.0157796
0.0120177
0.00827891
0.00460581
0.0010014
-0.00248774
0.049552
0.0491252
0.04832
0.0471658
0.0456801
0.0438724
0.0417572
0.0393505
0.0366771
0.0337631
0.0306435
0.0273517
0.0239289
0.0204098
0.0168369
0.01324
0.00965907
0.00611314
0.00264028
-0.000758516
-0.0040413
0.0466415
0.0461947
0.0453545
0.0441571
0.0426271
0.0407812
0.03864
0.0362245
0.033563
0.0306845
0.0276247
0.0244175
0.0211025
0.0177129
0.0142881
0.0108551
0.00745027
0.00408992
0.000808096
-0.00239586
-0.00548421
0.0437462
0.0432839
0.0424167
0.0411869
0.0396256
0.0377559
0.0356037
0.0331941
0.0305586
0.0277279
0.0247384
0.0216236
0.0184217
0.015164
0.0118868
0.00861492
0.00538087
0.00219884
-0.000900891
-0.00392022
-0.00682527
0.040874
0.0404002
0.0395135
0.0382616
0.0366811
0.0348009
0.0326511
0.0302608
0.0276634
0.0248913
0.0219808
0.0189648
0.0158797
0.0127552
0.00962442
0.00651004
0.00344129
0.000430332
-0.0024959
-0.00534028
-0.00807246
0.0380322
0.0375508
0.0366518
0.0353872
0.0337987
0.03192
0.029785
0.0274256
0.0248771
0.0221725
0.019348
0.0164357
0.0134701
0.0104788
0.00749265
0.00453186
0.00162273
-0.0012243
-0.00398532
-0.00666394
-0.00923301
0.0352281
0.0347427
0.033838
0.0325696
0.0309832
0.0291168
0.0270074
0.0246892
0.0221986
0.0195692
0.0168364
0.0140313
0.0111866
0.00832808
0.00548388
0.00267239
-8.28815e-05
-0.002773
-0.0053768
-0.00789837
-0.0103135
0.0324688
0.0319827
0.0310783
0.029814
0.028239
0.0263946
0.0243202
0.0220521
0.019627
0.0170788
0.014442
0.0117467
0.00902338
0.00629629
0.00359105
0.000924307
-0.00168294
-0.00422304
-0.00667729
-0.00905009
-0.0113199
0.0297608
0.029277
0.0283785
0.0271255
0.02557
0.0237561
0.0217251
0.0195144
0.0171612
0.014699
0.0121615
0.00957719
0.00697499
0.00437733
0.00180761
-0.000719153
-0.00318422
-0.00558104
-0.00789312
-0.010125
-0.0122576
0.0271106
0.0266319
0.025744
0.0245088
0.02298
0.0212038
0.0192231
0.0170761
0.0147998
0.0124274
0.00999105
0.00751839
0.00503627
0.00256554
0.000127536
-0.00226418
-0.00459291
-0.00685305
-0.00903008
-0.0111286
-0.0131317
0.0245242
0.024053
0.02318
0.021968
0.0204721
0.0187401
0.0168155
0.0147371
0.0125415
0.0102613
0.00792747
0.00556611
0.00320238
0.000855627
-0.00145474
-0.00371646
-0.00591467
-0.00804456
-0.0100934
-0.0120657
-0.0139466
0.0220073
0.0215456
0.0206912
0.0195072
0.0180495
0.0163667
0.0145029
0.012497
0.010385
0.00819866
0.00596751
0.00371644
0.00146888
-0.000757262
-0.0029443
-0.00508117
-0.00715465
-0.00916059
-0.0110879
-0.0129408
-0.0147064
0.0195652
0.0191147
0.0182821
0.0171301
0.0157148
0.0140854
0.0122861
0.0103555
0.00832895
0.00623706
0.00410814
0.00196572
-0.000168391
-0.0022776
-0.00434583
-0.00636307
-0.00831754
-0.0102057
-0.0120178
-0.013758
-0.0154149
0.0172028
0.016765
0.0159567
0.0148398
0.0134704
0.0118977
0.0101656
0.00831216
0.00637191
0.0043744
0.00234654
0.000310572
-0.00171323
-0.00370949
-0.00566358
-0.00756644
-0.0094076
-0.011184
-0.0128871
-0.0145209
-0.0160754
0.0149247
0.0145007
0.0137187
0.0126395
0.0113187
0.0098049
0.00814168
0.00636646
0.00451263
0.00260865
0.000680073
-0.00125214
-0.00316913
-0.00505667
-0.00690143
-0.00869521
-0.0104287
-0.0120992
-0.0136994
-0.0152328
-0.0166911
0.012735
0.0123258
0.0115716
0.010532
0.00926142
0.00780812
0.00621475
0.00451792
0.00274987
0.000937939
-0.000893695
-0.00272528
-0.00453928
-0.00632252
-0.00806289
-0.0097529
-0.0113843
-0.0129547
-0.0144577
-0.0158968
-0.0172645
0.0106377
0.0102438
0.00951844
0.00851958
0.00730048
0.00590839
0.00438504
0.00276604
0.00108249
-0.000639471
-0.00237698
-0.00411143
-0.00582655
-0.00751012
-0.0091511
-0.0107427
-0.0122775
-0.0137535
-0.0151651
-0.0165155
-0.0177983
0.00863629
0.00825815
0.00756219
0.0066047
0.00543747
0.00410662
0.00265275
0.0011104
-0.000490553
-0.00212515
-0.00377177
-0.00541294
-0.00703352
-0.00862219
-0.0101689
-0.0116674
-0.0131111
-0.0144982
-0.015824
-0.0170912
-0.0182945
0.00673412
0.00637183
0.00570548
0.00478944
0.00367389
0.00240366
0.0010181
-0.000449402
-0.0019702
-0.00352048
-0.00507985
-0.00663188
-0.00816248
-0.00966116
-0.0111187
-0.0125294
-0.0138875
-0.0151913
-0.0164366
-0.0176261
-0.0187551
0.00493421
0.00458772
0.00395077
0.00307576
0.00201116
0.00080033
-0.000518674
-0.00191366
-0.00335721
-0.00482666
-0.00630276
-0.00777005
-0.00921544
-0.0106292
-0.0120028
-0.0133311
-0.014609
-0.0158348
-0.017005
-0.018122
-0.0191819
0.00323945
0.0029085
0.00230042
0.00146557
0.000450633
-0.00070253
-0.00195725
-0.00328255
-0.00465223
-0.0060447
-0.00744179
-0.00882898
-0.0101941
-0.011528
-0.012823
-0.0140743
-0.0152772
-0.0164304
-0.0175308
-0.0185805
-0.0195762
0.00165259
0.00133673
0.000756667
-3.92933e-05
-0.0010063
-0.00210403
-0.00329722
-0.00455611
-0.00585566
-0.00717533
-0.00849799
-0.00980994
-0.0110998
-0.0123592
-0.0135809
-0.0147605
-0.0158939
-0.0169797
-0.0180155
-0.0190028
-0.0199393
0.000176314
-0.000125037
-0.000678232
-0.00143696
-0.00235819
-0.00340318
-0.00453802
-0.00573417
-0.0069677
-0.00821908
-0.00947211
-0.0107139
-0.0119338
-0.0131239
-0.0142777
-0.015391
-0.0164602
-0.0174839
-0.0184601
-0.0193902
-0.0202721
-0.00118669
-0.00147427
-0.00200199
-0.00272548
-0.0036035
-0.00459881
-0.00567889
-0.00681634
-0.0079883
-0.00917616
-0.0103646
-0.0115414
-0.0126967
-0.0138231
-0.0149144
-0.0159669
-0.0169771
-0.017944
-0.0188656
-0.0197433
-0.0205755
-0.00243361
-0.00270829
-0.00321218
-0.00390275
-0.00474046
-0.00568956
-0.00671882
-0.00780195
-0.00891709
-0.0100465
-0.0111756
-0.0122929
-0.0133891
-0.0144572
-0.0154916
-0.0164886
-0.0174453
-0.0183605
-0.0192327
-0.020063
-0.02085
-0.00356148
-0.00382425
-0.00430616
-0.0049664
-0.00576704
-0.00667374
-0.00765647
-0.00868998
-0.00975334
-0.0108296
-0.0119049
-0.0129683
-0.014011
-0.0150265
-0.0160095
-0.0169567
-0.0178652
-0.018734
-0.0195618
-0.0203494
-0.021096
-0.00456699
-0.00481897
-0.00528095
-0.00591374
-0.00668086
-0.00754928
-0.00849011
-0.00947902
-0.0104959
-0.0115245
-0.0125517
-0.013567
-0.0145621
-0.0155308
-0.0164682
-0.017371
-0.0182367
-0.0190644
-0.0198528
-0.0206027
-0.0213136
-0.00544644
-0.00568884
-0.00613315
-0.00674161
-0.00747906
-0.00831365
-0.0092175
-0.0101671
-0.0111432
-0.01213
-0.013115
-0.0140882
-0.0150416
-0.0159694
-0.016867
-0.0177311
-0.0185597
-0.0193515
-0.0201057
-0.0208229
-0.0215026
-0.00619554
-0.00642968
-0.00685876
-0.00744626
-0.00815819
-0.00896372
-0.00983584
-0.0107518
-0.0116929
-0.0126441
-0.0135931
-0.0145303
-0.0154483
-0.0163413
-0.017205
-0.0180364
-0.0188333
-0.0195948
-0.02032
-0.0210093
-0.0216628
-0.00680927
-0.00703657
-0.00745306
-0.00802322
-0.00871407
-0.00949561
-0.0103416
-0.0112299
-0.0121423
-0.0130641
-0.0139836
-0.0148914
-0.0157804
-0.0166449
-0.0174809
-0.0182854
-0.0190565
-0.0197932
-0.0204947
-0.0211615
-0.0217935
-0.00728169
-0.00750369
-0.00791039
-0.0084671
-0.00914159
-0.00990456
-0.0107303
-0.0115973
-0.0124875
-0.0133867
-0.0142834
-0.0151686
-0.0160352
-0.0168779
-0.0176926
-0.0184765
-0.0192278
-0.0199454
-0.0206288
-0.0212781
-0.0218936
-0.00760571
-0.00782407
-0.00822402
-0.00877141
-0.00943459
-0.0101848
-0.0109966
-0.0118489
-0.0127239
-0.0136076
-0.0144887
-0.0153584
-0.0162097
-0.0170373
-0.0178374
-0.0186073
-0.019345
-0.0200496
-0.0207205
-0.021358
-0.0219623
-0.0077728
-0.00798934
-0.00838581
-0.00892834
-0.00958561
-0.0103291
-0.0111338
-0.0119785
-0.0128457
-0.0137214
-0.0145945
-0.0154561
-0.0162995
-0.0171194
-0.017912
-0.0186746
-0.0194053
-0.0201032
-0.0207678
-0.0213991
-0.0219976
0.117785
0.11915
0.121821
0.125595
0.130384
0.136162
0.142826
0.150438
0.15889
0.168305
0.178552
0.189812
0.201914
0.215099
0.229146
0.24435
0.260427
0.277736
0.295876
0.315329
0.335441
0.356993
0.378738
0.117776
0.119141
0.121812
0.125586
0.130374
0.136152
0.142815
0.150425
0.158875
0.168288
0.178531
0.189786
0.201883
0.215059
0.229096
0.244287
0.260346
0.277634
0.295746
0.315165
0.335232
0.356732
0.378408
0.11776
0.119124
0.121794
0.125568
0.130355
0.136131
0.142792
0.150399
0.158845
0.168253
0.178489
0.189735
0.201819
0.214979
0.228995
0.24416
0.260184
0.277429
0.295484
0.314836
0.334814
0.356211
0.377747
0.117735
0.119099
0.121768
0.12554
0.130326
0.1361
0.142757
0.15036
0.1588
0.1682
0.178426
0.189658
0.201723
0.21486
0.228844
0.24397
0.259941
0.277122
0.295093
0.314343
0.334187
0.355429
0.376757
0.117701
0.119065
0.121733
0.125504
0.130288
0.136058
0.142711
0.150308
0.158741
0.16813
0.178342
0.189555
0.201596
0.214701
0.228643
0.243716
0.259617
0.276713
0.294571
0.313687
0.333352
0.354389
0.375439
0.11766
0.119023
0.121689
0.125458
0.130239
0.136006
0.142654
0.150244
0.158667
0.168042
0.178237
0.189427
0.201437
0.214502
0.228391
0.243399
0.259213
0.276203
0.293919
0.312867
0.33231
0.35309
0.373795
0.11761
0.118972
0.121637
0.125404
0.130182
0.135944
0.142585
0.150166
0.158578
0.167937
0.178111
0.189273
0.201246
0.214264
0.22809
0.243019
0.258728
0.275591
0.293138
0.311884
0.331062
0.351535
0.371827
0.117552
0.118913
0.121576
0.12534
0.130115
0.135872
0.142505
0.150076
0.158474
0.167815
0.177964
0.189094
0.201024
0.213987
0.227739
0.242577
0.258163
0.274877
0.292228
0.31074
0.329609
0.349725
0.369536
0.117486
0.118845
0.121506
0.125267
0.130038
0.135789
0.142413
0.149973
0.158356
0.167676
0.177797
0.188889
0.20077
0.21367
0.227338
0.242072
0.257519
0.274064
0.291189
0.309435
0.327951
0.347661
0.366926
0.117411
0.118769
0.121428
0.125185
0.129952
0.135696
0.142311
0.149857
0.158223
0.167519
0.177609
0.18866
0.200486
0.213315
0.226888
0.241504
0.256795
0.27315
0.290023
0.30797
0.326091
0.345347
0.364
0.117329
0.118685
0.121341
0.125095
0.129856
0.135592
0.142197
0.149729
0.158076
0.167345
0.177401
0.188405
0.20017
0.21292
0.226389
0.240875
0.255992
0.272136
0.288731
0.306347
0.324031
0.342784
0.360762
0.117238
0.118593
0.121245
0.124995
0.129751
0.135479
0.142072
0.149588
0.157914
0.167155
0.177172
0.188125
0.199823
0.212487
0.225841
0.240184
0.25511
0.271024
0.287312
0.304566
0.321771
0.339975
0.357215
0.117139
0.118492
0.121142
0.124887
0.129636
0.135355
0.141936
0.149435
0.157738
0.166947
0.176923
0.187821
0.199446
0.212015
0.225244
0.239431
0.254151
0.269813
0.285769
0.302629
0.319314
0.336923
0.353364
0.117032
0.118383
0.121029
0.12477
0.129512
0.135222
0.14179
0.14927
0.157548
0.166723
0.176654
0.187492
0.199038
0.211506
0.2246
0.238618
0.253114
0.268505
0.284102
0.300537
0.316663
0.333631
0.349214
0.116917
0.118266
0.120909
0.124645
0.129376
0.135078
0.141632
0.149092
0.157344
0.166482
0.176366
0.187139
0.1986
0.210958
0.223907
0.237744
0.252
0.2671
0.282312
0.298292
0.313819
0.330103
0.34477
0.116794
0.118141
0.12078
0.124511
0.129233
0.134924
0.141464
0.148903
0.157126
0.166225
0.176057
0.186761
0.198132
0.210372
0.223167
0.236811
0.25081
0.265599
0.2804
0.295896
0.310785
0.326342
0.340037
0.116663
0.118008
0.120643
0.12437
0.129098
0.13476
0.141285
0.148701
0.156895
0.165952
0.17573
0.18636
0.197635
0.20975
0.22238
0.235817
0.249544
0.264003
0.278368
0.293351
0.307564
0.322352
0.335021
0.116524
0.117866
0.120497
0.124219
0.128933
0.134587
0.141096
0.148488
0.15665
0.165663
0.175383
0.185935
0.197108
0.20909
0.221547
0.234765
0.248203
0.262313
0.276216
0.290657
0.304157
0.318138
0.329727
0.116377
0.117717
0.120344
0.12406
0.128762
0.134405
0.140897
0.148263
0.156391
0.165358
0.175016
0.185486
0.196552
0.208393
0.220667
0.233653
0.246788
0.260529
0.273947
0.287819
0.300569
0.313703
0.324164
0.116222
0.117561
0.120183
0.123892
0.128584
0.134214
0.140687
0.148026
0.15612
0.165037
0.174631
0.185014
0.195967
0.207661
0.219741
0.232484
0.2453
0.258654
0.271562
0.284836
0.296803
0.309052
0.318337
0.11606
0.117396
0.120013
0.123716
0.128399
0.134013
0.140467
0.147779
0.155835
0.164701
0.174228
0.184519
0.195354
0.206892
0.21877
0.231257
0.24374
0.256686
0.269062
0.281712
0.29286
0.304189
0.312253
0.11589
0.117224
0.119836
0.123531
0.128204
0.133804
0.140237
0.14752
0.155537
0.164349
0.173806
0.184002
0.194712
0.206087
0.217755
0.229973
0.242107
0.254629
0.266449
0.278449
0.288745
0.29912
0.30592
0.115712
0.117044
0.119652
0.123336
0.128001
0.133585
0.139998
0.14725
0.155227
0.163982
0.173365
0.183462
0.194043
0.205247
0.216695
0.228633
0.240404
0.252482
0.263724
0.275049
0.284461
0.29385
0.299345
0.115526
0.116856
0.11946
0.123138
0.127789
0.133358
0.139748
0.146969
0.154904
0.163601
0.172907
0.1829
0.193346
0.204373
0.215591
0.227237
0.238631
0.250247
0.260889
0.271514
0.280011
0.288383
0.292536
0.115333
0.116662
0.11926
0.122939
0.127569
0.133122
0.13949
0.146677
0.154569
0.163205
0.172432
0.182316
0.192622
0.203464
0.214444
0.225785
0.236788
0.247925
0.257946
0.267847
0.275399
0.282725
0.285501
0.115133
0.116459
0.119053
0.12272
0.127342
0.132878
0.139221
0.146375
0.154221
0.162795
0.171938
0.181711
0.191871
0.20252
0.213255
0.224279
0.234878
0.245517
0.254896
0.264051
0.270628
0.276882
0.278248
0.114925
0.11625
0.118838
0.122495
0.127107
0.132625
0.138944
0.146063
0.153862
0.16237
0.171428
0.181084
0.191094
0.201544
0.212023
0.222719
0.232901
0.243024
0.251743
0.260126
0.265702
0.270859
0.270785
0.11471
0.116033
0.118614
0.122264
0.126864
0.132364
0.138658
0.14574
0.153491
0.161932
0.170901
0.180437
0.190291
0.200534
0.21075
0.221106
0.230857
0.240446
0.248486
0.256077
0.260625
0.264661
0.263119
0.114487
0.115809
0.118382
0.122026
0.126613
0.132095
0.138363
0.145408
0.153109
0.16148
0.170358
0.179769
0.189462
0.199492
0.209435
0.21944
0.228748
0.237786
0.245129
0.251904
0.2554
0.258295
0.255259
0.114258
0.115579
0.118153
0.121781
0.126355
0.131818
0.138059
0.145066
0.152715
0.161015
0.169798
0.179081
0.188608
0.198417
0.20808
0.217722
0.226575
0.235045
0.241674
0.247612
0.250031
0.251767
0.247212
0.114021
0.115341
0.117908
0.121529
0.12609
0.131533
0.137747
0.144715
0.152311
0.160537
0.169222
0.178373
0.187729
0.19731
0.206685
0.215953
0.224339
0.232222
0.238122
0.2432
0.244522
0.245082
0.238985
0.113777
0.115096
0.117656
0.12127
0.125818
0.131241
0.137426
0.144354
0.151895
0.160046
0.168631
0.177645
0.186825
0.196173
0.205251
0.214132
0.22204
0.22932
0.234475
0.238673
0.238877
0.238245
0.230585
0.113526
0.114845
0.117399
0.121004
0.125538
0.130941
0.137097
0.143984
0.151469
0.159542
0.168024
0.176899
0.185897
0.195004
0.203777
0.212262
0.219679
0.226339
0.230736
0.23403
0.2331
0.231263
0.222018
0.113269
0.114586
0.117135
0.120731
0.125252
0.130634
0.136761
0.143605
0.151033
0.159026
0.167402
0.176134
0.184946
0.193805
0.202265
0.210343
0.217258
0.223281
0.226907
0.229275
0.227196
0.224141
0.213287
0.113004
0.114324
0.116865
0.120452
0.124959
0.13032
0.136416
0.143218
0.150587
0.158498
0.166765
0.17535
0.18397
0.192576
0.200715
0.208375
0.214776
0.220146
0.222989
0.224408
0.221168
0.21688
0.112733
0.114052
0.116588
0.120167
0.124658
0.129997
0.136063
0.14282
0.150128
0.157956
0.166111
0.174544
0.182967
0.191313
0.199122
0.206353
0.21223
0.216931
0.21898
0.219428
0.215021
0.209485
0.112455
0.113774
0.116305
0.119875
0.124352
0.129668
0.135702
0.142413
0.14966
0.157401
0.165441
0.173719
0.18194
0.190018
0.197489
0.204283
0.209624
0.213642
0.214889
0.214344
0.20877
0.201971
0.11217
0.113491
0.116019
0.119581
0.124045
0.129342
0.135346
0.142015
0.149202
0.156859
0.164786
0.17291
0.180928
0.188737
0.195866
0.202213
0.207008
0.210328
0.210757
0.209193
0.20244
0.194361
0.111882
0.113204
0.115729
0.119286
0.123742
0.129023
0.135003
0.141635
0.148768
0.156348
0.164167
0.172139
0.179956
0.187492
0.194268
0.200154
0.204377
0.206964
0.206534
0.203887
0.195909
0.186482
0.111583
0.112902
0.115416
0.118957
0.123388
0.128634
0.134568
0.141135
0.148183
0.155648
0.163318
0.171094
0.17866
0.18587
0.192242
0.197612
0.201219
0.203027
0.201728
0.197967
0.188844
0.111583
0.112902
0.115416
0.118957
0.123388
0.128634
0.134568
0.141135
0.148183
0.155648
0.163318
0.171093
0.178659
0.185869
0.192241
0.197611
0.201218
0.203026
0.201726
0.197965
0.188842
0.111882
0.113204
0.115729
0.119286
0.123742
0.129023
0.135003
0.141635
0.148768
0.156348
0.164166
0.172139
0.179955
0.187492
0.194268
0.200153
0.204376
0.206963
0.206533
0.203885
0.195907
0.18648
0.11217
0.113491
0.116019
0.119581
0.124045
0.129342
0.135346
0.142015
0.149202
0.156859
0.164786
0.172909
0.180928
0.188737
0.195865
0.202213
0.207007
0.210327
0.210756
0.209191
0.202439
0.194359
0.112455
0.113774
0.116305
0.119875
0.124352
0.129668
0.135702
0.142413
0.14966
0.157401
0.165441
0.173718
0.181939
0.190017
0.197488
0.204282
0.209623
0.213641
0.214888
0.214343
0.208768
0.20197
0.112733
0.114052
0.116588
0.120167
0.124659
0.129997
0.136063
0.14282
0.150128
0.157955
0.166111
0.174544
0.182967
0.191312
0.199121
0.206353
0.212229
0.21693
0.218979
0.219426
0.215019
0.209483
0.113004
0.114324
0.116865
0.120453
0.124959
0.13032
0.136416
0.143217
0.150587
0.158498
0.166765
0.17535
0.18397
0.192576
0.200715
0.208374
0.214776
0.220145
0.222988
0.224407
0.221167
0.216879
0.113269
0.114586
0.117136
0.120732
0.125252
0.130634
0.136761
0.143605
0.151033
0.159026
0.167402
0.176134
0.184945
0.193805
0.202265
0.210343
0.217257
0.22328
0.226906
0.229274
0.227195
0.224139
0.113526
0.114845
0.117399
0.121004
0.125538
0.130941
0.137097
0.143984
0.151469
0.159542
0.168024
0.176899
0.185897
0.195003
0.203777
0.212262
0.219678
0.226338
0.230735
0.234029
0.233099
0.231262
0.222016
0.113777
0.115096
0.117657
0.12127
0.125818
0.131241
0.137426
0.144354
0.151895
0.160045
0.16863
0.177645
0.186825
0.196172
0.20525
0.214132
0.222039
0.229319
0.234474
0.238672
0.238876
0.238244
0.230584
0.114021
0.115341
0.117908
0.121529
0.12609
0.131533
0.137747
0.144714
0.15231
0.160536
0.169222
0.178373
0.187728
0.19731
0.206685
0.215952
0.224338
0.232221
0.238121
0.243199
0.244521
0.245081
0.238984
0.114258
0.115579
0.118153
0.121781
0.126355
0.131818
0.138059
0.145066
0.152715
0.161015
0.169798
0.179081
0.188608
0.198416
0.20808
0.217721
0.226575
0.235044
0.241673
0.247611
0.25003
0.251766
0.24721
0.114487
0.115809
0.118382
0.122026
0.126613
0.132095
0.138363
0.145408
0.153109
0.16148
0.170357
0.179769
0.189462
0.199491
0.209435
0.219439
0.228748
0.237786
0.245128
0.251904
0.255399
0.258294
0.255257
0.11471
0.116033
0.118614
0.122264
0.126864
0.132364
0.138658
0.14574
0.153491
0.161932
0.170901
0.180437
0.190291
0.200534
0.210749
0.221106
0.230857
0.240446
0.248485
0.256076
0.260624
0.26466
0.263118
0.114925
0.11625
0.118838
0.122495
0.127107
0.132625
0.138944
0.146063
0.153862
0.16237
0.171428
0.181084
0.191094
0.201543
0.212023
0.222719
0.2329
0.243023
0.251742
0.260125
0.265701
0.270858
0.270783
0.115133
0.116459
0.119053
0.12272
0.127342
0.132878
0.139221
0.146375
0.154221
0.162795
0.171938
0.18171
0.191871
0.20252
0.213254
0.224279
0.234878
0.245516
0.254896
0.26405
0.270627
0.276881
0.278247
0.115333
0.116662
0.11926
0.122939
0.127569
0.133122
0.13949
0.146677
0.154569
0.163205
0.172431
0.182316
0.192622
0.203463
0.214444
0.225785
0.236788
0.247924
0.257945
0.267847
0.275398
0.282724
0.2855
0.115526
0.116856
0.11946
0.123138
0.127789
0.133358
0.139748
0.146969
0.154904
0.163601
0.172907
0.1829
0.193346
0.204372
0.215591
0.227236
0.23863
0.250247
0.260888
0.271514