/*--------------------------------*- C++ -*----------------------------------*\
  =========                 |
  \\      /  F ield         | OpenFOAM: The Open Source CFD Toolbox
   \\    /   O peration     | Website:  https://openfoam.org
    \\  /    A nd           | Version:  7
     \\/     M anipulation  |
\*---------------------------------------------------------------------------*/
FoamFile
{
    version     2.0;
    format      ascii;
    class       volScalarField;
    location    "300";
    object      p;
}
// * * * * * * * * * * * * * * * * * * * * * * * * * * * * * * * * * * * * * //

dimensions      [0 2 -2 0 0 0 0];

internalField   nonuniform List<scalar> 
20050
(
-0.402738
-0.403761
-0.404206
-0.404562
-0.405062
-0.405927
-0.407326
-0.409367
-0.412118
-0.415646
-0.420027
-0.425369
-0.431817
-0.439498
-0.448561
-0.399004
-0.4004
-0.401003
-0.401457
-0.402001
-0.402845
-0.404152
-0.406014
-0.408489
-0.411621
-0.41547
-0.42012
-0.425687
-0.432258
-0.439963
-0.395271
-0.397029
-0.397784
-0.398332
-0.398914
-0.39973
-0.400934
-0.402606
-0.404786
-0.407501
-0.410788
-0.414703
-0.419336
-0.424722
-0.430965
-0.391582
-0.393688
-0.394588
-0.395224
-0.39584
-0.396624
-0.397719
-0.399192
-0.401065
-0.403347
-0.406048
-0.409199
-0.412858
-0.417003
-0.421705
-0.387982
-0.390419
-0.391456
-0.392176
-0.392822
-0.39357
-0.394553
-0.395821
-0.397381
-0.399219
-0.40132
-0.403687
-0.406348
-0.409212
-0.41232
-0.384515
-0.387262
-0.388427
-0.389227
-0.389899
-0.39061
-0.39148
-0.392542
-0.393786
-0.395175
-0.39667
-0.398243
-0.399893
-0.401459
-0.402947
-0.381224
-0.384258
-0.385542
-0.386415
-0.387113
-0.387786
-0.388542
-0.3894
-0.390329
-0.391272
-0.39216
-0.392938
-0.39358
-0.393847
-0.393712
-0.37815
-0.381444
-0.382838
-0.38378
-0.3845
-0.385136
-0.385781
-0.386438
-0.387057
-0.387558
-0.387847
-0.387838
-0.387482
-0.386468
-0.384729
-0.375332
-0.378857
-0.38035
-0.381355
-0.382096
-0.382695
-0.383233
-0.383695
-0.384011
-0.38408
-0.383781
-0.383001
-0.381667
-0.379403
-0.376098
-0.372806
-0.37653
-0.378109
-0.379172
-0.379932
-0.380496
-0.380931
-0.381205
-0.381229
-0.380879
-0.380008
-0.378475
-0.376193
-0.372722
-0.367899
-0.370602
-0.374491
-0.376146
-0.377259
-0.378036
-0.378568
-0.378904
-0.378998
-0.378743
-0.37799
-0.376567
-0.374306
-0.371107
-0.36648
-0.360195
-0.368747
-0.372767
-0.374484
-0.375641
-0.376432
-0.376932
-0.377177
-0.377102
-0.37658
-0.375442
-0.373489
-0.370527
-0.366448
-0.360722
-0.353029
-0.367264
-0.371377
-0.373142
-0.374335
-0.375139
-0.37561
-0.375769
-0.375536
-0.374764
-0.373261
-0.370803
-0.367169
-0.362246
-0.355481
-0.346425
-0.366169
-0.370336
-0.372135
-0.373357
-0.374169
-0.374614
-0.374695
-0.374316
-0.373311
-0.371466
-0.36853
-0.364255
-0.358526
-0.350782
-0.34039
-0.365473
-0.369653
-0.371471
-0.372713
-0.373532
-0.373953
-0.373964
-0.373452
-0.372233
-0.37007
-0.366686
-0.361802
-0.355303
-0.346642
-0.334911
-0.36518
-0.369334
-0.371154
-0.372407
-0.373229
-0.373628
-0.373578
-0.372947
-0.371534
-0.36908
-0.365281
-0.359821
-0.352586
-0.343075
-0.329962
-0.365289
-0.369374
-0.371181
-0.372435
-0.373256
-0.373636
-0.373533
-0.372798
-0.371213
-0.368496
-0.364315
-0.358316
-0.350377
-0.340093
-0.325508
-0.365792
-0.369767
-0.371544
-0.372789
-0.373604
-0.373967
-0.373817
-0.372994
-0.371258
-0.368308
-0.363783
-0.357283
-0.348669
-0.337706
-0.321509
-0.366674
-0.3705
-0.372229
-0.373453
-0.374257
-0.374602
-0.374414
-0.373515
-0.371651
-0.368496
-0.363665
-0.356704
-0.347442
-0.335915
-0.317867
-0.367918
-0.371553
-0.373216
-0.374407
-0.375192
-0.375519
-0.375296
-0.374334
-0.37236
-0.369029
-0.36393
-0.356553
-0.346668
-0.334704
-0.314297
-0.369497
-0.372906
-0.374483
-0.375627
-0.376383
-0.376687
-0.376433
-0.375415
-0.373347
-0.369865
-0.364534
-0.356789
-0.346316
-0.334089
-0.310642
-0.371382
-0.37453
-0.376004
-0.377083
-0.3778
-0.378073
-0.377784
-0.376715
-0.374564
-0.370949
-0.365417
-0.357352
-0.346324
-0.333954
-0.308438
-0.373543
-0.376398
-0.377748
-0.378747
-0.379407
-0.379639
-0.379308
-0.378185
-0.375955
-0.372219
-0.366507
-0.35817
-0.346637
-0.333663
-0.306969
-0.375944
-0.378479
-0.379687
-0.380584
-0.38117
-0.381344
-0.380959
-0.379773
-0.37746
-0.373607
-0.367727
-0.359151
-0.347256
-0.333675
-0.305694
-0.378551
-0.380745
-0.381789
-0.382563
-0.383053
-0.383149
-0.382691
-0.381427
-0.37902
-0.375043
-0.368999
-0.360197
-0.347977
-0.333986
-0.304674
-0.38133
-0.383164
-0.384026
-0.384653
-0.385022
-0.385015
-0.384462
-0.383099
-0.380579
-0.376465
-0.370249
-0.361228
-0.348717
-0.334402
-0.30398
-0.38425
-0.385712
-0.386371
-0.386828
-0.387048
-0.38691
-0.386232
-0.384744
-0.382086
-0.377814
-0.371413
-0.362165
-0.349422
-0.334753
-0.303653
-0.387283
-0.388364
-0.388803
-0.389062
-0.389104
-0.388804
-0.387971
-0.386327
-0.383504
-0.379048
-0.372445
-0.362952
-0.350047
-0.334858
-0.303603
-0.390406
-0.391102
-0.391302
-0.391338
-0.391171
-0.390676
-0.389656
-0.387824
-0.384806
-0.380141
-0.373317
-0.363565
-0.350589
-0.334507
-0.303544
-0.393601
-0.393912
-0.393856
-0.393643
-0.393237
-0.392515
-0.391273
-0.389221
-0.385978
-0.381079
-0.374022
-0.364019
-0.351101
-0.333726
-0.303946
-0.396859
-0.396786
-0.396458
-0.395972
-0.395297
-0.394314
-0.392819
-0.390515
-0.387019
-0.381862
-0.374562
-0.364334
-0.351604
-0.333178
-0.308449
-0.400174
-0.399721
-0.399107
-0.398325
-0.397352
-0.396079
-0.394299
-0.391714
-0.387936
-0.382498
-0.374939
-0.364499
-0.351928
-0.333423
-0.321175
-0.40355
-0.40272
-0.401807
-0.400708
-0.399412
-0.397821
-0.395728
-0.392834
-0.388748
-0.383002
-0.37516
-0.364502
-0.351976
-0.333716
-0.323895
-0.406995
-0.405791
-0.404567
-0.403133
-0.401492
-0.399558
-0.397127
-0.393897
-0.389476
-0.383395
-0.375237
-0.364332
-0.351686
-0.333668
-0.323662
-0.410523
-0.408948
-0.407403
-0.405618
-0.403613
-0.401314
-0.398522
-0.394932
-0.390148
-0.383698
-0.375182
-0.363988
-0.351081
-0.333236
-0.322283
-0.414155
-0.412206
-0.410331
-0.408182
-0.405797
-0.403117
-0.399943
-0.395969
-0.39079
-0.383934
-0.375011
-0.36347
-0.350194
-0.332426
-0.320193
-0.417913
-0.415585
-0.413372
-0.410848
-0.408072
-0.404995
-0.401421
-0.397036
-0.391428
-0.384122
-0.374737
-0.362786
-0.349055
-0.331265
-0.317733
-0.421821
-0.419105
-0.416548
-0.413642
-0.410463
-0.406977
-0.402984
-0.39816
-0.392083
-0.384276
-0.37437
-0.361944
-0.347697
-0.329798
-0.315089
-0.425905
-0.422789
-0.41988
-0.416585
-0.412998
-0.409091
-0.404658
-0.399364
-0.392772
-0.384407
-0.373917
-0.360952
-0.346145
-0.32807
-0.31236
-0.430189
-0.426658
-0.42339
-0.419702
-0.4157
-0.41136
-0.406465
-0.400663
-0.393504
-0.384519
-0.37338
-0.359819
-0.344423
-0.326122
-0.309588
-0.434695
-0.430729
-0.427098
-0.423014
-0.418591
-0.413804
-0.40842
-0.402066
-0.394281
-0.384609
-0.37276
-0.358549
-0.342549
-0.323986
-0.306788
-0.439442
-0.435021
-0.43102
-0.426536
-0.421686
-0.416436
-0.410531
-0.403575
-0.3951
-0.384673
-0.372052
-0.357147
-0.340535
-0.321688
-0.303956
-0.444446
-0.439546
-0.435171
-0.430284
-0.424998
-0.419265
-0.412799
-0.405184
-0.395949
-0.384696
-0.371247
-0.355613
-0.338389
-0.319245
-0.301081
-0.449716
-0.444315
-0.439559
-0.434266
-0.428533
-0.422291
-0.415219
-0.40688
-0.396811
-0.384662
-0.370336
-0.353948
-0.336115
-0.316669
-0.298148
-0.455257
-0.449331
-0.444191
-0.438486
-0.432292
-0.425508
-0.417777
-0.408642
-0.397662
-0.384552
-0.369307
-0.352147
-0.333715
-0.313965
-0.295141
-0.461066
-0.454595
-0.449068
-0.442943
-0.436268
-0.428904
-0.420452
-0.410444
-0.398475
-0.384342
-0.368145
-0.350205
-0.331185
-0.311132
-0.292042
-0.467137
-0.460102
-0.454183
-0.447632
-0.440451
-0.432459
-0.423215
-0.412252
-0.399217
-0.384008
-0.366834
-0.348114
-0.32852
-0.308169
-0.288837
-0.473454
-0.465841
-0.459528
-0.452537
-0.444821
-0.436144
-0.426031
-0.414028
-0.399854
-0.383523
-0.365359
-0.345864
-0.325713
-0.305067
-0.285509
-0.479997
-0.471796
-0.465085
-0.457641
-0.449351
-0.439926
-0.428859
-0.415729
-0.400349
-0.382862
-0.363702
-0.343444
-0.322752
-0.301819
-0.282042
-0.486739
-0.477944
-0.470833
-0.462918
-0.454009
-0.443762
-0.431653
-0.417311
-0.400665
-0.381995
-0.361844
-0.340841
-0.319626
-0.298412
-0.278423
-0.493646
-0.484255
-0.476743
-0.468333
-0.458753
-0.447605
-0.43436
-0.418724
-0.400763
-0.380897
-0.359766
-0.338038
-0.316322
-0.294835
-0.274635
-0.500677
-0.490695
-0.482779
-0.473847
-0.463535
-0.451398
-0.436924
-0.41992
-0.400605
-0.37954
-0.357449
-0.335021
-0.312823
-0.291073
-0.270666
-0.507784
-0.497221
-0.488897
-0.479411
-0.4683
-0.455083
-0.439286
-0.420848
-0.400152
-0.377897
-0.354871
-0.331771
-0.309114
-0.28711
-0.266499
-0.514913
-0.503784
-0.495048
-0.48497
-0.472986
-0.458593
-0.441387
-0.421459
-0.399369
-0.37594
-0.352012
-0.32827
-0.305177
-0.282932
-0.262121
-0.522004
-0.510329
-0.501174
-0.49046
-0.477524
-0.461859
-0.443163
-0.421704
-0.398219
-0.373644
-0.348849
-0.324498
-0.300994
-0.278521
-0.257516
-0.528988
-0.516792
-0.507211
-0.495812
-0.48184
-0.46481
-0.444553
-0.421534
-0.396666
-0.37098
-0.345361
-0.320436
-0.296547
-0.273863
-0.252672
-0.535792
-0.523105
-0.513086
-0.50095
-0.485856
-0.467373
-0.445495
-0.420904
-0.394677
-0.367923
-0.341524
-0.316062
-0.291817
-0.268939
-0.247575
-0.542337
-0.529193
-0.518724
-0.505792
-0.48949
-0.469473
-0.44593
-0.419767
-0.392218
-0.364446
-0.337317
-0.311357
-0.286787
-0.263734
-0.24221
-0.548541
-0.534975
-0.52404
-0.510254
-0.49266
-0.471037
-0.445801
-0.418083
-0.389258
-0.360525
-0.332717
-0.306301
-0.281437
-0.258233
-0.236566
-0.554313
-0.540367
-0.528947
-0.514244
-0.49528
-0.471993
-0.445051
-0.415811
-0.385766
-0.356134
-0.327702
-0.300872
-0.275751
-0.252419
-0.23063
-0.559564
-0.545279
-0.533355
-0.517673
-0.497266
-0.472272
-0.443629
-0.412912
-0.381714
-0.351249
-0.32225
-0.295053
-0.269712
-0.246279
-0.22439
-0.5642
-0.549619
-0.537169
-0.520448
-0.498537
-0.471808
-0.441486
-0.409351
-0.377073
-0.345846
-0.316341
-0.288825
-0.263302
-0.239798
-0.217837
-0.568125
-0.553295
-0.540294
-0.522479
-0.499012
-0.470539
-0.438577
-0.405095
-0.371818
-0.339904
-0.309954
-0.28217
-0.256508
-0.232964
-0.210961
-0.571244
-0.556209
-0.542636
-0.523675
-0.498616
-0.468406
-0.434859
-0.400113
-0.365924
-0.333401
-0.303073
-0.275071
-0.249315
-0.225765
-0.203755
-0.573462
-0.558269
-0.544101
-0.52395
-0.497276
-0.465357
-0.430296
-0.394378
-0.35937
-0.326319
-0.295678
-0.267515
-0.241711
-0.218192
-0.19621
-0.574686
-0.559382
-0.544597
-0.523221
-0.494928
-0.461344
-0.424854
-0.387866
-0.352136
-0.318641
-0.287756
-0.259488
-0.233684
-0.210234
-0.188318
-0.574828
-0.559458
-0.544038
-0.521413
-0.491512
-0.456325
-0.418504
-0.380554
-0.344204
-0.31035
-0.279292
-0.250978
-0.225225
-0.201885
-0.180077
-0.573801
-0.558411
-0.542341
-0.518454
-0.486975
-0.450263
-0.411222
-0.372426
-0.335558
-0.301434
-0.270275
-0.241975
-0.216324
-0.193141
-0.171492
-0.571526
-0.55616
-0.53943
-0.514282
-0.481269
-0.443128
-0.402986
-0.363465
-0.326188
-0.291882
-0.260695
-0.23247
-0.206973
-0.183997
-0.162577
-0.56793
-0.55263
-0.535236
-0.508839
-0.474358
-0.434895
-0.393782
-0.35366
-0.316082
-0.281685
-0.250546
-0.222456
-0.197163
-0.174441
-0.153308
-0.562945
-0.547754
-0.529698
-0.50208
-0.466208
-0.425546
-0.383597
-0.343004
-0.305236
-0.270839
-0.239823
-0.211931
-0.186896
-0.164469
-0.143572
-0.556512
-0.541471
-0.522761
-0.493964
-0.456798
-0.415069
-0.372427
-0.331493
-0.293645
-0.259341
-0.228524
-0.200897
-0.176191
-0.154112
-0.133264
-0.548581
-0.53373
-0.514383
-0.484461
-0.44611
-0.403456
-0.360268
-0.319125
-0.28131
-0.247191
-0.216651
-0.189357
-0.165053
-0.143408
-0.122619
-0.53911
-0.524489
-0.504529
-0.473551
-0.434135
-0.390707
-0.347123
-0.305906
-0.268234
-0.234393
-0.204205
-0.177314
-0.153458
-0.132162
-0.111885
-0.528068
-0.513715
-0.493174
-0.461222
-0.420875
-0.376829
-0.333001
-0.291841
-0.254424
-0.220952
-0.191196
-0.164776
-0.141423
-0.120536
-0.100845
-0.515432
-0.501384
-0.480304
-0.44747
-0.406333
-0.361831
-0.317913
-0.276942
-0.23989
-0.206878
-0.177634
-0.151751
-0.128953
-0.108552
-0.0894631
-0.501191
-0.487484
-0.465913
-0.432302
-0.390526
-0.34573
-0.301875
-0.261225
-0.224645
-0.192186
-0.163528
-0.13825
-0.116065
-0.0962139
-0.0777433
-0.485341
-0.472013
-0.450007
-0.415731
-0.373472
-0.32855
-0.284909
-0.244708
-0.208708
-0.17689
-0.148894
-0.124286
-0.102772
-0.0835258
-0.0657024
-0.467893
-0.454978
-0.4326
-0.397781
-0.355199
-0.310318
-0.267041
-0.227414
-0.192099
-0.161009
-0.133749
-0.109877
-0.0890906
-0.0704974
-0.0533585
-0.448862
-0.436395
-0.413716
-0.378482
-0.335743
-0.291068
-0.248298
-0.20937
-0.174841
-0.144564
-0.118114
-0.0950416
-0.075038
-0.0571429
-0.0407302
-0.428279
-0.416293
-0.393388
-0.357872
-0.315145
-0.270839
-0.228714
-0.190605
-0.156961
-0.12758
-0.102011
-0.0798009
-0.0606332
-0.0434804
-0.0278371
-0.406179
-0.394706
-0.371658
-0.336002
-0.293453
-0.249656
-0.208332
-0.171154
-0.138489
-0.110085
-0.0854667
-0.064179
-0.0458981
-0.0295302
-0.0147004
-0.382609
-0.37168
-0.348576
-0.312938
-0.270704
-0.227579
-0.187189
-0.151053
-0.119459
-0.0921097
-0.0685083
-0.0482018
-0.0308564
-0.0153153
-0.00134391
-0.357621
-0.347271
-0.324207
-0.288733
-0.24693
-0.204669
-0.165331
-0.130342
-0.0999078
-0.073686
-0.0511661
-0.0318975
-0.0155341
-0.000860703
0.0122063
-0.331274
-0.321551
-0.298648
-0.263353
-0.222252
-0.180972
-0.142808
-0.109066
-0.079873
-0.0548494
-0.0334727
-0.0152964
4.11382e-05
0.0138059
0.0259197
-0.303636
-0.2946
-0.27199
-0.236872
-0.196702
-0.156547
-0.119673
-0.0872713
-0.0593965
-0.0356374
-0.0154621
0.00156968
0.0158398
0.0286533
0.0397569
-0.274782
-0.266484
-0.244035
-0.209633
-0.170364
-0.131458
-0.0959806
-0.0650059
-0.038522
-0.016089
0.00282986
0.0186678
0.0318312
0.043647
0.0536669
-0.244786
-0.237311
-0.215095
-0.181518
-0.143311
-0.105771
-0.0717892
-0.0423215
-0.0172951
0.00375487
0.0213661
0.0359633
0.0479848
0.0587554
0.0676034
-0.21372
-0.207122
-0.185335
-0.152614
-0.115617
-0.0795544
-0.047159
-0.0192718
0.00423669
0.023852
0.0401077
0.0534202
0.064273
0.0739591
0.081538
-0.181743
-0.176047
-0.154786
-0.123017
-0.0873589
-0.0528789
-0.0221525
0.00408787
0.0260241
0.0441584
0.0590145
0.0710041
0.0806783
0.0892382
0.0953597
-0.14905
-0.144096
-0.123526
-0.0928227
-0.0586189
-0.0258173
0.0031654
0.0276999
0.0480163
0.0646289
0.0780468
0.0886914
0.0972009
0.104516
0.108674
-0.11563
-0.111444
-0.0916532
-0.0621256
-0.0294818
0.00155533
0.028728
0.0515051
0.0701604
0.0852161
0.0971673
0.106472
0.113844
0.119637
0.121023
-0.0815874
-0.0782155
-0.0592721
-0.0310228
-3.43126e-05
0.0291621
0.0544668
0.0754422
0.0924013
0.105871
0.116339
0.124327
0.130548
0.134482
0.133107
-0.0470454
-0.0445209
-0.0264903
0.000386948
0.0296349
0.0569243
0.080312
0.0994487
0.114682
0.126542
0.135521
0.1422
0.14715
0.148981
0.147983
-0.0121222
-0.0104715
0.00658308
0.0320036
0.0594363
0.0847623
0.106192
0.12346
0.136945
0.147179
0.154662
0.159999
0.163593
0.16394
0.163404
0.0230612
0.0238172
0.0398369
0.0637256
0.0892792
0.112595
0.132036
0.147413
0.159132
0.167728
0.173709
0.177675
0.179904
0.179048
0.1783
0.0583832
0.0582285
0.0731594
0.0954512
0.119073
0.140343
0.15777
0.17124
0.181183
0.188136
0.192609
0.195187
0.196078
0.194138
0.192845
0.0937216
0.0926444
0.106439
0.127079
0.148725
0.167923
0.183322
0.194878
0.20304
0.208348
0.211312
0.212494
0.212071
0.209072
0.207038
0.128954
0.126946
0.139563
0.158506
0.178146
0.195255
0.20862
0.218261
0.224645
0.228311
0.229767
0.229556
0.227835
0.223775
0.220883
0.163958
0.161016
0.172421
0.189632
0.207246
0.222258
0.233591
0.241323
0.245937
0.24797
0.247926
0.24633
0.243325
0.238198
0.234375
0.198611
0.194736
0.204902
0.220356
0.235933
0.248852
0.258164
0.264001
0.266859
0.267275
0.265743
0.262773
0.258498
0.252304
0.247506
0.232795
0.227989
0.236897
0.250581
0.264121
0.274959
0.282268
0.286231
0.287355
0.286172
0.283171
0.278843
0.273317
0.26606
0.260261
0.266388
0.26066
0.268299
0.280208
0.291722
0.300501
0.305834
0.307951
0.307368
0.304612
0.300166
0.294501
0.287743
0.279437
0.272624
0.299275
0.292636
0.299002
0.309143
0.318651
0.325402
0.328794
0.329099
0.326842
0.322546
0.316682
0.309708
0.301744
0.292405
0.284577
0.331342
0.323806
0.328903
0.337292
0.344826
0.349587
0.35108
0.349617
0.345726
0.339924
0.332677
0.324424
0.315284
0.304937
0.296098
0.362475
0.354062
0.357902
0.364565
0.370165
0.372985
0.37263
0.369445
0.363965
0.356702
0.34811
0.338614
0.328332
0.317004
0.307168
0.392568
0.383299
0.385902
0.390874
0.39459
0.395525
0.393378
0.388527
0.38151
0.372832
0.362939
0.352241
0.340856
0.32858
0.317764
0.421514
0.411417
0.412809
0.416135
0.418025
0.41714
0.413266
0.40681
0.398312
0.388272
0.377127
0.36527
0.352825
0.339636
0.327866
0.449214
0.438318
0.438533
0.440267
0.440398
0.437765
0.432234
0.42424
0.414324
0.40298
0.390634
0.377669
0.364209
0.350148
0.337453
0.475571
0.463909
0.462988
0.463193
0.46164
0.457338
0.450228
0.440768
0.429501
0.416914
0.403426
0.389404
0.374981
0.360089
0.346503
0.500491
0.4881
0.486092
0.484837
0.481685
0.475799
0.467193
0.456346
0.4438
0.430038
0.415468
0.400446
0.385112
0.369435
0.354997
0.52389
0.510809
0.507768
0.505132
0.50047
0.493093
0.48308
0.470928
0.457181
0.442313
0.426727
0.410766
0.394577
0.378163
0.362917
0.545683
0.531956
0.527943
0.52401
0.517936
0.509167
0.497841
0.484473
0.469605
0.453707
0.437173
0.420336
0.40335
0.38625
0.370243
0.565796
0.551467
0.546548
0.541412
0.534028
0.523972
0.511432
0.49694
0.481036
0.464186
0.446776
0.42913
0.41141
0.393675
0.376959
0.584156
0.569274
0.563522
0.557279
0.548697
0.537463
0.523813
0.508293
0.491442
0.473721
0.455511
0.437125
0.418733
0.400419
0.383051
0.600698
0.585315
0.578805
0.571561
0.561895
0.549597
0.534945
0.518497
0.500792
0.482285
0.463352
0.444298
0.425301
0.406464
0.388502
0.615365
0.599533
0.592347
0.584211
0.57358
0.560336
0.544795
0.527523
0.509059
0.489854
0.470278
0.45063
0.431096
0.411794
0.3933
0.628102
0.611877
0.6041
0.595185
0.583715
0.569648
0.553332
0.535343
0.516217
0.496404
0.476268
0.456103
0.436101
0.416394
0.397434
0.638863
0.622302
0.614023
0.604449
0.592267
0.577502
0.56053
0.541932
0.522245
0.501916
0.481306
0.460701
0.440302
0.420251
0.400893
0.647608
0.630771
0.62208
0.611968
0.599206
0.583873
0.566365
0.54727
0.527125
0.506374
0.485375
0.464411
0.443687
0.423355
0.403668
0.654305
0.63725
0.628244
0.617718
0.60451
0.588739
0.570818
0.55134
0.530841
0.509764
0.488464
0.467222
0.446247
0.425696
0.405755
0.658926
0.641715
0.632489
0.621676
0.608159
0.592083
0.573874
0.554128
0.533381
0.512074
0.490562
0.469124
0.447971
0.427269
0.407153
0.661452
0.644146
0.634799
0.623828
0.610139
0.593893
0.575522
0.555624
0.534735
0.513297
0.491663
0.470111
0.448856
0.428066
0.407848
0.66187
0.644532
0.635162
0.624163
0.610441
0.594161
0.575754
0.555821
0.534898
0.513426
0.491761
0.470179
0.448896
0.428081
0.407834
0.660173
0.642866
0.633573
0.622676
0.609061
0.592882
0.574567
0.554716
0.533866
0.512461
0.490854
0.469326
0.448091
0.427314
0.407106
0.656364
0.63915
0.630033
0.619369
0.606
0.590058
0.571961
0.55231
0.531641
0.5104
0.488943
0.467552
0.446439
0.425767
0.405675
0.650449
0.63339
0.624549
0.614246
0.601263
0.585693
0.567942
0.548606
0.528226
0.507248
0.486031
0.46486
0.443946
0.423443
0.403546
0.642445
0.625602
0.617133
0.607321
0.59486
0.579797
0.562517
0.543614
0.523629
0.503011
0.482124
0.461257
0.440615
0.420346
0.400719
0.632371
0.615806
0.607805
0.598609
0.586808
0.572383
0.5557
0.537344
0.517859
0.497699
0.477231
0.456748
0.436453
0.416483
0.397199
0.620258
0.604029
0.59659
0.588135
0.577126
0.563472
0.547506
0.529811
0.51093
0.491323
0.471362
0.451345
0.431469
0.411861
0.392991
0.606139
0.590305
0.583518
0.575925
0.56584
0.553084
0.537957
0.521033
0.50286
0.483899
0.46453
0.445059
0.425675
0.406491
0.388105
0.590058
0.574675
0.568628
0.562013
0.55298
0.541247
0.527077
0.511033
0.493667
0.475445
0.456753
0.437905
0.419084
0.400384
0.382549
0.572062
0.557185
0.551962
0.546438
0.538579
0.527991
0.514893
0.499836
0.483374
0.465981
0.448048
0.429899
0.41171
0.393555
0.376335
0.552206
0.537887
0.533567
0.529243
0.522677
0.513353
0.501437
0.48747
0.472008
0.45553
0.438437
0.421061
0.403571
0.386018
0.369474
0.530552
0.51684
0.513499
0.510477
0.505318
0.49737
0.486744
0.473967
0.459597
0.444119
0.427942
0.411411
0.394686
0.377791
0.361982
0.507166
0.494108
0.491816
0.490192
0.486549
0.480087
0.470854
0.459362
0.446172
0.431775
0.416589
0.400972
0.385075
0.368893
0.353872
0.482121
0.469762
0.468582
0.468447
0.466423
0.461549
0.453808
0.443694
0.431767
0.418529
0.404406
0.389769
0.374761
0.359344
0.345161
0.455496
0.443878
0.443868
0.445305
0.444995
0.441807
0.435652
0.427002
0.41642
0.404414
0.391422
0.377828
0.363768
0.349165
0.335866
0.427375
0.416535
0.417748
0.420833
0.422326
0.420916
0.416434
0.40933
0.400169
0.389466
0.37767
0.365177
0.352121
0.33838
0.326006
0.397847
0.38782
0.390301
0.395102
0.398479
0.398931
0.396206
0.390725
0.383057
0.373723
0.363181
0.351847
0.339846
0.327011
0.315602
0.367006
0.357824
0.361611
0.368187
0.373522
0.375914
0.375021
0.371236
0.365126
0.357222
0.347993
0.337869
0.326973
0.315086
0.304671
0.334951
0.326641
0.331766
0.340168
0.347525
0.351929
0.352937
0.350913
0.346423
0.340006
0.332141
0.323275
0.31353
0.302629
0.293237
0.301785
0.294371
0.300857
0.311126
0.320563
0.32704
0.330013
0.329811
0.326997
0.322117
0.315663
0.3081
0.299547
0.289668
0.28132
0.267614
0.261117
0.268979
0.281149
0.292712
0.301318
0.306311
0.307984
0.306896
0.303601
0.298601
0.292378
0.285055
0.276229
0.268942
0.23255
0.226987
0.236233
0.250325
0.264053
0.274832
0.281895
0.28549
0.286172
0.284504
0.280995
0.276148
0.270088
0.262341
0.256123
0.196707
0.192089
0.20272
0.218746
0.234667
0.247658
0.256831
0.262388
0.264879
0.264872
0.262887
0.259446
0.254678
0.248032
0.242885
0.160201
0.156538
0.168545
0.186508
0.204639
0.219871
0.231186
0.23874
0.243072
0.244756
0.244323
0.242311
0.238859
0.233329
0.229248
0.123151
0.120448
0.133816
0.153707
0.174055
0.191548
0.205031
0.214607
0.220806
0.224205
0.225345
0.224784
0.222667
0.218264
0.215228
0.0856792
0.0839373
0.0986413
0.120443
0.143005
0.162767
0.178436
0.190054
0.198138
0.203272
0.206002
0.206906
0.20614
0.202865
0.200842
0.047909
0.0471253
0.0631338
0.0868153
0.111578
0.133611
0.151472
0.165144
0.175128
0.182009
0.18634
0.18872
0.189318
0.187167
0.186103
0.00996463
0.0101323
0.0274058
0.0529273
0.0798663
0.104159
0.124213
0.139944
0.151834
0.160469
0.166407
0.170269
0.172246
0.171212
0.171021
-0.0280287
-0.0269205
-0.00842868
0.018882
0.0479609
0.074494
0.0967333
0.114519
0.128315
0.138707
0.146252
0.151597
0.154973
0.155055
0.155603
-0.0659452
-0.0639119
-0.044255
-0.0152166
0.0159552
0.0446992
0.0691058
0.0889374
0.104633
0.116778
0.125927
0.132746
0.137547
0.138778
0.139853
-0.103659
-0.100721
-0.0799583
-0.049264
-0.0160576
0.0148572
0.041405
0.0632646
0.080848
0.0947386
0.105484
0.113757
0.120014
0.122542
0.12379
-0.141046
-0.137228
-0.115424
-0.0831557
-0.0479843
-0.0149489
0.0137051
0.0375674
0.0570193
0.0726431
0.0849779
0.0946695
0.102376
0.106532
0.107249
-0.177979
-0.173314
-0.150537
-0.116788
-0.079732
-0.0446367
-0.0139203
0.0119122
0.0332068
0.0505452
0.0644624
0.0755361
0.084587
0.0910518
0.0913915
-0.214337
-0.208865
-0.185184
-0.150057
-0.111209
-0.0741246
-0.0413985
-0.0136356
0.00946968
0.0284969
0.043989
0.0564508
0.0667
0.0751601
0.0785656
-0.249991
-0.243765
-0.219254
-0.182861
-0.142323
-0.103332
-0.0686578
-0.0390119
-0.0141339
0.00654983
0.0235996
0.037477
0.0489069
0.0589672
0.0654253
-0.284843
-0.277876
-0.252639
-0.215101
-0.172987
-0.13218
-0.095628
-0.0641542
-0.0375476
-0.0152454
0.0033312
0.0186325
0.0312808
0.042643
0.0512266
-0.318924
-0.311009
-0.285236
-0.246678
-0.203111
-0.160591
-0.122241
-0.0890016
-0.0607172
-0.0368404
-0.0167786
-7.56031e-05
0.0138127
0.0263558
0.036501
-0.351985
-0.343194
-0.316971
-0.277493
-0.232613
-0.18849
-0.148429
-0.113495
-0.0835907
-0.0581887
-0.0366895
-0.0186259
-0.00350602
0.0101759
0.0216779
-0.383873
-0.374232
-0.347845
-0.307445
-0.261411
-0.215805
-0.174129
-0.137578
-0.106118
-0.0792459
-0.0563608
-0.0369846
-0.0206619
-0.00588366
0.00686497
-0.414517
-0.404127
-0.377631
-0.336443
-0.289429
-0.242465
-0.199278
-0.161194
-0.12825
-0.0999688
-0.0757531
-0.0551152
-0.0376279
-0.0218058
-0.00791216
-0.443839
-0.432758
-0.405969
-0.364647
-0.31659
-0.268399
-0.223816
-0.184292
-0.14994
-0.120316
-0.0948287
-0.0729827
-0.0543734
-0.0375585
-0.0226037
-0.471757
-0.460053
-0.433121
-0.391653
-0.342794
-0.293544
-0.247685
-0.20682
-0.171143
-0.140247
-0.113551
-0.0905538
-0.0708677
-0.0531067
-0.0371551
-0.498198
-0.485925
-0.458988
-0.417342
-0.368049
-0.317838
-0.27083
-0.22873
-0.191816
-0.159723
-0.131886
-0.107796
-0.0870811
-0.0684188
-0.0515251
-0.523098
-0.510294
-0.483463
-0.441806
-0.392189
-0.341221
-0.293198
-0.249977
-0.211919
-0.17871
-0.1498
-0.124679
-0.102986
-0.0834668
-0.0656825
-0.546397
-0.533096
-0.50647
-0.464985
-0.415169
-0.363643
-0.314741
-0.270518
-0.231415
-0.197172
-0.167262
-0.141174
-0.118555
-0.0982256
-0.0796004
-0.568046
-0.554279
-0.527951
-0.4868
-0.436966
-0.38503
-0.335425
-0.290316
-0.250268
-0.215078
-0.184243
-0.157255
-0.133765
-0.112672
-0.0932554
-0.588002
-0.573803
-0.547858
-0.507194
-0.457531
-0.405358
-0.355197
-0.309331
-0.268446
-0.2324
-0.200718
-0.172896
-0.148594
-0.126785
-0.106626
-0.606232
-0.591633
-0.566153
-0.526121
-0.476816
-0.424588
-0.374022
-0.327534
-0.285921
-0.249113
-0.216661
-0.188077
-0.163022
-0.140547
-0.119694
-0.622713
-0.607748
-0.582806
-0.543545
-0.494778
-0.442679
-0.391871
-0.344899
-0.302665
-0.265193
-0.232053
-0.202777
-0.177032
-0.153942
-0.132442
-0.63743
-0.622134
-0.597796
-0.559438
-0.511386
-0.4596
-0.408716
-0.361399
-0.31867
-0.280611
-0.246874
-0.21698
-0.190608
-0.166957
-0.144853
-0.650381
-0.634788
-0.611112
-0.573779
-0.526615
-0.475325
-0.424532
-0.37701
-0.333904
-0.29537
-0.261106
-0.230671
-0.203738
-0.179584
-0.156912
-0.661574
-0.645718
-0.622752
-0.586557
-0.540444
-0.489832
-0.439299
-0.391717
-0.34835
-0.309445
-0.27475
-0.243834
-0.216408
-0.191818
-0.168607
-0.671026
-0.654944
-0.632727
-0.597768
-0.552863
-0.503107
-0.453004
-0.405508
-0.362001
-0.322824
-0.287787
-0.25648
-0.228601
-0.203648
-0.179945
-0.678767
-0.662494
-0.641057
-0.607418
-0.563867
-0.51514
-0.465635
-0.418372
-0.374848
-0.335501
-0.300205
-0.268584
-0.240332
-0.215031
-0.190996
-0.684835
-0.668409
-0.647771
-0.615525
-0.57346
-0.525928
-0.477187
-0.430304
-0.386887
-0.347472
-0.312002
-0.280141
-0.251585
-0.225996
-0.201925
-0.68928
-0.672738
-0.65291
-0.622113
-0.581652
-0.535472
-0.487659
-0.441302
-0.398115
-0.358735
-0.323177
-0.291152
-0.262363
-0.236526
-0.212359
-0.692159
-0.67554
-0.656526
-0.627217
-0.588462
-0.543782
-0.497054
-0.451369
-0.408536
-0.369293
-0.333733
-0.301617
-0.27266
-0.24661
-0.222273
-0.693541
-0.676885
-0.658677
-0.63088
-0.593918
-0.550871
-0.50538
-0.46051
-0.418153
-0.37915
-0.343674
-0.311537
-0.282475
-0.256262
-0.231765
-0.693501
-0.676848
-0.659435
-0.633157
-0.598054
-0.55676
-0.51265
-0.468734
-0.426975
-0.388313
-0.353004
-0.320918
-0.291812
-0.265494
-0.240895
-0.692122
-0.675514
-0.658875
-0.634109
-0.600912
-0.561477
-0.518882
-0.476055
-0.435013
-0.396792
-0.361733
-0.329769
-0.300681
-0.274315
-0.249675
-0.689493
-0.672974
-0.657084
-0.633807
-0.602544
-0.565053
-0.524096
-0.482488