/*--------------------------------*- C++ -*----------------------------------*\
  =========                 |
  \\      /  F ield         | OpenFOAM: The Open Source CFD Toolbox
   \\    /   O peration     | Website:  https://openfoam.org
    \\  /    A nd           | Version:  7
     \\/     M anipulation  |
\*---------------------------------------------------------------------------*/
FoamFile
{
    version     2.0;
    format      ascii;
    class       surfaceScalarField;
    location    "300";
    object      phi;
}
// * * * * * * * * * * * * * * * * * * * * * * * * * * * * * * * * * * * * * //

dimensions      [0 3 -1 0 0 0 0];

internalField   nonuniform List<scalar> 
39691
(
-1.37244e-06
-0.000102799
0.000104172
-6.07219e-06
-0.000276698
0.000281398
-1.46754e-05
-0.00042815
0.000436753
-2.7459e-05
-0.000555683
0.000568467
-4.43689e-05
-0.000660196
0.000677106
-6.50695e-05
-0.000744876
0.000765577
-8.90442e-05
-0.000814516
0.000838491
-0.000115711
-0.000874564
0.00090123
-0.00014452
-0.000930087
0.000958897
-0.000175022
-0.000984922
0.00101542
-0.000206875
-0.00104114
0.00107299
-0.000239824
-0.00109884
0.00113179
-0.000273645
-0.00115618
0.00119
-0.000308063
-0.00120943
0.00124385
-0.0012526
0.00128743
-0.000342894
-2.00184e-06
-0.000100798
-8.21847e-06
-0.000270482
-1.8973e-05
-0.000417395
-3.43326e-05
-0.000540324
-5.4089e-05
-0.000640439
-7.78184e-05
-0.000721147
-0.000104982
-0.000787353
-0.000135038
-0.000844508
-0.000167531
-0.000897594
-0.000202148
-0.000950304
-0.000238724
-0.00100456
-0.000277203
-0.00106036
-0.000317572
-0.00111581
-0.000359758
-0.00116725
-0.00120863
-0.000403729
-2.61992e-06
-9.81777e-05
-1.03068e-05
-0.000262795
-2.31202e-05
-0.000404582
-4.09116e-05
-0.000522532
-6.33179e-05
-0.000618033
-8.98253e-05
-0.000694639
-0.000119869
-0.000757309
-0.000152937
-0.00081144
-0.000188652
-0.000861878
-0.000226818
-0.000912139
-0.000267417
-0.000963966
-0.000310568
-0.00101721
-0.000356449
-0.00106993
-0.000405167
-0.00111853
-0.00115697
-0.000456825
-3.21902e-06
-9.49587e-05
-1.23136e-05
-0.0002537
-2.70738e-05
-0.000389822
-4.71345e-05
-0.000502471
-7.19771e-05
-0.00059319
-0.000100997
-0.000665619
-0.000133598
-0.000724708
-0.000169286
-0.000775752
-0.000207741
-0.000823423
-0.000248855
-0.000871024
-0.000292727
-0.000920094
-0.000339617
-0.000970321
-0.000389865
-0.00101968
-0.000443738
-0.00106465
-0.00109927
-0.000501443
-3.79195e-06
-9.11667e-05
-1.42171e-05
-0.000243275
-3.07954e-05
-0.000373243
-5.29466e-05
-0.00048032
-7.99993e-05
-0.000566138
-0.000111257
-0.000634362
-0.000146085
-0.00068988
-0.000183993
-0.000737845
-0.000224695
-0.000782721
-0.00026814
-0.00082758
-0.000314504
-0.00087373
-0.000364153
-0.000920672
-0.000417549
-0.000966284
-0.000475098
-0.00100711
-0.00103729
-0.000537075
-4.33206e-06
-8.68347e-05
-1.59974e-05
-0.000231609
-3.42503e-05
-0.000354991
-5.83005e-05
-0.00045627
-8.73273e-05
-0.000537111
-0.000120543
-0.000601146
-0.000157266
-0.000653157
-0.000196994
-0.000698116
-0.000239451
-0.000740265
-0.000284607
-0.000782423
-0.000332676
-0.00082566
-0.000384082
-0.000869267
-0.000439374
-0.000910992
-0.000499061
-0.000947419
-0.000972894
-0.00056346
-4.83323e-06
-8.20014e-05
-1.76366e-05
-0.000218806
-3.74077e-05
-0.00033522
-6.31544e-05
-0.000430523
-9.39128e-05
-0.000506353
-0.000128803
-0.000566256
-0.000167092
-0.000614868
-0.000208249
-0.000656959
-0.00025198
-0.000696534
-0.000298242
-0.000736161
-0.000347241
-0.000776661
-0.000399412
-0.000817096
-0.000455346
-0.000855057
-0.000515625
-0.00088714
-0.000907933
-0.000580586
-5.28982e-06
-7.67116e-05
-1.91184e-05
-0.000204977
-4.02399e-05
-0.000314098
-6.74718e-05
-0.000403291
-9.97138e-05
-0.000474111
-0.000135996
-0.000529974
-0.000175527
-0.000575337
-0.000217733
-0.000614753
-0.000262277
-0.00065199
-0.000309066
-0.000689372
-0.000358255
-0.000727472
-0.000410234
-0.000765117
-0.000465594
-0.000799697
-0.000524959
-0.000827775
-0.000844223
-0.000588669
-5.69667e-06
-7.1015e-05
-2.04279e-05
-0.000190246
-4.27219e-05
-0.000291804
-7.12195e-05
-0.000374794
-0.000104693
-0.000440637
-0.000142085
-0.000492583
-0.000182541
-0.000534881
-0.00022543
-0.000571864
-0.000270351
-0.000607069
-0.000317127
-0.000642596
-0.000365812
-0.000678787
-0.000416703
-0.000714226
-0.00047034
-0.00074606
-0.000527358
-0.000770756
-0.000783474
-0.000588107
-6.049e-06
-6.4966e-05
-2.15514e-05
-0.000174744
-4.48306e-05
-0.000268525
-7.43668e-05
-0.000345257
-0.000108815
-0.000406189
-0.000147034
-0.000454363
-0.000188105
-0.000493811
-0.000231328
-0.00052864
-0.000276216
-0.000562181
-0.000322477
-0.000596335
-0.000370024
-0.000631241
-0.000419006
-0.000665244
-0.000469859
-0.000695207
-0.000523204
-0.000717411
-0.000727266
-0.000579412
-6.34244e-06
-5.86235e-05
-2.24764e-05
-0.00015861
-4.65444e-05
-0.000244457
-7.68843e-05
-0.000314918
-0.000112045
-0.000371028
-0.000150808
-0.000415601
-0.000192184
-0.000452434
-0.000235401
-0.000485423
-0.00027987
-0.000517712
-0.000325157
-0.000551047
-0.000370993
-0.000585405
-0.000417326
-0.000618911
-0.000464435
-0.000648099
-0.000512897
-0.000668948
-0.000677036
-0.000563128
-6.57297e-06
-5.20505e-05
-2.31912e-05
-0.000141991
-4.78432e-05
-0.000219805
-7.87433e-05
-0.000284018
-0.000114348
-0.000335424
-0.000153363
-0.000376585
-0.000194736
-0.000411062
-0.000237612
-0.000442547
-0.00028129
-0.000474034
-0.000325176
-0.000507162
-0.000368782
-0.000541799
-0.000411806
-0.000575886
-0.000454308
-0.000605597
-0.000496792
-0.000626464
-0.000634093
-0.000539735
-6.73699e-06
-4.53136e-05
-2.36853e-05
-0.000125043
-4.87077e-05
-0.000194783
-7.99157e-05
-0.00025281
-0.000115684
-0.000299655
-0.000154653
-0.000337616
-0.000195703
-0.000370012
-0.000237897
-0.000400352
-0.000280416
-0.000431515
-0.00032249
-0.000465088
-0.000363389
-0.0005009
-0.000402509
-0.000536766
-0.000439627
-0.000568479
-0.000475128
-0.000590964
-0.000599663
-0.000509558
-6.8314e-06
-3.84822e-05
-2.39492e-05
-0.000107925
-4.91206e-05
-0.000169611
-8.03738e-05
-0.000221556
-0.000116015
-0.000264015
-0.000154623
-0.000299007
-0.000195014
-0.000329622
-0.000236169
-0.000359197
-0.000277147
-0.000390537
-0.000316996
-0.000425238
-0.000354725
-0.000463171
-0.000389385
-0.000502106
-0.000420399
-0.000537466
-0.000447974
-0.000563388
-0.000574951
-0.000472686
-6.85371e-06
-3.16285e-05
-2.39754e-05
-9.08037e-05
-4.90664e-05
-0.00014452
-8.0092e-05
-0.000190531
-0.0001153
-0.000228807
-0.000153213
-0.000261094
-0.000192583
-0.000290251
-0.000232311
-0.00031947
-0.000271333
-0.000351515
-0.000308517
-0.000388055
-0.000342597
-0.000429091
-0.000372248
-0.000472456
-0.00039646
-0.000513254
-0.00041519
-0.000544658
-0.000561212
-0.000428929
-6.80228e-06
-2.48262e-05
-2.37583e-05
-7.38477e-05
-4.85332e-05
-0.000119745
-7.90478e-05
-0.000160016
-0.000113501
-0.000194354
-0.000150362
-0.000224233
-0.000188318
-0.000252294
-0.000226187
-0.000281601
-0.000262786
-0.000314916
-0.000296805
-0.000354036
-0.000326707
-0.000399189
-0.000350764
-0.000448398
-0.000367463
-0.000496556
-0.000376412
-0.000535708
-0.00055981
-0.000377814
-6.67649e-06
-1.81497e-05
-2.32952e-05
-5.7229e-05
-4.75136e-05
-9.5527e-05
-7.72245e-05
-0.000130305
-0.000110585
-0.000160994
-0.000146011
-0.000188808
-0.000182122
-0.000216183
-0.000217647
-0.000246076
-0.000251287
-0.000281276
-0.000281558
-0.000323765
-0.000306664
-0.000374083
-0.000324469
-0.000430593
-0.000332885
-0.00048814
-0.000331071
-0.000537522
-0.000572234
-0.000318647
-6.47699e-06
-1.16727e-05
-2.25871e-05
-4.11189e-05
-4.60062e-05
-7.21079e-05
-7.46135e-05
-0.000101698
-0.000106529
-0.000129078
-0.000140111
-0.000155225
-0.000173906
-0.000182388
-0.000206545
-0.000213436
-0.000236607
-0.000251214
-0.000262444
-0.000297928
-0.000282014
-0.000354512
-0.000292793
-0.000419814
-0.000292073
-0.000488859
-0.000278441
-0.000551155
-0.00060002
-0.000250654
-6.20592e-06
-5.46676e-06
-2.16393e-05
-2.56855e-05
-4.40174e-05
-4.97298e-05
-7.12174e-05
-7.4498e-05
-0.000101323
-9.89722e-05
-0.000132631
-0.000123918
-0.000163599
-0.000151421
-0.00019275
-0.000184285
-0.000218531
-0.000225433
-0.000239131
-0.000277329
-0.000252286
-0.000341357
-0.000255122
-0.000416978
-0.000244313
-0.000499669
-0.000217752
-0.000577716
-0.000644594
-0.000173178
-5.86712e-06
4.00359e-07
-2.0462e-05
-1.10906e-05
-4.15623e-05
-2.86294e-05
-6.70519e-05
-4.90085e-05
-9.49779e-05
-7.10462e-05
-0.000123563
-9.53325e-05
-0.000151162
-0.000123822
-0.000176171
-0.000159276
-0.000196889
-0.000204715
-0.000211337
-0.000262881
-0.000217049
-0.000335645
-0.000210858
-0.000423168
-0.000188862
-0.000521665
-0.000148292
-0.000618287
-0.000706626
-8.62598e-05
-5.46629e-06
5.86665e-06
-1.90706e-05
2.51367e-06
-3.86661e-05
-9.03391e-06
-6.21482e-05
-2.55264e-05
-8.75232e-05
-4.56711e-05
-0.000112929
-6.99269e-05
-0.000136598
-0.000100153
-0.000156774
-0.000139099
-0.000171587
-0.000189902
-0.000178875
-0.000255593
-0.000175983
-0.000338537
-0.000159514
-0.000439637
-0.000124972
-0.000556207
-6.85717e-05
-0.000674687
-0.00077979
4.59307e-06
-5.0105e-06
1.08772e-05
-1.74858e-05
1.4989e-05
-3.53639e-05
8.84413e-06
-5.65537e-05
-4.33656e-06
-7.90148e-05
-2.32101e-05
-0.000100786
-4.8156e-05
-0.000119956
-8.09825e-05
-0.000134592
-0.000124463
-0.000142623
-0.000181871
-0.000141691
-0.000256526
-0.000128955
-0.000351273
-0.000100867
-0.000467725
-5.25679e-05
-0.000604505
2.35129e-05
-0.000750768
-0.000877604
0.000121327
-4.50889e-06
1.5386e-05
-1.57335e-05
2.62137e-05
-3.17008e-05
2.48114e-05
-5.0332e-05
1.42946e-05
-6.9532e-05
-4.01002e-06
-8.7226e-05
-3.0462e-05
-0.000101339
-6.68694e-05
-0.000109733
-0.000116069
-0.00011011
-0.000181494
-9.98881e-05
-0.000266747
-7.60503e-05
-0.000375111
-3.49463e-05
-0.000508829
2.79046e-05
-0.000667356
0.000119543
-0.000842406
-0.000999935
0.000241873
-3.9717e-06
1.93577e-05
-1.38438e-05
3.60858e-05
-2.77305e-05
3.86981e-05
-4.35609e-05
3.0125e-05
-5.91767e-05
1.16058e-05
-7.23754e-05
-1.72633e-05
-8.08981e-05
-5.83467e-05
-8.23781e-05
-0.000114589
-7.42628e-05
-0.00018961
-5.3727e-05
-0.000287283
-1.75777e-05
-0.00041126
3.79184e-05
-0.000564325
0.000117408
-0.000746846
0.000227175
-0.000952173
-0.0011437
0.000370937
-3.41015e-06
2.27679e-05
-1.18499e-05
4.45255e-05
-2.35132e-05
5.03614e-05
-3.63296e-05
4.29414e-05
-4.80683e-05
2.33444e-05
-5.63862e-05
-8.94534e-06
-5.88243e-05
-5.59086e-05
-5.27678e-05
-0.000120646
-3.53907e-05
-0.000206987
-3.61172e-06
-0.000319062
4.59474e-05
-0.000460819
0.000116996
-0.000635374
0.000213792
-0.000843642
0.000343144
-0.00108152
-0.00130736
0.000506803
-2.83583e-06
2.56037e-05
-9.7864e-06
5.14761e-05
-1.91126e-05
5.96876e-05
-2.87342e-05
5.25631e-05
-3.63377e-05
3.09479e-05
-3.94287e-05
-5.85431e-06
-3.53353e-05
-6.00021e-05
-2.11831e-05
-0.000134798
6.13473e-06
-0.000234305
4.99711e-05
-0.000362899
0.000113847
-0.000524695
0.000201417
-0.000722944
0.000316276
-0.000958501
0.000465576
-0.00123082
-0.00148876
0.000646985
-2.26015e-06
2.78639e-05
-7.68798e-06
5.69039e-05
-1.45929e-05
6.65925e-05
-2.08722e-05
5.88424e-05
-2.41191e-05
3.41948e-05
-2.16789e-05
-8.29456e-06
-1.06588e-05
-7.10221e-05
1.20803e-05
-0.000157537
4.9928e-05
-0.000272152
0.000106471
-0.000419442
0.000185364
-0.000603588
0.000290117
-0.000827697
0.000423498
-0.00109188
0.000592459
-0.00139979
-0.0016849
0.000788598
-1.69367e-06
2.95575e-05
-5.58697e-06
6.07972e-05
-1.00148e-05
7.10203e-05
-1.28366e-05
6.16642e-05
-1.1541e-05
3.28992e-05
-3.30651e-06
-1.65291e-05
1.49862e-05
-8.93149e-05
4.67363e-05
-0.000189287
9.55946e-05
-0.000321011
0.000165358
-0.000489206
0.000259735
-0.000697964
0.000381984
-0.000949945
0.000533989
-0.00124389
0.000721514
-0.00158731
-0.00189211
0.000928719
-1.14546e-06
3.0703e-05
-3.5116e-06
6.31633e-05
-5.43179e-06
7.29405e-05
-4.71e-06
6.09425e-05
1.27756e-06
2.69116e-05
1.55388e-05
-3.07903e-05
4.14051e-05
-0.000115181
8.25279e-05
-0.00023041
0.000142791
-0.000381274
0.00022614
-0.000572555
0.000336244
-0.000808068
0.000475961
-0.00108966
0.000646356
-0.00141428
0.000850209
-0.00179116
-0.00210678
0.00106488
-6.22561e-07
3.13256e-05
-1.48416e-06
6.40249e-05
-8.86509e-07
7.23429e-05
3.44249e-06
5.66135e-05
1.4258e-05
1.60961e-05
3.47368e-05
-5.12692e-05
6.84406e-05
-0.000148885
0.000119246
-0.000281215
0.000191221
-0.000453249
0.000288374
-0.000669708
0.000414211
-0.000933905
0.000571065
-0.00124652
0.000759431
-0.00160265
0.000976363
-0.0020081
-0.00232648
0.00119606
-1.29653e-07
3.14552e-05
4.80899e-07
6.34144e-05
3.59188e-06
6.92319e-05
1.15746e-05
4.86307e-05
2.73243e-05
3.46337e-07
5.42037e-05
-7.81486e-05
9.59827e-05
-0.000190664
0.000156734
-0.000341967
0.000240641
-0.000537155
0.000351649
-0.000780716
0.000492932
-0.00107519
0.000666141
-0.00141973
0.000871582
-0.00180809
0.00110046
-0.00223697
-0.00255065
0.00132463
3.31685e-07
3.11235e-05
2.3745e-06
6.13716e-05
7.98931e-06
6.36171e-05
1.96648e-05
3.69553e-05
4.04516e-05
-2.04405e-05
7.38992e-05
-0.000111596
0.000123971
-0.000240736
0.000194888
-0.000412884
0.000290851
-0.000633117
0.000415575
-0.000905441
0.000571653
-0.00123127
0.000759687
-0.00160776
0.000978975
-0.00202738
0.0012209
-0.00247889
-0.00287589
0.00154613
7.62381e-07
3.03611e-05
4.20193e-06
5.7932e-05
1.23093e-05
5.55098e-05
2.77168e-05
2.15477e-05
5.36431e-05
-4.63668e-05
9.38228e-05
-0.000151776
0.000152387
-0.0002993
0.000233641
-0.000494138
0.000341674
-0.00074115
0.000479758
-0.00104352
0.00064959
-0.0014011
0.00085036
-0.00180853
0.00107959
-0.00225661
0.00132801
-0.00272731
-0.00316876
0.00162088
1.1665e-06
2.91946e-05
5.97247e-06
5.3126e-05
1.65703e-05
4.49119e-05
3.57584e-05
2.35972e-06
6.69344e-05
-7.75428e-05
0.000114011
-0.000198853
0.000181251
-0.00036654
0.000272954
-0.000585841
0.000392936
-0.000861132
0.00054378
-0.00119437
0.000725962
-0.00158328
0.000936954
-0.00201952
0.00117182
-0.00249147
0.00142072
-0.00297621
-0.00343915
0.00169111
1.55042e-06
2.76442e-05
7.70467e-06
4.69718e-05
2.08057e-05
3.18109e-05
4.38381e-05
-2.06726e-05
8.03865e-05
-0.000114091
0.000134527
-0.000252994
0.000210599
-0.000442612
0.000312781
-0.000688023
0.000444427
-0.000992778
0.000607156
-0.0013571
0.000799927
-0.00177605
0.00101831
-0.00223791
0.001255
-0.00272816
0.00149961
-0.00322081
-0.00369072
0.00175117
1.92265e-06
2.57216e-05
9.42327e-06
3.94712e-05
2.50599e-05
1.61742e-05
5.20203e-05
-4.7633e-05
9.40777e-05
-0.000156149
0.000155445
-0.000314361
0.000240462
-0.000527629
0.000353047
-0.000800608
0.000495865
-0.0011356
0.000669302
-0.00153053
0.000870565
-0.00197732
0.0010933
-0.00246064
0.00132822
-0.00296308
0.00156464
-0.00345724
-0.00392414
0.00179807
2.29309e-06
2.34285e-05
1.11573e-05
3.0607e-05
2.93849e-05
-2.05337e-06
6.03783e-05
-7.86264e-05
0.000108092
-0.000203863
0.000176834
-0.000383103
0.000270848
-0.000621643
0.000393616
-0.000923375
0.000546874
-0.00128885
0.000729526
-0.00171319
0.000936889
-0.00218468
0.0011608
-0.00268456
0.00139063
-0.00319291
0.00161586
-0.00368247
-0.00413937
0.00183109
2.67237e-06
2.07561e-05
1.29377e-05
2.03416e-05
3.38354e-05
-2.29511e-05
6.89865e-05
-0.000113777
0.000122509
-0.000257385
0.000198744
-0.000459338
0.000301715
-0.000724614
0.00043427
-0.00105593
0.000596972
-0.00145156
0.000787038
-0.00190325
0.000997893
-0.00239553
0.00121987
-0.00290653
0.00144165
-0.0034147
0.00165348
-0.0038943
-0.00433633
0.00185044
3.07106e-06
1.76851e-05
1.47953e-05
8.61735e-06
3.84641e-05
-4.66199e-05
7.79121e-05
-0.000153225
0.000137388
-0.000316861
0.000221183
-0.000543133
0.000332954
-0.000836385
0.000474697
-0.00119767
0.000645572
-0.00162243
0.00084099
-0.00209867
0.00105262
-0.00260716
0.00126971
-0.00312362
0.00148101
-0.00362599
0.00167797
-0.00409126
-0.00451523
0.00185687
3.49898e-06
1.41861e-05
1.6758e-05
-4.64168e-06
4.3317e-05
-7.31789e-05
8.72079e-05
-0.000197116
0.00015276
-0.000382413
0.000244114
-0.000634488
0.000364382
-0.000956653
0.000514491
-0.00134778
0.000692008
-0.00179995
0.000890527
-0.00229719
0.00110023
-0.00281687
0.00130984
-0.00333323
0.00150874
-0.0038249
0.00169005
-0.00427256
-0.0046767
0.00185152
3.96457e-06
1.02215e-05
1.88491e-05
-1.95262e-05
4.84295e-05
-0.000102759
9.69056e-05
-0.000245592
0.000168621
-0.000454128
0.000267437
-0.000733304
0.000395736
-0.00108495
0.000553163
-0.00150521
0.000735573
-0.00198236
0.000934846
-0.00249646
0.00114008
-0.0030221
0.00134001
-0.00353316
0.00152523
-0.00401011
0.00169068
-0.00443801
-0.00482171
0.00183569
4.47445e-06
5.74705e-06
2.10857e-05
-3.61375e-05
5.3823e-05
-0.000135497
0.000107012
-0.000298781
0.000184922
-0.000532039
0.000290994
-0.000839376
0.000426679
-0.00122064
0.000590165
-0.0016687
0.000775558
-0.00216775
0.000973251
-0.00269416
0.00117174
-0.00322059
0.0013603
-0.00372173
0.0015311
-0.00418091
0.00168099
-0.00458791
-0.00495146
0.00181074
5.0331e-06
7.13947e-07
2.34777e-05
-5.45821e-05
5.95038e-05
-0.000171523
0.000117504
-0.000356781
0.000201574
-0.000616108
0.000314565
-0.000952367
0.000456814
-0.00136289
0.00062492
-0.0018368
0.000811302
-0.00235413
0.0010052
-0.00288805
0.001195
-0.00341039
0.00137101
-0.00389774
0.00152717
-0.00433706
0.00166216
-0.0047229
-0.00506731
0.00177801
5.64283e-06
-4.92888e-06
2.60274e-05
-7.49667e-05
6.54616e-05
-0.000210957
0.000128334
-0.000419654
0.000218442
-0.000706216
0.000337884
-0.00107181
0.000485707
-0.00151071
0.000656856
-0.00200795
0.000842236
-0.00253951
0.00103033
-0.00307615
0.00120992
-0.00358998
0.00137268
-0.00406049
0.00151438
-0.00447877
0.0016354
-0.00484393
-0.00517066
0.00173875
6.30375e-06
-1.12326e-05
2.87296e-05
-9.73925e-05
7.16704e-05
-0.000253898
0.000139425
-0.000487408
0.000235358
-0.00080215
0.000360644
-0.00119709
0.000512903
-0.00166297
0.000685443
-0.00218049
0.000867908
-0.00272198
0.00104848
-0.00325672
0.00121674
-0.00375825
0.00136596
-0.00420971
0.00149375
-0.00460655
0.00160187
-0.00495205
-0.00526286
0.00169408
7.01402e-06
-1.82466e-05
3.15721e-05
-0.000121951
7.80895e-05
-0.000300415
0.000150676
-0.000559995
0.000252121
-0.000903595
0.000382514
-0.00132749
0.000537957
-0.00181841
0.00071022
-0.00235276
0.000888011
-0.00289977
0.00105965
-0.00342836
0.00121588
-0.00391447
0.00135166
-0.00434549
0.00146627
-0.00472116
0.00156264
-0.00504842
-0.0053452
0.00164498
7.77007e-06
-2.60167e-05
3.45365e-05
-0.000148717
8.46653e-05
-0.000350544
0.000161968
-0.000637297
0.000268511
-0.00101014
0.000403156
-0.00146213
0.000560456
-0.00197571
0.000730815
-0.00252311
0.000902384
-0.00307134
0.00106402
-0.00358999
0.00120786
-0.00405832
0.00133058
-0.00446822
0.00143293
-0.00482351
0.00151869
-0.00513418
-0.00541883
0.00159231
8.56688e-06
-3.45836e-05
3.75994e-05
-0.00017775
9.1334e-05
-0.000404278
0.000173166
-0.000719129
0.000284294
-0.00112127
0.000422241
-0.00160008
0.000580036
-0.00213351
0.000746965
-0.00269004
0.000911006
-0.00323538
0.00106189
-0.00374088
0.00119332
-0.00418975
0.00130358
-0.00457847
0.00139463
-0.00491456
0.00147086
-0.00521041
-0.00548475
0.00153678
9.39829e-06
-4.39819e-05
4.07327e-05
-0.000209084
9.8023e-05
-0.000461569
0.000184125
-0.000805231
0.000299233
-0.00123637
0.000439457
-0.0017403
0.000596399
-0.00229045
0.000758516
-0.00285216
0.000913988
-0.00339085
0.0010537
-0.00388059
0.00117293
-0.00430898
0.00127144
-0.00467698
0.00135218
-0.0049953
0.0014199
-0.00527813
-0.00554382
0.00147897
1.02572e-05
-5.42391e-05
4.39054e-05
-0.000242732
0.000104654
-0.000522318
0.000194696
-0.000895272
0.0003131
-0.00135478
0.000454533
-0.00188174
0.000609323
-0.00244524
0.000765421
-0.00300826
0.000911546
-0.00353698
0.00103991
-0.00400895
0.00114736
-0.00441644
0.00123494
-0.00476455
0.00130633
-0.00506669
0.00136643
-0.00533822
-0.00559677
0.00141937
1.11357e-05
-6.53748e-05
4.70837e-05
-0.00027868
0.000111146
-0.00058638
0.000204728
-0.000988855
0.000325677
-0.00147573
0.000467237
-0.0020233
0.000618664
-0.00259666
0.000767733
-0.00315733
0.000903984
-0.00367323
0.00102106
-0.00412603
0.00111729
-0.00451266
0.00119477
-0.00484203
0.00125771
-0.00512963
0.00131096
-0.00539148
-0.00564417
0.00135837
1.20255e-05
-7.74003e-05
5.02322e-05
-0.000316887
0.000117414
-0.000653561
0.000214076
-0.00108552
0.000336772
-0.00159842
0.00047739
-0.00216392
0.000624359
-0.00274363
0.000765591
-0.00329856
0.000891667
-0.0037993
0.000997694
-0.00423205
0.00108333
-0.0045983
0.00115155
-0.00491025
0.00120685
-0.00518494
0.00125394
-0.00543856
-0.00568651
0.00129628
1.29177e-05
-9.03181e-05
5.33144e-05
-0.000357284
0.000123375
-0.000723622
0.000222602
-0.00118474
0.000346216
-0.00172204
0.000484866
-0.00230257
0.000626416
-0.00288518
0.000759202
-0.00343134
0.000875002
-0.0039151
0.000970354
-0.0043274
0.00104609
-0.00467404
0.00110584
-0.00497
0.00115423
-0.00523333
0.00119571
-0.00548004
-0.00572414
0.00123334
1.38031e-05
-0.000104121
5.62933e-05
-0.000399774
0.00012895
-0.000796279
0.00023018
-0.00128597
0.000353874
-0.00184573
0.000489593
-0.00243828
0.00062491
-0.0030205
0.000748829
-0.00355526
0.000854416
-0.00402069
0.000939564
-0.00441255
0.00100611
-0.00474058
0.00105812
-0.00502201
0.00110023
-0.00527544
0.00113655
-0.00551636
-0.00575735
0.00116977
1.46722e-05
-0.000118793
5.91325e-05
-0.000444234
0.00013406
-0.000871206
0.0002367
-0.00138861
0.000359644
-0.00196867
0.000491553
-0.00257019
0.000619973
-0.00314892
0.000734773
-0.00367006
0.000830341
-0.00411626
0.000905817
-0.00448803
0.000963847
-0.00479861
0.0010088
-0.00506697
0.00104517
-0.00531181
0.00107671
-0.0055479
-0.00578636
0.00110572
1.55155e-05
-0.000134309
6.17962e-05
-0.000490515
0.000138635
-0.000948045
0.000242069
-0.00149205
0.00036346
-0.00209007
0.000490774
-0.00269751
0.000611781
-0.00326993
0.000717358
-0.00377564
0.000803204
-0.0042021
0.000869571
-0.0045544
0.000919744
-0.00484879
0.00095823
-0.00510545
0.000989316
-0.0053429
0.00101637
-0.00557495
-0.00581132
0.00104133
1.63234e-05
-0.000150632
6.42503e-05
-0.000538442
0.000142611
-0.00102641
0.000246212
-0.00159565
0.000365288
-0.00220914
0.000487329
-0.00281955
0.000600543
-0.00338314
0.000696919
-0.00387202
0.000773413
-0.0042786
0.000831242
-0.00461222
0.000874166
-0.00489171
0.000906708
-0.005138
0.000932885
-0.00536908
0.00095568
-0.00559775
-0.00583235
0.000976707
1.70866e-05
-0.000167719
6.64628e-05
-0.000587818
0.000145934
-0.00110588
0.000249077
-0.00169879
0.00036513
-0.00232519
0.000481325
-0.00293574
0.000586495
-0.00348831
0.000673793
-0.00395931
0.000741352
-0.00434616
0.000791204
-0.00466208
0.000827434
-0.00492794
0.000854483
-0.00516505
0.000876057
-0.00539065
0.000894772
-0.00561646
-0.00584952
0.000911943
1.77959e-05
-0.000185515
6.84046e-05
-0.000638426
0.000148556
-0.00118603
0.000250631
-0.00180087
0.000363015
-0.00243758
0.000472898
-0.00304563
0.000569886
-0.0035853
0.000648308
-0.00403774
0.000707376
-0.00440523
0.000749788
-0.00470449
0.000779823
-0.00495797
0.000801761
-0.00518698
0.000818981
-0.00540787
0.000833747
-0.00563123
-0.00586289
0.000847118
1.84427e-05
-0.000203958
7.00496e-05
-0.000690033
0.000150443
-0.00126642
0.00025086
-0.00190128
0.000359001
-0.00254572
0.000462207
-0.00314883
0.000550971
-0.00367406
0.00062078
-0.00410754
0.000671811
-0.00445626
0.000707287
-0.00473996
0.000731568
-0.00498225
0.000748717
-0.00520413
0.000761778
-0.00542093
0.000772695
-0.00564215
-0.0058725
0.000782301
1.9019e-05
-0.000222977
7.13758e-05
-0.00074239
0.00015157
-0.00134662
0.00024977
-0.00199948
0.000353165
-0.00264911
0.000449424
-0.00324509
0.000530005
-0.00375464
0.000591507
-0.00416905
0.000634951
-0.0044997
0.000663954
-0.00476897
0.000682867
-0.00500117
0.000695494
-0.00521676
0.000704551
-0.00542999
0.00071169
-0.00564929
-0.00587836
0.000717553
1.95174e-05
-0.000242494
7.23649e-05
-0.000795238
0.000151922
-0.00142617
0.000247384
-0.00209495
0.000345605
-0.00274734
0.000434734
-0.00333422
0.000507239
-0.00382715
0.000560765
-0.00422257
0.000597057
-0.00453599
0.000620011
-0.00479192
0.000633888
-0.00501504
0.000642213
-0.00522508
0.000647386
-0.00543516
0.000650797
-0.0056527
-0.00588049
0.000652932
1.99332e-05
-0.000262427
7.30068e-05
-0.000848311
0.0001515
-0.00150467
0.00024375
-0.0021872
0.000336441
-0.00284003
0.000418334
-0.00341611
0.000482921
-0.00389174
0.000528819
-0.00426847
0.000558374
-0.00456555
0.000575658
-0.0048092
0.000584784
-0.00502417
0.000588983
-0.00522928
0.000590362
-0.00543654
0.000590082
-0.00565242
-0.00587891
0.000588498
2.02576e-05
-0.000282685
7.32848e-05
-0.000901339
0.000150299
-0.00158168
0.000238903
-0.0022758
0.000325778
-0.0029269
0.000400392
-0.00349073
0.00045726
-0.0039486
0.000495879
-0.00430709
0.000519086
-0.00458876
0.000531037
-0.00482116
0.000535655
-0.00502879
0.000535873
-0.0052295
0.000533526
-0.00543419
0.000529577
-0.00564847
-0.00587361
0.00052428
2.04876e-05
-0.000303172
7.31972e-05
-0.000954048
0.000148339
-0.00165682
0.000232914
-0.00236038
0.00031375
-0.00300774
0.000381103
-0.00355808
0.000430479
-0.00399798
0.000462164
-0.00433877
0.000479384
-0.00460598
0.000486299
-0.00482807
0.000486611
-0.0050291
0.000482962
-0.00522585
0.000476941
-0.00542817
0.000469339
-0.00564087
-0.00586461
0.000460333
2.06199e-05
-0.000323792
7.2743e-05
-0.00100617
0.000145641
-0.00172972
0.000225854
-0.00244059
0.000300489
-0.00308237
0.000360642
-0.00361823
0.000402774
-0.00404011
0.000427862
-0.00436386
0.000439422
-0.00461754
0.000441563
-0.00483021
0.00043774
-0.00502528
0.000430314
-0.00521843
0.000420654
-0.00541851
0.000409407
-0.00562962
-0.0058519
0.000396699
2.06519e-05
-0.000344444
7.1925e-05
-0.00105744
0.000142236
-0.00180003
0.0002178
-0.00251615
0.000286125
-0.0031507
0.00033918
-0.00367129
0.000374325
-0.00407526
0.000393138
-0.00438267
0.000399339
-0.00462374
0.00039693
-0.0048278
0.000389113
-0.00501746
0.000377983
-0.0052073
0.000364709
-0.00540524
0.000349822
-0.00561473
-0.0058355
0.000333417
2.05823e-05
-0.000365026
7.075e-05
-0.00110761
0.000138158
-0.00186744
0.000208834
-0.00258683
0.000270788
-0.00321265
0.000316877
-0.00371738
0.000345298
-0.00410368
0.000358139
-0.00439552
0.00035925
-0.00462485
0.000352489
-0.00482104
0.000340795
-0.00500577
0.000326016
-0.00519252
0.000309147
-0.00538837
0.000290621
-0.00559621
-0.0058154
0.000270521
2.04108e-05
-0.000385437
6.92279e-05
-0.00115643
0.000133448
-0.00193166
0.00019904
-0.00265242
0.000254604
-0.00326821
0.000293881
-0.00375666
0.00031584
-0.00412564
0.000322994
-0.00440267
0.000319258
-0.00462111
0.000308313
-0.0048101
0.000292839
-0.00499029
0.000274453
-0.00517413
0.000253997
-0.00536791
0.000231838
-0.00557405
-0.00579161
0.000208049
2.0138e-05
-0.000405575
6.73718e-05
-0.00120366
0.000128147
-0.00199243
0.000188503
-0.00271278
0.000237692
-0.0033174
0.000270329
-0.00378929
0.000286084
-0.00414139
0.000287817
-0.0044044
0.00027945
-0.00461275
0.000264467
-0.00479512
0.000245295
-0.00497112
0.000223335
-0.00515217
0.000199289
-0.00534387
0.000173491
-0.00554825
-0.00576415
0.000146038
1.97654e-05
-0.000425341
6.5197e-05
-0.00124909
0.000122303
-0.00204954
0.000177306
-0.00276778
0.000220167
-0.00336027
0.000246348
-0.00381547
0.00025615
-0.00415119
0.000252706
-0.00440096
0.000239901
-0.00459994
0.000221008
-0.00477622
0.000198209
-0.00494832
0.000172706
-0.00512667
0.000145075
-0.00531624
0.000115589
-0.00551876
-0.00573293
8.43708e-05
1.92956e-05
-0.000444636
6.27211e-05
-0.00129252
0.000115963
-0.00210278
0.000165531
-0.00281735
0.000202137
-0.00339687
0.000222053
-0.00383539
0.000226143
-0.00415528
0.000217748
-0.00439256
0.000200677
-0.00458287
0.000177984
-0.00475353
0.000151616
-0.00492195
0.000122609
-0.00509766
9.14565e-05
-0.00528508
5.8232e-05
-0.00548554
-0.00569718
2.24777e-05
1.87315e-05
-0.000463368
5.99632e-05
-0.00133375
0.000109174
-0.00215199
0.000153259
-0.00286143
0.000183702
-0.00342731
0.000197548
-0.00384923
0.000196156
-0.00415389
0.000183018
-0.00437943
0.000161833
-0.00456168
0.000135433
-0.00472713
0.000105548
-0.00489207
7.30591e-05
-0.00506517
3.84604e-05
-0.00525048
2.23763e-06
-0.00544932
-0.0056574
-3.75441e-05
1.8077e-05
-0.000481445
5.69436e-05
-0.00137262
0.000101985