/*--------------------------------*- C++ -*----------------------------------*\
  =========                 |
  \\      /  F ield         | OpenFOAM: The Open Source CFD Toolbox
   \\    /   O peration     | Website:  https://openfoam.org
    \\  /    A nd           | Version:  7
     \\/     M anipulation  |
\*---------------------------------------------------------------------------*/
FoamFile
{
    version     2.0;
    format      ascii;
    class       volVectorField;
    location    "300";
    object      U;
}
// * * * * * * * * * * * * * * * * * * * * * * * * * * * * * * * * * * * * * //

dimensions      [0 1 -1 0 0 0 0];

internalField   nonuniform List<vector> 
20050
(
(0.000328998 -0.0449818 5.40704e-21)
(-0.000636368 -0.11544 -9.65458e-22)
(-0.00457059 -0.170285 -1.23534e-20)
(-0.0110204 -0.210678 -1.85256e-20)
(-0.0197137 -0.238586 -1.67087e-21)
(-0.0301596 -0.256552 1.13658e-20)
(-0.0417662 -0.267316 -1.27381e-20)
(-0.0539582 -0.273433 3.31464e-21)
(-0.0662445 -0.276957 -9.07007e-21)
(-0.0782557 -0.27927 1.67166e-20)
(-0.0897454 -0.281053 1.43884e-20)
(-0.100567 -0.282373 -1.76365e-20)
(-0.110647 -0.282811 -9.08688e-21)
(-0.119887 -0.281597 9.71036e-21)
(-0.128173 -0.277637 -1.0431e-20)
(0.00128127 -0.0442324 8.8249e-21)
(0.00131054 -0.113196 -5.91319e-21)
(-0.00261817 -0.16662 -2.6393e-21)
(-0.00963045 -0.205759 1.85468e-20)
(-0.0192601 -0.232673 2.2801e-20)
(-0.0308605 -0.249955 -5.61098e-20)
(-0.0437296 -0.260347 3.42254e-20)
(-0.0572336 -0.266365 3.60582e-20)
(-0.0708665 -0.270002 4.72423e-20)
(-0.0842801 -0.272572 -4.51579e-20)
(-0.0972753 -0.2747 3.0305e-20)
(-0.10977 -0.276413 2.89823e-20)
(-0.121767 -0.277277 1.68524e-20)
(-0.133216 -0.27653 -5.40724e-20)
(-0.144072 -0.273053 4.50926e-20)
(0.00218001 -0.043193 -3.59873e-20)
(0.00312303 -0.11031 -4.52897e-20)
(-0.000839207 -0.162136 3.44651e-20)
(-0.00841044 -0.199963 4.3361e-20)
(-0.0189302 -0.225901 -2.77972e-20)
(-0.0315989 -0.242557 -5.18662e-20)
(-0.0456085 -0.252644 3.28349e-20)
(-0.0602692 -0.258619 -9.51772e-20)
(-0.0750607 -0.262401 -4.59988e-20)
(-0.0896539 -0.265229 -3.73367e-20)
(-0.103893 -0.267671 -5.33402e-20)
(-0.117757 -0.269714 9.63006e-21)
(-0.131323 -0.27092 3.87297e-20)
(-0.14458 -0.270538 1.80971e-19)
(-0.157534 -0.267446 -7.06663e-20)
(0.00300701 -0.0418729 4.8936e-21)
(0.00476678 -0.106811 9.04526e-20)
(0.000732154 -0.156878 3.55134e-20)
(-0.00738704 -0.193347 -6.29129e-20)
(-0.0187403 -0.218337 1.50077e-20)
(-0.032381 -0.23443 5.87372e-20)
(-0.0473999 -0.244284 5.41044e-20)
(-0.063054 -0.250276 3.62005e-20)
(-0.0788081 -0.254239 -6.80163e-20)
(-0.0943485 -0.257335 1.90888e-19)
(-0.109557 -0.260067 -8.21541e-20)
(-0.124467 -0.262389 1.15483e-19)
(-0.139226 -0.263856 -3.99097e-20)
(-0.153856 -0.263743 -1.50902e-19)
(-0.168391 -0.260935 5.78575e-20)
(0.00374515 -0.0402854 1.27035e-19)
(0.00620993 -0.102734 -4.95069e-20)
(0.0020646 -0.150898 -3.63417e-21)
(-0.00658448 -0.185977 3.52768e-20)
(-0.0187053 -0.210054 2.24992e-20)
(-0.0332126 -0.225651 2.99233e-20)
(-0.0491025 -0.235345 -1.17577e-19)
(-0.0655813 -0.241417 -1.02078e-20)
(-0.0820974 -0.245605 7.4497e-21)
(-0.0983471 -0.248985 -1.86738e-19)
(-0.114242 -0.251997 1.67366e-19)
(-0.129862 -0.254558 -1.16635e-19)
(-0.145421 -0.25622 -5.3847e-20)
(-0.160962 -0.256284 -2.9428e-20)
(-0.17653 -0.253663 -7.18345e-20)
(0.00437871 -0.0384476 -7.53298e-20)
(0.00742381 -0.0981207 -3.11094e-20)
(0.00313045 -0.144256 -9.77172e-20)
(-0.00602374 -0.177922 -1.73329e-20)
(-0.018838 -0.201125 -6.82692e-20)
(-0.0340992 -0.216296 -5.58434e-20)
(-0.0507163 -0.225904 -6.92441e-20)
(-0.0678476 -0.232123 4.16155e-20)
(-0.0849232 -0.236585 4.94396e-20)
(-0.101643 -0.240277 1.84999e-20)
(-0.11794 -0.243573 3.33239e-20)
(-0.13393 -0.24635 5.67991e-20)
(-0.149885 -0.248155 -9.62058e-20)
(-0.165862 -0.248316 -6.18706e-20)
(-0.181897 -0.245789 2.09562e-19)
(0.00489377 -0.0363796 -4.61274e-20)
(0.00838354 -0.0930204 -4.72303e-20)
(0.00390642 -0.137017 2.12427e-19)
(-0.00572166 -0.169255 1.12203e-19)
(-0.0191476 -0.191627 3.28891e-21)
(-0.0350438 -0.206441 3.79507e-20)
(-0.0522403 -0.21604 1.01871e-19)
(-0.0698506 -0.222474 -6.69332e-20)
(-0.087284 -0.227265 4.85474e-20)
(-0.104238 -0.231309 6.25558e-20)
(-0.120653 -0.234908 -1.98688e-19)
(-0.136674 -0.237897 -3.68323e-20)
(-0.152623 -0.239813 -1.67146e-19)
(-0.16856 -0.240006 1.06457e-19)
(-0.184493 -0.237487 -1.28452e-19)
(0.00527852 -0.0341049 5.97837e-20)
(0.0090687 -0.0874859 -4.62902e-20)
(0.00437434 -0.12925 -1.63299e-19)
(-0.00569017 -0.160054 -1.81011e-19)
(-0.0196393 -0.181639 -2.17766e-19)
(-0.0360459 -0.196163 5.62128e-20)
(-0.0536709 -0.205825 7.23263e-20)
(-0.0715866 -0.212544 1.46989e-19)
(-0.0891787 -0.217726 -7.11509e-20)
(-0.106134 -0.222172 -6.22361e-20)
(-0.122394 -0.226112 1.1847e-19)
(-0.138115 -0.229329 -1.20444e-19)
(-0.153662 -0.231345 1.19034e-19)
(-0.169095 -0.231523 -1.80033e-19)
(-0.184369 -0.228938 1.16239e-19)
(0.00552351 -0.0316491 -9.89712e-21)
(0.00946379 -0.0815748 4.80194e-20)
(0.00452187 -0.121028 2.41028e-19)
(-0.00593534 -0.150396 2.30279e-19)
(-0.0203125 -0.171237 9.54329e-20)
(-0.0370999 -0.185535 -2.94272e-20)
(-0.055 -0.19533 -1.18765e-19)
(-0.0730473 -0.202402 5.3637e-20)
(-0.0906027 -0.20804 2.68156e-20)
(-0.107336 -0.21295 -7.83154e-20)
(-0.123176 -0.217285 -2.45845e-19)
(-0.138279 -0.220771 -7.50102e-20)
(-0.153044 -0.222901 2.0679e-19)
(-0.167527 -0.223039 3.30801e-20)
(-0.181609 -0.22032 -2.38521e-19)
(0.00562197 -0.0290406 -9.06533e-20)
(0.00955881 -0.0753485 -2.49262e-19)
(0.0043431 -0.112429 -2.7736e-19)
(-0.00645663 -0.140364 -1.70161e-19)
(-0.0211603 -0.160499 1.20163e-19)
(-0.0381937 -0.174628 2.03724e-20)
(-0.0562124 -0.18462 4.54614e-20)
(-0.0742176 -0.192111 -4.36463e-20)
(-0.0915439 -0.198272 4.0575e-19)
(-0.107837 -0.203715 1.34458e-19)
(-0.123004 -0.208516 2.23702e-19)
(-0.137188 -0.212335 3.06705e-19)
(-0.150811 -0.214618 -2.18726e-19)
(-0.163925 -0.214714 3.40827e-19)
(-0.176313 -0.211805 4.85293e-20)
(0.00556997 -0.0263094 9.07859e-20)
(0.00934959 -0.0688716 1.43368e-19)
(0.0038391 -0.103531 1.21875e-19)
(-0.00724621 -0.130037 -1.42519e-19)
(-0.0221681 -0.149502 1.16094e-19)
(-0.0393071 -0.163512 1.93422e-20)
(-0.0572837 -0.173757 -3.31844e-19)
(-0.0750714 -0.181725 2.95288e-19)
(-0.0919777 -0.188475 -2.41225e-19)
(-0.107619 -0.194526 -6.87148e-20)
(-0.121871 -0.199877 -2.72206e-21)
(-0.13485 -0.204112 1.78886e-19)
(-0.14699 -0.206616 2.29464e-19)
(-0.158344 -0.206691 -1.98478e-19)
(-0.168564 -0.203544 4.42514e-20)
(0.00536665 -0.0234872 -1.62209e-19)
(0.00883816 -0.0622107 4.909e-20)
(0.00301831 -0.0944149 -1.10855e-19)
(-0.00828835 -0.119498 -8.89195e-21)
(-0.023313 -0.138322 1.37793e-19)
(-0.0404105 -0.152253 -1.71395e-19)
(-0.0581787 -0.162795 2.29562e-19)
(-0.0755693 -0.171292 -2.79965e-19)
(-0.0918633 -0.178691 -3.55885e-19)
(-0.106643 -0.185425 1.04087e-19)
(-0.119745 -0.191417 2.1314e-19)
(-0.131245 -0.196172 -2.55686e-19)
(-0.141579 -0.198989 2.10478e-19)
(-0.150809 -0.19909 -3.62043e-19)
(-0.158408 -0.195661 2.5239e-19)
(0.0050143 -0.0206068 4.28059e-19)
(0.00803293 -0.0554346 -2.79545e-19)
(0.0018968 -0.0851634 1.30261e-19)
(-0.00955914 -0.10883 1.9069e-19)
(-0.0245631 -0.127034 -2.23309e-19)
(-0.041464 -0.140914 3.29071e-19)
(-0.0588498 -0.151787 -4.62361e-20)
(-0.0756561 -0.160851 -4.11935e-19)
(-0.0911391 -0.168948 1.19687e-19)
(-0.104845 -0.176435 5.88631e-20)
(-0.116563 -0.183162 -2.95346e-19)
(-0.126316 -0.188552 2.43491e-19)
(-0.13453 -0.191797 -7.7639e-19)
(-0.141291 -0.191996 6.23806e-19)
(-0.145821 -0.188244 -2.15389e-19)
(0.00451847 -0.0177018 -3.03487e-19)
(0.00694878 -0.0486129 4.80438e-20)
(0.000498308 -0.0758592 -2.48113e-19)
(-0.0110264 -0.0981154 -2.15158e-19)
(-0.0258775 -0.115713 -2.28046e-19)
(-0.0424173 -0.129558 -3.67355e-19)
(-0.0592357 -0.140779 4.56956e-19)
(-0.0752591 -0.150434 5.54002e-19)
(-0.0897205 -0.159266 3.91132e-20)
(-0.102128 -0.167562 -2.70479e-19)
(-0.112219 -0.175113 1.91663e-20)
(-0.119954 -0.181258 2.24242e-19)
(-0.125737 -0.185062 -9.38241e-20)
(-0.129691 -0.185457 -2.81101e-20)
(-0.13068 -0.18134 3.18963e-19)
(0.00388797 -0.0148063 1.87869e-19)
(0.00560701 -0.0418159 2.42094e-19)
(-0.00114589 -0.0665859 7.5133e-20)
(-0.0126497 -0.0874377 2.89486e-19)
(-0.0272066 -0.104434 1.24059e-19)
(-0.0432095 -0.118246 2.42462e-19)
(-0.0592621 -0.129818 -2.87598e-20)
(-0.0742874 -0.140069 -2.46186e-19)
(-0.0874981 -0.149652 1.16905e-19)
(-0.0983644 -0.158797 4.1376e-19)
(-0.106568 -0.167245 1.45066e-19)
(-0.111996 -0.174259 -1.8001e-19)
(-0.11502 -0.178764 3.33822e-19)
(-0.115829 -0.179474 -2.15721e-19)
(-0.112755 -0.174953 2.35574e-20)
(0.00313477 -0.0119541 -3.26613e-20)
(0.00403506 -0.0351134 -9.33347e-20)
(-0.00299741 -0.0574266 2.31148e-19)
(-0.0143815 -0.0768798 1.41153e-19)
(-0.0284922 -0.0932705 2.86072e-19)
(-0.0437698 -0.107041 -1.5612e-19)
(-0.0588418 -0.118948 -3.46909e-19)
(-0.0726333 -0.129783 -1.58645e-19)
(-0.0843389 -0.140111 -2.22204e-19)
(-0.0933918 -0.150117 -4.96742e-19)
(-0.0994182 -0.159511 -2.72275e-19)
(-0.102222 -0.16749 -7.36044e-20)
(-0.102128 -0.172836 -3.17664e-19)
(-0.0994424 -0.174003 -3.16884e-21)
(-0.0916956 -0.16904 1.5866e-19)
(0.00227386 -0.00917851 -1.34775e-19)
(0.00226612 -0.0285741 -8.35141e-20)
(-0.00501141 -0.0484638 1.19814e-20)
(-0.0161671 -0.0665249 -6.01208e-19)
(-0.0296693 -0.0822993 -5.68081e-19)
(-0.0440194 -0.0960044 -2.22107e-19)
(-0.0578771 -0.108218 4.25634e-19)
(-0.0701742 -0.119602 -2.04255e-19)
(-0.0800893 -0.130644 1.95779e-19)
(-0.0870192 -0.141494 2.63605e-19)
(-0.090536 -0.151847 9.37248e-20)
(-0.0903556 -0.160856 -1.6876e-19)
(-0.08674 -0.167165 1.86765e-19)
(-0.0801913 -0.168951 1.49319e-19)
(-0.0670513 -0.163517 -2.06349e-19)
(0.00132292 -0.00651149 -3.48485e-20)
(0.0003385 -0.0222647 1.10631e-19)
(-0.00713748 -0.0397782 -3.24122e-19)
(-0.0179466 -0.0564557 7.49697e-19)
(-0.0306672 -0.0715972 5.34686e-19)
(-0.043873 -0.0852041 8.83358e-20)
(-0.0562626 -0.0976794 -2.67784e-19)
(-0.0667771 -0.109559 1.0724e-19)
(-0.0745801 -0.121259 1.36188e-19)
(-0.0790334 -0.132901 -3.32876e-19)
(-0.0796576 -0.144182 3.9318e-19)
(-0.0760794 -0.15424 1.50897e-19)
(-0.0684775 -0.161602 -2.43636e-19)
(-0.0576816 -0.16419 1.64893e-19)
(-0.0382928 -0.158279 6.11102e-20)
(0.000301952 -0.00398312 5.52265e-20)
(-0.0017052 -0.0162486 2.83129e-19)
(-0.00932071 -0.0314483 -1.34845e-20)
(-0.0196558 -0.0467541 -4.34117e-19)
(-0.0314114 -0.0612426 -3.13059e-19)
(-0.0432416 -0.0747095 3.26341e-19)
(-0.0538884 -0.087389 4.53268e-19)
(-0.0623031 -0.0996943 -6.69126e-20)
(-0.0676344 -0.111971 -1.96823e-19)
(-0.0692092 -0.124319 4.95101e-19)
(-0.0665013 -0.136451 -3.95456e-19)
(-0.0590516 -0.147517 2.03784e-19)
(-0.0469336 -0.155963 2.59579e-19)
(-0.0315047 -0.159551 -7.73382e-19)
(-0.00488148 -0.153147 9.62484e-20)
(-0.000767265 -0.00162083 1.558e-19)
(-0.00381906 -0.0105852 -1.26233e-19)
(-0.0115029 -0.0235492 -3.64416e-22)
(-0.0212278 -0.0375008 9.59562e-20)
(-0.0318254 -0.0513148 1.23509e-19)
(-0.0420352 -0.0645946 -3.60227e-19)
(-0.0506445 -0.0774119 -1.72791e-19)
(-0.0566141 -0.0900595 -3.50947e-19)
(-0.0590762 -0.102811 -3.39928e-19)
(-0.0573225 -0.115746 2.91534e-19)
(-0.0507852 -0.128605 -3.21987e-19)
(-0.038929 -0.140571 -3.72824e-20)
(-0.021697 -0.150054 9.20667e-20)
(-0.00126153 -0.15482 -3.44241e-20)
(0.0335171 -0.147649 2.96315e-19)
(-0.00186168 0.000551026 -4.92678e-20)
(-0.00595499 -0.00532809 -3.35791e-19)
(-0.0136241 -0.0161511 -2.8432e-19)
(-0.0225947 -0.0287737 -5.95719e-20)
(-0.0318328 -0.0418935 5.39803e-20)
(-0.0401653 -0.0549369 -1.03549e-20)
(-0.0464244 -0.0678206 -6.54271e-20)
(-0.0495782 -0.080718 -5.05396e-20)
(-0.0487398 -0.0938286 1.77914e-19)
(-0.0431647 -0.107208 -1.31846e-19)
(-0.0322482 -0.120624 3.7794e-19)
(-0.0153947 -0.133318 -4.00093e-19)
(0.00762835 -0.143708 -2.86727e-19)
(0.0335901 -0.149804 1.96629e-19)
(0.0767552 -0.140938 -2.24805e-19)
(-0.00295766 0.0025122 -1.27414e-19)
(-0.00806371 -0.00052456 4.1346e-20)
(-0.0156235 -0.00931841 2.41881e-19)
(-0.0236889 -0.0206471 -1.25702e-19)
(-0.0313589 -0.0330578 2.01237e-19)
(-0.0375471 -0.0458167 -6.60842e-20)
(-0.0411284 -0.058694 -3.40898e-19)
(-0.0410751 -0.0717454 4.45189e-19)
(-0.0364778 -0.0850913 1.95615e-19)
(-0.0265554 -0.0987549 -5.47575e-19)
(-0.0106716 -0.112528 5.44752e-20)
(0.0118019 -0.125722 -1.18216e-20)
(0.0413127 -0.136815 5.82661e-19)
(0.0738818 -0.144394 1.14786e-19)
(0.125171 -0.133428 3.05885e-19)
(-0.00403205 0.00424702 5.4456e-21)
(-0.0100963 0.00378601 2.88271e-19)
(-0.0174411 -0.00310822 -1.38132e-19)
(-0.024444 -0.01319 1.91201e-19)
(-0.0303318 -0.0248841 3.61633e-19)
(-0.034101 -0.0373148 4.61605e-19)
(-0.0346659 -0.0501156 1.38765e-19)
(-0.0309992 -0.063226 -2.99628e-20)
(-0.0221667 -0.0766826 5.56708e-19)
(-0.00735135 -0.090465 6.17004e-19)
(0.0141075 -0.104376 5.54522e-20)
(0.042831 -0.117799 5.73668e-19)
(0.0793579 -0.129319 -8.34341e-22)
(0.119521 -0.13825 -4.65076e-19)
(0.180028 -0.125536 -3.00011e-19)
(-0.00506244 0.00574456 1.54742e-19)
(-0.0120053 0.00757297 3.15651e-19)
(-0.0190185 0.0024312 5.26969e-20)
(-0.0247958 -0.00646413 3.67867e-19)
(-0.0286829 -0.017444 -4.40599e-19)
(-0.0297529 -0.02951 -5.72141e-20)
(-0.0269555 -0.0421697 -9.40378e-20)
(-0.0192606 -0.0552491 6.72333e-19)
(-0.00570806 -0.0686963 -9.13365e-19)
(0.0145513 -0.0824345 -6.15109e-19)
(0.0421919 -0.096258 2.31677e-19)
(0.0778076 -0.109605 -2.84177e-19)
(0.121889 -0.12119 -7.59812e-20)
(0.170007 -0.131067 2.19544e-19)
(0.240788 -0.116868 7.41279e-19)
(-0.00602808 0.00699911 1.47256e-19)
(-0.0137454 0.010815 -5.76268e-19)
(-0.0202996 0.00726155 1.25677e-19)
(-0.0246829 -0.000522532 -5.67077e-19)
(-0.0263467 -0.0108021 2.8495e-19)
(-0.0244337 -0.0224758 -1.89808e-19)
(-0.0179241 -0.0349372 -2.06873e-19)
(-0.0057831 -0.0479025 -4.97237e-19)
(0.0129737 -0.0612277 1.76574e-19)
(0.0392191 -0.0747677 2.51508e-19)
(0.0736228 -0.0882888 -1.28082e-20)
(0.116722 -0.101261 2.34342e-19)
(0.168905 -0.112521 -1.20314e-19)
(0.22529 -0.123012 -3.75046e-20)
(0.306469 -0.106991 -4.60795e-20)
(-0.00691047 0.00801021 -6.47486e-19)
(-0.0152748 0.0135009 2.59665e-20)
(-0.0212315 0.0113557 -5.31813e-20)
(-0.0240457 0.00459268 9.38111e-20)
(-0.0232599 -0.00501316 -4.27327e-19)
(-0.018077 -0.0162767 5.18848e-19)
(-0.00750359 -0.0284902 -1.537e-20)
(0.00950033 -0.0412653 -6.37014e-19)
(0.0339377 -0.0543636 -5.85231e-19)
(0.0666912 -0.0675631 -4.95808e-19)
(0.108397 -0.080581 -2.21684e-19)
(0.159495 -0.0928842 -1.40135e-19)
(0.22016 -0.103398 -4.54105e-19)
(0.285204 -0.114187 -2.97771e-19)
(0.376031 -0.0958087 3.34306e-19)
(-0.00769378 0.00878239 3.7006e-19)
(-0.0165552 0.0156293 2.95451e-19)
(-0.021764 0.0146986 3.48738e-19)
(-0.0228268 0.00885192 -1.04108e-19)
(-0.0193597 -0.000119091 1.88232e-19)
(-0.0106168 -0.0109643 -2.60916e-19)
(0.0043735 -0.0228871 1.32825e-19)
(0.0266538 -0.0354009 8.243e-19)
(0.0572354 -0.0481728 3.11447e-19)
(0.0969901 -0.0608965 6.59846e-19)
(0.14648 -0.0732241 2.46758e-19)
(0.206004 -0.0845812 -4.35604e-20)
(0.275322 -0.0939585 4.0068e-19)
(0.349407 -0.104567 -4.14079e-19)
(0.448194 -0.0833963 -4.46198e-19)
(-0.00836508 0.00932483 -3.26309e-19)
(-0.0175527 0.0172086 -5.27113e-19)
(-0.0218496 0.0172877 1.10408e-19)
(-0.0209688 0.0122397 -2.09807e-19)
(-0.0145818 0.00385336 2.49457e-19)
(-0.00198336 -0.00657325 -5.22405e-19)
(0.0177789 -0.0181673 1.5137e-19)
(0.0457455 -0.03035 -2.34235e-19)
(0.0829204 -0.042696 -2.22592e-19)
(0.130134 -0.0548088 -2.97995e-19)
(0.187825 -0.0662679 -5.01472e-19)
(0.256093 -0.0764124 4.91549e-20)
(0.334004 -0.0843528 4.16432e-19)
(0.417426 -0.0940228 3.23833e-19)
(0.521343 -0.069853 2.15846e-19)
(-0.00891445 0.00965071 2.39119e-19)
(-0.018237 0.0182566 -3.80209e-20)
(-0.0214427 0.019133 1.75983e-19)
(-0.0184137 0.0147559 5.6402e-19)
(-0.00885778 0.00689523 -6.12151e-19)
(0.00790037 -0.00311895 5.47388e-19)
(0.032794 -0.0143466 -5.14672e-19)
(0.0668539 -0.0261248 8.32075e-20)
(0.111055 -0.037938 2.21612e-19)
(0.166147 -0.0492989 2.04978e-20)
(0.232379 -0.0597103 3.35868e-19)
(0.309583 -0.0683824 3.44912e-19)
(0.395816 -0.0747014 -2.32536e-19)
(0.488637 -0.0822215 -5.32055e-19)
(0.593446 -0.0551588 7.2859e-19)
(-0.00933473 0.0097764 -1.4812e-19)
(-0.0185813 0.018799 3.7981e-19)
(-0.0204989 0.0202573 -2.32812e-19)
(-0.0151003 0.0164164 -1.58494e-19)
(-0.00211226 0.00901595 3.24095e-19)
(0.0191211 -0.000593047 -6.58405e-20)
(0.0495136 -0.011413 2.01204e-19)
(0.0900724 -0.0227044 1.19044e-18)
(0.141714 -0.033865 1.54299e-19)
(0.205057 -0.0443195 7.86229e-20)
(0.28008 -0.0534987 -1.43323e-19)
(0.366267 -0.0604573 -2.05171e-19)
(0.460445 -0.0650774 -1.62248e-19)
(0.562392 -0.0686747 2.23759e-19)
(0.662544 -0.0398602 -1.1066e-18)
(-0.00962119 0.00972053 4.65914e-19)
(-0.0185616 0.0188685 4.00677e-19)
(-0.0189736 0.0206948 1.32159e-19)
(-0.0109636 0.0172527 -3.06886e-20)
(0.00573953 0.0102458 1.98321e-19)
(0.0317792 0.00103828 -1.52098e-19)
(0.0680481 -0.00932479 -9.3475e-20)
(0.11551 -0.0200324 -1.45668e-19)
(0.174982 -0.0304014 -6.60803e-19)
(0.246884 -0.0397766 1.57397e-19)
(0.330832 -0.0475351 6.06992e-20)
(0.42585 -0.0525878 6.58542e-20)
(0.527589 -0.0554764 4.83517e-19)
(0.638104 -0.0533397 -2.97325e-20)
(0.729082 -0.027506 1.97844e-19)
(-0.00977088 0.00950304 -7.37376e-19)
(-0.0181556 0.0185035 -2.85534e-19)
(-0.0168202 0.0204904 -7.40959e-20)
(-0.00593265 0.0173127 -6.33514e-21)
(0.0147921 0.0106367 -3.44225e-19)
(0.04599 0.00183423 1.5666e-19)
(0.0885247 -0.00800862 1.50077e-20)
(0.143289 -0.0180151 4.60686e-19)
(0.210946 -0.0274296 -1.71569e-19)
(0.291629 -0.0355313 -1.5674e-19)
(0.384472 -0.0416765 -2.00743e-20)
(0.487881 -0.0446944 -1.32541e-20)
(0.596573 -0.0457937 -4.47983e-19)
(0.714124 -0.0376993 1.06827e-19)
(0.798532 -0.023801 -2.7982e-19)
(-0.00978176 0.00914431 5.38189e-19)
(-0.0173412 0.017746 1.63773e-19)
(-0.0139899 0.0196982 -3.33943e-19)
(7.0609e-05 0.0166593 1.55719e-19)
(0.0251511 0.0102612 -6.11054e-19)
(0.0618821 0.00188054 1.20221e-19)
(0.111084 -0.00735944 2.10505e-19)
(0.173539 -0.016523 -4.8003e-19)
(0.249684 -0.0247931 6.42411e-19)
(0.339253 -0.031405 3.68406e-19)
(0.44076 -0.0357354 2.41937e-19)
(0.551793 -0.0366268 6.8009e-20)
(0.666281 -0.0358853 -4.88575e-21)
(0.786542 -0.0247914 -1.13841e-19)
(0.874862 -0.0221474 4.89332e-19)
(-0.00965198 0.00866411 -6.0589e-19)
(-0.0160951 0.0166403 -5.3972e-19)
(-0.0104295 0.01838 4.98266e-20)
(0.00713174 0.0153688 1.57217e-19)
(0.036933 0.009211 5.7011e-19)
(0.0795959 0.00128839 -1.88052e-19)
(0.135873 -0.0072422 -7.34078e-19)
(0.206384 -0.0153936 -5.70072e-19)
(0.291245 -0.0223029 -3.55634e-19)
(0.389657 -0.0271905 -6.59287e-19)
(0.499357 -0.0295009 2.54536e-19)
(0.616932 -0.0282005 1.4099e-19)
(0.73561 -0.0255237 1.25387e-19)
(0.855638 -0.0130039 2.79957e-19)
(0.945289 -0.0133955 1.39233e-19)
(-0.00937894 0.00808093 4.04004e-19)
(-0.0143921 0.0152316 3.63295e-19)
(-0.00608139 0.0166036 1.48734e-19)
(0.0153436 0.0135298 -4.35733e-19)
(0.050263 0.00759601 -2.8464e-19)
(0.0992779 0.000191803 2.08177e-19)
(0.163038 -0.0074956 2.82381e-19)
(0.241929 -0.0144379 5.54512e-19)
(0.335633 -0.0197478 1.66077e-19)
(0.44266 -0.0226695 9.57199e-20)
(0.559819 -0.0227677 -5.64086e-19)
(0.682572 -0.0192384 -4.0916e-19)
(0.803515 -0.0145696 6.2755e-20)
(0.920991 -0.00130316 -1.27872e-19)
(1.00855 -0.0019659 3.03186e-19)
(-0.00895845 0.00741149 1.19597e-19)
(-0.0122031 0.013565 -2.64891e-19)
(-0.000882287 0.014441 -2.60453e-19)
(0.0248054 0.0112402 5.18907e-20)
(0.0652712 0.00554101 2.3365e-19)
(0.121075 -0.00125586 4.19762e-19)
(0.192713 -0.00793723 -2.47319e-19)
(0.280243 -0.0134483 2.49429e-19)
(0.382779 -0.0169069 1.03405e-19)
(0.497977 -0.0176304 -5.31164e-19)
(0.621583 -0.0153614 1.05594e-19)
(0.747903 -0.00961625 5.58599e-20)
(0.869034 -0.00301537 -1.56673e-19)
(0.981907 0.0106051 -2.64853e-19)
(1.0652 0.0106048 -5.61861e-19)
(-0.00838397 0.0066704 7.41453e-20)
(-0.00949504 0.0116839 -1.01103e-19)
(0.00523592 0.0119669 2.58323e-19)
(0.0356206 0.00860537 -2.2982e-19)
(0.0820882 0.00318282 4.12632e-20)
(0.145124 -0.0028864 -1.09442e-19)
(0.225001 -0.00837027 -1.3982e-19)
(0.32134 -0.0122084 8.21084e-20)
(0.432527 -0.0135635 3.12659e-20)
(0.555209 -0.0118854 4.92321e-19)
(0.683979 -0.00715666 2.05921e-19)
(0.812064 0.000721678 2.28742e-19)
(0.931285 0.00906893 5.99216e-19)
(1.03781 0.0227619 -1.75218e-19)
(1.11505 0.023645 3.10976e-19)
(-0.00764613 0.0058701 -2.2478e-19)
(-0.00623023 0.00963022 4.83489e-19)
(0.0123457 0.00925692 1.37431e-19)
(0.0478942 0.00573603 6.11616e-19)
(0.100839 0.000666658 1.43283e-19)
(0.171542 -0.00452201 -5.2023e-19)
(0.259968 -0.00859104 2.26151e-19)
(0.36516 -0.0105038 5.03876e-19)
(0.484618 -0.00951813 -4.57736e-19)
(0.613839 -0.0052848 -1.14576e-19)
(0.74625 0.0019145 -1.04565e-20)
(0.874189 0.0117619 -2.53356e-19)
(0.98951 0.0215663 -3.40313e-19)
(1.08826 0.0350829 3.22396e-19)
(1.15821 0.0367152 1.1641e-19)
(-0.0067324 0.00502103 -7.6205e-20)
(-0.00236619 0.00744383 -2.69616e-19)
(0.0205226 0.00638715 3.81973e-19)
(0.061729 0.00274566 -2.69883e-19)
(0.121637 -0.00185742 6.64385e-20)
(0.20042 -0.00598075 -5.50715e-21)
(0.297622 -0.00839699 3.16419e-19)
(0.411559 -0.00813263 -4.01905e-19)
(0.538684 -0.00460154 1.06993e-18)
(0.673253 0.00227264 2.22621e-19)
(0.807597 0.0118603 -2.05693e-19)
(0.933466 0.0234316 1.81197e-20)
(1.04311 0.0343326 -5.42197e-20)
(1.13306 0.047431 6.96956e-20)
(1.19493 0.0495275 -4.40102e-19)
(-0.00562707 0.00413205 4.86362e-20)
(0.00214371 0.00516279 -3.15089e-19)
(0.0298431 0.00343314 -2.964e-19)
(0.0772218 -0.000251115 -1.81709e-19)
(0.144576 -0.00423796 -3.17882e-19)
(0.231805 -0.00708201 -1.58478e-19)
(0.337904 -0.00759453 -4.58574e-19)
(0.460299 -0.00491517 1.5935e-19)
(0.594253 0.00131634 -7.53256e-19)
(0.732757 0.010835 -1.47139e-19)
(0.867224 0.0226346 -5.41552e-19)
(0.989188 0.0356149 3.85421e-19)
(1.09169 0.0472153 3.02239e-19)
(1.17218 0.0596618 1.71822e-21)
(1.22562 0.0618991 6.9951e-19)
(-0.0043115 0.00321095 3.85697e-20)
(0.00734933 0.00282398 3.16332e-19)
(0.0403828 0.000469764 4.66262e-19)
(0.0944591 -0.00314 6.14666e-20)
(0.169724 -0.00632518 -2.30022e-19)
(0.2657 -0.00765159 2.04042e-19)
(0.380682 -0.00600603 2.15556e-20)
(0.511049 -0.000702234 -2.18619e-19)
(0.650767 0.00832017 -1.8223e-19)
(0.791623 0.0203979 -1.80865e-19)
(0.924385 0.0341473 4.54199e-19)
(1.0408 0.0481716 2.93339e-19)
(1.13503 0.0600697 -3.466e-19)
(1.20576 0.0716496 2.53847e-19)
(1.25081 0.0737261 2.55753e-20)
(-0.00276451 0.00226512 9.90385e-20)
(0.0133025 0.000463861 -6.89422e-19)
(0.0522133 -0.00242861 -4.84958e-19)
(0.113513 -0.00580806 -2.78068e-20)
(0.197118 -0.0079735 1.06928e-19)
(0.30205 -0.007526 2.70381e-19)
(0.425749 -0.00347579 -9.45783e-20)
(0.563392 0.00461933 1.79964e-19)
(0.707606 0.0164473 4.40442e-19)
(0.849127 0.0309102 1.56261e-19)
(0.978431 0.0462778 1.63306e-19)
(1.0879 0.0609549 -7.18143e-20)
(1.17311 0.07277 -1.83048e-19)
(1.23413 0.0832992 -5.86516e-19)
(1.2711 0.0849643 -3.00055e-20)
(-0.000963123 0.00130225 -3.6743e-19)
(0.0200552 -0.00188048 7.52312e-19)
(0.0653998 -0.00518772 -1.40213e-19)
(0.134435 -0.00814433 -4.46395e-20)
(0.226756 -0.00904362 -1.53741e-19)
(0.340744 -0.00655614 -2.94453e-19)
(0.47282 0.000125473 2.04334e-19)
(0.616838 0.0111235 -3.718e-19)
(0.764118 0.02569 -1.47945e-19)
(0.904588 0.0422835 -1.06081e-19)
(1.02884 0.0588893 -3.33915e-19)
(1.13027 0.0738251 7.17339e-20)
(1.20607 0.0852163 2.28668e-19)
(1.25768 0.0945491 3.32437e-20)
(1.28711 0.0956136 -4.59485e-19)
(0.00111676 0.000330985 9.63355e-20)
(0.0276583 -0.00417036 4.89532e-20)
(0.0799983 -0.00773274 9.238e-19)
(0.157258 -0.01004 4.08267e-19)
(0.258598 -0.00940411 1.78643e-19)
(0.381611 -0.00461012 3.05714e-20)
(0.521542 0.0048977 -5.3802e-19)
(0.670849 0.0188446 6.06759e-19)
(0.819654 0.0360007 3.33746e-20)
(0.957408 0.0544034 1.36915e-19)
(1.07523 0.0718417 -1.24921e-19)
(1.16786 0.0866599 -3.78593e-19)
(1.23415 0.0973375 -5.5372e-19)
(1.27687 0.105369 7.19976e-19)
(1.29945 0.105704 9.78866e-20)
(0.00349944 -0.000638486 -6.21984e-21)
(0.0361589 -0.00636455 -3.58943e-19)
(0.0960526 -0.00998766 -3.46408e-19)
(0.181985 -0.0113889 -2.89285e-19)
(0.292561 -0.0089326 1.97199e-19)
(0.424424 -0.00157535 -1.21489e-19)
(0.571507 0.01091 3.9116e-19)
(0.724857 0.0277799 -3.05834e-19)
(0.873599 0.0473002 1.07979e-19)
(1.00709 0.0671418 -2.26161e-19)
(1.11738 0.0850023 4.88023e-20)
(1.20074 0.0993598 -1.58536e-19)
(1.25772 0.10909 1.50899e-19)
(1.29222 0.115756 -4.1299e-19)
(1.30868 0.115287 -1.46325e-19)
(0.00620864 -0.00159395 -5.11122e-19)
(0.0455991 -0.00841844 4.55553e-19)
(0.113592 -0.0118747 -5.67342e-20)
(0.208595 -0.012087 2.04742e-19)
(0.328519 -0.00751699 -3.24204e-19)
(0.468902 0.00263997 2.88344e-19)
(0.62226 0.0182007 -3.30382e-19)
(0.778291 0.0378933 -1.9518e-19)
(0.9254 0.0594863 5.98567e-20)
(1.05326 0.0803665 -1.74652e-19)
(1.15517 0.0982529 -2.51778e-19)
(1.22911 0.11185 6.96516e-19)
(1.27716 0.120454 -8.49486e-20)
(1.3042 0.125728 4.41528e-19)
(1.31533 0.124422 -1.00561e-19)
(0.00926661 -0.00252086 9.6015e-20)
(0.056014 -0.0102836 -7.4574e-20)
(0.13263 -0.0133142 -4.52115e-19)
(0.237034 -0.0120336 -6.54458e-20)
(0.366302 -0.00505645 5.59864e-19)
(0.514719 0.00810584 -3.92323e-19)
(0.673324 0.0267787 5.78424e-19)
(0.830603 0.0491212 -2.93995e-19)
(0.974585 0.072443 3.62079e-19)
(1.09566 0.0939504 2.75614e-19)
(1.18864 0.111494 -1.77409e-19)
(1.25324 0.12408 -2.68692e-19)
(1.29292 0.131432 2.9898e-19)
(1.3133 0.135316 -3.25075e-19)
(1.31984 0.133174 -1.70455e-19)
(0.0126934 -0.00340215 3.49494e-19)
(0.0674297 -0.0119073 -5.68943e-20)
(0.153161 -0.0142243 2.44651e-19)
(0.26722 -0.0111314 -2.98273e-19)
(0.405703 -0.00146262 -6.84246e-19)
(0.561512 0.01487 1.01157e-19)
(0.724212 0.0366258 -1.58554e-19)
(0.881288 0.0613792 5.29728e-19)
(1.02078 0.0860489 -1.72718e-19)
(1.13414 0.107777 5.90148e-21)
(1.21791 0.124648 2.36524e-19)
(1.27345 0.136022 1.92203e-19)
(1.30542 0.142041 -4.54814e-19)
(1.31994 0.144562 2.66469e-19)
(1.3226 0.141608 3.06896e-19)
(0.0165063 -0.00421821 -1.51241e-19)
(0.0798622 -0.0132332 -7.48876e-20)
(0.175159 -0.0145218 -2.30571e-19)
(0.29904 -0.00928785 1.53708e-19)
(0.446477 0.00333919 3.13861e-19)
(0.608895 0.0229581 -3.15678e-20)
(0.774446 0.0477001 2.91785e-19)
(0.929899 0.0745683 -3.00593e-19)
(1.06369 0.100184 3.19361e-19)
(1.16868 0.121745 -3.37782e-19)
(1.24318 0.137656 3.70378e-19)
(1.2901 0.147665 -3.4742e-19)
(1.31507 0.152309 -1.17312e-19)
(1.32451 0.153512 1.24289e-19)
(1.32393 0.149783 4.06302e-20)
(0.020719 -0.00494703 1.14397e-19)
(0.0933162 -0.0142009 -1.32932e-20)
(0.198577 -0.0141229 -2.99533e-19)
(0.33235 -0.00641632 2.28139e-19)
(0.488348 0.00940879 9.25766e-20)
(0.656464 0.0323743 9.05987e-20)
(0.823572 0.05994 -9.44116e-20)
(0.976057 0.0885815 -6.60316e-20)
(1.10315 0.114734 -5.52951e-19)
(1.19933 0.135768 3.38379e-19)
(1.2647 0.150478 -2.16719e-19)
(1.30355 0.159015 -4.49162e-20)
(1.32227 0.162273 7.13271e-19)
(1.32734 0.162212 -5.49986e-19)
(1.3241 0.157753 -3.78162e-19)
(0.0253411 -0.0055644 -2.0247e-20)
(0.107784 -0.0147477 1.71569e-19)
(0.223347 -0.0129445 2.84957e-19)
(0.366979 -0.00243786 -3.73124e-20)
(0.531017 0.0167901 -2.10134e-19)
(0.703817 0.0431024 2.16402e-19)
(0.871175 0.0732686 -2.21138e-19)
(1.01946 0.103309 -1.24005e-19)
(1.13904 0.129595 3.64832e-19)
(1.22619 0.149779 2.53853e-19)
(1.28274 0.163093 4.37989e-20)
(1.31417 0.170086 1.81555e-19)
(1.32735 0.17197 -3.7154e-19)
(1.32873 0.170707 2.38985e-19)
(1.32331 0.165564 4.27162e-19)
(0.030378 -0.00604425 -6.93745e-20)
(0.123243 -0.0148085 -4.71056e-19)
(0.249378 -0.0109057 -2.98221e-19)
(0.40273 0.00271707 -2.99337e-19)
(0.574166 0.0255102 -2.01354e-19)
(0.750557 0.0551078 1.0418e-19)
(0.916884 0.0875977 3.84933e-19)
(1.05988 0.118641 -1.28259e-19)
(1.17136 0.144676 2.20594e-19)
(1.24946 0.163725 -3.7584e-20)
(1.29761 0.175489 5.7491e-20)
(1.32228 0.180902 -1.01085e-19)
(1.33063 0.181441 3.85787e-20)
(1.32891 0.179037 -5.64296e-20)
(1.32174 0.173256 -1.54539e-19)
(0.0358301 -0.00635909 1.11458e-19)
(0.139659 -0.014318 4.96897e-19)
(0.27656 -0.00792944 -1.02264e-19)
(0.439382 0.00910694 2.41033e-19)
(0.617467 0.0355793 4.78795e-20)
(0.796309 0.0683396 3.5613e-20)
(0.960384 0.102832 -1.84919e-19)
(1.09717 0.134475 2.14254e-19)
(1.20015 0.159898 -3.17668e-19)
(1.26933 0.177568 -1.69159e-19)
(1.30961 0.187669 -5.72558e-20)
(1.32819 0.191489 -4.06326e-20)
(1.33238 0.190723 -1.50035e-19)
(1.32808 0.187239 -2.08161e-20)
(1.3195 0.180857 7.3548e-20)
(0.0416927 -0.00648042 -3.51265e-20)
(0.156981 -0.0132111 2.18068e-20)
(0.304759 -0.0039445 2.82483e-19)
(0.476696 0.0167775 2.73272e-19)
(0.660589 0.0469905 1.13861e-19)
(0.840723 0.0827331 -1.9885e-19)
(1.00142 0.118873 6.45763e-20)
(1.13123 0.150715 1.69325e-19)
(1.22549 0.175193 -2.52499e-20)
(1.28604 0.191281 3.18263e-20)
(1.31902 0.19964 6.56914e-20)
(1.33219 0.201877 1.84226e-20)
(1.3328 0.19985 -1.4705e-19)
(1.32639 0.195341 -5.62278e-21)
(1.3167 0.188393 1.64482e-19)
(0.0479559 -0.00637928 2.28578e-20)
(0.175148 -0.011425 -9.46755e-20)
(0.333826 0.0011128 -1.60841e-19)
(0.514419 0.0257608 -3.22896e-19)
(0.703205 0.0597208 -3.4618e-20)
(0.883485 0.0982127 1.55703e-19)
(1.03978 0.13562 -8.04634e-20)
(1.16204 0.16727 -2.08713e-19)
(1.24753 0.190507 -1.92863e-19)
(1.29982 0.204848 9.01836e-20)
(1.32612 0.211416 -4.96402e-20)
(1.33452 0.212092 -2.34977e-19)
(1.33211 0.208852 2.28035e-19)
(1.32397 0.203368 2.29348e-19)
(1.31341 0.195881 -1.12354e-19)
(0.0546042 -0.00602675 9.99369e-21)
(0.19408 -0.00889996 -1.85152e-19)
(0.363593 0.00729694 8.07542e-20)
(0.552288 0.0360737 1.53399e-19)
(0.745002 0.0737316 3.0808e-20)
(0.924318 0.114694 -7.35173e-21)
(1.07532 0.152975 9.38594e-20)
(1.18961 0.184062 7.432e-20)
(1.26643 0.205797 1.00781e-20)
(1.31092 0.218261 -6.42501e-20)
(1.33115 0.223012 8.97439e-21)
(1.3354 0.222161 8.95626e-20)
(1.33044 0.217755 -8.42049e-20)
(1.32091 0.211339 -6.33122e-20)
(1.30967 0.203331 -1.02679e-19)
(0.0616165 -0.00539452 1.26526e-19)
(0.213688 -0.00558113 1.73356e-20)
(0.393878 0.0146518 1.65258e-20)
(0.590037 0.0477184 -4.24105e-20)
(0.785681 0.0889708 -1.71976e-19)
(0.962986 0.132087 3.18384e-20)
(1.10795 0.170844 -3.30931e-20)
(1.21401 0.20102 8.48409e-20)
(1.28236 0.221027 2.02205e-19)