/*--------------------------------*- C++ -*----------------------------------*\
  =========                 |
  \\      /  F ield         | OpenFOAM: The Open Source CFD Toolbox
   \\    /   O peration     | Website:  https://openfoam.org
    \\  /    A nd           | Version:  7
     \\/     M anipulation  |
\*---------------------------------------------------------------------------*/
FoamFile
{
    version     2.0;
    format      ascii;
    class       volVectorField;
    location    "220";
    object      U;
}
// * * * * * * * * * * * * * * * * * * * * * * * * * * * * * * * * * * * * * //

dimensions      [0 1 -1 0 0 0 0];

internalField   nonuniform List<vector> 
4575
(
(-0.000468982 0.0344547 -6.77998e-22)
(-0.00204868 0.0892686 -3.39101e-21)
(-0.00501188 0.132663 3.98681e-22)
(-0.0011017 0.0347334 -3.34936e-21)
(-0.0035085 0.0901936 2.59303e-21)
(-0.00683045 0.134284 -2.97721e-21)
(-0.00174027 0.0349003 -2.61161e-20)
(-0.00498833 0.0908504 3.14456e-21)
(-0.00867925 0.135536 4.67089e-21)
(-0.00237901 0.0349543 4.28909e-20)
(-0.00647555 0.0912342 -1.79839e-20)
(-0.0105429 0.13641 -1.20976e-20)
(-0.00301224 0.034895 -5.69736e-21)
(-0.0079575 0.0913426 7.12559e-20)
(-0.0124059 0.136899 3.25893e-20)
(-0.00363391 0.0347234 -2.85464e-20)
(-0.0094213 0.0911753 1.71402e-20)
(-0.0142533 0.136999 -2.65874e-20)
(-0.00423872 0.0344418 3.47691e-20)
(-0.0108547 0.0907339 -4.06125e-20)
(-0.01607 0.13671 -6.07889e-20)
(-0.00482151 0.0340531 5.95194e-21)
(-0.012246 0.0900232 -2.00927e-20)
(-0.0178417 0.136033 5.4979e-20)
(-0.0053774 0.0335615 -1.64568e-20)
(-0.013584 0.0890499 1.10486e-19)
(-0.0195548 0.134975 -2.38666e-20)
(-0.0241076 0.171666 -2.7707e-20)
(-0.00590193 0.032972 -5.15196e-20)
(-0.0148582 0.0878236 6.52765e-20)
(-0.0211964 0.133543 3.56627e-20)
(-0.025818 0.170336 1.57595e-20)
(-0.00639114 0.0322907 9.41324e-20)
(-0.0160593 0.0863559 -4.98452e-20)
(-0.0227548 0.131751 1.67767e-20)
(-0.0274493 0.168554 6.07841e-20)
(-0.00684162 0.0315245 7.94116e-20)
(-0.017179 0.0846607 -9.23616e-20)
(-0.0242198 0.129614 -9.37976e-20)
(-0.0289911 0.166333 -4.36475e-20)
(-0.00725061 0.0306811 -9.8781e-20)
(-0.0182103 0.0827541 -8.88127e-20)
(-0.0255822 0.127149 3.58343e-20)
(-0.0304342 0.163689 8.73363e-20)
(-0.00761601 0.0297692 4.16486e-20)
(-0.0191476 0.0806541 5.91238e-20)
(-0.0268348 0.124379 7.03624e-20)
(-0.0317707 0.160642 -1.1562e-19)
(-0.00793643 0.0287977 -2.39005e-20)
(-0.0199868 0.0783804 2.80102e-20)
(-0.0279718 0.121327 -5.88924e-20)
(-0.0329946 0.157215 -8.5791e-20)
(-0.00821126 0.0277761 8.88731e-20)
(-0.0207253 0.0759541 -8.4289e-20)
(-0.0289893 0.118019 6.64882e-20)
(-0.0341013 0.153436 1.03745e-19)
(-0.00844064 0.0267144 -3.84822e-20)
(-0.0213624 0.0733975 -2.50051e-20)
(-0.0298855 0.114484 6.86589e-20)
(-0.035088 0.149335 -9.30046e-20)
(-0.037392 0.177775 -5.13155e-20)
(-0.00862547 0.0256227 -8.96007e-20)
(-0.0218988 0.0707339 1.20537e-19)
(-0.0306604 0.110752 1.56912e-21)
(-0.035954 0.144942 -1.09119e-21)
(-0.0381681 0.173051 1.15415e-19)
(-0.00876746 0.0245112 2.89161e-20)
(-0.0223372 0.067987 -8.59671e-20)
(-0.0313161 0.106853 8.03274e-20)
(-0.0367002 0.140292 -1.16985e-19)
(-0.0388382 0.167979 1.41294e-19)
(-0.00886904 0.0233901 1.12412e-20)
(-0.0226817 0.0651811 -4.48445e-20)
(-0.0318565 0.102822 1.41005e-19)
(-0.0373291 0.135421 -1.77175e-19)
(-0.039403 0.162596 -1.42334e-19)
(-0.00893338 0.0222694 -7.86862e-20)
(-0.0229382 0.0623401 -1.33925e-19)
(-0.0322874 0.0986889 -7.49865e-20)
(-0.0378451 0.130366 9.65229e-20)
(-0.0398647 0.156937 -5.41379e-21)
(-0.0386314 0.178219 1.89279e-20)
(-0.00896431 0.021159 7.24903e-20)
(-0.0231138 0.0594879 1.75043e-19)
(-0.0326162 0.0944881 -1.29126e-19)
(-0.0382537 0.125165 -6.07503e-20)
(-0.040226 0.151044 4.93853e-20)
(-0.0387798 0.171893 -1.1611e-19)
(-0.00896626 0.0200682 -7.96279e-20)
(-0.0232171 0.0566473 -8.94431e-21)
(-0.0328517 0.0902516 1.82886e-19)
(-0.0385615 0.119856 1.76088e-19)
(-0.0404897 0.144957 -3.5139e-20)
(-0.0388416 0.165281 -2.16437e-20)
(-0.00894422 0.0190058 5.08442e-20)
(-0.0232577 0.0538405 9.84744e-20)
(-0.0330038 0.0860108 -6.66952e-20)
(-0.0387758 0.114477 -8.04287e-20)
(-0.0406586 0.138716 -8.09924e-20)
(-0.0388139 0.158426 -2.13769e-20)
(-0.00890357 0.01798 -6.96547e-20)
(-0.0232461 0.0510881 -2.14102e-19)
(-0.033083 0.0817959 6.59013e-20)
(-0.038904 0.109065 3.62175e-21)
(-0.0407349 0.132363 2.65174e-19)
(-0.0386919 0.151371 -1.53872e-19)
(-0.0329551 0.165975 -1.28509e-19)
(-0.00885001 0.016998 -6.64567e-20)
(-0.0231932 0.048409 2.52483e-19)
(-0.0331001 0.0776352 -1.87264e-19)
(-0.0389531 0.103654 -3.71267e-20)
(-0.0407188 0.125939 -6.08473e-20)
(-0.0384676 0.14416 -1.53689e-19)
(-0.0323449 0.158182 1.49405e-19)
(-0.00878939 0.0160665 9.41336e-20)
(-0.0231101 0.0458202 -1.10747e-19)
(-0.0330656 0.0735549 -1.34391e-19)
(-0.0389287 0.0982806 -1.23632e-19)
(-0.0406086 0.119484 4.0142e-20)
(-0.0381294 0.136837 2.22141e-20)
(-0.0316006 0.150192 5.31474e-20)
(-0.00872758 0.0151907 -1.98481e-19)
(-0.0230076 0.0433365 1.48513e-19)
(-0.0329888 0.0695784 1.62224e-19)
(-0.038835 0.0929745 -9.15156e-20)
(-0.0403993 0.113037 1.52048e-19)
(-0.0376609 0.129447 1.42888e-19)
(-0.0306922 0.142053 -2.53313e-20)
(-0.0196073 0.150861 -1.37402e-19)
(-0.00867023 0.0143749 -1.56171e-19)
(-0.0228958 0.04097 -1.36522e-19)
(-0.0328779 0.0657263 1.04637e-19)
(-0.0386732 0.0877651 5.92947e-20)
(-0.040082 0.106634 2.33749e-20)
(-0.0370398 0.122034 -4.17522e-20)
(-0.0295815 0.133816 -2.89803e-20)
(-0.0177902 0.141977 6.4134e-20)
(-0.00862264 0.013622 7.55951e-20)
(-0.0227835 0.0387299 1.40977e-19)
(-0.0327386 0.0620156 -2.46666e-19)
(-0.0384414 0.0826778 -1.83573e-19)
(-0.0396432 0.10031 9.01572e-20)
(-0.0362374 0.11464 8.29735e-20)
(-0.0282216 0.125531 -1.67418e-19)
(-0.0156457 0.132977 -1.46202e-20)
(-0.00858947 0.0129337 3.62095e-19)
(-0.022678 0.0366226 -2.37972e-19)
(-0.0325738 0.0584597 5.63842e-20)
(-0.0381334 0.0777346 1.77884e-19)
(-0.0390635 0.0940949 -1.86642e-19)
(-0.0352178 0.107305 9.08948e-21)
(-0.0265563 0.117246 1.34107e-19)
(-0.0130938 0.123917 2.40334e-19)
(0.00513248 0.127409 2.37033e-19)
(-0.00857461 0.01231 -3.42913e-19)
(-0.0225842 0.0346512 2.36624e-19)
(-0.032383 0.0550681 5.60056e-20)
(-0.0377386 0.0729534 -1.76017e-19)
(-0.038318 0.0880173 7.22329e-20)
(-0.0339374 0.100067 -3.39386e-20)
(-0.0245198 0.109011 -2.52868e-20)
(-0.0100427 0.114857 -2.02573e-19)
(0.00949503 0.117694 -3.12136e-19)
(-0.00858087 0.0117497 2.73896e-19)
(-0.0225047 0.0328153 -6.66814e-20)
(-0.0321619 0.0518461 2.20093e-19)
(-0.0372411 0.0683478 5.19065e-20)
(-0.0373749 0.082101 -1.11255e-19)
(-0.0323449 0.092963 1.75502e-20)
(-0.0220368 0.100873 -2.24529e-19)
(-0.00638923 0.105855 9.95794e-20)
(0.014641 0.108003 5.23487e-20)
(0.0411122 0.107468 7.85032e-21)
(-0.00860988 0.0112498 -7.02593e-20)
(-0.0224389 0.0311115 -7.14767e-20)
(-0.0319018 0.0487949 -1.37922e-19)
(-0.0366196 0.0639271 9.80849e-20)
(-0.0361962 0.0763652 1.73338e-19)
(-0.0303812 0.0860226 -2.17792e-19)
(-0.0190235 0.0928757 3.3891e-19)
(-0.00202071 0.0969687 -6.45282e-20)
(0.0207155 0.0984053 9.03882e-21)
(0.0492915 0.0973372 -2.12802e-19)
(-0.00866185 0.010806 2.12076e-20)
(-0.0223829 0.029533 6.93631e-20)
(-0.0315894 0.0459114 8.09418e-20)
(-0.0358474 0.0596956 -6.6006e-20)
(-0.0347376 0.070825 1.60332e-19)
(-0.0279805 0.0792734 2.09102e-19)
(-0.0153885 0.0850593 3.12099e-21)
(0.00318325 0.0882528 -2.55806e-19)
(0.0278707 0.0889711 -1.99476e-19)
(0.0588302 0.0873714 2.04267e-19)
(-0.00873548 0.0104126 -1.29405e-19)
(-0.0223296 0.0280699 1.17589e-19)
(-0.0312068 0.0431883 -8.46045e-20)
(-0.0348921 0.0556532 -4.08067e-20)
(-0.0329487 0.0654903 -1.08338e-19)
(-0.0250708 0.0727378 -7.99067e-20)
(-0.0110347 0.0774603 -1.38902e-19)
(0.0093479 0.0797579 2.23668e-19)
(0.0362615 0.0797661 8.67749e-20)
(0.0699125 0.0776519 -2.07452e-19)
(0.110544 0.0736047 -2.46926e-19)
(-0.00882784 0.0100628 -1.34339e-20)
(-0.0222681 0.0267096 -2.90205e-19)
(-0.0307315 0.0406147 6.87109e-20)
(-0.0337165 0.0517951 1.48825e-19)
(-0.0307742 0.0603659 -2.68808e-20)
(-0.0215754 0.0664329 -1.70516e-19)
(-0.00586116 0.0701096 1.82779e-19)
(0.0166 0.0715301 2.0387e-19)
(0.046041 0.0708519 7.61226e-20)
(0.0827149 0.0682555 3.68917e-19)
(0.126901 0.0639393 -1.67835e-19)
(-0.00893439 0.0097485 -7.47092e-20)
(-0.022184 0.0254369 -2.55183e-20)
(-0.0301366 0.0381759 -2.27797e-19)
(-0.0322787 0.0481122 1.35603e-19)
(-0.0281546 0.0554518 -1.34636e-19)
(-0.0174145 0.0603703 -1.32959e-19)
(0.000233919 0.0630326 -1.17754e-20)
(0.0250645 0.0636095 -2.05738e-19)
(0.0573551 0.0622839 -3.17886e-19)
(0.0973993 0.0592535 8.48485e-20)
(0.1455 0.0547279 9.30084e-20)
(0.201937 0.0489221 -3.86863e-20)
(-0.00904898 0.00946099 2.3312e-19)
(-0.0220596 0.0242348 -3.49874e-20)
(-0.0293911 0.0358543 2.0072e-19)
(-0.0305328 0.0445914 -2.00245e-19)
(-0.0250273 0.0507434 2.87678e-19)
(-0.0125071 0.0545563 2.3417e-19)
(0.00735113 0.0562485 -1.8726e-19)
(0.0348604 0.0560296 -3.39437e-19)
(0.070338 0.0541107 5.48687e-19)
(0.114107 0.050709 1.32258e-19)
(0.166474 0.0460479 -1.00819e-19)
(0.227683 0.0403512 -9.76652e-20)
(-0.00916399 0.00919099 -3.7207e-19)
(-0.0218742 0.0230848 2.33627e-19)
(-0.0284607 0.0336301 -3.38363e-19)
(-0.02843 0.0412164 -1.79128e-19)
(-0.0213279 0.0462315 6.49883e-20)
(-0.00677254 0.0489922 -2.52897e-19)
(0.0155871 0.0497707 3.85741e-19)
(0.0460977 0.0488174 6.53831e-21)
(0.0851071 0.0463732 -2.03964e-19)
(0.132951 0.0426771 -1.73883e-19)
(0.189918 0.0379669 -3.03553e-19)
(0.256179 0.0324749 -3.62106e-21)
(0.331691 0.0264202 -4.17055e-20)
(-0.0092705 0.00892903 1.32138e-19)
(-0.0216042 0.0219677 -2.32991e-19)
(-0.0273083 0.0314816 2.91855e-19)
(-0.0259196 0.0379682 3.99228e-19)
(-0.0169915 0.0419037 -1.26445e-19)
(-0.000132204 0.0436745 1.60053e-20)
(0.0250322 0.043607 -3.25131e-19)
(0.0588745 0.0419931 -7.86984e-20)
(0.10176 0.0391049 -2.39206e-19)
(0.154017 0.0352039 3.04455e-19)
(0.215884 0.0305423 2.75915e-19)
(0.287417 0.0253592 -4.80678e-20)
(0.368379 0.0198713 -3.5589e-20)
(-0.00935845 0.00866573 3.48532e-20)
(-0.021224 0.020864 4.7337e-20)
(-0.0258944 0.0293863 -1.52622e-19)
(-0.0229492 0.034826 -4.11002e-19)
(-0.011954 0.0377445 6.49617e-20)
(0.00748865 0.0385961 1.91204e-19)
(0.0357686 0.0377606 8.50156e-20)
(0.0732742 0.0355714 3.55444e-19)
(0.120371 0.0323324 -2.17705e-19)
(0.177354 0.0283274 -2.76246e-19)
(0.244376 0.023822 -4.93222e-20)
(0.321333 0.0190582 1.20747e-19)
(0.407736 0.0142445 2.59759e-20)
(0.502566 0.00953953 1.07334e-20)
(-0.00941691 0.0083921 -1.71663e-19)
(-0.0207062 0.0197548 1.10359e-20)
(-0.0241783 0.0273218 -2.98533e-20)
(-0.0194664 0.0317684 3.56254e-19)
(-0.00615283 0.033737 1.09657e-19)
(0.0161598 0.0337473 -3.50225e-20)
(0.0478687 0.0322308 1.30516e-19)
(0.0893639 0.0295622 1.12683e-19)
(0.14099 0.0260764 2.65566e-19)
(0.202979 0.0220785 3.1848e-20)
(0.275354 0.0178447 -3.06001e-19)
(0.357802 0.0136156 1.71264e-20)
(0.449532 0.00958271 -2.39633e-19)
(0.549133 0.00587062 -2.02257e-20)
(0.654505 0.0025441 -1.12782e-19)
(-0.00943432 0.00809987 2.80871e-19)
(-0.0200223 0.0186225 1.93925e-19)
(-0.0221183 0.0252668 1.50223e-19)
(-0.0154192 0.0287745 -2.03228e-19)
(0.000471728 0.0298639 1.34764e-19)
(0.0259449 0.0291171 -1.25653e-19)
(0.0613941 0.0270151 -1.93962e-19)
(0.107194 0.0239722 -2.65804e-19)
(0.163642 0.0203533 -1.14282e-19)
(0.230872 0.0164823 2.20109e-19)
(0.308734 0.0126422 1.91178e-19)
(0.396653 0.00906524 2.7488e-19)
(0.493482 0.00591704 2.41194e-19)
(0.597381 0.00327564 -7.23e-20)
(0.705792 0.00113833 -9.84057e-20)
(-0.00939883 0.00778174 -1.71479e-19)
(-0.0191429 0.0174512 -4.4285e-19)
(-0.0196727 0.0232014 -1.77702e-19)
(-0.0107566 0.0258245 1.86671e-19)
(0.0079762 0.0261089 5.29497e-20)
(0.0369011 0.0246948 8.58811e-20)
(0.0763951 0.0221101 2.22575e-19)
(0.126797 0.0188068 -2.19021e-19)
(0.188327 0.015177 2.97193e-19)
(0.260982 0.0115601 -3.01699e-20)
(0.34439 0.0082402 -4.24029e-19)
(0.437664 0.00543305 -7.86833e-20)
(0.539255 0.00326746 -2.67806e-19)
(0.646868 0.00176265 -1.82619e-19)
(0.757492 0.000836244 1.94952e-19)
(0.86749 0.000195307 1.58258e-19)
(-0.00929845 0.00743158 2.28007e-19)
(-0.0180389 0.0162275 3.45377e-19)
(-0.0168003 0.021109 -1.85188e-20)
(-0.00542944 0.0229015 -1.54488e-19)
(0.0164132 0.0224578 -1.68459e-19)
(0.0490785 0.0204715 3.56841e-20)
(0.0929106 0.017514 -2.63666e-19)
(0.148188 0.0140718 2.46842e-19)
(0.215023 0.0105607 -9.51486e-20)
(0.293228 0.00733089 -2.05152e-19)
(0.382163 0.00466016 2.53525e-19)
(0.480577 0.00273784 -6.18015e-20)
(0.586486 0.00164387 -1.10766e-19)
(0.697128 0.00132635 2.02826e-19)
(0.809071 0.00161351 -3.06548e-19)
(0.918398 0.00212245 1.74421e-21)
(1.02135 0.00273893 1.22639e-20)
(-0.00912135 0.00704457 -2.54047e-19)
(-0.0166813 0.0149406 -9.65136e-20)
(-0.0134607 0.0189758 1.70899e-19)
(0.000609357 0.0199922 1.39679e-19)
(0.0258311 0.0189 1.56364e-19)
(0.0625198 0.0164415 -8.88581e-20)
(0.110968 0.0132274 -7.61467e-20)
(0.171367 0.00977484 -3.22183e-20)
(0.243682 0.00651876 -3.38923e-19)
(0.327499 0.00381313 6.22927e-19)
(0.421859 0.00192056 6.55917e-21)
(0.525103 0.000992402 7.74183e-20)
(0.634786 0.00104667 7.43214e-20)
(0.747689 0.0019487 1.50581e-19)
(0.860013 0.00343055 2.59092e-19)
(0.967664 0.00502324 1.4666e-19)
(1.06691 0.00650125 1.5585e-19)
(-0.00885599 0.00661733 6.39352e-20)
(-0.0150416 0.0135831 -5.16023e-20)
(-0.00961477 0.0167926 1.28008e-19)
(0.00740432 0.0170877 -1.90879e-19)
(0.036274 0.0154297 -2.32142e-20)
(0.0772605 0.0126039 8.5195e-20)
(0.130584 0.00925551 1.01032e-19)
(0.196317 0.00592752 -8.65667e-20)
(0.274239 0.00306769 2.46938e-19)
(0.36366 0.00102559 -2.53803e-19)
(0.463255 3.75492e-05 1.17128e-19)
(0.570925 0.000203846 -2.21176e-19)
(0.683749 0.00146712 2.23265e-19)
(0.798085 0.00359969 1.87399e-19)
(0.909841 0.00623421 -3.42197e-19)
(1.01486 0.00882315 -3.11503e-19)
(1.10957 0.011051 -1.1265e-19)
(1.19084 0.0115588 -9.6247e-20)
(-0.0084913 0.00614788 4.02462e-19)
(-0.0130926 0.0121505 -2.22826e-19)
(-0.00522521 0.0145542 -3.11511e-19)
(0.0149972 0.0141845 -1.28349e-19)
(0.0477812 0.0120465 -1.96201e-19)
(0.0933287 0.00896331 -2.27587e-20)
(0.151763 0.00560891 3.37222e-19)
(0.223006 0.00254594 1.69153e-19)
(0.306605 0.000227363 2.63102e-19)
(0.401551 -0.00101197 7.21153e-20)
(0.506109 -0.000974813 1.98413e-19)
(0.61771 0.00037365 -2.26436e-19)
(0.732969 0.00288757 9.39524e-20)
(0.847867 0.00623825 -1.52439e-19)
(0.958118 0.0099599 1.6987e-19)
(1.05962 0.0134379 3.69891e-19)
(1.14911 0.0162912 -3.08985e-20)
(1.22403 0.017292 2.31399e-19)
(1.28443 0.0185239 -8.16254e-20)
(-0.00801673 0.00563569 -2.09315e-19)
(-0.010808 0.0106422 2.0362e-21)
(-0.000256503 0.0122605 1.57176e-19)
(0.0234267 0.0112846 3.11258e-20)
(0.0603871 0.0087567 3.75792e-19)
(0.110745 0.0055311 -4.83017e-20)
(0.1745 0.00230442 -2.88054e-19)
(0.251385 -0.00034842 -2.11961e-19)
(0.340675 -0.00197882 -3.03233e-19)
(0.440992 -0.00227884 -2.96324e-19)
(0.550155 -0.00110493 -3.49438e-19)
(0.665113 0.0014973 3.77142e-19)
(0.782041 0.00528152 1.65947e-19)
(0.896615 0.00981334 -2.29769e-20)
(1.00447 0.0145341 -4.63814e-20)
(1.10168 0.0187771 5.4599e-20)
(1.1854 0.0221224 1.57086e-19)
(1.25372 0.0234775 9.21543e-20)
(1.30712 0.0246725 7.4901e-20)
(1.34333 0.0186979 2.33516e-20)
(-0.00742231 0.00508156 -7.33301e-20)
(-0.00816291 0.0090606 4.10277e-20)
(0.00532475 0.00991638 5.79568e-20)
(0.0327283 0.0083963 1.49258e-19)
(0.0741213 0.00557308 -1.13187e-19)
(0.129523 0.00232551 2.83887e-20)
(0.198779 -0.000634545 2.96304e-19)
(0.281394 -0.0027287 3.23608e-20)
(0.376325 -0.00352412 -1.42213e-21)
(0.481784 -0.00275401 4.07531e-20)
(0.595115 -0.000344398 2.06765e-19)
(0.712786 0.00356374 -2.88741e-19)
(0.830576 0.00861387 -3.12006e-19)
(0.943946 0.0142653 -1.69092e-19)
(1.04857 0.0198769 -2.0625e-19)
(1.14083 0.0247486 -2.45533e-19)
(1.21839 0.0284475 -3.39341e-20)
(1.28 0.0300198 -1.556e-19)
(1.32663 0.0311037 3.41709e-19)
(1.35718 0.0255631 -1.7382e-19)
(-0.00669864 0.00448757 3.76402e-19)
(-0.00513398 0.00741172 -8.84888e-20)
(0.0115497 0.00753146 -1.25365e-19)
(0.0429339 0.00553398 6.27204e-20)
(0.0890077 0.00251537 3.01985e-20)
(0.149667 -0.000628218 -8.64167e-20)
(0.224571 -0.00317813 -2.49484e-20)
(0.312956 -0.00456305 -5.00477e-20)
(0.413415 -0.00437929 1.47233e-19)
(0.523712 -0.00241717 3.5751e-19)
(0.640698 0.00131094 1.131e-19)
(0.76038 0.00655488 3.35264e-19)
(0.878205 0.0128414 1.37117e-19)
(0.989522 0.0195277 1.89312e-19)
(1.09016 0.0259051 2.16059e-19)
(1.17694 0.031261 -2.13725e-20)
(1.24809 0.0351753 -5.55142e-20)
(1.30303 0.0368348 2.98497e-22)
(1.34321 0.0377373 3.78367e-20)
(1.36847 0.0325023 9.15788e-20)
(-0.0058369 0.00385691 -1.69643e-19)
(-0.00169918 0.00570451 2.42896e-20)
(0.0184469 0.00512024 -1.74164e-19)
(0.0540716 0.00271795 -2.40098e-19)
(0.105065 -0.000390037 -1.00786e-19)
(0.171173 -0.00329812 -1.06262e-20)
(0.251836 -0.00529061 1.31318e-19)
(0.345979 -0.00581555 -1.04832e-19)
(0.451787 -0.00451375 2.08513e-20)
(0.566546 -0.00125008 -2.28801e-20)
(0.686608 0.00385997 -2.94902e-19)
(0.807557 0.0104452 -4.55896e-19)
(0.924587 0.0179133 -6.8323e-20)
(1.03305 0.0255288 -1.49279e-19)
(1.12907 0.0325341 -1.41252e-19)
(1.20996 0.0382269 -2.51962e-20)
(1.27457 0.0422228 -9.06919e-20)
(1.323 0.043851 -5.58855e-20)
(1.3571 0.0445086 -1.67059e-19)
(1.37748 0.039466 -2.97559e-21)
(-0.00482875 0.00319381 -1.65296e-19)
(0.00216191 0.00395087 3.4018e-19)
(0.0260424 0.00270169 2.07202e-19)
(0.0661652 -2.58226e-05 9.03741e-20)
(0.122304 -0.00311053 -3.18138e-20)
(0.194029 -0.00564621 -2.03819e-19)
(0.280523 -0.00693131 -1.32063e-19)
(0.380356 -0.00644745 -6.37358e-20)
(0.491268 -0.00389706 -9.26962e-20)
(0.610043 0.000762043 -3.27152e-19)
(0.732547 0.0072953 2.39726e-19)
(0.853992 0.0152019 1.54857e-19)
(0.969419 0.0237729 2.45461e-19)
(1.07431 0.032194 7.02913e-20)
(1.16515 0.0396813 3.87949e-20)
(1.23987 0.0455651 1.40971e-20)
(1.29795 0.0495173 -1.47439e-20)
(1.34011 0.0510092 -5.03819e-20)
(1.36858 0.0513678 -5.53374e-20)
(1.38451 0.046422 -1.66053e-19)
(-0.00366637 0.00250337 2.93987e-20)
(0.00646814 0.00216529 -5.15609e-20)
(0.0343592 0.000298883 3.69194e-20)
(0.0792338 -0.00266622 -8.67597e-20)
(0.14073 -0.00560798 1.79413e-19)
(0.218212 -0.00762941 3.17408e-19)
(0.310565 -0.0080559 9.59321e-20)
(0.415965 -0.00641871 2.62172e-19)
(0.531672 -0.00250057 -1.36394e-19)
(0.653954 0.00362912 3.52817e-19)
(0.778219 0.0116026 6.3803e-20)
(0.899382 0.0207849 1.50848e-19)
(1.01243 0.0303581 -2.68916e-19)
(1.1131 0.0394478 -9.49865e-20)
(1.19835 0.0472674 9.64954e-20)
(1.26675 0.0532019 1.85022e-19)
(1.31841 0.0569963 1.25216e-19)
(1.35461 0.0582623 -5.4541e-20)
(1.3779 0.058278 2.23739e-19)
(1.38983 0.0533516 7.35997e-20)
(-0.00234236 0.00179149 -9.88924e-20)
(0.0112367 0.000364653 -2.15321e-19)
(0.0434173 -0.00206143 -1.58905e-19)
(0.0932914 -0.00516761 4.84144e-20)
(0.160339 -0.00783955 -2.55639e-19)
(0.243688 -0.00920064 -3.11182e-19)
(0.341885 -0.00861773 -4.09101e-20)
(0.452671 -0.00568957 -9.26718e-20)
(0.572798 -0.000298954 3.23091e-19)
(0.698024 0.00735509 -8.37823e-20)
(0.823341 0.0167605 -2.42525e-19)
(0.943451 0.027148 -3.89885e-19)
(1.05341 0.037604 2.07676e-19)
(1.1493 0.0472157 1.9082e-19)
(1.22865 0.0552187 -5.03052e-20)
(1.29068 0.0610724 -9.7692e-20)
(1.33611 0.0646078 3.92933e-20)
(1.36673 0.0655739 -5.40419e-20)
(1.38532 0.0652131 -1.04807e-20)
(1.39367 0.0602459 1.33192e-19)
(-0.000849744 0.00106478 -7.61823e-20)
(0.016483 -0.00143211 -5.54775e-20)
(0.053233 -0.00434931 2.44599e-19)
(0.108346 -0.00749055 -1.4769e-19)
(0.181121 -0.00975874 3.72625e-19)
(0.270411 -0.0103102 1.53521e-19)
(0.374389 -0.00856946 -9.86448e-20)
(0.490322 -0.00422226 -1.6511e-19)
(0.614437 0.00272832 -2.57615e-19)
(0.741998 0.0119371 1.07203e-19)
(0.86764 0.0227402 2.18185e-20)
(0.985952 0.0342398 1.29907e-19)
(1.09218 0.0454438 2.51315e-19)
(1.18283 0.0554259 -1.41395e-19)
(1.25609 0.0634677 5.03592e-20)
(1.3118 0.0691205 -1.77121e-19)
(1.35128 0.0723102 -5.40176e-20)
(1.37671 0.0729173 -4.32411e-20)
(1.39106 0.0721561 -2.49666e-20)
(1.39628 0.0671029 -1.83212e-19)
(0.000818008 0.000330441 1.49713e-19)
(0.0222206 -0.00320423 2.27907e-19)
(0.063819 -0.00653208 8.91917e-21)
(0.1244 -0.00959252 1.35485e-19)
(0.203054 -0.0113163 -3.19711e-19)
(0.298326 -0.0109068 7.54908e-20)
(0.407972 -0.00786447 -4.8123e-20)
(0.528756 -0.00198244 -9.21448e-21)
(0.656374 0.0065959 -8.76216e-20)
(0.785624 0.0173651 -1.8851e-19)
(0.910863 0.0295067 -4.51442e-20)
(1.02667 0.042005 1.18141e-19)
(1.12859 0.0538111 -3.45301e-19)
(1.21367 0.0640109 8.78563e-20)
(1.28073 0.0719548 -2.57747e-20)
(1.33028 0.0772994 1.4956e-19)
(1.36412 0.0800711 2.78596e-19)
(1.38479 0.0802741 8.78814e-22)
(1.39535 0.079097 -4.6228e-20)
(1.39783 0.0739256 -6.03761e-20)
(0.00266696 -0.000403744 -2.694e-20)
(0.028461 -0.00492938 -3.43547e-19)
(0.0751837 -0.00857486 -2.58426e-19)
(0.141448 -0.0114287 -1.60684e-20)
(0.226107 -0.0124615 5.59425e-20)
(0.327362 -0.0109395 -1.05712e-19)
(0.442513 -0.00645841 -4.66048e-22)
(0.567798 0.00105949 3.37378e-20)
(0.698386 0.0113116 4.86334e-20)
(0.828659 0.0236217 2.67904e-19)
(0.952781 0.037019 1.08511e-19)
(1.06544 0.0503856 -2.78068e-20)
(1.16257 0.0626408 3.11943e-20)
(1.24182 0.0729084 -4.0107e-20)
(1.30269 0.0806277 1.79425e-19)
(1.34628 0.0855709 -7.47167e-20)
(1.37485 0.0878662 -1.23895e-19)
(1.39118 0.0876325 -9.92085e-21)
(1.39839 0.0860314 7.53812e-20)
(1.39849 0.0807198 6.18854e-21)
(0.00470266 -0.00112948 4.76809e-20)
(0.0352133 -0.00658385 1.82051e-19)
(0.087331 -0.010441 1.11258e-19)
(0.159479 -0.0129527 -1.98751e-19)
(0.250242 -0.0131428 4.17445e-20)
(0.357438 -0.010358 2.48625e-19)
(0.477882 -0.00431036 1.32965e-19)
(0.607267 0.00492732 1.73655e-20)
(0.740255 0.0168763 1.55185e-19)
(0.870872 0.0306828 -3.08764e-19)
(0.993189 0.0452315 -8.47645e-20)
(1.10211 0.059323 -3.54292e-20)
(1.19406 0.071871 2.04199e-19)
(1.26734 0.0820623 -6.11471e-20)
(1.3221 0.0894422 -1.70492e-20)
(1.36 0.0939049 -1.05528e-19)
(1.38368 0.0956785 -8.62375e-20)
(1.3961 0.0949861 -2.88346e-20)
(1.40035 0.092959 -3.10509e-20)
(1.39841 0.087493 -8.53334e-20)
(0.00693003 -0.00183798 -4.44737e-20)
(0.0424843 -0.00814279 -2.57458e-20)
(0.10026 -0.0120925 -6.4884e-20)
(0.178473 -0.0141172 2.0873e-19)
(0.275406 -0.0133093 1.36401e-19)
(0.388461 -0.00911468 -4.27471e-20)
(0.513935 -0.00138404 -7.49688e-21)
(0.646974 0.00963828 1.6055e-19)
(0.781762 0.0232831 -2.38792e-19)
(0.912048 0.0385177 1.42693e-19)
(1.03191 0.0540952 1.42752e-19)
(1.13659 0.0687585 3.70731e-20)
(1.22306 0.0814435 -7.27431e-20)
(1.2903 0.0914228 1.02966e-19)
(1.3391 0.0983614 -2.64145e-19)
(1.37163 0.102278 3.36043e-20)
(1.39081 0.103497 -6.10693e-20)
(1.39973 0.102333 1.51779e-19)
(1.4014 0.0998818 2.73738e-19)
(1.39772 0.0942533 3.4989e-20)
(0.0093533 -0.00252002 -6.888e-20)
(0.050278 -0.00958038 2.84087e-20)
(0.113964 -0.0134905 1.82937e-19)
(0.198401 -0.0148749 2.98999e-21)
(0.30154 -0.0129111 -2.95333e-19)
(0.420326 -0.00716505 -1.98091e-19)
(0.550522 0.00235142 -1.65603e-19)
(0.686728 0.0152026 -8.50608e-20)
(0.822699 0.0305184 3.15809e-19)
(0.951991 0.0470907 -1.38243e-20)
(1.06881 0.0635588 4.04996e-20)
(1.1688 0.078635 6.46706e-20)
(1.24958 0.0913048 -2.11805e-19)
(1.3108 0.100947 -1.65401e-19)
(1.35386 0.107356 4.34418e-20)
(1.38135 0.110674 1.96668e-19)
(1.39642 0.111315 -1.54753e-20)
(1.40223 0.109674 1.49373e-19)
(1.40166 0.106804 -2.06313e-19)
(1.3965 0.101009 -2.50483e-20)
(0.0119759 -0.00316593 8.77105e-20)
(0.0585955 -0.01087 1.04317e-19)
(0.128433 -0.0145957 -1.88929e-19)
(0.21923 -0.0151789 -1.00231e-20)
(0.328572 -0.0119006 3.46381e-19)
(0.45292 -0.00446883 2.12072e-19)
(0.587483 0.00692076 -8.31681e-20)
(0.726336 0.0216234 1.19732e-19)
(0.862864 0.0385618 -1.25064e-19)
(0.990528 0.0563612 -1.23312e-19)
(1.10376 0.0735699 1.22665e-19)
(1.19871 0.0888981 -2.42564e-19)
(1.27367 0.101407 2.99859e-20)
(1.32896 0.110598 1.11576e-19)
(1.36653 0.116402 -5.94392e-20)
(1.38934 0.119082 8.32488e-20)
(1.40071 0.11913 -9.8492e-20)
(1.40376 0.117011 -2.24295e-19)
(1.40126 0.11373 2.87433e-20)
(1.39485 0.107767 7.43789e-20)
(0.0148003 -0.00376564 1.02615e-19)
(0.0674344 -0.0119844 -3.17513e-19)
(0.143648 -0.0153687 4.97735e-20)
(0.240914 -0.0149833 -5.07031e-20)
(0.356422 -0.0102329 -1.2217e-19)
(0.48612 -0.000990551 -9.52905e-20)
(0.624656 0.0123422 8.38104e-20)
(0.76561 0.0288966 -3.75067e-19)
(0.902073 0.0473867 -8.55634e-20)
(1.02751 0.0662856 5.41843e-20)
(1.13668 0.0840764 -6.70988e-20)
(1.22632 0.0994964 1.87338e-19)
(1.2954 0.111706 1.28446e-19)
(1.34491 0.120345 4.35563e-20)
(1.37729 0.125482 2.35986e-19)
(1.39578 0.127493 -2.28029e-19)
(1.40381 0.126943 1.37519e-19)
(1.40445 0.124349 1.90263e-19)
(1.40029 0.120666 -1.71576e-20)
(1.39283 0.114534 -1.18849e-19)
(0.0178279 -0.00430875 8.11035e-21)
(0.0767893 -0.0128961 -3.4362e-21)
(0.159586 -0.0157701 2.26239e-19)
(0.263403 -0.0142438 -3.16906e-20)
(0.385 -0.00786653 -1.3659e-20)
(0.519793 0.00329984 2.26475e-19)
(0.661873 0.0186271 2.54221e-19)
(0.804368 0.0370114 6.84162e-20)
(0.940154 0.0569615 1.43119e-19)
(1.0628 0.0768179 -9.15814e-20)
(1.1675 0.0950269 -7.60339e-20)
(1.25164 0.110382 -1.71883e-21)
(1.31486 0.122166 -8.89394e-20)
(1.35879 0.130164 -3.26126e-21)
(1.38629 0.134582 -1.65855e-19)
(1.40084 0.135905 6.40989e-20)
(1.40588 0.134755 1.46868e-19)
(1.40441 0.131693 -7.25655e-20)
(1.39882 0.127615 8.18396e-20)
(1.39049 0.121315 1.44342e-19)
(0.0210591 -0.00478452 3.13193e-20)
(0.086651 -0.0135772 -8.12565e-20)
(0.176218 -0.0157617 -4.67279e-21)
(0.286637 -0.0129183 2.34097e-21)
(0.41421 -0.00476421 -1.5224e-19)
(0.553804 0.00842661 -2.1223e-20)
(0.698968 0.0257803 -2.6208e-19)
(0.842435 0.0459505 2.65995e-19)
(0.976954 0.0672503 1.339e-19)
(1.09631 0.0879106 1.1831e-20)
(1.19621 0.106372 -1.19011e-21)
(1.27471 0.121513 -6.53512e-20)
(1.33216 0.132754 3.75739e-20)
(1.37074 0.140035 1.00699e-19)
(1.39369 0.143695 -1.71309e-19)
(1.40464 0.144316 1.27834e-19)
(1.40704 0.142569 -1.51166e-19)
(1.40374 0.139047 -6.67001e-21)
(1.39694 0.134583 5.84922e-22)
(1.38788 0.128114 6.49693e-20)
(0.0244928 -0.005182 -6.87199e-20)
(0.0970066 -0.0139998 -7.31859e-20)
(0.193509 -0.0153058 1.02683e-19)
(0.310549 -0.0109673 -4.45853e-20)
(0.443947 -0.00089299 -1.36553e-20)
(0.588012 0.0144079 -1.31455e-19)
(0.735778 0.0337997 1.43753e-19)
(0.879646 0.0556909 -2.52111e-19)
(1.01234 0.0782133 2.23491e-20)
(1.12796 0.0995159 3.71891e-20)
(1.22279 0.118065 -1.97764e-20)
(1.29559 0.132848 1.38122e-20)
(1.3474 0.143441 -1.57286e-19)
(1.3809 0.149941 -1.17588e-19)
(1.39964 0.152814 9.67101e-20)
(1.40735 0.152727 -3.05169e-20)
(1.4074 0.15039 -1.79528e-19)
(1.40252 0.146415 -3.36175e-20)
(1.39469 0.141573 -1.44789e-19)
(1.38502 0.134935 -1.75955e-19)
(0.0281268 -0.00549005 -1.62285e-20)
(0.107839 -0.0141365 1.08351e-19)
(0.211417 -0.0143663 7.667e-20)
(0.335065 -0.00835448 2.20074e-19)
(0.474099 0.00377521 -7.52351e-21)
(0.622274 0.0212558 1.12425e-19)
(0.772142 0.0426768 -2.32705e-19)
(0.915849 0.0662046 8.00852e-20)
(1.04619 0.0898086 -6.58271e-20)
(1.15768 0.111586 9.27694e-20)
(1.24724 0.13006 2.25176e-20)
(1.31436 0.144353 5.17139e-20)
(1.36071 0.154206 1.45959e-19)
(1.38941 0.159871 1.77755e-20)
(1.40427 0.161936 -8.70867e-20)
(1.40906 0.161139 1.41398e-19)
(1.40705 0.158221 4.90003e-20)
(1.40081 0.153802 -2.27763e-20)
(1.39212 0.148587 1.35982e-19)
(1.38196 0.141778 8.85705e-20)
(0.360105 -0.00504677 -3.23694e-20)
(0.504553 0.00926326 3.83866e-20)
(0.656445 0.0289761 -2.19916e-20)
(0.807905 0.0523973 1.31807e-19)
(0.950906 0.0774588 -4.08103e-20)
(1.07842 0.101992 -4.91213e-20)
(1.18545 0.124075 -1.63933e-19)
(1.2696 0.142318 -1.02187e-19)
(1.3311 0.155998 -9.27431e-20)
(1.37219 0.165028 -7.38806e-20)
(1.3964 0.169816 2.77535e-20)
(1.40772 0.171059 -5.30263e-20)
(1.40989 0.169556 6.24373e-21)
(1.40609 0.166065 9.75253e-20)
(1.39868 0.161209 1.01815e-19)
(1.38927 0.155626 7.25918e-21)
(1.37869 0.148643 6.19586e-20)
(0.690385 0.0375683 -2.28531e-20)
(0.842922 0.062941 -7.21221e-20)
(0.984694 0.0894174 1.69468e-19)
(1.10894 0.114719 -4.16975e-20)
(1.21124 0.136937 -1.37544e-21)
(1.28992 0.1548 1.09721e-19)
(1.34589 0.167754 -9.65466e-20)
(1.38197 0.175893 4.16065e-20)
(1.402 0.17977 -1.02802e-19)
(1.41009 0.180182 1.7034e-19)
(1.40994 0.177979 -1.2685e-19)
(1.40457 0.173926 -7.52561e-20)
(1.39617 0.16864 -7.85154e-22)
(1.38615 0.162692 -1.07192e-19)
(1.37523 0.155531 -1.24954e-21)
(1.1377 0.127943 -2.98242e-20)
(1.23506 0.15013 5.04907e-20)
(1.30824 0.16747 -6.68768e-20)
(1.35884 0.179598 8.37643e-20)
(1.39016 0.186786 7.9037e-20)
(1.40633 0.189728 1.7391e-20)
(1.41149 0.189307 -4.84447e-20)
(1.40928 0.18641 -1.12705e-20)
(1.40255 0.181804 -6.45725e-20)
(1.39331 0.176093 -2.70706e-20)
(1.38279 0.169783 4.38751e-20)
(1.3716 0.162439 -7.43231e-20)
(1.39688 0.197698 -2.07566e-21)
(1.40948 0.199686 7.23411e-20)
(1.41201 0.198433 -2.03546e-20)
(1.40799 0.194852 1.15023e-19)
(1.40009 0.189702 5.99773e-20)
(1.39014 0.183569 -9.87532e-21)
(1.37921 0.176897 3.21207e-20)
(1.36779 0.169364 1.21138e-19)
(1.40613 0.203304 -7.43869e-21)
(1.39723 0.197619 -9.01659e-20)
(1.38668 0.191067 7.36018e-21)
(1.37541 0.184032 -5.82579e-20)
(1.36382 0.176303 5.81624e-22)
(1.35967 0.183251 -1.20522e-20)
(1.28711 -0.225549 -4.95757e-20)
(1.31581 -0.240364 -2.05095e-20)
(1.31219 -0.236823 1.80941e-21)
(1.30602 -0.23204 8.64971e-21)
(1.29855 -0.226535 -4.34196e-20)
(1.2905 -0.220259 -7.71484e-21)
(1.24257 -0.214598 1.49831e-20)
(1.27974 -0.225482 -4.83502e-20)
(1.30203 -0.231614 2.28739e-20)
(1.31298 -0.233842 7.94649e-22)
(1.31594 -0.233099 6.54283e-20)
(1.3137 -0.230248 8.15386e-20)
(1.30839 -0.226005 -1.99541e-20)
(1.30144 -0.22095 3.40622e-20)
(1.29367 -0.214963 4.01926e-20)
(0.987108 -0.137414 2.14026e-20)
(1.08712 -0.163748 8.66274e-20)
(1.16738 -0.185898 4.04603e-20)
(1.22766 -0.203051 8.5983e-20)
(1.26955 -0.215066 4.96269e-20)
(1.29586 -0.22234 2.46883e-20)
(1.30999 -0.22561 -3.53055e-20)
(1.31528 -0.225753 -3.52113e-20)
(1.31464 -0.223621 -3.54224e-20)
(1.31036 -0.21994 2.23467e-21)
(1.30403 -0.215351 4.89368e-20)
(1.29661 -0.209661 -5.1142e-20)
(0.57143 -0.04199 7.24825e-20)
(0.706527 -0.0681695 6.50898e-20)
(0.836951 -0.0964367 -8.62522e-20)