/*--------------------------------*- C++ -*----------------------------------*\
  =========                 |
  \\      /  F ield         | OpenFOAM: The Open Source CFD Toolbox
   \\    /   O peration     | Website:  https://openfoam.org
    \\  /    A nd           | Version:  7
     \\/     M anipulation  |
\*---------------------------------------------------------------------------*/
FoamFile
{
    version     2.0;
    format      ascii;
    class       volScalarField;
    location    "180";
    object      p;
}
// * * * * * * * * * * * * * * * * * * * * * * * * * * * * * * * * * * * * * //

dimensions      [0 2 -2 0 0 0 0];

internalField   nonuniform List<scalar> 
7156
(
-0.137701
-0.153422
-0.16023
-0.155498
-0.14137
-0.122921
-0.104871
-0.0903046
-0.0803768
-0.074888
-0.0735189
-0.0767055
-0.0848132
-0.096517
-0.108216
-0.115316
-0.114622
-0.106214
-0.0935148
-0.0807602
-0.0706762
-0.0639851
-0.0609285
-0.0618899
-0.0665602
-0.0731095
-0.0782619
-0.0792827
-0.0752622
-0.135221
-0.150612
-0.157356
-0.152854
-0.139168
-0.121233
-0.103673
-0.0895456
-0.0800038
-0.0748605
-0.0738273
-0.0773782
-0.085893
-0.0980154
-0.110072
-0.117384
-0.116696
-0.108083
-0.0950198
-0.0818399
-0.0713374
-0.0642544
-0.0608118
-0.0613707
-0.065629
-0.0718002
-0.0766787
-0.0775929
-0.0736637
-0.132699
-0.147764
-0.154452
-0.150186
-0.136946
-0.119525
-0.102454
-0.0887624
-0.0796049
-0.0748061
-0.074108
-0.0780226
-0.0869439
-0.099486
-0.111903
-0.119434
-0.118758
-0.109944
-0.0965175
-0.0829094
-0.0719854
-0.0645091
-0.060681
-0.0608395
-0.0646894
-0.070487
-0.0750964
-0.0759074
-0.0720697
-0.13014
-0.144883
-0.151521
-0.147498
-0.134705
-0.117798
-0.101212
-0.0879549
-0.0791796
-0.0747239
-0.07436
-0.0786371
-0.0879641
-0.100927
-0.113709
-0.121464
-0.120808
-0.111796
-0.0980072
-0.0839686
-0.0726203
-0.0647495
-0.0605367
-0.0602974
-0.0637427
-0.0691714
-0.0735164
-0.0742274
-0.0704811
-0.127549
-0.141973
-0.148567
-0.144791
-0.132447
-0.116051
-0.0999483
-0.0871229
-0.0787273
-0.074613
-0.0745821
-0.07922
-0.0889514
-0.102335
-0.115485
-0.123472
-0.122842
-0.113639
-0.0994884
-0.0850174
-0.0732424
-0.0649763
-0.06038
-0.0597455
-0.0627903
-0.0678548
-0.0719402
-0.072554
-0.0688986
-0.12493
-0.139039
-0.145594
-0.142069
-0.130173
-0.114286
-0.0986632
-0.0862663
-0.0782476
-0.0744728
-0.0747731
-0.0797699
-0.0899039
-0.103709
-0.11723
-0.125455
-0.12486
-0.11547
-0.10096
-0.0860557
-0.0738519
-0.06519
-0.0602115
-0.0591849
-0.0618333
-0.0665386
-0.0703691
-0.0708884
-0.0673232
-0.122287
-0.136085
-0.142604
-0.139333
-0.127885
-0.112504
-0.0973571
-0.085385
-0.0777401
-0.0743024
-0.0749319
-0.0802851
-0.0908196
-0.105045
-0.118942
-0.127412
-0.126859
-0.11729
-0.102423
-0.0870834
-0.0744493
-0.0653912
-0.0600321
-0.0586166
-0.0608731
-0.0652243
-0.0688042
-0.0692315
-0.0657554
-0.119626
-0.133115
-0.139602
-0.136587
-0.125584
-0.110706
-0.0960304
-0.0844791
-0.0772045
-0.0741013
-0.0750575
-0.0807643
-0.0916965
-0.106343
-0.120618
-0.12934
-0.128839
-0.119097
-0.103875
-0.0881006
-0.0750347
-0.0655803
-0.0598426
-0.0580417
-0.0599109
-0.063913
-0.0672469
-0.0675845
-0.0641962
-0.11695
-0.130133
-0.136591
-0.133832
-0.123273
-0.108892
-0.0946836
-0.0835487
-0.0766405
-0.0738688
-0.0751489
-0.0812059
-0.0925329
-0.107598
-0.122256
-0.131237
-0.130796
-0.120889
-0.105316
-0.089107
-0.0756085
-0.0657581
-0.0596438
-0.0574612
-0.058948
-0.0626061
-0.0656984
-0.0659482
-0.0626461
-0.114264
-0.127143
-0.133574
-0.131071
-0.120952
-0.107065
-0.0933172
-0.082594
-0.0760478
-0.0736044
-0.0752052
-0.0816086
-0.0933267
-0.108811
-0.123853
-0.133101
-0.13273
-0.122665
-0.106746
-0.0901029
-0.076171
-0.0659251
-0.0594365
-0.056876
-0.0579854
-0.0613047
-0.0641599
-0.0643237
-0.0611059
-0.111572
-0.12415
-0.130555
-0.128307
-0.118623
-0.105223
-0.0919318
-0.081615
-0.0754264
-0.0733075
-0.0752255
-0.0819711
-0.0940764
-0.109977
-0.125407
-0.134929
-0.134638
-0.124425
-0.108164
-0.091088
-0.0767226
-0.0660817
-0.0592215
-0.0562872
-0.0570242
-0.0600101
-0.0626323
-0.0627118
-0.0595762
-0.108877
-0.121157
-0.127536
-0.125541
-0.116288
-0.10337
-0.0905281
-0.0806121
-0.0747762
-0.0729779
-0.0752091
-0.0822921
-0.0947801
-0.111096
-0.126916
-0.136721
-0.136519
-0.126166
-0.10957
-0.0920624
-0.0772635
-0.0662288
-0.0589995
-0.0556957
-0.0560657
-0.0587235
-0.0611169
-0.0611134
-0.0580578
-0.106184
-0.118167
-0.124521
-0.122776
-0.113949
-0.101506
-0.0891068
-0.0795856
-0.0740971
-0.0726151
-0.0751551
-0.0825705
-0.0954363
-0.112165
-0.128378
-0.138473
-0.138371
-0.127889
-0.110962
-0.0930261
-0.0777943
-0.0663667
-0.0587713
-0.0551025
-0.0551108
-0.0574458
-0.0596145
-0.0595295
-0.0565513
-0.103497
-0.115184
-0.121512
-0.120014
-0.111607
-0.0996311
-0.0876686
-0.0785359
-0.0733892
-0.0722188
-0.0750631
-0.0828051
-0.0960434
-0.113182
-0.129791
-0.140183
-0.140193
-0.129591
-0.112341
-0.0939791
-0.0783152
-0.0664962
-0.0585377
-0.0545083
-0.0541604
-0.0561781
-0.0581263
-0.0579608
-0.0550573
-0.100818
-0.112212
-0.118512
-0.117258
-0.109263
-0.0977478
-0.0862142
-0.0774634
-0.0726526
-0.0717889
-0.0749322
-0.0829951
-0.0965998
-0.114145
-0.131152
-0.14185
-0.141982
-0.131272
-0.113706
-0.0949215
-0.0788266
-0.0666178
-0.0582993
-0.0539142
-0.0532157
-0.0549215
-0.0566531
-0.056408
-0.0535765
-0.0981508
-0.109254
-0.115525
-0.114509
-0.10692
-0.0958567
-0.0847446
-0.0763686
-0.0718875
-0.0713253
-0.0747622
-0.0831393
-0.0971042
-0.115053
-0.13246
-0.143471
-0.143737
-0.13293
-0.115056
-0.0958531
-0.0793289
-0.066732
-0.058057
-0.0533208
-0.0522774
-0.0536768
-0.0551958
-0.054872
-0.0521093
-0.0954992
-0.106312
-0.112552
-0.111769
-0.104578
-0.0939592
-0.0832606
-0.0752521
-0.0710942
-0.0708277
-0.0745525
-0.083237
-0.0975553
-0.115904
-0.133712
-0.145045
-0.145456
-0.134565
-0.116391
-0.0967741
-0.0798225
-0.0668395
-0.0578115
-0.052729
-0.0513464
-0.0524449
-0.0537552
-0.0533535
-0.0506565
-0.092866
-0.10339
-0.109596
-0.10904
-0.10224
-0.0920563
-0.0817631
-0.0741145
-0.070273
-0.0702964
-0.0743029
-0.0832875
-0.0979519
-0.116696
-0.134907
-0.146569
-0.147138
-0.136175
-0.11771
-0.0976844
-0.0803078
-0.0669409
-0.0575633
-0.0521396
-0.0504236
-0.0512267
-0.0523321
-0.051853
-0.0492185
-0.0902541
-0.10049
-0.10666
-0.106325
-0.0999068
-0.0901493
-0.0802532
-0.0729565
-0.0694242
-0.0697313
-0.074013
-0.0832901
-0.0982929
-0.117427
-0.136042
-0.148042
-0.148781
-0.137758
-0.119013
-0.098584
-0.0807852
-0.0670367
-0.0573133
-0.0515532
-0.0495098
-0.050023
-0.0509273
-0.0503714
-0.047796
-0.0876662
-0.0976157
-0.103746
-0.103624
-0.0975798
-0.0882394
-0.0787317
-0.0717789
-0.0685484
-0.0691326
-0.0736827
-0.0832441
-0.0985772
-0.118097
-0.137117
-0.149463
-0.150383
-0.139315
-0.120299
-0.099473
-0.081255
-0.0671275
-0.0570619
-0.0509707
-0.0486056
-0.0488344
-0.0495415
-0.0489091
-0.0463894
-0.0851048
-0.0947688
-0.100855
-0.10094
-0.0952608
-0.0863278
-0.0771997
-0.0705824
-0.0676461
-0.0685006
-0.073312
-0.0831492
-0.098804
-0.118704
-0.138129
-0.150828
-0.151943
-0.140843
-0.121568
-0.100351
-0.0817176
-0.0672138
-0.05681
-0.0503926
-0.0477117
-0.0476617
-0.0481752
-0.0474667
-0.0449992
-0.0825724
-0.0919519
-0.0979913
-0.0982751
-0.092951
-0.0844158
-0.0756584
-0.0693678
-0.0667179
-0.0678356
-0.0729008
-0.0830051
-0.0989724
-0.119246
-0.139077
-0.152137
-0.15346
-0.142342
-0.122818
-0.101219
-0.0821734
-0.0672962
-0.0565581
-0.0498197
-0.0468289
-0.0465056
-0.0468291
-0.0460449
-0.0436259
-0.0800711
-0.0891671
-0.0951553
-0.0956299
-0.090652
-0.0825045
-0.0741087
-0.0681362
-0.0657644
-0.067138
-0.0724493
-0.0828114
-0.0990819
-0.119723
-0.13996
-0.153388
-0.154931
-0.14381
-0.124051
-0.102076
-0.0826228
-0.0673753
-0.0563067
-0.0492524
-0.0459576
-0.0453664
-0.0455038
-0.044644
-0.04227
-0.0776031
-0.0864166
-0.0923493
-0.0930065
-0.0883652
-0.0805953
-0.0725518
-0.0668883
-0.0647864
-0.0664082
-0.0719575
-0.0825679
-0.0991317
-0.120133
-0.140776
-0.15458
-0.156354
-0.145247
-0.125264
-0.102922
-0.083066
-0.0674515
-0.0560565
-0.0486914
-0.0450984
-0.0442449
-0.0441997
-0.0432646
-0.0409319
-0.0751703
-0.083702
-0.0895752
-0.0904016
-0.0860918
-0.0786893
-0.0709889
-0.0656253
-0.0637847
-0.0656469
-0.071426
-0.0822748
-0.0991216
-0.120477
-0.141524
-0.155711
-0.157727
-0.146651
-0.126457
-0.103758
-0.0835036
-0.0675254
-0.0558081
-0.0481373
-0.0442519
-0.0431415
-0.0429173
-0.0419071
-0.0396121
-0.0727745
-0.0810254
-0.0868346
-0.0878184
-0.0838334
-0.0767878
-0.0694211
-0.0643481
-0.0627601
-0.0648545
-0.0708548
-0.0819319
-0.0990511
-0.120752
-0.142202
-0.15678
-0.159104
-0.148022
-0.127631
-0.104582
-0.0839357
-0.0675975
-0.0555619
-0.0475904
-0.0434185
-0.0420566
-0.041657
-0.0405719
-0.038311
-0.0704172
-0.0783882
-0.0841294
-0.0853923
-0.081591
-0.0748919
-0.0678496
-0.0630578
-0.0617135
-0.0640318
-0.0702447
-0.0815396
-0.09892
-0.120958
-0.142811
-0.157784
-0.160376
-0.149357
-0.128783
-0.105396
-0.0843628
-0.0676682
-0.0553186
-0.0470514
-0.0425986
-0.0409905
-0.0404192
-0.0392594
-0.0370289
-0.0681
-0.0757919
-0.0814598
-0.0828481
-0.0793658
-0.0730029
-0.0662757
-0.0617555
-0.0606459
-0.0631796
-0.069596
-0.081098
-0.0987283
-0.121095
-0.143348
-0.158724
-0.161598
-0.150657
-0.129914
-0.106199
-0.0847851
-0.0677381
-0.0550785
-0.0465207
-0.0417925
-0.0399437
-0.0392042
-0.0379699
-0.0357662
-0.0658243
-0.0732378
-0.0788275
-0.0803337
-0.0771593
-0.0711218
-0.0647004
-0.0604424
-0.0595583
-0.0622987
-0.0689094
-0.0806076
-0.098476
-0.121162
-0.143814
-0.159599
-0.162768
-0.15192
-0.131023
-0.106991
-0.085203
-0.0678077
-0.0548421
-0.0459986
-0.0410008
-0.0389164
-0.0380123
-0.0367038
-0.0345234
-0.0635911
-0.0707272
-0.0762341
-0.0778559
-0.0749728
-0.0692498
-0.063125
-0.0591197
-0.0584517
-0.0613899
-0.0681856
-0.0800688
-0.0981632
-0.12116
-0.144207
-0.160406
-0.163883
-0.153145
-0.13211
-0.107771
-0.0856166
-0.0678773
-0.0546101
-0.0454857
-0.0402235
-0.0379089
-0.0368436
-0.0354612
-0.0333006
-0.0614015
-0.0682611
-0.073681
-0.0754157
-0.0728076
-0.0673881
-0.0615507
-0.0577884
-0.0573273
-0.0604542
-0.0674255
-0.0794823
-0.0977902
-0.121088
-0.144526
-0.161146
-0.164944
-0.15433
-0.133173
-0.108541
-0.0860264
-0.0679474
-0.0543826
-0.0449822
-0.0394611
-0.0369213
-0.0356985
-0.0342425
-0.0320984
-0.0592565
-0.0658405
-0.0711695
-0.0730137
-0.0706648
-0.0655377
-0.0599787
-0.05645
-0.0561863
-0.0594927
-0.0666298
-0.0788486
-0.0973574
-0.120945
-0.144773
-0.161817
-0.165949
-0.155476
-0.134212
-0.109298
-0.0864324
-0.0680184
-0.0541603
-0.0444885
-0.0387136
-0.0359538
-0.034577
-0.0330478
-0.0309169
-0.0634662
-0.0687005
-0.070647
-0.0685453
-0.0636999
-0.0584102
-0.0551055
-0.0550297
-0.0585064
-0.0657996
-0.0781687
-0.0968653
-0.120733
-0.144945
-0.16242
-0.166898
-0.156581
-0.135227
-0.110045
-0.0868351
-0.0680908
-0.0539434
-0.044005
-0.0379815
-0.0350066
-0.0334792
-0.0318774
-0.0297564
-0.0611391
-0.0662751
-0.0683157
-0.0664503
-0.0618757
-0.0568464
-0.0537563
-0.0538589
-0.0574964
-0.0649358
-0.0774433
-0.0963145
-0.120451
-0.145044
-0.162952
-0.167788
-0.157644
-0.136217
-0.110779
-0.0872344
-0.0681648
-0.0537325
-0.0435319
-0.0372647
-0.0340796
-0.0324053
-0.0307314
-0.0286173
-0.0588596
-0.0638938
-0.0660205
-0.0643811
-0.0600662
-0.0552885
-0.0524036
-0.0526751
-0.0564638
-0.0640395
-0.0766735
-0.0957058
-0.1201
-0.145068
-0.163415
-0.168619
-0.158665
-0.137181
-0.111502
-0.0876307
-0.068241
-0.0535277
-0.0430696
-0.0365634
-0.033173
-0.0313552
-0.0296099
-0.0274998
-0.0566283
-0.0615574
-0.0637623
-0.0623389
-0.0582726
-0.0537377
-0.0510487
-0.0514795
-0.05541
-0.0631119
-0.0758603
-0.09504
-0.11968
-0.145019
-0.163807
-0.16939
-0.159641
-0.138119
-0.112212
-0.0880241
-0.0683196
-0.0533296
-0.0426182
-0.0358778
-0.0322867
-0.0303289
-0.0285129
-0.0264041
-0.0544455
-0.0592665
-0.0615419
-0.0603248
-0.0564958
-0.052195
-0.0496929
-0.0502736
-0.0543361
-0.0621541
-0.0750048
-0.094318
-0.119191
-0.144896
-0.164129
-0.170101
-0.160573
-0.139029
-0.11291
-0.0884147
-0.0684009
-0.0531383
-0.042178
-0.0352079
-0.0314207
-0.0293264
-0.0274406
-0.0253305
-0.0523113
-0.0570216
-0.0593601
-0.05834
-0.0547371
-0.0506616
-0.0483374
-0.0490586
-0.0532435
-0.0611675
-0.0741083
-0.093541
-0.118635
-0.144699
-0.16438
-0.17075
-0.16146
-0.139912
-0.113595
-0.0888027
-0.0684853
-0.0529543
-0.0417493
-0.0345538
-0.0305748
-0.0283476
-0.026393
-0.0242792
-0.050226
-0.054823
-0.0572176
-0.0563857
-0.0529976
-0.0491387
-0.0469836
-0.047836
-0.0521335
-0.0601534
-0.0731722
-0.0927099
-0.118013
-0.14443
-0.16456
-0.171338
-0.1623
-0.140766
-0.114268
-0.0891881
-0.0685731
-0.0527778
-0.0413323
-0.0339155
-0.0297491
-0.0273924
-0.02537
-0.0232504
-0.0481894
-0.052671
-0.0551151
-0.0544631
-0.0512785
-0.0476274
-0.0456327
-0.0466069
-0.0510074
-0.0591132
-0.0721977
-0.0918262
-0.117325
-0.144088
-0.164669
-0.171865
-0.163092
-0.141592
-0.114927
-0.089571
-0.0686645
-0.0526091
-0.040927
-0.0332932
-0.0289433
-0.0264605
-0.0243716
-0.0222441
-0.0462014
-0.0505658
-0.0530533
-0.0525735
-0.0495809
-0.0461289
-0.044286
-0.0453729
-0.0498667
-0.0580482
-0.0711863
-0.0908911
-0.116572
-0.143674
-0.164707
-0.172329
-0.163837
-0.142387
-0.115572
-0.0899514
-0.0687598
-0.0524483
-0.0405337
-0.0326866
-0.0281573
-0.0255519
-0.0233977
-0.0212625
-0.0442619
-0.0485074
-0.0510327
-0.050718
-0.0479063
-0.0446443
-0.0429447
-0.0441354
-0.0487128
-0.0569599
-0.0701395
-0.0899061
-0.115755
-0.143189
-0.164675
-0.172729
-0.164533
-0.143152
-0.116203
-0.0903293
-0.0688591
-0.0522959
-0.0401526
-0.032096
-0.0273909
-0.0246662
-0.0224484
-0.0203061
-0.0423712
-0.0464964
-0.0490544
-0.0488982
-0.0462564
-0.0431749
-0.0416103
-0.0428957
-0.0475471
-0.0558499
-0.0690589
-0.0888726
-0.114877
-0.142634
-0.164572
-0.173067
-0.165178
-0.143885
-0.11682
-0.0907052
-0.0689633
-0.0521524
-0.0397841
-0.0315215
-0.0266442
-0.0238034
-0.0215235
-0.0193661
-0.0405283
-0.0445322
-0.0471193
-0.0471165
-0.0446332
-0.0417225
-0.0402843
-0.0416555
-0.0463713
-0.0547197
-0.0679462
-0.0877922
-0.113937
-0.142009
-0.164399
-0.173339
-0.165773
-0.144586
-0.117423
-0.0910795
-0.0690726
-0.0520182
-0.0394282
-0.030963
-0.0259167
-0.0229632
-0.0206229
-0.0184492
-0.0387291
-0.0426102
-0.0452232
-0.0453737
-0.0430372
-0.0402879
-0.038968
-0.0404162
-0.0451867
-0.0535709
-0.0668031
-0.0866667
-0.112937
-0.141315
-0.164156
-0.173549
-0.166319
-0.145256
-0.118011
-0.0914499
-0.0691846
-0.0518907
-0.039083
-0.0304186
-0.0252065
-0.0221434
-0.0197448
-0.0175552
-0.0369716
-0.0407249
-0.0433587
-0.0436596
-0.0414634
-0.0388686
-0.0376607
-0.039178
-0.0439942
-0.0524045
-0.065631
-0.0854983
-0.111881
-0.140558
-0.16385
-0.173704
-0.16682
-0.145894
-0.118579
-0.0918094
-0.0692932
-0.0517657
-0.0387454
-0.0298862
-0.0245116
-0.0213417
-0.0188866
-0.0166817
-0.0352801
-0.0389015
-0.0415495
-0.0419724
-0.0399204
-0.0374685
-0.0363636
-0.0379419
-0.0427949
-0.051222
-0.0644319
-0.0842892
-0.110771
-0.139737
-0.163478
-0.17379
-0.167258
-0.146484
-0.11912
-0.0921631
-0.0694088
-0.0516546
-0.0384263
-0.0293761
-0.0238425
-0.0205685
-0.0180582
-0.0158364
-0.033696
-0.0372072
-0.0398884
-0.0404149
-0.0384852
-0.0361377
-0.0351057
-0.0367247
-0.041602
-0.0500348
-0.0632106
-0.083032
-0.109582
-0.138804
-0.16296
-0.173712
-0.167558
-0.147007
-0.119667
-0.092566
-0.0695884
-0.0516061
-0.0381639
-0.028919
-0.0232278
-0.0198552
-0.0172943
-0.0150558
-0.0321025
-0.0355384
-0.0383092
-0.0390187
-0.0371883
-0.0349207
-0.0339284
-0.0355578
-0.0404386
-0.0488601
-0.0619741
-0.0817128
-0.108271
-0.137692
-0.162237
-0.173458
-0.167773
-0.147554
-0.120298
-0.0930653
-0.0698495
-0.0516172
-0.0379414
-0.028488
-0.0226338
-0.0191674
-0.0165662
-0.014324
-0.0300656
-0.0332719
-0.0360028
-0.0368918
-0.0353637
-0.0333833
-0.0325891
-0.0343072
-0.0391944
-0.0475929
-0.0606864
-0.0804486
-0.107166
-0.136978
-0.162114
-0.173923
-0.168579
-0.148374
-0.120903
-0.0933499
-0.0698245
-0.0513439
-0.0374639
-0.0278201
-0.0217926
-0.0182036
-0.0155388
-0.0132865
-0.0251302
-0.0269229
-0.0284538
-0.0285748
-0.0281791
-0.0274159
-0.0277703
-0.030192
-0.0352219
-0.0435782
-0.057057
-0.0780313
-0.106756
-0.138959
-0.166131
-0.178938
-0.173027
-0.151158
-0.122069
-0.0932434
-0.0688913
-0.049951
-0.0357806
-0.0258083
-0.0193429
-0.0152942
-0.0122492
-0.00972633
-0.00830907
-0.0202877
-0.0217554
-0.0233336
-0.0239305
-0.023441
-0.0228509
-0.0235278
-0.0262752
-0.0316124
-0.0402911
-0.0541408
-0.0755172
-0.104666
-0.137289
-0.164797
-0.177839
-0.17185
-0.150193
-0.120792
-0.0916533
-0.0670729
-0.0479703
-0.0336502
-0.023505
-0.016858
-0.0126935
-0.00963817
-0.00719424
-0.00579536
-0.0157515
-0.0168285
-0.0182912
-0.0188893
-0.0188057
-0.0186603
-0.0196562
-0.0227264
-0.0284236
-0.0374602
-0.051562
-0.0729478
-0.101881
-0.134334
-0.16208
-0.175832
-0.170357
-0.148723
-0.119162
-0.0898243
-0.0650885
-0.0458839
-0.03148
-0.0212287
-0.0144537
-0.0102106
-0.00716091
-0.00475362
-0.00346304
-0.0114189
-0.0120302
-0.0132043
-0.0138204
-0.0140324
-0.0142535
-0.015612
-0.0190155
-0.0249948
-0.0342566
-0.0484956
-0.0698615
-0.0986818
-0.131219
-0.159467
-0.173794
-0.168493
-0.146753
-0.117059
-0.0876398
-0.0628747
-0.0436677
-0.0292543
-0.0189501
-0.0120768
-0.00775413
-0.00467188
-0.00228604
-0.00106721
-0.00735049
-0.00751661
-0.00842165
-0.00909496
-0.00944271
-0.00993898
-0.0116045
-0.0152595
-0.0214011
-0.0307565
-0.0450369
-0.0663822
-0.0951872
-0.127889
-0.156464
-0.170981
-0.165797
-0.144069
-0.114417
-0.0850916
-0.0604371
-0.0413311
-0.0269849
-0.0166864
-0.00975871
-0.00538521
-0.00229021
4.19467e-05
0.00125118
-0.00356552
-0.00332562
-0.00398384
-0.00466684
-0.00514151
-0.00587599
-0.0077792
-0.0115998
-0.0178156
-0.0271768
-0.0414103
-0.0626472
-0.0913196
-0.123964
-0.152571
-0.167189
-0.162205
-0.140654
-0.111236
-0.0821825
-0.0577812
-0.0388821
-0.0246804
-0.0144462
-0.00750855
-0.00311837
-4.08826e-05
0.00222816
0.00343228
-6.763e-05
0.000541687
0.000126299
-0.000533511
-0.00113621
-0.00207638
-0.00416171
-0.00808398
-0.0143102
-0.0236057
-0.0376921
-0.0586645
-0.0869707
-0.119279
-0.147742
-0.162456
-0.157722
-0.136505
-0.107517
-0.078918
-0.0549154
-0.0363297
-0.0223494
-0.0122362
-0.00533047
-0.000953789
0.0020835
0.00428245
0.00547191
0.00314397
0.00408498
0.00390726
0.00328952
0.00257699
0.00146679
-0.000752605
-0.00472066
-0.0108959
-0.0200493
-0.0338765
-0.0544117
-0.0821234
-0.113878
-0.142053
-0.15679
-0.152344
-0.131622
-0.103269
-0.0753101
-0.0518516
-0.0336848
-0.0200008
-0.0100632
-0.00322831
0.00110845
0.00408634
0.00620519
0.00737443
0.00607258
0.00730432
0.007356
0.00679632
0.00599708
0.00475061
0.00244225
-0.00151668
-0.00757696
-0.0165081
-0.0299647
-0.0499056
-0.0768318
-0.107832
-0.135529
-0.150186
-0.14608
-0.126025
-0.0985107
-0.0713772
-0.048605
-0.0309595
-0.0176441
-0.0079338
-0.00120598
0.0030674
0.00596882
0.00799716
0.00914117
0.00872457
0.0102037
0.0104744
0.00998759
0.0091243
0.00777224
0.00541632
0.0015183
-0.00436557
-0.0129991
-0.0259842
-0.0451929
-0.0711535
-0.101177
-0.128183
-0.142667
-0.13896
-0.119745
-0.093274
-0.0671447
-0.0451949
-0.0281678
-0.0152892
-0.00585469
0.000732682
0.00492221
0.00773269
0.00966042
0.0107724
0.0111095
0.0127912
0.0132681
0.0128684
0.0119642
0.0105348
0.00816738
0.00437577
-0.00127731
-0.00954749
-0.0219727
-0.0403213
-0.06513
-0.0939429
-0.120057
-0.134286
-0.131042
-0.112833
-0.0876004
-0.0626445
-0.0416439
-0.0253246
-0.0129461
-0.00383226
0.00258406
0.0066722
0.00938018
0.0111979
0.0122693
0.0132397
0.0150788
0.015746
0.0154474
0.0145273
0.0130472
0.0106987
0.0070515
0.00167491
-0.00617686
-0.0179651
-0.0353317
-0.0588051
-0.0861879
-0.111226
-0.125124
-0.122402
-0.105356
-0.0815426
-0.0579151
-0.0379781
-0.0224468
-0.0106249
-0.0018726
0.00434484
0.00831683
0.0109137
0.0126135
0.0136346
0.0151296
0.0170822
0.0179199
0.017736
0.0168273
0.0153228
0.0130189
0.00954651
0.00448286
-0.00290642
-0.0139922
-0.0302665
-0.0522377
-0.0779913
-0.101784
-0.115284
-0.113141
-0.0973988
-0.0751641
-0.0530008
-0.0342266
-0.0195518
-0.00833581
1.86957e-05
0.0060121
0.00985565
0.0123358
0.0139117
0.0148723
0.0167948
0.0188195
0.0198051
0.019747
0.0188792
0.0173781
0.0151411
0.0118667
0.0071425
0.000247803
-0.0100842
-0.0251737
-0.0454983
-0.0694479
-0.0918519
-0.104899
-0.103383
-0.0890606
-0.0685374
-0.047951
-0.0304209
-0.0166582
-0.00608888
0.0018366
0.00758344
0.0112883
0.0136487
0.0150973
0.0159871
0.0182519
0.0203117
0.0214191
0.0214943
0.020698
0.0192305
0.0170811
0.0140211
0.00965275
0.00327177
-0.00627114
-0.0201035
-0.0386625
-0.0606652
-0.0815677
-0.0941195
-0.0932673
-0.0804536
-0.0617423
-0.0428184
-0.0265942
-0.0137853
-0.00389384
0.00357677
0.00905704
0.0126144
0.0148546
0.0161752
0.0169845
0.0195173
0.0215806
0.0227825
0.0229925
0.0222971
0.0208957
0.0188547
0.0160202
0.0120143
0.00615369
-0.00258038
-0.0151037
-0.0318083
-0.0517636
-0.0710887
-0.083117
-0.0829502
-0.0716996
-0.0548639
-0.0376583
-0.0227808
-0.0109525
-0.00176012
0.00523562
0.0104318
0.0138341
0.0159553
0.0171499
0.0178703
0.0206064
0.0226486
0.0239176
0.0242573
0.0236876
0.022386
0.020475
0.0178732
0.0142285
0.00888489
0.000966094
-0.0102181
-0.0250164
-0.0428725
-0.0605858
-0.0720764
-0.0725969
-0.0629254
-0.0479894
-0.0325265
-0.0190145
-0.00817895
0.000303337
0.00681032
0.0117075
0.0149474
0.0169521
0.0180254
0.0186497
0.0215339
0.0235369
0.0248479
0.0253058
0.0248791
0.0237086
0.02195
0.019586
0.0162964
0.0114604
0.00435296
-0.00548484
-0.0183673
-0.0341274
-0.0502401
-0.0611894
-0.0623745
-0.0542578
-0.0412052
-0.0274773
-0.0153284
-0.0054833
0.0022881
0.00829884
0.0128846
0.0159553
0.017846
0.0188048
0.0193282
0.0223128
0.0242653
0.025597
0.0261572
0.0258805
0.0248666
0.0232817
0.0211602
0.0182185
0.0138793
0.00757274
-0.000934701
-0.0119391
-0.0256674
-0.0402354
-0.0506445
-0.052444
-0.0458179
-0.0345937
-0.0225625
-0.0117532
-0.00288294
0.00418639
0.00969987
0.0139649
0.0168592
0.018638
0.0194902
0.0199106
0.0229549
0.0248512
0.0261872
0.0268317
0.0267026
0.0258616
0.0244682
0.022594
0.0199948
0.0161451
0.0106268
0.00341054
-0.00580603
-0.0176306
-0.030749
-0.0406167
-0.0429516
-0.0377155
-0.0282302
-0.0178291
-0.00831684
-0.000393634
0.00599117
0.0110128
0.0149507
0.0176615
0.0193292
0.0200831
0.0204007
0.0234711
0.0253096
0.0266387
0.0273501
0.0273585
0.0266962
0.0255061
0.0238837
0.0216256
0.0182659
0.0135252
0.00753741
-3.76298e-05
-0.0101478
-0.0219402
-0.0312555
-0.0340203
-0.0300445
-0.02218
-0.0133183
-0.0050434
0.00197096
0.0076963
0.0122375
0.0158453
0.0183657
0.0199212
0.0205848
0.0208017
0.0238716
0.0256534
0.0269693
0.0277325
0.0278641
0.0273768
0.0263946
0.0250264
0.0231122
0.0202517
0.0162809
0.0114349
0.00530036
-0.0033349
-0.0139359
-0.0226716
-0.0257428
-0.0228792
-0.0164968
-0.00906435
-0.00195279
0.00419968
0.00929665
0.0133743
0.0166529
0.0189763
0.020417
0.0209968
0.0211171
0.0241666
0.0258936
0.0271935
0.0279969
0.0282363
0.0279143
0.0271372
0.0260222
0.024455
0.0221074
0.0188976
0.0150813
0.0101433
0.00271913
-0.00681497
-0.0149286
-0.0181781
-0.0162727
-0.0112217
-0.00509411
0.000939626
0.0062841
0.0107883
0.0144241
0.017378
0.0194994
0.020821
0.0213215
0.0213505
0.0243664
0.0260402
0.0273231
0.0281588
0.028492
0.0283223
0.0277422
0.026874
0.025652
0.023824
0.0213517
0.0184282
0.014427
0.00796502
-0.000597933
-0.00804204
-0.0113542
-0.0102582
-0.00638251
-0.00142656
0.00362313
0.00821863
0.0121687
0.0153877
0.0180257
0.0199415
0.0211393
0.0215632
0.0215071
0.0244807
0.0261024
0.0273685
0.0282311
0.0286463
0.0286151
0.0282202
0.0275868
0.026697
0.0253737
0.023585
0.0213989
0.0180966
0.0124029
0.00475094
-0.00198915
-0.00527445
-0.00485102
-0.00199487
0.00192699
0.0060915
0.0100005
0.0134368
0.0162666
0.0186009
0.0203104
0.0213798
0.0217284
0.0215939
0.0245191
0.0260894
0.0273383
0.0282239
0.0287117
0.0288058
0.0285823
0.0281661
0.0275814
0.0267168
0.0255197
0.0239113
0.0211246
0.0160799
0.00930259
0.00327336
7.43805e-05
-5.11798e-05
0.00193745
0.00496267
0.00834274
0.0116295
0.0145929
0.0170623
0.0191086
0.0206142
0.0215517
0.0218254
0.0216201
0.0244906
0.0260098
0.0272406
0.0281459
0.0286981
0.0289052
0.0288377
0.0286172
0.0282981
0.0278184
0.0270927
0.0259158
0.0235273
0.0190738
0.0131375
0.00779376
0.00471646
0.00415451
0.00542147
0.00768347
0.0103787
0.0131077
0.015639
0.0177769
0.0195536
0.0208607
0.0216653
0.0218646
0.0215968
0.0244034
0.0258723
0.0270834
0.0280044
0.0286136
0.0289218
0.0289943
0.0289453
0.0288457
0.0286634
0.0282829
0.0274181
0.0253614
0.0214706
0.016328
0.0116198
0.00868507
0.00779114
0.00847379
0.0100985
0.0122045
0.014439
0.0165783
0.0184131
0.0199403
0.0210576
0.0217309
0.0218577
0.0215361
0.0242649
0.0256844
0.0268742
0.0278068
0.0284655
0.0288629
0.0290585
0.0291557
0.0292291
0.02926
0.0291136
0.0284711
0.0267058
0.0233484
0.0189322
0.0148
0.012026
0.0108955
0.0111191
0.012222
0.0138282
0.0156291
0.0174151
0.0189739
0.0202727
0.0212119
0.0217584
0.021816
0.0214499
0.0240817
0.0254529
0.0266202
0.0275603
0.0282606
0.0287349
0.0290362
0.0292547
0.0294587
0.0296323
0.0296342
0.0291486
0.0276421
0.0247757
0.0210048
0.0173894
0.0147948
0.013513
0.0133881
0.0140718
0.0152597
0.0166845
0.0181546
0.0194633
0.0205545
0.0213293
0.0217567
0.0217501
0.0213509
0.02386
0.0251841
0.0263276
0.0272712
0.0280054
0.028544
0.0289335
0.0292491
0.0295476
0.0298106
0.0299001
0.0295249
0.0282448
0.0258155
0.0226087
0.0194539
0.0170524
0.0156931
0.0153147
0.0156684
0.0165106
0.0176126
0.0188026
0.0198855
0.0207894
0.021415
0.0217333
0.0216687
0.0212473
0.0236054
0.0248837
0.0260025
0.0269454
0.0277057
0.0282964
0.0287567
0.0291473
0.0295111
0.0298256
0.0299624
0.0296657
0.0285802
0.0265301
0.02381
0.0210646
0.0188655
0.017488
0.0169344
0.0170334
0.0175936
0.0184213
0.0193651
0.0202454
0.0209813
0.0214732
0.021694
0.0215787
0.0211451
0.023323
0.0245571
0.0256501
0.0265883
0.0273671
0.0279982
0.0285132
0.0289589
0.0293653
0.029706
0.0298653
0.0296258
0.028706
0.026979
0.0246749
0.022294
0.0203018
0.0189489
0.0182819
0.0181888
0.0185218
0.0191187
0.0198483
0.0205478
0.0211338
0.0215074
0.0216431
0.021485
0.021048
0.0230172
0.0242085
0.0252749
0.0262049
0.0269954
0.0276558
0.028211
0.0286952
0.029127
0.0294779
0.0296457
0.0294501
0.0286708
0.0272172
0.0252673
0.0232098
0.0214221
0.0201227
0.01939
0.0191559
0.0193084
0.0197134
0.0202581
0.0207979
0.0212509
0.0215207
0.0215836
0.0213908
0.0209577
0.0226924
0.0238422
0.0248814
0.0258
0.0265957
0.0272756
0.0278584
0.0283675
0.0288126
0.0291641
0.0293335
0.0291737
0.0285145
0.0272915
0.0256421
0.0238695
0.0222802
0.0210515
0.0202891
0.0199552
0.0199666
0.0202136
0.0206006
0.0210005
0.0213362
0.0215159
0.0215177
0.0212977
0.020874
0.0223522
0.0234619
0.0244734
0.0253778
0.0261731
0.0268642
0.0274639
0.0279876
0.0284374
0.0287843
0.0289527
0.0288241
0.0282683
0.0272399
0.0258451
0.0243219
0.0229228
0.0217717
0.0210064
0.0206059
0.0205091
0.0206275
0.0208815
0.0211601
0.0213935
0.0214955
0.0214467
0.0212063
0.020796
0.0220001
0.023071
0.0240545
0.0249424
0.0257325
0.0264276
0.0270359
0.027566
0.0280151
0.0283551
0.0285223
0.0284223
0.027956
0.0270923
0.0259131
0.0246061
0.023391
0.0223143
0.0215666
0.0211256
0.0209479
0.0209634
0.0211063
0.0212811
0.0214259
0.0214615
0.0213713
0.0211166
0.0207225
0.021639
0.0226725
0.0236276
0.0244973
0.0252784
0.0259717
0.026582
0.0271127
0.0275574
0.0278901
0.0280572
0.0279843
0.0275963
0.026872
0.0258745
0.0247513
0.0237202
0.0227045
0.0219915
0.0215308
0.0212945
0.0212288
0.0212803
0.0213673
0.0214365
0.0214159
0.0212921
0.0210281
0.0206515
0.0212717
0.0222691
0.023196
0.0240458
0.0248147
0.0255019
0.0261092
0.0266363
0.0270747
0.0274005
0.0275691
0.0275222
0.0272029
0.0265974
0.0257533
0.0247765
0.0237255
0.0229597
0.0223009
0.0218362
0.0215597
0.0214312
0.0214085
0.0214223
0.0214276
0.0213599
0.0212091
0.0209397
0.0205809
0.0209008
0.0218635
0.0227623
0.0235909
0.0243451
0.0250228
0.0256236
0.0261444
0.0265754
0.0268953
0.027067
0.0270451
0.0267866
0.026283
0.0255708
0.0247322
0.0238488
0.0231273
0.0225143
0.0220558
0.0217533
0.0215776
0.0214957
0.0214493
0.0214014
0.0212948
0.0211225
0.0208506
0.020509
0.0205284
0.0214577
0.0223288
0.0231354
0.0238732
0.0245391
0.0251307
0.0256433
0.0260667
0.0263817
0.0265579
0.0265601
0.0263558
0.0259404
0.0253421
0.0246275
0.0238763
0.0232151
0.0226466
0.0222014
0.0218844
0.0216744
0.0215462
0.0214513
0.0213599
0.0212215
0.0210322
0.0207598
0.0204347
0.0201565
0.0210538
0.0218976
0.0226818
0.023402
0.0240543
0.0246351
0.0251385
0.0255543
0.0258657
0.0260476
0.0260727
0.0259168
0.0255778
0.0250784
0.0244728
0.0238289
0.0232335
0.0227102
0.0222837
0.0219612
0.0217275
0.0215642
0.021431
0.0213045
0.0211407
0.0209381
0.0206668
0.0203572
0.0197868
0.0206534
0.0214705
0.0222324
0.0229343
0.0235719
0.0241407
0.0246343
0.0250429
0.0253516
0.0255401
0.0255871
0.0254745
0.0252021
0.0247885
0.0242779
0.0237243
0.0231941
0.0227161
0.0223121
0.021991
0.0217425
0.0215535
0.0213909
0.0212367
0.0210529
0.0208401
0.0205706
0.0202767
0.019421
0.0202582
0.0210493
0.0217889
0.0224723
0.0230946
0.0236509
0.0241346
0.0245363
0.0248433
0.0250389
0.0251065
0.0250327
0.0248185
0.0244792
0.0240508
0.0235765
0.0231077
0.0226738
0.0222948
0.0219805
0.0217243
0.0215175
0.0213331
0.0211577
0.0209587
0.0207383
0.0204705
0.0201944
0.0190603
0.0198694
0.0206355
0.0213532
0.0220179
0.0226246
0.0231682
0.0236421
0.0240375
0.0243435
0.0245463
0.0246333
0.0245943
0.0244311
0.0241564
0.0237992
0.0233948
0.0229832
0.0225916
0.022239
0.0219356
0.0216775
0.0214595
0.0212597
0.0210688
0.0208587
0.0206327
0.0203651
0.0200691
0.0187062
0.0194884
0.0202302
0.0209265
0.0215728
0.022164
0.0226949
0.0231592
0.0235488
0.0238543
0.0240645
0.0241694
0.0241615
0.0240432
0.0238248
0.0235298
0.0231867
0.0228275
0.0224764
0.0221509
0.0218614
0.021606
0.0213823
0.0211726
0.0209709
0.0207533
0.0205239
0.0202592
0.0199781
0.0183596
0.0191161
0.0198345
0.0205101
0.0211382
0.0217142
0.0222327
0.0226877
0.0230721
0.0233775
0.0235948
0.0237162
0.0237363
0.0236573
0.023488
0.0232474
0.0229586
0.0226472
0.0223344
0.0220362
0.0217627
0.0215136
0.0212885
0.0210736
0.0208652
0.0206432
0.0204122
0.0201516
0.0198809
0.0180214
0.0187534
0.0194494
0.0201049
0.0207154
0.0212765
0.021783
0.0222291
0.0226085
0.0229141
0.0231382