/*--------------------------------*- C++ -*----------------------------------*\
  =========                 |
  \\      /  F ield         | OpenFOAM: The Open Source CFD Toolbox
   \\    /   O peration     | Website:  https://openfoam.org
    \\  /    A nd           | Version:  7
     \\/     M anipulation  |
\*---------------------------------------------------------------------------*/
FoamFile
{
    version     2.0;
    format      ascii;
    class       surfaceScalarField;
    location    "180";
    object      phi;
}
// * * * * * * * * * * * * * * * * * * * * * * * * * * * * * * * * * * * * * //

dimensions      [0 3 -1 0 0 0 0];

internalField   nonuniform List<scalar> 
14031
(
0.00110474
-0.00647122
0.00649485
0.00110702
-0.00414982
0.00414754
0.0011337
-0.00121465
0.00118797
0.00117773
0.00177732
-0.00182135
0.00122793
0.00433246
-0.00438266
0.0012736
0.00619513
-0.0062408
0.00130902
0.00734721
-0.00738263
0.0013321
0.00792064
-0.00794372
0.00134013
0.00816505
-0.00817308
0.00132985
0.00838603
-0.00837575
0.0013013
0.00873989
-0.00871134
0.00125999
0.00904756
-0.00900624
0.00121517
0.00886273
-0.00881791
0.00117614
0.00776764
-0.00772862
0.00115007
0.00564509
-0.00561901
0.0011417
0.00273955
-0.00273117
0.00115274
-0.000459822
0.000448781
0.00118036
-0.00340212
0.00337449
0.00121629
-0.00568703
0.00565111
0.00124826
-0.00722306
0.00719108
0.00126468
-0.00821581
0.00819939
0.00125983
-0.00891922
0.00892406
0.00123543
-0.00939083
0.00941524
0.00119886
-0.00942277
0.00945934
0.00116053
-0.00871196
0.0087503
0.0011306
-0.00705158
0.00708151
0.00111638
-0.00449193
0.00450614
0.00112108
-0.0013581
0.00135341
0.00185623
-0.00187724
0.001094
-0.00644864
0.00109843
-0.00415424
0.00112792
-0.00124415
0.00117482
0.00173042
0.00122758
0.0042797
0.00127542
0.00614729
0.00131264
0.00730999
0.00133713
0.00789615
0.00134628
0.0081559
0.00133703
0.00839528
0.00130949
0.00876743
0.00126893
0.00908811
0.00122423
0.00890743
0.00118441
0.00780747
0.00115661
0.00567288
0.00114592
0.00275024
0.00115446
-0.000468357
0.00117978
-0.00342744
0.00121387
-0.00572112
0.00124453
-0.00725372
0.00126
-0.00823128
0.00125442
-0.00891364
0.00122951
-0.00936592
0.00119282
-0.00938608
0.0011549
-0.00867404
0.00112602
-0.0070227
0.0011134
-0.00447931
0.00111993
-0.00136463
0.00183354
0.00108331
-0.00642705
0.00108981
-0.00416074
0.00112203
-0.00127636
0.00117174
0.0016807
0.00122703
0.00422441
0.00127703
0.00609729
0.00131605
0.00727098
0.00134197
0.00787023
0.00135228
0.00814559
0.00134412
0.00840344
0.00131764
0.00879392
0.00127788
0.00912787
0.00123333
0.00895199
0.00119269
0.0078481
0.00116317
0.00570241
0.00115013
0.00276328
0.00115612
-0.000474352
0.00117911
-0.00345043
0.00121134
-0.00575335
0.00124069
-0.00728308
0.00125525
-0.00824584
0.00124897
-0.00890736
0.0012236
-0.00934055
0.00118681
-0.0093493
0.00114932
-0.00863654
0.00112148
-0.00699486
0.00111043
-0.00446826
0.00111875
-0.00137295
0.00180921
0.00107268
-0.00640638
0.00108117
-0.00416923
0.00111602
-0.00131122
0.00116848
0.00162824
0.00122627
0.00416662
0.00127842
0.00604514
0.00131924
0.00723015
0.00134662
0.00784285
0.00135813
0.00813408
0.00135111
0.00841045
0.00132574
0.00881929
0.00128683
0.00916678
0.00124244
0.00899638
0.001201
0.00788954
0.00116973
0.00573368
0.0011543
0.0027787
0.00115773
-0.000477774
0.00117834
-0.00347104
0.00120869
-0.0057837
0.00123674
-0.00731113
0.00125041
-0.0082595
0.00124347
-0.00890042
0.00121768
-0.00931476
0.00118083
-0.00931245
0.00114377
-0.00859949
0.00111696
-0.00696805
0.00110746
-0.00445876
0.00111755
-0.00138304
0.00178325
0.00106211
-0.00638658
0.0010725
-0.00417962
0.00110991
-0.00134863
0.00116504
0.00157311
0.00122528
0.00410638
0.00127958
0.00599085
0.00132221
0.00718751
0.00135106
0.007814
0.00136381
0.00812132
0.00135799
0.00841628
0.0013338
0.00884348
0.00129578
0.0092048
0.00125158
0.00904057
0.00120933
0.00793179
0.00117629
0.00576673
0.00115846
0.00279653
0.00115928
-0.000478591
0.00117749
-0.00348926
0.00120595
-0.00581215
0.00123269
-0.00733788
0.0012455
-0.00827231
0.00123794
-0.00889287
0.00121177
-0.00928858
0.00117488
-0.00927556
0.00113827
-0.00856287
0.00111247
-0.00694226
0.00110449
-0.00445077
0.00111632
-0.00139488
0.0017557
0.00105159
-0.00636756
0.0010638
-0.00419182
0.00110367
-0.0013885
0.00116142
0.00151536
0.00122408
0.00404372
0.0012805
0.00593443
0.00132496
0.00714306
0.0013553
0.00778366
0.00136933
0.00810729
0.00136475
0.00842085
0.00134179
0.00886645
0.0013047
0.00924188
0.00126072
0.00908456
0.00121768
0.00797483
0.00118286
0.00580155
0.0011626
0.00281679
0.00116078
-0.000476772
0.00117657
-0.00350505
0.0012031
-0.00583868
0.00122854
-0.00736331
0.00124051
-0.00828428
0.00123238
-0.00888474
0.00120585
-0.00926205
0.00116896
-0.00923867
0.0011328
-0.00852671
0.00110801
-0.00691747
0.00110151
-0.00444427
0.00111504
-0.00140841
0.00172659
0.00104114
-0.00634927
0.00105507
-0.00420575
0.00109732
-0.00143075
0.0011576
0.00145508
0.00122264
0.00397868
0.00128119
0.00587588
0.00132747
0.00709677
0.00135932
0.00775181
0.00137466
0.00809195
0.00137139
0.00842413
0.00134971
0.00888812
0.00131361
0.00927799
0.00126987
0.00912829
0.00122604
0.00801865
0.00118943
0.00583816
0.00116672
0.0028395
0.00116224
-0.000472289
0.00117557
-0.00351837
0.00120016
-0.00586327
0.00122428
-0.00738744
0.00123544
-0.00829544
0.00122678
-0.00887608
0.00119994
-0.00923521
0.00116307
-0.00920179
0.00112737
-0.00849101
0.00110357
-0.00689366
0.00109852
-0.00443923
0.00111373
-0.00142361
0.00169592
0.00103076
-0.00633163
0.0010463
-0.00422129
0.00109084
-0.00147528
0.00115359
0.00139232
0.00122097
0.0039113
0.00128162
0.00581523
0.00132974
0.00704866
0.00136312
0.00771843
0.00137981
0.00807526
0.00137789
0.00842606
0.00135755
0.00890846
0.00132248
0.00931306
0.00127902
0.00917175
0.00123441
0.00806326
0.00119601
0.00587656
0.00117083
0.00286468
0.00116366
-0.000465115
0.0011745
-0.00352922
0.00119712
-0.00588589
0.00121994
-0.00741026
0.00123031
-0.00830581
0.00122115
-0.00886692
0.00119404
-0.0092081
0.00115721
-0.00916496
0.00112198
-0.00845578
0.00109914
-0.00687083
0.00109553
-0.00443562
0.00111237
-0.00144045
0.00166375
0.00102044
-0.00631457
0.0010375
-0.00423836
0.00108422
-0.001522
0.00114937
0.00132717
0.00121906
0.00384162
0.00128181
0.00575248
0.00133175
0.00699871
0.00136669
0.0076835
0.00138477
0.00805717
0.00138424
0.00842658
0.0013653
0.00892741
0.00133131
0.00934705
0.00128816
0.0092149
0.00124279
0.00810862
0.0012026
0.00591675
0.00117492
0.00289236
0.00116503
-0.000455223
0.00117336
-0.00353755
0.001194
-0.00590653
0.0012155
-0.00743176
0.00122511
-0.00831542
0.00121549
-0.0088573
0.00118814
-0.00918076
0.00115138
-0.00912819
0.00111662
-0.00842103
0.00109474
-0.00684895
0.00109252
-0.0044334
0.00111095
-0.00145888
0.00163008
0.00101018
-0.00629799
0.00102867
-0.00425684
0.00107747
-0.00157081
0.00114495
0.00125969
0.0012169
0.00376967
0.00128173
0.00568765
0.00133352
0.00694693
0.00137002
0.00764699
0.00138952
0.00803767
0.00139044
0.00842566
0.00137295
0.0089449
0.00134008
0.00937991
0.00129728
0.0092577
0.00125117
0.00815473
0.00120918
0.00595874
0.001179
0.00292253
0.00116637
-0.000442591
0.00117217
-0.00354335
0.0011908
-0.00592516
0.00121098
-0.00745194
0.00121985
-0.00832428
0.0012098
-0.00884726
0.00118225
-0.0091532
0.00114557
-0.00909151
0.00111129
-0.00838674
0.00109035
-0.006828
0.00108949
-0.00443254
0.00110948
-0.00147888
0.00159495
0.000999997
-0.00628184
0.00101979
-0.00427664
0.00107059
-0.00162161
0.00114031
0.00118997
0.00121449
0.0036955
0.00128139
0.00562075
0.00133501
0.0068933
0.0013731
0.00760891
0.00139406
0.00801671
0.00139648
0.00842324
0.00138049
0.00896089
0.0013488
0.0094116
0.00130638
0.00930013
0.00125955
0.00820156
0.00121577
0.00600252
0.00118307
0.00295523
0.00116768
-0.000427197
0.00117091
-0.00354658
0.00118751
-0.00594176
0.00120637
-0.0074708
0.00121452
-0.00833243
0.00120409
-0.00883683
0.00117637
-0.00912548
0.0011398
-0.00905494
0.001106
-0.00835294
0.00108597
-0.00680797
0.00108643
-0.004433
0.00110796
-0.00150041
0.00155837
0.00098988
-0.00626602
0.00101087
-0.00429763
0.00106355
-0.00167429
0.00113546
0.00111806
0.00121181
0.00361914
0.00128077
0.00555179
0.00133624
0.00683784
0.00137593
0.00756922
0.00139838
0.00799426
0.00140234
0.00841928
0.00138791
0.00897533
0.00135744
0.00944207
0.00131544
0.00934213
0.00126792
0.00824908
0.00122236
0.00604808
0.00118713
0.00299046
0.00116895
-0.000409019
0.0011696
-0.00354723
0.00118416
-0.00595632
0.00120168
-0.00748833
0.00120912
-0.00833987
0.00119835
-0.00882605
0.00117049
-0.00909762
0.00113405
-0.00901851
0.00110073
-0.00831963
0.0010816
-0.00678884
0.00108335
-0.00443475
0.00110636
-0.00152342
0.00152039
0.000979833
-0.00625046
0.00100191
-0.0043197
0.00105637
-0.00172875
0.00113038
0.00104406
0.00120887
0.00354065
0.00127987
0.00548079
0.00133719
0.00678052
0.0013785
0.00752791
0.00140247
0.00797028
0.00140802
0.00841373
0.00139519
0.00898816
0.001366
0.00947126
0.00132446
0.00938367
0.00127627
0.00829727
0.00122894
0.00609542
0.00119118
0.00302822
0.0011702
-0.00038804
0.00116824
-0.00354527
0.00118073
-0.0059688
0.00119691
-0.00750452
0.00120367
-0.00834663
0.00119258
-0.00881496
0.00116461
-0.00906965
0.00112833
-0.00898222
0.0010955
-0.0082868
0.00107724
-0.00677058
0.00108024
-0.00443775
0.0011047
-0.00154789
0.00148101
0.000969856
-0.00623508
0.000992907
-0.00434276
0.00104904
-0.00178489
0.00112507
0.000968033
0.00120566
0.00346005
0.00127869
0.00540776
0.00133785
0.00672137
0.00138079
0.00748497
0.00140632
0.00794475
0.0014135
0.00840654
0.00140233
0.00899933
0.00137447
0.00949912
0.00133344
0.00942471
0.00128461
0.0083461
0.00123551
0.00614451
0.00119521
0.00306852
0.00117141
-0.000364244
0.00116683
-0.00354069
0.00117723
-0.0059792
0.00119207
-0.00751936
0.00119815
-0.00835271
0.00118678
-0.00880359
0.00115874
-0.00904161
0.00112263
-0.0089461
0.00109029
-0.00825446
0.00107288
-0.00675317
0.00107709
-0.00444197
0.00110297
-0.00157376
0.00144027
0.000959951
-0.00621979
0.000983857
-0.00436666
0.00104156
-0.00184259
0.00111953
0.000890061
0.00120218
0.0033774
0.00127721
0.00533273
0.00133821
0.00666037
0.00138281
0.00744038
0.00140992
0.00791764
0.00141878
0.00839768
0.00140932
0.00900879
0.00138283
0.0095256
0.00134235
0.00946519
0.00129292
0.00839553
0.00124208
0.00619535
0.00119923
0.00311137
0.00117261
-0.000337614
0.00116537
-0.00353346
0.00117367
-0.00598749
0.00118715
-0.00753284
0.00119258
-0.00835814
0.00118096
-0.00879197
0.00115288
-0.00901353
0.00111695
-0.00891018
0.00108509
-0.0082226
0.00106852
-0.00673659
0.00107391
-0.00444736
0.00110116
-0.00160102
0.00139819
0.000950117
-0.00620452
0.00097476
-0.0043913
0.00103391
-0.00190174
0.00111375
0.000810224
0.00119841
0.00329274
0.00127543
0.0052557
0.00133828
0.00659752
0.00138454
0.00739412
0.00141326
0.00788892
0.00142384
0.00838711
0.00141613
0.0090165
0.00139107
0.00955066
0.00135119
0.00950507
0.0013012
0.00844552
0.00124864
0.0062479
0.00120325
0.00315676
0.00117377
-0.000308139
0.00116388
-0.00352356
0.00117004
-0.00599366
0.00118216
-0.00754495
0.00118694
-0.00836293
0.00117511
-0.00878014
0.00114702
-0.00898544
0.00111129
-0.00887445
0.00107992
-0.00819124
0.00106416
-0.00672082
0.00107068
-0.00445388
0.00109927
-0.0016296
0.00135479
0.000940356
-0.00618919
0.000965617
-0.00441657
0.00102611
-0.00196224
0.00110773
0.000728602
0.00119436
0.00320612
0.00127335
0.00517671
0.00133804
0.00653283
0.00138597
0.00734619
0.00141633
0.00785856
0.00142866
0.00837478
0.00142276
0.0090224
0.00139919
0.00957423
0.00135995
0.0095443
0.00130944
0.00849604
0.00125518
0.00630216
0.00120725
0.0032047
0.00117492
-0.000275807
0.00116234
-0.00351098
0.00116636
-0.00599767
0.00117709
-0.00755569
0.00118124
-0.00836708
0.00116923
-0.00876813
0.00114116
-0.00895736
0.00110565
-0.00883894
0.00107477
-0.00816036
0.00105979
-0.00670584
0.00106741
-0.0044615
0.00109729
-0.00165948
0.0013101
0.000930668
-0.00617372
0.000956427
-0.00444232
0.00101814
-0.00202395
0.00110147
0.000645279
0.00119001
0.00311757
0.00127095
0.00509577
0.00133748
0.00646631
0.0013871
0.00729657
0.00141913
0.00782653
0.00143325
0.00836066
0.0014292
0.00902645
0.00140716
0.00959628
0.00136863
0.00958283
0.00131763
0.00854703
0.0012617
0.00635809
0.00121124
0.00325516
0.00117604
-0.000240609
0.00116076
-0.00349571
0.00116262
-0.00599953
0.00117196
-0.00756503
0.00117549
-0.0083706
0.00116332
-0.00875596
0.0011353
-0.00892934
0.00110002
-0.00880366
0.00106963
-0.00812997
0.00105541
-0.00669163
0.00106409
-0.00447018
0.00109522
-0.00169062
0.00126415
0.000921054
-0.00615805
0.00094719
-0.00446846
0.00101001
-0.00208678
0.00109495
0.000560339
0.00118537
0.00302716
0.00126824
0.00501289
0.0013366
0.00639794
0.00138792
0.00724525
0.00142163
0.00779282
0.00143758
0.00834471
0.00143543
0.0090286
0.00141497
0.00961673
0.0013772
0.00962061
0.00132578
0.00859845
0.00126821
0.00641566
0.00121521
0.00330816
0.00117714
-0.000202538
0.00115915
-0.00347772
0.00115883
-0.0059992
0.00116677
-0.00757297
0.00116968
-0.00837351
0.00115739
-0.00874367
0.00112944
-0.00890139
0.0010944
-0.00876863
0.00106449
-0.00810006
0.00105102
-0.00667816
0.00106072
-0.00447987
0.00109306
-0.00172297
0.00121697
0.000911513
-0.0061421
0.000937907
-0.00449485
0.00100172
-0.00215059
0.00108819
0.000473867
0.00118042
0.00293492
0.0012652
0.00492812
0.00133539
0.00632775
0.00138842
0.00719222
0.00142384
0.00775739
0.00144165
0.0083269
0.00144144
0.00902881
0.00142262
0.00963555
0.00138566
0.00965756
0.00133386
0.00865026
0.00127468
0.00647484
0.00121917
0.00336367
0.00117822
-0.00016159
0.00115751
-0.00345701
0.00115499
-0.00599668
0.00116151
-0.00757949
0.0011638
-0.00837581
0.00115142
-0.00873129
0.00112358
-0.00887354
0.0010888
-0.00873385
0.00105937
-0.00807063
0.00104662
-0.00666541
0.00105729
-0.00449054
0.00109081
-0.00175649
0.00116856
0.000902048
-0.0061258
0.000928579
-0.00452139
0.000993254
-0.00221526
0.00108117
0.000385952
0.00117517
0.00284092
0.00126183
0.00484146
0.00133385
0.00625574
0.00138859
0.00713748
0.00142574
0.00772024
0.00144544
0.00830721
0.00144721
0.00902704
0.00143008
0.00965268
0.001394
0.00969365
0.00134187
0.00870238
0.00128112
0.00653559
0.00122311
0.00342168
0.00117928
-0.000117761
0.00115584
-0.00343357
0.0011511
-0.00599194
0.00115618
-0.00758457
0.00115787
-0.0083775
0.00114542
-0.00871884
0.00111771
-0.00884583
0.0010832
-0.00869935
0.00105424
-0.00804167
0.00104219
-0.00665336
0.0010538
-0.00450215
0.00108845
-0.00179114
0.00111897
0.000892657
-0.00610909
0.000919208
-0.00454794
0.000984624
-0.00228068
0.00107389
0.000296684
0.00116962
0.00274519
0.00125813
0.00475294
0.00133196
0.0061819
0.00138843
0.00708101
0.00142733
0.00768134
0.00144895
0.00828559
0.00145274
0.00902325
0.00143736
0.00966807
0.0014022
0.0097288
0.00134981
0.00875477
0.00128753
0.00659787
0.00122703
0.00348217
0.00118032
-7.10499e-05
0.00115413
-0.00340737
0.00114716
-0.00598497
0.0011508
-0.00758821
0.00115188
-0.00837858
0.00113938
-0.00870634
0.00111183
-0.00881829
0.00107761
-0.00866512
0.00104912
-0.00801318
0.00103775
-0.00664199
0.00105025
-0.00451465
0.00108599
-0.00182688
0.00106822
0.000883342
-0.0060919
0.000909797
-0.00457439
0.000975829
-0.00234671
0.00106636
0.000206156
0.00116374
0.00264781
0.00125409
0.0046626
0.00132973
0.00610626
0.00138792
0.00702282
0.00142859
0.00764068
0.00145215
0.00826202
0.00145801
0.00901739
0.00144442
0.00968166
0.00141026
0.00976296
0.00135766
0.00880737
0.00129389
0.00666164
0.00123093
0.00354513
0.00118134
-2.14592e-05
0.00115239
-0.00337842
0.00114318
-0.00597576
0.00114536
-0.00759039
0.00114583
-0.00837905
0.00113331
-0.00869382
0.00110595
-0.00879093
0.00107201
-0.00863118
0.00104399
-0.00798516
0.00103328
-0.00663127
0.00104664
-0.00452801
0.00108342
-0.00186366
0.00101634
0.000874101
-0.0060742
0.000900347
-0.00460064
0.00096687
-0.00241323
0.00105856
0.000114463
0.00115756
0.00254881
0.00124971
0.00457045
0.00132715
0.00602882
0.00138707
0.00696289
0.00142951
0.00759824
0.00145504
0.00823649
0.001463
0.00900943
0.00145126
0.0096934
0.00141816
0.00979606
0.00136541
0.00886011
0.00130021
0.00672685
0.00123481
0.00361053
0.00118235
3.10079e-05
0.00115063
-0.00334671
0.00113916
-0.00596429
0.00113986
-0.00759108
0.00113972
-0.00837891
0.0011272
-0.0086813
0.00110006
-0.0087638
0.00106642
-0.00859754
0.00103885
-0.00795759
0.00102878
-0.0066212
0.00104296
-0.00454218
0.00108074
-0.00190145
0.000963345
0.000864934
-0.00605591
0.000890861
-0.00462656
0.000957749
-0.00248012
0.00105051
2.17018e-05
0.00115105
0.00244827
0.00124497
0.00447653
0.0013242
0.00594959
0.00138586
0.00690124
0.00143009
0.00755402
0.00145761
0.00820896
0.00146771
0.00899934
0.00145786
0.00970325
0.00142588
0.00982804
0.00137307
0.00891293
0.00130647
0.00679344
0.00123866
0.00367834
0.00118333
8.63454e-05
0.00114884
-0.00331223
0.0011351
-0.00595054
0.0011343
-0.00759029
0.00113354
-0.00837815
0.00112104
-0.0086688
0.00109415
-0.00873691
0.00106083
-0.00856422
0.00103371
-0.00793047
0.00102424
-0.00661174
0.0010392
-0.00455715
0.00107795
-0.0019402
0.000909274
0.000855842
-0.006037
0.000881343
-0.00465206
0.000948469
-0.00254725
0.0010422
-7.20262e-05
0.00114423
0.00234624
0.00123989
0.00438087
0.00132089
0.00586859
0.00138428
0.00683784
0.00143031
0.00750799
0.00145985
0.00817942
0.00147211
0.00898708
0.00146421
0.00971115
0.00143343
0.00985883
0.0013806
0.00896576
0.00131268
0.00686137
0.00124249
0.00374853
0.00118428
0.000144548
0.00114703
-0.00327497
0.00113099
-0.00593451
0.00112869
-0.00758798
0.00112731
-0.00837678
0.00111485
-0.00865633
0.00108823
-0.00871029
0.00105522
-0.00853121
0.00102854
-0.00790379
0.00101967
-0.00660287
0.00103538
-0.00457285
0.00107505
-0.00197987
0.000854153
0.000846822
-0.00601742
0.000871796
-0.00467704
0.000939038
-0.00261449
0.00103362
-0.000166611
0.00113708
0.00224278
0.00123445
0.0042835
0.00131721
0.00578583
0.00138234
0.00677272
0.00143017
0.00746015
0.00146174
0.00814785
0.0014762
0.00897262
0.0014703
0.00971704
0.00144078
0.00988836
0.00138802
0.00901852
0.00131882
0.00693057
0.00124628
0.00382107
0.00118522
0.000205602
0.00114518
-0.00323493
0.00112685
-0.00591618
0.00112302
-0.00758414
0.00112102
-0.00837478
0.00110861
-0.00864392
0.00108229
-0.00868397
0.00104961
-0.00849853
0.00102336
-0.00787754
0.00101506
-0.00659457
0.00103148
-0.00458927
0.00107203
-0.00202041
0.00079801
0.000837874
-0.00599713
0.000862223
-0.00470139
0.000929451
-0.00268172
0.00102479
-0.000261954
0.00112961
0.00213797
0.00122865
0.00418446
0.00131316
0.00570132
0.00138001
0.00670586
0.00142966
0.00741051
0.00146327
0.00811424
0.00147996
0.00895593
0.00147612
0.00972089
0.00144792
0.00991656
0.00139529
0.00907114
0.00132488
0.00700098
0.00125003
0.00389592
0.00118614
0.000269495
0.00114332
-0.00319211
0.00112268
-0.00589554
0.0011173
-0.00757876
0.00111466
-0.00837215
0.00110232
-0.00863157
0.00107633
-0.00865798
0.00104399
-0.0084662
0.00101815
-0.0078517
0.00101041
-0.00658683
0.0010275
-0.00460636
0.00106889
-0.00206179
0.000740876
0.000828996
-0.0059761
0.000852628
-0.00472502
0.000919721
-0.00274881
0.00101571
-0.000357943
0.00112181
0.00203187
0.00122249
0.00408379
0.00130873
0.00561508
0.00137731
0.00663728
0.00142877
0.00735905
0.00146444
0.00807857
0.00148338
0.00893698
0.00148164
0.00972263
0.00145483
0.00994336
0.00140243
0.00912354
0.00133087
0.00707254
0.00125374
0.00397304
0.00118703
0.000336211
0.00114143
-0.00314651
0.00111847
-0.00587258
0.00111152
-0.00757182
0.00110825
-0.00836887
0.00109598
-0.0086193
0.00107034
-0.00863234
0.00103835
-0.00843421
0.00101292
-0.00782627
0.00100571
-0.00657962
0.00102345
-0.0046241
0.00106562
-0.00210397
0.000682782
0.000820187
-0.00595428
0.000843013
-0.00474785
0.000909846
-0.00281564
0.00100638
-0.000454473
0.00111369
0.00192455
0.00121596
0.00398152
0.00130391
0.00552713
0.00137422
0.00656697
0.0014275
0.00730577
0.00146523
0.00804084
0.00148645
0.00891576
0.00148685
0.00972223
0.00146151
0.0099687
0.00140941
0.00917565
0.00133677
0.00714518
0.00125742
0.0040524
0.00118789
0.000405732
0.00113951
-0.00309813
0.00111422
-0.00584728
0.0011057
-0.0075633
0.00110177
-0.00836494
0.00108959
-0.00860712
0.00106432
-0.00860707
0.0010327
-0.00840259
0.00100766
-0.00780123
0.00100096
-0.00657291
0.00101931
-0.00464245
0.00106224
-0.0021469
0.000623759
0.000811445
-0.00593167
0.000833382
-0.00476978
0.000899836
-0.0028821
0.000996795
-0.000551431
0.00110525
0.0018161
0.00120908
0.00387769
0.00129872
0.00543749
0.00137073
0.00649496
0.00142583
0.00725067
0.00146563
0.00800103
0.00148915
0.00889223
0.00149175
0.00971964
0.00146795
0.0099925
0.00141622
0.00922738
0.00134257
0.00721882
0.00126104
0.00413393
0.00118874
0.000478037
0.00113757
-0.00304697
0.00110994
-0.00581965
0.00109983
-0.00755319
0.00109522
-0.00836034
0.00108314
-0.00859504
0.00105828
-0.00858221
0.00102703
-0.00837135
0.00100237
-0.00777658
0.000996154
-0.00656669
0.00101508
-0.00466138
0.00105873
-0.00219054
0.000563839
0.000802767
0.000823738
-0.00479075
0.000889702
-0.00294806
0.000986974
-0.000648704
0.00109649
0.00170658
0.00120182
0.00377236
0.00129313
0.00534618
0.00136685
0.00642124
0.00142376
0.00719376
0.00146563
0.00795916
0.00149148
0.00886639
0.00149631
0.00971481
0.00147412
0.0100147
0.00142286
0.00927864
0.00134828
0.0072934
0.00126462
0.00421759
0.00118955
0.000553104
0.00113561
-0.00299303
0.00110563
-0.00578966
0.0010939
-0.00754146
0.00108862
-0.00835506
0.00107664
-0.00858306
0.0010522
-0.00855776
0.00102134
-0.00834049
0.000997047
-0.00775229
0.000991289
-0.00656094
0.00101077
-0.00468087
0.00105509
-0.00223485
0.000503055
0.000814081
-0.00481068
0.000879447
-0.00301343
0.00097692
-0.000746178
0.00108741
0.00159609
0.00119421
0.00366557
0.00128716
0.00525323
0.00136257
0.00634583
0.00142128
0.00713505
0.00146523
0.00791521
0.00149341
0.00883821
0.00150052
0.0097077
0.00148002
0.0100352
0.00142931
0.00932936
0.00135387
0.00736883
0.00126814
0.00430333
0.00119034
0.000630905
0.00113362
-0.00293632
0.00110128
-0.00575732
0.00108793
-0.00752811
0.00108195
-0.00834908
0.00107007
-0.00857118
0.00104608
-0.00853377
0.00101562
-0.00831003
0.000991684
-0.00772835
0.000986364
-0.00655562
0.00100637
-0.00470087
0.00105133
-0.00227981
0.00044144
0.000804415
-0.0048295
0.00086908
-0.00307809
0.00096664
-0.000843738
0.00107802
0.00148471
0.00118622
0.00355737
0.00128079
0.00515866
0.00135788
0.00626874
0.00141839
0.00707453
0.00146442
0.00786918
0.00149495
0.00880768
0.00150438
0.00969827
0.00148563
0.0100539
0.00143555
0.00937943
0.00135935
0.00744504
0.0012716
0.00439109
0.00119109
0.000711412
0.00113161
-0.00287684
0.0010969
-0.00572261
0.0010819
-0.00751311
0.00107521
-0.00834239
0.00106345
-0.00855942
0.00103992
-0.00851024
0.00100988
-0.00827999
0.000986282
-0.00770476
0.000981373
-0.00655071
0.00100188
-0.00472138
0.00104744
-0.00232537
0.000379028
0.00079474
-0.00484715
0.000858608
-0.00314196
0.000956143
-0.000941273
0.00106832
0.00137253
0.00117788
0.00344781
0.00127403
0.0050625
0.00135278
0.00618999
0.00141508
0.00701223
0.00146318
0.00782109
0.00149607
0.00877479
0.00150786
0.00968648
0.00149094
0.0100709
0.00144159
0.00942877
0.00136471
0.00752192
0.001275
0.00448079
0.00119182
0.000794593
0.00112957
-0.0028146
0.00109249
-0.00568552
0.00107583
-0.00749645
0.00106841
-0.00833497
0.00105676
-0.00854776
0.00103372
-0.0084872
0.0010041
-0.00825037
0.000980837
-0.00768149
0.000976314
-0.00654619
0.000997294
-0.00474236
0.00104342
-0.0023715
0.000315852
0.000785057
-0.00486355
0.000848037
-0.00320494
0.000945438
-0.00103867
0.00105832
0.00125965
0.00116917
0.00333696
0.00126688
0.00496479
0.00134727
0.0061096
0.00141135
0.00694815
0.00146151
0.00777094
0.00149677
0.00873953
0.00151096
0.00967228
0.00149593
0.0100859
0.00144741
0.0094773
0.00136992
0.00759941
0.00127833
0.00457239
0.00119251
0.000880413
0.00112751
-0.0027496
0.00108805
-0.00564606
0.00106971
-0.00747812
0.00106155
-0.00832681
0.00105
-0.00853621
0.00102746
-0.00846466
0.000998298
-0.00822121
0.00097535
-0.00765854
0.000971184
-0.00654202
0.00099261
-0.00476379
0.00103928
-0.00241816
0.000251946
0.000775366
-0.00487866
0.000837373
-0.00326695
0.000934537
-0.00113584
0.00104803
0.00114616
0.00116011
0.00322488
0.00125934
0.00486556
0.00134136
0.00602758
0.0014072
0.00688231
0.0014594
0.00771874
0.00149703
0.0087019
0.00151366
0.00965566
0.0015006
0.0100989
0.00145299
0.00952491
0.001375
0.00767739
0.00128159
0.0046658
0.00119317
0.000968835
0.00112542
-0.00268186
0.00108357
-0.00560421
0.00106355
-0.00745809
0.00105462
-0.00831788
0.00104317
-0.00852477
0.00102116
-0.00844265
0.00099246
-0.00819251
0.000969816
-0.0076359
0.000965979
-0.00653818
0.000987827
-0.00478564
0.00103501
-0.00246534
0.000187342
0.000765666
-0.0048924
0.000826622
-0.0033279
0.000923451
-0.00123267
0.00103745
0.00103216
0.00115069
0.00311163
0.0012514
0.00476485
0.00133502
0.00594396
0.00140261
0.00681473
0.00145684
0.0076645
0.00149685
0.00866189
0.00151594
0.00963656
0.00150493
0.01011
0.00145833
0.00957151
0.00137993
0.00775579
0.00128477
0.00476096
0.00119379
0.00105982
0.00112331
-0.00261138
0.00107907
-0.00555997
0.00105733
-0.00743635
0.00104762
-0.00830817
0.00103628
-0.00851343
0.0010148
-0.00842118
0.000986583
-0.00816428
0.000964237
-0.00761356
0.000960697
-0.00653464
0.00098294
-0.00480788
0.00103061
-0.00251301
0.000122072
0.000755959
-0.00490473
0.000815788
-0.00338773
0.000912191
-0.00132907
0.0010266
0.000917752
0.00114093
0.0029973
0.00124308
0.0046627
0.00132828
0.00585877
0.00139758
0.00674542
0.00145384
0.00760825
0.00149622
0.00861951
0.00151781
0.00961497
0.0015089
0.0101189
0.0014634
0.00961701
0.0013847
0.0078345
0.00128788
0.00485777
0.00119438
0.00115332
0.00112117
-0.00253817
0.00107453
-0.00551332
0.00105107
-0.00741289
0.00104056
-0.00829766
0.0010293
-0.00850217
0.00100839
-0.00840026
0.000980668
-0.00813656
0.000958609
-0.0075915
0.000955336
-0.00653137
0.000977948
-0.00483049
0.00102608
-0.00256114
5.61654e-05
0.000746243
-0.00491558
0.000804874
-0.00344636
0.000900769
-0.00142496
0.00101549
0.000803028
0.00113084
0.00288195
0.00123438
0.00455917
0.00132112
0.00577203
0.00139213
0.00667441
0.00145038
0.00754999
0.00149512
0.00857477
0.00151924
0.00959085
0.00151251
0.0101256
0.00146821
0.0096613
0.0013893
0.00791341
0.00129091
0.00495617
0.00119493
0.00124929
0.00111901
-0.00246225
0.00106996
-0.00546427
0.00104476
-0.00738769
0.00103343
-0.00828632
0.00102226
-0.00849101
0.00100191
-0.00837991
0.000974709
-0.00810936
0.000952932
-0.00756972
0.000949894
-0.00652833
0.000972846
-0.00485344
0.00102142
-0.00260971
-1.03493e-05
0.000736519
-0.0049249
0.000793881
-0.00350372
0.000889197
-0.00152028
0.00100415
0.000688078
0.00112043
0.00276567
0.0012253
0.00445429
0.00131355
0.00568377
0.00138623
0.00660174
0.00144646
0.00748977
0.00149356
0.00852767
0.00152023
0.00956419
0.00151574
0.0101301
0.00147274
0.0097043
0.00139373
0.00799243
0.00129384
0.00505605
0.00119545
0.00134769
0.00111682
-0.00238362
0.00106536
-0.00541281
0.00103841
-0.00736074
0.00102623
-0.00827414
0.00101514
-0.00847991
0.00099537
-0.00836015
0.000968705
-0.0080827
0.000947205
-0.00754822
0.000944369
-0.00652549
0.000967634
-0.00487671
0.00101663
-0.0026587
-7.7448e-05
0.000726787
-0.00493263
0.000782809
-0.00355975
0.000877485
-0.00161496
0.000992579
0.000572984
0.00110971
0.00264854
0.00121586
0.00434814
0.00130559
0.00559405
0.0013799
0.00652742
0.00144208
0.00742759
0.00149152
0.00847822
0.00152076
0.00953495
0.00151858
0.0101323
0.00147698
0.0097459
0.00139797
0.00807143
0.0012967
0.00515732
0.00119593
0.00144845
0.00111461
-0.0023023
0.00106072
-0.00535893
0.00103201
-0.00733202
0.00101896
-0.0082611
0.00100793
-0.00846888
0.000988761
-0.00834097
0.000962653
-0.00805659
0.000941428
-0.00752699
0.000938761
-0.00652283
0.000962306
-0.00490025
0.00101171
-0.00270811
-0.00014511
0.000717047
-0.00493872
0.000771657
-0.00361436
0.000865641
-0.00170894
0.000980808
0.000457817
0.0010987
0.00253064
0.00120607
0.00424078
0.00129722
0.00550289
0.00137314
0.0064515
0.00143723
0.0073635
0.001489
0.00842645
0.00152083
0.00950313
0.00152102
0.0101321
0.00148091
0.00978601
0.00140203
0.00815032
0.00129946
0.00525989
0.00119638
0.00155154
0.00111237
-0.00221829
0.00105606
-0.00530262
0.00102556
-0.00730152
0.00101163
-0.00824718
0.00100065
-0.0084579
0.00098208
-0.0083224
0.000956549
-0.00803106
0.000935598
-0.00750604
0.000933069
-0.0065203
0.000956861
-0.00492405
0.00100666
-0.0027579
-0.000213319
0.000707304
-0.00494312
0.000760423
-0.00366747
0.000853672
-0.00180219
0.000968858
0.000342631
0.00108744
0.00241206
0.00119595
0.00413227
0.00128848
0.00541036
0.00136596
0.00637401
0.00143193
0.00729754
0.001486
0.00837237
0.00152042
0.0094687
0.00152305
0.0101295
0.00148453
0.00982453
0.00140589
0.00822896
0.00130214
0.00536363
0.00119679
0.00165689
0.0011101
-0.00213159
0.00105136
-0.00524387
0.00101906
-0.00726923
0.00100423
-0.00823235
0.00099329
-0.00844696
0.000975325
-0.00830444
0.000950391
-0.00800612
0.000929717
-0.00748537
0.000927293
-0.00651787
0.000951295
-0.00494805
0.00100147
-0.00280807
-0.000282064
0.000697564
-0.00494578
0.000749107
-0.00371902
0.000841584
-0.00189467
0.000956753
0.000227462
0.00107596
0.00229285
0.00118554
0.0040227
0.00127938
0.00531652
0.00135837
0.00629502
0.00142617
0.00722975
0.00148251
0.00831602
0.00151954
0.00943167
0.00152465
0.0101243
0.00148783
0.00986135
0.00140956
0.00830723
0.00130474
0.00546846
0.00119718
0.00176446
0.00110781
-0.00204222
0.00104662
-0.00518269
0.00101252
-0.00723513
0.000996768
-0.0082166
0.000985845
-0.00843604
0.000968495
-0.00828709
0.000944177
-0.00798181
0.000923783
-0.00746497
0.000921434
-0.00651552
0.000945608
-0.00497222
0.000996145
-0.00285861
-0.000351341
0.000687827
-0.00494667
0.000737705
-0.0037689
0.000829379
-0.00198634
0.000944524
0.000112317
0.0010643
0.00217307
0.00117488
0.00391212
0.00126997
0.00522142
0.00135041
0.00621459
0.00141997
0.00716019
0.00147855
0.00825744
0.00151819
0.00939203
0.00152584
0.0101167
0.00149081
0.00989638
0.00141305
0.00838499
0.00130727
0.00557424
0.00119753
0.00187419
0.00110549
-0.00195018
0.00104186
-0.00511906
0.00100593
-0.00719921