/*--------------------------------*- C++ -*----------------------------------*\
  =========                 |
  \\      /  F ield         | OpenFOAM: The Open Source CFD Toolbox
   \\    /   O peration     | Website:  https://openfoam.org
    \\  /    A nd           | Version:  7
     \\/     M anipulation  |
\*---------------------------------------------------------------------------*/
FoamFile
{
    version     2.0;
    format      ascii;
    class       volVectorField;
    location    "180";
    object      U;
}
// * * * * * * * * * * * * * * * * * * * * * * * * * * * * * * * * * * * * * //

dimensions      [0 1 -1 0 0 0 0];

internalField   nonuniform List<vector> 
7156
(
(0.728325 -0.41073 -2.24808e-22)
(0.720918 -0.25917 4.04219e-23)
(0.73081 -0.0739914 4.34553e-23)
(0.755315 0.109314 -9.95083e-23)
(0.788142 0.26103 -3.02833e-25)
(0.821175 0.367285 -1.20384e-23)
(0.848652 0.42898 -1.56674e-23)
(0.868781 0.455592 6.92087e-24)
(0.880441 0.462671 -1.43346e-22)
(0.880966 0.468068 -9.75985e-23)
(0.86851 0.480546 -3.97147e-23)
(0.844869 0.490226 5.69212e-23)
(0.815633 0.47341 -1.52807e-22)
(0.787673 0.409138 -1.41153e-25)
(0.766594 0.293241 1.46454e-23)
(0.756233 0.140404 5.2014e-23)
(0.758866 -0.0230691 5.72094e-23)
(0.774209 -0.169253 -6.59814e-23)
(0.798554 -0.279198 9.63977e-23)
(0.824551 -0.349986 -1.19591e-23)
(0.84337 -0.39302 1.10559e-22)
(0.848519 -0.421265 -1.84432e-23)
(0.838888 -0.437815 -6.87165e-23)
(0.817731 -0.433467 5.56777e-23)
(0.791557 -0.395293 -3.55398e-23)
(0.767698 -0.315479 4.80088e-23)
(0.752522 -0.198063 6.27254e-23)
(0.749587 -0.0588623 1.28968e-23)
(0.759845 0.0798913 2.19483e-23)
(0.725703 -0.409306 1.23586e-22)
(0.717581 -0.259427 -2.24469e-22)
(0.727036 -0.0757816 -9.57747e-23)
(0.7514 0.10648 1.06032e-22)
(0.784356 0.257864 9.94621e-23)
(0.817785 0.364437 1.10897e-22)
(0.84593 0.426777 8.23538e-24)
(0.86688 0.45414 2.15925e-22)
(0.879323 0.462101 1.00382e-22)
(0.880522 0.468533 5.48682e-23)
(0.868675 0.482015 -9.17997e-23)
(0.845636 0.492378 -1.14233e-22)
(0.817003 0.475742 2.60864e-22)
(0.789571 0.411158 -1.20312e-22)
(0.768849 0.294582 -3.6258e-22)
(0.758633 0.140831 9.38027e-24)
(0.761199 -0.0236306 -2.75046e-22)
(0.776271 -0.170643 1.04508e-22)
(0.8002 -0.280991 1.59203e-22)
(0.825751 -0.351577 1.68453e-22)
(0.844167 -0.393852 3.79042e-23)
(0.848925 -0.421085 -1.05741e-22)
(0.838903 -0.436731 5.65374e-23)
(0.817377 -0.431846 1.61502e-22)
(0.790866 -0.393624 1.24591e-23)
(0.766772 -0.314223 2.10795e-22)
(0.751538 -0.197531 -8.4752e-23)
(0.748723 -0.0591677 -7.60783e-23)
(0.759183 0.0788901 -7.72692e-23)
(0.723239 -0.407942 3.60487e-22)
(0.714392 -0.259812 8.63138e-23)
(0.723394 -0.0777403 -2.18699e-22)
(0.747594 0.103472 -3.52269e-22)
(0.780655 0.254543 -2.8283e-22)
(0.814465 0.361457 -5.66964e-23)
(0.843267 0.424465 4.00598e-23)
(0.865029 0.452602 -2.67162e-22)
(0.878255 0.461462 2.85937e-22)
(0.880136 0.468934 -1.47131e-22)
(0.868913 0.483422 1.9667e-22)
(0.846491 0.494482 3.57439e-24)
(0.818474 0.47806 -3.34042e-22)
(0.791575 0.413216 -3.9291e-22)
(0.771208 0.29601 7.87408e-22)
(0.761134 0.141376 -1.31761e-22)
(0.763626 -0.0240641 1.54495e-22)
(0.77842 -0.171916 3.87667e-22)
(0.801922 -0.282691 -8.49986e-23)
(0.827016 -0.3531 2.4796e-22)
(0.845026 -0.394635 5.81111e-23)
(0.849399 -0.420866 -3.57982e-22)
(0.838996 -0.435619 8.2554e-23)
(0.817112 -0.430214 -1.30987e-22)
(0.790276 -0.39197 2.72985e-23)
(0.765949 -0.31301 -1.19563e-22)
(0.750653 -0.197066 -1.26434e-23)
(0.74795 -0.0595509 -9.055e-23)
(0.7586 0.0778172 8.54193e-24)
(0.720935 -0.406633 1.73147e-22)
(0.711355 -0.26032 -5.43804e-22)
(0.719885 -0.0798623 2.49965e-22)
(0.743896 0.100296 6.45924e-22)
(0.777039 0.251071 -2.83114e-22)
(0.811212 0.358347 1.14682e-21)
(0.840661 0.422044 -1.75011e-22)
(0.863228 0.450976 -2.61713e-22)
(0.877235 0.460751 1.67977e-22)
(0.879807 0.469268 -3.70719e-24)
(0.869222 0.484763 5.32618e-22)
(0.847434 0.496536 -5.15825e-22)
(0.820045 0.480365 6.07415e-22)
(0.793684 0.415311 1.31974e-21)
(0.773672 0.297525 -1.39933e-21)
(0.763734 0.14204 3.84183e-22)
(0.766147 -0.0243678 1.80727e-22)
(0.780656 -0.173069 -7.38171e-23)
(0.803719 -0.284294 -3.74145e-22)
(0.828345 -0.354555 -1.79033e-22)
(0.845947 -0.395369 -4.09896e-22)
(0.849942 -0.420611 4.3916e-22)
(0.839168 -0.43448 -1.7667e-23)
(0.816937 -0.428573 -2.77677e-22)
(0.789785 -0.39033 1.85401e-22)
(0.765229 -0.311839 -3.80492e-22)
(0.749865 -0.196667 -7.95006e-22)
(0.747264 -0.0600104 -4.8514e-22)
(0.758093 0.0766739 2.66151e-23)
(0.718796 -0.405376 5.49608e-22)
(0.708471 -0.260947 3.99031e-22)
(0.716511 -0.0821421 -1.17866e-21)
(0.740309 0.0969562 -1.04753e-21)
(0.773509 0.24745 2.61518e-22)
(0.808028 0.355108 -8.20886e-22)
(0.838112 0.419514 -3.38246e-22)
(0.861475 0.449262 6.29977e-22)
(0.876261 0.459966 -4.9982e-22)
(0.879533 0.469531 8.52701e-23)
(0.869601 0.486036 -7.397e-23)
(0.848463 0.498537 1.92178e-22)
(0.821714 0.482655 -6.60373e-22)
(0.795895 0.417444 -8.95088e-22)
(0.776238 0.299128 1.13995e-21)
(0.766433 0.142827 -1.14051e-21)
(0.768761 -0.0245399 7.60837e-23)
(0.782979 -0.174101 -2.07205e-22)
(0.805593 -0.285801 8.47726e-22)
(0.82974 -0.355941 2.0661e-22)
(0.846931 -0.396057 -1.22889e-22)
(0.850554 -0.420319 -4.04203e-22)
(0.839417 -0.433317 3.55505e-22)
(0.816852 -0.426924 -7.87977e-23)
(0.789394 -0.388705 -5.9595e-22)
(0.76461 -0.310709 -1.90714e-22)
(0.749175 -0.196332 5.60412e-22)
(0.746667 -0.0605445 6.38466e-22)
(0.757661 0.0754615 1.54606e-22)
(0.716822 -0.404167 4.48148e-22)
(0.705743 -0.261685 -1.38023e-22)
(0.713273 -0.0845742 2.87263e-22)
(0.736833 0.0934562 5.73826e-22)
(0.770065 0.243681 -7.04206e-22)
(0.804911 0.35174 6.96859e-22)
(0.835617 0.416875 1.34085e-22)
(0.859768 0.447459 2.68264e-22)
(0.875333 0.459106 -1.41075e-22)
(0.879312 0.469722 -5.46043e-22)
(0.870047 0.487237 4.7e-22)
(0.849576 0.500483 -3.73499e-22)
(0.823478 0.484928 -1.28417e-23)
(0.798207 0.419614 -1.11018e-21)
(0.778904 0.300821 -4.18739e-22)
(0.76923 0.143735 1.8301e-21)
(0.771468 -0.0245787 -4.20914e-22)
(0.785388 -0.175009 -4.14032e-23)
(0.807545 -0.28721 -1.8813e-22)
(0.831201 -0.35726 -3.45231e-22)
(0.847977 -0.396698 -5.429e-22)
(0.851235 -0.419994 4.84104e-22)
(0.839746 -0.432132 -2.50681e-22)
(0.816855 -0.425269 8.70325e-22)
(0.789102 -0.387095 -1.54248e-23)
(0.764093 -0.309621 7.00736e-22)
(0.74858 -0.19606 1.04556e-21)
(0.746154 -0.0611518 -2.72946e-22)
(0.757302 0.0741815 -8.73892e-22)
(0.715017 -0.403001 2.97636e-22)
(0.703171 -0.26253 2.0212e-22)
(0.710171 -0.0871529 -1.53653e-21)
(0.733466 0.0898008 1.09636e-21)
(0.766706 0.239768 2.64665e-22)
(0.801861 0.348245 1.29901e-22)
(0.833177 0.414126 6.04708e-22)
(0.858106 0.445565 -1.16616e-21)
(0.874448 0.458167 1.20451e-21)
(0.879143 0.469836 3.34535e-22)
(0.870559 0.488364 4.91562e-23)
(0.85077 0.502372 -7.36007e-23)
(0.825336 0.487184 1.56819e-21)
(0.800617 0.421822 1.45229e-21)
(0.78167 0.302603 5.04471e-22)
(0.772123 0.144768 -1.81833e-21)
(0.774267 -0.0244826 -3.52715e-22)
(0.787884 -0.175793 6.73081e-22)
(0.809574 -0.28852 2.43959e-22)
(0.83273 -0.35851 -5.84374e-22)
(0.849087 -0.397294 4.59458e-22)
(0.851986 -0.419636 8.52175e-23)
(0.840152 -0.430925 -2.77387e-22)
(0.816947 -0.423608 -2.18832e-22)
(0.788908 -0.385501 -4.20956e-22)
(0.763676 -0.308572 1.49749e-22)
(0.748079 -0.19585 -3.99077e-22)
(0.745727 -0.0618306 -2.73148e-22)
(0.757015 0.072835 9.32622e-22)
(0.713383 -0.401873 -9.2631e-23)
(0.700758 -0.263476 1.48112e-21)
(0.707206 -0.0898722 -1.28334e-21)
(0.730211 0.0859945 -1.04909e-21)
(0.763432 0.235714 2.25094e-22)
(0.798877 0.344623 -6.06128e-22)
(0.830789 0.411269 -5.60753e-22)
(0.856486 0.443581 6.41509e-22)
(0.873605 0.45715 6.61757e-22)
(0.879024 0.469873 -1.14459e-21)
(0.871135 0.489413 2.04345e-22)
(0.852043 0.5042 3.18988e-22)
(0.827284 0.48942 -8.61018e-22)
(0.803123 0.424067 2.07109e-22)
(0.784532 0.304474 2.52885e-21)
(0.77511 0.145926 -2.37584e-21)
(0.777156 -0.0242499 2.43219e-21)
(0.790466 -0.176451 -1.25972e-21)
(0.811682 -0.28973 -3.36838e-22)
(0.834326 -0.359691 -3.94656e-23)
(0.850261 -0.397847 3.19364e-22)
(0.852807 -0.419249 -4.1585e-22)
(0.840637 -0.429699 -1.95698e-22)
(0.817127 -0.421943 -1.92295e-22)
(0.788812 -0.383922 4.79992e-22)
(0.76336 -0.307562 1.18823e-22)
(0.747673 -0.1957 4.55486e-23)
(0.745381 -0.0625792 -6.75384e-22)
(0.756799 0.0714235 -1.03452e-21)
(0.711919 -0.400779 -6.00019e-22)
(0.698503 -0.264515 -1.19469e-21)
(0.704379 -0.0927261 3.56751e-21)
(0.727066 0.082042 -3.19159e-22)
(0.760243 0.23152 2.31096e-21)
(0.795959 0.340875 -1.5213e-21)
(0.828452 0.408302 -3.86772e-22)
(0.854908 0.441505 -5.05375e-22)
(0.872802 0.456051 -2.62635e-22)
(0.878953 0.469828 -1.053e-23)
(0.871773 0.490383 9.59552e-22)
(0.853393 0.505966 -4.49624e-22)
(0.82932 0.491635 -8.12484e-22)
(0.805722 0.426347 -2.20222e-21)
(0.787489 0.306437 -2.45202e-21)
(0.77819 0.147211 9.48438e-22)
(0.780135 -0.0238794 1.28864e-21)
(0.793134 -0.176981 -5.9749e-22)
(0.813868 -0.290837 8.77972e-22)
(0.83599 -0.360803 2.57709e-22)
(0.851498 -0.398356 -2.74093e-22)
(0.853697 -0.418832 5.65646e-22)
(0.841201 -0.428454 3.32934e-22)
(0.817394 -0.420274 4.00844e-22)
(0.788812 -0.382359 -1.3525e-21)
(0.763142 -0.306591 -1.48733e-21)
(0.747358 -0.195609 -6.26554e-22)
(0.745117 -0.0633959 4.75111e-22)
(0.756651 0.0699482 2.88296e-22)
(0.710629 -0.399714 5.58601e-22)
(0.696409 -0.265641 1.31281e-21)
(0.701689 -0.0957084 -2.0948e-22)
(0.724031 0.0779479 -2.58175e-21)
(0.757139 0.22719 7.34804e-22)
(0.793105 0.337003 -1.51789e-22)
(0.826164 0.405225 2.81749e-22)
(0.85337 0.439337 -7.33281e-22)
(0.872036 0.454869 1.11851e-21)
(0.878927 0.469699 7.80646e-23)
(0.872469 0.491269 -7.93295e-22)
(0.854817 0.507667 -5.76594e-22)
(0.831441 0.493827 7.4826e-22)
(0.808413 0.428663 9.23045e-22)
(0.790539 0.308489 8.114e-23)
(0.781361 0.148622 1.57079e-21)
(0.783202 -0.0233696 -2.64366e-21)
(0.795887 -0.177382 2.08344e-21)
(0.816134 -0.291842 -3.38125e-22)
(0.837723 -0.361845 1.67949e-21)
(0.852798 -0.398823 -9.20392e-22)
(0.854656 -0.418389 -5.65674e-22)
(0.841842 -0.427193 -3.18551e-23)
(0.817748 -0.418603 -1.47532e-21)
(0.788908 -0.380812 1.09451e-21)
(0.763022 -0.305657 8.08475e-22)
(0.747134 -0.195574 1.83831e-21)
(0.744932 -0.064279 5.35154e-22)
(0.75657 0.0684105 4.75549e-22)
(0.709512 -0.398672 -1.03553e-21)
(0.694475 -0.266849 -4.82203e-22)
(0.699137 -0.0988126 3.56289e-21)
(0.721107 0.0737171 -1.454e-21)
(0.754118 0.222726 3.51733e-22)
(0.790315 0.333007 -4.27583e-22)
(0.823925 0.40204 1.43337e-21)
(0.851869 0.437075 1.43405e-21)
(0.871307 0.453602 5.16392e-23)
(0.878945 0.469484 -8.3474e-22)
(0.873222 0.49207 -7.17242e-22)
(0.856312 0.5093 2.14243e-21)
(0.833644 0.495995 -9.82691e-22)
(0.811191 0.431013 3.29308e-21)
(0.79368 0.310632 -3.4203e-21)
(0.784622 0.150162 7.3008e-22)
(0.786355 -0.0227192 2.81081e-21)
(0.798725 -0.177653 -3.11195e-21)
(0.818479 -0.292743 -8.60163e-22)
(0.839526 -0.362817 -1.24584e-21)
(0.854163 -0.399249 3.94017e-22)
(0.855684 -0.41792 -4.10329e-22)
(0.842561 -0.425917 -3.33625e-22)
(0.818187 -0.41693 3.41659e-22)
(0.789099 -0.379281 -4.697e-22)
(0.762999 -0.304759 -1.63278e-21)
(0.747 -0.195595 4.8518e-22)
(0.744825 -0.0652267 -1.48057e-21)
(0.756554 0.0668115 -2.7668e-23)
(0.70857 -0.397649 -2.29115e-21)
(0.692702 -0.268129 -1.63335e-21)
(0.696722 -0.102032 9.85875e-22)
(0.718292 0.0693542 -7.38402e-22)
(0.75118 0.218131 -1.57135e-21)
(0.787588 0.328889 1.26261e-21)
(0.821733 0.398746 -3.11508e-22)
(0.850404 0.434719 -4.48711e-22)
(0.870612 0.452248 2.02935e-22)
(0.879003 0.469181 -8.74528e-22)
(0.874029 0.492782 7.48855e-22)
(0.857876 0.510863 -7.32522e-23)
(0.835927 0.498137 2.35224e-22)
(0.814056 0.433395 -1.14912e-21)
(0.796909 0.312865 1.08992e-21)
(0.787969 0.15183 -1.02222e-21)
(0.789594 -0.0219272 2.70412e-21)
(0.801646 -0.177791 -1.00261e-21)
(0.820902 -0.293538 3.16018e-22)
(0.841397 -0.363719 1.10417e-21)
(0.85559 -0.399635 -8.30364e-22)
(0.856781 -0.417428 1.07002e-23)
(0.843358 -0.424628 1.26325e-21)
(0.818711 -0.415257 1.41773e-21)
(0.789383 -0.377766 -1.85911e-22)
(0.763072 -0.303897 4.26879e-24)
(0.746954 -0.19567 8.73276e-22)
(0.744793 -0.0662373 2.45632e-22)
(0.756602 0.0651528 -6.98541e-22)
(0.707802 -0.396639 5.49549e-22)
(0.69109 -0.269476 1.47294e-21)
(0.694444 -0.105361 -2.37749e-22)
(0.715585 0.0648643 -1.14936e-21)
(0.748325 0.213408 1.55491e-21)
(0.784922 0.32465 -2.53295e-21)
(0.819585 0.395343 1.88343e-21)
(0.848973 0.432268 -8.66029e-22)
(0.869949 0.450806 -8.19154e-22)
(0.879101 0.468787 -4.25564e-22)
(0.874888 0.493402 -1.14424e-21)
(0.859505 0.512353 4.26299e-22)
(0.838285 0.50025 -3.38909e-21)
(0.817003 0.43581 -1.93278e-21)
(0.800223 0.315187 2.12668e-21)
(0.791402 0.153627 -4.74593e-21)
(0.792916 -0.0209924 -6.68373e-22)
(0.804649 -0.177797 2.10649e-21)
(0.823405 -0.294227 -1.53035e-22)
(0.843339 -0.36455 -1.90529e-21)
(0.857081 -0.39998 5.71096e-22)
(0.857945 -0.416913 7.43266e-22)
(0.844231 -0.423327 -1.35233e-22)
(0.819319 -0.413584 -1.86319e-21)
(0.789758 -0.376268 1.48778e-21)
(0.763239 -0.303069 4.71544e-22)
(0.746994 -0.195797 -9.00981e-22)
(0.744835 -0.0673088 1.14584e-22)
(0.756711 0.0634355 4.70642e-23)
(0.707209 -0.395638 1.97683e-21)
(0.68964 -0.270883 -3.06872e-21)
(0.692302 -0.108792 2.50849e-21)
(0.712987 0.0602523 -4.20305e-22)
(0.745552 0.208559 8.10201e-22)
(0.782317 0.32029 -1.95114e-22)
(0.817481 0.391831 6.2255e-22)
(0.847575 0.429722 9.44255e-22)
(0.869315 0.449275 4.16079e-22)
(0.879234 0.468299 1.55119e-21)
(0.875795 0.493929 -2.63406e-22)
(0.861196 0.513768 -9.26573e-22)
(0.840716 0.502332 3.68269e-21)
(0.82003 0.438255 -1.42083e-21)
(0.80362 0.317599 -5.03649e-22)
(0.794917 0.155554 4.90926e-21)
(0.796319 -0.0199139 2.0368e-21)
(0.807735 -0.177668 -2.84848e-21)
(0.825986 -0.294808 -2.17958e-22)
(0.845351 -0.36531 1.78744e-21)
(0.858635 -0.400287 -4.63534e-22)
(0.859177 -0.416377 1.44181e-21)
(0.84518 -0.422014 -4.457e-22)
(0.820009 -0.411912 7.86125e-22)
(0.790224 -0.374785 -1.44419e-22)
(0.763499 -0.302275 6.34995e-22)
(0.74712 -0.195973 5.73437e-22)
(0.74495 -0.0684395 -5.45524e-22)
(0.75688 0.0616609 7.69202e-23)
(0.706791 -0.394639 5.39909e-22)
(0.688351 -0.272341 2.65062e-21)
(0.690296 -0.112318 -2.77602e-22)
(0.710496 0.0555231 -9.30228e-22)
(0.74286 0.203588 2.20367e-21)
(0.779771 0.315812 5.91759e-22)
(0.815419 0.388212 -4.81161e-22)
(0.846206 0.42708 -1.26004e-21)
(0.868709 0.447652 7.26319e-22)
(0.879401 0.467716 -1.17334e-22)
(0.876747 0.494359 -3.23265e-22)
(0.862946 0.515105 2.89768e-21)
(0.843217 0.504381 -5.56621e-22)
(0.823133 0.440728 -7.7914e-22)
(0.807098 0.320099 2.56096e-21)
(0.798512 0.157611 1.60144e-21)
(0.799802 -0.0186908 -2.99978e-21)
(0.8109 -0.177404 2.21634e-21)
(0.828646 -0.295281 -8.65362e-22)
(0.847433 -0.365997 2.41799e-22)
(0.860252 -0.400555 2.06114e-21)
(0.860475 -0.415823 -1.69659e-21)
(0.846204 -0.420693 -5.17407e-22)
(0.820781 -0.410242 -1.92459e-22)
(0.790778 -0.373319 -7.30091e-22)
(0.76385 -0.301513 1.39573e-22)
(0.747329 -0.196198 -1.97095e-22)
(0.745135 -0.0696274 1.39819e-21)
(0.757107 0.0598304 -1.39746e-22)
(0.706547 -0.393639 -1.31184e-21)
(0.687223 -0.273843 2.93152e-21)
(0.688425 -0.115931 -1.61074e-21)
(0.708111 0.0506821 7.89271e-22)
(0.740248 0.198498 -1.78529e-21)
(0.777283 0.311217 -1.07775e-21)
(0.813397 0.384484 2.41865e-22)
(0.844865 0.424342 -6.20434e-22)
(0.868128 0.445937 9.58289e-22)
(0.879598 0.467035 -9.0958e-22)
(0.877742 0.49469 -4.48069e-21)
(0.864751 0.516361 1.78842e-21)
(0.845783 0.506394 1.69638e-21)
(0.826309 0.443227 3.55498e-21)
(0.810653 0.322686 -5.7832e-21)
(0.802186 0.159797 -2.9872e-21)
(0.803362 -0.0173224 5.65952e-22)
(0.814144 -0.177003 -6.31321e-22)
(0.831384 -0.295644 -8.76919e-22)
(0.849585 -0.366612 9.80155e-22)
(0.861932 -0.400785 -1.21479e-21)
(0.861838 -0.41525 1.42187e-21)
(0.847303 -0.419363 4.34262e-22)
(0.821633 -0.408575 -3.17132e-22)
(0.791418 -0.371869 -9.85687e-23)
(0.764291 -0.300782 9.61128e-23)
(0.747621 -0.196468 -9.237e-22)
(0.745389 -0.0708707 -1.72063e-21)
(0.75739 0.0579453 1.52834e-21)
(0.706477 -0.392632 5.36731e-22)
(0.686257 -0.275382 -8.0736e-22)
(0.686689 -0.119626 -3.39977e-21)
(0.705832 0.0457342 1.65823e-21)
(0.737714 0.193291 -1.61932e-21)
(0.774852 0.306506 3.28643e-21)
(0.811413 0.380649 -2.27425e-21)
(0.84355 0.421506 1.63212e-21)
(0.867569 0.444128 -4.29374e-22)
(0.879824 0.466255 2.9611e-21)
(0.878776 0.494919 3.24565e-22)
(0.866609 0.517534 6.0283e-23)
(0.848412 0.508369 7.77991e-24)
(0.829556 0.445752 -6.65398e-21)
(0.814282 0.325359 2.22216e-21)
(0.805934 0.162113 -3.96895e-23)
(0.806998 -0.015808 6.79606e-22)
(0.817466 -0.176465 -2.74625e-21)
(0.834199 -0.295896 3.39917e-21)
(0.851808 -0.367153 -6.77023e-22)
(0.863674 -0.400977 -9.61278e-23)
(0.863267 -0.414661 4.41061e-22)
(0.848476 -0.418027 -6.24725e-22)
(0.822564 -0.40691 -1.71428e-22)
(0.792144 -0.370435 8.44346e-22)
(0.764821 -0.300081 -3.14302e-22)
(0.747993 -0.196784 1.39619e-21)
(0.74571 -0.0721673 5.35891e-22)
(0.757728 0.0560068 2.41017e-22)
(0.706579 -0.391612 -3.21406e-21)
(0.685451 -0.276951 1.79065e-21)
(0.685087 -0.123395 5.62243e-21)
(0.703657 0.040685 -1.09046e-21)
(0.735259 0.187971 -3.32986e-21)
(0.772477 0.301681 7.96487e-22)
(0.809466 0.376708 2.25521e-21)
(0.842259 0.418574 -5.14779e-22)
(0.867031 0.442224 -3.58427e-22)
(0.880075 0.465374 -2.59236e-22)
(0.879846 0.495045 1.34207e-21)
(0.868514 0.518621 -5.88227e-23)
(0.851099 0.510304 1.37008e-21)
(0.832869 0.448298 -2.21151e-21)
(0.817983 0.328118 3.3435e-21)
(0.809755 0.164559 1.56289e-21)
(0.810707 -0.014147 -4.30995e-21)
(0.820863 -0.175789 -2.39869e-22)
(0.837091 -0.296036 1.37247e-22)
(0.854101 -0.36762 -4.15111e-21)
(0.865478 -0.401132 3.11044e-21)
(0.864759 -0.414056 -3.19553e-22)
(0.849722 -0.416685 -1.483e-21)
(0.823574 -0.40525 1.86142e-21)
(0.792952 -0.369016 -8.64159e-22)
(0.765437 -0.29941 3.97844e-22)
(0.748445 -0.197141 -2.36656e-21)
(0.746096 -0.0735154 3.43485e-22)
(0.758119 0.0540164 -2.04661e-21)
(0.706852 -0.390576 -1.4742e-21)
(0.684806 -0.27854 -2.41035e-21)
(0.683618 -0.127229 -4.17891e-21)
(0.701587 0.0355396 2.41305e-21)
(0.732882 0.182541 -7.19123e-22)
(0.770156 0.296744 -2.5361e-21)
(0.807554 0.37266 -8.96694e-22)
(0.84099 0.415543 -4.54567e-21)
(0.866511 0.440224 2.31958e-22)
(0.880348 0.464389 1.66561e-23)
(0.880948 0.495064 -2.66022e-21)
(0.870464 0.51962 9.65753e-22)
(0.853841 0.512195 5.46877e-21)
(0.836244 0.450865 -4.25664e-21)
(0.821751 0.33096 -2.98294e-21)
(0.813645 0.167134 3.49661e-21)
(0.814487 -0.012339 -2.04072e-21)
(0.824335 -0.174974 -4.35475e-21)
(0.840058 -0.296063 2.74516e-21)
(0.856464 -0.368012 -1.15652e-21)
(0.867344 -0.401249 6.16521e-23)
(0.866313 -0.413438 -6.81004e-22)
(0.851039 -0.415339 8.23759e-22)
(0.82466 -0.403593 -6.13984e-22)
(0.793841 -0.367613 1.85383e-21)
(0.766137 -0.298766 3.11489e-22)
(0.748974 -0.19754 4.61385e-22)
(0.746545 -0.074913 -2.58581e-22)
(0.75856 0.0519753 -2.51594e-22)
(0.707294 -0.389519 1.51009e-21)
(0.684322 -0.280143 -7.28211e-23)
(0.682282 -0.131122 -1.79286e-22)
(0.699619 0.0303038 2.77541e-21)
(0.73058 0.177004 -1.11488e-21)
(0.767888 0.291695 4.08193e-21)
(0.805675 0.368506 1.92509e-21)
(0.839741 0.412415 8.75406e-22)
(0.866005 0.438126 -2.05216e-21)
(0.88064 0.4633 1.35088e-21)
(0.88208 0.494976 1.11386e-22)
(0.872454 0.520528 -1.42823e-22)
(0.856633 0.51404 -1.43478e-21)
(0.839679 0.453449 3.25182e-21)
(0.825584 0.333884 -1.07954e-21)
(0.817602 0.169838 -1.08564e-21)
(0.818335 -0.0103836 2.70985e-21)
(0.827879 -0.174019 4.94747e-21)
(0.8431 -0.295976 5.11309e-21)
(0.858896 -0.368329 -3.20612e-21)
(0.869271 -0.401329 3.10605e-21)
(0.867929 -0.412807 -1.95495e-21)
(0.852427 -0.41399 1.54987e-22)
(0.825822 -0.401941 4.74847e-22)
(0.794808 -0.366226 -1.2079e-21)
(0.766919 -0.298149 -1.83343e-21)
(0.749579 -0.197976 5.24276e-23)
(0.747056 -0.076358 -8.80486e-22)
(0.75905 0.0498849 -1.84831e-22)
(0.707903 -0.388435 5.67784e-21)
(0.683998 -0.281753 -3.25802e-21)
(0.681078 -0.135066 3.51132e-21)
(0.697753 0.024983 -4.8101e-21)
(0.728354 0.171363 4.00175e-21)
(0.765672 0.286537 -1.5476e-21)
(0.803827 0.364247 6.1514e-22)
(0.838509 0.409189 -1.40997e-21)
(0.865513 0.435931 1.74042e-21)
(0.880949 0.462105 3.06476e-22)
(0.883238 0.494776 -7.61378e-22)
(0.874481 0.521341 -6.66856e-22)
(0.859472 0.515836 -1.59497e-21)
(0.84317 0.456047 -9.47817e-22)
(0.829479 0.336888 6.27455e-21)
(0.821622 0.17267 -2.57293e-21)
(0.822249 -0.00828069 4.57821e-21)
(0.831493 -0.172923 -2.61641e-21)
(0.846216 -0.295775 -2.24347e-21)
(0.861398 -0.368568 6.06996e-22)
(0.871259 -0.401373 -8.74472e-22)
(0.869606 -0.412165 -1.66548e-21)
(0.853885 -0.41264 -2.86838e-21)
(0.827059 -0.400294 2.64018e-22)
(0.795853 -0.364853 -1.0792e-21)
(0.767782 -0.297557 -2.59548e-23)
(0.750258 -0.19845 -4.25674e-22)
(0.747628 -0.0778484 -5.21042e-22)
(0.759588 0.0477466 1.43827e-22)
(0.708676 -0.387322 -3.7805e-22)
(0.683835 -0.28336 1.40425e-21)
(0.680007 -0.139053 -5.08195e-22)
(0.695989 0.0195831 5.25156e-22)
(0.726202 0.165623 -1.44337e-21)
(0.763506 0.281272 -2.8173e-21)
(0.80201 0.359883 -1.8396e-21)
(0.837293 0.405865 2.30827e-21)
(0.86503 0.433637 -6.80805e-22)
(0.881271 0.460802 6.5028e-22)
(0.884418 0.494464 -1.81511e-21)
(0.876541 0.522059 1.54114e-21)
(0.862354 0.51758 2.65598e-21)
(0.846712 0.458658 -1.40086e-21)
(0.833431 0.33997 -5.60807e-21)
(0.825702 0.175629 2.44217e-21)
(0.826225 -0.00603005 2.55742e-21)
(0.835175 -0.171686 7.36984e-22)
(0.849405 -0.295458 1.31188e-21)
(0.863969 -0.368731 2.02102e-21)
(0.873308 -0.401379 -1.67501e-22)
(0.871341 -0.411512 1.74642e-21)
(0.85541 -0.411288 6.41892e-22)
(0.828369 -0.398653 1.55778e-21)
(0.796972 -0.363495 2.03696e-21)
(0.768723 -0.29699 1.6119e-21)
(0.751011 -0.198958 5.16062e-22)
(0.748258 -0.0793822 -1.25106e-22)
(0.760171 0.0455616 1.81769e-21)
(0.709612 -0.386174 -1.66717e-21)
(0.68383 -0.284959 -5.35862e-22)
(0.679068 -0.143075 -1.93381e-21)
(0.694325 0.01411 1.33423e-21)
(0.724123 0.159786 9.29436e-22)
(0.761389 0.275902 8.71906e-22)
(0.80022 0.355417 2.30619e-21)
(0.83609 0.402442 -2.35676e-21)
(0.864555 0.431244 1.3785e-21)
(0.881603 0.459391 -9.13879e-22)
(0.885616 0.494038 8.03486e-22)
(0.87863 0.522677 -2.93933e-21)
(0.865275 0.519268 -2.84054e-21)
(0.850302 0.461277 -1.3471e-21)
(0.837437 0.343128 6.82608e-21)
(0.82984 0.178714 -2.36163e-21)
(0.830262 -0.00363193 5.99306e-22)
(0.838924 -0.170308 -1.92232e-21)
(0.852664 -0.295025 2.38454e-21)
(0.866609 -0.368815 1.03376e-21)
(0.875416 -0.401348 1.26263e-21)
(0.873135 -0.41085 9.82014e-22)
(0.857001 -0.409938 5.02829e-22)
(0.829752 -0.397017 -7.39767e-22)
(0.798163 -0.362152 -5.58839e-22)
(0.76974 -0.296446 4.85807e-22)
(0.751834 -0.199499 2.82112e-22)
(0.748945 -0.0809573 -1.00483e-22)
(0.760798 0.0433315 -1.67101e-22)
(0.710706 -0.384989 -1.29978e-22)
(0.683985 -0.286541 6.08541e-22)
(0.678262 -0.147125 1.5916e-21)
(0.692762 0.00856929 -4.01732e-21)
(0.722117 0.153857 1.23842e-21)
(0.759321 0.270428 -1.3429e-21)
(0.798458 0.350847 5.43405e-22)
(0.834899 0.398922 2.26898e-21)
(0.864086 0.428751 8.18072e-22)
(0.881943 0.457869 3.03647e-22)
(0.886829 0.493495 1.0098e-21)
(0.880743 0.523194 -9.12535e-22)
(0.86823 0.520899 2.6261e-21)
(0.853936 0.463903 -1.57503e-21)
(0.841494 0.34636 1.24401e-21)
(0.834031 0.181925 -2.9642e-21)
(0.834357 -0.00108541 -2.64459e-21)
(0.842737 -0.168787 2.02007e-21)
(0.855993 -0.294474 -2.15845e-21)
(0.869316 -0.36882 -2.51987e-21)
(0.877583 -0.40128 2.1752e-22)
(0.874985 -0.410179 -2.39029e-21)
(0.858657 -0.408589 -6.18883e-22)
(0.831205 -0.395388 -4.18443e-22)
(0.799426 -0.360822 5.5386e-22)
(0.770829 -0.295925 -1.72526e-21)
(0.752727 -0.200071 -2.32716e-22)
(0.749688 -0.0825717 -2.09908e-21)
(0.761468 0.0410577 9.0322e-22)
(0.711956 -0.383763 -7.39312e-22)
(0.684297 -0.2881 -1.73227e-21)
(0.677588 -0.151193 4.8939e-21)
(0.691298 0.00296938 -2.45859e-21)
(0.720182 0.147839 4.92775e-21)
(0.757299 0.264853 -7.32825e-22)
(0.79672 0.346176 -7.31614e-22)
(0.833717 0.395303 -2.34921e-21)
(0.863619 0.426158 2.09252e-21)
(0.882287 0.456237 7.5139e-22)
(0.888054 0.492835 -2.18896e-21)
(0.882876 0.523606 4.51562e-21)
(0.871215 0.522467 -1.08645e-21)
(0.85761 0.46653 -3.93382e-21)
(0.845598 0.349663 -2.95527e-21)
(0.838273 0.18526 5.30517e-21)
(0.838506 0.00161422 6.95778e-21)
(0.846612 -0.167124 1.29029e-22)
(0.859391 -0.293805 1.22867e-21)
(0.87209 -0.368745 6.2604e-21)
(0.87981 -0.401174 -2.49265e-21)
(0.876891 -0.4095 -1.35631e-21)
(0.860377 -0.407244 -5.71583e-22)
(0.832728 -0.393766 3.08706e-21)
(0.800756 -0.359506 -7.81058e-22)
(0.771989 -0.295425 1.02333e-21)
(0.753687 -0.200672 3.28802e-21)
(0.750484 -0.0842233 -6.14201e-22)
(0.762178 0.0387416 2.01032e-22)
(0.713359 -0.382492 -2.02446e-21)
(0.684767 -0.289629 -2.98964e-21)
(0.677048 -0.155273 6.51814e-22)
(0.689935 -0.00267027 7.11663e-21)
(0.718319 0.141735 -6.42085e-21)
(0.755324 0.259178 2.20829e-21)
(0.795005 0.341405 1.15374e-21)
(0.832543 0.391587 -1.18214e-21)
(0.863152 0.423464 8.50932e-22)
(0.882631 0.454493 -2.26071e-21)
(0.889286 0.492055 -4.33217e-22)
(0.885026 0.523912 -6.49919e-22)
(0.874226 0.52397 3.01635e-21)
(0.86132 0.469157 -1.80998e-21)
(0.849744 0.353034 -1.33464e-21)
(0.842562 0.188717 2.2951e-22)
(0.842707 0.00445473 -1.20247e-21)
(0.850546 -0.165318 1.81319e-22)
(0.862855 -0.293018 -5.79302e-21)
(0.87493 -0.36859 -2.42533e-21)
(0.882094 -0.40103 -2.68296e-21)
(0.878851 -0.408814 1.14485e-21)
(0.862158 -0.405902 1.59636e-21)
(0.83432 -0.39215 -9.28085e-22)
(0.802154 -0.358202 -6.39157e-22)
(0.773218 -0.294945 2.81111e-22)
(0.754714 -0.2013 -1.19269e-22)
(0.751334 -0.0859099 -3.65349e-22)
(0.762927 0.0363847 4.13878e-22)
(0.714909 -0.381174 -3.86996e-22)
(0.685392 -0.29112 7.88492e-22)
(0.676643 -0.159355 1.56327e-21)
(0.688672 -0.00836977 -5.37169e-21)
(0.716525 0.135551 7.0385e-22)
(0.753392 0.253407 -2.14442e-21)
(0.793313 0.336534 1.03991e-21)
(0.831374 0.387775 7.5988e-22)
(0.862682 0.420669 -9.50967e-22)
(0.882974 0.452636 -2.96281e-21)
(0.890522 0.491154 1.90682e-21)
(0.887188 0.524109 8.23194e-22)
(0.877259 0.525405 -2.7609e-21)
(0.865061 0.471779 -1.13424e-21)
(0.853929 0.356471 1.5306e-21)
(0.846894 0.192295 -4.79996e-21)
(0.846957 0.00743537 -4.00949e-21)
(0.854537 -0.163369 -2.03693e-21)
(0.866385 -0.292111 -2.36118e-21)
(0.877835 -0.368352 4.53452e-21)
(0.884436 -0.400848 1.90547e-21)
(0.880863 -0.408121 -4.21045e-21)
(0.863998 -0.404566 4.81206e-22)
(0.835978 -0.390542 3.32122e-22)
(0.803617 -0.356911 1.49555e-21)
(0.774511 -0.294485 -2.468e-22)
(0.755804 -0.201954 1.05336e-21)
(0.752235 -0.0876296 2.83312e-22)
(0.763714 0.0339885 -9.16356e-23)
(0.716604 -0.379805 1.70264e-21)
(0.68617 -0.292569 -4.98485e-21)
(0.676372 -0.163434 2.64624e-21)
(0.687509 -0.0141181 3.77487e-21)
(0.714801 0.129291 2.26218e-22)
(0.751505 0.247542 -5.70795e-22)
(0.791641 0.331565 -5.63663e-21)
(0.830208 0.383865 5.32046e-21)
(0.862207 0.417774 1.96593e-21)
(0.883311 0.450667 1.94201e-23)
(0.891758 0.490131 4.43107e-22)
(0.889358 0.524195 3.35798e-22)
(0.88031 0.526768 1.12822e-21)
(0.868829 0.474392 -9.82976e-22)
(0.858149 0.359969 -7.01911e-22)
(0.851265 0.195991 4.47466e-21)
(0.851254 0.0105677 8.86838e-21)
(0.858583 -0.161276 1.69837e-22)
(0.869977 -0.291083 3.35549e-21)
(0.880805 -0.368031 1.13474e-21)
(0.886834 -0.400626 -1.67152e-21)
(0.882928 -0.407423 -3.07277e-21)
(0.865896 -0.403236 -9.9898e-22)
(0.837702 -0.388941 2.42929e-21)
(0.805143 -0.355632 -1.07418e-21)
(0.775866 -0.294042 -2.78512e-21)
(0.756957 -0.202631 -3.50381e-22)
(0.753187 -0.0893803 1.60441e-22)
(0.764538 0.0315545 1.00071e-21)
(0.718439 -0.378384 -3.05174e-22)
(0.6871 -0.293968 2.76411e-21)
(0.676237 -0.167499 -5.08752e-21)
(0.686449 -0.0199009 2.23524e-21)
(0.713147 0.122958 -1.7945e-21)
(0.74966 0.241584 -4.69929e-21)
(0.789988 0.326499 7.8456e-21)
(0.829044 0.379859 -4.22048e-21)
(0.861725 0.414779 -9.44111e-22)
(0.88364 0.448585 9.51356e-23)
(0.89299 0.488985 -8.25461e-22)
(0.891532 0.524166 3.98126e-21)
(0.883373 0.528056 -3.35687e-21)
(0.872621 0.476993 -3.53661e-21)
(0.8624 0.363528 3.87466e-21)
(0.855673 0.199805 1.67542e-21)
(0.855593 0.0138462 -5.94528e-21)
(0.862682 -0.159041 3.01085e-21)
(0.873631 -0.289935 -1.17401e-21)
(0.883837 -0.367627 5.8342e-21)
(0.889289 -0.400365 9.20754e-22)
(0.885043 -0.406719 -2.29696e-22)
(0.86785 -0.401914 1.43825e-21)
(0.839491 -0.387349 -2.73722e-21)
(0.80673 -0.354364 2.13028e-22)
(0.777281 -0.293616 -4.16693e-22)
(0.758169 -0.203331 -2.54735e-22)
(0.754188 -0.0911599 2.58795e-22)
(0.765396 0.0290844 -1.45103e-23)
(0.720412 -0.376908 4.13458e-21)
(0.688179 -0.295312 2.37973e-21)
(0.676238 -0.171544 -2.54455e-21)
(0.685491 -0.0257216 7.35727e-22)
(0.711564 0.116558 1.79397e-21)
(0.747858 0.235538 4.13422e-21)
(0.788353 0.321338 -9.73355e-22)
(0.827879 0.375758 -3.04809e-21)
(0.861233 0.411683 3.2933e-21)
(0.883958 0.446389 -2.70021e-21)
(0.894214 0.487715 1.68742e-21)
(0.893704 0.524022 -1.38855e-21)
(0.886444 0.529265 -1.96643e-21)
(0.876431 0.479578 3.80748e-21)
(0.866678 0.367141 2.32642e-21)
(0.860113 0.203734 -8.9057e-22)
(0.859972 0.0172677 -5.3928e-21)
(0.866831 -0.156662 4.38309e-21)
(0.877344 -0.288666 -3.34885e-21)
(0.886932 -0.367139 9.60554e-22)
(0.891798 -0.400064 -3.06745e-21)
(0.887207 -0.40601 1.11301e-21)
(0.869858 -0.4006 8.18826e-23)
(0.841342 -0.385765 -3.71197e-22)