/*--------------------------------*- C++ -*----------------------------------*\
  =========                 |
  \\      /  F ield         | OpenFOAM: The Open Source CFD Toolbox
   \\    /   O peration     | Website:  https://openfoam.org
    \\  /    A nd           | Version:  7
     \\/     M anipulation  |
\*---------------------------------------------------------------------------*/
FoamFile
{
    version     2.0;
    format      ascii;
    class       volVectorField;
    location    "180";
    object      U;
}
// * * * * * * * * * * * * * * * * * * * * * * * * * * * * * * * * * * * * * //

dimensions      [0 1 -1 0 0 0 0];

internalField   nonuniform List<vector> 
4575
(
(0.803954 -0.209067 -2.94394e-23)
(0.808769 -0.295581 2.33618e-23)
(0.796858 -0.345741 -2.89786e-23)
(0.783061 -0.347997 -2.20247e-23)
(0.774016 -0.284018 -4.54522e-23)
(0.775469 -0.177048 -6.61156e-24)
(0.780784 -0.0355509 1.57489e-23)
(0.786933 0.10261 2.06117e-23)
(0.783214 0.223322 -8.184e-24)
(0.779662 0.305523 -1.85472e-23)
(0.775018 0.307118 -6.34588e-24)
(0.776724 0.263243 2.70619e-23)
(0.772041 0.131649 5.46457e-24)
(0.770749 -0.00244128 -2.6569e-23)
(0.759547 -0.150297 2.35261e-23)
(0.75707 -0.26701 5.80062e-24)
(0.750867 -0.265909 -3.22686e-24)
(0.755038 -0.260561 -1.74902e-24)
(0.743579 -0.0938593 -5.42721e-24)
(0.739435 0.0271464 -2.56129e-24)
(0.72198 0.14273 2.77661e-25)
(0.72488 0.278149 -6.69939e-24)
(0.714711 0.123592 1.20479e-23)
(0.804178 -0.209832 1.77871e-23)
(0.809198 -0.29534 -7.24652e-23)
(0.797203 -0.344957 1.53333e-23)
(0.783282 -0.347343 -5.7684e-23)
(0.774369 -0.283834 2.35114e-23)
(0.775883 -0.177293 -5.36119e-23)
(0.781084 -0.0359136 -5.37769e-23)
(0.786954 0.102493 -7.40153e-23)
(0.783269 0.223479 2.11623e-24)
(0.780011 0.305713 4.48245e-23)
(0.775508 0.307202 -3.95734e-23)
(0.777271 0.263335 -3.02733e-23)
(0.772376 0.13184 1.09396e-24)
(0.771034 -0.00211414 3.33394e-24)
(0.759458 -0.149932 -1.42529e-23)
(0.756464 -0.266798 -1.91843e-23)
(0.750113 -0.265851 7.86756e-23)
(0.75405 -0.260423 -3.10055e-23)
(0.743222 -0.0935308 -6.0002e-23)
(0.739472 0.027582 1.61341e-23)
(0.722463 0.143022 -2.13927e-23)
(0.726324 0.278287 -6.54634e-24)
(0.714927 0.123824 -2.46872e-23)
(0.804487 -0.210558 -1.04169e-22)
(0.809726 -0.295068 1.33341e-23)
(0.797645 -0.344154 2.66987e-23)
(0.783579 -0.346703 1.45547e-22)
(0.774775 -0.283693 8.89059e-24)
(0.776343 -0.177587 2.51967e-22)
(0.781437 -0.0363204 -2.18912e-23)
(0.787047 0.102336 1.24933e-22)
(0.783411 0.223594 -8.98663e-23)
(0.780439 0.305879 -4.4483e-23)
(0.776059 0.307288 1.10182e-22)
(0.777871 0.263453 6.78038e-23)
(0.772769 0.132068 6.96712e-23)
(0.771391 -0.00174808 1.6889e-23)
(0.759456 -0.14952 2.52591e-23)
(0.755939 -0.266561 4.08649e-23)
(0.749434 -0.265785 -8.27479e-23)
(0.753132 -0.260303 2.20394e-23)
(0.742944 -0.0932395 7.66555e-23)
(0.739593 0.0279912 1.74345e-23)
(0.723032 0.143278 2.2721e-23)
(0.727845 0.278428 2.45355e-23)
(0.715222 0.124083 2.01558e-23)
(0.80488 -0.211248 1.48549e-22)
(0.810353 -0.294766 -1.51698e-22)
(0.798185 -0.343332 -2.07672e-23)
(0.783951 -0.346076 -2.48341e-23)
(0.775235 -0.283594 -3.01672e-23)
(0.776846 -0.177931 -9.91255e-23)
(0.781843 -0.0367719 7.40321e-23)
(0.787214 0.102137 -1.41783e-22)
(0.78364 0.223666 3.41983e-23)
(0.780944 0.306021 8.69134e-23)
(0.776672 0.307376 -1.56147e-22)
(0.778522 0.263597 -1.0743e-22)
(0.77322 0.132333 -1.59649e-23)
(0.77182 -0.00134388 8.08765e-23)
(0.759541 -0.149063 -6.73442e-23)
(0.755496 -0.266298 1.2083e-23)
(0.748831 -0.26571 1.5994e-22)
(0.752284 -0.260201 -4.69133e-23)
(0.742742 -0.0929855 3.01881e-23)
(0.739797 0.0283738 -2.52024e-23)
(0.723688 0.143498 -1.19733e-23)
(0.729441 0.278572 8.28608e-24)
(0.715598 0.124368 -4.75259e-24)
(0.805357 -0.211903 -2.90899e-23)
(0.81108 -0.294437 2.24536e-22)
(0.798823 -0.342491 -2.18038e-24)
(0.784398 -0.345459 1.0176e-22)
(0.775746 -0.283534 -1.1752e-22)
(0.777392 -0.178323 -4.67261e-23)
(0.782302 -0.037269 4.59498e-23)
(0.787454 0.101896 1.37646e-22)
(0.783954 0.223694 1.26067e-22)
(0.781527 0.306141 -2.6858e-22)
(0.777345 0.307467 2.38528e-22)
(0.779225 0.263767 1.53226e-22)
(0.773729 0.132634 -1.83421e-23)
(0.772321 -0.000902393 1.71949e-23)
(0.759714 -0.14856 1.94325e-22)
(0.755135 -0.266009 -1.08892e-22)
(0.748304 -0.265627 -1.27533e-22)
(0.751505 -0.260117 1.01969e-22)
(0.742617 -0.0927693 -2.67383e-23)
(0.740084 0.0287296 -2.48495e-23)
(0.724428 0.143682 1.15512e-23)
(0.731112 0.278721 -1.76571e-23)
(0.716053 0.12468 -5.51172e-23)
(0.805918 -0.212523 2.01224e-22)
(0.811905 -0.294081 -2.70145e-22)
(0.799559 -0.34163 -4.02545e-23)
(0.784919 -0.344853 -1.28845e-23)
(0.776307 -0.283514 2.88968e-22)
(0.77798 -0.178765 -1.66821e-22)
(0.782812 -0.0378125 -7.87015e-23)
(0.787766 0.10161 -5.14229e-23)
(0.784352 0.223678 1.64848e-22)
(0.782184 0.306238 1.27466e-22)
(0.778078 0.30756 2.57135e-23)
(0.779979 0.263963 -1.19063e-22)
(0.774296 0.132971 2.35823e-22)
(0.772893 -0.000424503 -8.1494e-23)
(0.759976 -0.148013 -3.07174e-22)
(0.754858 -0.265693 5.01684e-23)
(0.747854 -0.265534 -1.38222e-23)
(0.750797 -0.26005 -3.26586e-23)
(0.742568 -0.0925912 -3.75586e-23)
(0.740453 0.0290584 1.19625e-23)
(0.725252 0.14383 6.63026e-24)
(0.732857 0.278874 -8.50841e-25)
(0.71659 0.125019 4.17963e-23)
(0.806562 -0.21311 3.18632e-22)
(0.812829 -0.293699 4.13264e-22)
(0.800392 -0.340748 4.77273e-22)
(0.785513 -0.344253 -7.9039e-23)
(0.776916 -0.283531 -2.25906e-22)
(0.778607 -0.179256 2.3114e-23)
(0.783374 -0.0384032 9.39081e-23)
(0.78815 0.10128 -4.95046e-23)
(0.784835 0.223619 -1.64058e-22)
(0.782917 0.306314 -6.33428e-24)
(0.778869 0.307658 -2.51349e-22)
(0.780783 0.264185 1.60721e-22)
(0.774919 0.133343 -3.21646e-23)
(0.773537 8.88792e-05 -1.00255e-22)
(0.760328 -0.147421 3.01379e-22)
(0.754664 -0.265351 -1.39912e-22)
(0.747483 -0.265432 1.57171e-23)
(0.75016 -0.260002 1.31778e-23)
(0.742594 -0.0924513 6.38298e-23)
(0.740903 0.0293601 -2.01484e-23)
(0.726157 0.143943 -8.62337e-24)
(0.734675 0.27903 -7.93757e-24)
(0.717207 0.125384 4.85944e-23)
(0.807287 -0.213666 -3.96898e-22)
(0.813849 -0.293294 1.83385e-22)
(0.801322 -0.339846 -1.73502e-22)
(0.78618 -0.343659 -3.70998e-22)
(0.777572 -0.283583 -4.09321e-23)
(0.779273 -0.179794 1.51133e-22)
(0.783986 -0.0390418 -2.10893e-23)
(0.788605 0.100905 1.58244e-22)
(0.785399 0.223515 -1.85407e-22)
(0.783723 0.306368 -6.84286e-23)
(0.779719 0.307759 3.75799e-23)
(0.781638 0.264433 -3.02737e-22)
(0.775599 0.133749 -1.74719e-22)
(0.774252 0.000636761 -9.93717e-23)
(0.760769 -0.146785 -9.89935e-24)
(0.754555 -0.264983 1.62603e-22)
(0.74719 -0.26532 1.78811e-22)
(0.749593 -0.259972 -2.08201e-22)
(0.742694 -0.09235 -1.19565e-22)
(0.741434 0.0296345 -2.18069e-23)
(0.727143 0.14402 4.13058e-24)
(0.736565 0.27919 1.10837e-24)
(0.717906 0.125776 6.55675e-23)
(0.808094 -0.21419 -4.11031e-22)
(0.814965 -0.292866 -7.06106e-23)
(0.802349 -0.338922 3.08962e-22)
(0.786918 -0.343069 4.60644e-22)
(0.778274 -0.28367 -2.64983e-22)
(0.779976 -0.180381 3.21048e-22)
(0.784647 -0.0397292 1.75744e-22)
(0.78913 0.100483 -1.12381e-22)
(0.786045 0.223367 1.53713e-22)
(0.784602 0.306402 9.35314e-23)
(0.780627 0.307866 4.05745e-23)
(0.782541 0.264707 -6.27904e-23)
(0.776334 0.134188 -6.56107e-23)
(0.775037 0.00121811 1.73703e-22)
(0.7613 -0.146105 -5.88737e-24)
(0.754531 -0.264587 -2.92082e-22)
(0.746976 -0.265198 -3.15327e-22)
(0.749096 -0.259958 1.43331e-22)
(0.742868 -0.0922875 8.20941e-23)
(0.742045 0.0298815 1.58524e-23)
(0.728208 0.144062 -3.46394e-24)
(0.738526 0.279355 -6.86857e-25)
(0.718687 0.126193 -2.27684e-23)
(0.80898 -0.214685 6.07571e-23)
(0.816176 -0.292417 -7.07465e-22)
(0.803473 -0.337976 -6.46018e-23)
(0.787728 -0.342481 -2.48264e-23)
(0.77902 -0.283789 3.09263e-22)
(0.780715 -0.181015 -4.3594e-22)
(0.785358 -0.0404661 -1.93362e-22)
(0.789725 0.100013 -2.71264e-22)
(0.78677 0.223175 -1.73145e-23)
(0.785552 0.306415 -1.8671e-22)
(0.781591 0.307977 6.3988e-23)
(0.783493 0.265006 6.67025e-22)
(0.777125 0.13466 3.30487e-22)
(0.775891 0.00183186 8.11339e-24)
(0.761923 -0.145382 3.376e-22)
(0.754591 -0.264164 2.80116e-22)
(0.746842 -0.265066 2.36143e-22)
(0.748671 -0.259963 2.38518e-22)
(0.743114 -0.0922639 -1.0118e-22)
(0.742735 0.030101 1.26019e-24)
(0.72935 0.14407 -1.95432e-23)
(0.740558 0.279523 5.63327e-24)
(0.719549 0.126636 -1.29993e-22)
(0.809945 -0.21515 7.75592e-22)
(0.81748 -0.291947 4.98919e-23)
(0.804693 -0.337009 -5.89173e-22)
(0.788609 -0.341892 -1.07509e-22)
(0.77981 -0.283938 -9.92869e-23)
(0.781488 -0.181696 -2.45287e-23)
(0.786115 -0.0412532 1.58977e-22)
(0.790388 0.0994947 2.01695e-22)
(0.787574 0.222938 -1.71747e-22)
(0.786573 0.306409 6.01534e-22)
(0.782612 0.308094 -2.40626e-22)
(0.784494 0.26533 -5.54252e-22)
(0.77797 0.135164 -1.94483e-22)
(0.776815 0.00247694 1.44102e-22)
(0.762636 -0.144617 -8.15551e-23)
(0.754738 -0.263713 2.41361e-22)
(0.746787 -0.264922 -5.66389e-24)
(0.748316 -0.259984 -2.58422e-22)
(0.743432 -0.0922793 6.04699e-23)
(0.743504 0.030293 3.27061e-23)
(0.730569 0.144042 1.84256e-23)
(0.742659 0.279694 5.91582e-24)
(0.720493 0.127104 9.09767e-23)
(0.810987 -0.215586 1.34222e-22)
(0.818876 -0.29146 -3.39685e-22)
(0.806009 -0.336019 6.61596e-23)
(0.78956 -0.341301 2.94272e-22)
(0.780641 -0.284116 1.02909e-22)
(0.782295 -0.182423 2.24192e-22)
(0.786919 -0.0420913 2.96952e-22)
(0.791119 0.0989273 -2.62776e-23)
(0.788456 0.222657 1.71201e-22)
(0.787663 0.306384 -1.41646e-22)
(0.783688 0.308217 2.4288e-22)
(0.785541 0.265679 2.24954e-22)
(0.778869 0.1357 -5.43675e-22)
(0.777808 0.00315222 1.68473e-23)
(0.76344 -0.143809 -1.48626e-22)
(0.754971 -0.263235 -3.86794e-22)
(0.746813 -0.264768 1.78063e-22)
(0.748032 -0.260023 -9.45734e-23)
(0.74382 -0.0923338 -2.92301e-23)
(0.74435 0.0304573 -4.49323e-24)
(0.731861 0.143981 -1.13299e-23)
(0.744829 0.27987 -1.59912e-24)
(0.72152 0.127597 -9.84741e-23)
(0.812106 -0.215994 -6.86408e-22)
(0.820362 -0.290955 -2.168e-22)
(0.807421 -0.335006 2.91726e-22)
(0.790582 -0.340705 -2.75454e-22)
(0.781514 -0.284322 5.68722e-23)
(0.783134 -0.183197 3.3043e-23)
(0.787768 -0.042981 -7.0288e-22)
(0.791916 0.09831 2.20688e-23)
(0.789413 0.22233 -3.71607e-22)
(0.788822 0.30634 -3.15619e-22)
(0.784819 0.308345 2.01572e-22)
(0.786636 0.266054 -1.43796e-22)
(0.779821 0.136265 3.97975e-22)
(0.778868 0.00385655 1.06082e-22)
(0.764335 -0.142961 -6.51091e-22)
(0.755291 -0.262728 3.92763e-22)
(0.746919 -0.264602 -1.09424e-22)
(0.747819 -0.260077 2.92977e-22)
(0.744278 -0.0924276 -2.0014e-23)
(0.745273 0.030594 1.05203e-24)
(0.733227 0.143885 -1.08924e-23)
(0.747066 0.280048 -3.10714e-24)
(0.722629 0.128115 3.80024e-23)
(0.813299 -0.216374 1.17885e-21)
(0.821936 -0.290434 3.80421e-22)
(0.808928 -0.333971 -1.24412e-22)
(0.791673 -0.340103 1.65126e-22)
(0.782427 -0.284551 5.25907e-22)
(0.784004 -0.184017 -4.46432e-22)
(0.78866 -0.0439231 4.77214e-22)
(0.792778 0.0976418 -7.09761e-24)
(0.790444 0.221959 2.59429e-22)
(0.790048 0.306277 2.93433e-22)
(0.786004 0.308481 -3.72637e-22)
(0.787776 0.266453 -1.48981e-22)
(0.780825 0.136861 -1.44854e-22)
(0.779994 0.00458888 -6.97915e-22)
(0.765321 -0.142071 5.21343e-22)
(0.755697 -0.262193 -9.70391e-23)
(0.747106 -0.264423 1.27021e-22)
(0.747677 -0.260148 -1.53824e-23)
(0.744805 -0.0925606 5.34726e-24)
(0.746272 0.0307031 1.04089e-23)
(0.734665 0.143755 1.00506e-22)
(0.749369 0.28023 2.33527e-24)
(0.72382 0.128657 -2.00201e-23)
(0.814565 -0.216726 -1.50238e-22)
(0.823595 -0.2899 -4.00132e-22)
(0.810529 -0.332912 -2.31552e-22)
(0.792834 -0.339492 -8.62516e-22)
(0.783379 -0.284804 -7.25852e-23)
(0.784903 -0.184881 8.54119e-23)
(0.789595 -0.0449182 -6.2302e-22)
(0.793704 0.096922 8.4699e-23)
(0.791548 0.221543 3.22846e-23)
(0.79134 0.306196 1.76878e-22)
(0.787242 0.308623 1.96063e-23)
(0.788962 0.266876 4.4621e-22)
(0.78188 0.137485 3.12866e-22)
(0.781186 0.00534813 7.74155e-22)
(0.766399 -0.141142 -5.31464e-22)
(0.756191 -0.261629 -1.79373e-22)
(0.747374 -0.264233 -3.13711e-22)
(0.747605 -0.260235 3.65463e-23)
(0.745399 -0.0927328 1.17574e-22)
(0.747345 0.0307844 -3.54849e-23)
(0.736172 0.143591 -6.02479e-23)
(0.751737 0.280414 2.86836e-23)
(0.725093 0.129222 -8.81547e-25)
(0.815904 -0.21705 4.21672e-22)
(0.825339 -0.289353 1.27818e-21)
(0.812224 -0.331829 -2.38218e-22)
(0.794065 -0.338869 4.35139e-22)
(0.78437 -0.285078 2.50828e-22)
(0.785829 -0.185789 1.98836e-22)
(0.790571 -0.0459668 3.80039e-22)
(0.794691 0.09615 1.07655e-23)
(0.792723 0.221082 1.01822e-22)
(0.792697 0.306098 -2.43157e-22)
(0.788534 0.308772 4.11822e-22)
(0.790192 0.267323 -6.13618e-22)
(0.782986 0.138137 1.80521e-23)
(0.782443 0.0061325 -4.50068e-22)
(0.767567 -0.140173 5.33213e-22)
(0.756773 -0.261036 -2.57764e-23)
(0.747723 -0.264029 3.04468e-22)
(0.747603 -0.260337 -7.69268e-23)
(0.746059 -0.0929442 -7.41962e-23)
(0.748493 0.0308381 5.69327e-23)
(0.737747 0.143394 -1.67597e-22)
(0.754169 0.280602 -4.39436e-23)
(0.726448 0.129812 1.9264e-22)
(0.817314 -0.217345 9.32091e-23)
(0.827164 -0.288795 -5.93247e-22)
(0.814013 -0.330724 1.03112e-21)
(0.795365 -0.338234 -3.71754e-22)
(0.785399 -0.285369 -1.68409e-22)
(0.786783 -0.186741 -4.81547e-23)
(0.791586 -0.0470696 -4.56713e-22)
(0.79574 0.0953249 3.91958e-22)
(0.793968 0.220575 -2.8986e-22)
(0.794119 0.305981 1.76233e-22)
(0.789878 0.308929 -2.5424e-22)
(0.791466 0.267795 2.53424e-22)
(0.78414 0.138817 -3.0151e-22)
(0.783764 0.00694069 2.8689e-22)
(0.768825 -0.139166 -1.11707e-22)
(0.757443 -0.260414 1.96237e-22)
(0.748154 -0.263812 -3.24444e-22)
(0.747672 -0.260453 -1.25174e-22)
(0.746785 -0.0931947 3.36575e-23)
(0.749713 0.0308642 -9.75268e-23)
(0.739389 0.143163 2.6633e-22)
(0.756664 0.280791 5.50188e-23)
(0.727886 0.130424 2.62063e-23)
(0.818794 -0.217612 9.65517e-22)
(0.829067 -0.288227 -1.09857e-22)
(0.815894 -0.329595 5.62084e-23)
(0.796735 -0.337583 1.91432e-22)
(0.786465 -0.285678 -4.12249e-22)
(0.787762 -0.187736 2.08414e-22)
(0.792639 -0.0482269 4.88101e-22)
(0.796846 0.0944462 -4.62151e-22)
(0.79528 0.220023 3.44634e-23)
(0.795603 0.305847 -2.23636e-22)
(0.791274 0.309093 -4.88325e-22)
(0.792783 0.26829 4.05411e-22)
(0.785343 0.139523 6.3162e-22)
(0.785147 0.00777203 -2.79509e-22)
(0.770174 -0.138121 7.45897e-23)
(0.758202 -0.259763 -3.85951e-22)
(0.748665 -0.263581 -8.64513e-23)
(0.74781 -0.260584 3.25716e-23)
(0.747574 -0.0934843 -5.28629e-23)
(0.751005 0.0308627 4.66288e-23)
(0.741097 0.1429 -1.43708e-23)
(0.759221 0.280982 -9.94797e-23)
(0.729405 0.131058 -1.24775e-22)
(0.820342 -0.21785 7.1331e-23)
(0.831047 -0.287651 -9.53856e-22)
(0.817865 -0.328443 -7.89191e-22)
(0.798175 -0.336914 5.10973e-22)
(0.787567 -0.286 1.27598e-22)
(0.788766 -0.188773 4.29468e-24)
(0.793728 -0.0494391 -3.45775e-22)
(0.79801 0.0935132 2.15867e-22)
(0.796659 0.219425 2.10387e-22)
(0.797149 0.305696 -1.31447e-22)
(0.792721 0.309264 2.17131e-22)
(0.794143 0.268808 -1.51896e-22)
(0.786594 0.140254 -1.10412e-21)
(0.78659 0.00862509 4.77997e-22)
(0.771611 -0.13704 -6.25824e-23)
(0.759049 -0.259082 4.05659e-22)
(0.749257 -0.263335 2.60487e-22)
(0.748019 -0.260728 -1.91085e-23)
(0.748426 -0.0938128 4.26746e-23)
(0.752367 0.0308337 3.17406e-23)
(0.742867 0.142604 -1.03168e-22)
(0.761838 0.281175 1.37781e-22)
(0.731006 0.131715 4.7296e-23)
(0.821957 -0.218058 -2.60488e-22)
(0.8331 -0.287068 -1.41124e-22)
(0.819927 -0.327268 2.25887e-22)
(0.799686 -0.336226 -1.25186e-22)
(0.788706 -0.286333 -4.80507e-22)
(0.789793 -0.18985 4.17136e-23)
(0.794851 -0.0507068 -8.56451e-23)
(0.799229 0.0925253 -7.63807e-23)
(0.798102 0.218781 -1.87185e-22)
(0.798756 0.305527 -3.47423e-23)
(0.79422 0.309443 7.86279e-23)
(0.795544 0.269349 -3.24514e-22)
(0.78789 0.141011 6.39904e-22)
(0.788094 0.00949836 1.22806e-22)
(0.773137 -0.135924 -6.50681e-22)
(0.759986 -0.258372 -7.07404e-22)
(0.749929 -0.263075 1.56563e-22)
(0.748296 -0.260885 -1.06234e-22)
(0.74934 -0.0941799 2.67109e-23)
(0.7538 0.0307772 -5.22322e-23)
(0.7447 0.142276 8.41534e-23)
(0.764514 0.281369 -1.56663e-22)
(0.732688 0.132393 1.48023e-22)
(0.823639 -0.218235 -9.18219e-22)
(0.835223 -0.28648 1.35973e-21)
(0.822078 -0.326071 -6.63055e-23)
(0.801267 -0.335516 -7.68942e-22)
(0.789879 -0.286676 2.62357e-22)
(0.790843 -0.190968 -6.31632e-22)
(0.796008 -0.05203 2.01595e-22)
(0.800502 0.0914819 2.22858e-22)
(0.799608 0.218092 1.93256e-23)
(0.800422 0.305342 4.37557e-22)
(0.795768 0.30963 1.10438e-22)
(0.796986 0.269914 3.93895e-23)
(0.789231 0.141792 2.53808e-22)
(0.789656 0.0103906 -3.27134e-22)
(0.774751 -0.134772 9.93502e-22)
(0.761012 -0.257632 4.76879e-22)
(0.750683 -0.262798 3.61267e-23)
(0.748643 -0.261054 7.28569e-23)
(0.750314 -0.0945856 -2.25393e-23)
(0.7553 0.0306934 9.26426e-23)
(0.746593 0.141916 6.89437e-23)
(0.767247 0.281564 8.36752e-23)
(0.734452 0.133092 -2.62895e-22)
(0.825385 -0.218379 1.94807e-21)
(0.837414 -0.285887 -8.80778e-22)
(0.824315 -0.324853 7.55039e-22)
(0.802919 -0.334781 4.99017e-23)
(0.791088 -0.287025 1.07534e-22)
(0.791914 -0.192124 5.43949e-22)
(0.797195 -0.0534092 2.60808e-23)
(0.801826 0.0903825 -2.0108e-22)
(0.801175 0.217356 -1.45131e-22)
(0.802148 0.305139 2.78419e-23)
(0.797367 0.309825 8.89425e-23)
(0.798469 0.270501 5.30273e-22)
(0.790616 0.142596 -5.20635e-22)
(0.791275 0.0113004 -7.46761e-22)
(0.776451 -0.133587 -8.29729e-22)
(0.762128 -0.256862 -4.04154e-22)
(0.751516 -0.262506 -8.61029e-22)
(0.749058 -0.261235 2.69506e-24)
(0.751347 -0.0950296 3.74448e-23)
(0.756869 0.0305823 -2.54184e-22)
(0.748544 0.141524 1.1314e-22)
(0.770037 0.281759 -7.45405e-23)
(0.736296 0.133812 -2.02149e-22)
(0.827196 -0.21849 -2.73897e-22)
(0.83967 -0.285292 -1.91339e-22)
(0.826637 -0.323613 -4.5793e-22)
(0.804643 -0.334021 1.54437e-22)
(0.792331 -0.287377 -2.74995e-22)
(0.793005 -0.193317 -3.18181e-22)
(0.798412 -0.0548443 7.32634e-23)
(0.803199 0.0892266 2.23243e-22)
(0.8028 0.216574 1.40661e-22)
(0.80393 0.304918 -1.14358e-22)
(0.799015 0.310027 3.00279e-22)
(0.799991 0.27111 -8.44864e-22)
(0.792044 0.143423 8.04128e-22)
(0.79295 0.0122264 8.98393e-22)
(0.778238 -0.13237 6.49006e-22)
(0.763334 -0.256062 7.9352e-23)
(0.752429 -0.262197 2.88289e-23)
(0.749542 -0.261427 -1.27656e-22)
(0.752437 -0.0955116 1.94712e-23)
(0.758503 0.0304441 2.09407e-22)
(0.750553 0.141101 -1.67557e-22)
(0.772882 0.281954 -1.44929e-23)
(0.73822 0.134551 1.87939e-22)
(0.829069 -0.218566 -1.60534e-21)
(0.841988 -0.284696 -9.00376e-22)
(0.829043 -0.322353 1.35734e-21)
(0.806439 -0.333234 8.26757e-22)
(0.793609 -0.287731 4.24631e-22)
(0.794116 -0.194547 -1.41192e-22)
(0.799657 -0.0563355 -3.10626e-22)
(0.80462 0.0880136 -7.71753e-23)
(0.804484 0.215745 -1.82653e-22)
(0.805769 0.304681 -5.92268e-23)
(0.800712 0.310238 -4.40982e-22)
(0.801552 0.271741 9.5615e-22)
(0.793514 0.144272 3.93308e-22)
(0.794679 0.0131675 -4.65977e-22)
(0.780108 -0.131121 2.78894e-22)
(0.76463 -0.255232 8.41983e-23)
(0.753421 -0.261871 9.43438e-22)
(0.750093 -0.261629 3.33359e-22)
(0.753584 -0.0960313 -1.23498e-23)
(0.760203 0.0302788 -1.92345e-22)
(0.752617 0.140647 -3.51092e-22)
(0.77578 0.282148 -9.30888e-23)
(0.740223 0.13531 2.4235e-23)
(0.831005 -0.218604 -3.05639e-22)
(0.844364 -0.284099 7.22722e-22)
(0.83153 -0.321074 -6.09722e-22)
(0.808308 -0.332416 -6.55669e-22)
(0.794921 -0.288084 2.36898e-22)
(0.795245 -0.195811 1.10809e-22)
(0.800928 -0.0578827 1.8646e-22)
(0.806086 0.0867432 2.75506e-23)
(0.806222 0.21487 1.64558e-22)
(0.807663 0.304425 -2.47748e-22)
(0.802457 0.310456 -4.27067e-22)
(0.803152 0.272394 -1.60985e-22)
(0.795025 0.145142 -1.12241e-21)
(0.796461 0.0141223 -1.86944e-22)
(0.782062 -0.129842 -6.36042e-22)
(0.766017 -0.254372 1.9129e-22)
(0.754492 -0.261526 -5.47754e-22)
(0.750712 -0.26184 -1.01467e-22)
(0.754785 -0.0965884 -5.97669e-23)
(0.761967 0.0300867 -2.55599e-23)
(0.754735 0.140163 2.36798e-22)
(0.778731 0.282341 2.86968e-22)
(0.742306 0.136087 -1.72576e-22)
(0.833002 -0.218604 2.22169e-21)
(0.846796 -0.283504 -1.2602e-21)
(0.834095 -0.319776 -5.84465e-23)
(0.81025 -0.331568 -8.11852e-23)
(0.796266 -0.288432 6.43353e-23)
(0.796392 -0.197109 9.22428e-23)
(0.802224 -0.0594858 -3.51842e-23)
(0.807595 0.085415 -4.02959e-23)
(0.808014 0.213947 -3.42253e-23)
(0.809611 0.304152 1.94794e-22)
(0.804251 0.310683 1.29578e-22)
(0.80479 0.273069 -1.18001e-21)
(0.796575 0.146033 4.50793e-22)
(0.798294 0.0150894 -6.65528e-22)
(0.784098 -0.128535 -7.01694e-22)
(0.767494 -0.253481 3.34489e-22)
(0.755642 -0.261163 -1.19498e-22)
(0.751396 -0.26206 1.30594e-22)
(0.75604 -0.0971825 3.45928e-23)
(0.763794 0.0298679 2.1394e-22)
(0.756905 0.139649 -3.34773e-22)
(0.781732 0.282532 -1.16246e-22)
(0.744468 0.136882 1.59048e-23)
(0.835059 -0.218563 -1.28643e-21)
(0.849281 -0.28291 1.52658e-22)
(0.836736 -0.318462 -1.35058e-22)
(0.812266 -0.330686 3.07413e-22)
(0.797646 -0.288773 -5.67468e-22)
(0.797555 -0.198439 -2.85917e-22)
(0.803544 -0.0611447 3.779e-23)
(0.809146 0.0840286 5.36993e-23)
(0.809858 0.212977 -1.618e-22)
(0.811612 0.303862 -2.46216e-22)
(0.806093 0.310917 2.44182e-22)
(0.806465 0.273765 7.7605e-22)
(0.798164 0.146944 -2.98223e-22)
(0.800176 0.0160674 4.48953e-22)
(0.786215 -0.1272 6.671e-22)
(0.769061 -0.252561 -4.01653e-22)
(0.756869 -0.260781 3.55441e-22)
(0.752147 -0.262287 -1.77627e-22)
(0.757347 -0.0978134 -1.4097e-22)
(0.765683 0.0296225 3.48769e-22)
(0.759126 0.139105 -3.91047e-23)
(0.784781 0.282721 1.62046e-22)
(0.746707 0.137695 3.08457e-23)
(0.837176 -0.218478 -1.57164e-21)
(0.851816 -0.282318 8.77597e-22)
(0.83945 -0.317132 -5.42313e-22)
(0.814357 -0.32977 4.43574e-22)
(0.799059 -0.289105 6.91756e-22)
(0.798733 -0.199799 -2.71215e-23)
(0.804886 -0.0628591 -1.7687e-22)
(0.810737 0.0825838 -3.44059e-23)
(0.811751 0.211959 1.71288e-22)
(0.813665 0.303552 4.01123e-22)
(0.807982 0.311158 5.22069e-22)
(0.808177 0.274482 4.49753e-23)
(0.79979 0.147875 -2.11556e-22)
(0.802107 0.0170549 1.54756e-22)
(0.78841 -0.125838 1.48198e-22)
(0.770719 -0.25161 -5.18673e-22)
(0.758173 -0.260379 -1.28974e-23)
(0.752963 -0.262521 4.84828e-23)
(0.758705 -0.0984805 2.08726e-22)
(0.767632 0.0293508 -5.0138e-22)
(0.761395 0.138531 2.57895e-22)
(0.787879 0.282907 -1.79938e-22)
(0.749023 0.138525 3.1848e-23)
(0.839351 -0.218347 -1.27401e-21)
(0.854398 -0.28173 -1.20558e-21)
(0.842235 -0.315788 1.1362e-21)
(0.816522 -0.328819 4.01366e-22)
(0.800508 -0.289423 -3.229e-22)
(0.799926 -0.201187 5.19518e-24)
(0.806249 -0.0646287 9.72209e-23)
(0.812365 0.0810802 1.97839e-23)
(0.813692 0.210894 -1.64339e-22)
(0.815769 0.303224 -3.31383e-22)
(0.809919 0.311407 5.03712e-23)
(0.809926 0.27522 -9.00826e-22)
(0.801453 0.148824 4.82717e-23)
(0.804085 0.0180508 5.90468e-22)
(0.790683 -0.124452 -4.53305e-22)
(0.772467 -0.250629 2.31083e-22)
(0.759554 -0.259956 -2.79597e-22)
(0.753844 -0.262761 -3.74041e-23)
(0.760113 -0.0991835 -6.87721e-23)
(0.769641 0.0290528 2.27534e-22)
(0.763713 0.137929 -6.28308e-23)
(0.791022 0.28309 -7.98173e-23)
(0.751416 0.13937 -7.50291e-23)
(0.841585 -0.218168 1.90938e-21)
(0.857024 -0.281146 -6.37932e-22)
(0.845088 -0.314432 -5.53832e-22)
(0.818761 -0.327831 -7.34844e-23)
(0.801992 -0.289725 2.14587e-22)
(0.801132 -0.202601 -3.20249e-23)
(0.807633 -0.0664531 1.41088e-24)
(0.814029 0.0795178 2.37171e-23)
(0.81568 0.20978 1.21408e-22)
(0.817923 0.302877 -5.07531e-23)
(0.811902 0.311664 -2.45913e-22)
(0.811711 0.275979 6.51043e-22)
(0.803151 0.149792 1.40169e-22)
(0.806108 0.0190539 -2.64903e-22)
(0.793032 -0.123042 -1.81007e-22)
(0.774305 -0.249619 5.58676e-22)
(0.76101 -0.259513 2.38584e-22)
(0.754789 -0.263006 -4.95573e-23)
(0.761568 -0.0999219 7.89038e-23)
(0.771709 0.0287289 -6.17403e-23)
(0.766076 0.137298 2.37438e-22)
(0.794209 0.283268 1.52521e-22)
(0.753884 0.140231 -2.13295e-24)
(0.843876 -0.217937 -3.90683e-22)
(0.859691 -0.280566 2.2628e-22)
(0.848005 -0.313065 -4.76155e-22)
(0.821075 -0.326806 -3.38754e-22)
(0.803512 -0.290009 -1.28269e-22)
(0.802348 -0.20404 1.7304e-22)
(0.809035 -0.0683317 -8.70379e-23)
(0.815729 0.0778963 2.73672e-23)
(0.817713 0.208617 -1.64957e-23)
(0.820125 0.302511 6.59186e-23)
(0.813931 0.311927 4.30704e-23)
(0.813532 0.276758 4.25512e-23)
(0.804885 0.150777 5.16647e-22)
(0.808174 0.020063 6.22362e-22)
(0.795455 -0.121611 3.31489e-23)
(0.776233 -0.248578 -7.66487e-22)
(0.762541 -0.259047 8.33426e-23)
(0.755797 -0.263255 6.93101e-23)
(0.76307 -0.100695 -1.35114e-22)
(0.773835 0.0283792 2.25089e-22)
(0.768484 0.136639 1.99229e-23)
(0.797439 0.283443 -8.74825e-23)
(0.756427 0.141107 1.70071e-22)
(0.846224 -0.217652 -7.97784e-22)
(0.862395 -0.279991 -4.77061e-22)
(0.850984 -0.311689 1.35123e-21)
(0.823463 -0.325742 -2.35399e-22)
(0.80507 -0.290271 -2.27474e-22)
(0.803575 -0.205502 1.26833e-22)
(0.810456 -0.0702641 4.73464e-25)
(0.817463 0.0762158 -2.40319e-23)
(0.819789 0.207406 8.06103e-24)
(0.822375 0.302125 1.16107e-22)
(0.816007 0.312198 4.19178e-24)
(0.815389 0.277557 1.13753e-22)
(0.806652 0.15178 -7.71809e-23)
(0.810282 0.0210767 3.3601e-22)
(0.797951 -0.120159 1.2632e-21)
(0.77825 -0.247508 6.33479e-22)
(0.764147 -0.258558 2.21747e-22)
(0.756868 -0.263507 3.94406e-23)
(0.764617 -0.101503 -5.49974e-23)
(0.776018 0.0280039 -3.67562e-22)
(0.770936 0.135953 2.03925e-22)
(0.80071 0.283612 4.57551e-23)
(0.759043 0.141997 4.76997e-23)
(0.848629 -0.21731 7.25897e-22)
(0.865135 -0.279421 -5.83404e-22)
(0.854021 -0.310306 -5.41251e-22)
(0.825925 -0.324639 -2.3206e-23)
(0.806667 -0.290509 9.93091e-23)
(0.80481 -0.206984 2.01064e-22)
(0.811895 -0.0722498 -3.78801e-23)
(0.81923 0.0744762 1.5288e-23)
(0.821907 0.206146 5.32741e-23)
(0.824672 0.301718 6.11623e-23)
(0.818129 0.312475 1.81249e-22)
(0.817281 0.278377 -1.36771e-23)
(0.808453 0.152799 1.19172e-22)
(0.812431 0.022094 -1.28808e-21)
(0.800518 -0.118688 -1.22277e-21)
(0.780356 -0.246408 -7.57287e-22)
(0.765826 -0.258046 -1.99833e-22)
(0.758 -0.263761 3.67488e-24)
(0.766208 -0.102345 -2.76632e-24)
(0.778256 0.0276032 -3.02633e-23)
(0.773429 0.13524 -3.06223e-22)
(0.804021 0.283775 -5.54045e-23)
(0.761732 0.1429 -1.01895e-22)
(0.851089 -0.216907 1.00503e-22)
(0.867908 -0.278856 -1.45751e-21)
(0.857114 -0.308918 9.15557e-22)
(0.828459 -0.323497 -3.23056e-22)
(0.808304 -0.290719 2.09379e-22)
(0.806051 -0.208484 -1.39225e-23)
(0.813349 -0.0742886 -5.96632e-23)
(0.82103 0.0726771 -1.50255e-25)
(0.824066 0.204837 -1.52935e-23)
(0.827015 0.301291 -2.44838e-22)
(0.820297 0.312758 -3.12522e-22)
(0.81921 0.279216 -7.5129e-22)
(0.810288 0.153835 3.40081e-22)
(0.814618 0.0231138 6.92173e-22)
(0.803155 -0.1172 4.23492e-22)
(0.782549 -0.245279 -1.90028e-22)
(0.767578 -0.25751 -2.61411e-22)
(0.759195 -0.264016 3.34582e-23)
(0.767841 -0.10322 4.5221e-23)
(0.780549 0.0271773 1.89293e-23)
(0.775964 0.134501 2.45301e-22)
(0.807368 0.283932 -2.11484e-23)
(0.764493 0.143816 4.43828e-23)
(0.853604 -0.216441 -1.92455e-22)
(0.870709 -0.278297 1.1493e-21)
(0.860258 -0.307527 1.96928e-23)
(0.831065 -0.322315 -2.95085e-22)
(0.809983 -0.290898 -1.17595e-23)
(0.807298 -0.21 -1.61499e-22)
(0.814818 -0.0763789 4.79891e-23)
(0.822865 0.0708192 2.63668e-23)
(0.826268 0.203478 9.8478e-24)
(0.829403 0.300841 2.63338e-22)
(0.822511 0.313047 1.58676e-22)
(0.821174 0.280075 3.43289e-22)
(0.812155 0.154888 -3.94567e-22)
(0.816843 0.0241348 -5.40942e-23)
(0.805858 -0.115695 5.17915e-22)
(0.784829 -0.244121 8.54477e-22)
(0.769402 -0.25695 5.59788e-23)
(0.760451 -0.264272 -8.9157e-23)
(0.769515 -0.104128 3.27117e-23)
(0.782895 0.0267264 8.71727e-23)
(0.778538 0.133735 -8.03054e-23)
(0.810752 0.284082 -6.32615e-23)
(0.767324 0.144743 -8.71238e-24)
(0.856173 -0.215908 -6.36637e-23)
(0.873538 -0.277739 -1.82206e-22)
(0.863452 -0.306132 4.87235e-24)
(0.833741 -0.321091 8.69506e-23)
(0.811705 -0.29104 1.0339e-22)
(0.80855 -0.211525 7.08605e-23)
(0.8163 -0.0785169 1.6301e-23)
(0.824736 0.0689048 -2.69266e-23)
(0.828513 0.202071 -1.18452e-23)
(0.831838 0.300371 4.18183e-23)
(0.82477 0.313341 -2.81361e-22)
(0.823176 0.280953 5.63833e-23)
(0.814056 0.155954 3.12188e-23)
(0.819104 0.0251544 -1.52083e-22)
(0.808628 -0.114178 -5.35215e-22)
(0.787196 -0.242935 -4.9342e-22)
(0.771297 -0.256363 4.20462e-22)
(0.761767 -0.264525 5.77265e-23)
(0.771228 -0.105068 -1.91278e-23)
(0.785294 0.0262514 2.40691e-23)
(0.781152 0.132945 1.7412e-22)
(0.814171 0.284224 2.12639e-22)
(0.770226 0.145682 -5.19399e-23)
(0.858797 -0.215298 -3.53376e-22)
(0.87639 -0.277179 -1.93571e-22)
(0.866691 -0.304733 4.33765e-22)
(0.836487 -0.319825 -2.16388e-22)
(0.813472 -0.291145 2.68617e-22)
(0.809806 -0.213059 -7.84042e-23)
(0.817793 -0.0807036 -2.41376e-23)
(0.826643 0.0669339 1.63491e-24)
(0.830805 0.200616 1.17277e-23)
(0.834322 0.299878 -6.78636e-24)
(0.827078 0.313639 -4.04219e-22)
(0.825216 0.281847 6.43998e-22)
(0.81599 0.157034 4.58411e-22)
(0.821399 0.0261719 -1.40744e-22)
(0.811461 -0.112646 1.45904e-22)
(0.789647 -0.241718 1.19498e-22)
(0.773263 -0.25575 -1.65173e-22)
(0.763145 -0.264775 -2.15521e-23)
(0.772978 -0.106038 5.61607e-23)
(0.787744 0.0257521 7.65037e-23)
(0.783804 0.13213 -2.99158e-22)
(0.817622 0.284359 -1.74101e-22)
(0.773195 0.146631 6.36894e-23)
(0.861475 -0.2146 -1.05691e-21)
(0.879263 -0.276629 1.62514e-21)
(0.869972 -0.303353 -7.40421e-22)
(0.8393 -0.318537 -8.97286e-23)
(0.815285 -0.291232 1.58373e-22)
(0.811066 -0.21463 -3.18337e-23)
(0.819293 -0.0829702 3.97495e-23)
(0.828591 0.0648821 -2.65214e-23)
(0.83315 0.1991 -3.49958e-23)
(0.836857 0.299359 -7.11798e-24)
(0.829435 0.313944 2.01423e-22)
(0.827296 0.282768 -4.45098e-22)
(0.817958 0.158141 -4.96716e-22)
(0.823727 0.0272017 4.24638e-22)
(0.814356 -0.111097 -1.15271e-22)
(0.792183 -0.240471 -1.1502e-22)
(0.775298 -0.255114 1.41423e-22)
(0.764582 -0.265031 2.42541e-23)
(0.774763 -0.107047 -1.01154e-22)
(0.790244 0.0252238 6.77899e-23)
(0.786495 0.131289 -2.38079e-23)
(0.821105 0.284484 8.70943e-23)
(0.776233 0.14759 -3.19193e-24)
(0.864205 -0.213853 -5.95011e-22)
(0.882153 -0.276142 -7.10884e-22)
(0.873291 -0.302032 1.03645e-21)
(0.842179 -0.317255 -4.47477e-22)
(0.817145 -0.291322 -1.97767e-23)
(0.81233 -0.216262 8.55905e-23)
(0.820799 -0.085353 -2.43479e-23)
(0.830581 0.0627096 2.07661e-23)
(0.835557 0.197495 -4.7556e-24)
(0.839452 0.298812 -9.14081e-23)
(0.831847 0.314275 1.64296e-22)
(0.829421 0.283746 2.62293e-22)
(0.819962 0.159304 3.61061e-23)
(0.826087 0.0282632 -3.76499e-22)
(0.817311 -0.109531 9.59791e-23)
(0.7948 -0.239202 -2.6195e-23)