/*--------------------------------*- C++ -*----------------------------------*\
  =========                 |
  \\      /  F ield         | OpenFOAM: The Open Source CFD Toolbox
   \\    /   O peration     | Website:  https://openfoam.org
    \\  /    A nd           | Version:  7
     \\/     M anipulation  |
\*---------------------------------------------------------------------------*/
FoamFile
{
    version     2.0;
    format      ascii;
    class       volScalarField;
    location    "80";
    object      p;
}
// * * * * * * * * * * * * * * * * * * * * * * * * * * * * * * * * * * * * * //

dimensions      [0 2 -2 0 0 0 0];

internalField   nonuniform List<scalar> 
4575
(
-0.114839
-0.119166
-0.105375
-0.138442
-0.123266
-0.109159
-0.0957242
-0.143865
-0.127442
-0.112689
-0.0989564
-0.0858945
-0.149885
-0.132179
-0.116211
-0.101905
-0.0885652
-0.075894
-0.156576
-0.137459
-0.120246
-0.104759
-0.0909229
-0.0779951
-0.0657316
-0.164036
-0.143347
-0.12477
-0.108079
-0.0930993
-0.0797542
-0.0672564
-0.0554172
-0.172357
-0.149939
-0.129839
-0.111832
-0.0956904
-0.0812421
-0.0684101
-0.0563609
-0.0449625
-0.181623
-0.157321
-0.135544
-0.116066
-0.0986583
-0.0830927
-0.0692008
-0.0569034
-0.0453211
-0.0343809
-0.191889
-0.165578
-0.141969
-0.120867
-0.102042
-0.0852629
-0.0703
-0.0569891
-0.0452475
-0.0341515
-0.0236882
-0.20312
-0.174765
-0.149198
-0.126319
-0.105926
-0.0877843
-0.071661
-0.0573266
-0.0446212
-0.0334569
-0.0228676
-0.0129028
-0.2151
-0.184857
-0.157287
-0.132503
-0.110391
-0.0907377
-0.073308
-0.0578676
-0.0441873
-0.0321119
-0.0215466
-0.0114862
-0.00204638
-0.227286
-0.195654
-0.16622
-0.139479
-0.115516
-0.0942027
-0.0753202
-0.0586302
-0.0438984
-0.030897
-0.0194762
-0.00953167
-2.55538e-05
0.00885457
-0.238622
-0.206641
-0.175813
-0.147236
-0.121365
-0.0982595
-0.0777764
-0.0596925
-0.043768
-0.029769
-0.0174705
-0.00672886
0.00257275
0.0114942
0.0197641
-0.216799
-0.185579
-0.155609
-0.127934
-0.102972
-0.0807561
-0.0611327
-0.0438737
-0.0287387
-0.015495
-0.00392203
0.00611645
0.0147528
0.0230517
0.0306391
-0.224449
-0.194538
-0.164135
-0.135073
-0.108343
-0.0843248
-0.0630303
-0.0442937
-0.0278836
-0.01356
-0.00109185
0.00973453
0.0190468
0.0269971
0.0346314
0.0414456
-0.227229
-0.201057
-0.171878
-0.142346
-0.114238
-0.0884928
-0.0654521
-0.045107
-0.0272818
-0.0117425
0.00175021
0.013425
0.0234857
0.0320502
0.0392991
0.0462311
0.0521583
-0.202812
-0.17725
-0.148858
-0.120249
-0.0931387
-0.0684142
-0.0463814
-0.0270117
-0.0101204
0.00452862
0.0171738
0.0280403
0.0373185
0.0451174
0.0516626
0.0578512
0.0626788
-0.197135
-0.177972
-0.153071
-0.12552
-0.0978821
-0.0718094
-0.0481388
-0.0271418
-0.00877087
0.00716655
0.0209084
0.0326921
0.0427385
0.0512214
0.0582501
0.064112
0.069461
0.0727249
-0.181863
-0.171407
-0.152755
-0.128567
-0.101908
-0.0752834
-0.0502853
-0.0276988
-0.00776261
0.00958854
0.0245544
0.0373744
0.0482854
0.0575029
0.0651856
0.0714649
0.0766933
0.0810168
0.0820278
-0.155363
-0.14531
-0.127211
-0.103784
-0.078062
-0.0524924
-0.0286023
-0.00712727
0.0117259
0.0280388
0.0420177
0.0539034
0.0639321
0.0723142
0.0792011
0.0847738
0.0894141
0.0925305
0.0912609
-0.12885
-0.128526
-0.118898
-0.101391
-0.0787698
-0.0540273
-0.0295491
-0.00679702
0.0135426
0.0312932
0.0465516
0.0595301
0.0704708
0.0796091
0.0871508
0.0932502
0.0981454
0.10215
0.103912
0.103267
-0.101219
-0.101405
-0.0922216
-0.0753443
-0.0535706
-0.0298474
-0.00649361
0.0150938
0.0342768
0.0509079
0.0650981
0.0770649
0.0870514
0.0952919
0.101989
0.107305
0.111507
0.114816
0.115797
0.115919
-0.0733531
-0.0740541
-0.0653361
-0.049123
-0.0282352
-0.00556653
0.0166333
0.0370328
0.0550413
0.0705386
0.0836491
0.0945948
0.103619
0.110956
0.116806
0.121337
0.124826
0.127419
0.127785
0.128005
-0.0453092
-0.0465289
-0.0382957
-0.0227787
-0.00281179
0.0187706
0.0397907
0.0589826
0.0758015
0.0901534
0.102175
0.112092
0.120149
0.126577
0.131576
0.135319
0.138081
0.139965
0.139774
0.139788
-0.017145
-0.0188852
-0.0111548
0.00363645
0.0226511
0.0431193
0.0629376
0.0809056
0.0965228
0.109721
0.120646
0.12953
0.136614
0.14213
0.146275
0.149227
0.151252
0.152432
0.151682
0.151345
0.0110821
0.00882077
0.0160316
0.0300705
0.0481048
0.0674347
0.086033
0.102764
0.117171
0.129208
0.139033
0.146879
0.152989
0.157591
0.16088
0.163036
0.164319
0.164795
0.163468
0.162695
0.0393145
0.0365325
0.0432086
0.0564713
0.0735008
0.0916722
0.109036
0.12452
0.13771
0.148583
0.157306
0.164114
0.169248
0.172934
0.175367
0.176725
0.177262
0.177031
0.175113
0.173852
0.0674945
0.0641933
0.0703212
0.0827867
0.0987908
0.115787
0.131905
0.146137
0.158107
0.167815
0.175436
0.181205
0.185365
0.188137
0.189715
0.190274
0.190062
0.189123
0.186601
0.18482
0.0955646
0.0917469
0.0973148
0.108965
0.123927
0.139735
0.1546
0.167576
0.178327
0.186871
0.193392
0.198127
0.201314
0.203175
0.2039
0.203662
0.202701
0.201053
0.197921
0.195597
0.123468
0.119137
0.124135
0.134955
0.14886
0.163473
0.177081
0.188802
0.198336
0.205721
0.211147
0.214851
0.217072
0.218027
0.217901
0.216869
0.215162
0.212806
0.209061
0.206179
0.151147
0.146307
0.150728
0.160706
0.173545
0.186956
0.199308
0.209776
0.218099
0.224332
0.22867
0.231352
0.232613
0.232668
0.231699
0.229877
0.227426
0.224366
0.220009
0.178546
0.173203
0.17704
0.186167
0.197934
0.210142
0.22124
0.230464
0.237585
0.242675
0.245935
0.247604
0.247914
0.247076
0.245271
0.242667
0.239479
0.23572
0.230755
0.205609
0.19977
0.203018
0.211288
0.221981
0.232988
0.24284
0.250828
0.256759
0.260718
0.262912
0.263579
0.262949
0.26123
0.258599
0.255221
0.251303
0.246854
0.241287
0.232281
0.225952
0.228611
0.236021
0.24564
0.255453
0.264069
0.270835
0.275589
0.278432
0.279575
0.279254
0.277697
0.275109
0.271663
0.267521
0.262882
0.257752
0.258509
0.251699
0.253767
0.260318
0.268868
0.277496
0.284889
0.290449
0.294044
0.295788
0.295895
0.294603
0.292134
0.28869
0.284442
0.279549
0.274202
0.268402
0.284238
0.276957
0.278437
0.284132
0.29162
0.299077
0.305264
0.309637
0.312093
0.312757
0.311848
0.309601
0.306237
0.301954
0.29692
0.291289
0.285245
0.27879
0.309419
0.301675
0.302571
0.307416
0.313855
0.320156
0.325158
0.328366
0.329704
0.329311
0.327406
0.324225
0.319985
0.314881
0.309076
0.302723
0.295999
0.288902
0.333999
0.325804
0.326122
0.330126
0.33553
0.340696
0.344535
0.346603
0.346849
0.345422
0.342546
0.338452
0.333356
0.32745
0.320893
0.313836
0.306446
0.357929
0.349296
0.349043
0.352219
0.356606
0.360659
0.363362
0.364317
0.363498
0.361064
0.357241
0.352258
0.34633
0.339642
0.332354
0.32461
0.316574
0.381162
0.372103
0.371289
0.373652
0.377043
0.38001
0.381605
0.381477
0.379623
0.376211
0.371468
0.365623
0.358886
0.35144
0.343441
0.335032
0.326366
0.403651
0.394179
0.392817
0.394384
0.396803
0.398713
0.399233
0.398054
0.395197
0.390837
0.385204
0.378524
0.371004
0.362824
0.354138
0.345084
0.335811
0.425351
0.415482
0.413584
0.414375
0.415851
0.416735
0.416214
0.41402
0.410194
0.40492
0.398427
0.39094
0.382665
0.373778
0.364429
0.354753
0.446219
0.435968
0.43355
0.433589
0.43415
0.434044
0.43252
0.429348
0.424589
0.418434
0.411114
0.402853
0.393852
0.384284
0.374297
0.364024
0.466215
0.455597
0.452676
0.451988
0.451668
0.450609
0.44812
0.44401
0.438357
0.431359
0.423247
0.414243
0.404546
0.394326
0.383729
0.372884
0.485297
0.47433
0.470926
0.469538
0.468372
0.4664
0.462989
0.457982
0.451475
0.443672
0.434804
0.425092
0.414731
0.403889
0.39271
0.38132
0.50343
0.49213
0.488263
0.486206
0.484232
0.48139
0.477101
0.471241
0.463922
0.455353
0.445767
0.435382
0.42439
0.412959
0.401227
0.389318
0.520577
0.508964
0.504656
0.501961
0.499219
0.495552
0.490431
0.483763
0.475676
0.466384
0.456118
0.445097
0.433509
0.42152
0.409265
0.536704
0.524796
0.520071
0.516774
0.513307
0.50886
0.502955
0.495528
0.486718
0.476745
0.465841
0.454221
0.442074
0.429559
0.416814
0.551781
0.539598
0.53448
0.530616
0.526468
0.521292
0.514654
0.506515
0.49703
0.48642
0.47492
0.462741
0.45007
0.437066
0.423862
0.565778
0.553341
0.547856
0.543463
0.538681
0.532826
0.525505
0.516706
0.506593
0.495394
0.483339
0.470642
0.457485
0.444027
0.430398
0.578669
0.565997
0.560173
0.555291
0.549923
0.543441
0.535492
0.526084
0.515394
0.50365
0.491086
0.477911
0.464308
0.450432
0.436411
0.590427
0.577542
0.571408
0.566078
0.560175
0.55312
0.544596
0.534634
0.523416
0.511177
0.498148
0.484539
0.470528
0.456271
0.441894
0.601032
0.587956
0.58154
0.575806
0.569417
0.561845
0.552803
0.54234
0.530647
0.517962
0.504514
0.490513
0.476136
0.461535
0.446838
0.610463
0.597217
0.590551
0.584455
0.577635
0.569602
0.560099
0.54919
0.537076
0.523993
0.510174
0.495824
0.481122
0.466217
0.451235
0.618702
0.605309
0.598424
0.592011
0.584813
0.576377
0.566472
0.555174
0.542691
0.529262
0.515118
0.500465
0.485479
0.470309
0.455078
0.625734
0.612217
0.605145
0.598461
0.59094
0.58216
0.57191
0.560281
0.547484
0.53376
0.51934
0.504429
0.489201
0.473805
0.458363
0.631546
0.617929
0.610702
0.603794
0.596005
0.586941
0.576407
0.564504
0.551447
0.53748
0.522832
0.507708
0.492282
0.476699
0.461085
0.636128
0.622434
0.615084
0.608
0.6
0.590711
0.579953
0.567835
0.554575
0.540416
0.52559
0.510299
0.494717
0.478989
0.639473
0.625724
0.618286
0.611072
0.602918
0.593466
0.582545
0.57027
0.556862
0.542565
0.527609
0.512198
0.496503
0.480671
0.641574
0.627795
0.620302
0.613007
0.604756
0.595201
0.584178
0.571805
0.558306
0.543923
0.528888
0.513402
0.497638
0.481742
0.64243
0.628643
0.621129
0.613801
0.605511
0.595914
0.584851
0.57244
0.558904
0.544489
0.529423
0.51391
0.498121
0.482201
0.642039
0.628269
0.620768
0.613455
0.605183
0.595606
0.584563
0.572172
0.558657
0.544262
0.529216
0.513722
0.497951
0.482048
0.640404
0.626674
0.619219
0.61197
0.603773
0.594277
0.583316
0.571005
0.557566
0.543244
0.528267
0.512838
0.497129
0.481285
0.63753
0.623864
0.616489
0.609351
0.601286
0.591931
0.581112
0.56894
0.555634
0.541437
0.526579
0.511262
0.495658
0.479912
0.464147
0.633424
0.619845
0.612582
0.605603
0.597728
0.588574
0.577958
0.565983
0.552865
0.538846
0.524155
0.508996
0.49354
0.477934
0.462299
0.628096
0.614626
0.60751
0.600736
0.593105
0.584213
0.57386
0.56214
0.549265
0.535475
0.521001
0.506044
0.490779
0.475353
0.459886
0.621557
0.608221
0.601282
0.59476
0.587429
0.578857
0.568826
0.557418
0.54484
0.531332
0.517121
0.502413
0.487382
0.472174
0.456913
0.613823
0.600643
0.593913
0.587688
0.580711
0.572517
0.562866
0.551826
0.5396
0.526423
0.512525
0.49811
0.483353
0.468403
0.453385
0.604911
0.591908
0.585418
0.579534
0.572964
0.565206
0.555991
0.545376
0.533554
0.520759
0.507219
0.493141
0.478701
0.464048
0.449307
0.59484
0.582036
0.575817
0.570316
0.564205
0.556937
0.548217
0.53808
0.526714
0.514349
0.501215
0.487517
0.473433
0.459115
0.444688
0.583632
0.571049
0.565128
0.560053
0.554451
0.547728
0.539556
0.529952
0.519093
0.507207
0.494522
0.481247
0.46756
0.453613
0.439535
0.571311
0.55897
0.553375
0.548766
0.543721
0.537596
0.530026
0.521007
0.510704
0.499344
0.487154
0.474342
0.461091
0.447553
0.433857
0.557903
0.545824
0.540583
0.536478
0.532037
0.526561
0.519645
0.511261
0.501564
0.490775
0.479122
0.466816
0.454037
0.440943
0.427664
0.543437
0.53164
0.526778
0.523213
0.519422
0.514645
0.508433
0.500733
0.491689
0.481516
0.470443
0.45868
0.446412
0.433796
0.420966
0.527944
0.516449
0.511989
0.509
0.505902
0.50187
0.49641
0.489443
0.481096
0.471583
0.46113
0.449949
0.438227
0.426124
0.413775
0.401297
0.511457
0.500281
0.496246
0.493866
0.491502
0.48826
0.4836
0.47741
0.469806
0.460994
0.4512
0.440639
0.429498
0.41794
0.406101
0.394103
0.49401
0.483172
0.479584
0.477843
0.47625
0.473843
0.470026
0.464659
0.457839
0.449768
0.440672
0.430765
0.420238
0.409257
0.397959
0.386468
0.475641
0.465158
0.462035
0.460963
0.460178
0.458644
0.455714
0.451211
0.445216
0.437925
0.429563
0.420345
0.410464
0.40009
0.389361
0.378403
0.456389
0.446276
0.443637
0.443259
0.443316
0.442695
0.44069
0.437091
0.431961
0.425486
0.417892
0.409396
0.400193
0.390454
0.380321
0.369923
0.436293
0.426567
0.424428
0.424768
0.425698
0.426024
0.424983
0.422326
0.418096
0.412473
0.40568
0.397937
0.389441
0.380365
0.370854
0.36104
0.351061
0.415397
0.406073
0.404448
0.405527
0.407358
0.408664
0.408622
0.406942
0.403647
0.398909
0.392949
0.385988
0.378226
0.369839
0.360975
0.351768
0.342363
0.393744
0.384836
0.383738
0.385575
0.388331
0.390648
0.391637
0.390967
0.388639
0.384817
0.37972
0.373569
0.366568
0.358895
0.350701
0.342122
0.333311
0.371381
0.362901
0.362341
0.364952
0.368656
0.37201
0.37406
0.374431
0.3731
0.370223
0.366016
0.360701
0.354485
0.347549
0.340047
0.332117
0.323919
0.348354
0.340315
0.340301
0.343699
0.34837
0.352786
0.355923
0.357362
0.357058
0.355152
0.35186
0.347406
0.341998
0.335821
0.32903
0.321769
0.314202
0.306328
0.324712
0.317125
0.317665
0.32186
0.327514
0.333012
0.33726
0.339793
0.340539
0.33963
0.337277
0.333706
0.329127
0.323728
0.317668
0.311092
0.304173
0.29691
0.300505
0.29338
0.294478
0.299479
0.306129
0.312725
0.318106
0.321755
0.323575
0.323684
0.322292
0.319624
0.315893
0.311291
0.305978
0.300104
0.293848
0.28721
0.275783
0.269131
0.270791
0.276601
0.284255
0.291965
0.298496
0.303281
0.306194
0.307342
0.30693
0.305183
0.302318
0.298528
0.293979
0.288821
0.283241
0.277242
0.270347
0.2506
0.244429
0.24665
0.253272
0.261937
0.270771
0.278466
0.284404
0.288429
0.290633
0.291217
0.290408
0.288424
0.285462
0.281689
0.277259
0.272367
0.267019
0.260693
0.225008
0.219325
0.222108
0.22954
0.239218
0.249183
0.258053
0.265158
0.270309
0.273585
0.27518
0.275324
0.274234
0.272112
0.269127
0.265437
0.261243
0.256556
0.250807
0.199061
0.193874
0.197215
0.205453
0.216142
0.227242
0.237295
0.245577
0.251867
0.256227
0.258847
0.259954
0.25977
0.258499
0.256312
0.253371
0.249884
0.245867
0.240702
0.236463
0.172814
0.168128
0.172023
0.181059
0.192756
0.204989
0.216231
0.225698
0.233135
0.238589
0.242244
0.244325
0.245057
0.244645
0.243265
0.24108
0.238305
0.234964
0.230389
0.226702
0.146323
0.142143
0.146584
0.156409
0.169104
0.182469
0.194899
0.205555
0.214147
0.220703
0.2254
0.228463
0.230117
0.230572
0.230005
0.228582
0.226523
0.223862
0.219878
0.216737
0.119642
0.115972
0.120952
0.131551
0.145234
0.159722
0.173338
0.185185
0.194935
0.202598
0.208342
0.212393
0.214976
0.216302
0.216553
0.215894
0.214555
0.212576
0.209182
0.206572
0.0928287
0.0896717
0.0951798
0.106538
0.121192
0.136792
0.151589
0.164624
0.175533
0.184305
0.191101
0.196142
0.199657
0.201859
0.20293
0.203037
0.202418
0.201121
0.19831
0.196213
0.0659391
0.0632971
0.069321
0.0814186
0.0970263
0.113724
0.12969
0.143909
0.155975
0.165856
0.173704
0.179737
0.184186
0.187264
0.189156
0.190031
0.19013
0.189512
0.187274
0.18566
0.0390297
0.0369036
0.0434296
0.0562452
0.0727835
0.0905601
0.107684
0.123077
0.136295
0.147282
0.15618
0.163206
0.168588
0.172542
0.175256
0.176895
0.177708
0.177769
0.176087
0.174906
0.0121571
0.0105468
0.0175595
0.0310685
0.0485116
0.0673448
0.0856088
0.102165
0.116527
0.128615
0.138559
0.146574
0.152887
0.157717
0.16125
0.163651
0.165173
0.16591
0.164766
0.163939
-0.0146227
-0.0157184
-0.00823559
0.00593964
0.0242582
0.0441222
0.0635059
0.0812105
0.0967051
0.109886
0.120871
0.12987
0.137111
0.142812
0.147163
0.150322
0.152544
0.15396
0.153348
0.152734
-0.0412535
-0.0418372
-0.0339023
-0.0190906
7.09238e-05
0.020936
0.0414154
0.0602495
0.0768631
0.0911256
0.103143
0.11312
0.121283
0.127853
0.133018
0.136932
0.139841
0.141943
0.141907
0.141208
-0.0676794
-0.0677556
-0.0593874
-0.0439715
-0.024003
-0.00217008
0.0193774
0.0393193
0.057035
0.0723665
0.0854059
0.0963518
0.105431
0.112863
0.11884
0.123508
0.127086
0.129852
0.130537
0.129103
-0.0934197
-0.0846381
-0.0686527
-0.0479164
-0.0251525
-0.00256821
0.0184563
0.0372543
0.0536389
0.0676873
0.079592
0.089578
0.0978659
0.104652
0.110078
0.114311
0.11769
0.119635
0.117576
-0.118779
-0.109603
-0.0930852
-0.071623
-0.0479684
-0.024382
-0.00230324
0.0175543
0.0349737
0.0500159
0.0628671
0.0737503
0.0828866
0.0904767
0.0966692
0.101587
0.105544
0.108646
0.108735
-0.134233
-0.11722
-0.0950768
-0.0705752
-0.046025
-0.0229236
-0.0020322
0.0164008
0.0324196
0.0462027
0.0579716
0.0679477
0.0763364
0.0833002
0.0889428
0.0935225
0.0976264
0.0998525
-0.141009
-0.118233
-0.092931
-0.0674588
-0.0433697
-0.0214731
-0.00205007
0.0149254
0.0296239
0.0422649
0.0530703
0.0622496
0.0699805
0.0763669
0.0816123
0.086537
0.0902606
-0.164406
-0.141046
-0.114995
-0.0886455
-0.0636069
-0.0407368
-0.0203501
-0.00244002
0.013155
0.0266521
0.0382738
0.0482327
0.0567189
0.0638441
0.0697715
0.0754182
0.0801969
-0.163474
-0.136726
-0.109548
-0.0836014
-0.0597925
-0.0384709
-0.0196509
-0.00318036
0.0111545
0.0235768
0.0343012
0.0435267
0.0513741
0.0579802
0.0643067
0.0699328
-0.158086
-0.130131
-0.10332
-0.0786099
-0.0563852
-0.036682
-0.0193595
-0.00420738
0.00899709
0.0204703
0.0304171
0.0389662
0.0462365
0.0532066
0.059571
-0.150358
-0.122731
-0.0971599
-0.0740661
-0.0535091
-0.0353601
-0.0194136
-0.00544748
0.00675536
0.0174038
0.0266328
0.0345476
0.0421216
0.0491404
-0.170195
-0.141803
-0.115414
-0.0914877
-0.0701086
-0.0511608
-0.0344446
-0.0197395
-0.00682823
0.00450038
0.0143869
0.0229251
0.0310676
0.038674
-0.160506
-0.133344
-0.108625
-0.0864575
-0.0667407
-0.0492816
-0.0338618
-0.0202649
-0.00827863
0.00224243
0.0113832
0.0200658
0.0282133
-0.150925
-0.125454
-0.102534
-0.0820797
-0.063906
-0.0477976
-0.0335392
-0.0209185
-0.00978598
-6.29686e-05
0.00913615
0.0177931
-0.141951
-0.118317
-0.0971585
-0.0783001
-0.0615303
-0.0466357
-0.0334045
-0.0216834
-0.0113982
-0.00170315
0.00743945
-0.133785
-0.111958
-0.0924467
-0.0750441
-0.0595393
-0.0457219
-0.0334351
-0.0226077
-0.0124355
-0.00282684
-0.126461
-0.106329
-0.0883233
-0.0722354
-0.0578565
-0.0450269
-0.0336771
-0.0230455
-0.0129878
-0.119932
-0.101353
-0.0847099
-0.0697947
-0.0564453
-0.0445929
-0.0335191
-0.023028
-0.11412
-0.0969494
-0.0815236
-0.0676776
-0.0553428
-0.0438437
-0.0329343
-0.108941
-0.0930309
-0.0787118
-0.0659152
-0.0540078
-0.0426954
-0.104305
-0.0895371
-0.0762994
-0.0640011
-0.0523013
-0.100143
-0.086486
-0.0738144
-0.061743
-0.0834394
-0.0710125
-0.0801024
0.0841464
0.0747471
0.0650375
0.0556024
0.0458357
0.0357857
0.0256925
0.0156182
0.0055599
-0.00445741
-0.0143996
-0.0242453
-0.0339818
-0.0435982
-0.0530849
-0.0624336
-0.071638
-0.0806924
-0.089592
-0.0983325
-0.10691
0.0735402
0.0638599
0.0531639
0.0437849
0.0347227
0.0254307
0.0161202
0.00695835
-0.00206994
-0.0109934
-0.0198044
-0.0284909
-0.0370503
-0.0454832
-0.053789
-0.0619661
-0.0700131
-0.0779291
-0.085713
-0.0933638
-0.10088
0.0614153
0.0520528
0.0418076
0.0331839
0.0251884
0.0170288
0.00880241
0.000717385
-0.00721467
-0.015043
-0.0227802
-0.030417
-0.0379488
-0.0453763
-0.0526998
-0.0599177
-0.0670285
-0.0740306
-0.0809228
-0.0877039
-0.0943729
0.049611
0.040978
0.0317819
0.0241329
0.0171072
0.00993534
0.0026634
-0.00450447
-0.0115326
-0.018464
-0.0253173
-0.0320853
-0.0387609
-0.045343
-0.0518322
-0.0582281
-0.0645298
-0.0707367
-0.0768487
-0.0828657
-0.0887881
0.0394141
0.0316789
0.0235939
0.0168437
0.0106258
0.00428024
-0.00216262
-0.00852321
-0.0147595
-0.0209056
-0.026981
-0.0329822
-0.0389027
-0.0447415
-0.0504998
-0.0561784
-0.0617773
-0.0672967
-0.072737
-0.0780988
-0.0833827
0.0308628
0.0239521
0.0168478
0.0108625
0.0053141
-0.000337249
-0.00606645
-0.0117246
-0.0172736
-0.0227407
-0.0281439
-0.0334821
-0.0387504
-0.0439482
-0.0490767
-0.0541372
-0.0591302
-0.0640563
-0.0689161
-0.0737105
-0.0784403
0.0236602
0.0174651
0.0112211
0.00591447
0.000956868
-0.00408321
-0.00918
-0.0142132
-0.0191526
-0.0240203
-0.0288316
-0.0335866
-0.0382821
-0.0429177
-0.0474947
-0.0520145
-0.0564779
-0.0608858
-0.0652389
-0.0695383
-0.073785
0.0175874
0.0120267
0.00654416
0.0018458
-0.00258346
-0.00708258
-0.0116216
-0.0161039
-0.0205071
-0.0248493
-0.0291432
-0.0333892
-0.0375849
-0.0417303
-0.0458266
-0.049875
-0.0538766
-0.0578322
-0.0617425
-0.0656087
-0.0694315
0.012504
0.00751448
0.0027023
-0.00145739
-0.0054174
-0.00943919
-0.0134879
-0.017486
-0.021418
-0.0252991
-0.0291393
-0.0329388
-0.0366961
-0.0404113
-0.0440856
-0.0477201
-0.0513158
-0.0548735
-0.058394
-0.0618783
-0.0653273
0.00828695
0.00381041
-0.000416377
-0.00410366
-0.00764917
-0.0112503
-0.0148682
-0.0184411
-0.0219589
-0.0254347
-0.028876
-0.0322832
-0.0356551
-0.0389919
-0.0422948
-0.0455648
-0.0488027
-0.0520093
-0.0551854
-0.0583319
-0.0614495
0.00481933
0.000800979
-0.00291644
-0.00619018
-0.00936936
-0.012599
-0.0158377
-0.0190362
-0.0221891
-0.0253075
-0.0283973
-0.0314584
-0.0344902
-0.0374929
-0.0404676
-0.043415
-0.0463361
-0.0492315
-0.0521019
-0.0549481
-0.0577707
0.0019963
-0.0016136
-0.00488794
-0.00779922
-0.010654
-0.0135549
-0.0164589
-0.0193271
-0.0221578
-0.0249604
-0.0277393
-0.0304943
-0.033225
-0.0359317
-0.0386153
-0.0412766
-0.0439161
-0.0465347
-0.0491328
-0.0517111
-0.0542704
-0.0002722
-0.00351799
-0.00640662
-0.00899975
-0.0115667
-0.014176
-0.016784
-0.0193602
-0.0219056
-0.0244284
-0.0269317
-0.0294152
-0.0318786
-0.0343222
-0.0367468
-0.0391531
-0.0415417
-0.043913
-0.0462677
-0.0486062
-0.0509293
-0.00206321
-0.00498424
-0.00753677
-0.00985028
-0.0121614
-0.0145117
-0.0168574
-0.0191749
-0.0214671
-0.0237413
-0.0259996
-0.0282415
-0.0304668
-0.0326759
-0.0348694
-0.037048
-0.039212
-0.041362
-0.0434984
-0.0456217
-0.0477324
-0.00344301
-0.00607419
-0.00833352
-0.0104009
-0.0124843
-0.014604
-0.0167167
-0.0188043
-0.0208715
-0.0229243
-0.0249641
-0.0269905
-0.0290032
-0.0310027
-0.0329895
-0.034964
-0.0369267
-0.0388779
-0.0408181
-0.0427476
-0.0446668
-0.00446883
-0.00684109
-0.00884428
-0.0106946
-0.0125749
-0.0144888
-0.0163942
-0.0182772
-0.0201436
-0.0219988
-0.0238435
-0.0256772
-0.0274996
-0.0293113
-0.0311126
-0.0329039
-0.0346855
-0.0364579
-0.0382212
-0.0399759
-0.0417223
-0.00519018
-0.00733089
-0.00910996
-0.0107685
-0.0124673
-0.0141972
-0.0159177
-0.0176182
-0.0193053
-0.0209836
-0.0226537
-0.0243146
-0.0259664
-0.0276093
-0.0292439
-0.0308703
-0.0324889
-0.0340999
-0.0357036
-0.0373003
-0.0388902
-0.00564998
-0.00758337
-0.00916605
-0.0106548
-0.0121911
-0.0137563
-0.0153115
-0.0168489
-0.0183754
-0.0198953
-0.0214086
-0.0229144
-0.0244128
-0.025904
-0.0273884
-0.0288663
-0.0303377
-0.031803
-0.0332624
-0.0347161
-0.0361643
-0.00588559
-0.00763315
-0.00904344
-0.0103816
-0.0117722
-0.0131897
-0.0145969
-0.0159882
-0.0173709
-0.0187485
-0.0201209
-0.0214872
-0.0228475
-0.0242019
-0.0255509
-0.0268946
-0.028233
-0.0295665
-0.0308952
-0.0322193
-0.0335389
-0.00592969
-0.00751047
-0.00876922
-0.00997366
-0.0112335
-0.0125183
-0.0137927
-0.0150531
-0.0163064
-0.0175561
-0.0188017
-0.0200424
-0.0212781
-0.0225092
-0.0237359
-0.0249582
-0.0261764
-0.0273906
-0.0286008
-0.0298073
-0.0310103
-0.00581096
-0.00724188
-0.00836727
-0.00945276
-0.010595
-0.0117604
-0.0129157
-0.0140583
-0.0151954
-0.0163299
-0.0174612
-0.0185886
-0.019712
-0.0208316
-0.0219477
-0.0230603
-0.0241695
-0.0252755
-0.0263783
-0.0274781
-0.028575
-0.00555469
-0.00685082
-0.00785867
-0.00883821
-0.00987465
-0.0109325
-0.0119806
-0.0130175
-0.0140499
-0.0150805
-0.0161088
-0.0171338
-0.0181557
-0.0191745
-0.0201905
-0.0212037
-0.0222142
-0.023222
-0.0242273
-0.0252302
-0.0262307
-0.00518325
-0.006358
-0.00726215
-0.00814722
-0.00908832
-0.0100492
-0.0110009
-0.0119425
-0.0128806
-0.0138175
-0.0147527
-0.0156853
-0.0166153
-0.0175429
-0.0184683
-0.0193914
-0.0203123
-0.0212312
-0.0221479
-0.0230627
-0.0239756
-0.00471645
-0.00578181
-0.00659436
-0.0073951
-0.00825024
-0.00912368
-0.00998844
-0.0108442
-0.0116972
-0.0125495
-0.0134006
-0.0142496
-0.0150965
-0.0159415
-0.0167847
-0.0176262
-0.0184658
-0.0193038
-0.0201401
-0.0209748
-0.0218079
-0.00417189
-0.00513858
-0.00587013
-0.0065955
-0.00737308
-0.00816754
-0.00895393
-0.0097323
-0.0105085
-0.0112843
-0.0120593
-0.0128326
-0.0136043
-0.0143745
-0.0151432
-0.0159105
-0.0166764
-0.017441
-0.0182042
-0.018966
-0.0197266
-0.00356521
-0.00444283
-0.00510266
-0.00576062
-0.00646817
-0.00719127
-0.00790692
-0.00861542
-0.00932216
-0.0100289
-0.010735
-0.0114398
-0.0121433
-0.0128457
-0.0135468
-0.0142469
-0.0149458
-0.0156436
-0.0163403
-0.0170359
-0.0177305
-0.00291027
-0.00370743
-0.00430371
-0.0049013
-0.00554559
-0.00620416
-0.00685592
-0.00750131
-0.00814529
-0.00878946
-0.00943322
-0.010076
-0.0107177
-0.0113585
-0.0119984
-0.0126373
-0.0132754
-0.0139125
-0.0145488
-0.0151842
-0.0158187
-0.00221937
-0.0029438
-0.00348368
-0.00402717
-0.00461428
-0.00521448
-0.00580849
-0.00639682
-0.00698403
-0.00757156
-0.00815885
-0.00874538
-0.00933106
-0.00991599
-0.0105002
-0.0110837
-0.0116664
-0.0122485
-0.0128297
-0.0134103
-0.0139901
-0.00150341
-0.00216204
-0.0026518
-0.00314675
-0.00368215
-0.00422952
-0.00477129
-0.00530802
-0.00584384
-0.00638006
-0.00691617
-0.00745168
-0.00798652
-0.00852076
-0.00905442
-0.0095875
-0.01012
-0.0106518
-0.0111831
-0.0117137
-0.0122438
-0.00077195
-0.00137104
-0.0018162
-0.00226755
-0.00275615
-0.00325567
-0.00375017
-0.00424018
-0.00472946
-0.00521917
-0.00570886
-0.00619809
-0.00668677
-0.00717498
-0.00766272
-0.00814998
-0.00863674
-0.00912299
-0.00960872
-0.0100939
-0.0105786
-3.34045e-05
-0.00057857
-0.000983967
-0.00139612
-0.00184236
-0.00229851
-0.00275019
-0.00319789
-0.00364498
-0.00409252
-0.00454009
-0.0049873
-0.00543407
-0.00588045
-0.00632645
-0.00677205
-0.00721723
-0.00766198
-0.00810627
-0.00855012
-0.0089935
0.000704908
0.000208604
-0.000161286
-0.000538139
-0.000945998
-0.00136284
-0.00177571
-0.00218505
-0.00259388
-0.00300314
-0.00341248
-0.00382153
-0.00423021
-0.00463857
-0.00504661
-0.00545431
-0.00586166
-0.00626862
-0.00667519
-0.00708136
-0.00748711
0.00143665
0.000984646
0.000646528
0.000301497
-7.15703e-05
-0.000452739
-0.000830407
-0.00120495
-0.00157906
-0.00195357
-0.00232817
-0.00270253
-0.00307659
-0.00345038
-0.00382388
-0.0041971
-0.00457
-0.00494256
-0.00531477
-0.00568661
-0.00605807
0.00215639
0.00174457
0.00143495
0.00111865
0.000777141
0.000428356
8.2645e-05
-0.000260308
-0.000602874
-0.000945805
-0.00128883
-0.00163166
-0.00197422
-0.00231654
-0.00265862
-0.00300044
-0.00334197
-0.00368319
-0.00402409
-0.00436465
-0.00470485
0.00285952
0.00248418
0.00220016
0.00190984
0.00159699
0.00127762
0.000960944
0.000646698
0.000332801
1.85832e-05
-0.000295719
-0.000609852
-0.000923752
-0.00123743
-0.00155089
-0.0018641
-0.00217705
-0.00248971
-0.00280207
-0.00311411
-0.00342581
0.00354219
0.00319997
0.00293902
0.00267223
0.00238542
0.0020928
0.00180252
0.00151438
0.00122656
0.00093847
0.00065031
0.000362304
7.45117e-05
-0.000213074
-0.00050045
-0.000787597
-0.00107449
-0.00136111
-0.00164745
-0.00193347
-0.00221918
0.00420123
0.0038891
0.00364898
0.00340355
0.00314041
0.00287212
0.00260586
0.00234149
0.00207741
0.00181311
0.00154877
0.00128456
0.00102056
0.00075676
0.00049316
0.000229782
-3.3353e-05
-0.000296224
-0.000558815
-0.00082111
-0.00108309
0.00483408
0.0045493
0.00432805
0.00410202
0.00386043
0.0036143
0.00336991
0.00312719
0.00288475
0.00264213
0.00239949
0.00215699
0.00191468
0.00167257
0.00143066
0.00118896
0.000947507
0.000706309
0.000465386
0.000224754
-1.5574e-05
0.00543875
0.00517884
0.00497472
0.00476636
0.00454439
0.00431845
0.004094
0.00387102
0.0036483
0.00342546
0.00320261
0.00297991
0.0027574
0.00253508
0.00231296
0.00209105
0.00186939
0.00164798
0.00142684
0.00120598
0.000985432
0.00601376
0.00577647
0.00558794
0.00539568
0.00519161
0.00498406
0.00477781
0.00457283
0.00436812
0.00416332
0.00395854
0.00375391
0.00354946
0.00334521
0.00314116
0.00293733
0.00273374
0.0025304
0.00232733
0.00212454
0.00192205
0.00655804
0.00634134
0.00616702
0.00598948
0.00580173
0.00561097
0.00542132
0.00523278
0.00504451
0.00485618
0.0046679
0.00447977
0.00429183
0.00410408
0.00391654
0.00372921
0.00354212
0.00335529
0.00316872
0.00298244
0.00279645
0.00707096
0.00687299
0.00671166
0.00654757
0.00637472
0.00619928
0.00602479
0.00585128
0.00567801
0.00550474
0.00533153
0.00515847
0.0049856
0.00481293
0.00464047
0.00446822
0.00429622
0.00412447
0.00395298
0.00378177
0.00361086
0.0075522
0.00737127
0.00722182
0.00707005
0.00691081
0.00674936
0.00658872
0.00642893
0.00626939
0.00610986
0.00595041
0.00579113
0.00563203
0.00547314
0.00531445
0.00515599
0.00499776
0.00483979
0.00468208
0.00452465
0.00436751
0.00800175
0.0078363
0.00769776
0.00755727
0.00741047
0.00726179
0.0071138
0.00696655
0.00681954
0.00667258
0.00652571
0.006379
0.00623249
0.00608618
0.00594008
0.00579421
0.00564857
0.00550318
0.00535805
0.0052132
0.00506864
0.00841983
0.00826847
0.00813993
0.00800978
0.00787433
0.0077373
0.00760087
0.00746508
0.00732952
0.00719404
0.00705865
0.00692344
0.00678842
0.0066536
0.006519
0.00638461
0.00625046
0.00611656
0.00598292
0.00584956
0.00571648
0.00880691
0.00866832
0.00854896
0.00842828
0.0083032
0.00817681
0.00805093
0.0079256
0.0078005
0.00767548
0.00755058
0.00742586
0.00730132
0.00717699
0.00705287
0.00692897
0.0068053
0.00668188
0.00655872
0.00643583
0.00631321
0.00916358
0.00903658
0.00892564
0.00881364
0.00869801
0.00858131
0.00846504
0.00834925
0.00823368
0.00811821
0.00800287
0.0078877
0.00777273
0.00765795
0.00754338
0.00742903
0.00731492
0.00720104
0.00708742
0.00697407
0.00686099
0.00949059
0.00937408
0.00927084
0.00916678
0.00905975
0.00895186
0.00884434
0.00873725
0.00863035
0.00852357
0.00841692
0.00831045
0.00820417
0.00809808
0.0079922
0.00788654
0.00778111
0.00767591
0.00757097
0.00746628
0.00736187
0.00978878
0.00968172
0.00958553
0.0094887
0.00938949
0.0092896
0.00919002
0.00909081
0.00899179
0.00889289
0.00879414
0.00869555
0.00859716
0.00849895
0.00840096
0.00830317
0.00820562
0.00810829
0.00801121
0.00791439
0.010059
0.00996045
0.00987068
0.00978043
0.00968829
0.00959562
0.00950322
0.00941115
0.00931925
0.00922749
0.00913587
0.00904442
0.00895315
0.00886207
0.0087712
0.00868054
0.00859009
0.00849988
0.0084099
0.00832018
0.0103022
0.0102113
0.0101273
0.010043
0.00995723
0.00987105
0.00978512
0.00969946
0.00961398
0.00952863
0.00944343
0.0093584
0.00927354
0.00918888
0.00910441
0.00902015
0.0089361
0.00885228
0.0087687
0.00868536
0.0105193
0.0104351
0.0103563
0.0102774
0.0101973
0.0101169
0.0100368
0.00995684
0.00987709
0.00979748
0.00971801
0.00963871
0.00955959
0.00948065