/*--------------------------------*- C++ -*----------------------------------*\
  =========                 |
  \\      /  F ield         | OpenFOAM: The Open Source CFD Toolbox
   \\    /   O peration     | Website:  https://openfoam.org
    \\  /    A nd           | Version:  7
     \\/     M anipulation  |
\*---------------------------------------------------------------------------*/
FoamFile
{
    version     2.0;
    format      ascii;
    class       volVectorField;
    location    "80";
    object      U;
}
// * * * * * * * * * * * * * * * * * * * * * * * * * * * * * * * * * * * * * //

dimensions      [0 1 -1 0 0 0 0];

internalField   nonuniform List<vector> 
4575
(
(1.16719 0.350912 -2.38997e-20)
(1.16391 0.369615 8.47843e-20)
(1.15799 0.354363 -7.98614e-20)
(1.16454 0.409321 -9.83739e-20)
(1.15901 0.390589 4.59699e-20)
(1.15406 0.373083 9.35808e-21)
(1.14861 0.35758 8.07062e-20)
(1.15954 0.433212 -6.48579e-20)
(1.15345 0.413188 1.8801e-19)
(1.14844 0.394086 -7.34306e-21)
(1.14401 0.376294 -2.7491e-20)
(1.13906 0.360553 1.20767e-20)
(1.1543 0.458694 1.07192e-19)
(1.14769 0.437182 -6.44402e-20)
(1.14213 0.416759 -9.22634e-20)
(1.13765 0.397302 2.57224e-20)
(1.13377 0.379236 -6.31256e-20)
(1.12934 0.363272 -4.44662e-20)
(1.14861 0.485805 -6.07218e-20)
(1.14166 0.462767 -1.7898e-20)
(1.13562 0.440831 -5.62465e-21)
(1.13059 0.420025 -5.65013e-21)
(1.12667 0.400225 1.22815e-21)
(1.12334 0.381899 -4.80002e-20)
(1.11946 0.365728 3.19548e-20)
(1.14215 0.514528 1.53091e-19)
(1.13511 0.489975 -4.07234e-20)
(1.12878 0.466484 -4.58548e-21)
(1.12332 0.444144 8.0561e-20)
(1.11885 0.422973 2.17851e-20)
(1.11549 0.402847 6.486e-20)
(1.11273 0.384275 7.68135e-20)
(1.10943 0.367913 1.54896e-20)
(1.13446 0.544755 2.05828e-20)
(1.12771 0.518792 4.08328e-20)
(1.12135 0.493751 7.95874e-20)
(1.11567 0.469833 9.78285e-21)
(1.11082 0.447111 2.22292e-20)
(1.10691 0.425592 -6.51087e-20)
(1.10412 0.405156 4.25482e-20)
(1.10194 0.386352 -5.70027e-20)
(1.09924 0.369816 -1.30335e-20)
(1.12486 0.576143 -1.93327e-19)
(1.11904 0.549121 -2.20479e-19)
(1.11301 0.522617 -1.02088e-19)
(1.10736 0.497118 -1.08574e-19)
(1.10235 0.4728 -1.32265e-20)
(1.09812 0.449719 -1.04814e-20)
(1.0948 0.427874 -1.80214e-20)
(1.09258 0.407145 -2.11164e-20)
(1.09098 0.388123 -7.1951e-20)
(1.0889 0.371429 2.98976e-20)
(1.11221 0.607883 -3.14701e-20)
(1.10845 0.580643 1.4083e-19)
(1.10333 0.552998 1.99364e-19)
(1.09805 0.525988 3.27285e-20)
(1.09314 0.500063 1.33537e-19)
(1.08884 0.475372 -7.00363e-21)
(1.08525 0.451958 7.10909e-20)
(1.08251 0.429807 -2.35218e-20)
(1.08087 0.408804 -2.7254e-20)
(1.07986 0.389578 4.2497e-20)
(1.07843 0.372743 5.82766e-21)
(1.09455 0.638356 5.8497e-20)
(1.09484 0.612579 8.78434e-20)
(1.0917 0.584594 5.5534e-20)
(1.08734 0.556369 -1.4148e-19)
(1.08285 0.528891 -1.0745e-19)
(1.07872 0.502571 -6.62198e-20)
(1.07514 0.477537 -1.1394e-19)
(1.07221 0.453816 -2.54206e-20)
(1.07008 0.431383 -1.73404e-20)
(1.06901 0.410127 -2.40358e-21)
(1.06859 0.39071 1.92263e-20)
(1.06782 0.373749 -4.3544e-21)
(1.06881 0.664703 -8.05834e-20)
(1.07638 0.643353 -2.89264e-19)
(1.07711 0.616659 -2.01853e-19)
(1.07466 0.58798 -5.96794e-20)
(1.0711 0.55922 9.05919e-20)
(1.06743 0.531312 7.14674e-20)
(1.06411 0.50463 6.23263e-22)
(1.06128 0.479282 5.68239e-20)
(1.05904 0.455282 -9.62717e-21)
(1.05752 0.432592 1.64195e-20)
(1.05702 0.411105 9.5292e-21)
(1.05717 0.39151 -9.83101e-22)
(1.05708 0.374436 -3.8923e-21)
(1.03043 0.682374 -9.59723e-20)
(1.05009 0.670139 1.64492e-19)
(1.05778 0.647655 1.74299e-19)
(1.05904 0.620105 6.16382e-20)
(1.05734 0.590786 5.88136e-20)
(1.05462 0.561537 -2.7112e-20)
(1.05182 0.533236 -1.40907e-20)
(1.04932 0.506227 -5.37598e-21)
(1.04727 0.480596 6.46422e-20)
(1.04573 0.456345 1.7241e-20)
(1.04485 0.433425 1.0537e-20)
(1.04492 0.411732 2.79047e-21)
(1.04562 0.391971 -3.98426e-21)
(1.04623 0.374792 1.02227e-20)
(0.973349 0.684824 -5.27467e-20)
(1.0116 0.688398 2.55477e-20)
(1.0309 0.674798 -1.64763e-20)
(1.03881 0.651247 1.52191e-19)
(1.04066 0.622903 -1.36202e-19)
(1.03977 0.593 -1.98365e-20)
(1.03793 0.563306 -1.53294e-21)
(1.03602 0.534652 2.25485e-20)
(1.03438 0.507349 4.99016e-20)
(1.03313 0.481467 -4.75903e-20)
(1.03233 0.456995 -1.50811e-20)
(1.03209 0.433872 -9.1968e-21)
(1.03272 0.412001 -2.22703e-21)
(1.03395 0.392085 2.01716e-20)
(1.03528 0.374804 -2.21004e-20)
(0.954987 0.69153 -1.78792e-20)
(0.992213 0.693562 -6.48003e-20)
(1.01126 0.678663 -1.8393e-20)
(1.01949 0.654115 -1.39828e-19)
(1.02201 0.625041 1.86065e-19)
(1.02197 0.594607 4.74278e-21)
(1.02105 0.564514 4.84265e-20)
(1.02006 0.535546 2.36833e-21)
(1.0193 0.507985 -2.65505e-21)
(1.01888 0.481884 2.52928e-20)
(1.01883 0.45722 8.98892e-22)
(1.01926 0.433923 -3.17942e-21)
(1.02046 0.411903 2.7844e-20)
(1.02219 0.391842 -9.82481e-21)
(1.02425 0.374452 2.60297e-21)
(0.873074 0.670869 -8.96607e-20)
(0.935985 0.69731 -6.91885e-20)
(0.972311 0.697851 -5.73876e-20)
(0.991223 0.681721 8.43462e-20)
(0.999859 0.656246 -6.48811e-21)
(1.00312 0.626506 -1.05155e-19)
(1.00398 0.595596 6.23386e-20)
(1.00401 0.565152 1.7828e-20)
(1.00396 0.53591 -3.28147e-20)
(1.00411 0.508125 -1.19258e-20)
(1.00453 0.481835 -1.49176e-21)
(1.00526 0.457009 -1.00331e-21)
(1.00638 0.433567 8.46023e-21)
(1.00815 0.411429 2.92072e-20)
(1.01037 0.391227 -7.41627e-20)
(1.01317 0.373707 1.80785e-20)
(0.758159 0.61618 2.07463e-21)
(0.855201 0.677248 9.32575e-20)
(0.916395 0.702146 1.21857e-19)
(0.951945 0.70125 7.462e-20)
(0.970828 0.683959 -3.86153e-20)
(0.979954 0.657628 5.68427e-20)
(0.98401 0.627287 -1.93608e-20)
(0.985806 0.595956 -6.69425e-20)
(0.986823 0.565207 -1.92426e-20)
(0.987738 0.535731 -3.6055e-21)
(0.988809 0.507757 -1.27064e-20)
(0.990103 0.481312 -4.30673e-21)
(0.991632 0.456351 3.25154e-20)
(0.993475 0.432792 -2.99824e-20)
(0.995826 0.410568 2.26363e-20)
(0.998507 0.390221 9.22305e-20)
(1.00205 0.372521 6.36114e-20)
(0.742295 0.622897 -1.36936e-19)
(0.836677 0.682646 -4.23135e-20)
(0.89627 0.706022 9.90669e-20)
(0.931162 0.703745 -1.30987e-19)
(0.950118 0.685366 -1.02216e-19)
(0.95981 0.658251 -4.42525e-20)
(0.964715 0.627373 5.84835e-20)
(0.967489 0.595677 1.73779e-20)
(0.969514 0.564671 1.17931e-20)
(0.971415 0.535002 -1.11498e-20)
(0.973425 0.506875 1.31956e-20)
(0.975606 0.480304 -4.53768e-21)
(0.977963 0.455235 -4.13918e-20)
(0.980562 0.431587 -1.88192e-20)
(0.983509 0.409311 -5.65112e-20)
(0.986627 0.388802 3.92548e-20)
(0.990955 0.370833 -7.61679e-20)
(0.590249 0.523126 1.33971e-19)
(0.725755 0.628652 1.9582e-19)
(0.817558 0.687044 7.46289e-20)
(0.875665 0.708922 -2.80201e-20)
(0.910012 0.705325 1.24062e-20)
(0.929135 0.685931 5.29439e-20)
(0.939463 0.658105 5.74552e-20)
(0.945267 0.626757 -1.14145e-20)
(0.949052 0.594752 -2.8914e-21)
(0.952108 0.563536 -1.87631e-21)
(0.955011 0.533716 1.9877e-20)
(0.957975 0.505471 2.32365e-23)
(0.961055 0.478804 -1.32602e-20)
(0.964262 0.453651 -1.15957e-20)
(0.967649 0.429939 3.51205e-20)
(0.971209 0.40764 7.51618e-20)
(0.974781 0.386947 -1.25094e-19)
(0.980061 0.368598 9.21071e-20)
(0.393819 0.367556 2.60426e-19)
(0.576744 0.528714 -1.1962e-19)
(0.708593 0.633425 -1.34677e-19)
(0.797902 0.690425 -4.93995e-20)
(0.854633 0.710834 6.18973e-20)
(0.888541 0.70598 4.99546e-20)
(0.90792 0.685647 4.48352e-20)
(0.91895 0.657184 -2.85354e-20)
(0.925697 0.62543 -1.19723e-20)
(0.930522 0.593173 1.06777e-20)
(0.934628 0.561796 -1.42796e-20)
(0.938547 0.531865 -1.64263e-20)
(0.942475 0.503538 -1.57343e-20)
(0.946463 0.476806 -1.77482e-21)
(0.950537 0.451593 6.69948e-20)
(0.95473 0.427831 -2.62321e-20)
(0.958917 0.405519 -5.60195e-20)
(0.96307 0.384595 -2.95875e-21)
(0.969635 0.365811 -1.35026e-19)
(0.384535 0.372055 -1.00551e-19)
(0.562653 0.533423 1.13611e-19)
(0.690865 0.637196 1.59574e-19)
(0.777764 0.692775 -6.28702e-20)
(0.833226 0.711748 1.02759e-20)
(0.866799 0.705703 -7.45509e-20)
(0.886515 0.684506 -2.06935e-20)
(0.898305 0.655479 -6.47251e-22)
(0.906035 0.623386 -1.11062e-20)
(0.911925 0.590933 -2.82102e-20)
(0.917098 0.559444 -1.00636e-20)
(0.922044 0.529445 4.24745e-22)
(0.926943 0.501074 -2.5445e-20)
(0.931847 0.474308 2.29644e-20)
(0.936789 0.449058 6.27913e-20)
(0.941781 0.425261 2.15756e-20)
(0.946613 0.402911 -1.17415e-19)
(0.951605 0.381592 -4.17878e-21)
(0.959613 0.362227 4.02988e-20)
(0.147347 0.14924 2.84041e-20)
(0.374791 0.3759 3.97637e-20)
(0.548024 0.537233 -1.01384e-19)
(0.672626 0.639949 -4.14617e-20)
(0.757202 0.694082 -4.71606e-20)
(0.811499 0.711654 -3.68855e-20)
(0.844832 0.704486 4.51886e-20)
(0.864961 0.682503 -9.42301e-21)
(0.877566 0.652987 1.98788e-20)
(0.886313 0.62062 5.22395e-20)
(0.89329 0.588029 4.06335e-20)
(0.899543 0.556477 -2.14873e-20)
(0.905524 0.526454 -1.26922e-20)
(0.911399 0.498077 -7.98769e-21)
(0.91722 0.471311 -7.11196e-20)
(0.923024 0.446057 -3.71912e-20)
(0.92879 0.422251 -4.13805e-20)
(0.934306 0.399865 1.41662e-19)
(0.940446 0.377967 -3.35785e-20)
(0.948889 0.356165 1.26491e-19)
(0.143561 0.151014 3.87204e-20)
(0.364625 0.379075 -1.30754e-20)
(0.532906 0.540128 5.35587e-20)
(0.653932 0.641671 -1.08877e-20)
(0.736271 0.694336 2.74767e-20)
(0.789504 0.710548 2.41308e-20)
(0.822688 0.702324 -6.96768e-21)
(0.843301 0.679634 7.04488e-21)
(0.856768 0.649704 -6.61403e-20)
(0.866563 0.617129 2.07057e-20)
(0.874646 0.584457 -2.34739e-20)
(0.881989 0.552891 3.15884e-20)
(0.889012 0.522888 3.35065e-20)
(0.895866 0.494547 5.62473e-20)
(0.902602 0.467819 2.20468e-20)
(0.909258 0.4426 6.50549e-20)
(0.915783 0.418826 3.29804e-20)
(0.922035 0.396466 -7.53964e-21)
(0.929142 0.374599 7.27524e-20)
(0.937538 0.353025 1.33919e-20)
(0.139584 0.152502 -2.8518e-20)
(0.354071 0.381562 -3.33995e-20)
(0.51735 0.542091 -2.98578e-20)
(0.63484 0.642349 1.55228e-20)
(0.715028 0.693529 -1.40346e-20)
(0.767294 0.708423 -8.5865e-21)
(0.800414 0.699216 2.18526e-20)
(0.821574 0.675897 1.81552e-20)
(0.835947 0.645627 4.71988e-20)
(0.846815 0.612911 4.21341e-20)
(0.856019 0.580214 -1.05317e-19)
(0.864461 0.548685 2.0248e-21)
(0.872529 0.518747 -1.11213e-19)
(0.880365 0.490482 -6.22746e-21)
(0.888016 0.463833 -5.05898e-20)
(0.895516 0.43869 7.97443e-20)
(0.902801 0.414989 -1.23381e-19)
(0.909778 0.392682 -3.10352e-20)
(0.917568 0.370848 -4.76736e-20)
(0.925951 0.349342 -1.73862e-19)
(0.13543 0.153699 1.58209e-20)
(0.343169 0.383348 -4.0987e-20)
(0.501406 0.543111 1.26145e-20)
(0.615406 0.641974 -3.06981e-21)
(0.69353 0.691657 5.94877e-21)
(0.744922 0.705277 -7.33579e-21)
(0.778057 0.69516 2.31659e-20)
(0.799823 0.671291 -7.24786e-20)
(0.815139 0.640755 -6.28678e-20)
(0.827103 0.607963 -1.23018e-19)
(0.837439 0.5753 7.92895e-20)
(0.846986 0.543858 -6.73926e-21)
(0.856102 0.514031 -2.25191e-20)
(0.864918 0.485884 -4.06695e-20)
(0.873483 0.459354 -5.94439e-20)
(0.881825 0.434328 3.37668e-20)
(0.889877 0.410742 1.00579e-19)
(0.897581 0.388534 -5.57132e-20)
(0.905988 0.366817 7.31703e-20)
(0.914564 0.345555 2.06696e-19)
(0.131115 0.154595 1.27837e-20)
(0.331955 0.384421 1.59287e-20)
(0.485125 0.543177 5.645e-21)
(0.595687 0.640541 1.91064e-21)
(0.671831 0.688717 1.53356e-20)
(0.722438 0.701111 3.94372e-20)
(0.755662 0.690157 -3.04485e-20)
(0.778087 0.665816 -2.77774e-20)
(0.794379 0.635089 -2.29459e-20)
(0.807458 0.602287 8.34901e-20)
(0.818934 0.569713 -2.16899e-19)
(0.829588 0.53841 -9.44155e-20)
(0.839753 0.508739 2.21268e-20)
(0.84955 0.480753 3.39892e-20)
(0.859027 0.454382 1.22938e-19)
(0.868209 0.429513 -1.72788e-19)
(0.87703 0.406081 5.1015e-20)
(0.885456 0.384015 2.97107e-20)
(0.894469 0.362473 -4.23084e-20)
(0.903372 0.34154 -1.56089e-19)
(0.126657 0.155185 1.51928e-20)
(0.320468 0.384772 -1.25997e-20)
(0.468559 0.542282 7.57565e-21)
(0.575738 0.638045 2.17771e-20)
(0.649989 0.684708 -2.40222e-20)
(0.699895 0.695925 -6.46685e-20)
(0.733277 0.684208 1.26232e-20)
(0.756407 0.659475 5.18393e-20)
(0.773704 0.628631 1.44338e-19)
(0.787911 0.595883 -1.56926e-19)
(0.800533 0.563456 1.31402e-19)
(0.812296 0.532341 1.63288e-19)
(0.823507 0.502873 1.3614e-19)
(0.834283 0.47509 1.02166e-19)
(0.844668 0.448919 -2.18476e-19)
(0.854689 0.424247 -2.99965e-21)
(0.864282 0.401008 -5.86317e-20)
(0.873428 0.379124 2.27992e-19)
(0.883052 0.357806 -8.49706e-21)
(0.892363 0.337232 -1.12485e-19)
(0.122072 0.155464 1.71269e-20)
(0.308748 0.384392 4.72745e-21)
(0.451759 0.54042 6.6388e-21)
(0.555615 0.634485 -1.11256e-20)
(0.628057 0.679631 -2.41822e-20)
(0.677342 0.689723 -1.41536e-21)
(0.710945 0.677317 -3.40197e-20)
(0.734823 0.652272 -5.87402e-20)
(0.753148 0.621383 5.24328e-20)
(0.768494 0.588754 1.24944e-19)
(0.782265 0.556531 3.10374e-21)
(0.795135 0.525655 5.78919e-20)
(0.80739 0.496434 -9.07696e-20)
(0.81914 0.468897 -1.12572e-19)
(0.830431 0.442966 2.86031e-19)
(0.841288 0.41853 1.154e-19)
(0.851653 0.395522 -1.20016e-19)
(0.861519 0.373856 -1.35444e-19)
(0.871764 0.352804 -1.52913e-19)
(0.881533 0.332605 -1.52271e-20)
(0.117376 0.155427 -5.02793e-20)
(0.296833 0.383276 -1.11568e-20)
(0.434776 0.537589 -2.55804e-20)
(0.535376 0.629862 -5.60977e-20)
(0.60609 0.673491 1.02887e-19)
(0.654832 0.68251 -9.53875e-20)
(0.688713 0.669491 1.42755e-19)
(0.713375 0.644211 -1.55234e-21)
(0.732746 0.61335 -4.61503e-20)
(0.749238 0.580904 4.23082e-20)
(0.764158 0.548941 3.19176e-20)
(0.778132 0.518353 -1.59394e-19)
(0.791425 0.489425 1.69366e-19)
(0.804145 0.462176 1.04895e-19)
(0.816336 0.436526 -3.95109e-20)
(0.828026 0.412362 -7.80435e-20)
(0.839161 0.389621 6.75177e-20)
(0.849747 0.368212 -1.19458e-19)
(0.860622 0.347458 -1.65673e-19)
(0.870883 0.327646 1.58047e-19)
(0.112587 0.155072 9.05698e-20)
(0.284764 0.381421 -5.46063e-20)
(0.417662 0.533788 -3.26365e-20)
(0.515074 0.624178 3.81851e-20)
(0.584142 0.666293 1.33592e-20)
(0.632412 0.674293 3.5571e-20)
(0.666623 0.660737 4.25822e-20)
(0.692101 0.6353 1.1038e-19)
(0.712534 0.604538 1.36891e-19)
(0.730175 0.572338 -1.31503e-19)
(0.746241 0.54069 1.62035e-19)
(0.761312 0.51044 -1.86286e-19)
(0.775638 0.48185 2.43904e-20)
(0.789319 0.454932 -7.30298e-20)
(0.802405 0.4296 5.45036e-20)
(0.814923 0.405747 5.15665e-20)
(0.826827 0.383307 -3.16495e-20)
(0.838132 0.362187 2.98877e-19)
(0.849642 0.341763 -4.166e-20)
(0.860418 0.322348 -1.36063e-19)
(0.107721 0.154395 -7.31825e-20)
(0.272579 0.378825 9.90874e-20)
(0.400467 0.529019 -2.56564e-20)
(0.494764 0.61744 -1.22374e-19)
(0.562267 0.658045 9.26321e-20)
(0.610132 0.665082 -3.48229e-20)
(0.64472 0.651063 -1.18882e-19)
(0.67104 0.625546 -1.79952e-20)
(0.692545 0.594954 -2.84479e-19)
(0.711335 0.563062 2.76158e-19)
(0.728541 0.531783 -2.72415e-20)
(0.744701 0.50192 7.74201e-20)
(0.760051 0.473714 9.65569e-20)
(0.774686 0.447166 3.87035e-20)
(0.788659 0.422193 -2.61107e-19)
(0.802 0.398686 5.96895e-20)
(0.814667 0.37658 5.42682e-20)
(0.826691 0.355782 -1.82188e-19)
(0.838837 0.335714 6.65784e-20)
(0.850142 0.316706 2.61497e-20)
(0.102797 0.153395 -7.30988e-20)
(0.260317 0.375488 -7.44576e-20)
(0.383243 0.523287 1.49005e-19)
(0.4745 0.609655 1.09818e-19)
(0.540516 0.648758 -8.99377e-20)
(0.588039 0.654888 7.93685e-21)
(0.623047 0.64048 8.05501e-20)
(0.65023 0.614959 2.38949e-20)
(0.672813 0.584606 -4.08194e-21)
(0.692749 0.553084 4.74777e-20)
(0.711087 0.522229 -7.61123e-20)
(0.728326 0.492801 -1.17201e-20)
(0.744688 0.465022 -3.00302e-19)
(0.760268 0.438885 -2.31176e-19)
(0.775119 0.414307 -3.95825e-20)
(0.789275 0.391182 -3.24134e-20)
(0.802701 0.369443 -3.63356e-20)
(0.815438 0.348997 -7.4356e-20)
(0.828218 0.329311 -8.57839e-20)
(0.0978316 0.152073 1.64325e-20)
(0.248019 0.371414 1.74741e-19)
(0.366039 0.516599 -7.04549e-20)
(0.454336 0.600834 -1.11471e-19)
(0.51894 0.638444 -7.42099e-21)
(0.56618 0.643722 1.6277e-19)
(0.601644 0.629 -1.70182e-19)
(0.629708 0.60355 3.42375e-20)
(0.653372 0.573505 -2.70922e-20)
(0.674448 0.542413 -2.73723e-19)
(0.693906 0.512034 -2.59582e-19)
(0.712212 0.483089 4.70248e-20)
(0.729574 0.455779 4.18955e-19)
(0.746087 0.430095 6.09835e-20)
(0.761805 0.405949 1.66815e-19)
(0.776767 0.383239 -2.60185e-19)
(0.790945 0.361899 -6.12172e-20)
(0.804389 0.341834 3.03497e-19)
(0.817799 0.322554 1.33189e-19)
(0.0928418 0.150428 6.77675e-20)
(0.235722 0.366607 6.92053e-20)
(0.348905 0.508962 -1.68068e-19)
(0.434324 0.590989 -8.43033e-21)
(0.49759 0.627116 -7.19366e-20)
(0.544602 0.6316 -1.01683e-19)
(0.580554 0.616637 3.381e-20)
(0.609511 0.591331 -9.93243e-20)
(0.634254 0.561662 1.90876e-19)
(0.656459 0.531058 -1.21478e-19)
(0.677025 0.501208 8.66534e-20)
(0.696383 0.472792 1.99793e-19)
(0.714732 0.445995 -1.34345e-19)
(0.732163 0.420801 3.3598e-20)
(0.748737 0.397124 1.67531e-19)
(0.764495 0.374863 2.09052e-19)
(0.779414 0.353952 -1.09649e-19)
(0.793558 0.334296 -6.14421e-20)
(0.807591 0.315446 9.41584e-20)
(0.0878451 0.148462 -1.60624e-19)
(0.223466 0.361072 6.31198e-20)
(0.331889 0.50039 1.91222e-19)
(0.414515 0.580135 2.24829e-20)
(0.476516 0.614792 -2.93218e-20)
(0.523349 0.618537 -5.38594e-20)
(0.559816 0.603406 -2.73555e-20)
(0.589674 0.578317 1.23277e-19)
(0.615492 0.549089 -1.83056e-19)
(0.638814 0.519031 4.33757e-19)
(0.660471 0.489761 1.82376e-19)
(0.680865 0.461919 -5.97934e-20)
(0.700183 0.435677 -1.84932e-20)
(0.718519 0.411012 8.0609e-20)
(0.735934 0.387839 -2.2288e-19)
(0.752475 0.366059 1.85357e-20)
(0.768126 0.345607 -1.43725e-19)
(0.782959 0.326387 -6.29988e-20)
(0.0828586 0.146177 -3.2301e-20)
(0.211288 0.354819 -1.99911e-19)
(0.31504 0.490894 1.40746e-19)
(0.394959 0.568288 -2.10558e-20)
(0.455765 0.60149 1.10874e-19)
(0.502466 0.604553 3.63017e-20)
(0.53947 0.589324 -6.81894e-21)
(0.570233 0.564523 8.58571e-20)
(0.597116 0.535799 -5.16497e-20)
(0.62154 0.506345 -1.58945e-19)
(0.64427 0.477703 1.74801e-19)
(0.66568 0.450481 1.86061e-19)
(0.68595 0.424834 -2.82708e-22)
(0.705173 0.400736 -4.20651e-20)
(0.723415 0.378102 -2.3829e-20)
(0.740725 0.356835 1.76633e-19)
(0.757095 0.33687 1.55671e-19)
(0.772606 0.318113 4.34835e-20)
(0.0778995 0.143577 1.56307e-19)
(0.199226 0.347857 2.31382e-19)
(0.298403 0.48049 -1.32476e-19)
(0.375705 0.555467 -9.96383e-21)
(0.435384 0.587228 -1.98149e-19)
(0.481995 0.589666 1.23626e-19)
(0.519555 0.57441 -5.07524e-20)
(0.551222 0.549965 -9.6952e-20)
(0.579158 0.521809 -3.71012e-20)
(0.604665 0.493012 -5.98697e-21)
(0.628447 0.465048 -3.79551e-19)
(0.650853 0.43849 -4.82249e-19)
(0.672055 0.413478 -7.42963e-20)
(0.692148 0.389982 1.67047e-19)
(0.711198 0.36792 -6.56454e-20)
(0.729262 0.347197 -3.31358e-19)
(0.746338 0.327748 3.10504e-19)
(0.762513 0.30948 4.45e-20)
(0.0729843 0.140666 -2.58949e-19)
(0.187316 0.340198 9.16326e-20)
(0.282026 0.469196 -7.48222e-20)
(0.356802 0.541694 1.03941e-19)
(0.415419 0.57203 1.98109e-19)
(0.461978 0.573897 -1.2647e-19)
(0.500106 0.558682 2.34904e-19)
(0.532673 0.534662 -8.2013e-20)
(0.561647 0.507133 1.24336e-19)
(0.588216 0.479047 2.36399e-19)
(0.613028 0.451809 1.29297e-19)
(0.636407 0.425956 5.41436e-19)
(0.65852 0.401618 2.48565e-19)
(0.679461 0.378762 -1.98481e-20)
(0.699302 0.357305 -1.32601e-20)
(0.718102 0.337155 4.22197e-20)
(0.735868 0.318249 -3.45056e-19)
(0.752692 0.300496 -1.83714e-19)
(0.0681298 0.137448 1.45795e-19)
(0.175595 0.331856 -4.10925e-20)
(0.265953 0.457032 -1.98138e-19)
(0.338296 0.52699 -1.81941e-19)
(0.395915 0.555918 -3.35756e-20)
(0.442455 0.55727 2.51222e-20)
(0.481161 0.542163 -3.0262e-19)
(0.51462 0.518632 2.29027e-19)
(0.544613 0.49179 -1.05295e-19)
(0.572221 0.464467 -2.43593e-19)
(0.598037 0.438 -5.8765e-20)
(0.622364 0.412895 -2.23726e-19)
(0.645364 0.389268 -4.66398e-19)
(0.667132 0.367085 4.02695e-20)
(0.687744 0.346265 3.68097e-19)
(0.707261 0.326719 -1.60403e-19)
(0.7257 0.308381 1.93289e-19)
(0.063352 0.133931 -2.5574e-20)
(0.164097 0.322847 -3.64086e-19)
(0.250228 0.444019 3.67541e-19)
(0.320232 0.51138 -9.26448e-20)
(0.376914 0.538919 1.31743e-19)
(0.423466 0.539809 7.95029e-20)
(0.462755 0.524874 3.23514e-19)
(0.497094 0.501897 -3.91443e-19)
(0.528084 0.475798 3.08954e-19)
(0.556704 0.449289 2.45735e-19)
(0.583497 0.423638 -7.12921e-20)
(0.608746 0.39932 -3.71938e-20)
(0.632608 0.376441 1.36458e-19)
(0.655179 0.354965 -2.34527e-19)
(0.67654 0.334812 -3.12236e-19)
(0.696755 0.315897 1.17821e-19)
(0.715848 0.298155 -1.20114e-19)
(0.0586668 0.13012 -2.58505e-20)
(0.152857 0.313186 1.19901e-19)
(0.234892 0.43018 1.38269e-19)
(0.302654 0.494891 -2.41769e-19)
(0.358458 0.521058 1.23741e-19)
(0.405048 0.521539 -3.20158e-19)
(0.444921 0.50684 -2.48925e-20)
(0.480125 0.484477 1.82127e-20)
(0.512087 0.459178 -3.16445e-20)
(0.541691 0.43353 -3.09625e-19)
(0.569431 0.408738 -1.43076e-20)
(0.595574 0.385246 -5.01149e-20)
(0.620271 0.36315 3.02589e-19)
(0.643621 0.342414 -9.40046e-20)
(0.665707 0.322959 -2.68506e-20)
(0.686599 0.304703 1.56651e-19)
(0.706326 0.287581 4.54289e-19)
(0.0540897 0.126023 -4.92912e-20)
(0.141908 0.302894 -3.01383e-20)
(0.219987 0.415541 -1.50423e-19)
(0.285604 0.477551 9.09777e-20)
(0.340587 0.502365 2.55426e-19)
(0.387237 0.502488 -1.40511e-19)
(0.427693 0.488086 -2.24396e-19)
(0.463742 0.466397 2.20722e-19)
(0.496649 0.441949 -7.32482e-20)
(0.527205 0.41721 2.04256e-19)
(0.555862 0.393318 9.29911e-20)
(0.582869 0.37069 -5.4545e-20)
(0.608372 0.349412 -2.05719e-19)
(0.632475 0.329447 2.54729e-19)
(0.655262 0.310718 -6.39645e-20)
(0.676807 0.293147 -2.75825e-19)
(0.697147 0.27667 -9.32476e-20)
(0.0496356 0.121649 9.70339e-20)
(0.131281 0.29199 3.64921e-20)
(0.205553 0.400129 -2.86721e-20)
(0.269123 0.45939 -8.21154e-20)
(0.32334 0.48287 -5.93398e-20)
(0.370069 0.482684 3.46423e-19)
(0.411101 0.468639 6.18416e-20)
(0.447973 0.447679 1.69274e-19)
(0.481795 0.424135 1.25059e-19)
(0.513271 0.400349 -3.40065e-19)
(0.542811 0.377397 -1.77477e-19)
(0.570649 0.355668 3.2783e-19)
(0.59693 0.335241 -1.03004e-20)
(0.621756 0.316077 -2.64544e-19)
(0.645219 0.298103 6.70623e-20)
(0.667394 0.281242 3.22932e-19)
(0.0453191 0.117007 1.12274e-19)
(0.121009 0.280495 -1.48404e-19)
(0.191626 0.383973 -6.69296e-20)
(0.25325 0.44044 -1.51971e-20)
(0.306753 0.462603 -1.96173e-19)
(0.353578 0.462158 -1.03815e-19)
(0.395175 0.448525 -4.39495e-20)
(0.432846 0.42835 -3.37496e-19)
(0.467551 0.405758 -2.55798e-19)
(0.499911 0.382968 3.38107e-19)
(0.530299 0.360994 1.86447e-19)
(0.558935 0.3402 -1.44816e-19)
(0.585961 0.320655 -1.67419e-19)
(0.611483 0.302321 1.80036e-19)
(0.635593 0.285127 -1.01876e-19)
(0.658372 0.269001 1.45924e-19)
(0.0411542 0.112107 1.36925e-19)
(0.111121 0.268433 -2.23127e-19)
(0.178244 0.367102 6.37907e-20)
(0.238022 0.420734 1.12467e-19)
(0.290862 0.4416 -1.188e-21)
(0.337794 0.44094 -1.40696e-19)
(0.379945 0.427774 1.21893e-19)
(0.418386 0.408436 4.49964e-20)
(0.453938 0.386842 -1.34508e-19)
(0.487145 0.365089 8.96138e-20)
(0.518344 0.34413 -2.35655e-19)
(0.547743 0.324303 -5.1952e-20)
(0.575482 0.30567 2.12693e-19)
(0.601669 0.288194 7.54745e-20)
(0.626398 0.271807 1.1725e-19)
(0.649755 0.256439 -2.20662e-19)
(0.0371542 0.106959 -1.36606e-19)
(0.101644 0.255829 -5.70689e-20)
(0.165442 0.349549 1.11572e-19)
(0.223475 0.400306 -2.31474e-19)
(0.2757 0.419892 -1.12525e-19)
(0.32275 0.419064 2.42663e-19)
(0.365437 0.406416 3.85717e-19)
(0.404619 0.387964 1.0965e-19)
(0.44098 0.367412 1.474e-19)
(0.474995 0.346735 -1.54237e-21)
(0.506967 0.326826 6.93732e-20)
(0.537092 0.307997 2.43026e-19)
(0.56551 0.290306 -3.51393e-20)
(0.592329 0.273714 -4.29468e-19)
(0.617649 0.258157 3.73419e-21)
(0.641555 0.24357 2.35958e-20)
(0.0333321 0.101575 4.35853e-20)
(0.0926073 0.242708 -1.13578e-19)
(0.153252 0.331347 3.98453e-19)
(0.209642 0.379193 1.66982e-21)
(0.261299 0.397517 1.49299e-19)
(0.308473 0.396562 1.45892e-19)
(0.351678 0.384481 -1.43236e-19)
(0.391566 0.366963 1.77676e-20)
(0.428698 0.347494 -9.32288e-20)
(0.463479 0.327931 2.34651e-20)
(0.496184 0.309103 -2.84318e-21)
(0.526998 0.291303 -1.08665e-19)
(0.556059 0.27458 -4.83611e-20)
(0.583478 0.258898 2.8577e-19)
(0.609357 0.244195 -2.13387e-19)
(0.633785 0.230409 1.41728e-19)
(0.0297001 0.095966 -9.29866e-20)
(0.0840353 0.229097 -1.06591e-19)
(0.141705 0.312531 -5.77804e-20)
(0.196556 0.357432 1.36988e-19)
(0.247689 0.374512 -1.16019e-19)
(0.294991 0.373469 -2.03088e-19)
(0.338692 0.362002 -1.2201e-19)
(0.379251 0.345461 -2.35675e-19)
(0.417111 0.327116 1.91968e-19)
(0.452616 0.3087 -1.55923e-19)
(0.486013 0.290986 3.31044e-20)
(0.517477 0.274242 2.33309e-20)
(0.547144 0.258513 -9.98812e-20)
(0.575129 0.243764 1.15438e-19)
(0.601535 0.229936 1.7302e-19)
(0.0262696 0.0901455 2.03425e-19)
(0.0759525 0.215025 2.09705e-19)
(0.130831 0.293137 -1.58192e-19)
(0.184246 0.335061 -1.34079e-19)
(0.234899 0.350913 3.71209e-20)
(0.282329 0.349822 8.06159e-20)
(0.326502 0.339011 -2.80764e-19)
(0.367694 0.323489 4.5321e-20)
(0.40624 0.306304 -1.87684e-19)
(0.442424 0.289069 1.58969e-19)
(0.476469 0.272497 3.7375e-20)
(0.508543 0.256836 -1.69796e-19)
(0.538779 0.242125 -3.81321e-20)
(0.567294 0.228331 9.01733e-20)
(0.594194 0.215399 4.23119e-20)
(0.0230515 0.0841264 -9.33797e-20)
(0.0683816 0.20052 2.48031e-20)
(0.120658 0.273202 2.96815e-19)
(0.172741 0.312121 1.6507e-19)
(0.222955 0.32676 1.10017e-19)
(0.270512 0.325656 2.07261e-19)
(0.315129 0.315543 2.83475e-20)
(0.356915 0.301077 1.96762e-20)
(0.3961 0.285088 -1.53629e-21)
(0.432918 0.269063 -2.03221e-19)
(0.467568 0.253661 1.06023e-19)
(0.500209 0.239107 -1.70019e-19)
(0.530975 0.225437 1.11395e-19)
(0.559985 0.212618 -1.77727e-19)
(0.587346 0.200602 -1.03622e-19)
(0.020056 0.0779223 -2.01395e-20)
(0.0613439 0.185614 1.43245e-19)
(0.11121 0.252766 -1.68404e-19)
(0.162067 0.288652 -7.61346e-20)
(0.21188 0.302094 6.87317e-20)
(0.259562 0.301009 -1.53047e-19)
(0.304595 0.291632 1.15844e-19)
(0.346931 0.278259 1.62273e-20)
(0.386709 0.263496 9.65298e-20)
(0.424114 0.248709 -3.77437e-21)
(0.459323 0.234502 -9.34194e-20)
(0.492489 0.221078 9.12277e-20)
(0.523746 0.208469 -2.34478e-19)
(0.553212 0.196646 3.25206e-19)
(0.581 0.185562 1.23768e-19)
(0.0172925 0.0715474 -5.87137e-20)
(0.0548589 0.170337 -6.21119e-20)
(0.102512 0.231866 -9.28054e-20)
(0.152246 0.264696 1.07664e-19)
(0.201699 0.276955 -5.82171e-20)
(0.249499 0.275921 -2.91067e-20)
(0.294916 0.267312 -5.82153e-20)
(0.337759 0.255065 -7.38086e-20)
(0.378082 0.241558 -2.03421e-19)
(0.416026 0.228035 8.81215e-20)
(0.451747 0.215045 -1.22514e-19)
(0.485395 0.202772 2.2342e-19)
(0.517101 0.191245 1.50055e-19)
(0.546987 0.180434 -2.62868e-19)
(0.575165 0.170299 -2.62687e-19)
(0.0147695 0.0650163 5.94881e-20)
(0.0489446 0.154722 -1.60859e-19)
(0.0945858 0.210545 -1.10492e-20)
(0.143303 0.240297 -1.47507e-19)
(0.19243 0.251384 -1.64971e-19)
(0.240341 0.250428 2.40571e-19)
(0.28611 0.242621 3.30304e-20)
(0.329415 0.231529 1.18815e-19)
(0.370233 0.219304 1.24561e-19)
(0.408665 0.20707 -2.93289e-20)
(0.444852 0.195318 1.71987e-19)
(0.478937 0.184215 -1.00856e-19)
(0.511051 0.173785 -1.29789e-19)
(0.541317 0.164004 2.05707e-19)
(0.56985 0.154832 2.32304e-19)
(0.0124949 0.0583441 -6.0635e-20)
(0.0436172 0.138801 1.41101e-19)
(0.0874501 0.188843 -1.52392e-19)
(0.135255 0.215497 9.79066e-20)
(0.184094 0.225425 9.14918e-20)
(0.232106 0.224573 -1.29986e-19)
(0.278191 0.217595 6.07589e-20)
(0.321912 0.207685 6.8216e-20)
(0.363173 0.196766 -2.12851e-19)
(0.402044 0.18584 1.03656e-19)
(0.438649 0.175346 1.16615e-20)
(0.473125 0.16543 9.79037e-20)
(0.505605 0.156114 -1.26197e-19)
(0.536212 0.147376 1.57515e-20)
(0.565064 0.139182 -9.79024e-21)
(0.0104757 0.0515462 -6.51102e-20)
(0.0388912 0.122609 8.71728e-20)
(0.0811227 0.166802 1.61522e-19)
(0.128122 0.190342 -2.00352e-20)
(0.176706 0.199122 1.12678e-19)
(0.224809 0.198395 -1.41374e-19)
(0.271175 0.192271 3.51256e-20)
(0.315261 0.183566 -1.23182e-19)
(0.356915 0.173975 1.7625e-22)
(0.396173 0.164376 -1.95188e-19)
(0.433146 0.155156 -1.41169e-19)
(0.467967 0.146443 7.50211e-20)
(0.50077 0.138255 1.96592e-20)
(0.531679 0.130573 -5.18057e-20)
(0.560811 0.123367 6.8964e-20)
(0.00871804 0.0446384 5.82248e-20)
(0.0347794 0.106179 1.99356e-20)
(0.075619 0.144466 4.92156e-20)
(0.121919 0.164877 -7.31587e-20)
(0.170282 0.172516 -3.33391e-20)
(0.218463 0.171934 -6.31171e-20)
(0.265071 0.166687 6.09716e-21)
(0.309475 0.159209 4.39806e-20)
(0.351469 0.150962 1.35146e-19)
(0.39106 0.142708 1.64428e-19)
(0.428352 0.134776 6.33004e-20)
(0.463472 0.127278 -1.51546e-20)
(0.496554 0.12023 -3.24734e-20)
(0.527724 0.113615 -8.13681e-20)
(0.5571 0.107408 9.80534e-21)
(0.00722731 0.0376367 1.20832e-20)
(0.031293 0.0895462 -8.33038e-20)
(0.0709522 0.121878 -1.15002e-19)
(0.116658 0.139147 -4.04473e-21)
(0.164833 0.145654 -8.6493e-21)
(0.21308 0.145233 4.20918e-20)
(0.259892 0.140881 -1.31333e-19)
(0.304563 0.134646 -5.10799e-20)
(0.346841 0.127761 -8.66183e-20)
(0.386714 0.120864 3.38803e-21)
(0.424274 0.114233 2.84581e-20)
(0.459646 0.107961 6.33905e-20)
(0.492964 0.102064 -1.2481e-20)
(0.524353 0.0965256 5.46196e-20)
(0.553934 0.0913267 -2.65981e-20)
(0.00600794 0.0305575 -5.19819e-20)
(0.028441 0.0727465 3.13447e-20)
(0.0671333 0.0990814 -3.1636e-20)
(0.112351 0.113198 3.9579e-20)
(0.16037 0.11858 3.05719e-20)
(0.208668 0.118334 8.58648e-21)
(0.255644 0.114891 1.01456e-19)
(0.300531 0.109915 -2.72425e-20)
(0.343041 0.104403 2.41106e-20)
(0.383142 0.0988746 2.83961e-20)
(0.420919 0.0935547 1.9646e-20)
(0.456495 0.0885194 -5.29043e-20)
(0.490003 0.0837802 6.92504e-20)
(0.521571 0.0793268 5.17803e-20)
(0.551318 0.0751429 -2.02481e-20)
(0.00506356 0.0234173 1.59232e-20)
(0.026231 0.0558152 3.93932e-20)
(0.0641713 0.0761215 -8.906e-21)
(0.109008 0.0870781 -6.26581e-20)