/*--------------------------------*- C++ -*----------------------------------*\
  =========                 |
  \\      /  F ield         | OpenFOAM: The Open Source CFD Toolbox
   \\    /   O peration     | Website:  https://openfoam.org
    \\  /    A nd           | Version:  7
     \\/     M anipulation  |
\*---------------------------------------------------------------------------*/
FoamFile
{
    version     2.0;
    format      ascii;
    class       surfaceScalarField;
    location    "120";
    object      phi;
}
// * * * * * * * * * * * * * * * * * * * * * * * * * * * * * * * * * * * * * //

dimensions      [0 3 -1 0 0 0 0];

internalField   nonuniform List<scalar> 
13997
(
-8.50792e-06
-0.000234995
0.000238198
-1.25307e-05
-0.000278945
0.000282968
-1.73751e-05
-0.000319509
0.000324353
-2.30215e-05
-0.000356749
0.000362395
-2.94297e-05
-0.000390885
0.000397293
-3.65424e-05
-0.000422279
0.000429392
-4.42894e-05
-0.000451403
0.00045915
-5.2593e-05
-0.000478804
0.000487107
-6.13737e-05
-0.000505055
0.000513836
-7.05557e-05
-0.000530723
0.000539905
-8.00708e-05
-0.000556323
0.000565838
-8.98623e-05
-0.000582297
0.000592089
-9.98854e-05
-0.000608991
0.000619014
-0.000110107
-0.000636647
0.000646869
-0.000120504
-0.000665397
0.000675794
-0.000131058
-0.000695264
0.000705818
-0.000141753
-0.000726165
0.00073686
-0.000152571
-0.000757908
0.000768726
-0.000163491
-0.000790191
0.000801112
-0.000174488
-0.000822595
0.000833592
-0.000854572
0.000865631
-0.000185547
-1.01075e-05
-0.000231272
-1.47166e-05
-0.000274336
-2.02012e-05
-0.000314025
-2.65308e-05
-0.000350419
-3.36575e-05
-0.000383758
-4.1519e-05
-0.000414417
-5.00429e-05
-0.000442879
-5.91527e-05
-0.000469694
-6.87729e-05
-0.000495435
-7.88345e-05
-0.000520661
-8.92793e-05
-0.000545878
-0.000100063
-0.000571514
-0.000111155
-0.000597899
-0.000122539
-0.000625263
-0.000134211
-0.000653725
-0.000146172
-0.000683303
-0.000158427
-0.000713911
-0.000170976
-0.000745358
-0.000183817
-0.000777351
-0.000196935
-0.000809477
-0.000841181
-0.000210326
-1.1687e-05
-0.00022704
-1.6869e-05
-0.000269154
-2.29759e-05
-0.000307918
-2.9967e-05
-0.000343428
-3.77861e-05
-0.000375939
-4.63657e-05
-0.000405838
-5.56315e-05
-0.000433614
-6.55076e-05
-0.000459818
-7.59223e-05
-0.000485021
-8.6813e-05
-0.000509771
-9.81304e-05
-0.000534561
-0.000109841
-0.000559803
-0.00012193
-0.000585811
-0.000134395
-0.000612798
-0.00014725
-0.00064087
-0.000160515
-0.000670038
-0.000174214
-0.000700212
-0.000188367
-0.000731205
-0.000202988
-0.00076273
-0.000218076
-0.000794389
-0.000825623
-0.000233634
-1.32384e-05
-0.000222309
-1.89773e-05
-0.000263415
-2.56867e-05
-0.000301208
-3.33149e-05
-0.0003358
-4.17978e-05
-0.000367456
-5.10628e-05
-0.000396573
-6.10332e-05
-0.000423643
-7.16337e-05
-0.000449217
-8.27957e-05
-0.000473859
-9.44622e-05
-0.000498104
-0.000106592
-0.000522431
-0.000119163
-0.000547232
-0.00013217
-0.000572804
-0.000145629
-0.000599339
-0.000159567
-0.000626932
-0.000174025
-0.000655581
-0.000189043
-0.000685193
-0.000204662
-0.000715586
-0.000220911
-0.000746482
-0.000237801
-0.000777498
-0.00080808
-0.000255345
-1.47541e-05
-0.000217095
-2.10316e-05
-0.000257138
-2.83212e-05
-0.000293919
-3.656e-05
-0.000327561
-4.56762e-05
-0.00035834
-5.55918e-05
-0.000386657
-6.62276e-05
-0.000413007
-7.75086e-05
-0.000437936
-8.93686e-05
-0.000461999
-0.000101756
-0.000485717
-0.000114636
-0.000509551
-0.000127995
-0.000533873
-0.00014184
-0.000558958
-0.0001562
-0.00058498
-0.000171117
-0.000612014
-0.000186648
-0.000640049
-0.000202853
-0.000668988
-0.000219788
-0.000698651
-0.0002375
-0.00072877
-0.000256013
-0.000758985
-0.000788748
-0.000275345
-1.62265e-05
-0.000211413
-2.30223e-05
-0.000250342
-3.08674e-05
-0.000286073
-3.96885e-05
-0.00031874
-4.94054e-05
-0.000348623
-5.9935e-05
-0.000376128
-7.11955e-05
-0.000401747
-8.31115e-05
-0.00042602
-9.56187e-05
-0.000449491
-0.000108669
-0.000472667
-0.000122234
-0.000495986
-0.000136308
-0.000519799
-0.000150908
-0.000544359
-0.000166072
-0.000569816
-0.000181858
-0.000596228
-0.000198338
-0.000623569
-0.000215588
-0.000651738
-0.000233682
-0.000680557
-0.000252682
-0.00070977
-0.000272625
-0.000739042
-0.000767836
-0.000293537
-1.76485e-05
-0.000205283
-2.494e-05
-0.000243051
-3.33142e-05
-0.000277699
-4.26871e-05
-0.000309367
-5.29705e-05
-0.00033834
-6.4076e-05
-0.000365022
-7.59189e-05
-0.000389904
-8.8423e-05
-0.000413516
-0.000101525
-0.000436389
-0.000115181
-0.000459011
-0.000129365
-0.000481802
-0.000144078
-0.000505086
-0.000159344
-0.000529092
-0.000175214
-0.000553947
-0.000191755
-0.000579687
-0.000209053
-0.000606271
-0.000227201
-0.00063359
-0.000246289
-0.000661468
-0.000266394
-0.000689666
-0.000287565
-0.000717871
-0.000745567
-0.000309835
-1.9013e-05
-0.000198723
-2.67757e-05
-0.000235288
-3.56506e-05
-0.000268824
-4.5543e-05
-0.000299475
-5.63571e-05
-0.000327526
-6.79991e-05
-0.00035338
-8.0381e-05
-0.000377522
-9.34253e-05
-0.000400472
-0.000107069
-0.000422745
-0.00012127
-0.000444811
-0.000136006
-0.000467066
-0.000151281
-0.000489811
-0.000167126
-0.000513247
-0.000183599
-0.000537474
-0.000200777
-0.000562508
-0.00021876
-0.000588288
-0.000237654
-0.000614696
-0.000257564
-0.000641558
-0.000278583
-0.000668647
-0.000300772
-0.000695682
-0.000722169
-0.00032417
-2.03133e-05
-0.000191758
-2.85208e-05
-0.000227081
-3.78661e-05
-0.000259479
-4.82443e-05
-0.000289097
-5.95519e-05
-0.000316218
-7.16894e-05
-0.000341243
-8.45657e-05
-0.000364646
-9.81014e-05
-0.000386936
-0.000112234
-0.000408613
-0.000126919
-0.000430126
-0.000142138
-0.000451847
-0.000157898
-0.000474051
-0.000174233
-0.000496912
-0.000191205
-0.000520502
-0.000208901
-0.000544811
-0.000227431
-0.000569758
-0.000246914
-0.000595213
-0.000267471
-0.000621001
-0.000289208
-0.00064691
-0.000312199
-0.000672691
-0.000697879
-0.000336489
-2.15428e-05
-0.00018441
-3.01669e-05
-0.000218457
-3.99507e-05
-0.000249695
-5.07794e-05
-0.000278268
-6.25417e-05
-0.000304456
-7.5133e-05
-0.000328651
-8.84583e-05
-0.00035132
-0.000102436
-0.000372959
-0.000117001
-0.000394047
-0.000132111
-0.000415016
-0.000147745
-0.000436212
-0.000163911
-0.000457885
-0.000180645
-0.000480178
-0.000198013
-0.000503135
-0.000216107
-0.000526717
-0.000235045
-0.000550821
-0.000254958
-0.0005753
-0.000275981
-0.000599978
-0.000298235
-0.000624656
-0.000321807
-0.000649119
-0.000672938
-0.000346749
-2.26954e-05
-0.000176705
-3.17062e-05
-0.000209446
-4.1895e-05
-0.000239506
-5.31373e-05
-0.000267026
-6.53145e-05
-0.000292279
-7.83165e-05
-0.000315649
-9.20444e-05
-0.000337592
-0.000106414
-0.000358589
-0.000121358
-0.000379103
-0.000136831
-0.000399543
-0.000152812
-0.000420232
-0.000169307
-0.000441391
-0.00018635
-0.000463134
-0.000204009
-0.000485476
-0.00022238
-0.000508346
-0.000241586
-0.000531615
-0.000261768
-0.000555118
-0.000283076
-0.000578671
-0.000305644
-0.000602087
-0.000329573
-0.000625189
-0.000647589
-0.000354922
-2.3765e-05
-0.000168671
-3.31311e-05
-0.00020008
-4.36897e-05
-0.000228948
-5.53073e-05
-0.000255408
-6.78583e-05
-0.000279728
-8.12271e-05
-0.000302281
-9.53107e-05
-0.000323509
-0.000110021
-0.000343879
-0.000125289
-0.000363835
-0.000141065
-0.000383767
-0.000157325
-0.000403972
-0.00017407
-0.000424645
-0.000191334
-0.00044587
-0.000209181
-0.000467629
-0.000227708
-0.000489819
-0.000247042
-0.000512281
-0.000267333
-0.000534827
-0.000288742
-0.000557262
-0.000311419
-0.00057941
-0.00033548
-0.000601128
-0.000622077
-0.000360992
-2.47458e-05
-3.44343e-05
-0.000190391
-4.53261e-05
-0.000218056
-5.72794e-05
-0.000243455
-7.01618e-05
-0.000266845
-8.38525e-05
-0.00028859
-9.8244e-05
-0.000309117
-0.000113245
-0.000328878
-0.000128781
-0.000348299
-0.000144799
-0.000367748
-0.00016127
-0.000387501
-0.00017819
-0.000407725
-0.000195587
-0.000428473
-0.00021352
-0.000449696
-0.000232084
-0.000471255
-0.000251407
-0.000492958
-0.000271645
-0.000514588
-0.000292972
-0.000535936
-0.000315553
-0.000556828
-0.00033952
-0.000577161
-0.000596646
-0.000364951
-3.56084e-05
-0.000180415
-4.67956e-05
-0.000206869
-5.90438e-05
-0.000231207
-7.22142e-05
-0.000253675
-8.61809e-05
-0.000274623
-0.000100832
-0.000294466
-0.000116071
-0.000313639
-0.00013182
-0.00033255
-0.00014802
-0.000351548
-0.000164635
-0.000370886
-0.000181655
-0.000390705
-0.000199098
-0.00041103
-0.000217017
-0.000431777
-0.0002355
-0.000452772
-0.000254675
-0.000473783
-0.000274702
-0.000494561
-0.000295763
-0.000514875
-0.000318043
-0.000534549
-0.00034169
-0.000553514
-0.00057154
-0.000366796
-3.66467e-05
-0.000170187
-4.80899e-05
-0.000195426
-6.05909e-05
-0.000218706
-7.40049e-05
-0.000240261
-8.82006e-05
-0.000260428
-0.000103061
-0.000279606
-0.000118487
-0.000298213
-0.000134393
-0.000316644
-0.000150715
-0.000335226
-0.000167409
-0.000354192
-0.000184454
-0.00037366
-0.000201859
-0.000393625
-0.000219665
-0.000413971
-0.000237953
-0.000434484
-0.000256846
-0.000454891
-0.000276503
-0.000474903
-0.000297118
-0.00049426
-0.00031889
-0.000512776
-0.000341992
-0.000530413
-0.000547
-0.000366532
-3.75427e-05
-0.000159744
-4.92013e-05
-0.000183767
-6.19119e-05
-0.000205995
-7.55237e-05
-0.000226649
-8.99004e-05
-0.000246051
-0.000104921
-0.000264585
-0.000120479
-0.000282655
-0.000136487
-0.000300637
-0.00015287
-0.000318843
-0.000169576
-0.000337486
-0.000186574
-0.000356662
-0.000203858
-0.000376341
-0.000221457
-0.000396372
-0.000239439
-0.000416502
-0.000257916
-0.000436413
-0.00027705
-0.00045577
-0.000297038
-0.000474271
-0.000318099
-0.000491715
-0.000340429
-0.000508083
-0.000523267
-0.000364161
-3.82906e-05
-0.000149126
-5.01228e-05
-0.000171935
-6.29984e-05
-0.000193119
-7.6761e-05
-0.000212886
-9.12694e-05
-0.000231542
-0.000106398
-0.000249457
-0.000122036
-0.000267017
-0.000138087
-0.000284586
-0.000154471
-0.000302458
-0.000171125
-0.000320832
-0.000188003
-0.000339784
-0.000205085
-0.000359259
-0.000222384
-0.000379073
-0.00023995
-0.000398935
-0.000257885
-0.000418478
-0.000276343
-0.000437312
-0.000295527
-0.000455087
-0.000315674
-0.000471568
-0.000337006
-0.000486751
-0.000500584
-0.000359689
-3.88855e-05
-0.000138373
-5.0848e-05
-0.000159972
-6.38425e-05
-0.000180125
-7.77073e-05
-0.000199022
-9.22968e-05
-0.000216953
-0.00010748
-0.000234273
-0.000123142
-0.000251355
-0.00013918
-0.000268548
-0.000155504
-0.000286134
-0.000172039
-0.000304297
-0.000188726
-0.000323097
-0.000205528
-0.000342457
-0.000222436
-0.000362165
-0.000239482
-0.000381889
-0.00025675
-0.000401211
-0.000274383
-0.000419679
-0.000292588
-0.000436882
-0.000311617
-0.000452539
-0.000331726
-0.000466642
-0.000479193
-0.000353117
-3.93225e-05
-0.000127524
-5.13709e-05
-0.000147924
-6.44367e-05
-0.000167059
-7.83539e-05
-0.000185104
-9.29721e-05
-0.000202335
-0.000108156
-0.000219089
-0.000123785
-0.000235726
-0.00013975
-0.000252584
-0.000155951
-0.000269933
-0.000172301
-0.000287947
-0.000188727
-0.000306672
-0.000205169
-0.000326014
-0.000221599
-0.000345736
-0.000238023
-0.000365465
-0.000254503
-0.000384731
-0.000271168
-0.000403014
-0.00028822
-0.00041983
-0.00030593
-0.00043483
-0.000324587
-0.000447985
-0.00045934
-0.00034444
-3.95974e-05
-5.16859e-05
-0.000135835
-6.47743e-05
-0.000153971
-7.86923e-05
-0.000171186
-9.32854e-05
-0.000187742
-0.000108414
-0.00020396
-0.000123951
-0.000220189
-0.000139781
-0.000236754
-0.000155796
-0.000253919
-0.000171894
-0.000271848
-0.000187986
-0.00029058
-0.000203992
-0.000310008
-0.000219856
-0.000329871
-0.00023556
-0.000349762
-0.000251135
-0.000369155
-0.000266691
-0.000387458
-0.000282422
-0.000404099
-0.000298611
-0.000418642
-0.000315585
-0.00043101
-0.000441275
-0.00033365
-5.17882e-05
-0.000123753
-6.48491e-05
-0.00014091
-7.87148e-05
-0.000157321
-9.32271e-05
-0.000173229
-0.000108242
-0.000188946
-0.000123627
-0.000204804
-0.000139259
-0.000221122
-0.00015502
-0.000238157
-0.000170797
-0.000256071
-0.000186482
-0.000274896
-0.000201973
-0.000294517
-0.000217188
-0.000314657
-0.000232073
-0.000334876
-0.000246632
-0.000354596
-0.000260943
-0.000373147
-0.000275187
-0.000389855
-0.000289654
-0.000404175
-0.000304712
-0.000415952
-0.000425257
-0.000320731
-5.16734e-05
-0.000111725
-6.46554e-05
-0.000127928
-7.84145e-05
-0.000143562
-9.27883e-05
-0.000158856
-0.000107629
-0.000174105
-0.000122798
-0.000189635
-0.000138165
-0.000205755
-0.000153604
-0.000222718
-0.000168988
-0.000240687
-0.000184191
-0.000259693
-0.000199088
-0.00027962
-0.000213567
-0.000300178
-0.00022754
-0.000320902
-0.000240973
-0.000341164
-0.000253908
-0.000360212
-0.000266503
-0.00037726
-0.000279049
-0.000391629
-0.000291955
-0.000403046
-0.00041155
-0.000305662
-5.13382e-05
-9.98004e-05
-6.4189e-05
-0.000115077
-7.77852e-05
-0.000129965
-9.19611e-05
-0.00014468
-0.000106564
-0.000159503
-0.000121451
-0.000174748
-0.000136484
-0.000190721
-0.000151528
-0.000207675
-0.000166443
-0.000225772
-0.000181085
-0.000245051
-0.000195306
-0.000265399
-0.000208963
-0.000286521
-0.000221931
-0.000307934
-0.000234131
-0.000328964
-0.000245563
-0.000348779
-0.000256352
-0.000366471
-0.000266782
-0.000381198
-0.000277298
-0.000392531
-0.000400429
-0.000288419
-5.07805e-05
-6.34465e-05
-0.000102411
-7.68224e-05
-0.000116589
-9.07387e-05
-0.000130763
-0.000105039
-0.000145203
-0.000119574
-0.000160213
-0.0001342
-0.000176095
-0.000148772
-0.000193102
-0.000163138
-0.000211406
-0.000177137
-0.000231053
-0.000190596
-0.000251939
-0.000203342
-0.000273775
-0.00021521
-0.000296067
-0.000226072
-0.000318101
-0.00023588
-0.000338972
-0.000244712
-0.000357639
-0.000252834
-0.000373075
-0.000260721
-0.000384645
-0.000392177
-0.000268973
-6.2426e-05
-8.99844e-05
-7.55224e-05
-0.000103493
-8.91158e-05
-0.00011717
-0.000103045
-0.000131274
-0.000117156
-0.000146102
-0.000131298
-0.000161953
-0.000145317
-0.000179084
-0.000159049
-0.000197674
-0.000172315
-0.000217786
-0.000184922
-0.000239332
-0.000196664
-0.000262033
-0.000207335
-0.000285395
-0.000216757
-0.00030868
-0.000224821
-0.000330908
-0.000231552
-0.000350909
-0.000237182
-0.000367445
-0.000242203
-0.000379624
-0.000387083
-0.000247297
-6.11269e-05
-7.78524e-05
-7.38835e-05
-9.07364e-05
-8.70888e-05
-0.000103965
-0.000100577
-0.000117786
-0.000114188
-0.000132491
-0.000127764
-0.000148376
-0.000141144
-0.000165704
-0.00015415
-0.000184667
-0.00016659
-0.000205346
-0.000178248
-0.000227674
-0.000188888
-0.000251394
-0.000198262
-0.000276021
-0.000206139
-0.000300803
-0.000212345
-0.000324701
-0.000216838
-0.000346416
-0.0002198
-0.000364483
-0.000221726
-0.000377698
-0.000385442
-0.000223368
-5.95502e-05
-6.60709e-05
-7.19062e-05
-7.83805e-05
-8.46564e-05
-9.12143e-05
-9.76301e-05
-0.000104812
-0.000110662
-0.000119459
-0.000123588
-0.00013545
-0.000136237
-0.000153056
-0.000148421
-0.000172483
-0.000159933
-0.000193834
-0.000170537
-0.00021707
-0.000179968
-0.000241963
-0.000187939
-0.00026805
-0.000194165
-0.000294578
-0.000198402
-0.000320464
-0.000200528
-0.000344289
-0.000200659
-0.000364352
-0.000199273
-0.000379085
-0.000387546
-0.000197169
-5.76992e-05
-6.95924e-05
-6.64872e-05
-8.18195e-05
-7.89872e-05
-9.42045e-05
-9.24271e-05
-0.000106576
-0.000107087
-0.000118762
-0.000123264
-0.000130583
-0.000141236
-0.000141841
-0.000161225
-0.000152316
-0.000183359
-0.000161753
-0.000207633
-0.000169861
-0.000233855
-0.000176317
-0.000261594
-0.000180779
-0.000290115
-0.000182936
-0.000318308
-0.000182575
-0.00034465
-0.000179727
-0.0003672
-0.00017483
-0.000383981
-0.00039368
-0.000168696
-6.6947e-05
-5.51189e-05
-7.8582e-05
-6.73523e-05
-9.03018e-05
-8.07074e-05
-0.000101928
-9.54606e-05
-0.000113282
-0.00011191
-0.000124174
-0.000130344
-0.000134397
-0.000151001
-0.000143718
-0.000174038
-0.000151866
-0.000199485
-0.000158527
-0.000227193
-0.000163344
-0.000256778
-0.000165926
-0.000287533
-0.000165888
-0.000318345
-0.000162927
-0.000347611
-0.00015697
-0.000373157
-0.000148391
-0.000392561
-0.000404106
-0.000137965
-6.39773e-05
-4.43375e-05
-7.49505e-05
-5.6379e-05
-8.59277e-05
-6.97302e-05
-9.6723e-05
-8.46653e-05
-0.000107148
-0.000101485
-0.000117006
-0.000120486
-0.000126079
-0.000141928
-0.000134122
-0.000165995
-0.00014085
-0.000192756
-0.00014593
-0.000222113
-0.000148975
-0.000253733
-0.000149549
-0.000286959
-0.0001472
-0.000320694
-0.00014153
-0.000353281
-0.000132352
-0.000382335
-0.00011995
-0.000404963
-0.000419035
-0.00010502
-6.06927e-05
-3.42046e-05
-7.09352e-05
-4.61366e-05
-8.10917e-05
-5.95736e-05
-9.09685e-05
-7.47886e-05
-0.000100368
-9.20856e-05
-0.000109082
-0.000111772
-0.000116885
-0.000134126
-0.00012352
-0.000159361
-0.000128689
-0.000187587
-0.000132043
-0.000218759
-0.000133171
-0.000252606
-0.000131599
-0.00028853
-0.000126815
-0.000325478
-0.00011833
-0.000361766
-0.00010584
-0.000394825
-8.95186e-05
-0.000421284
-0.000438605
-6.9949e-05
-5.71061e-05
-6.65491e-05
-3.66936e-05
-7.58075e-05
-5.03151e-05
-8.4678e-05
-6.59181e-05
-9.29527e-05
-8.38109e-05
-0.000100413
-0.000104311
-0.000106822
-0.000127716
-0.000111913
-0.00015427
-0.000115377
-0.000184124
-0.000116851
-0.000217285
-0.000115905
-0.000253551
-0.000112038
-0.000292398
-0.000104683
-0.000332832
-9.32707e-05
-0.000373179
-7.7379e-05
-0.000410717
-5.71186e-05
-0.000441545
-0.000462727
-3.2997e-05
-6.1809e-05
-2.8117e-05
-7.00926e-05
-4.20315e-05
-7.78696e-05
-5.81411e-05
-8.49208e-05
-7.67597e-05
-9.1016e-05
-9.8216e-05
-9.59063e-05
-0.000122826
-9.93137e-05
-0.000150863
-0.00010092
-0.000182517
-0.000100352
-0.000217853
-9.71678e-05
-0.000256735
-9.08418e-05
-0.000298724
-8.07682e-05
-0.000342906
-6.62988e-05
-0.000387648
-4.68628e-05
-0.000430153
-2.24676e-05
-0.00046594
-0.000489374
4.18e-06
-5.67343e-05
-2.04716e-05
-6.39686e-05
-3.47972e-05
-7.05666e-05
-5.1543e-05
-7.62968e-05
-7.10296e-05
-8.09157e-05
-9.35971e-05
-8.41618e-05
-0.00011958
-8.5746e-05
-0.000149278
-8.53403e-05
-0.000182923
-8.25639e-05
-0.00022063
-7.69665e-05
-0.000262333
-6.80099e-05
-0.00030768
-5.50578e-05
-0.000355858
-3.73945e-05
-0.000405312
-1.43038e-05
-0.000453244
1.47798e-05
-0.000495024
-0.000522945
4.83506e-05
-5.13476e-05
-5.74606e-05
-2.86842e-05
-6.27969e-05
-4.62067e-05
-6.71109e-05
-6.67156e-05
-7.0145e-05
-9.05631e-05
-7.16236e-05
-0.000118101
-7.12455e-05
-0.000149657
-6.86732e-05
-0.000185495
-6.35198e-05
-0.000225783
-5.53316e-05
-0.000270521
-4.35664e-05
-0.000319446
-2.75731e-05
-0.000371852
-6.58088e-06
-0.000426304
2.02083e-05
-0.000480033
5.32526e-05
-0.000528068
-0.000562126
9.24333e-05
-5.05974e-05
-2.37611e-05
-5.45925e-05
-4.22116e-05
-5.73991e-05
-6.39091e-05
-5.87435e-05
-8.92186e-05
-5.83352e-05
-0.00011851
-5.58595e-05
-0.000152132
-5.09692e-05
-0.000190386
-4.32722e-05
-0.00023348
-3.23157e-05
-0.000281477
-1.75608e-05
-0.0003342
1.64941e-06
-0.000391062
2.60889e-05
-0.000450743
5.6667e-05
-0.000510611
9.40148e-05
-0.000565416
-0.000606358
0.000138247
-4.34102e-05
-2.00921e-05
-4.59893e-05
-3.96324e-05
-4.72016e-05
-6.26968e-05
-4.67569e-05
-8.96633e-05
-4.43478e-05
-0.000120919
-3.96453e-05
-0.000156835
-3.22916e-05
-0.000197739
-2.18904e-05
-0.000243881
-7.9923e-06
-0.000295375
9.92856e-06
-0.000352121
3.2507e-05
-0.00041364
6.05382e-05
-0.000478775
9.49643e-05
-0.000545037
0.000136591
-0.000607043
-0.000655488
0.000185722
-3.59325e-05
-3.70256e-05
-3.85393e-05
-3.65627e-05
-6.31597e-05
-3.42354e-05
-9.19905e-05
-2.97189e-05
-0.000125435
-2.26684e-05
-0.000163885
-1.27149e-05
-0.000207693
5.41927e-07
-0.000257138
1.75459e-05
-0.000312379
3.88038e-05
-0.000373379
6.49219e-05
-0.000439758
9.66629e-05
-0.000510516
0.000134986
-0.00058336
0.000180827
-0.000652883
-0.00070934
0.000234679
-2.77412e-05
-3.89966e-05
-2.55283e-05
-6.53726e-05
-2.12324e-05
-9.62864e-05
-1.45101e-05
-0.000132158
-5.00021e-06
-0.000173395
7.67843e-06
-0.000220372
2.39304e-05
-0.00027339
4.41912e-05
-0.00033264
6.89446e-05
-0.000398133
9.87545e-05
-0.000469568
0.000134328
-0.000546089
0.000176593
-0.000625626
0.000226567
-0.000702858
-0.0007677
0.000284927
-1.81766e-05
-1.41455e-05
-6.94037e-05
-7.80266e-06
-0.000102629
1.21444e-06
-0.000141175
1.32847e-05
-0.000185465
2.88011e-05
-0.000235888
4.81724e-05
-0.000292761
7.18255e-05
-0.000356293
0.000100216
-0.000426523
0.000133856
-0.000503208
0.000173373
-0.000585606
0.000219621
-0.000671873
0.00027364
-0.000756877
-0.000830311
0.00033625
-2.46056e-06
-7.53146e-05
5.99983e-06
-0.00011109
1.73921e-05
-0.000152567
3.21116e-05
-0.000200185
5.05645e-05
-0.000254341
7.31634e-05
-0.00031536
0.000100325
-0.000383455
0.000132475
-0.000458673
0.000170063
-0.000540797
0.000213623
-0.000629165
0.000263884
-0.000722135
0.000321858
-0.000814851
-0.000896863
0.000388411
9.48222e-06
2.01231e-05
-0.000121731
3.39607e-05
-0.000166405
5.14077e-05
-0.000217632
7.28821e-05
-0.000275815
9.87997e-05
-0.000341278
0.000129567
-0.000414222
0.000165574
-0.00049468
0.000207208
-0.00058243
0.000254887
-0.000676845
0.000309183
-0.00077643
0.000371018
-0.000876686
-0.000967001
0.000441156
3.45187e-05
-0.000134608
5.08635e-05
-0.00018275
7.1105e-05
-0.000237873
9.56719e-05
-0.000300382
0.000124982
-0.000370588
0.000159429
-0.000448669
0.000199369
-0.000534621
0.000245118
-0.000628178
0.000296974
-0.000728701
0.000355309
-0.000834766
0.000420913
-0.00094229
-0.00104032
0.000494228
4.91436e-05
-0.000149771
6.80492e-05
-0.000201655
9.11416e-05
-0.000260966
0.000118859
-0.000328099
0.000151618
-0.000403347
0.000189799
-0.00048685
0.000233721
-0.000578543
0.000283627
-0.000678085
0.00033969
-0.000784765
0.000402055
-0.00089713
0.000471337
-0.00101157
-0.00111635
0.000547373
6.39604e-05
8.54731e-05
-0.000223168
0.000111463
-0.000286955
0.000142374
-0.00035901
0.000178622
-0.000439595
0.000220568
-0.000528797
0.000268495
-0.000626469
0.000322573
-0.000732163
0.000382847
-0.000845039
0.000449218
-0.000963501
0.000522101
-0.00108445
-0.00119459
0.000600342
0.000103098
-0.000247327
0.000132022
-0.000315879
0.000166158
-0.000393147
0.000205915
-0.000479352
0.000251636
-0.000574517
0.000303561
-0.000678395
0.000361793
-0.000790395
0.000426253
-0.000909498
0.000496603
-0.00103385
0.000573034
-0.00116089
-0.00127446
0.000652901
0.000120894
0.000152778
-0.000347764
0.000190156
-0.000430525
0.000233425
-0.00052262
0.000282901
-0.000623994
0.000338789
-0.000734282
0.000401125
-0.000852731
0.000469713
-0.000978087
0.000544008
-0.00110815
0.000623945
-0.00124082
-0.00135538
0.000704866
0.000173699
-0.000382626
0.00021432
-0.000471146
0.000261079
-0.000569379
0.000314265
-0.00067718
0.000374042
-0.000794059
0.000440396
-0.000919084
0.000513042
-0.00105073
0.000591275
-0.00118638
0.000674567
-0.00132412
-0.00143705
0.000756231
0.000194754
0.000238602
-0.000514994
0.000288806
-0.000619583
0.000345619
-0.000733993
0.000409165
-0.000857606
0.000479405
-0.000989324
0.000556059
-0.00112739
0.000638448
-0.00126877
0.00072495
-0.00141062
-0.00151918
0.000807085
0.000262957
0.00031653
-0.000673157
0.000376842
-0.000794305
0.000443973
-0.000924736
0.000517872
-0.00106322
0.000598395
-0.00120791
0.000685419
-0.00135579
0.000776851
-0.00150205
-0.00159897
0.000856644
0.000344173
-0.000729992
0.000407809
-0.00085794
0.000478259
-0.000995186
0.000555438
-0.0011404
0.000639284
-0.00129176
0.000730163
-0.00144667
0.000830241
-0.00160213
-0.00173821
0.000969479
0.000371649
0.000438384
-0.000924676
0.000511814
-0.00106862
0.000591757
-0.00122034
0.000678075
-0.00137808
0.000771153
-0.00153975
0.000872388
-0.00170336
-0.0018596
0.000993774
0.000468443
-0.000994246
0.000544463
-0.00114464
0.000626598
-0.00130248
0.000714496
-0.00146597
0.000808108
-0.00163336
0.000907479
-0.00180273
-0.00196958
0.00101746
0.000497861
0.000576054
-0.00122283
0.000659809
-0.00138623
0.000748508
-0.00155467
0.000841628
-0.00172648
0.00093837
-0.00189948
-0.0020712
0.00104
0.000606448
0.000691271
-0.00147106
0.00078011
-0.00164351
0.000872046
-0.00181842
0.000965797
-0.00199323
-0.00216633
0.00106092
0.000720875
-0.00155642
0.000809277
-0.00173192
0.000899508
-0.00190865
0.000990046
-0.00208377
-0.00225604
0.00107975
0.000748513
0.000835965
-0.00181937
0.000924071
-0.00199675
0.00101123
-0.00217093
-0.00234092
0.00109611
0.000860119
0.000945746
-0.00208238
0.0010294
-0.00225458
-0.00242128
0.00110976
0.000964527
0.00104455
-0.0023346
-0.0024973
0.00112057
0.0010567
-0.00241089
-0.00256908
0.00112848
0.00106589
-0.00263671
0.00113352
0.00113574
0.00287219
0.00126028
0.00120063
0.00263101
0.00280505
0.00126777
0.00112167
0.00236189
0.00120047
0.00255221
0.00273275
0.00127277
0.00111355
0.0022726
0.00119741
0.00246835
0.00265503
0.00127513
0.00100869
0.00197412
0.00110237
0.00217892
0.00119133
0.00237939
0.00257162
0.00127474
0.000890627
0.00166929
0.000990238
0.00187451
0.00108809
0.00208107
0.00118213
0.00228535
0.00248222
0.00127152
0.00086672
0.0015685
0.000968946
0.00177228
0.00107066
0.00197936
0.00116972
0.00218629
0.00238644
0.0012655
0.000738945
0.00127313
0.000840594
0.00146686
0.000944897
0.00166798
0.00105009
0.00187417
0.00115403
0.00208235
0.00228368
0.00125679
0.000613983
0.00099931
0.000710559
0.00117655
0.000812449
0.00136497
0.0009182
0.00156223
0.00102635
0.00176601
0.00113494
0.00197376
0.00217298
0.00124563
0.000585793
0.000911243
0.000681054
0.00108129
0.000782522
0.0012635
0.000888991
0.00145576
0.000999419
0.00165558
0.00111224
0.00186094
0.00205279
0.00123244
0.000471688
0.000677454
0.000557349
0.000825582
0.000650743
0.000987895
0.000751095
0.00116314
0.00085743
0.00134942
0.00096914
0.00154387
0.00108548
0.0017446
0.0019205
0.00121777
0.000446097
0.000603013
0.000528974
0.000742705
0.000619976
0.000896892
0.000718511
0.00106461
0.000823752
0.00124418
0.000935163
0.00143246
0.00105255
0.00162722
0.00177051
0.00120253
0.000349988
0.000415352
0.00042123
0.000531771
0.000500999
0.000662936
0.000589142
0.00080875
0.000685203
0.000968547
0.00078841
0.00114098
0.000897931
0.00132294
0.00101079
0.00151436
0.00167242
0.00110888
0.000269834
0.000261608
0.000329461
0.000355726
0.000397361
0.000463871
0.000473767
0.00058653
0.000558663
0.000723854
0.000651709
0.000875502
0.000752135
0.00104055
0.000858601
0.00121648
0.0009687
0.00140426
0.00157039
0.00107074
0.000253837
0.000212755
0.000310261
0.000299302
0.00037474
0.000399392
0.000447606
0.000513664
0.000528963
0.000642497
0.000618596
0.000785868
0.000715841
0.000943306
0.000819319
0.001113
0.000927766
0.00129581
0.00146686
0.00103129
0.000193246
9.95536e-05
0.000239281
0.000166721
0.00029255
0.000246032
0.00035359
0.000338352
0.000422815
0.00044444
0.000500439
0.000564872
0.000586384
0.000699923
0.000680165
0.000849525
0.000780587
0.00101258
0.000886893
0.00118951
0.00136231
0.000991452
0.000182897
6.24626e-05
0.000226244
0.000123374
0.000276455
0.000195822
0.000334099
0.000280708
0.000399654
0.000378885
0.000473435
0.00049109
0.000555503
0.000617855
0.000645567
0.000759462
0.000742684
0.000915459
0.000846369
0.00108582
0.00125724
0.000951431
0.000139
-1.74938e-05
0.000173953
2.75091e-05
0.000214772
8.25545e-05
0.000262061
0.000148534
0.000316405
0.000226364
0.000378331
0.000316959
0.000448239
0.000421182
0.000526319
0.000539775
0.000612466
0.000673315
0.000706033
0.000821892
0.000806763
0.000985093
0.00115251
0.000911499
0.000133399
-4.55779e-05
0.000166399
-5.49053e-06
0.000204873
4.40799e-05
0.00024941
0.000103997
0.000300599
0.000175175
0.000358998
0.00025856
0.000425075
0.000355105
0.000499134
0.000465716
0.000581247
0.000591202
0.000671067
0.000732072
0.000768559
0.000887601
0.00104895
0.000872121
0.000102279
-9.95721e-05
0.00012895
-7.22488e-05
0.000160188
-3.67283e-05
0.000196517
7.75058e-06
0.0002385
6.2014e-05
0.000286719
0.000126956
0.000341746
0.000203533
0.0004041
0.000292751
0.000474183
0.000395633
0.000552223
0.000513162
0.000638161
0.000646135
0.000732176
0.000793586
0.000947304
0.000833818
0.000100143
-0.000121207
0.000125576
-9.76821e-05
0.000155246
-6.63981e-05
0.000189639
-2.66421e-05
0.000229285
2.23679e-05
0.000274748
8.14927e-05
0.000326603
0.000151678
0.000385401
0.000233953
0.000451623
0.000329411
0.000525632
0.000439152
0.000607623
0.000564144
0.000697986
0.000703223
0.000848208
0.000797082
9.8818e-05
-0.00014204
0.000123182
-0.000122046
0.000151474
-9.46901e-05
0.00018414
-5.93087e-05
0.000221676
-1.51683e-05
0.00026462
3.85495e-05
0.000313535
0.000102763
0.000368992
0.000178496
0.000431529
0.000266875
0.000501622
0.000369059
0.000579681
0.000486085
0.00066629
0.000616614
0.000752158
0.000762341
7.80397e-05
-0.000172474
9.82032e-05
-0.000162203
0.000121654
-0.000145496
0.000148749
-0.000121785
0.000179895
-9.04549e-05
0.000215549
-5.08229e-05
0.000256219
-2.11988e-06
0.00030245
5.65312e-05
0.000354817
0.00012613
0.000413896
0.000207795
0.000480254
0.000302701
0.000554473
0.000411866
0.000637303
0.000533784
0.000659524
0.000729937
7.85767e-05
-0.0001893
9.81889e-05
-0.000181815
0.000120867
-0.000168174
0.000146932
-0.00014785
0.000176752
-0.000120275
0.000210747
-8.48181e-05
0.00024939
-4.07627e-05
0.000293204
1.27177e-05
0.000342754
7.65794e-05
0.000398642
0.000151907
0.000461498
0.000239844
0.000532036
0.000341328
0.000611134
0.000454686
0.000570549
0.000700109
6.29544e-05
-0.000205274
7.94979e-05
-0.000205844
9.86595e-05
-0.000200977
0.000120689
-0.000190203
0.000145873
-0.000173034
0.000174545
-0.000148947
0.00020709
-0.000117363
0.000243945
-7.7618e-05
0.000285606
-2.89434e-05
0.000332625
2.95607e-05
0.000385609
9.89227e-05
0.000445235
0.000180219
0.000512305
0.000274258
0.000587782
0.000379208
0.000485359
0.000672972
6.43791e-05
-0.000219325
8.07043e-05
-0.000222169
9.94974e-05
-0.00021977
0.000120981
-0.000211687
0.000145413
-0.000197466
0.000173095
-0.00017663
0.000204378
-0.000148646
0.000239669
-0.000112909
0.000279433
-6.87074e-05
0.000324202
-1.52082e-05
0.000374581
4.85435e-05
0.000431268
0.000123532
0.00049512
0.000210406
0.00056714
0.000307188
0.000403974
0.000648526
6.59426e-05
-0.00023332
8.20977e-05
-0.000238324
0.000100586
-0.000238258
0.000121606
-0.000232707
0.000145392
-0.000221252
0.000172218
-0.000203456
0.000202406
-0.000178834
0.000236333
-0.000146835
0.000274435
-0.00010681
0.000317223
-5.79954e-05
0.000365288
4.78293e-07
0.000419334
6.94853e-05
0.000480239
0.000149501
0.000549003
0.000238425
0.000326323
0.000626654
5.3607e-05
-0.00023571
6.75666e-05
-0.00024728
8.3583e-05
-0.00025434
0.000101811