/*--------------------------------*- C++ -*----------------------------------*\
  =========                 |
  \\      /  F ield         | OpenFOAM: The Open Source CFD Toolbox
   \\    /   O peration     | Website:  https://openfoam.org
    \\  /    A nd           | Version:  7
     \\/     M anipulation  |
\*---------------------------------------------------------------------------*/
FoamFile
{
    version     2.0;
    format      ascii;
    class       surfaceScalarField;
    location    "140";
    object      phi;
}
// * * * * * * * * * * * * * * * * * * * * * * * * * * * * * * * * * * * * * //

dimensions      [0 3 -1 0 0 0 0];

internalField   nonuniform List<scalar> 
8927
(
0.00148901
0.00977518
-0.00975765
0.00145674
0.0109802
-0.0109479
0.00143069
0.0105465
-0.0105204
0.001422
0.00827393
-0.00826524
0.00142999
0.0043838
-0.00439179
0.00144182
2.86283e-05
-4.04651e-05
0.00144265
-0.00461224
0.00461141
0.00143187
-0.0082762
0.00828699
0.00142039
-0.0107926
0.0108041
0.00141412
-0.0110246
0.0110309
0.00141009
-0.00864294
0.00864698
0.00140362
-0.00493422
0.00494069
0.0013925
0.00105346
-0.00104234
0.00137933
0.0056603
-0.00564713
0.00137003
0.0102133
-0.010204
0.00136475
0.0114199
-0.0114146
0.00135687
0.00896817
-0.00896029
0.00133989
0.00604354
-0.00602656
0.0013177
-0.00224824
0.00227044
0.00130044
-0.00567685
0.00569411
0.00129041
-0.0100747
0.0100847
0.00128137
-0.0108866
0.0108956
-0.00203315
0.00205097
0.00149402
0.00979196
0.00146175
0.0110124
0.00143458
0.0105737
0.00142395
0.00828456
0.00143014
0.00437761
0.00144064
1.81307e-05
0.00144031
-0.00461192
0.0014284
-0.00826429
0.00141631
-0.0107805
0.00141055
-0.0110189
0.00140767
-0.00864005
0.00140278
-0.00492934
0.00139325
0.00106299
0.00138155
0.005672
0.00137329
0.0102216
0.00136781
0.0114254
0.00135925
0.00897673
0.00134075
0.00606204
0.00131706
-0.00222455
0.00129893
-0.00565873
0.00128824
-0.010064
0.0012806
-0.0108789
-0.00201676
0.00149898
0.00980795
0.00146671
0.0110447
0.00143839
0.010602
0.00142579
0.00829716
0.00143018
0.00437323
0.00143937
8.93846e-06
0.00143793
-0.00461048
0.00142493
-0.00825128
0.00141219
-0.0107678
0.00140693
-0.0110136
0.00140519
-0.00863831
0.00140193
-0.00492608
0.00139402
0.0010709
0.0013838
0.00568223
0.00137658
0.0102288
0.00137089
0.0114311
0.00136168
0.00898594
0.00134169
0.00608202
0.00131653
-0.00219939
0.00129754
-0.00563974
0.0012862
-0.0100526
0.00127994
-0.0108727
-0.00200183
0.00150388
0.0098231
0.00147162
0.011077
0.00144213
0.0106314
0.00142753
0.00831177
0.0014301
0.00437065
0.00143802
1.01975e-06
0.00143553
-0.00460799
0.00142144
-0.0082372
0.00140804
-0.0107544
0.00140325
-0.0110088
0.00140267
-0.00863774
0.00140106
-0.00492447
0.0013948
0.00107716
0.00138608
0.00569095
0.00137991
0.010235
0.00137401
0.011437
0.00136417
0.00899579
0.00134272
0.00610347
0.00131611
-0.00217278
0.00129627
-0.00561989
0.00128427
-0.0100406
0.00127941
-0.0108678
-0.00198837
0.00150873
0.00983736
0.00147648
0.0111092
0.0014458
0.0106621
0.00142917
0.0083284
0.00142991
0.00436991
0.00143659
-5.65579e-06
0.00143309
-0.00460448
0.00141794
-0.00822205
0.00140387
-0.0107403
0.00139951
-0.0110044
0.0014001
-0.00863832
0.00140017
-0.00492454
0.0013956
0.00108173
0.00138838
0.00569817
0.00138327
0.0102401
0.00137716
0.0114431
0.0013667
0.00900625
0.00134383
0.00612634
0.0013158
-0.00214476
0.00129511
-0.00559921
0.00128246
-0.010028
0.00127901
-0.0108643
-0.0019764
0.00151352
0.00985069
0.00148129
0.0111415
0.0014494
0.010694
0.00143071
0.00834709
0.00142962
0.004371
0.00143508
-1.11164e-05
0.00143062
-0.00460002
0.00141444
-0.00820587
0.00139966
-0.0107256
0.00139573
-0.0110005
0.00139748
-0.00864007
0.00139925
-0.00492631
0.0013964
0.00108458
0.00139072
0.00570385
0.00138665
0.0102442
0.00138034
0.0114494
0.00136929
0.00901731
0.00134503
0.0061506
0.0013156
-0.00211533
0.00129408
-0.00557768
0.00128078
-0.0100147
0.00127873
-0.0108623
-0.00196592
0.00151826
0.00986302
0.00148606
0.0111736
0.00145293
0.0107272
0.00143216
0.00836787
0.00142922
0.00437394
0.00143349
-1.53884e-05
0.00142812
-0.00459466
0.00141093
-0.00818868
0.00139544
-0.0107101
0.00139189
-0.0109969
0.0013948
-0.00864299
0.0013983
-0.00492981
0.00139721
0.00108567
0.00139307
0.00570798
0.00139005
0.0102472
0.00138355
0.0114559
0.00137192
0.00902894
0.00134631
0.00617621
0.00131552
-0.00208454
0.00129316
-0.00555533
0.00127921
-0.0100007
0.00127857
-0.0108616
-0.00195697
0.00152292
0.0098743
0.00149078
0.0112058
0.00145641
0.0107615
0.00143352
0.00839076
0.00142871
0.00437875
0.00143182
-1.84953e-05
0.0014256
-0.00458843
0.00140742
-0.0081705
0.00139119
-0.0106938
0.001388
-0.0109938
0.00139208
-0.00864707
0.00139733
-0.00493507
0.00139802
0.00108499
0.00139544
0.00571056
0.00139347
0.0102492
0.00138677
0.0114626
0.0013746
0.00904112
0.00134768
0.00620313
0.00131555
-0.00205241
0.00129237
-0.00553216
0.00127777
-0.00998612
0.00127853
-0.0108624
-0.00194954
0.00152752
0.00988448
0.00149545
0.0112379
0.00145984
0.0107971
0.00143481
0.00841578
0.00142811
0.00438544
0.00143008
-2.04587e-05
0.00142305
-0.00458141
0.00140391
-0.00815137
0.00138693
-0.0106769
0.00138406
-0.0109909
0.0013893
-0.00865231
0.00139633
-0.0049421
0.00139883
0.00108249
0.00139783
0.00571156
0.00139691
0.0102501
0.00139002
0.0114695
0.00137732
0.00905382
0.00134913
0.00623132
0.00131569
-0.00201897
0.00129171
-0.00550817
0.00127644
-0.00997086
0.00127861
-0.0108646
-0.00194366
0.00153204
0.0098935
0.00150007
0.0112698
0.00146321
0.010834
0.00143602
0.00844297
0.00142742
0.00439405
0.00142826
-2.12974e-05
0.00142048
-0.00457363
0.00140041
-0.0081313
0.00138265
-0.0106591
0.00138008
-0.0109883
0.00138647
-0.00865871
0.0013953
-0.00495092
0.00139963
0.00107816
0.00140022
0.00571097
0.00140035
0.01025
0.00139329
0.0114765
0.00138009
0.00906702
0.00135067
0.00626074
0.00131595
-0.00198425
0.00129117
-0.00548339
0.00127525
-0.00995494
0.00127881
-0.0108681
-0.00193933
0.00153647
0.0099013
0.00150465
0.0113016
0.00146654
0.0108721
0.00143717
0.00847234
0.00142663
0.00440458
0.00142636
-2.10269e-05
0.00141788
-0.00456514
0.00139692
-0.00811034
0.00137836
-0.0106405
0.00137605
-0.010986
0.00138359
-0.00866625
0.00139423
-0.00496156
0.00140043
0.00107195
0.00140262
0.00570879
0.00140381
0.0102488
0.00139657
0.0114838
0.0013829
0.0090807
0.0013523
0.00629134
0.00131632
-0.00194827
0.00129075
-0.00545783
0.00127417
-0.00993835
0.00127913
-0.0108731
-0.00193656
0.00154083
0.00990781
0.00150917
0.0113333
0.00146983
0.0109114
0.00143825
0.00850392
0.00142576
0.00441707
0.00142439
-1.96602e-05
0.00141526
-0.00455601
0.00139343
-0.00808851
0.00137405
-0.0106212
0.00137197
-0.0109839
0.00138066
-0.00867494
0.00139313
-0.00497402
0.00140122
0.00106386
0.00140501
0.005705
0.00140727
0.0102465
0.00139987
0.0114912
0.00138574
0.00909482
0.00135401
0.00632307
0.00131681
-0.00191107
0.00129047
-0.00543148
0.00127322
-0.00992111
0.00127956
-0.0108794
-0.00193538
0.00154509
0.00991296
0.00151365
0.0113647
0.00147307
0.010952
0.00143928
0.00853771
0.0014248
0.00443155
0.00142235
-1.7207e-05
0.00141262
-0.00454628
0.00138996
-0.00806585
0.00136975
-0.0106009
0.00136785
-0.010982
0.00137768
-0.00868477
0.00139198
-0.00498833
0.00140199
0.00105385
0.00140741
0.00569958
0.00141072
0.0102432
0.00140318
0.0114987
0.00138863
0.00910937
0.00135581
0.00635589
0.00131742
-0.00187269
0.00129032
-0.00540437
0.0012724
-0.00990319
0.00128011
-0.0108872
-0.00193578
0.00154925
0.0099167
0.00151807
0.0113959
0.00147628
0.0109938
0.00144025
0.00857374
0.00142377
0.00444803
0.00142023
-1.36737e-05
0.00140995
-0.00453599
0.0013865
-0.0080424
0.00136543
-0.0105799
0.00136369
-0.0109803
0.00137464
-0.00869571
0.0013908
-0.00500449
0.00140275
0.0010419
0.00140979
0.00569253
0.00141418
0.0102388
0.00140649
0.0115064
0.00139155
0.00912431
0.00135769
0.00638975
0.00131815
-0.00183315
0.00129029
-0.00537652
0.0012717
-0.0098846
0.00128077
-0.0108962
-0.00193778
0.00155331
0.00991895
0.00152243
0.0114268
0.00147945
0.0110368
0.00144117
0.00861202
0.00142265
0.00446656
0.00141804
-9.06336e-06
0.00140725
-0.0045252
0.00138305
-0.0080182
0.00136112
-0.0105579
0.00135949
-0.0109787
0.00137154
-0.00870776
0.00138957
-0.00502252
0.00140348
0.001028
0.00141217
0.00568384
0.00141762
0.0102334
0.00140981
0.0115142
0.0013945
0.00913962
0.00135966
0.00642459
0.001319
-0.00179249
0.0012904
-0.00534792
0.00127113
-0.00986533
0.00128154
-0.0109066
-0.00194139
0.00155726
0.00991963
0.00152674
0.0114573
0.00148259
0.0110809
0.00144206
0.00865256
0.00142146
0.00448715
0.00141577
-3.37539e-06
0.00140453
-0.00451395
0.00137961
-0.00799329
0.0013568
-0.0105351
0.00135525
-0.0109771
0.00136839
-0.0087209
0.00138829
-0.00504242
0.00140418
0.00101211
0.00141452
0.00567351
0.00142106
0.0102268
0.00141313
0.0115221
0.00139749
0.00915527
0.0013617
0.00646037
0.00131996
-0.00175074
0.00129064
-0.00531859
0.00127068
-0.00984537
0.00128242
-0.0109184
-0.00194662
0.00156108
0.00991867
0.00153098
0.0114874
0.00148571
0.0111262
0.0014429
0.00869536
0.0014202
0.00450985
0.00141343
3.39407e-06
0.00140177
-0.00450229
0.00137619
-0.00796771
0.00135249
-0.0105114
0.00135097
-0.0109756
0.00136518
-0.00873511
0.00138697
-0.0050642
0.00140486
0.000994213
0.00141686
0.00566151
0.00142448
0.0102192
0.00141645
0.0115302
0.0014005
0.00917122
0.00136383
0.00649704
0.00132104
-0.00170796
0.00129101
-0.00528856
0.00127037
-0.00982473
0.00128341
-0.0109314
-0.00195346
0.00156478
0.009916
0.00153516
0.0115171
0.00148879
0.0111726
0.00144371
0.00874044
0.00141888
0.00453469
0.00141102
1.12528e-05
0.00139899
-0.00449026
0.00137279
-0.00794151
0.00134818
-0.0104868
0.00134665
-0.0109741
0.00136192
-0.00875038
0.00138559
-0.00508787
0.0014055
0.000974301
0.00141916
0.00564784
0.00142788
0.0102105
0.00141977
0.0115383
0.00140353
0.00918746
0.00136604
0.00653453
0.00132224
-0.00166416
0.00129152
-0.00525784
0.00127018
-0.00980339
0.00128451
-0.0109457
-0.00196194
0.00156834
0.00991153
0.00153927
0.0115461
0.00149185
0.01122
0.0014445
0.00878779
0.00141749
0.0045617
0.00140853
2.02121e-05
0.00139618
-0.00447791
0.0013694
-0.00791473
0.00134388
-0.0104613
0.0013423
-0.0109725
0.0013586
-0.00876667
0.00138415
-0.00511343
0.0014061
0.000952352
0.00142144
0.0056325
0.00143126
0.0102007
0.00142308
0.0115464
0.00140659
0.00920396
0.00136833
0.00657279
0.00132356
-0.00161939
0.00129216
-0.00522643
0.00127011
-0.00978134
0.00128571
-0.0109613
-0.00197206
0.00157176
0.00990519
0.00154331
0.0115746
0.00149488
0.0112684
0.00144526
0.00883741
0.00141604
0.00459091
0.00140597
3.0287e-05
0.00139333
-0.00446527
0.00136603
-0.00788744
0.00133959
-0.0104349
0.00133791
-0.0109708
0.00135522
-0.00878398
0.00138266
-0.00514087
0.00140666
0.000928349
0.00142369
0.00561547
0.00143461
0.0101897
0.00142638
0.0115547
0.00140966
0.00922067
0.00137069
0.00661176
0.00132499
-0.0015737
0.00129293
-0.00519437
0.00127018
-0.00975859
0.00128702
-0.0109782
-0.00198382
0.00157502
0.00989689
0.00154727
0.0116023
0.00149788
0.0113178
0.001446
0.00888929
0.00141454
0.00462237
0.00140333
4.14965e-05
0.00139044
-0.00445238
0.00136267
-0.00785967
0.00133531
-0.0104075
0.00133349
-0.010969
0.00135178
-0.00880226
0.00138111
-0.0051702
0.00140718
0.000902279
0.00142589
0.00559676
0.00143793
0.0101777
0.00142966
0.0115629
0.00141275
0.00923759
0.00137312
0.00665139
0.00132654
-0.00152712
0.00129384
-0.00516167
0.00127037
-0.00973512
0.00128843
-0.0109962
-0.00199723
0.00157811
0.00988654
0.00155114
0.0116293
0.00150086
0.0113681
0.00144672
0.00894343
0.00141299
0.0046561
0.00140062
5.38621e-05
0.00138752
-0.00443927
0.00135933
-0.00783148
0.00133105
-0.0103792
0.00132903
-0.010967
0.00134828
-0.00882151
0.00137949
-0.00520142
0.00140764
0.000874128
0.00142806
0.00557634
0.00144121
0.0101645
0.00143293
0.0115712
0.00141586
0.00925466
0.00137563
0.00669162
0.00132821
-0.0014797
0.00129488
-0.00512834
0.00127069
-0.00971093
0.00128993
-0.0110155
-0.0020123
0.00158103
0.00987407
0.00155492
0.0116554
0.0015038
0.0114192
0.00144743
0.0089998
0.00141139
0.00469213
0.00139784
6.74126e-05
0.00138455
-0.00442599
0.00135601
-0.00780294
0.00132679
-0.01035
0.00132455
-0.0109647
0.00134472
-0.00884167
0.00137781
-0.00523451
0.00140805
0.000843883
0.00143017
0.00555423
0.00144446
0.0101503
0.00143618
0.0115795
0.00141897
0.00927188
0.00137821
0.00673238
0.00132999
-0.00143148
0.00129606
-0.00509441
0.00127114
-0.009686
0.00129154
-0.0110359
-0.00202902
0.00158377
0.00985938
0.00155861
0.0116806
0.00150672
0.0114711
0.00144813
0.0090584
0.00140975
0.00473051
0.00139498
8.21739e-05
0.00138155
-0.00441255
0.00135269
-0.00777408
0.00132256
-0.0103199
0.00132003
-0.0109622
0.00134109
-0.00886274
0.00137606
-0.00526948
0.00140841
0.000811534
0.00143224
0.0055304
0.00144766
0.0101348
0.00143941
0.0115878
0.00142209
0.00928921
0.00138085
0.00677362
0.00133188
-0.00138251
0.00129737
-0.0050599
0.00127171
-0.00966035
0.00129325
-0.0110574
-0.00204741
0.00158631
0.00984238
0.00156219
0.0117047
0.00150961
0.0115237
0.00144882
0.00911919
0.00140806
0.00477127
0.00139206
9.81803e-05
0.00137849
-0.00439898
0.00134939
-0.00774498
0.00131834
-0.0102888
0.00131549
-0.0109593
0.00133741
-0.00888466
0.00137424
-0.00530631
0.0014087
0.000777072
0.00143425
0.00550485
0.00145082
0.0101183
0.00144261
0.011596
0.00142521
0.00930662
0.00138356
0.00681527
0.00133388
-0.00133283
0.00129881
-0.00502484
0.00127241
-0.00963395
0.00129505
-0.0110801
-0.00206746
0.00158863
0.009823
0.00156566
0.0117277
0.00151246
0.0115769
0.0014495
0.00918215
0.00140634
0.00481443
0.00138906
0.000115465
0.00137539
-0.00438531
0.00134609
-0.00771569
0.00131413
-0.0102569
0.00131091
-0.0109561
0.00133366
-0.00890741
0.00137234
-0.00534499
0.00140893
0.000740488
0.0014362
0.00547758
0.00145393
0.0101005
0.00144579
0.0116041
0.00142832
0.00932408
0.00138632
0.00685727
0.00133599
-0.00128249
0.00130039
-0.00498924
0.00127324
-0.00960681
0.00129695
-0.0111038
-0.00208917
0.00159074
0.00980114
0.00156901
0.0117494
0.00151528
0.0116306
0.00145018
0.00924724
0.00140459
0.00486002
0.00138599
0.000134068
0.00137223
-0.00437155
0.00134281
-0.00768627
0.00130995
-0.010224
0.00130631
-0.0109525
0.00132985
-0.00893095
0.00137037
-0.00538551
0.00140909
0.000701775
0.00143808
0.00544859
0.00145698
0.0100816
0.00144893
0.0116122
0.00143144
0.00934157
0.00138915
0.00689955
0.00133821
-0.00123155
0.0013021
-0.00495313
0.0012742
-0.00957891
0.00129894
-0.0111285
-0.00211256
0.00159262
0.00977671
0.00157222
0.0117698
0.00151805
0.0116848
0.00145086
0.00931442
0.00140281
0.00490807
0.00138285
0.00015403
0.00136902
-0.00435772
0.00133953
-0.00765678
0.00130579
-0.0101903
0.00130169
-0.0109484
0.00132598
-0.00895523
0.00136833
-0.00542786
0.00140917
0.000660929
0.0014399
0.00541786
0.00145998
0.0100615
0.00145203
0.0116201
0.00143454
0.00935905
0.00139203
0.00694206
0.00134053
-0.00118005
0.00130394
-0.00491653
0.00127529
-0.00955026
0.00130102
-0.0111542
-0.0021376
0.00159426
0.00974962
0.0015753
0.0117887
0.00152078
0.0117393
0.00145154
0.00938366
0.00140101
0.00495861
0.00137964
0.000175395
0.00136575
-0.00434383
0.00133625
-0.00762727
0.00130165
-0.0101557
0.00129704
-0.0109438
0.00132204
-0.00898023
0.0013662
-0.00547202
0.00140919
0.000617943
0.00144165
0.0053854
0.00146292
0.0100403
0.0014551
0.0116279
0.00143764
0.00937651
0.00139497
0.00698474
0.00134296
-0.00112805
0.00130591
-0.00487948
0.0012765
-0.00952085
0.00130319
-0.0111809
-0.00216432
0.00159563
0.00971979
0.00157823
0.0118061
0.00152345
0.0117941
0.00145222
0.00945489
0.00139918
0.00501165
0.00137637
0.00019821
0.00136242
-0.00432988
0.00133297
-0.00759782
0.00129754
-0.0101203
0.00129237
-0.0109386
0.00131803
-0.00900589
0.00136399
-0.00551798
0.00140912
0.000572815
0.00144332
0.00535119
0.00146579
0.0100178
0.00145812
0.0116356
0.00144072
0.00939391
0.00139795
0.0070275
0.0013455
-0.00107559
0.00130802
-0.004842
0.00127784
-0.00949067
0.00130546
-0.0112085
-0.00219269
0.00159674
0.00968714
0.001581
0.0118219
0.00152607
0.011849
0.0014529
0.00952806
0.00139734
0.00506721
0.00137302
0.000222522
0.00135902
-0.00431588
0.00132968
-0.00756848
0.00129344
-0.010084
0.00128768
-0.0109328
0.00131396
-0.00903217
0.0013617
-0.00556572
0.00140898
0.000525541
0.00144492
0.00531524
0.0014686
0.00999413
0.0014611
0.0116431
0.00144378
0.00941124
0.00140098
0.0070703
0.00134813
-0.00102274
0.00131025
-0.00480413
0.00127931
-0.00945973
0.00130781
-0.011237
-0.00222272
0.00159757
0.00965158
0.0015836
0.0118359
0.00152863
0.011904
0.00145358
0.00960312
0.00139548
0.00512531
0.00136961
0.000248384
0.00135556
-0.00430182
0.00132639
-0.00753931
0.00128937
-0.010047
0.00128297
-0.0109264
0.00130982
-0.00905902
0.00135933
-0.00561523
0.00140875
0.000476119
0.00144644
0.00527755
0.00147133
0.00996924
0.00146404
0.0116504
0.00144682
0.00942846
0.00140405
0.00711306
0.00135086
-0.000969542
0.00131261
-0.00476589
0.00128091
-0.00942803
0.00131024
-0.0112664
-0.00225441
0.00159811
0.00961303
0.00158601
0.011848
0.00153112
0.0119589
0.00145425
0.00967998
0.00139361
0.00518596
0.00136614
0.000275848
0.00135203
-0.00428771
0.00132309
-0.00751037
0.00128532
-0.0100092
0.00127824
-0.0109194
0.00130561
-0.00908639
0.00135686
-0.00566648
0.00140844
0.000424544
0.00144788
0.00523811
0.001474
0.00994313
0.00146692
0.0116575
0.00144983
0.00944555
0.00140716
0.00715573
0.00135368
-0.00091606
0.0013151
-0.00472731
0.00128263
-0.00939556
0.00131277
-0.0112965
-0.00228774
0.00159835
0.00957142
0.00158824
0.0118581
0.00153353
0.0120136
0.00145493
0.00975857
0.00139173
0.00524916
0.00136261
0.000304968
0.00134843
-0.00427353
0.00131977
-0.00748172
0.0012813
-0.00997076
0.00127349
-0.0109115
0.00130133
-0.00911424
0.00135431
-0.00571946
0.00140804
0.000370815
0.00144923
0.00519692
0.00147658
0.00991577
0.00146975
0.0116643
0.00145281
0.00946249
0.00141031
0.00719823
0.00135659
-0.000862349
0.00131771
-0.00468842
0.00128448
-0.00936232
0.00131537
-0.0113274
-0.00232271
0.00159827
0.00952667
0.00159026
0.0118661
0.00153585
0.012068
0.0014556
0.00983882
0.00138985
0.00531491
0.00135902
0.000335799
0.00134475
-0.00425926
0.00131644
-0.00745341
0.0012773
-0.00993162
0.00126873
-0.010903
0.00129699
-0.00914249
0.00135167
-0.00577414
0.00140756
0.000314926
0.0014505
0.00515398
0.0014791
0.00988718
0.00147252
0.0116709
0.00145576
0.00947925
0.00141348
0.00724051
0.0013596
-0.000808468
0.00132045
-0.00464927
0.00128645
-0.00932833
0.00131807
-0.011359
-0.00235931
0.00159787
0.00947874
0.00159207
0.0118719
0.00153808
0.012122
0.00145627
0.00992063
0.00138797
0.00538321
0.00135537
0.000368397
0.001341
-0.00424488
0.00131308
-0.00742549
0.00127332
-0.00989185
0.00126396
-0.0108936
0.00129257
-0.0091711
0.00134894
-0.00583051
0.001407
0.00025687
0.00145169
0.00510929
0.00148153
0.00985733
0.00147524
0.0116772
0.00145867
0.00949582
0.00141668
0.0072825
0.00136269
-0.000754475
0.00132331
-0.00460989
0.00128856
-0.00929358
0.00132084
-0.0113913
-0.00239752
0.00159715
0.00942757
0.00159365
0.0118754
0.00154022
0.0121754
0.00145694
0.0100039
0.0013861
0.00545405
0.00135167
0.000402825
0.00133717
-0.00423038
0.0013097
-0.00739803
0.00126936
-0.00985151
0.00125917
-0.0108834
0.00128808
-0.00920001
0.00134611
-0.00588854
0.00140635
0.000196638
0.00145279
0.00506285
0.00148389
0.00982623
0.0014779
0.0116831
0.00146155
0.00951217
0.00141991
0.00732414
0.00136587
-0.00070043
0.00132628
-0.00457031
0.00129079
-0.00925808
0.0013237
-0.0114242
-0.00243733
0.00159611
0.00937311
0.00159502
0.0118765
0.00154227
0.0122282
0.00145762
0.0100886
0.00138426
0.00552741
0.00134793
0.000439148
0.00133325
-0.0042157
0.00130629
-0.00737106
0.00126541
-0.00981063
0.00125437
-0.0108724
0.00128351
-0.00922916
0.00134319
-0.00594821
0.00140561
0.000134213
0.00145382
0.00501464
0.00148618
0.00979388
0.00148051
0.0116888
0.00146439
0.0095283
0.00142316
0.00736537
0.00136912
-0.000646394
0.00132938
-0.00453057
0.00129314
-0.00922184
0.00132664
-0.0114577
-0.00247872
0.00159478
0.00931535
0.00159617
0.0118751
0.00154422
0.0122801
0.0014583
0.0101745
0.00138242
0.00560329
0.00134413
0.000477433
0.00132923
-0.0042008
0.00130283
-0.00734465
0.00126148
-0.00976929
0.00124956
-0.0108605
0.00127889
-0.00925849
0.00134017
-0.00600949
0.0014048
6.9585e-05
0.00145478
0.00496466
0.0014884
0.00976026
0.00148306
0.0116942
0.00146718
0.00954418
0.00142642
0.00740613
0.00137245
-0.000592425
0.00133259
-0.00449071
0.00129562
-0.00918487
0.00132965
-0.0114917
-0.00252167
0.00159339
0.00925442
0.00159716
0.0118713
0.00154593
0.0123314
0.00145867
0.0102617
0.0013801
0.00568186
0.00133987
0.000517668
0.00132485
-0.00418578
0.00129928
-0.00731909
0.00125754
-0.00972754
0.0012449
-0.0108478
0.00127432
-0.00928791
0.00133723
-0.0060724
0.00140407
2.74801e-06
0.00145576
0.00491296
0.00149066
0.00972537
0.00148557
0.0116992
0.00146991
0.00955984
0.00142973
0.00744632
0.00137561
-0.000538311
0.0013361
-0.0044512
0.00129794
-0.0091467
0.00133277
-0.0115266
-0.00256613
0.00486903
0.00923858
0.00481379
0.0119266
0.00471252
0.0124326
0.00461235
0.0103619
0.00459494
0.00569927
0.00468499
0.000427622
0.00478812
-0.00428891
0.00478917
-0.00732015
0.00466023
-0.00959859
0.00455607
-0.0107437
0.00451978
-0.00925162
0.00455911
-0.00611173
0.00461927
-5.74141e-05
0.00466922
0.00486301
0.00472291
0.00967168
0.00471035
0.0117118
0.00469953
0.00957065
0.00463543
0.00751042
0.00449324
-0.000396123
0.00438613
-0.00434409
0.00421489
-0.00897546
0.00428647
-0.0115982
-0.00267499
0.0050473
0.00920905
0.00500036
0.0119735
0.00489922
0.0125338
0.004789
0.0104721
0.00475915
0.00572912
0.00485181
0.000334961
0.00496
-0.0043971
0.00496587
-0.00732602
0.00482515
-0.00945787
0.00470402
-0.0106225
0.0046591
-0.00920671
0.00470438
-0.006157
0.00477509
-0.000128123
0.00483251
0.00480559
0.0048948
0.00960938
0.00487591
0.0117307
0.00486693
0.00957964
0.00480671
0.00757064
0.00466085
-0.000250268
0.00455027
-0.0042335
0.00436075
-0.00878594
0.00443003
-0.0116674
-0.00279537
0.00523432
0.00916502
0.00519716
0.0120107
0.00509855
0.0126324
0.00498258
0.0105881
0.00494427
0.00576744
0.00503143
0.000247801
0.00514428
-0.00450995
0.00515356
-0.0073353
0.00500077
-0.00930508
0.00486065
-0.0104824
0.00480586
-0.00915192
0.00485587
-0.00620701
0.00493963
-0.00021189
0.00500417
0.00474105
0.00507315
0.0095404
0.00504984
0.011754
0.00504119
0.00958829
0.00498692
0.0076249
0.00484086
-0.0001042
0.00472513
-0.00411777
0.0045179
-0.00857871
0.00458156
-0.0117311
-0.0029271
0.00543198
0.00910392
0.0054072
0.0120355
0.00531384
0.0127257
0.00519473
0.0107072
0.00514758
0.00581458
0.00522783
0.000167551
0.005341
-0.00462312
0.00535274
-0.00734704
0.00518762
-0.00913996
0.00502667
-0.0103215
0.00495986
-0.00908511
0.00501428
-0.00626143
0.00511238
-0.000309992
0.00518456
0.00466887
0.00526053
0.00946444
0.00523231
0.0117822
0.00522337
0.00959724
0.00517659
0.00767167
0.00503223
4.01605e-05
0.00491225
-0.00399779
0.00468651
-0.00835297
0.00474189
-0.0117865
-0.00306943
0.0056406
0.00902255
0.00563124
0.0120448
0.00554611
0.0128109
0.00542688
0.0108264
0.00537174
0.00586972
0.00544171
9.75851e-05
0.00555109
-0.0047325
0.00556384
-0.00735979
0.00538618
-0.0089623
0.00520267
-0.010138
0.00512149
-0.00900393
0.00517964
-0.00631959
0.0052934
-0.00042375
0.00537401
0.00458826
0.00545731
0.00938113
0.00542379
0.0118157
0.00541354
0.00960749
0.00537582
0.00770939
0.00523543
0.000180549
0.00511233
-0.00387468
0.00486738
-0.00810802
0.00491161
-0.0118307
-0.00322128
0.00586016
0.00891752
0.00586937
0.0120356
0.00579595
0.0128843
0.00568055
0.0109418
0.00561837
0.00593191
0.00567467
4.12853e-05
0.00577546
-0.00483329
0.00578713
-0.00737147
0.00559681
-0.00877197
0.00538922
-0.00993039
0.00529109
-0.00890579
0.00535196
-0.00638046
0.00548283
-0.000554622
0.00557282
0.00449827
0.00566382
0.00929013
0.00562467
0.0118549
0.0056118
0.00962035
0.00558472
0.00773647
0.00545089
0.000314375
0.00532601
-0.0037498
0.00506127
-0.00784328
0.00509128
-0.0118607
-0.00338125
0.0060903
0.00878552
0.00612136
0.0120046
0.00606379
0.0129419
0.00595669
0.0110489
0.0058887
0.00599991
0.00592808
1.90425e-06
0.00601492
-0.00492013
0.00602278
-0.00737933
0.00581973
-0.00856892
0.00558681
-0.00969747
0.00546899
-0.00878797
0.00553118
-0.00644265
0.00568068
-0.00070412
0.00578129
0.00439766
0.00588042
0.009191
0.00583535
0.0119
0.00581832
0.00963738
0.00580336
0.00775143
0.005679
0.000438733
0.00555388
-0.00362467
0.00526893
-0.00755833
0.00528147
-0.0118733
-0.00354757
0.00633035
0.00862341
0.00638672
0.0119482
0.00634964
0.012979
0.00625556
0.011143
0.00618341
0.00607206
0.00620294
-1.76286e-05
0.00627015
-0.00498734
0.00627078
-0.00737996
0.00605498
-0.00835312
0.00579585
-0.00943834
0.00565556
-0.00864767
0.00571724
-0.00650433
0.00588684
-0.00087372
0.00599964
0.00428487
0.0061075
0.00908314
0.00605638
0.0119511
0.0060334
0.00966036
0.00603186
0.00775297
0.00592012
0.000550476
0.00579646
-0.00350101
0.00549102
-0.00725289
0.00548271
-0.011865
-0.00371816
0.0065794
0.00842829
0.00666467
0.0118629
0.00665289
0.0129907
0.00657667
0.0112192
0.00650248
0.00614624
0.00649978
-1.49314e-05
0.0065416
-0.00502915
0.00653094
-0.00736929
0.00630237
-0.00812455
0.00601666
-0.00915264
0.00585116
-0.00848217
0.00591002
-0.0065632
0.00610107
-0.00106476
0.00622799
0.00415794
0.00634544
0.00896569
0.00628841
0.0120081
0.00625756
0.00969121
0.00627042
0.00774011
0.00617457
0.000646327
0.00605422
-0.00338066
0.00572817
-0.00692685
0.00569552
-0.0118323
-0.00389064
0.00683623
0.00819761
0.00695398
0.0117452
0.00697226
0.0129725
0.00691873
0.0112728
0.00684507
0.0062199
0.00681849
1.16428e-05
0.00682939
-0.00504005
0.00680285
-0.00734275
0.00656148
-0.00788318
0.00624941
-0.00884056
0.00605615
-0.00828891
0.00610938
-0.00661643
0.00632295
-0.00127833
0.00646634
0.00401455
0.00659457
0.00883745
0.00653225
0.0120704
0.00649164
0.00973182
0.00651943
0.00771232
0.0064427
0.000723065
0.00632753
-0.0032655
0.00598087
-0.00658018
0.00592032
-0.0117718
-0.0040623
0.00709927
0.00792938
0.0072529
0.0115916
0.00730581
0.0129195
0.00727959
0.011299
0.00720943
0.00629006
0.00715821
6.28628e-05
0.00713319
-0.00501503
0.00708584
-0.0072954
0.00683158
-0.00762892
0.00649406
-0.00850305
0.00627089
-0.00806574
0.00631515
-0.00666069
0.00655187
-0.00151505
0.00671443
0.00385199
0.00685513
0.00869676
0.00678886
0.0121367
0.00673686
0.00978382
0.00677955
0.00766963
0.00672483
0.000777779
0.00661669
-0.00315735
0.0062495
-0.00621299
0.00615747
-0.0116797
-0.00423019
0.00736667
0.00762228
0.0075592
0.011399
0.00765083
0.0128279
0.00765627
0.0112935
0.00759293
0.00635341
0.00751726
0.000138535
0.00745218
-0.00494996
0.00737897
-0.00722219
0.00711165
-0.0073616
0.00675038
-0.00814178
0.00649571
-0.00781108
0.00652713
-0.00669211
0.006787
-0.00177491
0.00697173
0.00366725
0.00712714
0.00854135
0.00705932
0.0122045
0.00699491
0.00984823
0.00705175
0.00761279
0.00702132
0.000808205
0.00692182
-0.00305786
0.00653428
-0.00582545
0.00640719
-0.0115527
-0.00439111
0.00763626
0.00727585
0.00787014
0.0111651
0.00800393
0.0126941
0.00804496
0.0112525
0.00799202
0.00640635
0.0078931
0.000237456
0.00778492
-0.00484178
0.00768096
-0.00711822
0.00740036
-0.007081
0.00701782
-0.00775924
0.00673091
-0.00752416
0.00674515
-0.00670635
0.00702723
-0.002057
0.00723727
0.00345722
0.00741037
0.00836824
0.00734476
0.0122701
0.0072679
0.00992509
0.00733742
0.00754327
0.00733251
0.000813116
0.00724289
-0.00296824
0.00683525
-0.00541782
0.00666953
-0.0113869
-0.0045417
0.00790563
0.00689072
0.00818251
0.0108883
0.00836109
0.0125155
0.00844116
0.0111724
0.00840238
0.00644513
0.00828237
0.000357471
0.00812934
-0.00468875
0.00799021
-0.00697909
0.00769607
-0.00678686
0.00729554
-0.00735871
0.00697667
-0.00720529
0.00696905
-0.00669873
0.00727121
-0.00235916
0.0075096
0.00321883
0.00770413
0.00817371
0.0076462
0.0123281
0.00755832
0.010013
0.00763834
0.00746326
0.00765869
0.000792761
0.00757957
-0.00288911
0.00715222
-0.00499047
0.0069444
-0.0111791
-0.00467843
0.00817214
0.00646873
0.00849261
0.0105678
0.00871773
0.0122904
0.00883979
0.0110503
0.00881903
0.00646589
0.00868091
0.000495598
0.00848268
-0.00449052
0.00830479
-0.0068012
0.00799687
-0.00647895
0.00758237
-0.0069442
0.00723307
-0.006856
0.00719873
-0.00666439
0.00751733
-0.00267776
0.00778671
0.00294945
0.00800718
0.00795324
0.00796436
0.0123709
0.00786884
0.0101085
0.00795661
0.00737549
0.00800009
0.000749279
0.00793121
-0.00282023
0.0074847
-0.00454396
0.00723147
-0.0109259
-0.00479764
0.00843288
0.00601313
0.00879637
0.0102043
0.00906889
0.0120179
0.00923541
0.0108838
0.00923651
0.0064648
0.00908385
0.000648259
0.00884154
-0.00424822
0.0086224
-0.00658207
0.00830065
-0.00615719
0.00787676
-0.00652031
0.00750001
-0.00647925
0.0074342
-0.00659858
0.00776382
-0.00300738
0.00806595
0.00264732
0.00831751
0.00770167
0.00829937
0.012389
0.0082019
0.010206
0.0082944
0.00728298
0.00835667
0.000687013
0.00829665
-0.00276021
0.00783185
-0.00407916
0.0075302
-0.0106242
-0.0048956
0.00868459
0.00552856
0.00908937
0.00979953
0.00940936
0.0116979
0.00962235
0.0106708
0.00964894
0.00643821
0.00948581
0.000811383
0.00920194
-0.00396434
0.00894047
-0.0063206
0.00860513
-0.00582186
0.00817687
-0.00609204
0.0077771
-0.00607948
0.00767551
-0.00649699
0.00800883
-0.00334069
0.00834406
0.00231209
0.00863223
0.00741351
0.00865039
0.0123709
0.0085593
0.010297
0.0086536
0.00718869
0.00872798
0.000612633
0.00867415
-0.00270639
0.00819241
-0.00359741
0.00783978
-0.0102716
-0.00496856
0.00892352
0.00502097
0.00936687
0.00935618
0.00973387
0.0113309
0.00999492
0.0104098
0.0100502
0.0063829
0.00988099
0.000980619
0.00955943
-0.00364278
0.00925617
-0.00601734
0.00890802
-0.0054737
0.00848061
-0.00566463
0.00806366
-0.00566254
0.00792278
-0.00635611
0.00825055
-0.00366846
0.00861728
0.00194535
0.00894744
0.00708335
0.00901524
0.0123031
0.00894172
0.0103706
0.00903524
0.00709516
0.00911288
0.000534991
0.00906117
-0.00265468
0.00856456
-0.0031008
0.00815914
-0.00986618
-0.00501276
0.00914515
0.00449747
0.00962381
0.00887751
0.0100372
0.0109175
0.0103475
0.0100995
0.0104342
0.00629623
0.0102633
0.00115151
0.00990925
-0.00328876
0.00956654
-0.00567463
0.00920706
-0.00511423
0.00878572
-0.00524329
0.00835863