/*--------------------------------*- C++ -*----------------------------------*\
  =========                 |
  \\      /  F ield         | OpenFOAM: The Open Source CFD Toolbox
   \\    /   O peration     | Website:  https://openfoam.org
    \\  /    A nd           | Version:  7
     \\/     M anipulation  |
\*---------------------------------------------------------------------------*/
FoamFile
{
    version     2.0;
    format      ascii;
    class       volVectorField;
    location    "140";
    object      U;
}
// * * * * * * * * * * * * * * * * * * * * * * * * * * * * * * * * * * * * * //

dimensions      [0 1 -1 0 0 0 0];

internalField   nonuniform List<vector> 
4575
(
(0.810519 0.327902 -2.59836e-23)
(0.795355 0.361707 2.21642e-23)
(0.778238 0.341448 -3.02089e-23)
(0.770508 0.263383 -2.4237e-23)
(0.772442 0.137293 -4.94188e-23)
(0.783254 0.00101117 -7.09302e-24)
(0.789016 -0.139432 1.60412e-23)
(0.788006 -0.245987 2.06445e-23)
(0.780448 -0.315144 -8.33957e-24)
(0.778766 -0.316231 -1.92324e-23)
(0.776077 -0.243594 -6.61063e-24)
(0.777195 -0.136717 2.56905e-23)
(0.770994 0.0284759 4.91883e-24)
(0.767942 0.151089 -2.18664e-23)
(0.758691 0.26809 2.19321e-23)
(0.761282 0.294608 5.83141e-24)
(0.755775 0.227275 -3.7111e-24)
(0.757011 0.150328 -1.74948e-24)
(0.739763 -0.0553649 -5.70111e-24)
(0.737071 -0.136824 -1.94069e-24)
(0.722904 -0.238319 4.22191e-25)
(0.730455 -0.25301 -3.73235e-24)
(0.714817 -0.046637 1.42755e-23)
(0.810255 0.328387 1.59947e-23)
(0.795186 0.362683 -6.71311e-23)
(0.778076 0.342224 1.71531e-23)
(0.770169 0.263606 -6.53614e-23)
(0.771996 0.136988 2.5395e-23)
(0.78308 0.000586388 -6.05464e-23)
(0.789133 -0.139518 -5.76789e-23)
(0.788184 -0.245727 -7.73884e-23)
(0.780308 -0.314875 2.32187e-24)
(0.778473 -0.316133 4.65541e-23)
(0.775826 -0.243572 -3.99525e-23)
(0.776971 -0.136637 -2.8963e-23)
(0.770986 0.0286763 8.97187e-25)
(0.768092 0.151338 4.8526e-24)
(0.759387 0.268237 -1.36313e-23)
(0.762214 0.294663 -1.8631e-23)
(0.756629 0.227401 9.39148e-23)
(0.757813 0.150689 -3.35139e-23)
(0.739754 -0.0548783 -7.08835e-23)
(0.736803 -0.136472 1.44341e-23)
(0.722062 -0.238144 -3.90221e-23)
(0.729391 -0.252886 -4.79999e-24)
(0.715188 -0.0463191 -2.85508e-23)
(0.810095 0.328841 -8.41861e-23)
(0.795117 0.363652 1.28012e-23)
(0.777997 0.34303 2.73728e-23)
(0.769895 0.263887 1.67022e-22)
(0.771604 0.136738 1.16911e-23)
(0.782963 0.000202779 2.94028e-22)
(0.789328 -0.139568 -2.92303e-23)
(0.788453 -0.245429 1.37589e-22)
(0.78025 -0.314581 -9.97778e-23)
(0.778239 -0.316043 -4.67137e-23)
(0.775626 -0.243577 1.10654e-22)
(0.776803 -0.136599 5.85388e-23)
(0.771048 0.0288331 5.49272e-23)
(0.768325 0.151547 1.43992e-23)
(0.760164 0.268352 2.02927e-23)
(0.763215 0.294717 3.84315e-23)
(0.757548 0.22754 -9.98456e-23)
(0.758689 0.151085 2.2821e-23)
(0.73983 -0.054354 9.21228e-23)
(0.736622 -0.136096 2.1739e-23)
(0.721304 -0.237947 4.2962e-23)
(0.728402 -0.252789 1.71576e-23)
(0.71564 -0.0460329 2.23653e-23)
(0.810039 0.329262 1.18189e-22)
(0.795149 0.364615 -1.38563e-22)
(0.778003 0.343869 -2.70374e-23)
(0.769688 0.264228 -3.13897e-23)
(0.771267 0.136543 -3.47939e-23)
(0.782904 -0.000140355 -1.14512e-22)
(0.7896 -0.139581 8.68993e-23)
(0.788813 -0.245093 -1.64135e-22)
(0.780273 -0.314261 3.49202e-23)
(0.778065 -0.315959 9.19193e-23)
(0.775476 -0.243609 -1.52337e-22)
(0.776691 -0.136602 -9.06003e-23)
(0.771181 0.0289454 -1.58263e-23)
(0.768638 0.151712 5.27171e-23)
(0.761019 0.268434 -5.30349e-23)
(0.764285 0.294771 1.04523e-23)
(0.758534 0.227691 1.98463e-22)
(0.759638 0.151515 -6.03175e-23)
(0.739994 -0.0537922 4.66488e-23)
(0.736526 -0.135695 -2.66974e-23)
(0.72063 -0.23773 -3.42442e-23)
(0.727488 -0.252718 9.16883e-24)
(0.716172 -0.0457787 -5.2593e-24)
(0.810087 0.329649 -2.31462e-23)
(0.795281 0.365572 2.04828e-22)
(0.778094 0.344741 2.04819e-24)
(0.769551 0.264628 1.24052e-22)
(0.770986 0.136403 -1.5665e-22)
(0.782903 -0.000443665 -5.87976e-23)
(0.789949 -0.13956 5.99735e-23)
(0.789264 -0.24472 1.71145e-22)
(0.780379 -0.313914 1.48545e-22)
(0.777952 -0.315881 -2.85326e-22)
(0.775376 -0.243667 2.29474e-22)
(0.776635 -0.136648 1.20845e-22)
(0.771384 0.0290127 -1.42423e-23)
(0.769032 0.151836 7.18583e-24)
(0.761952 0.268485 1.40042e-22)
(0.765423 0.294826 -1.01385e-22)
(0.759586 0.227854 -1.598e-22)
(0.760661 0.151978 1.31831e-22)
(0.740244 -0.0531933 -3.5074e-23)
(0.736518 -0.135271 -3.92483e-23)
(0.720041 -0.237492 3.54669e-23)
(0.72665 -0.252673 -1.57985e-23)
(0.716782 -0.0455564 -5.39273e-23)
(0.810238 0.330001 1.48263e-22)
(0.795515 0.366523 -2.43015e-22)
(0.778274 0.345646 -5.3631e-23)
(0.769485 0.26509 -1.28813e-23)
(0.770763 0.13632 3.95889e-22)
(0.78296 -0.000707757 -2.38601e-22)
(0.790375 -0.139504 -1.07335e-22)
(0.789807 -0.24431 -6.1919e-23)
(0.780568 -0.313541 2.13181e-22)
(0.7779 -0.315808 1.40438e-22)
(0.775327 -0.243753 2.23874e-23)
(0.776635 -0.136737 -9.15007e-23)
(0.771657 0.0290343 1.45127e-22)
(0.769505 0.151917 -4.91931e-23)
(0.762962 0.268504 -2.12717e-22)
(0.766629 0.294882 4.48367e-23)
(0.760702 0.228029 -1.85007e-23)
(0.761758 0.152475 -4.51242e-23)
(0.740583 -0.0525578 -6.47828e-23)
(0.736597 -0.134822 1.60903e-23)
(0.719538 -0.237231 4.11402e-23)
(0.725887 -0.252655 -2.22458e-25)
(0.717471 -0.0453663 4.13109e-23)
(0.810492 0.330315 2.14313e-22)
(0.79585 0.367468 3.47844e-22)
(0.778543 0.346587 5.13075e-22)
(0.769493 0.265615 -1.00606e-22)
(0.7706 0.136293 -3.19367e-22)
(0.783075 -0.000933177 1.50614e-23)
(0.790877 -0.139417 1.40206e-22)
(0.790441 -0.243863 -7.10147e-23)
(0.780841 -0.313139 -2.02363e-22)
(0.777909 -0.315739 -6.49227e-24)
(0.775328 -0.243865 -2.28314e-22)
(0.776691 -0.136869 1.09757e-22)
(0.771999 0.0290097 -3.0342e-23)
(0.770057 0.151956 -5.48411e-23)
(0.764046 0.268491 1.96105e-22)
(0.767901 0.294938 -1.17492e-22)
(0.761882 0.228216 2.20761e-23)
(0.762928 0.153004 1.94298e-23)
(0.74101 -0.0518861 1.26684e-22)
(0.736764 -0.13435 -5.28306e-23)
(0.719122 -0.23695 -5.64078e-23)
(0.725198 -0.252663 -1.5016e-23)
(0.718237 -0.0452084 4.33991e-23)
(0.810847 0.330591 -2.7463e-22)
(0.796288 0.368406 1.63826e-22)
(0.778904 0.347562 -1.65146e-22)
(0.769578 0.266204 -4.82978e-22)
(0.770497 0.136324 -5.60005e-23)
(0.783249 -0.0011204 2.23921e-22)
(0.791455 -0.139298 -2.73141e-23)
(0.791167 -0.24338 2.42121e-22)
(0.7812 -0.312708 -2.46401e-22)
(0.77798 -0.315673 -7.33283e-23)
(0.77538 -0.244003 3.63632e-23)
(0.776801 -0.137044 -2.0013e-22)
(0.772409 0.0289383 -1.01476e-22)
(0.770685 0.151952 -4.44399e-23)
(0.765204 0.268447 -1.2888e-23)
(0.76924 0.294995 1.41995e-22)
(0.763125 0.228415 2.44274e-22)
(0.764171 0.153565 -3.50728e-22)
(0.741526 -0.0511786 -2.65868e-22)
(0.737019 -0.133853 -8.9131e-23)
(0.718795 -0.236646 1.15392e-22)
(0.724584 -0.252696 -2.6821e-24)
(0.719078 -0.0450826 5.31587e-23)
(0.811304 0.330827 -2.65515e-22)
(0.796827 0.369337 -6.43606e-23)
(0.779358 0.348573 3.44441e-22)
(0.769741 0.266857 6.38712e-22)
(0.770458 0.136413 -4.29444e-22)
(0.78348 -0.00126984 5.45511e-22)
(0.792107 -0.139149 3.10519e-22)
(0.791984 -0.242862 -1.61694e-22)
(0.781644 -0.312247 2.21802e-22)
(0.778114 -0.315608 1.0302e-22)
(0.775483 -0.244167 3.52963e-23)
(0.776967 -0.137264 -3.29107e-23)
(0.772887 0.0288197 -3.3197e-23)
(0.77139 0.151905 7.82743e-23)
(0.766435 0.268373 -1.08701e-23)
(0.770642 0.295053 -2.49698e-22)
(0.764431 0.228624 -4.21171e-22)
(0.765487 0.154157 2.42069e-22)
(0.742132 -0.0504358 1.92866e-22)
(0.737363 -0.133332 1.49273e-23)
(0.718556 -0.23632 -1.05202e-22)
(0.724045 -0.252754 -2.27524e-23)
(0.719995 -0.0449892 -2.25985e-23)
(0.811861 0.331022 4.2832e-23)
(0.797469 0.37026 -5.82168e-22)
(0.779906 0.349621 -8.14215e-23)
(0.769985 0.267576 -2.56991e-23)
(0.770482 0.136562 5.02718e-22)
(0.783769 -0.00138183 -7.69771e-22)
(0.792834 -0.138972 -3.38563e-22)
(0.792893 -0.242309 -4.68728e-22)
(0.782174 -0.311755 -2.44122e-23)
(0.778309 -0.315543 -2.13152e-22)
(0.775638 -0.244356 5.84144e-23)
(0.777187 -0.137527 3.93133e-22)
(0.773432 0.0286534 1.52463e-22)
(0.77217 0.151816 -1.76467e-24)
(0.767736 0.268268 1.70667e-22)
(0.772109 0.295113 2.37001e-22)
(0.765798 0.228844 3.21304e-22)
(0.766874 0.154779 4.59329e-22)
(0.742827 -0.0496582 -2.96516e-22)
(0.737796 -0.132787 -4.68825e-23)
(0.718408 -0.235972 2.3385e-22)
(0.72358 -0.252838 5.61403e-23)
(0.720986 -0.0449279 -1.00762e-22)
(0.812518 0.331173 4.83571e-22)
(0.798213 0.371175 7.25758e-23)
(0.780551 0.350704 -6.40412e-22)
(0.770313 0.268362 -1.41304e-22)
(0.770573 0.13677 -1.62845e-22)
(0.784117 -0.00145662 -7.24017e-23)
(0.793633 -0.138768 3.0958e-22)
(0.793892 -0.241722 3.54103e-22)
(0.782791 -0.311232 -2.72102e-22)
(0.778568 -0.315478 6.9002e-22)
(0.775843 -0.24457 -1.83216e-22)
(0.777461 -0.137835 -3.01258e-22)
(0.774043 0.0284389 -9.03421e-23)
(0.773024 0.151683 5.01331e-23)
(0.769106 0.268133 -5.47219e-23)
(0.773639 0.295173 1.90097e-22)
(0.767225 0.229075 -7.24835e-24)
(0.768333 0.15543 -5.11092e-22)
(0.743613 -0.0488463 1.63924e-22)
(0.738318 -0.132217 1.87455e-22)
(0.71835 -0.2356 -2.20918e-22)
(0.723188 -0.252946 -5.86384e-23)
(0.722049 -0.044899 6.65656e-23)
(0.813272 0.331279 8.49145e-23)
(0.79906 0.372081 -2.58622e-22)
(0.781293 0.351824 4.39096e-23)
(0.770726 0.269215 4.2862e-22)
(0.770731 0.137041 2.08869e-22)
(0.784522 -0.00149437 4.3604e-22)
(0.794505 -0.138537 6.48605e-22)
(0.794983 -0.241101 -5.31979e-23)
(0.783496 -0.310676 2.81936e-22)
(0.77889 -0.31541 -1.5689e-22)
(0.776099 -0.244808 1.89757e-22)
(0.777788 -0.138187 1.20401e-22)
(0.774718 0.028176 -2.08577e-22)
(0.773951 0.151508 1.05953e-24)
(0.770544 0.267968 -7.98084e-23)
(0.77523 0.295236 -3.14524e-22)
(0.768711 0.229315 2.43442e-22)
(0.769862 0.15611 -2.29732e-22)
(0.744489 -0.0480007 -1.32297e-22)
(0.738929 -0.131624 -5.51772e-23)
(0.718384 -0.235206 5.33516e-23)
(0.72287 -0.253078 2.59588e-23)
(0.723185 -0.0449022 -6.74291e-23)
(0.814122 0.331338 -3.61244e-22)
(0.800008 0.372977 -1.76522e-22)
(0.782134 0.352981 3.01782e-22)
(0.771226 0.270137 -4.5487e-22)
(0.770959 0.137373 1.05769e-22)
(0.784985 -0.00149515 8.17304e-23)
(0.795447 -0.138282 -1.55487e-21)
(0.796163 -0.240447 4.39201e-23)
(0.784289 -0.310088 -6.36876e-22)
(0.779275 -0.315339 -3.54462e-22)
(0.776406 -0.24507 1.44225e-22)
(0.778168 -0.138584 -8.10563e-23)
(0.775458 0.0278643 1.51345e-22)
(0.774948 0.151291 2.75861e-23)
(0.772048 0.267773 -2.76522e-22)
(0.776882 0.2953 3.01688e-22)
(0.770256 0.229566 -1.5808e-22)
(0.771461 0.156817 6.7703e-22)
(0.745455 -0.0471219 -1.35113e-22)
(0.739629 -0.131007 3.33195e-24)
(0.71851 -0.234789 3.73871e-23)
(0.722625 -0.253234 1.47838e-23)
(0.724391 -0.0449376 2.57621e-23)
(0.815068 0.331348 6.5084e-22)
(0.801059 0.373862 2.96503e-22)
(0.783075 0.354174 -1.4527e-22)
(0.771817 0.271128 2.39787e-22)
(0.771258 0.137769 1.04356e-21)
(0.785506 -0.00145895 -1.00977e-21)
(0.796459 -0.138003 1.14279e-21)
(0.797432 -0.239762 -1.08517e-23)
(0.78517 -0.309466 4.59847e-22)
(0.779724 -0.315264 3.42699e-22)
(0.776765 -0.245356 -2.78577e-22)
(0.7786 -0.139025 -6.05521e-23)
(0.776261 0.0275034 -4.37205e-23)
(0.776016 0.15103 -1.878e-22)
(0.773617 0.267548 2.14948e-22)
(0.778594 0.295365 -7.92346e-23)
(0.771858 0.229825 1.78836e-22)
(0.773128 0.157551 -2.86301e-23)
(0.746512 -0.0462106 -5.06986e-23)
(0.740418 -0.130365 -1.7718e-22)
(0.718729 -0.234348 -3.92658e-22)
(0.722452 -0.253413 -5.97789e-24)
(0.725666 -0.0450052 -1.05722e-23)
(0.816107 0.331308 -1.14599e-22)
(0.802211 0.374734 -3.06699e-22)
(0.784118 0.355402 -2.41114e-22)
(0.772499 0.272188 -1.39613e-21)
(0.77163 0.138229 -1.42924e-22)
(0.786085 -0.00138563 1.79382e-22)
(0.79754 -0.137702 -1.60088e-21)
(0.79879 -0.239045 2.03721e-22)
(0.786141 -0.308809 7.28881e-23)
(0.780237 -0.315182 2.21321e-22)
(0.777174 -0.245664 1.18104e-23)
(0.779083 -0.139511 1.87589e-22)
(0.777125 0.0270932 9.8258e-23)
(0.777152 0.150728 1.86558e-22)
(0.775249 0.267294 -2.05204e-22)
(0.780364 0.295432 -1.46185e-22)
(0.773516 0.230094 -4.57166e-22)
(0.774864 0.158311 1.23114e-22)
(0.747659 -0.0452674 6.87823e-22)
(0.741297 -0.129701 5.3584e-22)
(0.719042 -0.233882 2.36062e-22)
(0.722351 -0.253615 -4.66505e-23)
(0.72701 -0.0451047 9.01744e-25)
(0.817237 0.331215 1.48873e-22)
(0.803465 0.375592 8.89548e-22)
(0.785263 0.356666 -2.54391e-22)
(0.773275 0.273319 7.31323e-22)
(0.772076 0.138755 5.50066e-22)
(0.786722 -0.00127497 5.02173e-22)
(0.798687 -0.13738 1.05122e-21)
(0.800236 -0.238299 3.59589e-23)
(0.787201 -0.308118 1.98728e-22)
(0.780814 -0.315093 -3.14952e-22)
(0.777634 -0.245993 2.9304e-22)
(0.779618 -0.140042 -2.38883e-22)
(0.77805 0.0266334 3.88322e-24)
(0.778356 0.150382 -9.28963e-23)
(0.776942 0.267012 1.91289e-22)
(0.782192 0.295501 -2.7089e-23)
(0.77523 0.230371 4.49209e-22)
(0.776666 0.159095 -1.96445e-22)
(0.748897 -0.044293 -5.25151e-22)
(0.742265 -0.129012 -5.6928e-22)
(0.71945 -0.233393 5.07374e-22)
(0.722322 -0.253838 6.70363e-23)
(0.728421 -0.0452361 1.00719e-22)
(0.818457 0.331066 4.205e-23)
(0.804818 0.376435 -4.11203e-22)
(0.786511 0.357964 1.18752e-21)
(0.774146 0.274521 -5.77492e-22)
(0.772599 0.139348 -3.21432e-22)
(0.787417 -0.00112661 -1.06743e-22)
(0.7999 -0.137038 -1.3527e-21)
(0.801768 -0.237524 1.14512e-21)
(0.788351 -0.307391 -6.09329e-22)
(0.781455 -0.314995 2.43639e-22)
(0.778145 -0.246344 -1.8407e-22)
(0.780202 -0.140617 1.03113e-22)
(0.779035 0.0261239 -6.87384e-23)
(0.779625 0.149995 5.36567e-23)
(0.778694 0.2667 -4.08309e-23)
(0.784075 0.295571 1.30176e-22)
(0.776997 0.230656 -5.12878e-22)
(0.778534 0.159902 -4.12939e-22)
(0.750226 -0.043288 2.54562e-22)
(0.743322 -0.1283 6.69589e-22)
(0.719953 -0.232879 -7.68233e-22)
(0.722364 -0.254083 -6.97723e-23)
(0.729897 -0.0453993 7.42855e-24)
(0.819764 0.330861 4.34308e-22)
(0.806271 0.37726 -5.34531e-23)
(0.787862 0.359296 1.10736e-22)
(0.775115 0.275794 4.18954e-22)
(0.7732 0.140009 -9.18231e-22)
(0.788171 -0.000940039 6.25386e-22)
(0.801178 -0.136676 1.58576e-21)
(0.803385 -0.236721 -1.43523e-21)
(0.789592 -0.306627 5.82456e-23)
(0.782161 -0.314886 -3.03133e-22)
(0.778707 -0.246715 -3.43226e-22)
(0.780836 -0.141236 1.28244e-22)
(0.780077 0.0255645 1.30883e-22)
(0.780959 0.149566 -4.6612e-23)
(0.780505 0.26636 3.24286e-23)
(0.786014 0.295643 -2.6872e-22)
(0.778817 0.230949 -1.41299e-22)
(0.780465 0.160732 9.61784e-23)
(0.751644 -0.0422531 -8.6971e-22)
(0.744468 -0.127564 -3.24347e-22)
(0.720551 -0.232341 5.90164e-23)
(0.722477 -0.254348 1.14844e-22)
(0.731439 -0.0455941 -6.10696e-23)
(0.821157 0.330596 1.70696e-23)
(0.807823 0.378066 -6.46239e-22)
(0.789319 0.36066 -8.64975e-22)
(0.776183 0.277139 9.41795e-22)
(0.773881 0.140739 2.97547e-22)
(0.788984 -0.000714334 6.34167e-23)
(0.802518 -0.136297 -1.18078e-21)
(0.805086 -0.235891 7.29846e-22)
(0.790922 -0.305827 5.00385e-22)
(0.782932 -0.314766 -1.85042e-22)
(0.779318 -0.247105 1.52393e-22)
(0.781518 -0.141898 -5.22563e-23)
(0.781176 0.0249551 -2.14904e-22)
(0.782355 0.149094 7.30891e-23)
(0.782373 0.265991 -3.05186e-24)
(0.788007 0.295716 3.1008e-22)
(0.780688 0.231249 4.18733e-22)
(0.78246 0.161583 -7.93236e-23)
(0.753153 -0.0411892 5.07735e-22)
(0.745703 -0.126806 -1.64424e-22)
(0.721245 -0.231777 2.59326e-22)
(0.72266 -0.254633 -1.44798e-22)
(0.733044 -0.0458203 1.71816e-23)
(0.822632 0.33027 -1.16425e-22)
(0.809472 0.378852 -7.89822e-23)
(0.79088 0.362056 2.54873e-22)
(0.777353 0.278555 -2.09206e-22)
(0.774645 0.14154 -1.22623e-21)
(0.789857 -0.00044885 1.78173e-22)
(0.80392 -0.135901 -3.79852e-22)
(0.80687 -0.235036 -2.99072e-22)
(0.792344 -0.30499 -4.23268e-22)
(0.783768 -0.314633 -6.73119e-25)
(0.77998 -0.247513 6.58465e-23)
(0.782248 -0.142604 -7.75995e-23)
(0.782331 0.0242956 1.20286e-22)
(0.783813 0.148581 6.35155e-24)
(0.784295 0.265595 -1.58372e-22)
(0.790052 0.295791 -4.84823e-22)
(0.782609 0.231556 2.2195e-22)
(0.784517 0.162455 -4.47769e-22)
(0.754751 -0.040097 1.43678e-21)
(0.747025 -0.126024 2.0226e-22)
(0.722036 -0.231187 -1.85605e-22)
(0.722913 -0.254937 1.59548e-22)
(0.734711 -0.0460778 5.12687e-23)
(0.824188 0.32988 -3.43357e-22)
(0.811217 0.379614 9.40774e-22)
(0.792546 0.363482 -4.07758e-23)
(0.778624 0.280043 -1.364e-21)
(0.775492 0.142413 6.45044e-22)
(0.790789 -0.000144327 -2.18511e-21)
(0.805381 -0.135489 8.46296e-22)
(0.808734 -0.234156 8.78258e-22)
(0.793855 -0.304115 -1.56908e-23)
(0.784668 -0.314484 5.62769e-22)
(0.780692 -0.247939 6.56466e-23)
(0.783025 -0.143354 1.11332e-23)
(0.78354 0.0235862 3.59823e-23)
(0.785331 0.148026 -3.82168e-23)
(0.786271 0.26517 2.38816e-22)
(0.792148 0.295867 3.18868e-22)
(0.784579 0.23187 6.12188e-23)
(0.786633 0.163345 2.44997e-22)
(0.756439 -0.0389773 2.13706e-22)
(0.748435 -0.125219 -3.43333e-22)
(0.722924 -0.230572 -1.34522e-22)
(0.723235 -0.255259 -7.68042e-23)
(0.736439 -0.0463663 -9.79029e-23)
(0.825821 0.329424 7.09522e-22)
(0.813056 0.38035 -5.893e-22)
(0.794317 0.364936 8.35777e-22)
(0.779999 0.281603 8.79288e-23)
(0.776424 0.143359 3.32724e-22)
(0.791781 0.00020792 1.97695e-21)
(0.806901 -0.135062 1.64938e-22)
(0.810678 -0.233254 -9.19238e-22)
(0.795458 -0.303203 -4.00393e-22)
(0.785634 -0.314319 2.68411e-23)
(0.781452 -0.248381 7.46169e-24)
(0.783849 -0.144146 1.11051e-22)
(0.784802 0.0228267 -6.04237e-23)
(0.786907 0.14743 -5.28847e-23)
(0.788298 0.264718 -1.93536e-22)
(0.794294 0.295944 -2.60804e-22)
(0.786597 0.23219 -1.33082e-21)
(0.788807 0.164254 -2.94275e-23)
(0.758215 -0.0378308 -1.98753e-21)
(0.749933 -0.124392 8.71182e-22)
(0.72391 -0.22993 -2.12251e-22)
(0.723625 -0.255599 6.47859e-23)
(0.738227 -0.0466856 -6.10624e-23)
(0.827528 0.328899 -2.76028e-23)
(0.814988 0.381059 -9.64224e-23)
(0.796193 0.366417 -6.42219e-22)
(0.781479 0.283233 2.50532e-22)
(0.777444 0.14438 -7.70318e-22)
(0.792834 0.000595508 -1.22898e-21)
(0.808478 -0.13462 4.27243e-22)
(0.812699 -0.232331 1.11332e-21)
(0.79715 -0.302252 4.6988e-22)
(0.786666 -0.314137 -8.51435e-23)
(0.782262 -0.248839 2.07642e-22)
(0.784718 -0.14498 -1.8189e-22)
(0.786115 0.0220173 8.40329e-23)
(0.788539 0.146793 5.47343e-23)
(0.790375 0.264239 1.40164e-22)
(0.796489 0.296022 4.90697e-23)
(0.788661 0.232515 3.84609e-23)
(0.791039 0.165179 -5.84549e-22)
(0.760079 -0.0366586 -9.8152e-23)
(0.751517 -0.123543 -7.23063e-22)
(0.724993 -0.229262 3.39614e-22)
(0.724084 -0.255954 7.6099e-24)
(0.740073 -0.0470354 5.87874e-23)
(0.829308 0.328303 -5.77014e-22)
(0.817011 0.381738 -6.1014e-22)
(0.798173 0.367923 1.40621e-21)
(0.783064 0.284935 1.52837e-21)
(0.778553 0.145476 1.29372e-21)
(0.793949 0.00102242 -5.45802e-22)
(0.810111 -0.134165 -1.66523e-21)
(0.814796 -0.231387 -4.26352e-22)
(0.798933 -0.301264 -7.08229e-22)
(0.787763 -0.313935 -1.00937e-22)
(0.783119 -0.24931 -2.58805e-22)
(0.785631 -0.145856 1.83166e-22)
(0.787477 0.0211582 1.94398e-23)
(0.790228 0.146116 -2.47226e-23)
(0.7925 0.263732 4.5426e-23)
(0.798731 0.296102 5.73658e-23)
(0.79077 0.232846 1.53097e-21)
(0.793325 0.166119 1.68203e-21)
(0.762031 -0.0354614 4.22211e-22)
(0.753187 -0.122672 5.8523e-22)
(0.726174 -0.228566 6.60002e-22)
(0.724611 -0.256325 6.84431e-23)
(0.741976 -0.0474154 6.65932e-24)
(0.831155 0.327633 -1.53977e-22)
(0.819123 0.382384 2.20915e-22)
(0.800258 0.369452 -9.00318e-22)
(0.784757 0.286708 -1.37445e-21)
(0.779752 0.146649 8.03157e-22)
(0.795126 0.00149657 4.37911e-22)
(0.811797 -0.133696 1.14399e-21)
(0.816966 -0.230425 2.08073e-22)
(0.800804 -0.300237 7.43484e-22)
(0.788927 -0.313712 -3.10169e-22)
(0.784024 -0.249794 -2.17042e-22)
(0.786589 -0.146773 -2.86687e-23)
(0.788889 0.0202493 -7.32261e-23)
(0.79197 0.145397 -5.4616e-24)
(0.794672 0.263198 -1.22603e-22)
(0.80102 0.296182 8.98971e-23)
(0.792922 0.233182 -9.27716e-22)
(0.795665 0.167074 -5.32852e-22)
(0.764069 -0.0342402 8.20295e-22)
(0.754943 -0.121779 5.82047e-23)
(0.727454 -0.227844 -4.39802e-22)
(0.725205 -0.256711 -2.26257e-22)
(0.743935 -0.0478254 -3.56458e-23)
(0.833069 0.326888 7.5349e-22)
(0.821322 0.382994 -7.43298e-22)
(0.802445 0.371002 -3.9754e-23)
(0.786556 0.28855 -9.6631e-23)
(0.781044 0.1479 3.06406e-22)
(0.796367 0.00201251 4.38549e-22)
(0.813536 -0.133214 -2.66094e-22)
(0.819208 -0.229445 -3.34172e-22)
(0.802765 -0.299172 -1.48593e-22)
(0.790157 -0.313466 3.44303e-22)
(0.784975 -0.250289 9.22484e-23)
(0.78759 -0.14773 -1.89279e-22)
(0.790347 0.0192911 3.4697e-23)
(0.793764 0.144639 3.69238e-25)
(0.796889 0.262637 -1.12494e-22)
(0.803353 0.296264 2.04007e-22)
(0.795117 0.233523 -1.89124e-22)
(0.798056 0.168042 6.99735e-22)
(0.766193 -0.0329959 -3.23915e-22)
(0.756783 -0.120865 -6.12244e-22)
(0.728832 -0.227094 5.86485e-22)
(0.725866 -0.257109 8.91843e-23)
(0.745948 -0.048265 7.3746e-24)
(0.835043 0.326065 -3.40817e-22)
(0.823605 0.383566 5.49831e-23)
(0.804735 0.37257 -2.09999e-22)
(0.788464 0.290461 5.37855e-22)
(0.78243 0.14923 -2.08292e-21)
(0.797671 0.00258099 -1.56417e-21)
(0.815327 -0.13272 2.66823e-22)
(0.821519 -0.22845 4.80143e-22)
(0.804813 -0.298069 -6.95559e-22)
(0.791455 -0.313197 -2.96012e-22)
(0.785972 -0.250795 1.46452e-22)
(0.788634 -0.148727 1.05054e-22)
(0.791852 0.0182836 -3.94449e-24)
(0.795609 0.14384 8.56444e-24)
(0.799149 0.26205 1.06187e-22)
(0.805729 0.296345 -2.31432e-22)
(0.797352 0.233868 6.09646e-22)
(0.800497 0.169021 -9.22615e-22)
(0.768402 -0.0317294 1.11981e-21)
(0.758707 -0.119929 -8.92079e-22)
(0.730308 -0.226317 5.40865e-23)
(0.726593 -0.25752 -1.18065e-22)
(0.748014 -0.0487339 9.98628e-24)
(0.837077 0.325161 -4.45415e-22)
(0.825969 0.384097 4.69959e-22)
(0.807125 0.374154 -7.87978e-22)
(0.79048 0.29244 7.82629e-22)
(0.78391 0.15064 2.58884e-21)
(0.79904 0.00319567 1.02032e-23)
(0.817167 -0.132213 -1.53197e-21)
(0.823898 -0.227441 -4.30232e-22)
(0.806948 -0.296928 9.85716e-22)
(0.792819 -0.312901 6.76383e-22)
(0.787014 -0.251309 2.88329e-22)
(0.789719 -0.149763 1.36497e-23)
(0.793401 0.0172273 1.96246e-23)
(0.797504 0.143003 1.39502e-23)
(0.801452 0.261436 4.31856e-23)
(0.808147 0.296428 -2.88713e-22)
(0.799626 0.234217 -5.97559e-23)
(0.802986 0.170012 2.80437e-22)
(0.770694 -0.0304418 -1.67562e-21)
(0.760714 -0.118973 1.31025e-21)
(0.731883 -0.225511 -4.46166e-22)
(0.727388 -0.257943 1.3028e-22)
(0.750133 -0.0492316 8.72246e-24)
(0.839164 0.324174 -3.49672e-22)
(0.828412 0.384584 -7.23511e-22)
(0.809615 0.375751 1.18275e-21)
(0.792604 0.294486 7.24453e-22)
(0.785488 0.152131 -1.18704e-21)
(0.800475 0.00385754 -6.09773e-23)
(0.819056 -0.131694 8.78014e-22)
(0.826342 -0.226419 1.14426e-22)
(0.809168 -0.29575 -1.03414e-21)
(0.794252 -0.312579 -4.57822e-22)
(0.788099 -0.251831 6.97768e-23)
(0.790845 -0.150837 -8.46618e-23)
(0.794993 0.0161223 1.45479e-23)
(0.799447 0.142125 -4.73665e-24)
(0.803795 0.260796 -3.58591e-23)
(0.810607 0.29651 1.31251e-22)
(0.801939 0.23457 -4.94073e-22)
(0.805521 0.171011 -2.56444e-22)
(0.773068 -0.029134 4.35913e-22)
(0.762804 -0.117997 -5.89771e-22)
(0.733556 -0.224677 9.59289e-23)
(0.728248 -0.258375 5.25064e-23)
(0.752301 -0.0497578 -1.94156e-24)
(0.841303 0.323102 5.71743e-22)
(0.830931 0.385024 -2.09741e-22)
(0.812203 0.377359 -4.72463e-22)
(0.794836 0.296598 -5.52187e-23)
(0.787164 0.153704 8.83995e-22)
(0.801977 0.00457374 -6.98686e-23)
(0.820992 -0.131163 2.64322e-22)
(0.828849 -0.225386 3.67033e-22)
(0.811473 -0.294535 7.66222e-22)
(0.795753 -0.312228 -1.76621e-22)
(0.789227 -0.252359 -1.61829e-22)
(0.79201 -0.151948 5.43239e-23)
(0.796628 0.0149692 3.27757e-24)
(0.801437 0.141209 8.08824e-24)
(0.806176 0.26013 -2.87799e-23)
(0.813105 0.296593 3.07288e-22)
(0.804287 0.234926 4.27506e-22)
(0.808099 0.172018 -2.67829e-22)
(0.775524 -0.0278071 -4.94196e-22)
(0.764975 -0.117001 1.42249e-22)
(0.735327 -0.223814 -3.83069e-22)
(0.729175 -0.258817 -1.08446e-22)
(0.754519 -0.0503121 7.07194e-24)
(0.84349 0.321942 2.22759e-23)
(0.833523 0.385414 2.57462e-22)
(0.814887 0.378975 -5.52939e-22)
(0.797176 0.298774 -8.81391e-22)
(0.78894 0.155359 -5.96225e-22)
(0.803547 0.00534738 1.07564e-21)
(0.822974 -0.13062 -1.08428e-21)
(0.831416 -0.224344 1.04669e-21)
(0.813861 -0.293283 -2.26094e-22)
(0.797323 -0.311847 -1.80661e-23)
(0.790397 -0.252891 -5.27875e-24)
(0.793215 -0.153096 5.85437e-24)
(0.798305 0.0137681 -2.06108e-23)
(0.803473 0.140255 -5.03398e-23)
(0.808596 0.259438 -2.88467e-24)
(0.815642 0.296676 -4.31318e-22)
(0.806671 0.235285 1.38097e-22)
(0.81072 0.173032 5.95015e-22)
(0.77806 -0.0264622 7.63126e-22)
(0.767227 -0.115986 -5.19578e-22)
(0.737196 -0.222922 -2.59147e-23)
(0.730168 -0.259266 6.54538e-23)
(0.756785 -0.0508939 6.61961e-24)
(0.84572 0.320692 -1.9127e-22)
(0.836185 0.385751 -3.86686e-22)
(0.817664 0.380595 1.48566e-21)
(0.799623 0.301012 -2.77569e-22)
(0.790817 0.157098 -9.74808e-22)
(0.805186 0.0061722 5.46419e-22)
(0.825001 -0.130064 -2.13313e-22)
(0.834042 -0.223293 -1.19758e-21)
(0.816331 -0.291996 4.80218e-23)
(0.798963 -0.311435 1.9791e-22)
(0.791608 -0.253425 -1.93712e-24)
(0.794456 -0.15428 1.34276e-24)
(0.800022 0.0125197 -6.59447e-25)
(0.805554 0.139262 -2.56357e-23)
(0.811051 0.258721 1.07236e-22)
(0.818216 0.296759 3.64408e-22)
(0.809088 0.235647 3.43828e-22)
(0.81338 0.174052 2.29571e-22)
(0.780674 -0.0251003 2.85139e-22)
(0.769558 -0.114952 8.26992e-22)
(0.739163 -0.222001 -3.08704e-22)
(0.731228 -0.259722 -3.0759e-23)
(0.759096 -0.0515028 -2.10456e-24)
(0.84799 0.319351 2.72142e-22)
(0.838913 0.386031 -2.89748e-22)
(0.820532 0.382217 -8.90307e-22)
(0.802178 0.30331 -4.50845e-22)
(0.792797 0.15892 9.67897e-23)
(0.806896 0.0070479 1.63613e-21)
(0.827072 -0.129495 -3.57652e-22)
(0.836723 -0.222236 1.32037e-21)
(0.81888 -0.290673 4.14e-22)
(0.800672 -0.310989 6.91369e-23)
(0.792859 -0.253961 6.55568e-23)
(0.795734 -0.155498 -9.89074e-24)
(0.80178 0.0112241 -1.62659e-24)
(0.807679 0.138232 1.24789e-22)
(0.813542 0.257978 -4.68218e-23)
(0.820826 0.296841 -4.1369e-22)
(0.811537 0.236012 -3.96407e-22)
(0.816079 0.175076 -8.08794e-23)
(0.783365 -0.0237224 -9.43613e-24)
(0.771967 -0.1139 4.84895e-23)
(0.741226 -0.221051 4.65449e-22)
(0.732354 -0.260183 3.5658e-23)
(0.761453 -0.0521382 3.23464e-24)
(0.850299 0.317915 1.45364e-22)
(0.841704 0.386253 -5.94961e-22)
(0.82349 0.383836 1.20707e-21)
(0.804839 0.305667 -5.78536e-22)
(0.79488 0.160827 6.74483e-22)
(0.808679 0.00798418 -9.92198e-23)
(0.829186 -0.128912 -1.2143e-21)
(0.839458 -0.221174 2.71639e-22)
(0.821507 -0.289316 -7.58601e-22)
(0.80245 -0.31051 -5.3574e-22)
(0.79415 -0.254497 -1.44082e-22)
(0.797045 -0.15675 -1.13274e-23)
(0.803577 0.00988168 -2.50756e-23)
(0.809849 0.137165 -6.3947e-23)
(0.816066 0.25721 2.67189e-23)
(0.823471 0.296923 -9.36529e-23)
(0.814017 0.236379 -4.89042e-22)
(0.818814 0.176103 2.30198e-22)
(0.786131 -0.0223297 -2.35509e-22)
(0.774454 -0.11283 -4.79654e-23)
(0.743386 -0.220072 -3.6211e-22)
(0.733547 -0.260649 1.13259e-23)
(0.763853 -0.0527995 -8.83388e-25)
(0.852643 0.316385 -1.05628e-22)
(0.844556 0.386411 4.80661e-22)
(0.826535 0.385451 2.67156e-22)
(0.807605 0.30808 -3.70045e-22)
(0.79707 0.162818 2.1518e-22)
(0.810536 0.00898352 -1.25007e-21)
(0.831342 -0.128316 7.39821e-22)
(0.842243 -0.220108 -1.10765e-21)
(0.824211 -0.287926 6.92544e-22)
(0.804299 -0.309995 4.48596e-22)
(0.795478 -0.255029 4.13004e-23)
(0.798389 -0.158035 3.03608e-23)
(0.805413 0.00849315 4.73512e-23)
(0.812064 0.136061 -3.81046e-24)
(0.818625 0.256417 2.69147e-23)
(0.826151 0.297004 4.83539e-22)
(0.816526 0.236748 1.25279e-22)
(0.821584 0.177131 -7.35475e-22)
(0.788971 -0.0209235 -2.08166e-22)
(0.777018 -0.111742 -1.96729e-22)
(0.745641 -0.219062 1.17414e-22)
(0.734808 -0.261118 4.41295e-23)
(0.766294 -0.0534862 1.27034e-24)
(0.855023 0.314758 -2.92294e-23)
(0.847466 0.386505 -2.24471e-22)
(0.829664 0.387056 -2.2506e-22)
(0.810478 0.310545 1.65213e-23)
(0.799367 0.16489 2.17288e-22)
(0.812468 0.0100444 1.6272e-22)
(0.833539 -0.127706 3.65978e-22)
(0.845076 -0.21904 2.74145e-22)
(0.826989 -0.286502 2.51186e-22)
(0.806218 -0.309441 1.73487e-24)
(0.796845 -0.255555 -1.6028e-22)
(0.799763 -0.159349 -2.62571e-24)
(0.807289 0.00706058 -7.33613e-24)
(0.814325 0.134921 1.59059e-23)
(0.821219 0.2556 -3.59883e-23)
(0.828864 0.297085 -3.3324e-22)
(0.819064 0.237119 6.05801e-22)
(0.824386 0.17816 4.10689e-22)
(0.791882 -0.0195053 1.34555e-22)
(0.779657 -0.110639 -4.69565e-23)
(0.747991 -0.218023 -2.51814e-22)
(0.736137 -0.261588 -1.40364e-22)
(0.768775 -0.0541974 9.27498e-24)
(0.857443 0.313036 -1.13493e-22)
(0.850434 0.38653 -1.48643e-22)
(0.832876 0.388646 4.44194e-22)
(0.813456 0.313055 -6.78604e-22)
(0.801775 0.167042 1.1477e-21)
(0.814479 0.0111592 -1.13563e-23)
(0.835776 -0.127078 -9.49154e-22)
(0.847955 -0.217967 4.154e-22)
(0.829839 -0.285044 -7.44559e-22)
(0.808207 -0.308848 -8.23769e-23)
(0.79825 -0.256074 -1.71931e-22)
(0.801164 -0.160694 1.34604e-23)
(0.809204 0.00558453 -6.04536e-23)
(0.816634 0.133747 2.22426e-23)
(0.823848 0.25476 -1.66038e-23)
(0.831612 0.297163 2.91688e-23)
(0.821628 0.237491 -2.67341e-22)
(0.827219 0.179187 -3.71614e-22)
(0.794863 -0.0180759 -1.85621e-22)
(0.78237 -0.109519 -1.52221e-22)
(0.750435 -0.216954 4.31884e-22)
(0.737535 -0.262059 1.215e-22)
(0.771294 -0.0549326 -9.35952e-24)
(0.859912 0.311204 -2.47103e-22)
(0.853463 0.386481 7.05733e-22)
(0.836172 0.390223 -6.54187e-22)
(0.816542 0.315627 -3.25866e-22)
(0.804295 0.169303 6.99825e-22)
(0.81657 0.0123596 -6.18754e-22)
(0.838053 -0.126417 5.58317e-22)
(0.850876 -0.21689 4.27512e-22)
(0.83276 -0.283561 -7.90404e-23)
(0.810265 -0.308226 2.32984e-22)
(0.799692 -0.256603 8.52844e-23)
(0.802592 -0.162089 -1.47999e-23)