/*--------------------------------*- C++ -*----------------------------------*\
  =========                 |
  \\      /  F ield         | OpenFOAM: The Open Source CFD Toolbox
   \\    /   O peration     | Website:  https://openfoam.org
    \\  /    A nd           | Version:  7
     \\/     M anipulation  |
\*---------------------------------------------------------------------------*/
FoamFile
{
    version     2.0;
    format      ascii;
    class       surfaceScalarField;
    location    "60";
    object      phi;
}
// * * * * * * * * * * * * * * * * * * * * * * * * * * * * * * * * * * * * * //

dimensions      [0 3 -1 0 0 0 0];

internalField   nonuniform List<scalar> 
8927
(
0.000899173
0.00214475
-0.00217352
0.000914144
0.00269134
-0.00270631
0.000920065
0.00301462
-0.00302055
0.000924735
0.00310354
-0.00310821
0.000935171
0.00292095
-0.00293138
0.000956104
0.00247894
-0.00249987
0.00098663
0.00180593
-0.00183645
0.00102285
0.000990178
-0.0010264
0.00105807
0.000143863
-0.000179077
0.0010875
-0.000659306
0.000629871
0.00110757
-0.0012982
0.00127814
0.0011194
-0.00180629
0.00179447
0.00112501
-0.0020455
0.00203988
0.00113026
-0.00214045
0.0021352
0.00113765
-0.00192598
0.00191859
0.00115079
-0.00158114
0.001568
0.00116716
-0.00103964
0.00102328
0.00118608
-0.000411129
0.000392205
0.00120295
9.7557e-05
-0.000114426
0.00121814
0.000740694
-0.000755889
0.00122951
0.000864649
-0.00087601
0.00124028
0.00130855
-0.00131933
0.000951172
-0.000962127
0.000885337
0.00211533
0.000901929
0.00267475
0.000910446
0.00300611
0.000918554
0.00309543
0.000932899
0.0029066
0.000957695
0.00245414
0.000991555
0.00177207
0.00103026
0.000951469
0.00106706
0.000107071
0.00109716
-0.000689412
0.00111712
-0.00131817
0.00112805
-0.00181722
0.00113214
-0.00204959
0.00113532
-0.00214363
0.0011404
-0.00193105
0.0011513
-0.00159204
0.00116572
-0.00105406
0.00118334
-0.000428749
0.00119938
8.15205e-05
0.00121455
0.000725516
0.00122621
0.000852995
0.00123792
0.00129684
0.000939253
0.000872484
0.00208527
0.000890752
0.00265648
0.000901934
0.00299493
0.000913524
0.00308384
0.000931767
0.00288836
0.000960351
0.00242556
0.000997434
0.00173498
0.00103851
0.000910397
0.00107678
6.88017e-05
0.00110749
-0.000720128
0.00112733
-0.001338
0.00113738
-0.00182728
0.00113998
-0.00205219
0.00114112
-0.00214477
0.0011439
-0.00193383
0.00115255
-0.00160069
0.00116501
-0.00106651
0.00118129
-0.000445032
0.00119646
6.63441e-05
0.00121161
0.000710375
0.00122354
0.000841058
0.00123618
0.0012842
0.000926378
0.000860683
0.00205457
0.000880669
0.00263649
0.00089457
0.00298102
0.000909662
0.00306875
0.00093177
0.00286625
0.000964051
0.00239328
0.00100423
0.00169481
0.00104753
0.000867092
0.00108718
2.91574e-05
0.00111844
-0.000751395
0.00113814
-0.0013577
0.00114735
-0.00183649
0.0011485
-0.00205334
0.00114765
-0.00214391
0.00114816
-0.00193434
0.00115455
-0.00160709
0.00116502
-0.00107698
0.00117993
-0.000459949
0.00119423
5.20529e-05
0.00120931
0.000695291
0.00122152
0.000828848
0.00123507
0.00127066
0.00091256
0.000850001
0.00202323
0.000871732
0.00261476
0.000888384
0.00296437
0.00090698
0.00305016
0.000932896
0.00284034
0.000968764
0.00235741
0.0010119
0.00165167
0.0010573
0.00082169
0.00109821
-1.17555e-05
0.00112997
-0.000783151
0.00114952
-0.00137725
0.0011579
-0.00184487
0.00115767
-0.00205311
0.00115486
-0.00214111
0.00115314
-0.00193262
0.00115729
-0.00161124
0.00116576
-0.00108544
0.00117928
-0.000473475
0.00119267
3.86694e-05
0.00120767
0.000680283
0.00122014
0.000816379
0.00123459
0.00125621
0.000897814
0.000840494
0.00199129
0.000863984
0.00259127
0.000883403
0.00294495
0.00090548
0.00302808
0.000935129
0.00281069
0.000974458
0.00231808
0.0010204
0.00160573
0.00106776
0.000774332
0.00110983
-5.38289e-05
0.00114202
-0.000815338
0.00116141
-0.00139664
0.00116901
-0.00185247
0.00116744
-0.00205154
0.00116275
-0.00213642
0.00115883
-0.00192871
0.00116076
-0.00161317
0.00116722
-0.0010919
0.00117934
-0.000485592
0.0011918
2.62135e-05
0.00120671
0.000665372
0.00121942
0.000803663
0.00123475
0.00124088
0.000882158
0.000832214
0.00195878
0.000857464
0.00256602
0.000879643
0.00292277
0.000905159
0.00300256
0.000938445
0.0027774
0.000981094
0.00227543
0.00102968
0.00155715
0.00107885
0.000725163
0.00112197
-9.69529e-05
0.00115453
-0.000847896
0.00117376
-0.00141587
0.00118061
-0.00185932
0.00117777
-0.0020487
0.00117127
-0.00212991
0.00116522
-0.00192266
0.00116495
-0.0016129
0.00116941
-0.00109637
0.00118011
-0.000496284
0.00119162
1.47021e-05
0.00120641
0.00065058
0.00121936
0.000790716
0.00123554
0.0012247
0.000865614
0.000825203
0.00192571
0.000852197
0.00253903
0.000877113
0.00289786
0.000906005
0.00297367
0.000942815
0.00274059
0.000988629
0.00222962
0.0010397
0.00150608
0.00109053
0.000674335
0.00113459
-0.000141017
0.00116746
-0.000880766
0.00118651
-0.00143492
0.00119266
-0.00186547
0.00118863
-0.00204467
0.00118039
-0.00212167
0.00117227
-0.00191454
0.00116984
-0.00161047
0.00117232
-0.00109885
0.00118158
-0.000505543
0.00119213
4.14876e-06
0.00120679
0.000635926
0.00121995
0.000777553
0.00123697
0.00120768
0.000848204
0.000819497
0.00189215
0.000848206
0.00251032
0.000875816
0.00287025
0.000908
0.00294149
0.000948204
0.00270039
0.000997019
0.0021808
0.00105039
0.0014527
0.00110273
0.000621998
0.00114762
-0.00018591
0.00118075
-0.000913891
0.00119963
-0.0014538
0.00120511
-0.00187095
0.00119996
-0.00203952
0.00119007
-0.00211178
0.00117996
-0.00190443
0.00117542
-0.00160592
0.00117593
-0.00109936
0.00118375
-0.000513365
0.00119334
-5.43616e-06
0.00120783
0.000621431
0.0012212
0.000764191
0.00123902
0.00118986
0.000829954
0.00081512
0.00185815
0.0008455
0.00247994
0.000875745
0.00284
0.000911122
0.00290611
0.000954573
0.00265694
0.00100621
0.00212916
0.00106172
0.0013972
0.00111541
0.000568308
0.00116102
-0.000231521
0.00119434
-0.000947214
0.00121305
-0.00147251
0.00121792
-0.00187582
0.00121173
-0.00203333
0.00120028
-0.00210034
0.00118826
-0.00189241
0.00118166
-0.00159932
0.00118024
-0.00109794
0.00118663
-0.000519753
0.00119524
-1.4046e-05
0.00120955
0.000607114
0.0012231
0.000750646
0.0012417
0.00117126
0.000810892
0.000812091
0.00182377
0.000844085
0.00244794
0.000876887
0.0028072
0.000915341
0.00286765
0.00096188
0.0026104
0.00101616
0.00207488
0.00107361
0.00133975
0.0011285
0.000513418
0.00117472
-0.00027774
0.00120818
-0.000980678
0.00122671
-0.00149103
0.00123102
-0.00188013
0.00122388
-0.00202619
0.00121098
-0.00208744
0.00119714
-0.00187858
0.00118854
-0.00159071
0.00118522
-0.00109463
0.00119018
-0.000524714
0.00119782
-2.16777e-05
0.00121194
0.000592993
0.00122565
0.000736937
0.001245
0.00115191
0.000791049
0.000810419
0.00178907
0.000843957
0.00241441
0.000879223
0.00277194
0.000920619
0.00282626
0.000970076
0.00256094
0.0010268
0.00201816
0.00108601
0.00128054
0.00114195
0.000457482
0.00118867
-0.000324458
0.00122222
-0.00101423
0.00124057
-0.00150938
0.00124437
-0.00188393
0.00123636
-0.00201819
0.00122211
-0.00207319
0.00120656
-0.00186302
0.00119603
-0.00158019
0.00119087
-0.00108946
0.00119442
-0.000528264
0.00120107
-2.83324e-05
0.00121498
0.000579087
0.00122884
0.00072308
0.0012489
0.00113185
0.000770456
0.000810104
0.00175414
0.000845103
0.00237941
0.000882727
0.00273431
0.000926919
0.00278207
0.000979111
0.00250875
0.00103809
0.00195918
0.00109887
0.00121975
0.0011557
0.000400656
0.00120281
-0.000371566
0.00123639
-0.00104781
0.00125457
-0.00152756
0.00125791
-0.00188727
0.00124914
-0.00200942
0.00123365
-0.0020577
0.00121648
-0.00184585
0.00120412
-0.00156783
0.00119715
-0.0010825
0.00119931
-0.000530422
0.00120499
-3.40151e-05
0.00121867
0.000565412
0.00123265
0.000709094
0.0012534
0.0011111
0.000749145
0.000811137
0.00171905
0.000847504
0.00234304
0.000887364
0.00269445
0.000934194
0.00273524
0.000988932
0.00245401
0.00104996
0.00189816
0.00111213
0.00115757
0.0011697
0.000343089
0.00121709
-0.00041896
0.00125066
-0.00108138
0.00126865
-0.00154555
0.00127159
-0.00189021
0.00126214
-0.00199997
0.00124553
-0.00204109
0.00122687
-0.00182719
0.00121276
-0.00155371
0.00120405
-0.00107379
0.00120485
-0.000531215
0.00120957
-3.87349e-05
0.001223
0.000551982
0.00123709
0.000694995
0.00125848
0.00108972
0.000727152
0.000813502
0.0016839
0.000851134
0.00230541
0.000893098
0.00265249
0.000942396
0.00268594
0.000999481
0.00239692
0.00106235
0.00183529
0.00112572
0.0010942
0.00118388
0.000284932
0.00123146
-0.000466537
0.00126495
-0.00111488
0.00128278
-0.00156338
0.00128537
-0.00189279
0.00127534
-0.00198994
0.00125772
-0.00202347
0.00123768
-0.00180715
0.00122191
-0.00153795
0.00121154
-0.00106343
0.001211
-0.000530674
0.00121477
-4.25055e-05
0.00122795
0.000538812
0.00124214
0.000680801
0.00126413
0.00106772
0.000704512
0.000817175
0.00164877
0.000855959
0.00226662
0.000899884
0.00260856
0.000951472
0.00263435
0.0010107
0.00233769
0.00107521
0.00177079
0.0011396
0.00102981
0.0011982
0.000226332
0.00124586
-0.000514195
0.00127924
-0.00114825
0.00129689
-0.00158103
0.00129918
-0.00189509
0.00128867
-0.00197943
0.00127017
-0.00200497
0.00124887
-0.00178585
0.00123156
-0.00152064
0.0012196
-0.00105146
0.00121776
-0.000528839
0.0012206
-4.53446e-05
0.0012335
0.000525912
0.00124778
0.000666527
0.00127034
0.00104516
0.00068126
0.000822124
0.00161375
0.000861941
0.00222681
0.000907674
0.00256283
0.000961366
0.00258066
0.00102254
0.00227652
0.00108848
0.00170485
0.0011537
0.000964581
0.0012126
0.000167429
0.00126025
-0.000561839
0.00129346
-0.00118147
0.00131094
-0.00159851
0.00131299
-0.00189713
0.00130208
-0.00196852
0.00128283
-0.00198572
0.00126041
-0.00176343
0.00124166
-0.00150189
0.00122819
-0.00103799
0.0012251
-0.000525753
0.00122703
-4.72745e-05
0.00123965
0.000513292
0.00125399
0.000652189
0.00127709
0.00102206
0.000657433
0.00082831
0.00157895
0.000869034
0.00218608
0.000916416
0.00251545
0.00097202
0.00252506
0.00103492
0.00221362
0.00110209
0.00163768
0.00116797
0.000898699
0.00122704
0.000108364
0.00127457
-0.000609374
0.00130757
-0.00121447
0.00132488
-0.00161582
0.00132674
-0.00189899
0.00131554
-0.00195732
0.00129565
-0.00196583
0.00127223
-0.00174001
0.00125217
-0.00148183
0.00123728
-0.0010231
0.00123299
-0.000521467
0.00123404
-4.8322e-05
0.00124637
0.000500959
0.00126076
0.000637801
0.00128435
0.000998469
0.00063307
0.000835688
0.00154445
0.000877187
0.00214459
0.000926053
0.00246658
0.000983374
0.00246773
0.00104779
0.0021492
0.00111599
0.00156948
0.00118235
0.000832336
0.00124145
4.92683e-05
0.00128879
-0.000656712
0.00132153
-0.00124721
0.00133868
-0.00163297
0.00134039
-0.0019007
0.00132898
-0.00194591
0.00130858
-0.00194543
0.00128431
-0.00171574
0.00126305
-0.00146056
0.00124683
-0.00100689
0.0012414
-0.000516037
0.0012416
-4.85182e-05
0.00125364
0.000488918
0.00126807
0.000623376
0.00129211
0.00097442
0.000608205
0.000844206
0.00151036
0.000886347
0.00210244
0.000936527
0.0024164
0.000995366
0.0024089
0.0010611
0.00208347
0.00113012
0.00150046
0.0011968
0.00076566
0.00125579
-9.72831e-06
0.00130285
-0.000703765
0.00133529
-0.00127966
0.00135227
-0.00164995
0.0013539
-0.00190232
0.00134237
-0.00193439
0.00132159
-0.00192465
0.0012966
-0.00169075
0.00127426
-0.00143822
0.00125682
-0.000989454
0.00125031
-0.000509524
0.00124969
-4.78986e-05
0.00126144
0.00047717
0.00127589
0.000608927
0.00130036
0.000949953
0.000582876
0.000853806
0.00147675
0.000896454
0.0020598
0.000947775
0.00236508
0.00100793
0.00234874
0.00107477
0.00201664
0.00114443
0.0014308
0.00121125
0.000698836
0.00127002
-6.85034e-05
0.00131671
-0.000750454
0.00134883
-0.00131177
0.00136564
-0.00166676
0.00136721
-0.0019039
0.00135566
-0.00192284
0.00133462
-0.0019036
0.00130904
-0.00166517
0.00128576
-0.00141494
0.00126721
-0.000970901
0.00125968
-0.000501993
0.00125828
-4.65031e-05
0.00126974
0.000465716
0.0012842
0.000594462
0.00130905
0.000925103
0.00055712
0.000864427
0.00144373
0.000907444
0.00201678
0.000959733
0.00231279
0.00102101
0.00228746
0.00108874
0.00194891
0.00115885
0.00136069
0.00122566
0.000632021
0.0012841
-0.00012694
0.00133035
-0.000796701
0.00136208
-0.00134351
0.00137874
-0.00168341
0.0013803
-0.00190547
0.00136881
-0.00191134
0.00134763
-0.00188242
0.0013216
-0.00163915
0.00129751
-0.00139085
0.00127795
-0.000951343
0.00126948
-0.000493517
0.00126735
-4.43757e-05
0.00127852
0.000454551
0.00129299
0.00057999
0.00131818
0.000899905
0.000530972
0.000876001
0.00141137
0.000919253
0.00197353
0.000972336
0.00225971
0.00103454
0.00222526
0.00110297
0.00188048
0.00117333
0.00129033
0.00123999
0.000565365
0.00129797
-0.000184928
0.00134371
-0.000842435
0.00137504
-0.00137484
0.00139153
-0.0016999
0.00139313
-0.00190707
0.00138178
-0.00189999
0.00136057
-0.00186121
0.00133424
-0.00161282
0.00130947
-0.00136608
0.00128902
-0.000930894
0.00127967
-0.000484171
0.00127686
-4.15646e-05
0.00128774
0.000443669
0.00130222
0.000565517
0.00132773
0.000874395
0.000504466
0.000888458
0.00137976
0.000931812
0.00193017
0.000985517
0.002206
0.00104845
0.00216232
0.00111738
0.00181155
0.00118782
0.00121988
0.00125417
0.000499014
0.00131161
-0.000242362
0.00135676
-0.000887589
0.00138766
-0.00140573
0.00140398
-0.00171623
0.00140566
-0.00190875
0.00139452
-0.00188885
0.0013734
-0.00184009
0.0013469
-0.00158631
0.00132159
-0.00134078
0.00130036
-0.000909671
0.00129023
-0.000474035
0.00128679
-3.81219e-05
0.00129739
0.000433061
0.00131186
0.000551049
0.00133765
0.000848606
0.000477638
0.000901723
0.00134895
0.00094505
0.00188685
0.000999208
0.00215184
0.00106268
0.00209886
0.00113191
0.00174232
0.00120228
0.00114952
0.00126819
0.000433104
0.00132497
-0.000299146
0.00136948
-0.000932101
0.0013999
-0.00143616
0.00141607
-0.00173239
0.00141786
-0.00191055
0.00140701
-0.001878
0.00138609
-0.00181917
0.00135954
-0.00155976
0.00133383
-0.00131506
0.00131195
-0.000887795
0.00130111
-0.000463194
0.00129709
-3.41034e-05
0.00130744
0.000422715
0.0013219
0.000536587
0.00134794
0.000822568
0.000450518
0.00091572
0.00131903
0.000958895
0.00184367
0.00101334
0.0020974
0.00107716
0.00203503
0.00114653
0.00167295
0.00121664
0.00107941
0.00128198
0.000367764
0.00133802
-0.000355187
0.00138183
-0.000975914
0.00141176
-0.00146609
0.00142776
-0.00174839
0.0014297
-0.00191248
0.0014192
-0.0018675
0.00139859
-0.00179856
0.00137213
-0.0015333
0.00134615
-0.00128908
0.00132374
-0.000865388
0.00131228
-0.000451733
0.00130774
-2.95684e-05
0.00131784
0.000412615
0.0013323
0.000522132
0.00135855
0.000796312
0.000423139
0.00093037
0.00129003
0.000973275
0.00180077
0.00102785
0.00204282
0.00109184
0.00197104
0.00116115
0.00160364
0.00123086
0.00100971
0.00129551
0.000303116
0.00135072
-0.000410403
0.00139378
-0.00101898
0.0014232
-0.0014955
0.00143904
-0.00176423
0.00144115
-0.00191459
0.00143107
-0.00185743
0.00141087
-0.00177835
0.00138462
-0.00150706
0.0013585
-0.00126296
0.00133569
-0.000842573
0.0013237
-0.000439744
0.00131871
-2.45796e-05
0.00132858
0.000402743
0.00134303
0.000507681
0.00136948
0.000769865
0.000395529
0.00094559
0.00126199
0.000988116
0.00175824
0.00104266
0.00198827
0.00110666
0.00190705
0.00117574
0.00153456
0.0012449
0.000940554
0.00130874
0.000239275
0.00136305
-0.000464715
0.00140532
-0.00106125
0.00143419
-0.00152437
0.00144987
-0.00177991
0.00145219
-0.00191691
0.00144259
-0.00184783
0.00142289
-0.00175865
0.00139698
-0.00148115
0.00137086
-0.00123683
0.00134776
-0.000819476
0.00133533
-0.000427319
0.00132996
-1.92027e-05
0.00133962
0.000393078
0.00135407
0.000493231
0.00138069
0.000743252
0.000367717
0.000961299
0.00123496
0.00100334
0.0017162
0.00105772
0.0019339
0.00112154
0.00184323
0.00119025
0.00146585
0.00125871
0.000872096
0.00132164
0.000176345
0.00137497
-0.000518054
0.00141641
-0.00110268
0.00144473
-0.0015527
0.00146025
-0.00179544
0.0014628
-0.00191945
0.00145373
-0.00183876
0.00143462
-0.00173954
0.00140917
-0.0014557
0.00138317
-0.00121083
0.00135991
-0.000796219
0.00134714
-0.000414552
0.00134145
-1.35058e-05
0.00135093
0.000383596
0.00136539
0.000478774
0.00139214
0.000716497
0.000339728
0.000977414
0.00120894
0.00101889
0.00167472
0.00107295
0.00187983
0.00113645
0.00177973
0.00120461
0.00139769
0.00127225
0.000804462
0.00133417
0.000114426
0.00138647
-0.000570356
0.00142703
-0.00114324
0.00145479
-0.00158045
0.00147015
-0.0018108
0.00147295
-0.00192225
0.00146446
-0.00183028
0.00144603
-0.00172111
0.00142114
-0.00143081
0.0013954
-0.00118509
0.00137211
-0.000772926
0.00135909
-0.00040154
0.00135315
-7.55979e-06
0.00136247
0.000374269
0.00137695
0.000464302
0.00140382
0.00068962
0.000311586
0.00099385
0.00118394
0.00103467
0.00163391
0.00108829
0.00182621
0.00115132
0.00171671
0.00121879
0.00133021
0.00128548
0.000737775
0.0013463
5.36069e-05
0.00139751
-0.000621565
0.00143717
-0.0011829
0.00146435
-0.00160763
0.00147957
-0.00182602
0.00148264
-0.00192531
0.00147478
-0.00182242
0.0014571
-0.00170343
0.00143288
-0.0014066
0.00140751
-0.00115972
0.00138431
-0.000749719
0.00137114
-0.000388379
0.00136502
-1.43731e-06
0.00137422
0.000365068
0.00138872
0.000449803
0.0014157
0.000662639
0.000283313
0.00101052
0.00115995
0.00105062
0.00159381
0.00110368
0.00177314
0.00116609
0.0016543
0.00123274
0.00126355
0.00129837
0.000672149
0.00135801
-6.02944e-06
0.00140807
-0.000671632
0.00144681
-0.00122164
0.00147341
-0.00163423
0.00148848
-0.00184109
0.00149184
-0.00192868
0.00148464
-0.00181522
0.00146779
-0.00168657
0.00144435
-0.00138316
0.00141947
-0.00113485
0.00139647
-0.000726719
0.00138326
-0.000375166
0.00137704
4.78707e-06
0.00138614
0.00035596
0.00140068
0.000435263
0.00142775
0.00063557
0.000254928
0.00102735
0.00113695
0.00106666
0.00155451
0.00111906
0.00172075
0.00118071
0.00159264
0.00124642
0.00119785
0.00131088
0.000607692
0.00136926
-6.44087e-05
0.00141814
-0.000720514
0.00145593
-0.00125943
0.00148194
-0.00166024
0.00149687
-0.00185602
0.00150054
-0.00193235
0.00149405
-0.00180873
0.00147809
-0.0016706
0.00145551
-0.00136058
0.00143125
-0.00111058
0.00140857
-0.000704042
0.0013954
-0.000361999
0.00138915
1.10379e-05
0.0013982
0.000346912
0.0014128
0.000420667
0.00143994
0.000608424
0.000226449
0.00104425
0.0011149
0.00108273
0.00151603
0.00113436
0.00166912
0.00119515
0.00153186
0.00125978
0.00113321
0.00132297
0.0005445
0.00138003
-0.000121464
0.00142769
-0.000768175
0.00146453
-0.00129627
0.00148995
-0.00168567
0.00150475
-0.00187081
0.00150875
-0.00193635
0.00150299
-0.00180297
0.00148797
-0.00165559
0.00146635
-0.00133896
0.0014428
-0.00108703
0.00142056
-0.000681804
0.00140754
-0.000348975
0.00140134
1.72386e-05
0.00141036
0.000337886
0.00142503
0.000405996
0.00145225
0.000581213
0.00019789
0.00106115
0.00109375
0.00109876
0.00147841
0.00114953
0.00161835
0.00120933
0.00147206
0.00127278
0.00106976
0.00133462
0.000482663
0.00139029
-0.000177137
0.00143671
-0.000814587
0.00147258
-0.00133214
0.00149743
-0.00171052
0.0015121
-0.00188548
0.00151644
-0.00194069
0.00151144
-0.00179797
0.00149742
-0.00164157
0.00147683
-0.00131837
0.00145411
-0.00106431
0.00143242
-0.000660114
0.00141963
-0.00033619
0.00141356
2.3312e-05
0.0014226
0.000328843
0.00143737
0.00039123
0.00146464
0.000553942
0.000169265
0.00107795
0.00107344
0.00111469
0.00144168
0.00116452
0.00156851
0.00122323
0.00141335
0.0012854
0.0010076
0.0013458
0.000422264
0.00140004
-0.000231376
0.00144518
-0.000859727
0.00148008
-0.00136704
0.00150436
-0.00173479
0.00151891
-0.00190004
0.00152361
-0.00194539
0.00151939
-0.00179375
0.00150643
-0.00162861
0.00148695
-0.00129889
0.00146513
-0.00104249
0.0014441
-0.00063908
0.00143165
-0.000323737
0.00142578
2.9181e-05
0.00143488
0.000319742
0.00144976
0.000376346
0.00147709
0.000526617
0.000140584
0.00109459
0.00105388
0.00113044
0.00140583
0.00117928
0.00151968
0.00123681
0.00135582
0.00129759
0.000946818
0.00135648
0.000363376
0.00140924
-0.000284137
0.00145309
-0.000903579
0.00148703
-0.00140098
0.00151074
-0.00175851
0.00152519
-0.00191448
0.00153026
-0.00195045
0.00152684
-0.00179034
0.00151497
-0.00161673
0.00149666
-0.00128059
0.00147586
-0.00102169
0.00145558
-0.000618804
0.00144356
-0.000311708
0.00143797
3.47685e-05
0.00144717
0.000310542
0.00146219
0.000361321
0.00148957
0.00049924
0.000111855
0.001111
0.00103499
0.00114597
0.00137085
0.00119375
0.00147189
0.00125001
0.00129956
0.00130932
0.000887504
0.00136663
0.000306068
0.00141787
-0.000335381
0.00146043
-0.000946131
0.00149341
-0.00143397
0.00151658
-0.00178168
0.00153093
-0.00192884
0.00153638
-0.0019559
0.00153379
-0.00178775
0.00152304
-0.00160598
0.00150597
-0.00126352
0.00148626
-0.00100198
0.00146684
-0.000599384
0.00145532
-0.000300195
0.00145009
3.99981e-05
0.00145944
0.000301198
0.00147463
0.000346128
0.00150206
0.00047181
8.30834e-05
0.00112709
0.00101667
0.0011612
0.00133674
0.00120789
0.00142521
0.0012628
0.00124465
0.00132056
0.00082974
0.00137623
0.000250397
0.00142593
-0.00038508
0.00146718
-0.000987384
0.00149922
-0.001466
0.00152186
-0.00180432
0.00153614
-0.00194312
0.00154198
-0.00196174
0.00154022
-0.00178599
0.00153063
-0.00159639
0.00151485
-0.00124774
0.00149631
-0.000983434
0.00147784
-0.00058091
0.00146692
-0.000289282
0.00146213
4.47946e-05
0.00147166
0.000291666
0.00148705
0.00033074
0.00151453
0.000444323
5.42742e-05
0.00114278
0.000998829
0.00117604
0.00130348
0.00122158
0.00137966
0.00127507
0.00119117
0.00133121
0.000773598
0.0013852
0.000196407
0.00143335
-0.000433235
0.00147333
-0.00102736
0.00150445
-0.00149712
0.00152659
-0.00182646
0.00154081
-0.00195734
0.00154706
-0.00196799
0.00154615
-0.00178508
0.00153774
-0.00158798
0.0015233
-0.0012333
0.00150599
-0.000966119
0.00148856
-0.000563487
0.00147831
-0.000279032
0.00147405
4.9058e-05
0.00148379
0.000281932
0.00149943
0.000315096
0.00152695
0.000416799
2.5421e-05
0.00406542
0.000977457
0.00415274
0.00121616
0.00429532
0.00123708
0.00447481
0.00101168
0.00466792
0.000580491
0.00485247
1.18577e-05
0.00501218
-0.000592952
0.00513672
-0.0011519
0.00522341
-0.00158381
0.0052732
-0.00187626
0.00529164
-0.00197577
0.00528123
-0.00195759
0.00524741
-0.00175126
0.00519004
-0.00153061
0.00511561
-0.00115886
0.005032
-0.000882512
0.00495049
-0.000481983
0.00489051
-0.000219052
0.00485339
8.61844e-05
0.00485844
0.000276875
0.00488604
0.000287505
0.00494725
0.000355584
-3.96436e-05
0.00443397
0.000958824
0.00451463
0.0011355
0.00464718
0.00110453
0.00481341
0.000845446
0.00499066
0.000403239
0.00515853
-0.000156008
0.00530091
-0.000735335
0.00540954
-0.00126053
0.00548247
-0.00165673
0.0055214
-0.00191519
0.00553226
-0.00198663
0.00551817
-0.0019435
0.00548468
-0.00171777
0.00543117
-0.0014771
0.00536297
-0.00109066
0.0052854
-0.00080494
0.00520916
-0.000405748
0.00515088
-0.000160766
0.00511467
0.000122391
0.00511674
0.00027481
0.00514192
0.000262319
0.00519788
0.000299624
-9.9364e-05
0.00481348
0.000940563
0.00488805
0.00106093
0.00500978
0.000982802
0.00516128
0.000693944
0.00532113
0.000243389
0.00547021
-0.000305084
0.00559406
-0.000859186
0.00568555
-0.00135201
0.00574371
-0.0017149
0.0057709
-0.00194237
0.00577346
-0.0019892
0.005755
-0.00192503
0.00572131
-0.00168409
0.00567163
-0.00142742
0.00561017
-0.00102921
0.00554016
-0.00073492
0.00547086
-0.000336456
0.00541652
-0.000106426
0.00538243
0.000156484
0.00538281
0.000274431
0.00540532
0.00023981
0.00545596
0.000248987
-0.000152941
0.00519783
0.000920077
0.00526748
0.000991278
0.00537832
0.000871958
0.00551424
0.000558026
0.00565553
0.0001021
0.00578466
-0.000434211
0.00588895
-0.000963481
0.00596247
-0.00142553
0.00600526
-0.00175769
0.00602024
-0.00195735
0.00601409
-0.00198305
0.00599081
-0.00190175
0.00595644
-0.00164973
0.00591029
-0.00138126
0.00585581
-0.000974729
0.00579424
-0.000673352
0.00573342
-0.000275629
0.00568471
-5.77187e-05
0.00565426
0.000186931
0.00565388
0.000274809
0.00567408
0.000219613
0.0057192
0.000203867
-0.000199925
0.00558064
0.000894841
0.00564694
0.000924969
0.00574747
0.000771429
0.00586767
0.00043783
0.00598994
-2.0166e-05
0.00609857
-0.000542843
0.00618282
-0.00104773
0.00623806
-0.00148077
0.00626529
-0.00178492
0.00626801
-0.00196007
0.00625306
-0.00196811
0.00622475
-0.00187343
0.00618932
-0.0016143
0.00614629
-0.00133823
0.00609867
-0.000927105
0.00604598
-0.00062066
0.00599467
-0.000224322
0.00595295
-1.60005e-05
0.00592751
0.000212375
0.00592735
0.000274971
0.00594571
0.000201248
0.00598537
0.000164206
-0.00024011
0.00595583
0.00086272
0.00602053
0.000860275
0.00611183
0.000680131
0.00621685
0.000332806
0.0063203
-0.000123613
0.00640856
-0.000631109
0.00647291
-0.00111208
0.00651011
-0.00151797
0.0065221
-0.00179691
0.00651288
-0.00195085
0.00648938
-0.00194461
0.00645608
-0.00184013
0.00641934
-0.00157755
0.00637897
-0.00129786
0.00633782
-0.00088596
0.006294
-0.000576834
0.00625277
-0.000183096
0.006219
1.77643e-05
0.00619966
0.000231722
0.00620066
0.000273967
0.00621775
0.000184162
0.00625223
0.000129718
-0.000273538
0.0063181
0.000822211
0.00638281
0.000795565
0.00646628
0.000596662
0.00655724
0.000241846
0.00664274
-0.000209113
0.00671144
-0.00069981
0.00675667
-0.00115732
0.00677664
-0.00153794
0.00677417
-0.00179444
0.00675372
-0.0019304
0.0067222
-0.00191309
0.00668417
-0.00180211
0.00664601
-0.00153939
0.00660785
-0.0012597
0.00657262
-0.000850733
0.00653728
-0.000541491
0.00650621
-0.000152026
0.00648095
4.3028e-05
0.00646846
0.000244214
0.00647148
0.000270943
0.00648787
0.000167777
0.00651766
9.99263e-05
-0.000300477
0.00666321
0.000772587
0.00672926
0.000729521
0.00680641
0.000519509
0.00688483
0.000163428
0.00695384
-0.000278122
0.00700441
-0.000750381
0.00703193
-0.00118484
0.00703601
-0.00154202
0.00702028
-0.00177871
0.00698962
-0.00189974
0.00695085
-0.00187432
0.00690856
-0.00175982
0.00686903
-0.00149986
0.00683268
-0.00122335
0.00680271
-0.00082076
0.00677518
-0.000513965
0.00675391
-0.000130754
0.00673727
5.96714e-05
0.00673203
0.000249451
0.00673777
0.000265201
0.00675401
0.000151537
0.00677973
7.42102e-05
-0.000321394
0.00698835
0.000713937
0.00705658
0.000661288
0.00712886
0.000447227
0.00719651
9.57804e-05
0.00725094
-0.000332549
0.00728533
-0.000784779
0.00729704
-0.00119655
0.00728701
-0.00153199
0.00725959
-0.00175129
0.00722
-0.00186015
0.00717495
-0.00182927
0.00712898
-0.00171385
0.00708826
-0.00145915
0.0070534
-0.00118849
0.00702798
-0.000795332
0.00700741
-0.000493393
0.00699522
-0.000118565
0.00698692
6.79664e-05
0.00698897
0.000247407
0.00699792
0.000256245
0.0070145
0.00013496
0.00703684
5.18659e-05
-0.00033691
0.00729217
0.000647089
0.00736293
0.000590533
0.00743157
0.000378581
0.00749031
3.70486e-05
0.00753233
-0.000374576
0.00755288
-0.000805327
0.00755105
-0.00119471
0.007529
-0.00150994
0.00749169
-0.00171398
0.00744462
-0.00181307
0.00739437
-0.00177903
0.0073454
-0.00166488
0.00730376
-0.00141751
0.00727014
-0.00115488
0.00724856
-0.000773749
0.00723397
-0.000478806
0.00722988
-0.000114474
0.00722933
6.85147e-05
0.00723834
0.000238398
0.00725078
0.000243805
0.00726807
0.000117669
0.00728777
3.21653e-05
-0.000347755
0.00757483
0.000573457
0.00764793
0.000517424
0.00771388
0.000312637
0.00776548
-1.45503e-05
0.00779739
-0.000406484
0.00780659
-0.000814529
0.00779369
-0.00118181
0.00776187
-0.00147813
0.0077166
-0.00166871
0.00766358
-0.00176005
0.00760927
-0.00172471
0.00755802
-0.00161364
0.00751577
-0.00137525
0.00748321
-0.00112232
0.00746481
-0.000755344
0.0074552
-0.000469196
0.00745804
-0.000117322
0.00746439
6.21701e-05
0.00747975
0.000223033
0.00749572
0.000227841
0.00751397
9.94181e-05
0.00753172
1.44101e-05
-0.000354712
0.00783772
0.000494833
0.0079126
0.000442545
0.00797646
0.000248774
0.00802249
-6.05813e-05
0.0080465
-0.000430492
0.00804685
-0.000814885
0.00802537
-0.00116033
0.00798607
-0.00143882
0.00793476
-0.0016174
0.0078773
-0.00170259
0.00782005
-0.00166746
0.00776724
-0.00156083
0.0077247
-0.00133271
0.00769307
-0.00109069
0.00767724
-0.000739507
0.00767162
-0.000463582
0.00768017
-0.000125867
0.00769238