/*--------------------------------*- C++ -*----------------------------------*\
  =========                 |
  \\      /  F ield         | OpenFOAM: The Open Source CFD Toolbox
   \\    /   O peration     | Website:  https://openfoam.org
    \\  /    A nd           | Version:  7
     \\/     M anipulation  |
\*---------------------------------------------------------------------------*/
FoamFile
{
    version     2.0;
    format      ascii;
    class       volScalarField;
    location    "80";
    object      p;
}
// * * * * * * * * * * * * * * * * * * * * * * * * * * * * * * * * * * * * * //

dimensions      [0 2 -2 0 0 0 0];

internalField   nonuniform List<scalar> 
4575
(
0.21656
0.226732
0.236687
0.251592
0.246416
0.261659
0.255908
0.271476
0.265153
0.281029
0.274141
0.298724
0.290307
0.282862
0.308244
0.299298
0.291305
0.317448
0.30799
0.29946
0.326324
0.316371
0.307317
0.344894
0.334858
0.324428
0.314865
0.353602
0.34304
0.332153
0.322096
0.361922
0.350857
0.339532
0.328999
0.369843
0.358299
0.346557
0.335567
0.377353
0.365354
0.353217
0.34179
0.396867
0.38444
0.372013
0.359502
0.34766
0.403956
0.391096
0.378265
0.365404
0.353169
0.410574
0.397309
0.384103
0.370915
0.358311
0.416711
0.40307
0.389516
0.376026
0.363078
0.422359
0.408372
0.394498
0.380729
0.367465
0.427508
0.413207
0.399042
0.385019
0.371465
0.432151
0.417567
0.40314
0.388889
0.375073
0.436281
0.421446
0.406787
0.392334
0.378285
0.439892
0.424839
0.409977
0.395349
0.381097
0.44298
0.42774
0.412707
0.397929
0.383504
0.445539
0.430146
0.414972
0.400071
0.385504
0.463239
0.447566
0.432054
0.416769
0.401772
0.387094
0.464822
0.449058
0.43346
0.418096
0.403031
0.388274
0.465833
0.450014
0.434364
0.418952
0.403845
0.389041
0.466271
0.450432
0.434763
0.419335
0.404213
0.389394
0.466136
0.450312
0.434659
0.419245
0.404136
0.389333
0.465427
0.449655
0.434051
0.418682
0.403614
0.388858
0.448463
0.432942
0.41765
0.402647
0.38797
0.446738
0.431333
0.416148
0.40124
0.386673
0.444483
0.429227
0.41418
0.399393
0.384968
0.441703
0.426629
0.41175
0.39711
0.382858
0.438401
0.423542
0.408862
0.394396
0.380346
0.434585
0.419972
0.405521
0.391254
0.377435
0.430261
0.415926
0.401732
0.38769
0.374131
0.425435
0.411409
0.397502
0.38371
0.370438
0.420117
0.40643
0.392838
0.37932
0.366363
0.414314
0.400997
0.387747
0.374528
0.36191
0.408038
0.395118
0.382237
0.369341
0.357086
0.388802
0.376318
0.363767
0.351899
0.382061
0.369998
0.357815
0.346356
0.374905
0.363289
0.351494
0.340466
0.367345
0.356199
0.344814
0.334235
0.359393
0.34874
0.337786
0.327674
0.340924
0.330419
0.320791
0.332763
0.322726
0.313597
0.324268
0.314716
0.3061
0.315452
0.306403
0.29831
0.297797
0.290238
0.288911
0.281895
0.279757
0.273291
0.264435
0.255339
0.246012
0.111706
0.112752
0.114746
0.117566
0.121088
0.125261
0.129961
0.135145
0.14066
0.14644
0.152264
0.15802
0.163375
0.168159
0.171868
0.174294
0.174674
0.172869
0.16768
0.159366
0.145745
0.110678
0.111673
0.113562
0.116228
0.11954
0.123438
0.127793
0.132548
0.137537
0.142678
0.147737
0.152588
0.156886
0.160453
0.162789
0.163697
0.162453
0.158955
0.152142
0.142271
0.127725
0.109574
0.110516
0.112293
0.114794
0.117881
0.12149
0.125482
0.129788
0.134234
0.138727
0.14302
0.14698
0.150258
0.152682
0.153764
0.153341
0.150745
0.145934
0.13802
0.127315
0.112773
0.108392
0.109276
0.110934
0.113261
0.116114
0.11942
0.123035
0.126882
0.130776
0.134613
0.138143
0.141225
0.143517
0.14485
0.144771
0.143135
0.139368
0.133448
0.124722
0.11345
0.0990663
0.107131
0.107954
0.109489
0.111634
0.114244
0.117239
0.120471
0.123851
0.127192
0.130378
0.133161
0.135394
0.136751
0.137067
0.135939
0.133228
0.128481
0.121667
0.112361
0.100738
0.086538
0.105791
0.106549
0.107957
0.109914
0.112276
0.114954
0.117797
0.120709
0.1235
0.126047
0.128108
0.129532
0.130018
0.129405
0.127349
0.123719
0.118178
0.110689
0.101005
0.0892449
0.0753408
0.104371
0.105063
0.106341
0.108105
0.110213
0.112569
0.115023
0.117467
0.119718
0.121642
0.123013
0.123674
0.12336
0.121911
0.11905
0.114653
0.108488
0.100519
0.0906337
0.0789245
0.0654516
0.102872
0.103496
0.10464
0.106209
0.108059
0.110092
0.112157
0.11414
0.115863
0.117188
0.117904
0.117856
0.116815
0.114627
0.111078
0.106057
0.0994209
0.0911412
0.0812026
0.0696908
0.0567457
0.101295
0.101848
0.102857
0.104227
0.10582
0.107529
0.109209
0.110741
0.111953
0.112707
0.11281
0.112112
0.110417
0.107587
0.103463
0.0979513
0.0909784
0.0825311
0.0726618
0.0614543
0.0490936
0.0996404
0.100122
0.100995
0.102166
0.1035
0.104889
0.106192
0.107285
0.108008
0.108223
0.107758
0.10647
0.104199
0.100822
0.0962287
0.090346
0.0831555
0.07466
0.0649576
0.0541303
0.0423864
0.0979101
0.0983201
0.0990562
0.100028
0.101106
0.10218
0.103115
0.103786
0.104046
0.103758
0.102774
0.100958
0.0981866
0.0943525
0.089389
0.0832433
0.0759384
0.0674928
0.0580332
0.0476393
0.036529
0.0961062
0.0964442
0.0970442
0.0978182
0.098645
0.0994122
0.0999922
0.100261
0.100086
0.0993335
0.0978784
0.0955987
0.0924005
0.0881957
0.0829523
0.0766385
0.0693072
0.0609905
0.0518316
0.0419065
0.0314339
0.0942314
0.0944977
0.0949632
0.0955432
0.0961241
0.0965942
0.0968344
0.0967243
0.096143
0.0949681
0.0930932
0.0904123
0.0868578
0.0823619
0.0769205
0.0705209
0.0632373
0.0551118
0.0462963
0.0368613
0.0270199
0.0922886
0.0924843
0.0928177
0.0932083
0.0935509
0.0937361
0.093654
0.0931894
0.0922353
0.0906797
0.088436
0.0854144
0.0815707
0.0768568
0.0712903
0.0648755
0.0577005
0.049815
0.0413725
0.0324373
0.0232126
0.0902817
0.0904081
0.0906127
0.0908201
0.0909335
0.090848
0.090463
0.0896707
0.0883777
0.0864843
0.0839219
0.0806178
0.0765477
0.0716817
0.0660544
0.0596839
0.0526671
0.0450579
0.0370074
0.0285728
0.0199448
0.0882145
0.0882738
0.0883539
0.0883853
0.0882803
0.0879398
0.0872732
0.0861813
0.0845842
0.0823957
0.0795636
0.0760319
0.0717933
0.0668341
0.0612018
0.0549252
0.0481058
0.0407993
0.0331512
0.0252112
0.0171562
0.0860918
0.0860865
0.0860471
0.085911
0.0855998
0.0850217
0.0840959
0.0827335
0.0808677
0.0784259
0.0753711
0.0716631
0.0673088
0.0623085
0.0567189
0.050577
0.0439852
0.0369993
0.0297568
0.0223004
0.0147923
0.0839185
0.0838517
0.0836986
0.0834047
0.0829007
0.0821033
0.080942
0.0793388
0.0772393
0.0745849
0.0713521
0.0675151
0.0630927
0.0580966
0.05259
0.0466154
0.0402738
0.0336194
0.0267806
0.019793
0.0128046
0.0817002
0.0815752
0.0813152
0.0808738
0.0801915
0.0791943
0.0778217
0.0760075
0.0737088
0.0708807
0.0675118
0.0635891
0.0591408
0.0541882
0.0487981
0.0430165
0.036941
0.0306233
0.0241819
0.0176458
0.0111491
0.0794427
0.0792634
0.0789036
0.078326
0.0774809
0.0763038
0.0747447
0.0727488
0.0702846
0.0673198
0.0638535
0.0598842
0.0554473
0.0505714
0.045325
0.0397559
0.033957
0.0279766
0.0219232
0.0158196
0.0097867
0.0771521
0.0769226
0.076471
0.0757692
0.0747771
0.0734406
0.0717197
0.069571
0.0669735
0.0639065
0.0603785
0.0563974
0.0520043
0.0472329
0.0421521
0.0368098
0.0312933
0.0256471
0.0199698
0.0142787
0.0086822
0.0748351
0.0745598
0.0740246
0.0732109
0.0720883
0.070613
0.0687547
0.0664811
0.0637809
0.060644
0.0570864
0.0531244
0.0488027
0.0441589
0.0392605
0.0341547
0.0289225
0.0236047
0.0182898
0.0129907
0.00780397
0.0724982
0.0721817
0.0715716
0.0706589
0.0694223
0.0678286
0.0658569
0.0634851
0.0607109
0.0575335
0.0539755
0.0500594
0.0458326
0.0413348
0.0366314
0.0317679
0.0268191
0.0218213
0.0168542
0.0119263
0.00712365
0.0701485
0.0697955
0.0691195
0.0681206
0.0667867
0.0650946
0.0630325
0.0605879
0.0577664
0.0545753
0.0510425
0.0471956
0.043083
0.0387458
0.0342463
0.0296278
0.0249586
0.0202711
0.0156363
0.011059
0.00661573
0.0677929
0.0674083
0.0666754
0.0656032
0.0641883
0.0624175
0.0602869
0.0577933
0.0549491
0.0517684
0.0482833
0.0445251
0.0405426
0.036377
0.0320871
0.0277135
0.0233183
0.01893
0.0146115
0.0103647
0.00625729
0.0654387
0.0650273
0.0642465
0.0631137
0.0616339
0.059803
0.0576249
0.0551043
0.0522596
0.0491106
0.0456928
0.0420397
0.0381998
0.0342137
0.0301363
0.0260054
0.021877
0.0177758
0.0137576
0.00982168
0.00602774
0.0630928
0.0626593
0.0618397
0.0606587
0.0591296
0.0572564
0.0550502
0.0525228
0.0496976
0.0465992
0.0432651
0.0397306
0.0360429
0.0322414
0.0283772
0.0244849
0.0206148
0.0167883
0.0130543
0.00941024
0.00590856
0.0607623
0.0603115
0.0594616
0.0582446
0.0566808
0.0547821
0.0525659
0.05005
0.0472621
0.0442305
0.0409939
0.0375886
0.0340601
0.0304462
0.0267938
0.0231346
0.0195134
0.0159487
0.0124832
0.00911264
0.00588315
0.0584541
0.0579904
0.0571188
0.0558772
0.0542927
0.052384
0.0501742
0.0476862
0.0449512
0.0420002
0.0388725
0.0356046
0.03224
0.0288144
0.0253709
0.0219382
0.018556
0.0152399
0.0120274
0.00891286
0.00593663
0.0561749
0.0557027
0.0548173
0.053562
0.0519697
0.0500653
0.0478768
0.0454313
0.0427625
0.0399036
0.0368939
0.0337693
0.0305712
0.0273331
0.0240943
0.0208804
0.0177267
0.0146463
0.0116717
0.00879649
0.00605568
0.0539311
0.0534545
0.0525629
0.051304
0.0497158
0.0478287
0.0456747
0.0432843
0.0406932
0.0379357
0.0350508
0.0320736
0.0290429
0.02599
0.0229504
0.0199473
0.0170114
0.0141538
0.0114025
0.00875059
0.00622843
0.0517289
0.0512517
0.0503608
0.0491076
0.0475345
0.0456763
0.0435683
0.0412439
0.0387399
0.0360913
0.0333362
0.0305085
0.0276446
0.0247733
0.0219269
0.0191257
0.0163968
0.0137493
0.0112074
0.00876359
0.00644432
0.049574
0.0490997
0.0482159
0.046977
0.0454287
0.0436096
0.0415576
0.0393082
0.0368989
0.0343648
0.0317428
0.0290653
0.0263663
0.0236722
0.021012
0.0184037
0.015871
0.0134212
0.0110751
0.00882516
0.00669398
0.0474719
0.0470037
0.0461328
0.0449156
0.0434007
0.0416295
0.039642
0.0374751
0.0351664
0.0327507
0.0302635
0.0277357
0.0251985
0.0226763
0.0201949
0.0177703
0.015423
0.013159
0.0109959
0.00892612
0.00696916
0.0454275
0.0449682
0.0441153
0.0429266
0.0414525
0.0397367
0.0378207
0.0357421
0.0335384
0.0312436
0.0288916
0.0265115
0.0241323
0.021776
0.0194658
0.0172156
0.0150431
0.0129531
0.0109607
0.00905834
0.00726261
0.0434453
0.0429974
0.042167
0.0410124
0.0395854
0.0379314
0.0360924
0.0341066
0.0320107
0.0298378
0.0276202
0.0253852
0.0231592
0.0209625
0.0188154
0.0167302
0.0147222
0.0127952
0.0109618
0.00921469
0.00756803
0.0415294
0.041095
0.0402909
0.0391752
0.0378006
0.0362132
0.0344555
0.0325655
0.030579
0.0285281
0.0264431
0.0243495
0.0222715
0.0202275
0.0182354
0.0163061
0.0144525
0.0126776
0.0109921
0.00938889
0.00787995
0.0396834
0.0392643
0.0384895
0.0374168
0.0360986
0.0345817
0.0329083
0.0311159
0.0292394
0.0273093
0.0253541
0.0233976
0.0214619
0.0195635
0.0177183
0.0159356
0.0142267
0.0125937
0.0110456
0.00957551
0.00819366
0.0379102
0.0375079
0.036765
0.0357382
0.0344797
0.0330359
0.0314486
0.0297547
0.0279875
0.0261761
0.0243474
0.0225232
0.0207237
0.0189636
0.0172571
0.0156122
0.0140385
0.0125376
0.0111168
0.00976987
0.00850519
0.0362126
0.0358281
0.0351189
0.0341404
0.0329437
0.0315748
0.0300745
0.0284787
0.0268193
0.025124
0.0234176
0.0217204
0.0200505
0.0184215
0.0168455
0.0153297
0.0138822
0.012504
0.0112012
0.00996793
0.00881116
0.0345925
0.0342267
0.0335526
0.0326238
0.0314903
0.0301969
0.0287836
0.0272847
0.0257309
0.0241481
0.0225594
0.0209836
0.0194369
0.0179315
0.0164782
0.015083
0.0137529
0.0124885
0.0112948
0.0101663
0.00910882
0.0330517
0.032705
0.0320667
0.0311885
0.0301187
0.0289008
0.0275735
0.0261697
0.0247185
0.0232442
0.0217683
0.0203078
0.0188776
0.0174885
0.0161499
0.0148672
0.0136462
0.0124871
0.0113942
0.0103622
0.00939589
0.0315913
0.031264
0.0306618
0.0298344
0.0288281
0.0276849
0.0264418
0.0251306
0.0237784
0.0224082
0.0210396
0.0196884
0.0183679
0.0170878
0.0158564
0.0146783
0.0135583
0.0124966
0.0114965
0.0105532
0.00967057
0.0302122
0.0299041
0.0293381
0.0285609
0.0276173
0.0265472
0.0253862
0.0241643
0.0229071
0.0216361
0.0203693
0.0191211
0.0179036
0.0167254
0.0155937
0.0145126
0.0134861
0.0125141
0.0115993
0.0107374
0.00993149
0.0289147
0.0286258
0.0280952
0.0273675
0.026485
0.0254859
0.0244041
0.0232679
0.0221014
0.0209244
0.0197536
0.0186022
0.0174809
0.0163975
0.0153584
0.014367
0.0134266
0.0125372
0.0117008
0.0109134
0.0101776
0.027699
0.0274287
0.0269327
0.0262531
0.0254298
0.0244992
0.0234933
0.0224387
0.0213581
0.0202698
0.0191891
0.0181281
0.0170964
0.016101
0.0151474
0.0142387
0.0133776
0.0125639
0.0117992
0.0110801
0.0104082
0.0265649
0.0263126
0.02585
0.0252167
0.0244503
0.0235851
0.0226513
0.0216741
0.0206743
0.0196692
0.0186727
0.0176957
0.0167471
0.015833
0.0149583
0.0141255
0.013337
0.0125927
0.0118935
0.0112364
0.0106228
0.0255119
0.025277
0.0248464
0.0242572
0.0235449
0.0227418
0.0218761
0.0209714
0.0200474
0.0191198
0.0182015
0.0173024
0.0164304
0.015591
0.0147886
0.0140254
0.0133033
0.0126221
0.0119825
0.0113819
0.0108212
0.0245396
0.0243211
0.0239208
0.0233734
0.0227121
0.0219673
0.0211654
0.0203286
0.019475
0.0186192
0.017773
0.0169455
0.0161439
0.0153729
0.0146366
0.0139368
0.0132751
0.0126512
0.0120657
0.0115163
0.0110033
0.0236472
0.0234441
0.0230723
0.022564
0.0219505
0.02126
0.0205174
0.0197433
0.0189547
0.018165
0.017385
0.0166231
0.0158856
0.015177
0.0145007
0.0138583
0.0132513
0.0126792
0.0121426
0.0116392
0.0111693
0.0228341
0.0226453
0.0222999
0.021828
0.0212586
0.0206183
0.0199303
0.0192138
0.0184847
0.0177553
0.0170356
0.0163332
0.0156538
0.0150016
0.0143794
0.0137889
0.013231
0.0127056
0.0122127
0.0117506
0.0113193
0.0220995
0.0219239
0.0216027
0.0211641
0.0206352
0.0200408
0.0194025
0.0187385
0.0180632
0.0173884
0.0167231
0.0160742
0.0154472
0.0148455
0.0142718
0.0137276
0.0132136
0.0127298
0.0122759
0.0118506
0.0114537
0.021443
0.0212794
0.0209802
0.0205717
0.0200793
0.0195263
0.0189328
0.0183158
0.0176889
0.0170629
0.0164461
0.0158451
0.0152645
0.0147077
0.0141771
0.0136738
0.0131987
0.0127516
0.0123322
0.0119393
0.0115726
0.0208642
0.0207112
0.0204316
0.0200501
0.0195903
0.019074
0.0185203
0.0179449
0.0173607
0.0167777
0.0162037
0.0156446
0.0151048
0.0145874
0.0140945
0.0136271
0.0131859
0.0127708
0.0123815
0.0120169
0.0116766
0.0203631
0.0202195
0.019957
0.0195989
0.0191675
0.0186833
0.0181642
0.017625
0.0170779
0.0165321
0.0159951
0.0154722
0.0149676
0.0144841
0.0140235
0.013587
0.013175
0.0127874
0.0124239
0.0120835
0.0117658
0.0199401
0.0198045
0.0195566
0.0192185
0.0188112
0.0183542
0.0178644
0.0173559
0.01684
0.0163257
0.0158199
0.0153275
0.0148525
0.0143974
0.0139641
0.0135534
0.0131658
0.0128013
0.0124594
0.0121393
0.0118404
0.0195963
0.0194672
0.0192313
0.0189095
0.018522
0.0180871
0.0176212
0.0171377
0.0166473
0.0161585
0.0156779
0.0152104
0.0147593
0.0143273
0.013916
0.0135262
0.0131584
0.0128124
0.012488
0.0121843
0.0119006
0.0193333
0.0192092
0.0189825
0.0186733
0.0183009
0.0178832
0.0174356
0.0169711
0.0165002
0.016031
0.0155697
0.015121
0.0146883
0.0142739
0.0138793
0.0135055
0.0131527
0.0128209
0.0125097
0.0122184
0.0119464
0.0191538
0.0190331
0.0188127
0.0185122
0.0181502
0.0177441
0.0173091
0.0168576
0.0164
0.0159441
0.015496
0.0150602
0.0146399
0.0142375
0.0138543
0.0134913
0.0131488
0.0128266
0.0125244
0.0122416
0.0119775
0.0190615
0.0189425
0.0187254
0.0184293
0.0180728
0.0176728
0.0172441
0.0167994
0.0163486
0.0158995
0.0154582
0.015029
0.0146151
0.0142188
0.0138415
0.0134841
0.0131468
0.0128295
0.012532
0.0122535
0.0119934
0.119299
0.120485
0.122802
0.126101
0.1303
0.135406
0.141327
0.148157
0.155789
0.16438
0.173797
0.184254
0.195578
0.20804
0.221424
0.236052
0.251633
0.268564
0.286426
0.305746
0.325847
0.347529
0.369537
0.11925
0.120434
0.122749
0.126045
0.130241
0.135341
0.141257
0.148079
0.155704
0.164285
0.17369
0.184132
0.195439
0.207882
0.22124
0.23584
0.251385
0.268275
0.286089
0.305347
0.325373
0.346971
0.368874
0.119194
0.120376
0.122689
0.125981
0.130172
0.135267
0.141176
0.14799
0.155604
0.164172
0.173561
0.183985
0.195268
0.207683
0.221006
0.235563
0.251055
0.267881
0.285615
0.304776
0.324683
0.346143
0.367866
0.11913
0.12031
0.12262
0.125908
0.130095
0.135184
0.141084
0.147888
0.155489
0.164042
0.173412
0.183812
0.195065
0.207444
0.22072
0.235221
0.250642
0.267382
0.285007
0.304037
0.323777
0.345044
0.366516
0.11906
0.120237
0.122544
0.125828
0.13001
0.135091
0.140982
0.147774
0.15536
0.163895
0.173241
0.183612
0.194829
0.207164
0.220382
0.234814
0.250145
0.266777
0.284263
0.303128
0.322655
0.343675
0.364824
0.118982
0.120157
0.122462
0.125739
0.129915
0.134988
0.140869
0.147648
0.155217
0.16373
0.17305
0.183388
0.194562
0.206843
0.219993
0.234342
0.249565
0.266067
0.283385
0.30205
0.321318
0.342037
0.362791
0.118897
0.12007
0.122371
0.125643
0.129812
0.134876
0.140745
0.147509
0.15506
0.163549
0.172838
0.183137
0.194262
0.206483
0.219553
0.233805
0.248902
0.265251
0.282373
0.300802
0.319766
0.340132
0.36042
0.118805
0.119975
0.122272
0.125538
0.129701
0.134754
0.140611
0.147358
0.154888
0.16335
0.172605
0.182861
0.19393
0.206082
0.219062
0.233203
0.248156
0.264332
0.281226
0.299387
0.318
0.33796
0.357714
0.118705
0.119873
0.122165
0.125426
0.12958
0.134623
0.140466
0.147195
0.154703
0.163135
0.172352
0.18256
0.193566
0.205641
0.218519
0.232537
0.247328
0.263307
0.279947
0.297804
0.316023
0.335525
0.354674
0.118599
0.119764
0.122052
0.125305
0.129452
0.134483
0.140311
0.14702
0.154503
0.162903
0.172078
0.182233
0.193171
0.20516
0.217926
0.231807
0.246417
0.26218
0.278535
0.296055
0.313834
0.332828
0.351305
0.118486
0.119647
0.12193
0.125177
0.129315
0.134333
0.140145
0.146834
0.154289
0.162654
0.171784
0.181881
0.192744
0.204639
0.217283
0.231013
0.245425
0.260949
0.276992
0.294141
0.311437
0.329871
0.34761
0.118365
0.119524
0.121802
0.12504
0.129169
0.134174
0.13997
0.146635
0.154062
0.162388
0.17147
0.181504
0.192286
0.204079
0.216589
0.230155
0.244352
0.259615
0.275318
0.292063
0.308832
0.326657
0.343592
0.118238
0.119393
0.121666
0.124897
0.129015
0.134006
0.139783
0.146424
0.15382
0.162106
0.171136
0.181102
0.191797
0.20348
0.215846
0.229234
0.243198
0.25818
0.273514
0.289822
0.306022
0.32319
0.339257
0.118103
0.119255
0.121523
0.124746
0.128853
0.133829
0.139587
0.146202
0.153566
0.161807
0.170781
0.180675
0.191277
0.202841
0.215052
0.22825
0.241963
0.256643
0.271581
0.287421
0.303009
0.319473
0.334609
0.117962
0.119111
0.121373
0.124589
0.128683
0.133643
0.139381
0.145969
0.153297
0.161492
0.170407
0.180224
0.190726
0.202164
0.21421
0.227204
0.240649
0.255007
0.269521
0.28486
0.299796
0.315508
0.329654
0.117814
0.118959
0.121215
0.124427
0.128504
0.133448
0.139165
0.145724
0.153015
0.161161
0.170014
0.179748
0.190145
0.201448
0.213319
0.226096
0.239256
0.25327
0.267334
0.282141
0.296384
0.311299
0.324396
0.117659
0.118801
0.121051
0.124256
0.128317
0.133245
0.138939
0.145467
0.15272
0.160814
0.169601
0.179248
0.189533
0.200694
0.212379
0.224926
0.237784
0.251435
0.265021
0.279267
0.292776
0.306851
0.318841
0.117497
0.118635
0.12088
0.124075
0.128123
0.133032
0.138703
0.1452
0.152412
0.160452
0.169168
0.178724
0.188892
0.199902
0.211391
0.223695
0.236235
0.249502
0.262585
0.276238
0.288975
0.302167
0.312997
0.117329
0.118463
0.120701
0.123887
0.127921
0.132811
0.138458
0.144921
0.152091
0.160073
0.168717
0.178177
0.188221
0.199072
0.210356
0.222404
0.234609
0.247472
0.260025
0.273057
0.284984
0.297252
0.306868
0.117154
0.118285
0.120516
0.123691
0.127711
0.132582
0.138203
0.144632
0.151757
0.15968
0.168247
0.177606
0.18752
0.198205
0.209273
0.221053
0.232906
0.245346
0.257344
0.269727
0.280805
0.29211
0.300463
0.116972
0.118099
0.120323
0.123488
0.127493
0.132345
0.137939
0.144332
0.15141
0.159271
0.167758
0.177012
0.186791
0.197301
0.208144
0.219641
0.231128
0.243125
0.254543
0.266248
0.276443
0.286745
0.293787
0.116783
0.117907
0.120124
0.123278
0.127268
0.132099
0.137666
0.144021
0.151051
0.158847
0.167251
0.176394
0.186033
0.19636
0.206969
0.218171
0.229275
0.24081
0.251624
0.262624
0.271899
0.281164
0.286849
0.116589
0.117709
0.119918
0.12306
0.127036
0.131845
0.137383
0.1437
0.15068
0.158408
0.166726
0.175755
0.185246
0.195383
0.205747
0.216642
0.227349
0.238402
0.248587
0.258857
0.267177
0.275369
0.279655
0.116387
0.117504
0.119706
0.122836
0.126797
0.131583
0.137092
0.143369
0.150297
0.157955
0.166182
0.175092
0.184431
0.19437
0.204481
0.215055
0.225349
0.235902
0.245436
0.254948
0.26228
0.269368
0.272214
0.116179
0.117293
0.119487
0.122606
0.12655
0.131313
0.136792
0.143027
0.149902
0.157487
0.165622
0.174408
0.183589
0.193322
0.203169
0.213411
0.223278
0.233311
0.24217
0.250901
0.257212
0.263165
0.264533
0.115965
0.117076
0.119261
0.122369
0.126296
0.131036
0.136484
0.142676
0.149495
0.157005
0.165043
0.173702
0.182719
0.192238
0.201814
0.21171
0.221135
0.23063
0.238793
0.246717
0.251976
0.256765
0.256619
0.115745
0.116853
0.119028
0.122125
0.126035
0.130751
0.136166
0.142314
0.149076
0.15651
0.164448
0.172974
0.181822
0.19112
0.200414
0.209953
0.218922
0.22786
0.235305
0.2424
0.246575
0.250175
0.248482
0.115519
0.116623
0.118791
0.121874
0.125768
0.130458
0.135841
0.141944
0.148646
0.156
0.163836
0.172225
0.180898
0.189968
0.198972
0.208139
0.21664
0.225002
0.231709
0.23795
0.241013
0.2434
0.240128
0.115286
0.116388
0.118551
0.121618
0.125494
0.130158
0.135507
0.141564
0.148205
0.155477
0.163207
0.171455
0.179948
0.188781
0.197487
0.206271
0.214289
0.222056
0.228006
0.233372
0.235293
0.236446
0.231564
0.115047
0.116147
0.1183
0.121355
0.125213
0.129852
0.135166
0.141174
0.147754
0.154941
0.162562
0.170665
0.178971
0.187561
0.195959
0.204348
0.211871
0.219025
0.2242
0.228666
0.229418
0.22932
0.222799
0.114803
0.1159
0.118044
0.121087
0.124926
0.129538
0.134816
0.140776
0.147291
0.154392
0.1619
0.169854
0.177969
0.186309
0.19439
0.202372
0.209386
0.215909
0.22029
0.223835
0.223393
0.222026
0.213837
0.114552
0.115647
0.117782
0.120812
0.124632
0.129217
0.134459
0.140369
0.146818
0.15383
0.161223
0.169023
0.176942
0.185023
0.192779
0.200342
0.206836
0.212708
0.216281
0.218881
0.21722
0.214572
0.204684
0.114296
0.115388
0.117515
0.120532
0.124333
0.12889
0.134095
0.139953
0.146335
0.153256
0.160531
0.168173
0.17589
0.183706
0.191128
0.198259
0.20422
0.209424
0.212173
0.213805
0.210905
0.206963
0.195345
0.114034
0.115125
0.117243
0.120246
0.124027
0.128556
0.133723
0.139529
0.145842
0.15267
0.159823
0.167304
0.174813
0.182357
0.189436
0.196125
0.201541
0.206058
0.20797
0.208609
0.20445
0.199205
0.18582
0.113766
0.114855
0.116964
0.119954
0.123716
0.128216
0.133344
0.139097
0.145339
0.152072
0.1591
0.166415
0.173711
0.180976
0.187704
0.193939
0.198798
0.20261
0.203671
0.203292
0.19786
0.1913
0.113492
0.11458
0.116681
0.119657
0.123398
0.127869
0.132957
0.138655
0.144825
0.151459
0.158359
0.165504
0.172582
0.17956
0.185927
0.191697
0.195987
0.199077
0.199276
0.197855
0.19114
0.18325
0.113213
0.1143
0.116392
0.119355
0.123075
0.127516
0.132564
0.138205
0.144301
0.150835
0.157604
0.164574
0.171428
0.178112
0.184111
0.189406
0.193115
0.195468
0.194797
0.192309
0.184309
0.175074
0.112929
0.114016
0.116101
0.119051
0.122752
0.127165
0.132174
0.137762
0.143785
0.150221
0.15686
0.163657
0.170286
0.176674
0.182299
0.187109
0.190226
0.191825
0.190267
0.18668
0.177385
0.166787
0.112644
0.113728
0.115806
0.118746
0.122431
0.12682
0.131795
0.137333
0.143288
0.14963
0.156142
0.162766
0.169168
0.175254
0.180492
0.184798
0.187295
0.188099
0.185609
0.180853
0.17021
0.158173
0.112347
0.113428
0.115492
0.118411
0.122065
0.126411
0.13133
0.136793
0.142652
0.148863
0.15521
0.161616
0.167743
0.173473
0.178273
0.18202
0.183851
0.183815
0.180387
0.174426
0.162527
0.115567
0.116721
0.118913
0.12202
0.12592
0.130569
0.135851
0.141743
0.148098
0.154878
0.161873
0.169007
0.175957
0.1826
0.188431
0.193307
0.19642
0.197764
0.19593
0.191633
0.181751
0.115786
0.116943
0.119146
0.122269
0.126193
0.130876
0.136204
0.142159
0.148599
0.155493
0.162637
0.16997
0.177175
0.18415
0.190395
0.195802
0.199552
0.201706
0.20078
0.197652
0.188983
0.17887
0.115997
0.117154
0.11936
0.122488
0.126423
0.131123
0.136476
0.142469
0.148962
0.155935
0.163187
0.170672
0.178081
0.185332
0.191936
0.197817
0.202155
0.205068
0.205036
0.20304
0.19567
0.186976
0.116203
0.117361
0.119571
0.122708
0.126656
0.131376
0.136759
0.142794
0.149347
0.156403
0.163769
0.171408
0.179021
0.186545
0.193497
0.199833
0.204733
0.208366
0.209184
0.208251
0.202125
0.194775
0.116404
0.11756
0.119779
0.122925
0.126888
0.131631
0.137045
0.143126
0.14974
0.156882
0.164363
0.172158
0.179974
0.187769
0.195065
0.201848
0.207298
0.211634
0.213286
0.213384
0.208489
0.202463
0.116599
0.117757
0.119982
0.123136
0.127114
0.131879
0.137324
0.143448
0.150123
0.157348
0.164941
0.172887
0.180902
0.18896
0.196591
0.203811
0.209799
0.214824
0.2173
0.218406
0.21474
0.210021
0.116788
0.117947
0.120178
0.123342
0.127334
0.132119
0.137594
0.143761
0.150494
0.1578
0.165501
0.173594
0.181801
0.190115
0.198071
0.205717
0.212232
0.217928
0.221216
0.223306
0.220859
0.217431
0.116971
0.118131
0.120363
0.123542
0.127547
0.132353
0.137856
0.144065
0.150854
0.158239
0.166044
0.174281
0.182675
0.191237
0.199511
0.207572
0.2146
0.22095
0.225036
0.228084
0.226841
0.224689
0.215036
0.117147
0.118309
0.120548
0.123737
0.127754
0.132579
0.138111
0.14436
0.151203
0.158665
0.166573
0.174949
0.183524
0.192328
0.20091
0.209374
0.216903
0.223889
0.228758
0.232741
0.232685
0.231793
0.22381
0.117318
0.118481
0.120726
0.123921
0.127954
0.132799
0.138357
0.144646
0.151543
0.159079
0.167085
0.175596
0.184347
0.193387
0.202268
0.211123
0.219141
0.226745
0.232382
0.237275
0.238384
0.238737
0.232396
0.117483
0.118647
0.120898
0.124095
0.128149
0.133012
0.138596
0.144923
0.151871
0.159479
0.167582
0.176223
0.185145
0.194412
0.203585
0.212818
0.221313
0.229515
0.235905
0.241683
0.243936
0.245517
0.240791
0.117642
0.118807
0.121063
0.124271
0.12834
0.133217
0.138826
0.14519
0.152188
0.159866
0.168061
0.17683
0.185916
0.195404
0.204859
0.214459
0.223417
0.2322
0.239324
0.245965
0.249336
0.252127
0.248987
0.117794
0.118961
0.121222
0.124438
0.128522
0.133415
0.139048
0.145447
0.152493
0.16024
0.168524
0.177415
0.186662
0.196363
0.20609
0.216045
0.225453
0.234798
0.242639
0.250119
0.254581
0.25856
0.256978
0.11794
0.119108
0.121374
0.124598
0.128671
0.133606
0.139262
0.145695
0.152788
0.160599
0.16897
0.177979
0.18738
0.197287
0.207278
0.217576
0.227421
0.237308
0.245846
0.254141
0.259667
0.264811
0.264757
0.118079
0.119249
0.121521
0.12475
0.128842
0.133793
0.139467
0.145933
0.15307
0.160944
0.169399
0.178522
0.188071
0.198176
0.208423
0.219051
0.229318
0.23973
0.248944
0.25803
0.26459
0.270875
0.272316
0.118212
0.119384
0.12166
0.124897
0.129002
0.133978
0.139665
0.146161
0.153341
0.161275
0.16981
0.179043
0.188735
0.19903
0.209523
0.220469
0.231145
0.242062
0.251931
0.261783
0.269347
0.276745
0.279647
0.118338
0.119512
0.121793
0.125037
0.12915
0.134116
0.139853
0.146379
0.153599
0.161592
0.170203
0.179541
0.189371
0.199849
0.210579
0.221829
0.2329
0.244303
0.254806
0.265399
0.273935
0.282415
0.286743
0.118458
0.119634
0.121919
0.125169
0.129291
0.134276
0.140032
0.146586
0.153845
0.161894
0.170578
0.180017
0.189978
0.200632
0.211589
0.223132
0.234583
0.246452
0.257566
0.268874
0.27835
0.287882
0.293595
0.118571
0.119748
0.122038
0.125295
0.129425
0.134429
0.140208
0.146783
0.154079
0.162181
0.170935
0.18047
0.190557
0.201379
0.212554
0.224376
0.236192
0.248508
0.260211
0.272207
0.282589
0.293139
0.300196
0.118678
0.119856
0.12215
0.125413
0.129552
0.134569
0.140386
0.146971
0.1543
0.162452
0.171273
0.1809
0.191108
0.202089
0.213473
0.225561
0.237727
0.250471
0.262737
0.275395
0.286648
0.298181
0.306539
0.118778
0.119958
0.122255
0.125523
0.129671
0.134697
0.140485
0.147149
0.154509
0.162709
0.171593
0.181307
0.191629
0.202762
0.214345
0.226687
0.239187
0.252339
0.265144
0.278436
0.290524
0.303003
0.312615
0.118871
0.120052
0.122353
0.125627
0.129782
0.134818
0.140639
0.147314
0.154705
0.16295
0.171894
0.18169
0.192121
0.203397
0.21517
0.227752
0.240571
0.254111
0.26743
0.281328
0.294215
0.307601
0.318418
0.118957
0.12014
0.122444
0.125723
0.129886
0.134932
0.140775
0.147477
0.154889
0.163175
0.172176
0.18205
0.192584
0.203996
0.215948
0.228757
0.241878
0.255786
0.269595
0.284069
0.297717
0.311969
0.323941
0.119036
0.12022
0.122528
0.125811
0.129981
0.135037
0.140892
0.14765
0.155061
0.163385
0.172438
0.182386
0.193016
0.204556
0.216677
0.229701
0.243107
0.257364
0.271635
0.286657
0.301027
0.316105
0.329177
0.119108
0.120294
0.122604
0.125892
0.130068
0.135133
0.140996
0.147686
0.155221
0.163579
0.172681
0.182697
0.193418
0.205078
0.217358
0.230584
0.244259
0.258843
0.273551
0.289089
0.304142
0.320002
0.33412
0.119173
0.12036
0.122673
0.125965
0.130146
0.13522
0.141093
0.147836
0.155372
0.163757
0.172905
0.182984
0.19379
0.205561
0.217991
0.231404
0.245332
0.260223
0.275341
0.291365
0.307061
0.323658
0.338764
0.119232
0.12042
0.122735
0.12603
0.130217
0.135298
0.141182
0.147951
0.155514
0.16392
0.173108
0.183246
0.194131
0.206006
0.218574
0.232162
0.246325
0.261502
0.277003
0.293481
0.309779
0.327069
0.343103
0.119283
0.120472
0.122789
0.126087
0.130279
0.135367
0.141261
0.14804
0.155589
0.164068
0.173292
0.183484
0.194441
0.206411
0.219108
0.232858
0.247238
0.262681
0.278537
0.295438
0.312296
0.330231
0.347131
0.119327
0.120517
0.122836
0.126136
0.130332
0.135427
0.14133
0.14812
0.15569
0.164208
0.173457
0.183697
0.19472
0.206778
0.219592
0.23349
0.248071
0.263758
0.279941
0.297232
0.314608
0.333141
0.350845
0.119364
0.120554
0.122875
0.126178
0.130377
0.135478
0.141388
0.148189
0.155782
0.164342
0.173604
0.183885
0.194968
0.207105
0.220026
0.234059
0.248823
0.264732
0.281216
0.298864
0.316713
0.335795
0.354238
0.119394
0.120585
0.122907
0.126211
0.130414
0.135519
0.141435
0.148247
0.155851
0.164351
0.17374
0.184048
0.195184
0.207392
0.22041
0.234564
0.249493
0.265604
0.282359
0.30033
0.318611
0.338191
0.357308
0.119417
0.120608
0.122931
0.126237
0.130441
0.135551
0.141473
0.148293
0.155908
0.164455
0.173859
0.184195
0.19537
0.20764
0.220743
0.235004
0.250082
0.266372
0.28337
0.301631
0.320298
0.340327
0.36005
0.119433
0.120624
0.122947
0.126254
0.130461
0.135573
0.141499
0.148327
0.155952
0.164521
0.17387
0.184324
0.19553
0.207848
0.221023
0.23538
0.250588
0.267036
0.284248
0.302765
0.321773
0.3422
0.362461
0.119441
0.120632
0.122956
0.126264
0.130471
0.135586
0.141515
0.148349
0.155982
0.164562
0.173952
0.184363
0.195662
0.208024
0.221253
0.235692
0.25101
0.267594
0.284992
0.303732