/*--------------------------------*- C++ -*----------------------------------*\
  =========                 |
  \\      /  F ield         | OpenFOAM: The Open Source CFD Toolbox
   \\    /   O peration     | Website:  https://openfoam.org
    \\  /    A nd           | Version:  7
     \\/     M anipulation  |
\*---------------------------------------------------------------------------*/
FoamFile
{
    version     2.0;
    format      ascii;
    class       surfaceScalarField;
    location    "80";
    object      phi;
}
// * * * * * * * * * * * * * * * * * * * * * * * * * * * * * * * * * * * * * //

dimensions      [0 3 -1 0 0 0 0];

internalField   nonuniform List<scalar> 
8921
(
-0.00245304
-0.00106208
-0.00237925
-0.00108014
-0.00230459
-0.00109767
-0.00103912
-0.00217638
-0.00222906
-0.00111465
-0.0010547
-0.00210184
-0.00215269
-0.00113107
-0.00106974
-0.0020265
-0.00207551
-0.00114692
-0.00108422
-0.00195037
-0.00199752
-0.0011622
-0.00102126
-0.00183017
-0.00109814
-0.0018735
-0.00191876
-0.0011769
-0.00103389
-0.0017544
-0.00111149
-0.0017959
-0.00183925
-0.001191
-0.00104598
-0.00167795
-0.00112428
-0.00171759
-0.00175903
-0.00120451
-0.00105752
-0.00160084
-0.00113649
-0.00163862
-0.00167812
-0.00121741
-0.000990766
-0.00148919
-0.0010685
-0.0015231
-0.00114812
-0.001559
-0.00159654
-0.0012297
-0.0010006
-0.00141265
-0.00107893
-0.00144476
-0.00115917
-0.00147877
-0.00151434
-0.00124137
-0.0010099
-0.00133555
-0.00108881
-0.00136586
-0.00116962
-0.00139796
-0.00143153
-0.00125242
-0.00101867
-0.00125792
-0.00109811
-0.00128641
-0.00117948
-0.00131659
-0.00134816
-0.00126285
-0.0010269
-0.00117981
-0.00110685
-0.00120647
-0.00118873
-0.00123471
-0.00126426
-0.00127264
-0.000956013
-0.00107787
-0.0010346
-0.00110122
-0.00111502
-0.00112604
-0.00119739
-0.00115234
-0.00117986
-0.00128179
-0.000962732
-0.0010006
-0.00104175
-0.00102221
-0.00112261
-0.00104518
-0.00120543
-0.00106952
-0.00109499
-0.0012903
-0.000968939
-0.000922942
-0.00104835
-0.000942794
-0.00112963
-0.000963905
-0.00121287
-0.000986273
-0.00100969
-0.00129817
-0.000974631
-0.00084492
-0.00105441
-0.000863012
-0.00113606
-0.000882254
-0.00121969
-0.000902645
-0.000923992
-0.00130539
-0.000979806
-0.000766569
-0.00105992
-0.000782895
-0.00114192
-0.000800261
-0.0012259
-0.000818664
-0.000837933
-0.00131196
-0.000984463
-0.000687923
-0.00106488
-0.000702476
-0.00114718
-0.000717959
-0.00123148
-0.000734367
-0.000751547
-0.00131787
-0.0009886
-0.000609015
-0.00106929
-0.000621789
-0.00115186
-0.000635381
-0.00123644
-0.000649787
-0.000664871
-0.00132312
-0.000992216
-0.000529876
-0.00107314
-0.000540867
-0.00115596
-0.000552563
-0.00124078
-0.000564959
-0.00057794
-0.00132771
-0.000995308
-0.000450541
-0.00107643
-0.000459744
-0.00115946
-0.000469538
-0.0012445
-0.00047992
-0.000490791
-0.00133165
-0.000997877
-0.000371042
-0.00107917
-0.000378453
-0.00116236
-0.000386342
-0.00124758
-0.000394704
-0.000403459
-0.00133491
-0.000999921
-0.000291412
-0.00108135
-0.000297029
-0.00116468
-0.000303008
-0.00125004
-0.000309347
-0.000315982
-0.00133751
-0.000921713
-0.0002081
-0.00100144
-0.000211685
-0.00108296
-0.000215505
-0.0011664
-0.000219572
-0.00125186
-0.000223885
-0.000228397
-0.00133945
-0.000922641
-0.000129998
-0.00100243
-0.000131895
-0.00108402
-0.000133917
-0.00116752
-0.00013607
-0.00125305
-0.000138354
-0.000140739
-0.00134071
-0.000923077
-5.18667e-05
-0.0010029
-5.20752e-05
-0.00108452
-5.22969e-05
-0.00116805
-5.25348e-05
-0.00125361
-5.27896e-05
-5.30482e-05
-0.00134131
-0.000923019
2.62604e-05
-0.00100284
2.7741e-05
-0.00108445
2.93193e-05
-0.00116798
3.09966e-05
-0.00125354
3.27711e-05
3.46355e-05
-0.00134123
-0.000922468
0.00010435
-0.00100225
0.00010752
-0.00108383
0.000110898
-0.00116732
0.00011449
-0.00125284
0.000118294
0.00012228
-0.00134049
-0.000921423
-0.00100113
0.000187228
-0.00108264
0.000192405
-0.00116606
0.000197911
-0.00125151
0.000203743
0.000209857
-0.00133909
-0.000999489
0.000266832
-0.00108089
0.000273805
-0.0011642
0.000281224
-0.00124954
0.000289083
0.000297322
-0.00133701
-0.000997321
0.000346297
-0.00107858
0.000355066
-0.00116175
0.000364394
-0.00124695
0.000374277
0.000384638
-0.00133426
-0.000994627
0.000425591
-0.00107571
0.000436151
-0.0011587
0.000447386
-0.00124372
0.000459289
0.000471766
-0.00133085
-0.000991408
0.00050468
-0.00107229
0.000517029
-0.00115506
0.000530165
-0.00123986
0.000544083
0.000558672
-0.00132676
-0.000987666
0.000583532
-0.0010683
0.000597663
-0.00115083
0.000612696
-0.00123537
0.000628624
0.000645318
-0.00132202
-0.0009834
0.000662112
-0.00106376
0.000678022
-0.00114601
0.000694946
-0.00123026
0.000712877
0.000731667
-0.00131661
-0.000978613
0.000740388
-0.00105866
0.000758071
-0.00114059
0.000776879
-0.00122452
0.000796806
0.000817685
-0.00131054
-0.000973306
0.000818327
-0.00105301
0.000837777
-0.00113459
0.000858461
-0.00121816
0.000880376
0.000903335
-0.00130381
-0.00096748
0.000895898
-0.00104681
0.000917107
-0.00112801
0.000939659
-0.00121119
0.000963552
0.000988581
-0.00129643
-0.000961138
0.000973068
-0.00104006
0.000996029
-0.00112084
0.00102044
-0.00120359
0.0010463
0.00107339
-0.0012884
-0.000954281
-0.00103276
0.00107451
-0.00111309
0.00110077
-0.00119538
0.00112859
0.00115772
-0.00127971
-0.00102492
0.00115252
-0.00110477
0.00118062
-0.00118656
0.00121038
0.00124155
-0.00127039
-0.00101653
0.00123002
-0.00109587
0.00125995
-0.00117713
0.00129165
0.00132484
-0.00126042
-0.00100761
0.00130699
-0.0010864
0.00133873
-0.0011671
0.00137235
0.00140755
-0.00124981
-0.000998153
0.00138339
-0.00107636
0.00141694
-0.00115647
0.00145247
0.00148965
-0.00123857
-0.000988161
-0.00106576
0.00149453
-0.00114524
0.00153195
0.00157111
-0.00122671
-0.0010546
0.00157149
-0.00113343
0.00161079
0.0016519
-0.00121422
-0.00104288
0.00164777
-0.00112103
0.00168894
0.00173199
-0.00120112
-0.00103061
0.00172336
-0.00110805
0.00176638
0.00181135
-0.00118741
-0.0010178
-0.0010945
0.00184307
0.00188995
-0.00117309
-0.00108037
0.001919
0.00196776
-0.00115818
-0.00106569
0.00199414
0.00204475
-0.00114268
-0.00105045
0.00212092
-0.00112661
0.00219622
-0.00110996
0.00227064
-0.00109274
-0.00107498
0.00559882
6.23975e-05
-5.92444e-05
0.00559005
0.000179934
-0.000171169
0.00557652
0.000287469
-0.00027393
0.0055588
0.000386655
-0.000368943
0.00553724
0.000479931
-0.000458363
0.00551232
0.000568974
-0.000544063
0.00548422
0.000655887
-0.00062778
0.00545351
0.000741749
-0.000711041
0.00542037
0.000828732
-0.000795596
0.00538568
0.00091694
-0.000882243
0.00534974
0.00100868
-0.000972742
0.00531392
0.00110264
-0.00106682
0.00527873
0.00120153
-0.00116635
0.00524634
0.0013019
-0.00126951
0.00521735
0.00140766
-0.00137867
0.00519522
0.0015116
-0.00148947
0.00518004
0.00162124
-0.00160607
0.00517786
0.00172112
-0.00171894
0.00518589
0.00183031
-0.00183834
0.00521718
0.00191027
-0.00194156
0.00202031
-0.00206118
0.0057321
6.5451e-05
0.00572359
0.000188451
0.00571043
0.000300627
0.0056933
0.000403781
0.0056725
0.000500732
0.00564866
0.000592814
0.00562192
0.000682628
0.00559305
0.000770622
0.00556221
0.000859571
0.00553052
0.000948632
0.00549826
0.00104094
0.00546715
0.00113376
0.00543756
0.00123111
0.00541217
0.00132729
0.00539119
0.00142864
0.00537884
0.00152395
0.00537428
0.00162581
0.00538456
0.00171084
0.00540567
0.0018092
0.00545023
0.00186571
0.00196123
0.00586855
6.84081e-05
0.00586035
0.000196653
0.00584769
0.000313283
0.0058313
0.000420174
0.00581149
0.000520543
0.00578895
0.000615351
0.00576389
0.000707688
0.00573716
0.00079736
0.005709
0.000887732
0.00568063
0.000977
0.00565243
0.00106914
0.00562623
0.00115995
0.00560248
0.00125487
0.00558393
0.00134584
0.00557078
0.00144179
0.00556721
0.00152752
0.00557235
0.00162067
0.00559246
0.00169073
0.00562451
0.00177714
0.00567642
0.00181381
0.00189413
0.00600826
7.12518e-05
0.00600042
0.00020449
0.00598836
0.000325345
0.00597283
0.000435705
0.00595418
0.000539192
0.00593315
0.000636382
0.00591001
0.000730828
0.00588567
0.000821699
0.00586047
0.000912928
0.00583571
0.00100176
0.00581184
0.00109301
0.00579074
0.00118105
0.00577293
0.00127268
0.00576111
0.00135766
0.00575553
0.00144737
0.00575994
0.00152311
0.00577383
0.00160679
0.00580182
0.00166273
0.00584243
0.00173653
0.00589893
0.00175731
0.00182208
0.0061513
7.39644e-05
0.00614388
0.000211916
0.00613249
0.000336734
0.00611792
0.000450268
0.00610058
0.000556541
0.00608122
0.000655739
0.0060602
0.000751851
0.00603847
0.000843428
0.00601646
0.000934935
0.00599551
0.00102272
0.00597615
0.00111236
0.00596027
0.00119693
0.00594844
0.00128451
0.00594316
0.00136293
0.00594485
0.00144569
0.00595653
0.00151142
0.00597823
0.00158509
0.00601276
0.0016282
0.00606005
0.00168924
0.00612039
0.00169698
0.00174654
0.00629776
7.65295e-05
0.00629079
0.000218887
0.00628014
0.000347378
0.00626665
0.000463765
0.00625072
0.000572468
0.00623318
0.000673279
0.00621444
0.000770598
0.00619548
0.00086238
0.00617683
0.000953588
0.00615983
0.00103972
0.0061451
0.00112709
0.00613442
0.0012076
0.00612849
0.00129044
0.00612949
0.00136194
0.006138
0.00143717
0.00615628
0.00149315
0.00618479
0.00155657
0.00622485
0.00158815
0.00627735
0.00163675
0.0063408
0.00163353
0.00166921
0.00644771
7.89308e-05
0.00644124
0.000225362
0.00643141
0.000357207
0.00641907
0.000476106
0.00640467
0.000586861
0.00638908
0.000688878
0.00637274
0.000786936
0.00635669
0.000878428
0.00634151
0.000968769
0.00632852
0.00105271
0.00631844
0.00113717
0.0063129
0.00121314
0.00631269
0.00129065
0.00631959
0.00135503
0.00633441
0.00142236
0.00635856
0.001469
0.00639292
0.00152222
0.00643759
0.00154347
0.006494
0.00158034
0.00655957
0.00156796
0.00159143
0.00660124
8.11523e-05
0.00659531
0.000231297
0.00658636
0.000366154
0.00657526
0.000487209
0.0065625
0.000599623
0.00654894
0.00070243
0.00653512
0.000800755
0.00652207
0.000891479
0.00651043
0.000980407
0.00650148
0.00106166
0.006496
0.00114265
0.00649544
0.0012137
0.00650068
0.00128541
0.00651308
0.00134263
0.00653359
0.00140185
0.00656292
0.00143966
0.00660217
0.00148297
0.00665059
0.00149505
0.00670978
0.00152114
0.00677655
0.00150119
0.0015141
0.00675843
8.31784e-05
0.00675308
0.000236655
0.00674507
0.000374157
0.00673529
0.000496995
0.00672425
0.000610662
0.00671283
0.000713848
0.00670162
0.00081197
0.00669162
0.000901474
0.00668356
0.000988469
0.00667861
0.00106661
0.00667763
0.00114363
0.00668183
0.0012095
0.00669219
0.00127506
0.00670963
0.00132519
0.0067352
0.00137629
0.00676902
0.00140584
0.00681225
0.00143974
0.00686359
0.00144371
0.00692461
0.00146012
0.00699184
0.00143396
0.00143783
0.00691937
8.49939e-05
0.00691463
0.000241398
0.00690763
0.000381156
0.00689923
0.000505397
0.00688999
0.000619901
0.00688078
0.000723059
0.00687223
0.000820515
0.00686532
0.000908381
0.00686083
0.000992962
0.00685981
0.00106764
0.00686317
0.00114027
0.00687189
0.00120078
0.00688698
0.00125997
0.00690899
0.00130318
0.00693896
0.00134632
0.00697659
0.00136822
0.00702299
0.00139334
0.00707648
0.00139021
0.00713855
0.00139805
0.00720563
0.00136688
0.00136308
0.00708415
8.65848e-05
0.00708005
0.000245495
0.00707411
0.000387099
0.00706715
0.000512356
0.00705977
0.000627275
0.00705282
0.000730009
0.00704699
0.000826353
0.00704317
0.000912199
0.0070422
0.00099393
0.00704499
0.00106484
0.0070525
0.00113276
0.00706546
0.00118783
0.00708486
0.00124056
0.00711094
0.0012771
0.00714469
0.00131256
0.00718547
0.00132744
0.00723429
0.00134453
0.00728927
0.00133523
0.00735171
0.00133561
0.00741815
0.00130044
0.00129026
0.00725285
8.79381e-05
0.00724943
0.000248915
0.00724458
0.00039194
0.00723912
0.000517823
0.00723366
0.000632733
0.00722901
0.000734663
0.00722589
0.000829468
0.00722514
0.000912951
0.00722761
0.000991454
0.00723408
0.00105837
0.0072455
0.00112134
0.00726237
0.00117096
0.00728566
0.00121727
0.00731532
0.00124744
0.00735225
0.00127564
0.00739557
0.00128412
0.00744614
0.00129396
0.007502
0.00127937
0.00756429
0.00127332
0.00762964
0.00123509
0.00121963
0.00742556
8.90421e-05
0.00742284
0.000251633
0.00741914
0.000395642
0.00741521
0.000521758
0.0074117
0.000636242
0.00740936
0.000737002
0.00740895
0.000829874
0.00741121
0.000910689
0.00741702
0.000985646
0.00742699
0.0010484
0.00744206
0.00110627
0.00746251
0.0011505
0.00748925
0.00119054
0.007522
0.00121468
0.00756154
0.0012361
0.00760683
0.00123882
0.00765857
0.00124221
0.0077148
0.00122315
0.00777647
0.00121165
0.00784041
0.00117115
0.00115142
0.00760239
8.98874e-05
0.00760039
0.00025363
0.00759786
0.000398174
0.00759548
0.000524134
0.00759394
0.000637784
0.00759391
0.00073703
0.00759618
0.000827608
0.00760138
0.000905489
0.00761038
0.000976647
0.00762365
0.00103513
0.00764207
0.00108785
0.00766578
0.00112679
0.00769552
0.0011608
0.0077309
0.00117931
0.00777252
0.00119449
0.00781926
0.00119208
0.00787167
0.0011898
0.00792781
0.00116701
0.0079885
0.00115095
0.00805077
0.00110888
0.00108576
0.00778342
9.04664e-05
0.00778216
0.00025489
0.00778081
0.000399518
0.00778001
0.000524936
0.00778044
0.000637359
0.0077827
0.000734768
0.00778758
0.00082273
0.00779561
0.000897452
0.00780764
0.000964624
0.007824
0.00101877
0.00784548
0.00106637
0.00787207
0.0011002
0.0079044
0.00112846
0.00794195
0.00114176
0.00798517
0.00115127
0.0080329
0.00114436
0.00808554
0.00113716
0.00814121
0.00111134
0.00820063
0.00109154
0.00826102
0.00104849
0.00102274
0.00796875
9.07738e-05
0.00796824
0.000255401
0.00796809
0.000399664
0.00796887
0.000524162
0.00797124
0.000634984
0.00797576
0.000730255
0.00798316
0.000815324
0.00799391
0.000886703
0.00800877
0.000949764
0.00802798
0.00099956
0.00805221
0.00104214
0.00808133
0.00107108
0.00811585
0.00109395
0.00815514
0.00110247
0.00819952
0.00110688
0.00824781
0.00109606
0.00830031
0.00108466
0.00835521
0.00105644
0.00841312
0.00103363
0.00847148
0.00099012
0.000962402
0.00815849
9.0807e-05
0.00815873
0.00025516
0.00815978
0.000398613
0.00816212
0.000521821
0.00816641
0.000630695
0.00817311
0.000723553
0.00818294
0.000805494
0.00819626
0.000873387
0.00821375
0.000932271
0.00823555
0.00097776
0.00826222
0.00101548
0.00829353
0.00103977
0.00832984
0.00105764
0.00837047
0.00106183
0.00841563
0.00106173
0.00846412
0.00104757
0.00851614
0.00103264
0.00857
0.00100257
0.00862623
0.000977408
0.00868247
0.000933873
0.000904757
0.00835273
9.05656e-05
0.00835372
0.000254166
0.00835596
0.000396376
0.00835984
0.000517936
0.008366
0.00062454
0.00837481
0.000714739
0.00838694
0.000793364
0.00840266
0.000857667
0.00842257
0.000912364
0.0084467
0.000953629
0.0084755
0.000986679
0.00850865
0.00100662
0.00854639
0.00101989
0.008588
0.00102023
0.00863356
0.00101617
0.00868193
0.000999207
0.00873321
0.000981356
0.00878583
0.000949952
0.00884023
0.00092301
0.00889429
0.000879816
0.00084979
0.00855158
9.0052e-05
0.00855332
0.000252426
0.00855672
0.000392975
0.00856211
0.000512545
0.00857006
0.000616588
0.00858089
0.000703909
0.00859519
0.000779071
0.00861313
0.000839722
0.00863523
0.000890269
0.00866142
0.000927434
0.00869204
0.00095606
0.0087267
0.000971962
0.00876553
0.000981064
0.00880777
0.000977982
0.00885343
0.000970509
0.0089014
0.000951242
0.00895172
0.000931037
0.00900293
0.000898743
0.00905541
0.000870531
0.00910724
0.000827985
0.000797464
0.00875515
8.9271e-05
0.00875762
0.000249954
0.00876215
0.000388441
0.008769
0.000505698
0.00877867
0.000606918
0.00879141
0.000691174
0.00880771
0.00076277
0.00882768
0.000819744
0.00885173
0.000866222
0.00887972
0.000899445
0.00891186
0.000923918
0.00894772
0.000936105
0.00898732
0.000941465
0.0090299
0.000935405
0.00907538
0.000925027
0.0091227
0.000903918
0.00917187
0.000881869
0.00922154
0.000849078
0.00927203
0.000820039
0.00932162
0.000778393
0.00074773
0.00896354
8.82296e-05
0.00896672
0.00024677
0.00897235
0.000382815
0.00898059
0.000497455
0.00899189
0.000595624
0.0090064
0.000676661
0.00902455
0.000744625
0.00904636
0.000797934
0.00907212
0.000840459
0.00910164
0.000869928
0.00913502
0.000890538
0.00917177
0.000899346
0.00921185
0.000901387
0.00925449
0.000892771
0.00929955
0.000879967
0.00934603
0.000857437
0.00939389
0.000834002
0.00944192
0.000801057
0.00949038
0.000771575
0.00953774
0.000731033
0.000700525
0.00917687
8.69372e-05
0.00918074
0.000242899
0.00918741
0.000376145
0.00919698
0.000487891
0.00920979
0.000582811
0.00922594
0.000660506
0.00924576
0.00072481
0.00926919
0.0007745
0.00929643
0.000813218
0.00932722
0.000839143
0.00936156
0.000856197
0.00939894
0.000861964
0.00943923
0.000861096
0.00948168
0.000850324
0.00952611
0.000835537
0.00957158
0.000811969
0.00961802
0.000787556
0.00966433
0.000754752
0.00971075
0.000725155
0.0097559
0.000685885
0.000655776
0.00939526
8.54052e-05
0.00939978
0.000238372
0.00940744
0.000368492
0.00941824
0.00047709
0.00943246
0.000568596
0.0094501
0.000642857
0.00947141
0.000703506
0.00949626
0.000749651
0.00952474
0.000784736
0.00955654
0.000807344
0.00959158
0.000821152
0.00962933
0.000824216
0.0096696
0.000820832
0.00971164
0.00080828
0.00975526
0.000791918
0.00979957
0.000767654
0.00984451
0.000742624
0.00988904
0.000710214
0.00993342
0.000680782
0.00997639
0.000642911
0.000613406
0.00961882
8.3647e-05
0.00962396
0.000233228
0.00963254
0.000359918
0.00964448
0.000465145
0.00965997
0.000553102
0.00967896
0.00062387
0.00970157
0.000680897
0.00972762
0.000723599
0.00975712
0.000755241
0.00978969
0.000774773
0.00982519
0.000785647
0.00986307
0.000786335
0.00990309
0.000780811
0.00994455
0.000766828
0.0099872
0.000749261
0.0100303
0.000724607
0.0100736
0.000699274
0.0101163
0.000667471
0.0101587
0.000638442
0.0101995
0.000602069
0.000573332
0.00984767
8.16776e-05
0.00985339
0.000227508
0.00986281
0.000350498
0.0098758
0.000452157
0.00989244
0.000536463
0.00991261
0.000603705
0.00993633
0.00065717
0.00996338
0.000696553
0.00999366
0.000724958
0.0100268
0.00074166
0.0100625
0.000749909
0.0101003
0.000748537
0.0101399
0.000741223
0.0101806
0.00072613
0.0102222
0.000707693
0.0102639
0.000682916
0.0103056
0.000657554
0.0103465
0.000626538
0.0103868
0.000598108
0.0104256
0.000563303
0.000535467
0.0100819
7.95137e-05
0.0100882
0.000221259
0.0100984
0.000340307
0.0101123
0.000438233
0.01013
0.000518813
0.0101511
0.000582527
0.0101758
0.000632513
0.0102036
0.000668717
0.0102345
0.0006941
0.0102679
0.000708221
0.0103037
0.000714144
0.0103412
0.000711015
0.0103802
0.000702237
0.01042
0.000686327
0.0104604
0.000667316
0.0105006
0.000642652
0.0105407
0.000617496
0.0105798
0.000587413
0.0106182
0.000559743
0.0106549
0.000526555
0.000499723
0.0103218
7.71729e-05
0.0103285
0.000214532
0.0103394
0.000329428
0.0103541
0.000423486
0.0103726
0.000500293
0.0103947
0.000560499
0.0104201
0.000607109
0.0104485
0.00064029
0.0104797
0.00066287
0.0105133
0.000674658
0.0105489
0.000678544
0.010586
0.00067394
0.0106242
0.000663998
0.010663
0.000647535
0.0107021
0.000628214
0.0107409
0.000603865
0.0107793
0.000579114
0.0108166
0.000550082
0.010853
0.000523303
0.0108878
0.000491759
0.00046601
0.0105673
7.46743e-05
0.0105744
0.00020738
0.0105859
0.000317947
0.0106014
0.000408031
0.0106206
0.000481044
0.0106433
0.000537786
0.0106693
0.000581138
0.0106981
0.000611462
0.0107295
0.000631461
0.010763
0.000641158
0.0107983
0.00064328
0.0108348
0.000637465
0.0108721
0.000626632
0.0109098
0.000609851
0.0109476
0.000590451
0.0109849
0.00056659
0.0110216
0.000542409
0.0110571
0.000514521
0.0110917
0.000488736
0.0111246
0.000458847
0.000434238
0.0108186
7.20374e-05
0.0108261
0.000199859
0.0108381
0.000305951
0.0108541
0.000391985
0.010874
0.000461208
0.0108972
0.000514548
0.0109236
0.000554774
0.0109526
0.000582412
0.010984
0.000600049
0.0110173
0.000607889
0.0110521
0.000608505
0.0110878
0.000601723
0.0111242
0.000590245
0.0111607
0.000573354
0.0111971
0.000554075
0.0112328
0.000530845
0.0112679
0.000507373
0.0113017
0.000480698
0.0113344
0.000455986
0.0113655
0.000427748
0.000404317
0.0110758
6.92826e-05
0.0110837
0.000192027
0.0110961
0.000293529
0.0111126
0.000375465
0.0111329
0.000440923
0.0111565
0.000490942
0.0111831
0.000528182
0.0112122
0.00055331
0.0112434
0.000568801
0.0112763
0.000575007
0.0113105
0.000574356
0.0113454
0.000566828
0.0113807
0.000554924
0.0114159
0.000538106
0.0114509
0.000519117
0.0114851
0.000496638
0.0115185
0.000473986
0.0115506
0.000448574
0.0115816
0.000424992
0.011611
0.000398388
0.000376158
0.0113392
6.64303e-05
0.0113473
0.00018394
0.01136
0.000280771
0.0113769
0.000358586
0.0113975
0.000420325
0.0114213
0.000467118
0.011448
0.00050152
0.011477
0.000524314
0.0115079
0.000537865
0.0115403
0.000542648
0.0115737
0.00054095
0.0116077
0.000532878
0.0116418
0.000520742
0.0116758
0.000504152
0.0117093
0.000485598
0.011742
0.000463965
0.0117737
0.000442221
0.0118042
0.000418104
0.0118335
0.00039569
0.0118612
0.000370693
0.000349672
0.0116088
6.3501e-05
0.0116171
0.000175658
0.0116301
0.000267765
0.0116472
0.000341461
0.011668
0.000399545
0.0116919
0.000443219
0.0117185
0.000474935
0.0117472
0.000495568
0.0117777
0.000507378
0.0118094
0.000510935
0.011842
0.000508391
0.0118749
0.000499953
0.0119079
0.000487753
0.0119405
0.000471526
0.0119726
0.000453526
0.0120037
0.000432813
0.0120339
0.000412043
0.0120628
0.000389237
0.0120905
0.000368014
0.0121166
0.000344588
0.000324772
0.0118848
6.05152e-05
0.0118932
0.000167237
0.0119064
0.000254596
0.0119236
0.000324198
0.0119445
0.000378707
0.0119683
0.000419377
0.0119947
0.000448561
0.012023
0.000467205
0.012053
0.000477461
0.0120839
0.000479974
0.0121156
0.000476764
0.0121474
0.000468118
0.0121791
0.000456001
0.0122104
0.000440247
0.012241
0.000422897
0.0122707
0.000403161
0.0122993
0.000383412
0.0123266
0.00036192
0.0123528
0.000341897
0.0123774
0.000319999
0.000301376
0.0121673
5.74926e-05
0.0121758
0.000158732
0.0121891
0.000241347
0.0122064
0.000306902
0.0122271
0.000357929
0.0122508
0.000395718
0.0122768
0.000422523
0.0123047
0.000439341
0.0123339
0.000448219
0.0123641
0.000449855
0.0123947
0.000446141
0.0124254
0.000437425
0.0124559
0.000425515
0.0124858
0.000410325
0.012515
0.000393701
0.0125432
0.000374981
0.0125703
0.000356283
0.0125961
0.000336098
0.0126207
0.000317271
0.0126439
0.000296852
0.000279401
0.0124565
5.44523e-05
0.0124651
0.000150196
0.0124783
0.000228096
0.0124955
0.000289669
0.0125162
0.000337318
0.0125395
0.000372356
0.0125651
0.000396934
0.0125924
0.000412083
0.0126208
0.000419746
0.01265
0.000420654
0.0126796
0.00041658
0.0127091
0.000407912
0.0127383
0.000396312
0.0127669
0.000381758
0.0127947
0.000365918
0.0128214
0.000348239
0.0128471
0.000330609
0.0128715
0.000311712
0.0128947
0.000294068
0.0129164
0.000275074
0.000258767
0.0127526
5.14124e-05
0.0127611
0.000141679
0.0127743
0.000214916
0.0127914
0.00027259
0.0128117
0.000316975
0.0128347
0.000349393
0.0128597
0.000371891
0.0128863
0.000385521
0.0129139
0.000392118
0.0129421
0.000392436
0.0129706
0.000388125
0.0129989
0.000379606
0.0130268
0.000368401
0.013054
0.000354538
0.0130804
0.000339524
0.0131058
0.000322896
0.01313
0.000306339
0.013153
0.000288702
0.0131749
0.000272219
0.0131954
0.000254596
0.000239398
0.0130557
4.839e-05
0.0130642
0.000133228
0.0130772
0.000201877
0.013094
0.000255748
0.013114
0.000296991
0.0131365
0.000326921
0.0131609
0.000347483
0.0131867
0.000359733
0.0132134
0.000365401
0.0132406
0.000365248
0.0132679
0.000360809
0.013295
0.000352521
0.0133216
0.000341779
0.0133475
0.000328648
0.0133725
0.000314486
0.0133965
0.00029891
0.0134194
0.000283418
0.0134411
0.00026701
0.0134617
0.000251659
0.0134809
0.000235346
0.00022122
0.013366
4.54006e-05
0.0133743
0.000124885
0.0133872
0.00018904
0.0134037
0.000239217
0.0134232
0.000277444
0.0134451
0.000305019
0.0134688
0.000323783
0.0134938
0.000334785
0.0135196
0.000339646
0.0135457
0.000339128
0.0135718
0.000334653
0.0135977
0.000326664
0.013623
0.000316437
0.0136476
0.000304064
0.0136713
0.000290769
0.013694
0.000276235
0.0137156
0.000261794
0.0137361
0.000246574
0.0137554
0.000232322
0.0137735
0.000217258
0.000204164
0.0136836
4.24587e-05
0.0136918
0.00011669
0.0137044
0.000176461
0.0137206
0.000223064
0.0137396
0.000258407
0.0137609
0.000283758
0.0137838
0.000300855
0.0138079
0.000310727
0.0138326
0.000314894
0.0138576
0.000314102
0.0138826
0.000309667
0.0139073
0.000302031
0.0139313
0.000292356
0.0139546
0.000280757
0.0139771
0.000268333
0.0139985
0.000254822
0.0140189
0.000241409
0.0140381
0.000227335
0.0140563
0.000214142
0.0140733
0.000200268
0.000188161
0.0140088
3.95768e-05
0.0140169
0.000108676
0.0140291
0.00016419
0.0140448
0.000207347
0.0140633
0.000239937
0.0140839
0.000263193
0.014106
0.000278747
0.0141291
0.000287601
0.0141528
0.000291172
0.0141768
0.000290185
0.0142006
0.000285853
0.014224
0.000278611
0.0142468
0.000269514
0.0142689
0.000258694
0.0142901
0.000247134
0.0143103
0.000234621
0.0143295
0.000222208
0.0143476
0.000209233
0.0143647
0.000197058
0.0143806
0.000184311
0.000173148
0.0143418
3.67661e-05
0.0143496
0.000100873
0.0143615
0.000152267
0.0143767
0.000192113
0.0143946
0.000222085
0.0144144
0.000243371
0.0144356
0.000257499
0.0144578
0.000265436
0.0144805
0.000268497
0.0145033
0.000267381
0.0145259
0.000263203
0.0145482
0.000256384
0.0145698
0.000247882
0.0145907
0.000237835
0.0146107
0.000227126
0.0146297
0.000215582
0.0146478
0.000204134
0.0146648
0.00019221
0.0146808
0.000181008
0.0146958
0.000169328
0.000159062
0.0146826
3.40361e-05
0.0146901
9.33059e-05
0.0147017
0.000140728
0.0147164
0.000177402
0.0147336
0.000204889
0.0147526
0.000224326
0.014773
0.000237138
0.0147942
0.000244249
0.0148158
0.000246876
0.0148375
0.000245688
0.014859
0.000241702
0.0148801
0.000235325
0.0149005
0.000227423
0.0149202
0.000218139
0.0149391
0.000208262
0.014957
0.000197651
0.014974
0.000187131
0.01499
0.000176208
0.0150051
0.000165933
0.0150192
0.000155259
0.000145846
0.0150315
3.13945e-05
0.0150388
8.59958e-05
0.0150499
0.000129601
0.0150641
0.000163245
0.0150806
0.00018838
0.0150988
0.000206084
0.0151183
0.000217681
0.0151385
0.000224048
0.0151591
0.000226308
0.0151797
0.000225091
0.0152
0.000221328
0.01522
0.000215404
0.0152393
0.0002081
0.0152579
0.000199561
0.0152756
0.00019049
0.0152925
0.000180774
0.0153085
0.000171142
0.0153235
0.000161169
0.0153377
0.000151775
0.0153509
0.000142049
0.000133443
0.0153887
2.88475e-05
0.0153958
7.8958e-05
0.0154064
0.000118907
0.01542
0.000149665
0.0154358
0.000172576
0.0154533
0.000188658
0.0154718
0.000199134
0.015491
0.000204832
0.0155105
0.00020678
0.0155301
0.000205572
0.0155493
0.000202051
0.0155682
0.000196584
0.0155864
0.00018987
0.0156039
0.000182054
0.0156206
0.000173759
0.0156365
0.000164898
0.0156515
0.000156113
0.0156657
0.000147038
0.015679
0.000138479
0.0156914
0.000129644
0.000121799
0.0157544
2.63995e-05
0.0157612
7.22038e-05
0.0157714
0.00010866
0.0157844
0.000136676
0.0157995
0.000157488
0.0158161
0.000172053
0.0158337
0.000181496
0.015852
0.000186589
0.0158705
0.000188273
0.015889
0.000187102
0.0159072
0.000183838
0.0159249
0.000178824
0.0159421
0.000172687
0.0159586
0.000165566
0.0159743
0.000158016
0.0159893
0.000149969
0.0160034
0.000141988
0.0160167
0.00013376
0.0160292
0.00012599
0.0160408
0.00011799
0.000110865
0.0161288
2.40534e-05
0.0161353
6.57397e-05
0.0161451
9.88681e-05
0.0161575
0.000124283
0.0161718
0.000143118
0.0161876
0.000156266
0.0162044
0.000164753
0.0162217
0.000169301
0.0162392
0.000170762
0.0162566
0.000169648
0.0162738
0.000166648
0.0162905
0.000162079
0.0163067
0.000156501
0.0163223
0.000150047
0.0163371
0.000143207
0.0163511
0.00013593
0.0163644
0.000128711
0.0163769
0.000121281
0.0163886
0.000114255
0.0163995
0.000107039
0.00010059
0.0165121
2.18105e-05
0.0165183
5.95683e-05
0.0165276
8.95328e-05
0.0165394
0.000112485
0.0165531
0.00012946
0.0165681
0.000141282
0.0165839
0.000148888
0.0166003
0.000152941
0.0166168
0.000154211
0.0166333
0.000153172
0.0166495
0.000150437
0.0166653
0.000146301
0.0166805
0.00014126
0.0166951
0.000135441
0.0167091
0.000129276
0.0167223
0.000122728
0.0167348
0.000116228
0.0167465
0.000109548
0.0167575
0.000103222
0.0167678
9.67388e-05
9.09267e-05
0.0169045
1.96704e-05
0.0169104
5.36879e-05
0.0169193
8.06492e-05
0.0169305
0.000101272
0.0169435
0.000116497
0.0169577
0.000127082
0.0169727
0.000133871
0.0169882
0.000137474
0.0170038
0.000138582
0.0170193
0.000137626
0.0170346
0.000135155
0.0170495
0.000131436
0.0170638
0.00012691
0.0170776
0.000121695
0.0170907
0.000116169
0.0171031
0.000110307
0.0171148
0.000104484
0.0171259
9.85087e-05
0.0171363
9.28402e-05
0.017146
8.70431e-05
8.18295e-05
0.0173063
1.76315e-05
0.0173119
4.80927e-05
0.0173203
7.22068e-05
0.017331
9.06297e-05
0.0173432
0.000104209
0.0173567
0.000113635
0.0173709
0.000119669
0.0173855
0.00012286
0.0174003
0.000123828
0.0174149
0.000122962
0.0174293
0.000120748
0.0174433
0.000117429
0.0174569
0.000113393
0.0174698
0.000108749
0.0174821
0.000103827
0.0174938
9.8611e-05
0.0175049
9.34253e-05
0.0175153
8.81099e-05
0.0175251
8.30596e-05
0.0175342
7.79041e-05
7.32532e-05
0.0177176
1.56905e-05
0.0177229
4.27732e-05
0.0177309
6.41895e-05
0.017741
8.0534e-05
0.0177527
9.25655e-05
0.0177654
0.000100907
0.0177788
0.000106237
0.0177926
0.000109051
0.0178066
0.000109896
0.0178204
0.000109123
0.017834
0.000107159
0.0178472
0.000104221
0.0178599
0.000100649
0.0178721
9.65439e-05
0.0178838
9.21912e-05
0.0178948
8.75825e-05
0.0179052
8.29961e-05
0.017915
7.82995e-05
0.0179243
7.38301e-05
0.0179329
6.92749e-05
6.51533e-05
0.0181387
1.38431e-05
0.0181437
3.77162e-05
0.0181513
5.6576e-05
0.0181609
7.09561e-05
0.018172
8.15299e-05
0.018184
8.88546e-05
0.0181967
9.35285e-05
0.0182098
9.59937e-05
0.0182229
9.67302e-05
0.018236
9.60496e-05
0.0182489
9.43244e-05
0.0182613
9.1749e-05
0.0182734
8.86164e-05
0.0182849
8.50189e-05
0.0182959
8.12025e-05
0.0183063
7.71638e-05
0.0183161
7.31411e-05
0.0183254
6.90248e-05
0.0183341
6.51015e-05
0.0183423
6.11087e-05
5.74854e-05
0.0185698
1.20833e-05
0.0185746
3.29048e-05
0.0185818
4.93395e-05
0.0185909
6.18605e-05
0.0186014
7.10589e-05
0.0186128
7.74267e-05
0.0186249
8.14865e-05
0.0186372
8.36273e-05
0.0186497
8.4266e-05
0.0186621
8.3676e-05
0.0186742
8.21791e-05
0.018686
7.99463e-05
0.0186974
7.72289e-05
0.0187083
7.41096e-05
0.0187187
7.07982e-05
0.0187286
6.72956e-05
0.0187379
6.38033e-05
0.0187467
6.02321e-05
0.018755
5.6823e-05
0.0187627
5.33582e-05
5.02052e-05
0.0190112
1.0404e-05
0.0190157
2.83187e-05