/*--------------------------------*- C++ -*----------------------------------*\
  =========                 |
  \\      /  F ield         | OpenFOAM: The Open Source CFD Toolbox
   \\    /   O peration     | Website:  https://openfoam.org
    \\  /    A nd           | Version:  7
     \\/     M anipulation  |
\*---------------------------------------------------------------------------*/
FoamFile
{
    version     2.0;
    format      ascii;
    class       volVectorField;
    location    "100";
    object      U;
}
// * * * * * * * * * * * * * * * * * * * * * * * * * * * * * * * * * * * * * //

dimensions      [0 1 -1 0 0 0 0];

internalField   nonuniform List<vector> 
4575
(
(0.0227248 -0.00381085 1.76978e-20)
(0.0908528 -0.00898309 1.77712e-20)
(0.18193 -0.00587341 6.47343e-20)
(0.0262657 -0.00399487 2.08544e-20)
(0.101395 -0.00877365 7.26997e-20)
(0.199332 -0.00439203 5.61709e-20)
(0.316585 0.00687733 1.53287e-20)
(0.448744 0.024727 1.41468e-19)
(0.0299976 -0.00407423 -9.38696e-20)
(0.112378 -0.00824392 -3.2264e-20)
(0.217281 -0.00238805 -1.04644e-19)
(0.340874 0.0108854 -5.65785e-20)
(0.478258 0.0310155 -2.84028e-20)
(0.623032 0.0567211 -8.82589e-20)
(0.76777 0.0860512 -5.4171e-20)
(0.904887 0.116685 9.5491e-20)
(0.0339149 -0.00403804 3.11141e-20)
(0.123776 -0.00736901 -4.94476e-20)
(0.235723 0.000167886 8.21208e-20)
(0.365572 0.015609 3.74897e-20)
(0.507925 0.0381164 -5.29155e-20)
(0.655881 0.0661005 6.3944e-20)
(0.801663 0.0973151 1.55896e-20)
(0.937603 0.12922 -2.76276e-20)
(1.05727 0.159328 3.2906e-20)
(1.15638 0.185592 -2.50995e-20)
(1.23326 0.206682 -6.95274e-20)
(1.28865 0.222066 -6.83863e-21)
(0.0380105 -0.00387558 -1.54127e-20)
(0.13556 -0.00612516 8.09762e-21)
(0.2546 0.00330254 -7.51284e-20)
(0.390587 0.0210689 4.7225e-20)
(0.537621 0.0460364 4.31932e-20)
(0.688334 0.0762937 -6.03792e-20)
(0.834657 0.109302 2.74088e-20)
(0.968935 0.142325 -5.23702e-20)
(1.08508 0.172811 -7.31558e-20)
(1.17942 0.198785 2.59894e-20)
(1.25097 0.219083 4.72639e-21)
(1.30115 0.233384 3.893e-20)
(1.333 0.242064 5.98797e-20)
(1.35041 0.245949 -2.855e-21)
(1.35732 0.246063 9.92597e-21)
(0.0422756 -0.00357641 -1.73776e-20)
(0.147697 -0.00449002 -2.08346e-20)
(0.273849 0.00703967 7.94789e-20)
(0.415822 0.0272812 -9.63863e-21)
(0.567225 0.0547765 3.57393e-22)
(0.720255 0.087283 -4.11395e-20)
(0.866627 0.121979 -7.09121e-21)
(0.998788 0.155957 2.8095e-20)
(1.11108 0.186639 9.4558e-20)
(1.20049 0.212155 -2.97801e-20)
(1.26675 0.231535 5.04753e-21)
(1.31188 0.244675 1.56074e-20)
(1.33937 0.252143 -2.99598e-20)
(1.35331 0.254903 -1.89942e-20)
(1.35764 0.254054 5.0114e-21)
(1.35575 0.250627 2.4624e-20)
(1.35019 0.245475 -6.0204e-21)
(1.34273 0.239246 -3.75089e-22)
(1.3344 0.232372 2.12331e-20)
(0.0466999 -0.00313047 3.02861e-20)
(0.16015 -0.002443 5.83153e-20)
(0.293402 0.0113998 3.94445e-20)
(0.44118 0.034257 -2.11221e-20)
(0.596613 0.064332 7.69123e-20)
(0.751513 0.0990458 4.46757e-20)
(0.897456 0.135308 -6.57801e-20)
(1.02709 0.17007 -2.25679e-20)
(1.13525 0.200766 4.1676e-22)
(1.21964 0.225667 -1.81315e-20)
(1.28068 0.244014 -5.14578e-20)
(1.32097 0.255927 8.41158e-21)
(1.34437 0.26216 9.78832e-23)
(1.35512 0.263802 -5.1162e-20)
(1.35716 0.262009 2.30653e-20)
(1.35372 0.257825 -1.22135e-20)
(1.34718 0.252079 -5.31285e-20)
(1.33913 0.245388 2.53648e-20)
(1.33047 0.238127 -5.29752e-20)
(1.32161 0.230364 2.28492e-20)
(0.0512716 -0.00252826 -1.06183e-20)
(0.172879 3.45365e-05 -2.50262e-20)
(0.313187 0.0163997 -4.10046e-20)
(0.466559 0.0420028 -1.93935e-21)
(0.625665 0.074693 -3.52887e-21)
(0.781986 0.111555 -4.23317e-20)
(0.927042 0.149247 9.47907e-21)
(1.05376 0.184618 8.78555e-21)
(1.15758 0.215151 -1.79617e-20)
(1.23689 0.239288 1.45359e-21)
(1.29282 0.256499 2.71405e-20)
(1.3285 0.267132 -3.5311e-21)
(1.3481 0.272116 1.99863e-20)
(1.35595 0.272648 8.74453e-21)
(1.35594 0.269933 -4.75699e-20)
(1.35115 0.265013 3.59963e-21)
(1.34378 0.25869 2.8207e-20)
(1.33525 0.251547 -6.61633e-21)
(1.32631 0.243902 1.22618e-21)
(1.3173 0.2359 -4.43957e-21)
(0.0559776 -0.00176089 -9.75438e-21)
(0.18584 0.00295899 -8.9359e-21)
(0.333131 0.0220524 -1.5547e-20)
(0.491858 0.0505199 -1.00562e-20)
(0.654263 0.0858441 -2.56526e-20)
(0.811557 0.124778 2.92868e-20)
(0.955294 0.163755 5.70257e-20)
(1.07878 0.199555 1.95576e-20)
(1.17807 0.229752 9.8356e-21)
(1.25229 0.252987 -2.3059e-20)
(1.30326 0.268974 -2.19231e-22)
(1.33457 0.278282 1.44221e-20)
(1.35064 0.282008 -1.82315e-20)
(1.35588 0.281445 6.84247e-21)
(1.35406 0.277829 2.26266e-20)
(1.34809 0.272194 -7.72564e-21)
(1.34002 0.265309 -1.34912e-20)
(1.33109 0.257719 -1.23151e-20)
(1.32195 0.249693 4.33038e-20)
(1.31281 0.241448 1.50675e-20)
(0.0608032 -0.000820234 -1.74928e-20)
(0.198989 0.0063443 1.98203e-20)
(0.353157 0.0283671 -4.43957e-21)
(0.516974 0.0598045 1.36517e-20)
(0.682292 0.097765 -1.20038e-20)
(0.840121 0.13868 -7.22351e-21)
(0.982133 0.178787 -2.77805e-20)
(1.10209 0.214837 3.23455e-21)
(1.19672 0.244531 7.61234e-21)
(1.26591 0.266737 1.67101e-20)
(1.31208 0.281421 -6.39068e-21)
(1.33927 0.289371 -4.96204e-21)
(1.3521 0.291838 4.4532e-21)
(1.35497 0.290195 -7.73086e-21)
(1.35155 0.2857 1.73359e-20)
(1.34459 0.279367 1.13189e-20)
(1.33593 0.271932 -1.9242e-21)
(1.32668 0.263901 -1.23538e-21)
(1.31737 0.255494 -1.16796e-20)
(1.30814 0.247003 -1.45057e-20)
(0.0657327 0.000300995 3.77378e-21)
(0.212277 0.0102018 -6.20481e-21)
(0.373186 0.0353485 4.14734e-21)
(0.541807 0.0698478 -5.59883e-21)
(0.709643 0.11043 -2.10952e-20)
(0.867579 0.153222 9.58746e-21)
(1.00749 0.194295 4.557e-21)
(1.12367 0.230417 -2.13823e-20)
(1.21357 0.259451 -1.3223e-20)
(1.27779 0.280512 -1.24118e-21)
(1.31935 0.293825 -1.77811e-20)
(1.34268 0.300393 1.8051e-20)
(1.35254 0.301604 -4.26367e-23)
(1.35329 0.2989 -2.33357e-21)
(1.34848 0.293546 -4.38133e-21)
(1.34066 0.286532 2.11405e-21)
(1.33152 0.278557 1.45186e-21)
(1.32202 0.270087 -5.65574e-22)
(1.31259 0.2613 -4.28475e-21)
(1.30329 0.252558 5.18901e-21)
(0.0707489 0.00160912 1.26611e-21)
(0.225654 0.0145399 4.09514e-21)
(0.393139 0.0429972 2.23861e-21)
(0.566257 0.0806362 -1.02293e-21)
(0.736213 0.123811 1.39394e-20)
(0.893843 0.16836 -3.05135e-21)
(1.03132 0.210234 4.7565e-21)
(1.14351 0.246251 1.03515e-20)
(1.22863 0.274475 -1.83342e-21)
(1.28799 0.294287 4.50287e-22)
(1.32517 0.306174 4.89238e-21)
(1.34489 0.311342 -2.55983e-21)
(1.35204 0.311305 3.27095e-21)
(1.3509 0.307558 5.8003e-22)
(1.34487 0.301366 -5.98302e-21)
(1.33633 0.293686 2.86978e-22)
(1.3268 0.285179 7.53171e-21)
(1.31711 0.276271 -1.54927e-21)
(1.30759 0.267104 2.26508e-21)
(1.29826 0.258104 -2.51951e-21)
(0.0758342 0.00310945 5.22897e-22)
(0.239068 0.0193641 6.06486e-21)
(0.412937 0.0513095 3.20746e-21)
(0.590227 0.0921511 -6.40621e-22)
(0.761903 0.137872 1.29323e-20)
(0.918834 0.184051 -3.58782e-21)
(1.05357 0.226553 6.58521e-21)
(1.16162 0.262295 8.67461e-21)
(1.24195 0.289569 -1.7574e-21)
(1.29659 0.308039 3.87661e-22)
(1.3296 0.318453 5.56905e-21)
(1.34598 0.322211 -2.21162e-21)
(1.35066 0.320939 2.1382e-21)
(1.34785 0.316169 -5.14435e-22)
(1.34077 0.309157 -4.89375e-21)
(1.33163 0.300824 -1.38352e-22)
(1.32179 0.291791 7.48815e-21)
(1.31196 0.282446 -1.44597e-21)
(1.3024 0.272897 2.67534e-21)
(1.29304 0.263634 -2.84296e-21)
(0.0809696 0.00480619 4.5568e-21)
(0.252467 0.024677 -7.8054e-21)
(0.4325 0.0602773 3.90271e-21)
(0.613623 0.104369 -3.08012e-21)
(0.786624 0.152576 -2.05023e-20)
(0.942484 0.200248 8.16579e-21)
(1.0742 0.243205 3.70182e-21)
(1.17799 0.278506 -2.45341e-20)
(1.25357 0.3047 -1.01094e-20)
(1.30364 0.321747 -8.68689e-24)
(1.33271 0.330652 -1.50361e-20)
(1.346 0.332996 1.23239e-20)
(1.34846 0.330503 -2.71132e-21)
(1.34418 0.32473 1.6893e-21)
(1.3362 0.316915 -6.45131e-21)
(1.32657 0.307941 4.80779e-21)
(1.31649 0.298387 3.02653e-21)
(1.30656 0.288604 -5.24692e-22)
(1.29699 0.278671 -5.76473e-21)
(1.28764 0.26914 5.21532e-21)
(0.0861352 0.00670234 -9.868e-21)
(0.265797 0.0304779 -4.21354e-21)
(0.451749 0.0698882 -6.00032e-21)
(0.636356 0.117263 2.02244e-20)
(0.810291 0.167882 5.77284e-23)
(0.964732 0.2169 -1.03054e-20)
(1.0932 0.260141 -4.1134e-20)
(1.19263 0.294842 3.90173e-21)
(1.26353 0.319837 4.45398e-21)
(1.3092 0.335389 1.94818e-20)
(1.33458 0.342757 2.8215e-21)
(1.34504 0.343689 -1.576e-20)
(1.3455 0.339991 1.45806e-20)
(1.33993 0.333236 -5.77074e-21)
(1.33119 0.324635 2.13743e-20)
(1.32115 0.315029 -1.90392e-21)
(1.3109 0.304959 1.08691e-21)
(1.30093 0.294736 9.05066e-22)
(1.29137 0.284417 -1.53641e-20)
(1.28205 0.274612 -9.15952e-21)
(0.0913107 0.00879966 -3.7659e-21)
(0.279003 0.0367629 -2.02953e-20)
(0.470607 0.0801255 1.56731e-20)
(0.658338 0.130801 -1.94745e-20)
(0.832827 0.183745 -3.43983e-20)
(0.985528 0.233959 2.93448e-20)
(1.11054 0.277312 4.72799e-20)
(1.20558 0.311261 1.65521e-20)
(1.27188 0.33495 1.12613e-20)
(1.31335 0.348947 -3.15839e-20)
(1.33527 0.354756 2.36918e-20)
(1.34313 0.354283 2.70169e-21)
(1.34181 0.3494 -2.87833e-20)
(1.33512 0.341682 1.10256e-20)
(1.32575 0.332309 3.84719e-20)
(1.3154 0.32208 -2.58907e-20)
(1.30503 0.311496 -7.2573e-21)
(1.29506 0.300833 -6.89842e-21)
(1.28555 0.290126 3.12997e-20)
(1.27627 0.280042 1.77216e-20)
(0.0964752 0.0110986 2.58559e-20)
(0.292033 0.0435248 -4.13407e-20)
(0.488999 0.0909684 -5.88307e-20)
(0.679489 0.144946 2.58748e-21)
(0.854164 0.200118 -1.02806e-20)
(1.00483 0.251371 -4.0351e-20)
(1.12623 0.294669 -6.57336e-21)
(1.21685 0.327725 1.98701e-20)
(1.27867 0.350008 -3.12428e-20)
(1.31614 0.362399 2.50142e-20)
(1.33484 0.366638 2.84514e-20)
(1.34034 0.36477 -1.75206e-20)
(1.33744 0.358721 7.01637e-21)
(1.32979 0.35006 3.48608e-20)
(1.3199 0.33993 -4.5593e-20)
(1.30932 0.329086 7.8181e-21)
(1.29889 0.31799 2.09032e-20)
(1.28894 0.306885 -6.24217e-21)
(1.2795 0.295788 -6.47765e-21)
(1.27029 0.28542 -1.08158e-21)
(0.101608 0.0135984 3.82899e-20)
(0.304832 0.0507534 6.65631e-20)
(0.506853 0.102392 3.44955e-20)
(0.699735 0.15966 -4.03012e-20)
(0.874241 0.216951 1.02816e-19)
(1.0226 0.269084 1.55032e-20)
(1.14025 0.312164 -4.18277e-20)
(1.22648 0.344193 -2.94931e-20)
(1.28395 0.364983 -2.31583e-20)
(1.31763 0.375727 7.55297e-21)
(1.33334 0.37839 -2.49395e-20)
(1.33672 0.375141 7.89621e-22)
(1.33243 0.367947 -1.62314e-20)
(1.32396 0.358362 -2.16937e-20)
(1.31365 0.347488 -3.64114e-21)
(1.30291 0.336036 -2.20482e-21)
(1.29246 0.32443 -3.87149e-20)
(1.28258 0.31288 2.87083e-20)
(1.27325 0.30139 -4.28605e-20)
(1.26412 0.290735 -2.476e-20)
(0.106687 0.0162968 -4.65097e-20)
(0.317348 0.0584353 -1.79033e-20)
(0.524098 0.114369 7.80193e-20)
(0.719004 0.174899 1.93255e-20)
(0.893005 0.234192 -6.48036e-20)
(1.03882 0.287045 -3.67938e-20)
(1.15263 0.329749 -1.20101e-20)
(1.23449 0.360626 7.58675e-20)
(1.28777 0.379848 5.30308e-20)
(1.31787 0.388913 -1.78018e-20)
(1.33084 0.389999 -1.01312e-20)
(1.3323 0.385386 2.5009e-20)
(1.3268 0.377068 -2.66605e-20)
(1.31765 0.366578 1.20752e-20)
(1.30702 0.354974 5.14795e-21)
(1.29618 0.342919 -6.36121e-21)
(1.28576 0.330804 4.72006e-20)
(1.27598 0.318809 -1.95246e-20)
(1.26677 0.306924 3.86693e-20)
(1.25776 0.295978 -1.35391e-20)
(0.111692 0.0191903 -2.62473e-20)
(0.329531 0.0665541 -4.53184e-20)
(0.54067 0.126865 -7.01685e-20)
(0.737234 0.190619 4.14875e-20)
(0.910408 0.251789 2.23519e-20)
(1.05347 0.305201 -3.11575e-20)
(1.16336 0.347377 5.05172e-20)
(1.24093 0.376989 -7.62136e-20)
(1.29018 0.394575 -7.92703e-20)
(1.31693 0.401937 4.68131e-20)
(1.32739 0.401452 1.70888e-20)
(1.32713 0.395494 -1.85536e-20)
(1.32059 0.386076 2.76387e-20)
(1.31088 0.374699 2.12908e-20)
(1.30001 0.362375 -1.52599e-20)
(1.28913 0.349723 -5.10861e-21)
(1.27879 0.3371 -3.60911e-20)
(1.26913 0.324658 7.24464e-21)
(1.26008 0.312375 -2.96817e-20)
(1.2512 0.301138 -4.83238e-21)
(0.116601 0.0222742 2.18059e-20)
(0.341329 0.0750904 -3.57004e-20)
(0.556505 0.139847 6.36472e-20)
(0.754365 0.206769 1.05358e-19)
(0.926413 0.269685 -1.47955e-19)
(1.06654 0.323496 1.27347e-19)
(1.17247 0.365 3.34575e-20)
(1.24583 0.393243 -4.75089e-20)
(1.29124 0.409137 5.48539e-20)
(1.31486 0.41478 3.17121e-20)
(1.32302 0.412733 3.84469e-20)
(1.32124 0.405454 -6.51308e-20)
(1.31381 0.394958 -1.31911e-20)
(1.30365 0.382712 3.09187e-20)
(1.29263 0.369679 1.15333e-20)
(1.28176 0.356435 5.21357e-20)
(1.27153 0.343306 6.41183e-20)
(1.26204 0.330417 -1.54982e-20)
(1.25317 0.317734 2.64252e-20)
(1.24444 0.306204 2.94151e-20)
(0.121394 0.0255424 -6.39496e-21)
(0.352697 0.0840221 -8.30846e-20)
(0.571545 0.153275 -1.11336e-19)
(0.770347 0.223301 -1.42046e-19)
(0.940988 0.287825 -1.36683e-20)
(1.07802 0.341878 5.00045e-20)
(1.17998 0.382573 -9.24451e-21)
(1.24924 0.409353 1.59445e-20)
(1.29099 0.423508 -2.42649e-20)
(1.31169 0.427423 3.98402e-20)
(1.31778 0.42383 -5.92364e-20)
(1.31467 0.415253 7.56795e-20)
(1.30649 0.403702 4.24647e-20)
(1.296 0.390605 1.90169e-20)
(1.28488 0.376874 -2.77518e-20)
(1.27409 0.363044 -2.88876e-20)
(1.264 0.349411 -2.69975e-20)
(1.2547 0.336073 1.92541e-21)
(1.24604 0.322986 3.4424e-20)
(1.23749 0.311164 -3.58382e-20)
(0.12605 0.0289876 -1.13604e-20)
(0.363587 0.0933244 6.4582e-20)
(0.585738 0.167109 7.96004e-20)
(0.785134 0.24016 -1.22398e-20)
(0.954107 0.306152 3.54787e-20)
(1.08792 0.360293 9.42903e-21)
(1.18591 0.40005 -4.96084e-20)
(1.25119 0.425283 3.84697e-20)
(1.28948 0.437663 3.52942e-20)
(1.3075 0.439848 -5.98391e-20)
(1.31171 0.434727 9.44638e-20)
(1.30745 0.424876 -7.67756e-20)
(1.29865 0.412295 4.34657e-20)
(1.28791 0.398364 -6.17897e-20)
(1.27678 0.383947 8.91347e-20)
(1.2661 0.369536 -5.51292e-20)
(1.2562 0.3554 -1.58373e-20)
(1.24711 0.341613 -2.08703e-20)
(1.23868 0.328117 -4.3137e-20)
(1.23035 0.316008 6.47172e-22)
(0.13055 0.0326011 8.13373e-20)
(0.373958 0.10297 8.10395e-20)
(0.599033 0.181305 -1.14553e-19)
(0.798687 0.257293 -6.83338e-20)
(0.965754 0.324608 9.88808e-20)
(1.09624 0.378688 -3.85004e-20)
(1.19029 0.417386 5.52594e-20)
(1.25174 0.441 2.32624e-20)
(1.28676 0.451575 -5.28087e-20)
(1.3023 0.452034 -1.27994e-19)
(1.30484 0.445407 -2.21978e-20)
(1.29959 0.434311 -4.58715e-20)
(1.29031 0.420723 -6.6413e-20)
(1.27941 0.405976 5.25078e-21)
(1.26833 0.390882 -6.49845e-21)
(1.2578 0.375897 -6.28588e-21)
(1.24811 0.361262 4.94371e-20)
(1.23927 0.347026 3.49376e-20)
(1.2311 0.333114 3.75284e-21)
(1.22298 0.320726 1.97098e-20)
(0.134875 0.0363732 -1.96409e-20)
(0.383768 0.11293 1.44158e-19)
(0.611387 0.195817 5.46629e-20)
(0.810971 0.274644 1.08905e-19)
(0.975916 0.343135 3.4763e-20)
(1.103 0.397009 1.3025e-20)
(1.19317 0.434539 -8.04467e-20)
(1.25092 0.456469 -2.53142e-20)
(1.28287 0.465218 1.21943e-20)
(1.29616 0.463962 9.51436e-20)
(1.29722 0.455854 -3.04512e-20)
(1.29114 0.443541 3.68472e-20)
(1.28148 0.428971 7.64348e-20)
(1.27051 0.413425 1.70483e-20)
(1.25953 0.397667 -1.45105e-20)
(1.2492 0.382114 1.91495e-20)
(1.23975 0.366984 3.5742e-20)
(1.23118 0.352302 1.59869e-20)
(1.22329 0.337976 3.99356e-20)
(1.21534 0.325311 3.00119e-20)
(0.139007 0.040293 -5.1409e-20)
(0.39298 0.123171 -7.38009e-20)
(0.62276 0.210597 4.59887e-20)
(0.821961 0.292156 1.519e-20)
(0.984588 0.361677 2.95378e-20)
(1.1082 0.415204 -1.17626e-19)
(1.19456 0.451464 4.17606e-20)
(1.24879 0.471657 -8.81588e-20)
(1.27788 0.478568 -4.7973e-20)
(1.28911 0.475611 5.45341e-20)
(1.28887 0.466052 -5.68681e-21)
(1.2821 0.452552 3.34244e-21)
(1.27218 0.437024 -9.30602e-20)
(1.26122 0.420697 -3.68092e-20)
(1.25039 0.404286 2.97028e-20)
(1.24029 0.388172 -5.07719e-20)
(1.23112 0.372553 -2.66736e-20)
(1.22285 0.357431 -2.63107e-20)
(1.21525 0.34272 -4.50252e-20)
(1.20742 0.329754 -1.01911e-19)
(0.142927 0.0443488 2.99117e-20)
(0.40156 0.133661 -3.48274e-20)
(0.633116 0.225595 -1.86566e-19)
(0.831635 0.30977 9.86356e-20)
(0.991768 0.380175 -1.20003e-19)
(1.11188 0.433223 -1.67567e-20)
(1.19451 0.468121 -1.57815e-19)
(1.24537 0.486531 1.6415e-19)
(1.27181 0.4916 9.15595e-20)
(1.28119 0.486963 -5.23485e-21)
(1.27983 0.475982 3.13193e-20)
(1.27251 0.461326 -3.87656e-20)
(1.26242 0.444865 -3.12029e-21)
(1.25154 0.427776 1.71788e-20)
(1.24091 0.410724 -1.73851e-20)
(1.23108 0.394057 3.20614e-20)
(1.22222 0.377954 -4.19067e-20)
(1.21427 0.362394 -3.6553e-20)
(1.207 0.347352 2.02791e-20)
(1.19936 0.334053 2.70791e-20)
(0.146621 0.0485277 6.8565e-20)
(0.409477 0.144365 6.46574e-20)
(0.642427 0.240761 4.88791e-20)
(0.839977 0.32743 -1.13766e-21)
(0.997463 0.398572 -3.12971e-20)
(1.11406 0.451014 2.06682e-19)
(1.19306 0.484467 1.14576e-19)
(1.24073 0.501059 7.62033e-20)
(1.26471 0.504288 1.05679e-19)
(1.27243 0.497996 1.27954e-20)
(1.27012 0.485627 -8.41718e-20)
(1.26237 0.469846 -8.96764e-21)
(1.25222 0.452479 -1.76066e-20)
(1.24148 0.434645 -5.58679e-20)
(1.23111 0.416965 -2.05171e-20)
(1.22158 0.399756 -2.80908e-20)
(1.21305 0.383176 8.603e-20)
(1.20545 0.367179 -1.15788e-21)
(1.19853 0.351811 2.31521e-20)
(1.19119 0.338211 1.82655e-20)
(0.150073 0.0528159 -2.30102e-20)
(0.416702 0.155245 -3.76485e-20)
(0.650668 0.256044 -8.02323e-20)
(0.846978 0.345077 -1.31987e-20)
(1.00168 0.416811 -1.28255e-19)
(1.11477 0.468529 -8.98577e-20)
(1.19025 0.500463 2.93024e-20)
(1.23491 0.51521 -2.07981e-19)
(1.25663 0.516607 -1.10161e-19)
(1.26288 0.50869 2.63483e-20)
(1.25977 0.494968 -1.3407e-20)
(1.25172 0.478096 7.48343e-20)
(1.24159 0.459848 9.9787e-20)
(1.23105 0.441289 2.46291e-20)
(1.22098 0.422994 6.55901e-20)
(1.21179 0.405251 -3.37163e-20)
(1.20362 0.388202 4.53371e-20)
(1.1964 0.37178 2.47742e-20)
(1.18983 0.356081 2.10717e-20)
(1.18285 0.34219 -3.96124e-20)
(0.153269 0.057199 3.47246e-20)
(0.423211 0.166265 -4.04786e-21)
(0.657819 0.27139 -1.24706e-19)
(0.852632 0.362651 -9.66551e-23)
(1.00444 0.434837 2.88634e-19)
(1.11403 0.485718 5.6764e-20)
(1.18612 0.516069 4.20081e-20)
(1.22794 0.528953 1.20614e-19)
(1.2476 0.528534 -9.56572e-20)
(1.25256 0.519023 -1.00425e-19)
(1.24881 0.503987 -1.14033e-21)
(1.24057 0.486057 -6.82687e-20)
(1.23054 0.466955 -3.70755e-20)
(1.22026 0.447691 9.8073e-20)
(1.21053 0.428795 -2.51935e-20)
(1.20171 0.410529 1.68832e-21)
(1.19393 0.393017 -3.28712e-20)
(1.18712 0.37618 -4.90532e-20)
(1.18093 0.360153 2.9669e-21)
(1.17433 0.345977 4.50191e-20)
(0.156197 0.0616617 -1.67228e-19)
(0.428984 0.177384 9.79886e-20)
(0.663864 0.286746 2.14589e-19)
(0.856941 0.380097 6.61829e-20)
(1.00575 0.452594 -3.4083e-19)
(1.11189 0.502535 -1.37992e-19)
(1.18071 0.531248 -1.06019e-19)
(1.21988 0.542258 -3.79063e-20)
(1.23767 0.540044 1.2574e-19)
(1.24152 0.528976 1.32331e-20)
(1.23726 0.512664 -2.54086e-20)
(1.22894 0.493711 4.53619e-20)
(1.21909 0.473783 6.50591e-21)
(1.20913 0.453834 -1.1731e-19)
(1.19977 0.434352 3.4561e-20)
(1.19135 0.415574 4.50182e-20)
(1.18398 0.397609 2.117e-20)
(1.1776 0.380366 2.81286e-20)
(1.17183 0.364017 -4.8576e-20)
(1.16562 0.349562 -2.34041e-20)
(0.158845 0.0661881 -1.15279e-20)
(0.434001 0.188563 4.95801e-20)
(0.668794 0.302058 2.44896e-20)
(0.859909 0.397355 7.09714e-20)
(1.00565 0.470028 1.9049e-19)
(1.10837 0.518933 -1.21984e-19)
(1.17406 0.545961 -7.40789e-21)
(1.21077 0.555096 1.12807e-19)
(1.22688 0.551112 -1.3411e-19)
(1.22978 0.538528 4.29257e-20)
(1.22514 0.520981 1.08328e-19)
(1.21684 0.501041 2.41697e-20)
(1.20725 0.480315 -5.15212e-20)
(1.19765 0.459701 8.46797e-20)
(1.18871 0.439649 -9.67179e-20)
(1.18072 0.420372 3.01249e-21)
(1.17378 0.401963 -2.16666e-20)
(1.16785 0.384324 3.7268e-20)
(1.16253 0.367661 3.23337e-20)
(0.161204 0.0707619 2.1728e-20)
(0.438249 0.199763 7.96301e-20)
(0.672602 0.317275 7.74226e-20)
(0.861546 0.41437 -4.78597e-20)
(1.00415 0.487087 4.15174e-21)
(1.10353 0.534867 1.13393e-19)
(1.16623 0.560174 1.9728e-19)
(1.20065 0.567437 -1.96559e-20)
(1.21526 0.561716 1.82629e-20)
(1.21737 0.547657 -5.36101e-20)
(1.21249 0.528919 -1.11155e-19)
(1.2043 0.508027 1.75446e-20)
(1.19503 0.486532 6.03662e-20)
(1.18585 0.465276 -1.19969e-20)
(1.17735 0.444672 -9.63671e-21)
(1.16982 0.424908 -3.76374e-20)
(1.16334 0.406067 -6.35647e-21)
(1.15788 0.388041 -1.42644e-20)
(0.163264 0.0753662 -7.54243e-20)
(0.441718 0.210941 -1.82576e-19)
(0.675287 0.332342 -2.66317e-19)
(0.861868 0.431085 4.6943e-21)
(1.00129 0.50372 -1.57267e-21)
(1.09739 0.550295 -1.03374e-19)
(1.15726 0.57385 5.48737e-20)
(1.18957 0.579253 -5.78404e-20)
(1.20286 0.571831 1.07593e-19)
(1.20433 0.556344 1.05492e-19)
(1.19932 0.536457 4.61445e-20)
(1.19134 0.514653 -1.19496e-20)
(1.18244 0.492417 1.66892e-20)
(1.17372 0.470543 -4.17556e-20)
(1.16572 0.449404 6.95452e-20)
(1.15866 0.429169 -3.04403e-20)
(0.165018 0.0799838 8.19624e-20)
(0.444399 0.222058 2.47169e-19)
(0.676852 0.347206 9.56701e-20)
(0.860891 0.447446 -1.84016e-20)
(0.9971 0.519876 -1.00651e-19)
(1.09001 0.565174 -2.14716e-20)
(1.14719 0.586957 -2.6349e-20)
(1.17757 0.590518 -8.19734e-21)
(1.18971 0.581435 -3.17609e-20)
(1.19068 0.564567 -1.03465e-19)
(1.18566 0.543578 -8.32783e-20)
(1.17796 0.520898 5.88826e-20)
(1.16951 0.497954 -8.07283e-20)
(1.1613 0.475486 -3.84191e-21)
(1.1538 0.453832 2.07728e-20)
(0.166461 0.0845973 8.06975e-21)
(0.446288 0.233072 1.61563e-20)
(0.677304 0.361816 2.20384e-19)
(0.858639 0.4634 -1.21944e-19)
(0.991616 0.535507 2.82258e-19)
(1.08142 0.579464 1.25145e-19)
(1.13607 0.599462 -1.663e-19)
(1.16469 0.601205 -1.4979e-20)
(1.17584 0.590505 -1.28256e-19)
(1.17646 0.572307 -3.05151e-20)
(1.17153 0.550262 3.30304e-20)
(1.16419 0.526747 4.43165e-20)
(1.15624 0.503125 8.34564e-20)
(1.14857 0.480088 9.74631e-21)
(0.167588 0.0891891 6.57734e-20)
(0.447385 0.243943 -2.97584e-19)
(0.676655 0.37612 -6.52573e-20)
(0.855138 0.478893 -4.84218e-20)
(0.984877 0.550566 -1.77285e-19)
(1.07167 0.593126 -1.70631e-19)
(1.12395 0.611333 -5.20597e-20)
(1.15099 0.611289 -6.48238e-20)
(1.1613 0.59902 1.8003e-19)
(1.1617 0.579544 6.39664e-21)
(1.15695 0.556491 -1.09249e-19)
(1.15005 0.53218 -1.47481e-19)
(1.14265 0.507914 6.66797e-20)
(0.168397 0.0937414 5.28679e-21)
(0.447692 0.254631 4.39684e-20)
(0.674918 0.390069 -1.33352e-19)
(0.850417 0.493877 7.6885e-20)
(0.976924 0.565009 8.42165e-21)
(1.06082 0.606122 2.1398e-19)
(1.11088 0.62254 8.20999e-20)
(1.13649 0.620744 1.2711e-19)
(1.14613 0.606959 -8.10815e-20)
(1.14642 0.586258 1.4253e-19)
(1.14195 0.562247 9.1647e-20)
(1.13555 0.537181 1.85844e-20)
(0.168884 0.0982366 -1.33707e-19)
(0.447213 0.265096 3.03204e-19)
(0.672112 0.403614 1.57055e-19)
(0.844508 0.508302 5.68697e-20)
(0.9678 0.578793 -2.96469e-20)
(1.0489 0.618418 -1.77401e-19)
(1.0969 0.633055 2.57229e-20)
(1.12125 0.629547 -2.36448e-20)
(1.13035 0.614299 -8.46517e-20)
(1.13065 0.592431 -9.88637e-20)
(1.12656 0.567511 5.22605e-20)
(0.169052 0.102658 -2.87197e-20)
(0.445958 0.275298 -7.99338e-20)
(0.66826 0.416707 -1.80657e-19)
(0.837447 0.522122 -9.16748e-20)
(0.957552 0.591876 -1.0547e-19)
(1.03598 0.629981 9.09526e-20)
(1.08205 0.642848 -3.60443e-20)
(1.10531 0.637675 2.19264e-20)
(1.11401 0.621023 -1.3525e-20)
(1.11443 0.598044 -4.58556e-20)
(0.168899 0.106987 2.7179e-19)
(0.443935 0.285201 9.57712e-21)
(0.663385 0.429302 -7.99377e-20)
(0.829272 0.535291 7.46276e-20)
(0.946229 0.604218 -1.24758e-20)
(1.02209 0.640778 -3.35928e-20)
(1.06639 0.651899 -7.72476e-20)
(1.0887 0.645105 1.06153e-20)
(1.09714 0.627109 8.86493e-20)
(0.16843 0.11121 -6.0702e-20)
(0.441159 0.294768 6.71153e-20)
(0.657515 0.441355 1.79211e-20)
(0.820028 0.547767 1.58814e-19)
(0.93388 0.615787 -2.15977e-20)
(1.00728 0.650773 -9.81644e-20)
(1.04997 0.660179 1.72428e-19)
(1.07148 0.651818 5.59622e-21)
(0.167648 0.11531 -2.53711e-19)
(0.437644 0.303963 -6.9012e-21)
(0.650683 0.452821 1.51865e-19)
(0.80976 0.559508 -1.72488e-20)
(0.920542 0.626543 2.28025e-19)
(0.991605 0.659946 6.71353e-23)
(1.03284 0.667663 -1.83487e-19)
(0.166556 0.119273 1.52004e-19)
(0.433409 0.312752 -1.19192e-19)
(0.642925 0.46366 -1.78868e-19)
(0.798503 0.570477 -2.815e-20)
(0.906267 0.636453 -1.51053e-19)
(0.975133 0.668268 6.63235e-20)
(0.16516 0.123083 -5.95259e-20)
(0.428476 0.321103 7.73786e-20)
(0.634281 0.473838 -2.29803e-20)
(0.786292 0.58063 -2.86947e-20)
(0.891117 0.645489 5.56832e-21)
(0.163466 0.126726 -9.53661e-20)
(0.422869 0.328978 -9.163e-20)
(0.624776 0.483318 1.96395e-19)
(0.773188 0.589943 5.60527e-20)
(0.875153 0.653617 1.39171e-20)
(0.161478 0.130184 1.17847e-19)
(0.41661 0.336352 1.77811e-19)
(0.614446 0.492052 -4.50829e-20)
(0.759252 0.598385 -4.33995e-20)
(0.159197 0.133432 -8.05607e-20)
(0.409739 0.343201 -1.39998e-19)
(0.603344 0.500018 -6.5234e-20)
(0.156641 0.136442 8.13438e-20)
(0.402291 0.349489 1.44226e-19)
(0.591512 0.507191 6.05555e-20)
(0.153842 0.13921 -4.24836e-20)
(0.394285 0.355176 1.32179e-21)
(0.150812 0.141741 4.01484e-20)
(0.147551 0.144022 9.24412e-21)
(0.149615 -0.145827 -6.16723e-20)
(0.153102 -0.14368 1.0575e-20)
(0.156365 -0.141276 -7.31433e-20)
(0.398651 -0.35798 -1.42591e-19)
(0.159394 -0.138628 1.28392e-19)
(0.407194 -0.35261 8.90335e-20)
(0.596479 -0.508671 -1.99743e-20)
(0.162188 -0.135749 -8.62796e-20)
(0.415193 -0.346636 -2.26317e-19)
(0.609003 -0.50189 -8.71061e-20)
(0.164739 -0.132636 1.29367e-19)
(0.422624 -0.340073 1.88547e-19)
(0.620827 -0.494304 -1.68714e-20)
(0.764524 -0.597815 -4.0509e-20)
(0.167012 -0.12929 -1.50834e-19)
(0.429473 -0.332963 -5.60101e-20)
(0.631913 -0.485942 9.80831e-20)
(0.77924 -0.589775 7.64597e-20)
(0.879452 -0.650172 4.71307e-20)
(0.168991 -0.125739 3.8657e-20)
(0.435707 -0.325344 -3.26019e-20)
(0.642219 -0.47683 8.49351e-20)
(0.793159 -0.580845 -1.12755e-19)
(0.896182 -0.642408 -8.47919e-21)
(0.961086 -0.669489 6.28484e-20)
(0.170675 -0.122012 2.8101e-19)
(0.441285 -0.317238 -1.55773e-19)
(0.65169 -0.466988 -2.07233e-19)
(0.80624 -0.571063 -8.51298e-20)
(0.912134 -0.633729 -1.15959e-19)
(0.979015 -0.66234 -5.65367e-21)
(0.17206 -0.118123 -1.48749e-19)
(0.446187 -0.308672 -5.79047e-21)
(0.660294 -0.456469 1.08224e-19)
(0.81842 -0.560463 1.42415e-20)
(0.92726 -0.624157 2.31436e-19)
(0.996232 -0.654302 -2.033e-20)
(1.03564 -0.659242 1.76335e-20)
(0.173142 -0.114089 -5.94586e-20)
(0.450391 -0.299683 2.60302e-20)
(0.66801 -0.445311 4.51602e-20)
(0.829634 -0.549064 1.03671e-19)
(0.941503 -0.613727 -6.46248e-20)
(1.01268 -0.645397 2.12869e-20)
(1.05343 -0.65195 1.56411e-19)
(1.07342 -0.641358 -1.56266e-20)
(0.173915 -0.109926 3.03143e-19)
(0.453876 -0.290306 -7.42967e-20)
(0.6748 -0.433545 -9.54971e-20)
(0.839856 -0.536912 5.09911e-20)
(0.954801 -0.602469 2.70997e-20)
(1.02832 -0.635652 -5.26303e-20)
(1.07054 -0.643851 -1.10627e-20)
(1.0912 -0.634747 -2.72895e-20)
(1.09845 -0.61503 2.73494e-20)
(0.174377 -0.105646 -1.35112e-19)
(0.456623 -0.280574 1.53768e-20)
(0.680628 -0.421214 -1.4546e-19)
(0.849051 -0.524048 -1.84298e-19)
(0.967105 -0.590417 -7.07438e-20)
(1.0431 -0.625099 -5.03087e-21)
(1.08693 -0.634965 8.25621e-20)
(1.1084 -0.627404 -5.80305e-20)
(1.1158 -0.608963 1.61835e-20)
(1.1153 -0.584678 1.07258e-19)
(0.174523 -0.101267 -1.41103e-19)
(0.45862 -0.270522 2.91009e-19)
(0.685462 -0.40836 1.69254e-19)
(0.857175 -0.510512 7.1666e-20)
(0.978375 -0.577609 -2.55889e-20)
(1.05694 -0.613757 -1.46935e-19)
(1.10255 -0.625318 -8.34162e-20)
(1.12498 -0.61935 -3.72251e-20)
(1.13265 -0.602242 -4.5414e-20)
(1.13192 -0.579013 -1.54188e-19)
(1.12708 -0.553095 8.0646e-20)
(0.174352 -0.0968032 2.56175e-20)
(0.459854 -0.260187 -4.01362e-20)
(0.689278 -0.395031 3.00172e-20)
(0.864188 -0.496348 -7.09142e-20)
(0.988569 -0.56408 1.41118e-19)
(1.06981 -0.601666 2.28312e-19)
(1.11735 -0.61494 6.5802e-20)
(1.14088 -0.610602 1.59119e-19)
(1.14895 -0.594885 -7.86733e-20)
(1.14811 -0.57277 1.70618e-19)
(1.14282 -0.547721 3.50447e-20)
(1.13576 -0.521875 1.40114e-19)
(0.173864 -0.0922715 -9.06392e-20)
(0.460316 -0.249605 -1.94352e-19)
(0.692052 -0.381271 -1.45015e-19)
(0.870052 -0.4816 4.21832e-20)
(0.99764 -0.549871 -2.10699e-19)
(1.08167 -0.588859 -2.36223e-19)
(1.13128 -0.603851 -2.57203e-20)
(1.15608 -0.601184 -5.78808e-20)
(1.16469 -0.586913 1.85155e-19)
(1.16384 -0.565965 -4.05243e-20)
(1.15817 -0.541835 -1.09162e-19)
(1.15055 -0.516718 -1.66903e-19)
(1.14253 -0.491826 -9.75339e-20)
(0.173059 -0.0876889 -7.2198e-20)
(0.460001 -0.238816 -5.39358e-20)
(0.693765 -0.367128 2.22098e-19)
(0.874734 -0.466317 -1.30364e-19)
(1.00554 -0.535024 3.12965e-19)
(1.09247 -0.575369 1.20332e-19)
(1.14429 -0.592079 -7.14519e-20)
(1.17052 -0.59112 -1.10066e-19)
(1.17981 -0.578345 -1.5272e-19)
(1.17907 -0.558618 6.0835e-20)
(1.17312 -0.535455 1.00062e-20)
(1.16499 -0.511107 5.36934e-20)
(1.15637 -0.486844 1.06146e-19)
(1.1481 -0.463298 2.15177e-20)
(0.171939 -0.0830726 1.43074e-19)
(0.458903 -0.227859 2.16329e-19)
(0.6944 -0.35265 1.00054e-20)
(0.878203 -0.450548 1.19998e-19)
(1.01223 -0.519582 -2.73355e-19)
(1.10216 -0.561229 6.24847e-20)
(1.15635 -0.579656 -3.92168e-20)
(1.18416 -0.580435 -8.0576e-21)
(1.19429 -0.569204 -5.79134e-20)
(1.19377 -0.550747 -1.08532e-19)
(1.18764 -0.528597 -2.52523e-20)
(1.17907 -0.505058 5.36856e-20)
(1.16989 -0.481457 -1.51462e-19)
(1.16102 -0.458473 3.63814e-20)
(1.15291 -0.436406 -6.7551e-20)
(0.170507 -0.07844 -2.55735e-20)
(0.457021 -0.216774 -3.31962e-19)
(0.693943 -0.337889 -2.45907e-19)
(0.880432 -0.434342 -1.47555e-20)
(1.01768 -0.503591 4.98306e-20)
(1.11069 -0.54648 -8.80095e-20)
(1.1674 -0.566613 -2.17758e-21)
(1.19697 -0.569154 2.24901e-20)
(1.20809 -0.559509 3.02955e-20)
(1.20793 -0.542372 1.63466e-19)
(1.2017 -0.521281 6.0748e-20)
(1.19277 -0.498589 -1.28277e-20)
(1.18308 -0.475682 1.41774e-20)
(1.17365 -0.453285 -1.73098e-20)
(1.16498 -0.431731 7.34883e-20)
(1.15728 -0.41117 3.0011e-20)
(0.168767 -0.0738082 4.75042e-20)
(0.454359 -0.2056 1.77614e-19)
(0.692386 -0.322893 1.04767e-19)
(0.881397 -0.417752 -1.90248e-19)
(1.02183 -0.487098 3.7576e-20)
(1.11802 -0.531161 2.10146e-19)
(1.17741 -0.55298 1.05137e-19)
(1.2089 -0.557303 1.17735e-20)
(1.22117 -0.549283 1.04747e-19)
(1.2215 -0.533513 -1.93059e-19)
(1.21529 -0.513525 -4.9016e-20)
(1.20606 -0.491718 -1.87792e-20)
(1.19593 -0.469535 1.03022e-19)
(1.18598 -0.447749 -2.99545e-20)
(1.17678 -0.426729 -2.31397e-21)
(1.16855 -0.406642 -4.45488e-20)
(1.16138 -0.387551 -1.46809e-20)
(1.15521 -0.369331 -7.35103e-20)
(0.166727 -0.0691944 -4.42262e-20)
(0.45092 -0.194378 -2.56873e-20)
(0.689724 -0.307715 -6.42696e-20)
(0.881078 -0.400832 1.9764e-19)
(1.02467 -0.470151 1.27417e-19)
(1.12411 -0.515312 -3.59152e-20)
(1.18632 -0.538792 -5.68308e-21)
(1.2199 -0.544909 1.19632e-19)
(1.23349 -0.53855 -1.69536e-19)
(1.23446 -0.524189 9.09281e-20)