/*--------------------------------*- C++ -*----------------------------------*\
  =========                 |
  \\      /  F ield         | OpenFOAM: The Open Source CFD Toolbox
   \\    /   O peration     | Website:  https://openfoam.org
    \\  /    A nd           | Version:  7
     \\/     M anipulation  |
\*---------------------------------------------------------------------------*/
FoamFile
{
    version     2.0;
    format      ascii;
    class       volScalarField;
    location    "240";
    object      p;
}
// * * * * * * * * * * * * * * * * * * * * * * * * * * * * * * * * * * * * * //

dimensions      [0 2 -2 0 0 0 0];

internalField   nonuniform List<scalar> 
4575
(
-0.376734
-0.305301
-0.244397
-0.200281
-0.174003
-0.162681
-0.164469
-0.180569
-0.207486
-0.232217
-0.238838
-0.221511
-0.188662
-0.153123
-0.123354
-0.102465
-0.0908271
-0.0870528
-0.0898837
-0.100592
-0.119714
-0.141458
-0.155127
-0.367182
-0.298413
-0.240051
-0.198056
-0.17359
-0.1638
-0.167097
-0.18486
-0.213257
-0.238737
-0.244965
-0.22646
-0.192214
-0.155436
-0.12471
-0.103063
-0.0907391
-0.0863266
-0.0885231
-0.0984815
-0.116794
-0.137878
-0.151328
-0.357114
-0.29112
-0.23539
-0.195574
-0.172952
-0.164704
-0.169522
-0.188944
-0.218811
-0.245022
-0.250857
-0.231212
-0.195612
-0.157631
-0.125971
-0.103582
-0.0905852
-0.085543
-0.0871113
-0.0963215
-0.113823
-0.13425
-0.147487
-0.34655
-0.283427
-0.230408
-0.192821
-0.172071
-0.165373
-0.171721
-0.192794
-0.224121
-0.251045
-0.2565
-0.235757
-0.198853
-0.159709
-0.127138
-0.104026
-0.0903701
-0.0847074
-0.0856545
-0.0941194
-0.110809
-0.130581
-0.14361
-0.335516
-0.275341
-0.225101
-0.189788
-0.17093
-0.165786
-0.173669
-0.196385
-0.22916
-0.256785
-0.261878
-0.240086
-0.201933
-0.161668
-0.128216
-0.104398
-0.0900983
-0.0838249
-0.0841586
-0.0918829
-0.107761
-0.126881
-0.139703
-0.324037
-0.266874
-0.219469
-0.186464
-0.169513
-0.165926
-0.175343
-0.19969
-0.233903
-0.262217
-0.266976
-0.244192
-0.204849
-0.163512
-0.129207
-0.104704
-0.0897747
-0.082901
-0.0826297
-0.0896193
-0.104686
-0.123156
-0.135775
-0.312143
-0.258038
-0.213511
-0.182841
-0.167805
-0.165772
-0.176723
-0.202687
-0.238325
-0.267322
-0.271783
-0.248068
-0.2076
-0.165239
-0.130113
-0.104946
-0.0894042
-0.0819409
-0.0810736
-0.0873359
-0.101593
-0.119415
-0.13183
-0.299864
-0.248848
-0.207228
-0.178912
-0.165794
-0.165309
-0.177787
-0.205353
-0.242403
-0.272081
-0.276284
-0.251707
-0.210183
-0.166854
-0.130939
-0.105129
-0.0889913
-0.0809498
-0.0794963
-0.0850396
-0.0984896
-0.115666
-0.127874
-0.287233
-0.239319
-0.200625
-0.174671
-0.163466
-0.164521
-0.178518
-0.207669
-0.246116
-0.276477
-0.280471
-0.255104
-0.212598
-0.168356
-0.131689
-0.105257
-0.088541
-0.079933
-0.0779032
-0.0827374
-0.0953834
-0.111916
-0.123915
-0.274284
-0.229471
-0.193706
-0.170114
-0.160811
-0.163395
-0.178899
-0.209616
-0.249445
-0.280494
-0.284332
-0.258255
-0.214844
-0.169748
-0.132364
-0.105336
-0.0880579
-0.0788956
-0.0763
-0.0804358
-0.0922816
-0.108172
-0.119958
-0.261054
-0.219325
-0.186477
-0.165238
-0.15782
-0.161918
-0.178915
-0.211179
-0.252373
-0.28412
-0.287861
-0.261157
-0.216921
-0.171032
-0.132971
-0.105368
-0.0875466
-0.0778425
-0.0746919
-0.0781412
-0.0891915
-0.104441
-0.116008
-0.116914
-0.247577
-0.208902
-0.178948
-0.160044
-0.154487
-0.160081
-0.178553
-0.212343
-0.254886
-0.287343
-0.291051
-0.263806
-0.218828
-0.17221
-0.133511
-0.105358
-0.0870117
-0.0767786
-0.073084
-0.0758596
-0.0861199
-0.100729
-0.112071
-0.113292
-0.233889
-0.198226
-0.171126
-0.154531
-0.150806
-0.157875
-0.177804
-0.213099
-0.256971
-0.290153
-0.293896
-0.2662
-0.220568
-0.173286
-0.133989
-0.105311
-0.0864575
-0.0757086
-0.0714813
-0.0735967
-0.0830734
-0.0970435
-0.108152
-0.109678
-0.220022
-0.187323
-0.163025
-0.148703
-0.146774
-0.155295
-0.17666
-0.213436
-0.258619
-0.292543
-0.296392
-0.268339
-0.22214
-0.174262
-0.134409
-0.105231
-0.0858883
-0.074637
-0.0698884
-0.071358
-0.0800583
-0.0933896
-0.104258
-0.106073
-0.206008
-0.176217
-0.154654
-0.142562
-0.14239
-0.152338
-0.175116
-0.213349
-0.259822
-0.294509
-0.298536
-0.270222
-0.223546
-0.17514
-0.134774
-0.105121
-0.0853083
-0.0735682
-0.06831
-0.0691486
-0.0770807
-0.0897734
-0.100392
-0.102496
-0.191874
-0.164936
-0.146028
-0.136116
-0.137655
-0.149003
-0.17317
-0.212835
-0.260577
-0.296046
-0.300326
-0.271849
-0.224788
-0.175923
-0.135088
-0.104985
-0.0847213
-0.0725064
-0.0667502
-0.0669733
-0.0741463
-0.0862005
-0.0965613
-0.0989363
-0.177654
-0.153505
-0.137161
-0.12937
-0.132572
-0.145291
-0.170823
-0.211893
-0.26088
-0.297154
-0.301762
-0.27322
-0.225868
-0.176615
-0.135355
-0.104829
-0.0841312
-0.0714555
-0.0652132
-0.0648366
-0.0712606
-0.0826762
-0.0927693
-0.0953478
-0.1634
-0.141949
-0.128069
-0.122335
-0.127147
-0.141206
-0.168077
-0.210524
-0.260734
-0.297833
-0.302845
-0.274337
-0.226787
-0.177218
-0.135577
-0.104654
-0.0835416
-0.0704193
-0.0637026
-0.0627425
-0.0684287
-0.0792055
-0.0890213
-0.0917806
-0.149178
-0.130292
-0.118767
-0.115021
-0.121387
-0.136755
-0.164938
-0.208734
-0.26014
-0.298086
-0.303575
-0.275201
-0.227549
-0.177734
-0.13576
-0.104465
-0.0829559
-0.0694013
-0.062222
-0.0606948
-0.0656552
-0.0757933
-0.0853223
-0.0882482
-0.13499
-0.118557
-0.109274
-0.10744
-0.115301
-0.131948
-0.161416
-0.206529
-0.259104
-0.297916
-0.303957
-0.275816
-0.228157
-0.178168
-0.135905
-0.104265
-0.0823772
-0.0684047
-0.0607749
-0.0586969
-0.0629446
-0.0724441
-0.0816772
-0.0847582
-0.120639
-0.106769
-0.0996075
-0.0996047
-0.108904
-0.126795
-0.157521
-0.203918
-0.257635
-0.297331
-0.303993
-0.276183
-0.228611
-0.178521
-0.136017
-0.104057
-0.0818086
-0.0674327
-0.0593642
-0.0567521
-0.0603009
-0.0691624
-0.0780907
-0.0813136
-0.106496
-0.0949554
-0.0897895
-0.0915325
-0.102208
-0.121311
-0.153265
-0.200914
-0.255742
-0.296337
-0.30369
-0.276306
-0.228917
-0.178797
-0.136097
-0.103845
-0.0812529
-0.066488
-0.0579928
-0.0548631
-0.0577277
-0.0659522
-0.0745671
-0.0779146
-0.0926491
-0.0831407
-0.0798426
-0.0832406
-0.0952306
-0.115512
-0.148666
-0.19753
-0.253438
-0.294944
-0.303051
-0.276189
-0.229075
-0.178998
-0.136149
-0.103631
-0.0807127
-0.0655732
-0.0566633
-0.0530324
-0.0552282
-0.0628173
-0.0711103
-0.0745634
-0.0791158
-0.0713556
-0.0697917
-0.0747491
-0.0879919
-0.109417
-0.14374
-0.193781
-0.250736
-0.293161
-0.302084
-0.275834
-0.22909
-0.179127
-0.136175
-0.103419
-0.0801905
-0.0646905
-0.0553781
-0.0512623
-0.0528053
-0.0597613
-0.067724
-0.0712627
-0.0657412
-0.0596359
-0.0596638
-0.0660804
-0.0805131
-0.103047
-0.138507
-0.189685
-0.247652
-0.291002
-0.300795
-0.275246
-0.228964
-0.179186
-0.136178
-0.103209
-0.0796884
-0.063842
-0.0541393
-0.0495547
-0.0504613
-0.0567874
-0.0644117
-0.0680158
-0.0480431
-0.0494887
-0.0572596
-0.0728186
-0.0964251
-0.132988
-0.185261
-0.244202
-0.288478
-0.299192
-0.274429
-0.228699
-0.179178
-0.13616
-0.103005
-0.0792086
-0.0630295
-0.0529487
-0.0479112
-0.0481985
-0.0538984
-0.0611767
-0.0648266
-0.0366583
-0.0392982
-0.048315
-0.0649351
-0.0895757
-0.127205
-0.180528
-0.240405
-0.285604
-0.297284
-0.273387
-0.2283
-0.179104
-0.136123
-0.10281
-0.0787528
-0.0622546
-0.051808
-0.0463333
-0.0460185
-0.0510968
-0.0580219
-0.0616988
-0.025464
-0.0291279
-0.0392774
-0.0568915
-0.082526
-0.121183
-0.175508
-0.23628
-0.282393
-0.295078
-0.272125
-0.227767
-0.178968
-0.136069
-0.102624
-0.0783227
-0.0615186
-0.0507187
-0.044822
-0.0439227
-0.0483848
-0.0549502
-0.0586362
-0.0145336
-0.0190157
-0.0301816
-0.0487195
-0.0753045
-0.114945
-0.170222
-0.231847
-0.278861
-0.292584
-0.270647
-0.227105
-0.178771
-0.136
-0.102449
-0.07792
-0.0608226
-0.0496818
-0.0433785
-0.0419122
-0.045764
-0.0519641
-0.0556423
-0.00391195
-0.00901085
-0.0210656
-0.040453
-0.067941
-0.108519
-0.164693
-0.227125
-0.275023
-0.289809
-0.268957
-0.226316
-0.178515
-0.135916
-0.102288
-0.0775459
-0.0601674
-0.0486983
-0.0420032
-0.0399878
-0.0432356
-0.0490657
-0.0527205
0.00632124
0.000830352
-0.0119712
-0.0321282
-0.0604669
-0.101929
-0.158944
-0.222136
-0.270895
-0.286764
-0.267059
-0.225401
-0.1782
-0.135819
-0.10214
-0.0772009
-0.0595535
-0.0477686
-0.0406965
-0.0381499
-0.0408006
-0.0462568
-0.0498742
0.0160799
0.0104466
-0.00294426
-0.0237834
-0.0529143
-0.0952017
-0.152997
-0.2169
-0.26649
-0.283455
-0.264958
-0.224362
-0.177829
-0.135709
-0.102007
-0.0768867
-0.0589816
-0.0468934
-0.0394591
-0.0363992
-0.0384598
-0.0435391
-0.0471064
0.0252821
0.0197713
0.00596561
-0.0154591
-0.0453164
-0.0883647
-0.146875
-0.211437
-0.261825
-0.27989
-0.262656
-0.223203
-0.177406
-0.135592
-0.101894
-0.076607
-0.0584544
-0.0460746
-0.0382922
-0.0347366
-0.0362141
-0.0409142
-0.0444206
0.0338473
0.028732
0.0147042
-0.0071975
-0.0377067
-0.0814437
-0.140599
-0.205764
-0.256908
-0.27607
-0.260155
-0.221927
-0.176935
-0.135471
-0.101804
-0.0763644
-0.0579731
-0.0453127
-0.0371957
-0.0331615
-0.0340624
-0.038382
-0.0418196
0.0416939
0.037255
0.0232144
0.00095698
-0.0301198
-0.0744653
-0.134191
-0.199898
-0.251752
-0.272007
-0.257461
-0.220531
-0.176404
-0.13533
-0.101719
-0.0761442
-0.0575258
-0.0445979
-0.036162
-0.0316678
-0.0319991
-0.0359365
-0.0393001
0.0487817
0.0452778
0.0314395
0.00895778
-0.0225932
-0.0674598
-0.127679
-0.193869
-0.246393
-0.267743
-0.254591
-0.218997
-0.175771
-0.135122
-0.101602
-0.0759174
-0.0570914
-0.0439154
-0.035181
-0.0302501
-0.0300222
-0.0335732
-0.0368543
0.0550223
0.0527122
0.0393093
0.0167584
-0.0151598
-0.0604537
-0.121086
-0.187701
-0.24085
-0.263269
-0.251533
-0.217332
-0.175074
-0.134904
-0.10151
-0.0757373
-0.0567154
-0.0433026
-0.0342852
-0.0289385
-0.0281631
-0.0313263
-0.0345141
0.0593209
0.0466834
0.0243057
-0.00780664
-0.0533846
-0.114293
-0.181177
-0.234805
-0.258244
-0.248177
-0.215682
-0.174615
-0.13501
-0.10174
-0.0758396
-0.0565749
-0.0428925
-0.0335743
-0.027801
-0.0264716
-0.029264
-0.0323868
0.0650076
0.0534453
0.0314808
-0.000595123
-0.0462061
-0.107102
-0.173944
-0.227871
-0.252427
-0.244496
-0.21413
-0.17447
-0.135471
-0.102284
-0.0761868
-0.0566114
-0.0426144
-0.0329652
-0.0267293
-0.0248053
-0.0272322
-0.0303749
0.0711995
0.0601727
0.0380987
0.00558633
-0.0404041
-0.101545
-0.168648
-0.222996
-0.248199
-0.241124
-0.211766
-0.172888
-0.13437
-0.101425
-0.0753763
-0.0557229
-0.0415942
-0.0317535
-0.0251743
-0.0226759
-0.0245758
-0.0275661
0.0896969
0.078517
0.0545973
0.0182756
-0.0327456
-0.0993472
-0.170858
-0.226531
-0.249817
-0.238119
-0.206205
-0.166591
-0.128479
-0.0963144
-0.0709875
-0.0518066
-0.0378471
-0.0280122
-0.0212452
-0.0177659
-0.0178031
-0.0189399
-0.0186232
0.0947773
0.0861782
0.0629865
0.0261629
-0.0256035
-0.0906369
-0.157172
-0.207096
-0.226823
-0.21756
-0.188559
-0.152602
-0.117978
-0.0885539
-0.0650677
-0.04695
-0.0335293
-0.0237859
-0.0167077
-0.0125818
-0.0120386
-0.0132534
-0.0136388
0.0965472
0.088164
0.0649838
0.0283771
-0.0218832
-0.0832179
-0.14469
-0.190121
-0.207389
-0.198107
-0.171699
-0.139238
-0.107894
-0.0810004
-0.0592253
-0.0421309
-0.0292226
-0.019637
-0.0124349
-0.0078119
-0.0065175
-0.00730299
-0.00762503
0.0927475
0.0851927
0.0628341
0.0273966
-0.0203674
-0.0772916
-0.132968
-0.17259
-0.18687
-0.177845
-0.15429
-0.125574
-0.0976771
-0.073417
-0.0534292
-0.0374163
-0.0250681
-0.0157099
-0.0084785
-0.00348211
-0.00152235
-0.00181109
-0.00217505
0.0845577
0.0781632
0.05746
0.0242908
-0.0198462
-0.0711835
-0.119951
-0.15373
-0.165524
-0.157411
-0.137083
-0.112219
-0.0877118
-0.0659953
-0.0477537
-0.0328295
-0.021067
-0.0119917
-0.00482777
0.000406295
0.00289694
0.00299549
0.00255472
0.0739689
0.0688246
0.0503347
0.0203373
-0.0191412
-0.064023
-0.105777
-0.134304
-0.144228
-0.137526
-0.120522
-0.0993792
-0.0780899
-0.0587938
-0.042243
-0.0284084
-0.0172551
-0.00850446
-0.00148816
0.0038575
0.00674865
0.00717537
0.0066983
0.0624658
0.0586673
0.0427799
0.0165586
-0.0176861
-0.0559933
-0.0912138
-0.115192
-0.123829
-0.118769
-0.104961
-0.087266
-0.0689467
-0.0519006
-0.0369503
-0.0241855
-0.0136572
-0.00526012
0.00154505
0.00689373
0.0100684
0.0107811
0.0102794
0.0510203
0.0486143
0.0355231
0.0133426
-0.015613
-0.0477133
-0.0770613
-0.0972387
-0.105016
-0.101585
-0.0906556
-0.0760216
-0.060365
-0.0453719
-0.0319138
-0.0201851
-0.010292
-0.00226756
0.00428129
0.00954365
0.0128944
0.0138519
0.0133434
0.0402023
0.0391404
0.0288093
0.0105871
-0.013368
-0.0398564
-0.0640891
-0.0811012
-0.0882403
-0.0862213
-0.0777328
-0.0657206
-0.052397
-0.0392497
-0.0271648
-0.0164255
-0.0071712
0.000468116
0.00673293
0.0118389
0.0152701
0.0164336
0.015949
0.0302955
0.0304414
0.0226462
0.0080701
-0.0113678
-0.0329386
-0.0528343
-0.0671404
-0.0736749
-0.0727345
-0.0662149
-0.0563851
-0.0450677
-0.0335597
-0.0227256
-0.0129191
-0.00429999
0.0029455
0.0089139
0.0138134
0.0172442
0.0185747
0.0181522
0.0214105
0.0225801
0.017005
0.00564561
-0.00985
-0.0271962
-0.0434353
-0.0553864
-0.0612569
-0.0610475
-0.0560522
-0.047999
-0.0383809
-0.0283143
-0.0186109
-0.00967346
-0.00167788
0.00516742
0.0108387
0.0155016
0.0188679
0.0203241
0.0200012
0.0135679
0.0155695
0.0118738
0.00326397
-0.00886902
-0.0226082
-0.0357668
-0.045652
-0.050793
-0.0510095
-0.0471531
-0.0405212
-0.0323257
-0.0235154
-0.0148278
-0.00669195
0.000700145
0.00714131
0.0125213
0.0169366
0.020192
0.021732
0.0215364
0.00674363
0.00939669
0.00725356
0.000946239
-0.0083573
-0.0189949
-0.0296055
-0.0376703
-0.0420392
-0.0424401
-0.0394068
-0.0338963
-0.0268804
-0.0191566
-0.0113769
-0.00397431
0.00284229
0.0088791
0.0139758
0.0181485
0.0212644
0.0228512
0.0227951
0.000887994
0.00403254
0.00314966
-0.00125884
-0.00822651
-0.016112
-0.0247193
-0.0311633
-0.0347475
-0.0351564
-0.0326974
-0.0280611
-0.0220158
-0.0152249
-0.00825281
-0.00151695
0.00475873
0.0103963
0.0152168
0.0191629
0.0221284
0.0237338
0.0238182
-0.00406229
-0.000563264
-0.000438438
-0.00330189
-0.00843494
-0.0151373
-0.0209415
-0.0258752
-0.0286893
-0.0289865
-0.0269115
-0.0229492
-0.0176973
-0.0117025
-0.00544522
0.000686997
0.00646066
0.0117104
0.0162604
0.0200006
0.0228204
0.024428
0.0246508
-0.00817752
-0.00443943
-0.0035204
-0.00512273
-0.00866961
-0.0134195
-0.0178697
-0.0215656
-0.0236616
-0.0237746
-0.021942
-0.0184938
-0.0138874
-0.00856795
-0.0029401
0.00264743
0.00795983
0.0128396
0.0171251
0.0206785
0.0233693
0.0249746
0.0253368
-0.0115314
-0.0076504
-0.00611696
-0.00669978
-0.00892791
-0.0121634
-0.0153937
-0.0180475
-0.0194921
-0.0193823
-0.0176896
-0.0146298
-0.0105461
-0.00579725
-0.000720723
0.00437695
0.00926845
0.0138013
0.0178304
0.0212119
0.0237961
0.0254052
0.0259138
-0.0141983
-0.0102538
-0.00825656
-0.00802804
-0.00919096
-0.0112228
-0.0133983
-0.0151704
-0.016035
-0.0156884
-0.0140638
-0.0112943
-0.00763282
-0.00336451
0.0012314
0.0058902
0.0103993
0.0146113
0.018396
0.0216163
0.0241151
0.0257415
0.0264078
-0.0162515
-0.0123083
-0.00997256
-0.00910985
-0.00942725
-0.0104976
-0.011784
-0.0128117
-0.0131678
-0.0125869
-0.0109821
-0.00842809
-0.00510708
-0.00124278
0.0029358
0.00720308
0.011366
0.0152842
0.0188395
0.0219078
0.0243376
0.0259964
0.0268319
-0.017761
-0.0138719
-0.0113028
-0.00995606
-0.00960639
-0.00991344
-0.0104658
-0.0108708
-0.0107877
-0.00998594
-0.00837059
-0.00597574
-0.00292939
0.000595412
0.00441256
0.00833201
0.0121824
0.0158332
0.0191763
0.022102
0.0244736
0.0261772
0.0271894
-0.0187934
-0.0150001
-0.012286
-0.0105811
-0.00971339
-0.00941747
-0.00937413
-0.00926444
-0.00880789
-0.00780591
-0.00616292
-0.0038859
-0.00106183
0.00217737
0.00568195
0.00929343
0.0128626
0.0162707
0.0194194
0.0222127
0.0245329
0.0262876
0.0274768
-0.0194104
-0.0157459
-0.0129593
-0.0109996
-0.00973836
-0.0089724
-0.00845317
-0.00792417
-0.00715565
-0.00597813
-0.00430022
-0.00211148
0.000531507
0.00352976
0.00676404
0.0101035
0.0134203
0.0166085
0.01958
0.0222512
0.0245243
0.0263297
0.0276871
-0.0196695
-0.0161603
-0.0133539
-0.0112258
-0.00967577
-0.00855114
-0.00765862
-0.00679385
-0.00576991
-0.00444353
-0.00273038
-0.000609635
0.00188423
0.00467821
0.00767841
0.0107779
0.0138686
0.0168579
0.0196678
0.0222264
0.0244551
0.0263053
0.0278117
-0.0196234
-0.016288
-0.0135086
-0.011278
-0.00952501
-0.00813414
-0.00695549
-0.00582764
-0.00459961
-0.00315151
-0.0014076
0.000658316
0.00302747
0.00564701
0.00844388
0.0113315
0.0142199
0.017029
0.0196914
0.0221457
0.0243307
0.0262153
0.0278434
-0.0193213
-0.016162
-0.0134494
-0.0111738
-0.00928861
-0.00770781
-0.00631651
-0.00498831
-0.00360217
-0.00205884
-0.000291833
0.00172704
0.00398976
0.0064589
0.0090783
0.0117785
0.0144857
0.0171315
0.0196585
0.0220152
0.0241552
0.0260605
0.027779
-0.0188083
-0.01583
-0.013207
-0.0109312
-0.0089709
-0.00726302
-0.00572066
-0.00424579
-0.00274228
-0.00112884
0.000651771
0.00262739
0.00479705
0.00713493
0.00959841
0.0121322
0.0146766
0.017174
0.019576
0.0218402
0.0239319
0.0258428
0.027619
-0.0180776
-0.0153167
-0.0128081
-0.0105675
-0.00857784
-0.00679418
-0.00515197
-0.00357603
-0.00199079
-0.000330464
0.00145332
0.00338658
0.00547272
0.00769441
0.0100197
0.0124051
0.0148025
0.0171644
0.0194503
0.0216255
0.0236648
0.025565
0.0273677
-0.0172375
-0.0146623
-0.0122786
-0.0100996
-0.00811637
-0.00629843
-0.00459855
-0.0029599
-0.00132378
0.00036236
0.00213869
0.00402853
0.00603767
0.00815485
0.0103565
0.0126085
0.0148728
0.0171101
0.0192873
0.021376
0.0233577
0.0252323
0.0270335
-0.0162798
-0.0138911
-0.0116407
-0.00954263
-0.007594
-0.00577493
-0.00405183
-0.00238243
-0.000721798
0.000971405
0.00272995
0.00457401
0.0065104
0.00853205
0.0106218
0.012753
0.0148957
0.0170178
0.0190926
0.0210963
0.0230155
0.0248507
0.026627
-0.0152319
-0.0130261
-0.0109141
-0.00891103
-0.00701843
-0.0052244
-0.00350583
-0.00183201
-0.000169155
0.00151471
0.00324578
0.00504099
0.00690718
0.00884006
0.0108272
0.012848
0.0148789
0.0168939
0.0188712
0.0207913
0.0226435
0.0244277
0.0261606
-0.0141165
-0.0120877
-0.0101163
-0.00821797
-0.0063974
-0.00464866
-0.0029567
-0.00129987
0.000346654
0.00200709
0.0037019
0.00544484
0.00724218
0.00909135
0.0109834
0.0129022
0.0148296
0.0167442
0.0186284
0.0204657
0.0222472
0.0239714
0.0256476
-0.012953
-0.0110941
-0.0092631
-0.00747557
-0.00573849
-0.00405037
-0.00240225
-0.000779538
0.000835454
0.00246056
0.00411136
0.00579861
0.00752764
0.00929683
0.0110996
0.0129235
0.014754
0.016574
0.0183688
0.0201243
0.0218326
0.0234903
0.0251004
-0.0117598
-0.0100619
-0.00836863
-0.00669489
-0.00504905
-0.00343275
-0.00184159
-0.000266424
0.00130481
0.00288477
0.00448491
0.00611324
0.007774
0.00946596
0.0111842
0.0129187
0.0146582
0.0163883
0.018097
0.019772
0.0214054
0.0229923
0.0245307
-0.0105515
-0.0090052
-0.0074454
-0.005886
-0.00433606
-0.00279937
-0.00127485
0.000242524
0.00176041
0.00328732
0.00483126
0.00639785
0.00799012
0.00960689
0.0112443
0.0128941
0.0145472
0.0161917
0.0178174
0.0194132
0.0209712
0.0224851
0.0239488
-0.00934032
-0.00793612
-0.0065044
-0.005058
-0.00360616
-0.00215404
-0.00070293
0.000749122
0.00220638
0.00367408
0.00515738
0.00665986
0.00818337
0.00972653
0.011286
0.012855
0.0144258
0.0159885
0.0175339
0.0190522
0.0205352
0.0219754
0.023364
-0.00813676
-0.00686505
-0.00555525
-0.00421903
-0.0028655
-0.00150062
-0.000127295
0.0012542
0.00264555
0.00404943
0.00546873
0.00690528
0.00835984
0.00983068
0.0113148
0.0128061
0.0142982
0.0157823
0.0172503
0.0186929
0.020102
0.0214692
0.0227838
-0.0069497
-0.00580093
-0.00460631
-0.00337637
-0.00211983
-0.000843001
0.000450162
0.00175779
0.00307969
0.00441656
0.00576947
0.00713884
0.00852443
0.00992414
0.011335
0.0127515
0.014168
0.0155765
0.0169698
0.018339
0.0196759
0.0209715
0.0222144
-0.00578661
-0.00475137
-0.00366488
-0.0025365
-0.0013744
-0.000184959
0.00102727
0.00225935
0.00350972
0.0047776
0.00606267
0.00736418
0.00868106
0.0100108
0.0113503
0.0126945
0.0140382
0.0153741
0.0166954
0.0179936
0.0192605
0.020487
0.0216609
-0.00465365
-0.00372283
-0.00273725
-0.00170515
-0.000634048
0.000469843
0.00160168
0.00275785
0.00393585
0.00513385
0.00635045
0.007584
0.0088327
0.0100937
0.0113637
0.012638
0.0139115
0.0151775
0.0164294
0.0176594
0.0188589
0.0200189
0.0211276
-0.0035559
-0.00272073
-0.00182883
-0.00088736
9.68621e-05
0.00111793
0.00217094
0.00325193
0.00435779
0.00548592
0.00663416
0.00780018
0.0089816
0.0101753
0.0113777
0.0125843
0.01379
0.0149888
0.0161741
0.0173384
0.0184734
0.0195702
0.020617
-0.00249747
-0.0017496
-0.000944236
-8.75434e-05
0.000814372
0.00175601
0.00273259
0.00374001
0.0047748
0.00583388
0.00691454
0.00801394
0.0091293
0.0102572
0.0113939
0.012535
0.0136756
0.0148097
0.0159311
0.0170326
0.0181061
0.0191428
0.0201314
-0.00148167
-0.000813181
-8.73914e-05
0.000690443
0.00151493
0.00238102
0.00328418
0.00422033
0.00518583
0.00617733
0.00719175
0.00822594
0.00927676
0.0103406
0.0114137
0.0124916
0.0135694
0.0146415
0.0157017
0.0167432
0.0177582
0.0187382
0.0196724
-0.000511047
8.54891e-05
0.000738399
0.00144326
0.00219536
0.00299012
0.00382334
0.00469105
0.00558961
0.00651554
0.00746557
0.00843633
0.00942449
0.0104263
0.011438
0.0124549
0.0134725
0.0144851
0.015487
0.0164714
0.0174308
0.0183574
0.0192409
0.000412353
0.000943907
0.00153036
0.00216802
0.00285283
0.00358071
0.00434777
0.00515028
0.0059847
0.00684753
0.00773542
0.00864491
0.00957256
0.0105146
0.011467
0.0124255
0.0133854
0.0143413
0.0152875
0.0162177
0.0171247
0.018001
0.0188372
0.00128699
0.00176007
0.00228616
0.00286224
0.00348484
0.00415036
0.00485529
0.00559615
0.00636956
0.00717212
0.00800048
0.00885117
0.00972071
0.0106053
0.0115011
0.0124036
0.0133084
0.0142103
0.0151037
0.0159826
0.0168401
0.0176693
0.0184614
0.0021118
0.00253241
0.00300388
0.00352379
0.00408918
0.00469691
0.00534384
0.0060268
0.0067426
0.00748799
0.0082597
0.00905434
0.00986843
0.0106982
0.0115399
0.0123892
0.0132416
0.0140922
0.0149356
0.0157661
0.0165771
0.0173622
0.0181133
0.00288595
0.00325967
0.00368194
0.00415083
0.00466387
0.00521836
0.0058115
0.00644043
0.00710219
0.00779373
0.00851192
0.00925345
0.0100149
0.0107928
0.0115831
0.0123819
0.0131847
0.0139868
0.014783
0.015568
0.0163355
0.0170795
0.0177924
0.00360889
0.00394086
0.004319
0.00474178
0.00520717
0.00571288
0.00625644
0.00683528
0.00744672
0.00808789
0.00875583
0.00944741
0.0101593
0.0108881
0.01163
0.0123812
0.0131373
0.0138938
0.0146458
0.0153881
0.016115
0.0168206
0.0174982
0.00428027
0.00457522
0.00491394
0.00529526
0.00571753
0.00617881
0.00667695
0.00720968
0.00777456
0.00836895
0.00899009
0.009635
0.0103005
0.0109834
0.0116799
0.0123864
0.0130987
0.0138126
0.0145232
0.0152258
0.0159148
0.016585
0.0172299
0.00489982
0.00516211
0.00546581
0.00581005
0.00619352
0.00661459
0.00707143
0.007562
0.00808413
0.00863542
0.00921328
0.00981493
0.0104374
0.0110775
0.0117318
0.0123967
0.0130683
0.0137425
0.0144148
0.0150805
0.0157346
0.0163719
0.0169868
0.00546733
0.00570096
0.00597374
0.00628504
0.00663384
0.00701879
0.00743833
0.00789068
0.00837388
0.00888576
0.00942395
0.00998584
0.0105686
0.0111693
0.0117847
0.0124112
0.0130452
0.0136828
0.0143197
0.0149515
0.0155734
0.0161807
0.016768
0.0059826
0.00619124
0.00643691
0.00671917
0.00703724
0.00739002
0.00777617
0.00819417
0.00864225
0.00911847
0.00962064
0.0101464
0.010693
0.0112577
0.0118374
0.0124289
0.0130285
0.0136327
0.0142372
0.0148381
0.0154307
0.0160105
0.0165727
0.0064453
0.00663236
0.0068545
0.0071114
0.0074025
0.0077269
0.00808349
0.00847095
0.00888771
0.00933202
0.00980188
0.0102951
0.0108091
0.0113414
0.0118889
0.0124486
0.0130172
0.0135911
0.0141665
0.0147393
0.0153055
0.0158607
0.0164003
0.00685488
0.00702366
0.00722562
0.00746065
0.00772836
0.00802807
0.00835883
0.0087195
0.00910872
0.00952488
0.00996615
0.0104305
0.0109156
0.011419
0.0119379
0.0124694
0.0130103
0.0135573
0.0141066
0.0146546
0.0151972
0.0157305
0.01625
0.0072114
0.00736454
0.00754933
0.00776575
0.00801351
0.00829207
0.00860065
0.00893826
0.00930368
0.00969547
0.0101119
0.0105512
0.0110111
0.0114894
0.0119833
0.0124901
0.0130068
0.0135302
0.0140568
0.0145831
0.0151051
0.0156192
0.0161212
0.00751344
0.00765374
0.00782436
0.00802532
0.00825646
0.00851735
0.00880735
0.00912559
0.00947097
0.00984219
0.0102377
0.0106557
0.0110943
0.0115511
0.0120238
0.0125097
0.0130058
0.0135091
0.0140164
0.0145241
0.0150287
0.0155264
0.0160134
0.00775969
0.00788982
0.00804913
0.00823773
0.00845551
0.00870218
0.00897718
0.00927973
0.00960886
0.00996336
0.0103418
0.0107425
0.0111636
0.011603
0.0120584
0.012527
0.0130063
0.0134932
0.0139846
0.0144772
0.0149674
0.0154518
0.0159266
0.00794854
0.00807101
0.0082218
0.00840106
0.00860874
0.0088446
0.00910818
0.00939879
0.00971551
0.0100572
0.0104226
0.0108101
0.0112178
0.0116438
0.0120858
0.0125412
0.0130076
0.0134819
0.0139611
0.014442
0.0149212
0.0153953
0.0158607
0.00807763
0.00819497
0.00834002
0.00851296
0.0087138
0.00894234
0.00919816
0.00948063
0.00978889
0.0101219
0.0104784
0.0108567
0.0112553
0.0116721
0.012105
0.0125514
0.0130089
0.0134745
0.0139453
0.0144182
0.0148899
0.015357
0.0158159
0.00814412
0.00825882
0.00840094
0.00857065
0.00876799
0.00899277
0.0092446
0.0095229
0.00982682
0.0101553
0.0105072
0.0108809
0.0112748
0.0116869
0.012115
0.0125568
0.0130097
0.0134708
0.0139374
0.0144062
0.0148739
0.0153373
0.0157929
0.0184231
0.0183584
0.0183189
0.0183048
0.018316
0.0183524
0.0184135
0.0184984
0.0186064
0.0187361
0.0188863
0.0190553
0.0192412
0.0194422
0.0196562
0.0198809
0.0201142
0.0203537
0.0205973
0.0208426
0.0210875
0.0213299
0.0183544
0.0182922
0.0182556
0.0182448
0.0182597
0.0183001
0.0183653
0.0184547
0.0185673
0.0187017
0.0188567
0.0190304
0.0192209
0.0194264
0.0196447
0.0198735
0.0201106
0.0203536
0.0206003
0.0208485
0.0210958
0.0213403
0.0182208
0.0181635
0.0181327
0.0181284
0.0181504
0.0181985
0.018272
0.0183701
0.0184917
0.0186354
0.0187995
0.0189824
0.0191821
0.0193964
0.019623
0.0198598
0.0201042
0.020354
0.0206068
0.0208603
0.0211123
0.0213609
0.0180249
0.0179751
0.0179528
0.0179581
0.0179908
0.0180505
0.0181363
0.0182472
0.0183821
0.0185393
0.0187172
0.0189137
0.0191266
0.0193538
0.0195927
0.019841
0.0200962
0.0203557
0.0206173
0.0208786
0.0211373
0.0213916
0.0177688
0.0177289
0.017718
0.0177362
0.0177831
0.0178581
0.0179602
0.0180883
0.0182408
0.018416
0.0186119
0.0188262
0.0190567
0.0193007
0.0195557
0.019819
0.0200881
0.0203602
0.020633
0.0209042
0.0211714
0.0214329
0.017453
0.0174259
0.0174297
0.0174642
0.0175291
0.0176234
0.017746
0.0178955
0.0180701
0.0182677
0.018486
0.0187225
0.0189745
0.0192394
0.0195141
0.0197958
0.0200817
0.0203691
0.0206554
0.0209383
0.0212155
0.0214854
0.0170786
0.0170671
0.0170888
0.0171434
0.0172301
0.0173479
0.0174954
0.0176709
0.017872
0.0180966
0.0183418
0.0186049
0.0188827
0.0191723
0.0194702
0.0197736
0.0200792
0.0203842
0.020686
0.0209822
0.0212707
0.0215498
0.0166456
0.016653
0.0166961
0.0167745
0.0168873
0.0170332
0.0172102
0.0174163
0.0176489
0.0179052
0.0181821
0.0184761
0.018784
0.0191021
0.0194268
0.0197549
0.0200829
0.0204078
0.0207268
0.0210377
0.0213382
0.021627
0.0161541
0.0161834
0.0162517
0.0163583
0.0165017
0.0166804
0.016892
0.0171339
0.017403
0.017696
0.0180093
0.018339
0.0186811
0.0190317
0.0193868
0.0197426
0.0200954
0.0204421
0.0207799
0.0211063
0.0214195
0.0217181
0.0156017
0.0156573
0.0157554
0.0158949
0.0160741
0.0162908
0.0165423
0.0168254
0.0171365
0.0174715
0.0178263
0.0181965
0.0185773
0.0189644
0.0193532
0.0197396
0.0201196
0.0204898
0.0208474
0.02119
0.021516
0.0218242
0.0149881
0.0150743
0.015207
0.0153846
0.015605
0.0158655
0.0161628
0.016493
0.0168518
0.0172346
0.0176363
0.0180519
0.018476
0.0189036
0.0193295
0.0197493
0.0201585
0.0205537
0.0209319
0.0212909
0.0216292
0.0219463
0.0143116
0.0144335
0.014606
0.0148275
0.0150952
0.0154058
0.0157552
0.0161388
0.0165516
0.0169881
0.0174424
0.0179087
0.0183808
0.018853
0.0193194
0.0197752
0.0202155
0.0206367
0.0210358
0.0214109
0.0217609
0.0220855
0.0135706
0.0137335
0.0139519
0.0142236
0.0145452
0.0149127
0.0153212
0.0157652
0.0162387
0.0167354
0.0172484
0.0177708
0.0182958
0.0188166
0.0193269
0.0198211
0.0202941
0.0207421
0.0211621
0.0215524
0.0219125
0.0222429
0.0127632
0.012973
0.0132439
0.0135728
0.0139557
0.0143876
0.0148627
0.0153745
0.0159161
0.0164799
0.0170579
0.0176424
0.0182253
0.018799
0.0193563
0.0198912
0.0203981
0.020873
0.0213133
0.0217175
0.0220858
0.0224194
0.0118869
0.0121506
0.0124812
0.0128751
0.0133272
0.0138318
0.0143818
0.0149696
0.0155871
0.0162254
0.0168754
0.017528
0.0181739
0.0188047
0.0194122
0.0199898
0.0205314
0.0210332
0.0214925
0.0219085
0.0222822
0.0226158
0.0109395
0.0112645
0.0116629
0.0121303
0.0126606
0.0132468
0.0138807
0.0145534
0.0152553
0.0159761
0.0167053
0.0174324
0.0181468
0.0188389
0.0194997
0.0201216
0.0206985
0.0212263
0.0217026
0.0221275
0.022503
0.0228327
0.00991827
0.0103129
0.0107881
0.0113384
0.0119566
0.0126343
0.013362
0.0141292
0.0149246
0.0157365
0.0165527
0.0173609
0.0181494
0.0189072
0.019624
0.0202918
0.0209037
0.021456
0.0219466
0.0223767
0.0227495
0.0230704
0.00882039
0.00929392
0.00985579
0.0104993
0.0112161
0.0119962
0.0128284
0.0137005
0.0145994
0.0155115
0.0164228
0.0173194
0.0181877
0.0190154
0.019791
0.0205055
0.0211519
0.0217263
0.0222276
0.0226581
0.0230227
0.0233288
0.00764282
0.00820544
0.00886489
0.00961318
0.0104403
0.0113345
0.0122828
0.0132711
0.0142842
0.0153064
0.0163216
0.0173139
0.018268
0.0191698
0.0200066
0.0207685
0.0214478
0.0220413
0.0225486
0.0229735
0.0233231
0.0236075
0.00638235
0.00704535
0.0078144
0.00867995
0.00963019
0.0106515
0.0117286
0.0128453
0.013984
0.0151268
0.0162552
0.0173511
0.0183971
0.0193773
0.0202774
0.0210866
0.0217968
0.0224052
0.0229124
0.0233245
0.0236511
0.0239055
0.00503552
0.00581135
0.00670321
0.00769978
0.00878718
0.00994953
0.0111693
0.0124276
0.0137043
0.0149789
0.0162303
0.017438
0.0185821
0.0196449
0.0206104
0.0214664
0.0222042
0.022822
0.0233219
0.0237124
0.0240064
0.0242212
0.00359864
0.00450099
0.00553019
0.00667283
0.00791269
0.00923135
0.0106086
0.0120227
0.0134508
0.0148691
0.0162539
0.0175819
0.0188306
0.0199801
0.0210127
0.0219144
0.0226754
0.023296
0.0237797
0.0241379
0.024388
0.0245519
0.00206778
0.00311173
0.00429415
0.00559929
0.00700826
0.00849979
0.0100506
0.0116359
0.0132294
0.0148043
0.0163335
0.0177907
0.0191504
0.0203906
0.0214924
0.0224382
0.023216
0.0238313
0.0242881
0.0246015
0.0247942
0.0248943
0.000438722
0.00164077