/*--------------------------------*- C++ -*----------------------------------*\
  =========                 |
  \\      /  F ield         | OpenFOAM: The Open Source CFD Toolbox
   \\    /   O peration     | Website:  https://openfoam.org
    \\  /    A nd           | Version:  7
     \\/     M anipulation  |
\*---------------------------------------------------------------------------*/
FoamFile
{
    version     2.0;
    format      ascii;
    class       volScalarField;
    location    "60";
    object      p;
}
// * * * * * * * * * * * * * * * * * * * * * * * * * * * * * * * * * * * * * //

dimensions      [0 2 -2 0 0 0 0];

internalField   nonuniform List<scalar> 
4575
(
-0.228637
-0.229603
-0.230178
-0.228625
-0.22959
-0.230165
-0.228653
-0.229615
-0.230188
-0.228721
-0.229678
-0.230246
-0.228828
-0.229777
-0.230341
-0.228973
-0.229913
-0.23047
-0.229158
-0.230085
-0.230635
-0.22938
-0.230293
-0.230834
-0.229639
-0.230537
-0.231068
-0.231526
-0.229934
-0.230815
-0.231335
-0.231782
-0.230265
-0.231128
-0.231635
-0.232069
-0.230631
-0.231474
-0.231967
-0.232388
-0.231031
-0.231853
-0.232332
-0.232737
-0.231465
-0.232264
-0.232727
-0.233116
-0.231931
-0.232707
-0.233154
-0.233525
-0.232428
-0.233181
-0.23361
-0.233964
-0.232957
-0.233686
-0.234097
-0.234431
-0.234692
-0.233518
-0.234221
-0.234613
-0.234926
-0.235164
-0.234108
-0.234786
-0.235159
-0.235449
-0.235663
-0.23473
-0.235382
-0.235733
-0.236
-0.236188
-0.235382
-0.236007
-0.236337
-0.236579
-0.23674
-0.236821
-0.236064
-0.236663
-0.23697
-0.237186
-0.237318
-0.237367
-0.236778
-0.237349
-0.237632
-0.237821
-0.237922
-0.237937
-0.237524
-0.238066
-0.238324
-0.238484
-0.238552
-0.238532
-0.238302
-0.238815
-0.239047
-0.239176
-0.239209
-0.239151
-0.239015
-0.239113
-0.239596
-0.2398
-0.239897
-0.239893
-0.239795
-0.239616
-0.23996
-0.240412
-0.240586
-0.240648
-0.240605
-0.240464
-0.24024
-0.240842
-0.241261
-0.241405
-0.24143
-0.241345
-0.241159
-0.240887
-0.240541
-0.241763
-0.242148
-0.242258
-0.242244
-0.242115
-0.24188
-0.241557
-0.241159
-0.242723
-0.243072
-0.243148
-0.243092
-0.242915
-0.242629
-0.242251
-0.241798
-0.243726
-0.244037
-0.244075
-0.243974
-0.243747
-0.243405
-0.24297
-0.242458
-0.241879
-0.244773
-0.245044
-0.245042
-0.244893
-0.244611
-0.244212
-0.243715
-0.24314
-0.242499
-0.245867
-0.246096
-0.24605
-0.24585
-0.24551
-0.245048
-0.244487
-0.243846
-0.243139
-0.242373
-0.247012
-0.247195
-0.247104
-0.246848
-0.246446
-0.245918
-0.245287
-0.244575
-0.243798
-0.242964
-0.248212
-0.248345
-0.248204
-0.24789
-0.247421
-0.246821
-0.246117
-0.24533
-0.244479
-0.243573
-0.249469
-0.24955
-0.249356
-0.248977
-0.248438
-0.247762
-0.246978
-0.246112
-0.245182
-0.2442
-0.243167
-0.250788
-0.250812
-0.250561
-0.250114
-0.249499
-0.248741
-0.247874
-0.246923
-0.24591
-0.244848
-0.243738
-0.252174
-0.252137
-0.251823
-0.251304
-0.250607
-0.249763
-0.248807
-0.247767
-0.246666
-0.245518
-0.244328
-0.243088
-0.253632
-0.253528
-0.253147
-0.25255
-0.251767
-0.250831
-0.24978
-0.248646
-0.247452
-0.246215
-0.244941
-0.243622
-0.255166
-0.25499
-0.254539
-0.253858
-0.252981
-0.251949
-0.250798
-0.249564
-0.248272
-0.246942
-0.245579
-0.24418
-0.242728
-0.256784
-0.256528
-0.256001
-0.25523
-0.254255
-0.25312
-0.251864
-0.250525
-0.249132
-0.247704
-0.246249
-0.244767
-0.243243
-0.25849
-0.258148
-0.257538
-0.256672
-0.255593
-0.254349
-0.252983
-0.251535
-0.250035
-0.248505
-0.246956
-0.245387
-0.243789
-0.242147
-0.260292
-0.259856
-0.259157
-0.258189
-0.257001
-0.255642
-0.254161
-0.252599
-0.250988
-0.249353
-0.247705
-0.246047
-0.244373
-0.242674
-0.240949
-0.262195
-0.261657
-0.260863
-0.259787
-0.258482
-0.257004
-0.255402
-0.253722
-0.251997
-0.250253
-0.248504
-0.246753
-0.244999
-0.243237
-0.241476
-0.264207
-0.263557
-0.262661
-0.26147
-0.260043
-0.25844
-0.256713
-0.25491
-0.253068
-0.251212
-0.249358
-0.247512
-0.245672
-0.24384
-0.242027
-0.24032
-0.266333
-0.265562
-0.264557
-0.263245
-0.261689
-0.259956
-0.2581
-0.256171
-0.254207
-0.252236
-0.250275
-0.248329
-0.246398
-0.244484
-0.242601
-0.240835
-0.239133
-0.268582
-0.267678
-0.266557
-0.265117
-0.263427
-0.261558
-0.259569
-0.257509
-0.255422
-0.253333
-0.25126
-0.249209
-0.247179
-0.245171
-0.243196
-0.241332
-0.239508
-0.27096
-0.269912
-0.268667
-0.267092
-0.265262
-0.263253
-0.261125
-0.258933
-0.256718
-0.254509
-0.25232
-0.250158
-0.248019
-0.245901
-0.243808
-0.241805
-0.239806
-0.238648
-0.273473
-0.272269
-0.270893
-0.269177
-0.2672
-0.265046
-0.262777
-0.260449
-0.258103
-0.255769
-0.25346
-0.251179
-0.248918
-0.246672
-0.244434
-0.242254
-0.240029
-0.238458
-0.235172
-0.276129
-0.274756
-0.27324
-0.271376
-0.269248
-0.266944
-0.26453
-0.262062
-0.259583
-0.25712
-0.254684
-0.252274
-0.249878
-0.247482
-0.24507
-0.242674
-0.240181
-0.238157
-0.234543
-0.236246
-0.278932
-0.277378
-0.275715
-0.273695
-0.27141
-0.268953
-0.26639
-0.26378
-0.261164
-0.258566
-0.255996
-0.253445
-0.250897
-0.248327
-0.245712
-0.243062
-0.240264
-0.237765
-0.233811
-0.2341
-0.28189
-0.280141
-0.278323
-0.276141
-0.273694
-0.271078
-0.268363
-0.265607
-0.26285
-0.260112
-0.257398
-0.254693
-0.251972
-0.249204
-0.246354
-0.243417
-0.24028
-0.237294
-0.232992
-0.232034
-0.285007
-0.283049
-0.281068
-0.278719
-0.276103
-0.273326
-0.270456
-0.26755
-0.264646
-0.26176
-0.25889
-0.256015
-0.2531
-0.250106
-0.246989
-0.243733
-0.24023
-0.236755
-0.232101
-0.230057
-0.288287
-0.286107
-0.283955
-0.281432
-0.278645
-0.275702
-0.272673
-0.269613
-0.266556
-0.263513
-0.260474
-0.257408
-0.254275
-0.251026
-0.247611
-0.244007
-0.240116
-0.236155
-0.231147
-0.228164
-0.291736
-0.289319
-0.28699
-0.284287
-0.281323
-0.278211
-0.275019
-0.2718
-0.268583
-0.265371
-0.262146
-0.258869
-0.25549
-0.251955
-0.248212
-0.244232
-0.239935
-0.235497
-0.230135
-0.226346
-0.295356
-0.292688
-0.290174
-0.287286
-0.284141
-0.280856
-0.277498
-0.274114
-0.270727
-0.267333
-0.263902
-0.260389
-0.256736
-0.252884
-0.248782
-0.244404
-0.239687
-0.234781
-0.229068
-0.224587
-0.299149
-0.296218
-0.293512
-0.290434
-0.287104
-0.283643
-0.280113
-0.276557
-0.272989
-0.269396
-0.265739
-0.261962
-0.258003
-0.253803
-0.249313
-0.244516
-0.239368
-0.234006
-0.227947
-0.22287
-0.303117
-0.299909
-0.297005
-0.293733
-0.290214
-0.286573
-0.282866
-0.279128
-0.275367
-0.271556
-0.267647
-0.263577
-0.25928
-0.254699
-0.249795
-0.244561
-0.238975
-0.233169
-0.22677
-0.221177
-0.307259
-0.303762
-0.300656
-0.297184
-0.293474
-0.289648
-0.285757
-0.281828
-0.277857
-0.273806
-0.269617
-0.265222
-0.260554
-0.255562
-0.250218
-0.244531
-0.238504
-0.232266
-0.225535
-0.21949
-0.311576
-0.307778
-0.304463
-0.30079
-0.296884
-0.292868
-0.288786
-0.284653
-0.280453
-0.276137
-0.271638
-0.266884
-0.26181
-0.256376
-0.250571
-0.244421
-0.23795
-0.231293
-0.224236
-0.217791
-0.316063
-0.311954
-0.308427
-0.304548
-0.300443
-0.296233
-0.29195
-0.287599
-0.283148
-0.278539
-0.273697
-0.268547
-0.263034
-0.257131
-0.250845
-0.244221
-0.237309
-0.230244
-0.222869
-0.216065
-0.320719
-0.316288
-0.312545
-0.308459
-0.304151
-0.299741
-0.295246
-0.290658
-0.285932
-0.280998
-0.275777
-0.270196
-0.264211
-0.257812
-0.251028
-0.243926
-0.236574
-0.229113
-0.221428
-0.214296
-0.325536
-0.320775
-0.316814
-0.312518
-0.308004
-0.303385
-0.298666
-0.293821
-0.288792
-0.2835
-0.277862
-0.271813
-0.265324
-0.258405
-0.251111
-0.243527
-0.23574
-0.227895
-0.219907
-0.212473
-0.330508
-0.32541
-0.321228
-0.316721
-0.311997
-0.307161
-0.302201
-0.297076
-0.291713
-0.286026
-0.279933
-0.27338
-0.266356
-0.258899
-0.251084
-0.243016
-0.234801
-0.226582
-0.2183
-0.210581
-0.335626
-0.330184
-0.325782
-0.321061
-0.316123
-0.311059
-0.305841
-0.300409
-0.294679
-0.288558
-0.28197
-0.274877
-0.267293
-0.259279
-0.250936
-0.242388
-0.233752
-0.225169
-0.2166
-0.208612
-0.340878
-0.335089
-0.330465
-0.32553
-0.320372
-0.315068
-0.309571
-0.303803
-0.297669
-0.291074
-0.283952
-0.276287
-0.268117
-0.259533
-0.250659
-0.241634
-0.232585
-0.223649
-0.214802
-0.206554
-0.346252
-0.340113
-0.335269
-0.330118
-0.324732
-0.319176
-0.313376
-0.30724
-0.300662
-0.293552
-0.285858
-0.277588
-0.268812
-0.259648
-0.250242
-0.240746
-0.231294
-0.222015
-0.212898
-0.2044
-0.351732
-0.345242
-0.340179
-0.334811
-0.329191
-0.323364
-0.317236
-0.310697
-0.303635
-0.295968
-0.287665
-0.278763
-0.269364
-0.259613
-0.249678
-0.239718
-0.229872
-0.220261
-0.210882
-0.202142
-0.339594
-0.333731
-0.327615
-0.32113
-0.314149
-0.306562
-0.298297
-0.289349
-0.279791
-0.269755
-0.259416
-0.248955
-0.238542
-0.228313
-0.218381
-0.208747
-0.199771
-0.331907
-0.325033
-0.317572
-0.309416
-0.300512
-0.290889
-0.280653
-0.269972
-0.259044
-0.248067
-0.237211
-0.22661
-0.216367
-0.206487
-0.19728
-0.312168
-0.302589
-0.292262
-0.281332
-0.27
-0.258488
-0.247002
-0.235715
-0.224756
-0.214212
-0.204095
-0.194664
-0.269825
-0.257735
-0.245753
-0.234048
-0.222743
-0.21191
-0.201565
-0.191916
-0.232202
-0.220563
-0.209453
-0.198889
-0.189028
-0.185996
-0.187601
-0.233942
-0.222274
-0.211136
-0.200545
-0.190657
-0.283687
-0.271671
-0.259549
-0.247537
-0.235805
-0.224472
-0.213614
-0.203244
-0.193569
-0.31414
-0.304533
-0.294176
-0.283216
-0.271854
-0.260313
-0.2488
-0.237488
-0.226504
-0.215937
-0.205797
-0.196344
-0.33393
-0.32704
-0.31956
-0.311383
-0.302455
-0.292805
-0.282542
-0.271834
-0.26088
-0.249878
-0.238999
-0.228378
-0.218113
-0.208213
-0.198987
-0.341627
-0.335753
-0.329625
-0.323126
-0.316129
-0.308523
-0.300236
-0.291265
-0.281683
-0.271624
-0.261262
-0.25078
-0.240347
-0.2301
-0.220149
-0.210498
-0.201504
-0.353785
-0.347281
-0.342208
-0.33683
-0.331199
-0.325361
-0.319221
-0.312667
-0.305589
-0.297903
-0.28958
-0.280658
-0.271238
-0.261468
-0.251515
-0.241539
-0.231677
-0.222052
-0.212657
-0.203903
-0.34829
-0.342137
-0.337283
-0.332122
-0.326727
-0.321159
-0.315348
-0.3092
-0.302608
-0.295482
-0.287771
-0.279485
-0.270692
-0.261512
-0.252091
-0.242582
-0.233117
-0.223827
-0.214699
-0.20619
-0.342901
-0.337099
-0.332465
-0.32752
-0.322352
-0.317039
-0.311531
-0.305752
-0.299606
-0.292998
-0.285862
-0.278183
-0.27
-0.261404
-0.252519
-0.243485
-0.234427
-0.225483
-0.216629
-0.208374
-0.337634
-0.332179
-0.327767
-0.323037
-0.318089
-0.313016
-0.307788
-0.302346
-0.296606
-0.290474
-0.283875
-0.276773
-0.269179
-0.261156
-0.252807
-0.244253
-0.235613
-0.227026
-0.218453
-0.210461
-0.332501
-0.32739
-0.323199
-0.318682
-0.313949
-0.309104
-0.304134
-0.299
-0.293629
-0.287934
-0.281833
-0.275273
-0.268244
-0.260782
-0.252964
-0.244896
-0.236681
-0.228462
-0.22018
-0.212461
-0.327513
-0.322741
-0.31877
-0.314465
-0.309942
-0.305314
-0.300585
-0.295732
-0.290697
-0.285398
-0.279755
-0.273703
-0.267211
-0.260293
-0.253001
-0.24542
-0.237638
-0.229798
-0.221814
-0.214384
-0.322681
-0.318239
-0.314487
-0.310392
-0.306075
-0.301655
-0.297152
-0.292556
-0.287824
-0.282886
-0.277662
-0.272081
-0.266098
-0.259703
-0.252926
-0.245832
-0.23849
-0.231039
-0.223363
-0.21624
-0.318011
-0.313891
-0.310355
-0.306467
-0.302353
-0.298134
-0.293843
-0.289484
-0.285028
-0.280416
-0.275573
-0.270427
-0.264919
-0.259025
-0.25275
-0.24614
-0.239242
-0.232193
-0.224832
-0.218042
-0.313509
-0.309701
-0.306378
-0.302695
-0.29878
-0.294755
-0.290664
-0.286525
-0.28232
-0.278002
-0.273505
-0.268757
-0.263692
-0.258272
-0.252483
-0.246351
-0.239901
-0.233265
-0.226228
-0.219802
-0.309178
-0.305672
-0.302557
-0.299077
-0.295356
-0.291521
-0.287621
-0.283686
-0.27971
-0.275659
-0.271474
-0.267087
-0.262432
-0.257457
-0.252135
-0.246472
-0.240472
-0.234261
-0.227556
-0.221534
-0.305022
-0.301806
-0.298894
-0.295612
-0.292084
-0.288432
-0.284716
-0.280972
-0.277207
-0.273396
-0.269493
-0.265434
-0.261153
-0.256594
-0.251717
-0.246512
-0.240959
-0.235186
-0.228821
-0.223256
-0.301041
-0.298103
-0.295389
-0.292301
-0.288961
-0.285489
-0.28195
-0.278387
-0.274816
-0.271223
-0.267573
-0.26381
-0.25987
-0.255696
-0.251238
-0.246477
-0.241368
-0.236045
-0.230028
-0.224984
-0.297236
-0.294562
-0.29204
-0.289142
-0.285986
-0.28269
-0.279322
-0.275931
-0.27254
-0.269147
-0.265725
-0.262227
-0.258596
-0.254775
-0.25071
-0.246374
-0.241702
-0.236843
-0.231179
-0.226737
-0.293605
-0.291181
-0.288844
-0.286131
-0.283156
-0.280033
-0.276831
-0.273604
-0.270383
-0.267173
-0.263956
-0.260696
-0.257343
-0.253842
-0.250141
-0.24621
-0.241965
-0.237581
-0.232276
-0.228531
-0.290146
-0.287959
-0.2858
-0.283267
-0.280468
-0.277513
-0.274473
-0.271404
-0.268343
-0.265302
-0.262272
-0.259225
-0.25612
-0.252909
-0.249542
-0.245991
-0.24216
-0.238261
-0.233318
-0.230386
-0.286856
-0.284892
-0.282904
-0.280544
-0.277916
-0.275126
-0.272244
-0.269329
-0.26642
-0.263537
-0.260677
-0.257821
-0.254937
-0.251985
-0.24892
-0.245725
-0.242289
-0.238884
-0.234303
-0.232315
-0.283731
-0.281977
-0.28015
-0.277958
-0.275497
-0.272868
-0.270141
-0.267375
-0.264612
-0.261877
-0.259173
-0.256489
-0.253802
-0.251079
-0.248285
-0.245415
-0.242352
-0.239444
-0.235225
-0.234329
-0.280767
-0.279207
-0.277536
-0.275505
-0.273206
-0.270734
-0.268158
-0.265537
-0.262915
-0.26032
-0.25776
-0.255232
-0.252719
-0.250198
-0.247644
-0.245067
-0.24235
-0.239937
-0.236075
-0.236431
-0.277958
-0.27658
-0.275055
-0.273179
-0.271036
-0.268717
-0.266289
-0.26381
-0.261325
-0.258863
-0.256439
-0.254052
-0.251693
-0.249349
-0.247003
-0.244685
-0.242281
-0.240352
-0.236839
-0.238616
-0.275299
-0.274089
-0.272703
-0.270974
-0.268983
-0.266812
-0.264528
-0.262188
-0.259836
-0.257503
-0.255206
-0.252949
-0.250728
-0.248536
-0.246368
-0.244272
-0.242143
-0.240675
-0.237499
-0.272784
-0.271729
-0.270474
-0.268886
-0.26704
-0.265014
-0.26287
-0.260666
-0.258444
-0.256235
-0.254059
-0.251922
-0.249824
-0.247763
-0.245744
-0.243831
-0.241934
-0.240888
-0.270406
-0.269494
-0.268362
-0.266908
-0.265201
-0.263315
-0.261308
-0.259236
-0.257141
-0.255054
-0.252993
-0.250969
-0.248981
-0.247033
-0.245135
-0.243366
-0.241651
-0.268158
-0.267378
-0.266361
-0.265034
-0.263461
-0.261709
-0.259836
-0.257893
-0.255922
-0.253952
-0.252004
-0.250085
-0.248198
-0.246347
-0.244545
-0.242879
-0.241292
-0.266035
-0.265374
-0.264465
-0.263259
-0.261813
-0.260191
-0.258447
-0.25663
-0.25478
-0.252925
-0.251085
-0.249267
-0.247473
-0.245705
-0.243977
-0.242374
-0.264028
-0.263477
-0.262669
-0.261576
-0.260252
-0.258755
-0.257135
-0.255441
-0.253708
-0.251966
-0.250231
-0.24851
-0.246802
-0.245107
-0.243433
-0.262131
-0.261679
-0.260966
-0.25998
-0.258772
-0.257394
-0.255894
-0.254318
-0.2527
-0.251067
-0.249434
-0.247806
-0.246181
-0.24455
-0.242916
-0.260336
-0.259976
-0.25935
-0.258465
-0.257367
-0.256102
-0.254719
-0.253256
-0.25175
-0.250223
-0.248689
-0.247152
-0.245604
-0.244033
-0.258638
-0.258361
-0.257816
-0.257026
-0.256031
-0.254875
-0.253602
-0.25225
-0.25085
-0.249426
-0.247988
-0.246539
-0.245067
-0.257029
-0.256829
-0.256359
-0.255657
-0.25476
-0.253707
-0.252539
-0.251292
-0.249996
-0.248671
-0.247326
-0.245962
-0.244563
-0.255504
-0.255372
-0.254972
-0.254354
-0.253549
-0.252593
-0.251526
-0.250379
-0.249182
-0.247951
-0.246697
-0.245415
-0.254055
-0.253987
-0.253652
-0.253111
-0.252393
-0.251529
-0.250557
-0.249506
-0.248402
-0.247263
-0.246094
-0.244892
-0.252678
-0.252668
-0.252393
-0.251925
-0.251287
-0.250511
-0.249628
-0.248668
-0.247654
-0.246601
-0.245515
-0.251366
-0.25141
-0.251192
-0.25079
-0.250229
-0.249534
-0.248736
-0.247862
-0.246933
-0.245962
-0.244955
-0.250116
-0.250209
-0.250043
-0.249704
-0.249214
-0.248596
-0.247878
-0.247085
-0.246236
-0.245344
-0.248922
-0.249061
-0.248943
-0.248663
-0.24824
-0.247694
-0.247051
-0.246334
-0.245561
-0.244743
-0.24778
-0.247962
-0.247889
-0.247664
-0.247303
-0.246824
-0.246252
-0.245607
-0.244906
-0.246687
-0.246908
-0.246877
-0.246703
-0.246401
-0.245985
-0.245479
-0.244902
-0.244269
-0.245638
-0.245897
-0.245905
-0.245779
-0.245531
-0.245175
-0.244731
-0.244219
-0.24365
-0.24463
-0.244925
-0.24497
-0.244889
-0.244692
-0.244391
-0.244007
-0.243554
-0.243662
-0.24399
-0.24407
-0.24403
-0.243881
-0.243633
-0.243304
-0.242909
-0.242729
-0.243091
-0.243203
-0.243202
-0.243098
-0.242899
-0.242622
-0.242282
-0.241831
-0.242224
-0.242366
-0.242403
-0.242341
-0.242189
-0.241961
-0.240965
-0.241388
-0.24156
-0.241631
-0.241609
-0.2415
-0.241319
-0.240129
-0.240581
-0.240781
-0.240886
-0.240901
-0.240833
-0.240696
-0.239322
-0.239804
-0.24003
-0.240166
-0.240216
-0.240187
-0.238543
-0.239053
-0.239305
-0.23947
-0.239554
-0.239562
-0.237792
-0.23833
-0.238606
-0.238799
-0.238915
-0.238957
-0.237067
-0.237633
-0.237932
-0.238152
-0.238298
-0.238372
-0.236368
-0.236961
-0.237283
-0.237529
-0.237702
-0.235695
-0.236316
-0.236659
-0.236929
-0.237129
-0.235047
-0.235696
-0.23606
-0.236353
-0.236578
-0.234427
-0.235102
-0.235486
-0.235801
-0.23605
-0.233832
-0.234534
-0.234938
-0.235273
-0.233265
-0.233993
-0.234416
-0.23477
-0.232726
-0.23348
-0.23392
-0.234293
-0.232216
-0.232994
-0.233452
-0.233842
-0.231735
-0.232537
-0.233011
-0.233418
-0.231285
-0.23211
-0.232599
-0.233021
-0.230866
-0.231714
-0.232217
-0.232652
-0.230481
-0.231349
-0.231864
-0.232312
-0.230129
-0.231016
-0.231543
-0.229812
-0.230716
-0.231254
-0.22953
-0.23045
-0.230997
-0.229286
-0.230219
-0.230774
-0.229079
-0.230023
-0.230585
-0.22891
-0.229863
-0.23043
-0.22878
-0.229739
-0.230311
-0.228689
-0.229652
-0.230226
-0.173366
-0.176512
-0.179532
-0.182429
-0.185207
-0.187868
-0.190415
-0.192852
-0.195179
-0.197399
-0.199515
-0.201526
-0.203436
-0.205246
-0.206959
-0.208578
-0.210108
-0.211557
-0.212934
-0.214251
-0.215526
-0.21678
-0.218041
-0.219345
-0.159758
-0.162944
-0.166031
-0.169023
-0.171923
-0.174733
-0.177457
-0.180099
-0.182661
-0.185149
-0.187565
-0.189916
-0.192207
-0.194443
-0.196633
-0.198785
-0.20091
-0.20302
-0.205129
-0.207255
-0.209416
-0.211633
-0.213928
-0.216324
-0.147558
-0.150734
-0.153834
-0.15686
-0.159814
-0.1627
-0.165519
-0.168276
-0.170974
-0.173615
-0.176203
-0.178742
-0.181237
-0.18369
-0.186108
-0.188493
-0.190852
-0.193189
-0.195509
-0.197817
-0.200119
-0.202418
-0.204722
-0.207034
-0.136705
-0.139825
-0.142884
-0.145885
-0.148829
-0.151718
-0.154555
-0.157341
-0.160078
-0.162768
-0.165413
-0.168016
-0.170578
-0.173101
-0.175588
-0.178041
-0.180463
-0.182857
-0.185226
-0.187575
-0.189909
-0.192234
-0.194558
-0.196891
-0.126973
-0.130009
-0.132997
-0.135938
-0.138835
-0.141688
-0.144499
-0.147269
-0.150001
-0.152695
-0.155353
-0.157976
-0.160568
-0.163129
-0.165661
-0.168167
-0.170649
-0.17311
-0.175553
-0.177981
-0.180397
-0.182806
-0.185211
-0.187615
-0.11825
-0.121182
-0.124076
-0.126934
-0.129757
-0.132545
-0.1353
-0.138023
-0.140715
-0.143378
-0.146012
-0.148619
-0.1512
-0.153756
-0.15629
-0.158801
-0.161291
-0.163762
-0.166215
-0.168651
-0.171072
-0.173479
-0.175874
-0.178258
-0.110402
-0.113219
-0.116007
-0.118765
-0.121496
-0.124199
-0.126877
-0.129529
-0.132156
-0.13476
-0.137342
-0.139901
-0.142439
-0.144958
-0.147456
-0.149937
-0.152399
-0.154845
-0.157275
-0.15969
-0.162091
-0.16448
-0.166857
-0.169225
-0.103338
-0.106033
-0.108704
-0.111353
-0.11398
-0.116586
-0.119171
-0.121736
-0.124282
-0.12681
-0.12932
-0.131813
-0.134289
-0.136749
-0.139195
-0.141625
-0.144042
-0.146445
-0.148836
-0.151214
-0.153581
-0.155938
-0.158284
-0.16062
-0.0969665
-0.0995358
-0.102087
-0.10462
-0.107137
-0.109637
-0.112121
-0.11459
-0.117044
-0.119483
-0.121909
-0.124322
-0.126722
-0.12911
-0.131486
-0.133851
-0.136205
-0.138549
-0.140882
-0.143207
-0.145521
-0.147828
-0.150125
-0.152415
-0.0912124
-0.0936559
-0.0960852
-0.098501
-0.100904
-0.103294
-0.105671
-0.108037
-0.110392
-0.112736
-0.11507
-0.117393
-0.119707
-0.122012
-0.124309
-0.126596
-0.128876
-0.131148
-0.133413
-0.13567
-0.137921
-0.140166
-0.142404
-0.144637
-0.0860089
-0.0883281
-0.0906364
-0.0929343
-0.0952222
-0.0975005
-0.0997696
-0.10203
-0.104282
-0.106526
-0.108762
-0.110991
-0.113213
-0.115428
-0.117637
-0.11984
-0.122038
-0.12423
-0.126417
-0.128599
-0.130777
-0.13295
-0.135119
-0.137285
-0.0812982
-0.0834959
-0.0856853
-0.0878669
-0.0900409
-0.0922078
-0.0943679
-0.0965214
-0.0986689
-0.100811
-0.102947
-0.105078
-0.107204
-0.109326
-0.111443
-0.113556
-0.115666
-0.117772
-0.119875
-0.121976
-0.124073
-0.126168
-0.12826
-0.130351
-0.077026
-0.0791062
-0.0811802
-0.0832483
-0.0853109
-0.0873681
-0.0894205
-0.0914682
-0.0935115
-0.0955509
-0.0975864
-0.0996185
-0.101647
-0.103673
-0.105697
-0.107718
-0.109736
-0.111753
-0.113768
-0.115782
-0.117794
-0.119806
-0.121816
-0.123826
-0.073149
-0.0751159
-0.0770782
-0.0790362
-0.0809903
-0.0829405
-0.0848874
-0.086831
-0.0887717
-0.0907097
-0.0926454
-0.0945789
-0.0965104
-0.0984404
-0.100369
-0.102296
-0.104222
-0.106148
-0.108073
-0.109998
-0.111923
-0.113847
-0.115772
-0.117697
-0.0696252
-0.0714836
-0.0733387
-0.0751907
-0.0770399
-0.0788865
-0.0807309
-0.0825732
-0.0844136
-0.0862524
-0.0880899
-0.0899262
-0.0917616
-0.0935963
-0.0954305
-0.0972645
-0.0990983
-0.100932
-0.102767
-0.104602
-0.106437
-0.108274
-0.110111
-0.11195
-0.0664177
-0.0681726
-0.0699251
-0.0716756
-0.0734241
-0.0751711
-0.0769165
-0.0786608
-0.080404
-0.0821465
-0.0838883
-0.0856298
-0.087371
-0.0891123
-0.0908537
-0.0925956
-0.094338
-0.0960812
-0.0978253
-0.0995706
-0.101317
-0.103065
-0.104815
-0.106566
-0.0634955
-0.0651518
-0.0668066
-0.0684599
-0.0701122
-0.0717634
-0.0734139
-0.0750638
-0.0767133
-0.0783625
-0.0800118
-0.0816612
-0.0833109
-0.0849612
-0.0866121
-0.0882639
-0.0899167
-0.0915708
-0.0932261
-0.094883
-0.0965416
-0.098202
-0.0998644
-0.101529
-0.0608296
-0.0623922
-0.0639539
-0.0655148
-0.0670751
-0.0686349
-0.0701945
-0.0717539
-0.0733134
-0.0748731
-0.0764332
-0.0779938
-0.0795551
-0.0811173
-0.0826805
-0.0842448
-0.0858105
-0.0873777
-0.0889464
-0.090517
-0.0920894
-0.0936639
-0.0952405
-0.0968195
-0.0598684
-0.0613418
-0.0628148
-0.0642876
-0.0657603
-0.0672331
-0.0687061
-0.0701795
-0.0716534
-0.0731279
-0.0746032
-0.0760795
-0.0775569
-0.0790354
-0.0805154
-0.0819968
-0.0834798
-0.0849646
-0.0864512
-0.0879399
-0.0894307
-0.0909238
-0.0924192
-0.0575573
-0.058947
-0.0603367
-0.0617264
-0.0631163
-0.0645065
-0.0658972
-0.0672884
-0.0686804
-0.0700731
-0.0714669
-0.0728617
-0.0742576
-0.075655
-0.0770537
-0.078454
-0.079856
-0.0812598
-0.0826655
-0.0840732
-0.085483
-0.0868951
-0.0883095
-0.0554385
-0.056749
-0.0580598
-0.0593707
-0.060682
-0.0619938
-0.0633062
-0.0646193
-0.0659332
-0.067248
-0.0685639
-0.0698808
-0.0711991
-0.0725186
-0.0738397
-0.0751622
-0.0764865
-0.0778125
-0.0791403
-0.0804702
-0.0818021
-0.0831361
-0.0844724
-0.0534943
-0.05473
-0.0559659
-0.0572023
-0.0584391
-0.0596765
-0.0609146
-0.0621534
-0.0633931
-0.0646337
-0.0658754
-0.0671182
-0.0683623
-0.0696077
-0.0708544
-0.0721027
-0.0733526
-0.0746042
-0.0758575
-0.0771127
-0.0783698
-0.079629
-0.0808902
-0.0821536
-0.0517083
-0.0528732
-0.0540385
-0.0552042
-0.0563705
-0.0575374
-0.058705
-0.0598734
-0.0610426
-0.0622128
-0.063384
-0.0645564
-0.0657299
-0.0669046
-0.0680807
-0.0692582
-0.0704372
-0.0716177
-0.0727999
-0.0739838
-0.0751694
-0.076357
-0.0775464
-0.0787378
-0.0500657
-0.0511638
-0.0522623
-0.0533613
-0.0544609
-0.0555611
-0.056662
-0.0577637
-0.0588662
-0.0599696
-0.0610739
-0.0621793
-0.0632858
-0.0643934
-0.0655023
-0.0666125
-0.067724
-0.0688369
-0.0699514
-0.0710673
-0.0721849
-0.0733041
-0.074425
-0.0755477
-0.0485538
-0.0495888
-0.0506243
-0.0516602
-0.0526968
-0.0537339
-0.0547717
-0.0558102
-0.0568495
-0.0578896
-0.0589306
-0.0599725
-0.0610155
-0.0620595
-0.0631046
-0.0641508
-0.0651983
-0.066247
-0.067297
-0.0683484
-0.0694012
-0.0704554
-0.0715112
-0.0725684
-0.0471605
-0.048136
-0.049112
-0.0500885
-0.0510655
-0.052043
-0.0530212
-0.054
-0.0549795
-0.0559598
-0.0569408
-0.0579227
-0.0589055
-0.0598892
-0.0608738
-0.0618595
-0.0628462
-0.063834
-0.064823
-0.0658131
-0.0668044
-0.067797
-0.0687908
-0.069786
-0.0458759
-0.0467954
-0.0477152
-0.0486355
-0.0495562
-0.0504775
-0.0513993
-0.0523217
-0.0532447
-0.0541683
-0.0550927
-0.0560178
-0.0569436
-0.0578702
-0.0587977
-0.059726
-0.0606552
-0.0615853
-0.0625164
-0.0634485
-0.0643816
-0.0653157
-0.0662509
-0.0671872
-0.0446909
-0.0455573
-0.0464242
-0.0472914
-0.0481591
-0.0490272
-0.0498957
-0.0507648
-0.0516345
-0.0525046
-0.0533754
-0.0542468
-0.0551188
-0.0559914
-0.0568648
-0.0577389
-0.0586137
-0.0594893
-0.0603656
-0.0612428
-0.0621208
-0.0629996
-0.0638793
-0.0647599
-0.0435963
-0.0444129
-0.0452298
-0.046047
-0.0468646
-0.0476826
-0.0485009
-0.0493197
-0.050139
-0.0509587
-0.0517788
-0.0525995
-0.0534207
-0.0542424
-0.0550646
-0.0558875
-0.0567109
-0.0575349
-0.0583596
-0.0591848
-0.0600108
-0.0608374
-0.0616646
-0.0624926
-0.0425856
-0.043355
-0.0441248
-0.0448948
-0.0456652
-0.0464358
-0.0472068
-0.0479781
-0.0487498
-0.0495218
-0.0502942
-0.051067
-0.0518402
-0.0526138
-0.0533878
-0.0541623
-0.0549372
-0.0557125
-0.0564883
-0.0572646
-0.0580414
-0.0588187
-0.0595964
-0.0603747
-0.0416512
-0.0423763
-0.0431017
-0.0438272
-0.044553
-0.0452791
-0.0460054
-0.0467319
-0.0474587
-0.0481858
-0.0489132
-0.0496408
-0.0503687
-0.051097
-0.0518255
-0.0525543
-0.0532835
-0.0540129
-0.0547427
-0.0554728
-0.0562032
-0.0569339
-0.057665
-0.0583964
-0.0407873
-0.0414706
-0.0421541
-0.0428378
-0.0435216
-0.0442056
-0.0448898
-0.0455742
-0.0462587
-0.0469434
-0.0476283
-0.0483134
-0.0489987
-0.0496841
-0.0503697
-0.0510556
-0.0517416
-0.0524277
-0.0531141
-0.0538007
-0.0544874
-0.0551743
-0.0558614
-0.0565487
-0.0399889
-0.0406328
-0.0412768
-0.041921
-0.0425652
-0.0432096
-0.0438541
-0.0444986
-0.0451433
-0.0457881
-0.046433
-0.0470779
-0.047723
-0.0483681
-0.0490133
-0.0496586
-0.050304
-0.0509494
-0.0515949
-0.0522404
-0.052886
-0.0535317
-0.0541774
-0.0548231
-0.0392509
-0.0398577
-0.0404646
-0.0410715
-0.0416784
-0.0422854
-0.0428925
-0.0434996
-0.0441067
-0.0447138
-0.045321
-0.0459282
-0.0465353
-0.0471425
-0.0477496
-0.0483568
-0.0489639
-0.0495709
-0.0501779
-0.0507849
-0.0513918
-0.0519986
-0.0526054
-0.053212
-0.0385687
-0.0391405
-0.0397123
-0.0402842
-0.040856
-0.0414279
-0.0419997
-0.0425715
-0.0431432
-0.043715
-0.0442866
-0.0448582
-0.0454297
-0.0460011
-0.0465725
-0.0471437
-0.0477148
-0.0482858
-0.0488566
-0.0494273
-0.0499978
-0.0505681
-0.0511383
-0.0517082
-0.0379387
-0.0384775
-0.0390164
-0.0395552
-0.0400939
-0.0406327
-0.0411713
-0.0417099
-0.0422483
-0.0427867
-0.0433249
-0.043863
-0.044401
-0.0449388
-0.0454764
-0.0460139
-0.0465512
-0.0470882
-0.047625
-0.0481616
-0.0486979
-0.049234
-0.0497697
-0.0503052
-0.0373568
-0.0378646
-0.0383724
-0.0388802
-0.0393878
-0.0398954
-0.0404028
-0.0409101
-0.0414172
-0.0419242
-0.0424311
-0.0429377
-0.0434441
-0.0439503
-0.0444563
-0.044962
-0.0454675
-0.0459726
-0.0464775
-0.046982
-0.0474863
-0.0479902
-0.0484937
-0.0489968
-0.03682
-0.0372987
-0.0377773
-0.0382558
-0.0387342
-0.0392124
-0.0396905
-0.0401684
-0.0406461
-0.0411236
-0.0416009
-0.0420779
-0.0425547
-0.0430312
-0.0435074
-0.0439833
-0.0444589
-0.0449342
-0.045409
-0.0458836
-0.0463577
-0.0468314
-0.0473046
-0.0477774
-0.0363253
-0.0367765
-0.0372277
-0.0376787
-0.0381295
-0.0385802
-0.0390307
-0.039481
-0.039931
-0.0403808
-0.0408304
-0.0412796
-0.0417286
-0.0421772
-0.0426255
-0.0430734
-0.043521
-0.0439682
-0.0444149
-0.0448612
-0.0453071
-0.0457525
-0.0461974
-0.0466419
-0.0358698
-0.0362953
-0.0367206
-0.0371458
-0.0375708
-0.0379956
-0.0384202
-0.0388446
-0.0392686
-0.0396924
-0.0401159
-0.0405391
-0.0409619
-0.0413844
-0.0418065
-0.0422282
-0.0426495
-0.0430704
-0.0434908
-0.0439107
-0.0443302
-0.0447491
-0.0451675
-0.0455853
-0.0354512
-0.0358525
-0.0362536
-0.0366546