/*--------------------------------*- C++ -*----------------------------------*\
  =========                 |
  \\      /  F ield         | OpenFOAM: The Open Source CFD Toolbox
   \\    /   O peration     | Website:  https://openfoam.org
    \\  /    A nd           | Version:  7
     \\/     M anipulation  |
\*---------------------------------------------------------------------------*/
FoamFile
{
    version     2.0;
    format      ascii;
    class       volVectorField;
    location    "60";
    object      U;
}
// * * * * * * * * * * * * * * * * * * * * * * * * * * * * * * * * * * * * * //

dimensions      [0 1 -1 0 0 0 0];

internalField   nonuniform List<vector> 
4575
(
(-0.000211132 -0.000206074 -3.76197e-22)
(-0.00148561 -0.000521221 -1.88701e-21)
(-0.00414868 -0.000767107 2.24908e-22)
(-0.000220292 0.000242195 -1.83785e-21)
(-0.00151003 0.000661199 1.43391e-21)
(-0.00418507 0.00100902 -1.64137e-21)
(-0.000246518 0.000689067 -1.42281e-20)
(-0.00157751 0.00183993 1.72454e-21)
(-0.00428214 0.00277952 2.57999e-21)
(-0.000289677 0.0011329 2.32743e-20)
(-0.00168777 0.00301079 -9.72745e-21)
(-0.00443954 0.00453829 -6.5988e-21)
(-0.000349543 0.0015721 -3.1152e-21)
(-0.00184028 0.00416972 3.84232e-20)
(-0.00465663 0.00627935 1.75531e-20)
(-0.000425806 0.00200512 -1.51987e-20)
(-0.00203434 0.00531276 9.0503e-21)
(-0.0049325 0.00799688 -1.4375e-20)
(-0.000518071 0.0024305 1.84338e-20)
(-0.00226904 0.00643615 -2.1681e-20)
(-0.005266 0.00968532 -3.23754e-20)
(-0.000625873 0.00284688 3.07384e-21)
(-0.00254329 0.00753633 -1.05561e-20)
(-0.00565575 0.0113393 2.92124e-20)
(-0.000748679 0.00325299 -8.6269e-21)
(-0.00285584 0.00860995 5.80567e-20)
(-0.00610011 0.0129539 -1.25771e-20)
(-0.0100331 0.0164134 -1.46946e-20)
(-0.000885901 0.00364766 -2.67741e-20)
(-0.00320531 0.00965392 3.38644e-20)
(-0.00659724 0.0145243 1.86236e-20)
(-0.010624 0.018401 8.25718e-21)
(-0.0010369 0.00402988 4.86282e-20)
(-0.00359015 0.0106654 -2.6036e-20)
(-0.00714508 0.0160463 8.61016e-21)
(-0.0112755 0.0203271 3.17255e-20)
(-0.00120101 0.00439871 4.06973e-20)
(-0.00400873 0.0116419 -4.78332e-20)
(-0.00774139 0.0175157 -4.88112e-20)
(-0.0119848 0.0221864 -2.2768e-20)
(-0.00137753 0.00475337 -5.06928e-20)
(-0.0044593 0.0125812 -4.56596e-20)
(-0.00838371 0.0189292 1.85413e-20)
(-0.012749 0.0239742 4.52591e-20)
(-0.00156573 0.00509317 2.12039e-20)
(-0.00494001 0.0134811 3.05072e-20)
(-0.00906944 0.0202833 3.62117e-20)
(-0.0135649 0.0256861 -5.98206e-20)
(-0.00176488 0.00541758 -1.22332e-20)
(-0.00544896 0.01434 1.43447e-20)
(-0.00979577 0.0215752 -3.02966e-20)
(-0.0144289 0.0273182 -4.41476e-20)
(-0.00197424 0.00572612 4.50188e-20)
(-0.00598415 0.0151564 -4.30949e-20)
(-0.0105597 0.0228024 3.41215e-20)
(-0.0153372 0.028867 5.34169e-20)
(-0.00219305 0.00601846 -1.95874e-20)
(-0.00654355 0.0159291 -1.28008e-20)
(-0.0113581 0.0239626 3.51377e-20)
(-0.0162856 0.0303292 -4.77931e-20)
(-0.021206 0.0351755 -2.64383e-20)
(-0.00242057 0.00629432 -4.53962e-20)
(-0.00712503 0.016657 6.13137e-20)
(-0.0121877 0.0250538 8.22777e-22)
(-0.0172696 0.031702 -5.57634e-22)
(-0.0222555 0.036754 5.93288e-20)
(-0.00265606 0.00655351 1.46818e-20)
(-0.00772643 0.0173391 -4.36374e-20)
(-0.0130448 0.0260745 4.10862e-20)
(-0.0182843 0.0329829 -5.99225e-20)
(-0.023334 0.0382228 7.25387e-20)
(-0.00289878 0.0067959 5.73023e-21)
(-0.0083455 0.0179748 -2.27355e-20)
(-0.0139257 0.027023 7.19786e-20)
(-0.0193243 0.0341697 -9.07434e-20)
(-0.0244346 0.039579 -7.31601e-20)
(-0.00314798 0.00702139 -3.97085e-20)
(-0.00897993 0.0185635 -6.8093e-20)
(-0.0148265 0.0278981 -3.83059e-20)
(-0.0203838 0.0352602 4.9398e-20)
(-0.0255494 0.0408199 -2.81243e-21)
(-0.0302258 0.0447596 9.74606e-21)
(-0.00340291 0.00722993 3.661e-20)
(-0.00962732 0.0191047 8.89482e-20)
(-0.015743 0.0286986 -6.59456e-20)
(-0.0214567 0.0362527 -3.11229e-20)
(-0.02667 0.041943 2.53555e-20)
(-0.0312906 0.0459582 -5.97182e-20)
(-0.00366283 0.00742148 -4.01455e-20)
(-0.0102852 0.0195977 -4.4052e-21)
(-0.0166705 0.0294233 9.34267e-20)
(-0.0225361 0.0371453 9.03041e-20)
(-0.0277872 0.042946 -1.8037e-20)
(-0.0323363 0.0470205 -1.11297e-20)
(-0.00392696 0.00759601 2.5668e-20)
(-0.0109509 0.0200423 5.0175e-20)
(-0.0176045 0.0300713 -3.40408e-20)
(-0.0236149 0.0379365 -4.12529e-20)
(-0.0288908 0.0438267 -4.17123e-20)
(-0.0333495 0.0479438 -1.09962e-20)
(-0.00419453 0.0077535 -3.52277e-20)
(-0.0116218 0.0204379 -1.09065e-19)
(-0.0185398 0.0306415 3.37598e-20)
(-0.0246852 0.0386245 1.83658e-21)
(-0.0299699 0.044583 1.36493e-19)
(-0.0343156 0.0487257 -7.94037e-20)
(-0.037654 0.0512646 -6.639e-20)
(-0.00446471 0.0078939 -3.37307e-20)
(-0.0122949 0.0207841 1.28877e-19)
(-0.0194709 0.031133 -9.58905e-20)
(-0.0257386 0.0392078 -1.91062e-20)
(-0.0310124 0.0452126 -3.14083e-20)
(-0.0352186 0.0493638 -7.95516e-20)
(-0.0382934 0.0518798 7.72926e-20)
(-0.00473669 0.00801716 4.78511e-20)
(-0.0129673 0.0210804 -5.65765e-20)
(-0.0203922 0.0315446 -6.90787e-20)
(-0.0267659 0.0396847 -6.36687e-20)
(-0.0320055 0.0457136 2.06613e-20)
(-0.036041 0.0498557 1.13291e-20)
(-0.0388131 0.0523365 2.75799e-20)
(-0.00500957 0.00812319 -1.0109e-19)
(-0.0136357 0.0213263 7.6107e-20)
(-0.0212974 0.0318753 8.33318e-20)
(-0.0277575 0.0400537 -4.72289e-20)
(-0.0329352 0.0460839 7.8674e-20)
(-0.036764 0.050199 7.40258e-20)
(-0.0391885 0.0526323 -1.3077e-20)
(-0.0401648 0.0536076 -7.14021e-20)
(-0.00528244 0.00821192 -7.98321e-20)
(-0.0142968 0.0215213 -7.00453e-20)
(-0.0221798 0.0321241 5.39539e-20)
(-0.0287027 0.0403131 3.05945e-20)
(-0.0337863 0.0463213 1.21738e-20)
(-0.0373671 0.0503914 -2.17402e-20)
(-0.039393 0.052765 -1.49711e-20)
(-0.0398226 0.0536726 3.33777e-20)
(-0.00555433 0.00828322 3.8605e-20)
(-0.0149468 0.0216647 7.25007e-20)
(-0.0230325 0.0322898 -1.27275e-19)
(-0.0295905 0.0404613 -9.5012e-20)
(-0.0345428 0.0464239 4.69666e-20)
(-0.0378284 0.0504307 4.31065e-20)
(-0.0393979 0.0527323 -8.71977e-20)
(-0.0392113 0.0535669 -7.6541e-21)
(-0.00582421 0.00833695 1.85907e-19)
(-0.0155819 0.0217559 -1.22608e-19)
(-0.0238479 0.0323713 2.90327e-20)
(-0.0304086 0.0404968 9.22222e-20)
(-0.0351871 0.0463898 -9.69219e-20)
(-0.0381243 0.0503149 4.66783e-21)
(-0.0391724 0.0525325 7.01101e-20)
(-0.0382921 0.0532889 1.25751e-19)
(-0.0354439 0.0528137 1.24233e-19)
(-0.00609098 0.00837296 -1.76282e-19)
(-0.016198 0.0217943 1.22114e-19)
(-0.0246177 0.0323676 2.89169e-20)
(-0.031144 0.0404181 -9.14318e-20)
(-0.0357006 0.0462173 3.76655e-20)
(-0.0382295 0.0500423 -1.77492e-20)
(-0.0386837 0.0521639 -1.30483e-20)
(-0.037023 0.0528377 -1.0615e-19)
(-0.0332052 0.052301 -1.63478e-19)
(-0.00635346 0.00839106 1.4139e-19)
(-0.0167905 0.0217792 -3.44465e-20)
(-0.0253331 0.0322774 1.14294e-19)
(-0.0317829 0.0402238 2.70184e-20)
(-0.0360632 0.0459051 -5.80747e-20)
(-0.0381168 0.0496116 9.17298e-21)
(-0.0378964 0.0516257 -1.17761e-19)
(-0.0353596 0.052213 5.22546e-20)
(-0.0304596 0.0516195 2.76179e-20)
(-0.0231398 0.0500701 4.06718e-21)
(-0.00661038 0.00839105 -3.60735e-20)
(-0.0173546 0.0217098 -3.71111e-20)
(-0.0259848 0.0320998 -7.16272e-20)
(-0.03231 0.0399129 5.11806e-20)
(-0.0362533 0.0454521 9.05349e-20)
(-0.0377572 0.0490222 -1.14228e-19)
(-0.0367732 0.0509178 1.78001e-19)
(-0.0332547 0.0514155 -3.39549e-20)
(-0.027149 0.0507711 4.86555e-21)
(-0.0183902 0.0492184 -1.12144e-19)
(-0.00686035 0.00837271 1.12381e-20)
(-0.017885 0.0215855 3.59872e-20)
(-0.0265623 0.0318339 4.2248e-20)
(-0.0327092 0.0394845 -3.44076e-20)
(-0.0362478 0.0448579 8.40359e-20)
(-0.0371198 0.0482743 1.09808e-19)
(-0.0352739 0.0500415 1.69558e-21)
(-0.0306584 0.0504476 -1.34939e-19)
(-0.023212 0.0497593 -1.05261e-19)
(-0.0128579 0.0482208 1.07606e-19)
(-0.00710185 0.00833577 -6.7083e-20)
(-0.018376 0.0214055 6.13655e-20)
(-0.0270547 0.031479 -4.41098e-20)
(-0.032963 0.0389381 -2.13578e-20)
(-0.0360219 0.0441227 -5.67245e-20)
(-0.0361713 0.0473691 -4.19197e-20)
(-0.0333561 0.048999 -7.31528e-20)
(-0.0275176 0.0493133 1.17939e-19)
(-0.0185843 0.04859 4.57479e-20)
(-0.00646635 0.047085 -1.09662e-19)
(0.00894582 0.0450335 -1.30013e-19)
(-0.0073332 0.00827996 -6.86267e-21)
(-0.0188213 0.0211691 -1.5159e-19)
(-0.0274499 0.0310343 3.60129e-20)
(-0.0330526 0.0382738 7.80212e-20)
(-0.0355488 0.0432475 -1.39799e-20)
(-0.0348762 0.046309 -8.97914e-20)
(-0.0309746 0.0477948 9.65487e-20)
(-0.0237768 0.0480189 1.07842e-19)
(-0.013199 0.0472718 4.02556e-20)
(0.0008637 0.045822 1.95085e-19)
(0.0185374 0.0439179 -8.85761e-20)
(-0.00755255 0.00820495 -3.89434e-20)
(-0.0192141 0.0208757 -1.34979e-20)
(-0.0277347 0.0304996 -1.19378e-19)
(-0.0329574 0.037492 7.12293e-20)
(-0.0348001 0.042234 -7.08824e-20)
(-0.0331969 0.0450976 -7.0187e-20)
(-0.0280818 0.0464348 -6.1673e-21)
(-0.0193772 0.0465733 -1.08781e-19)
(-0.00698577 0.0458169 -1.68397e-19)
(0.00921372 0.044447 4.49617e-20)
(0.0293653 0.0427265 4.91701e-20)
(0.0536278 0.0409049 -2.03236e-20)
(-0.0077578 0.00811034 1.22177e-19)
(-0.0195466 0.0205243 -1.85258e-20)
(-0.0278951 0.0298749 1.05457e-19)
(-0.0326557 0.0365937 -1.05374e-19)
(-0.033745 0.0410853 1.51618e-19)
(-0.0310932 0.0437406 1.2368e-19)
(-0.0246269 0.0449276 -9.90854e-20)
(-0.0142573 0.0449886 -1.79842e-19)
(0.00012777 0.044241 2.90797e-19)
(0.018667 0.04298 7.00821e-20)
(0.041522 0.041483 -5.32828e-20)
(0.0688673 0.0400159 -5.14242e-20)
(-0.00794672 0.00799571 -1.95245e-19)
(-0.0198108 0.0201147 1.22647e-19)
(-0.0279154 0.0291602 -1.78028e-19)
(-0.0321239 0.0355807 -9.45196e-20)
(-0.0323509 0.0398054 3.43427e-20)
(-0.0285224 0.042245 -1.33678e-19)
(-0.0205569 0.043284 2.04255e-19)
(-0.00835324 0.04328 3.42176e-21)
(0.00821643 0.0425642 -1.08122e-19)
(0.0293078 0.041446 -9.2172e-20)
(0.0550989 0.0402172 -1.60632e-19)
(0.0857768 0.0391593 -1.91978e-21)
(0.121516 0.0385519 -2.18078e-20)
(-0.00811672 0.00786072 6.93558e-20)
(-0.0199977 0.0196463 -1.22728e-19)
(-0.0277788 0.0283558 1.53744e-19)
(-0.0313364 0.0344554 2.10623e-19)
(-0.0305829 0.0383997 -6.67893e-20)
(-0.0254396 0.0406198 8.47374e-21)
(-0.0158161 0.0415176 -1.72218e-19)
(-0.00159846 0.0414661 -4.1754e-20)
(0.0173566 0.0408111 -1.2688e-19)
(0.0412208 0.0398757 1.61407e-19)
(0.0701851 0.0389658 1.45989e-19)
(0.104443 0.0383768 -2.53435e-20)
(0.144166 0.0384018 -1.86162e-20)
(-0.00826482 0.0077048 1.83186e-20)
(-0.0200973 0.0191185 2.47902e-20)
(-0.0274674 0.0274627 -8.05054e-20)
(-0.0302661 0.0332213 -2.17136e-19)
(-0.0284039 0.0368749 3.42968e-20)
(-0.0217972 0.0388761 1.01263e-19)
(-0.0103464 0.0396446 4.5057e-20)
(0.00607527 0.0395692 1.88543e-19)
(0.0276256 0.0390105 -1.15491e-19)
(0.0544893 0.0383054 -1.46463e-19)
(0.0868652 0.0377724 -2.61704e-20)
(0.124945 0.0377184 6.36123e-20)
(0.168881 0.0384447 1.35977e-20)
(0.218751 0.0402575 5.5806e-21)
(-0.00838768 0.0075274 -9.06283e-20)
(-0.0200986 0.0185308 5.70007e-21)
(-0.0269615 0.0264822 -1.58366e-20)
(-0.0288841 0.0318823 1.88414e-19)
(-0.025775 0.0352391 5.80395e-20)
(-0.0175459 0.037027 -1.85331e-20)
(-0.004088 0.0376841 6.92464e-20)
(0.0147375 0.0376155 5.97901e-20)
(0.0391006 0.0371963 1.40868e-19)
(0.0691945 0.0367768 1.6874e-20)
(0.105218 0.0366869 -1.61828e-19)
(0.147346 0.0372416 9.07116e-21)
(0.195698 0.0387445 -1.25862e-19)
(0.250288 0.0414938 -1.05994e-20)
(0.310989 0.0457913 -5.84485e-20)
(-0.00848168 0.00732801 1.48438e-19)
(-0.0199897 0.0178829 1.02549e-19)
(-0.0262403 0.0254161 7.9453e-20)
(-0.0271595 0.0304437 -1.0758e-19)
(-0.0226552 0.033502 7.14341e-20)
(-0.0126342 0.0350879 -6.66106e-20)
(0.00302049 0.0356582 -1.02891e-19)
(0.0244582 0.0356344 -1.41019e-19)
(0.0518574 0.0354063 -6.06106e-20)
(0.0854132 0.0353366 1.16607e-19)
(0.125312 0.0357649 1.01088e-19)
(0.1717 0.0370102 1.44848e-19)
(0.224635 0.039372 1.26619e-19)
(0.284038 0.0431301 -3.78109e-20)
(0.349652 0.0485457 -5.1221e-20)
(-0.00854276 0.00710605 -9.07381e-20)
(-0.0197578 0.0171748 -2.34517e-19)
(-0.0252812 0.0242666 -9.41527e-20)
(-0.0250598 0.0289115 9.89239e-20)
(-0.0190016 0.0316748 2.81161e-20)
(-0.00700926 0.0330763 4.5568e-20)
(0.0110412 0.0335916 1.18078e-19)
(0.0353067 0.033659 -1.16155e-19)
(0.065969 0.0336824 1.57567e-19)
(0.103216 0.034036 -1.59918e-20)
(0.147208 0.0350662 -2.24012e-19)
(0.198039 0.037092 -4.15176e-20)
(0.25568 0.0404017 -1.40599e-19)
(0.319924 0.0452461 -9.53844e-20)
(0.390339 0.0518334 1.0158e-19)
(0.466183 0.0602589 8.19204e-20)
(-0.00856643 0.00686098 1.2089e-19)
(-0.0193888 0.0164067 1.83081e-19)
(-0.0240603 0.0230368 -9.8985e-21)
(-0.0225511 0.0272931 -8.19574e-20)
(-0.0147701 0.0297704 -8.93599e-20)
(-0.000617224 0.0310118 1.89546e-20)
(0.0200363 0.0315119 -1.39893e-19)
(0.0473508 0.0317254 1.30918e-19)
(0.0815039 0.03207 -5.04611e-20)
(0.122664 0.0329294 -1.08538e-19)
(0.170949 0.0346538 1.33874e-19)
(0.226376 0.0375569 -3.25326e-20)
(0.288796 0.0419077 -5.80935e-20)
(0.357836 0.0479182 1.05965e-19)
(0.432846 0.0557317 -1.60005e-19)
(0.512816 0.0653376 7.92513e-22)
(0.596703 0.0769306 6.32036e-21)
(-0.00854774 0.00659232 -1.34797e-19)
(-0.0188679 0.0155792 -5.11967e-20)
(-0.0225525 0.0217304 9.07204e-20)
(-0.0195979 0.025597 7.41498e-20)
(-0.00991523 0.0278034 8.30165e-20)
(0.0065963 0.0289164 -4.71579e-20)
(0.0300671 0.0294494 -4.03975e-20)
(0.0606551 0.029873 -1.70625e-20)
(0.0985239 0.0306175 -1.79451e-19)
(0.143808 0.0320738 3.29428e-19)
(0.196561 0.034592 3.45633e-21)
(0.256695 0.0384738 4.07655e-20)
(0.323909 0.0439604 3.90682e-20)
(0.397622 0.0512138 7.88254e-20)
(0.476926 0.0603018 1.35369e-19)
(0.560511 0.0711039 7.65549e-20)
(0.646979 0.0836782 8.13829e-20)
(-0.0084813 0.00629968 3.39373e-20)
(-0.0181791 0.0146932 -2.74207e-20)
(-0.0207313 0.0203519 6.81109e-20)
(-0.0161634 0.0238329 -1.01439e-19)
(-0.00439088 0.0257903 -1.23068e-20)
(0.0146854 0.0268143 4.5255e-20)
(0.041193 0.0274368 5.36121e-20)
(0.0752794 0.0281436 -4.58647e-20)
(0.117083 0.0293755 1.30778e-19)
(0.166684 0.0315279 -1.34143e-19)
(0.22405 0.0349449 6.17599e-20)
(0.288955 0.039909 -1.16414e-19)
(0.36091 0.0466231 1.17241e-19)
(0.439087 0.0551879 9.8229e-20)
(0.522287 0.0655848 -1.79128e-19)
(0.608883 0.0775807 -1.63187e-19)
(0.69712 0.0910935 -5.92738e-20)
(0.784187 0.10422 -5.11907e-20)
(-0.00836131 0.0059828 2.14245e-19)
(-0.0173054 0.0137501 -1.18635e-19)
(-0.0185691 0.0189069 -1.65747e-19)
(-0.0122102 0.0220121 -6.83169e-20)
(0.00184933 0.0237494 -1.04312e-19)
(0.0237033 0.024732 -1.20559e-20)
(0.0534702 0.0255094 1.78925e-19)
(0.0912777 0.0265812 8.96112e-20)
(0.137222 0.0283966 1.39156e-19)
(0.191313 0.0313505 3.8055e-20)
(0.253397 0.035775 1.04551e-19)
(0.323081 0.0419235 -1.19164e-19)
(0.399649 0.0499497 4.93578e-20)
(0.481993 0.0598802 -7.99356e-20)
(0.568596 0.0715993 8.90545e-20)
(0.657513 0.08476 1.94311e-19)
(0.746659 0.0991393 -1.64861e-20)
(0.83313 0.112873 1.22551e-19)
(0.91677 0.12962 -4.41592e-20)
(-0.00818152 0.00564162 -1.11471e-19)
(-0.0162291 0.0127523 9.58617e-22)
(-0.0160375 0.0174021 8.36872e-20)
(-0.0077001 0.0201474 1.64887e-20)
(0.00885155 0.0217009 1.99874e-19)
(0.0337014 0.022698 -2.56238e-20)
(0.066951 0.0237046 -1.52862e-19)
(0.108696 0.0252321 -1.12319e-19)
(0.158974 0.0277342 -1.60435e-19)
(0.217695 0.0316 -1.56508e-19)
(0.284558 0.0371411 -1.84192e-19)
(0.358966 0.0445714 1.98504e-19)
(0.439939 0.0539819 8.72592e-20)
(0.526061 0.065313 -1.20364e-20)
(0.615486 0.0783415 -2.42839e-20)
(0.705963 0.0926062 2.88901e-20)
(0.795131 0.107747 8.31931e-20)
(0.880062 0.121978 4.93526e-20)
(0.96012 0.138307 3.9648e-20)
(1.02481 0.144191 1.23731e-20)
(-0.00793532 0.00527632 -3.92031e-20)
(-0.0149316 0.0117024 2.17886e-20)
(-0.0131073 0.0158454 3.09469e-20)
(-0.00259485 0.0182533 7.95088e-20)
(0.016661 0.0196672 -6.01397e-20)
(0.0447282 0.0207433 1.51197e-20)
(0.0816819 0.0220621 1.57233e-19)
(0.127571 0.0241439 1.71434e-20)
(0.182351 0.027442 -7.56265e-22)
(0.245809 0.0323328 2.15406e-20)
(0.317461 0.0390975 1.08999e-19)
(0.396467 0.0478979 -1.52005e-19)
(0.481553 0.0587485 -1.64149e-19)
(0.570977 0.0714905 -8.90455e-20)
(0.662564 0.0857852 -1.0865e-19)
(0.753789 0.10106 -1.29784e-19)
(0.842088 0.116826 -1.78237e-20)
(0.924592 0.131403 -8.3239e-20)
(1.00038 0.147204 1.84649e-19)
(1.06109 0.153487 -9.54481e-20)
(-0.00761572 0.00488736 2.01211e-19)
(-0.013394 0.0106043 -4.73688e-20)
(-0.00974895 0.014246 -6.69037e-20)
(0.00314364 0.0163462 3.35254e-20)
(0.0253214 0.0176728 1.61639e-20)
(0.0568288 0.018901 -4.59277e-20)
(0.0977028 0.0206235 -1.32348e-20)
(0.147927 0.0233651 -2.65375e-20)
(0.207354 0.0275734 7.78841e-20)
(0.275612 0.0336028 1.8874e-19)
(0.352001 0.0416924 5.9635e-20)
(0.435407 0.051938 1.76645e-19)
(0.524233 0.0642633 7.22057e-20)
(0.616399 0.0783986 9.98314e-20)
(0.709421 0.0938843 1.14245e-19)
(0.800554 0.110041 -1.12882e-20)
(0.887119 0.126271 -2.96712e-20)
(0.966391 0.141011 2.1471e-22)
(1.03736 0.156166 2.10158e-20)
(1.09358 0.162663 5.04572e-20)
(-0.00721543 0.00447555 -9.06307e-20)
(-0.0115964 0.00946276 1.28745e-20)
(-0.00593271 0.0126147 -9.32174e-20)
(0.00955277 0.0144443 -1.28174e-19)
(0.0348743 0.0157441 -5.36964e-20)
(0.0700437 0.0172063 -5.61949e-21)
(0.115045 0.0194317 6.97616e-20)
(0.169778 0.0229453 -5.55545e-20)
(0.233962 0.0281804 1.10715e-20)
(0.307036 0.0354595 -1.2076e-20)
(0.388049 0.0449661 -1.55533e-19)
(0.475577 0.0567151 -2.40371e-19)
(0.567686 0.0705252 -3.61097e-20)
(0.661963 0.0860057 -7.88424e-20)
(0.75565 0.102575 -7.49459e-20)
(0.845848 0.119457 -1.33843e-20)
(0.929863 0.135967 -4.88172e-20)
(1.0052 0.150674 -3.04664e-20)
(1.07093 0.165065 -9.03335e-20)
(1.1223 0.171572 -1.30552e-21)
(-0.0067269 0.00404208 -8.85874e-20)
(-0.00951898 0.00828358 1.82295e-19)
(-0.00162897 0.0109641 1.10811e-19)
(0.0166687 0.0125679 4.82899e-20)
(0.0453581 0.0139101 -1.70047e-20)
(0.0844075 0.0156963 -1.08602e-19)
(0.133732 0.0185315 -7.01647e-20)
(0.193122 0.0229335 -3.3772e-20)
(0.262136 0.029313 -4.90204e-20)
(0.339988 0.0379475 -1.72871e-19)
(0.425441 0.0489507 1.26581e-19)
(0.51674 0.0622406 8.1728e-20)
(0.6116 0.0775179 1.29718e-19)
(0.707297 0.0942644 3.72505e-20)
(0.800854 0.11178 2.05347e-20)
(0.889298 0.129207 7.60238e-21)
(0.970023 0.145801 -8.11229e-21)
(1.04086 0.160274 -2.74329e-20)
(1.10107 0.173792 -3.03004e-20)
(1.14737 0.180109 -9.18528e-20)
(-0.00614239 0.00358859 1.57718e-20)
(-0.00714171 0.00707382 -2.74811e-20)
(0.00319137 0.00930831 1.97361e-20)
(0.0245259 0.0107395 -4.64052e-20)
(0.0568077 0.0122018 9.58366e-20)
(0.0999485 0.0144103 1.6909e-19)
(0.153775 0.0179683 5.10167e-20)
(0.217942 0.0233787 1.39061e-19)
(0.291815 0.0310181 -7.22628e-20)
(0.374349 0.0411056 1.865e-19)
(0.463991 0.0536685 3.3854e-20)
(0.558632 0.068513 7.98951e-20)
(0.655646 0.0852106 -1.42604e-19)
(0.752032 0.103113 -5.05382e-20)
(0.84466 0.121411 5.14611e-20)
(0.930579 0.139185 9.97065e-20)
(1.00737 0.155663 6.76103e-20)
(1.07325 0.169709 -2.96869e-20)
(1.1278 0.182258 1.22445e-19)
(1.16898 0.188208 4.06958e-20)
(-0.00545403 0.00311722 -5.32309e-20)
(-0.0044446 0.00584184 -1.15739e-19)
(0.00855652 0.00766344 -8.54649e-20)
(0.0331566 0.00898375 2.59705e-20)
(0.0692534 0.0106523 -1.36786e-19)
(0.116687 0.013389 -1.66009e-19)
(0.175174 0.0177881 -2.17203e-20)
(0.244205 0.0243282 -4.91802e-20)
(0.322919 0.0333388 1.71179e-19)
(0.409977 0.044965 -4.42822e-20)
(0.503484 0.0591316 -1.28226e-19)
(0.600971 0.0755182 -2.06578e-19)
(0.699488 0.0935594 1.10138e-19)
(0.795809 0.11248 1.01813e-19)
(0.886734 0.131374 -2.69168e-20)
(0.969427 0.149289 -5.22567e-20)
(1.04176 0.165455 2.11575e-20)
(1.10238 0.178897 -2.96084e-20)
(1.15125 0.190398 -5.65022e-21)
(1.18737 0.195831 7.42118e-20)
(-0.00465386 0.00263062 -4.11455e-20)
(-0.001408 0.00459732 -3.00136e-20)
(0.0144934 0.00604751 1.31518e-19)
(0.0425899 0.00732735 -7.9289e-20)
(0.0827203 0.00929696 1.99558e-19)
(0.134635 0.0126746 8.19886e-20)
(0.197917 0.0180372 -5.25423e-20)
(0.271861 0.0258275 -8.77508e-20)
(0.355345 0.0363136 -1.36602e-19)
(0.446706 0.0495496 5.69028e-20)
(0.543687 0.0653412 1.16334e-20)
(0.643463 0.0832296 6.88265e-20)
(0.742793 0.102509 1.34084e-19)
(0.838294 0.122284 -7.55337e-20)
(0.926785 0.141576 2.69068e-20)
(1.00564 0.159422 -9.56456e-20)
(1.0731 0.175091 -2.96023e-20)
(1.12829 0.187773 -2.35829e-20)
(1.17158 0.198171 -1.36538e-20)
(1.2028 0.20297 -1.01939e-19)
(-0.00373398 0.00213198 8.09333e-20)
(0.00198717 0.00335142 1.23035e-19)
(0.0210274 0.00448046 4.89402e-21)
(0.0528518 0.00579926 7.27469e-20)
(0.0972273 0.00817278 -1.71389e-19)
(0.153796 0.0123103 4.04147e-20)
(0.221977 0.0187613 -2.57568e-20)
(0.300841 0.0279193 -4.95132e-21)
(0.38897 0.0399751 -4.66403e-20)
(0.48435 0.0548743 -1.00093e-19)
(0.584351 0.072288 -2.39401e-20)
(0.685807 0.0916097 6.29666e-20)
(0.78524 0.111994 -1.84266e-19)
(0.879184 0.132441 4.73521e-20)
(0.964575 0.151922 -1.39713e-20)
(1.03909 0.169496 8.13277e-20)
(1.10138 0.1845 1.52339e-19)
(1.15109 0.196295 5.33801e-22)
(1.18898 0.205553 -2.56052e-20)
(1.21557 0.209634 -3.37172e-20)
(-0.00268655 0.00162511 -1.45496e-20)
(0.00575923 0.00211672 -1.85878e-19)
(0.0281816 0.00298422 -1.3956e-19)
(0.0639641 0.00443048 -8.67126e-21)
(0.112787 0.00731856 3.00604e-20)
(0.174161 0.0123399 -5.6631e-20)
(0.247315 0.0200049 -3.31657e-22)
(0.331061 0.0306429 1.79158e-20)
(0.423652 0.0443497 2.57911e-20)
(0.522704 0.0609452 1.42555e-19)
(0.625213 0.0799521 5.77863e-20)
(0.727706 0.10061 -1.48156e-20)
(0.826527 0.121943 1.66153e-20)
(0.918218 0.142864 -2.1507e-20)
(0.999922 0.162325 9.74614e-20)
(1.06969 0.179435 -4.06201e-20)
(1.12665 0.193627 -6.78045e-20)
(1.17093 0.204436 -5.53145e-21)
(1.20369 0.212538 4.1953e-20)
(1.22598 0.215848 3.55314e-21)
(-0.00150395 0.00111437 2.59561e-20)
(0.00992539 0.000907277 9.86325e-20)
(0.0359768 0.00158259 5.99919e-20)
(0.0759437 0.00325388 -1.07492e-19)
(0.129403 0.00677439 2.24684e-20)
(0.195712 0.0128075 1.33361e-19)
(0.273877 0.0218107 7.11275e-20)
(0.362417 0.034033 9.18819e-21)
(0.459231 0.0494568 8.27822e-20)
(0.561549 0.0677593 -1.64643e-19)
(0.666009 0.0883034 -4.53224e-20)
(0.768872 0.110176 -1.89402e-20)
(0.866381 0.13228 1.09989e-19)
(0.955178 0.153469 -3.31606e-20)
(1.0327 0.172706 -8.86121e-21)
(1.09743 0.189178 -5.78167e-20)
(1.149 0.202436 -4.74725e-20)
(1.18801 0.212186 -1.62185e-20)
(1.21596 0.219136 -1.73825e-20)
(1.23429 0.22165 -4.78461e-20)
(-0.000178795 0.000604776 -2.42097e-20)
(0.0145016 -0.000261372 -1.40172e-20)
(0.0444305 0.000301242 -3.5284e-20)
(0.0888027 0.00230407 1.12747e-19)
(0.147073 0.00658136 7.37119e-20)
(0.218418 0.0137565 -2.29022e-20)
(0.301592 0.0242191 -3.93541e-21)
(0.394789 0.0381195 8.58518e-20)
(0.495531 0.0553082 -1.27709e-19)
(0.600658 0.0753042 7.63117e-20)
(0.706473 0.0973034 7.64979e-20)
(0.809033 0.120244 2.00201e-20)
(0.904562 0.142928 -3.90117e-20)
(0.989893 0.164178 5.58815e-20)
(1.06283 0.182996 -1.44171e-19)
(1.12235 0.198676 1.81682e-20)
(1.16857 0.210901 -3.3827e-20)
(1.20253 0.219548 8.41448e-20)
(1.22604 0.225366 1.52933e-19)
(1.2408 0.227082 1.97458e-20)
(0.0012959 0.000101923 -3.77751e-20)
(0.0195021 -0.00137228 1.55101e-20)
(0.0535571 -0.00083247 9.95085e-20)
(0.102547 0.0016171 1.59536e-21)
(0.165785 0.00678111 -1.59518e-19)
(0.242238 0.0152295 -1.06824e-19)
(0.330378 0.027267 -8.894e-20)
(0.428044 0.0429264 -4.55669e-20)
(0.532364 0.061908 1.69225e-19)
(0.639796 0.0835589 -7.32487e-21)
(0.746348 0.106905 2.19823e-20)
(0.84794 0.130748 3.5227e-20)
(0.940867 0.153811 -1.14813e-19)
(1.02224 0.174915 -9.02774e-20)
(1.09031 0.193136 2.3632e-20)
(1.14453 0.207893 1.08265e-19)
(1.18553 0.219014 -8.71551e-21)
(1.21473 0.226536 8.31778e-20)
(1.23417 0.231255 -1.1545e-19)
(1.24574 0.232189 -1.41069e-20)
(0.00292666 -0.000387977 4.79932e-20)
(0.0249393 -0.00240714 5.72538e-20)
(0.0633672 -0.00178964 -1.02989e-19)
(0.117177 0.00123013 -5.47789e-21)
(0.185517 0.00741537 1.87728e-19)
(0.267118 0.0172673 1.14348e-19)
(0.360137 0.0309876 -4.49064e-20)
(0.462034 0.0484718 6.45056e-20)
(0.569532 0.0692521 -6.71929e-20)
(0.678729 0.0924943 -6.64476e-20)
(0.785387 0.117057 6.64418e-20)
(0.88537 0.141619 -1.3124e-19)
(0.975134 0.164855 1.62799e-20)
(1.05215 0.185618 6.09761e-20)
(1.11514 0.203081 -3.28048e-20)
(1.16409 0.216808 4.62006e-20)
(1.20006 0.226776 -5.475e-20)
(1.22482 0.233172 -1.25097e-19)
(1.24058 0.236836 1.60444e-20)
(1.24934 0.237018 4.18509e-20)
(0.00471945 -0.000858122 5.6364e-20)
(0.0308236 -0.00334636 -1.74118e-19)
(0.0738669 -0.00254003 2.71865e-20)
(0.132684 0.00118117 -2.77081e-20)
(0.206238 0.00852544 -6.60718e-20)
(0.292992 0.0199086 -5.17192e-20)
(0.390758 0.0354096 4.51876e-20)
(0.496598 0.0547666 -2.02344e-19)
(0.606833 0.0773289 -4.63346e-20)
(0.717227 0.102074 2.91468e-20)
(0.823363 0.127701 -3.60881e-20)
(0.921133 0.152789 1.02015e-19)
(1.00724 0.175994 7.02619e-20)
(1.07959 0.196229 2.40088e-20)
(1.1374 0.212795 1.30269e-19)
(1.18117 0.22541 -1.26381e-19)
(1.21236 0.234198 7.6388e-20)
(1.23303 0.239485 1.06392e-19)
(1.2455 0.242145 -9.66658e-21)
(1.25181 0.241614 -6.70341e-20)
(0.00667954 -0.00130114 4.53944e-21)
(0.0371627 -0.0041692 -1.84955e-21)
(0.0850581 -0.00305231 1.24173e-19)
(0.149056 0.00150855 -1.74758e-20)
(0.227909 0.0101516 -7.29956e-21)
(0.319783 0.023189 1.22887e-19)
(0.422119 0.0405563 1.37864e-19)
(0.531569 0.0618154 3.6736e-20)
(0.64406 0.0861189 7.73023e-20)
(0.755069 0.112256 -4.98473e-20)
(0.860069 0.138778 -4.13507e-20)
(0.955071 0.164191 -6.93302e-22)
(1.03711 0.187164 -4.86607e-20)
(1.10456 0.206705 -1.68507e-21)
(1.15717 0.222256 -9.17019e-20)
(1.19592 0.233699 3.55772e-20)
(1.22263 0.241299 8.21465e-20)
(1.23957 0.245506 -4.06354e-20)
(1.24913 0.247219 4.59847e-20)
(1.25331 0.246018 8.1484e-20)
(0.00881145 -0.00170914 1.74857e-20)
(0.043962 -0.00485389 -4.49111e-20)
(0.0969374 -0.00329431 -2.57389e-21)
(0.166271 0.00225059 1.10099e-21)
(0.250478 0.0123326 -8.31747e-20)
(0.347401 0.0271405 -1.14481e-20)
(0.454088 0.0464457 -1.42296e-19)
(0.566771 0.0696155 1.44501e-19)
(0.681009 0.0955963 7.28763e-20)
(0.792045 0.122991 6.23895e-21)
(0.895324 0.150226 -7.20041e-22)
(0.987062 0.175761 -3.5739e-20)
(1.06469 0.198313 2.07779e-20)
(1.1271 0.217009 5.58488e-20)
(1.17458 0.231449 -9.5239e-20)
(1.20852 0.24168 7.12299e-20)
(1.23107 0.248103 -8.44673e-20)
(1.24465 0.251269 -3.75198e-21)
(1.25164 0.252092 3.71773e-22)
(1.254 0.250269 3.67066e-20)
(0.0111188 -0.00207372 -3.81621e-20)
(0.0512235 -0.0053778 -4.07933e-20)
(0.109497 -0.00323337 5.66888e-20)
(0.1843 0.00344512 -2.46272e-20)
(0.273886 0.0151051 -7.56695e-21)
(0.375748 0.0317913 -7.18344e-20)
(0.486522 0.0530899 7.84385e-20)
(0.602025 0.0781574 -1.37348e-19)
(0.717481 0.105729 1.24346e-20)
(0.827962 0.134231 2.01993e-20)
(0.928973 0.161985 -1.09724e-20)
(1.01701 0.187441 7.65124e-21)
(1.08998 0.209395 -8.70904e-20)
(1.1473 0.227114 -6.52713e-20)
(1.18975 0.24037 5.37393e-20)
(1.21915 0.249369 -1.70361e-20)
(1.23787 0.254635 -1.00656e-19)
(1.24844 0.256807 -1.89741e-20)
(1.25319 0.256798 -8.16422e-20)
(1.25401 0.254401 -9.94397e-20)
(0.0136042 -0.00238604 -9.08378e-21)
(0.0589465 -0.00571763 6.01308e-20)
(0.122722 -0.00283667 4.26927e-20)
(0.203106 0.00512894 1.21561e-19)
(0.298064 0.018503 -4.26946e-21)
(0.404716 0.0371646 6.15259e-20)
(0.519274 0.0604946 -1.27498e-19)
(0.637153 0.0874251 4.37797e-20)
(0.753286 0.116478 -3.58714e-20)
(0.862649 0.14592 5.11336e-20)
(0.960888 0.173996 1.22863e-20)
(1.04487 0.199178 2.88025e-20)
(1.11299 0.220371 8.09453e-20)
(1.16523 0.237003 9.91533e-21)
(1.20284 0.249021 -4.8755e-20)
(1.22798 0.256784 7.9244e-20)
(1.24321 0.260925 2.75023e-20)
(1.2511 0.262154 -1.28458e-20)
(1.25393 0.261369 7.66728e-20)
(1.25343 0.258443 5.00621e-20)
(0.222645 0.00733744 -1.77577e-20)
(0.322935 0.0225571 2.11856e-20)
(0.434188 0.0432791 -1.21746e-20)
(0.55219 0.0686596 7.23316e-20)
(0.671977 0.0973965 -2.2496e-20)
(0.788244 0.127803 -2.7007e-20)
(0.895951 0.158005 -9.0339e-20)
(0.990971 0.186203 -5.68049e-20)
(1.0706 0.210925 -5.13972e-20)
(1.13378 0.23121 -4.12814e-20)
(1.18101 0.246665 1.55454e-20)
(1.21399 0.257409 -2.98542e-20)
(1.23518 0.263947 3.56218e-21)
(1.24726 0.267002 5.48469e-20)
(1.25279 0.26734 5.73425e-20)
(1.25395 0.265833 4.10753e-21)
(1.25236 0.262419 3.50265e-20)
(0.464041 0.0501477 -1.27536e-20)
(0.585116 0.0775784 -3.99205e-20)
(0.706326 0.108044 9.36821e-20)
(0.822192 0.139659 -2.30887e-20)
(0.92774 0.170432 -9.05239e-22)
(1.01915 0.198554 6.09241e-20)
(1.0942 0.222641 -5.38881e-20)
(1.1524 0.241892 2.32006e-20)
(1.19475 0.256096 -5.76769e-20)
(1.22337 0.265548 9.56618e-20)
(1.24091 0.27088 -7.13355e-20)
(1.25016 0.272895 -4.23495e-20)
(1.25363 0.272394 -4.36618e-22)
(1.25337 0.270213 -6.04735e-20)
(1.25087 0.266351 -7.20383e-22)
(0.854978 0.151997 -1.66184e-20)
(0.957906 0.183148 2.79774e-20)
(1.04538 0.211 -3.74448e-20)
(1.1157 0.234292 4.68616e-20)
(1.16894 0.252398 4.43962e-20)
(1.2066 0.265299 9.67204e-21)
(1.23111 0.273453 -2.72379e-20)
(1.24532 0.277609 -6.40588e-21)
(1.25205 0.27863 -3.63936e-20)
(1.25373 0.27734 -1.52614e-20)
(1.25227 0.274532 2.47374e-20)
(1.249 0.270253 -4.1962e-20)
(1.1835 0.262719 -1.10633e-21)
(1.21666 0.27428 4.0767e-20)
(1.23736 0.281142 -1.14708e-20)
(1.24856 0.284157 6.48556e-20)
(1.25306 0.284233 3.38182e-20)
(1.2532 0.282201 -5.56477e-21)
(1.25072 0.278805 1.80842e-20)
(1.24682 0.27414 6.82846e-20)
(1.25074 0.290548 -4.19313e-21)
(1.25328 0.289725 -5.08545e-20)
(1.25209 0.286997 4.15511e-21)
(1.24876 0.283047 -3.28219e-20)
(1.24435 0.27802 2.80919e-22)
(1.24162 0.2819 -6.82348e-21)
(1.24269 -0.2815 -4.15164e-20)
(1.25202 -0.29028 -1.65227e-20)
(1.2545 -0.289416 1.52384e-21)