/*--------------------------------*- C++ -*----------------------------------*\
  =========                 |
  \\      /  F ield         | OpenFOAM: The Open Source CFD Toolbox
   \\    /   O peration     | Website:  https://openfoam.org
    \\  /    A nd           | Version:  7
     \\/     M anipulation  |
\*---------------------------------------------------------------------------*/
FoamFile
{
    version     2.0;
    format      ascii;
    class       volScalarField;
    location    "180";
    object      p;
}
// * * * * * * * * * * * * * * * * * * * * * * * * * * * * * * * * * * * * * //

dimensions      [0 2 -2 0 0 0 0];

internalField   nonuniform List<scalar> 
4575
(
0.246198
0.255361
0.264305
0.27908
0.273022
0.288107
0.2815
0.29688
0.289729
0.305387
0.297699
0.322724
0.313616
0.305398
0.331165
0.321555
0.312817
0.339287
0.329191
0.319945
0.347077
0.336512
0.326772
0.365251
0.354523
0.343508
0.333287
0.372834
0.361612
0.350166
0.339481
0.380026
0.368333
0.356475
0.345345
0.386815
0.374674
0.362427
0.350869
0.39319
0.380626
0.36801
0.356045
0.41214
0.399138
0.386177
0.373214
0.360865
0.418052
0.40465
0.391318
0.378032
0.365321
0.423488
0.409716
0.39604
0.382454
0.369406
0.42844
0.414327
0.400335
0.386473
0.373112
0.432898
0.418474
0.404194
0.39008
0.376435
0.436854
0.422149
0.407611
0.393271
0.379367
0.4403
0.425347
0.410579
0.396038
0.381904
0.443228
0.428059
0.413091
0.398376
0.384041
0.445634
0.430281
0.415144
0.40028
0.385774
0.447512
0.432008
0.416732
0.401745
0.3871
0.448856
0.433235
0.417851
0.40277
0.388014
0.465544
0.449665
0.43396
0.418499
0.403349
0.388516
0.465867
0.449935
0.43418
0.418673
0.403483
0.388607
0.465613
0.449664
0.433893
0.418371
0.40317
0.388277
0.464781
0.44885
0.433098
0.417593
0.402406
0.387533
0.463371
0.447495
0.431795
0.416339
0.401193
0.38637
0.461383
0.445598
0.429985
0.414609
0.399531
0.384789
0.443162
0.427668
0.412404
0.397423
0.382795
0.440187
0.424848
0.409727
0.39487
0.380387
0.436679
0.421528
0.40658
0.391874
0.377568
0.43264
0.41771
0.402967
0.388439
0.37434
0.428076
0.4134
0.398893
0.384569
0.370706
0.422992
0.408603
0.394361
0.380268
0.366672
0.417396
0.403324
0.389378
0.375542
0.36224
0.411293
0.397572
0.383951
0.370396
0.357417
0.404693
0.391352
0.378085
0.364838
0.352207
0.397603
0.384674
0.371788
0.358873
0.346617
0.390035
0.377546
0.36507
0.352511
0.340653
0.369978
0.357938
0.345759
0.334323
0.361979
0.350403
0.338625
0.327634
0.353561
0.342473
0.331121
0.320593
0.344734
0.33416
0.323254
0.31321
0.335511
0.325474
0.315035
0.305493
0.316428
0.306476
0.297452
0.307032
0.297586
0.289095
0.297299
0.288378
0.280433
0.287242
0.278863
0.271475
0.269052
0.262232
0.258959
0.252715
0.248595
0.242932
0.232896
0.222615
0.2121
0.117467
0.118621
0.120817
0.123935
0.127843
0.132499
0.13778
0.143655
0.149974
0.156682
0.163564
0.170517
0.177219
0.183502
0.188882
0.193143
0.195556
0.195956
0.193205
0.187485
0.176752
0.116881
0.117992
0.120098
0.123083
0.126808
0.131222
0.136196
0.141682
0.147522
0.15364
0.159811
0.165912
0.171612
0.176735
0.180795
0.183592
0.184427
0.183179
0.178831
0.171611
0.15999
0.116223
0.117287
0.119295
0.122135
0.125662
0.129817
0.134463
0.13954
0.144879
0.150391
0.155839
0.161092
0.165812
0.169825
0.172659
0.174138
0.173618
0.171036
0.165539
0.157409
0.145629
0.11549
0.116503
0.118408
0.121092
0.124409
0.128291
0.132594
0.137248
0.142072
0.146967
0.151689
0.1561
0.159863
0.16281
0.164495
0.164763
0.163056
0.15933
0.152946
0.144141
0.132317
0.114683
0.115641
0.117435
0.119957
0.123055
0.126654
0.130604
0.134823
0.139127
0.143405
0.147412
0.151002
0.153854
0.155799
0.15644
0.155628
0.152913
0.148251
0.141206
0.131948
0.120159
0.113798
0.114699
0.116379
0.118731
0.121602
0.124908
0.128497
0.132277
0.136061
0.139727
0.143038
0.14584
0.147836
0.14886
0.148568
0.146821
0.143275
0.137887
0.130385
0.120893
0.109286
0.112836
0.113676
0.115238
0.117413
0.120051
0.123058
0.126282
0.12962
0.132888
0.135955
0.138593
0.140648
0.14185
0.142037
0.140925
0.138385
0.134171
0.128244
0.120458
0.110922
0.099635
0.111796
0.112573
0.114013
0.116007
0.118405
0.121109
0.123966
0.126864
0.129623
0.132108
0.134106
0.135459
0.135932
0.13537
0.133548
0.13035
0.125613
0.119309
0.111387
0.101949
0.0910759
0.110678
0.11139
0.112704
0.114513
0.116669
0.119067
0.121557
0.124021
0.126285
0.128211
0.129602
0.130304
0.130117
0.128895
0.126468
0.122737
0.117606
0.111064
0.103126
0.0938904
0.0834891
0.109481
0.110127
0.111313
0.112934
0.114847
0.116939
0.119066
0.121104
0.122891
0.124284
0.125108
0.125214
0.124435
0.122641
0.119708
0.115558
0.110148
0.103483
0.0956246
0.0866692
0.0767754
0.108208
0.108786
0.109843
0.111275
0.112943
0.114732
0.116503
0.118128
0.119457
0.120348
0.120646
0.120213
0.118912
0.116631
0.113285
0.108818
0.103229
0.096536
0.0888326
0.0802114
0.0708455
0.106858
0.107368
0.108295
0.109538
0.110963
0.112454
0.113878
0.115106
0.116
0.116422
0.11624
0.115325
0.113569
0.110881
0.107208
0.102515
0.096831
0.0901876
0.082697
0.0744471
0.0656159
0.105434
0.105875
0.106673
0.107728
0.108914
0.110114
0.111202
0.112051
0.112536
0.112527
0.111909
0.110568
0.108424
0.105403
0.101481
0.0966405
0.0909331
0.0844007
0.0771657
0.0693099
0.0610098
0.103937
0.104309
0.10498
0.105849
0.106802
0.10772
0.108486
0.108977
0.109081
0.108678
0.10767
0.10596
0.10349
0.100204
0.0961018
0.0911819
0.0855107
0.079137
0.0721879
0.0647378
0.0569572
0.102371
0.102675
0.103219
0.103908
0.104634
0.10528
0.10574
0.105897
0.10565
0.10489
0.103538
0.101513
0.0987749
0.0952869
0.0910659
0.0861237
0.0805369
0.0743583
0.067715
0.0606734
0.0533952
0.100738
0.100976
0.101396
0.10191
0.102417
0.102805
0.102977
0.102823
0.102256
0.101178
0.0995266
0.0972362
0.0942852
0.0906509
0.0863644
0.0814478
0.0759841
0.0700272
0.0637012
0.0570642
0.0502676
0.0990412
0.0992149
0.0995158
0.0998606
0.100158
0.100303
0.100206
0.099767
0.0989103
0.0975528
0.0956455
0.093138
0.0900232
0.0862922
0.081986
0.0771347
0.0718239
0.0661073
0.0601035
0.0538624
0.0475243
0.0972854
0.0973969
0.0975827
0.0977665
0.0978655
0.0977823
0.0974367
0.0967393
0.0956252
0.0940249
0.0919029
0.0892226
0.085989
0.0822045
0.0779175
0.0731636
0.0680284
0.062564
0.0568821
0.0510246
0.0451207
0.0954747
0.0955269
0.0956028
0.0956341
0.0955471
0.0952525
0.0946797
0.09375
0.0924099
0.0906027
0.0883047
0.0854922
0.08218
0.0783797
0.0741445
0.0695135
0.0645704
0.0593647
0.0540003
0.0485118
0.0430171
0.093614
0.09361
0.0935819
0.0934703
0.0932102
0.0927218
0.0919437
0.0908082
0.0892727
0.0872927
0.0848552
0.0819474
0.078592
0.0748081
0.0706514
0.0661631
0.0614235
0.0564787
0.0514245
0.0462888
0.0411785
0.0917084
0.0916517
0.0915263
0.0912819
0.0908626
0.0901984
0.089237
0.087922
0.0862207
0.0841001
0.0815564
0.0785865
0.0752192
0.0714788
0.0674225
0.0630916
0.0585625
0.0538774
0.0491239
0.0443237
0.0395738
0.0897636
0.089658
0.0894422
0.0890758
0.0885117
0.08769
0.0865675
0.0850985
0.0832597
0.0810286
0.0784093
0.0754068
0.0720543
0.0683802
0.0644414
0.0602787
0.0559637
0.0515345
0.0470705
0.0425885
0.0381755
0.0877853
0.0876347
0.0873362
0.086859
0.0861649
0.0852039
0.0839421
0.0823437
0.0803942
0.0780803
0.0754131
0.072404
0.0690894
0.0655003
0.0616923
0.057705
0.0536046
0.0494254
0.0452391
0.0410575
0.0369591
0.0857796
0.0855881
0.0852148
0.0846382
0.0838289
0.0827471
0.081367
0.0796628
0.0776277
0.0752566
0.0725661
0.0695731
0.0663157
0.0628267
0.0591595
0.0553517
0.0514644
0.0475278
0.0436064
0.039708
0.0359031
0.0837527
0.0835247
0.0830845
0.0824201
0.0815106
0.0803257
0.0788479
0.0770601
0.0749625
0.0725574
0.0698656
0.0669081
0.0637242
0.060347
0.0568275
0.0532011
0.0495234
0.0458211
0.0421517
0.0385198
0.0349882
0.081711
0.0814508
0.080952
0.0802113
0.0792163
0.0779457
0.0763895
0.074539
0.0724003
0.0699818
0.0673079
0.0644026
0.0613053
0.058049
0.0546818
0.0512365
0.0477638
0.0442865
0.0408562
0.0374745
0.0341975
0.079661
0.079373
0.0788237
0.0780181
0.0769518
0.0756121
0.0739961
0.072102
0.0699417
0.0675283
0.0648889
0.0620496
0.0590495
0.0559208
0.0527084
0.0494424
0.0461687
0.0429069
0.0397029
0.0365558
0.0335157
0.0776092
0.0772975
0.0767057
0.0758465
0.0747227
0.0733297
0.071671
0.0697512
0.0675866
0.0651944
0.0626038
0.0598421
0.0569474
0.0539507
0.0508938
0.0478041
0.0447227
0.0416667
0.0386763
0.0357491
0.0329294
0.0755619
0.0752308
0.0746044
0.0737022
0.0725341
0.0711026
0.0694171
0.0674876
0.0653342
0.0629775
0.0604477
0.0577728
0.0549895
0.0521277
0.0492255
0.046308
0.0434119
0.0405516
0.0377627
0.0350413
0.0324267
0.0735256
0.073179
0.0725255
0.0715907
0.0703907
0.0689345
0.0672366
0.0653119
0.0631834
0.0608742
0.0584151
0.0558343
0.0531669
0.050441
0.0476917
0.0449416
0.0422232
0.0395488
0.0369496
0.0344206
0.0319968
0.0715063
0.0711481
0.0704748
0.0695171
0.0682966
0.0668285
0.0651314
0.0632242
0.0611325
0.0588809
0.0565006
0.0540195
0.0514707
0.0488807
0.0462814
0.0436931
0.0411447
0.0386465
0.0362257
0.0338767
0.0316302
0.06951
0.069144
0.0684575
0.0674859
0.0662558
0.0647871
0.0631025
0.0612242
0.0591793
0.056994
0.0546988
0.0523213
0.0498925
0.0474373
0.0449844
0.042552
0.0401658
0.0378342
0.035581
0.0334001
0.0313185
0.0675426
0.067172
0.0664786
0.0655015
0.0642714
0.0628126
0.061151
0.0593112
0.0573217
0.0552093
0.0530042
0.0507328
0.0484243
0.0461017
0.043791
0.0415085
0.0392765
0.0371022
0.0350063
0.0329823
0.031054
0.0656094
0.0652375
0.064543
0.0635679
0.0623466
0.0609068
0.0592771
0.0574841
0.055557
0.053523
0.0514113
0.0492474
0.0470585
0.0448657
0.0426925
0.0405534
0.0384679
0.036442
0.0344936
0.032616
0.0308302
0.0637157
0.0633452
0.0626548
0.0616886
0.0604838
0.0590711
0.0574809
0.0557416
0.0538826
0.051931
0.049915
0.0478589
0.045788
0.0437216
0.0416809
0.0396786
0.037732
0.0358458
0.0340354
0.0322945
0.0306411
0.0618662
0.0614998
0.060818
0.0598668
0.0586852
0.0573064
0.0557623
0.0540822
0.0522956
0.0504293
0.0485101
0.0465613
0.044606
0.0426622
0.0407486
0.0388767
0.0370614
0.0353065
0.0336254
0.0320118
0.0304813
0.0600654
0.0597053
0.0590362
0.0581051
0.0569526
0.0556135
0.0541208
0.0525044
0.0507933
0.0490139
0.0471918
0.0453488
0.0435064
0.0416808
0.039889
0.0381408
0.0364494
0.0348179
0.0332576
0.0317626
0.0303464
0.0583174
0.0579655
0.0573126
0.0564061
0.0552875
0.0539929
0.0525558
0.0510062
0.0493729
0.0476812
0.0459555
0.0442163
0.0424834
0.0407715
0.0390957
0.0374648
0.0358902
0.0343744
0.032927
0.0315424
0.0302322
0.0566259
0.0562839
0.0556501
0.0547718
0.0536911
0.0524447
0.0510663
0.0495859
0.0480314
0.0464273
0.0447968
0.0431588
0.0415316
0.0399286
0.0383632
0.0368432
0.0353785
0.033971
0.032629
0.031347
0.0301351
0.0549943
0.0546634
0.054051
0.053204
0.0521643
0.050969
0.0496515
0.0482415
0.0467662
0.045249
0.0437115
0.0421717
0.0406462
0.0391471
0.0376864
0.0362711
0.0349095
0.0336033
0.0323595
0.0311729
0.0300522
0.0534253
0.0531067
0.0525176
0.0517041
0.0507078
0.0495654
0.0483102
0.0469712
0.0455746
0.0441427
0.0426959
0.0412508
0.0398226
0.0384224
0.0370608
0.0357439
0.034479
0.0332674
0.0321149
0.031017
0.0299807
0.0519217
0.051616
0.0510516
0.0502732
0.0493218
0.0482337
0.0470414
0.0457731
0.044454
0.0431054
0.0417464
0.0403922
0.0390568
0.0377503
0.0364822
0.0352578
0.0340834
0.0329599
0.0318924
0.0308765
0.0299183
0.0504855
0.0501934
0.0496545
0.0489124
0.0480068
0.0469733
0.0458437
0.0446453
0.0434021
0.0421343
0.0408596
0.0395923
0.0383452
0.0371273
0.035947
0.0348092
0.0337192
0.0326778
0.0316891
0.0307492
0.0298633
0.0491186
0.0488404
0.0483276
0.0476222
0.0467626
0.0457837
0.044716
0.043586
0.0424165
0.0412265
0.0400326
0.038848
0.0376843
0.0365498
0.035452
0.034395
0.0333837
0.0324185
0.0315028
0.0306332
0.0298139
0.0478226
0.0475585
0.0470719
0.0464031
0.0455894
0.0446642
0.0436571
0.0425935
0.041495
0.0403796
0.0392626
0.0381563
0.0370713
0.036015
0.0349943
0.0340127
0.0330744
0.0321798
0.0313316
0.0305269
0.029769
0.0465988
0.0463486
0.045888
0.0452554
0.0444867
0.0436141
0.0426658
0.0416662
0.0406357
0.0395913
0.0385471
0.0375147
0.0365034
0.0355204
0.0345714
0.0336598
0.0327892
0.0319598
0.031174
0.0304289
0.0297274
0.0454482
0.0452117
0.0447766
0.0441794
0.0434545
0.0426327
0.041741
0.0408026
0.0398368
0.0388595
0.037884
0.0369208
0.0359785
0.0350635
0.0341812
0.0333345
0.0325263
0.031757
0.0310285
0.0303382
0.0296884
0.0443717
0.0441485
0.0437381
0.0431752
0.0424925
0.0417193
0.0408817
0.0400014
0.0390967
0.0381826
0.0372713
0.0363726
0.0354945
0.0346427
0.0338219
0.0330349
0.0322842
0.0315701
0.0308941
0.030254
0.0296516
0.04337
0.0431596
0.0427728
0.0422427
0.0416003
0.0408734
0.0400868
0.0392612
0.0384139
0.0375588
0.0367073
0.0358685
0.0350496
0.0342561
0.033492
0.0327598
0.0320618
0.0313982
0.0307701
0.0301758
0.0296164
0.0424438
0.0422455
0.0418812
0.0413821
0.0407777
0.0400944
0.0393557
0.0385812
0.0377872
0.0369868
0.0361906
0.035407
0.0346426
0.0339024
0.0331902
0.0325081
0.0318581
0.0312403
0.0306559
0.030103
0.0295827
0.0415937
0.0414068
0.0410636
0.0405935
0.0400245
0.0393818
0.0386876
0.0379605
0.0372157
0.0364655
0.03572
0.0349869
0.0342723
0.0335807
0.0329155
0.0322788
0.0316723
0.0310961
0.030551
0.0300356
0.0295505
0.0408203
0.040644
0.0403203
0.0398771
0.0393409
0.0387356
0.0380822
0.0373984
0.0366985
0.0359942
0.0352948
0.0346074
0.0339378
0.03329
0.0326673
0.0320715
0.031504
0.0309651
0.0304553
0.0299734
0.0295198
0.0401245
0.0399578
0.0396519
0.0392333
0.0387269
0.0381556
0.0375393
0.0368946
0.0362353
0.0355723
0.0349142
0.0342679
0.0336385
0.0330299
0.0324451
0.0318857
0.031353
0.0308472
0.0303687
0.0299166
0.0294909
0.0395072
0.0393492
0.0390593
0.0386627
0.0381831
0.0376422
0.0370589
0.0364492
0.035826
0.0351995
0.0345781
0.033968
0.0333742
0.0328002
0.0322487
0.0317212
0.0312191
0.0307423
0.0302913
0.0298653
0.0294641
0.0389697
0.0388194
0.0385436
0.0381663
0.0377102
0.0371959
0.0366416
0.0360624
0.0354706
0.0348761
0.0342865
0.0337078
0.0331448
0.0326007
0.032078
0.0315783
0.0311024
0.0306508
0.0302235
0.0298198
0.0294397
0.0385137
0.0383699
0.0381062
0.0377455
0.0373094
0.0368179
0.0362883
0.035735
0.0351699
0.0346024
0.0340397
0.0334877
0.0329507
0.0324319
0.0319335
0.031457
0.0310034
0.0305728
0.0301654
0.0297806
0.0294181
0.0381414
0.038003
0.0377492
0.0374021
0.0369825
0.0365096
0.0360002
0.0354681
0.0349248
0.0343793
0.0338387
0.0333084
0.0327925
0.0322942
0.0318156
0.031358
0.0309223
0.0305089
0.0301176
0.0297481
0.0293999
0.0378556
0.0377214
0.0374752
0.0371386
0.0367317
0.0362732
0.0357793
0.0352635
0.034737
0.0342084
0.0336846
0.0331709
0.0326713
0.0321886
0.0317251
0.031282
0.0308601
0.0304596
0.0300807
0.0297228
0.0293856
0.03766
0.0375286
0.0372877
0.0369584
0.0365603
0.0361116
0.0356283
0.0351237
0.0346086
0.0340916
0.0335793
0.0330769
0.0325883
0.0321164
0.0316632
0.0312299
0.0308174
0.0304258
0.0300553
0.0297053
0.0293755
0.0375592
0.0374293
0.0371911
0.0368655
0.036472
0.0360285
0.0355506
0.0350518
0.0345425
0.0340314
0.0335251
0.0330285
0.0325457
0.0320793
0.0316313
0.0312031
0.0307953
0.0304084
0.0300421
0.0296962
0.0293703
0.119107
0.120271
0.122546
0.125789
0.129914
0.13494
0.140771
0.14751
0.155046
0.163546
0.172868
0.183232
0.194476
0.206895
0.220203
0.234788
0.250337
0.267266
0.285152
0.304513
0.324677
0.346464
0.368584
0.119205
0.120372
0.122652
0.125901
0.130034
0.135069
0.140911
0.147662
0.155212
0.163728
0.173067
0.183447
0.194705
0.20714
0.220466
0.23506
0.250627
0.267583
0.285491
0.304869
0.325052
0.346855
0.369011
0.119296
0.120466
0.12275
0.126004
0.130144
0.135188
0.14104
0.147802
0.155364
0.163892
0.173245
0.183633
0.194897
0.207326
0.220685
0.235313
0.250903
0.267831
0.285714
0.305061
0.325192
0.346927
0.368984
0.11938
0.120552
0.12284
0.1261
0.130247
0.135298
0.141159
0.14793
0.155502
0.164039
0.173403
0.183788
0.195057
0.207523
0.220871
0.235467
0.251037
0.267945
0.285784
0.30507
0.325112
0.346733
0.368628
0.119457
0.120631
0.122922
0.126187
0.13034
0.135398
0.141266
0.148045
0.155625
0.164168
0.173534
0.183916
0.195243
0.207631
0.220983
0.235561
0.251093
0.267953
0.285719
0.304909
0.324816
0.346275
0.367937
0.119526
0.120703
0.122997
0.126266
0.130425
0.135488
0.141364
0.148148
0.155734
0.164282
0.17363
0.184085
0.195338
0.20772
0.221048
0.235596
0.251071
0.267858
0.285519
0.304578
0.324304
0.345545
0.366903
0.119589
0.120767
0.123065
0.126338
0.130501
0.135569
0.14145
0.148239
0.155828
0.164375
0.173748
0.184158
0.195406
0.207778
0.221064
0.235564
0.250964
0.267658
0.285185
0.304078
0.323576
0.344544
0.365527
0.119644
0.120824
0.123124
0.126401
0.130568
0.135641
0.141526
0.148318
0.15591
0.164436
0.173813
0.184213
0.195447
0.207793
0.221029
0.235467
0.250775
0.267352
0.284716
0.303407
0.322632
0.343275
0.363814
0.119693
0.120874
0.123176
0.126456
0.130627
0.135703
0.141591
0.148384
0.155978
0.164514
0.173863
0.184248
0.195456
0.207767
0.220944
0.235305
0.250503
0.266941
0.284113
0.302569
0.321474
0.34174
0.361764
0.119734
0.120917
0.123221
0.126503
0.130677
0.135755
0.141646
0.148439
0.156028
0.164566
0.173895
0.184258
0.195434
0.2077
0.220807
0.235078
0.250148
0.266426
0.283377
0.301563
0.320105
0.339941
0.359383
0.119768
0.120952
0.123258
0.126542
0.130718
0.135798
0.141691
0.148482
0.156047
0.164591
0.173908
0.184242
0.19538
0.207593
0.220619
0.234787
0.249711
0.265807
0.282509
0.300391
0.318524
0.33788
0.356672
0.119795
0.12098
0.123287
0.126573
0.130751
0.135832
0.141725
0.148514
0.156086
0.164601
0.173899
0.184201
0.195294
0.207446
0.220381
0.234432
0.249192
0.265085
0.281508
0.299054
0.316734
0.335561
0.353636
0.119815
0.121001
0.123309
0.126596
0.130776
0.135856
0.141748
0.148534
0.156106
0.164593
0.17387
0.184136
0.195177
0.207258
0.220093
0.234013
0.248592
0.26426
0.280377
0.297553
0.314738
0.332986
0.35028
0.119828
0.121014
0.123324
0.126612
0.130792
0.135871
0.141762
0.148537
0.156102
0.16457
0.173821
0.184045
0.195029
0.207031
0.219754
0.233531
0.247911
0.263333
0.279116
0.29589
0.312537
0.330158
0.346608
0.119834
0.121021
0.12333
0.126619
0.130799
0.135877
0.141766
0.148517
0.156084
0.164531
0.173752
0.183929
0.19485
0.206765
0.219366
0.232986
0.247149
0.262305
0.277726
0.294065
0.310133
0.32708
0.342625
0.119833
0.12102
0.12333
0.126618
0.130798
0.135873
0.141761
0.148504
0.15605
0.164475
0.173663
0.183789
0.19464
0.206459
0.218929
0.232378
0.246308
0.261176
0.276209
0.292082
0.307528
0.323756
0.338336
0.119825
0.121012
0.123322
0.12661
0.130789
0.135861
0.141745
0.148504
0.156003
0.164403
0.173553
0.183624
0.194399
0.206115
0.218442
0.231708
0.245388
0.259948
0.274565
0.289942
0.304726
0.320191
0.333748
0.119811
0.120997
0.123307
0.126594
0.130771
0.13584
0.14172
0.148459
0.155943
0.164315
0.173424
0.183435
0.194128
0.205732
0.217907
0.230976
0.24439
0.258621
0.272795
0.287646
0.30173
0.316388
0.328867
0.119789
0.120975
0.123284
0.12657
0.130745
0.135809
0.141677
0.148406
0.15587
0.164211
0.173276
0.183222
0.193826
0.205311
0.217323
0.230183
0.243313
0.257196
0.270902
0.285197
0.298541
0.312351
0.323698
0.11976
0.120946
0.123254
0.126539
0.130712
0.135771
0.141606
0.148341
0.155784
0.164091
0.173107
0.182984
0.193495
0.204852
0.216692
0.229329
0.24216
0.255674
0.268886
0.282596
0.295163
0.308084
0.31825
0.119724
0.12091
0.123217
0.1265
0.13067
0.135725
0.141579
0.148263
0.155684
0.163955
0.17292
0.182723
0.193134
0.204355
0.216013
0.228415
0.24093
0.254057
0.266749
0.279845
0.291598
0.303594
0.312528
0.119682
0.120868
0.123173
0.126454
0.13062
0.135669
0.141504
0.148174
0.155572
0.163803
0.172714
0.182438
0.192744
0.203821
0.215287
0.227441
0.239625
0.252344
0.264493
0.276948
0.287851
0.298883
0.306541
0.119633
0.120818
0.123122
0.1264
0.130563
0.135602
0.141425
0.148076
0.155448
0.163637
0.172489
0.18213
0.192324
0.20325
0.214515
0.226407
0.238245
0.250537
0.262118
0.273905
0.283924
0.293958
0.300295
0.119577
0.120762
0.123064
0.126339
0.130497
0.135519
0.14134
0.147967
0.15531
0.163454
0.172245
0.181799
0.191876
0.202643
0.213697
0.225315
0.236792
0.248637
0.259627
0.27072
0.279821
0.288823
0.2938
0.119515
0.120699
0.122999
0.126271
0.130425
0.135429
0.141242
0.147848
0.15516
0.163257
0.171983
0.181446
0.191399
0.201999
0.212833
0.224164
0.235265
0.246645
0.257021
0.267395
0.275544
0.283485
0.287062
0.119446
0.120629
0.122927
0.126196
0.130346
0.135384
0.141135
0.147719
0.154997
0.163045
0.171703
0.181069
0.190895
0.20132
0.211924
0.222956
0.233667
0.244562
0.254302
0.263932
0.271098
0.277947
0.28009
0.11937
0.120553
0.122848
0.126113
0.130257
0.135273
0.141019
0.147579
0.154823
0.162818
0.171405
0.180671
0.190362
0.200605
0.210971
0.221691
0.231997
0.242388
0.251471
0.260333
0.266486
0.272218
0.272892
0.119288
0.12047
0.122763
0.126024
0.130156
0.135161
0.140895
0.147429
0.154636
0.162577
0.17109
0.18025
0.189802
0.199855
0.209974
0.22037
0.230257
0.240126
0.248532
0.256601
0.261712
0.266301
0.265476
0.119199
0.120381
0.122671
0.125929
0.130053
0.135045
0.140762
0.147268
0.154437
0.162322
0.170757
0.179808
0.189215
0.19907
0.208933
0.218992
0.228448
0.237776
0.245484
0.252739
0.256778
0.260204
0.257849
0.119104
0.120285
0.122572
0.125826
0.129965
0.13492
0.14062
0.147098
0.154227
0.162052
0.170407
0.179344
0.1886
0.198252
0.207849
0.217559
0.226571
0.235339
0.242332
0.248748
0.251689
0.253931
0.25002
0.119002
0.120183
0.122467
0.125712
0.129841
0.134788
0.14047
0.146918
0.154005
0.161769
0.17004
0.17886
0.18796
0.197399
0.206723
0.216072
0.224626
0.232816
0.239076
0.24463
0.246449
0.247491
0.241996
0.118895
0.120075
0.122356
0.125586
0.129712
0.134648
0.140311
0.146729
0.153772
0.161472
0.169656
0.178354
0.187293
0.196513
0.205554
0.214531
0.222615
0.230208
0.235719
0.240388
0.241061
0.240888
0.233781
0.118781
0.11996
0.122239
0.125501
0.129579
0.134502
0.140144
0.14653
0.153527
0.161162
0.169256
0.177829
0.1866
0.195595
0.204344
0.212936
0.220537
0.227515
0.232263
0.236023
0.23553
0.234129
0.225383
0.118661
0.11984
0.122114
0.125361
0.12944
0.134348
0.139969
0.146321
0.153272
0.160839
0.16884
0.177283
0.185883
0.194644
0.203093
0.211289
0.218396
0.22474
0.228711
0.231538
0.229861
0.227219
0.216805
0.118534
0.119714
0.121985
0.12522
0.129294
0.134187
0.139786
0.146104
0.153007
0.160503
0.168408
0.176717
0.185139
0.193661
0.201801
0.20959
0.216189
0.221883
0.225062
0.226931
0.224055
0.220162
0.118402
0.119581
0.121854
0.125077
0.129141
0.134018
0.139594
0.145876
0.152728
0.160152
0.167958
0.176129
0.184368
0.192641
0.200464
0.207834
0.213914
0.218939
0.221316
0.222202
0.218119
0.21296
0.118264
0.119441
0.12171
0.124929
0.128982
0.133842
0.139394
0.145639
0.152438
0.159787
0.16749
0.175518
0.183568
0.191587
0.199083
0.206023
0.211573
0.215916
0.21748
0.217361
0.212068
0.20563
0.11812
0.119303
0.121562
0.124777
0.128822
0.133667
0.139196
0.145406
0.152155
0.159431
0.167031
0.174918
0.182778
0.19054
0.197705
0.204209
0.209217
0.212862
0.2136
0.212445
0.205933
0.198198
0.11797
0.119153
0.121413
0.124625
0.128664
0.133499
0.13901
0.145191
0.151896
0.159104
0.166609
0.174358
0.18203
0.189533
0.196359
0.202411
0.206852
0.209763
0.209632
0.207376
0.199594
0.190505
0.117814
0.118994
0.121245
0.124445
0.128465
0.133272
0.138747
0.144873
0.151506
0.158614
0.165984
0.173551
0.180986
0.188176
0.194605
0.200143
0.203965
0.206081
0.20506
0.201659
0.192691
0.109785
0.11079
0.112698
0.115392
0.11876
0.12276
0.127276
0.13228
0.137624
0.143267
0.148988
0.154713
0.160097
0.165024
0.168948
0.171753
0.172552
0.171419
0.16676
0.159534
0.146086
0.110132
0.111143
0.113066
0.115785
0.119187
0.123235
0.127812
0.1329
0.13835
0.144133
0.150033
0.15599
0.161666
0.166971
0.171359
0.174757
0.176256
0.176007
0.172325
0.166353
0.154216
0.140849
0.110473
0.111484
0.113416
0.116148
0.119573
0.123653
0.128274
0.133421
0.138951
0.144841
0.150883
0.15703
0.162952
0.168581
0.17338
0.177311
0.179462
0.180046
0.177333
0.172584
0.161839
0.14996
0.110809
0.111821
0.113763
0.116512
0.119962
0.124076
0.128744
0.133954
0.139567
0.14557
0.151756
0.158093
0.164259
0.170205
0.175401
0.179843
0.182614
0.183988
0.182198
0.178598
0.169197
0.158737
0.11114
0.112154
0.114108
0.116874
0.12035
0.124501
0.129217
0.134493
0.140191
0.146306
0.152637
0.159165
0.165572
0.171833
0.177421
0.182365
0.185745
0.187892
0.187009
0.184524
0.176457
0.167398
0.111466
0.112483
0.114448
0.117232
0.120733
0.12492
0.129684
0.135024
0.140805
0.147031
0.153503
0.160217
0.166861
0.173429
0.179399
0.184836
0.188814
0.191719
0.191734
0.190338
0.183606
0.175925
0.111787
0.112807
0.114783
0.117584
0.121111
0.125333
0.130143
0.135546
0.141409
0.147742
0.154353
0.161248
0.168123
0.17499
0.181334
0.187251
0.191815
0.19546
0.196361
0.196028
0.19062
0.184301
0.112103
0.113126
0.115112
0.117931
0.121483
0.125739
0.130596
0.13606
0.142003
0.148441
0.155187
0.16226
0.16936
0.176519
0.183228
0.189614
0.19475
0.199116
0.200891
0.201593
0.197496
0.192524
0.179428
0.112413
0.113438
0.115437
0.118273
0.121849
0.12614
0.131042
0.136567
0.142587
0.149129
0.156007
0.163253
0.170572
0.178017
0.185081
0.191924
0.197621
0.202688
0.205323
0.207035
0.204229
0.200594
0.189302
0.112718
0.113747
0.115757
0.118609
0.12221
0.126535
0.131481
0.137065
0.143162
0.149804
0.156812
0.164227
0.17176
0.179482
0.186894
0.194181
0.200425
0.206175
0.209654
0.212351
0.210815
0.208506
0.198982
0.113018
0.114051
0.116071
0.11894
0.122565
0.126923
0.131913
0.137555
0.143726
0.150468
0.157601
0.165181
0.172922
0.180915
0.188664
0.196383
0.203163
0.209576
0.213884
0.21754
0.21725
0.216253
0.208465
0.113312
0.114348
0.11638
0.119266
0.122915
0.127305
0.132337
0.138036
0.14428
0.151118
0.158374
0.166115
0.174058
0.182314
0.190392
0.198531
0.205833
0.21289
0.218009
0.222601
0.223531
0.223829
0.217746
0.1136
0.114641
0.116685
0.119586
0.123258
0.12768
0.132754
0.138509
0.144824
0.151756
0.159131
0.167028
0.175169
0.18368
0.192078
0.200624
0.208435
0.216117
0.222028
0.227532
0.229653
0.231227
0.226818
0.113883
0.114927
0.116984
0.1199
0.123595
0.128049
0.133163
0.138972
0.145357
0.152381
0.159872
0.167921
0.176253
0.185012
0.193721
0.202661
0.210967
0.219254
0.225938
0.23233
0.235613
0.238443
0.235676
0.114159
0.115208
0.117274
0.120208
0.123925
0.12841
0.133564
0.139427
0.145879
0.152992
0.160596
0.168793
0.177311
0.18631
0.19532
0.204642
0.213429
0.222302
0.229738
0.236994
0.241408
0.245469
0.244311
0.11443
0.115483
0.117557
0.120511
0.124249
0.128764
0.133957
0.139872
0.14639
0.15359
0.161303
0.169643
0.178341
0.187572
0.196875
0.206566
0.21582
0.22526
0.233426
0.241521
0.247034
0.2523
0.252716
0.114695
0.115753
0.117838
0.120806
0.124567
0.129111
0.134342
0.140307
0.14689
0.154174
0.161994
0.170472
0.179344
0.1888
0.198386
0.208432
0.21814
0.228126
0.237
0.245909
0.252489
0.25893
0.260883
0.114954
0.116016
0.118113
0.121096
0.124877
0.129451
0.134719
0.140733
0.147378
0.154744
0.162666
0.171278
0.18032
0.189992
0.199852
0.21024
0.220386
0.230899
0.240458
0.250157
0.257768
0.265353
0.268804
0.115207
0.116274
0.11838
0.121379
0.125181
0.129783
0.135087
0.141149
0.147855
0.155299
0.163322
0.172063
0.181267
0.191148
0.201272
0.21199
0.222558
0.233579
0.2438
0.25426
0.262869
0.271566
0.276472
0.115453
0.116525
0.118642
0.121655
0.125478
0.130107
0.135447
0.141555
0.148319
0.15584
0.163959
0.172825
0.182186
0.192267
0.202646
0.213681
0.224656
0.236165
0.247022
0.258218
0.267788
0.277561
0.283879
0.115693
0.11677
0.118897
0.121925
0.125767
0.130424
0.135797
0.141951
0.148771
0.156367
0.164578
0.173564