/*--------------------------------*- C++ -*----------------------------------*\
  =========                 |
  \\      /  F ield         | OpenFOAM: The Open Source CFD Toolbox
   \\    /   O peration     | Website:  https://openfoam.org
    \\  /    A nd           | Version:  7
     \\/     M anipulation  |
\*---------------------------------------------------------------------------*/
FoamFile
{
    version     2.0;
    format      ascii;
    class       surfaceScalarField;
    location    "180";
    object      phi;
}
// * * * * * * * * * * * * * * * * * * * * * * * * * * * * * * * * * * * * * //

dimensions      [0 3 -1 0 0 0 0];

internalField   nonuniform List<scalar> 
8921
(
-0.00236102
-0.00105524
-0.0022875
-0.00107374
-0.00221308
-0.0010917
-0.0010338
-0.00208457
-0.00213778
-0.0011091
-0.00104978
-0.00201025
-0.00206161
-0.00112595
-0.00106521
-0.0019351
-0.00198459
-0.00114222
-0.00108008
-0.00185916
-0.00190677
-0.00115791
-0.00101767
-0.00173871
-0.00109439
-0.00178244
-0.00182814
-0.00117301
-0.00103066
-0.0016631
-0.00110813
-0.00170498
-0.00174876
-0.00118751
-0.00104311
-0.00158678
-0.00112129
-0.0016268
-0.00166864
-0.00120142
-0.00105501
-0.00150979
-0.00113388
-0.00154793
-0.00158781
-0.00121471
-0.000988721
-0.00139789
-0.00106636
-0.00143215
-0.00114589
-0.0014684
-0.00150631
-0.00122739
-0.000998894
-0.00132143
-0.00107715
-0.0013539
-0.0011573
-0.00138824
-0.00142416
-0.00123945
-0.00100853
-0.00124441
-0.00108737
-0.00127506
-0.00116813
-0.00130749
-0.0013414
-0.00125089
-0.00101764
-0.00116684
-0.00109703
-0.00119567
-0.00117835
-0.00122617
-0.00125807
-0.00126169
-0.00102621
-0.00108877
-0.00110613
-0.00111576
-0.00118798
-0.00114431
-0.00117418
-0.00127186
-0.000955685
-0.000986514
-0.00103424
-0.00101021
-0.00111465
-0.00103536
-0.001197
-0.00106196
-0.00108979
-0.0012814
-0.000962726
-0.000909253
-0.00104173
-0.0009312
-0.00112259
-0.000954496
-0.00120541
-0.000979136
-0.00100492
-0.00129029
-0.000969255
-0.000831582
-0.00104868
-0.000851777
-0.00112996
-0.000873212
-0.00121322
-0.000895882
-0.0009196
-0.00129853
-0.000975271
-0.000753534
-0.00105508
-0.00077197
-0.00113675
-0.000791537
-0.00122041
-0.000812228
-0.000833876
-0.00130613
-0.00098077
-0.00067514
-0.00106093
-0.000691812
-0.00114296
-0.000709505
-0.00122698
-0.000728209
-0.000747779
-0.00131308
-0.000985754
-0.000596434
-0.00106623
-0.000611336
-0.00114859
-0.000627148
-0.00123294
-0.00064386
-0.000661344
-0.00131937
-0.000990219
-0.000517447
-0.00107098
-0.000530575
-0.00115363
-0.000544501
-0.00123827
-0.000559215
-0.000574607
-0.00132501
-0.000994164
-0.000438213
-0.00107518
-0.000449563
-0.00115808
-0.000461599
-0.00124299
-0.000474309
-0.000487603
-0.00132999
-0.00099759
-0.000358764
-0.00107882
-0.000368333
-0.00116194
-0.000378474
-0.00124708
-0.000389177
-0.000400369
-0.00133431
-0.00100049
-0.000279133
-0.00108191
-0.000286919
-0.00116522
-0.000295163
-0.00125054
-0.000303855
-0.000312941
-0.00133797
-0.00100288
-0.000199354
-0.00108444
-0.000205354
-0.00116791
-0.000211698
-0.00125338
-0.000218377
-0.000225354
-0.00134097
-0.000924843
-0.000115474
-0.00100474
-0.00011946
-0.00108642
-0.000123673
-0.00117
-0.000128116
-0.0012556
-0.00013278
-0.00013764
-0.00134331
-0.0009261
-3.71752e-05
-0.00100608
-3.94832e-05
-0.00108784
-4.19101e-05
-0.0011715
-4.44511e-05
-0.00125718
-4.70994e-05
-4.98348e-05
-0.00134499
-0.000926867
4.1173e-05
-0.00100689
4.05417e-05
-0.0010887
3.99012e-05
-0.00117241
3.92606e-05
-0.00125814
3.86257e-05
3.798e-05
-0.00134595
-0.000927145
0.000119537
-0.00100718
0.000120582
-0.00108901
0.000121727
-0.00117274
0.000122986
-0.00125847
0.000124363
0.000125821
-0.00134631
-0.000926934
0.000197885
-0.00100696
0.000200605
-0.00108876
0.000203534
-0.00117247
0.000206691
-0.00125818
0.000210079
0.000213644
-0.00134601
-0.000926234
-0.00100621
0.000280576
-0.00108796
0.000285288
-0.00117161
0.000290341
-0.00125727
0.000295738
0.000301409
-0.00134503
-0.00100493
0.000360463
-0.0010866
0.000366954
-0.00117016
0.000373901
-0.00125573
0.000381304
0.000389076
-0.00134339
-0.00100314
0.000440233
-0.00108469
0.000448501
-0.00116812
0.000457337
-0.00125356
0.000466741
0.00047661
-0.00134109
-0.00100083
0.000519853
-0.00108222
0.000529892
-0.0011655
0.000540613
-0.00125077
0.000552015
0.000563975
-0.00133813
-0.000997996
0.000599289
-0.0010792
0.000611096
-0.00116228
0.000623697
-0.00124736
0.00063709
0.000651134
-0.00133452
-0.000994647
0.000678509
-0.00107563
0.000692079
-0.00115849
0.000706553
-0.00124333
0.00072193
0.000738052
-0.00133024
-0.000990781
0.000757481
-0.00107151
0.000772807
-0.0011541
0.000789147
-0.00123868
0.000806502
0.000824692
-0.00132532
-0.000986401
0.000836172
-0.00106684
0.000853248
-0.00114914
0.000871447
-0.00123341
0.00089077
0.00091102
-0.00131974
-0.000981508
0.000914549
-0.00106163
0.000933368
-0.0011436
0.000953418
-0.00122753
0.000974701
0.000997
-0.00131351
-0.000976103
0.000992582
-0.00105587
0.00101314
-0.00113748
0.00103503
-0.00122104
0.00105826
0.0010826
-0.00130664
-0.000970189
0.00107024
-0.00104957
0.00109252
-0.00113079
0.00111624
-0.00121394
0.00114141
0.00116778
-0.00129912
-0.000963767
-0.00104273
0.00117148
-0.00112352
0.00119703
-0.00120624
0.00122413
0.00125251
-0.00129096
-0.00103536
0.00125
-0.00111569
0.00127736
-0.00119793
0.00130637
0.00133675
-0.00128217
-0.00102745
0.00132804
-0.00110729
0.00135719
-0.00118903
0.00138811
0.00142048
-0.00127275
-0.00101901
0.00140557
-0.00109833
0.00143651
-0.00117953
0.00146932
0.00150365
-0.00126271
-0.00101005
0.00148256
-0.00108881
0.00151527
-0.00116945
0.00154995
0.00158624
-0.00125204
-0.00100056
-0.00107874
0.00159345
-0.00115878
0.00162999
0.00166822
-0.00124075
-0.00106811
0.00167102
-0.00114753
0.0017094
0.00174955
-0.00122886
-0.00105695
0.00174794
-0.0011357
0.00178816
0.0018302
-0.00121636
-0.00104524
0.0018242
-0.00112331
0.00186623
0.00191016
-0.00120326
-0.00103299
-0.00111035
0.00194358
0.00198937
-0.00118957
-0.00109683
0.0020202
0.00206784
-0.0011753
-0.00108277
0.00209606
0.00214552
-0.00116045
-0.00106816
0.00222239
-0.00114503
0.00229844
-0.00112906
0.00237364
-0.00111253
-0.00109547
0.00559849
3.47488e-05
-3.12664e-05
0.00558878
9.93516e-05
-8.96437e-05
0.00557373
0.000163666
-0.000148611
0.00555404
0.000230224
-0.000210537
0.00553008
0.000301419
-0.00027746
0.00550246
0.000377232
-0.000349607
0.0054713
0.000458397
-0.00042724
0.00543725
0.000543903
-0.000509857
0.00540044
0.000634628
-0.000597812
0.00536173
0.000729074
-0.000690371
0.00532139
0.000828682
-0.00078834
0.00528075
0.000931212
-0.000890566
0.00524026
0.00103887
-0.000998394
0.00520203
0.00114793
-0.00110969
0.00516665
0.00126189
-0.00122652
0.00513743
0.00137392
-0.0013447
0.00511466
0.00149072
-0.00146794
0.00510389
0.00159833
-0.00158757
0.00510318
0.00171335
-0.00171264
0.00512403
0.00180173
-0.00182258
0.00191477
-0.00194668
0.00573174
3.81691e-05
0.00572217
0.000108917
0.00570734
0.000178503
0.00568803
0.00024953
0.00566459
0.000324855
0.00563777
0.000404056
0.00560768
0.000488484
0.00557516
0.000576426
0.00554031
0.000669476
0.00550427
0.000765115
0.00546725
0.000865698
0.00543094
0.000967521
0.00539569
0.00107413
0.00536406
0.00117957
0.00533633
0.00128963
0.00531648
0.00139376
0.00530398
0.00150322
0.00530532
0.00159699
0.00531734
0.00170134
0.0053512
0.00176787
0.00186691
0.00586815
4.15247e-05
0.0058588
0.000118273
0.0058443
0.000192997
0.00582552
0.00026831
0.00580284
0.000347541
0.00577705
0.000429844
0.00574836
0.000517177
0.00571767
0.000607112
0.00568519
0.000701952
0.00565217
0.000798144
0.0056189
0.000898967
0.00558719
0.000999228
0.00555746
0.00110386
0.00553237
0.00120466
0.0055122
0.0013098
0.00550086
0.0014051
0.00549784
0.00150624
0.00550883
0.00158599
0.00553146
0.00167871
0.00557279
0.00172655
0.00181093
0.00600783
4.47988e-05
0.00599873
0.000127368
0.00598467
0.000207059
0.00596655
0.000286436
0.00594478
0.000369308
0.00592023
0.000454392
0.00589318
0.00054423
0.0058646
0.000635689
0.0058348
0.000731754
0.00580509
0.000827859
0.00577587
0.000928185
0.005749
0.0010261
0.00572496
0.00112789
0.00570638
0.00122324
0.00569358
0.0013226
0.0056901
0.00140858
0.00569568
0.00150066
0.00571463
0.00156705
0.00574575
0.00164759
0.00579232
0.00167998
0.00174931
0.00615084
4.7975e-05
0.00614205
0.000136155
0.0061285
0.000220608
0.00611114
0.000303799
0.00609043
0.000390014
0.00606729
0.000477529
0.00604208
0.000569442
0.00601583
0.000661937
0.00598894
0.000758645
0.00596277
0.000854033
0.00593781
0.00095314
0.00591592
0.00104799
0.00589766
0.00114615
0.00588546
0.00123545
0.00587978
0.00132827
0.00588355
0.00140481
0.00589689
0.00148732
0.00592258
0.00154136
0.00596055
0.00160962
0.00601152
0.00162901
0.00168373
0.00629726
5.10374e-05
0.00628883
0.000144592
0.00627586
0.000233571
0.00625936
0.000320303
0.00623984
0.000409535
0.00621826
0.000499111
0.00619505
0.000592648
0.00617131
0.000685683
0.00614751
0.000782446
0.00612503
0.000876513
0.00610446
0.000973706
0.00608758
0.00106488
0.00607505
0.00115868
0.00606901
0.00124149
0.00607008
0.0013272
0.00608047
0.00139441
0.00610068
0.00146711
0.00613214
0.0015099
0.00617557
0.00156619
0.00623006
0.00157453
0.00161594
0.00644718
5.39698e-05
0.00643914
0.000152633
0.00642684
0.000245876
0.00641128
0.000335854
0.00639306
0.000427755
0.00637317
0.000519006
0.00635211
0.000613706
0.00633101
0.000706786
0.00631043
0.000803025
0.00629173
0.000895207
0.00627561
0.000989832
0.00626369
0.0010768
0.00625674
0.00116562
0.00625655
0.00124168
0.00626389
0.00131986
0.00628025
0.00137805
0.00630642
0.00144094
0.00634277
0.00147356
0.00639043
0.00151853
0.00644742
0.00151754
0.00154722
0.00660068
5.6756e-05
0.00659307
0.000160236
0.0065815
0.000257454
0.00656699
0.000350364
0.00655017
0.00044457
0.00653208
0.000537102
0.00651329
0.000632494
0.00649493
0.000725142
0.00647766
0.000820293
0.00646279
0.000910077
0.00645109
0.00100153
0.00644401
0.00108387
0.00644243
0.00116721
0.00644771
0.0012364
0.00646077
0.0013068
0.00648244
0.00135638
0.00651368
0.0014097
0.00655407
0.00143317
0.00660488
0.00146771
0.0066635
0.00145892
0.00147838
0.00675784
5.93798e-05
0.00675071
0.000167359
0.00673993
0.000268239
0.00672654
0.000363752
0.00671123
0.00045988
0.00669503
0.0005533
0.00667861
0.000648912
0.00666308
0.000740674
0.00664918
0.000834194
0.00663813
0.000921133
0.00663078
0.00100888
0.00662836
0.00108629
0.00663184
0.00116374
0.00664218
0.00122605
0.00666038
0.00128861
0.0066867
0.00133006
0.00672217
0.00137423
0.0067658
0.00138954
0.00681886
0.00141466
0.00687842
0.00139936
0.00141001
0.00691874
6.18255e-05
0.00691214
0.000173965
0.00690221
0.000278165
0.00689002
0.000375942
0.0068763
0.000473598
0.00686209
0.000567516
0.00684812
0.00066288
0.00683546
0.000753331
0.00682494
0.000844712
0.00681766
0.000928419
0.00681453
0.001012
0.00681657
0.00108425
0.00682477
0.00115554
0.00683974
0.00121108
0.00686246
0.00126588
0.0068928
0.00129972
0.00693172
0.00133531
0.00697787
0.00134339
0.00703241
0.00136012
0.00709233
0.00133944
0.0013426
0.00708348
6.40776e-05
0.00707743
0.000180015
0.00706842
0.000287175
0.0070575
0.000386869
0.00704545
0.000485646
0.00703328
0.000579681
0.00702182
0.000674342
0.00701206
0.000763091
0.00700491
0.000851867
0.00700131
0.000932018
0.00700225
0.00101106
0.00700849
0.00107801
0.00702103
0.001143
0.00704017
0.00119194
0.00706684
0.00123921
0.00710058
0.00126598
0.00714224
0.00129365
0.00719025
0.00129538
0.00724566
0.00130472
0.00730543
0.00127966
0.00127652
0.00725215
6.61216e-05
0.00724669
0.000185479
0.00723865
0.000295215
0.00722905
0.000396471
0.00721873
0.000495962
0.00720867
0.000589745
0.00719975
0.000683262
0.00719289
0.000769953
0.00718904
0.000855712
0.00718902
0.00093204
0.00719382
0.00100626
0.00720399
0.00106784
0.00722047
0.00112651
0.00724333
0.00116908
0.00727339
0.00120915
0.00730994
0.00122942
0.00735371
0.00124988
0.00740302
0.00124607
0.00745875
0.00124899
0.00751797
0.00122044
0.00121205
0.00742484
6.79441e-05
0.00742
0.000190325
0.00741297
0.000302238
0.00740474
0.0004047
0.00739621
0.000504496
0.00738829
0.00059767
0.00738191
0.000689634
0.00737792
0.000773943
0.0073773
0.000856333
0.00738072
0.000928628
0.00738915
0.000997831
0.00740294
0.00105405
0.00742298
0.00110648
0.0074491
0.00114296
0.00748201
0.00117625
0.00752084
0.00119059
0.00756617
0.00120456
0.00761627
0.00119597
0.00767189
0.00119337
0.00773023
0.0011621
0.00114939
0.00760164
6.95335e-05
0.00759744
0.000194528
0.00759147
0.000308205
0.00758466
0.000411514
0.00757794
0.000511215
0.00757217
0.000603439
0.00756833
0.00069347
0.00756716
0.000775112
0.00756966
0.00085384
0.00757634
0.000921945
0.00758814
0.000986027
0.00760525
0.00103694
0.00762844
0.00108329
0.00765739
0.00111401
0.00769266
0.00114098
0.00773327
0.00114998
0.00777967
0.00115815
0.00783014
0.0011455
0.00788529
0.00113821
0.00794249
0.00110491
0.00108868
0.00778265
7.08801e-05
0.00777911
0.000198065
0.00777423
0.000313088
0.00776886
0.000416884
0.00776397
0.000516101
0.00776036
0.000607052
0.00775902
0.000694809
0.0077606
0.000773533
0.00776607
0.000848373
0.00777583
0.000912183
0.00779075
0.000971114
0.00781085
0.00101683
0.0078368
0.00105733
0.00786815
0.00108267
0.00790532
0.00110381
0.00794727
0.00110803
0.00799432
0.0011111
0.00804478
0.00109504
0.00809919
0.00108381
0.00815504
0.00104906
0.00103003
0.00796796
7.19762e-05
0.00796511
0.000200919
0.00796133
0.000316864
0.00795743
0.000420791
0.00795437
0.000519153
0.0079529
0.000608525
0.007954
0.000693709
0.00795823
0.000769301
0.00796652
0.000840088
0.00797915
0.000899547
0.0079969
0.000953369
0.00801968
0.000994051
0.00804801
0.001029
0.00808136
0.00104932
0.00812002
0.00106516
0.00816291
0.00106514
0.00821024
0.00106376
0.00826039
0.00104489
0.00831381
0.0010304
0.00836817
0.000994691
0.000973482
0.00815768
7.28166e-05
0.00815552
0.000203076
0.00815286
0.000319523
0.00815043
0.000423227
0.0081492
0.000520385
0.00814983
0.000607893
0.00815329
0.000690249
0.00816006
0.000762533
0.00817098
0.000829161
0.00818627
0.00088426
0.00820657
0.000933075
0.00823169
0.000968923
0.00826205
0.000998639
0.00829702
0.00101435
0.00833679
0.00102539
0.00838026
0.00102167
0.00842757
0.00101645
0.00847716
0.000995307
0.0085294
0.000978153
0.00858216
0.000941927
0.000919063
0.00835191
7.33984e-05
0.00835045
0.000204529
0.00834891
0.000321063
0.00834794
0.000424196
0.0083485
0.000519827
0.00835118
0.000605211
0.00835691
0.000684524
0.00836608
0.000753363
0.00837946
0.00081578
0.00839717
0.000866556
0.00841973
0.000910513
0.00844689
0.000941762
0.00847893
0.0009666
0.00851517
0.000978104
0.00855571
0.000984855
0.00859945
0.000977924
0.00864647
0.000969436
0.00869527
0.0009465
0.0087462
0.000927226
0.00879729
0.000890843
0.000866778
0.00855074
7.37213e-05
0.00855
0.000205274
0.00854957
0.000321492
0.00855005
0.000423717
0.00855235
0.000517523
0.00855702
0.000600546
0.0085649
0.000676646
0.00857632
0.000741941
0.00859195
0.000800143
0.00861184
0.000846673
0.00863639
0.000885962
0.00866528
0.000912873
0.00869867
0.000933203
0.00873587
0.000940907
0.00877687
0.000943856
0.00882061
0.000934182
0.0088671
0.000922943
0.00891496
0.000898645
0.00896446
0.000877724
0.00901381
0.000841491
0.000816612
0.0087543
7.37871e-05
0.00875426
0.000205316
0.00875492
0.000320826
0.00875682
0.000421818
0.00876082
0.00051353
0.00876738
0.000593985
0.00877728
0.000666741
0.00879079
0.000728431
0.00880848
0.000782458
0.0088303
0.000824855
0.00885656
0.000859698
0.00888688
0.00088255
0.00892134
0.00089875
0.00895919
0.00090305
0.00900038
0.000902664
0.00904389
0.000890681
0.00908966
0.000877163
0.00913643
0.000851883
0.00918442
0.00082973
0.00923201
0.000793906
0.000768542
0.00896269
7.35998e-05
0.00896334
0.000204662
0.00896507
0.00031909
0.00896835
0.000418541
0.00897396
0.000507918
0.00898232
0.000585627
0.00899412
0.000654946
0.00900954
0.000713005
0.00902906
0.000762936
0.00905258
0.000801342
0.00908029
0.000831986
0.00911177
0.000851073
0.009147
0.000863519
0.00918525
0.000864802
0.00922639
0.00086152
0.00926945
0.000847625
0.00931435
0.000832258
0.00935991
0.000806328
0.00940633
0.000783305
0.00945213
0.000748103
0.000722534
0.00917601
7.31657e-05
0.00917735
0.00020333
0.00918012
0.00031632
0.00918472
0.000413938
0.00919187
0.00050077
0.00920191
0.000575582
0.00921545
0.000641408
0.00923261
0.000695846
0.00925376
0.000741788
0.00927873
0.000776373
0.00930763
0.000803081
0.00934
0.000818703
0.00937575
0.000827767
0.00941415
0.000826402
0.00945504
0.000820636
0.00949747
0.000805192
0.00954137
0.000788359
0.00958563
0.000762072
0.00963044
0.000738492
0.00967445
0.000704089
0.000678549
0.0093944
7.24929e-05
0.00939639
0.000201338
0.00940015
0.000312555
0.00940602
0.000408072
0.00941461
0.000492176
0.00942622
0.000563972
0.00944135
0.000626282
0.00946006
0.000677137
0.00948262
0.000719228
0.00950881
0.000750181
0.00953867
0.000773227
0.00957168
0.000785685
0.00960772
0.000791728
0.00964606
0.000788064
0.0096865
0.000780195
0.00972816
0.000763532
0.00977094
0.000745577
0.00981383
0.000719185
0.009857
0.000695319
0.00989923
0.000661857
0.000636545
0.00961796
7.15913e-05
0.00962058
0.000198715
0.00962529
0.000307846
0.00963235
0.000401017
0.00964229
0.000482238
0.00965533
0.000550928
0.00967189
0.000609726
0.00969196
0.000657066
0.00971572
0.000695463
0.00974291
0.00072299
0.00977349
0.000742653
0.00980692
0.000752246
0.00984304
0.000755614
0.00988112
0.00074998
0.00992096
0.00074036
0.00996172
0.000722773
0.0100033
0.000704
0.0100448
0.000677721
0.0100863
0.000653801
0.0101267
0.000621395
0.000596474
0.00984682
7.04726e-05
0.00985004
0.000195492
0.00985564
0.000302248
0.00986381
0.000392852
0.00987498
0.000471064
0.00988932
0.000536587
0.00990714
0.000591905
0.00992839
0.00063582
0.00995316
0.000670699
0.00998113
0.000695015
0.0100122
0.000711576
0.0100459
0.000718595
0.0100819
0.000719617
0.0101195
0.000712319
0.0101586
0.000701268
0.0101984
0.000683022
0.0102387
0.0006637
0.0102787
0.000637719
0.0103185
0.000613943
0.0103572
0.000582682
0.00055829
0.0100811
6.91498e-05
0.0100849
0.000191705
0.0100913
0.000295822
0.0101005
0.000383665
0.0101128
0.000458766
0.0101283
0.000521088
0.0101472
0.000572983
0.0101695
0.000613584
0.010195
0.000645131
0.0102236
0.000666459
0.010255
0.000680194
0.0102886
0.000684922
0.0103243
0.000683908
0.0103614
0.00067523
0.0103997
0.000663037
0.0104383
0.000644368
0.0104773
0.000624731
0.0105158
0.000599206
0.010554
0.000575743
0.010591
0.000545695
0.000521942
0.0103209
6.76371e-05
0.0103252
0.000187396
0.0103324
0.000288635
0.0103426
0.000373548
0.0103559
0.000445465
0.0103724
0.000504575
0.0103922
0.000553122
0.0104153
0.000590536
0.0104415
0.00061895
0.0104704
0.000637514
0.0105019
0.000648695
0.0105354
0.000651399
0.0105707
0.00064864
0.0106071
0.00063884
0.0106443
0.000625768
0.0106818
0.000606882
0.0107194
0.000587137
0.0107564
0.0005622
0.010793
0.00053919
0.0108283
0.000510404
0.000487382
0.0105665
6.59501e-05
0.0105712
0.000182606
0.0105791
0.000280756
0.0105901
0.000362599
0.0106043
0.000431282
0.0106216
0.000487193
0.0106423
0.000532484
0.010666
0.000566851
0.0106926
0.000592333
0.0107217
0.000608359
0.0107532
0.000617246
0.0107864
0.000618183
0.0108211
0.000613947
0.0108567
0.000603261
0.0108929
0.000589545
0.0109292
0.000570624
0.0109653
0.000550946
0.0110008
0.000526706
0.0110358
0.000504268
0.0110694
0.000476778
0.000454557
0.0108178
6.41051e-05
0.010823
0.000177384
0.0108315
0.00027226
0.0108432
0.000350917
0.0108581
0.000416338
0.0108762
0.000469082
0.0108975
0.000511226
0.0109217
0.000542697
0.0109485
0.00056545
0.0109777
0.000579159
0.011009
0.000586002
0.0110418
0.000585411
0.0110758
0.000579946
0.0111104
0.000568588
0.0111455
0.000554435
0.0111805
0.000535637
0.0112153
0.000516179
0.0112493
0.000492725
0.0112826
0.000470954
0.0113146
0.000444779
0.000423416
0.0110751
6.21191e-05
0.0110807
0.000171776
0.0110897
0.000263221
0.011102
0.000338604
0.0111176
0.000400755
0.0111363
0.000450384
0.011158
0.0004895
0.0111825
0.000518231
0.0112095
0.000538459
0.0112386
0.000550064
0.0112695
0.000555102
0.0113017
0.000553207
0.0113349
0.000546738
0.0113686
0.000534899
0.0114025
0.000520495
0.0114362
0.000501954
0.0114696
0.000482846
0.011502
0.000460249
0.0115338
0.000439223
0.0115642
0.000414371
0.000393907
0.0113385
6.00095e-05
0.0113444
0.000165833
0.0113539
0.000253717
0.0113667
0.000325761
0.0113828
0.000384653
0.011402
0.000431234
0.0114241
0.000467449
0.0114487
0.000493601
0.0114756
0.000511504
0.0115045
0.000521214
0.0115349
0.000524668
0.0115664
0.000521676
0.0115988
0.000514409
0.0116314
0.000502261
0.0116641
0.000487765
0.0116965
0.000469598
0.0117284
0.000450948
0.0117594
0.000429264
0.0117896
0.000409044
0.0118184
0.000385512
0.000365977
0.0116081
5.7794e-05
0.0116143
0.000159606
0.0116242
0.000243824
0.0116375
0.000312486
0.011654
0.000368151
0.0116735
0.000411762
0.0116957
0.00044521
0.0117203
0.000468948
0.0117471
0.000484719
0.0117756
0.000492733
0.0118055
0.000494812
0.0118362
0.000490912
0.0118676
0.000483032
0.0118991
0.000470724
0.0119306
0.000456279
0.0119616
0.000438583
0.0119921
0.000420481
0.0120216
0.000399749
0.0120503
0.000380382
0.0120776
0.000358161
0.000339574
0.0118841
5.54902e-05
0.0118906
0.000153143
0.0119008
0.000233618
0.0119144
0.000298878
0.0119312
0.00035136
0.0119508
0.000392092
0.0119731
0.000422913
0.0119977
0.000444397
0.0120242
0.000458226
0.0120522
0.00046473
0.0120814
0.000465627
0.0121113
0.000460993
0.0121416
0.000452666
0.012172
0.000440332
0.0122023
0.000426057
0.0122319
0.000408912
0.012261
0.000391432
0.012289
0.000371682
0.0123162
0.000353202
0.0123421
0.000332272
0.000314642
0.0121667
5.31157e-05
0.0121733
0.000146496
0.0121837
0.000223173
0.0121976
0.00028503
0.0122146
0.000334387
0.0122343
0.000372342
0.0122566
0.000400676
0.0122809
0.000420067
0.012307
0.000432132
0.0123344
0.000437303
0.0123628
0.000437197
0.0123918
0.000431985
0.0124212
0.000423357
0.0124504
0.000411112
0.0124793
0.000397111
0.0125076
0.000380584
0.0125353
0.000363784
0.0125619
0.000345033
0.0125877
0.000327463
0.0126122
0.000307799
0.000291129
0.0124559
5.06877e-05
0.0124627
0.000139712
0.0124733
0.000212559
0.0124873
0.000271031
0.0125044
0.000317336
0.0125241
0.000352618
0.0125462
0.000378608
0.0125702
0.000396061
0.0125958
0.000406534
0.0126225
0.000410537
0.0126501
0.000409589
0.0126782
0.000403941
0.0127064
0.000395143
0.0127344
0.000383086
0.0127621
0.000369446
0.0127891
0.000353587
0.0128153
0.000337513
0.0128406
0.00031977
0.0128649
0.000303123
0.0128881
0.000284696
0.000268979
0.012752
4.82228e-05
0.0127589
0.000132835
0.0127696
0.000201845
0.0127837
0.000256967
0.0128007
0.000300299
0.0128203
0.000333021
0.0128421
0.000356807
0.0128657
0.000372474
0.0128907
0.000381517
0.0129168
0.000384503
0.0129435
0.000382863
0.0129705
0.000376903
0.0129976
0.000368049
0.0130244
0.000356264
0.0130508
0.000343057
0.0130765
0.000327908
0.0131014
0.000312592
0.0131253
0.000295857
0.0131483
0.000280137
0.0131701
0.000262912
0.000248138
0.0130552
4.57368e-05
0.0130621
0.000125911
0.0130728
0.000191094
0.0130869
0.000242915
0.0131038
0.000283365
0.0131232
0.000313641
0.0131446
0.000335363
0.0131677
0.000349389
0.0131921
0.000357152
0.0132173
0.000359262
0.0132431
0.000357062
0.0132691
0.000350903
0.0132951
0.000342091
0.0133207
0.000330649
0.0133458
0.000317934
0.0133702
0.000303523
0.0133938
0.00028899
0.0134164
0.000273255
0.0134381
0.000258458
0.0134586
0.000242399
0.000228552
0.0133655
4.32441e-05
0.0133724
0.000118978
0.0133832
0.000180366
0.0133971
0.000228947
0.0134139
0.000266612
0.013433
0.00029456
0.013454
0.000314352
0.0134765
0.000326876
0.0135001
0.000333499
0.0135245
0.000334863
0.0135494
0.000332223
0.0135743
0.000325961
0.0135991
0.000317276
0.0136235
0.000306237
0.0136474
0.000294059
0.0136705
0.000280407
0.0136928
0.00026667
0.0137142
0.000251922
0.0137346
0.00023804
0.0137539
0.000223105
0.000210164
0.0136832
4.07585e-05
0.0136901
0.000112074
0.0137007
0.000169714
0.0137146
0.000215131
0.0137311
0.000250111
0.0137498
0.000275849
0.0137703
0.000293842
0.0137922
0.000304995
0.0138151
0.00031061
0.0138386
0.000311344
0.0138624
0.00030837
0.0138863
0.000302092
0.01391
0.000293604
0.0139332
0.000283014
0.0139558
0.000271411
0.0139777
0.000258529
0.0139988
0.000245594
0.0140189
0.000231814
0.0140381
0.000218833
0.0140562
0.00020498
0.00019292
0.0140084
3.82923e-05
0.0140153
0.000105233
0.0140258
0.000159188
0.0140394
0.000201523
0.0140556
0.000233924
0.0140739
0.000257569
0.0140938
0.000273891
0.014115
0.000283797
0.0141371
0.000288522
0.0141597
0.000288731
0.0141826
0.000285518
0.0142054
0.000279297
0.0142279
0.000271068
0.0142499
0.000260965
0.0142714
0.000249962
0.0142921
0.000237854
0.0143119
0.000225721
0.0143309
0.000212885
0.0143489
0.000200785
0.0143659
0.00018797
0.000176765
0.0143414
3.58565e-05
0.0143481
9.84839e-05
0.0143585
0.00014883
0.0143718
0.000188175
0.0143877
0.000218106
0.0144055
0.000239773
0.0144248
0.000254544
0.0144453
0.000263318
0.0144665
0.000267265
0.0144882
0.000267045
0.0145101
0.000263675
0.0145318
0.000257574
0.0145532
0.000249652
0.0145741
0.000240064
0.0145944
0.00022968
0.0146139
0.000218343
0.0146326
0.000207005
0.0146504
0.000195088
0.0146673
0.000183846
0.0146833
0.000172024
0.000161645
0.0146822
3.34607e-05
0.0146889
9.1854e-05
0.014699
0.000138679
0.0147121
0.000175131
0.0147275
0.0002027
0.0147447
0.000222504
0.0147635
0.00023584
0.0147832
0.00024359
0.0148036
0.000246858
0.0148243
0.000246293
0.0148452
0.000242839
0.0148658
0.00023691
0.0148862
0.000229336
0.0149059
0.000220283
0.0149251
0.000210528
0.0149435
0.000199956
0.0149611
0.0001894
0.0149778
0.000178372
0.0149937
0.000167963
0.0150086
0.000157089
0.000147504
0.0150312
3.11133e-05
0.0150377
8.53651e-05
0.0150476
0.000128765
0.0150603
0.000162427
0.0150753
0.000187745
0.015092
0.000205794
0.01511
0.000217804
0.015129
0.000224631
0.0151485
0.000227311
0.0151683
0.000226476
0.0151882
0.000223
0.0152078
0.000217288
0.015227
0.000210092
0.0152457
0.000201588
0.0152638
0.000192467
0.0152811
0.000182647
0.0152976
0.000172858
0.0153133
0.000162689
0.0153282
0.000153084
0.0153422
0.000143111
0.000134289
0.0153885
2.88211e-05
0.0153948
7.90357e-05
0.0154044
0.000119114
0.0154168
0.000150091
0.0154313
0.000173267
0.0154474
0.000189669
0.0154647
0.000200455
0.0154829
0.00020645
0.0155016
0.000208625
0.0155205
0.000207587
0.0155393
0.000204142
0.0155579
0.000198682
0.0155761
0.00019189
0.0155938
0.000183942
0.0156108
0.000175454
0.0156271
0.00016637
0.0156426
0.000157329
0.0156573
0.000147985
0.0156712
0.000139154
0.0156843
0.000130039
0.000121946
0.0157542
2.65896e-05
0.0157604
7.28802e-05
0.0157697
0.000109747
0.0157817
0.000138146
0.0157956
0.000159286
0.0158112
0.000174144
0.0158278
0.000183802
0.0158452
0.000189051
0.0158631
0.000190794
0.015881
0.000189611
0.0158989
0.000186242
0.0159166
0.000181064
0.0159337
0.000174692
0.0159504
0.000167303
0.0159664
0.000159442
0.0159817
0.000151076
0.0159963
0.000142761
0.01601
0.000134208
0.0160231
0.000126121
0.0160353
0.000117818
0.000110423
0.0161286
2.44229e-05
0.0161346
6.69092e-05
0.0161437
0.000100676
0.0161552
0.000126606
0.0161687
0.000145815
0.0161836
0.000159226
0.0161996
0.000167846
0.0162162
0.000172427
0.0162332
0.000173803
0.0162503
0.000172526
0.0162672
0.000169271
0.0162839
0.000164398
0.0163001
0.000158458
0.0163158
0.000151626
0.0163309
0.000144383
0.0163452
0.000136713
0.0163589
0.000129101
0.0163718
0.000121305
0.016384
0.00011393
0.0163954
0.000106397
9.96656e-05
0.016512
2.23236e-05
0.0165177
6.11296e-05
0.0165265
9.19119e-05
0.0165376
0.000115479
0.0165506
0.000132858
0.0165649
0.000144914
0.0165802
0.00015258
0.016596
0.000156563
0.0166122
0.000157631
0.0166284
0.000156304
0.0166445
0.000153195
0.0166603
0.000148643
0.0166756
0.000143142
0.0166903
0.000136862
0.0167045
0.000130225
0.016718
0.000123229
0.0167308
0.000116295
0.0167429
0.000109222
0.0167543
0.000102528
0.016765
9.57218e-05
8.96226e-05
0.0169044
2.0293e-05
0.01691
5.55446e-05
0.0169185
8.3456e-05
0.0169292
0.000104765
0.0169416
0.000120412
0.0169553
0.000131199
0.0169699
0.000137988
0.0169851
0.000141437
0.0170004
0.00014225
0.0170158
0.000140909
0.0170311
0.000137973
0.0170459
0.000133754
0.0170604
0.000128696
0.0170743
0.000122959
0.0170876
0.000116914
0.0171003
0.000110569
0.0171123
0.000104287
0.0171236
9.79032e-05
0.0171343
9.18591e-05
0.0171442
8.57405e-05
8.02418e-05
0.0173062
1.83312e-05
0.0173116
5.01537e-05
0.0173197
7.53064e-05
0.01733
9.44586e-05
0.017342
0.000108465
0.0173551
0.000118066
0.0173691
0.000124049
0.0173835
0.000127021
0.0173981
0.000127624
0.0174127
0.000126303
0.0174271
0.000123559
0.0174412
0.000119683
0.0174548
0.000115068
0.0174679
0.000109863
0.0174804
0.000104394
0.0174923
9.86771e-05
0.0175036
9.30213e-05
0.0175142
8.7294e-05
0.0175242
8.18693e-05
0.0175335
7.64e-05
7.14718e-05
0.0177175
1.64369e-05
0.0177227
4.49527e-05
0.0177306
6.74556e-05
0.0177405
8.45478e-05
0.017752
9.70006e-05
0.0177645
0.000105491
0.0177779
0.000110731
0.0177916
0.000113279
0.0178055
0.000113712
0.0178194
0.000112437
0.017833
0.000109903
0.0178463
0.000106375
0.0178592
0.0001022
0.0178716
9.75172e-05
0.0178833
9.26081e-05
0.0178945
8.7494e-05
0.0179051
8.24398e-05
0.0179151
7.73377e-05
0.0179244
7.25034e-05
0.0179332
6.76475e-05
6.32612e-05
0.0181387
1.46074e-05
0.0181437
3.99344e-05
0.0181512
5.98908e-05
0.0181608
7.50143e-05
0.0181718
8.59942e-05
0.0181838
9.34427e-05
0.0181966
9.79988e-05
0.0182097
0.000100168
0.0182229
0.000100466
0.0182361
9.92608e-05
0.018249
9.69502e-05
0.0182616
9.37736e-05
0.0182738
9.00345e-05
0.0182855
8.58602e-05
0.0182966
8.14941e-05
0.0183071
7.69603e-05
0.0183171
7.24833e-05
0.0183264
6.7977e-05
0.0183352
6.37055e-05
0.0183435
5.94296e-05
5.55583e-05
0.0185698
1.2839e-05
0.0185746
3.50876e-05
0.0185819
5.25944e-05
0.0185911
6.58336e-05
0.0186017
7.54147e-05
0.0186133
8.1884e-05
0.0186254
8.58083e-05
0.018638
8.7639e-05
0.0186506
8.78322e-05
0.0186632
8.67164e-05
0.0186755
8.46393e-05
0.0186874
8.18151e-05
0.0186989
7.85066e-05
0.01871
7.48287e-05
0.0187205
7.09893e-05
0.0187304
6.70138e-05
0.0187398
6.30911e-05
0.0187486
5.9153e-05
0.0187569
5.54188e-05
0.0187647
5.16924e-05
4.83115e-05
0.0190112