/*--------------------------------*- C++ -*----------------------------------*\
  =========                 |
  \\      /  F ield         | OpenFOAM: The Open Source CFD Toolbox
   \\    /   O peration     | Website:  https://openfoam.org
    \\  /    A nd           | Version:  7
     \\/     M anipulation  |
\*---------------------------------------------------------------------------*/
FoamFile
{
    version     2.0;
    format      ascii;
    class       volVectorField;
    location    "180";
    object      U;
}
// * * * * * * * * * * * * * * * * * * * * * * * * * * * * * * * * * * * * * //

dimensions      [0 1 -1 0 0 0 0];

internalField   nonuniform List<vector> 
4575
(
(0.822442 0.290398 -1.47868e-19)
(0.813209 0.283674 2.71139e-19)
(0.804191 0.276622 -1.51989e-19)
(0.781412 0.285492 -8.54446e-20)
(0.795397 0.269247 -6.19464e-20)
(0.772325 0.277339 1.00496e-19)
(0.786839 0.261554 4.93211e-20)
(0.763487 0.26886 -2.64333e-20)
(0.778524 0.25355 9.84286e-20)
(0.754911 0.260062 -2.88134e-20)
(0.770464 0.245243 -1.36722e-19)
(0.729227 0.266258 1.33599e-19)
(0.746608 0.250954 8.46846e-20)
(0.762668 0.23664 6.33948e-20)
(0.720682 0.256292 -8.74941e-20)
(0.738589 0.241544 -6.19994e-20)
(0.755146 0.227751 5.96949e-21)
(0.712452 0.246013 -7.54888e-20)
(0.730866 0.23184 -2.71651e-20)
(0.747908 0.218584 4.57154e-20)
(0.704547 0.235432 -2.96157e-20)
(0.723451 0.221853 2.31608e-19)
(0.740963 0.20915 -1.46314e-19)
(0.676781 0.23829 6.52576e-20)
(0.69698 0.22456 -5.29925e-20)
(0.716353 0.211593 -4.58584e-20)
(0.734321 0.199458 9.97466e-20)
(0.669052 0.226485 9.87615e-20)
(0.689761 0.213408 1.34903e-19)
(0.709583 0.20107 2.64964e-20)
(0.727992 0.18952 -1.17939e-19)
(0.661706 0.214393 -2.45137e-20)
(0.682902 0.201988 -1.43582e-20)
(0.703152 0.190298 1.92371e-20)
(0.721984 0.179347 1.08105e-19)
(0.654756 0.202027 4.57736e-20)
(0.676414 0.190314 -6.68736e-20)
(0.697069 0.179286 -6.09204e-20)
(0.716305 0.168951 -1.16177e-19)
(0.64821 0.189402 2.179e-20)
(0.670306 0.178399 -6.4794e-21)
(0.691344 0.168048 1.93856e-21)
(0.710964 0.158343 6.3965e-20)
(0.618263 0.187518 7.84383e-20)
(0.642081 0.176532 -8.68765e-20)
(0.664587 0.166256 1.63401e-19)
(0.685985 0.156598 -1.44639e-19)
(0.705969 0.147535 5.1696e-20)
(0.612146 0.173626 -5.09475e-20)
(0.636377 0.163432 5.0502e-21)
(0.659268 0.153899 -1.43639e-19)
(0.681001 0.144947 1.00571e-19)
(0.701326 0.136542 9.13656e-20)
(0.606494 0.159504 7.04949e-20)
(0.631109 0.150119 9.1977e-21)
(0.654355 0.141344 2.27173e-20)
(0.676399 0.13311 8.91194e-21)
(0.697043 0.125375 -1.00754e-19)
(0.601315 0.14517 -9.93741e-20)
(0.626284 0.136607 1.27585e-20)
(0.649858 0.128605 8.11766e-20)
(0.672189 0.121101 -1.13054e-19)
(0.693127 0.114048 -6.16415e-22)
(0.596619 0.13064 9.1526e-20)
(0.62191 0.122915 -6.8082e-20)
(0.645783 0.115698 -8.30261e-21)
(0.668375 0.108935 6.46205e-20)
(0.689583 0.102575 -1.17183e-19)
(0.592413 0.115932 -8.14882e-20)
(0.617995 0.109058 1.78862e-20)
(0.642138 0.102638 -1.16641e-20)
(0.664964 0.0966257 -4.03692e-20)
(0.686417 0.0909691 1.57615e-20)
(0.588704 0.101066 1.75073e-20)
(0.614545 0.0950541 4.02482e-20)
(0.638928 0.0894416 7.06981e-21)
(0.661963 0.0841887 -8.5683e-21)
(0.683633 0.0792452 1.06813e-21)
(0.5855 0.0860596 4.94284e-20)
(0.611567 0.0809202 4.08554e-20)
(0.636159 0.0761246 1.97274e-20)
(0.659377 0.0716392 4.45741e-20)
(0.681237 0.0674172 1.76918e-20)
(0.582804 0.0709321 -1.68028e-20)
(0.609065 0.0666742 -3.32709e-20)
(0.633835 0.0627036 -3.41511e-21)
(0.657209 0.0589927 -6.43553e-20)
(0.679233 0.0554997 1.26356e-21)
(0.580623 0.0557027 -3.49293e-20)
(0.607044 0.052334 -4.81733e-21)
(0.631962 0.0491955 -1.05326e-20)
(0.655464 0.046265 4.90359e-20)
(0.677623 0.0435074 -8.20856e-21)
(0.578961 0.0403909 4.9518e-20)
(0.605508 0.0379178 6.17502e-20)
(0.630541 0.0356172 -8.93657e-21)
(0.654145 0.033472 2.21696e-20)
(0.67641 0.0314555 -9.80616e-21)
(0.54956 0.0267132 1.69584e-20)
(0.57782 0.0250163 4.16512e-21)
(0.604459 0.0234438 -2.07377e-20)
(0.629577 0.0219856 -1.99804e-21)
(0.653255 0.0206296 -4.78782e-20)
(0.675599 0.0193571 1.95694e-20)
(0.548881 0.0103293 8.30314e-21)
(0.577204 0.00959863 -2.27891e-20)
(0.603901 0.00893049 2.13397e-21)
(0.629071 0.008318 -9.81115e-22)
(0.652795 0.0077535 1.21435e-20)
(0.675187 0.00722401 2.73035e-22)
(0.548764 -0.00608018 -4.20693e-21)
(0.577114 -0.00584209 5.52229e-21)
(0.603834 -0.00560347 1.05767e-20)
(0.629025 -0.00536778 7.74429e-22)
(0.652764 -0.00513784 1.13339e-21)
(0.675165 -0.00491574 4.87882e-21)
(0.549212 -0.0224939 -4.99319e-21)
(0.577551 -0.021286 4.89512e-21)
(0.60426 -0.0201395 1.08203e-20)
(0.62944 -0.0190546 9.09527e-22)
(0.65317 -0.0180286 7.86427e-22)
(0.675562 -0.0170494 5.18192e-21)
(0.550223 -0.0388905 3.43446e-21)
(0.578515 -0.0367131 -1.7971e-20)
(0.605179 -0.0346593 5.26514e-21)
(0.630315 -0.0327256 -8.49479e-22)
(0.654009 -0.0309046 8.88957e-21)
(0.676363 -0.0291747 8.86209e-22)
(0.551798 -0.0552484 1.09775e-20)
(0.580006 -0.0521036 3.57603e-21)
(0.606589 -0.0491442 -2.73069e-20)
(0.631651 -0.0463635 1.59357e-21)
(0.655281 -0.0437489 -3.81839e-20)
(0.677565 -0.0412706 8.35392e-21)
(0.582021 -0.0674374 5.00747e-20)
(0.608491 -0.0635757 4.5166e-20)
(0.633446 -0.0599508 -2.29029e-20)
(0.656983 -0.0565449 2.97505e-20)
(0.679168 -0.0533204 -6.70714e-22)
(0.58456 -0.0826949 -4.90886e-20)
(0.610881 -0.0779354 -8.6434e-21)
(0.635697 -0.0734704 -1.11186e-20)
(0.659114 -0.0692766 1.75495e-20)
(0.681171 -0.0653094 -1.22789e-21)
(0.587618 -0.0978562 -4.99016e-21)
(0.613756 -0.0922047 -2.33973e-20)
(0.638403 -0.0869051 1.22016e-20)
(0.661672 -0.0819278 -1.0116e-19)
(0.683572 -0.0772229 3.55254e-20)
(0.591191 -0.112902 6.48504e-20)
(0.617114 -0.106366 1.69121e-20)
(0.641559 -0.100238 2.47671e-20)
(0.664654 -0.0944824 5.68438e-20)
(0.686368 -0.0890458 -2.96113e-20)
(0.595276 -0.127812 5.3257e-20)
(0.620949 -0.1204 -2.20588e-20)
(0.645162 -0.113452 1.54794e-20)
(0.668055 -0.106925 3.22377e-20)
(0.689556 -0.100763 -1.17064e-20)
(0.599866 -0.142569 -1.01723e-19)
(0.625257 -0.13429 -1.31302e-20)
(0.649207 -0.126531 -2.91979e-20)
(0.671871 -0.119239 -1.85752e-20)
(0.693132 -0.112361 4.70277e-20)
(0.604955 -0.157152 6.57884e-20)
(0.630032 -0.148018 -7.40164e-20)
(0.653688 -0.139458 -1.57251e-20)
(0.676097 -0.13141 5.71378e-20)
(0.697091 -0.123824 -4.55681e-20)
(0.610537 -0.171544 -1.31053e-19)
(0.635268 -0.161567 5.43289e-20)
(0.6586 -0.152217 7.29575e-20)
(0.680728 -0.143422 -1.30411e-19)
(0.70143 -0.135139 5.61913e-22)
(0.616604 -0.185726 1.13081e-19)
(0.640956 -0.174919 1.30409e-20)
(0.663936 -0.164792 -3.87563e-21)
(0.685756 -0.155261 6.39065e-21)
(0.706141 -0.14629 -8.04588e-20)
(0.623146 -0.19968 3.15261e-20)
(0.647091 -0.188059 -9.28101e-20)
(0.669689 -0.177168 -1.12158e-19)
(0.691176 -0.166912 1.27751e-19)
(0.71122 -0.157265 7.85731e-20)
(0.630156 -0.213389 -1.19743e-19)
(0.653662 -0.200969 2.75476e-20)
(0.675851 -0.189329 5.81788e-20)
(0.696981 -0.17836 -7.11269e-20)
(0.716659 -0.16805 -1.42024e-20)
(0.660662 -0.213635 7.35818e-20)
(0.682413 -0.201261 -8.39061e-20)
(0.703161 -0.189592 4.77748e-20)
(0.722453 -0.178632 6.73049e-20)
(0.66808 -0.226039 -4.77992e-21)
(0.689368 -0.212949 -3.573e-21)
(0.709709 -0.200594 -6.79863e-20)
(0.728594 -0.188997 -1.57221e-19)
(0.675907 -0.238169 -2.16432e-20)
(0.696704 -0.224379 -7.65524e-20)
(0.716617 -0.211353 2.95142e-20)
(0.735074 -0.199134 1.45872e-19)
(0.684131 -0.250008 5.25316e-20)
(0.704414 -0.235538 1.09916e-19)
(0.723874 -0.221857 1.42392e-20)
(0.741885 -0.209029 -1.43618e-19)
(0.692741 -0.261543 -1.32858e-19)
(0.712485 -0.246413 -2.56771e-20)
(0.731471 -0.232093 -2.11515e-20)
(0.749018 -0.218671 9.09102e-20)
(0.720907 -0.256991 -4.16494e-21)
(0.739398 -0.242049 9.87304e-20)
(0.756466 -0.228049 4.64894e-20)
(0.729669 -0.267261 -4.94712e-20)
(0.747645 -0.251714 -6.00854e-21)
(0.764218 -0.237151 5.59294e-20)
(0.73876 -0.277211 -2.66799e-21)
(0.756201 -0.261078 -9.92721e-20)
(0.772265 -0.245967 -4.18914e-20)
(0.748167 -0.28683 7.72939e-20)
(0.765054 -0.270131 7.3572e-20)
(0.780599 -0.254487 7.14695e-20)
(0.774194 -0.278863 -2.80685e-20)
(0.789208 -0.262701 -7.54763e-20)
(0.783609 -0.287266 -1.13982e-19)
(0.798084 -0.2706 5.12891e-20)
(0.793288 -0.295331 1.84496e-19)
(0.807216 -0.278176 3.8822e-20)
(0.816595 -0.285422 -2.49839e-20)
(0.82621 -0.29233 -1.0332e-19)
(0.836054 -0.298894 1.79029e-19)
(0.999954 0.00126042 0)
(0.998813 0.00384256 0)
(0.996528 0.0067612 0)
(0.993467 0.0101651 0)
(0.989504 0.0142187 0)
(0.984958 0.0190201 0)
(0.979639 0.0246868 0)
(0.973892 0.0312979 0)
(0.967475 0.0389976 0)
(0.960826 0.0478651 0)
(0.953642 0.0581 0)
(0.946534 0.0697677 0)
(0.939097 0.0831407 0)
(0.932248 0.0982169 0)
(0.925357 0.115364 0)
(0.919887 0.134377 0)
(0.914691 0.155817 0)
(0.912255 0.178924 0)
(0.91021 0.204943 -1.13266e-28)
(0.913154 0.231337 1.20522e-28)
(0.915868 0.262533 0)
(0.999955 0.00138849 0)
(0.998858 0.00422446 0)
(0.996655 0.00739076 0)
(0.993719 0.0110356 0)
(0.98992 0.0153412 0)
(0.985599 0.0203832 0)
(0.980556 0.0263097 0)
(0.975177 0.0331568 0)
(0.9692 0.0411088 0)
(0.963123 0.0501735 0)
(0.956608 0.0606055 0)
(0.950357 0.0723529 0)
(0.943895 0.0857749 0)
(0.93828 0.100668 0)
(0.932738 0.117571 0)
(0.928958 0.135897 0)
(0.925494 0.156628 0)
(0.925226 0.178148 -4.88918e-29)
(0.925151 0.202873 5.20426e-29)
(0.930638 0.225995 -6.2919e-29)
(0.934911 0.255295 6.69631e-29)
(0.999955 0.00151632 0)
(0.998909 0.00460572 0)
(0.996801 0.00802164 0)
(0.99401 0.0119089 0)
(0.990401 0.0164692 0)
(0.986336 0.0217534 0)
(0.981607 0.0279406 0)
(0.976635 0.0350217 0)
(0.971139 0.0432219 0)
(0.965673 0.0524733 0)
(0.959861 0.0630884 0)
(0.954485 0.0748888 0)
(0.948999 0.0883294 0)
(0.944574 0.102986 0)
(0.940305 0.119591 0)
(0.938038 0.137143 0)
(0.936095 0.15707 0)
(0.937563 0.176912 0)
(0.939065 0.200141 0)
(0.946166 0.220273 0)
(0.951595 0.247012 0)
(0.999956 0.00164239 0)
(0.998963 0.00498001 0)
(0.99696 0.00863941 0)
(0.994326 0.0127601 0)
(0.990925 0.0175621 0)
(0.987138 0.0230725 0)
(0.982749 0.029498 0)
(0.978209 0.0367867 0)
(0.973226 0.0451995 0)
(0.968393 0.0545975 0)
(0.963311 0.0653447 0)
(0.958812 0.0771446 0)
(0.954305 0.0905397 0)
(0.951016 0.104903 0)
(0.947971 0.121142 0)
(0.947048 0.137895 0)
(0.946491 0.156961 0)
(0.949324 0.175256 0)
(0.952173 0.196931 0)
(0.96023 0.214697 0)
(0.966704 0.238919 0)
(0.999957 0.00176514 0)
(0.999021 0.00534278 0)
(0.997129 0.00923625 0)
(0.994661 0.0135773 0)
(0.991482 0.018604 0)
(0.987985 0.0243187 0)
(0.983956 0.0309531 0)
(0.979862 0.0384129 0)
(0.975412 0.0469912 0)
(0.971218 0.05648 0)
(0.966879 0.06729 0)
(0.963237 0.0790122 0)
(0.959701 0.0922692 0)
(0.957475 0.106251 0)
(0.955599 0.122015 0)
(0.955853 0.13791 0)
(0.956558 0.156006 0)
(0.960459 0.172823 0)
(0.964461 0.192875 0)
(0.973088 0.208621 0)
(0.980421 0.230449 0)
(0.999959 0.00188381 0)
(0.99908 0.00569193 0)
(0.997308 0.00980879 0)
(0.99501 0.0143563 0)
(0.992066 0.0195894 0)
(0.988865 0.0254854 0)
(0.98521 0.0322985 0)
(0.981566 0.0398923 0)
(0.977663 0.0485888 0)
(0.974099 0.0581128 0)
(0.970503 0.0689169 0)
(0.967683 0.0804874 0)
(0.96509 0.0935164 0)
(0.963842 0.107036 0)
(0.963059 0.122223 0)
(0.964332 0.137212 0)
(0.966154 0.154245 0)
(0.970889 0.16964 0)
(0.975838 0.188036 0)
(0.984786 0.201971 0)
(0.992726 0.221513 0)
(0.999962 0.00199782 0)
(0.999141 0.00602585 0)
(0.997494 0.0103543 0)
(0.995371 0.0150934 0)
(0.992671 0.0205138 0)
(0.989771 0.0265674 0)
(0.986501 0.0335282 0)
(0.983305 0.0412191 0)
(0.979951 0.0499871 0)
(0.977002 0.0594937 0)
(0.974137 0.070227 0)
(0.972094 0.0815811 0)
(0.970397 0.0943018 0)
(0.970037 0.107298 0)
(0.97025 0.121825 0)
(0.972394 0.135888 0)
(0.975176 0.151804 0)
(0.980552 0.165849 0)
(0.986243 0.182611 0)
(0.995323 0.194915 0)
(1.00365 0.212316 0)
(0.999965 0.00210657 0)
(0.999204 0.00634285 0)
(0.997688 0.01087 0)
(0.995743 0.0157847 0)
(0.993295 0.021372 0)
(0.990697 0.0275585 0)
(0.987816 0.0346353 0)
(0.985063 0.0423865 0)
(0.982255 0.0511795 0)
(0.9799 0.0606194 0)
(0.97774 0.0712204 0)
(0.976425 0.0823019 0)
(0.975565 0.0946437 0)
(0.976001 0.107073 0)
(0.977101 0.120877 0)
(0.979981 0.134013 0)
(0.983563 0.148789 0)
(0.989416 0.161564 0)
(0.995662 0.176754 0)
(1.00473 0.1876 0)
(1.01326 0.203046 -6.8419e-30)
(0.999969 0.00220945 0)
(0.999269 0.00664124 0)
(0.997888 0.0113528 0)
(0.996123 0.0164263 0)
(0.993932 0.0221589 0)
(0.991636 0.028453 0)
(0.989145 0.0356134 0)
(0.986828 0.0433891 0)
(0.984554 0.0521614 0)
(0.982768 0.0614887 0)
(0.98128 0.0718998 0)
(0.98064 0.0826607 0)
(0.980546 0.0945627 0)
(0.98169 0.106392 0)
(0.983563 0.11943 0)
(0.987051 0.131651 0)
(0.991283 0.145291 0)
(0.99747 0.156878 0)
(1.00411 0.170585 0)
(1.01305 0.180127 0)
(1.02165 0.193811 0)
(0.999973 0.00230585 0)
(0.999335 0.00691939 0)
(0.998092 0.0117999 0)
(0.996509 0.0170144 0)
(0.994577 0.0228699 0)
(0.992582 0.0292463 0)
(0.990479 0.0364575 0)
(0.988587 0.0442228 0)
(0.98683 0.0529303 0)
(0.985586 0.0621031 0)
(0.984727 0.072272 0)
(0.984707 0.0826721 0)
(0.985306 0.0940846 0)
(0.987068 0.105293 0)
(0.989602 0.117538 0)
(0.993582 0.128864 0)
(0.998325 0.141394 0)
(1.00473 0.151873 0)
(1.01161 0.164197 0)
(1.02035 0.172577 0)
(1.02891 0.184681 0)
(0.999978 0.00239517 0)
(0.999402 0.00717577 0)
(0.998299 0.0122087 0)
(0.996899 0.0175459 0)
(0.995227 0.0235009 0)
(0.99353 0.0299343 0)
(0.991807 0.0371637 0)
(0.990328 0.0448856 0)
(0.989065 0.0534863 0)
(0.988332 0.0624671 0)
(0.988057 0.0723474 0)
(0.988601 0.0823537 0)
(0.989815 0.0932387 0)
(0.99211 0.103813 0)
(0.995198 0.115257 0)
(0.999565 0.125713 0)
(1.00469 0.137176 0)
(1.01121 0.146624 0)
(1.01823 0.157674 0)
(1.02669 0.165017 0)
(1.03513 0.175708 0)
(0.999982 0.00247684 0)
(0.99947 0.00740899 0)
(0.998507 0.0125767 0)
(0.997291 0.0180179 0)
(0.995875 0.0240484 0)
(0.994473 0.0305139 0)
(0.993118 0.0377295 0)
(0.992037 0.0453768 0)
(0.991243 0.0538318 0)
(0.990988 0.0625871 0)
(0.991248 0.0721394 0)
(0.992298 0.0817257 0)
(0.99405 0.0920563 0)
(0.996797 0.101993 0)
(1.00034 0.112638 2.20464e-28)
(1.005 0.122259 -2.34716e-28)
(1.0104 0.132706 0)
(1.01694 0.141202 0)
(1.024 0.151083 -4.01163e-29)
(1.03215 0.157505 4.65392e-30)
(1.04039 0.166934 4.04908e-29)
(0.999986 0.00255034 0)
(0.999538 0.00761778 0)
(0.998715 0.0129017 0)
(0.997681 0.0184277 0)
(0.996518 0.0245099 0)
(0.995404 0.0309828 0)
(0.994404 0.0381538 0)
(0.993703 0.0456971 0)
(0.993348 0.0539711 0)
(0.993535 0.0624715 0)
(0.99428 0.0716636 0)
(0.995779 0.0808099 0)
(0.997995 0.0905697 0)
(1.00112 0.0998709 0)
(1.00502 0.109733 0)
(1.00989 0.118556 0)
(1.01547 0.128046 0)
(1.02197 0.135666 0)
(1.02898 0.144481 0)
(1.03679 0.150085 0)
(1.04478 0.158393 0)
(0.99999 0.00261519 0)
(0.999607 0.007801 0)
(0.998921 0.013182 0)
(0.998068 0.0187735 0)
(0.99715 0.0248831 0)
(0.996316 0.0313397 0)
(0.995655 0.0384367 0)
(0.995314 0.0458489 0)
(0.995367 0.0539106 0)
(0.99596 0.0621308 0)
(0.997137 0.0709373 0)
(0.999029 0.0796294 0)
(1.00164 0.0888114 0)
(1.00506 0.0974859 0)
(1.00924 0.106589 0)
(1.01425 0.114654 0)
(1.01993 0.123249 0)
(1.02633 0.130067 0)
(1.03323 0.137916 0)
(1.04069 0.142795 0)
(1.04839 0.150107 0)
(0.999993 0.00267098 0)
(0.999676 0.0079577 0)
(0.999123 0.013416 0)
(0.998449 0.0190534 0)
(0.997767 0.025167 0)
(0.997204 0.0315839 0)
(0.996862 0.0385797 0)
(0.99686 0.0458358 0)
(0.997287 0.0536582 0)
(0.998247 0.0615768 0)
(0.999806 0.0699792 0)
(1.00204 0.0782085 0)
(1.00497 0.0868134 0)
(1.00864 0.0948755 0)
(1.01302 0.103249 0)
(1.01809 0.110601 0)
(1.0238 0.118364 0)
(1.03006 0.12445 0)
(1.03681 0.131424 0)
(1.04389 0.135664 0)
(1.05129 0.142092 0)
(0.999996 0.00271739 0)
(0.999744 0.00808704 0)
(0.99932 0.0136027 0)
(0.99882 0.0192664 0)
(0.998366 0.0253609 0)
(0.99806 0.0317161 0)
(0.998019 0.0385855 0)
(0.998331 0.0456627 0)
(0.999098 0.0532231 0)
(1.00039 0.0608228 0)
(1.00228 0.0688086 0)
(1.00479 0.0765717 0)
(1.00799 0.0846068 0)
(1.01183 0.0920752 0)
(1.01635 0.0997545 0)
(1.02144 0.106437 0)
(1.02713 0.113431 0)
(1.03321 0.118852 0)
(1.03977 0.125037 0)
(1.04648 0.128712 0)
(1.05355 0.134358 0)
(0.999998 0.00275416 0)
(0.99981 0.00818841 0)
(0.999512 0.0137413 0)
(0.99918 0.0194119 0)
(0.998941 0.0254653 0)
(0.99888 0.0317374 0)
(0.999118 0.0384578 0)
(0.999718 0.045336 0)
(1.00079 0.0526159 0)
(1.00237 0.0598833 0)
(1.00454 0.0674457 0)
(1.00729 0.0747436 0)
(1.0107 0.0822216 0)
(1.01467 0.0891188 0)
(1.01927 0.0961407 0)
(1.02433 0.102199 0)
(1.02994 0.108486 0)
(1.03582 0.113304 0)
(1.04215 0.11878 0)
(1.04849 0.121957 0)
(1.05524 0.126909 1.4465e-29)
(1 0.00278116 0)
(0.999874 0.00826138 0)
(0.999696 0.0138316 0)
(0.999525 0.0194899 0)
(0.99949 0.0254813 0)
(0.999657 0.0316503 0)
(1.00015 0.0382016 0)
(1.00101 0.0448631 0)
(1.00236 0.051848 0)
(1.00419 0.0587736 0)
(1.0066 0.0659105 0)
(1.00954 0.0727488 0)
(1.0131 0.0796866 0)
(1.01714 0.0860376 0)
(1.02177 0.0924412 0)
(1.02677 0.0979205 0)
(1.03226 0.103559 -7.52652e-29)
(1.03793 0.107831 8.01221e-29)
(1.04401 0.112671 0)
(1.04999 0.11541 0)
(1.0564 0.119747 0)
(1 0.00279831 0)
(0.999936 0.00830573 0)
(0.999871 0.0138738 0)
(0.999853 0.0195007 0)
(1.00001 0.0254106 0)
(1.00039 0.0314579 0)
(1.00112 0.0378226 0)
(1.00221 0.0442524 0)
(1.0038 0.0509317 0)
(1.00584 0.0575095 0)
(1.00844 0.0642231 0)
(1.01153 0.0706109 0)
(1.01519 0.0770286 0)
(1.01928 0.0828607 0)
(1.02389 0.0886855 0)
(1.02879 0.0936294 0)
(1.03414 0.0986755 0)
(1.03957 0.102456 0)
(1.0454 0.106725 0)
(1.05103 0.109078 0)
(1.05711 0.112871 0)
(1 0.00280566 0)
(0.999995 0.00832148 0)
(1.00004 0.0138683 0)
(1.00016 0.0194456 0)
(1.00049 0.0252557 0)
(1.00107 0.0311643 0)
(1.00201 0.0373275 0)
(1.00331 0.0435133 0)
(1.0051 0.0498797 0)
(1.00732 0.0561074 0)
(1.01008 0.0624035 0)
(1.01327 0.0683527 0)
(1.017 0.074273 0)
(1.02108 0.0796146 0)
(1.02564 0.0849002 0)
(1.03042 0.0893509 0)
(1.03561 0.0938574 0)
(1.0408 0.0971956 0)
(1.04636 0.100954 -1.66443e-29)
(1.05164 0.102969 1.86056e-30)
(1.05739 0.106279 1.68745e-29)
(1 0.00280331 0)
(1.00005 0.0083089 0)
(1.00019 0.0138161 0)
(1.00045 0.0193261 0)
(1.00094 0.0250198 0)
(1.0017 0.0307742 0)
(1.00282 0.0367235 0)
(1.00431 0.0426556 0)
(1.00626 0.0487051 0)
(1.00863 0.0545833 0)
(1.0115 0.0604709 0)
(1.01477 0.0659962 0)
(1.01852 0.0714433 0)
(1.02257 0.0763236 0)
(1.02705 0.0811089 0)
(1.03169 0.0851067 0)
(1.03669 0.0891229 0)
(1.04163 0.0920636 0)
(1.04692 0.0953651 0)
(1.05188 0.097083 0)
(1.05731 0.0999662 0)
(1.00001 0.00279146 0)
(1.0001 0.00826847 0)
(1.00034 0.0137185 0)
(1.00072 0.0191444 0)
(1.00136 0.0247066 0)
(1.00227 0.0302933 0)
(1.00355 0.0360186 0)
(1.0052 0.04169 0)
(1.00729 0.0474215 0)
(1.00977 0.0529536 0)
(1.01273 0.058444 0)
(1.01603 0.0635619 0)
(1.01977 0.0685613 0)
(1.02377 0.0730095 0)
(1.02815 0.0773323 0)
(1.03262 0.0809155 1.17911e-28)
(1.03742 0.0844872 -1.25527e-28)
(1.04212 0.0870716 0)
(1.04714 0.0899654 0)
(1.05178 0.0914231 0)
(1.05689 0.0939283 0)
(1.00001 0.0027704 0)
(1.00015 0.00820093 0)
(1.00047 0.013577 0)
(1.00096 0.0189032 0)
(1.00173 0.0243204 0)
(1.00278 0.0297276 0)
(1.00421 0.0352211 0)
(1.00598 0.0406271 0)
(1.00819 0.0460421 0)
(1.01075 0.051234 0)
(1.01375 0.0563406 0)
(1.01706 0.0610692 0)
(1.02078 0.0656468 0)
(1.02469 0.069692 0)
(1.02894 0.0735885 0)
(1.03325 0.0767934 0)
(1.03784 0.0799629 0)
(1.04229 0.0822284 0)
(1.04704 0.0847588 0)
(1.05138 0.0859887 0)
(1.05619 0.0881593 0)
(1.00001 0.00274045 0)
(1.00019 0.00810727 0)
(1.00059 0.0133938 0)
(1.00118 0.0186056 0)
(1.00207 0.0238659 0)
(1.00324 0.0290836 0)
(1.00478 0.0343397 0)
(1.00666 0.0394781 0)
(1.00895 0.0445803 0)
(1.01157 0.0494399 0)
(1.01459 0.0541778 0)
(1.01789 0.058536 0)
(1.02154 0.062718 0)
(1.02535 0.0663886 0)
(1.02946 0.0698936 0)
(1.03359 0.0727537 0)
(1.03797 0.0755603 0)
(1.04218 0.0775409 0)
(1.04666 0.0797476 0)
(1.05072 0.0807785 0)
(1.05523 0.0826532 -2.1923e-29)
(1.00001 0.00270205 0)
(1.00023 0.00798867 0)
(1.00069 0.013171 0)
(1.00138 0.0182552 0)
(1.00236 0.0233482 0)
(1.00364 0.0283684 0)
(1.00528 0.0333835 -1.11158e-29)
(1.00723 0.038254 1.18373e-29)
(1.00958 0.043049 0)
(1.01223 0.047586 0)
(1.01525 0.0519714 5.47874e-29)
(1.01851 0.0559789 -5.83382e-29)
(1.02208 0.0597912 0)
(1.02578 0.0631149 0)
(1.02974 0.0662611 0)
(1.03368 0.0688081 0)
(1.03784 0.0712877 0)
(1.04181 0.0730142 0)
(1.04603 0.0749331 0)
(1.04982 0.0757905 0)
(1.05405 0.0774038 0)
(1.00001 0.00265564 0)
(1.00027 0.00784651 0)
(1.00079 0.0129112 0)
(1.00155 0.0178557 0)
(1.00262 0.0227727 0)
(1.00398 0.0275891 0)
(1.00569 0.0323616 0)
(1.00771 0.0369659 0)
(1.01009 0.041461 0)
(1.01275 0.0456864 0)
(1.01575 0.0497363 0)
(1.01894 0.0534132 0)
(1.02242 0.0568812 0)
(1.02599 0.0598845 0)
(1.02979 0.0627028 0)
(1.03354 0.0649661 0)
(1.03749 0.0671516 0)
(1.04122 0.0686519 0)
(1.04519 0.0703152 0)
(1.04872 0.0710217 0)
(1.05267 0.0724043 0)
(1.00001 0.00260176 0)
(1.0003 0.00768238 7.37263e-30)
(1.00087 0.012617 -7.85165e-30)
(1.0017 0.0174114 0)
(1.00284 0.0221452 0)
(1.00426 0.0267533 0)
(1.00603 0.0312829 0)
(1.00809 0.0356245 0)
(1.01049 0.0398284 0)
(1.01313 0.0437544 0)
(1.01608 0.0474863 0)
(1.01921 0.0508527 0)
(1.02258 0.0540011 0)
(1.02601 0.0567093 0)
(1.02964 0.0592289 0)
(1.0332 0.0612355 0)
(1.03693 0.0631571 0)
(1.04044 0.0644564 0)
(1.04416 0.0658932 -2.69635e-29)
(1.04745 0.0664688 2.33025e-30)
(1.05114 0.0676482 2.80641e-29)
(1.00001 0.00254097 0)
(1.00032 0.00749797 0)
(1.00094 0.0122916 0)
(1.00182 0.0169267 0)
(1.00301 0.0214715 0)
(1.00449 0.0258683 0)
(1.0063 0.0301567 0)
(1.00838 0.0342402 0)
(1.01077 0.0381628 0)
(1.01339 0.0418025 0)
(1.01628 0.0452341 0)
(1.01931 0.0483099 0)
(1.02256 0.0511625 0)
(1.02585 0.0535998 0)
(1.02931 0.0558476 0)
(1.03268 0.0576226 0)
(1.0362 0.0593079 0)
(1.03949 0.060429 0)
(1.04297 0.0616653 0)
(1.04603 0.0621278 0)
(1.04947 0.0631286 0)
(1.00001 0.00247387 0)
(1.00034 0.00729513 0)
(1.00099 0.011938 0)
(1.00192 0.016406 0)
(1.00315 0.0207576 0)
(1.00467 0.0249416 0)
(1.00649 0.0289916 0)
(1.00858 0.0328233 0)
(1.01095 0.0364753 0)
(1.01352 0.0398421 0)
(1.01634 0.0429912 0)
(1.01928 0.0457959 0)
(1.0224 0.0483756 0)
(1.02554 0.0505647 0)
(1.02882 0.052566 0)
(1.032 0.0541325 0)
(1.03531 0.0556065 0)
(1.0384 0.0565699 0)
(1.04165 0.0576293 0)
(1.04449 0.0579945 0)
(1.04769 0.0588385 0)
(1.00001 0.00240111 0)
(1.00036 0.00707578 0)
(1.00104 0.0115594 0)
(1.00199 0.015854 0)
(1.00326 0.0200095 0)
(1.0048 0.0239806 0)
(1.00663 0.0277963 0)
(1.0087 0.0313834 0)
(1.01104 0.034776 0)
(1.01355 0.0378839 0)
(1.01628 0.0407682 0)
(1.01911 0.0433206 0)
(1.0221 0.0456492 0)
(1.02509 0.0476116 0)
(1.02819 0.0493897 0)
(1.03119 0.0507688 0)
(1.0343 0.0520545 0)
(1.03718 0.0528787 0)
(1.04022 0.0537823 0)
(1.04285 0.0540641 0)
(1.04583 0.0547711 -1.62206e-29)
(1.00001 0.00232333 0)
(1.00037 0.00684193 0)
(1.00107 0.0111592 0)
(1.00205 0.0152753 0)
(1.00333 0.019233 0)
(1.00488 0.0229926 0)
(1.0067 0.0265791 0)
(1.00875 0.0299295 0)
(1.01104 0.0330746 6.30129e-29)
(1.01348 0.0359377 -6.71002e-29)
(1.01612 0.0385744 0)
(1.01883 0.0408929 0)
(1.02168 0.0429908 0)
(1.02452 0.0447466 0)
(1.02745 0.0463232 0)
(1.03027 0.0475343 0)
(1.03318 0.0486523 0)
(1.03587 0.0493542 0)
(1.03869 0.050121 0)
(1.04114 0.0503316 0)
(1.04389 0.0509192 0)
(1.00001 0.0022412 0)
(1.00038 0.00659559 0)
(1.00109 0.0107405 0)
(1.00208 0.0146746 0)
(1.00337 0.018434 0)
(1.00492 0.0219844 0)
(1.00672 0.0253477 0)
(1.00873 0.0284701 0)
(1.01096 0.0313799 0)
(1.01333 0.0340122 0)
(1.01586 0.0364181 0)
(1.01845 0.0385202 0)
(1.02116 0.040407 0)
(1.02385 0.0419749 0)
(1.0266 0.0433698 0)
(1.02925 0.0444307 0)
(1.03197 0.0454 0)
(1.03448 0.0459944 0)
(1.0371 0.0466414 0)
(1.03937 0.0467919 0)
(1.04192 0.0472757 0)
(1.00001 0.00215539 0)
(1.00039 0.00633878 0)
(1.0011 0.0103067 0)
(1.0021 0.0140562 0)
(1.00339 0.0176181 0)
(1.00491 0.0209627 0)
(1.00669 0.0241096 0)
(1.00865 0.0270132 0)
(1.01081 0.0296998 0)
(1.01309 0.0321153 0)
(1.01552 0.0343066 0)
(1.01799 0.0362092 0)
(1.02056 0.037903 0)
(1.02309 0.0393004 0)
(1.02568 0.040532 0)
(1.02816 0.0414588 0)
(1.0307 0.0422964 0)
(1.03303 0.0427969 0)
(1.03546 0.0433394 -2.68114e-29)
(1.03756 0.0434394 1.65921e-30)
(1.03991 0.0438335 2.86058e-29)
(1.00001 0.00206657 0)
(1.00039 0.00607344 0)
(1.0011 0.00986091 0)
(1.0021 0.0134247 0)
(1.00338 0.0167908 0)
(1.00488 0.0199338 0)
(1.00661 0.0228716 0)
(1.00852 0.025566 0)
(1.0106 0.0280417 0)
(1.01279 0.030254 0)
(1.01511 0.0322463 0)
(1.01746 0.0339652 0)
(1.01988 0.0354831 0)
(1.02226 0.0367262 0)
(1.02469 0.0378112 0)
(1.02701 0.0386188 0)
(1.02937 0.03934 0)
(1.03154 0.0397587 0)
(1.03379 0.0402104 0)
(1.03573 0.0402683 0)
(1.0379 0.0405852 0)
(1.00001 0.00197539 0)
(1.00039 0.00580151 0)
(1.0011 0.00940633 0)
(1.00209 0.0127841 0)
(1.00334 0.0159571 0)
(1.00481 0.0189036 0)
(1.0065 0.02164 0)
(1.00834 0.024135 0)
(1.01034 0.0264119 0)
(1.01244 0.0284344 0)
(1.01464 0.0302426 0)
(1.01686 0.0317928 0)
(1.01915 0.0331507 0)
(1.02138 0.0342544 0)
(1.02365 0.0352083 0)
(1.02582 0.0359099 0)
(1.02801 0.0365287 0)
(1.03002 0.0368765 0)
(1.0321 0.0372495 0)
(1.03389 0.0372728 0)
(1.03589 0.0375236 0)
(1.00001 0.00188247 0)
(1.00038 0.00552489 0)
(1.00108 0.00894593 0)
(1.00206 0.0121387 0)
(1.00328 0.0151219 0)
(1.00472 0.0178774 0)
(1.00635 0.0204206 0)
(1.00812 0.0227261 0)
(1.01004 0.0248162 0)
(1.01204 0.0266617 0)
(1.01412 0.0283 0)
(1.01622 0.0296956 0)
(1.01837 0.0309082 0)
(1.02046 0.0318863 0)
(1.02258 0.0327231 0)
(1.02459 0.033331 0)
(1.02663 0.0338599 0)
(1.02849 0.0341463 0)
(1.03041 0.0344515 0)
(1.03206 0.0344468 0)
(1.0339 0.0346414 -1.74079e-29)
(1.00001 0.00178841 0)
(1.00038 0.00524539 0)
(1.00106 0.00848256 0)
(1.00202 0.011492 0)
(1.00321 0.0142896 0)
(1.0046 0.0168602 0)
(1.00617 0.0192187 0)
(1.00787 0.0213446 0)
(1.0097 0.0232595 0)
(1.0116 0.0249404 0)
(1.01357 0.0264222 0)
(1.01554 0.0276764 0)
(1.01755 0.0287574 0)
(1.01951 0.0296226 0)
(1.02149 0.030355 0)
(1.02336 0.0308801 0)
(1.02524 0.0313303 0)
(1.02696 0.031564 0)
(1.02873 0.0318112 0)
(1.03025 0.0317841 0)
(1.03194 0.0319311 0)
(1.00001 0.00169381 0)
(1.00037 0.0049647 0)
(1.00104 0.00801886 0)
(1.00196 0.0108476 0)
(1.00312 0.0134643 0)
(1.00446 0.0158566 0)
(1.00597 0.0180388 0)
(1.0076 0.019995 0)
(1.00933 0.021746 0)
(1.01113 0.0232741 0)
(1.01298 0.024612 0)
(1.01484 0.0257373 0)
(1.01672 0.0266993 0)
(1.01855 0.027463 0)
(1.02038 0.0281026 0)
(1.02211 0.0285549 0)
(1.02386 0.0289366 0)
(1.02544 0.0291252 0)
(1.02708 0.0293228 0)
(1.02847 0.0292782 -6.45236e-30)
(1.03002 0.0293855 6.86711e-30)
(1.00001 0.00159919 0)
(1.00036 0.00468438 0)
(1.00101 0.0075573 0)
(1.0019 0.0102086 0)
(1.00302 0.0126496 0)
(1.00431 0.0148705 0)
(1.00575 0.016885 0)
(1.0073 0.0186811 0)
(1.00894 0.0202791 0)
(1.01064 0.0216657 0)
(1.01238 0.0228715 0)
(1.01412 0.0238794 0)
(1.01587 0.024734 0)
(1.01758 0.0254069 0)
(1.01927 0.0259643 0)
(1.02088 0.0263526 0)
(1.02249 0.0266747 0)
(1.02395 0.0268249 0)
(1.02545 0.0269806 -1.19196e-29)
(1.02673 0.0269229 1.26868e-29)
(1.02815 0.026997 0)
(1.00001 0.00150506 0)
(1.00035 0.00440587 0)
(1.00097 0.00710008 0)
(1.00184 0.00957783 0)
(1.00291 0.0118489 0)
(1.00414 0.0139054 0)
(1.00551 0.0157607 0)
(1.00698 0.0174063 0)
(1.00854 0.0188616 0)
(1.01013 0.0201175 0)
(1.01176 0.0212023 0)
(1.01339 0.0221033 0)
(1.01502 0.0228612 0)
(1.01661 0.023453 0)
(1.01818 0.0239376 0)
(1.01966 0.0242699 0)
(1.02114 0.0245404 0)
(1.02249 0.0246583 0)
(1.02387 0.0247787 0)
(1.02505 0.0247114 0)
(1.02635 0.0247584 -1.00466e-29)
(1.00001 0.00141185 0)
(1.00033 0.00413048 0)
(1.00094 0.00664921 0)
(1.00177 0.00895791 0)
(1.00279 0.0110649 0)
(1.00396 0.0129642 0)
(1.00527 0.0146688 0)
(1.00666 0.0161731 0)
(1.00812 0.0174957 0)
(1.00962 0.0186309 0)
(1.01115 0.0196051 0)
(1.01266 0.0204092 0)
(1.01418 0.02108 0)
(1.01565 0.0215995 0)
(1.0171 0.0220198 0)
(1.01847 0.0223032 0)
(1.01983 0.0225293 0)
(1.02107 0.0226201 0)
(1.02234 0.022711 0)
(1.02342 0.0226373 0)
(1.0246 0.0226623 0)
(1.00001 0.00131996 0)
(1.00032 0.00385933 0)
(1.0009 0.00620641 0)
(1.00169 0.00835096 0)
(1.00267 0.0103001 0)
(1.00378 0.0120495 0)
(1.00501 0.0136116 0)
(1.00632 0.0149834 0)
(1.0077 0.0161829 0)
(1.0091 0.0172069 0)
(1.01053 0.01808 0)
(1.01194 0.0187962 0)
(1.01335 0.0193889 0)
(1.01471 0.019844 0)
(1.01605 0.0202077 0)
(1.01731 0.0204487 0)
(1.01856 0.0206367 0)
(1.0197 0.0207049 0)
(1.02086 0.0207714 0)
(1.02185 0.0206938 0)
(1.02293 0.0207012 0)
(1.00001 0.00122973 0)
(1.00031 0.00359342 0)
(1.00086 0.00577319 0)
(1.00161 0.00775884 0)
(1.00254 0.0095565 0)
(1.0036 0.0111631 0)
(1.00476 0.0125909 0)
(1.00599 0.0138389 0)
(1.00728 0.0149241 0)
(1.00859 0.0158457 0)
(1.00992 0.0166267 0)
(1.01123 0.0172634 0)
(1.01253 0.0177861 0)
(1.01379 0.0181839 0)
(1.01503 0.0184979 0)
(1.01619 0.0187021 0)
(1.01734 0.0188574 0)
(1.01839 0.0189072 0)
(1.01944 0.0189536 1.55645e-29)
(1.02035 0.0188744 -4.8421e-31)
(1.02134 0.0188681 -1.7116e-29)
(1.00001 0.00114146 0)
(1.00029 0.00333358 0)
(1.00082 0.00535078 0)
(1.00153 0.00718303 0)
(1.00241 0.00883563 0)
(1.00341 0.0103067 0)
(1.0045 0.011608 0)
(1.00566 0.0127402 0)
(1.00686 0.0137197 0)
(1.00809 0.0145472 0)
(1.00932 0.0152442 0)
(1.01054 0.015809 0)
(1.01174 0.016269 0)
(1.0129 0.016616 0)
(1.01404 0.0168865 0)
(1.01511 0.0170589 0)
(1.01617 0.0171865 0)
(1.01713 0.0172211 0)
(1.01809 0.0172514 0)
(1.01893 0.0171724 0)
(1.01982 0.0171555 0)
(1.00001 0.00105538 0)
(1.00028 0.00308047 0)
(1.00077 0.00494016 0)
(1.00145 0.00662471 0)
(1.00228 0.00813869 0)
(1.00322 0.00948122 0)
(1.00425 0.0106636 0)
(1.00533 0.0116878 0)
(1.00646 0.0125694 0)
(1.0076 0.0133106 0)
(1.00874 0.0139312 0)
(1.00987 0.0144311 -9.27895e-30)
(1.01098 0.0148349 9.87999e-30)
(1.01205 0.015137 -9.92973e-30)
(1.0131 0.0153693 1.05721e-29)
(1.01408 0.0155144 0)
(1.01505 0.0156186 0)
(1.01593 0.0156411 0)
(1.01681 0.0156584 0)
(1.01758 0.015581 0)
(1.01839 0.0155564 2.17346e-29)
(1 0.000971673 0)
(1.00026 0.00283462 0)
(1.00073 0.00454207 0)
(1.00137 0.0060847 0)
(1.00215 0.00746647 0)
(1.00304 0.00868729 0)
(1.004 0.00975798 0)
(1.00502 0.0106815 0)
(1.00606 0.0114726 0)
(1.00712 0.0121346 0)
(1.00818 0.0126857 0)
(1.00923 0.013127 0)
(1.01025 0.0134807 0)
(1.01124 0.013743 0)
(1.0122 0.0139421 0)
(1.01311 0.0140637 0)