/*--------------------------------*- C++ -*----------------------------------*\
  =========                 |
  \\      /  F ield         | OpenFOAM: The Open Source CFD Toolbox
   \\    /   O peration     | Website:  https://openfoam.org
    \\  /    A nd           | Version:  7
     \\/     M anipulation  |
\*---------------------------------------------------------------------------*/
FoamFile
{
    version     2.0;
    format      ascii;
    class       surfaceScalarField;
    location    "200";
    object      phi;
}
// * * * * * * * * * * * * * * * * * * * * * * * * * * * * * * * * * * * * * //

dimensions      [0 3 -1 0 0 0 0];

internalField   nonuniform List<scalar> 
72657
(
-1.51783e-06
-4.0762e-06
5.59402e-06
-5.5701e-06
-2.18846e-05
2.59369e-05
-1.18707e-05
-4.82047e-05
5.45053e-05
-2.01973e-05
-8.12338e-05
8.95604e-05
-3.03764e-05
-0.00011923
0.000129409
-4.22664e-05
-0.000160654
0.000172544
-5.57414e-05
-0.000204272
0.000217747
-7.06777e-05
-0.000249259
0.000264195
-8.69465e-05
-0.000295238
0.000311507
-0.000104413
-0.000342274
0.00035974
-0.000122942
-0.000390794
0.000409323
-0.00014241
-0.000441487
0.000460955
-0.000162715
-0.000495187
0.000515491
-0.000183788
-0.000552775
0.000573848
-0.000205597
-0.000615123
0.000636932
-0.00022814
-0.000683066
0.000705608
-0.000251431
-0.000757408
0.0007807
-0.000275483
-0.000838935
0.000862987
-0.00030027
-0.00092838
0.000953167
-0.00102649
0.00105195
-0.00032573
-1.64384e-06
-2.43235e-06
-6.03033e-06
-1.74981e-05
-1.28459e-05
-4.13891e-05
-2.18429e-05
-7.22368e-05
-3.28252e-05
-0.000108247
-4.56313e-05
-0.000147847
-6.01191e-05
-0.000189785
-7.61534e-05
-0.000233224
-9.36e-05
-0.000277792
-0.000112326
-0.000323548
-0.000132205
-0.000370914
-0.000153133
-0.00042056
-0.000175034
-0.000473285
-0.000197878
-0.000529931
-0.000221678
-0.000591322
-0.00024649
-0.000658253
-0.000272396
-0.000731503
-0.000299478
-0.000811853
-0.000327784
-0.000900073
-0.000996952
-0.000357326
-1.75981e-06
-6.72537e-07
-6.45445e-06
-1.28035e-05
-1.37447e-05
-3.40988e-05
-2.33587e-05
-6.26229e-05
-3.50778e-05
-9.65283e-05
-4.8721e-05
-0.000134204
-6.41294e-05
-0.000174376
-8.11558e-05
-0.000216198
-9.96596e-05
-0.000259288
-0.000119508
-0.0003037
-0.000140583
-0.00034984
-0.000162794
-0.000398349
-0.00018609
-0.000449989
-0.000210471
-0.00050555
-0.000235994
-0.000565799
-0.000262767
-0.000631481
-0.000290932
-0.000703338
-0.000320644
-0.000782141
-0.000352023
-0.000868694
-0.000963819
-0.000385156
-1.8638e-06
1.19126e-06
-6.8358e-06
-7.83149e-06
-1.45539e-05
-2.63807e-05
-2.47235e-05
-5.24533e-05
-3.71049e-05
-8.41469e-05
-5.14974e-05
-0.000119812
-6.77254e-05
-0.000158148
-8.56292e-05
-0.000198294
-0.000105061
-0.000239856
-0.000125886
-0.000282875
-0.000147991
-0.000327734
-0.000171297
-0.000375043
-0.000195772
-0.000425515
-0.000221441
-0.00047988
-0.000248396
-0.000538844
-0.000276791
-0.000603087
-0.000306826
-0.000673303
-0.000338724
-0.000750243
-0.000372677
-0.000834741
-0.000927646
-0.00040885
-1.95396e-06
3.14522e-06
-7.16827e-06
-2.61717e-06
-1.52615e-05
-1.82875e-05
-2.59184e-05
-4.17964e-05
-3.88797e-05
-7.11855e-05
-5.39259e-05
-0.000104766
-7.08645e-05
-0.00014121
-8.95231e-05
-0.000179636
-0.000109745
-0.000219634
-0.000131393
-0.000261227
-0.000154355
-0.000304772
-0.000178559
-0.000350839
-0.000203984
-0.000400089
-0.000230676
-0.000453189
-0.000258753
-0.000510767
-0.000288406
-0.000573433
-0.00031989
-0.000641819
-0.000353489
-0.000716644
-0.000389469
-0.000798761
-0.000889044
-0.000428072
-2.02859e-06
5.17381e-06
-7.44616e-06
2.80039e-06
-1.58561e-05
-9.87754e-06
-2.6926e-05
-3.07265e-05
-4.03782e-05
-5.77333e-05
-5.59752e-05
-8.91687e-05
-7.35085e-05
-0.000123676
-9.27924e-05
-0.000160352
-0.000113661
-0.000198765
-0.000135971
-0.000238917
-0.000159609
-0.000281134
-0.000184504
-0.000325944
-0.000210642
-0.000373951
-0.000238079
-0.000425752
-0.000266951
-0.000481895
-0.000297479
-0.000542905
-0.000329961
-0.000609338
-0.000364741
-0.000681863
-0.000402156
-0.000761346
-0.000848674
-0.000442526
-2.08622e-06
7.26003e-06
-7.66458e-06
8.37876e-06
-1.63284e-05
-1.21371e-06
-2.77313e-05
-1.93236e-05
-4.15791e-05
-4.38855e-05
-5.7618e-05
-7.31298e-05
-7.56239e-05
-0.00010567
-9.53977e-05
-0.000140578
-0.000116763
-0.0001774
-0.000139568
-0.000216112
-0.000163695
-0.000257007
-0.000189069
-0.000300569
-0.000215675
-0.000347346
-0.000243569
-0.000397857
-0.000272898
-0.000452567
-0.000303899
-0.000511903
-0.000336905
-0.000576332
-0.000372315
-0.000646453
-0.000410533
-0.000723128
-0.000807247
-0.00045196
-2.12566e-06
9.3857e-06
-7.81941e-06
1.40725e-05
-1.66701e-05
7.63698e-06
-2.83211e-05
-7.67258e-06
-4.24643e-05
-2.97423e-05
-5.88307e-05
-5.67634e-05
-7.71818e-05
-8.73191e-05
-9.7305e-05
-0.000120455
-0.000119012
-0.000155693
-0.000142141
-0.000192982
-0.000166566
-0.000232583
-0.000192202
-0.000274933
-0.000219025
-0.000320523
-0.000247084
-0.000369798
-0.000276521
-0.00042313
-0.000307581
-0.000480843
-0.00034062
-0.000543293
-0.000376082
-0.000610992
-0.000414439
-0.00068477
-0.000765517
-0.000456169
-2.14606e-06
1.15318e-05
-7.90761e-06
1.98341e-05
-1.68747e-05
1.6604e-05
-2.8685e-05
4.13774e-06
-4.30185e-05
-1.54087e-05
-5.95937e-05
-4.01882e-05
-7.81585e-05
-6.87544e-05
-9.84866e-05
-0.000100127
-0.000120377
-0.000133803
-0.000143656
-0.000169704
-0.000168183
-0.000208055
-0.000193861
-0.000249255
-0.000220648
-0.000293735
-0.000248576
-0.00034187
-0.00027777
-0.000393936
-0.000308468
-0.000450145
-0.000341035
-0.000510726
-0.000375953
-0.000576075
-0.000413756
-0.000646967
-0.000724269
-0.000455004
-2.14681e-06
1.36786e-05
-7.92674e-06
2.5614e-05
-1.69371e-05
2.56143e-05
-2.88141e-05
1.60148e-05
-4.32299e-05
-9.92986e-07
-5.98918e-05
-2.35263e-05
-7.85352e-05
-5.01109e-05
-9.89205e-05
-7.97414e-05
-0.000120833
-0.000111891
-0.000144083
-0.000146453
-0.000168517
-0.000183622
-0.000194015
-0.000223757
-0.000220513
-0.000267237
-0.000248014
-0.000314369
-0.000276613
-0.000365337
-0.000306527
-0.000420231
-0.000338115
-0.000479139
-0.000371879
-0.00054231
-0.000408418
-0.000610429
-0.000684318
-0.000448369
-2.12748e-06
1.5806e-05
-7.87525e-06
3.13618e-05
-1.68538e-05
3.45929e-05
-2.87028e-05
2.78638e-05
-4.309e-05
1.33942e-05
-5.9714e-05
-6.90229e-06
-7.82987e-05
-3.15262e-05
-9.85909e-05
-5.94492e-05
-0.000120361
-9.01211e-05
-0.000143405
-0.000123409
-0.000167546
-0.000159481
-0.000192644
-0.000198659
-0.000218601
-0.000241281
-0.000245382
-0.000287588
-0.00027304
-0.000337678
-0.000301753
-0.000391518
-0.000331853
-0.000449038
-0.000363855
-0.000510308
-0.000398407
-0.000575877
-0.000646495
-0.00043623
-2.08787e-06
1.78939e-05
-7.75239e-06
3.70263e-05
-1.66232e-05
4.34637e-05
-2.83482e-05
3.95889e-05
-4.25945e-05
2.76404e-05
-5.90545e-05
9.55772e-06
-7.74413e-05
-1.31393e-05
-9.74885e-05
-3.9402e-05
-0.000118951
-6.86584e-05
-0.000141607
-0.000100753
-0.000165259
-0.000135829
-0.000189736
-0.000174182
-0.000214903
-0.000216114
-0.000240677
-0.000261814
-0.000267057
-0.000311298
-0.000294162
-0.000364414
-0.00032228
-0.00042092
-0.000351916
-0.000480672
-0.000383759
-0.000544033
-0.000611637
-0.000418616
-2.02805e-06
1.9922e-05
-7.55831e-06
4.25565e-05
-1.62455e-05
5.21509e-05
-2.77505e-05
5.10938e-05
-4.17433e-05
4.16332e-05
-5.79123e-05
2.57267e-05
-7.59612e-05
4.90951e-06
-9.56104e-05
-1.97528e-05
-0.000116599
-4.76693e-05
-0.000138687
-7.86652e-05
-0.000161651
-0.000112865
-0.000185288
-0.000150545
-0.000209422
-0.00019198
-0.000233912
-0.000237323
-0.000258688
-0.000286522
-0.000283795
-0.000339307
-0.000309455
-0.00039526
-0.000336136
-0.000453991
-0.00036456
-0.000515609
-0.000580581
-0.000395617
-1.94845e-06
2.18704e-05
-7.29427e-06
4.79024e-05
-1.57231e-05
6.05797e-05
-2.69129e-05
6.22837e-05
-4.05405e-05
5.52608e-05
-5.62918e-05
4.1478e-05
-7.38624e-05
2.24801e-05
-9.29603e-05
-6.5487e-07
-0.000113309
-2.73208e-05
-0.000134647
-5.73275e-05
-0.000156725
-9.07864e-05
-0.000179308
-0.000127963
-0.000202168
-0.00016912
-0.000225106
-0.000214386
-0.000247969
-0.000263658
-0.000270711
-0.000316565
-0.000293462
-0.000372509
-0.000316631
-0.000430823
-0.000340949
-0.000491291
-0.000554145
-0.000367385
-1.84983e-06
2.37203e-05
-6.96262e-06
5.30152e-05
-1.50601e-05
6.86772e-05
-2.58419e-05
7.30654e-05
-3.8994e-05
6.8413e-05
-5.42022e-05
5.66861e-05
-7.11551e-05
3.9433e-05
-8.95488e-05
1.77388e-05
-0.00010909
-7.77927e-06
-0.000129497
-3.69204e-05
-0.000150494
-6.97893e-05
-0.000171808
-0.000106649
-0.000193162
-0.000147765
-0.000214289
-0.00019326
-0.000234948
-0.000242999
-0.000254984
-0.00029653
-0.000274412
-0.000353081
-0.000293548
-0.000411686
-0.000313111
-0.000471728
-0.000533121
-0.000334135
-1.73334e-06
2.54536e-05
-6.56685e-06
5.78487e-05
-1.42629e-05
7.63733e-05
-2.45467e-05
8.33492e-05
-3.71161e-05
8.09824e-05
-5.1658e-05
7.1228e-05
-6.78556e-05
5.56306e-05
-8.53934e-05
3.52767e-05
-0.000103962
1.07895e-05
-0.000123258
-1.76245e-05
-0.000142978
-5.00694e-05
-0.000162811
-8.68164e-05
-0.000182431
-0.000128145
-0.000201498
-0.000174192
-0.000219678
-0.000224819
-0.000236696
-0.000279512
-0.000252426
-0.00033735
-0.000267061
-0.000397052
-0.000281272
-0.000457517
-0.000518259
-0.000296135
-1.60044e-06
2.7054e-05
-6.11155e-06
6.23598e-05
-1.33401e-05
8.36018e-05
-2.30396e-05
9.30487e-05
-3.4923e-05
9.28658e-05
-4.86789e-05
8.4984e-05
-6.39864e-05
7.0938e-05
-8.0519e-05
5.18094e-05
-9.79509e-05
2.82214e-05
-0.000115957
3.8114e-07
-0.000134205
-3.18213e-05
-0.000152347
-6.86739e-05
-0.000170007
-0.000110485
-0.000186776
-0.000157424
-0.00020222
-0.000209374
-0.000215935
-0.000265797
-0.000227639
-0.000325646
-0.000237362
-0.000387329
-0.000245695
-0.000449184
-0.000510249
-0.000253704
-1.45291e-06
2.85069e-05
-5.60227e-06
6.65091e-05
-1.23019e-05
9.03014e-05
-2.13362e-05
0.000102083
-3.24346e-05
0.000103964
-4.52898e-05
9.78392e-05
-5.95764e-05
8.52247e-05
-7.49579e-05
6.71908e-05
-9.10913e-05
4.43548e-05
-0.000107629
1.69189e-05
-0.000124212
-1.52385e-05
-0.000140455
-5.24305e-05
-0.000155934
-9.50063e-05
-0.00017017
-0.000143189
-0.000182635
-0.000196909
-0.000192791
-0.000255641
-0.000200183
-0.000318254
-0.000204652
-0.000382861
-0.000206661
-0.000447175
-0.000509705
-0.000207205
-1.29274e-06
2.97997e-05
-5.04541e-06
7.02618e-05
-1.11603e-05
9.64163e-05
-1.94544e-05
0.000110377
-2.96751e-05
0.000114185
-4.15204e-05
0.000109685
-5.46612e-05
9.83655e-05
-6.87499e-05
8.12794e-05
-8.34268e-05
5.90316e-05
-9.83218e-05
3.1814e-05
-0.000113048
-5.12733e-07
-0.000127184
-3.82938e-05
-0.00014026
-8.19303e-05
-0.000151733
-0.000131715
-0.000160986
-0.000187656
-0.000167348
-0.000249279
-0.000170187
-0.000315415
-0.000169125
-0.000383922
-0.000164459
-0.000451841
-0.000517124
-0.000157041
-1.12215e-06
3.09218e-05
-4.44806e-06
7.35877e-05
-9.92901e-06
0.000101897
-1.7415e-05
0.000117863
-2.66727e-05
0.000123443
-3.74063e-05
0.000120418
-4.92825e-05
0.000110242
-6.19427e-05
9.39397e-05
-7.50099e-05
7.20988e-05
-8.80909e-05
4.4895e-05
-0.00010077
1.21664e-05
-0.000112593
-2.64706e-05
-0.000123046
-7.14779e-05
-0.000131527
-0.000123234
-0.000137338
-0.000181846
-0.000139686
-0.00024693
-0.000137764
-0.000317337
-0.000130966
-0.00039072
-0.000119382
-0.000463425
-0.000532842
-0.000103663
-9.43519e-07
3.18654e-05
-3.81806e-06
7.64623e-05
-8.62306e-06
0.000106702
-1.52414e-05
0.000124481
-2.34591e-05
0.00013166
-3.29876e-05
0.000129947
-4.34884e-05
0.000120743
-5.45917e-05
0.000105043
-6.59022e-05
8.34093e-05
-7.70029e-05
5.59957e-05
-8.74495e-05
2.2613e-05
-9.67544e-05
-1.71657e-05
-0.000104362
-6.387e-05
-0.000109622
-0.000117974
-0.000111761
-0.000179707
-0.00010988
-0.000248811
-0.000103009
-0.000324208
-9.03073e-05
-0.000403422
-7.1701e-05
-0.000482031
-0.000556868
-4.76752e-05
-7.59428e-07
3.26248e-05
-3.16383e-06
7.88667e-05
-7.25883e-06
0.000110797
-1.29591e-05
0.000130182
-2.00697e-05
0.000138771
-2.83086e-05
0.000138185
-3.73327e-05
0.000129767
-4.67593e-05
0.000114469
-5.61741e-05
9.28241e-05
-6.51352e-05
6.49567e-05
-7.31685e-05
3.06464e-05
-7.97531e-05
-1.05811e-05
-8.4296e-05
-5.9327e-05
-8.61008e-05
-0.000116169
-8.43337e-05
-0.000181475
-7.80049e-05
-0.00025514
-6.59964e-05
-0.000336217
-4.71834e-05
-0.000422235
-2.11444e-05
-0.000508071
-0.000586696
8.68366e-06
-5.72554e-07
3.31973e-05
-2.49425e-06
8.07884e-05
-5.85372e-06
0.000114157
-1.05954e-05
0.000134923
-1.6542e-05
0.000144717
-2.34177e-05
0.000145061
-3.08741e-05
0.000137223
-3.85145e-05
0.00012211
-4.59042e-05
0.000100214
-5.2575e-05
7.16275e-05
-5.80217e-05
3.60931e-05
-6.16893e-05
-6.9135e-06
-6.29488e-05
-5.80675e-05
-6.10637e-05
-0.000118054
-5.51512e-05
-0.000187387
-4.41475e-05
-0.000266144
-2.68134e-05
-0.000353551
-1.84267e-06
-0.000447205
3.19552e-05
-0.000541868
-0.000627759
7.30179e-05
-3.85623e-07
3.3583e-05
-1.81842e-06
8.22212e-05
-4.42563e-06
0.000116764
-8.17853e-06
0.000138676
-1.29155e-05
0.000149454
-1.8366e-05
0.000150512
-2.41755e-05
0.000143033
-2.99318e-05
0.000127866
-3.51785e-05
0.000105461
-3.94188e-05
7.58678e-05
-4.2115e-05
3.87893e-05
-4.26768e-05
-6.35167e-06
-4.04393e-05
-6.03051e-05
-3.46302e-05
-0.000123863
-2.4328e-05
-0.000197689
-8.41587e-06
-0.000282056
1.44519e-05
-0.000376419
4.58036e-05
-0.000478557
8.67074e-05
-0.000582772
-0.000678365
0.000137314
-2.01347e-07
3.37843e-05
-1.14544e-06
8.31652e-05
-2.99265e-06
0.000118611
-5.7373e-06
0.000141421
-9.23089e-06
0.000152948
-1.32063e-05
0.000154487
-1.73025e-05
0.000147129
-2.10899e-05
0.000131654
-2.40879e-05
0.000108459
-2.57703e-05
7.75501e-05
-2.55642e-05
3.85832e-05
-2.2842e-05
-9.07394e-06
-1.69019e-05
-6.62451e-05
-6.93883e-06
-0.000133826
7.99826e-06
-0.000212626
2.90598e-05
-0.000303117
5.7651e-05
-0.00040501
9.54462e-05
-0.000516352
0.00014382
-0.000631146
-0.000737916
0.000203371
-2.25032e-08
3.38068e-05
-4.84259e-07
8.3627e-05
-1.5727e-06
0.0001197
-3.30042e-06
0.000143149
-5.52899e-06
0.000155177
-7.99248e-06
0.000156951
-1.03217e-05
0.000149458
-1.20689e-05
0.000133401
-1.27273e-05
0.000109117
-1.17382e-05
7.6561e-05
-8.49175e-06
3.53368e-05
-2.32041e-06
-1.52453e-05
7.51574e-06
-7.60813e-05
2.18551e-05
-0.000148166
4.16711e-05
-0.000232442
6.81265e-05
-0.000329573
0.000102649
-0.000439532
0.000147002
-0.000560706
0.000202826
-0.00068697
-0.000806189
0.000271099
1.48933e-07
3.36579e-05
1.56628e-07
8.36193e-05
-1.83015e-07
0.000120039
-8.95831e-07
0.000143861
-1.84959e-06
0.00015613
-2.7772e-06
0.000157878
-3.29968e-06
0.00014998
-2.94926e-06
0.00013305
-1.19117e-06
0.000107359
2.56738e-06
7.28025e-05
8.97751e-06
2.89267e-05
1.87481e-05
-2.50159e-05
3.26601e-05
-8.99933e-05
5.15845e-05
-0.00016709
7.65135e-05
-0.000257371
0.000108608
-0.000361667
0.000149278
-0.000480202
0.000200313
-0.000611741
0.000263538
-0.000750195
-0.000882938
0.000340288
3.10023e-07
3.33479e-05
7.69265e-07
8.31601e-05
1.1603e-06
0.000119648
1.45023e-06
0.000143572
1.76926e-06
0.000155811
2.3891e-06
0.000157258
3.70035e-06
0.000148669
6.19161e-06
0.000130559
1.04286e-05
0.000103122
1.70413e-05
6.61897e-05
2.67214e-05
1.92465e-05
4.02247e-05
-3.85192e-05
5.83752e-05
-0.000108144
8.20783e-05
-0.000190793
0.000112342
-0.000287635
0.000150314
-0.000399639
0.000197353
-0.000527242
0.0002552
-0.000669587
0.000325784
-0.000820779
-0.000967878
0.000410723
4.5912e-07
3.28887e-05
1.3467e-06
8.22725e-05
2.44285e-06
0.000118552
3.71403e-06
0.0001423
5.2932e-06
0.000154232
7.45985e-06
0.000155092
1.06191e-05
0.00014551
1.52823e-05
0.000125896
2.20466e-05
9.63577e-05
3.1582e-05
5.66543e-05
4.46253e-05
6.20324e-06
6.19795e-05
-5.58733e-05
8.45148e-05
-0.000130679
0.000113173
-0.000219451
0.000148976
-0.000323438
0.000193048
-0.000443711
0.000246672
-0.000580865
0.000311466
-0.000734382
0.000389377
-0.00089869
-0.00106067
0.000482172
5.94532e-07
3.22942e-05
1.88306e-06
8.0984e-05
3.65233e-06
0.000116783
5.8751e-06
0.000140078
8.69215e-06
0.000151415
1.23947e-05
0.000151389
1.74051e-05
0.000140499
2.42589e-05
0.000119042
3.35878e-05
8.70288e-05
4.61032e-05
4.41389e-05
6.25892e-05
-1.02827e-05
8.38987e-05
-7.71828e-05
0.00011095
-0.00015773
0.000144721
-0.000253223
0.000186247
-0.000364964
0.000236623
-0.000494087
0.000297031
-0.000641273
0.000368901
-0.000806252
0.000454114
-0.000983903
-0.00116092
0.000554364
7.15007e-07
3.15792e-05
2.37377e-06
7.93252e-05
4.77904e-06
0.000114378
7.91704e-06
0.00013694
1.19418e-05
0.00014739
1.71604e-05
0.000146171
2.40159e-05
0.000133644
3.30707e-05
0.000109987
4.49917e-05
7.51078e-05
6.05347e-05
2.85959e-05
8.05331e-05
-3.02812e-05
0.000105892
-0.000102541
0.000137577
-0.000189416
0.000176605
-0.00029225
0.000224019
-0.000412378
0.000280873
-0.000550942
0.000348236
-0.000708636
0.000427282
-0.000885298
0.000519765
-0.00107639
-0.00126815
0.000626989
8.19747e-07
3.07594e-05
2.81575e-06
7.73292e-05
5.8162e-06
0.000111377
9.82811e-06
0.000132928
1.50246e-05
0.000142194
2.1733e-05
0.000139462
3.04204e-05
0.000124957
4.16795e-05
9.87284e-05
5.62145e-05
6.05728e-05
7.48271e-05
9.98331e-06
9.84021e-05
-5.38563e-05
0.000127897
-0.000132036
0.000164327
-0.000225845
0.00020874
-0.000336664
0.000262186
-0.000465824
0.000325665
-0.000614421
0.000400112
-0.000783082
0.000486387
-0.000971573
0.000586073
-0.00117607
-0.00138176
0.000699683
9.08439e-07
2.9851e-05
3.20757e-06
7.50301e-05
6.7603e-06
0.000107824
1.16019e-05
0.000128086
1.79304e-05
0.000135865
2.60984e-05
0.000131294
3.66011e-05
0.000114454
5.00644e-05
8.5265e-05
6.72327e-05
4.34045e-05
8.89549e-05
-1.17389e-05
0.000116169
-8.10704e-05
0.000149886
-0.000165753
0.000191165
-0.000267125
0.000241085
-0.000386583
0.000300685
-0.000525424
0.0003709
-0.000684636
0.000452507
-0.000864689
0.000545996
-0.00106506
0.000652755
-0.00128283
-0.00150103
0.000772028
9.81275e-07
2.88697e-05
3.54951e-06
7.24618e-05
7.61132e-06
0.000103763
1.32375e-05
0.00012246
2.06575e-05
0.000128445
3.02537e-05
0.000121698
4.25541e-05
0.000102153
5.82219e-05
6.95973e-05
7.80441e-05
2.35823e-05
0.000102919
-3.66137e-05
0.000133838
-0.000111989
0.000171863
-0.000203778
0.000218096
-0.000313359
0.000273633
-0.00044212
0.000339489
-0.00059128
0.00041651
-0.000761657
0.000505287
-0.000953466
0.00060589
-0.00116567
0.000719495
-0.00139644
-0.00162508
0.000843541
1.03897e-06
2.78308e-05
3.84361e-06
6.96572e-05
8.37281e-06
9.92333e-05
1.47402e-05
0.000116092
2.32125e-05
0.000119973
3.42078e-05
0.000110703
4.82912e-05
8.80701e-05
6.61672e-05
5.17213e-05
8.86689e-05
1.08052e-06
0.000116745
-6.46901e-05
0.000151441
-0.000146685
0.000193867
-0.000246203
0.000245158
-0.000364649
0.000306412
-0.000503374
0.0003786
-0.000663469
0.000462446
-0.000845503
0.000558322
-0.00104934
0.000665845
-0.00127319
0.000785934
-0.00151652
-0.00175281
0.000913663
1.08274e-06
2.6748e-05
4.09366e-06
6.66463e-05
9.05191e-06
9.42751e-05
1.61209e-05
0.000109023
2.56109e-05
0.000110483
3.79812e-05
9.83323e-05
5.38391e-05
7.22121e-05
7.39345e-05
3.16259e-05
9.91503e-05
-2.41353e-05
0.000130487
-9.6027e-05
0.000169041
-0.000185238
0.000215964
-0.000293127
0.000272413
-0.000421099
0.00033947
-0.000570431
0.00041803
-0.000742029
0.000508661
-0.000936133
0.000611463
-0.00115214
0.000725605
-0.00138733
0.000851648
-0.00164257
-0.00188292
0.000981757
1.11428e-06
2.56337e-05
4.30511e-06
6.34554e-05
9.65919e-06
8.8921e-05
1.73963e-05
0.000101286
2.78764e-05
0.000100003
4.16058e-05
8.46029e-05
5.92391e-05
5.45789e-05
8.15758e-05
9.28915e-06
0.000109551
-5.21107e-05
0.000144218
-0.000130694
0.00018672
-0.000227739
0.000238241
-0.000344648
0.000299942
-0.0004828
0.000372862
-0.000643351
0.000457787
-0.000826954
0.000555084
-0.00103343
0.000664524
-0.00126158
0.000784865
-0.00150767
0.000916073
-0.00177378
-0.00201401
0.00104717
1.13575e-06
2.4498e-05
4.48497e-06
6.01062e-05
1.02084e-05
8.31976e-05
1.85883e-05
9.29063e-05
3.00404e-05
8.8551e-05
4.51237e-05
6.95196e-05
6.45452e-05
3.51574e-05
8.91583e-05
-1.53239e-05
0.000119952
-8.29048e-05
0.000158032
-0.000168773
0.000204578
-0.000274286
0.000260796
-0.000400865
0.000327826
-0.00054983
0.000406631
-0.000722155
0.000497847
-0.00091817
0.000601604
-0.00113719
0.000717298
-0.00137728
0.000843335
-0.00163371
0.000978451
-0.00190889
-0.00214495
0.00110938
1.14965e-06
2.33484e-05
4.64152e-06
5.66143e-05
1.07159e-05
7.71232e-05
1.97233e-05
8.38989e-05
3.2141e-05
7.61334e-05
4.85859e-05
5.30747e-05
6.98226e-05
1.39206e-05
9.67615e-05
-4.22628e-05
0.000130447
-0.00011659
0.00017203
-0.000210356
0.000222723
-0.000324979
0.000283727
-0.00046187
0.000356134
-0.000622237
0.000440789
-0.000806811
0.000538135
-0.00101552
0.000648035
-0.00124709
0.000769537
-0.00149878
0.000900893
-0.00176506
0.00103834
-0.00204634
-0.00227443
0.00116783
1.15881e-06
2.21895e-05
4.78414e-06
5.2989e-05
1.12004e-05
7.0707e-05
2.08315e-05
7.42678e-05
3.42212e-05
6.27437e-05
5.20501e-05
3.52458e-05
7.51442e-05
-9.17348e-06
0.000104473
-7.1592e-05
0.000141135
-0.000153252
0.000186321
-0.000255542
0.000241258
-0.000379915
0.000307119
-0.000527731
0.000384908
-0.000700025
0.000475303
-0.000897206
0.000578499
-0.00111871
0.000694055
-0.00136264
0.000820757
-0.00162548
0.000957129
-0.00190144
0.00109702
-0.00218623
-0.00239847
0.00122105
1.16615e-06
2.10234e-05
4.92273e-06
4.92324e-05
1.16819e-05
6.39478e-05
2.19451e-05
6.40046e-05
3.63278e-05
4.8361e-05
5.55783e-05
1.59952e-05
8.05877e-05
-3.41829e-05
0.000112386
-0.00010339
0.00015212
-0.000192986
0.000201011
-0.000304433
0.000260279
-0.000439183
0.000331037
-0.000598489
0.000414154
-0.000783142
0.000510086
-0.000993138
0.000618714
-0.00122734
0.000739231
-0.00148316
0.000870084
-0.00175633
0.00100976
-0.00204111
0.00115485
-0.00233132
-0.00258638
0.00134277
1.17502e-06
1.98484e-05
5.0682e-06
4.53393e-05
1.21819e-05
5.68341e-05
2.30987e-05
5.30879e-05
3.85095e-05
3.29502e-05
5.92344e-05
-4.72964e-06
8.62313e-05
-6.11798e-05
0.000120589
-0.000137748
0.000163497
-0.000235895
0.00021619
-0.000357126
0.000279855
-0.000502849
0.000355508
-0.000674142
0.000443829
-0.000871462
0.000544989
-0.0010943
0.000658491
-0.00134084
0.000783088
-0.00160776
0.000916793
-0.00189004
0.00105769
-0.002182
0.00120245
-0.00247609
-0.0027511
0.00136717
1.18845e-06
1.86599e-05
5.23086e-06
4.12968e-05
1.27212e-05
4.93437e-05
2.43258e-05
4.14833e-05
4.08143e-05
1.64617e-05
6.30808e-05
-2.69962e-05
9.21506e-05
-9.02496e-05
0.000129167
-0.000174764
0.000175352
-0.000282079
0.000231932
-0.000413707
0.000300032
-0.000570949
0.000380522
-0.000754632
0.000473841
-0.000964782
0.000579817
-0.00120027
0.000697511
-0.00145854
0.000825184
-0.00173543
0.000960355
-0.00202521
0.0011004
-0.00232205
0.0012417
-0.00261738
-0.00289964
0.00139024
1.20946e-06
1.74505e-05
5.42092e-06
3.70854e-05
1.33203e-05
4.14444e-05
2.56592e-05
2.91444e-05
4.32882e-05
-1.16735e-06
6.71763e-05
-5.08843e-05
9.84143e-05
-0.000121488
0.000138193
-0.000214543
0.000187751
-0.000331637
0.000248285
-0.00047424
0.000320816
-0.00064348
0.000406023
-0.000839838
0.000504048
-0.00106281
0.000614319
-0.00131054
0.000735421
-0.00157964
0.000865102
-0.00186511
0.0010004
-0.00216051
0.00113807
-0.00245972
0.00127433
-0.00275364
-0.0030357
0.00141038
1.24087e-06
1.62096e-05
5.64789e-06
3.26784e-05
1.3998e-05
3.30942e-05
2.7129e-05
1.60133e-05
4.59729e-05
-2.00112e-05
7.15728e-05
-7.64842e-05
0.000105081
-0.000154995
0.000147724
-0.000257187
0.000200741
-0.000384654
0.000265264
-0.000538764
0.000342173
-0.000720389
0.000431905
-0.00092957
0.000534253
-0.00116516
0.000648203
-0.00142449
0.000771845
-0.00170328
0.000902438
-0.0019957
0.00103661
-0.00229468
0.00117069
-0.0025938
0.00130092
-0.00288387
-0.00316118
0.0014264
1.28519e-06
1.49244e-05
5.92024e-06
2.80433e-05
1.47714e-05
2.42431e-05
2.87618e-05
2.02286e-06
4.89043e-05
-4.01537e-05
7.63134e-05
-0.000103893
0.000112195
-0.000190877
0.000157799
-0.000302791
0.000214339
-0.000441193
0.000282851
-0.000607276
0.000364028
-0.000801566
0.000458015
-0.00102356
0.000564213
-0.00127135
0.000681139
-0.00154142
0.000806397
-0.00182854
0.000936809
-0.00212611
0.0010687
-0.00242657
0.00119822
-0.00272332
0.00132178
-0.00300744
-0.00327718
0.00143778
1.34456e-06
1.35798e-05
6.24522e-06
2.31427e-05
1.56545e-05
1.48338e-05
3.05796e-05
-1.29022e-05
5.21112e-05
-6.16853e-05
8.14304e-05
-0.000133213
0.000119786
-0.000229232
0.000168435
-0.00035144
0.000228535
-0.000501292
0.000300991
-0.000679732
0.000386263
-0.000886838
0.000484158
-0.00112145
0.000593649
-0.00138084
0.000712777
-0.00166055
0.000838691
-0.00195445
0.000967863
-0.00225529
0.00109645
-0.00255515
0.0012206
-0.00284747
0.0013371
-0.00312394
-0.00338435
0.00144427
1.42068e-06
1.21591e-05
6.62858e-06
1.79348e-05
1.66588e-05
4.80364e-06
3.2599e-05
-2.88424e-05
5.56141e-05
-8.47005e-05
8.6944e-05
-0.000164542
0.000127868
-0.000270156
0.000179625
-0.000403198
0.00024329
-0.000564957
0.000319594
-0.000756036
0.000408721
-0.000975965
0.000510099
-0.00122283
0.000622252
-0.001493
0.000742756
-0.00178105
0.000868363
-0.00208006
0.000995296
-0.00238222
0.00111967
-0.00267953
0.00123784
-0.00296564
0.00134705
-0.00323315
-0.00348317
0.00144588
1.51479e-06
1.06444e-05
7.07452e-06
1.2375e-05
1.7792e-05
-5.9138e-06
3.48311e-05
-4.58815e-05
5.9425e-05
-0.000109294
9.28618e-05
-0.000197979
0.000136434
-0.000313729
0.000191341
-0.000458105
0.000258537
-0.000632153
0.000338539
-0.000836038
0.000431212
-0.00106864
0.000535577
-0.0013272
0.0006497
-0.00160712
0.000770725
-0.00190208
0.000895084
-0.00220442
0.00101886
-0.002506
0.00113828
-0.00279894
0.00125001
-0.00307738
0.00135184
-0.00333498
-0.00357408
0.00144275
1.62766e-06
9.0167e-06
7.58561e-06
6.41708e-06
1.90587e-05
-1.73869e-05
3.72814e-05
-6.41043e-05
6.35467e-05
-0.00013556
9.91785e-05
-0.000233611
0.000145464
-0.000360014
0.000203531
-0.000516172
0.00027418
-0.000702803
0.000357674
-0.000919531
0.000453521
-0.00116448
0.000560313
-0.00143399
0.000675672
-0.00172248
0.000796358
-0.00202276
0.000918573
-0.00232664
0.00103839
-0.00262581
0.00115224
-0.0029128
0.00125724
-0.00318237
0.00135174
-0.00342948
-0.0036575
0.00143516
1.75961e-06
7.25709e-06
8.16287e-06
1.38196e-08
2.04602e-05
-2.96842e-05
3.99495e-05
-8.35936e-05
6.79734e-05
-0.000163583
0.000105877
-0.000271514
0.000154917
-0.000409054
0.000216123
-0.000577379
0.000290103
-0.000776783
0.000376825
-0.00100625
0.000475413
-0.00126307
0.000584023
-0.0015426
0.000699857
-0.00183831
0.000819363
-0.00214227
0.000938611
-0.00244588
0.00105377
-0.00274098
0.00116161
-0.00302063
0.00125972
-0.00328049
0.00134706
-0.00351681
-0.0037339
0.00142345
1.91055e-06
5.34654e-06
8.80584e-06
-6.88147e-06
2.19946e-05
-4.28729e-05
4.28296e-05
-0.000104429
7.26912e-05
-0.000193445
0.000112927
-0.00031175
0.000164741
-0.000460868
0.000229029
-0.000641666
0.000306169
-0.000853923
0.000395801
-0.00109588
0.000496646
-0.00136392
0.000606427
-0.00165238
0.000721972
-0.00195386
0.000839495
-0.00225979
0.000955044
-0.00256143
0.00106499
-0.00285093
0.00116651
-0.00312214
0.00125773
-0.00337171
0.00133814
-0.00359722
-0.00380375
0.00140799
2.08005e-06
3.26649e-06
9.51278e-06
-1.43142e-05
2.36572e-05
-5.70174e-05
4.59112e-05
-0.000126683
7.76789e-05
-0.000225213
0.000120291
-0.000354362
0.000174869
-0.000515447
0.000242143
-0.000708941
0.000322227
-0.000934007
0.000414403
-0.00118806
0.000516974
-0.00146649
0.000627259
-0.00176266
0.000741765
-0.00206836
0.000856565
-0.00237459
0.000967785
-0.00267265
0.0010721
-0.00295524
0.00116712
-0.00321716
0.00125154
-0.00345614
0.00132536
-0.00367104
-0.00386757
0.00138918
2.26735e-06
9.9914e-07
1.02808e-05
-2.23276e-05
2.5441e-05
-7.21776e-05
4.91796e-05
-0.000150421
8.29088e-05
-0.000258942
0.000127919
-0.000399372
0.000185224
-0.000572751
0.000255351
-0.000779068
0.000338117
-0.00101677
0.000432424
-0.00128237
0.000536163
-0.00157023
0.000646277
-0.00187278
0.000759029
-0.00218112
0.000870441
-0.002486
0.000976814
-0.00277902
0.00107519
-0.00305361
0.00116368
-0.00330566
0.00124151
-0.00353397
0.00130911
-0.00373864
-0.00392586
0.00136739
2.47147e-06
-1.47233e-06
1.11061e-05
-3.09623e-05
2.73368e-05
-8.84083e-05
5.26164e-05
-0.000175701
8.83476e-05
-0.000294673
0.000135758
-0.000446782
0.00019572
-0.000632713
0.000268528
-0.000851876
0.000353672
-0.00110192
0.000449663
-0.00137836
0.00055399
-0.00167456
0.000663271
-0.00198206
0.000773601
-0.00229145
0.000881048
-0.00259345
0.000982172
-0.00288015
0.00107444
-0.00314588
0.00115647
-0.00338768
0.00122797
-0.00360547
0.00128977
-0.00380044
-0.0039791
0.00134302
2.69127e-06
-4.16361e-06
1.19842e-05
-4.02551e-05
2.93337e-05
-0.000105758
5.62003e-05
-0.000202567
9.3958e-05
-0.000332431
0.000143746
-0.00049657
0.000206265
-0.000695232
0.000281545
-0.000927157
0.000368727
-0.0011891
0.000465924
-0.00147556
0.000570253
-0.00177888
0.000678064
-0.00208987
0.000785369
-0.00239875
0.00088837
-0.00269645
0.000983956
-0.00297573
0.00107006
-0.00323198
0.00114577
-0.0034634
0.00121128
-0.00367098
0.00126771
-0.00385687
-0.00402778
0.00131639
2.92548e-06
-7.08909e-06
1.29099e-05
-5.02396e-05
3.14196e-05
-0.000124267
5.99076e-05
-0.000231055
9.96989e-05
-0.000372222
0.000151817
-0.000548688
0.000216762
-0.000760177
0.000294272
-0.00100467
0.000383119
-0.00127794
0.000481027
-0.00157346
0.000584777
-0.00188263
0.000690519
-0.00219561
0.000794269
-0.0025025
0.00089244
-0.00279462
0.000982307
-0.0030656
0.00106227
-0.00331195
0.00113192
-0.00353304
0.00119179
-0.00373086
0.00124329
-0.00390837
-0.00407234
0.00128785
3.17276e-06
-1.02618e-05
1.38779e-05
-6.09447e-05
3.35814e-05
-0.000143971
6.3713e-05
-0.000261187
0.000105527
-0.000414036
0.000159904
-0.000603065
0.000227115
-0.000827388
0.000306579
-0.00108413
0.000396693
-0.00136806
0.000494808
-0.00167158
0.000597414
-0.00198524
0.00070054
-0.00229874
0.000800282
-0.00260224
0.000893338
-0.00288768
0.000977405
-0.00314967
0.00105136
-0.0033859
0.0011152
-0.00359689
0.00116984
-0.00378549
0.00121682
-0.00395535
-0.00411318
0.00125766
3.43173e-06
-1.36936e-05
1.48823e-05
-7.23953e-05
3.58052e-05
-0.000164894
6.75896e-05
-0.000292971
0.000111396
-0.000457843
0.000167937
-0.000659606
0.000237224
-0.000896675
0.00031834
-0.00116525
0.000409304
-0.00145902
0.000507121
-0.0017694
0.00060805
-0.00208617
0.000708068
-0.00239876
0.000803434
-0.00269761
0.000891183
-0.00297543
0.000969455
-0.00322794
0.00103758
-0.00345403
0.00109595
-0.00365526
0.00114573
-0.00383528