/*--------------------------------*- C++ -*----------------------------------*\
  =========                 |
  \\      /  F ield         | OpenFOAM: The Open Source CFD Toolbox
   \\    /   O peration     | Website:  https://openfoam.org
    \\  /    A nd           | Version:  7
     \\/     M anipulation  |
\*---------------------------------------------------------------------------*/
FoamFile
{
    version     2.0;
    format      ascii;
    class       surfaceScalarField;
    location    "40";
    object      phi;
}
// * * * * * * * * * * * * * * * * * * * * * * * * * * * * * * * * * * * * * //

dimensions      [0 3 -1 0 0 0 0];

internalField   nonuniform List<scalar> 
14029
(
-0.000337114
-4.32677e-05
5.30206e-05
-0.000346363
-4.75635e-05
5.68128e-05
-0.000355127
-4.99119e-05
5.86758e-05
-0.000363427
-4.96693e-05
5.79696e-05
-0.000371266
-4.6214e-05
5.4053e-05
-0.000378647
-3.89473e-05
4.63275e-05
-0.000385553
-2.74028e-05
3.43091e-05
-0.000391968
-1.1244e-05
1.76585e-05
-0.000397857
9.61011e-06
-3.72043e-06
-0.000403183
3.49745e-05
-2.96489e-05
-0.000407892
6.43417e-05
-5.96321e-05
-0.000411928
9.68065e-05
-9.27706e-05
-0.000415216
0.000131157
-0.000127869
-0.000417673
0.000165757
-0.0001633
-0.000419202
0.000198656
-0.000197128
-0.000419693
0.000227658
-0.000227166
-0.000419027
0.000250413
-0.000251079
-0.000417068
0.000264581
-0.00026654
-0.000413674
0.000267985
-0.000271379
-0.000408695
0.000258806
-0.000263785
-0.00040198
0.000235759
-0.000242474
-0.000393385
0.000198294
-0.000206888
-0.000382779
0.000146696
-0.000157303
-0.000370051
8.22498e-05
-9.49776e-05
-0.000355121
7.18495e-06
-2.21154e-05
-0.00033793
-7.53972e-05
5.82067e-05
-0.000318453
-0.000161592
0.000142115
-0.00029669
-0.000246967
0.000225204
-0.000272663
-0.000326801
0.000302775
-0.000396492
0.000370241
-0.000336519
-3.35214e-05
-0.000345755
-3.83271e-05
-0.000354498
-4.11686e-05
-0.00036277
-4.13982e-05
-0.00037057
-3.84136e-05
-0.000377902
-3.16154e-05
-0.00038475
-2.05549e-05
-0.000391096
-4.89793e-06
-0.000396907
1.54218e-05
-0.000402146
4.02127e-05
-0.000406759
6.89547e-05
-0.000410689
0.000100736
-0.000413861
0.00013433
-0.000416193
0.000168088
-0.000417587
0.00020005
-0.000417934
0.000228005
-0.000417112
0.000249591
-0.000414988
0.000262457
-0.000411419
0.000264416
-0.000406258
0.000253645
-0.000399357
0.000228859
-0.000390579
0.000189515
-0.000379799
0.000135916
-0.000366914
6.93654e-05
-0.000351856
-7.87315e-06
-0.000334577
-9.26761e-05
-0.000315063
-0.000181106
-0.000293323
-0.000268707
-0.000269391
-0.000350733
-0.000422572
-0.000335037
-2.38053e-05
-0.000344237
-2.91274e-05
-0.000352935
-3.24701e-05
-0.000361152
-3.31811e-05
-0.000368888
-3.06773e-05
-0.000376146
-2.43582e-05
-0.000382908
-1.37926e-05
-0.000389158
1.35206e-06
-0.000394863
2.11268e-05
-0.000399984
4.53338e-05
-0.00040447
7.34408e-05
-0.000408263
0.000104529
-0.000411289
0.000137356
-0.000413463
0.000170263
-0.00041469
0.000201277
-0.000414859
0.000228174
-0.000413848
0.00024858
-0.000411525
0.000260134
-0.000407748
0.00026064
-0.000402373
0.00024827
-0.000395257
0.000221742
-0.000386266
0.000180524
-0.000375283
0.000124933
-0.000362215
5.62979e-05
-0.000347005
-2.30834e-05
-0.000329615
-0.000110066
-0.000310043
-0.000200678
-0.00028831
-0.00029044
-0.000264457
-0.000374587
-0.000448494
-0.000332673
-1.41429e-05
-0.000341812
-1.99882e-05
-0.000350441
-2.38405e-05
-0.00035858
-2.50425e-05
-0.000366227
-2.30303e-05
-0.000373384
-1.72012e-05
-0.000380034
-7.14266e-06
-0.000386161
7.47889e-06
-0.000391731
2.66969e-05
-0.000396706
5.03089e-05
-0.000401035
7.77699e-05
-0.00040466
0.000108154
-0.000407508
0.000140203
-0.000409493
0.000172249
-0.00041052
0.000202304
-0.000410479
0.000228132
-0.000409247
0.000247348
-0.000406693
0.00025758
-0.000402678
0.000256624
-0.000397058
0.00024265
-0.000389696
0.00021438
-0.000380464
0.000171292
-0.000369252
0.00011372
-0.000355976
4.30225e-05
-0.000340591
-3.84692e-05
-0.000323069
-0.000127587
-0.00030342
-0.000220328
-0.000281675
-0.000312184
-0.000257886
-0.000398376
-0.000474272
-0.000329431
-4.55695e-06
-0.000338487
-1.09325e-05
-0.000347024
-1.5303e-05
-0.00035506
-1.70062e-05
-0.000362594
-1.54969e-05
-0.000369626
-1.01696e-05
-0.000376138
-6.30598e-07
-0.000382115
1.34558e-05
-0.000387522
3.21046e-05
-0.000392323
5.51096e-05
-0.000396466
8.19131e-05
-0.000399894
0.000111582
-0.000402532
0.000142842
-0.000404298
0.000174015
-0.000405094
0.0002031
-0.000404811
0.000227849
-0.000403327
0.000245864
-0.000400512
0.000254765
-0.000396227
0.00025234
-0.000390335
0.000236758
-0.0003827
0.000206745
-0.0003732
0.000161792
-0.000361734
0.000102254
-0.000348227
2.95154e-05
-0.000332644
-5.40518e-05
-0.00031497
-0.000145262
-0.000295225
-0.000240073
-0.000273452
-0.000333957
-0.00024971
-0.000422118
-0.000499919
-0.000325319
4.93027e-06
-0.000334269
-1.98271e-06
-0.000342692
-6.88028e-06
-0.000350603
-9.09545e-06
-0.000357999
-8.10068e-06
-0.00036488
-3.28876e-06
-0.000371232
5.72147e-06
-0.000377032
1.92557e-05
-0.00038225
3.73233e-05
-0.000386849
5.97087e-05
-0.000390778
8.58423e-05
-0.00039398
0.000114783
-0.00039638
0.000145242
-0.000397896
0.000175531
-0.000398431
0.000203635
-0.000397876
0.000227294
-0.000396111
0.000244099
-0.000393006
0.000251659
-0.000388424
0.000247759
-0.000382231
0.000230565
-0.000374297
0.00019881
-0.000364505
0.000152001
-0.000352763
9.05119e-05
-0.000339001
1.57542e-05
-0.000323203
-6.98506e-05
-0.000305357
-0.000163107
-0.000285498
-0.000259932
-0.000263681
-0.000355775
-0.000239972
-0.000445827
-0.000525447
-0.000320346
1.42971e-05
-0.000329169
6.83992e-06
-0.000337455
1.40588e-06
-0.000345219
-1.33223e-06
-0.000352454
-8.6475e-07
-0.000359163
3.42022e-06
-0.000365328
1.18863e-05
-0.000370928
2.48551e-05
-0.000375932
4.23275e-05
-0.000380303
6.40798e-05
-0.000383991
8.95303e-05
-0.000386938
0.000117731
-0.000389073
0.000147376
-0.000390311
0.000176769
-0.000390557
0.00020388
-0.000389702
0.000226439
-0.000387627
0.000242024
-0.000384204
0.000248236
-0.000379299
0.000242854
-0.000372781
0.000224046
-0.000364524
0.000190553
-0.000354417
0.000141894
-0.000342378
7.84723e-05
-0.000328344
1.72048e-06
-0.000312311
-8.58839e-05
-0.000294276
-0.000181142
-0.000274288
-0.00027992
-0.00025241
-0.000377652
-0.00022872
-0.000469517
-0.000550872
-0.000314524
2.35229e-05
-0.000323198
1.55142e-05
-0.000331326
9.53439e-06
-0.000338921
6.26222e-06
-0.000345978
6.19219e-06
-0.000352491
9.93299e-06
-0.000358446
1.78414e-05
-0.000363821
3.02305e-05
-0.000368587
4.70931e-05
-0.000372705
6.81979e-05
-0.000376126
9.29517e-05
-0.000378794
0.000120398
-0.000380635
0.000149218
-0.000381568
0.000177702
-0.000381498
0.00020381
-0.000380317
0.000225258
-0.000377907
0.000239614
-0.000374141
0.00024447
-0.000368889
0.000237602
-0.000362023
0.00021718
-0.000353421
0.000181951
-0.00034298
0.000131454
-0.000330619
6.61107e-05
-0.000316307
-1.25906e-05
-0.000300017
-0.000102174
-0.000281779
-0.00019938
-0.000261647
-0.000300052
-0.000239695
-0.000399604
-0.00021601
-0.000493202
-0.000576206
-0.000307863
3.2588e-05
-0.000316369
2.40208e-05
-0.000324321
1.7486e-05
-0.000331727
1.36682e-05
-0.000338582
1.30475e-05
-0.000344879
1.62302e-05
-0.000350603
2.35655e-05
-0.000355733
3.53598e-05
-0.000360237
5.15974e-05
-0.000364079
7.20398e-05
-0.000367209
9.60823e-05
-0.000369572
0.000122761
-0.000371096
0.000150741
-0.0003717
0.000178306
-0.000371288
0.000203399
-0.000369756
0.000223726
-0.000366987
0.000236844
-0.000362855
0.000240339
-0.000357234
0.000231982
-0.000349999
0.000209944
-0.000341034
0.000172986
-0.000330242
0.000120661
-0.000317549
5.34178e-05
-0.000302933
-2.72061e-05
-0.000286379
-0.000118728
-0.000267924
-0.000217834
-0.000247636
-0.000320341
-0.000225597
-0.000421642
-0.000201905
-0.000516894
-0.000601461
-0.000300377
4.14738e-05
-0.000308697
3.23413e-05
-0.000316454
2.52423e-05
-0.000323653
2.08673e-05
-0.000330287
1.96821e-05
-0.00033635
2.22923e-05
-0.000341823
2.90389e-05
-0.000346686
4.02225e-05
-0.000350907
5.58192e-05
-0.000354451
7.55836e-05
-0.000357269
9.89e-05
-0.000359304
0.000124796
-0.000360487
0.000151925
-0.000360738
0.000178557
-0.000359963
0.000202624
-0.000358058
0.00022182
-0.000354907
0.000233694
-0.000350389
0.000235821
-0.00034438
0.000225972
-0.000336758
0.000202322
-0.000327413
0.000163641
-0.000316255
0.000109502
-0.000303217
4.03801e-05
-0.000288285
-4.21378e-05
-0.000271455
-0.000135559
-0.000252773
-0.000236515
-0.000232318
-0.000340796
-0.000210182
-0.000443778
-0.000186472
-0.000540605
-0.000626649
-0.000292082
5.01626e-05
-0.000300199
4.04584e-05
-0.000307743
3.27861e-05
-0.000314717
2.7842e-05
-0.000321114
2.60788e-05
-0.000326923
2.81016e-05
-0.000332128
3.42434e-05
-0.000336705
4.48e-05
-0.000340625
5.97392e-05
-0.000343851
7.88094e-05
-0.000346335
0.000101384
-0.000348022
0.000126483
-0.000348844
0.000152746
-0.000348721
0.000178434
-0.000347561
0.000201465
-0.000345262
0.000219521
-0.000341711
0.000230143
-0.000336789
0.000230899
-0.000330374
0.000219558
-0.000322351
0.000194299
-0.000312613
0.000153903
-0.000301075
9.79651e-05
-0.000287681
2.69857e-05
-0.000272425
-5.73936e-05
-0.00025531
-0.000152674
-0.000236394
-0.000255432
-0.000215763
-0.000361427
-0.000193522
-0.000466018
-0.000169783
-0.000564344
-0.00065178
-0.000282993
5.86383e-05
-0.000290891
4.83563e-05
-0.000298206
4.01016e-05
-0.000304941
3.45769e-05
-0.000311084
3.22218e-05
-0.000316624
3.36419e-05
-0.000321543
3.91625e-05
-0.000325818
4.90751e-05
-0.000329419
6.33399e-05
-0.000332309
8.16993e-05
-0.000334441
0.000103517
-0.000335762
0.000127803
-0.000336202
0.000153187
-0.000335687
0.000177918
-0.000334124
0.000199902
-0.000331414
0.000216811
-0.000327446
0.000226175
-0.000322103
0.000225556
-0.000315269
0.000212724
-0.000306831
0.000185861
-0.000296689
0.000143761
-0.000284765
8.60409e-05
-0.000271005
1.3226e-05
-0.000255419
-7.29792e-05
-0.000238013
-0.00017008
-0.000218856
-0.000274588
-0.000198045
-0.000382239
-0.000175692
-0.000488371
-0.000151918
-0.000588118
-0.000676863
-0.000273127
6.68857e-05
-0.000280791
5.60204e-05
-0.000287864
4.71746e-05
-0.000294345
4.10577e-05
-0.00030022
3.8097e-05
-0.000305477
3.8899e-05
-0.000310096
4.37816e-05
-0.000314054
5.3033e-05
-0.00031732
6.6606e-05
-0.000319858
8.42374e-05
-0.000321623
0.000105281
-0.000322559
0.00012874
-0.000322603
0.000153231
-0.000321678
0.000176993
-0.000319697
0.00019792
-0.00031656
0.000213674
-0.00031216
0.000221775
-0.000306385
0.000219781
-0.00029912
0.000205458
-0.000290257
0.000176998
-0.000279702
0.000133205
-0.000267383
7.37224e-05
-0.000253256
-9.01119e-07
-0.000237335
-8.89002e-05
-0.000219635
-0.000187781
-0.000200235
-0.000293988
-0.000179239
-0.000403234
-0.00015677
-0.000510841
-0.000132954
-0.000611933
-0.000701905
-0.000262501
7.48912e-05
-0.000269918
6.34377e-05
-0.000276736
5.39925e-05
-0.000282951
4.72722e-05
-0.000288546
4.36923e-05
-0.000293508
4.38606e-05
-0.000297814
4.80883e-05
-0.000301442
5.66608e-05
-0.00030436
6.95241e-05
-0.000306533
8.641e-05
-0.000307915
0.000106663
-0.000308455
0.000129279
-0.000308087
0.000152863
-0.000306739
0.000175645
-0.000304325
0.000195506
-0.000300749
0.000210098
-0.000295906
0.000216932
-0.000289687
0.000213562
-0.000281982
0.000197754
-0.000272689
0.000167705
-0.000261715
0.000122232
-0.000248996
6.1003e-05
-0.000234505
-1.53914e-05
-0.000218244
-0.000105161
-0.000200249
-0.000205776
-0.000180605
-0.000313632
-0.000159425
-0.000424415
-0.000136837
-0.000533428
-0.000112977
-0.000635793
-0.000726912
-0.000251134
8.26428e-05
-0.000258293
7.05966e-05
-0.000264845
6.05445e-05
-0.000270782
5.32097e-05
-0.000276087
4.89973e-05
-0.000280743
4.85162e-05
-0.000284726
5.20721e-05
-0.000288013
5.99478e-05
-0.000290573
7.20834e-05
-0.000292369
8.8206e-05
-0.000293358
0.000107652
-0.000293488
0.00012941
-0.000292697
0.000152073
-0.000290915
0.000173863
-0.000288057
0.000192649
-0.000284032
0.000206073
-0.000278737
0.000211638
-0.000272067
0.000206892
-0.000263916
0.000189603
-0.000254186
0.000157975
-0.000242792
0.000110838
-0.000229676
4.78865e-05
-0.000214815
-3.02524e-05
-0.000198219
-0.000121757
-0.000179931
-0.000224064
-0.000160046
-0.000333517
-0.000138682
-0.000445779
-0.000115977
-0.000556134
-9.20708e-05
-0.000659699
-0.000751888
-0.000239043
9.01296e-05
-0.000245934
7.74874e-05
-0.000252211
6.68212e-05
-0.000257863
5.88615e-05
-0.000262869
5.40034e-05
-0.00026721
5.28576e-05
-0.000270863
5.57246e-05
-0.0002738
6.28855e-05
-0.000275992
7.42751e-05
-0.000277402
8.96163e-05
-0.000277989
0.000108238
-0.0002777
0.000129121
-0.000276478
0.00015085
-0.000274252
0.000171637
-0.000270943
0.00018934
-0.00026646
0.00020159
-0.000260707
0.000205884
-0.00025358
0.000199765
-0.00024498
0.000181003
-0.000234813
0.000147808
-0.000222998
9.90226e-05
-0.000209486
3.43744e-05
-0.000194259
-4.54801e-05
-0.000177332
-0.000138684
-0.000158758
-0.000242638
-0.000138636
-0.000353639
-0.000117093
-0.000467322
-9.42731e-05
-0.000578954
-7.03222e-05
-0.00068365
-0.000776834
-0.000226248
9.73426e-05
-0.000232862
8.41017e-05
-0.000238856
7.28153e-05
-0.000244216
6.42207e-05
-0.000248917
5.87043e-05
-0.000252938
5.68786e-05
-0.000256253
5.90397e-05
-0.000258835
6.54678e-05
-0.000260653
7.60929e-05
-0.000261671
9.06346e-05
-0.000261848
0.000108416
-0.000261135
0.000128408
-0.000259474
0.000149189
-0.000256798
0.000168961
-0.000253032
0.000185573
-0.000248087
0.000196645
-0.000241871
0.000199668
-0.000234286
0.00019218
-0.000225236
0.000171953
-0.000214633
0.000137205
-0.0002024
8.67896e-05
-0.000188494
2.04689e-05
-0.000172909
-6.10656e-05
-0.000155658
-0.000155934
-0.000136805
-0.000261491
-0.000116455
-0.000373989
-9.47403e-05
-0.000489036
-7.18107e-05
-0.000601884
-4.78181e-05
-0.000707642
-0.000801749
-0.000212766
0.000104274
-0.000219098
9.04331e-05
-0.000224804
7.85212e-05
-0.000229865
6.92825e-05
-0.000234257
6.30956e-05
-0.000237953
6.05751e-05
-0.000240927
6.20137e-05
-0.00024315
6.7691e-05
-0.000244591
7.75332e-05
-0.000245213
9.12569e-05
-0.000244977
0.000108179
-0.000243835
0.000127266
-0.000241731
0.000147085
-0.000238602
0.000165833
-0.000234375
0.000181346
-0.000228966
0.000191237
-0.000222287
0.000192989
-0.000214244
0.000184137
-0.000204746
0.000162455
-0.000193708
0.000126168
-0.000181065
7.4146e-05
-0.000166773
6.17666e-06
-0.000150837
-7.70007e-05
-0.000133272
-0.000173499
-0.00011415
-0.000280613
-9.3582e-05
-0.000394557
-7.17051e-05
-0.000510913
-4.86741e-05
-0.000624915
-2.46452e-05
-0.000731671
-0.000826664
-0.000198617
0.000110919
-0.000204661
9.64768e-05
-0.000210074
8.3935e-05
-0.000214836
7.40438e-05
-0.000218915
6.71749e-05
-0.000222285
6.39453e-05
-0.000224917
6.46451e-05
-0.000226779
6.95536e-05
-0.000227841
7.85945e-05
-0.000228066
9.1482e-05
-0.000227415
0.000107529
-0.000225842
0.000125693
-0.000223295
0.000144538
-0.000219712
0.00016225
-0.000215024
0.000176657
-0.000209152
0.000185364
-0.00020201
0.000185847
-0.000193512
0.000175638
-0.00018357
0.000152513
-0.000172105
0.000114703
-0.000159054
6.10944e-05
-0.000144395
-8.48167e-06
-0.000128115
-9.32808e-05
-0.000110248
-0.000191366
-9.08703e-05
-0.000299991
-7.00966e-05
-0.000415331
-4.80693e-05
-0.000532941
-2.49471e-05
-0.000648037
-8.77372e-07
-0.000755741
-0.000851493
-0.000183817
0.000117272
-0.00018957
0.00010223
-0.00019469
8.90549e-05
-0.00019915
7.85037e-05
-0.000202917
7.09422e-05
-0.000205962
6.69896e-05
-0.000208251
6.69345e-05
-0.000209754
7.10568e-05
-0.000210438
7.92781e-05
-0.000210267
9.1311e-05
-0.000209203
0.000106465
-0.000207201
0.000123691
-0.000204212
0.000141548
-0.000200177
0.000158215
-0.00019503
0.000171511
-0.000188697
0.000179031
-0.000181098
0.000178248
-0.000172149
0.000166689
-0.00016177
0.000142134
-0.000149887
0.00010282
-0.000136443
4.76509e-05
-0.000121421
-2.35035e-05
-0.000104814
-0.000109888
-8.66594e-05
-0.000209521
-6.70407e-05
-0.00031961
-4.60766e-05
-0.000436295
-2.3913e-05
-0.000555104
-6.90814e-07
-0.000671259
2.33605e-05
-0.000779792
-0.000876291
-0.000168385
0.000123332
-0.000173846
0.000107691
-0.000178672
9.38809e-05
-0.000182832
8.26632e-05
-0.000186289
7.43991e-05
-0.00018901
6.97105e-05
-0.00019096
6.88852e-05
-0.000192108
7.22041e-05
-0.000192417
7.95877e-05
-0.000191854
9.07477e-05
-0.000190381
0.000104992
-0.000187954
0.000121265
-0.000184526
0.00013812
-0.000180043
0.000153732
-0.000174443
0.00016591
-0.000167655
0.000172243
-0.000159604
0.000170198
-0.000150213
0.000157298
-0.000139407
0.000131328
-0.000127116
9.05284e-05
-0.000113294
3.38294e-05
-9.79236e-05
-3.88741e-05
-8.10028e-05
-0.000126809
-6.25777e-05
-0.000227946
-4.27357e-05
-0.000339452
-2.15982e-05
-0.000457433
7.17347e-07
-0.00057742
2.39461e-05
-0.000694488
4.80241e-05
-0.00080387
-0.000901033
-0.000152337
-0.000157507
0.000112861
-0.000162041
9.8415e-05
-0.000165903
8.65253e-05
-0.000169054
7.75499e-05
-0.000171456
7.2113e-05
-0.000173074
7.05026e-05
-0.000173871
7.30013e-05
-0.000173813
7.95295e-05
-0.000172864
8.97986e-05
-0.000170988
0.000103116
-0.000168143
0.000118419
-0.000164284
0.000134261
-0.00015936
0.000148808
-0.000153313
0.000159864
-0.000146078
0.000165009
-0.000137586
0.000161705
-0.000127763
0.000147475
-0.00011654
0.000120106
-0.000103853
7.78415e-05
-8.96648e-05
1.96408e-05
-7.3966e-05
-5.45729e-05
-5.67501e-05
-0.000144025
-3.80739e-05
-0.000246622
-1.80273e-05
-0.000359499
3.27221e-06
-0.000478732
2.56431e-05
-0.000599791
4.89508e-05
-0.000717796
7.30191e-05
-0.000827939
-0.000925708
-0.00014057
0.000117743
-0.000144817
0.000102661
-0.000148386
9.00952e-05
-0.000151237
8.04005e-05
-0.000153328
7.42039e-05
-0.00015462
7.17945e-05
-0.000155075
7.34568e-05
-0.000154658
7.91123e-05
-0.000153332
8.84726e-05
-0.000151063
0.000100847
-0.000147808
0.000115165
-0.000143527
0.00012998
-0.000138172
0.000143453
-0.000131689
0.000153381
-0.000124019
0.000157338
-0.000115095
0.000152782
-0.000104853
0.000137233
-9.32279e-05
0.00010848
-8.01637e-05
6.47773e-05
-6.56238e-05
5.10085e-06
-4.96145e-05
-7.05822e-05
-3.21231e-05
-0.000161516
-1.32152e-05
-0.00026553
7.01461e-06
-0.000379728
2.84297e-05
-0.000500147
5.08901e-05
-0.000622251
7.42244e-05
-0.00074113
9.82654e-05
-0.00085198
-0.000950303
-0.000123054
0.000122342
-0.000127018
0.000106625
-0.000130303
9.33799e-05
-0.000132861
8.29592e-05
-0.00013465
7.59925e-05
-0.000135626
7.27708e-05
-0.000135751
7.35813e-05
-0.000134986
7.83471e-05
-0.000133294
8.67812e-05
-0.000130643
9.81953e-05
-0.000126991
0.000111514
-0.000122301
0.00012529
-0.000116527
0.000137679
-0.00010962
0.000146474
-0.000101527
0.000149244
-9.21866e-05
0.000143442
-8.15398e-05
0.000126586
-6.95283e-05
9.64689e-05
-5.60984e-05
5.13475e-05
-4.12384e-05
-9.75921e-06
-2.49315e-05
-8.68891e-05
-7.18265e-06
-0.000179265
1.19269e-05
-0.00028464
3.23085e-05
-0.00040011
5.38357e-05
-0.000521674
7.63525e-05
-0.000644768
9.96913e-05
-0.000764469
0.000123686
-0.000875974
-0.000974801
-0.000104973
0.000126664
-0.000108663
0.000110316
-0.000111672
9.63888e-05
-0.000113949
8.52363e-05
-0.000115447
7.74901e-05
-0.00011612
7.3444e-05
-0.000115926
7.33878e-05
-0.000114827
7.72477e-05
-0.000112784
8.47384e-05
-0.000109765
9.51763e-05
-0.000105731
0.000107479
-0.000100645
0.000120204
-9.44668e-05
0.0001315
-8.71521e-05
0.00013916
-7.86508e-05
0.000140743
-6.89103e-05
0.000133701
-5.78762e-05
0.000115552
-4.54959e-05
8.40886e-05
-3.17266e-05
3.75782e-05
-1.6556e-05
-2.49298e-05
9.68526e-08
-0.000103542
1.79942e-05
-0.000197162
3.72858e-05
-0.000303931
5.7802e-05
-0.000420626
7.94112e-05
-0.000543284
0.000101959
-0.000667316
0.000125279
-0.000787789
0.000149206
-0.000899901
-0.000999185
-8.63435e-05
0.000130717
-8.97697e-05
0.000113742
-9.25139e-05
9.91329e-05
-9.45219e-05
8.72444e-05
-9.57421e-05
7.87104e-05
-9.61265e-05
7.38283e-05
-9.56303e-05
7.28916e-05
-9.42125e-05
7.58299e-05
-9.18346e-05
8.23605e-05
-8.84647e-05
9.18064e-05
-8.40647e-05
0.000103079
-7.86007e-05
0.00011474
-7.20356e-05
0.000124935
-6.433e-05
0.000131454
-5.54391e-05
0.000131852
-4.53165e-05
0.000123579
-3.39141e-05
0.00010415
-2.1185e-05
7.13594e-05
-7.09645e-06
2.34896e-05
8.35793e-06
-4.03842e-05
2.51809e-05
-0.000120365
4.33566e-05
-0.000215338
6.28045e-05
-0.000323379
8.34259e-05
-0.000441248
0.000105089
-0.000564947
0.000127641
-0.000689868
0.000150917
-0.000811064
0.000174754
-0.000923738
-0.00102343
-6.71794e-05
0.000134515
-7.03539e-05
0.000116916
-7.28468e-05
0.000101626
-7.46002e-05
8.89977e-05
-7.55586e-05
7.96688e-05
-7.56709e-05
7.39406e-05
-7.48895e-05
7.21103e-05
-7.31716e-05
7.41119e-05
-7.04773e-05
7.96662e-05
-6.67756e-05
8.81047e-05
-6.20291e-05
9.83328e-05
-5.62066e-05
0.000108917
-4.92743e-05
0.000118003
-4.11976e-05
0.000123377
-3.19373e-05
0.000122592
-2.14532e-05
0.000113095
-9.70289e-06
9.23993e-05
3.35467e-06
5.83019e-05
1.77337e-05
9.11057e-06
3.34461e-05
-5.60966e-05
5.04941e-05
-0.000137413
6.88453e-05
-0.000233689
8.84198e-05
-0.000342954
0.000109117
-0.000461945
0.000130806
-0.000586636
0.000153334
-0.000712395
0.000176538
-0.000834269
0.00020026
-0.00094746
-0.00104753
-4.74941e-05
0.000138068
-5.04313e-05
0.000119853
-5.26883e-05
0.000103883
-5.42036e-05
9.05131e-05
-5.49179e-05
8.03831e-05
-5.47768e-05
7.37995e-05
-5.373e-05
7.10635e-05
-5.17324e-05
7.21143e-05
-4.87427e-05
7.66765e-05
-4.47307e-05
8.40927e-05
-3.96594e-05
9.32615e-05
-3.35002e-05
0.000102758
-2.62227e-05
0.000110726
-1.7797e-05
0.000114952
-8.18952e-06
0.000112984
2.63474e-06
0.00010227
1.47067e-05
8.03273e-05
2.80624e-05
4.49463e-05
4.27134e-05
-5.54047e-06
5.86621e-05
-7.20452e-05
7.59041e-05
-0.000154655
9.44016e-05
-0.000252187
0.000114073
-0.000362625
0.000134816
-0.000482688
0.0001565
-0.00060832
0.000178973
-0.000734869
0.000202079
-0.000857374
0.00022566
-0.000971042
-0.00107145
-2.72999e-05
0.000141394
-3.00164e-05
0.00012257
-3.20552e-05
0.000105922
-3.33511e-05
9.1809e-05
-3.3841e-05
8.0873e-05
-3.34673e-05
7.34257e-05
-3.21768e-05
6.97729e-05
-2.9922e-05
6.98596e-05
-2.66601e-05
7.34146e-05
-2.23613e-05
7.9794e-05
-1.69892e-05
8.78894e-05
-1.05175e-05
9.62862e-05
-2.91903e-06
0.000103127
5.83133e-06
0.000106201
1.57612e-05
0.000103054
2.68978e-05
9.11338e-05
3.92702e-05
6.79548e-05
5.29013e-05
3.13152e-05
6.77934e-05
-2.04326e-05
8.39505e-05
-8.82023e-05
0.000101357
-0.000172062
0.000119971
-0.0002708
0.000139708
-0.000382362
0.000160465
-0.000503445
0.000182111
-0.000629966
0.000204499
-0.000757257
0.000227476
-0.00088035
0.00025089
-0.000994456
-0.00109516
-6.6082e-06
0.000144512
-9.12301e-06
0.000125085
-1.09634e-05
0.000107762
-1.20607e-05
9.29063e-05
-1.2348e-05
8.11603e-05
-1.17645e-05
7.28422e-05
-1.0254e-05
6.82624e-05
-7.7668e-06
6.73724e-05
-4.25799e-06
6.99058e-05
2.99576e-07
7.52364e-05
5.94884e-06
8.22402e-05
1.2707e-05
8.9528e-05
2.06e-05
9.52342e-05
2.96485e-05
9.71528e-05
3.98744e-05
9.28284e-05
5.12981e-05
7.971e-05
6.39439e-05
5.5309e-05
7.78214e-05
1.74377e-05
9.29257e-05
-3.55369e-05
0.000109262
-0.000104538
0.000126802
-0.000189602
0.0001455
-0.000289498
0.00016527
-0.000402132
0.000186007
-0.000524183
0.000207583
-0.000651542
0.000229854
-0.000779528
0.000252671
-0.000903167
0.000275889
-0.00101767
-0.00111865
1.45701e-05
0.000147441
1.22356e-05
0.000127419
1.05716e-05
0.000109426
9.65023e-06
9.38276e-05
9.54181e-06
8.12687e-05
1.03104e-05
7.20736e-05
1.20152e-05
6.65576e-05
1.47085e-05
6.46792e-05
1.84374e-05
6.61768e-05
2.32305e-05
7.04434e-05
2.9124e-05
7.63467e-05
3.61399e-05
8.25121e-05
4.42991e-05
8.70751e-05
5.36174e-05
8.78345e-05
6.41107e-05
8.2335e-05
7.57936e-05
6.80272e-05
8.86801e-05
4.24226e-05
0.000102776
3.34161e-06
0.000118063
-5.08242e-05
0.000134547
-0.000121022
0.000152189
-0.000207244
0.000170938
-0.000308247
0.000190707
-0.000421901
0.000211391
-0.000544866
0.000232862
-0.000673014
0.000254982
-0.000801648
0.000277608
-0.000925792
0.000300601
-0.00104067
-0.00114189
3.62249e-05
0.000150206
3.40468e-05
0.000129597
3.2535e-05
0.000110938
3.17646e-05
9.45981e-05
3.18093e-05
8.12239e-05
3.27365e-05
7.11465e-05
3.46081e-05
6.4686e-05
3.74789e-05
6.18084e-05
4.13988e-05
6.22569e-05
4.63955e-05
6.54467e-05
5.25057e-05
7.02365e-05
5.97493e-05
7.52684e-05
6.81444e-05
7.868e-05
7.7702e-05
7.82769e-05
8.84324e-05
7.16047e-05
0.000100344
5.61155e-05
0.000113446
2.93209e-05
0.000127719
-1.09313e-05
0.000143163
-6.62689e-05
0.000159762
-0.000137621
0.000177472
-0.000224954
0.000196237
-0.000327013
0.00021597
-0.000441633
0.000236564
-0.000565461
0.000257896
-0.000694346
0.000279831
-0.000823583
0.000302232
-0.000948194
0.000324971
-0.00106341
-0.00116485
5.83465e-05
0.000152833
5.62984e-05
0.000131645
5.4912e-05
0.000112324
5.42656e-05
9.52446e-05
5.44359e-05
8.10536e-05
5.54931e-05
7.00892e-05
5.75022e-05
6.26768e-05
6.05206e-05
5.87901e-05
6.46007e-05
5.81767e-05
6.97698e-05
6.02776e-05
7.60649e-05
6.39414e-05
8.35043e-05
6.78291e-05
9.2103e-05
7.00813e-05
0.000101868
6.85119e-05
0.000112803
6.06693e-05
0.000124914
4.40053e-05
0.000138193
1.60415e-05
0.000152617
-2.53552e-05
0.000168181
-8.1833e-05
0.00018486
-0.000154299
0.000202603
-0.000242697
0.000221349
-0.000345759
0.000241009
-0.000461293
0.000261478
-0.000585929
0.000282634
-0.000715502
0.000304349
-0.000845298
0.000326494
-0.000970339
0.000348948
-0.00108586
0.000371603
-0.00118751
-0.00127165
8.09254e-05
0.000155353
7.8978e-05
0.000133593
7.76882e-05
0.000113614
7.71365e-05
9.57962e-05
7.74028e-05
8.07873e-05
7.85599e-05
6.89321e-05
8.06756e-05
6.05611e-05
8.38097e-05
5.5656e-05
8.80179e-05
5.39685e-05
9.33264e-05
5.49691e-05
9.97732e-05
5.74946e-05
0.000107375
6.02276e-05
0.000116143
6.13126e-05
0.000126082
5.85735e-05
0.000137189
4.9562e-05
0.00014946
3.17342e-05
0.000162882
2.61995e-06
0.000177423
-3.98968e-05
0.000193076
-9.74859e-05
0.000209799
-0.000171023
0.000227539
-0.000260436
0.000246229
-0.00036445
0.000265779
-0.000480843
0.000286085
-0.000606235
0.000307029
-0.000736446
0.000328488
-0.000866757
0.000350343
-0.000992194
0.000372482
-0.001108
0.000394806
-0.00120983
-0.00129409
0.000103952
0.000157799
0.000102073
0.000135472
0.000100849
0.000114839
0.00010036
9.62844e-05
0.000100691
8.04565e-05
0.000101916
6.77069e-05
0.000104106
5.83714e-05
0.000107323
5.24393e-05
0.000111625
4.96661e-05
0.000117039
4.95553e-05
0.000123603
5.0931e-05
0.000131331
5.24991e-05
0.000140235
5.24091e-05
0.000150311
4.84969e-05
0.000161555
3.83182e-05
0.000173957
1.93326e-05
0.000187477
-1.09005e-05
0.000202105
-5.45252e-05
0.000217808
-0.000113189
0.000234539
-0.000187753
0.000252237
-0.000278135
0.000270834
-0.000383046
0.000290236
-0.000500245
0.00031034
-0.000626339
0.000331035
-0.00075714
0.000352203
-0.000887926
0.000373735
-0.00101373
0.000395527
-0.00112979
0.000417493
-0.0012318
-0.00131616
0.000127417
0.000160207
0.000125572
0.000137317
0.000124378
0.000116033
0.00012392
9.67425e-05
0.000124282
8.00946e-05
0.000125541
6.64473e-05
0.000127771
5.61416e-05
0.000131036
4.91746e-05
0.000135397
4.53044e-05
0.000140881
4.40719e-05
0.000147525
4.42865e-05
0.000155345
4.46798e-05
0.000164346
4.34076e-05
0.000174525
3.83184e-05
0.000185869
2.69743e-05
0.000198358
6.84343e-06
0.00021195
-2.4493e-05
0.000226624
-6.91988e-05
0.000242339
-0.000128904
0.000259039
-0.000204453
0.000276658
-0.000295753
0.000295121
-0.00040151
0.000314336
-0.00051946
0.000334201
-0.000646204
0.000354607
-0.000777547
0.000375449
-0.000908767
0.000396623
-0.0010349
0.000418039
-0.00115121
0.00043962
-0.00125338
-0.00133785
0.000151308
0.000162617
0.000149459
0.000139166
0.00014826
0.000117232
0.000147796
9.72063e-05
0.000148154
7.97368e-05
0.000149413
6.51884e-05
0.000151647
5.39071e-05
0.000154924
4.58977e-05
0.000159309
4.09195e-05
0.000164826
3.85554e-05
0.000171514
3.75983e-05
0.000179386
3.68073e-05
0.000188448
3.43455e-05
0.000198692
2.8075e-05
0.000210098
1.55677e-05
0.000222631
-5.68929e-06
0.000236259
-3.81208e-05
0.000250943
-8.38825e-05
0.000266631
-0.000144592
0.00028326
-0.000221083
0.00030076
-0.000313253
0.000319051
-0.000419801
0.000338038
-0.000538448
0.000357624
-0.000665789
0.000377705
-0.000797628