/*--------------------------------*- C++ -*----------------------------------*\
  =========                 |
  \\      /  F ield         | OpenFOAM: The Open Source CFD Toolbox
   \\    /   O peration     | Website:  https://openfoam.org
    \\  /    A nd           | Version:  7
     \\/     M anipulation  |
\*---------------------------------------------------------------------------*/
FoamFile
{
    version     2.0;
    format      ascii;
    class       volScalarField;
    location    "240";
    object      p;
}
// * * * * * * * * * * * * * * * * * * * * * * * * * * * * * * * * * * * * * //

dimensions      [0 2 -2 0 0 0 0];

internalField   nonuniform List<scalar> 
7156
(
-0.310246
-0.262844
-0.228222
-0.205957
-0.195598
-0.197124
-0.210077
-0.230634
-0.251068
-0.262178
-0.257893
-0.238182
-0.208367
-0.175734
-0.146215
-0.122956
-0.106757
-0.0972466
-0.0937025
-0.0953855
-0.102064
-0.114412
-0.132987
-0.155683
-0.176645
-0.188481
-0.186489
-0.171741
-0.149895
-0.127113
-0.313802
-0.264748
-0.228698
-0.205186
-0.193627
-0.19388
-0.205533
-0.224995
-0.24483
-0.255981
-0.252288
-0.233507
-0.204723
-0.173041
-0.14432
-0.121707
-0.106044
-0.0970064
-0.0939075
-0.096028
-0.103167
-0.116043
-0.135217
-0.158499
-0.179888
-0.191851
-0.189632
-0.174383
-0.151922
-0.128551
-0.317111
-0.266441
-0.228987
-0.20424
-0.191494
-0.190485
-0.200836
-0.21919
-0.238401
-0.249582
-0.246491
-0.228664
-0.200939
-0.170234
-0.142331
-0.12038
-0.105262
-0.096701
-0.09405
-0.0966084
-0.104205
-0.117605
-0.137371
-0.161233
-0.18305
-0.195147
-0.192716
-0.176976
-0.153909
-0.129954
-0.320178
-0.267935
-0.229102
-0.203136
-0.189216
-0.186956
-0.196007
-0.213238
-0.231802
-0.242999
-0.240514
-0.223661
-0.197021
-0.167316
-0.14025
-0.118973
-0.104406
-0.0963278
-0.0941271
-0.0971233
-0.105176
-0.119094
-0.139444
-0.163879
-0.186123
-0.198364
-0.195735
-0.17952
-0.155855
-0.131322
-0.323012
-0.269244
-0.22906
-0.201891
-0.18681
-0.183314
-0.191066
-0.207163
-0.225054
-0.236248
-0.23437
-0.218506
-0.192971
-0.164289
-0.138077
-0.117485
-0.103477
-0.0958847
-0.094136
-0.0975694
-0.106074
-0.120504
-0.141429
-0.166431
-0.189103
-0.201498
-0.198687
-0.182011
-0.157761
-0.132655
-0.32562
-0.270377
-0.228875
-0.200521
-0.184294
-0.179575
-0.186033
-0.200985
-0.218179
-0.229348
-0.228073
-0.213207
-0.188795
-0.161155
-0.135812
-0.115915
-0.102472
-0.0953695
-0.094074
-0.0979436
-0.106897
-0.121831
-0.14332
-0.168881
-0.191983
-0.204542
-0.201567
-0.184447
-0.159623
-0.133952
-0.328011
-0.271349
-0.228563
-0.199043
-0.181686
-0.17576
-0.180929
-0.194727
-0.211199
-0.222317
-0.221635
-0.207773
-0.184499
-0.157915
-0.133456
-0.114263
-0.101391
-0.0947803
-0.0939389
-0.098243
-0.10764
-0.12307
-0.145113
-0.171225
-0.194756
-0.207492
-0.204373
-0.186826
-0.161442
-0.135214
-0.330194
-0.272172
-0.228139
-0.197475
-0.179003
-0.171887
-0.175774
-0.188411
-0.204136
-0.215174
-0.215072
-0.202215
-0.180088
-0.154575
-0.13101
-0.112528
-0.100231
-0.0941153
-0.0937281
-0.0984646
-0.1083
-0.124217
-0.146802
-0.173456
-0.197417
-0.210343
-0.207099
-0.189146
-0.163217
-0.13644
-0.332177
-0.272857
-0.227617
-0.195833
-0.176263
-0.167974
-0.170589
-0.182057
-0.197013
-0.207939
-0.208398
-0.196541
-0.175569
-0.151136
-0.128475
-0.110712
-0.098993
-0.0933732
-0.0934397
-0.0986059
-0.108874
-0.125267
-0.148381
-0.175568
-0.19996
-0.21309
-0.209743
-0.191405
-0.164947
-0.13763
-0.33397
-0.273417
-0.227013
-0.194133
-0.173484
-0.16404
-0.165394
-0.175688
-0.189852
-0.200633
-0.201629
-0.190764
-0.170947
-0.147603
-0.125853
-0.108813
-0.0976754
-0.0925523
-0.0930717
-0.0986643
-0.109358
-0.126216
-0.149845
-0.177556
-0.202381
-0.215728
-0.212301
-0.1936
-0.166631
-0.138785
-0.335581
-0.273864
-0.226341
-0.192393
-0.170682
-0.160102
-0.160208
-0.169324
-0.182674
-0.193274
-0.194788
-0.184893
-0.166231
-0.143979
-0.123146
-0.106833
-0.0962781
-0.0916518
-0.0926224
-0.0986376
-0.10975
-0.127061
-0.151192
-0.179415
-0.204673
-0.218253
-0.21477
-0.19573
-0.168268
-0.139905
-0.33702
-0.27421
-0.225615
-0.190627
-0.167874
-0.156178
-0.155049
-0.162986
-0.175501
-0.185883
-0.187869
-0.17894
-0.161427
-0.140269
-0.120356
-0.104772
-0.0948008
-0.0906705
-0.0920902
-0.0985238
-0.110047
-0.127798
-0.152414
-0.18114
-0.206832
-0.220661
-0.217148
-0.197793
-0.169858
-0.14099
-0.338297
-0.274467
-0.224848
-0.18885
-0.165076
-0.152284
-0.149938
-0.156693
-0.168354
-0.17848
-0.1809
-0.172916
-0.156542
-0.136478
-0.117486
-0.102631
-0.0932436
-0.089608
-0.0914739
-0.0983209
-0.110247
-0.128424
-0.15351
-0.182726
-0.208853
-0.222947
-0.21943
-0.199788
-0.171401
-0.14204
-0.33942
-0.274645
-0.224054
-0.187078
-0.162302
-0.148436
-0.144889
-0.150463
-0.161254
-0.171085
-0.173899
-0.166833
-0.151586
-0.13261
-0.114538
-0.100413
-0.0916071
-0.0884637
-0.0907723
-0.0980275
-0.110346
-0.128936
-0.154476
-0.18417
-0.210732
-0.225108
-0.221614
-0.201711
-0.172894
-0.143056
-0.340398
-0.274755
-0.223243
-0.185322
-0.159569
-0.144649
-0.139921
-0.144316
-0.154218
-0.163716
-0.166884
-0.160704
-0.146565
-0.12867
-0.111516
-0.0981179
-0.0898916
-0.0872374
-0.0899847
-0.097642
-0.110344
-0.129332
-0.155307
-0.185467
-0.212466
-0.22714
-0.223697
-0.203562
-0.174339
-0.144037
-0.341242
-0.274807
-0.222428
-0.183597
-0.156889
-0.140936
-0.135049
-0.138269
-0.147266
-0.156394
-0.15987
-0.15454
-0.141489
-0.124665
-0.108423
-0.0957484
-0.0880983
-0.0859293
-0.0891104
-0.0971633
-0.110239
-0.129608
-0.156002
-0.186615
-0.21405
-0.22904
-0.225677
-0.20534
-0.175734
-0.144984
-0.341958
-0.274812
-0.221619
-0.181913
-0.154275
-0.137313
-0.130286
-0.132337
-0.140415
-0.149135
-0.152872
-0.148353
-0.136365
-0.1206
-0.105262
-0.0933065
-0.0862281
-0.0845396
-0.0881491
-0.0965906
-0.110028
-0.129764
-0.156557
-0.18761
-0.215481
-0.230804
-0.227551
-0.207042
-0.17708
-0.145898
-0.342557
-0.274778
-0.220827
-0.180283
-0.15174
-0.133789
-0.125647
-0.126535
-0.133681
-0.141958
-0.145905
-0.142154
-0.131203
-0.116481
-0.102038
-0.0907949
-0.0842826
-0.083069
-0.0871006
-0.0959233
-0.109712
-0.129797
-0.156971
-0.188449
-0.216757
-0.232429
-0.229316
-0.208667
-0.178375
-0.146779
-0.343045
-0.274714
-0.22006
-0.178715
-0.149293
-0.130377
-0.121142
-0.120879
-0.12708
-0.134879
-0.138985
-0.135957
-0.126011
-0.112314
-0.098755
-0.0882161
-0.0822634
-0.0815181
-0.0859652
-0.0951609
-0.10929
-0.129707
-0.157242
-0.189131
-0.217875
-0.233914
-0.230971
-0.210214
-0.179619
-0.147627
-0.343432
-0.274629
-0.219327
-0.177219
-0.146946
-0.127088
-0.116785
-0.11538
-0.120625
-0.127914
-0.132125
-0.129773
-0.120797
-0.108106
-0.0954167
-0.0855733
-0.0801724
-0.0798883
-0.0847432
-0.0943034
-0.10876
-0.129492
-0.157369
-0.189654
-0.218833
-0.235256
-0.232513
-0.211682
-0.180813
-0.148443
-0.343725
-0.274528
-0.218635
-0.175804
-0.144707
-0.12393
-0.112583
-0.110051
-0.11433
-0.121077
-0.125341
-0.123615
-0.115572
-0.103862
-0.092028
-0.0828695
-0.078012
-0.0781807
-0.0834353
-0.0933509
-0.108122
-0.129152
-0.15735
-0.190017
-0.219628
-0.236453
-0.233941
-0.213068
-0.181955
-0.149226
-0.34393
-0.27442
-0.217992
-0.174476
-0.142584
-0.120912
-0.108546
-0.104903
-0.108208
-0.114383
-0.118647
-0.117493
-0.110343
-0.0995896
-0.0885937
-0.0801084
-0.0757844
-0.0763971
-0.0820423
-0.0923038
-0.107378
-0.128687
-0.157186
-0.190218
-0.220261
-0.237502
-0.235253
-0.214373
-0.183045
-0.149978
-0.274311
-0.217403
-0.173241
-0.140583
-0.118041
-0.104681
-0.0999442
-0.102268
-0.107843
-0.112055
-0.111412
-0.10512
-0.0952953
-0.0851186
-0.0772936
-0.0734925
-0.0745392
-0.0805655
-0.0911627
-0.106526
-0.128096
-0.156877
-0.190258
-0.22073
-0.238403
-0.236447
-0.215595
-0.184084
-0.150699
-0.274206
-0.216874
-0.172106
-0.138712
-0.115324
-0.100996
-0.0951836
-0.0965204
-0.101469
-0.10558
-0.105381
-0.0999091
-0.0909859
-0.0816077
-0.0744289
-0.0711391
-0.0726092
-0.0790062
-0.0899286
-0.105568
-0.127381
-0.156422
-0.190136
-0.221034
-0.239155
-0.237521
-0.216733
-0.18507
-0.15139
-0.27411
-0.216409
-0.171075
-0.136975
-0.112766
-0.0974947
-0.0906279
-0.0909753
-0.0952714
-0.0992325
-0.0995557
-0.0947203
-0.0866679
-0.0780664
-0.0715185
-0.0687275
-0.0706095
-0.0773661
-0.0886026
-0.104504
-0.126543
-0.155822
-0.189853
-0.221173
-0.239755
-0.238475
-0.217786
-0.186004
-0.15205
-0.274028
-0.216012
-0.170151
-0.135376
-0.110372
-0.0941828
-0.086283
-0.0856399
-0.0892594
-0.0930227
-0.093633
-0.0895605
-0.0823481
-0.0744998
-0.0685666
-0.0662609
-0.0685426
-0.0756471
-0.0871862
-0.103336
-0.125581
-0.155079
-0.18941
-0.221148
-0.240205
-0.239307
-0.218753
-0.186885
-0.15268
-0.273963
-0.215687
-0.169337
-0.133918
-0.108145
-0.0910635
-0.0821535
-0.0805212
-0.083441
-0.0869613
-0.0878085
-0.0844405
-0.0780332
-0.0709133
-0.0655776
-0.063743
-0.0664113
-0.0738513
-0.085681
-0.102066
-0.124498
-0.154194
-0.188808
-0.22096
-0.240504
-0.240016
-0.219634
-0.187712
-0.15328
-0.273919
-0.215435
-0.168636
-0.132604
-0.106088
-0.0881398
-0.0782429
-0.0756252
-0.0778235
-0.081059
-0.0821093
-0.0793684
-0.0737296
-0.0673124
-0.0625561
-0.0611775
-0.0642187
-0.071981
-0.0840888
-0.100694
-0.123296
-0.153169
-0.188049
-0.22061
-0.240651
-0.240602
-0.220426
-0.188487
-0.153851
-0.273899
-0.215259
-0.16805
-0.131434
-0.104203
-0.0854134
-0.0745539
-0.0709566
-0.0724132
-0.075325
-0.0765372
-0.0743503
-0.069444
-0.0637026
-0.0595066
-0.0585684
-0.0619681
-0.0700389
-0.0824118
-0.0992229
-0.121976
-0.152006
-0.187135
-0.220098
-0.240648
-0.241063
-0.221131
-0.189208
-0.154394
-0.273904
-0.215159
-0.167578
-0.130411
-0.102492
-0.0828857
-0.071088
-0.0665194
-0.0672156
-0.0697663
-0.0710881
-0.0693933
-0.0651831
-0.0600893
-0.0564341
-0.0559197
-0.0596627
-0.0680276
-0.0806523
-0.097655
-0.120541
-0.150707
-0.186068
-0.219428
-0.240495
-0.241398
-0.221746
-0.189875
-0.154907
-0.273937
-0.215137
-0.167222
-0.129534
-0.100953
-0.080557
-0.0678459
-0.0623163
-0.0622352
-0.0643892
-0.0657658
-0.0645047
-0.0609532
-0.056478
-0.0533432
-0.0532357
-0.0573064
-0.0659502
-0.0788128
-0.0959925
-0.118994
-0.149275
-0.184852
-0.218601
-0.240193
-0.241609
-0.222272
-0.190488
-0.155392
-0.273999
-0.215193
-0.16698
-0.128802
-0.0995877
-0.0784272
-0.0648276
-0.0583494
-0.0574759
-0.0591989
-0.0605785
-0.0596917
-0.0567606
-0.0528742
-0.0502388
-0.0505207
-0.0549027
-0.0638099
-0.076896
-0.0942381
-0.117337
-0.147714
-0.183488
-0.217621
-0.239743
-0.241692
-0.222708
-0.191047
-0.155849
-0.274091
-0.215326
-0.166853
-0.128214
-0.0983941
-0.0764952
-0.0620323
-0.0546197
-0.0529408
-0.0542002
-0.0555336
-0.0549615
-0.0526113
-0.0492833
-0.047126
-0.0477792
-0.0524558
-0.06161
-0.0749049
-0.0923945
-0.115573
-0.146026
-0.181982
-0.21649
-0.239147
-0.24165
-0.223053
-0.19155
-0.156278
-0.124403
-0.274213
-0.215536
-0.166838
-0.127768
-0.0973705
-0.0747596
-0.0594586
-0.0511273
-0.0486321
-0.0493967
-0.0506381
-0.0503204
-0.0485113
-0.0457108
-0.0440094
-0.0450157
-0.0499696
-0.059354
-0.0728424
-0.0904648
-0.113706
-0.144216
-0.180336
-0.215211
-0.238407
-0.24148
-0.223307
-0.191998
-0.15668
-0.124634
-0.274365
-0.215821
-0.166935
-0.127463
-0.0965145
-0.0732183
-0.0571045
-0.0478717
-0.0445517
-0.0447916
-0.0458982
-0.0457231
-0.0444661
-0.0421621
-0.0408941
-0.0422347
-0.0474483
-0.0570456
-0.0707119
-0.088452
-0.111738
-0.142286
-0.178555
-0.213789
-0.237525
-0.241184
-0.223469
-0.19239
-0.157053
-0.124855
-0.274548
-0.21618
-0.16714
-0.127295
-0.0958232
-0.0718686
-0.0549674
-0.0448515
-0.0407005
-0.0403872
-0.0413161
-0.0411761
-0.0404844
-0.0386424
-0.0377849
-0.0394409
-0.0448962
-0.0546886
-0.0685167
-0.0863596
-0.109674
-0.140241
-0.176642
-0.212228
-0.236503
-0.24076
-0.22354
-0.192726
-0.157399
-0.125067
-0.27476
-0.216611
-0.167452
-0.127263
-0.0952934
-0.0707073
-0.0530444
-0.042065
-0.037079
-0.0361846
-0.0368991
-0.0378477
-0.0365747
-0.035157
-0.0346865
-0.0366389
-0.0423177
-0.0522871
-0.0662604
-0.0841908
-0.107517
-0.138084
-0.174602
-0.21053
-0.235346
-0.240209
-0.223518
-0.193005
-0.157717
-0.125269
-0.275002
-0.217112
-0.167868
-0.127362
-0.0949213
-0.0697308
-0.051332
-0.0395095
-0.0336869
-0.0321849
-0.0326357
-0.033494
-0.0327363
-0.0317109
-0.0316036
-0.0338334
-0.0397172
-0.0498449
-0.0639466
-0.0819494
-0.10527
-0.13582
-0.17244
-0.208702
-0.234054
-0.239529
-0.223403
-0.193226
-0.158007
-0.125463
-0.217681
-0.168385
-0.127589
-0.0947029
-0.0689349
-0.0498266
-0.0371823
-0.0305238
-0.0283884
-0.0285319
-0.029315
-0.0289796
-0.0283082
-0.0285407
-0.0310288
-0.0370993
-0.0473665
-0.0615792
-0.0796391
-0.102939
-0.133453
-0.17016
-0.206748
-0.232633
-0.238721
-0.223195
-0.193389
-0.158269
-0.125648
-0.218315
-0.169
-0.127941
-0.0946336
-0.068315
-0.0485238
-0.0350799
-0.0275882
-0.0247956
-0.0245981
-0.0253308
-0.025303
-0.0249535
-0.0255024
-0.0282299
-0.0344684
-0.0448559
-0.0591621
-0.0772635
-0.100526
-0.130988
-0.167767
-0.204672
-0.231084
-0.237784
-0.222894
-0.193493
-0.158503
-0.125826
-0.21901
-0.169707
-0.128411
-0.0947078
-0.0678653
-0.0474184
-0.0331981
-0.0248785
-0.0214064
-0.0208359
-0.0214928
-0.021711
-0.021652
-0.0224932
-0.025441
-0.031829
-0.0423176
-0.0566992
-0.0748267
-0.0980365
-0.128428
-0.165265
-0.20248
-0.229412
-0.236717
-0.222499
-0.193537
-0.158709
-0.125995
-0.219762
-0.170502
-0.128997
-0.0949208
-0.0675803
-0.0465056
-0.031533
-0.0223929
-0.0182206
-0.0172456
-0.0177938
-0.0182089
-0.0184084
-0.0195175
-0.0226667
-0.0291856
-0.039756
-0.0541947
-0.0723325
-0.095474
-0.125778
-0.16266
-0.200176
-0.227621
-0.23552
-0.22201
-0.193519
-0.158886
-0.126156
-0.220579
-0.171392
-0.129702
-0.0952737
-0.0674595
-0.0457838
-0.0300831
-0.0201315
-0.0152395
-0.013828
-0.0142336
-0.0148024
-0.0152283
-0.0165798
-0.0199113
-0.0265428
-0.0371754
-0.0516527
-0.0697851
-0.0928429
-0.123042
-0.159955
-0.197765
-0.225714
-0.234189
-0.221425
-0.193439
-0.159034
-0.126311
-0.22147
-0.172383
-0.13053
-0.0957689
-0.0675025
-0.0452517
-0.028847
-0.0180939
-0.0124634
-0.0105831
-0.0108145
-0.0114982
-0.0121178
-0.0136857
-0.0171798
-0.0239053
-0.0345805
-0.0490775
-0.0671886
-0.0901475
-0.120225
-0.157157
-0.195251
-0.223692
-0.232719
-0.220743
-0.193297
-0.159155
-0.126462
-0.222389
-0.173432
-0.131442
-0.0963729
-0.06768
-0.0448846
-0.0278042
-0.016264
-0.00987965
-0.0075005
-0.00753099
-0.00830034
-0.0090809
-0.0108395
-0.0144768
-0.0212778
-0.0319762
-0.0464735
-0.0645472
-0.0873921
-0.117332
-0.154269
-0.192639
-0.221563
-0.231109
-0.21997
-0.193093
-0.159244
-0.1266
-0.223211
-0.174428
-0.132345
-0.0970067
-0.0679268
-0.0446291
-0.0269129
-0.0146116
-0.00746816
-0.00456342
-0.00436821
-0.00519399
-0.00611121
-0.00803936
-0.0118033
-0.0186636
-0.0293665
-0.0438451
-0.0618652
-0.0845819
-0.114368
-0.1513
-0.189942
-0.219347
-0.229383
-0.219119
-0.192821
-0.159283
-0.126704
-0.22406
-0.175484
-0.133337
-0.0977548
-0.0683126
-0.0445439
-0.026227
-0.0131921
-0.00528488
-0.00181943
-0.00136181
-0.00218002
-0.00321917
-0.00528924
-0.00915975
-0.0160626
-0.0267528
-0.0411947
-0.0591457
-0.0817207
-0.111338
-0.148256
-0.187163
-0.217037
-0.2276
-0.218155
-0.19246
-0.159276
-0.126798
-0.225736
-0.177319
-0.135038
-0.0991361
-0.0692652
-0.0449791
-0.0260338
-0.0122388
-0.00351766
0.000572437
0.00133498
0.000538599
-0.000527873
-0.00267113
-0.00659184
-0.0134951
-0.0241434
-0.038529
-0.0563939
-0.0788029
-0.108217
-0.145074
-0.184176
-0.21442
-0.22534
-0.216923
-0.192013
-0.159341
-0.127044
-0.228291
-0.179969
-0.137465
-0.101146
-0.0707567
-0.0458842
-0.0262459
-0.0116078
-0.00197711
0.0027959
0.00383626
0.00302045
0.00188075
-0.000298647
-0.00420948
-0.0110461
-0.0215946
-0.0358836
-0.0536326
-0.0758315
-0.104962
-0.141646
-0.180809
-0.211343
-0.222475
-0.215507
-0.191619
-0.159588
-0.127499
-0.179416
-0.137096
-0.100751
-0.0701917
-0.0450365
-0.0249464
-0.00964306
0.000769354
0.00615339
0.00742659
0.0064342
0.00497363
0.0024493
-0.00170228
-0.00863464
-0.0191285
-0.0332744
-0.0508809
-0.0729716
-0.102039
-0.13887
-0.178538
-0.209833
-0.221357
-0.215086
-0.191375
-0.159376
-0.127201
-0.171127
-0.129865
-0.0942106
-0.0640054
-0.0389097
-0.0186061
-0.00280438
0.00857337
0.0154464
0.0184181
0.0187693
0.0168561
0.0131326
0.00755513
-0.000662666
-0.0118095
-0.0258759
-0.0433363
-0.0662903
-0.0978038
-0.138506
-0.182379
-0.216485
-0.229302
-0.218871
-0.191997
-0.157978
-0.124731
-0.160595
-0.121772
-0.087794
-0.058632
-0.0340473
-0.0137027
0.00265359
0.0148709
0.0225213
0.0258173
0.0258583
0.0239246
0.0205015
0.0147654
0.0063396
-0.00495023
-0.0190781
-0.0366283
-0.0597854
-0.0915135
-0.132157
-0.17528
-0.208185
-0.217643
-0.210762
-0.184253
-0.151031
-0.118883
-0.150787
-0.114157
-0.0817283
-0.0535599
-0.0295058
-0.00927557
0.00736113
0.0201935
0.028662
0.0326845
0.0331942
0.0311099
0.0271708
0.021105
0.0124959
0.00109589
-0.0131096
-0.0306849
-0.0536347
-0.0846584
-0.124038
-0.165876
-0.198826
-0.215223
-0.202427
-0.176137
-0.143884
-0.112889
-0.141463
-0.106976
-0.0760882
-0.0489302
-0.0254446
-0.005424
0.0113335
0.0246372
0.0339237
0.0388947
0.0400599
0.03815
0.0340272
0.0277245
0.0189596
0.00755048
-0.00653411
-0.0239162
-0.0465521
-0.0770369
-0.115739
-0.157189
-0.190179
-0.204889
-0.192983
-0.167205
-0.13608
-0.106438
-0.132674
-0.100231
-0.0708548
-0.0447323
-0.0218772
-0.00216925
0.014554
0.0281489
0.0380995
0.0439646
0.0458719
0.0444815
0.0405256
0.0342257
0.0255092
0.0143108
0.00056456
-0.016477
-0.0388331
-0.0690789
-0.10754
-0.148565
-0.180609
-0.193488
-0.182301
-0.157382
-0.127704
-0.0996355
-0.124405
-0.0939148
-0.0660186
-0.0409505
-0.0187798
0.000534024
0.0170984
0.0308162
0.0412481
0.0479072
0.050671
0.0499708
0.0464103
0.0403451
0.0318901
0.0210822
0.0077976
-0.00884442
-0.0309281
-0.0609485
-0.0989846
-0.13905
-0.16973
-0.181222
-0.170576
-0.146827
-0.118864
-0.0925474
-0.116654
-0.0880191
-0.0615652
-0.0375616
-0.0161209
0.00273343
0.0190461
0.0327506
0.0434984
0.0508276
0.0544596
0.0545756
0.0516266
0.0460217
0.0380122
0.0277168
0.0149588
-0.00124319
-0.0229821
-0.0525892
-0.0898609
-0.128663
-0.157881
-0.16818
-0.158011
-0.135683
-0.109665
-0.0852499
-0.109403
-0.0825289
-0.0574763
-0.0345394
-0.0138654
0.00447461
0.0204664
0.0340521
0.0449693
0.0528198
0.0572499
0.0582555
0.056108
0.051182
0.0437953
0.0341211
0.0219495
0.00624057
-0.0150555
-0.0440832
-0.0803956
-0.117753
-0.145313
-0.15445
-0.144791
-0.124112
-0.100226
-0.0778254
-0.102631
-0.0774255
-0.0537307
-0.0318563
-0.0119768
0.00580265
0.0214201
0.0348071
0.0457688
0.0539892
0.059093
0.0609811
0.0597522
0.0556849
0.0490878
0.0401475
0.0286297
0.0134669
-0.00732048
-0.0356833
-0.0708804
-0.106518
-0.132163
-0.140166
-0.131124
-0.11229
-0.090676
-0.0703582
-0.0963126
-0.0726877
-0.050306
-0.0294842
-0.0104184
0.00676239
0.0219616
0.0350908
0.0459965
0.0544132
0.060075
0.0627607
0.0624699
0.0593629
0.0536804
0.0455737
0.0347743
0.0202026
-3.26682e-05
-0.0276403
-0.0614884
-0.0950694
-0.118579
-0.125512
-0.117233
-0.100401
-0.0811415
-0.0629319
-0.0904213
-0.0682925
-0.0471783
-0.027395
-0.00915387
0.00739796
0.0221417
0.0349685
0.0457465
0.0542686
0.0603085
0.0636534
0.0642275
0.0620829
0.0573636
0.0501486
0.0401167
0.0261821
0.00656442
-0.0201284
-0.0523221
-0.0835107
-0.104728
-0.110698
-0.10335
-0.0886298
-0.071748
-0.0556268
-0.0849294
-0.0642165
-0.0443236
-0.0255606
-0.00814868
0.00775198
0.0220085
0.0344978
0.0450935
0.0536267
0.0599113
0.0637611
0.0650639
0.063793
0.0599965
0.0536671
0.0444227
0.0311787
0.0122921
-0.0132482
-0.0434365
-0.0719212
-0.0907765
-0.0959613
-0.08971
-0.0771529
-0.062612
-0.0485164
-0.0798091
-0.0604358
-0.0417174
-0.0239537
-0.00736964
0.00786491
0.0216082
0.0337294
0.0440999
0.0525733
0.0589963
0.0632072
0.0650811
0.0645403
0.0615552
0.0560409
0.0475669
0.0350691
0.0170775
-0.00700238
-0.0348143
-0.0603641
-0.0768797
-0.0815569
-0.0765419
-0.0661323
-0.0538363
-0.0416653
-0.0750328
-0.0569267
-0.039336
-0.0225473
-0.00678522
0.00777458
0.0209848
0.0327109
0.0428217
0.0511825
0.0576608
0.0621146
0.064415
0.0644518
0.0621381
0.0573324
0.0495836
0.0378879
0.020997
-0.00127847
-0.0263976
-0.0489411
-0.063368
-0.0677553
-0.0640552
-0.0557056
-0.0455065
-0.0351275
-0.0705738
-0.053666
-0.037156
-0.0213157
-0.00636554
0.00751622
0.0201792
0.0314875
0.0413094
0.0495163
0.0559865
0.0605919
0.0632029
0.0636883
0.0619212
0.0577236
0.0506564
0.0398276
0.0242551
0.0040829
-0.0181751
-0.0378281
-0.0504827
-0.0548124
-0.0524248
-0.0459792
-0.0376875
-0.0289448
-0.0664063
-0.0506311
-0.0351552
-0.0202343
-0.00608247
0.00712262
0.0192295
0.0301018
0.03961
0.0476288
0.0540416
0.0587295
0.0615642
0.0624026
0.0610924
0.0574369
0.0510349
0.0411475
0.0270722
0.00916932
-0.0102538
-0.0272908
-0.0385146
-0.0429402
-0.0417762
-0.0370241
-0.0304229
-0.0231472
-0.0625056
-0.0478005
-0.0333122
-0.0192801
-0.00590977
0.00662401
0.0181703
0.0285939
0.0377677
0.0455691
0.0518851
0.0566023
0.0595956
0.0607184
0.059807
0.0566611
0.0509332
0.0420525
0.0295644
0.0139291
-0.00285407
-0.017625
-0.0277039
-0.0322784
-0.0321775
-0.0288751
-0.0237358
-0.017753
-0.0588485
-0.0451536
-0.031607
-0.0184316
-0.00582319
0.00604821
0.0170338
0.0270002
0.035823
0.0433831
0.0495699
0.0542742
0.0573754
0.0587303
0.0581763
0.055522
0.0504794
0.0426324
0.0317168
0.0182099
0.00377845
-0.00906355
-0.018194
-0.0228819
-0.0236406
-0.0215346
-0.0176314
-0.0127707
-0.0554131
-0.0426712
-0.0300209
-0.017669
-0.00580056
0.0054205
0.0158489
0.0253537
0.0338137
0.0411131
0.0471442
0.0518013
0.0549692
0.0565131
0.0562798
0.0540956
0.04973
0.0428932
0.0334523
0.0218587
0.009473
-0.00171944
-0.010015
-0.0147281
-0.0161324
-0.0149796
-0.0121004
-0.00820028
-0.0521788
-0.0403353
-0.0285368
-0.0169743
-0.00582189
0.00476362
0.0146415
0.0236843
0.0317736
0.0387978
0.044652
0.049234
0.0524348
0.05413
0.0541807
0.0524352
0.0487138
0.0428225
0.0347141
0.0247983
0.0141759
0.004417
-0.00310154
-0.00773748
-0.00958795
-0.00916965
-0.00712283
-0.00403468
-0.0491268
-0.0381294
-0.0271389
-0.0163313
-0.0058694
0.00409772
0.0134348
0.0220182
0.0297332
0.0364719
0.0421329
0.0466176
0.0498235
0.0516372
0.0519356
0.05059
0.0474631
0.042431
0.035502
0.0270418
0.0179376
0.00944035
0.00266446
-0.00179976
-0.00392572
-0.00405388
-0.0026717
-0.000261764
-0.0462397
-0.0360384
-0.0258132
-0.0157256
-0.00592745
0.00344047
0.0122487
0.0203785
0.027719
0.034166
0.0396218
0.043992
0.0471805
0.0490847
0.049597
0.0486102
0.0460218
0.041758
0.0358631
0.0286616
0.0208717
0.0134886
0.00742004
0.00320409
0.000942132
0.00042352
0.00128464
0.00313457
-0.0435018
-0.0340488
-0.0245471
-0.0151447
-0.00598255
0.00280695
0.0111008
0.0187852
0.0257537
0.0319063
0.037149
0.0413918
0.0445449
0.0465161
0.0472121
0.0465447
0.0444392
0.0408578
0.0358671
0.0297543
0.0231035
0.0167079
0.0113103
0.00739406
0.00510251
0.00431944
0.00478026
0.00617328
-0.0408987
-0.0321483
-0.0233296
-0.0145777
-0.00602327
0.00220991
0.0100056
0.0172551
0.0238568
0.029715
0.0347398
0.038846
0.0419499
0.0439686
0.0448217
0.0444376
0.0427633
0.0397864
0.0355864
0.0304162
0.0247533
0.019236
0.0144697
0.0108812
0.00863748
0.00768956
0.00785026
0.00887523
-0.0384175
-0.0303261
-0.022151
-0.0140155
-0.00604008
0.00165976
0.0089747
0.0158018
0.0220441
0.0276105
0.0324156
0.0363788
0.0394227
0.0414727
0.0424598
0.0423261
0.0410361
0.0385943
0.0350862
0.0307337
0.0259316
0.0211933
0.0170111
0.0137627
0.0116225
0.0105871
0.0105297
0.0112625
-0.0360468
-0.0285728
-0.0210032
-0.0134504
-0.00602531
0.00116485
0.00801764
0.014436
0.0203282
0.0256076
0.0301933
0.0340096
0.036985
0.0390527
0.0401534
0.0402408
0.0392922
0.0373238
0.0344218
0.0307801
0.0267272
0.0226795
0.0190334
0.0161254
0.0141258
0.0130619
0.0128531
0.0133577
-0.0337765
-0.0268801
-0.0198794
-0.0128764
-0.00597299
0.000731584
0.00714169
0.0131662
0.0187188
0.0237174
0.0280858
0.0317533
0.0346539
0.0367278
0.0379238
0.0382054
0.0375592
0.036009
0.033638
0.0306152
0.027214
0.0237796
0.0206209
0.0180445
0.0162089
0.0151605
0.0148533
0.0151836
-0.0315976
-0.0252412
-0.018774
-0.0122888
-0.00587874
0.000364453
0.00635193
0.0119985
0.0172228
0.021948
0.0261029
0.0296211
0.032442
0.0345119
0.035787
0.0362381
0.0358589
0.0346769
0.0327705
0.0302871
0.0274528
0.0245649
0.0218435
0.0195851
0.0179263
0.0169255
0.0165622
0.0167627
-0.0295023
-0.02365
-0.0176824
-0.011684
-0.00573956
6.63311e-05
0.0056514
0.0109362
0.0158447
0.0203053
0.0242512
0.0276206
0.0303581
0.0324153
0.0337545
0.0343524
0.0342074
0.0333487
0.0318484
0.0298343
0.0274915
0.025036
0.0227582
0.0208033
0.0193269
0.0183961
0.0180093
0.0181169
-0.0274841
-0.0221016
-0.0166014
-0.0110596
-0.00555374
-0.000161375
0.00504156
0.00998137
0.0145872
0.0187923
0.0225346
0.0257567
0.0284078
0.0304445
0.031834
0.0325578
0.0326171
0.0320412
0.0308955
0.02929
0.0273803
0.0253489
0.0234243
0.0217486
0.0204536
0.0196078
0.0192227
0.019267
-0.025537
-0.0205922
-0.0155283
-0.0104143
-0.00532068
-0.000318422
0.00452252
0.00913401
0.0134505
0.0174098
0.0209545
0.0240315
0.026594
0.0286033
0.0300305
0.0308606
0.0310969
0.0307672
0.0299303
0.0286811
0.027151
0.0254901
0.023883
0.0224635
0.0213446
0.0205928
0.020228
0.0202333
-0.0236563
-0.0191185
-0.0144615
-0.00974757
-0.00504074
-0.00040577
0.00409306
0.0083929
0.0124334
0.016157
0.0195105
0.0224449
0.0249174
0.026893
0.0283463
0.0292648
0.0296529
0.0295364
0.0289669
0.028028
0.0268311
0.0254915
0.0241693
0.022984
0.0220334
0.02138
0.0210492
0.0210345
-0.0218377
-0.0176781
-0.0134
-0.00905968
-0.00471509
-0.00042529
0.00375081
0.00775559
0.0115334
0.0150312
0.0182004
0.0209952
0.0233766
0.0253129
0.0267816
0.0277721
0.0282889
0.0283554
0.0280172
0.0273471
0.0264445
0.0253812
0.0243135
0.0233413
0.0225493
0.0219955
0.0217082
0.0216884
-0.0200779
-0.0162692
-0.0123435
-0.00835148
-0.00434565
-0.000379652
0.00349267
0.00721856
0.0107469
0.0140287
0.0170207
0.0196793
0.0219689
0.0238609
0.0253353
0.0263827
0.0270073
0.0272295
0.0270895
0.0266503
0.0260148
0.0251804
0.0243405
0.0235619
0.0229181
0.0224626
0.0222248
0.0222114
-0.0183741
-0.0148905
-0.0112921
-0.00762441
-0.00393487
-0.000272104
0.0033149
0.00677766
0.0100693
0.0131442
0.0159671
0.0184929
0.0206903
0.0225337
0.0240048
0.0250954
0.0258089
0.0261629
0.026191
0.0259414
0.0254556
0.0249025
0.0242724
0.0236692
0.0231625
0.0228019
0.0226173
0.0226188
-0.0167239
-0.0135413
-0.0102465
-0.00688032
-0.00348565
-0.000106404
0.00321298
0.00642824
0.00949609
0.0123713
0.0150344
0.0174308
0.0195359
0.0213268
0.0227868
0.0239081
0.0246935
0.0251579
0.0253293
0.0252488
0.0249667
0.0245823
0.0241302
0.0236833
0.0233022
0.0230321
0.022902
0.0229245
-0.0151253
-0.012221
-0.00920748
-0.0061214
-0.00300124
0.000113286
0.00318198
0.00616482
0.00902369
0.0117272
0.0142188
0.0164873
0.0185002
0.0202353
0.0216771
0.022818
0.02366
0.0242154
0.0245081
0.0245735
0.0244573
0.0242275
0.0239299
0.0236216
0.0233546
0.0231694
0.0230937
0.0231415
-0.013577
-0.0109296
-0.0081764
-0.00535006
-0.00248518
0.000382472
0.00321655
0.00598074
0.00864013
0.0111623
0.0135081
0.015655
0.0175768
0.0192536
0.020671
0.0218216
0.0227065
0.0233359
0.0237299
0.0239182
0.0239407
0.0238479
0.0236847
0.0234988
0.0233347
0.0232284
0.0232058
0.0232814
-0.0120776
-0.0096673
-0.00715465
-0.00456894
-0.00194116
0.000696526
0.00331132
0.00587038
0.00834158
0.0106941
0.0128975
0.0149273
0.0167595
0.0183759
0.0197634
0.020915
0.0218307
0.0225189
0.0229962
0.0232874
0.023426
0.0234522
0.0234058
0.0233276
0.0232557
0.0232219
0.0232501
0.0233549
-0.0106261
-0.0084343
-0.00614378
-0.00378075
-0.00137291
0.00105083
0.00346093
0.00582782
0.00812204
0.0103152
0.0123817
0.0142976
0.0160415
0.0175959
0.018949
0.0200939
0.0210297
0.0217632
0.0223078
0.0226842
0.02292
0.0230481
0.0231028
0.0231188