/*--------------------------------*- C++ -*----------------------------------*\
  =========                 |
  \\      /  F ield         | OpenFOAM: The Open Source CFD Toolbox
   \\    /   O peration     | Website:  https://openfoam.org
    \\  /    A nd           | Version:  7
     \\/     M anipulation  |
\*---------------------------------------------------------------------------*/
FoamFile
{
    version     2.0;
    format      ascii;
    class       volVectorField;
    location    "240";
    object      U;
}
// * * * * * * * * * * * * * * * * * * * * * * * * * * * * * * * * * * * * * //

dimensions      [0 1 -1 0 0 0 0];

internalField   nonuniform List<vector> 
7156
(
(0.313852 -0.676188 3.22423e-22)
(0.342178 -0.69817 -3.85334e-23)
(0.353892 -0.703142 -2.53162e-22)
(0.348048 -0.701779 -1.46165e-23)
(0.32844 -0.696428 2.49039e-22)
(0.307548 -0.674261 2.42307e-22)
(0.305475 -0.610589 -1.92782e-22)
(0.336364 -0.487749 -1.95894e-22)
(0.396214 -0.31169 -1.43127e-22)
(0.471844 -0.106267 -1.93326e-23)
(0.552269 0.100489 1.799e-22)
(0.629429 0.283188 -8.00164e-23)
(0.6966 0.424116 -1.92147e-22)
(0.749124 0.517425 2.00268e-22)
(0.78559 0.568236 9.40516e-23)
(0.807101 0.588047 5.5176e-23)
(0.81591 0.589223 2.91085e-23)
(0.815368 0.580634 -1.41226e-22)
(0.808229 0.568902 2.96193e-24)
(0.793658 0.562387 6.53809e-23)
(0.768663 0.566576 1.61354e-22)
(0.734117 0.571601 -1.95937e-22)
(0.698927 0.548923 6.94484e-23)
(0.676239 0.468058 -6.62801e-23)
(0.674393 0.320535 2.17024e-22)
(0.69356 0.127417 1.08044e-23)
(0.728619 -0.0735711 -2.99323e-23)
(0.771658 -0.246655 1.17648e-22)
(0.81395 -0.371608 2.31603e-23)
(0.848238 -0.447314 7.96137e-23)
(0.332314 -0.681419 -2.53939e-22)
(0.358384 -0.701061 -1.22045e-21)
(0.368135 -0.703498 1.09293e-21)
(0.360523 -0.69984 -6.10487e-22)
(0.338568 -0.693365 -1.98983e-22)
(0.313738 -0.67239 -4.30072e-22)
(0.305922 -0.612327 1.41226e-21)
(0.330844 -0.493812 -9.43363e-22)
(0.386281 -0.320852 -9.97774e-23)
(0.459398 -0.116808 -3.32856e-22)
(0.538856 0.0899065 7.35016e-22)
(0.61623 0.273569 5.17139e-22)
(0.684516 0.416204 -1.05458e-21)
(0.738764 0.511587 -7.40759e-22)
(0.777223 0.564452 8.55473e-22)
(0.800668 0.586053 -3.02126e-22)
(0.811209 0.58862 -1.06399e-22)
(0.812194 0.581009 2.06159e-22)
(0.806319 0.570107 4.71881e-22)
(0.792673 0.564603 -4.60693e-22)
(0.76837 0.569882 2.75314e-22)
(0.734595 0.575434 1.96808e-23)
(0.700549 0.552104 -2.71064e-22)
(0.679299 0.469489 2.07294e-22)
(0.678797 0.319817 -4.13579e-22)
(0.698928 0.12483 2.97354e-22)
(0.734457 -0.0773575 -1.15199e-22)
(0.777437 -0.250799 -5.9888e-22)
(0.819213 -0.375308 1.17214e-22)
(0.852695 -0.45004 2.69756e-22)
(0.351086 -0.686241 1.81719e-21)
(0.374816 -0.703626 1.50619e-21)
(0.382556 -0.703599 -1.33769e-21)
(0.373231 -0.697639 -7.77018e-22)
(0.349125 -0.689911 7.74875e-23)
(0.320632 -0.669941 1.19258e-21)
(0.307258 -0.613431 -7.31359e-22)
(0.326153 -0.499435 1.35949e-21)
(0.376994 -0.329887 -2.04132e-21)
(0.447419 -0.127482 2.62554e-21)
(0.525763 0.0790325 -2.46059e-21)
(0.60324 0.263586 1.26449e-21)
(0.672559 0.407913 1.37569e-21)
(0.728474 0.505396 -9.34268e-22)
(0.768891 0.560365 -5.71525e-23)
(0.794258 0.583817 4.78573e-22)
(0.806537 0.587826 -7.23085e-22)
(0.809065 0.581235 -3.78867e-22)
(0.804469 0.571197 7.99611e-23)
(0.791768 0.566725 4.10785e-22)
(0.768186 0.573094 -4.68821e-22)
(0.73522 0.579172 3.00111e-22)
(0.70235 0.55522 -4.30734e-22)
(0.682543 0.470934 2.97953e-22)
(0.683368 0.319212 3.32774e-22)
(0.70444 0.122431 -3.59559e-22)
(0.740417 -0.0809244 -4.64908e-22)
(0.783315 -0.25473 -3.97604e-22)
(0.824551 -0.378823 1.25953e-22)
(0.857208 -0.452615 -5.04531e-22)
(0.37015 -0.690651 4.59767e-22)
(0.391461 -0.705866 1.78694e-21)
(0.397143 -0.703456 -3.59975e-22)
(0.386147 -0.695201 1.92549e-21)
(0.360074 -0.6861 -1.00245e-21)
(0.328203 -0.666939 6.91636e-22)
(0.309481 -0.613897 2.71005e-23)
(0.322317 -0.504585 -1.43284e-21)
(0.368386 -0.338758 1.29152e-21)
(0.435936 -0.138262 -9.65183e-22)
(0.513016 0.0678863 5.28275e-22)
(0.590479 0.253249 -2.02481e-21)
(0.660741 0.399248 -5.01204e-22)
(0.718262 0.498851 8.56388e-22)
(0.760598 0.555975 1.30707e-21)
(0.787871 0.581335 -5.05372e-22)
(0.801894 0.586835 -2.74634e-22)
(0.80598 0.581305 4.6246e-22)
(0.802677 0.572167 -1.28816e-22)
(0.79094 0.568746 -2.59658e-23)
(0.768108 0.576207 7.692e-22)
(0.735989 0.582811 -5.5961e-22)
(0.704325 0.558271 1.39808e-22)
(0.685962 0.472397 -9.02323e-22)
(0.688099 0.318727 5.05229e-22)
(0.71009 0.120226 1.51027e-21)
(0.746494 -0.0842669 -1.16295e-21)
(0.789289 -0.258443 8.84887e-22)
(0.829962 -0.382151 -4.60504e-22)
(0.861777 -0.45504 -7.69486e-22)
(0.389488 -0.694644 3.64624e-21)
(0.408307 -0.707778 2.70277e-21)
(0.411882 -0.703077 -5.82857e-21)
(0.399248 -0.692551 2.38846e-21)
(0.37138 -0.681969 -1.88512e-21)
(0.336417 -0.663413 1.30994e-21)
(0.312587 -0.613724 -9.03192e-22)
(0.319361 -0.509231 -1.29273e-21)
(0.360489 -0.34743 2.88208e-21)
(0.42498 -0.149118 -3.76089e-22)
(0.50064 0.0564878 1.51402e-21)
(0.577966 0.242571 1.56481e-21)
(0.649077 0.390213 -1.41967e-21)
(0.708135 0.491954 5.08142e-22)
(0.752347 0.551278 -4.8853e-23)
(0.781508 0.578602 -3.71724e-22)
(0.797279 0.585643 7.86587e-22)
(0.802935 0.581214 1.20626e-22)
(0.800941 0.57301 -1.33294e-22)
(0.790186 0.570659 -4.33419e-22)
(0.768132 0.579214 -1.93373e-22)
(0.736897 0.586347 -1.51997e-22)
(0.706465 0.561258 -1.70925e-21)
(0.689549 0.473884 -4.80471e-22)
(0.692981 0.318369 9.67794e-22)
(0.715871 0.118222 -2.76966e-22)
(0.752683 -0.0873803 -1.4817e-21)
(0.795357 -0.261936 4.65104e-22)
(0.835445 -0.385292 -1.65803e-21)
(0.8664 -0.457316 -2.3723e-23)
(0.409077 -0.698217 3.50551e-21)
(0.425338 -0.709365 -2.03258e-21)
(0.426759 -0.70247 -1.94759e-21)
(0.412509 -0.689712 -1.09247e-21)
(0.383008 -0.677555 -2.10194e-21)
(0.345239 -0.659398 -1.56742e-22)
(0.316565 -0.612916 3.91021e-21)
(0.317305 -0.513346 -2.20979e-22)
(0.353333 -0.355863 -8.98421e-22)
(0.414581 -0.160018 -6.66693e-22)
(0.488661 0.0448586 1.24372e-21)
(0.56572 0.231564 -4.99994e-21)
(0.637579 0.380816 1.07721e-21)
(0.698101 0.484705 1.47153e-21)
(0.744143 0.546273 -1.00332e-21)
(0.77517 0.575615 1.63751e-21)
(0.79269 0.584245 7.41362e-22)
(0.799929 0.580959 -1.08453e-22)
(0.799257 0.573722 -4.36576e-22)
(0.789503 0.572459 -8.35164e-22)
(0.768256 0.582107 6.8372e-22)
(0.737939 0.589775 -5.08152e-22)
(0.708764 0.564182 3.24049e-21)
(0.693295 0.4754 1.96912e-21)
(0.698005 0.318142 -2.8194e-21)
(0.721776 0.116423 4.23589e-21)
(0.758978 -0.0902605 -2.40699e-21)
(0.801514 -0.265207 6.97206e-22)
(0.840999 -0.388245 3.13435e-21)
(0.871079 -0.459442 3.33899e-22)
(0.428895 -0.701367 3.16662e-21)
(0.442541 -0.710624 3.85618e-21)
(0.441763 -0.701643 -6.37944e-22)
(0.425912 -0.686705 1.53269e-23)
(0.394922 -0.672894 1.86581e-21)
(0.354631 -0.654929 -8.28888e-22)
(0.3214 -0.611481 -2.19424e-21)
(0.316166 -0.516903 1.19052e-22)
(0.346946 -0.364019 -1.20862e-21)
(0.404766 -0.170931 -1.69098e-21)
(0.477101 0.0330218 3.4414e-21)
(0.553758 0.220243 -3.41292e-22)
(0.626259 0.371064 -3.07375e-22)
(0.688168 0.477109 -7.17283e-23)
(0.735988 0.540958 -8.17388e-22)
(0.768858 0.572371 -3.6731e-21)
(0.788126 0.582637 1.47319e-21)
(0.796959 0.580535 -1.16915e-21)
(0.797622 0.574298 1.91147e-21)
(0.788887 0.574139 -7.14852e-22)
(0.768475 0.584881 4.54224e-22)
(0.739111 0.593091 -2.30264e-22)
(0.711215 0.567043 -1.27369e-21)
(0.69719 0.476948 -3.08331e-21)
(0.703164 0.318055 -1.57769e-21)
(0.727797 0.114836 5.06802e-21)
(0.765374 -0.0929032 -9.70718e-22)
(0.807757 -0.268253 -2.0438e-21)
(0.846622 -0.391008 -2.85391e-22)
(0.875812 -0.461421 -3.03419e-22)
(0.448919 -0.704092 -3.20305e-21)
(0.4599 -0.711557 2.21174e-21)
(0.456881 -0.700602 1.13046e-21)
(0.439434 -0.68355 -6.58249e-21)
(0.40709 -0.668023 4.19547e-21)
(0.364552 -0.650045 -1.94007e-21)
(0.327069 -0.609433 -1.12829e-21)
(0.315959 -0.519879 7.83589e-22)
(0.341354 -0.37186 1.96936e-21)
(0.395562 -0.181822 3.15848e-21)
(0.465985 0.0210017 -9.31272e-22)
(0.542099 0.208624 -1.5324e-21)
(0.615131 0.360965 -2.08505e-21)
(0.678345 0.469166 -1.48158e-21)
(0.727887 0.535334 2.00368e-21)
(0.762572 0.568864 1.92022e-21)
(0.783586 0.580813 4.85953e-22)
(0.794021 0.579936 -2.13134e-21)
(0.796032 0.574733 1.67285e-22)
(0.788335 0.575694 9.40783e-22)
(0.768785 0.58753 -6.68977e-22)
(0.740406 0.596292 -6.0653e-22)
(0.713808 0.569842 1.48618e-21)
(0.701225 0.478532 3.20427e-21)
(0.708446 0.31811 -2.13943e-21)
(0.733925 0.113466 2.20317e-22)
(0.771865 -0.0953048 -2.23879e-22)
(0.814083 -0.271071 3.87948e-21)
(0.852313 -0.39358 -5.58852e-22)
(0.880599 -0.463251 -1.3951e-21)
(0.469124 -0.706391 -4.57038e-21)
(0.477397 -0.712165 -5.60878e-21)
(0.472101 -0.699351 1.80959e-21)
(0.45306 -0.680266 -1.13655e-21)
(0.419477 -0.662977 7.40237e-22)
(0.374962 -0.644785 5.22701e-21)
(0.333546 -0.60679 -2.98548e-21)
(0.316693 -0.522254 1.52084e-21)
(0.336584 -0.379346 -2.27209e-21)
(0.386994 -0.192656 1.26651e-22)
(0.455335 0.00882461 2.59195e-21)
(0.530762 0.196723 -2.78211e-21)
(0.604208 0.350528 1.66681e-21)
(0.668638 0.460881 2.4848e-21)
(0.719843 0.529398 1.99605e-22)
(0.756313 0.565093 -1.10886e-21)
(0.779069 0.57877 -8.59551e-22)
(0.791114 0.579159 -3.82138e-22)
(0.794484 0.575022 1.30641e-21)
(0.787843 0.577116 -1.01162e-21)
(0.769182 0.590046 -9.20041e-22)
(0.741819 0.599374 -9.46812e-22)
(0.716536 0.572578 -1.62835e-21)
(0.70539 0.480157 -1.05644e-21)
(0.713844 0.318314 2.19716e-21)
(0.740153 0.112316 -4.42874e-21)
(0.778443 -0.0974618 2.59509e-21)
(0.820487 -0.27366 -1.63082e-21)
(0.858069 -0.395962 8.18126e-22)
(0.885439 -0.464935 3.92201e-21)
(0.489484 -0.708264 -6.57687e-21)
(0.495015 -0.712448 -1.58492e-21)
(0.487412 -0.697896 1.17147e-21)
(0.46677 -0.676868 -6.52495e-21)
(0.43205 -0.65779 9.22386e-22)
(0.385816 -0.639193 -4.03005e-21)
(0.3408 -0.603575 4.57708e-21)
(0.31837 -0.524013 4.95266e-22)
(0.332658 -0.386438 -9.37976e-21)
(0.379087 -0.203396 1.15932e-20)
(0.445173 -0.00347999 -1.27913e-20)
(0.519763 0.184557 2.95167e-21)
(0.593503 0.339764 -2.08719e-21)
(0.659056 0.452259 5.4048e-21)
(0.71186 0.523151 -3.40749e-21)
(0.750082 0.561054 -1.06652e-22)
(0.774574 0.576503 8.43877e-22)
(0.788234 0.5782 -8.58578e-24)
(0.792975 0.575159 6.36569e-22)
(0.787406 0.578401 1.82546e-21)
(0.769661 0.592425 -8.41195e-22)
(0.743342 0.602332 3.61937e-22)
(0.71939 0.575252 -1.1705e-21)
(0.709676 0.481825 2.38885e-21)
(0.719347 0.318671 -1.77649e-21)
(0.746473 0.111391 4.62193e-21)
(0.785104 -0.0993712 -4.30741e-21)
(0.826966 -0.276017 -8.07005e-22)
(0.86389 -0.398151 -1.10279e-21)
(0.890331 -0.466473 -7.89113e-22)
(0.509972 -0.709712 5.31306e-21)
(0.512735 -0.712408 -8.00197e-21)
(0.502802 -0.696241 -7.10309e-24)
(0.480551 -0.673371 5.20148e-21)
(0.44478 -0.652495 1.59001e-21)
(0.39707 -0.633311 2.3249e-21)
(0.348794 -0.599815 -1.66987e-21)
(0.320991 -0.525143 2.43612e-21)
(0.329598 -0.393098 4.46203e-21)
(0.371863 -0.214006 -6.93535e-21)
(0.43552 -0.0158876 -3.44305e-21)
(0.509119 0.172147 1.85011e-21)
(0.583027 0.328684 4.00651e-21)
(0.649607 0.443303 -1.32632e-21)
(0.703941 0.516593 -1.70127e-21)
(0.743881 0.556744 1.3938e-21)
(0.770098 0.574008 -1.59551e-21)
(0.785378 0.577053 -5.35651e-22)
(0.791499 0.575141 -1.49948e-21)
(0.787021 0.579543 -1.09836e-21)
(0.770217 0.594661 -1.01153e-21)
(0.744969 0.605165 8.62564e-21)
(0.72236 0.577864 2.43553e-21)
(0.714072 0.48354 -9.37224e-21)
(0.724946 0.319185 3.28397e-21)
(0.752875 0.110694 -3.49215e-21)
(0.79184 -0.10103 1.00119e-21)
(0.833516 -0.278141 2.30088e-21)
(0.869772 -0.400148 3.09597e-21)
(0.895276 -0.467865 -1.23905e-21)
(0.530562 -0.710735 -7.23324e-21)
(0.530538 -0.712047 1.58097e-20)
(0.518256 -0.69439 -1.23092e-20)
(0.494388 -0.669787 -1.27325e-21)
(0.457637 -0.647121 -8.06806e-22)
(0.40868 -0.627184 2.90255e-21)
(0.357487 -0.595542 2.83192e-21)
(0.324548 -0.525638 -4.89667e-21)
(0.327424 -0.39929 2.24862e-21)
(0.365345 -0.224445 6.88976e-21)
(0.426395 -0.028371 -4.26122e-21)
(0.498849 0.159511 5.17419e-21)
(0.572793 0.317298 -4.11106e-21)
(0.640297 0.434019 -1.11935e-21)
(0.696091 0.509725 -3.42226e-21)
(0.737709 0.552161 1.969e-21)
(0.765641 0.571282 2.23069e-21)
(0.782542 0.575715 -3.51567e-22)
(0.790054 0.574962 4.26667e-21)
(0.786682 0.580535 7.91553e-22)
(0.770843 0.596748 -1.83809e-21)
(0.746693 0.607867 -5.88186e-21)
(0.725438 0.580415 4.52347e-21)
(0.718568 0.485303 -1.10545e-21)
(0.73063 0.319859 5.05093e-22)
(0.75935 0.11023 4.26706e-22)
(0.798644 -0.102436 1.922e-21)
(0.840132 -0.28003 -3.19e-21)
(0.875715 -0.401952 -2.49128e-21)
(0.900271 -0.469112 -1.17498e-21)
(0.551226 -0.711337 8.98639e-21)
(0.548403 -0.711368 -8.11296e-21)
(0.533764 -0.692347 5.74971e-21)
(0.508266 -0.666128 -7.60205e-22)
(0.470593 -0.641697 1.3179e-21)
(0.420601 -0.620856 -4.27767e-21)
(0.366834 -0.590792 1.98426e-21)
(0.329028 -0.525497 1.33365e-21)
(0.326152 -0.404977 -3.34813e-21)
(0.359553 -0.234673 2.85364e-21)
(0.417819 -0.0408976 -6.66372e-21)
(0.488967 0.146671 3.35482e-21)
(0.562814 0.305622 1.54484e-22)
(0.631136 0.424415 -5.60532e-22)
(0.688314 0.502548 2.66847e-21)
(0.731567 0.547303 -2.40748e-21)
(0.7612 0.56832 2.61046e-21)
(0.779725 0.574181 -5.429e-21)
(0.788635 0.574618 4.41674e-21)
(0.786385 0.581373 -4.37099e-21)
(0.771536 0.59868 4.53165e-21)
(0.748506 0.610436 -2.13634e-21)
(0.728613 0.582903 -4.75299e-21)
(0.723153 0.487117 3.76234e-21)
(0.736389 0.320696 5.045e-21)
(0.765891 0.110001 -6.50885e-21)
(0.80551 -0.103586 1.13635e-21)
(0.846809 -0.281683 2.45502e-21)
(0.881715 -0.403561 -3.73863e-21)
(0.905316 -0.470214 1.87701e-22)
(0.571935 -0.71152 1.83117e-21)
(0.56631 -0.710375 -1.90741e-21)
(0.549311 -0.690114 -2.39123e-22)
(0.522176 -0.662403 -7.51386e-21)
(0.483624 -0.63625 7.23436e-21)
(0.43279 -0.61437 -6.74727e-21)
(0.376788 -0.585604 2.107e-21)
(0.334413 -0.524722 2.11379e-21)
(0.325797 -0.410128 -1.23061e-21)
(0.354506 -0.244651 -9.43572e-23)
(0.409807 -0.0534359 7.55159e-22)
(0.47949 0.13365 -3.74484e-21)
(0.553102 0.293667 2.94679e-21)
(0.622131 0.414496 -3.82815e-21)
(0.680612 0.495063 5.38846e-21)
(0.725458 0.542167 2.72184e-21)
(0.756775 0.56512 1.72665e-21)
(0.776921 0.572449 -4.39612e-21)
(0.787237 0.574104 9.82128e-23)
(0.786125 0.582051 1.39336e-21)
(0.772287 0.600453 7.93469e-23)
(0.750399 0.612869 4.78994e-21)
(0.731876 0.585328 -1.70037e-21)
(0.727816 0.488983 -1.11106e-21)
(0.742213 0.321699 1.37779e-21)
(0.772487 0.11001 4.16982e-22)
(0.81243 -0.104479 4.32382e-21)
(0.853544 -0.283098 -2.41204e-21)
(0.88777 -0.404977 2.35688e-21)
(0.910409 -0.471173 4.05441e-21)
(0.592662 -0.711287 -5.49432e-21)
(0.584238 -0.70907 2.44158e-21)
(0.564884 -0.687696 -4.02868e-22)
(0.536104 -0.658619 1.12538e-20)
(0.496705 -0.630802 -1.25967e-21)
(0.445202 -0.60777 -2.26014e-22)
(0.387299 -0.580022 -6.0637e-21)
(0.340677 -0.523323 1.60734e-21)
(0.32637 -0.414711 2.72277e-21)
(0.350224 -0.254335 -8.78758e-22)
(0.402379 -0.0659502 -1.05893e-21)
(0.470432 0.120471 -9.4378e-22)
(0.543667 0.281449 6.71362e-21)
(0.613288 0.404271 -8.46852e-22)
(0.672991 0.487274 1.34115e-21)
(0.719381 0.536752 -1.05298e-21)
(0.752364 0.561678 -1.34012e-21)
(0.774129 0.570513 2.63121e-21)
(0.785857 0.573416 -8.69426e-22)
(0.785896 0.582565 -5.56716e-21)
(0.773093 0.602062 4.86426e-21)
(0.752366 0.615162 -1.06584e-21)
(0.735216 0.587689 1.13835e-21)
(0.732547 0.490902 -1.51638e-21)
(0.748091 0.322869 6.61835e-21)
(0.779128 0.110259 -6.92915e-21)
(0.819397 -0.105113 -1.19546e-22)
(0.860331 -0.284276 -1.38844e-22)
(0.893878 -0.406198 -6.47773e-22)
(0.915551 -0.471989 8.28948e-22)
(0.613378 -0.710643 4.08973e-21)
(0.602166 -0.707459 6.4249e-21)
(0.58047 -0.685096 -2.01853e-21)
(0.55004 -0.654784 -4.26492e-22)
(0.509815 -0.625375 -2.96637e-21)
(0.457798 -0.601096 -2.76163e-21)
(0.398313 -0.574091 3.82574e-21)
(0.347788 -0.521316 6.0756e-22)
(0.327878 -0.418699 -1.52089e-21)
(0.346725 -0.263684 -2.28264e-21)
(0.39555 -0.0784044 -3.57094e-22)
(0.46181 0.107158 1.38532e-21)
(0.534522 0.268984 -3.2913e-21)
(0.604617 0.393747 -2.23593e-21)
(0.665454 0.479182 -1.47701e-21)
(0.713337 0.531058 -2.29141e-21)
(0.747964 0.557991 -8.284e-22)
(0.771344 0.568371 1.78687e-21)
(0.784489 0.57255 -9.4614e-22)
(0.785694 0.582909 1.88427e-22)
(0.773945 0.603502 1.5503e-21)
(0.754398 0.617313 -3.47773e-21)
(0.738625 0.589987 -3.49973e-21)
(0.737335 0.492876 2.11276e-21)
(0.754013 0.324209 -5.53258e-21)
(0.785807 0.110749 -3.13017e-21)
(0.826404 -0.105486 6.90785e-21)
(0.867164 -0.285214 2.17297e-21)
(0.900036 -0.407224 -3.62909e-21)
(0.920738 -0.472662 3.97024e-22)
(0.634056 -0.709593 1.03491e-20)
(0.620073 -0.705546 -5.95317e-21)
(0.596053 -0.682318 1.37583e-22)
(0.563975 -0.650901 -6.45491e-21)
(0.522936 -0.619986 9.06068e-21)
(0.470535 -0.594389 -7.66219e-21)
(0.409777 -0.567858 3.36428e-21)
(0.35571 -0.51872 -3.55285e-22)
(0.330325 -0.42207 3.13629e-21)
(0.344026 -0.272655 -9.39976e-21)
(0.389337 -0.0907636 6.17433e-21)
(0.453635 0.0937369 -2.73974e-21)
(0.525678 0.256289 8.07527e-21)
(0.596124 0.382935 1.54418e-21)
(0.658006 0.470792 2.00724e-22)
(0.707329 0.525083 -1.09057e-21)
(0.743575 0.554056 -3.47473e-21)
(0.768563 0.566019 4.93645e-21)
(0.78313 0.571502 -1.47472e-21)
(0.785514 0.583078 1.2906e-21)
(0.774838 0.604769 -1.30139e-21)
(0.756486 0.619318 -1.86815e-22)
(0.74209 0.592219 4.74317e-21)
(0.742169 0.494904 -4.22814e-21)
(0.759967 0.325719 4.69701e-21)
(0.792513 0.111481 -6.15853e-22)
(0.833443 -0.105598 -1.7129e-21)
(0.874041 -0.285912 5.1356e-21)
(0.90624 -0.408055 -2.38126e-21)
(0.925971 -0.473193 3.11463e-23)
(0.654667 -0.708141 9.85275e-21)
(0.637937 -0.703336 -7.73586e-21)
(0.611619 -0.679365 -9.28197e-22)
(0.577898 -0.646975 7.67009e-22)
(0.53605 -0.614651 1.73855e-22)
(0.483377 -0.587686 5.88999e-22)
(0.421637 -0.561372 4.15548e-22)
(0.364399 -0.515563 7.20462e-21)
(0.333709 -0.424806 1.22015e-22)
(0.342145 -0.281208 -1.11704e-21)
(0.383753 -0.102991 7.15818e-22)
(0.445921 0.0802344 -3.62615e-21)
(0.517145 0.24338 -1.65802e-21)
(0.587816 0.371845 1.28333e-21)
(0.65065 0.462106 -1.65742e-21)
(0.701356 0.518827 -2.02607e-21)
(0.739195 0.549872 2.71878e-21)
(0.765783 0.563453 -7.79763e-22)
(0.781774 0.570267 -2.03657e-21)
(0.785349 0.583069 3.61833e-21)
(0.775765 0.605858 -1.56525e-21)
(0.758623 0.621174 2.17817e-21)
(0.745603 0.594384 -3.42647e-21)
(0.747039 0.496986 1.34796e-21)
(0.765943 0.3274 3.04205e-21)
(0.799235 0.112458 -6.44526e-21)
(0.840507 -0.105448 -5.5616e-22)
(0.880954 -0.286371 5.06752e-21)
(0.91249 -0.408691 1.35483e-21)
(0.931247 -0.473583 -1.38847e-21)
(0.675184 -0.706295 -4.48687e-22)
(0.655739 -0.700836 8.82581e-21)
(0.627155 -0.676241 -6.51693e-21)
(0.591801 -0.643009 8.3844e-21)
(0.549142 -0.609384 1.24673e-20)
(0.496289 -0.581021 -7.31363e-21)
(0.433838 -0.554684 -7.04839e-22)
(0.373807 -0.511877 -1.70348e-21)
(0.338021 -0.426894 2.0398e-21)
(0.341098 -0.2893 3.32282e-21)
(0.378815 -0.115048 -1.27312e-21)
(0.438681 0.0666783 -1.51695e-21)
(0.508934 0.230277 1.16819e-21)
(0.579702 0.360486 -1.86659e-21)
(0.643391 0.453129 -1.85144e-21)
(0.69542 0.51229 1.66978e-21)
(0.734823 0.545435 1.76413e-21)
(0.763 0.560672 -2.20578e-22)
(0.780417 0.568842 -2.70969e-21)
(0.785194 0.582877 2.38459e-21)
(0.776719 0.606765 -1.35104e-22)
(0.760798 0.622879 -4.52838e-21)
(0.749154 0.596481 -1.08292e-21)
(0.751932 0.499123 -2.1742e-21)
(0.77193 0.329252 6.40729e-22)
(0.805966 0.113679 5.29887e-21)
(0.847588 -0.105035 1.65602e-21)
(0.887898 -0.286589 -1.40526e-20)
(0.91878 -0.409131 9.33824e-21)
(0.936565 -0.473832 -4.1016e-21)
(0.695581 -0.70406 1.27085e-20)
(0.673457 -0.698052 1.50533e-20)
(0.642645 -0.672951 -1.69816e-21)
(0.605674 -0.639006 -9.04251e-21)
(0.5622 -0.604193 1.58132e-20)
(0.509236 -0.574427 -8.90671e-21)
(0.446325 -0.547842 5.97618e-21)
(0.383882 -0.507697 -4.5892e-21)
(0.343249 -0.428326 -4.10672e-21)
(0.340897 -0.296894 -3.72531e-21)
(0.374536 -0.126896 1.38522e-21)
(0.431927 0.053098 -1.67857e-21)
(0.501054 0.216999 5.20583e-22)
(0.571788 0.348871 4.4023e-21)
(0.636233 0.443867 -1.11189e-21)
(0.689523 0.505473 5.77962e-22)
(0.730457 0.540745 -7.1854e-22)
(0.760211 0.557671 1.88939e-21)
(0.779054 0.567225 5.64452e-23)
(0.785043 0.582498 -1.54529e-21)
(0.777694 0.607486 -3.0551e-21)
(0.763005 0.624428 2.24216e-21)
(0.752731 0.598507 -3.47686e-22)
(0.756838 0.501311 9.9901e-21)
(0.777916 0.331275 -7.35805e-21)
(0.812694 0.115145 6.20786e-22)
(0.854678 -0.104358 6.68547e-21)
(0.89487 -0.286566 -6.9886e-21)
(0.925108 -0.409376 2.78038e-21)
(0.941923 -0.47394 5.6447e-21)
(0.715831 -0.701443 1.19765e-20)
(0.691072 -0.69499 -2.69095e-20)
(0.658076 -0.669499 -1.24191e-20)
(0.619508 -0.634966 1.75332e-20)
(0.575212 -0.599087 6.17921e-21)
(0.52219 -0.567932 -5.57803e-21)
(0.459045 -0.540897 -5.21042e-22)
(0.394569 -0.503066 4.4091e-21)
(0.349371 -0.429102 -9.28174e-21)
(0.341557 -0.30395 1.02683e-20)
(0.370932 -0.138492 -3.20105e-21)
(0.425671 0.0395238 2.03927e-21)
(0.493516 0.203566 -7.53715e-21)
(0.564082 0.337011 4.13541e-21)
(0.629181 0.434324 -2.7222e-21)
(0.683666 0.498377 2.13133e-22)
(0.726097 0.5358 3.51524e-21)
(0.757412 0.554448 -7.07832e-22)
(0.77768 0.56541 3.55367e-21)
(0.784891 0.581929 -1.95055e-22)
(0.778682 0.608019 -2.54516e-21)
(0.765233 0.625821 2.81363e-22)
(0.756326 0.600462 1.77345e-21)
(0.761747 0.503551 -5.80976e-21)
(0.783892 0.333467 8.61821e-22)
(0.819409 0.116856 2.96267e-21)
(0.861769 -0.103419 4.47899e-21)
(0.901862 -0.286303 3.3326e-21)
(0.931471 -0.409426 -2.0925e-21)
(0.94732 -0.473908 1.3786e-21)
(0.735907 -0.698453 -2.97037e-20)
(0.708564 -0.691657 5.8024e-21)
(0.673432 -0.665889 1.25401e-20)
(0.633295 -0.630893 -9.89309e-21)
(0.588168 -0.59407 5.74855e-21)
(0.535123 -0.56156 5.91229e-21)
(0.471947 -0.533897 -7.55938e-21)
(0.405808 -0.498029 -1.19322e-22)
(0.356363 -0.429226 -7.67794e-22)
(0.343088 -0.310436 5.06457e-21)
(0.368017 -0.149795 -6.13441e-21)
(0.419924 0.0259853 2.28625e-21)
(0.486329 0.19 7.57632e-21)
(0.556591 0.32492 -2.89238e-21)
(0.622239 0.424508 -8.31818e-21)
(0.677851 0.491003 1.37248e-21)
(0.72174 0.530598 5.88943e-21)
(0.7546 0.551002 4.00144e-22)
(0.776291 0.563396 -7.43386e-22)
(0.784733 0.581166 -2.49581e-21)
(0.779676 0.608358 4.25924e-21)
(0.767476 0.627053 -7.02115e-21)
(0.759927 0.602341 2.91979e-21)
(0.766648 0.505841 5.68012e-21)
(0.789847 0.335829 -8.48561e-21)
(0.826103 0.11881 7.97635e-21)
(0.868855 -0.102217 2.66766e-21)
(0.90887 -0.2858 -3.35786e-21)
(0.937865 -0.40928 4.16953e-21)
(0.952753 -0.473737 -6.66146e-21)
(0.725915 -0.688061 1.27204e-20)
(0.6887 -0.662127 -2.55842e-20)
(0.647025 -0.626785 1.6279e-20)
(0.601062 -0.589148 -9.99629e-21)
(0.548011 -0.555335 1.81417e-21)
(0.484982 -0.526888 -9.0824e-22)
(0.417538 -0.492635 3.85897e-21)
(0.364189 -0.428712 4.18429e-21)
(0.345497 -0.316318 -1.39402e-20)
(0.365806 -0.160763 8.19973e-22)
(0.414698 0.0125199 1.34759e-20)
(0.479503 0.176323 -9.0899e-21)
(0.549322 0.312612 2.56828e-21)
(0.615413 0.414425 3.82216e-21)
(0.67208 0.483353 -2.2606e-21)
(0.717387 0.52514 -1.30412e-21)
(0.751771 0.547329 1.52891e-21)
(0.774881 0.56118 1.55641e-21)
(0.784561 0.580206 -6.88401e-21)
(0.78067 0.608502 8.19312e-21)
(0.769723 0.628121 -2.04617e-21)
(0.763526 0.604144 -5.10206e-21)
(0.771531 0.508177 2.25346e-21)
(0.795769 0.338357 8.00958e-21)
(0.832764 0.121006 -1.59645e-21)
(0.875927 -0.100752 -1.82792e-20)
(0.915887 -0.285056 -1.63067e-21)
(0.944288 -0.40894 -2.23871e-21)
(0.958222 -0.473427 -2.75373e-21)
(0.743106 -0.68421 2.12389e-20)
(0.703867 -0.658216 -2.05121e-20)
(0.660689 -0.622645 4.1436e-21)
(0.613884 -0.58432 -3.49332e-21)
(0.560834 -0.549273 1.01897e-20)
(0.498102 -0.519915 -3.37328e-21)
(0.429698 -0.486934 -4.77649e-22)
(0.37281 -0.427577 -2.47844e-21)
(0.348787 -0.321572 3.72534e-21)
(0.364315 -0.171354 -6.53525e-21)
(0.410004 -0.000806281 2.12529e-21)
(0.473046 0.162559 3.6246e-22)
(0.542283 0.300101 9.36631e-22)
(0.608706 0.404082 4.3599e-21)
(0.666355 0.47543 -2.83623e-21)
(0.713035 0.519423 -1.31708e-21)
(0.748924 0.543428 -3.83052e-22)
(0.773447 0.558758 -2.88407e-21)
(0.784371 0.579045 5.08258e-21)
(0.781656 0.608447 -3.08804e-21)
(0.771967 0.629024 2.48007e-21)
(0.767113 0.605866 -8.02206e-21)
(0.776384 0.510558 -8.95262e-21)
(0.801648 0.341051 1.07883e-20)
(0.839384 0.123444 2.83274e-21)
(0.882977 -0.0990269 -4.33881e-21)
(0.92291 -0.284074 1.79859e-20)
(0.950734 -0.408404 -1.68823e-20)
(0.963723 -0.472977 7.92025e-21)
(0.760121 -0.680111 -1.70002e-20)
(0.71892 -0.654164 5.31531e-21)
(0.67428 -0.618473 1.48878e-21)
(0.626631 -0.579586 -3.72133e-21)
(0.573574 -0.543389 3.78157e-21)
(0.511263 -0.513018 -2.01696e-21)
(0.442224 -0.480981 1.33931e-21)
(0.382179 -0.425847 -3.21058e-21)
(0.352957 -0.326175 1.21319e-20)
(0.363563 -0.181525 -8.68346e-21)
(0.405854 -0.0139855 6.58261e-21)
(0.466964 0.148732 -4.33872e-21)
(0.53548 0.287402 -3.41297e-21)
(0.602124 0.393488 8.78085e-21)
(0.660678 0.467237 -7.6741e-21)
(0.708686 0.51345 5.14529e-21)
(0.746054 0.539298 2.50592e-21)
(0.771983 0.556129 -4.63294e-22)
(0.784157 0.577682 -4.28438e-21)
(0.782628 0.608191 7.76233e-21)
(0.774199 0.629757 -6.3802e-21)
(0.770678 0.607505 1.05565e-20)
(0.781199 0.51298 2.41419e-21)
(0.807473 0.343906 -3.05565e-21)
(0.845953 0.126122 -2.2285e-21)
(0.889998 -0.0970411 3.7258e-21)
(0.929931 -0.282853 -1.62361e-21)
(0.957201 -0.407675 -2.69496e-21)
(0.969255 -0.472389 -3.46093e-22)
(0.776944 -0.675772 -4.14092e-21)
(0.733846 -0.649974 2.21311e-20)
(0.687788 -0.61427 -6.78722e-21)
(0.639297 -0.574946 1.34581e-20)
(0.586217 -0.537695 -4.05101e-21)
(0.524426 -0.506237 -1.61214e-21)
(0.455054 -0.47483 -2.18075e-21)
(0.392246 -0.423553 6.09619e-21)
(0.358 -0.330111 -7.20095e-21)
(0.363562 -0.191235 3.78972e-21)
(0.402261 -0.0270509 -3.04119e-21)
(0.461268 0.134867 6.05674e-21)
(0.528922 0.274533 -3.55435e-21)
(0.595673 0.382651 1.06772e-21)
(0.655051 0.458777 -3.70152e-21)
(0.704337 0.507219 3.19018e-21)
(0.743158 0.534936 5.52189e-22)
(0.770485 0.55329 3.36748e-22)
(0.783913 0.576113 1.90831e-21)
(0.783578 0.60773 -2.04162e-21)
(0.776411 0.630319 3.92058e-21)
(0.774212 0.609058 -3.74499e-21)
(0.785965 0.515439 -2.10883e-21)
(0.813235 0.346921 -1.44757e-21)
(0.85246 0.129037 1.20096e-20)
(0.896983 -0.0947965 -4.62849e-21)
(0.936947 -0.281394 -1.624e-20)
(0.963684 -0.406751 -9.53289e-23)
(0.974815 -0.471663 3.10996e-21)
(0.79356 -0.671203 2.9955e-21)
(0.748635 -0.645653 -2.25909e-20)
(0.701205 -0.610036 7.82481e-21)
(0.651876 -0.570396 1.06823e-20)
(0.598749 -0.532197 -1.19121e-20)
(0.537554 -0.499605 2.84408e-21)
(0.468127 -0.468535 4.8335e-21)
(0.402953 -0.420733 -1.83085e-21)
(0.363903 -0.333369 -1.54921e-21)
(0.364321 -0.200443 -2.27795e-21)
(0.399238 -0.0399255 3.42536e-21)
(0.455973 0.120993 -7.0098e-22)
(0.522615 0.261509 -6.98671e-22)
(0.589358 0.371582 -2.3691e-21)
(0.649478 0.450055 1.19475e-21)
(0.699989 0.500732 -3.34938e-23)
(0.740235 0.530342 -2.24508e-22)
(0.768949 0.55024 -5.44859e-21)
(0.783634 0.574337 -1.85814e-22)
(0.784501 0.607063 1.20961e-21)
(0.778595 0.630706 -2.22844e-22)
(0.777707 0.61052 6.22701e-21)
(0.790673 0.517933 -1.65452e-21)
(0.818923 0.350092 -6.28003e-21)
(0.858898 0.132186 9.00868e-21)
(0.903925 -0.0922949 9.84028e-21)
(0.94395 -0.279699 -9.7604e-21)
(0.97018 -0.405633 5.98511e-21)
(0.980402 -0.470799 -3.28615e-21)
(0.809955 -0.666412 -2.41638e-20)
(0.763274 -0.641205 8.96858e-21)
(0.714522 -0.605772 7.8624e-21)
(0.664366 -0.565934 -9.61817e-21)
(0.611163 -0.5269 6.20302e-21)
(0.550613 -0.493154 -6.74671e-21)
(0.481385 -0.46215 3.98606e-21)
(0.414241 -0.417427 3.41299e-21)
(0.370646 -0.335947 -9.53698e-22)
(0.365855 -0.209112 -3.63283e-21)
(0.396799 -0.0525176 4.43835e-21)
(0.451087 0.107136 -2.66713e-21)
(0.516568 0.248349 3.19469e-21)
(0.583184 0.36029 -3.43169e-21)
(0.643961 0.441076 1.69127e-21)
(0.695643 0.49399 -3.39293e-21)
(0.737281 0.525516 6.38061e-21)
(0.76737 0.546977 -7.43371e-21)
(0.783313 0.572352 5.61336e-21)
(0.785388 0.606187 -4.86473e-21)
(0.780744 0.630915 7.7183e-21)
(0.781154 0.611889 -1.73834e-21)
(0.795314 0.520456 -7.04988e-21)
(0.824527 0.353415 6.14604e-21)
(0.865256 0.135568 -2.82834e-21)
(0.910815 -0.089538 3.49311e-21)
(0.950937 -0.277767 2.93637e-21)
(0.976685 -0.404322 -9.30761e-21)
(0.986012 -0.469798 5.80494e-21)
(0.826115 -0.661408 -8.51356e-21)
(0.777756 -0.636636 1.37407e-20)
(0.727732 -0.60148 -7.27584e-21)
(0.676762 -0.561554 1.2751e-21)
(0.623451 -0.521806 -7.44569e-21)
(0.563574 -0.486909 1.22085e-20)
(0.494769 -0.455727 -7.86483e-22)
(0.426047 -0.413685 -1.60304e-21)
(0.378203 -0.337848 -2.97939e-21)
(0.368178 -0.217204 3.20554e-21)
(0.394959 -0.0647994 -1.87703e-21)
(0.44662 0.0933264 1.40876e-21)
(0.510789 0.235071 -4.5735e-21)
(0.577157 0.348786 3.77946e-21)
(0.638504 0.431844 1.27122e-21)
(0.691297 0.486994 -1.66059e-21)
(0.734293 0.520457 2.03532e-21)
(0.765743 0.543499 -2.73094e-21)
(0.782946 0.570155 -3.77593e-22)
(0.786235 0.605101 5.00575e-21)
(0.782849 0.630944 -4.31115e-21)
(0.784545 0.61316 -1.01909e-20)
(0.799879 0.523004 -5.32505e-21)
(0.830038 0.356887 5.98109e-21)
(0.871525 0.139177 -1.52481e-21)
(0.917649 -0.0865281 1.85657e-20)
(0.957901 -0.275601 -7.61605e-21)
(0.983195 -0.402818 -9.30179e-21)
(0.991644 -0.468659 3.73232e-21)
(0.842028 -0.6562 5.44919e-21)
(0.792069 -0.631952 2.17941e-20)
(0.740826 -0.59716 -6.6573e-21)
(0.689061 -0.557252 -5.37939e-21)
(0.635609 -0.516913 7.11043e-22)
(0.576412 -0.480893 5.00045e-21)
(0.508226 -0.449319 4.72444e-22)
(0.438305 -0.409556 2.17619e-22)
(0.38654 -0.339082 -1.45122e-21)
(0.371298 -0.224689 -3.48481e-21)
(0.393735 -0.0767435 4.00675e-23)
(0.442584 0.0795944 9.13096e-22)
(0.505287 0.221697 4.57209e-22)
(0.571285 0.337083 -2.97767e-21)
(0.63311 0.422366 1.72662e-21)
(0.686953 0.479748 -8.39868e-22)
(0.731271 0.515165 -2.23364e-21)
(0.764066 0.539807 1.9521e-21)
(0.782527 0.567746 2.66507e-21)
(0.787033 0.603802 1.0581e-21)
(0.784904 0.63079 -9.62068e-21)
(0.787871 0.614329 1.13864e-20)
(0.80436 0.525573 -8.0095e-21)
(0.835446 0.360501 6.25567e-21)
(0.877698 0.143012 -4.92134e-22)
(0.924419 -0.0832676 -1.27453e-20)
(0.964838 -0.273202 1.45173e-20)
(0.989706 -0.401121 -5.71195e-21)
(0.997294 -0.467383 6.06133e-21)
(0.857685 -0.650797 -8.29297e-21)
(0.806206 -0.627158 -1.90333e-20)
(0.753798 -0.592813 1.34467e-20)