/*--------------------------------*- C++ -*----------------------------------*\
  =========                 |
  \\      /  F ield         | OpenFOAM: The Open Source CFD Toolbox
   \\    /   O peration     | Website:  https://openfoam.org
    \\  /    A nd           | Version:  7
     \\/     M anipulation  |
\*---------------------------------------------------------------------------*/
FoamFile
{
    version     2.0;
    format      ascii;
    class       volScalarField;
    location    "160";
    object      p;
}
// * * * * * * * * * * * * * * * * * * * * * * * * * * * * * * * * * * * * * //

dimensions      [0 2 -2 0 0 0 0];

internalField   nonuniform List<scalar> 
7156
(
-0.0936952
-0.0837929
-0.0787112
-0.0779513
-0.0817633
-0.0908141
-0.104455
-0.119461
-0.130737
-0.133845
-0.127425
-0.114007
-0.0982248
-0.0842332
-0.07406
-0.0679132
-0.0656886
-0.0678445
-0.0744404
-0.0837751
-0.0922926
-0.096068
-0.0931833
-0.0847498
-0.0742254
-0.0646536
-0.0576238
-0.0537242
-0.0533377
-0.094217
-0.0839524
-0.0785391
-0.0774553
-0.0809126
-0.0895519
-0.102746
-0.117345
-0.12836
-0.131431
-0.12521
-0.112163
-0.0968256
-0.083281
-0.0735157
-0.0677374
-0.065874
-0.0684169
-0.0754305
-0.085173
-0.094017
-0.0979598
-0.0950369
-0.0863665
-0.0754778
-0.0654985
-0.058067
-0.0537714
-0.0529807
-0.0947059
-0.0840803
-0.0783363
-0.0769293
-0.0800319
-0.0882593
-0.101007
-0.115202
-0.125961
-0.129002
-0.122983
-0.110307
-0.0954135
-0.0823126
-0.0729519
-0.0675404
-0.0660376
-0.0689675
-0.0763999
-0.0865528
-0.095728
-0.099844
-0.0968874
-0.087981
-0.0767254
-0.0663349
-0.0584993
-0.0538076
-0.0526149
-0.0951627
-0.0841778
-0.0781042
-0.0763748
-0.0791233
-0.086939
-0.0992411
-0.113035
-0.123543
-0.126559
-0.120746
-0.108442
-0.093989
-0.0813279
-0.0723684
-0.0673216
-0.0661784
-0.069495
-0.0773468
-0.0879127
-0.0974237
-0.101719
-0.0987333
-0.0895923
-0.0779678
-0.0671626
-0.058921
-0.0538335
-0.0522411
-0.0955883
-0.0842461
-0.0778443
-0.0757938
-0.0781889
-0.0855936
-0.0974514
-0.110847
-0.12111
-0.124106
-0.118501
-0.106568
-0.0925525
-0.080327
-0.0717649
-0.0670803
-0.0662954
-0.069998
-0.0782696
-0.0892505
-0.0991019
-0.103582
-0.100573
-0.0911996
-0.0792046
-0.0679818
-0.0593323
-0.0538495
-0.0518601
-0.0959837
-0.0842864
-0.0775581
-0.0751879
-0.077231
-0.0842257
-0.095641
-0.108643
-0.118663
-0.121644
-0.11625
-0.104685
-0.0911046
-0.07931
-0.0711413
-0.066816
-0.0663877
-0.0704752
-0.0791664
-0.0905642
-0.100761
-0.105433
-0.102406
-0.0928022
-0.0804354
-0.0687925
-0.0597336
-0.0538563
-0.0514725
-0.0963498
-0.0843
-0.0772472
-0.074559
-0.0762517
-0.0828379
-0.0938128
-0.106423
-0.116207
-0.119176
-0.113994
-0.102796
-0.0896459
-0.0782772
-0.0704972
-0.0665283
-0.0664544
-0.0709252
-0.0800355
-0.091852
-0.102398
-0.107269
-0.10423
-0.0943991
-0.0816601
-0.0695947
-0.0601251
-0.0538543
-0.0510793
-0.0966875
-0.0842883
-0.076913
-0.0739089
-0.0752532
-0.0814328
-0.0919696
-0.104192
-0.113742
-0.116703
-0.111734
-0.100902
-0.0881768
-0.0772287
-0.0698326
-0.0662166
-0.0664947
-0.0713469
-0.0808754
-0.0931119
-0.104012
-0.109088
-0.106044
-0.0959897
-0.0828781
-0.0703884
-0.0605073
-0.0538441
-0.0506811
-0.096998
-0.0842524
-0.0765572
-0.0732394
-0.0742376
-0.080013
-0.0901144
-0.101952
-0.111273
-0.114229
-0.109472
-0.0990018
-0.0866981
-0.0761646
-0.0691474
-0.0658806
-0.0665077
-0.0717389
-0.0816842
-0.0943418
-0.105601
-0.110889
-0.107847
-0.0975729
-0.0840894
-0.0711739
-0.0608805
-0.0538263
-0.0502786
-0.0972822
-0.0841938
-0.0761813
-0.0725523
-0.0732071
-0.0785809
-0.0882498
-0.0997066
-0.108802
-0.111754
-0.107211
-0.0970984
-0.0852103
-0.0750854
-0.0684416
-0.0655199
-0.0664928
-0.0721
-0.0824605
-0.09554
-0.107162
-0.11267
-0.109637
-0.0991481
-0.0852934
-0.071951
-0.0612449
-0.0538014
-0.0498725
-0.0975413
-0.0841139
-0.075787
-0.0718494
-0.0721637
-0.0771389
-0.0863786
-0.097458
-0.106331
-0.109281
-0.10495
-0.0951922
-0.0837141
-0.0739913
-0.0677152
-0.0651341
-0.0664492
-0.0724291
-0.0832025
-0.0967044
-0.108694
-0.114428
-0.111412
-0.100714
-0.0864899
-0.07272
-0.0616009
-0.0537699
-0.0494635
-0.0977764
-0.084014
-0.0753757
-0.0711324
-0.0711095
-0.0756895
-0.0845034
-0.0952089
-0.103862
-0.106813
-0.102692
-0.0932844
-0.0822102
-0.0728827
-0.0669681
-0.064723
-0.0663761
-0.0727251
-0.0839088
-0.0978333
-0.110194
-0.116163
-0.113172
-0.102271
-0.0876786
-0.0734809
-0.0619489
-0.0537323
-0.0490524
-0.0979886
-0.0838954
-0.0749491
-0.0704032
-0.0700465
-0.074235
-0.0826269
-0.092962
-0.101398
-0.10435
-0.100438
-0.091376
-0.0806992
-0.0717599
-0.0662006
-0.0642863
-0.0662731
-0.0729869
-0.0845779
-0.0989249
-0.111661
-0.117873
-0.114915
-0.103817
-0.0888592
-0.0742339
-0.0622893
-0.0536893
-0.0486397
-0.0981791
-0.0837596
-0.0745087
-0.0696635
-0.0689767
-0.0727775
-0.0807514
-0.0907199
-0.0989416
-0.101895
-0.0981903
-0.089468
-0.079182
-0.0706234
-0.0654128
-0.0638239
-0.0661395
-0.0732134
-0.0852082
-0.0999773
-0.113093
-0.119555
-0.11664
-0.105351
-0.0900314
-0.0749789
-0.0626223
-0.0536412
-0.048226
-0.0983491
-0.0836079
-0.0740561
-0.0689149
-0.067902
-0.0713194
-0.0788794
-0.0884849
-0.0964945
-0.0994498
-0.0959491
-0.0875615
-0.0776592
-0.0694736
-0.0646048
-0.0633356
-0.0659748
-0.0734038
-0.0857985
-0.100989
-0.114488
-0.121208
-0.118345
-0.106873
-0.0911948
-0.0757162
-0.0629483
-0.0535887
-0.047812
-0.0984997
-0.0834417
-0.0735928
-0.0681592
-0.0668243
-0.0698627
-0.0770131
-0.0862595
-0.0940591
-0.0970157
-0.0937164
-0.0856576
-0.0761317
-0.0683112
-0.063777
-0.0628215
-0.0657786
-0.0735571
-0.0863473
-0.101958
-0.115844
-0.12283
-0.120028
-0.108382
-0.0923492
-0.0764459
-0.0632678
-0.0535321
-0.0473982
-0.098632
-0.0832624
-0.0731203
-0.067398
-0.0657454
-0.0684095
-0.0751549
-0.0840457
-0.0916373
-0.0945947
-0.0914933
-0.0837572
-0.0746002
-0.0671366
-0.0629296
-0.0622814
-0.0655505
-0.0736725
-0.0868535
-0.102883
-0.117159
-0.124419
-0.121689
-0.109876
-0.0934942
-0.077168
-0.0635809
-0.053472
-0.0469853
-0.0987473
-0.0830712
-0.0726401
-0.0666329
-0.0646671
-0.0669617
-0.0733068
-0.0818459
-0.0892312
-0.0921885
-0.0892813
-0.0818614
-0.0730655
-0.0659504
-0.062063
-0.0617155
-0.0652902
-0.0737493
-0.0873158
-0.103762
-0.118432
-0.125975
-0.123326
-0.111356
-0.0946296
-0.0778827
-0.0638882
-0.0534089
-0.0465737
-0.0988468
-0.0828695
-0.0721537
-0.0658655
-0.0635911
-0.0655212
-0.0714709
-0.079662
-0.0868427
-0.0897986
-0.0870816
-0.0799713
-0.0715285
-0.0647533
-0.0611776
-0.0611239
-0.0649974
-0.0737868
-0.0877331
-0.104594
-0.119661
-0.127494
-0.124937
-0.11282
-0.0957549
-0.07859
-0.0641899
-0.0533432
-0.046164
-0.0989315
-0.0826587
-0.0716624
-0.0650972
-0.062519
-0.0640899
-0.0696491
-0.0774961
-0.0844735
-0.0874265
-0.0848955
-0.0780879
-0.06999
-0.063546
-0.0602738
-0.0605066
-0.0646719
-0.0737843
-0.0881043
-0.105377
-0.120844
-0.128976
-0.126522
-0.114267
-0.0968698
-0.0792902
-0.0644864
-0.0532754
-0.0457566
-0.0990027
-0.0824399
-0.0711678
-0.0643297
-0.0614524
-0.0626694
-0.0678432
-0.07535
-0.0821255
-0.0850738
-0.0827241
-0.0762121
-0.0684509
-0.062329
-0.0593522
-0.059864
-0.0643136
-0.0737414
-0.0884286
-0.106111
-0.12198
-0.130419
-0.128079
-0.115697
-0.0979741
-0.0799832
-0.064778
-0.0532059
-0.0453521
-0.0990615
-0.0822144
-0.0706711
-0.0635643
-0.060393
-0.0612615
-0.066055
-0.0732255
-0.0798003
-0.0827418
-0.0805686
-0.074345
-0.0669119
-0.0611032
-0.0584132
-0.0591964
-0.0639225
-0.0736576
-0.0887049
-0.106793
-0.123067
-0.131822
-0.129606
-0.117108
-0.0990674
-0.0806693
-0.0650651
-0.0531351
-0.0449509
-0.0991089
-0.0819835
-0.0701737
-0.0628024
-0.059342
-0.0598676
-0.0642862
-0.0711242
-0.0774995
-0.080432
-0.0784302
-0.0724876
-0.0653741
-0.0598694
-0.0574575
-0.058504
-0.0634986
-0.0735325
-0.0889326
-0.107423
-0.124105
-0.133182
-0.131102
-0.118499
-0.100149
-0.0813484
-0.065348
-0.0530635
-0.0445534
-0.0991462
-0.0817483
-0.0696768
-0.0620453
-0.058301
-0.0584893
-0.0625383
-0.0690477
-0.0752246
-0.0781456
-0.0763101
-0.0706407
-0.0638383
-0.0586282
-0.0564856
-0.0577872
-0.063042
-0.0733658
-0.0891108
-0.108
-0.12509
-0.134499
-0.132567
-0.119871
-0.101219
-0.0820207
-0.065627
-0.0529915
-0.04416
-0.0991744
-0.08151
-0.0691816
-0.0612944
-0.0572713
-0.0571279
-0.0608126
-0.0669975
-0.0729771
-0.0758839
-0.0742092
-0.0688055
-0.0623053
-0.0573806
-0.0554984
-0.0570466
-0.0625527
-0.0731573
-0.089239
-0.108522
-0.126023
-0.135771
-0.133998
-0.121222
-0.102278
-0.0826863
-0.0659025
-0.0529194
-0.0437712
-0.0991945
-0.0812697
-0.0686894
-0.0605508
-0.0562542
-0.0557849
-0.0591107
-0.0649751
-0.0707583
-0.0736482
-0.0721286
-0.0669828
-0.0607762
-0.0561273
-0.0544964
-0.0562826
-0.0620312
-0.0729068
-0.0893167
-0.108988
-0.126902
-0.136997
-0.135395
-0.12255
-0.103323
-0.0833451
-0.0661746
-0.0528477
-0.0433873
-0.0992076
-0.0810286
-0.0682013
-0.0598158
-0.0552508
-0.0544615
-0.0574337
-0.0629816
-0.0685695
-0.0714396
-0.0700694
-0.0651735
-0.0592516
-0.0548693
-0.0534804
-0.0554958
-0.0614776
-0.0726145
-0.0893434
-0.109399
-0.127726
-0.138176
-0.136756
-0.123856
-0.104356
-0.0839974
-0.0664439
-0.0527768
-0.0430086
-0.0992147
-0.0807875
-0.0677184
-0.0590906
-0.0542623
-0.0531587
-0.0557828
-0.0610182
-0.0664118
-0.0692593
-0.0680324
-0.0633786
-0.0577327
-0.0536074
-0.0524513
-0.0546868
-0.0608923
-0.0722802
-0.0893187
-0.109752
-0.128493
-0.139306
-0.138081
-0.125138
-0.105375
-0.084643
-0.0667105
-0.0527069
-0.0426355
-0.0992168
-0.0805476
-0.0672417
-0.058376
-0.0532899
-0.0518779
-0.054159
-0.0590861
-0.0642865
-0.0671082
-0.0660188
-0.0615988
-0.0562201
-0.0523424
-0.0514098
-0.0538563
-0.0602758
-0.0719041
-0.0892424
-0.110048
-0.129204
-0.140386
-0.139367
-0.126396
-0.106381
-0.0852822
-0.0669747
-0.0526384
-0.0422683
-0.0992148
-0.0803098
-0.0667722
-0.0576733
-0.0523345
-0.0506199
-0.0525634
-0.0571861
-0.0621944
-0.0649876
-0.0640294
-0.0598351
-0.0547149
-0.0510754
-0.0503568
-0.0530049
-0.0596285
-0.0714865
-0.0891144
-0.110286
-0.129856
-0.141416
-0.140614
-0.127628
-0.107373
-0.0859148
-0.0672368
-0.0525717
-0.0419073
-0.0992096
-0.0800751
-0.0663108
-0.0569834
-0.0513971
-0.0493857
-0.0509968
-0.0553193
-0.0601366
-0.0628982
-0.0620652
-0.0580884
-0.0532179
-0.0498073
-0.0492933
-0.0521336
-0.0589512
-0.0710276
-0.0889345
-0.110465
-0.13045
-0.142394
-0.141821
-0.128834
-0.10835
-0.0865408
-0.0674971
-0.052507
-0.0415527
-0.0992021
-0.0798442
-0.0658584
-0.0563071
-0.0504787
-0.0481764
-0.0494601
-0.0534863
-0.0581139
-0.0608411
-0.0601269
-0.0563594
-0.0517299
-0.0485389
-0.04822
-0.051243
-0.0582443
-0.0705279
-0.0887029
-0.110586
-0.130984
-0.143319
-0.142987
-0.130013
-0.109313
-0.0871604
-0.0677558
-0.0524448
-0.0412049
-0.0796182
-0.0654159
-0.0556453
-0.0495799
-0.0469926
-0.0479539
-0.0516878
-0.0561272
-0.0588171
-0.0582156
-0.0546489
-0.0502519
-0.0472712
-0.0471379
-0.050334
-0.0575086
-0.0699877
-0.0884197
-0.110647
-0.131459
-0.14419
-0.144111
-0.131164
-0.11026
-0.0877734
-0.0680131
-0.0523852
-0.040864
-0.0793977
-0.064984
-0.0549989
-0.0487017
-0.0458352
-0.0464789
-0.0499245
-0.0541769
-0.056827
-0.0563321
-0.0529578
-0.0487846
-0.0460052
-0.0460481
-0.0494075
-0.0567448
-0.0694076
-0.088085
-0.110649
-0.131873
-0.145008
-0.145191
-0.132286
-0.111191
-0.0883798
-0.0682694
-0.0523286
-0.0405304
-0.0791836
-0.0645634
-0.0543685
-0.0478448
-0.0447048
-0.0450357
-0.0481968
-0.0522639
-0.0548716
-0.0544773
-0.0512868
-0.0473289
-0.0447418
-0.0449514
-0.0484645
-0.0559539
-0.0687883
-0.0876992
-0.110592
-0.132225
-0.14577
-0.146228
-0.133378
-0.112106
-0.0889796
-0.0685247
-0.0522752
-0.0402041
-0.0789766
-0.0641549
-0.0537548
-0.0470098
-0.0436023
-0.043625
-0.0465051
-0.0503886
-0.0529516
-0.0526521
-0.0496368
-0.0458857
-0.043482
-0.043849
-0.047506
-0.0551366
-0.0681305
-0.0872627
-0.110475
-0.132517
-0.146476
-0.14722
-0.13444
-0.113005
-0.0895727
-0.0687793
-0.0522253
-0.0398855
-0.0787773
-0.063759
-0.0531585
-0.0461973
-0.042528
-0.042247
-0.0448497
-0.0485514
-0.0510676
-0.0508552
-0.0480085
-0.0444557
-0.0422266
-0.0427417
-0.0465328
-0.0542939
-0.0674348
-0.0867761
-0.110299
-0.132747
-0.147126
-0.148165
-0.135471
-0.113886
-0.0901589
-0.0690333
-0.0521792
-0.0395746
-0.0785865
-0.0633763
-0.0525801
-0.0454079
-0.0414827
-0.0409023
-0.0432307
-0.0467526
-0.0492204
-0.0490899
-0.0464026
-0.0430397
-0.0409767
-0.0416306
-0.0455461
-0.0534267
-0.0667023
-0.0862398
-0.110064
-0.132915
-0.147719
-0.149065
-0.13647
-0.114749
-0.0907383
-0.0692871
-0.052137
-0.0392717
-0.0784048
-0.0630074
-0.0520202
-0.0446421
-0.0404668
-0.0395913
-0.0416485
-0.0449925
-0.0474103
-0.0473964
-0.0448201
-0.0416387
-0.0397332
-0.0405168
-0.0445469
-0.0525362
-0.0659338
-0.0856545
-0.10977
-0.133022
-0.148255
-0.149927
-0.137436
-0.115594
-0.0913106
-0.0695406
-0.052099
-0.0389769
-0.0782326
-0.0626527
-0.0514791
-0.0439003
-0.0394806
-0.0383143
-0.0401029
-0.0432711
-0.0456375
-0.0456829
-0.0432617
-0.0402534
-0.038497
-0.0394013
-0.0435364
-0.0516234
-0.0651302
-0.0850211
-0.109419
-0.133067
-0.148734
-0.15073
-0.138368
-0.116421
-0.0918758
-0.069794
-0.0520654
-0.0386904
-0.0780703
-0.0623125
-0.0509571
-0.0431828
-0.0385246
-0.0370716
-0.0385939
-0.0415885
-0.0439023
-0.0440023
-0.0417288
-0.0388847
-0.037269
-0.0382851
-0.0425155
-0.0506893
-0.0642927
-0.0843404
-0.109009
-0.133051
-0.149154
-0.151483
-0.139266
-0.117228
-0.0924336
-0.0700474
-0.0520363
-0.0384123
-0.0779187
-0.0619874
-0.0504548
-0.0424902
-0.0375993
-0.0358635
-0.0371216
-0.0399446
-0.0422054
-0.0423608
-0.0402221
-0.0375335
-0.0360503
-0.0371693
-0.0414855
-0.0497353
-0.0634223
-0.0836132
-0.108543
-0.132973
-0.149516
-0.152186
-0.140128
-0.118015
-0.0929839
-0.070301
-0.0520121
-0.0381427
-0.0777797
-0.0616788
-0.0499732
-0.0418233
-0.0367053
-0.0346907
-0.0356864
-0.0383398
-0.0405477
-0.0407586
-0.0387426
-0.0362008
-0.034842
-0.0360551
-0.0404476
-0.0487624
-0.0625202
-0.0828406
-0.10802
-0.132833
-0.14982
-0.152839
-0.140955
-0.118782
-0.0935266
-0.0705551
-0.0519931
-0.0378821
-0.0776543
-0.0613875
-0.0495128
-0.0411824
-0.0358428
-0.033553
-0.0342875
-0.0367733
-0.0389293
-0.0391943
-0.0372917
-0.034888
-0.0336451
-0.0349437
-0.0394029
-0.0477719
-0.0615877
-0.0820235
-0.107441
-0.132633
-0.150064
-0.153442
-0.141744
-0.119529
-0.094062
-0.0708101
-0.0519796
-0.0376304
-0.0775348
-0.061107
-0.0490683
-0.0405633
-0.0350084
-0.0324478
-0.0329218
-0.0352413
-0.0373466
-0.037665
-0.0358688
-0.0335955
-0.0324606
-0.0338361
-0.0383527
-0.0467652
-0.060626
-0.0811632
-0.106807
-0.132372
-0.150251
-0.153995
-0.142498
-0.120255
-0.094589
-0.0710642
-0.0519698
-0.037386
-0.0774062
-0.0608261
-0.0486316
-0.0399604
-0.0341991
-0.0313739
-0.0315881
-0.0337403
-0.035794
-0.0361641
-0.0344696
-0.0323208
-0.0312874
-0.032732
-0.0372972
-0.0457429
-0.0596365
-0.0802618
-0.106121
-0.132055
-0.150385
-0.154505
-0.143217
-0.120958
-0.0951029
-0.0713129
-0.0519601
-0.0371466
-0.0773
-0.060573
-0.0482269
-0.0393949
-0.0334337
-0.030349
-0.0303053
-0.0322912
-0.0342923
-0.0347076
-0.0331044
-0.0310693
-0.030128
-0.0316333
-0.036238
-0.0447067
-0.0586208
-0.0793206
-0.105384
-0.13168
-0.150459
-0.154956
-0.143887
-0.121628
-0.0956024
-0.0715613
-0.0519586
-0.0369202
-0.0773554
-0.0604571
-0.0479393
-0.0389318
-0.0327588
-0.0294065
-0.0291072
-0.0309443
-0.0329122
-0.0333748
-0.0318392
-0.0298867
-0.0290123
-0.0305605
-0.0351914
-0.0436676
-0.0575809
-0.078329
-0.104569
-0.131201
-0.150408
-0.155275
-0.144465
-0.122266
-0.0961173
-0.0718503
-0.0520043
-0.0367389
-0.0775518
-0.0604423
-0.0477237
-0.0385184
-0.0321117
-0.0284708
-0.0279063
-0.029611
-0.0315845
-0.032136
-0.0306794
-0.0287967
-0.0279672
-0.0295369
-0.0341757
-0.0426377
-0.0565167
-0.0772681
-0.103636
-0.130567
-0.150203
-0.155476
-0.145012
-0.122943
-0.0967029
-0.0722085
-0.0521039
-0.0365951
-0.076992
-0.0597874
-0.0469732
-0.0376613
-0.0311035
-0.0272219
-0.0263532
-0.0278066
-0.0296712
-0.0302884
-0.0290341
-0.0273904
-0.0267284
-0.0283766
-0.033036
-0.0415065
-0.05542
-0.0762841
-0.102918
-0.130308
-0.150512
-0.156251
-0.145949
-0.123763
-0.0972267
-0.0723895
-0.0519902
-0.0362475
-0.0740304
-0.0569521
-0.0442155
-0.0349572
-0.0284039
-0.024232
-0.0225575
-0.0228598
-0.0236748
-0.0237567
-0.0228981
-0.0221862
-0.022335
-0.0244375
-0.0292424
-0.037934
-0.0525675
-0.0748088
-0.10333
-0.132716
-0.154427
-0.16084
-0.149576
-0.125977
-0.0980713
-0.07217
-0.0510876
-0.0349273
-0.02337
-0.0698989
-0.05337
-0.0409404
-0.0317667
-0.025092
-0.0206291
-0.0185636
-0.0185481
-0.019294
-0.0195409
-0.0190583
-0.0182783
-0.0186636
-0.0210223
-0.0260925
-0.0351078
-0.0501579
-0.0729087
-0.102024
-0.132036
-0.15425
-0.160919
-0.149787
-0.125866
-0.0974219
-0.0710257
-0.0495782
-0.0331503
-0.0213633
-0.0656428
-0.0496859
-0.0375888
-0.0285423
-0.0218275
-0.0171777
-0.0147922
-0.0144544
-0.0150606
-0.0153568
-0.0150835
-0.0146728
-0.0153463
-0.0179849
-0.0233542
-0.03267
-0.0479539
-0.070818
-0.100008
-0.130266
-0.153033
-0.160419
-0.149492
-0.125335
-0.0964901
-0.0696938
-0.0479486
-0.031315
-0.0193622
-0.06123
-0.0459138
-0.0341964
-0.0253247
-0.0186242
-0.0138359
-0.0111567
-0.0104721
-0.0108363
-0.0110974
-0.010999
-0.0109084
-0.0118721
-0.0147677
-0.0203617
-0.0298862
-0.045345
-0.0683334
-0.0977019
-0.128397
-0.151855
-0.159743
-0.148798
-0.124381
-0.0951975
-0.0681087
-0.0461647
-0.0294015
-0.0173395
-0.0567008
-0.0420812
-0.0307873
-0.0221353
-0.0154978
-0.0106208
-0.0076936
-0.00669271
-0.00683141
-0.00707986
-0.00710123
-0.00723749
-0.00842795
-0.0115002
-0.0172172
-0.0268493
-0.0424216
-0.0655446
-0.0951521
-0.126288
-0.150237
-0.158335
-0.14743
-0.122865
-0.0934965
-0.0662601
-0.044229
-0.027418
-0.0153089
-0.0520892
-0.0382144
-0.0273829
-0.0189896
-0.0124596
-0.00754319
-0.00441796
-0.00314083
-0.00308421
-0.00332007
-0.0034491
-0.00377825
-0.00514302
-0.00832552
-0.0140925
-0.0237511
-0.0393483
-0.0625088
-0.0922246
-0.123596
-0.147825
-0.156117
-0.145331
-0.120763
-0.0913782
-0.0641459
-0.0421448
-0.0253708
-0.0132774
-0.0474322
-0.0343402
-0.0240035
-0.0159025
-0.00951959
-0.00461032
-0.00133593
0.000179804
0.000413705
0.000197402
-3.76874e-05
-0.000536467
-0.00203695
-0.00528294
-0.011046
-0.0206582
-0.0361711
-0.0592071
-0.0888156
-0.120203
-0.144597
-0.153093
-0.142484
-0.11806
-0.0888347
-0.0617653
-0.0399166
-0.0232661
-0.0112507
-0.0427666
-0.0304847
-0.020669
-0.0128881
-0.00668667
-0.00182715
0.00154934
0.00326763
0.00366345
0.0034697
0.00313822
0.00249568
0.000893933
-0.00237379
-0.00808038
-0.0175704
-0.0328818
-0.0556221
-0.0849173
-0.116139
-0.14058
-0.149238
-0.138868
-0.114744
-0.0858633
-0.0591214
-0.0375504
-0.021111
-0.00923493
-0.0381286
-0.026673
-0.0173979
-0.00995949
-0.00396849
0.00080289
0.00423656
0.00612158
0.00666416
0.00649579
0.00608037
0.0053184
0.00364762
0.000399068
-0.00519713
-0.0144882
-0.0294843
-0.0517714
-0.0805688
-0.111437
-0.135763
-0.144527
-0.134471
-0.110815
-0.0824686
-0.0562213
-0.0350546
-0.0189138
-0.00723656
-0.0335527
-0.0229288
-0.0142075
-0.00712874
-0.0013716
0.00327789
0.00672641
0.00874264
0.00941752
0.00927827
0.00879093
0.00793083
0.0062195
0.00302771
-0.00240743
-0.0114278
-0.0260035
-0.047691
-0.0758028
-0.106101
-0.130136
-0.138955
-0.129297
-0.106282
-0.0786627
-0.0530768
-0.0324395
-0.0166834
-0.0052624
-0.0290715
-0.0192739
-0.0111134
-0.00440658
0.00109857
0.00559742
0.00902174
0.0111342
0.0119274
0.011822
0.0112751
0.0103352
0.00860705
0.00550417
0.000274271
-0.00841198
-0.022471
-0.0434155
-0.070642
-0.100141
-0.123709
-0.132535
-0.123365
-0.101167
-0.074466
-0.0497042
-0.0297176
-0.0144293
-0.0033195
-0.0247144
-0.015728
-0.00812938
-0.0018024
0.00343769
0.00776242
0.0111274
0.013302
0.0141994
0.0141339
0.0135413
0.012537
0.0108111
0.00782335
0.00283542
-0.00546228
-0.0189167
-0.038977
-0.0651163
-0.0935891
-0.116517
-0.125302
-0.116712
-0.0955055
-0.0699077
-0.0461249
-0.0269035
-0.012162
-0.00141496
-0.0205075
-0.0123086
-0.00526718
0.000675938
0.00564246
0.00977502
0.01305
0.015254
0.0162411
0.0162223
0.0155988
0.0145447
0.0128361
0.00998365
0.00526653
-0.00259778
-0.0153695
-0.0344122
-0.0592709
-0.0864961
-0.108612
-0.117311
-0.109391
-0.089345
-0.0650255
-0.0423654
-0.0240142
-0.00989219
0.000444197
-0.0164733
-0.00903069
-0.00253649
0.00302217
0.00771062
0.0116383
0.0147976
0.0170002
0.0180614
0.0180966
0.0174586
0.016369
0.0146894
0.0119866
0.00756074
0.000163858
-0.0118595
-0.0297651
-0.0531622
-0.0789282
-0.100069
-0.108644
-0.101479
-0.0827479
-0.0598659
-0.0384567
-0.0210684
-0.00763115
0.00225115
-0.0126301
-0.00590666
5.5016e-05
0.00523176
0.00964089
0.013356
0.0163794
0.0185522
0.0196709
0.0197665
0.0191327
0.0180224
0.0163813
0.0138365
0.00971327
0.00280592
-0.00841807
-0.0250831
-0.0468544
-0.070967
-0.0909852
-0.0994002
-0.09307
-0.0757898
-0.0544828
-0.0344339
-0.0180868
-0.00539032
0.00399949
-0.00899241
-0.0029466
0.00250163
0.00730188
0.011433
0.0149325
0.0178052
0.0199233
0.0210814
0.0212422
0.0206323
0.0195184
0.0179233
0.0155396
0.0117213
0.0053133
-0.00507563
-0.020415
-0.0404185
-0.0627094
-0.0814767
-0.0897044
-0.084275
-0.0685574
-0.0489368
-0.0303359
-0.0150914
-0.00318121
0.00568333
-0.00557077
-0.000158088
0.00479943
0.0092314
0.0130879
0.0163722
0.0190852
0.0211278
0.0223064
0.0225338
0.0219674
0.020869
0.0193275
0.017103
0.0135838
0.0076737
-0.00185948
-0.0158086
-0.0339308
-0.0542655
-0.0716838
-0.0797002
-0.0752173
-0.0611463
-0.0432938
-0.0262038
-0.0121056
-0.00101532
0.0072975
-0.00237208
0.00245363
0.0069462
0.0110207
0.0146074
0.0176799
0.0202292
0.0221803
0.0233608
0.0236523
0.0231469
0.022084
0.0206044
0.0185345
0.0153018
0.00987854
0.00120757
-0.0113096
-0.0274714
-0.0457565
-0.0617596
-0.0695446
-0.0660348
-0.0536596
-0.0376223
-0.0220801
-0.00915292
0.00109613
0.00883758
0.000600186
0.00488555
0.00894116
0.0126716
0.0159946
0.0188607
0.0212466
0.0230951
0.0242599
0.0246093
0.0241778
0.0231705
0.0217623
0.0198405
0.0168778
0.0119238
0.00410874
-0.0069594
-0.0211209
-0.0373103
-0.0518665
-0.0594073
-0.0568744
-0.0462034
-0.0319918
-0.0180071
-0.00625711
0.00314223
0.0103
0.00334557
0.00713683
0.0107849
0.0141869
0.0172539
0.0199198
0.0221462
0.0238859
0.02502
0.0254168
0.025067
0.0241337
0.0228067
0.0210269
0.0183164
0.0138107
0.0068349
-0.00279271
-0.0149574
-0.0290582
-0.0421736
-0.0494636
-0.0478822
-0.0388825
-0.0264699
-0.0140259
-0.00344101
0.00511268
0.0116821
0.00586629
0.00920856
0.0124793
0.0155704
0.0183903
0.0208628
0.0229358
0.0245653
0.0256567
0.0260885
0.025822
0.0249765
0.0237408
0.0220986
0.0196245
0.0155471
0.00938604
0.00116463
-0.00905422
-0.0211293
-0.0328487
-0.0398831
-0.039198
-0.0317958
-0.0211197
-0.0101743
-0.000726011
0.00699786
0.0129819
0.00816686
0.0111036
0.0140271
0.0168266
0.0194097
0.0216961
0.0236227
0.0251444
0.0261849
0.0266389
0.0264516
0.0257025
0.0245672
0.0230609
0.0208124
0.0171476
0.0117722
0.00489715
-0.00347625
-0.013646
-0.02405
-0.0308222
-0.030948
-0.0250321
-0.0159978
-0.00648629
0.00186867
0.0087891
0.0141983
0.0102537
0.0128265
0.0154325
0.0179603
0.0203185
0.0224262
0.024214
0.0256326
0.0266181
0.0270828
0.0269668
0.0263168
0.0252896
0.0239211
0.021894
0.0186335
0.0140132
0.00840042
0.00172182
-0.00671806
-0.0159172
-0.0224142
-0.0232378
-0.0186657
-0.0111519
-0.00299045
0.00432657
0.0104788
0.015331
0.0121347
0.0143828
0.0167001
0.0189768
0.0211232
0.0230604
0.0247165
0.026038
0.026968
0.0274345
0.0273801
0.0268279
0.0259141
0.024688
0.0228857
0.0200306
0.0161362
0.0116794
0.00649687
-0.000437008
-0.00856138
-0.0147592
-0.0161458
-0.0127533
-0.00661968
0.000290386
0.00663447
0.0120609
0.01638
0.0138192
0.0157795
0.0178357
0.0198817
0.0218303
0.0236058
0.0251371
0.0263679
0.0272445
0.0277066
0.0277047
0.027246
0.0264491
0.0253715
0.0238037
0.0213634
0.018168
0.0147416
0.0108161
0.00513073
-0.00205396
-0.00791595
-0.00971917
-0.00733278
-0.0024282
0.00333952
0.00878266
0.0135306
0.0173458
0.0153171
0.017024
0.0188455
0.020681
0.0224463
0.0240696
0.0254828
0.0266289
0.0274554
0.0279104
0.0279495
0.027583
0.0269041
0.0259809
0.024659
0.0226464
0.0201218
0.0175844
0.014653
0.00995058
0.00358102
-0.00189883
-0.00397383
-0.00242338
0.001406
0.00614634
0.010765
0.014885
0.0182294
0.0166393
0.0181246
0.0197363
0.0213805
0.0229773
0.0244587
0.0257606
0.0268274
0.0276078
0.0280552
0.0281327
0.0278505
0.027289
0.0265232
0.0254547
0.0238755
0.0219826
0.0201815
0.0179851
0.0140244
0.0083699
0.0033185
0.00110006
0.00197172
0.00487606
0.00870593
0.0125789
0.016123
0.0190321
0.017797
0.0190897
0.0205151
0.0219867
0.0234295
0.0247794
0.0259772
0.0269697
0.0277076
0.0281483
0.0282619
0.0280585
0.0276118
0.0270024
0.0261848
0.0250258
0.0237035
0.0224828
0.0207961
0.0173899
0.0123808
0.00779179
0.00553011
0.00586178
0.00798354
0.0110185
0.014225
0.0172453
0.0197557
0.0188016
0.0199283
0.0211891
0.0225059
0.0238086
0.025038
0.0261388
0.0270618
0.0277604
0.0281957
0.0283433
0.0282146
0.0278785
0.0274196
0.0268375
0.0260599
0.0252208
0.024432
0.0230861
0.0201137
0.0157033
0.0115891
0.00935543
0.0092661
0.0107373
0.013089
0.0157065
0.0182543
0.0204025
0.0196645
0.0206492
0.0217657
0.0229442
0.0241206
0.0252398
0.0262512
0.0271095
0.0277717
0.0282026
0.0283824
0.0283242
0.0280927
0.0277738
0.0274003
0.0269427
0.0264813
0.0259957
0.0248821
0.0222782
0.0184291
0.0147793
0.0126207
0.0122113
0.0131522
0.0149259
0.0170294
0.0191541
0.0209752
0.0203972
0.0212612
0.022252
0.0233079
0.0243708
0.0253902
0.0263196
0.027118
0.0277464
0.0281735
0.0283836
0.0283911
0.0282563
0.0280631
0.0278641
0.0276541
0.0274639
0.0271791
0.0262364
0.0239675
0.02064
0.0174269
0.0153727
0.0147296
0.0152481
0.0165409
0.0182011
0.01995
0.0214772
0.0210108
0.0217732
0.0226553
0.023603
0.0245645
0.0254939
0.0263488
0.0270922
0.0276891
0.0281127
0.0283506
0.0284181
0.0283705
0.0282863
0.0282254
0.0281929
0.0281808
0.0280221
0.0272166
0.0252582
0.0224049
0.0195911
0.0176617
0.016858
0.0170489
0.0179483
0.0192304
0.0206482
0.0219128
0.0215159
0.0221936
0.0229823
0.0238354
0.0247069
0.0255555
0.026343
0.0270362
0.027604
0.028024
0.0282865
0.0284074
0.028436
0.0284429
0.0284861
0.0285719
0.0286661
0.0285819
0.027892
0.0262169
0.0237844
0.0213298
0.0195403
0.0186364
0.0185807
0.0191637
0.0201272
0.0212556
0.0222864
0.021923
0.0225306
0.0232399
0.0240107
0.0248028
0.0255793
0.0263061
0.0269537
0.0274948
0.0279106
0.0281943
0.0283611
0.0284542
0.0285343
0.0286524
0.0288109
0.0289609
0.0289174
0.0283258
0.0269018
0.0248363
0.0227016
0.0210608
0.020105
0.019871
0.0202036
0.0209016
0.0217792
0.022603
0.0222419
0.0227922
0.0234344
0.0241341
0.0248565
0.0255691
0.0262417
0.0268479
0.0273644
0.0277756
0.0280764
0.0282815
0.0284271
0.0285637
0.0287328
0.0289316
0.0291046
0.0290805
0.0285719
0.0273652
0.0256148
0.0237619
0.0222736
0.0213036
0.0209469
0.0210849
0.0215638
0.0222261
0.0228679
0.0224818
0.022986
0.0235719
0.0242106
0.0248723
0.0255286
0.0261527
0.0267219
0.0272156
0.0276214
0.0279354
0.0281709
0.0283576
0.0285361
0.0287377
0.0289548
0.0291308
0.029114
0.0286753
0.0276535
0.0261698
0.0245614
0.02317
0.0222693
0.0218349
0.021824
0.0221241
0.0226033
0.0230861
0.0226515
0.0231191
0.0236583
0.0242451
0.0248542
0.0254611
0.0260423
0.026578
0.0270508
0.0274502
0.0277736
0.0280322
0.0282498
0.0284576
0.0286778
0.0288993
0.0290672
0.0290513
0.0286715
0.0278052
0.0265471
0.0251552
0.0239141
0.0230424
0.0225595
0.0224366
0.0225924
0.0229174
0.0232626
0.0227591
0.0231981
0.023699
0.0242421
0.0248059
0.0253696
0.0259128
0.0264186
0.0268719
0.0272643
0.0275933
0.0278684
0.0281079
0.0283349
0.028564
0.0287811
0.0289358
0.0289183
0.028588
0.0278521
0.0267848
0.025582
0.0244806
0.0236516
0.0231429
0.0229375
0.0229782
0.0231746
0.0234019
0.0228123