/*--------------------------------*- C++ -*----------------------------------*\
  =========                 |
  \\      /  F ield         | OpenFOAM: The Open Source CFD Toolbox
   \\    /   O peration     | Website:  https://openfoam.org
    \\  /    A nd           | Version:  7
     \\/     M anipulation  |
\*---------------------------------------------------------------------------*/
FoamFile
{
    version     2.0;
    format      ascii;
    class       surfaceScalarField;
    location    "160";
    object      phi;
}
// * * * * * * * * * * * * * * * * * * * * * * * * * * * * * * * * * * * * * //

dimensions      [0 3 -1 0 0 0 0];

internalField   nonuniform List<scalar> 
14031
(
0.00134896
-0.00792046
0.00790979
0.00134749
-0.00796917
0.00797063
0.00133206
-0.00799959
0.00801502
0.00130041
-0.00818768
0.00821933
0.00125547
-0.00848772
0.00853267
0.00120654
-0.00854172
0.00859065
0.00116522
-0.00786703
0.00790835
0.00114036
-0.00618245
0.00620731
0.00113632
-0.00359256
0.0035966
0.00115276
-0.000523313
0.000506867
0.00118475
0.00247961
-0.0025116
0.00122446
0.00495865
-0.00499836
0.00126381
0.00667806
-0.00671741
0.00129472
0.00767912
-0.00771003
0.00130936
0.00824227
-0.00825691
0.00130312
0.00869955
-0.00869331
0.00127716
0.00915413
-0.00912817
0.00123803
0.00936781
-0.00932869
0.00119515
0.00892099
-0.00887811
0.00115801
0.00750857
-0.00747143
0.00113448
0.00513033
-0.0051068
0.00112993
0.00209447
-0.00208993
0.00114525
-0.00110074
0.00108541
0.00117462
-0.00396138
0.00393202
0.001206
-0.0061774
0.00614602
0.0012263
-0.00774042
0.00772012
0.0012275
-0.00878848
0.00878728
0.00120961
-0.00943352
0.0094514
-0.00954567
0.00957592
0.00134285
-0.0079296
0.0013402
-0.00796652
0.00132379
-0.00798318
0.00129121
-0.00815509
0.0012454
-0.00844192
0.00119606
-0.00849238
0.0011552
-0.00782617
0.00113184
-0.00615909
0.00113008
-0.0035908
0.00114914
-0.000542372
0.00118365
0.0024451
0.00122557
0.00491673
0.00126672
0.00663692
0.00129898
0.00764686
0.00131469
0.00822656
0.00130941
0.00870483
0.00128431
0.00917923
0.00124569
0.00940643
0.00120268
0.008964
0.00116457
0.00754668
0.00113932
0.00515559
0.00113259
0.0021012
0.0011457
-0.00111385
0.00117319
-0.00398888
0.00120322
-0.00620743
0.00122261
-0.00775982
0.00122318
-0.00878905
0.00120491
-0.00941525
-0.00951536
0.00133655
-0.00793725
0.00133277
-0.00796275
0.00131545
-0.00796586
0.00128199
-0.00812163
0.00123539
-0.00839532
0.00118565
-0.00844265
0.00114523
-0.00778575
0.00112332
-0.00613719
0.0011238
-0.00359128
0.00114542
-0.00056399
0.00118241
0.00240811
0.00122653
0.00487261
0.00126945
0.00659399
0.00130308
0.00761323
0.00131989
0.00820975
0.00131564
0.00870908
0.00129144
0.00920343
0.00125337
0.0094445
0.00121024
0.00900713
0.00117117
0.00758575
0.00114417
0.00518258
0.00113523
0.00211014
0.00114609
-0.00112471
0.00117169
-0.00401447
0.00120036
-0.0062361
0.00121886
-0.00777832
0.00121883
-0.00878902
0.00120021
-0.00939662
-0.00948502
0.00133008
-0.00794344
0.00132521
-0.00795787
0.00130703
-0.00794768
0.00127276
-0.00808737
0.00122542
-0.00834798
0.00117532
-0.00839254
0.00113532
-0.00774575
0.00111482
-0.00611669
0.00111748
-0.00359393
0.0011416
-0.00058811
0.00118104
0.00236867
0.00122731
0.00482634
0.00127201
0.0065493
0.00130701
0.00757823
0.00132496
0.0081918
0.00132177
0.00871227
0.00129853
0.00922667
0.00126105
0.00948198
0.00121783
0.00905035
0.00117781
0.00762578
0.00114905
0.00521134
0.00113787
0.00212132
0.00114645
-0.00113329
0.00117012
-0.00403814
0.00119742
-0.0062634
0.00121504
-0.00779594
0.00121444
-0.00878842
0.00119549
-0.00937767
-0.00945466
0.00132344
-0.0079482
0.00131751
-0.00795194
0.00129854
-0.0079287
0.00126353
-0.00805236
0.0012155
-0.00829995
0.00116506
-0.00834209
0.00112547
-0.00770616
0.00110633
-0.00609756
0.00111111
-0.00359871
0.00113768
-0.000614678
0.00117951
0.00232683
0.00122793
0.00477793
0.00127438
0.00650284
0.00131077
0.00754185
0.00132989
0.00817267
0.00132782
0.00871434
0.00130559
0.0092489
0.00126874
0.00951882
0.00122545
0.00909364
0.00118447
0.00766676
0.00115395
0.00524187
0.0011405
0.00213477
0.00114676
-0.00113955
0.00116848
-0.00405986
0.0011944
-0.00628932
0.00121116
-0.0078127
0.00121002
-0.00878729
0.00119078
-0.00935843
-0.00942432
0.00131664
-0.00795157
0.0013097
-0.007945
0.00128998
-0.00790898
0.00125431
-0.00801669
0.00120565
-0.00825129
0.00115488
-0.00829132
0.00111568
-0.00766696
0.00109785
-0.00607973
0.00110469
-0.00360554
0.00113364
-0.000643636
0.00117784
0.00228264
0.00122836
0.0047274
0.00127657
0.00645463
0.00131434
0.00750407
0.00133467
0.00815235
0.00133377
0.00871523
0.0013126
0.00927008
0.00127643
0.009555
0.0012331
0.00913696
0.00119117
0.00770869
0.00115886
0.00527417
0.00114313
0.0021505
0.00114704
-0.00114347
0.00116678
-0.00407959
0.00119131
-0.00631385
0.00120722
-0.00782861
0.00120558
-0.00878564
0.00118607
-0.00933892
-0.009394
0.00130968
-0.00795357
0.00130176
-0.00793708
0.00128136
-0.00788858
0.00124509
-0.00798042
0.00119586
-0.00820206
0.00114478
-0.00824025
0.00110595
-0.00762813
0.00108938
-0.00606317
0.00109821
-0.00361436
0.0011295
-0.000674924
0.001176
0.00223613
0.00122861
0.0046748
0.00127855
0.00640469
0.00131774
0.00746489
0.00133931
0.00813078
0.00133962
0.00871492
0.00131956
0.00929014
0.0012841
0.00959046
0.00124076
0.0091803
0.00119789
0.00775156
0.0011638
0.00530827
0.00114575
0.00216855
0.0011473
-0.00114501
0.00116502
-0.00409732
0.00118816
-0.00633699
0.00120323
-0.00784368
0.0012011
-0.00878351
0.00118135
-0.00931917
-0.00936374
0.00130257
-0.00795426
0.00129372
-0.00792823
0.00127269
-0.00786756
0.00123589
-0.00794362
0.00118614
-0.00815232
0.00113478
-0.00818889
0.00109628
-0.00758963
0.00108092
-0.00604781
0.00109167
-0.00362512
0.00112523
-0.000708484
0.00117401
0.00218735
0.00122867
0.00462014
0.00128034
0.00635302
0.00132094
0.00742428
0.00134378
0.00810793
0.00134536
0.00871334
0.00132646
0.00930904
0.00129176
0.00962515
0.00124844
0.00922363
0.00120464
0.00779536
0.00116875
0.00534416
0.00114838
0.00218892
0.00114752
-0.00114415
0.00116321
-0.00411301
0.00118494
-0.00635871
0.00119918
-0.00785793
0.0011966
-0.00878093
0.00117663
-0.0092992
-0.00933353
0.00129532
-0.00795365
0.00128556
-0.00791847
0.00126397
-0.00784596
0.0012267
-0.00790635
0.00117649
-0.00810211
0.00112487
-0.00813726
0.00108668
-0.00755144
0.00107246
-0.00603359
0.00108507
-0.00363773
0.00112084
-0.000744254
0.00117184
0.00213635
0.00122853
0.00456345
0.00128192
0.00629963
0.00132395
0.00738225
0.0013481
0.00808378
0.00135098
0.00871045
0.00133329
0.00932673
0.0012994
0.00965904
0.00125612
0.00926691
0.00121141
0.00784007
0.00117373
0.00538184
0.00115101
0.00221164
0.00114772
-0.00114086
0.00116135
-0.00412665
0.00118165
-0.00637901
0.00119508
-0.00787137
0.00119207
-0.00877791
0.00117191
-0.00927905
-0.00930341
0.00128793
-0.00795179
0.00127731
-0.00790785
0.00125519
-0.00782384
0.00121753
-0.00786868
0.00116692
-0.0080515
0.00111505
-0.00808539
0.00107714
-0.00751354
0.00106401
-0.00602045
0.00107841
-0.00365212
0.00111632
-0.000782172
0.0011695
0.00208317
0.00122819
0.00450476
0.00128328
0.00624454
0.00132675
0.00733878
0.00135224
0.0080583
0.00135648
0.00870621
0.00134005
0.00934316
0.00130701
0.00969208
0.00126381
0.0093101
0.0012182
0.00788568
0.00117872
0.00542132
0.00115364
0.00223671
0.0011479
-0.00113512
0.00115945
-0.00413819
0.0011783
-0.00639787
0.00119093
-0.00788399
0.00118751
-0.00877449
0.0011672
-0.00925873
-0.00927339
0.0012804
-0.0079487
0.00126895
-0.00789641
0.00124637
-0.00780126
0.00120838
-0.00783069
0.00115742
-0.00800053
0.00110532
-0.0080333
0.00106768
-0.00747589
0.00105555
-0.00600833
0.00107167
-0.00366824
0.00111167
-0.000822175
0.00116698
0.00202786
0.00122764
0.00444411
0.00128442
0.00618775
0.00132934
0.00729387
0.0013562
0.00803144
0.00136184
0.00870057
0.00134672
0.00935828
0.00131458
0.00972422
0.0012715
0.00935319
0.00122501
0.00793217
0.00118373
0.0054626
0.00115628
0.00226417
0.00114806
-0.0011269
0.0011575
-0.00414763
0.0011749
-0.00641527
0.00118673
-0.00789582
0.00118293
-0.0087707
0.00116248
-0.00923827
-0.00924347
0.00127274
-0.00794443
0.0012605
-0.00788417
0.0012375
-0.00777827
0.00119925
-0.00779244
0.00114799
-0.00794928
0.00109569
-0.00798099
0.00105827
-0.00743847
0.0010471
-0.00599716
0.00106486
-0.003686
0.00110688
-0.0008642
0.00116428
0.00197047
0.00122687
0.00438152
0.00128534
0.00612928
0.00133171
0.00724749
0.00135997
0.00800318
0.00136706
0.00869349
0.0013533
0.00937204
0.00132211
0.00975542
0.00127917
0.00939612
0.00123183
0.00797951
0.00118876
0.00550567
0.00115893
0.002294
0.00114821
-0.00111619
0.00115551
-0.00415492
0.00117144
-0.00643121
0.00118248
-0.00790686
0.00117833
-0.00876654
0.00115776
-0.0092177
-0.00921368
0.00126495
-0.007939
0.00125195
-0.00787117
0.00122859
-0.00775491
0.00119014
-0.00775399
0.00113865
-0.00789779
0.00108616
-0.0079285
0.00104894
-0.00740125
0.00103865
-0.00598688
0.00105797
-0.00370531
0.00110195
-0.000908179
0.00116138
0.00191104
0.00122588
0.00431702
0.00128602
0.00606915
0.00133387
0.00719964
0.00136355
0.00797349
0.00137213
0.00868492
0.00135978
0.00938438
0.00132958
0.00978562
0.00128683
0.00943887
0.00123866
0.00802768
0.00119381
0.00555051
0.00116158
0.00232623
0.00114835
-0.00110295
0.00115348
-0.00416006
0.00116793
-0.00644566
0.00117819
-0.00791712
0.0011737
-0.00876205
0.00115304
-0.00919703
-0.00918402
0.00125704
-0.00793245
0.00124331
-0.00785744
0.00121964
-0.00773123
0.00118106
-0.00771541
0.00112938
-0.00784611
0.00107673
-0.00787585
0.00103967
-0.0073642
0.0010302
-0.00597741
0.00105101
-0.00372612
0.00109688
-0.000954046
0.00115829
0.00184962
0.00122467
0.00425065
0.00128646
0.00600735
0.00133579
0.00715032
0.00136693
0.00794235
0.00137703
0.00867481
0.00136615
0.00939526
0.00133699
0.00981478
0.00129447
0.00948139
0.00124549
0.00807666
0.00119887
0.00559713
0.00116424
0.00236086
0.00114848
-0.00108719
0.00115142
-0.00416301
0.00116437
-0.00645861
0.00117384
-0.00792659
0.00116905
-0.00875726
0.00114831
-0.0091763
-0.00915451
0.00124901
-0.00792481
0.00123458
-0.00784302
0.00121064
-0.00770728
0.00117199
-0.00767676
0.0011202
-0.00779432
0.00106739
-0.00782304
0.00103047
-0.00732728
0.00102175
-0.00596869
0.00104396
-0.00374833
0.00109165
-0.00100173
0.001155
0.00178626
0.00122322
0.00418243
0.00128666
0.00594392
0.00133747
0.00709951
0.0013701
0.00790972
0.00138177
0.00866314
0.0013724
0.00940464
0.00134432
0.00984286
0.00130207
0.00952364
0.00125232
0.00812642
0.00120394
0.00564551
0.00116691
0.00239789
0.00114859
-0.00106887
0.00114934
-0.00416375
0.00116076
-0.00647003
0.00116945
-0.00793528
0.00116437
-0.00875217
0.00114359
-0.00915552
-0.00912516
0.00124086
-0.00791612
0.00122577
-0.00782793
0.00120159
-0.00768311
0.00116295
-0.00763812
0.00111108
-0.00774245
0.00105815
-0.0077701
0.00102134
-0.00729047
0.00101329
-0.00596064
0.00103683
-0.00377186
0.00108626
-0.00105117
0.00115151
0.00172102
0.00122154
0.00411239
0.00128661
0.00587885
0.00133891
0.00704722
0.00137305
0.00787558
0.00138633
0.00864986
0.00137851
0.00941246
0.00135158
0.0098698
0.00130964
0.00956557
0.00125914
0.00817692
0.00120902
0.00569563
0.00116959
0.00243732
0.00114871
-0.00104799
0.00114722
-0.00416226
0.00115711
-0.00647992
0.00116502
-0.00794319
0.00115966
-0.00874682
0.00113886
-0.00913471
-0.00909597
0.00123259
-0.00790641
0.00121687
-0.0078122
0.0011925
-0.00765875
0.00115392
-0.00759953
0.00110205
-0.00769058
0.001049
-0.00771706
0.00101227
-0.00725375
0.00100483
-0.0059532
0.00102961
-0.00379664
0.00108072
-0.00110229
0.0011478
0.00165394
0.00121961
0.00404058
0.0012863
0.00581217
0.00134009
0.00699342
0.00137577
0.0078399
0.0013907
0.00863493
0.00138449
0.00941867
0.00135874
0.00989555
0.00131716
0.00960715
0.00126595
0.00822813
0.0012141
0.00574747
0.00117228
0.00247915
0.00114882
-0.00102453
0.00114508
-0.00415852
0.00115341
-0.00648825
0.00116054
-0.00795031
0.00115494
-0.00874122
0.00113413
-0.00911391
-0.00906697
0.00122422
-0.00789571
0.00120788
-0.00779586
0.00118337
-0.00763424
0.00114491
-0.00756107
0.00109308
-0.00763875
0.00103995
-0.00766393
0.00100327
-0.00721707
0.00099637
-0.0059463
0.0010223
-0.00382256
0.00107502
-0.00115501
0.00114388
0.00158508
0.00121744
0.00396702
0.00128572
0.00574388
0.00134102
0.00693812
0.00137826
0.00780266
0.00139488
0.00861831
0.00139031
0.00942324
0.0013658
0.00992006
0.00132462
0.00964832
0.00127274
0.00828002
0.00121919
0.00580102
0.00117497
0.00252337
0.00114893
-0.00099849
0.00114292
-0.00415252
0.00114967
-0.006495
0.00115601
-0.00795665
0.00115018
-0.00873539
0.00112939
-0.00909311
-0.00903814
0.00121573
-0.00788406
0.00119881
-0.00777894
0.00117419
-0.00760962
0.00113591
-0.00752279
0.00108419
-0.00758703
0.00103099
-0.00761073
0.000994339
-0.00718041
0.000987901
-0.00593986
0.00101489
-0.00384955
0.00106915
-0.00120926
0.00113974
0.00151448
0.00121501
0.00389175
0.00128488
0.00567402
0.00134169
0.00688131
0.00138051
0.00776384
0.00139884
0.00859998
0.00139597
0.0094261
0.00137275
0.00994329
0.00133203
0.00968904
0.00127951
0.00833253
0.00122428
0.00585624
0.00117767
0.00256998
0.00114903
-0.000969852
0.00114074
-0.00414422
0.00114589
-0.00650016
0.00115144
-0.00796221
0.0011454
-0.00872934
0.00112464
-0.00907236
-0.00900951
0.00120713
-0.00787149
0.00118965
-0.00776146
0.00116495
-0.00758492
0.00112692
-0.00748476
0.00107536
-0.00753548
0.00102212
-0.00755749
0.000985469
-0.00714376
0.000979427
-0.00593382
0.0010074
-0.00387752
0.00106311
-0.00126497
0.00113538
0.00144221
0.00121232
0.0038148
0.00128376
0.00560258
0.00134208
0.00682298
0.0013825
0.00772343
0.00140259
0.00857989
0.00140146
0.00942723
0.00137957
0.00996518
0.00133936
0.00972926
0.00128625
0.00838564
0.00122937
0.00591312
0.00118038
0.00261898
0.00114914
-0.000938615
0.00113854
-0.00413362
0.00114207
-0.00650369
0.00114683
-0.00796697
0.00114059
-0.0087231
0.00111989
-0.00905166
-0.00898107
0.00119842
-0.00785803
0.00118041
-0.00774346
0.00115567
-0.00756018
0.00111793
-0.00744702
0.0010666
-0.00748415
0.00101334
-0.00750423
0.000976662
-0.00710708
0.000970947
-0.00592811
0.000999809
-0.00390639
0.00105689
-0.00132206
0.00113079
0.00136832
0.00120937
0.00373622
0.00128237
0.00552959
0.0013422
0.00676315
0.00138424
0.00768139
0.00140611
0.00855801
0.00140677
0.00942658
0.00138626
0.00998569
0.0013466
0.00976892
0.00129295
0.0084393
0.00123445
0.00597162
0.00118309
0.00267034
0.00114924
-0.000904773
0.00113632
-0.00412069
0.00113822
-0.00650559
0.00114217
-0.00797092
0.00113575
-0.00871667
0.00111513
-0.00903104
-0.00895284
0.0011896
-0.00784371
0.00117109
-0.00772494
0.00114633
-0.00753542
0.00110894
-0.00740963
0.0010579
-0.00743311
0.00100465
-0.00745099
0.000967916
-0.00707035
0.000962461
-0.00592265
0.000992125
-0.00393605
0.00105051
-0.00138044
0.00112596
0.00129286
0.00120616
0.00365602
0.00128068
0.00545506
0.00134203
0.0067018
0.0013857
0.00763772
0.0014094
0.00853431
0.00141188
0.0094241
0.00139281
0.0100048
0.00135376
0.00980797
0.00129961
0.00849345
0.00123952
0.00603171
0.0011858
0.00272405
0.00114935
-0.000868325
0.00113409
-0.00410543
0.00113433
-0.00650583
0.00113747
-0.00797406
0.00113088
-0.00871007
0.00111036
-0.00901053
-0.00892483
0.00118068
-0.00782858
0.00116168
-0.00770595
0.00113693
-0.00751066
0.00109995
-0.00737264
0.00104925
-0.00738241
0.000996035
-0.00739777
0.00095923
-0.00703354
0.00095397
-0.00591739
0.000984347
-0.00396643
0.00104395
-0.00144004
0.00112091
0.00121591
0.00120267
0.00357426
0.00127871
0.00537902
0.00134157
0.00663894
0.0013869
0.0075924
0.00141244
0.00850877
0.00141678
0.00941975
0.00139921
0.0100223
0.00136082
0.00984636
0.00130621
0.00854805
0.00124457
0.00609336
0.00118851
0.00278011
0.00114946
-0.000829271
0.00113184
-0.00408781
0.00113041
-0.0065044
0.00113273
-0.00797639
0.00112597
-0.00870331
0.00110557
-0.00899013
-0.00889703
0.00117165
-0.00781265
0.00115219
-0.0076865
0.00112748
-0.00748595
0.00109094
-0.00733611
0.00104065
-0.00733212
0.000987501
-0.00734463
0.000950602
-0.00699664
0.000945472
-0.00591226
0.000976474
-0.00399743
0.00103721
-0.00150078
0.00111561
0.0011375
0.0011989
0.00349097
0.00127644
0.00530148
0.00134082
0.00657456
0.0013878
0.00754541
0.00141522
0.00848136
0.00142147
0.0094135
0.00140543
0.0100384
0.00136776
0.00988403
0.00131276
0.00860305
0.0012496
0.00615652
0.00119122
0.00283848
0.00114957
-0.000787613
0.00112959
-0.00406783
0.00112645
-0.00650126
0.00112794
-0.00797788
0.00112104
-0.00869641
0.00110077
-0.00896986
-0.00886945
0.00116251
-0.00779596
0.00114262
-0.00766661
0.00111796
-0.00746129
0.00108192
-0.00730008
0.0010321
-0.00728229
0.000979042
-0.00729157
0.00094203
-0.00695963
0.000936968
-0.0059072
0.000968507
-0.00402897
0.00103029
-0.00156256
0.00111008
0.00105772
0.00119486
0.00340619
0.00127388
0.00522246
0.00133976
0.00650868
0.00138842
0.00749675
0.00141773
0.00845205
0.00142593
0.0094053
0.00141148
0.0100528
0.00137459
0.00992092
0.00131924
0.0086584
0.0012546
0.00622116
0.00119393
0.00289915
0.00114967
-0.000743355
0.00112732
-0.00404548
0.00112247
-0.00649641
0.00112311
-0.00797852
0.00111606
-0.00868936
0.00109596
-0.00894976
-0.0088421
0.00115326
-0.00777855
0.00113296
-0.00764631
0.00110837
-0.0074367
0.00107288
-0.00726458
0.00102358
-0.00723299
0.000970654
-0.00723865
0.000933511
-0.00692249
0.000928458
-0.00590215
0.000960448
-0.00406096
0.0010232
-0.00162531
0.0011043
0.000976617
0.00119053
0.00331996
0.00127101
0.00514198
0.00133839
0.00644129
0.00138874
0.0074464
0.00141997
0.00842082
0.00143015
0.00939512
0.00141734
0.0100656
0.00138128
0.00995698
0.00132565
0.00871403
0.00125958
0.00628724
0.00119663
0.00296209
0.00114978
-0.000696503
0.00112504
-0.00402074
0.00111845
-0.00648982
0.00111824
-0.0079783
0.00111106
-0.00868218
0.00109113
-0.00892983
-0.00881499
0.0011439
-0.00776043
0.00112321
-0.00762562
0.00109872
-0.0074122
0.00106381
-0.00722967
0.0010151
-0.00718428
0.000962334
-0.00718588
0.000925044
-0.0068852
0.000919941
-0.00589704
0.000952296
-0.00409331
0.00101593
-0.00168894
0.00109828
0.000894261
0.00118592
0.00323233
0.00126783
0.00506007
0.00133671
0.00637241
0.00138875
0.00739437
0.00142192
0.00838765
0.00143411
0.00938292
0.001423
0.0100767
0.00138784
0.00999214
0.00133198
0.00876989
0.00126451
0.00635471
0.00119933
0.00302728
0.00114989
-0.000647067
0.00112276
-0.00399361
0.00111441
-0.00648147
0.00111332
-0.00797721
0.00110601
-0.00867487
0.00108628
-0.00891009
-0.00878811
0.00113444
-0.00774165
0.00111338
-0.00760456
0.00108899
-0.00738781
0.0010547
-0.00719538
0.00100664
-0.00713623
0.000954076
-0.00713332
0.000916624
-0.00684774
0.000911416
-0.00589183
0.000944053
-0.00412595
0.00100847
-0.00175336
0.00109202
0.000810719
0.00118102
0.00314333
0.00126434
0.00497675
0.00133471
0.00630204
0.00138844
0.00734064
0.00142357
0.00835252
0.00143782
0.00936868
0.00142844
0.0100861
0.00139424
0.0100263
0.00133822
0.00882591
0.00126941
0.00642351
0.00120201
0.00309468
0.00115
-0.000595056
0.00112047
-0.00396408
0.00111034
-0.00647135
0.00110836
-0.00797523
0.00110092
-0.00866744
0.0010814
-0.00889057
-0.00876149
0.00112486
-0.00772222
0.00110346
-0.00758316
0.00107919
-0.00736354
0.00104555
-0.00716174
0.0009982
-0.00708888
0.000945877
-0.007081
0.00090825
-0.00681012
0.000902883
-0.00588647
0.000935722
-0.00415879
0.00100085
-0.00181849
0.00108551
0.00072606
0.00117583
0.00305301
0.00126053
0.00489204
0.00133239
0.00623018
0.00138782
0.00728521
0.00142492
0.00831542
0.00144125
0.00935234
0.00143366
0.0100937
0.00140048
0.0100595
0.00134436
0.00888204
0.00127426
0.00649361
0.00120468
0.00316427
0.0011501
-0.000540483
0.00111816
-0.00393214
0.00110624
-0.00645943
0.00110335
-0.00797234
0.0010958
-0.00865988
0.00107651
-0.00887128
-0.00873512
0.00111517
-0.00770219
0.00109345
-0.00756143
0.00106931
-0.0073394
0.00103635
-0.00712878
0.00098977
-0.0070423
0.000937732
-0.00702896
0.000899919
-0.00677231
0.00089434
-0.00588089
0.000927304
-0.00419175
0.000993045
-0.00188423
0.00107875
0.000640356
0.00117034
0.00296141
0.00125641
0.00480598
0.00132973
0.00615686
0.00138686
0.00722808
0.00142595
0.00827633
0.0014444
0.0093339
0.00143865
0.0100995
0.00140655
0.0100916
0.00135039
0.00893821
0.00127906
0.00656494
0.00120732
0.003236
0.0011502
-0.000483363
0.00111586
-0.00389779
0.00110212
-0.00644569
0.00109831
-0.00796852
0.00109063
-0.0086522
0.00107158
-0.00885224
-0.00870901
0.00110538
-0.00768156
0.00108335
-0.00753941
0.00105934
-0.00731539
0.00102709
-0.00709653
0.000981343
-0.00699655
0.000929635
-0.00697725
0.000891629
-0.0067343
0.000885787
-0.00587505
0.0009188
-0.00422477
0.000985072
-0.0019505
0.00107175
0.000553679
0.00116457
0.0028686
0.00125197
0.00471858
0.00132675
0.00608208
0.00138557
0.00716925
0.00142666
0.00823524
0.00144725
0.00931331
0.00144339
0.0101033
0.00141244
0.0101226
0.0013563
0.00899435
0.0012838
0.00663744
0.00120995
0.00330985
0.0011503
-0.000423713
0.00111354
-0.00386103
0.00109798
-0.00643013
0.00109321
-0.00796376
0.00108541
-0.00864439
0.00106663
-0.00883346
-0.00868317
0.00109546
0.00107315
-0.0075171
0.00104929
-0.00729153
0.00101778
-0.00706502
0.00097291
-0.00695168
0.00092158
-0.00692592
0.000883375
-0.00669609
0.000877222
-0.00586889
0.000910213
-0.00425776
0.00097693
-0.00201722
0.00106451
0.000466104
0.0011585
0.0027746
0.0012472
0.00462988
0.00132342
0.00600586
0.00138394
0.00710873
0.00142704
0.00819214
0.00144979
0.00929056
0.00144787
0.0101052
0.00141813
0.0101523
0.0013621
0.00905038
0.00128847
0.00671107
0.00121255
0.00338577
0.00115039
-0.000361552
0.00111122
-0.00382186
0.00109381
-0.00641272
0.00108808
-0.00795803
0.00108015
-0.00863646
0.00106165
-0.00881496
-0.00865762
0.00106287
-0.00749453
0.00103915
-0.00726782
0.00100839
-0.00703425
0.000964462
-0.00690776
0.000913564
-0.00687502
0.000875157
-0.00665769
0.000868644
-0.00586238
0.000901544
-0.00429066
0.000968623
-0.0020843
0.00105702
0.000377707
0.00115214
0.00267948
0.00124211
0.0045399
0.00131976
0.00592822
0.00138196
0.00704653
0.00142707
0.00814703
0.00145202
0.00926561
0.00145208
0.0101052
0.00142362
0.0101808
0.00136776
0.00910625
0.00129307
0.00678576
0.00121513
0.00346371
0.00115047
-0.0002969
0.00110889
-0.00378027
0.00108961
-0.00639344
0.0010829
-0.00795132
0.00107483
-0.0086284
0.00105663
-0.00879676
-0.00863235
0.00105248
-0.00747172
0.00102892
-0.00724426
0.000998923
-0.00700425
0.00095599
-0.00686483
0.000905579
-0.00682461
0.00086697
-0.00661908
0.00086005
-0.00585546
0.000892793
-0.0043234
0.000960156
-0.00215166
0.0010493
0.000288565
0.00114548
0.0025833
0.0012367
0.00444869
0.00131575
0.00584917
0.00137963
0.00698264
0.00142676
0.0080999
0.00145392
0.00923845
0.00145601
0.0101031
0.00142889
0.0102079
0.00137327
0.00916187
0.00129759
0.00686143
0.00121767
0.00354364
0.00115055
-0.000229782
0.00110655
-0.00373628
0.00108539
-0.00637228
0.00107767
-0.0079436
0.00106947
-0.0086202
0.00105158
-0.00877886
-0.00860739
0.001042
-0.0074487
0.0010186
-0.00722086
0.000989375
-0.00697502
0.000947485
-0.00682294
0.000897618
-0.00677474
0.000858813
-0.00658027
0.00085144
-0.00584809
0.000883963
-0.00435592
0.000951533
-0.00221923
0.00104134
0.000198756
0.00113854
0.00248611
0.00123096
0.00435627
0.00131139
0.00576874
0.00137694
0.00691709
0.00142609
0.00805075
0.00145549
0.00920906
0.00145964
0.0100989
0.00143394
0.0102336
0.00137864
0.00921718
0.00130203
0.00693804
0.00122017
0.0036255
0.00115061
-0.000160222
0.0011042
-0.00368987
0.00108115
-0.00634923
0.0010724
-0.00793485
0.00106406
-0.00861186
0.00104649
-0.00876129
-0.00858273
0.00103142
-0.00742549
0.00100818
-0.00719763
0.000979737
-0.00694658
0.000938938
-0.00678214
0.000889676
-0.00672548
0.000850684
-0.00654128
0.00084281
-0.00584021
0.000875053
-0.00438817
0.000942758
-0.00228694
0.00103316
0.000108357
0.0011313
0.00238796
0.00122489
0.00426268
0.00130668
0.00568694
0.0013739
0.00684987
0.00142506
0.00799959
0.0014567
0.00917741
0.00146298
0.0100927
0.00143875
0.0102578
0.00138384
0.00927209
0.00130638
0.0070155
0.00122264
0.00370924
0.00115066
-8.82474e-05
0.00110185
-0.00364106
0.00107689
-0.00632427
0.00106709
-0.00792505
0.00105859
-0.00860336
0.00104135
-0.00874405
-0.0085584
0.00102073
-0.0074021
0.000997656
-0.00717455
0.000970003
-0.00691893
0.000930339
-0.00674247
0.000881745
-0.00667688
0.000842579
-0.00650212
0.00083416
-0.00583179
0.000866063
-0.00442007
0.000933838
-0.00235471
0.00102475
1.74416e-05
0.00112379
0.00228893
0.0012185
0.00416797
0.00130163
0.00560381
0.00137048
0.00678103
0.00142366
0.00794641
0.00145757
0.0091435
0.00146599
0.0100842
0.00144331
0.0102805
0.00138887
0.00932652
0.00131063
0.00709374
0.00122506
0.00379482
0.0011507
-1.38874e-05
0.00109949
-0.00358985
0.0010726
-0.00629738
0.00106173
-0.00791419
0.00105307
-0.0085947
0.00103618
-0.00872715
-0.00853442
0.00100994
-0.00737857
0.000987031
-0.00715164
0.000960167
-0.00689206
0.000921678
-0.00670399
0.000873816
-0.00662902
0.000834496
-0.0064628
0.000825488
-0.00582279
0.000856992
-0.00445157
0.000924776
-0.0024225
0.00101613
-7.39158e-05
0.00111599
0.00218907
0.00121178
0.00407218
0.00129622
0.00551937
0.00136669
0.00671056
0.00142187
0.00789123
0.00145806
0.00910731
0.00146869
0.0100736
0.00144761
0.0103016
0.00139372
0.00938041
0.00131477
0.00717269
0.00122743
0.00388216
0.00115072
6.28272e-05
0.00109711
-0.00353625
0.00106829
-0.00626856
0.00105633
-0.00790223
0.00104749
-0.00858586
0.00103096
-0.00871062
-0.00851078
0.00099905
-0.0073549
0.000976301
-0.00712889
0.000950222
-0.00686599
0.000912947
-0.00666671
0.000865884
-0.00658196
0.000826433
-0.00642334
0.000816793
-0.00581315
0.00084784
-0.00448262
0.000915577
-0.00249023
0.00100731
-0.000165645
0.00110792
0.00208845
0.00120475
0.00397535
0.00129047
0.00543365
0.00136253
0.00663849
0.00141971
0.00783406
0.00145819
0.00906883
0.00147104
0.0100607
0.00145164
0.010321
0.00139839
0.00943366
0.00131881
0.00725226
0.00122976
0.00397121
0.00115072
0.000141864
0.00109473
-0.00348026
0.00106396
-0.00623779
0.00105089
-0.00788915
0.00104186
-0.00857684
0.00102569
-0.00869444
-0.00848751
0.000988048
-0.00733113
0.000965463
-0.0071063
0.000940164
-0.00684069
0.000904134
-0.00663068
0.000857937
-0.00653576
0.000818388
-0.0063838
0.000808073
-0.00580283
0.000838603
-0.00451315
0.000906245
-0.00255787
0.000998282
-0.000257683
0.00109959
0.00198715
0.0011974
0.00387754
0.00128436
0.00534669
0.001358
0.00656485
0.00141716
0.0077749
0.00145793
0.00902806
0.00147306
0.0100456
0.00145539
0.0103386
0.00140285
0.0094862
0.00132273
0.00733239
0.00123203
0.00406191
0.0011507
0.000223189
0.00109234
-0.00342189
0.00105961
-0.00620506
0.0010454
-0.00787494
0.00103617
-0.00856761
0.00102036
-0.00867864
-0.00846462
0.000976935
-0.00730727
0.000954515
-0.00708388
0.000929987
-0.00681616
0.000895232
-0.00659593
0.000849969
-0.0064905
0.000810357
-0.00634418
0.000799329
-0.0057918
0.00082928
-0.0045431
0.000896778
-0.00262537
0.000989073
-0.000349978
0.00109101
0.00188521
0.00118975
0.0037788
0.00127791
0.00525853
0.00135309
0.00648966
0.00141421
0.00771378
0.00145728
0.00898499
0.00147471
0.0100282
0.00145885
0.0103545
0.00140711
0.00953794
0.00132652
0.00741298
0.00123424
0.00415419
0.00115066
0.000306765
0.00108993
-0.00336116
0.00105523
-0.00617036
0.00103986
-0.00785957
0.00103041
-0.00855816
0.00101499
-0.00866322
-0.00844213
0.00096571
-0.00728335
0.000943455
-0.00706163
0.000919686
-0.00679239
0.00088623
-0.00656247
0.000841969
-0.00644624
0.000802338
-0.00630455
0.000790562
-0.00578003
0.000819867
-0.00457241
0.00088718
-0.00269269
0.000979687
-0.000442486
0.00108219
0.00178271
0.0011818
0.00367918
0.00127112
0.00516921
0.00134781
0.00641297
0.00141087
0.00765073
0.00145624
0.00893963
0.001476
0.0100084
0.00146201
0.0103685
0.00141115
0.00958881
0.00133019
0.00749394
0.0012364
0.00424799
0.0011506