/*--------------------------------*- C++ -*----------------------------------*\
  =========                 |
  \\      /  F ield         | OpenFOAM: The Open Source CFD Toolbox
   \\    /   O peration     | Website:  https://openfoam.org
    \\  /    A nd           | Version:  7
     \\/     M anipulation  |
\*---------------------------------------------------------------------------*/
FoamFile
{
    version     2.0;
    format      ascii;
    class       volVectorField;
    location    "160";
    object      U;
}
// * * * * * * * * * * * * * * * * * * * * * * * * * * * * * * * * * * * * * //

dimensions      [0 1 -1 0 0 0 0];

internalField   nonuniform List<vector> 
7156
(
(0.883682 -0.501521 -1.52832e-22)
(0.88736 -0.497962 2.75249e-23)
(0.883118 -0.493337 2.40393e-23)
(0.868571 -0.498393 -4.81676e-23)
(0.843118 -0.50983 7.72437e-26)
(0.810959 -0.506039 -7.54941e-24)
(0.779885 -0.459466 -8.58029e-24)
(0.757184 -0.355829 2.15124e-23)
(0.747285 -0.203592 -2.21571e-22)
(0.751717 -0.0287636 -1.72017e-22)
(0.768842 0.137447 -6.65479e-23)
(0.794024 0.270374 8.3409e-23)
(0.821792 0.35868 -1.69219e-22)
(0.847015 0.406328 8.47801e-24)
(0.86406 0.429577 1.18211e-23)
(0.868003 0.446549 3.1516e-23)
(0.857445 0.462858 3.14025e-23)
(0.835259 0.466761 -4.56916e-23)
(0.807357 0.438171 7.8996e-23)
(0.780492 0.363629 -6.90469e-24)
(0.760613 0.245021 1.46905e-22)
(0.752219 0.0987228 -2.49858e-23)
(0.757795 -0.0509485 -1.05664e-22)
(0.775851 -0.181246 7.77625e-23)
(0.799918 -0.278997 -4.00458e-23)
(0.820416 -0.345136 4.30338e-23)
(0.829456 -0.386891 4.64141e-23)
(0.824176 -0.409922 8.61147e-24)
(0.807393 -0.409283 1.52868e-23)
(0.886238 -0.502226 1.05968e-22)
(0.888915 -0.497907 -1.28781e-22)
(0.883866 -0.492424 -5.45706e-23)
(0.868675 -0.496505 5.12525e-23)
(0.842633 -0.507169 4.06901e-23)
(0.80985 -0.503187 5.00849e-23)
(0.778134 -0.457119 -1.6166e-23)
(0.754891 -0.354493 2.66325e-22)
(0.744625 -0.203482 1.53247e-22)
(0.748879 -0.0298187 9.4728e-23)
(0.766016 0.135543 -1.56054e-22)
(0.79144 0.268078 -1.71861e-22)
(0.819694 0.356442 2.70872e-22)
(0.845523 0.404578 -1.24885e-22)
(0.863155 0.428706 -2.46233e-22)
(0.867645 0.446766 7.72913e-24)
(0.857624 0.464076 -1.58038e-22)
(0.835972 0.46863 5.82451e-23)
(0.808583 0.440218 1.17601e-22)
(0.782124 0.365392 1.75164e-22)
(0.762446 0.246126 5.89563e-23)
(0.754019 0.0989254 -1.55524e-22)
(0.759364 -0.0516758 8.89037e-23)
(0.777093 -0.182618 2.34149e-22)
(0.800843 -0.280454 2.1735e-23)
(0.82108 -0.346089 1.9678e-22)
(0.82987 -0.386995 -6.49776e-23)
(0.824325 -0.409201 -5.13998e-23)
(0.807274 -0.408047 -5.56781e-23)
(0.88884 -0.502831 2.31755e-22)
(0.89052 -0.497774 3.56066e-23)
(0.884674 -0.491448 -1.08636e-22)
(0.868856 -0.494556 -1.84989e-22)
(0.842247 -0.504452 -1.70773e-22)
(0.808859 -0.500305 -4.3756e-23)
(0.776509 -0.454794 5.50553e-23)
(0.752722 -0.353237 -3.37076e-22)
(0.742083 -0.203497 4.44252e-22)
(0.746145 -0.0310172 -2.45939e-22)
(0.763279 0.133501 3.21803e-22)
(0.788935 0.265661 2.24634e-23)
(0.817663 0.354106 -3.22498e-22)
(0.844088 0.402752 -2.75829e-22)
(0.862305 0.427774 5.38191e-22)
(0.867349 0.446927 -6.83912e-23)
(0.857877 0.465243 8.01707e-23)
(0.836775 0.470468 2.42265e-22)
(0.80991 0.442267 -6.60582e-23)
(0.783863 0.367197 2.48044e-22)
(0.764386 0.247312 7.57491e-23)
(0.75592 0.0992306 -5.57519e-22)
(0.761027 -0.0522983 1.27858e-22)
(0.778416 -0.183901 -1.9322e-22)
(0.801836 -0.281847 1.3657e-23)
(0.821809 -0.346997 -1.25275e-22)
(0.830352 -0.387068 -1.75693e-23)
(0.824548 -0.408458 -7.08026e-23)
(0.807236 -0.406805 3.4425e-24)
(0.891491 -0.503336 3.22697e-23)
(0.892176 -0.497565 -3.83205e-22)
(0.885542 -0.490411 1.17719e-22)
(0.869116 -0.49255 3.31708e-22)
(0.841961 -0.501683 -2.02097e-22)
(0.807986 -0.497396 8.68545e-22)
(0.775012 -0.452488 -1.07777e-22)
(0.750679 -0.352058 -3.62957e-22)
(0.739657 -0.203635 2.39646e-22)
(0.743514 -0.0323558 2.36406e-24)
(0.760632 0.131322 8.29323e-22)
(0.786507 0.263123 -7.06893e-22)
(0.815697 0.351671 6.84433e-22)
(0.842708 0.40085 1.04013e-21)
(0.861508 0.426778 -9.11678e-22)
(0.867114 0.447029 2.1652e-22)
(0.858203 0.466358 1.04637e-22)
(0.837666 0.472272 -4.54235e-23)
(0.811337 0.444315 -3.01071e-22)
(0.785708 0.369045 -1.81656e-22)
(0.766433 0.248578 -5.58371e-22)
(0.757924 0.0996398 6.70656e-22)
(0.762783 -0.0528146 -3.33587e-23)
(0.779821 -0.185094 -3.9649e-22)
(0.802898 -0.283173 2.54938e-22)
(0.822602 -0.347862 -3.72545e-22)
(0.830902 -0.387109 -6.45876e-22)
(0.824846 -0.407695 -3.51343e-22)
(0.807278 -0.405556 1.21933e-23)
(0.89419 -0.503743 2.84163e-22)
(0.893885 -0.497283 1.57924e-22)
(0.886473 -0.489317 -6.39715e-22)
(0.869456 -0.490491 -5.50436e-22)
(0.841776 -0.498865 1.65816e-22)
(0.807233 -0.494459 -6.22807e-22)
(0.773645 -0.450201 -4.12034e-22)
(0.748763 -0.350955 7.823e-22)
(0.737349 -0.203891 -7.45431e-22)
(0.740987 -0.0338312 1.48244e-22)
(0.758074 0.12901 -1.40992e-22)
(0.784156 0.260466 1.62379e-22)
(0.813796 0.349138 -7.56406e-22)
(0.841382 0.398871 -7.08193e-22)
(0.860763 0.425719 7.00895e-22)
(0.866939 0.447071 -6.35491e-22)
(0.858602 0.467418 3.91694e-23)
(0.838643 0.47404 -1.34329e-22)
(0.812863 0.446362 6.94531e-22)
(0.787658 0.370935 2.81674e-22)
(0.768584 0.249925 -1.28309e-22)
(0.760028 0.100154 -6.37146e-22)
(0.764632 -0.0532229 6.07311e-22)
(0.781308 -0.186195 -1.19644e-22)
(0.804031 -0.284434 -7.62591e-22)
(0.82346 -0.348682 -1.83335e-22)
(0.83152 -0.387122 4.61933e-22)
(0.825216 -0.406914 4.67573e-22)
(0.807401 -0.404302 1.08392e-22)
(0.89694 -0.504055 4.21327e-22)
(0.895647 -0.49693 -1.1305e-22)
(0.887465 -0.48817 1.37636e-22)
(0.869875 -0.488383 2.99932e-22)
(0.841692 -0.496002 -4.63392e-22)
(0.806602 -0.491496 4.73838e-22)
(0.772408 -0.447932 1.72101e-22)
(0.746975 -0.349924 4.04195e-22)
(0.73516 -0.204262 -1.80257e-22)
(0.738564 -0.0354402 -8.90352e-22)
(0.755606 0.126566 7.11056e-22)
(0.781882 0.257693 -4.81e-22)
(0.811958 0.346509 2.50645e-23)
(0.840108 0.396815 -7.96949e-22)
(0.860069 0.424593 -2.20757e-22)
(0.866822 0.447049 9.74544e-22)
(0.859071 0.46842 -2.19621e-22)
(0.839705 0.47577 -3.28864e-24)
(0.814486 0.448407 -1.16351e-22)
(0.789711 0.372867 -3.45952e-22)
(0.770838 0.251355 -7.52256e-22)
(0.762234 0.100776 7.60912e-22)
(0.766576 -0.0535217 -4.303e-22)
(0.782878 -0.187203 1.35535e-21)
(0.805235 -0.285628 -2.46209e-23)
(0.824383 -0.34946 7.54028e-22)
(0.832206 -0.387106 9.01678e-22)
(0.825661 -0.406115 -1.99087e-22)
(0.807603 -0.403043 -6.81359e-22)
(0.89974 -0.504273 2.87838e-22)
(0.897463 -0.496509 1.37094e-22)
(0.888522 -0.486972 -8.40053e-22)
(0.870376 -0.486231 5.95841e-22)
(0.84171 -0.493097 1.69315e-22)
(0.806092 -0.488509 9.16104e-23)
(0.771302 -0.445679 6.00416e-22)
(0.745315 -0.348963 -1.47369e-21)
(0.733088 -0.204744 1.75338e-21)
(0.736245 -0.0371793 5.7344e-22)
(0.753226 0.123994 8.27176e-23)
(0.779683 0.254805 -5.50721e-23)
(0.810183 0.343784 1.53617e-21)
(0.838886 0.394682 1.01312e-21)
(0.859425 0.4234 2.55229e-22)
(0.866761 0.446961 -9.72438e-22)
(0.859608 0.469363 -1.89894e-22)
(0.840851 0.47746 3.7161e-22)
(0.816204 0.450448 1.78205e-22)
(0.791865 0.37484 -6.10611e-22)
(0.773196 0.252868 5.79575e-22)
(0.764539 0.101504 1.13518e-22)
(0.768614 -0.0537093 -4.72993e-22)
(0.784533 -0.188116 -3.6488e-22)
(0.80651 -0.286755 -5.67418e-22)
(0.825371 -0.350195 2.19368e-22)
(0.83296 -0.387062 -3.30551e-22)
(0.826179 -0.405299 -2.20369e-22)
(0.807884 -0.40178 7.29028e-22)
(0.902592 -0.5044 -1.05688e-22)
(0.899335 -0.496021 9.36821e-22)
(0.889642 -0.485728 -7.23467e-22)
(0.870958 -0.484038 -5.65723e-22)
(0.84183 -0.490153 1.95934e-22)
(0.805704 -0.485499 -3.57135e-22)
(0.770329 -0.443441 -5.91628e-22)
(0.743784 -0.348067 6.65821e-22)
(0.731134 -0.205334 9.5434e-22)
(0.734029 -0.0390447 -1.76535e-21)
(0.750936 0.121297 2.99415e-22)
(0.777559 0.251803 2.51298e-22)
(0.808468 0.340965 -9.32578e-22)
(0.837714 0.392471 1.58471e-22)
(0.858828 0.422138 1.41858e-21)
(0.866756 0.446806 -1.25467e-21)
(0.860213 0.470244 1.26941e-21)
(0.842079 0.479109 -6.9458e-22)
(0.818016 0.452484 -1.91464e-22)
(0.794119 0.376855 -3.35591e-23)
(0.775655 0.254464 4.32457e-22)
(0.766944 0.102342 -6.81024e-22)
(0.770746 -0.0537844 -3.6522e-22)
(0.786272 -0.188934 -3.00491e-22)
(0.807857 -0.287814 6.74094e-22)
(0.826425 -0.350887 1.54889e-22)
(0.833783 -0.386992 3.43999e-23)
(0.82677 -0.404467 -5.54683e-22)
(0.808244 -0.400514 -8.18787e-22)
(0.905496 -0.504437 -3.48996e-22)
(0.901263 -0.495469 -6.58684e-22)
(0.890826 -0.48444 2.04336e-21)
(0.871621 -0.481808 -2.08823e-22)
(0.842054 -0.487173 1.39811e-21)
(0.805439 -0.482466 -1.08521e-21)
(0.769489 -0.441216 -3.80196e-22)
(0.742383 -0.347233 -6.26217e-22)
(0.729298 -0.206027 -4.14819e-22)
(0.731916 -0.041033 -3.49854e-23)
(0.748733 0.118476 1.412e-21)
(0.775509 0.248689 -5.8936e-22)
(0.806813 0.338051 -9.2411e-22)
(0.83659 0.390183 -1.66763e-21)
(0.858279 0.420805 -1.36548e-21)
(0.866804 0.446581 5.0592e-22)
(0.860883 0.471059 6.76324e-22)
(0.843386 0.480713 -3.55692e-22)
(0.819918 0.454514 6.71357e-22)
(0.79647 0.378911 3.17447e-22)
(0.778213 0.256144 -3.61301e-22)
(0.769447 0.10329 9.8454e-22)
(0.772972 -0.0537455 6.09036e-22)
(0.788095 -0.189655 6.22396e-22)
(0.809278 -0.288804 -2.00377e-21)
(0.827544 -0.351538 -1.65448e-21)
(0.834673 -0.386897 -5.63899e-22)
(0.827434 -0.403621 3.95207e-22)
(0.808681 -0.399246 2.21571e-22)
(0.908453 -0.504387 4.30879e-22)
(0.903248 -0.494856 7.9923e-22)
(0.892075 -0.483112 -1.48152e-22)
(0.872366 -0.479546 -1.43466e-21)
(0.84238 -0.484161 4.30259e-22)
(0.805296 -0.479413 -2.44618e-22)
(0.768783 -0.439003 5.76188e-23)
(0.741111 -0.346459 -1.05028e-21)
(0.727579 -0.20682 1.5285e-21)
(0.729906 -0.0431406 1.09348e-22)
(0.746618 0.115535 -1.14541e-21)
(0.773531 0.245466 -5.52239e-22)
(0.805215 0.335043 8.44395e-22)
(0.835513 0.387816 6.27308e-22)
(0.857774 0.4194 8.7202e-24)
(0.866903 0.446283 7.93701e-22)
(0.861617 0.471808 -1.32951e-21)
(0.84477 0.48227 1.22848e-21)
(0.82191 0.456536 -2.42117e-22)
(0.798917 0.381006 1.90118e-21)
(0.780869 0.257907 -1.15502e-21)
(0.772047 0.104348 -9.79732e-22)
(0.775291 -0.0535915 -9.33477e-23)
(0.790004 -0.190277 -2.55405e-21)
(0.810772 -0.289725 1.65067e-21)
(0.828729 -0.352147 1.00656e-21)
(0.83563 -0.386778 1.7754e-21)
(0.82817 -0.402762 4.39586e-22)
(0.809195 -0.397975 3.77367e-22)
(0.911463 -0.50425 -9.0294e-22)
(0.905292 -0.494182 -1.97124e-22)
(0.893389 -0.481747 2.09171e-21)
(0.873192 -0.477255 -8.52816e-22)
(0.842809 -0.481121 1.83273e-22)
(0.805276 -0.476339 -3.28828e-22)
(0.76821 -0.4368 1.32484e-21)
(0.73997 -0.345739 1.70994e-21)
(0.725979 -0.207708 8.90312e-23)
(0.727999 -0.0453637 -1.22936e-21)
(0.744589 0.112477 -9.30654e-22)
(0.771625 0.242135 2.41766e-21)
(0.803674 0.331944 -9.49663e-22)
(0.834481 0.385371 2.17103e-21)
(0.857313 0.417921 -1.89272e-21)
(0.867052 0.445911 3.32539e-22)
(0.862412 0.472487 1.42177e-21)
(0.84623 0.48378 -1.75207e-21)
(0.823988 0.458548 -6.52683e-22)
(0.801457 0.383141 -1.22986e-21)
(0.783622 0.259754 7.55892e-22)
(0.774743 0.105518 -6.40378e-22)
(0.777703 -0.053321 -6.69593e-22)
(0.791999 -0.190799 5.01572e-22)
(0.81234 -0.290575 -8.18211e-22)
(0.82998 -0.352714 -2.03093e-21)
(0.836655 -0.386636 4.80282e-22)
(0.828979 -0.401889 -1.28374e-21)
(0.809785 -0.396703 -1.74547e-23)
(0.914526 -0.504031 -2.07561e-21)
(0.907393 -0.493451 -1.02737e-21)
(0.894768 -0.480348 6.59907e-22)
(0.874099 -0.47494 -4.16685e-22)
(0.84334 -0.478055 -1.0096e-21)
(0.805377 -0.473247 8.3422e-22)
(0.767771 -0.434605 -3.83729e-22)
(0.738959 -0.345071 -5.89833e-22)
(0.724495 -0.208686 2.69719e-22)
(0.726193 -0.0476985 -1.23579e-21)
(0.742647 0.109304 1.09106e-21)
(0.76979 0.238698 -1.5264e-22)
(0.802187 0.328753 1.23754e-22)
(0.833493 0.382847 -7.21484e-22)
(0.856893 0.416368 6.7961e-22)
(0.867248 0.445463 -4.71165e-22)
(0.863267 0.473095 1.32112e-21)
(0.847762 0.485239 -5.51707e-22)
(0.82615 0.46055 2.3163e-22)
(0.804087 0.385315 1.11995e-21)
(0.786468 0.261684 -1.32143e-21)
(0.777533 0.1068 -1.2558e-22)
(0.780206 -0.0529329 2.38337e-21)
(0.794079 -0.191219 2.62144e-21)
(0.813982 -0.291354 -3.34019e-22)
(0.831296 -0.353241 -1.19446e-23)
(0.837746 -0.386471 9.08946e-22)
(0.82986 -0.401005 1.57697e-22)
(0.81045 -0.39543 -5.89512e-22)
(0.917642 -0.503729 9.24632e-22)
(0.909554 -0.492664 1.143e-21)
(0.896212 -0.478918 -1.43627e-22)
(0.875087 -0.472605 -6.618e-22)
(0.843972 -0.474967 9.81921e-22)
(0.8056 -0.470137 -1.86996e-21)
(0.767466 -0.432417 1.85394e-21)
(0.738079 -0.344451 -7.51371e-22)
(0.723129 -0.209751 -1.02259e-21)
(0.724487 -0.0501412 -5.81606e-22)
(0.740789 0.106019 -1.46562e-21)
(0.768024 0.235157 4.43198e-22)
(0.800754 0.325471 -2.83202e-21)
(0.832547 0.380244 -1.10306e-21)
(0.856513 0.414739 1.14258e-21)
(0.867491 0.444936 -2.21111e-21)
(0.864178 0.473628 -3.4188e-22)
(0.849365 0.486644 1.17426e-21)
(0.828393 0.462538 -1.26784e-22)
(0.806807 0.387525 -2.05166e-21)
(0.789407 0.263698 8.09675e-22)
(0.780416 0.108194 1.37272e-21)
(0.782801 -0.0524262 -2.45582e-22)
(0.796245 -0.191537 -3.46685e-21)
(0.8157 -0.292061 2.37855e-21)
(0.832678 -0.353726 5.49513e-22)
(0.838903 -0.386284 -9.38693e-22)
(0.830811 -0.40011 9.27975e-23)
(0.811189 -0.394156 3.82274e-23)
(0.920813 -0.503348 1.87364e-21)
(0.911774 -0.491823 -2.26128e-21)
(0.89772 -0.477461 1.56709e-21)
(0.876155 -0.470253 -2.82445e-22)
(0.844706 -0.47186 5.107e-22)
(0.805943 -0.46701 -8.95342e-23)
(0.767293 -0.430234 6.25043e-22)
(0.737329 -0.343874 1.12189e-21)
(0.721878 -0.210898 5.45513e-22)
(0.722882 -0.0526875 2.12641e-21)
(0.739016 0.102626 -2.91398e-22)
(0.766326 0.231514 -7.31796e-22)
(0.799373 0.3221 3.15173e-21)
(0.83164 0.377562 -8.86269e-22)
(0.85617 0.413032 -2.05878e-22)
(0.867776 0.444328 2.24973e-21)
(0.865143 0.474084 9.64172e-22)
(0.851036 0.487995 -1.62039e-21)
(0.830714 0.464512 -2.88387e-22)
(0.809612 0.389771 1.79479e-21)
(0.792436 0.265794 -6.98811e-22)
(0.783389 0.109701 2.60135e-21)
(0.785487 -0.0518 -8.53975e-22)
(0.798497 -0.191752 1.47023e-21)
(0.817492 -0.292695 -1.903e-22)
(0.834125 -0.354169 8.81102e-22)
(0.840126 -0.386078 5.68807e-22)
(0.831834 -0.399206 -5.26048e-22)
(0.812001 -0.392882 6.73996e-23)
(0.924036 -0.50289 6.7686e-22)
(0.914054 -0.490931 1.95526e-21)
(0.899294 -0.475977 -2.18564e-22)
(0.877302 -0.467888 -5.6374e-22)
(0.845541 -0.468738 1.44687e-21)
(0.806406 -0.463868 4.84928e-22)
(0.767254 -0.428053 -4.14324e-22)
(0.73671 -0.343336 -1.4142e-21)
(0.720745 -0.212122 9.37894e-22)
(0.721377 -0.0553337 -1.40764e-22)
(0.737326 0.0991271 -2.31096e-22)
(0.764695 0.227771 3.24748e-21)
(0.798041 0.31864 -4.08401e-22)
(0.830773 0.3748 -4.4014e-22)
(0.855864 0.411246 1.24553e-21)
(0.868103 0.443638 6.95505e-22)
(0.866161 0.474462 -1.37699e-21)
(0.852771 0.489289 1.36581e-21)
(0.833112 0.466469 -6.39756e-22)
(0.812501 0.392053 -4.43053e-24)
(0.795552 0.267973 2.9238e-21)
(0.786452 0.111321 -2.94997e-21)
(0.788261 -0.0510533 -1.04786e-21)
(0.800833 -0.191862 -3.38878e-22)
(0.81936 -0.293255 -1.16975e-21)
(0.835638 -0.354572 1.98021e-22)
(0.841413 -0.385851 -2.18057e-22)
(0.832926 -0.398292 1.33517e-21)
(0.812885 -0.391609 -1.27097e-22)
(0.927312 -0.502355 -9.05597e-22)
(0.916394 -0.489988 2.48386e-21)
(0.900931 -0.474472 -1.01628e-21)
(0.878526 -0.465515 5.1913e-22)
(0.846474 -0.465603 -1.1579e-21)
(0.806987 -0.460711 -8.29009e-22)
(0.767346 -0.425874 2.37864e-22)
(0.736221 -0.342833 -6.63054e-22)
(0.719727 -0.213418 1.31785e-21)
(0.71997 -0.0580757 -1.26974e-21)
(0.735718 0.0955254 -5.57907e-21)
(0.763128 0.22393 1.85129e-21)
(0.796758 0.315093 1.12626e-21)
(0.829942 0.37196 1.84794e-21)
(0.855591 0.409381 -2.85673e-21)
(0.868468 0.442865 -1.26219e-21)
(0.867228 0.474759 2.86799e-22)
(0.854568 0.490522 -4.53004e-22)
(0.835582 0.468408 -9.45416e-22)
(0.81547 0.394367 9.39554e-22)
(0.798753 0.270233 -1.81887e-21)
(0.789602 0.113054 2.53054e-21)
(0.791123 -0.0501855 9.64723e-22)
(0.803255 -0.191865 -6.16475e-22)
(0.821303 -0.29374 -2.03171e-22)
(0.837215 -0.354933 1.51272e-22)
(0.842764 -0.385605 -1.01717e-21)
(0.834087 -0.39737 -1.66716e-21)
(0.813841 -0.390336 1.41709e-21)
(0.930642 -0.501747 2.11602e-22)
(0.918794 -0.488996 -7.03174e-22)
(0.902632 -0.472946 -2.25947e-21)
(0.879827 -0.463136 1.03358e-21)
(0.847506 -0.46246 -1.05095e-21)
(0.807685 -0.457542 2.4577e-21)
(0.767568 -0.423694 -2.0028e-21)
(0.735863 -0.342361 1.70336e-21)
(0.718825 -0.214781 -6.11016e-22)
(0.718661 -0.0609093 3.88787e-21)
(0.734192 0.0918241 4.10266e-22)
(0.761626 0.219993 -3.37536e-23)
(0.795522 0.31146 -2.6189e-22)
(0.829145 0.369039 -3.92776e-21)
(0.855349 0.407435 1.07968e-21)
(0.86887 0.442005 -6.97452e-24)
(0.868342 0.474972 3.55681e-22)
(0.856424 0.491694 -1.58241e-21)
(0.838121 0.470327 2.57182e-21)
(0.818517 0.396714 -4.91408e-22)
(0.802037 0.272574 5.62805e-24)
(0.792838 0.114901 9.89213e-22)
(0.794072 -0.0491958 -1.27487e-21)
(0.805761 -0.191762 -3.92462e-22)
(0.823321 -0.294149 1.5762e-21)
(0.838858 -0.355253 -4.5206e-22)
(0.844178 -0.385342 1.58485e-21)
(0.835317 -0.39644 5.08574e-22)
(0.814867 -0.389063 2.54849e-22)
(0.934023 -0.501068 -3.24178e-21)
(0.921254 -0.487958 1.70232e-21)
(0.904397 -0.471402 3.76918e-21)
(0.881204 -0.460756 -7.32385e-22)
(0.848635 -0.459312 -2.15799e-21)
(0.8085 -0.45436 4.2066e-22)
(0.76792 -0.421512 2.09455e-21)
(0.735634 -0.341917 -3.88061e-22)
(0.718038 -0.216207 -4.63253e-22)
(0.71745 -0.0638301 -3.1259e-22)
(0.732745 0.0880264 1.67537e-21)
(0.760186 0.215962 -1.15449e-22)
(0.79433 0.307741 7.55804e-22)
(0.828382 0.366039 -1.34778e-21)
(0.855138 0.405408 1.55287e-21)
(0.869305 0.441057 6.63684e-22)
(0.8695 0.4751 -1.92043e-21)
(0.858336 0.492802 -2.05702e-22)
(0.840727 0.472222 2.40533e-22)
(0.821639 0.399091 -4.4607e-21)
(0.8054 0.274995 4.39182e-21)
(0.796156 0.116861 -3.26707e-22)
(0.797105 -0.0480836 -3.08898e-21)
(0.808351 -0.19155 3.93563e-21)
(0.825415 -0.294481 -1.73681e-21)
(0.840565 -0.355531 5.27359e-22)
(0.845654 -0.38506 -2.88952e-21)
(0.836614 -0.395504 3.64459e-22)
(0.815962 -0.387792 -1.94035e-21)
(0.937456 -0.500318 -1.5891e-21)
(0.923774 -0.486874 -1.89849e-21)
(0.906226 -0.469843 -2.7411e-21)
(0.882654 -0.458379 1.56163e-21)
(0.849859 -0.456161 -3.85434e-22)
(0.809429 -0.451168 -1.76091e-21)
(0.768401 -0.419326 -6.86577e-22)
(0.735535 -0.341495 -4.97162e-21)
(0.717366 -0.21769 1.68954e-22)
(0.716334 -0.0668337 -4.4356e-23)
(0.731377 0.0841356 -3.10853e-21)
(0.758806 0.21184 1.1328e-21)
(0.793182 0.303938 3.90011e-21)
(0.82765 0.36296 -2.40496e-21)
(0.854953 0.403298 -1.19183e-21)
(0.869772 0.44002 1.53112e-21)
(0.870699 0.475141 -8.09274e-22)
(0.860301 0.493843 -2.32266e-21)
(0.843397 0.474093 2.23098e-21)
(0.824832 0.401496 -1.09872e-21)
(0.808841 0.277496 -1.27218e-22)
(0.799554 0.118934 -1.34462e-21)
(0.800222 -0.0468485 1.70889e-21)
(0.811023 -0.191229 -1.32058e-21)
(0.827584 -0.294735 3.58375e-21)
(0.842336 -0.355767 4.65312e-22)
(0.847192 -0.384762 5.02485e-22)
(0.837977 -0.394562 -2.87413e-22)
(0.817126 -0.386522 -2.61331e-22)
(0.940939 -0.499501 1.52502e-21)
(0.926354 -0.485747 -2.25987e-22)
(0.908116 -0.46827 -8.18816e-23)
(0.884177 -0.456007 1.79077e-21)
(0.851177 -0.453013 -7.54262e-22)
(0.810472 -0.447967 2.9881e-21)
(0.769007 -0.417134 1.88127e-21)
(0.735565 -0.341091 1.14608e-21)
(0.71681 -0.219225 -2.45862e-21)
(0.715315 -0.0699156 1.64198e-21)
(0.730086 0.0801548 1.3007e-23)
(0.757487 0.207628 -3.92008e-22)
(0.792076 0.300052 -1.11619e-21)
(0.826947 0.359802 1.78226e-21)
(0.854794 0.401104 -4.94885e-22)
(0.870268 0.438893 -4.6083e-22)
(0.871935 0.475092 1.08639e-21)
(0.862315 0.494815 2.45681e-21)
(0.846126 0.475936 3.88219e-21)
(0.828094 0.403927 -3.12464e-21)
(0.812355 0.280074 4.87159e-21)
(0.803031 0.121119 -3.28537e-21)
(0.80342 -0.0454901 5.34345e-22)
(0.813778 -0.190798 1.09418e-21)
(0.829829 -0.294911 -2.45421e-21)
(0.844171 -0.355961 -3.09258e-21)
(0.84879 -0.384447 7.05148e-23)
(0.839406 -0.393615 -9.13457e-22)
(0.818357 -0.385253 -1.89739e-22)
(0.944473 -0.498618 6.84558e-21)
(0.928993 -0.484577 -2.98834e-21)
(0.910069 -0.466686 2.43579e-21)
(0.88577 -0.453644 -3.14881e-21)
(0.852586 -0.449869 2.61036e-21)
(0.811625 -0.444757 -1.12017e-21)
(0.769738 -0.414936 4.86868e-22)
(0.735724 -0.340702 -1.5572e-21)
(0.716368 -0.220807 2.07597e-21)
(0.714391 -0.0730713 3.06497e-22)
(0.728873 0.0760876 -8.36778e-22)
(0.756225 0.203329 -4.37442e-22)
(0.79101 0.296085 -9.22273e-22)
(0.826272 0.356564 -3.05801e-22)
(0.854658 0.398827 2.76509e-21)
(0.87079 0.437673 -1.04894e-21)
(0.873207 0.474952 2.04079e-21)
(0.864375 0.495716 -1.05075e-21)
(0.848911 0.47775 -1.31453e-21)
(0.83142 0.406383 6.88143e-22)
(0.815941 0.282728 -1.13862e-21)
(0.806583 0.123417 -2.87592e-21)
(0.806698 -0.0440081 -6.39669e-21)
(0.816614 -0.190257 5.35479e-22)
(0.832148 -0.295006 -2.30533e-21)
(0.84607 -0.356111 -7.0447e-23)
(0.850447 -0.384117 -6.55444e-22)
(0.840899 -0.392664 -6.54598e-22)
(0.819655 -0.383987 1.38034e-22)
(0.948055 -0.497671 -7.27231e-22)
(0.931692 -0.483367 7.96393e-22)
(0.912084 -0.465091 -6.1811e-22)
(0.887433 -0.451293 2.6685e-22)
(0.854085 -0.446734 -9.34218e-22)
(0.812889 -0.441541 -2.01614e-21)
(0.770592 -0.412728 -1.65927e-21)
(0.73601 -0.340324 2.40494e-21)
(0.716042 -0.222431 -7.51827e-22)
(0.713561 -0.0762962 8.08615e-22)
(0.727735 0.0719372 -1.84278e-21)
(0.755019 0.198946 1.73449e-21)
(0.789982 0.292036 1.83636e-21)
(0.825622 0.353248 -8.41449e-22)
(0.854542 0.396465 -2.3075e-21)
(0.871336 0.43636 9.67682e-22)
(0.874511 0.474718 9.69883e-22)
(0.866477 0.496543 1.6845e-22)
(0.851749 0.479531 7.38005e-22)
(0.834809 0.408861 2.39874e-21)
(0.819596 0.285458 2.26561e-22)
(0.810208 0.125826 3.40793e-21)
(0.810053 -0.0424024 1.30241e-21)
(0.81953 -0.189603 3.72431e-21)
(0.834542 -0.29502 4.13408e-21)
(0.848033 -0.356219 2.48536e-21)
(0.852162 -0.383771 4.41657e-22)
(0.842455 -0.391709 -2.12958e-22)
(0.821018 -0.382722 1.8801e-21)
(0.951686 -0.496662 -2.12634e-21)
(0.934449 -0.482117 -2.45886e-22)
(0.914159 -0.463489 -1.29854e-21)
(0.889163 -0.448958 8.98709e-22)
(0.855672 -0.443611 6.16219e-22)
(0.814261 -0.438319 6.2843e-22)
(0.771566 -0.410511 2.05369e-21)
(0.736422 -0.339952 -2.40896e-21)
(0.71583 -0.224091 1.6092e-21)
(0.712826 -0.0795854 -1.12241e-21)
(0.726671 0.0677073 6.84539e-22)
(0.753869 0.19448 -2.89798e-21)
(0.78899 0.287909 -1.85388e-21)
(0.824995 0.349853 -3.99445e-22)
(0.854445 0.394018 2.9184e-21)
(0.871903 0.434952 -9.4644e-22)
(0.875844 0.474389 2.70078e-22)
(0.868619 0.497295 -1.08176e-21)
(0.854637 0.481278 1.4291e-21)
(0.838256 0.41136 9.74594e-22)
(0.823315 0.288261 1.8492e-21)
(0.813903 0.128347 1.90615e-21)
(0.813485 -0.0406727 1.09097e-21)
(0.822524 -0.188837 -1.79456e-21)
(0.837009 -0.294953 -1.24463e-21)
(0.850058 -0.356282 9.65721e-22)
(0.853935 -0.38341 3.98614e-22)
(0.844072 -0.390752 -1.07877e-22)
(0.822446 -0.381459 -1.6727e-22)
(0.955363 -0.495593 -5.06529e-23)
(0.937265 -0.480829 6.5524e-22)
(0.916295 -0.461879 1.10292e-21)
(0.890957 -0.446642 -2.70057e-21)
(0.857343 -0.440503 8.59262e-22)
(0.81574 -0.435095 -9.93249e-22)
(0.772659 -0.408283 3.38911e-22)
(0.736958 -0.339582 2.24733e-21)
(0.715734 -0.225782 9.32517e-22)
(0.712185 -0.0829342 2.78621e-22)
(0.72568 0.0634014 8.3236e-22)
(0.752772 0.189934 -8.13782e-22)
(0.788034 0.283703 1.61576e-21)
(0.82439 0.34638 -8.48466e-22)
(0.854364 0.391485 5.05601e-22)
(0.872487 0.433449 -1.12225e-21)
(0.877202 0.473963 -1.14876e-21)
(0.870796 0.497969 1.06642e-21)
(0.857571 0.482988 -1.22505e-21)
(0.841758 0.413876 -2.23761e-21)
(0.827096 0.291136 4.92092e-22)
(0.817665 0.130977 -5.07774e-21)
(0.816989 -0.0388192 -1.67226e-21)
(0.825596 -0.187959 -1.12003e-21)
(0.839551 -0.294802 1.11386e-21)
(0.852146 -0.356301 -3.20457e-21)
(0.855763 -0.383034 -3.97857e-22)
(0.84575 -0.389792 -2.62822e-21)
(0.823937 -0.380198 9.79769e-22)
(0.959086 -0.494465 -1.40344e-21)
(0.940138 -0.479504 -1.5952e-21)
(0.91849 -0.460264 3.96205e-21)
(0.892816 -0.444346 -1.72715e-21)
(0.859097 -0.437415 3.32567e-21)
(0.817323 -0.431868 -4.19088e-22)
(0.773869 -0.406042 -5.79991e-22)
(0.737618 -0.339212 -2.44039e-21)
(0.715753 -0.2275 2.3613e-21)
(0.711638 -0.0863376 8.63685e-22)
(0.724763 0.0590233 -2.08228e-21)
(0.751728 0.18531 3.75267e-21)
(0.787111 0.279422 -8.18692e-22)
(0.823805 0.342829 -1.79094e-21)
(0.854296 0.388867 -1.03392e-21)
(0.873087 0.431848 1.94655e-21)
(0.878583 0.473439 2.83577e-21)
(0.873005 0.498562 4.27796e-22)
(0.860546 0.484659 1.12691e-21)
(0.845312 0.416407 6.79304e-21)
(0.830936 0.294081 -3.17158e-21)
(0.821492 0.133717 -2.48059e-21)
(0.820565 -0.0368419 -1.53353e-21)
(0.828744 -0.186966 7.64852e-21)
(0.842165 -0.294567 -1.82656e-21)
(0.854296 -0.356274 2.15113e-21)
(0.857647 -0.382645 5.02146e-21)
(0.847487 -0.388831 -8.65941e-22)
(0.825491 -0.378939 2.49007e-22)
(0.962853 -0.493281 -2.51676e-21)
(0.943068 -0.478144 -2.4551e-21)
(0.920745 -0.458644 9.78887e-22)
(0.894736 -0.442074 4.97507e-21)
(0.86093 -0.434349 -4.40665e-21)
(0.819009 -0.428641 1.41843e-21)
(0.775192 -0.403787 9.13626e-22)
(0.738399 -0.338837 -1.19774e-21)
(0.715886 -0.229238 8.77908e-22)
(0.711185 -0.0897906 -2.51831e-21)
(0.723917 0.0545766 -2.65702e-22)
(0.750734 0.180611 -4.11512e-22)
(0.786219 0.275065 1.6979e-21)
(0.823238 0.339201 -9.14163e-22)
(0.854241 0.386162 -3.85966e-22)
(0.8737 0.430151 5.50909e-23)
(0.879982 0.472814 -5.74715e-22)
(0.875242 0.499073 -1.44022e-22)
(0.86356 0.486286 -4.52002e-21)
(0.848913 0.418951 -2.54649e-21)
(0.834831 0.297095 -3.58105e-21)
(0.82538 0.136564 2.42572e-21)
(0.82421 -0.0347412 3.81429e-21)
(0.831967 -0.185859 -2.43939e-21)
(0.844851 -0.294247 -1.49393e-21)
(0.856507 -0.356202 6.26666e-22)
(0.859584 -0.382241 -3.05719e-22)
(0.849281 -0.387869 -6.01572e-22)
(0.827106 -0.377683 4.46921e-22)
(0.966662 -0.492043 -9.12434e-22)
(0.946053 -0.47675 5.71681e-22)
(0.923057 -0.45702 1.02542e-21)
(0.896716 -0.439828 -3.83622e-21)
(0.86284 -0.43131 5.15773e-22)
(0.820795 -0.425417 -1.55431e-21)
(0.776628 -0.401518 8.87547e-22)
(0.739299 -0.338453 7.93207e-22)
(0.716134 -0.230993 -1.03615e-21)
(0.710826 -0.0932881 -3.21981e-21)
(0.723142 0.0500653 1.99031e-21)
(0.749791 0.17584 5.69176e-22)
(0.785358 0.270634 -1.66326e-21)
(0.822686 0.335497 -3.82509e-22)
(0.854194 0.383372 7.02766e-22)
(0.874322 0.428354 -1.71339e-21)
(0.881398 0.472087 -1.60285e-21)
(0.877504 0.499499 -1.10174e-21)
(0.866608 0.487869 -1.89671e-21)
(0.852559 0.421505 4.73677e-21)
(0.838778 0.300174 3.42283e-21)
(0.829327 0.139519 -8.46475e-21)
(0.827921 -0.0325172 9.60155e-22)
(0.835263 -0.184637 7.72931e-22)
(0.847608 -0.293841 3.63014e-21)
(0.858779 -0.356083 -5.03326e-22)
(0.861574 -0.381822 1.77286e-21)
(0.85113 -0.386908 3.73743e-22)
(0.828782 -0.37643 -9.1381e-23)
(0.970513 -0.490751 2.69985e-21)
(0.949094 -0.475323 -4.89575e-21)
(0.925428 -0.455394 2.68625e-21)
(0.898753 -0.437611 2.69529e-21)
(0.864824 -0.4283 1.49289e-22)
(0.822679 -0.422196 -3.6906e-22)
(0.778174 -0.399233 -4.91995e-21)
(0.740316 -0.338059 5.09396e-21)
(0.716497 -0.232758 2.22256e-21)
(0.710562 -0.096825 1.18696e-23)
(0.722438 0.0454934 3.87902e-22)
(0.748896 0.170999 1.13063e-22)
(0.784526 0.266132 5.23026e-22)
(0.822149 0.331717 -5.23893e-22)
(0.854154 0.380495 -2.94418e-22)
(0.874951 0.426459 1.56856e-21)
(0.882826 0.471258 3.32737e-21)
(0.879786 0.499837 8.36963e-23)
(0.869687 0.489404 2.09753e-21)
(0.856246 0.424067 1.16274e-21)
(0.842773 0.303317 -2.05722e-21)
(0.83333 0.142579 -6.26032e-21)
(0.831696 -0.0301704 -2.6165e-21)
(0.838629 -0.1833 6.52922e-21)
(0.850436 -0.293349 -2.63463e-21)
(0.861111 -0.355916 -5.75742e-21)
(0.863616 -0.38139 -4.60382e-22)
(0.853034 -0.385947 2.11743e-22)
(0.830517 -0.375179 1.2199e-21)
(0.974404 -0.489408 -7.08473e-22)
(0.952188 -0.473864 2.61057e-21)
(0.927855 -0.453766 -4.53827e-21)
(0.900847 -0.435423 1.73394e-21)
(0.866878 -0.425324 -1.24648e-21)
(0.824658 -0.418982 -3.55932e-21)
(0.779829 -0.396931 6.60551e-21)
(0.741446 -0.337649 -3.88283e-21)
(0.716974 -0.23453 -9.9823e-22)
(0.710393 -0.100396 1.31777e-22)
(0.721804 0.0408649 -5.09559e-22)
(0.748048 0.166091 3.11657e-21)
(0.783722 0.26156 -2.04959e-21)
(0.821625 0.327863 -1.44325e-21)
(0.85412 0.377533 1.45046e-21)
(0.875585 0.424464 6.16183e-22)
(0.884263 0.470323 -2.22575e-21)
(0.882086 0.500087 1.60346e-21)
(0.872793 0.490888 -9.01382e-22)
(0.859969 0.426632 5.81263e-21)
(0.846813 0.306521 1.70954e-21)
(0.837385 0.145743 -5.00273e-22)
(0.835533 -0.0277014 3.5876e-21)
(0.842066 -0.181848 -7.47002e-21)
(0.853332 -0.292768 4.33263e-22)
(0.863503 -0.355701 -1.11182e-21)
(0.865708 -0.380944 -4.27403e-22)
(0.85499 -0.384987 4.50571e-22)
(0.83231 -0.373931 6.41355e-24)
(0.978333 -0.488016 6.77757e-21)
(0.955335 -0.472374 2.24025e-21)
(0.930338 -0.452136 -2.42015e-21)
(0.902995 -0.433268 6.04833e-22)
(0.869 -0.422384 1.25534e-21)
(0.826731 -0.415776 3.08361e-21)
(0.781589 -0.394612 -6.35369e-22)
(0.742687 -0.337222 -2.92798e-21)
(0.717564 -0.236303 3.40087e-21)
(0.710321 -0.103997 -2.90122e-21)
(0.721242 0.036184 1.26063e-21)
(0.747248 0.161119 -1.42565e-21)
(0.782943 0.256919 -1.00984e-21)
(0.821111 0.323934 1.82489e-21)
(0.854087 0.374485 8.11055e-22)
(0.87622 0.422369 -3.00046e-22)
(0.885705 0.469283 -2.09777e-21)
(0.884399 0.500245 2.12316e-21)
(0.875922 0.492318 -2.12848e-21)
(0.863726 0.429199 9.22123e-22)
(0.850895 0.309785 -4.73233e-21)
(0.841489 0.14901 2.25266e-21)
(0.83943 -0.0251108 3.98724e-22)
(0.84557 -0.18028 -1.03419e-21)
(0.856298 -0.292098 7.17147e-21)
(0.865954 -0.355437 4.41871e-21)
(0.86785 -0.380484 6.47684e-22)
(0.856997 -0.384029 -1.77965e-22)
(0.834159 -0.372686 -6.13903e-22)
(0.982299 -0.486575 -4.28384e-21)
(0.958533 -0.470856 -2.41591e-21)
(0.932876 -0.450505 -5.54189e-22)
(0.905195 -0.431147 1.7298e-21)
(0.871186 -0.419485 -2.72137e-21)
(0.828893 -0.412581 1.08996e-21)
(0.783455 -0.392276 -4.80579e-22)
(0.744037 -0.336773 1.32562e-21)
(0.718265 -0.238073 -1.65866e-21)
(0.710345 -0.107621 -7.62646e-23)
(0.72075 0.031455 1.40289e-22)
(0.746494 0.156085 2.81254e-21)
(0.78219 0.252211 -4.69154e-21)
(0.820606 0.319933 2.16248e-21)
(0.854055 0.371352 -1.04032e-21)
(0.876853 0.420175 6.24189e-22)
(0.88715 0.468137 7.6408e-22)
(0.886721 0.500309 1.88414e-21)
(0.879071 0.493692 -2.49683e-21)
(0.867512 0.431764 -3.79291e-21)
(0.855015 0.313105 -3.17755e-21)
(0.84564 0.152378 8.18819e-21)