/*--------------------------------*- C++ -*----------------------------------*\
  =========                 |
  \\      /  F ield         | OpenFOAM: The Open Source CFD Toolbox
   \\    /   O peration     | Website:  https://openfoam.org
    \\  /    A nd           | Version:  7
     \\/     M anipulation  |
\*---------------------------------------------------------------------------*/
FoamFile
{
    version     2.0;
    format      ascii;
    class       volScalarField;
    location    "120";
    object      p;
}
// * * * * * * * * * * * * * * * * * * * * * * * * * * * * * * * * * * * * * //

dimensions      [0 2 -2 0 0 0 0];

internalField   nonuniform List<scalar> 
4575
(
-0.39013
-0.390981
-0.391449
-0.388794
-0.38987
-0.390459
-0.387482
-0.38878
-0.389488
-0.386211
-0.387727
-0.38855
-0.384999
-0.386727
-0.387662
-0.383864
-0.385796
-0.386839
-0.382826
-0.384951
-0.386096
-0.3819
-0.384208
-0.385449
-0.381105
-0.383581
-0.384913
-0.385942
-0.380456
-0.383086
-0.384499
-0.385597
-0.379968
-0.382734
-0.384222
-0.385383
-0.379654
-0.382539
-0.384092
-0.38531
-0.379525
-0.382509
-0.384119
-0.385388
-0.379591
-0.382654
-0.384312
-0.385624
-0.37986
-0.382981
-0.384674
-0.386024
-0.380336
-0.383492
-0.385212
-0.386592
-0.381023
-0.384191
-0.385927
-0.387329
-0.388512
-0.38192
-0.385078
-0.386818
-0.388234
-0.38944
-0.383026
-0.38615
-0.387883
-0.389306
-0.390527
-0.384336
-0.387403
-0.389118
-0.390538
-0.391769
-0.385843
-0.38883
-0.390515
-0.391925
-0.39316
-0.394238
-0.387538
-0.390423
-0.392067
-0.393458
-0.394688
-0.395774
-0.389409
-0.392172
-0.393763
-0.395125
-0.396345
-0.397433
-0.391442
-0.394063
-0.395592
-0.396916
-0.398117
-0.399201
-0.393624
-0.396085
-0.397539
-0.398817
-0.39999
-0.401064
-0.402051
-0.395937
-0.398221
-0.399592
-0.400813
-0.401951
-0.403005
-0.403985
-0.398365
-0.400459
-0.401735
-0.402891
-0.403983
-0.405009
-0.405973
-0.40089
-0.402781
-0.403955
-0.405035
-0.406072
-0.40706
-0.407998
-0.408848
-0.403494
-0.405174
-0.406236
-0.407231
-0.408202
-0.409142
-0.410043
-0.410864
-0.40616
-0.407622
-0.408565
-0.409465
-0.410359
-0.411239
-0.412091
-0.41287
-0.408873
-0.410111
-0.410928
-0.411724
-0.41253
-0.413337
-0.414127
-0.414851
-0.415433
-0.411616
-0.412629
-0.413313
-0.413996
-0.414703
-0.415424
-0.416137
-0.416792
-0.417306
-0.414376
-0.415164
-0.41571
-0.41627
-0.416867
-0.417488
-0.418111
-0.41868
-0.419111
-0.419291
-0.417142
-0.417707
-0.418111
-0.41854
-0.419014
-0.419522
-0.420038
-0.420505
-0.420837
-0.420916
-0.419904
-0.420251
-0.420508
-0.420798
-0.421138
-0.421519
-0.421913
-0.422261
-0.422475
-0.422436
-0.422657
-0.42279
-0.422897
-0.423041
-0.423235
-0.423475
-0.423731
-0.423945
-0.424025
-0.42385
-0.423265
-0.425395
-0.425321
-0.425277
-0.425267
-0.425305
-0.425391
-0.425494
-0.425556
-0.425484
-0.425157
-0.424417
-0.428118
-0.427844
-0.427646
-0.427475
-0.427348
-0.427267
-0.427203
-0.427097
-0.426859
-0.426363
-0.425451
-0.42393
-0.430826
-0.430361
-0.430006
-0.42967
-0.429368
-0.429108
-0.428863
-0.428576
-0.428155
-0.427476
-0.426379
-0.424667
-0.433525
-0.432874
-0.432363
-0.431854
-0.43137
-0.430921
-0.430483
-0.430001
-0.429384
-0.428508
-0.427211
-0.425297
-0.42254
-0.436219
-0.43539
-0.434721
-0.434036
-0.433361
-0.432713
-0.432071
-0.431383
-0.430558
-0.429472
-0.427963
-0.425836
-0.422864
-0.438919
-0.437917
-0.437088
-0.436223
-0.435351
-0.434496
-0.433641
-0.432735
-0.431691
-0.430384
-0.428652
-0.426299
-0.423101
-0.418818
-0.441635
-0.440464
-0.439475
-0.438425
-0.43735
-0.436281
-0.435205
-0.434073
-0.4328
-0.431261
-0.429295
-0.426704
-0.423267
-0.41875
-0.412935
-0.444379
-0.443041
-0.44189
-0.440653
-0.439371
-0.438082
-0.436777
-0.435412
-0.433901
-0.432122
-0.42991
-0.427068
-0.423376
-0.418609
-0.41256
-0.447164
-0.445661
-0.444345
-0.442918
-0.441425
-0.439912
-0.438373
-0.436768
-0.435012
-0.432982
-0.430513
-0.427406
-0.423443
-0.418403
-0.412092
-0.404429
-0.450006
-0.448335
-0.446853
-0.445232
-0.443525
-0.441784
-0.440008
-0.438157
-0.436149
-0.43386
-0.431121
-0.427734
-0.423478
-0.418141
-0.411536
-0.403595
-0.394186
-0.452918
-0.451076
-0.449426
-0.447609
-0.445685
-0.443713
-0.441696
-0.439594
-0.437328
-0.434769
-0.431748
-0.428062
-0.423493
-0.417829
-0.410896
-0.402632
-0.392922
-0.455917
-0.453897
-0.452075
-0.450059
-0.447917
-0.445713
-0.443451
-0.441095
-0.438563
-0.435725
-0.432406
-0.428402
-0.423493
-0.417474
-0.410178
-0.401551
-0.391493
-0.380645
-0.459015
-0.45681
-0.454812
-0.452596
-0.450234
-0.447795
-0.445287
-0.442672
-0.439867
-0.436737
-0.433104
-0.42876
-0.423485
-0.417079
-0.409386
-0.400358
-0.389917
-0.378615
-0.365023
-0.462226
-0.459826
-0.457649
-0.455231
-0.452646
-0.449972
-0.447215
-0.444337
-0.44125
-0.437815
-0.433849
-0.42914
-0.423471
-0.416647
-0.408524
-0.399065
-0.388214
-0.376455
-0.362587
-0.351377
-0.465563
-0.462958
-0.460596
-0.457973
-0.455165
-0.452254
-0.449245
-0.446098
-0.44272
-0.438965
-0.434645
-0.429546
-0.423452
-0.416178
-0.407594
-0.397679
-0.386402
-0.374195
-0.360063
-0.348057
-0.469037
-0.466213
-0.463663
-0.460832
-0.4578
-0.454651
-0.451387
-0.447964
-0.444283
-0.440191
-0.435495
-0.429977
-0.423426
-0.415671
-0.4066
-0.396209
-0.384497
-0.371858
-0.357481
-0.344824
-0.472658
-0.469602
-0.466857
-0.463816
-0.460558
-0.457168
-0.453646
-0.44994
-0.445943
-0.441495
-0.436395
-0.430428
-0.42339
-0.415124
-0.405542
-0.394661
-0.382511
-0.369461
-0.354857
-0.341673
-0.476431
-0.47313
-0.470186
-0.466931
-0.463446
-0.459814
-0.456027
-0.452028
-0.4477
-0.442873
-0.437343
-0.430896
-0.423339
-0.414534
-0.404421
-0.393041
-0.380456
-0.367017
-0.352204
-0.338597
-0.480364
-0.476803
-0.473655
-0.470184
-0.466468
-0.46259
-0.458534
-0.45423
-0.449552
-0.444322
-0.438332
-0.431372
-0.423265
-0.413897
-0.403236
-0.391353
-0.378339
-0.364534
-0.349528
-0.335579
-0.48446
-0.480625
-0.477267
-0.473577
-0.469629
-0.465501
-0.461165
-0.456543
-0.451495
-0.445835
-0.439353
-0.431848
-0.423161
-0.413207
-0.401986
-0.389598
-0.376164
-0.362016
-0.346832
-0.332608
-0.48872
-0.484597
-0.481024
-0.477113
-0.472929
-0.468545
-0.463921
-0.458964
-0.453522
-0.447402
-0.440396
-0.432312
-0.423017
-0.412458
-0.400669
-0.387778
-0.373935
-0.359464
-0.344116
-0.329666
-0.493142
-0.48872
-0.484928
-0.480791
-0.476368
-0.471721
-0.466797
-0.461486
-0.455625
-0.449013
-0.441447
-0.432753
-0.422824
-0.411642
-0.39928
-0.385892
-0.371653
-0.356878
-0.341376
-0.326738
-0.497725
-0.492991
-0.488976
-0.484611
-0.479943
-0.475026
-0.469787
-0.4641
-0.457791
-0.450653
-0.442492
-0.433156
-0.42257
-0.410754
-0.397816
-0.383939
-0.369317
-0.354255
-0.338609
-0.323812
-0.502464
-0.497406
-0.493165
-0.48857
-0.483652
-0.478454
-0.472883
-0.466796
-0.460006
-0.452307
-0.443516
-0.433507
-0.422243
-0.409784
-0.396273
-0.381916
-0.366924
-0.351591
-0.335808
-0.320872
-0.50735
-0.501961
-0.49749
-0.492661
-0.487487
-0.481996
-0.476074
-0.46956
-0.462255
-0.453957
-0.4445
-0.433791
-0.421832
-0.408724
-0.394644
-0.379819
-0.36447
-0.34888
-0.332967
-0.317906
-0.512375
-0.506647
-0.501944
-0.496878
-0.491441
-0.485643
-0.479348
-0.472375
-0.464519
-0.455585
-0.445428
-0.433993
-0.421325
-0.407566
-0.392923
-0.377642
-0.361951
-0.346117
-0.330078
-0.314902
-0.517526
-0.511453
-0.506518
-0.501211
-0.495503
-0.489383
-0.482689
-0.475224
-0.466779
-0.457169
-0.44628
-0.434096
-0.420709
-0.406299
-0.391105
-0.375381
-0.359361
-0.343293
-0.327134
-0.311849
-0.52279
-0.516369
-0.5112
-0.505649
-0.49966
-0.493199
-0.486078
-0.478086
-0.469012
-0.458688
-0.447035
-0.434084
-0.419971
-0.404916
-0.38918
-0.373029
-0.356693
-0.340402
-0.324126
-0.308736
-0.52815
-0.521379
-0.515978
-0.510179
-0.503897
-0.497074
-0.489497
-0.480939
-0.471195
-0.46012
-0.447676
-0.433941
-0.419099
-0.403406
-0.387142
-0.370577
-0.353939
-0.337435
-0.321045
-0.305553
-0.533589
-0.526468
-0.520834
-0.514784
-0.508197
-0.500989
-0.492922
-0.483759
-0.473303
-0.461441
-0.44818
-0.43365
-0.418081
-0.401759
-0.384982
-0.36802
-0.351091
-0.334383
-0.317884
-0.302291
-0.539084
-0.531617
-0.525751
-0.519445
-0.512539
-0.504921
-0.496328
-0.486518
-0.475309
-0.462627
-0.448528
-0.433196
-0.416903
-0.399966
-0.382691
-0.365347
-0.348141
-0.331238
-0.314633
-0.298941
-0.544613
-0.536803
-0.530708
-0.52414
-0.516899
-0.508844
-0.499688
-0.489189
-0.477188
-0.463654
-0.4487
-0.432561
-0.415553
-0.398015
-0.380261
-0.362551
-0.34508
-0.327991
-0.311284
-0.295493
-0.528847
-0.521252
-0.512729
-0.502971
-0.49174
-0.47891
-0.464498
-0.448675
-0.431731
-0.41402
-0.395898
-0.377682
-0.359622
-0.341898
-0.324632
-0.307827
-0.291941
-0.516548
-0.506148
-0.494144
-0.480447
-0.465133
-0.448434
-0.43069
-0.412289
-0.393602
-0.374943
-0.356551
-0.338587
-0.321153
-0.304255
-0.288274
-0.481772
-0.465538
-0.447957
-0.429422
-0.410348
-0.391117
-0.372036
-0.353327
-0.335136
-0.317543
-0.300558
-0.284487
-0.408187
-0.388433
-0.368949
-0.349941
-0.331537
-0.313795
-0.296727
-0.28057
-0.346384
-0.327778
-0.309898
-0.292756
-0.276517
-0.27232
-0.287624
-0.359584
-0.341345
-0.323932
-0.307341
-0.29172
-0.439839
-0.420074
-0.400412
-0.381162
-0.362526
-0.344616
-0.327473
-0.311086
-0.295675
-0.492651
-0.476355
-0.458718
-0.440178
-0.421198
-0.40219
-0.383475
-0.365271
-0.347712
-0.330855
-0.314686
-0.299499
-0.525557
-0.51523
-0.503325
-0.489714
-0.474468
-0.457846
-0.440233
-0.422061
-0.403732
-0.385576
-0.367828
-0.350639
-0.334085
-0.31815
-0.303197
-0.536126
-0.528377
-0.519861
-0.510225
-0.499171
-0.48653
-0.472308
-0.456695
-0.440018
-0.422672
-0.405047
-0.387475
-0.370206
-0.353405
-0.337173
-0.321484
-0.306778
-0.551498
-0.542996
-0.536439
-0.529541
-0.522142
-0.514106
-0.505108
-0.49485
-0.483131
-0.469902
-0.455283
-0.439545
-0.423042
-0.406142
-0.389179
-0.372411
-0.35602
-0.340127
-0.324698
-0.310249
-0.544104
-0.535967
-0.529639
-0.522995
-0.515923
-0.508327
-0.499916
-0.490398
-0.47955
-0.467275
-0.453632
-0.438831
-0.42318
-0.407027
-0.390695
-0.374451
-0.358489
-0.342953
-0.3278
-0.313619
-0.536771
-0.529006
-0.522911
-0.516515
-0.50975
-0.502559
-0.494683
-0.485848
-0.475817
-0.464452
-0.451759
-0.437887
-0.423098
-0.407707
-0.392029
-0.376332
-0.360821
-0.345659
-0.330796
-0.316895
-0.529525
-0.522137
-0.516279
-0.510125
-0.503649
-0.496829
-0.489442
-0.481234
-0.471962
-0.461461
-0.449685
-0.436729
-0.422805
-0.408191
-0.393187
-0.37806
-0.363021
-0.348253
-0.333695
-0.320086
-0.52239
-0.515382
-0.509763
-0.503848
-0.497646
-0.491166
-0.484223
-0.476586
-0.468016
-0.458327
-0.447431
-0.435372
-0.42231
-0.408485
-0.394174
-0.37964
-0.365094
-0.35074
-0.336504
-0.323199
-0.515385
-0.508759
-0.503381
-0.497702
-0.491761
-0.485594
-0.479053
-0.471933
-0.464008
-0.455076
-0.445019
-0.433831
-0.421623
-0.408596
-0.394995
-0.381076
-0.367046
-0.353127
-0.33923
-0.326242
-0.50853
-0.502285
-0.497151
-0.491705
-0.486012
-0.480135
-0.473957
-0.467304
-0.459964
-0.451734
-0.442468
-0.432122
-0.420756
-0.408528
-0.395654
-0.38237
-0.368881
-0.35542
-0.341879
-0.329225
-0.501839
-0.495974
-0.491084
-0.48587
-0.480417
-0.474806
-0.468957
-0.462722
-0.455912
-0.448325
-0.439801
-0.430259
-0.419717
-0.408288
-0.396153
-0.383526
-0.370601
-0.357621
-0.344458
-0.332156
-0.495326
-0.489837
-0.485192
-0.480209
-0.474986
-0.469624
-0.464071
-0.45821
-0.451874
-0.444873
-0.437038
-0.42826
-0.418518
-0.407882
-0.396494
-0.384545
-0.372208
-0.359736
-0.346973
-0.335044
-0.489
-0.483884
-0.479484
-0.474729
-0.46973
-0.464601
-0.459315
-0.453787
-0.447874
-0.441401
-0.434199
-0.42614
-0.417169
-0.407315
-0.396681
-0.385426
-0.373703
-0.361767
-0.349428
-0.337899
-0.482871
-0.478121
-0.473967
-0.469438
-0.464656
-0.459745
-0.454702
-0.449469
-0.44393
-0.437929
-0.431304
-0.423916
-0.415682
-0.406594
-0.396714
-0.38617
-0.375086
-0.363716
-0.351828
-0.34073
-0.476945
-0.472556
-0.468644
-0.46434
-0.459769
-0.455064
-0.450242
-0.44527
-0.440059
-0.434477
-0.428373
-0.421605
-0.414069
-0.405724
-0.396596
-0.386776
-0.376355
-0.365584
-0.354176
-0.343549
-0.471227
-0.467192
-0.46352
-0.459438
-0.455073
-0.450562
-0.445941
-0.441199
-0.436276
-0.431062
-0.425423
-0.419222
-0.412341
-0.404713
-0.396328
-0.387241
-0.377508
-0.367369
-0.356475
-0.346368
-0.465721
-0.462031
-0.458596
-0.454732
-0.450567
-0.446241
-0.441804
-0.437266
-0.432592
-0.427698
-0.422472
-0.416784
-0.410512
-0.403569
-0.395913
-0.387565
-0.378541
-0.36907
-0.358725
-0.349198
-0.46043
-0.457077
-0.453874
-0.450223
-0.446253
-0.442102
-0.437833
-0.433476
-0.429016
-0.4244
-0.419535
-0.414306
-0.408595
-0.402301
-0.395354
-0.387745
-0.379448
-0.370684
-0.360926
-0.352054
-0.455355
-0.45233
-0.449353
-0.445911
-0.442129
-0.438144
-0.43403
-0.429831
-0.425557
-0.421177
-0.416625
-0.411804
-0.406604
-0.400917
-0.394654
-0.38778
-0.380226
-0.372205
-0.363075
-0.354949
-0.450499
-0.447791
-0.445034
-0.441794
-0.438193
-0.434366
-0.430393
-0.426335
-0.422219
-0.41804
-0.413757
-0.409294
-0.404553
-0.39943
-0.39382
-0.387669
-0.380866
-0.373627
-0.365166
-0.357898
-0.445864
-0.443462
-0.440917
-0.437871
-0.434443
-0.430764
-0.426922
-0.422987
-0.419007
-0.414997
-0.410941
-0.406788
-0.402458
-0.39785
-0.392858
-0.387411
-0.381363
-0.374941
-0.367192
-0.360913
-0.441451
-0.439342
-0.437001
-0.434141
-0.430877
-0.427338
-0.423614
-0.419788
-0.415922
-0.412054
-0.408189
-0.404302
-0.400332
-0.396193
-0.391777
-0.387007
-0.38171
-0.376135
-0.369139
-0.364006
-0.437262
-0.435434
-0.433286
-0.430602
-0.427494
-0.424084
-0.420469
-0.416738
-0.412969
-0.409216
-0.405511
-0.401849
-0.398193
-0.394472
-0.390587
-0.386463
-0.381899
-0.377196
-0.370987
-0.433302
-0.431738
-0.429772
-0.427254
-0.424291
-0.421001
-0.417484
-0.413837
-0.410148
-0.406491
-0.402916
-0.399443
-0.396056
-0.392705
-0.389302
-0.385782
-0.381925
-0.378104
-0.429572
-0.428257
-0.426461
-0.424097
-0.421269
-0.41809
-0.414661
-0.411086
-0.407464
-0.403884
-0.400414
-0.397097
-0.393939
-0.39091
-0.387939
-0.384974
-0.381784
-0.426076
-0.424991
-0.423353
-0.421131
-0.418428
-0.415349
-0.411999
-0.408487
-0.404921
-0.401401
-0.398016
-0.394826
-0.391859
-0.389108
-0.386516
-0.384051
-0.381475
-0.422819
-0.421943
-0.420449
-0.418358
-0.415768
-0.41278
-0.409501
-0.406043
-0.402522
-0.399051
-0.395732
-0.392644
-0.389837
-0.38732
-0.385055
-0.383031
-0.419803
-0.419114
-0.41775
-0.415778
-0.41329
-0.410385
-0.407168
-0.403757
-0.400274
-0.396842
-0.393575
-0.390569
-0.387891
-0.38557
-0.383583
-0.417031
-0.416506
-0.415257
-0.413391
-0.410996
-0.408165
-0.405005
-0.401635
-0.398184
-0.394782
-0.391556
-0.388615
-0.386043
-0.383883
-0.382128
-0.414506
-0.414119
-0.41297
-0.411199
-0.408887
-0.406124
-0.403015
-0.399682
-0.396259
-0.392882
-0.389689
-0.386801
-0.384314
-0.382287
-0.412228
-0.411953
-0.41089
-0.409201
-0.406964
-0.404262
-0.401201
-0.397903
-0.394506
-0.391152
-0.387988
-0.385143
-0.382727
-0.410197
-0.410005
-0.409014
-0.407397
-0.405227
-0.402582
-0.399566
-0.396303
-0.392932
-0.389602
-0.386464
-0.383658
-0.381301
-0.408408
-0.408274
-0.407339
-0.405784
-0.403674
-0.401082
-0.398111
-0.394884
-0.391543
-0.388239
-0.385129
-0.38236
-0.406858
-0.406753
-0.405862
-0.404358
-0.402302
-0.399762
-0.396837
-0.393649
-0.390342
-0.38707
-0.383993
-0.381263
-0.405539
-0.405437
-0.404576
-0.403116
-0.401108
-0.398618
-0.395741
-0.392598
-0.389332
-0.3861
-0.383063
-0.404441
-0.404318
-0.403475
-0.402049
-0.400086
-0.397646
-0.39482
-0.391728
-0.388512
-0.385329
-0.382342
-0.403553
-0.403385
-0.402548
-0.40115
-0.399229
-0.396839
-0.394069
-0.391035
-0.387879
-0.384756
-0.40286
-0.402628
-0.401786
-0.400409
-0.398527
-0.396189
-0.393479
-0.390512
-0.387427
-0.384377
-0.402348
-0.402032
-0.401178
-0.399817
-0.39797
-0.395686
-0.393042
-0.390151
-0.387147
-0.402
-0.401585
-0.40071
-0.39936
-0.397549
-0.395319
-0.392747
-0.38994
-0.38703
-0.401796
-0.401272
-0.40037
-0.399026
-0.397249
-0.395078
-0.392583
-0.389868
-0.387063
-0.401719
-0.401076
-0.400143
-0.398803
-0.39706
-0.394949
-0.392536
-0.389922
-0.40175
-0.400983
-0.400015
-0.398678
-0.396968
-0.394919
-0.392594
-0.39009
-0.401868
-0.400975
-0.399971
-0.398636
-0.396961
-0.394977
-0.392745
-0.390357
-0.402055
-0.401038
-0.399998
-0.398665
-0.397025
-0.39511
-0.392974
-0.402293
-0.401156
-0.400081
-0.398752
-0.397149
-0.395304
-0.39327
-0.402563
-0.401313
-0.400206
-0.398883
-0.397319
-0.395548
-0.393619
-0.402849
-0.401494
-0.400361
-0.399046
-0.397525
-0.39583
-0.403134
-0.401687
-0.400532
-0.399229
-0.397754
-0.396137
-0.403403
-0.401876
-0.400707
-0.399421
-0.397994
-0.39646
-0.403642
-0.402051
-0.400874
-0.399611
-0.398237
-0.396786
-0.403839
-0.402199
-0.401022
-0.399788
-0.39847
-0.40398
-0.402309
-0.401142
-0.399942
-0.398684
-0.404056
-0.402372
-0.401223
-0.400064
-0.39887
-0.404056
-0.402378
-0.401257
-0.400144
-0.399018
-0.403973
-0.402319
-0.401235
-0.400176
-0.4038
-0.402188
-0.401151
-0.400152
-0.40353
-0.40198
-0.400999
-0.400065
-0.403159
-0.40169
-0.400774
-0.399911
-0.402685
-0.401315
-0.400473
-0.399686
-0.402106
-0.400853
-0.400092
-0.399386
-0.401423
-0.400303
-0.399631
-0.39901
-0.400637
-0.399666
-0.399091
-0.398558
-0.399753
-0.398946
-0.398473
-0.398776
-0.398146
-0.39778
-0.397713
-0.397272
-0.397018
-0.396573
-0.396331
-0.396193
-0.395366
-0.395332
-0.395313
-0.394104
-0.394286
-0.394387
-0.392801
-0.393203
-0.393426
-0.391471
-0.392097
-0.392443
-0.251721
-0.255798
-0.259749
-0.263579
-0.267293
-0.270896
-0.274392
-0.277787
-0.281085
-0.284292
-0.287411
-0.290446
-0.293402
-0.296284
-0.299094
-0.301837
-0.304518
-0.307142
-0.309717
-0.312249
-0.31475
-0.317233
-0.319718
-0.322227
-0.229332
-0.233209
-0.236985
-0.240663
-0.244247
-0.24774
-0.251146
-0.25447
-0.257716
-0.260887
-0.263988
-0.267025
-0.270003
-0.272927
-0.275803
-0.278641
-0.281446
-0.284231
-0.287005
-0.289783
-0.29258
-0.295415
-0.298309
-0.301287
-0.209014
-0.212674
-0.216253
-0.219754
-0.223178
-0.22653
-0.229812
-0.233027
-0.236179
-0.239271
-0.242306
-0.245289
-0.248224
-0.251114
-0.253964
-0.256779
-0.259564
-0.262323
-0.265063
-0.267789
-0.270507
-0.273222
-0.275941
-0.27867
-0.190643
-0.194071
-0.197432
-0.200729
-0.203964
-0.207139
-0.210256
-0.213317
-0.216325
-0.219281
-0.222188
-0.225048
-0.227864
-0.230637
-0.23337
-0.236067
-0.238728
-0.241358
-0.243959
-0.246535
-0.249089
-0.251627
-0.254154
-0.256678
-0.173932
-0.177127
-0.180267
-0.183354
-0.18639
-0.189376
-0.192313
-0.195204
-0.19805
-0.200852
-0.203613
-0.206333
-0.209014
-0.211659
-0.214269
-0.216846
-0.219393
-0.221911
-0.224404
-0.226874
-0.229324
-0.231758
-0.23418
-0.236592
-0.158717
-0.161682
-0.164602
-0.167479
-0.170313
-0.173107
-0.175861
-0.178575
-0.181252
-0.183893
-0.186498
-0.18907
-0.191608
-0.194114
-0.196591
-0.199038
-0.201457
-0.20385
-0.206218
-0.208561
-0.210883
-0.213183
-0.215464
-0.217727
-0.144825
-0.147569
-0.150277
-0.152949
-0.155586
-0.15819
-0.16076
-0.163298
-0.165804
-0.16828
-0.170726
-0.173143
-0.175532
-0.177894
-0.180229
-0.182539
-0.184824
-0.187084
-0.189322
-0.191537
-0.193731
-0.195905
-0.198059
-0.200196
-0.132127
-0.134662
-0.137166
-0.139641
-0.142088
-0.144506
-0.146897
-0.149262
-0.1516
-0.153913
-0.156202
-0.158466
-0.160706
-0.162924
-0.165119
-0.167292
-0.169444
-0.171576
-0.173688
-0.17578
-0.177854
-0.179909
-0.181947
-0.183968
-0.1205
-0.122837
-0.12515
-0.127438
-0.129703
-0.131945
-0.134165
-0.136362
-0.138538
-0.140693
-0.142828
-0.144943
-0.147038
-0.149114
-0.151171
-0.153211
-0.155232
-0.157237
-0.159224
-0.161195
-0.16315
-0.165089
-0.167012
-0.168921
-0.109841
-0.111994
-0.114127
-0.11624
-0.118334
-0.120409
-0.122465
-0.124503
-0.126524
-0.128528
-0.130515
-0.132485
-0.13444
-0.136379
-0.138303
-0.140212
-0.142106
-0.143986
-0.145853
-0.147705
-0.149545
-0.151371
-0.153185
-0.154987
-0.100057
-0.102039
-0.104004
-0.105953
-0.107887
-0.109805
-0.111707
-0.113596
-0.11547
-0.117329
-0.119176
-0.121009
-0.122829
-0.124637
-0.126432
-0.128216
-0.129987
-0.131748
-0.133497
-0.135235
-0.136963
-0.138681
-0.140388
-0.142085
-0.0910673
-0.0928906
-0.0947004
-0.096497
-0.0982807
-0.100052
-0.101811
-0.103558
-0.105294
-0.107018
-0.108732
-0.110435
-0.112127
-0.11381
-0.115483
-0.117146
-0.1188
-0.120445
-0.122082
-0.12371
-0.12533
-0.126942
-0.128546
-0.130142
-0.0827952
-0.0844726
-0.086139
-0.0877945
-0.0894397
-0.0910746
-0.0926997
-0.0943153
-0.0959216
-0.0975189
-0.0991075
-0.100688
-0.10226
-0.103824
-0.105381
-0.10693
-0.108472
-0.110007
-0.111536
-0.113058
-0.114574
-0.116084
-0.117589
-0.119087
-0.0751783
-0.0767212
-0.078255
-0.0797802
-0.0812969
-0.0828054
-0.084306
-0.0857991
-0.0872847
-0.0887633
-0.090235
-0.0917001
-0.0931589
-0.0946116
-0.0960585
-0.0974997
-0.0989356
-0.100366
-0.101792
-0.103213
-0.10463
-0.106043
-0.107451
-0.108856
-0.0681575
-0.0695767
-0.0709886
-0.0723935
-0.0737916
-0.0751831
-0.0765684
-0.0779476
-0.0793211
-0.0806889
-0.0820515
-0.0834089
-0.0847616
-0.0861096
-0.0874532
-0.0887927
-0.0901282
-0.09146
-0.0927884
-0.0941134
-0.0954355
-0.0967546
-0.0980712
-0.0993853
-0.0616792
-0.0629849
-0.0642847
-0.0655789
-0.0668676
-0.0681512
-0.0694298
-0.0707036
-0.0719729
-0.0732379
-0.0744989
-0.0757559
-0.0770093
-0.0782593
-0.0795061
-0.08075
-0.081991
-0.0832295
-0.0844656
-0.0856996
-0.0869317
-0.088162
-0.0893909
-0.0906184
-0.0556962
-0.0568978
-0.0580948
-0.0592872
-0.0604752
-0.0616592
-0.0628393
-0.0640156
-0.0651885
-0.0663581
-0.0675245
-0.0686882
-0.0698491
-0.0710075
-0.0721638
-0.0733179
-0.0744702
-0.0756208
-0.07677
-0.077918
-0.0790649
-0.080211
-0.0813564
-0.0825014
-0.0501668
-0.0512729
-0.0523753
-0.0534741
-0.0545694
-0.0556615
-0.0567506
-0.0578368
-0.0589204
-0.0600015
-0.0610803
-0.062157
-0.0632318
-0.0643049
-0.0653765
-0.0664468
-0.0675159
-0.0685841
-0.0696516
-0.0707184
-0.071785
-0.0728513
-0.0739178
-0.0749844
-0.0460707
-0.0470863
-0.048099
-0.049109
-0.0501165
-0.0511217
-0.0521247
-0.0531257
-0.0541249
-0.0551224
-0.0561184
-0.0571131
-0.0581068
-0.0590994
-0.0600914
-0.0610827
-0.0620736
-0.0630643
-0.064055
-0.0650458
-0.066037
-0.0670287
-0.068021
-0.0412555
-0.0421914
-0.043125
-0.0440566
-0.0449862
-0.045914
-0.0468401
-0.0477648
-0.0486882
-0.0496104
-0.0505316
-0.051452
-0.0523717
-0.0532909
-0.0542097
-0.0551284
-0.0560471
-0.0569659
-0.0578851
-0.0588048
-0.0597251
-0.0606464
-0.0615686
-0.0367961
-0.0376588
-0.0385197
-0.039379
-0.0402368
-0.0410933
-0.0419485
-0.0428027
-0.043656
-0.0445084
-0.0453602
-0.0462116
-0.0470626
-0.0479134
-0.0487641
-0.049615
-0.0504662
-0.0513178
-0.05217
-0.0530229
-0.0538768
-0.0547317
-0.0555879
-0.0326625
-0.0334581
-0.0342522
-0.0350451
-0.0358369
-0.0366276
-0.0374174
-0.0382065
-0.0389949
-0.0397828
-0.0405704
-0.0413577
-0.0421449
-0.0429321
-0.0437196
-0.0445073
-0.0452955
-0.0460843
-0.0468739
-0.0476643
-0.0484558
-0.0492485
-0.0500426
-0.0508381
-0.0288297
-0.0295635
-0.0302962
-0.0310279
-0.0317588
-0.0324888
-0.0332183
-0.0339472
-0.0346757
-0.0354039
-0.0361319
-0.0368598
-0.0375878
-0.038316
-0.0390445
-0.0397734
-0.0405029
-0.0412331
-0.0419642
-0.0426962
-0.0434293
-0.0441637
-0.0448994
-0.0456367
-0.0252731
-0.0259502
-0.0266264
-0.0273018
-0.0279766
-0.0286508
-0.0293245
-0.0299978
-0.0306709
-0.0313439
-0.0320167
-0.0326897
-0.0333627
-0.0340361
-0.0347099
-0.0353841
-0.036059
-0.0367346
-0.0374111
-0.0380885
-0.0387671
-0.0394469
-0.040128
-0.0408106
-0.0219717
-0.0225966
-0.0232208
-0.0238443
-0.0244674
-0.02509
-0.0257123
-0.0263343
-0.0269562
-0.027578
-0.0281998
-0.0288218
-0.0294439
-0.0300664
-0.0306893
-0.0313128
-0.0319368
-0.0325616
-0.0331872
-0.0338138
-0.0344414
-0.0350702
-0.0357003
-0.0363318
-0.0189056
-0.0194825
-0.0200588
-0.0206346
-0.02121
-0.0217851
-0.0223599
-0.0229345
-0.0235091
-0.0240836
-0.0246581
-0.0252329
-0.0258078
-0.0263831
-0.0269588
-0.027535
-0.0281119
-0.0286894
-0.0292676
-0.0298468
-0.030427
-0.0310082
-0.0315906
-0.0321743
-0.016058
-0.0165905
-0.0171226
-0.0176543
-0.0181856
-0.0187167
-0.0192477
-0.0197785
-0.0203092
-0.0208399
-0.0213708
-0.0219017
-0.022433
-0.0229645
-0.0234964
-0.0240288
-0.0245617
-0.0250953
-0.0256296
-0.0261646
-0.0267006
-0.0272375
-0.0277755
-0.0283146
-0.0134109
-0.0139027
-0.0143941
-0.0148852
-0.0153761
-0.0158667
-0.0163571
-0.0168475
-0.0173377
-0.017828
-0.0183184
-0.0188089
-0.0192996
-0.0197906
-0.020282
-0.0207737
-0.0212659
-0.0217587
-0.022252
-0.0227461
-0.0232409
-0.0237366
-0.0242333
-0.0247309
-0.0109504
-0.0114047
-0.0118587
-0.0123124
-0.0127658
-0.013219
-0.0136721
-0.014125
-0.0145779
-0.0150308
-0.0154837
-0.0159368
-0.01639
-0.0168434
-0.0172971
-0.0177512
-0.0182056
-0.0186605
-0.0191159
-0.019572
-0.0200286
-0.020486
-0.0209441
-0.0214032
-0.00866296
-0.0090827
-0.00950212
-0.00992127
-0.0103402
-0.0107589
-0.0111774
-0.0115958
-0.0120142
-0.0124325
-0.0128508
-0.0132692
-0.0136877
-0.0141063
-0.0145252
-0.0149443
-0.0153638
-0.0157836
-0.0162038
-0.0166245
-0.0170457
-0.0174675
-0.01789
-0.0183131
-0.00653642
-0.00692427
-0.00731181
-0.00769909
-0.00808611
-0.00847293
-0.00885957
-0.00924607
-0.00963248
-0.0100188
-0.0104051
-0.0107914
-0.0111778
-0.0115643
-0.0119509
-0.0123377
-0.0127247
-0.013112
-0.0134996
-0.0138875
-0.0142759
-0.0146647
-0.0150541
-0.0154439
-0.00455952
-0.00491794
-0.00527607
-0.00563391
-0.00599151
-0.00634888
-0.00670605
-0.00706307
-0.00741994
-0.00777672
-0.00813342
-0.00849008
-0.00884674
-0.00920343
-0.00956018
-0.00991704
-0.010274
-0.0106312
-0.0109886
-0.0113462
-0.0117041
-0.0120624
-0.012421
-0.0127801
-0.002722
-0.00305327
-0.00338423
-0.0037149
-0.00404531
-0.00437548
-0.00470543
-0.00503519
-0.00536477
-0.00569422
-0.00602354
-0.00635278
-0.00668195
-0.00701109
-0.00734022
-0.00766938
-0.00799859
-0.00832789
-0.00865731
-0.00898688
-0.00931663
-0.0096466
-0.00997682
-0.0103073
-0.00101443
-0.00132062
-0.0016265
-0.00193208
-0.00223738
-0.00254242
-0.00284721
-0.00315178
-0.00345614
-0.00376032
-0.00406434
-0.00436822
-0.00467197
-0.00497564
-0.00527923
-0.00558277
-0.00588629
-0.00618982
-0.00649337
-0.00679699
-0.00710068
-0.00740448
-0.00770842
-0.00801252
0.000571877
0.000288836
6.11661e-06
-0.00027629
-0.000558396
-0.000840217
-0.00112177
-0.00140306
-0.00168412
-0.00196495
-0.00224558
-0.00252602
-0.00280629
-0.0030864
-0.00336638
-0.00364625
-0.00392603
-0.00420573
-0.00448538
-0.00476499
-0.0050446
-0.00532423
-0.00560388
-0.0058836
0.00204484
0.00178318
0.00152185
0.00126085
0.00100017
0.000739801
0.000479725
0.000219932
-3.95881e-05
-0.000298849
-0.000557863
-0.000816644
-0.00107521
-0.00133356
-0.00159173
-0.00184973
-0.00210756
-0.00236526
-0.00262282
-0.00288028
-0.00313765
-0.00339494
-0.00365218
-0.00390938
0.0034118
0.00316988
0.00292832
0.00268709
0.00244621
0.00220565
0.00196541
0.00172548
0.00148585
0.00124652
0.00100746
0.000768687
0.000530171
0.000291908
5.38837e-05
-0.000183912
-0.000421492
-0.000658867
-0.000896053
-0.00113306
-0.0013699
-0.00160659
-0.00184315
-0.00207958
0.00467953
0.00445585
0.00423253
0.00400957
0.00378696
0.0035647
0.00334278
0.00312119
0.00289993
0.002679
0.00245838
0.00223807
0.00201806
0.00179835
0.00157892
0.00135976
0.00114087
0.00092224
0.000703857
0.000485712
0.000267795
5.00959e-05
-0.000167395
-0.00038469
0.00585427
0.00564743
0.00544096
0.00523486
0.00502912
0.00482375
0.00461874
0.00441409
0.00420979
0.00400584
0.00380223
0.00359897
0.00339603
0.00319343
0.00299115
0.00278918
0.00258753
0.00238618
0.00218513
0.00198437
0.00178389
0.00158368
0.00138375
0.00118407
0.0069418
0.0067505
0.00655958
0.00636904
0.00617888
0.0059891
0.0057997
0.00561067
0.00542201
0.00523373
0.00504581
0.00485827
0.00467108
0.00448425
0.00429778
0.00411166
0.00392589
0.00374046
0.00355537
0.00337061
0.00318619
0.00300208
0.0028183
0.00263483
0.00794745
0.00777049
0.00759393
0.00741775
0.00724195
0.00706655
0.00689154
0.00671692
0.00654269
0.00636885
0.0061954
0.00602234
0.00584966
0.00567736
0.00550545
0.00533392
0.00516277
0.004992
0.0048216
0.00465157
0.00448191
0.00431261
0.00414367
0.0039751
0.00887619
0.00871246
0.00854912
0.00838618
0.00822363
0.00806149
0.00789974
0.0077384
0.00757746
0.00741692
0.00725679
0.00709707
0.00693775
0.00677883
0.00662032
0.00646222
0.00630451
0.00614721
0.00599032
0.00583382
0.00567772
0.00552202
0.00536672
0.00521181
0.0097326
0.00958106
0.00942992
0.00927917
0.00912882
0.00897889
0.00882936
0.00868024
0.00853153
0.00838324
0.00823537
0.00808791
0.00794088
0.00779426
0.00764807
0.0075023
0.00735695
0.00721203
0.00706754
0.00692346
0.00677981
0.00663659
0.00649379
0.00635141
0.010521
0.0103806
0.0102407
0.0101012
0.00996207
0.00982336
0.00968506
0.00954719
0.00940973
0.00927269
0.00913608
0.0089999
0.00886415
0.00872883
0.00859395
0.00845951
0.0083255
0.00819193
0.0080588
0.00792612
0.00779388
0.00766208
0.00753073
0.00739983
0.0112452
0.0111152
0.0109856
0.0108564
0.0107276
0.0105992
0.0104712
0.0103436
0.0102165
0.0100898
0.00996353
0.0098377
0.0097123
0.00958734
0.00946282
0.00933876
0.00921514
0.00909197
0.00896925
0.00884699
0.00872519
0.00860385
0.00848296
0.00836254
0.011909
0.0117885
0.0116683
0.0115486
0.0114292
0.0113103
0.0111918
0.0110737
0.010956
0.0108388
0.010722
0.0106056
0.0104897
0.0103742
0.0102592
0.0101446
0.0100305
0.00991682
0.00980362
0.00969088
0.00957861
0.00946681
0.00935548
0.00924462
0.0125157
0.0124039
0.0122924
0.0121813
0.0120706
0.0119603
0.0118505
0.011741
0.011632
0.0115234
0.0114153
0.0113076
0.0112003
0.0110935
0.0109871
0.0108812
0.0107758
0.0106708
0.0105662
0.0104622
0.0103586
0.0102555
0.0101529
0.0100507
0.0130685
0.0129645
0.012861
0.0127578
0.012655
0.0125526
0.0124507
0.0123491
0.012248
0.0121473
0.0120471
0.0119473
0.0118479
0.011749
0.0116505
0.0115524
0.0114549
0.0113578
0.0112611
0.011165
0.0110693
0.0109741
0.0108793
0.0107851
0.0135702
0.0134734
0.0133771
0.0132811
0.0131855
0.0130903
0.0129955
0.0129012
0.0128072
0.0127137
0.0126206
0.012528
0.0124358
0.012344
0.0122527
0.0121618
0.0120714
0.0119814
0.0118919
0.0118029
0.0117144
0.0116263
0.0115387
0.0114516
0.0140233
0.0139331
0.0138433
0.0137538
0.0136648
0.0135761
0.0134878
0.0134
0.0133125
0.0132255
0.0131389
0.0130527
0.012967
0.0128817
0.0127968
0.0127124
0.0126284
0.0125449
0.0124619
0.0123793
0.0122972
0.0122156
0.0121344
0.0120537
0.0144303
0.014346
0.0142621
0.0141785
0.0140953
0.0140125