/*--------------------------------*- C++ -*----------------------------------*\
  =========                 |
  \\      /  F ield         | OpenFOAM: The Open Source CFD Toolbox
   \\    /   O peration     | Website:  https://openfoam.org
    \\  /    A nd           | Version:  7
     \\/     M anipulation  |
\*---------------------------------------------------------------------------*/
FoamFile
{
    version     2.0;
    format      ascii;
    class       volVectorField;
    location    "120";
    object      U;
}
// * * * * * * * * * * * * * * * * * * * * * * * * * * * * * * * * * * * * * //

dimensions      [0 1 -1 0 0 0 0];

internalField   nonuniform List<vector> 
4575
(
(7.59437e-05 -0.0250979 -1.0487e-21)
(-0.000626512 -0.0693242 -5.46575e-21)
(-0.00283821 -0.108601 6.62683e-22)
(0.000494715 -0.0246476 -5.1001e-21)
(0.000318439 -0.0680448 4.14886e-21)
(-0.00176656 -0.106553 -4.79985e-21)
(0.000890045 -0.0240744 -3.93667e-20)
(0.00120119 -0.0664667 4.97584e-21)
(-0.000785376 -0.104088 7.55e-21)
(0.00125569 -0.0233802 6.42955e-20)
(0.00200858 -0.0645968 -2.79131e-20)
(9.07558e-05 -0.101219 -1.92506e-20)
(0.00158564 -0.0225684 -8.62482e-21)
(0.00272813 -0.0624446 1.10089e-19)
(0.000848104 -0.0979608 5.09892e-20)
(0.0018742 -0.0216436 -4.16389e-20)
(0.00334818 -0.0600225 2.56999e-20)
(0.00147431 -0.0943322 -4.18327e-20)
(0.00211612 -0.0206117 5.04023e-20)
(0.00385814 -0.0573458 -6.18621e-20)
(0.00195822 -0.0903553 -9.3648e-20)
(0.00230663 -0.0194798 8.29778e-21)
(0.00424856 -0.054432 -2.99126e-20)
(0.00229029 -0.0860552 8.44164e-20)
(0.00244158 -0.018256 -2.3457e-20)
(0.00451147 -0.0513012 1.64516e-19)
(0.00246282 -0.0814595 -3.62274e-20)
(-0.00243029 -0.108137 -4.30568e-20)
(0.00251757 -0.0169497 -7.24772e-20)
(0.00464046 -0.0479755 9.53998e-20)
(0.00247066 -0.076599 5.34374e-20)
(-0.00263207 -0.102129 2.40831e-20)
(0.00253199 -0.0155709 1.31235e-19)
(0.00463126 -0.0444793 -7.35673e-20)
(0.00231054 -0.0715061 2.45324e-20)
(-0.00299899 -0.0958555 9.23974e-20)
(0.00248316 -0.0141308 1.09391e-19)
(0.00448133 -0.0408384 -1.34657e-19)
(0.0019822 -0.0662162 -1.39864e-19)
(-0.00352876 -0.0893563 -6.62919e-20)
(0.0023703 -0.0126413 -1.36342e-19)
(0.00419028 -0.0370807 -1.28133e-19)
(0.00148734 -0.0607656 5.30078e-20)
(-0.00421617 -0.0826726 1.31478e-19)
(0.00219361 -0.0111151 5.68167e-20)
(0.00375972 -0.033235 8.57353e-20)
(0.00083035 -0.0551927 1.03333e-19)
(-0.00505371 -0.0758469 -1.73691e-19)
(0.00195427 -0.00956513 -3.28671e-20)
(0.00319335 -0.0293313 4.01562e-20)
(1.80512e-05 -0.0495367 -8.64349e-20)
(-0.00603137 -0.0689226 -1.27969e-19)
(0.00165447 -0.00800494 1.20438e-19)
(0.00249693 -0.0254002 -1.20775e-19)
(-0.000940368 -0.0438379 9.72249e-20)
(-0.00713669 -0.0619444 1.54947e-19)
(0.00129738 -0.00644804 -5.24625e-20)
(0.00167829 -0.0214727 -3.59699e-20)
(-0.00203323 -0.0381369 1.00048e-19)
(-0.00835493 -0.0549569 -1.38618e-19)
(-0.0167613 -0.0711802 -7.80191e-20)
(0.000887137 -0.00490798 -1.21539e-19)
(0.000747332 -0.0175797 1.71574e-19)
(-0.00324664 -0.0324743 2.33975e-21)
(-0.00966835 -0.0480058 -1.672e-21)
(-0.0180258 -0.0633427 1.75006e-19)
(0.000428841 -0.0033981 3.94756e-20)
(-0.00028415 -0.0137518 -1.21973e-19)
(-0.00456415 -0.0268904 1.17301e-19)
(-0.0110579 -0.0411355 -1.73921e-19)
(-0.0193129 -0.0555818 2.14253e-19)
(-7.15705e-05 -0.00193134 1.54981e-20)
(-0.00140255 -0.0100187 -6.35908e-20)
(-0.00596767 -0.021425 2.05588e-19)
(-0.0125019 -0.0343911 -2.63774e-19)
(-0.0205995 -0.0479432 -2.16108e-19)
(-0.000607399 -0.000520088 -1.06416e-19)
(-0.0025928 -0.00640928 -1.91195e-19)
(-0.00743734 -0.0161165 -1.09314e-19)
(-0.0139779 -0.0278163 1.43319e-19)
(-0.0218608 -0.0404726 -8.38852e-21)
(-0.0306736 -0.0534137 2.95484e-20)
(-0.00117131 0.000824057 9.8389e-20)
(-0.00383853 -0.00295064 2.49825e-19)
(-0.00895203 -0.0110019 -1.88771e-19)
(-0.0154623 -0.0214533 -9.07378e-20)
(-0.0230714 -0.0332151 7.50614e-20)
(-0.0314097 -0.0455581 -1.79682e-19)
(-0.00175547 0.00209047 -1.07833e-19)
(-0.00512239 0.000331899 -1.1899e-20)
(-0.0104896 -0.00611616 2.67651e-19)
(-0.0169304 -0.0153432 2.63539e-19)
(-0.0242058 -0.0262141 -5.35238e-20)
(-0.0319904 -0.0379497 -3.34948e-20)
(-0.0023517 0.00326969 6.91646e-20)
(-0.00642631 0.00341532 1.41784e-19)
(-0.0120273 -0.00149161 -9.7546e-20)
(-0.0183573 -0.00952433 -1.20408e-19)
(-0.0252377 -0.0195123 -1.24295e-19)
(-0.0323893 -0.0306322 -3.31779e-20)
(-0.00295165 0.00435356 -9.50112e-20)
(-0.00773188 0.00627921 -3.07904e-19)
(-0.0135419 0.00284215 9.73028e-20)
(-0.0197179 -0.00403287 5.36045e-21)
(-0.0261416 -0.0131499 4.06347e-19)
(-0.0325805 -0.0236488 -2.40668e-19)
(-0.0387091 -0.0349658 -2.04601e-19)
(-0.00354696 0.00533539 -9.14291e-20)
(-0.00902064 0.00890607 3.64917e-19)
(-0.0150106 0.00685886 -2.76111e-19)
(-0.0209876 0.00109821 -5.60522e-20)
(-0.0268927 -0.00716486 -9.38497e-20)
(-0.0325391 -0.0170412 -2.4227e-19)
(-0.0376368 -0.0279299 2.38718e-19)
(-0.00412944 0.00621004 1.30048e-19)
(-0.0102745 0.0112816 -1.6023e-19)
(-0.0164108 0.0105359 -1.99873e-19)
(-0.0221423 0.00583943 -1.87178e-19)
(-0.0274667 -0.00159223 6.15716e-20)
(-0.0322418 -0.0108483 3.37676e-20)
(-0.0362114 -0.0212975 8.54724e-20)
(-0.00469127 0.00697404 -2.75124e-19)
(-0.0114758 0.0133949 2.16658e-19)
(-0.0177206 0.0138547 2.40866e-19)
(-0.0231587 0.0101652 -1.39254e-19)
(-0.0278405 0.00353646 2.35965e-19)
(-0.0316659 -0.00510721 2.25663e-19)
(-0.0344114 -0.0151087 -4.02118e-20)
(-0.0357902 -0.0260493 -2.25595e-19)
(-0.00522515 0.00762557 -2.18212e-19)
(-0.012608 0.0152384 -1.99557e-19)
(-0.0189194 0.0168009 1.56626e-19)
(-0.0240145 0.0140542 9.0148e-20)
(-0.0279918 0.00819356 3.67926e-20)
(-0.0307901 0.000149222 -6.65859e-20)
(-0.0322164 -0.00940228 -4.62481e-20)
(-0.0320041 -0.0200131 1.05511e-19)
(-0.00572443 0.00816448 1.05395e-19)
(-0.0136558 0.0168084 2.07041e-19)
(-0.0199877 0.0193644 -3.69876e-19)
(-0.0246888 0.0174898 -2.80961e-19)
(-0.0278996 0.0123559 1.41893e-19)
(-0.0295941 0.00489171 1.31891e-19)
(-0.0296074 -0.00421211 -2.71595e-19)
(-0.0276912 -0.0144836 -2.43539e-20)
(-0.00618326 0.00859225 5.1042e-19)
(-0.0146051 0.0181045 -3.50922e-19)
(-0.0209073 0.0215398 8.41759e-20)
(-0.0251615 0.0204602 2.73128e-19)
(-0.0275436 0.0160052 -2.91835e-19)
(-0.0280581 0.00909589 1.40826e-20)
(-0.0265654 0.000431419 2.19094e-19)
(-0.0228337 -0.00949555 4.00162e-19)
(-0.0165692 -0.0203591 4.02999e-19)
(-0.00659667 0.00891184 -4.84554e-19)
(-0.0154434 0.0191297 3.49968e-19)
(-0.0216618 0.0233261 8.40898e-20)
(-0.0254139 0.0229585 -2.71282e-19)
(-0.0269039 0.0191284 1.13853e-19)
(-0.0261623 0.0127426 -5.45387e-20)
(-0.0230712 0.0045038 -4.01563e-20)
(-0.0174134 -0.00507905 -3.37961e-19)
(-0.00890289 -0.0156557 -5.29632e-19)
(-0.00696062 0.00912763 3.89931e-19)
(-0.0161599 0.0198903 -9.88795e-20)
(-0.0222361 0.0247267 3.33977e-19)
(-0.0254282 0.0249833 8.02802e-20)
(-0.0259614 0.0217181 -1.75584e-19)
(-0.0238866 0.0158187 2.82343e-20)
(-0.0191045 0.00798639 -3.69259e-19)
(-0.0114101 -0.00125709 1.66797e-19)
(-0.000524491 -0.0115404 9.02094e-20)
(0.013873 -0.0226062 1.35903e-20)
(-0.00727206 0.00924516 -9.91513e-20)
(-0.0167455 0.0203956 -1.06871e-19)
(-0.0226166 0.0257492 -2.09353e-19)
(-0.0251875 0.0265379 1.5231e-19)
(-0.0246965 0.0237727 2.73964e-19)
(-0.0212097 0.0183172 -3.52398e-19)
(-0.0146427 0.0108675 5.58635e-19)
(-0.00480079 0.00195432 -1.08491e-19)
(0.00858916 -0.00803243 1.59844e-20)
(0.0258452 -0.0188114 -3.71238e-19)
(-0.00752886 0.009271 3.14855e-20)
(-0.0171926 0.0206574 1.03544e-19)
(-0.022791 0.0264051 1.2384e-19)
(-0.0246753 0.027631 -1.02367e-19)
(-0.0230892 0.0252962 2.54861e-19)
(-0.0181086 0.0202379 3.38869e-19)
(-0.00966043 0.0131428 5.38269e-21)
(0.00244209 0.00454773 -4.32076e-19)
(0.0184672 -0.00514144 -3.42963e-19)
(0.038729 -0.0156214 3.56099e-19)
(-0.00772977 0.00921245 -1.85595e-19)
(-0.0174951 0.0206895 1.7715e-19)
(-0.0227481 0.0267097 -1.29243e-19)
(-0.0238753 0.0282758 -6.36294e-20)
(-0.0211184 0.0262991 -1.71854e-19)
(-0.014558 0.0215875 -1.29141e-19)
(-0.0041282 0.0148161 -2.30045e-19)
(0.0103516 0.00652486 3.77252e-19)
(0.029145 -0.00286682 1.49114e-19)
(0.0525625 -0.0130351 -3.63353e-19)
(0.0809225 -0.0237211 -4.37532e-19)
(-0.00787432 0.00907733 -1.88715e-20)
(-0.0176481 0.0205078 -4.37739e-19)
(-0.0224774 0.0266811 1.05695e-19)
(-0.0227708 0.0284901 2.32906e-19)
(-0.0187615 0.026797 -4.1953e-20)
(-0.0105292 0.0223797 -2.77395e-19)
(0.00198813 0.0158994 3.03972e-19)
(0.0189671 0.00789699 3.45784e-19)
(0.040667 -0.00119669 1.31095e-19)
(0.0673922 -0.0110389 6.46608e-19)
(0.0994508 -0.0213474 -2.98408e-19)
(-0.00796262 0.00887377 -1.08057e-19)
(-0.0176476 0.0201292 -3.91004e-20)
(-0.0219689 0.0263401 -3.50435e-19)
(-0.0213448 0.0282959 2.12648e-19)
(-0.0159937 0.0268116 -2.15231e-19)
(-0.00598994 0.0226352 -2.17059e-19)
(0.00872808 0.0164131 -1.92365e-20)
(0.0283348 0.00868525 -3.48344e-19)
(0.053085 -0.000107785 -5.49283e-19)
(0.0832748 -0.00960593 1.49068e-19)
(0.119196 -0.0195048 1.65647e-19)
(0.161085 -0.0295282 -6.9498e-20)
(-0.00799535 0.00860993 3.39437e-19)
(-0.0174904 0.0195715 -5.3624e-20)
(-0.0212123 0.0257097 3.09716e-19)
(-0.0195787 0.0277185 -3.14687e-19)
(-0.0127879 0.0263694 4.60422e-19)
(-0.000904064 0.0223814 3.82453e-19)
(0.0161368 0.0163859 -3.11785e-19)
(0.0385083 0.0089207 -5.76371e-19)
(0.0664597 0.000434688 9.4781e-19)
(0.100275 -0.00869613 2.32371e-19)
(0.140222 -0.0181466 -1.79396e-19)
(0.186498 -0.0276175 -1.75519e-19)
(-0.0079734 0.00829372 -5.42458e-19)
(-0.0171734 0.0188526 3.54582e-19)
(-0.0201972 0.0248143 -5.22794e-19)
(-0.0174529 0.0267866 -2.82297e-19)
(-0.00911388 0.0255018 1.04233e-19)
(0.00476908 0.0216523 -4.13088e-19)
(0.0242653 0.0158547 6.42683e-19)
(0.0495479 0.00864418 1.11926e-20)
(0.0808592 0.000476984 -3.52681e-19)
(0.118465 -0.00825643 -3.05395e-19)
(0.162602 -0.0172118 -5.40318e-19)
(0.213409 -0.0260692 -6.31516e-21)
(0.270862 -0.0345128 -7.52128e-20)
(-0.00789775 0.00793268 1.92716e-19)
(-0.0166934 0.0179906 -3.54667e-19)
(-0.0189123 0.0236795 4.51308e-19)
(-0.0149457 0.0255311 6.28577e-19)
(-0.00493861 0.0242443 -2.02547e-19)
(0.0110745 0.0204877 2.65916e-20)
(0.03317 0.0148639 -5.41141e-19)
(0.0615205 0.00790587 -1.3304e-19)
(0.0963578 7.62221e-05 -4.13069e-19)
(0.137924 -0.00822141 5.34109e-19)
(0.186408 -0.0166258 4.90729e-19)
(0.241878 -0.0247999 -8.60465e-20)
(0.304198 -0.0324138 -6.40336e-20)
(-0.00776922 0.00753377 5.09169e-20)
(-0.0160468 0.0170028 7.18265e-20)
(-0.017345 0.022331 -2.36206e-19)
(-0.0120331 0.023985 -6.47651e-19)
(-0.000225747 0.0226362 1.04092e-19)
(0.0180613 0.0189326 3.12699e-19)
(0.0429123 0.0134652 1.41663e-19)
(0.0744978 0.00676461 6.02992e-19)
(0.113034 -0.000700403 -3.75296e-19)
(0.158729 -0.00851454 -4.84164e-19)
(0.211711 -0.0163023 -8.79663e-20)
(0.271952 -0.0237138 2.16659e-19)
(0.339177 -0.0304127 4.67304e-20)
(0.412783 -0.036068 1.90253e-20)
(-0.00758825 0.00710317 -2.51396e-19)
(-0.0152289 0.0159058 1.66545e-20)
(-0.0154809 0.0207949 -4.63199e-20)
(-0.0086891 0.0221826 5.61469e-19)
(0.00506414 0.0207194 1.75998e-19)
(0.0257823 0.0170369 -5.70095e-20)
(0.0535575 0.0117163 2.17592e-19)
(0.088555 0.00528696 1.91066e-19)
(0.130969 -0.00177681 4.58183e-19)
(0.180959 -0.00904968 5.63627e-20)
(0.238576 -0.0161453 -5.42381e-19)
(0.303666 -0.0227063 3.09457e-20)
(0.375784 -0.0283986 -4.31926e-19)
(0.454105 -0.0329091 -3.70191e-20)
(0.537375 -0.0359411 -2.02536e-19)
(-0.0073547 0.00664631 4.11407e-19)
(-0.0142337 0.0147149 2.95601e-19)
(-0.0133042 0.0190966 2.3267e-19)
(-0.00488492 0.0201589 -3.20336e-19)
(0.0109734 0.0185382 2.16392e-19)
(0.0342936 0.0148541 -2.05071e-19)
(0.0651735 0.00968034 -3.22671e-19)
(0.103769 0.00354599 -4.49914e-19)
(0.150241 -0.00306958 -1.96432e-19)
(0.204687 -0.00973315 3.84553e-19)
(0.267052 -0.0160516 3.38195e-19)
(0.337032 -0.0216672 4.90753e-19)
(0.413973 -0.0262576 4.34078e-19)
(0.496787 -0.0295413 -1.30586e-19)
(0.583927 -0.0312789 -1.77317e-19)
(-0.00706774 0.00616775 -2.51233e-19)
(-0.0130539 0.0134444 -6.752e-19)
(-0.0107965 0.0172608 -2.75319e-19)
(-0.000589568 0.0179493 2.94159e-19)
(0.0175467 0.0161386 8.48958e-20)
(0.043653 0.0124407 1.39925e-19)
(0.0778294 0.00742463 3.69552e-19)
(0.120214 0.00161993 -3.69643e-19)
(0.170923 -0.00448971 5.09881e-19)
(0.229971 -0.010466 -5.28254e-20)
(0.297173 -0.0159142 -7.47527e-19)
(0.372036 -0.0204844 -1.4084e-19)
(0.453659 -0.0238774 -4.80267e-19)
(0.540662 -0.0258573 -3.26663e-19)
(0.631169 -0.0262563 3.51529e-19)
(0.722828 -0.0250641 2.82682e-19)
(-0.00672563 0.00567121 3.33896e-19)
(-0.0116803 0.0121069 5.26443e-19)
(-0.00793754 0.0153113 -2.85086e-20)
(0.00423021 0.015589 -2.43132e-19)
(0.0248309 0.0135675 -2.6982e-19)
(0.0539196 0.00985537 5.81e-20)
(0.0915931 0.00501951 -4.3685e-19)
(0.137962 -0.000409339 4.1657e-19)
(0.193081 -0.00594454 -1.63478e-19)
(0.256859 -0.0111463 -3.55867e-19)
(0.328946 -0.0156251 4.46685e-19)
(0.408629 -0.0190483 -1.09713e-19)
(0.494722 -0.0211525 -1.96856e-19)
(0.585516 -0.0217613 3.63866e-19)
(0.678801 -0.0207921 -5.50928e-19)
(0.771928 -0.0183443 2.84494e-21)
(0.86227 -0.0143302 2.08729e-20)
(-0.00632566 0.00515957 -3.71924e-19)
(-0.0101018 0.010714 -1.47054e-19)
(-0.0047049 0.0132706 2.64456e-19)
(0.00960959 0.0131125 2.19632e-19)
(0.0328737 0.0108719 2.50078e-19)
(0.0651519 0.00715791 -1.44639e-19)
(0.10653 0.00253727 -1.25654e-19)
(0.157077 -0.00245779 -5.42564e-20)
(0.216767 -0.00733973 -5.78896e-19)
(0.285374 -0.0116723 1.07911e-18)
(0.362353 -0.0150788 1.15875e-20)
(0.446727 -0.0172554 1.36777e-19)
(0.536995 -0.0179882 1.34116e-19)
(0.631098 -0.0171742 2.70194e-19)
(0.726491 -0.0148274 4.64491e-19)
(0.820262 -0.0111569 2.63913e-19)
(0.909602 -0.00621423 2.78726e-19)
(-0.00586411 0.00463502 9.35821e-20)
(-0.00830525 0.00927583 -7.85934e-20)
(-0.00107405 0.01116 1.97726e-19)
(0.0155852 0.010554 -2.99871e-19)
(0.041723 0.00809908 -3.73035e-20)
(0.0774063 0.00440862 1.38087e-19)
(0.122699 5.09349e-05 1.67117e-19)
(0.177612 -0.00444081 -1.45091e-19)
(0.242016 -0.00858131 4.20965e-19)
(0.315517 -0.011944 -4.39198e-19)
(0.39734 -0.014175 2.04612e-19)
(0.486207 -0.0150116 -3.90779e-19)
(0.580272 -0.0143041 3.97241e-19)
(0.67712 -0.0120364 3.33931e-19)
(0.773887 -0.00832733 -6.11237e-19)
(0.867451 -0.00349325 -5.54132e-19)
(0.954913 0.00228894 -1.98126e-19)
(1.03325 0.00757828 -1.69392e-19)
(-0.00533618 0.00409913 5.87739e-19)
(-0.00627585 0.00780141 -3.38659e-19)
(0.00298127 0.009 -4.81044e-19)
(0.0221946 0.00794637 -2.01161e-19)
(0.0514261 0.00529549 -3.12751e-19)
(0.0907362 0.00166756 -3.73525e-20)
(0.140152 -0.0023667 5.55481e-19)
(0.19961 -0.00627464 2.83193e-19)
(0.268844 -0.00957759 4.46069e-19)
(0.347263 -0.0118665 1.23851e-19)
(0.433821 -0.0128215 3.4494e-19)
(0.526908 -0.0122354 -3.98024e-19)
(0.624311 -0.0100369 1.66189e-19)
(0.723263 -0.00630916 -2.72155e-19)
(0.820623 -0.00128129 3.03634e-19)
(0.913131 0.00463 6.5902e-19)
(0.997896 0.0111405 -5.44357e-20)
(1.07219 0.0169023 4.09794e-19)
(1.13579 0.0244117 -1.42677e-19)
(-0.00473609 0.00355302 -3.05566e-19)
(-0.00399693 0.006299 3.4564e-21)
(0.00748876 0.00680969 2.42524e-19)
(0.0294756 0.00532182 4.91679e-20)
(0.0620285 0.00250695 5.98378e-19)
(0.105189 -0.001006 -7.8678e-20)
(0.158933 -0.00464405 -4.7352e-19)
(0.223094 -0.00787771 -3.5401e-19)
(0.297244 -0.0102408 -5.14356e-19)
(0.380555 -0.0113515 -5.08372e-19)
(0.471673 -0.0109366 -6.06938e-19)
(0.568629 -0.0088594 6.60862e-19)
(0.668835 -0.00514167 2.92248e-19)
(0.769193 2.48379e-05 -4.10509e-20)
(0.86634 0.00629937 -8.18831e-20)
(0.956965 0.0131752 9.81827e-20)
(1.03829 0.0202832 2.79057e-19)
(1.10797 0.0263851 1.62715e-19)
(1.16591 0.0335888 1.31123e-19)
(1.20726 0.0327764 3.9507e-20)
(-0.00405714 0.00299755 -1.06615e-19)
(-0.00145031 0.00477624 6.2524e-20)
(0.0124771 0.00460765 8.91044e-20)
(0.0374655 0.00271169 2.3363e-19)
(0.0735725 -0.000221678 -1.80518e-19)
(0.120808 -0.00355403 4.55034e-20)
(0.179073 -0.00671147 4.86139e-19)
(0.248075 -0.00917177 5.39786e-20)
(0.327186 -0.0104889 -2.17354e-21)
(0.415307 -0.0103192 7.0682e-20)
(0.510741 -0.00845077 3.57764e-19)
(0.611139 -0.0048325 -5.04835e-19)
(0.713544 0.000407777 -5.49232e-19)
(0.814565 0.00696304 -2.98841e-19)
(0.910692 0.0143843 -3.66556e-19)
(0.998659 0.0220893 -4.36277e-19)
(1.07591 0.029649 -6.04311e-20)
(1.14053 0.0359464 -2.74657e-19)
(1.1927 0.0427766 5.99784e-19)
(1.22905 0.0423009 -3.04482e-19)
(-0.00329181 0.00243345 5.4725e-19)
(0.00138339 0.00324054 -1.33693e-19)
(0.0179755 0.00241196 -1.92857e-19)
(0.0462005 0.000146644 9.76728e-20)
(0.0860966 -0.0028465 4.74655e-20)
(0.137624 -0.00592004 -1.39349e-19)
(0.20059 -0.00850192 -4.12061e-20)
(0.27454 -0.0100828 -8.30124e-20)
(0.358614 -0.0102462 2.47698e-19)
(0.451401 -0.00869961 6.096e-19)
(0.550836 -0.00530771 1.94033e-19)
(0.654179 -0.00011986 5.83269e-19)
(0.758123 0.00661925 2.4056e-19)
(0.859041 0.0144848 3.33885e-19)
(0.953362 0.0229279 3.8184e-19)
(1.03796 0.0313088 -3.84961e-20)
(1.11061 0.0391656 -9.80067e-20)
(1.16988 0.0455109 -1.33569e-22)
(1.21627 0.0518975 6.62166e-20)
(1.2477 0.05161 1.60694e-19)
(-0.00243194 0.00186155 -2.4678e-19)
(0.00452441 0.00169941 3.71231e-20)
(0.0240131 0.000240611 -2.66985e-19)
(0.0557146 -0.00234305 -3.74449e-19)
(0.0996344 -0.0053245 -1.59797e-19)
(0.155664 -0.00804926 -1.71709e-20)
(0.223487 -0.00995135 2.14068e-19)
(0.302458 -0.0105419 -1.73436e-19)
(0.391446 -0.009445 3.43263e-20)
(0.488694 -0.00643382 -3.94771e-20)
(0.591745 -0.00146527 -5.07699e-19)
(0.697471 0.00529689 -7.91448e-19)
(0.802252 0.0134836 -1.19123e-19)
(0.902298 0.0225544 -2.63138e-19)
(0.99407 0.0318737 -2.49603e-19)
(1.07469 0.0407654 -4.45902e-20)
(1.14232 0.0487621 -1.6007e-19)
(1.19606 0.0550124 -9.81329e-20)
(1.23679 0.0608892 -2.94164e-19)
(1.26347 0.0606502 -5.77699e-21)
(-0.00146887 0.00128292 -2.39687e-19)
(0.00799346 0.00016077 5.13334e-19)
(0.0306183 -0.00188817 3.17898e-19)
(0.0660394 -0.00472722 1.40694e-19)
(0.114213 -0.00761345 -5.01933e-20)
(0.174941 -0.00988867 -3.26724e-19)
(0.247753 -0.0109991 -2.15249e-19)
(0.331778 -0.0104856 -1.04933e-19)
(0.425575 -0.00802583 -1.55474e-19)
(0.527013 -0.00347419 -5.53992e-19)
(0.633228 0.00310455 4.10425e-19)
(0.740723 0.0114205 2.68128e-19)
(0.845617 0.0209765 4.28289e-19)
(0.944038 0.0311239 1.23211e-19)
(1.03258 0.0411579 6.84932e-20)
(1.1087 0.0503898 2.47832e-20)
(1.17103 0.0583727 -2.64473e-20)
(1.2192 0.064396 -8.92034e-20)
(1.25446 0.0697048 -9.74459e-20)
(1.27663 0.069392 -2.91419e-19)
(-0.000393643 0.00069902 4.25833e-20)
(0.0118113 -0.0013667 -7.81871e-20)
(0.0378185 -0.00395552 5.66595e-20)
(0.0772025 -0.00697554 -1.34874e-19)
(0.129854 -0.00967165 2.82933e-19)
(0.195457 -0.0113871 5.08274e-19)
(0.273361 -0.011588 1.55469e-19)
(0.362428 -0.00985641 4.31745e-19)
(0.460872 -0.00593804 -2.27277e-19)
(0.566164 0.000215197 5.9639e-19)
(0.675033 0.00841594 1.08032e-19)
(0.783642 0.0182393 2.59676e-19)
(0.887918 0.0290611 -4.67228e-19)
(0.984 0.0401369 -1.66061e-19)
(1.06871 0.0507141 1.69788e-19)
(1.13993 0.0601156 3.25533e-19)
(1.19677 0.0679394 2.20284e-19)
(1.23943 0.0736188 -9.65446e-20)
(1.26949 0.0783123 3.94856e-19)
(1.28745 0.0778247 1.30229e-19)
(0.000802817 0.000111861 -1.42751e-19)
(0.0159983 -0.00287328 -3.23895e-19)
(0.0456388 -0.00594161 -2.42198e-19)
(0.0892275 -0.00905712 7.49618e-20)
(0.146569 -0.0114578 -4.02122e-19)
(0.217205 -0.012495 -4.97015e-19)
(0.300267 -0.0116647 -6.67528e-20)
(0.394314 -0.00860312 -1.52678e-19)
(0.497187 -0.00314006 5.37725e-19)
(0.605935 0.00465862 -1.4159e-19)
(0.716896 0.0144699 -4.13848e-19)
(0.82594 0.025729 -6.70757e-19)
(0.928878 0.0376907 3.60766e-19)
(1.02196 0.0495317 3.33002e-19)
(1.10233 0.0604758 -8.8601e-20)
(1.16834 0.069882 -1.72623e-19)
(1.21964 0.0774141 6.94147e-20)
(1.25693 0.0826497 -9.49245e-20)
(1.28212 0.0866929 -1.83025e-20)
(1.29621 0.0859516 2.32747e-19)
(0.00212952 -0.000475917 -1.09687e-19)
(0.0205739 -0.004348 -8.29613e-20)
(0.0541023 -0.00782536 3.73029e-19)
(0.102133 -0.0109403 -2.28411e-19)
(0.164363 -0.0129308 5.85298e-19)
(0.240164 -0.0131647 2.44926e-19)
(0.328411 -0.0111796 -1.59446e-19)
(0.427327 -0.00668096 -2.70524e-19)
(0.534348 0.000400512 -4.27813e-19)
(0.6461 0.00986906 1.79651e-19)
(0.758552 0.0212556 3.6708e-20)
(0.867339 0.0338546 2.23404e-19)
(0.96825 0.0468112 4.34263e-19)
(1.05774 0.0592442 -2.46548e-19)
(1.13336 0.0703796 8.85867e-20)
(1.19398 0.0796355 -3.11869e-19)
(1.23977 0.0867584 -9.53604e-20)
(1.27191 0.0914693 -7.69752e-20)
(1.29258 0.0948391 -4.48077e-20)
(1.30316 0.0937861 -3.22917e-19)
(0.00359523 -0.00106095 2.15356e-19)
(0.0255566 -0.00577843 3.41442e-19)
(0.063229 -0.00958422 1.33585e-20)
(0.115932 -0.0125926 2.09521e-19)
(0.183233 -0.0140495 -5.01357e-19)
(0.264299 -0.0133501 1.19957e-19)
(0.357717 -0.0100872 -7.71644e-20)
(0.461338 -0.00405173 -1.48224e-20)
(0.572171 0.00470702 -1.44587e-19)
(0.686426 0.0158488 -3.15853e-19)
(0.799737 0.0287513 -7.66861e-20)
(0.907583 0.0425726 2.01961e-19)
(1.00582 0.056364 -5.96714e-19)
(1.09121 0.069211 1.52342e-19)
(1.16176 0.0803674 -4.50769e-20)
(1.2169 0.0893311 2.62569e-19)
(1.2573 0.0959445 4.90402e-19)
(1.28457 0.100068 1.09841e-21)
(1.3011 0.102753 -8.20759e-20)
(1.30855 0.101349 -1.06441e-19)
(0.00520832 -0.0016391 -3.87853e-20)
(0.030963 -0.00715054 -5.13777e-19)
(0.0730354 -0.011194 -3.92299e-19)
(0.130632 -0.0139802 -2.45752e-20)
(0.203165 -0.0147731 8.76081e-20)
(0.289566 -0.0130072 -1.67667e-19)
(0.388095 -0.00834606 -2.98943e-22)
(0.496203 -0.000683963 5.53191e-20)
(0.610461 0.00979389 8.069e-20)
(0.726674 0.0225901 4.47777e-19)
(0.8402 0.0369262 1.8345e-19)
(0.946441 0.051833 -4.75489e-20)
(1.04142 0.0662886 5.39759e-20)
(1.12228 0.0793711 -6.98685e-20)
(1.18755 0.0903875 3.12959e-19)
(1.23721 0.0989326 -1.3134e-19)
(1.27242 0.104954 -2.18282e-19)
(1.29513 0.108444 -1.77151e-20)
(1.30792 0.110443 1.31989e-19)
(1.31258 0.108664 1.04081e-20)
(0.0069766 -0.00220545 6.82659e-20)
(0.0368079 -0.00844871 2.71954e-19)
(0.0835338 -0.0126288 1.68993e-19)
(0.146233 -0.0150683 -3.05339e-19)
(0.224136 -0.0150606 6.51329e-20)
(0.315905 -0.0120938 3.93606e-19)
(0.419441 -0.00591911 2.13421e-19)
(0.531767 0.00344702 2.86332e-20)
(0.649012 0.0156669 2.55518e-19)
(0.76661 0.0300762 -5.14931e-19)
(0.879703 0.0457418 -1.42815e-19)
(0.98371 0.0615817 -6.04392e-20)
(1.07491 0.0765245 3.50844e-19)
(1.15091 0.0896682 -1.05843e-19)
(1.21078 0.100396 -3.02785e-20)
(1.25504 0.108413 -1.85037e-19)
(1.2853 0.113776 -1.51604e-19)
(1.30381 0.116604 -5.0493e-20)
(1.31323 0.117924 -5.48061e-20)
(1.31546 0.11576 -1.50457e-19)
(0.00890721 -0.00275427 -6.37048e-20)
(0.0431036 -0.00965565 -3.83723e-20)
(0.0947324 -0.0138611 -9.79104e-20)
(0.162729 -0.0158211 3.20952e-19)
(0.246114 -0.0148715 2.12109e-19)
(0.343246 -0.0105699 -6.77554e-20)
(0.451637 -0.00277392 -1.241e-20)
(0.567862 0.00835905 2.60588e-19)
(0.687618 0.0223236 -3.92343e-19)
(0.806005 0.0382823 2.37357e-19)
(0.91803 0.055154 2.40157e-19)
(1.01922 0.0717623 6.287e-20)
(1.10621 0.0870134 -1.25272e-19)
(1.17709 0.100051 1.78168e-19)
(1.23153 0.110355 -4.59966e-19)
(1.27055 0.117753 5.9259e-20)
(1.29615 0.12241 -1.07146e-19)
(1.31081 0.124557 2.67601e-19)
(1.31724 0.125214 4.82335e-19)
(1.31736 0.122663 6.09955e-20)
(0.0110065 -0.00327908 -9.82591e-20)
(0.04986 -0.0107525 4.21446e-20)
(0.106635 -0.0148618 2.76228e-19)
(0.180106 -0.0162019 4.75976e-21)
(0.269056 -0.014166 -4.5934e-19)
(0.371509 -0.00839837 -3.12092e-19)
(0.484555 0.00111703 -2.64761e-19)
(0.604315 0.0140631 -1.37841e-19)
(0.726069 0.0297538 5.18022e-19)
(0.844642 0.0471768 -2.31461e-20)
(0.954986 0.065114 6.76315e-20)
(1.05283 0.0823181 1.09199e-19)
(1.13524 0.0977001 -3.62789e-19)
(1.20085 0.110476 -2.85436e-19)
(1.2499 0.120238 7.58391e-20)
(1.2839 0.126941 3.44145e-19)
(1.30515 0.130857 -2.68902e-20)
(1.31633 0.13232 2.63346e-19)
(1.32012 0.132331 -3.63681e-19)
(1.31842 0.129401 -4.41869e-20)
(0.0132798 -0.00377265 1.25242e-19)
(0.057084 -0.0117191 1.54625e-19)
(0.119238 -0.0156004 -2.84878e-19)
(0.198342 -0.0161736 -1.52152e-20)
(0.29291 -0.012905 5.37423e-19)
(0.400599 -0.00554493 3.3402e-19)
(0.518058 0.00577611 -1.32466e-19)
(0.640946 0.0205634 1.93302e-19)
(0.764161 0.0379404 -2.0471e-19)
(0.882318 0.0567223 -2.0414e-19)
(0.990405 0.0755707 2.05178e-19)
(1.08445 0.0931932 -4.11062e-19)
(1.16198 0.108534 5.12687e-20)
(1.22225 0.120905 1.92452e-19)
(1.26603 0.130023 -1.03099e-19)
(1.29524 0.135972 1.45128e-19)
(1.31249 0.139126 -1.73128e-19)
(1.32054 0.139909 -3.95076e-19)
(1.32202 0.139297 5.06956e-20)
(1.31877 0.135998 1.31618e-19)
(0.0157317 -0.00422711 1.46145e-19)
(0.0647793 -0.0125338 -4.70782e-19)
(0.132536 -0.0160453 7.50611e-20)
(0.217408 -0.0156987 -7.72564e-20)
(0.317615 -0.011051 -1.89676e-19)
(0.430415 -0.00197878 -1.49342e-19)
(0.551998 0.0112203 1.33503e-19)
(0.677573 0.0278575 -6.04833e-19)
(0.801697 0.0468595 -1.39456e-19)
(0.918849 0.0668769 8.97689e-20)
(1.02415 0.0864715 -1.1259e-19)
(1.11399 0.104334 3.16596e-19)
(1.18645 0.119471 2.1922e-19)
(1.24137 0.131306 7.49307e-20)
(1.28004 0.139694 4.09303e-19)
(1.30476 0.144846 -3.98017e-19)
(1.31835 0.147229 2.41655e-19)
(1.3236 0.147342 3.34812e-19)
(1.32308 0.146132 -3.03001e-20)
(1.31852 0.142478 -2.09641e-19)
(0.0183653 -0.00463399 1.14951e-20)
(0.0729463 -0.013174 -5.002e-21)
(0.146516 -0.0161644 3.39858e-19)
(0.237269 -0.0147402 -4.80875e-20)
(0.343099 -0.00856843 -2.13895e-20)
(0.460845 0.00232699 3.55134e-19)
(0.586226 0.0174608 4.03582e-19)
(0.714017 0.0359365 1.1052e-19)
(0.83849 0.056482 2.33567e-19)
(0.954071 0.0775956 -1.50921e-19)
(1.0561 0.0977642 -1.26984e-19)
(1.14141 0.115691 -3.18152e-21)
(1.20868 0.130469 -1.51768e-19)
(1.25831 0.141655 -5.78452e-21)
(1.29208 0.149243 -2.87574e-19)
(1.31262 0.153568 1.11743e-19)
(1.32288 0.155179 2.56953e-19)
(1.32566 0.154638 -1.27553e-19)
(1.32342 0.152855 1.4455e-19)
(1.31776 0.148861 2.54793e-19)
(0.0211827 -0.00498433 4.43373e-20)
(0.081582 -0.0136164 -1.19959e-19)
(0.161159 -0.0159248 -7.06409e-21)
(0.257879 -0.0132618 3.70086e-21)
(0.369285 -0.00542417 -2.34973e-19)
(0.491771 0.00739497 -3.33915e-20)
(0.620585 0.0245032 -4.15815e-19)
(0.750101 0.0447855 4.27359e-19)
(0.874366 0.0667737 2.17785e-19)
(0.987841 0.0888311 1.97286e-20)
(1.08617 0.109397 -1.90444e-21)
(1.16671 0.127218 -1.10255e-19)
(1.22872 0.141497 6.38946e-20)
(1.27318 0.151934 1.72741e-19)
(1.30231 0.158667 -2.96398e-19)
(1.31898 0.162145 2.22824e-19)
(1.32624 0.162991 -2.64665e-19)
(1.32686 0.161815 -1.16882e-20)
(1.32313 0.159485 9.22498e-22)
(1.31655 0.155164 1.14837e-19)
(0.0241847 -0.00526869 -9.74497e-20)
(0.0906795 -0.0138369 -1.07723e-19)
(0.17644 -0.0152941 1.53724e-19)
(0.279186 -0.0112283 -6.76315e-20)
(0.396083 -0.00158775 -2.08597e-20)
(0.523068 0.0132431 -2.05251e-19)
(0.65492 0.0323473 2.27541e-19)
(0.785653 0.0543841 -4.04515e-19)
(0.909164 0.0776968 3.60567e-20)
(1.02004 0.100535 6.13266e-20)
(1.11431 0.121321 -3.28004e-20)
(1.18989 0.138873 2.32229e-20)
(1.24665 0.152524 -2.67297e-19)
(1.28611 0.162128 -2.01663e-19)
(1.31086 0.167964 1.67478e-19)
(1.32399 0.170588 -5.31716e-20)
(1.32857 0.170682 -3.13941e-19)
(1.32729 0.168891 -5.8673e-20)
(1.32231 0.166036 -2.54726e-19)
(1.31497 0.161404 -3.10576e-19)
(0.0273708 -0.00547722 -2.29528e-20)
(0.100229 -0.013811 1.59804e-19)
(0.19233 -0.0142397 1.14451e-19)
(0.301132 -0.00860646 3.33652e-19)
(0.423402 0.0029674 -1.14749e-20)
(0.554604 0.0198844 1.75395e-19)
(0.689074 0.0409873 -3.67728e-19)
(0.820511 0.064707 1.28312e-19)
(0.942742 0.0892101 -1.07002e-19)
(1.05057 0.112659 1.5224e-19)
(1.14047 0.13349 3.7543e-20)
(1.21098 0.150618 8.67475e-20)
(1.26256 0.163527 2.4793e-19)
(1.29722 0.17223 3.04106e-20)
(1.31788 0.177139 -1.50205e-19)
(1.32778 0.178907 2.45705e-19)
(1.32998 0.178265 8.54348e-20)
(1.32706 0.175882 -3.99455e-20)
(1.32102 0.172524 2.39549e-19)
(1.31305 0.167592 1.56371e-19)
(0.323651 -0.00536465 -4.92537e-20)
(0.451139 0.00826426 5.89412e-20)
(0.586249 0.0273264 -3.41348e-20)
(0.722894 0.0504117 2.08112e-19)
(0.854523 0.0757237 -6.52096e-20)
(0.974974 0.101271 -7.96056e-20)
(1.07935 0.125155 -2.69042e-19)
(1.16465 0.145859 -1.69444e-19)
(1.23003 0.162422 -1.55782e-19)
(1.27654 0.174489 -1.25157e-19)
(1.30664 0.182233 4.74531e-20)
(1.32351 0.186197 -9.12088e-20)
(1.33048 0.187115 1.08133e-20)
(1.33058 0.185757 1.70309e-19)
(1.32626 0.182802 1.78569e-19)
(1.31931 0.178959 1.26404e-20)
(1.31084 0.173738 1.09217e-19)
(0.617867 0.0355714 -3.53994e-20)
(0.756231 0.0606035 -1.13519e-19)
(0.887547 0.0874 2.70523e-19)
(1.00575 0.113833 -6.74364e-20)
(1.10633 0.137977 -2.14391e-21)
(1.18686 0.158389 1.81997e-19)
(1.24711 0.174256 -1.61882e-19)
(1.2887 0.185395 7.05073e-20)
(1.31449 0.192137 -1.75701e-19)
(1.32787 0.195145 2.93392e-19)
(1.33221 0.195224 -2.20074e-19)
(1.33047 0.193169 -1.31265e-19)
(1.32494 0.189662 -1.3698e-21)
(1.31725 0.185353 -1.88516e-19)
(1.30835 0.17985 -2.21305e-21)
(1.03499 0.126851 -4.81533e-20)
(1.13147 0.151079 8.27307e-20)
(1.2071 0.171043 -1.10686e-19)
(1.26228 0.186095 1.40329e-19)
(1.29914 0.196233 1.33692e-19)
(1.32089 0.201941 2.9871e-20)
(1.33108 0.203991 -8.33485e-20)
(1.33308 0.203246 -1.93713e-20)
(1.32972 0.200514 -1.12513e-19)
(1.32316 0.196474 -4.73495e-20)
(1.31485 0.191712 7.73189e-20)
(1.30562 0.185934 -1.30714e-19)
(1.30798 0.206996 -3.57776e-21)
(1.32596 0.211648 1.23291e-19)
(1.33324 0.212743 -3.50557e-20)
(1.33316 0.21119 1.99044e-19)
(1.32841 0.207803 1.04412e-19)
(1.32098 0.203245 -1.71435e-20)
(1.31216 0.198042 5.64327e-20)
(1.30267 0.191994 2.13395e-19)
(1.33253 0.219066 -1.28647e-20)
(1.32658 0.215043 -1.56677e-19)
(1.31843 0.209981 1.2998e-20)
(1.30919 0.204348 -1.02054e-19)
(1.29949 0.198031 1.07298e-21)
(1.2961 0.204045 -2.13976e-20)
(1.35053 -0.203849 -1.36061e-19)
(1.39015 -0.223949 -5.21072e-20)
(1.38328 -0.218609 4.87049e-21)
(1.37448 -0.212245 2.29754e-20)
(1.36478 -0.205285 -1.16192e-19)
(1.35469 -0.197577 -2.07675e-20)
(1.33912 -0.208533 3.5629e-20)
(1.37058 -0.216263 -1.1681e-19)
(1.38717 -0.219458 5.59371e-20)
(1.39299 -0.219087 1.89195e-21)
(1.39164 -0.21611 1.65967e-19)
(1.38592 -0.21134 2.10743e-19)
(1.37781 -0.205417 -5.23112e-20)
(1.36853 -0.198829 9.1554e-20)
(1.35867 -0.191329 1.09788e-19)
(1.09108 -0.139326 4.85897e-20)
(1.19255 -0.163576 1.99487e-19)