/*--------------------------------*- C++ -*----------------------------------*\
  =========                 |
  \\      /  F ield         | OpenFOAM: The Open Source CFD Toolbox
   \\    /   O peration     | Website:  https://openfoam.org
    \\  /    A nd           | Version:  7
     \\/     M anipulation  |
\*---------------------------------------------------------------------------*/
FoamFile
{
    version     2.0;
    format      ascii;
    class       surfaceScalarField;
    location    "40";
    object      phi;
}
// * * * * * * * * * * * * * * * * * * * * * * * * * * * * * * * * * * * * * //

dimensions      [0 3 -1 0 0 0 0];

internalField   nonuniform List<scalar> 
8923
(
-0.000432519
5.80678e-06
9.03978e-06
-0.00044642
4.21262e-06
9.6891e-06
-0.000459376
3.20632e-06
9.7491e-06
-0.000471441
3.06108e-06
9.00431e-06
-0.000482577
3.87057e-06
7.26547e-06
-0.000492764
5.81073e-06
4.37627e-06
-0.000501913
8.88964e-06
2.59416e-07
-0.00050993
1.30758e-05
-5.05934e-06
-0.000516674
1.818e-05
-1.14354e-05
-0.000521979
2.38632e-05
-1.85591e-05
-0.000525637
2.96008e-05
-2.59419e-05
-0.000527429
3.45651e-05
-3.27736e-05
-0.000527069
3.82299e-05
-3.85903e-05
-0.000524243
3.98098e-05
-4.26356e-05
-0.000518618
3.85471e-05
-4.41721e-05
-0.000509845
3.38398e-05
-4.26126e-05
-0.000497567
2.5192e-05
-3.74697e-05
-0.00048145
1.26247e-05
-2.87424e-05
-0.000461184
-3.66628e-06
-1.65991e-05
-0.000436518
-2.29218e-05
-1.74462e-06
-0.000407265
-4.40851e-05
1.48327e-05
-0.00037333
-6.57266e-05
3.17908e-05
-8.63204e-05
4.77075e-05
-0.0004308
2.05976e-05
-0.000444643
1.80554e-05
-0.000457536
1.60989e-05
-0.000469533
1.50588e-05
-0.000480597
1.4934e-05
-0.000490706
1.59198e-05
-0.000499772
1.79553e-05
-0.000507699
2.10035e-05
-0.00051435
2.48307e-05
-0.000519555
2.90686e-05
-0.000523111
3.31565e-05
-0.000524794
3.62479e-05
-0.00052432
3.77558e-05
-0.000521377
3.68667e-05
-0.000515632
3.2802e-05
-0.000506739
2.49471e-05
-0.000494341
1.27937e-05
-0.00047811
-3.60621e-06
-0.000457743
-2.40325e-05
-0.000432989
-4.7676e-05
-0.000403671
-7.3403e-05
-0.000369699
-9.96992e-05
-0.000124938
-0.000427309
3.52733e-05
-0.000441033
3.17788e-05
-0.0004538
2.88667e-05
-0.000465667
2.69252e-05
-0.000476592
2.58588e-05
-0.000486554
2.58825e-05
-0.000495466
2.6867e-05
-0.000503232
2.87691e-05
-0.000509712
3.13115e-05
-0.000514741
3.40971e-05
-0.000518113
3.65289e-05
-0.000519606
3.77402e-05
-0.000518935
3.70856e-05
-0.000515792
3.37234e-05
-0.000509844
2.68541e-05
-0.000500753
1.58555e-05
-0.000488153
1.94614e-07
-0.000471744
-2.00159e-05
-0.000451205
-4.45708e-05
-0.000426305
-7.25769e-05
-0.00039687
-0.000102837
-0.000362819
-0.00013375
-0.000163591
-0.000422058
4.97756e-05
-0.000435602
4.53237e-05
-0.000448185
4.14493e-05
-0.000459857
3.85976e-05
-0.000470579
3.65807e-05
-0.000480329
3.56321e-05
-0.000489017
3.55553e-05
-0.000496549
3.63009e-05
-0.000502786
3.75484e-05
-0.000507561
3.88724e-05
-0.000510672
3.96398e-05
-0.000511894
3.89625e-05
-0.000510948
3.61389e-05
-0.000507524
3.02992e-05
-0.000501295
2.06252e-05
-0.000491914
6.47502e-06
-0.000479066
-1.26537e-05
-0.000462392
-3.66899e-05
-0.00044162
-6.5343e-05
-0.000416515
-9.76819e-05
-0.000386915
-0.000132437
-0.000352746
-0.00016792
-0.000202307
-0.000415065
6.40479e-05
-0.000428373
5.86325e-05
-0.000440712
5.37879e-05
-0.00045213
5.00156e-05
-0.000462586
4.70371e-05
-0.000472058
4.51039e-05
-0.000480456
4.39534e-05
-0.000487685
4.35296e-05
-0.000493606
4.34699e-05
-0.000498055
4.3321e-05
-0.000500829
4.2414e-05
-0.000501705
3.98384e-05
-0.000500405
3.48386e-05
-0.000496623
2.6517e-05
-0.000490036
1.40381e-05
-0.000480308
-3.25273e-06
-0.000467117
-2.58441e-05
-0.000450124
-5.36833e-05
-0.000429057
-8.64102e-05
-0.000403694
-0.000123044
-0.000373884
-0.000162246
-0.000339561
-0.000202243
-0.000241113
-0.000406355
7.80355e-05
-0.000419372
7.16498e-05
-0.00043141
6.58261e-05
-0.000442516
6.11212e-05
-0.000452647
5.71684e-05
-0.00046178
5.42362e-05
-0.000469824
5.19975e-05
-0.000476683
5.03891e-05
-0.000482221
4.90082e-05
-0.000486273
4.7373e-05
-0.000488639
4.47799e-05
-0.000489096
4.02955e-05
-0.000487369
3.31118e-05
-0.000483157
2.23045e-05
-0.000476137
7.01789e-06
-0.000466001
-1.3388e-05
-0.000452401
-3.94442e-05
-0.000435025
-7.10595e-05
-0.000413608
-0.000107827
-0.000387939
-0.000148713
-0.000357877
-0.000192308
-0.000323367
-0.000236753
-0.000280032
-0.000395959
9.16863e-05
-0.000408632
8.43229e-05
-0.000420316
7.75104e-05
-0.000431055
7.18594e-05
-0.000440804
6.69181e-05
-0.000449539
6.29706e-05
-0.000457169
5.96274e-05
-0.000463597
5.68173e-05
-0.000468688
5.40991e-05
-0.000472278
5.09629e-05
-0.000474169
4.66708e-05
-0.000474139
4.02661e-05
-0.000471917
3.08895e-05
-0.000467211
1.75981e-05
-0.000459695
-4.98111e-07
-0.000449081
-2.40015e-05
-0.000435015
-5.35099e-05
-0.000417201
-8.88743e-05
-0.000395384
-0.000129644
-0.000369365
-0.000174732
-0.000339016
-0.000222658
-0.000304291
-0.000271478
-0.000319083
-0.000383911
0.000104951
-0.000396191
9.66025e-05
-0.000407471
8.87907e-05
-0.000417791
8.21791e-05
-0.000427106
7.62336e-05
-0.000435389
7.12531e-05
-0.000442549
6.67873e-05
-0.000448488
6.27567e-05
-0.000453073
5.86838e-05
-0.00045614
5.40302e-05
-0.000457495
4.80252e-05
-0.000456917
3.96882e-05
-0.000454138
2.81105e-05
-0.000448863
1.23231e-05
-0.000440821
-8.54004e-06
-0.000429658
-3.51646e-05
-0.000415073
-6.80945e-05
-0.000396772
-0.000107176
-0.000374512
-0.000151904
-0.000348107
-0.000201137
-0.00031744
-0.000253325
-0.000282478
-0.00030644
-0.000358279
-0.000370252
0.000117784
-0.000382092
0.000108442
-0.000392922
9.96208e-05
-0.000402776
9.2033e-05
-0.000411609
8.50666e-05
-0.00041939
7.9034e-05
-0.000426029
7.34263e-05
-0.000431427
6.8155e-05
-0.000435452
6.27084e-05
-0.000437942
5.65202e-05
-0.000438704
4.87876e-05
-0.000437522
3.85058e-05
-0.000434129
2.47178e-05
-0.000428246
6.43972e-06
-0.000419601
-1.71847e-05
-0.000407853
-4.69123e-05
-0.000392703
-8.3245e-05
-0.000373874
-0.000126005
-0.000351135
-0.000174642
-0.000324314
-0.000227959
-0.000293305
-0.000284333
-0.000258091
-0.000341655
-0.000397629
-0.000355024
0.000130143
-0.000366383
0.000119801
-0.00037672
0.000109959
-0.000386066
0.000101378
-0.000394373
9.33738e-05
-0.000401608
8.62688e-05
-0.00040768
7.94986e-05
-0.00041249
7.29652e-05
-0.000415907
6.61254e-05
-0.000417771
5.83844e-05
-0.000417893
4.8909e-05
-0.000416055
3.66683e-05
-0.000412009
2.06721e-05
-0.000405464
-1.06088e-07
-0.000396179
-2.64695e-05
-0.000383798
-5.9293e-05
-0.000368045
-9.89979e-05
-0.000348655
-0.000145395
-0.000325409
-0.000197888
-0.000298148
-0.00025522
-0.000266782
-0.000315699
-0.000231304
-0.000377132
-0.000437137
-0.000338274
0.00014199
-0.000349114
0.00013064
-0.000358922
0.000119767
-0.000367721
0.000110178
-0.000375464
0.000101117
-0.000382113
9.29183e-05
-0.000387579
8.49645e-05
-0.00039176
7.71467e-05
-0.000394528
6.88931e-05
-0.000395725
5.95808e-05
-0.000395163
4.83472e-05
-0.00039263
3.41355e-05
-0.000387868
1.59101e-05
-0.000380664
-7.31021e-06
-0.00037068
-3.64537e-05
-0.000357634
-7.23388e-05
-0.000341249
-0.000115383
-0.000321272
-0.000165372
-0.000297499
-0.000221661
-0.000269784
-0.000282935
-0.000238051
-0.000347432
-0.000202307
-0.000412877
-0.000162644
-0.0004768
-0.000536648
-0.000320051
0.000153291
-0.000330338
0.000140928
-0.000339584
0.000129012
-0.000347804
0.000118398
-0.00035495
0.000108263
-0.000360981
9.89494e-05
-0.000365807
8.97901e-05
-0.000369325
8.06651e-05
-0.000371409
7.09771e-05
-0.000371903
6.00747e-05
-0.000370623
4.70674e-05
-0.000367359
3.08714e-05
-0.000361873
1.04236e-05
-0.000353937
-1.52456e-05
-0.000343247
-4.71437e-05
-0.00032951
-8.6076e-05
-0.000312472
-0.000132421
-0.000291892
-0.000185952
-0.000267579
-0.000245974
-0.000239403
-0.000311111
-0.000207302
-0.000379533
-0.000171295
-0.000448884
-0.000131486
-0.000516609
-0.000580074
-0.000300404
0.000164018
-0.000310111
0.000150635
-0.000318768
0.000137669
-0.000326382
0.000126012
-0.000332904
0.000114784
-0.000338289
0.000104335
-0.000342447
9.39481e-05
-0.000345275
8.34929e-05
-0.000346647
7.23495e-05
-0.000346411
5.98383e-05
-0.000344385
4.50418e-05
-0.000340366
2.68523e-05
-0.000334129
4.18601e-06
-0.00032545
-2.39246e-05
-0.000314023
-5.857e-05
-0.00029958
-0.00010052
-0.000281876
-0.000150125
-0.000260684
-0.000207143
-0.000235828
-0.000270829
-0.000207192
-0.000339748
-0.000174729
-0.000411997
-0.00013847
-0.000485142
-9.8531e-05
-0.000556548
-0.000623502
-0.000279386
0.000174146
-0.00028849
0.000159739
-0.000296535
0.000145714
-0.000303522
0.000133
-0.000309399
0.000120661
-0.000314118
0.000109054
-0.000317588
9.74176e-05
-0.000319704
8.56092e-05
-0.000320344
7.29898e-05
-0.000319357
5.88514e-05
-0.000316566
4.22503e-05
-0.000311773
2.20595e-05
-0.000304771
-2.81612e-06
-0.000295331
-3.33644e-05
-0.000283158
-7.07429e-05
-0.000268001
-0.000115677
-0.000249627
-0.000168499
-0.000227824
-0.000228946
-0.000202429
-0.000296223
-0.000173342
-0.000368835
-0.00014053
-0.000444809
-0.000104038
-0.000521635
-6.39895e-05
-0.000596596
-0.000666907
-0.000257047
0.000183657
-0.000265531
0.000168223
-0.000272949
0.000153132
-0.000279293
0.000139345
-0.00028451
0.000125878
-0.000288549
0.000113092
-0.000291316
0.000100185
-0.000292707
8.70002e-05
-0.000292602
7.28846e-05
-0.000290851
5.71013e-05
-0.000287282
3.86813e-05
-0.000281703
1.64797e-05
-0.000273938
-1.05806e-05
-0.000263725
-4.35776e-05
-0.000250803
-8.36647e-05
-0.000234932
-0.000131548
-0.000215892
-0.000187539
-0.000193486
-0.000251352
-0.000167566
-0.000322143
-0.000138045
-0.000398355
-0.000104905
-0.000477949
-6.82032e-05
-0.000558337
-2.80727e-05
-0.000636727
-0.000710258
-0.000233438
0.000192538
-0.000241291
0.000176076
-0.000248071
0.000159912
-0.000253764
0.000145038
-0.000258313
0.000130427
-0.000261662
0.000116441
-0.00026372
0.000102242
-0.000264379
8.76594e-05
-0.000263522
7.2028e-05
-0.000261004
5.45826e-05
-0.000256652
3.43294e-05
-0.000250293
1.01207e-05
-0.000241753
-1.91208e-05
-0.000230774
-5.45562e-05
-0.000217108
-9.73305e-05
-0.000200532
-0.000148124
-0.00018084
-0.000207232
-0.000157847
-0.000274345
-0.000131422
-0.000348568
-0.000101492
-0.000428286
-6.80523e-05
-0.000511388
-3.11707e-05
-0.000595218
9.01269e-06
-0.00067691
-0.000753508
-0.000208609
0.000200781
-0.000215825
0.000183291
-0.000221963
0.00016605
-0.000227002
0.000150077
-0.000230881
0.000134306
-0.000233541
0.000119101
-0.000234888
0.000103589
-0.000234816
8.75871e-05
-0.000233209
7.04213e-05
-0.000229923
5.12967e-05
-0.000224796
2.92022e-05
-0.000217662
2.98698e-06
-0.000208357
-2.84257e-05
-0.000196619
-6.62944e-05
-0.000182224
-0.000111726
-0.00016496
-0.000165388
-0.000144635
-0.000227557
-0.00012108
-0.000297899
-9.41782e-05
-0.00037547
-6.38706e-05
-0.000458593
-3.01648e-05
-0.000545094
6.86733e-06
-0.000632251
4.70366e-05
-0.000717079
-0.000796637
-0.000182608
0.000208385
-0.000189187
0.00018987
-0.000194687
0.00017155
-0.000199075
0.000154465
-0.000202288
0.000137519
-0.000204263
0.000121077
-0.000204907
0.000104233
-0.000204111
8.67909e-05
-0.000201763
6.80731e-05
-0.00019772
4.72536e-05
-0.000191823
2.33053e-05
-0.000183943
-4.89293e-06
-0.000173879
-3.84895e-05
-0.0001614
-7.87733e-05
-0.000146297
-0.000126829
-0.00012837
-0.000183315
-0.00010744
-0.000248487
-8.33555e-05
-0.000321984
-5.60121e-05
-0.000402814
-2.53636e-05
-0.000489242
8.57232e-06
-0.00057903
4.56758e-05
-0.000669354
8.5821e-05
-0.000757225
-0.000839591
-0.00015548
0.000215357
-0.00016143
0.00019582
-0.000166299
0.000176419
-0.000170046
0.000158212
-0.000172605
0.000140078
-0.000173909
0.000122381
-0.000173863
0.000104187
-0.000172357
8.52852e-05
-0.000169283
6.4999e-05
-0.000164499
4.24697e-05
-0.000157858
1.66638e-05
-0.000149246
-1.35048e-05
-0.000138448
-4.92872e-05
-0.000125255
-9.1967e-05
-0.000109472
-0.000142612
-9.09137e-05
-0.000201873
-6.94152e-05
-0.000269985
-4.4839e-05
-0.00034656
-1.70921e-05
-0.000430561
1.3848e-05
-0.000520182
4.79406e-05
-0.000613123
8.51029e-05
-0.000706516
0.000125163
-0.000797285
-0.000882323
-0.000127267
0.000221708
-0.000132601
0.000201155
-0.000136855
0.000180673
-0.000139979
0.000161336
-0.000141902
0.000142001
-0.000142553
0.000123033
-0.000141838
0.000103472
-0.000139644
8.30917e-05
-0.000135867
6.12215e-05
-0.000130363
3.69661e-05
-0.00012301
9.31021e-06
-0.000113692
-2.28226e-05
-0.00010219
-6.07887e-05
-8.83154e-05
-0.000105842
-7.18895e-05
-0.000159038
-5.2739e-05
-0.000221024
-3.07129e-05
-0.000292012
-5.67539e-06
-0.000371597
2.24005e-05
-0.000458636
5.3575e-05
-0.000551356
8.77959e-05
-0.000647344
0.000124953
-0.000743673
0.000164872
-0.000837204
-0.000924778
-9.80084e-05
0.000227459
-0.000102749
0.000205895
-0.00010641
0.000184334
-0.000108933
0.000163859
-0.000110244
0.000143312
-0.00011027
0.000123058
-0.000108912
0.000102114
-0.000106059
8.02387e-05
-0.000101606
5.67685e-05
-9.54237e-05
3.07839e-05
-8.73852e-05
1.27174e-06
-7.73982e-05
-3.28096e-05
-6.52272e-05
-7.29597e-05
-5.07115e-05
-0.000120358
-3.36847e-05
-0.000176065
-1.39838e-05
-0.000240724
8.52324e-06
-0.000314519
3.39255e-05
-0.000397
6.23088e-05
-0.00048702
9.36708e-05
-0.000582718
0.000127956
-0.000681628
0.000165047
-0.000780765
0.000204769
-0.000876926
-0.000966902
-6.77399e-05
0.000232635
-7.19148e-05
0.00021007
-7.50127e-05
0.000187432
-7.6966e-05
0.000165812
-7.76976e-05
0.000144044
-7.71293e-05
0.00012249
-7.51628e-05
0.000100147
-7.16853e-05
7.67613e-05
-6.6595e-05
5.16782e-05
-5.97551e-05
2.3944e-05
-5.11068e-05
-7.37651e-06
-4.04715e-05
-4.34449e-05
-2.76766e-05
-8.57546e-05
-1.25643e-05
-0.00013547
5.02181e-06
-0.000193651
2.5199e-05
-0.000260902
4.81192e-05
-0.000337439
7.38656e-05
-0.000422746
0.000102485
-0.000515639
0.000133969
-0.000614203
0.000168254
-0.000715913
0.000205217
-0.000817728
0.000244679
-0.000916388
-0.00100864
-3.64933e-05
0.000237275
-4.01392e-05
0.000213716
-4.27107e-05
0.000190003
-4.41318e-05
0.000167233
-4.4322e-05
0.000144234
-4.31996e-05
0.000121367
-4.06651e-05
9.76126e-05
-3.6605e-05
7.27012e-05
-3.0918e-05
4.59911e-05
-2.34864e-05
1.65124e-05
-1.42413e-05
-1.66216e-05
-3.01209e-06
-5.46741e-05
1.03484e-05
-9.91151e-05
2.5994e-05
-0.000151115
4.40638e-05
-0.000211721
6.46872e-05
-0.000281525
8.79696e-05
-0.000360721
0.000113988
-0.000448764
0.000142776
-0.000544427
0.000174316
-0.000645742
0.000208534
-0.000750132
0.000245302
-0.000854496
0.00028444
-0.000955526
-0.00104992
-4.29403e-06
0.000241423
-7.45819e-06
0.00021688
-9.5472e-06
0.000192092
-1.04815e-05
0.000168167
-1.01753e-05
0.000143928
-8.54504e-06
0.000119737
-5.48849e-06
9.45561e-05
-8.85097e-07
6.80978e-05
5.34626e-06
3.97598e-05
1.3314e-05
8.54469e-06
2.30878e-05
-2.63954e-05
3.48456e-05
-6.6432e-05
4.87275e-05
-0.000112997
6.48566e-05
-0.000167245
8.33605e-05
-0.000230225
0.000104355
-0.00030252
0.000127932
-0.000384298
0.000154153
-0.000474986
0.00018304
-0.000573313
0.000214564
-0.000677266
0.000248644
-0.000784212
0.000285149
-0.000891001
0.000323897
-0.000994274
-0.00109069
2.88222e-05
2.60926e-05
0.00021961
2.44327e-05
0.000193752
2.3934e-05
0.000168666
2.46835e-05
0.000143178
2.67685e-05
0.000117652
3.02907e-05
9.10339e-05
3.53685e-05
6.302e-05
4.20875e-05
3.30407e-05
5.05528e-05
7.93731e-08
6.07973e-05
-3.664e-05
7.30334e-05
-7.86681e-05
8.7367e-05
-0.000127331
0.000103912
-0.00018379
0.000122782
-0.000249095
0.000144079
-0.000323817
0.000167879
-0.000408098
0.00019423
-0.000501337
0.000223141
-0.000602224
0.000254575
-0.0007087
0.000288443
-0.00081808
0.000324613
-0.00092717
0.000362902
-0.00103256
-0.00113088
6.04838e-05
0.00022197
5.91926e-05
0.000195043
5.90693e-05
0.000168789
6.02028e-05
0.000142045
6.26832e-05
0.000115172
6.66122e-05
8.71049e-05
7.21097e-05
5.75225e-05
7.92764e-05
2.58741e-05
8.81148e-05
-8.75903e-06
9.87997e-05
-4.73249e-05
0.000111444
-9.13125e-05
0.000126161
-0.000142047
0.000143052
-0.000200681
0.000162216
-0.000268259
0.000183741
-0.000345341
0.000207687
-0.000432044
0.000234091
-0.000527741
0.000262949
-0.000631082
0.000294215
-0.000739966
0.000327796
-0.000851661
0.000363556
-0.00096293
0.000401317
-0.00107032
-0.00117043
9.56856e-05
0.000224032
9.46943e-05
0.000196035
9.48787e-05
0.000168605
9.63298e-05
0.000140594
9.91392e-05
0.000112362
0.000103409
8.28354e-05
0.000109262
5.16693e-05
0.000116773
1.83626e-05
0.000125974
-1.79599e-05
0.000137
-5.83503e-05
0.000149983
-0.000104296
0.000165009
-0.000157074
0.000182171
-0.000217842
0.000201552
-0.000287641
0.000223226
-0.000367015
0.00024724
-0.000456059
0.000273616
-0.000554116
0.00030234
-0.000659806
0.000333358
-0.000770984
0.000366573
-0.000884877
0.00040185
-0.000998207
0.000439014
-0.00110749
-0.00120927
0.00013167
0.000225879
0.0001309
0.000196804
0.000131317
0.000168188
0.000133012
0.000138899
0.000136078
0.000109297
0.000140615
7.82979e-05
0.000146753
4.5532e-05
0.000154532
1.0583e-05
0.000164005
-2.7433e-05
0.000175315
-6.96604e-05
0.000188558
-0.000117539
0.000203816
-0.000172331
0.000221168
-0.000235194
0.000240686
-0.000307158
0.000262426
-0.000388755
0.000286424
-0.000480056
0.000312688
-0.00058038
0.000341194
-0.000688313
0.000371883
-0.000801672
0.000404653
-0.000917647
0.000439371
-0.00103293
0.000475868
-0.00114399
-0.00124735
0.000168408
0.000227602
0.000167774
0.000197438
0.00016834
0.000167622
0.000170198
0.00013704
0.00017344
0.000106055
0.000178169
7.35697e-05
0.000184506
3.91947e-05
0.000192488
2.60096e-06
0.000202152
-3.70969e-05
0.000213659
-8.11675e-05
0.000227079
-0.000130959
0.000242486
-0.000187738
0.000259945
-0.000252653
0.000279513
-0.000326726
0.000301234
-0.000410477
0.000325129
-0.000503951
0.000351195
-0.000606446
0.000379398
-0.000716516
0.000409674
-0.000831947
0.00044192
-0.000949893
0.000476005
-0.00106701
0.000511767
-0.00117975
-0.00128461
0.000205872
0.000229303
0.000205277
0.000198033
0.000205901
0.000166999
0.000207834
0.000135107
0.000211167
0.000102722
0.000216001
6.87358e-05
0.000222463
3.27335e-05
0.000230541
-5.47786e-06
0.000240327
-4.68825e-05
0.000251945
-9.27853e-05
0.000265457
-0.000144472
0.000280925
-0.000203205
0.000298402
-0.000270131
0.000317933
-0.000346257
0.000339546
-0.000432089
0.000363249
-0.000527655
0.000389028
-0.000632225
0.000416842
-0.00074433
0.000446621
-0.000861726
0.000478264
-0.000981536
0.000511642
-0.00110039
0.000546602
-0.00121471
-0.00132097
0.000244029
0.000231095
0.000243369
0.000198693
0.000243951
0.000166416
0.000245865
0.000133193
0.000249197
9.93895e-05
0.000254048
6.38856e-05
0.000260533
2.62482e-05
0.000268633
-1.35776e-05
0.000278447
-5.66964e-05
0.000290087
-0.000104426
0.000303601
-0.000157986
0.00031904
-0.000218645
0.000336446
-0.000287536
0.000355847
-0.000365658
0.000377259
-0.000453502
0.000400679
-0.000551075
0.000426082
-0.000657628
0.00045342
-0.000771668
0.000482619
-0.000890925
0.000513579
-0.0010125
0.000546179
-0.00113299
0.000580273
-0.0012488
-0.0013564
0.000282844
0.000233102
0.000282004
0.000199533
0.000282439
0.000165982
0.000284232
0.0001314
0.000287465
9.6156e-05
0.000292236
5.91148e-05
0.000298642
1.98421e-05
0.000306675
-2.16106e-05
0.000316429
-6.64506e-05
0.000327998
-0.000115995
0.000341421
-0.000171409
0.000356738
-0.000233962
0.000373978
-0.000304776
0.000393156
-0.000384836
0.000414275
-0.000474621
0.000437319
-0.000574119
0.000462255
-0.000682565
0.000489029
-0.000798441
0.000517565
-0.000919461
0.000547767
-0.0010427
0.000579519
-0.00116474
0.000612687
-0.00128197
-0.00139083
0.000322274
0.000235456
0.000321133
0.000200674
0.000321305
0.00016581
0.00032287
0.000129835
0.000325902
9.31241e-05
0.000330493
5.45231e-05
0.000336724
1.36116e-05
0.000344591
-2.94773e-05
0.000354189
-7.60488e-05
0.000365591
-0.000127397
0.000378827
-0.000184645
0.000393925
-0.00024906
0.000410903
-0.000321753
0.000429762
-0.000403694
0.000450492
-0.000495352
0.000473068
-0.000596695
0.000497447
-0.000706944
0.000523571
-0.000824565
0.000551364
-0.000947254
0.000580733
-0.00107207
0.000611572
-0.00119558
0.000643755
-0.00131415
-0.00142422
0.000362272
0.000238301
0.000360699
0.000202247
0.000360488
0.000166021
0.00036171
0.000128613
0.000364432
9.04018e-05
0.000368745
5.02104e-05
0.000374701
7.65574e-06
0.000382295
-3.70718e-05
0.000391636
-8.53897e-05
0.000402772
-0.000138532
0.000415723
-0.000197596
0.000430506
-0.000263843
0.000447124
-0.000338371
0.000465567
-0.000422138
0.000485814
-0.000515599
0.000507828
-0.000618709
0.000531561
-0.000730676
0.00055695
-0.000849954
0.000583921
-0.000974225
0.000612387
-0.00110053
0.00064225
-0.00122544
0.000673397
-0.0013453
-0.00145653
0.000402777
0.000241788
0.000400634
0.00020439
0.000399913
0.000166742
0.000400674
0.000127852
0.000402975
8.81002e-05
0.000406897
4.6289e-05
0.000412476
2.07696e-06
0.000419694
-4.42904e-05
0.000428677
-9.43725e-05
0.000439446
-0.000149302
0.000452013
-0.000210163
0.000466381
-0.000278211
0.000482542
-0.000354532
0.000500473
-0.000440069
0.000520141
-0.000535267
0.000541502
-0.00064007
0.000564501
-0.000753675
0.000589074
-0.000874527
0.000615149
-0.0010003
0.000642646
-0.00112803
0.000671476
-0.00125427
0.000701541
-0.00137536
-0.00148772
0.000443718
0.000246076
0.000440862
0.000207245
0.000439499
0.000168105
0.000439676
0.000127675
0.000441441
8.63354e-05
0.000444864
4.28663e-05
0.000449941
-3.0001e-06
0.000456692
-5.10418e-05
0.000465214
-0.000102895
0.000475517
-0.000159605
0.0004876
-0.000222246
0.000501455
-0.000292066
0.00051706
-0.000370137
0.000534383
-0.000457391
0.00055338
-0.000554265
0.000573999
-0.000660689
0.00059618
-0.000775856
0.000619859
-0.000898206
0.000644968
-0.00102541
0.000671434
-0.0011545
0.000699181
-0.00128202
0.000728122
-0.00140431
-0.00151775
0.000485006
0.00048129
0.000210961
0.00047915
0.000170245
0.000478619
0.000128206
0.00047973
8.52245e-05
0.000482534
4.00617e-05
0.000487007
-7.47318e-06
0.000493186
-5.72202e-05
0.000501146
-0.000110855
0.000510881
-0.00016934
0.000522381
-0.000233745
0.000535624
-0.000305309
0.000550578
-0.000385091
0.000567199
-0.000474012
0.000585433
-0.000572499
0.000605223
-0.000680478
0.000626504
-0.000797138
0.000649216
-0.000920917
0.000673293
-0.00104949
0.000698673
-0.00117988
0.000725291
-0.00130864
0.000753074
-0.00143209
-0.00154662
0.000521817
0.00021569
0.000518761
0.000173301
0.000517393
0.000129575
0.000517731
8.48865e-05
0.000519794
3.79985e-05
0.000523561
-1.12403e-05
0.000529061
-6.27204e-05
0.000536355
-0.000118149
0.000545421
-0.000178406
0.000556237
-0.000244561
0.00056877
-0.000317842
0.000582975
-0.000399297
0.000598798
-0.000489835
0.000616179
-0.00058988
0.000635053
-0.000699352
0.000655356
-0.000817441
0.000677027
-0.000942588
0.000700011
-0.00107247
0.000724253
-0.00120412
0.000749701
-0.00133408
0.000776296
-0.00145868
-0.00157429
0.000562342
0.000221589
0.000558226
0.000177417
0.000555887
0.000131913
0.000555328
8.54461e-05
0.000556536
3.67905e-05
0.000559482
-1.41865e-05
0.000564192
-6.74311e-05
0.000570713
-0.000124669
0.000579007
-0.0001867
0.000589039
-0.000254593
0.000600764
-0.000329567
0.000614127
-0.00041266
0.000629063
-0.000504771
0.000645505
-0.000606322
0.000663384
-0.000717231
0.000682637
-0.000836694
0.000703207
-0.000963158
0.000725045
-0.00109431
0.000748109
-0.00122718
0.000772359
-0.00135833
0.000797748
-0.00148407
-0.00160076
0.000602765
0.000228816
0.000597444
0.000182738
0.000594
0.000135357
0.000592412
8.70348e-05
0.000592642
3.656e-05
0.000594665
-1.6209e-05
0.00059849
-7.12567e-05
0.000604145
-0.000130324
0.000611576
-0.000194131
0.000620736
-0.000263753
0.00063157
-0.000340401
0.000644013
-0.000425102
0.00065799
-0.000518749
0.00067343
-0.000621762
0.000690261
-0.000734062
0.00070842
-0.000854853
0.000727855
-0.000982592
0.000748524
-0.00111498
0.000770393
-0.00124905
0.000793435
-0.00138138
0.000817614
-0.00150825
-0.00162604
0.00264962
0.000251906
0.00263447
0.000197887
0.00262696
0.000142868
0.00262708
8.69195e-05
0.00263427
2.93693e-05
0.00264854
-3.04788e-05
0.00267066
-9.33801e-05
0.00270008
-0.000159739
0.00273682
-0.000230879
0.00278081
-0.000307745
0.00283187
-0.000391457
0.00288972
-0.000482954
0.00295398
-0.000583001
0.00302412
-0.000691906
0.00309952
-0.000809467
0.00317947
-0.000934797
0.00326316
-0.00106628
0.00334978
-0.0012016
0.0034385
-0.00133778
0.00352855
-0.00147142
0.00361918
-0.00159889
0.00370976
-0.00171662
-0.00182135
0.00335223
0.000293691
0.00332042
0.000229689
0.00329796
0.000165327
0.00328444
0.000100439
0.00327982
3.39905e-05
0.00328372
-3.43777e-05
0.00329557
-0.000105225
0.00331563
-0.000179799
0.00334362
-0.000258871
0.0033793
-0.00034343
0.00342235
-0.000434508
0.00347236
-0.000532961
0.0035288
-0.000639438
0.00359104
-0.000754149
0.00365836
-0.000876787
0.00372995
-0.00100639
0.00380496
-0.00114129
0.00388251
-0.00127915
0.00396175
-0.00141702
0.00404187
-0.00155154
0.00412215
-0.00167917
0.00420195
-0.00179642
-0.00190015
0.00413046
0.000356206
0.00407969
0.000280462
0.00403988
0.000205132
0.00401058
0.000129742
0.00399118
5.3386e-05
0.00398129
-2.44815e-05
0.00398061
-0.00010455
0.00398878
-0.000187969
0.00400549
-0.000275575
0.00403035
-0.000368292
0.00406291
-0.000467064
0.00410262
-0.000572669
0.00414883
-0.000685649
0.00420079
-0.000806117
0.00425768
-0.000933677
0.0043186
-0.0010673
0.00438259
-0.00120529
0.00444874
-0.00134529
0.00451613
-0.00148441
0.00458396
-0.00161936
0.00465148
-0.0017467
0.00471811
-0.00186304
-0.00196541
0.00495573
0.00043723
0.00488708
0.000349114
0.00483017
0.000262038
0.0047845
0.000175411
0.00474949
8.83983e-05
0.00472472
2.90851e-07
0.0047098
-8.96259e-05
0.00470428
-0.000182451
0.00470773
-0.000279026
0.00471966
-0.000380223
0.0047395
-0.000486904
0.00476659
-0.000599763
0.00480019
-0.000719242
0.00483943
-0.000845364
0.00488341
-0.00097765
0.00493112
-0.00111502
0.00498159
-0.00125575
0.00503381
-0.00139752
0.00508688
-0.00153749
0.00513998
-0.00167246
0.00519241
-0.00179913
0.00524362
-0.00191426
-0.00201503
0.00578458
0.000529363
0.0057036
0.000430092
0.00563362
0.000332022
0.00557441
0.000234614
0.00552568
0.000137129
0.00548708
3.88955e-05
0.0054583
-6.08453e-05
0.00543894
-0.000163091
0.00542854
-0.00026863
0.00542659
-0.000378271
0.00543246
-0.000492775
0.00544544
-0.000612746
0.00546473
-0.000738524
0.0054894
-0.000870041
0.0055185
-0.00100675
0.00555099
-0.00114751
0.00558585
-0.00129062
0.0056221
-0.00143377
0.00565884
-0.00157423
0.00569529
-0.0017089
0.00573082
-0.00183466
0.00576498
-0.00194841
-0.00204753
0.00656696
0.00062167
0.00648281
0.000514241
0.00640727
0.000407556
0.00634064
0.000301247
0.00628301
0.000194755
0.00623436
8.75536e-05
0.00619451
-2.09988e-05
0.00616334
-0.000131917
0.00614044
-0.000245738
0.00612539
-0.000363216
0.00611759
-0.000484979
0.00611637
-0.000611523
0.00612092
-0.000743077
0.00613036
-0.000879475
0.00614371
-0.0010201
0.00615998
-0.00116378
0.00617818
-0.00130881
0.00619736
-0.00145296
0.00621672
-0.00159358
0.00623553
-0.00172772
0.0062533
-0.00185243
0.00626968
-0.00196478
-0.00206236
0.00725988
0.000703406
0.00718244
0.000591679
0.00711024
0.000479764
0.00704399
0.000367492
0.00698422
0.000254522
0.00693127
0.000140504
0.00688525
2.50204e-05
0.00684624
-9.29032e-05
0.00681412
-0.000213618
0.00678856
-0.00033766
0.00676914
-0.000465551
0.00675526
-0.000597647
0.00674623
-0.000734048
0.00674124
-0.000874485
0.00673942
-0.00101827
0.00673984
-0.0011642
0.00674163
-0.0013106
0.00674396
-0.00145528
0.00674611
-0.00159573
0.00674752
-0.00172913
0.00674782
-0.00185272
0.00674679
-0.00196376
-0.00206
0.00783927
0.000767496
0.00777593
0.000655022
0.00771442
0.000541279
0.00765567
0.000426237
0.00760044
0.000309749
0.00754935
0.0001916
0.00750281
7.15565e-05
0.00746094
-5.10265e-05
0.00742402
-0.000176706
0.00739185
-0.000305489
0.00736418
-0.000437877
0.00734059
-0.000574059
0.00732054
-0.000713994
0.00730336
-0.000857305
0.00728832
-0.00100324
0.00727467
-0.00115055
0.00726167
-0.0012976
0.00724865
-0.00144226
0.00723507
-0.00158215
0.00722053
-0.00171459
0.00720481
-0.001837
0.00718785
-0.00194681
-0.00204195
0.00830347
0.000811784
0.00825742
0.00070107
0.00821056
0.000588145
0.00816377
0.000473025
0.00811782
0.000355699
0.00807342
0.000236001
0.0080311
0.000113875
0.00799104
-1.09631e-05
0.00795375
-0.000139414
0.00791913
-0.000270872
0.00788711
-0.000405861
0.00785745
-0.000544395
0.00782975
-0.000686301
0.00780354
-0.000831095
0.00777827
-0.00097796
0.00775335
-0.00112563
0.00772824
-0.00127249
0.00770245
-0.00141648
0.00767564
-0.00155534
0.00764759
-0.00168653
0.00761824
-0.00180765
0.00758772
-0.00191629
-0.00201053
0.00866823
0.000838096
0.00863882
0.000730484
0.00860698
0.000619987
0.00857339
0.000506618
0.00853868
0.000390409
0.00850344
0.000271241
0.00846816
0.000149146
0.00843325
2.39551e-05
0.00839885
-0.000105022
0.00836525
-0.000237264
0.00833237
-0.000372983
0.0083001
-0.000512125
0.0082682
-0.000654403
0.00823634
-0.000799239
0.00820415
-0.000945765
0.00817122
-0.0010927
0.0081372
-0.00123847
0.00810179
-0.00138107
0.00806483
-0.00151838
0.00802628
-0.00164798
0.00798627
-0.00176764
0.00794505
-0.00187507
-0.00196852
0.00895785
0.000850323
0.00894207
0.000746272
0.00892312
0.000638931
0.00890145
0.000528294
0.00887748
0.000414378
0.00885161
0.000297112
0.00882425
0.000176502
0.00879572
5.24843e-05
0.00876607
-7.53707e-05
0.0087356
-0.000206796
0.00870429
-0.00034167
0.00867206
-0.000479899
0.00863878
-0.000621121
0.00860423
-0.000764685
0.00856815
-0.000909694
0.00853032
-0.00105487
0.00849053
-0.00119867
0.00844865
-0.00133919
0.00840468
-0.00147441
0.00835874
-0.00160205
0.0083111
-0.00172
0.00826216
-0.00182613
-0.00191878
0.00919712
0.000852695
0.00919122
0.000752171
0.00918199
0.000648156
0.00916966
0.000540623
0.00915448
0.000429561
0.00913666
0.000314929
0.00911648
0.000196688
0.00909411
7.48527e-05
0.00906956
-5.08245e-05
0.00904302
-0.000180256
0.00901448
-0.000313123
0.00898386
-0.00044928
0.00895106
-0.000588322
0.00891593
-0.000729558
0.00887832
-0.000872083
0.00883809
-0.00101463
0.00879515
-0.00115574
0.00874951
-0.00129356
0.00870129
-0.00142619
0.00865074
-0.00155149
0.00859822
-0.00166748
0.00854423
-0.00177215
-0.00186392
0.00940647
0.000848743
0.0094071
0.000751537
0.0094045
0.000650759
0.00939874
0.000546374
0.00938996
0.000438349
0.00937823
0.000326657
0.00936368
0.000211242