/*--------------------------------*- C++ -*----------------------------------*\
  =========                 |
  \\      /  F ield         | OpenFOAM: The Open Source CFD Toolbox
   \\    /   O peration     | Website:  https://openfoam.org
    \\  /    A nd           | Version:  7
     \\/     M anipulation  |
\*---------------------------------------------------------------------------*/
FoamFile
{
    version     2.0;
    format      ascii;
    class       volScalarField;
    location    "60";
    object      p;
}
// * * * * * * * * * * * * * * * * * * * * * * * * * * * * * * * * * * * * * //

dimensions      [0 2 -2 0 0 0 0];

internalField   nonuniform List<scalar> 
20050
(
-0.170557
-0.171983
-0.172759
-0.173406
-0.173954
-0.174418
-0.174829
-0.175201
-0.175544
-0.175859
-0.17615
-0.176419
-0.176671
-0.17691
-0.177141
-0.170493
-0.17191
-0.172679
-0.173319
-0.173858
-0.174314
-0.174713
-0.175073
-0.1754
-0.175698
-0.17597
-0.176217
-0.176445
-0.176657
-0.176856
-0.170511
-0.171911
-0.172669
-0.173299
-0.173827
-0.174269
-0.174654
-0.174997
-0.175305
-0.175583
-0.17583
-0.176051
-0.176252
-0.176433
-0.176592
-0.17061
-0.171986
-0.17273
-0.173345
-0.173858
-0.174284
-0.174651
-0.174973
-0.175259
-0.175511
-0.175731
-0.175921
-0.17609
-0.176235
-0.176347
-0.170786
-0.172133
-0.17286
-0.173457
-0.173951
-0.174357
-0.174702
-0.175001
-0.17526
-0.175483
-0.17567
-0.175824
-0.175957
-0.176063
-0.176119
-0.17104
-0.172352
-0.173057
-0.173633
-0.174105
-0.174487
-0.174806
-0.175077
-0.175306
-0.175495
-0.175645
-0.175759
-0.175851
-0.175912
-0.175904
-0.171367
-0.172639
-0.17332
-0.173871
-0.174317
-0.174672
-0.174962
-0.175201
-0.175395
-0.175545
-0.175654
-0.175723
-0.175769
-0.17578
-0.175698
-0.171766
-0.172994
-0.173647
-0.17417
-0.174586
-0.17491
-0.175167
-0.17537
-0.175524
-0.175632
-0.175693
-0.175711
-0.175705
-0.175662
-0.175496
-0.172233
-0.173413
-0.174035
-0.174527
-0.174911
-0.1752
-0.175419
-0.175581
-0.175691
-0.175751
-0.17576
-0.17572
-0.175656
-0.175553
-0.17529
-0.172766
-0.173895
-0.174484
-0.174941
-0.175288
-0.175538
-0.175715
-0.175832
-0.175893
-0.1759
-0.17585
-0.175746
-0.175618
-0.175451
-0.175073
-0.173361
-0.174437
-0.174989
-0.175409
-0.175715
-0.175922
-0.176054
-0.176121
-0.176128
-0.176075
-0.175961
-0.175785
-0.175584
-0.175348
-0.174835
-0.174016
-0.175036
-0.17555
-0.175929
-0.176191
-0.176351
-0.176432
-0.176444
-0.176393
-0.176275
-0.17609
-0.175834
-0.175551
-0.175243
-0.174565
-0.174729
-0.175692
-0.176165
-0.176499
-0.176714
-0.176823
-0.176848
-0.176801
-0.176685
-0.176497
-0.176233
-0.17589
-0.175514
-0.175132
-0.174245
-0.175496
-0.176401
-0.176831
-0.177118
-0.177281
-0.177334
-0.177299
-0.177188
-0.177002
-0.176738
-0.176389
-0.175949
-0.175468
-0.175013
-0.173843
-0.176317
-0.177163
-0.177548
-0.177785
-0.177892
-0.177884
-0.177785
-0.177604
-0.177343
-0.176997
-0.176557
-0.17601
-0.175412
-0.174898
-0.173316
-0.177191
-0.177977
-0.178314
-0.178497
-0.178544
-0.178471
-0.178302
-0.178048
-0.177708
-0.177274
-0.176736
-0.176074
-0.175345
-0.174798
-0.172793
-0.178116
-0.178843
-0.179129
-0.179254
-0.179237
-0.179094
-0.178851
-0.178518
-0.178094
-0.177568
-0.176926
-0.176141
-0.17526
-0.174537
-0.172325
-0.179093
-0.17976
-0.179994
-0.180057
-0.17997
-0.179753
-0.179431
-0.179014
-0.178501
-0.177879
-0.177128
-0.176213
-0.175181
-0.174273
-0.171711
-0.180123
-0.180729
-0.180907
-0.180904
-0.180743
-0.180446
-0.18004
-0.179535
-0.178931
-0.178209
-0.177345
-0.176293
-0.175095
-0.174021
-0.170952
-0.181208
-0.181752
-0.181871
-0.181798
-0.181557
-0.181174
-0.180678
-0.180082
-0.179381
-0.178558
-0.177579
-0.176385
-0.175005
-0.173774
-0.170056
-0.182351
-0.182832
-0.182888
-0.182738
-0.182412
-0.181938
-0.181346
-0.180653
-0.179854
-0.178926
-0.177831
-0.176493
-0.174917
-0.173537
-0.169022
-0.183555
-0.183971
-0.183959
-0.183728
-0.183309
-0.182737
-0.182044
-0.181249
-0.180348
-0.179314
-0.178105
-0.176623
-0.17484
-0.173322
-0.167853
-0.184824
-0.185173
-0.185089
-0.184769
-0.184251
-0.183573
-0.182773
-0.181871
-0.180864
-0.179723
-0.178399
-0.176777
-0.17478
-0.17314
-0.166563
-0.186166
-0.186443
-0.186281
-0.185865
-0.18524
-0.184449
-0.183534
-0.182519
-0.181401
-0.180152
-0.178715
-0.176955
-0.174744
-0.172993
-0.165185
-0.187586
-0.187787
-0.18754
-0.187021
-0.186279
-0.185366
-0.184329
-0.183193
-0.181961
-0.1806
-0.179051
-0.177158
-0.174739
-0.172876
-0.163769
-0.189092
-0.189211
-0.188872
-0.18824
-0.187373
-0.186329
-0.18516
-0.183897
-0.182544
-0.181068
-0.179406
-0.177381
-0.174775
-0.172768
-0.1624
-0.190695
-0.190724
-0.190283
-0.189529
-0.188527
-0.187342
-0.186032
-0.184634
-0.183152
-0.181556
-0.179781
-0.177621
-0.174863
-0.172635
-0.161197
-0.192403
-0.192333
-0.191782
-0.190895
-0.189747
-0.18841
-0.18695
-0.185407
-0.18379
-0.182068
-0.180176
-0.177875
-0.17502
-0.172398
-0.160226
-0.194229
-0.19405
-0.193375
-0.192346
-0.19104
-0.189541
-0.18792
-0.186224
-0.184463
-0.182609
-0.180599
-0.178153
-0.175285
-0.171931
-0.159373
-0.196185
-0.195881
-0.195077
-0.19389
-0.192414
-0.190742
-0.188951
-0.187092
-0.18518
-0.183187
-0.181062
-0.178483
-0.175744
-0.171289
-0.159132
-0.198285
-0.197841
-0.196893
-0.195537
-0.19388
-0.192024
-0.190053
-0.188022
-0.185951
-0.183814
-0.181574
-0.178886
-0.176439
-0.171099
-0.163282
-0.200543
-0.19994
-0.198836
-0.197298
-0.195447
-0.193396
-0.191235
-0.189025
-0.186787
-0.184497
-0.182137
-0.179346
-0.177182
-0.171744
-0.177017
-0.202971
-0.202194
-0.200917
-0.199183
-0.197127
-0.194871
-0.192512
-0.190113
-0.1877
-0.185248
-0.182754
-0.179843
-0.177825
-0.172278
-0.179219
-0.205587
-0.204613
-0.203148
-0.201205
-0.198932
-0.196462
-0.193896
-0.191301
-0.188703
-0.186076
-0.183424
-0.180365
-0.178272
-0.172613
-0.178708
-0.208406
-0.207211
-0.205544
-0.203377
-0.200875
-0.198181
-0.1954
-0.192602
-0.189809
-0.186991
-0.18415
-0.180907
-0.17856
-0.172819
-0.177469
-0.211444
-0.210002
-0.208115
-0.205712
-0.20297
-0.200042
-0.197039
-0.194029
-0.191029
-0.188
-0.184932
-0.181457
-0.178721
-0.172863
-0.175683
-0.214715
-0.212999
-0.210876
-0.208223
-0.205229
-0.20206
-0.198827
-0.195595
-0.192373
-0.189106
-0.185769
-0.182003
-0.178769
-0.17272
-0.173603
-0.218234
-0.216215
-0.21384
-0.210922
-0.207667
-0.204249
-0.200777
-0.19731
-0.193845
-0.19031
-0.186653
-0.182533
-0.178714
-0.172389
-0.17141
-0.222015
-0.219663
-0.217019
-0.213824
-0.210298
-0.206622
-0.202902
-0.199185
-0.195452
-0.191609
-0.187576
-0.18303
-0.178563
-0.171875
-0.169203
-0.22607
-0.223355
-0.220426
-0.216942
-0.213135
-0.209192
-0.205211
-0.201225
-0.197191
-0.192993
-0.188524
-0.18348
-0.178315
-0.171186
-0.167023
-0.23041
-0.227301
-0.224071
-0.220287
-0.21619
-0.21197
-0.207715
-0.203434
-0.199059
-0.194452
-0.189481
-0.183868
-0.177966
-0.170331
-0.164876
-0.235045
-0.231512
-0.227967
-0.223871
-0.219475
-0.214967
-0.210417
-0.20581
-0.201048
-0.195968
-0.190425
-0.184175
-0.177508
-0.169317
-0.162747
-0.239983
-0.235995
-0.232122
-0.227704
-0.222999
-0.21819
-0.213322
-0.208348
-0.203142
-0.197522
-0.191335
-0.184384
-0.176931
-0.168149
-0.160613
-0.245228
-0.240757
-0.236543
-0.231795
-0.226771
-0.221643
-0.216426
-0.211038
-0.205324
-0.199087
-0.192186
-0.184477
-0.176223
-0.166827
-0.158445
-0.250783
-0.245802
-0.241237
-0.23615
-0.230795
-0.225327
-0.219722
-0.213864
-0.207567
-0.200635
-0.19295
-0.184435
-0.175372
-0.165351
-0.156218
-0.256645
-0.25113
-0.246206
-0.240773
-0.235072
-0.229236
-0.223198
-0.216802
-0.209843
-0.202135
-0.193601
-0.18424
-0.174365
-0.163717
-0.153906
-0.262811
-0.256739
-0.251449
-0.245661
-0.239599
-0.233361
-0.226834
-0.219825
-0.212117
-0.203553
-0.194112
-0.183876
-0.173192
-0.16192
-0.151485
-0.269271
-0.262624
-0.256962
-0.250812
-0.244367
-0.237685
-0.230603
-0.222897
-0.214352
-0.204855
-0.194456
-0.183325
-0.17184
-0.159952
-0.148936
-0.27601
-0.268773
-0.262738
-0.256215
-0.24936
-0.242185
-0.234474
-0.225978
-0.216505
-0.206004
-0.194609
-0.182571
-0.170297
-0.157807
-0.146241
-0.283009
-0.275172
-0.26876
-0.261854
-0.254557
-0.246829
-0.238405
-0.229024
-0.218535
-0.206967
-0.194545
-0.181599
-0.168551
-0.155474
-0.143383
-0.290243
-0.2818
-0.275012
-0.267706
-0.259929
-0.25158
-0.24235
-0.231986
-0.220396
-0.207709
-0.194242
-0.180393
-0.16659
-0.152942
-0.140346
-0.297679
-0.288629
-0.281465
-0.273744
-0.265438
-0.25639
-0.246256
-0.23481
-0.222044
-0.208197
-0.193677
-0.178936
-0.1644
-0.150201
-0.137117
-0.305281
-0.295629
-0.288088
-0.279928
-0.271041
-0.261207
-0.250066
-0.237443
-0.223435
-0.208399
-0.192827
-0.177214
-0.161968
-0.147239
-0.133682
-0.313002
-0.302757
-0.29484
-0.286216
-0.276683
-0.265971
-0.253719
-0.239829
-0.224526
-0.208284
-0.191672
-0.175209
-0.15928
-0.144041
-0.130028
-0.320792
-0.309969
-0.301674
-0.292552
-0.282304
-0.270616
-0.25715
-0.241915
-0.225276
-0.207824
-0.19019
-0.172905
-0.156321
-0.140596
-0.126142
-0.328591
-0.31721
-0.308536
-0.298878
-0.287837
-0.27507
-0.260292
-0.243645
-0.225643
-0.206989
-0.18836
-0.170285
-0.153077
-0.136889
-0.12201
-0.336334
-0.324421
-0.315362
-0.305124
-0.293207
-0.279259
-0.26308
-0.244967
-0.22559
-0.205752
-0.186161
-0.167331
-0.14953
-0.132905
-0.117621
-0.343949
-0.331533
-0.322082
-0.311215
-0.298335
-0.283107
-0.265447
-0.245829
-0.22508
-0.204086
-0.183573
-0.164025
-0.145667
-0.128631
-0.112962
-0.351358
-0.338472
-0.328621
-0.31707
-0.303138
-0.286535
-0.267327
-0.246183
-0.224077
-0.201966
-0.180574
-0.16035
-0.14147
-0.124052
-0.10802
-0.358478
-0.345161
-0.334896
-0.322603
-0.307529
-0.289465
-0.268659
-0.245982
-0.222549
-0.199366
-0.177144
-0.156288
-0.136925
-0.119155
-0.102785
-0.36522
-0.351512
-0.340819
-0.327722
-0.311421
-0.291821
-0.269382
-0.245183
-0.220464
-0.196262
-0.173264
-0.151821
-0.132015
-0.113926
-0.0972457
-0.371492
-0.357437
-0.346298
-0.332334
-0.314725
-0.293528
-0.26944
-0.243745
-0.217791
-0.192632
-0.168913
-0.146933
-0.126727
-0.108352
-0.0913915
-0.377201
-0.362844
-0.351238
-0.336345
-0.317354
-0.294515
-0.268779
-0.241629
-0.214504
-0.188453
-0.164073
-0.141607
-0.121046
-0.102421
-0.0852133
-0.382248
-0.367636
-0.355542
-0.339659
-0.319224
-0.294714
-0.26735
-0.238802
-0.210577
-0.183704
-0.158727
-0.135827
-0.114958
-0.0961208
-0.0787025
-0.386536
-0.371718
-0.359111
-0.342183
-0.320254
-0.294063
-0.265108
-0.23523
-0.205984
-0.178365
-0.152856
-0.129579
-0.108451
-0.0894424
-0.0718516
-0.389968
-0.374991
-0.36185
-0.343826
-0.320367
-0.292505
-0.262013
-0.230886
-0.200705
-0.172419
-0.146447
-0.122851
-0.101514
-0.0823759
-0.0646538
-0.392449
-0.377362
-0.363665
-0.344502
-0.319494
-0.289988
-0.258029
-0.225744
-0.19472
-0.16585
-0.139484
-0.115629
-0.0941369
-0.0749134
-0.057103
-0.393887
-0.378737
-0.364462
-0.344129
-0.317569
-0.286465
-0.253123
-0.219781
-0.188011
-0.158643
-0.131957
-0.107904
-0.0863116
-0.0670484
-0.0491951
-0.394192
-0.379026
-0.364157
-0.342632
-0.314535
-0.281897
-0.247271
-0.212979
-0.180565
-0.150786
-0.123854
-0.0996677
-0.0780305
-0.058777
-0.0409307
-0.393281
-0.378145
-0.362669
-0.339942
-0.310341
-0.276249
-0.240449
-0.205323
-0.17237
-0.142269
-0.115167
-0.0909117
-0.069287
-0.0500964
-0.0323148
-0.391077
-0.376016
-0.359924
-0.335999
-0.304944
-0.269495
-0.232641
-0.196801
-0.163416
-0.133086
-0.10589
-0.0816309
-0.0600757
-0.0410016
-0.0233374
-0.387509
-0.372567
-0.355857
-0.330752
-0.29831
-0.261614
-0.223835
-0.187405
-0.153698
-0.123232
-0.0960205
-0.0718232
-0.0503959
-0.0314834
-0.0139398
-0.382515
-0.367733
-0.35041
-0.324156
-0.290411
-0.252591
-0.214022
-0.177132
-0.143214
-0.112706
-0.0855573
-0.0614904
-0.0402537
-0.0215376
-0.00403647
-0.376041
-0.361461
-0.343535
-0.316179
-0.281229
-0.242418
-0.203202
-0.165981
-0.131965
-0.101508
-0.0745027
-0.0506361
-0.0296545
-0.0111808
0.0063126
-0.368041
-0.353703
-0.335195
-0.306796
-0.270752
-0.231094
-0.191376
-0.153957
-0.119955
-0.0896435
-0.0628611
-0.0392641
-0.0185966
-0.000412758
0.0167941
-0.358481
-0.344423
-0.32536
-0.295991
-0.258977
-0.218621
-0.178552
-0.141067
-0.107191
-0.0771195
-0.0506399
-0.0273843
-0.00710648
0.0107754
0.0275498
-0.347336
-0.333596
-0.314013
-0.283759
-0.24591
-0.205012
-0.164741
-0.127323
-0.0936838
-0.0639463
-0.0378512
-0.0150137
0.00482762
0.0223369
0.038636
-0.33459
-0.321205
-0.301146
-0.270103
-0.231562
-0.190282
-0.149961
-0.11274
-0.0794482
-0.0501382
-0.0245088
-0.00215669
0.0171878
0.0342612
0.0500554
-0.32024
-0.307246
-0.286761
-0.255036
-0.215952
-0.174452
-0.134232
-0.097338
-0.0645025
-0.035713
-0.0106258
0.0111717
0.0299588
0.0465399
0.0617942
-0.304291
-0.291722
-0.270872
-0.238578
-0.199108
-0.157552
-0.117582
-0.0811404
-0.0488693
-0.0206879
0.00377889
0.024954
0.0431241
0.0591615
0.0738348
-0.286759
-0.27465
-0.253499
-0.220759
-0.181061
-0.139615
-0.10004
-0.0641755
-0.0325706
-0.00508596
0.0186844
0.0391703
0.0566656
0.0721107
0.0861582
-0.267671
-0.256055
-0.234674
-0.201615
-0.161853
-0.120678
-0.0816402
-0.0464729
-0.015635
0.0110673
0.0340671
0.0537985
0.0705631
0.0853689
0.0987436
-0.247063
-0.235971
-0.214438
-0.181198
-0.141542
-0.100769
-0.0624183
-0.0280666
0.00190666
0.0277436
0.0499008
0.068814
0.0847943
0.0989148
0.111568
-0.224979
-0.214442
-0.19284
-0.159568
-0.120184
-0.0799245
-0.0424138
-0.00899455
0.0200202
0.0449122
0.0661571
0.0841901
0.0993347
0.112725
0.124606
-0.201472
-0.191523
-0.169943
-0.136777
-0.0977454
-0.05827
-0.0216814
0.0107024
0.0386689
0.0625397
0.0828053
0.0998983
0.114158
0.126773
0.137829
-0.176601
-0.167281
-0.145826
-0.11285
-0.0743735
-0.0358024
-0.000269353
0.0309797
0.0578135
0.0805906
0.0998128
0.115908
0.129236
0.141028
0.151196
-0.150433
-0.141792
-0.120563
-0.0878337
-0.0501397
-0.012587
0.0217704
0.0517903
0.0774122
0.0990275
0.117145
0.132188
0.144539
0.155459
0.164659
-0.123046
-0.115143
-0.0941005
-0.0619315
-0.0250979
0.0113111
0.0443826
0.0730847
0.097421
0.117811
0.134768
0.148704
0.160038
0.170034
0.178172
-0.094514
-0.0874476
-0.0665782
-0.0351586
0.00067818
0.0358237
0.0675087
0.0948112
0.117794
0.1369
0.152642
0.165422
0.175707
0.184736
0.191707
-0.0649029
-0.0586754
-0.0382561
-0.00759664
0.0271118
0.0608811
0.0910876
0.116916
0.138483
0.156253
0.170729
0.182309
0.191529
0.199546
0.205153
-0.0343479
-0.0290452
-0.00912433
0.0206655
0.0541231
0.0864118
0.115056
0.139342
0.159439
0.175825
0.18899
0.199343
0.207505
0.214388
0.21812
-0.00309063
0.00147754
0.0207363
0.0495352
0.0816294
0.112342
0.139348
0.162032
0.18061
0.19557
0.20739
0.216512
0.22364
0.229115
0.230167
0.0288989
0.032709
0.0512223
0.0789185
0.109546
0.138596
0.163896
0.184926
0.201941
0.215439
0.225891
0.233801
0.239879
0.243616
0.241988
0.061519
0.0645238
0.0822279
0.108719
0.137784
0.165096
0.188632
0.207961
0.223378
0.235383
0.244454
0.251152
0.256059
0.257812
0.256568
0.0946471
0.0968133
0.113645
0.138838
0.166256
0.191763
0.213485
0.231075
0.244861
0.25535
0.263027
0.268479
0.272123
0.272481
0.271738
0.128162
0.129465
0.145364
0.169175
0.194872
0.218517
0.238382
0.254202
0.266334
0.275289
0.281559
0.28573
0.288097
0.287326
0.286432
0.161942
0.162363
0.177273
0.199628
0.22354
0.245277
0.263253
0.277279
0.287739
0.295146
0.299998
0.302865
0.303976
0.302187
0.300813
0.195868
0.195392
0.209261
0.230096
0.25217
0.271961
0.288024
0.300239
0.309015
0.314866
0.318292
0.319844
0.319714
0.316927
0.31488
0.229815
0.228434
0.241215
0.260476
0.280671
0.298489
0.312623
0.323018
0.330104
0.334397
0.336392
0.336624
0.335265
0.331475
0.328635
0.263664
0.26137
0.273024
0.290668
0.308951
0.324779
0.336977
0.345551
0.350947
0.353683
0.35425
0.353164
0.350585
0.345781
0.342073
0.29729
0.294083
0.304577
0.320569
0.33692
0.350751
0.361014
0.367772
0.371487
0.372674
0.371818
0.369421
0.36563
0.359808
0.355185
0.330575
0.326455
0.335764
0.350081
0.36449
0.376326
0.384663
0.389619
0.391665
0.391317
0.389051
0.385353
0.380362
0.373523
0.367956
0.363397
0.358371
0.366477
0.379105
0.391572
0.401425
0.407855
0.411027
0.411426
0.409561
0.405902
0.400919
0.394744
0.386897
0.380369
0.39564
0.389716
0.396609
0.407544
0.41808
0.425971
0.430519
0.431936
0.430713
0.427356
0.422328
0.41608
0.408742
0.3999
0.392405
0.427187
0.420379
0.426056
0.435305
0.44393
0.449889
0.45259
0.452285
0.449473
0.444655
0.438284
0.430798
0.422321
0.412504
0.404042
0.457926
0.45025
0.454716
0.462296
0.469041
0.473106
0.474001
0.472015
0.467652
0.461409
0.45373
0.445035
0.435448
0.42468
0.415261
0.487747
0.479223
0.482491
0.488428
0.493332
0.495551
0.494689
0.491069
0.485201
0.477573
0.468623
0.458755
0.448093
0.436402
0.426039
0.516543
0.507196
0.509285
0.513614
0.516727
0.517154
0.514592
0.509392
0.502068
0.493103
0.482924
0.471923
0.460223
0.447641
0.436354
0.544212
0.534068
0.535006
0.537773
0.539151
0.537851
0.53365
0.52693
0.518206
0.507955
0.496596
0.484505
0.471808
0.458372
0.446185
0.570655
0.559746
0.559567
0.560824
0.560534
0.557577
0.551807
0.543633
0.53357
0.522089
0.509601
0.496468
0.482821
0.468567
0.455511
0.595778
0.584139
0.582884
0.582692
0.580809
0.576271
0.569009
0.559451
0.548115
0.535466
0.521905
0.507781
0.493232
0.478203
0.464312
0.619494
0.60716
0.604878
0.603306
0.599911
0.593878
0.585204
0.574339
0.561801
0.548048
0.533473
0.518415
0.503016
0.487256
0.472569
0.641716
0.62873
0.625474
0.622599
0.61778
0.610342
0.600344
0.588254
0.574588
0.559801
0.544276
0.528342
0.512146
0.495702
0.480262
0.662368
0.648772
0.644602
0.640508
0.63436
0.625614
0.614383
0.601154
0.58644
0.570691
0.554283
0.537534
0.5206
0.50352
0.487376
0.681377
0.667218
0.662198
0.656975
0.649599
0.639647
0.627281
0.613001
0.597322
0.580688
0.563467
0.545969
0.528356
0.510691
0.493892
0.698674
0.684001
0.678202
0.671946
0.66345
0.652397
0.638997
0.623761
0.607204
0.589763
0.571804
0.553623
0.535393
0.517196
0.499798
0.7142
0.699064
0.692561
0.685372
0.675868
0.663826
0.649497
0.633403
0.616057
0.597893
0.579269
0.560476
0.541692
0.523019
0.505079
0.727901
0.712354
0.705226
0.697211
0.686815
0.673899
0.658749
0.641898
0.623855
0.605053
0.585843
0.56651
0.547238
0.528143
0.509724
0.739727
0.723825
0.716154
0.707424
0.696256
0.682585
0.666726
0.64922
0.630576
0.611223
0.591507
0.571707
0.552014
0.532557
0.513721
0.749637
0.733437
0.725309
0.715978
0.704161
0.689857
0.673404
0.655349
0.636201
0.616386
0.596245
0.576055
0.556009
0.536248
0.517061
0.757597
0.741157
0.732661
0.722845
0.710507
0.695693
0.678762
0.660267
0.640714
0.620526
0.600045
0.579541
0.559212
0.539206
0.519737
0.763578
0.746957
0.738184
0.728003
0.715272
0.700076
0.682785
0.663958
0.6441
0.623634
0.602896
0.582156
0.561614
0.541424
0.521742
0.76756
0.750818
0.74186
0.731435
0.718443
0.70299
0.68546
0.666412
0.646351
0.625698
0.60479
0.583892
0.563209
0.542897
0.523073
0.769529
0.752727
0.743676
0.733131
0.720008
0.704428
0.686779
0.667621
0.64746
0.626714
0.605721
0.584745
0.563992
0.543619
0.523724
0.769477
0.752675
0.743626
0.733083
0.719963
0.704386
0.686739
0.667582
0.647422
0.626679
0.605688
0.584713
0.563961
0.54359
0.523696
0.767404
0.750664
0.74171
0.731293
0.718307
0.702862
0.685338
0.666295
0.64624
0.625592
0.604689
0.583795
0.563116
0.542808
0.522988
0.763318
0.7467
0.737935
0.727766
0.715047
0.699861
0.682581
0.663763
0.643915
0.623457
0.602727
0.581994
0.56146
0.541277
0.521602
0.757232
0.740796
0.732313
0.722513
0.710191
0.695393
0.678477
0.659995
0.640454
0.620279
0.599809
0.579315
0.558996
0.538999
0.519541
0.749168
0.732973
0.724861
0.71555
0.703755
0.689471
0.673037
0.654999
0.635868
0.616067
0.595941
0.575764
0.555731
0.535981
0.516809
0.739153
0.723258
0.715606
0.706901
0.695759
0.682113
0.666277
0.648792
0.630168
0.610833
0.591135
0.571352
0.551675
0.532232
0.513412
0.727222
0.711683
0.704577
0.696593
0.686227
0.673341
0.658218
0.641392
0.623373
0.604592
0.585403
0.56609
0.546836
0.527759
0.509359
0.713417
0.698289
0.691812
0.684658
0.675189
0.663182
0.648884
0.632819
0.6155
0.597361
0.578761
0.559991
0.541229
0.522575
0.504658
0.697786
0.683123
0.677353
0.671135
0.66268
0.651666
0.638301
0.623099
0.606572
0.589161
0.571228
0.553073
0.534868
0.516693
0.499321
0.680383
0.666235
0.661248
0.656068
0.648738
0.638829
0.626503
0.61226
0.596615
0.580013
0.562824
0.545354
0.527769
0.510129
0.493359
0.661269
0.647686
0.643551
0.639505
0.633407
0.624709
0.613523
0.600334
0.585658
0.569945
0.553571
0.536855
0.519951
0.502899
0.486785
0.640511
0.627539
0.624321
0.621499
0.616735
0.60935
0.5994
0.587355
0.573731
0.558983
0.543496
0.527597
0.511435
0.495021
0.479616
0.618182
0.605864
0.603624
0.602109
0.598773
0.592798
0.584177
0.573362
0.560869
0.547159
0.532624
0.517605
0.502242
0.486515
0.471866
0.594361
0.582737
0.581528
0.581397
0.579579
0.575103
0.567898
0.558394
0.547107
0.534505
0.520987
0.506905
0.492396
0.477403
0.463552
0.56913
0.558238
0.558109
0.559431
0.559211
0.55632
0.550613
0.542496
0.532486
0.521056
0.508614
0.495527
0.481922
0.467707
0.454695
0.542579
0.532454
0.533445
0.536282
0.537735
0.536506
0.532371
0.525713
0.517046
0.506849
0.49554
0.483498
0.470847
0.457452
0.445312
0.514803
0.505474
0.50762
0.512025
0.515216
0.51572
0.513229
0.508095
0.500832
0.491924
0.481799
0.47085
0.459199
0.446662
0.435423
0.485899
0.477395
0.480722
0.486739
0.491727
0.494027
0.493241
0.489691
0.483888
0.476321
0.467428
0.457616
0.447006
0.435362
0.425051
0.455969
0.448314
0.452842
0.460507
0.467341
0.471493
0.472468
0.470556
0.466262
0.460084
0.452465
0.44383
0.434298
0.423581
0.414216
0.425121
0.418334
0.424077
0.433416
0.442135
0.448185
0.450971
0.450745
0.448005
0.443256
0.43695
0.429526
0.421107
0.411344
0.40294
0.393464
0.387563
0.394525
0.405553
0.416189
0.424176
0.428814
0.430314
0.429168
0.425883
0.420923
0.414741
0.407465
0.398679
0.391245
0.361111
0.356108
0.364286
0.377012
0.389584
0.399538
0.406063
0.409323
0.409802
0.408014
0.404427
0.399513
0.393404
0.385615
0.379151
0.328177
0.324082
0.333466
0.347886
0.362404
0.374347
0.382784
0.387831
0.389963
0.389695
0.387505
0.383879
0.378957
0.372181
0.36668
0.294781
0.291599
0.302171
0.318271
0.334737
0.34868
0.359047
0.365902
0.369706
0.370978
0.370201
0.36788
0.364161
0.358404
0.353851
0.261042
0.258775
0.27051
0.288266
0.306669
0.322614
0.334921
0.343597
0.349087
0.351912
0.352561
0.351555
0.349052
0.344316
0.34068
0.227082
0.225726
0.238592
0.25797
0.27829
0.29623
0.310479
0.32098
0.328164
0.332549
0.334632
0.334947
0.333668
0.329948
0.327182
0.19302
0.192572
0.206528
0.227484
0.24969
0.269608
0.285791
0.298117
0.306995
0.312943
0.316459
0.318098
0.318051
0.315339
0.313367
0.158981
0.159429
0.17443
0.196911
0.220959
0.242829
0.26093
0.275071
0.285638
0.293146
0.298093
0.301051
0.302248
0.300536
0.29924
0.125086
0.126417
0.142409
0.166351
0.192189
0.215973
0.235968
0.251909
0.264153
0.273213
0.279582
0.283846
0.286305
0.285613
0.284797
0.0914566
0.0936505
0.110579
0.135906
0.163472
0.189123
0.21098
0.228695
0.242599
0.253197
0.260976
0.266526
0.270265
0.270707
0.270042
0.0582129
0.0612457
0.0790484
0.105679
0.134897
0.162359
0.186035
0.205495
0.221033
0.233152
0.242329
0.24913
0.254136
0.255978
0.254807
0.0254768
0.0293151
0.0479295
0.0757696
0.106555
0.135761
0.161207
0.182373
0.199514
0.21313
0.223693
0.231709
0.237889
0.241723
0.240165
-0.00662906
-0.00203289
0.0173296
0.0462767
0.0785345
0.109408
0.136566
0.159391
0.1781
0.193183
0.205118
0.21435
0.221583
0.227162
0.228298
-0.0380022
-0.032673
-0.0126454
0.0172969
0.0509233
0.0833791
0.112181
0.136613
0.156846
0.17336
0.186645
0.19711
0.205381
0.212373
0.216201
-0.0686738
-0.0624205
-0.0418921
-0.011076
0.0238065
0.0577487
0.0881183
0.114098
0.135807
0.153709
0.168309
0.180008
0.189339
0.197469
0.203181
-0.0984032
-0.0913098
-0.0703293
-0.0387492
-0.00273318
0.0325908
0.0644449
0.0919047
0.115034
0.134277
0.150148
0.163051
0.173452
0.182598
0.189679
-0.127053
-0.119122
-0.0979689
-0.0656333
-0.0286159
0.00797701
0.0412236
0.0700887
0.0945767
0.115109
0.132199
0.146262
0.157717
0.167834
0.176088
-0.154558
-0.145888
-0.12455
-0.0916458
-0.0537651
-0.016023
0.0185157
0.0487043
0.0744833
0.0962456
0.114502
0.129676
0.142152
0.153197
0.162519
-0.180843
-0.171494
-0.149928
-0.116778
-0.0781067
-0.0393412
-0.00362029
0.0278034
0.0547996
0.0777289
0.0970946
0.113326
0.126783
0.138705
0.148999
-0.205831
-0.195853
-0.17416
-0.140821
-0.101584
-0.0619129
-0.0251289
0.00743543
0.0355697
0.0595978
0.0800118
0.0972456
0.111639
0.124388
0.135574
-0.229455
-0.218889
-0.197173
-0.163725
-0.124128
-0.0836739
-0.0459579
-0.0123526
0.0168353
0.0418898
0.0632881
0.0814666
0.0967499
0.110278
0.122295
-0.251654
-0.240534
-0.218887
-0.185469
-0.145602
-0.104616
-0.0660587
-0.0315162
-0.00136422
0.0246404
0.0469559
0.0660195
0.0821431
0.0964054
0.109199
-0.272378
-0.260733
-0.239238
-0.205999
-0.166023
-0.124628
-0.0853782
-0.0500144
-0.0189922
0.007883
0.0310461
0.0509327
0.0678453
0.0827971
0.0963164
-0.29158
-0.279443
-0.258178
-0.225256
-0.18534
-0.143669
-0.103877
-0.0678093
-0.0360145
-0.00835164
0.015587
0.036233
0.053881
0.0694764
0.083673
-0.309224
-0.296628
-0.275664
-0.243188
-0.203496
-0.16171
-0.121517
-0.0848669
-0.0524002
-0.0240353
0.000604849
0.0219449
0.0402724
0.0564645
0.0712915
-0.325284
-0.312263
-0.291667
-0.259757
-0.220449
-0.178715
-0.138266
-0.101157
-0.0681207
-0.0391425
-0.0138769
0.00809056
0.02704
0.0437799
0.0591926
-0.339744
-0.326333
-0.306163
-0.274936
-0.236167
-0.194648
-0.154094
-0.116652
-0.0831539
-0.0536501
-0.0278372
-0.0053102
0.0142016
0.0314379
0.0473951
-0.352597
-0.338831
-0.319139
-0.288701
-0.250624
-0.209482
-0.168973
-0.131328
-0.0974774
-0.0675406
-0.0412573
-0.01824
0.0017741
0.0194498
0.0359165
-0.363847
-0.349763
-0.330593
-0.301042
-0.263798
-0.223195
-0.182882
-0.145166
-0.111072
-0.0807968
-0.0541238
-0.030684
-0.0102272
0.00782383
0.0247703
-0.373509
-0.359145
-0.340533
-0.311954
-0.275679
-0.235771
-0.195805
-0.15815
-0.123925
-0.093404
-0.0664231
-0.0426368
-0.0217852
-0.00342962
0.0139539
-0.381607
-0.367003
-0.348976
-0.321442
-0.286261
-0.247198
-0.20773
-0.170268
-0.136024
-0.105352
-0.0781434
-0.0540829
-0.0329145
-0.0142612
0.0034132
-0.388177
-0.373372
-0.355951
-0.329522
-0.295547
-0.257473
-0.218648
-0.181512
-0.147362
-0.116633
-0.089277
-0.0650117
-0.0435836
-0.0246791
-0.00698872
-0.393264
-0.378297
-0.361494
-0.336217
-0.303548
-0.266597
-0.228558
-0.191878
-0.157934
-0.127244
-0.0998196
-0.075419
-0.0537956
-0.0346904
-0.0169565
-0.39692
-0.381835
-0.365654
-0.341562
-0.310282
-0.274578
-0.237462
-0.201367
-0.16774
-0.137182
-0.109769
-0.085302
-0.0635465
-0.0442767
-0.026419
-0.399208
-0.384049
-0.368487
-0.345598
-0.315776
-0.28143
-0.245366
-0.209982
-0.176783
-0.14645
-0.119126
-0.0946588
-0.0728295
-0.0534395
-0.035459
-0.400199
-0.385009
-0.370059
-0.348378
-0.320065
-0.287174
-0.252283
-0.217731
-0.185067
-0.155051
-0.127894
-0.103491
-0.0816451
-0.0621878
-0.0441372
-0.399969
-0.384794
-0.370443
-0.349961
-0.323191
-0.291836
-0.25823
-0.224625
-0.192602
-0.162993
-0.136078
-0.111805
-0.089999
-0.0705275
-0.0524649
-0.398602
-0.38349
-0.36972
-0.350416
-0.325204
-0.295451
-0.263228
-0.230679
-0.1994
-0.170286
-0.143688
-0.119608
-0.097898
-0.0784617
-0.0604375
-0.396186
-0.381184
-0.367975
-0.349817
-0.326161
-0.298058
-0.267304
-0.235913
-0.205474
-0.176941
-0.150732
-0.126908
-0.10535
-0.0859947
-0.0680542
-0.392814
-0.377969
-0.3653
-0.348246
-0.326128
-0.299703
-0.270489
-0.240347
-0.210841
-0.182973
-0.157225
-0.133717
-0.112362
-0.0931329
-0.0753193
-0.38858
-0.373942
-0.361788
-0.345788