/*--------------------------------*- C++ -*----------------------------------*\
  =========                 |
  \\      /  F ield         | OpenFOAM: The Open Source CFD Toolbox
   \\    /   O peration     | Website:  https://openfoam.org
    \\  /    A nd           | Version:  7
     \\/     M anipulation  |
\*---------------------------------------------------------------------------*/
FoamFile
{
    version     2.0;
    format      ascii;
    class       surfaceScalarField;
    location    "60";
    object      phi;
}
// * * * * * * * * * * * * * * * * * * * * * * * * * * * * * * * * * * * * * //

dimensions      [0 3 -1 0 0 0 0];

internalField   nonuniform List<scalar> 
39691
(
-2.10543e-06
6.89252e-07
1.41618e-06
-7.76968e-06
2.65012e-06
3.01413e-06
-1.65908e-05
5.18713e-06
3.63403e-06
-2.8173e-05
8.16922e-06
3.41291e-06
-4.21359e-05
1.14666e-05
2.49634e-06
-5.81259e-05
1.49686e-05
1.0215e-06
-7.58269e-05
1.86003e-05
-8.99379e-07
-9.4972e-05
2.23385e-05
-3.19337e-06
-0.000115357
2.62213e-05
-5.83592e-06
-0.000136857
3.03533e-05
-8.85405e-06
-0.000159436
3.49032e-05
-1.23243e-05
-0.000183167
4.00994e-05
-1.63683e-05
-0.000208238
4.62191e-05
-2.11481e-05
-0.00023494
5.35622e-05
-2.68601e-05
6.24935e-05
-3.37603e-05
-0.000263673
-2.09008e-06
2.77933e-06
-7.71324e-06
8.27328e-06
-1.64688e-05
1.39427e-05
-2.7961e-05
1.96614e-05
-4.18089e-05
2.53145e-05
-5.7657e-05
3.08166e-05
-7.51857e-05
3.6129e-05
-9.41232e-05
4.1276e-05
-0.000114259
4.63569e-05
-0.000135457
5.15511e-05
-0.000157671
5.71182e-05
-0.000180963
6.33908e-05
-0.000205505
7.07613e-05
-0.000231576
7.96326e-05
9.04761e-05
-0.000259558
-2.06437e-06
4.8437e-06
-7.61959e-06
1.38285e-05
-1.62679e-05
2.2591e-05
-2.76145e-05
3.10081e-05
-4.12776e-05
3.89775e-05
-5.68984e-05
4.64375e-05
-7.41521e-05
5.33827e-05
-9.27585e-05
5.98824e-05
-0.000112495
6.60936e-05
-0.000133212
7.22678e-05
-0.000154846
7.8752e-05
-0.000177437
8.59822e-05
-0.000201141
9.44655e-05
-0.000226219
0.000104711
0.000117295
-0.000253038
-2.02888e-06
6.87258e-06
-7.49068e-06
1.92903e-05
-1.5992e-05
3.10923e-05
-2.71397e-05
4.21557e-05
-4.05506e-05
5.23884e-05
-5.58619e-05
6.17488e-05
-7.27411e-05
7.02619e-05
-9.08965e-05
7.80379e-05
-0.00011009
8.5287e-05
-0.000130151
9.23285e-05
-0.000150992
9.95931e-05
-0.000172628
0.000107618
-0.000195191
0.000117029
-0.000218923
0.000128442
0.000142544
-0.000244173
-1.98438e-06
8.85696e-06
-7.32901e-06
2.46349e-05
-1.5646e-05
3.94093e-05
-2.65442e-05
5.30539e-05
-3.96389e-05
6.54832e-05
-5.45621e-05
7.6672e-05
-7.09714e-05
8.66712e-05
-8.85606e-05
9.56271e-05
-0.000107071
0.000103797
-0.000126306
0.000111564
-0.000146149
0.000119436
-0.000166581
0.000128051
-0.000187706
0.000138154
-0.000209745
0.000150481
0.000165829
-0.00023303
-1.93178e-06
1.07887e-05
-7.13753e-06
2.98407e-05
-1.52357e-05
4.75075e-05
-2.58373e-05
6.36555e-05
-3.85556e-05
7.82015e-05
-5.3016e-05
9.11325e-05
-6.88647e-05
0.00010252
-8.57776e-05
0.00011254
-0.000103471
0.000121491
-0.000121718
0.00012981
-0.000140363
0.000138081
-0.000159349
0.000147037
-0.000178745
0.00015755
-0.00019875
0.000170486
0.00018676
-0.00021968
-1.87209e-06
1.26608e-05
-6.91956e-06
3.48882e-05
-1.47676e-05
5.53555e-05
-2.50291e-05
7.3917e-05
-3.73149e-05
9.04873e-05
-5.12427e-05
0.00010506
-6.6445e-05
0.000117722
-8.25772e-05
0.000128672
-9.93272e-05
0.000138241
-0.000116429
0.000146912
-0.000133685
0.000155336
-0.00015099
0.000164342
-0.000168371
0.000174931
-0.000186004
0.000188119
0.000204951
-0.000204195
-1.80643e-06
1.44673e-05
-6.67871e-06
3.97604e-05
-1.42486e-05
6.29253e-05
-2.41306e-05
8.3799e-05
-3.59322e-05
0.000102289
-4.92622e-05
0.00011839
-6.37378e-05
0.000132198
-7.89907e-05
0.000143925
-9.46761e-05
0.000153927
-0.000110485
0.000162722
-0.000126167
0.000171018
-0.000141561
0.000179736
-0.000156646
0.000190016
-0.000171572
0.000203045
0.000220017
-0.000186638
-1.73595e-06
1.62032e-05
-6.41873e-06
4.44432e-05
-1.3686e-05
7.01926e-05
-2.31531e-05
9.32662e-05
-3.44233e-05
0.000113559
-4.70951e-05
0.000131062
-6.07686e-05
0.000145871
-7.50495e-05
0.000158206
-8.95561e-05
0.000168433
-0.00010393
0.000177096
-0.000117861
0.000184948
-0.00013112
0.000192996
-0.000143629
0.000202525
-0.000155512
0.000214927
0.000231563
-0.000167058
-1.66185e-06
1.78651e-05
-6.14343e-06
4.89248e-05
-1.30871e-05
7.71363e-05
-2.2108e-05
0.000102287
-3.28036e-05
0.000124255
-4.47614e-05
0.00014302
-5.75621e-05
0.000158672
-7.07835e-05
0.000171427
-8.40028e-05
0.000181653
-9.6807e-05
0.0001899
-0.000108815
0.000196956
-0.000119721
0.000203902
-0.000129375
0.000212179
-0.000137871
0.000223423
0.000239176
-0.000145484
-1.58529e-06
1.94503e-05
-5.85654e-06
5.3196e-05
-1.24591e-05
8.37388e-05
-2.1006e-05
0.000110834
-3.1088e-05
0.000134337
-4.22794e-05
0.000154211
-5.41408e-05
0.000170533
-6.6219e-05
0.000183505
-7.8047e-05
0.000193481
-8.91509e-05
0.000201004
-9.90702e-05
0.000206876
-0.000107407
0.000212238
-0.000113923
0.000218695
-0.000118677
0.000228177
0.000242413
-0.000121915
-1.5074e-06
2.09577e-05
-5.56159e-06
5.72502e-05
-1.18085e-05
8.99857e-05
-1.98572e-05
0.000118883
-2.92895e-05
0.000143769
-3.96653e-05
0.000164587
-5.05232e-05
0.000181391
-6.13769e-05
0.000194359
-7.17121e-05
0.000203816
-8.09878e-05
0.00021028
-8.86545e-05
0.000214542
-9.42047e-05
0.000217788
-9.72941e-05
0.000221785
-9.79341e-05
0.000228817
0.000240795
-9.63155e-05
-1.42921e-06
2.2387e-05
-5.26181e-06
6.10828e-05
-1.11413e-05
9.58652e-05
-1.867e-05
0.000126411
-2.74188e-05
0.000152518
-3.69314e-05
0.0001741
-4.67222e-05
0.000191182
-5.62702e-05
0.000203907
-6.50104e-05
0.000212556
-7.23293e-05
0.000217598
-7.75778e-05
0.000219791
-8.0122e-05
0.000220333
-7.94843e-05
0.000221147
-7.56141e-05
0.000224947
0.000233795
-6.86143e-05
-1.35164e-06
2.37386e-05
-4.95999e-06
6.46912e-05
-1.04624e-05
0.000101368
-1.74513e-05
0.0001334
-2.5484e-05
0.000160551
-3.40855e-05
0.000182701
-4.2744e-05
0.000199841
-5.09018e-05
0.000212065
-5.794e-05
0.000219594
-6.31675e-05
0.000222826
-6.58252e-05
0.000222448
-6.51331e-05
0.00021964
-6.0448e-05
0.000216462
-5.16517e-05
0.000216151
0.000220882
-3.87392e-05
-1.27549e-06
2.50141e-05
-4.65842e-06
6.80741e-05
-9.77557e-06
0.000106485
-1.62058e-05
0.000139831
-2.34895e-05
0.000167834
-3.11296e-05
0.000190341
-3.85863e-05
0.000207297
-4.52619e-05
0.000218741
-5.04812e-05
0.000224814
-5.34703e-05
0.000225815
-5.33497e-05
0.000222328
-4.91717e-05
0.000215462
-4.00705e-05
0.000207361
-2.58445e-05
0.000201925
0.000202215
-7.17744e-06
-1.20139e-06
2.62155e-05
-4.35878e-06
7.12315e-05
-9.08338e-06
0.000111209
-1.49359e-05
0.000145683
-2.14354e-05
0.000174334
-2.80597e-05
0.000196966
-3.42367e-05
0.000213474
-3.93263e-05
0.00022383
-4.25931e-05
0.000228081
-4.31762e-05
0.000226398
-4.00667e-05
0.000219218
-3.21315e-05
0.000207527
-1.82091e-05
0.000193438
2.78589e-06
0.00018093
0.00017649
2.85112e-05
-1.12977e-06
2.73453e-05
-4.06209e-06
7.41638e-05
-8.38678e-06
0.000115534
-1.3641e-05
0.000150937
-1.93176e-05
0.00018001
-2.48643e-05
0.000202512
-2.96723e-05
0.000218282
-3.30542e-05
0.000227212
-3.42109e-05
0.000229237
-3.21895e-05
0.000224377
-2.58451e-05
0.000212874
-1.38418e-05
0.000195524
5.17543e-06
0.000174421
3.21961e-05
0.000153909
0.000141669
6.70171e-05
-1.06091e-06
2.84062e-05
-3.76866e-06
7.68716e-05
-7.68516e-06
0.000119451
-1.23177e-05
0.00015557
-1.7127e-05
0.00018482
-2.15244e-05
0.00020691
-2.48582e-05
0.000221616
-2.63876e-05
0.000228741
-2.52433e-05
0.000228093
-2.03756e-05
0.000219509
-1.04967e-05
0.000202995
5.95407e-06
0.000179073
3.06962e-05
0.000149679
6.49564e-05
0.000119649
9.75271e-05
0.000109098
-9.94866e-07
2.9401e-05
-3.47806e-06
7.93548e-05
-6.97624e-06
0.000122949
-1.09598e-05
0.000159553
-1.48498e-05
0.00018871
-1.80135e-05
0.000210073
-1.9748e-05
0.00022335
-1.92502e-05
0.000228244
-1.55723e-05
0.000224415
-7.56002e-06
0.000211497
6.22356e-06
0.000189211
2.75697e-05
0.000157727
5.85681e-05
0.00011868
0.000100923
7.72933e-05
4.29717e-05
0.000155479
-9.31502e-07
3.03325e-05
-3.18906e-06
8.16123e-05
-6.25604e-06
0.000126016
-9.5577e-06
0.000162855
-1.24669e-05
0.000191619
-1.42971e-05
0.000211904
-1.42832e-05
0.000223337
-1.15482e-05
0.000225509
-5.05365e-06
0.000217921
6.47003e-06
0.000199973
2.46158e-05
0.000171066
5.14105e-05
0.000130932
8.93349e-05
8.0756e-05
0.000140659
2.59693e-05
-2.32195e-05
0.00020685
-8.70472e-07
3.1203e-05
-2.89965e-06
8.36415e-05
-5.51877e-06
0.000128635
-8.09883e-06
0.000165435
-9.95427e-06
0.000193474
-1.03332e-05
0.000212283
-8.39468e-06
0.000221398
-3.1719e-06
0.000220286
6.48078e-06
0.000208268
2.19631e-05
0.000184491
4.5033e-05
0.000147996
7.79513e-05
9.80141e-05
0.00012359
3.51174e-05
0.000184861
-3.53023e-05
-0.000102329
0.000263971
-8.11206e-07
3.20142e-05
-2.60698e-06
8.54373e-05
-4.75686e-06
0.000130785
-6.56741e-06
0.000167246
-7.28307e-06
0.00019419
-6.07272e-06
0.000211072
-2.00285e-06
0.000217328
6.00278e-06
0.00021228
1.92189e-05
0.000195052
3.9196e-05
0.000164514
6.78697e-05
0.000119322
0.000107729
5.81548e-05
0.000162009
-1.91624e-05
0.000234326
-0.000107619
-0.000195625
0.000327622
-7.52907e-07
3.27671e-05
-2.30733e-06
8.69917e-05
-3.96086e-06
0.000132438
-4.94446e-06
0.000168229
-4.41952e-06
0.000193665
-1.4597e-06
0.000208112
4.98069e-06
0.000210888
1.61113e-05
0.00020115
3.33631e-05
0.0001778
5.84644e-05
0.000139412
9.35463e-05
8.424e-05
0.000141318
1.03827e-05
0.000205317
-8.31609e-05
0.00028991
-0.000192212
-0.000304245
0.00039853
-6.94525e-07
3.34616e-05
-1.99607e-06
8.82933e-05
-3.11936e-06
0.000133561
-3.20774e-06
0.000168318
-1.325e-06
0.000191782
3.56814e-06
0.000203219
1.26523e-05
0.000201804
2.72979e-05
0.000186504
4.91244e-05
0.000155973
8.00706e-05
0.000108466
0.000122487
4.18235e-05
0.000179297
-4.64269e-05
0.000254239
-0.000158103
0.000352469
-0.000290442
-0.000429054
0.000477277
-6.3474e-07
3.40964e-05
-1.66758e-06
8.93261e-05
-2.21892e-06
0.000134113
-1.33157e-06
0.00016743
2.04378e-06
0.000188407
9.07937e-06
0.000196184
2.11152e-05
0.000189768
3.9713e-05
0.000167906
6.67162e-05
0.00012897
0.000104311
7.08712e-05
0.000155096
-8.96155e-06
0.000222203
-0.000113533
0.00030944
-0.00024534
0.000422772
-0.000403774
-0.000570451
0.00056417
-5.71936e-07
3.46683e-05
-1.31519e-06
9.00694e-05
-1.24395e-06
0.000134042
7.13248e-07
0.000165473
5.73528e-06
0.000183385
1.51487e-05
0.00018677
3.04789e-05
0.000174438
5.35111e-05
0.000144874
8.6349e-05
9.61323e-05
0.000131465
2.57551e-05
0.000191734
-6.92303e-05
0.000270491
-0.000192291
0.000371461
-0.00034631
0.000501396
-0.000533709
-0.000728147
0.000659092
-5.04174e-07
3.51725e-05
-9.31111e-07
9.04963e-05
-1.75861e-07
0.000133286
2.95922e-06
0.000162338
9.8029e-06
0.000176541
2.18566e-05
0.000174717
4.08585e-05
0.000155436
6.88485e-05
0.000116884
0.000108226
5.67547e-05
0.000161783
-2.78023e-05
0.000232694
-0.000140141
0.000324488
-0.000284085
0.000440658
-0.00046248
0.000588593
-0.000681644
-0.000900956
0.000761401
-4.29084e-07
3.56016e-05
-5.06705e-07
9.05739e-05
1.00351e-06
0.000131776
5.44296e-06
0.000157898
1.4305e-05
0.000167679
2.92896e-05
0.000159732
5.23738e-05
0.000132351
8.58818e-05
8.33759e-05
0.000132538
1.00986e-05
0.00019548
-9.07439e-05
0.000278189
-0.00022285
0.000384357
-0.000390253
0.000517146
-0.000595269
0.000684116
-0.000848614
-0.00108682
0.00086998
-3.43899e-07
3.59455e-05
-2.52438e-08
9.02553e-05
2.31881e-06
0.000129432
8.20436e-06
0.000152013
1.93047e-05
0.000156579
3.7539e-05
0.000141498
6.5148e-05
0.000104742
0.000104764
4.37595e-05
0.000159457
-4.45943e-05
0.000232718
-0.000164005
0.000328329
-0.000318461
0.000450094
-0.000512018
0.00060085
-0.000746025
0.000787042
-0.00103481
-0.00128336
0.000983577
-2.46928e-07
3.61924e-05
5.05381e-07
8.95029e-05
3.79212e-06
0.000126145
1.12865e-05
0.000144519
2.48687e-05
0.000142997
4.66997e-05
0.000119667
7.93045e-05
7.21376e-05
0.000125641
-2.5769e-06
0.000189127
-0.000108081
0.000273594
-0.000248472
0.000383088
-0.000427954
0.000521499
-0.000650429
0.000691631
-0.000916157
0.000896203
-0.00123938
-0.00148912
0.00110196
-1.34173e-07
3.63266e-05
1.11632e-06
8.82525e-05
5.45127e-06
0.00012181
1.47347e-05
0.000135235
3.10669e-05
0.000126664
5.68681e-05
9.38655e-05
9.49638e-05
3.40419e-05
0.000148642
-5.62547e-05
0.000221651
-0.00018109
0.000318106
-0.000344927
0.000442225
-0.000552073
0.000597906
-0.00080611
0.000788577
-0.00110683
0.00101268
-0.00146348
-0.00170376
0.00122733
2.92983e-09
3.63236e-05
1.81357e-06
8.64418e-05
7.32281e-06
0.000116301
1.85958e-05
0.000123962
3.79692e-05
0.000107291
6.81386e-05
6.36962e-05
0.000112237
-1.0057e-05
0.000173873
-0.00011789
0.000257078
-0.000264296
0.000366143
-0.000453992
0.000505266
-0.000691196
0.000677984
-0.000978828
0.000887678
-0.00131652
0.00113323
-0.00170903
-0.00204629
0.00147576
1.56004e-07
3.61676e-05
2.60981e-06
8.3988e-05
9.43511e-06
0.000109476
2.29173e-05
0.00011048
4.5645e-05
8.45633e-05
8.05997e-05
2.87414e-05
0.000131221
-6.06785e-05
0.000201406
-0.000188075
0.000295393
-0.000358282
0.000417482
-0.000576081
0.000571566
-0.00084528
0.00076034
-0.0011676
0.000986123
-0.0015423
0.00124437
-0.00196727
-0.00236607
0.00156414
3.39324e-07
3.58283e-05
3.51875e-06
8.08086e-05
1.18151e-05
0.000101179
2.77442e-05
9.45508e-05
5.4158e-05
5.81495e-05
9.43285e-05
-1.1429e-05
0.000151987
-0.000118337
0.000231269
-0.000267357
0.000336501
-0.000463515
0.000471787
-0.000711366
0.000640377
-0.00101387
0.000843657
-0.00137088
0.00108162
-0.00178027
0.00134724
-0.00223289
-0.00267235
0.00165353
5.53092e-07
3.52752e-05
4.55297e-06
7.68087e-05
1.4489e-05
9.12434e-05
3.31184e-05
7.59215e-05
6.35642e-05
2.77037e-05
0.000109385
-5.72497e-05
0.000174574
-0.000183526
0.000263427
-0.00035621
0.000380212
-0.000580299
0.000528584
-0.000859739
0.000710798
-0.00119608
0.000926577
-0.00158666
0.00117317
-0.00202687
0.00144189
-0.00250161
-0.00296638
0.00173593
8.00806e-07
3.44744e-05
5.72434e-06
7.18852e-05
1.74806e-05
7.94871e-05
3.90763e-05
5.43258e-05
7.39079e-05
-7.12792e-06
0.000125806
-0.000109147
0.000198977
-0.000256697
0.000297773
-0.000455006
0.000426215
-0.000708741
0.000587236
-0.00102076
0.000781746
-0.00139059
0.00100754
-0.00181246
0.00125914
-0.00227846
0.00152639
-0.00276886
-0.00324695
0.00180695
1.08574e-06
3.33887e-05
7.04366e-06
6.59272e-05
2.08106e-05
6.57202e-05
4.56471e-05
2.94893e-05
8.52183e-05
-4.66991e-05
0.000143599
-0.000167528
0.000225139
-0.000338237
0.000334112
-0.000563979
0.000474072
-0.000848702
0.000646935
-0.00119362
0.000851959
-0.00159562
0.00108486
-0.00204536
0.00133767
-0.00253127
0.00159919
-0.00303038
-0.00351206
0.0018643
1.41082e-06
3.19779e-05
8.52022e-06
5.88178e-05
2.44953e-05
4.97451e-05
5.28506e-05
1.13402e-06
9.75059e-05
-9.13545e-05
0.000162737
-0.000232759
0.000252945
-0.000428445
0.000372155
-0.000683189
0.000523211
-0.000999758
0.00070672
-0.00137713
0.000920052
-0.00180895
0.00115683
-0.00228214
0.00140709
-0.00278153
0.00165914
-0.00328243
-0.00375979
0.00190687
1.77857e-06
3.01993e-05
1.01615e-05
5.04349e-05
2.85465e-05
3.13601e-05
6.06959e-05
-3.10154e-05
0.00011076
-0.000141419
0.000183155
-0.000305154
0.000282211
-0.000527502
0.000411516
-0.000812494
0.000572936
-0.00116118
0.000765507
-0.0015697
0.000984586
-0.00202803
0.00122186
-0.00251941
0.00146602
-0.00302569
0.00170554
-0.00352195
-0.00398874
0.00193448
2.19107e-06
2.80082e-05
1.19727e-05
4.06533e-05
3.29699e-05
1.03629e-05
6.91798e-05
-6.72253e-05
0.000124946
-0.000197185
0.000204744
-0.000384952
0.000312691
-0.000635448
0.000451712
-0.000951515
0.000622443
-0.00133191
0.000822143
-0.0017694
0.00104417
-0.00225005
0.00127859
-0.00275384
0.0015135
-0.0032606
0.0017382
-0.00374665
-0.00419819
0.00194766
2.64989e-06
2.53583e-05
1.39571e-05
2.9346e-05
3.77655e-05
-1.34455e-05
7.82855e-05
-0.000107745
0.000140003
-0.000258903
0.000227353
-0.000472301
0.000344066
-0.000752162
0.00049218
-0.00109963
0.000670857
-0.00151059
0.000875468
-0.00197401
0.00109753
-0.00247212
0.001326
-0.00298231
0.00154907
-0.00348367
0.00175745
-0.00395502
-0.00438819
0.00194744
3.15608e-06
2.22023e-05
1.61151e-05
1.6387e-05
4.2926e-05
-4.02564e-05
8.79818e-05
-0.000152801
0.000155845
-0.000326765
0.000250784
-0.00056724
0.000375959
-0.000877337
0.000532283
-0.00125595
0.000717262
-0.00169557
0.00092438
-0.00218113
0.00114363
-0.00269137
0.00136342
-0.00320209
0.0015727
-0.00369296
0.00176399
-0.0041463
-0.00455934
0.00193514
3.71015e-06
1.84921e-05
1.84446e-05
1.65253e-06
4.84375e-05
-7.02493e-05
9.82225e-05
-0.000202586
0.000172355
-0.000400898
0.000274797
-0.000669683
0.000407935
-0.00101047
0.000571343
-0.00141936
0.000760755
-0.00188498
0.000967899
-0.00238827
0.00118167
-0.00290514
0.00139054
-0.00341096
0.00158477
-0.00388719
0.00175886
-0.00432039
-0.00471274
0.00191225
4.31201e-06
1.41801e-05
2.09408e-05
-1.49762e-05
5.42783e-05
-0.000103587
0.000108945
-0.000257253
0.000189391
-0.000481343
0.000299113
-0.000779405
0.000439516
-0.00115088
0.00060866
-0.00158851
0.000800486
-0.0020768
0.00100522
-0.00259301
0.00121117
-0.0031111
0.00140744
-0.00360723
0.00158596
-0.00406571
0.00174327
-0.00447771
-0.00484975
0.00188029
4.96094e-06
9.21916e-06
2.35956e-05
-3.36109e-05
6.04188e-05
-0.00014041
0.000120073
-0.000316908
0.000206786
-0.000568056
0.000323417
-0.000896036
0.000470197
-0.00129766
0.000643548
-0.00176186
0.000835702
-0.00226896
0.00103574
-0.00279304
0.00123194
-0.00330729
0.00141447
-0.00378976
0.00157718
-0.00422841
0.00171854
-0.00461906
-0.0049719
0.00184069
5.65554e-06
3.56362e-06
2.63981e-05
-5.43534e-05
6.68217e-05
-0.000180834
0.000131512
-0.000381598
0.000224345
-0.000660889
0.000347367
-0.00101906
0.000499463
-0.00144975
0.000675364
-0.00193776
0.000865784
-0.00245938
0.0010591
-0.00298636
0.00124404
-0.00349223
0.00141224
-0.00395796
0.00155947
-0.00437564
0.00168594
-0.00474554
-0.00508074
0.00179478
6.39369e-06
-2.83007e-06
2.93339e-05
-7.72936e-05
7.34414e-05
-0.000224941
0.000143155
-0.000451311
0.000241856
-0.00075959
0.000370605
-0.00114781
0.000526807
-0.00160596
0.000703536
-0.00211449
0.000890271
-0.00264611
0.00107514
-0.00317123
0.00124778
-0.00366487
0.00140149
-0.00411168
0.00153392
-0.00450807
0.00164673
-0.00485835
-0.00517777
0.00174375
7.17247e-06
-1.00025e-05
3.23854e-05
-0.000102507
8.02246e-05
-0.00027278
0.000154878
-0.000525965
0.000259089
-0.000863801
0.000392767
-0.00128148
0.000551756
-0.00176495
0.000727592
-0.00229032
0.000908869
-0.00282739
0.00108393
-0.0033463
0.00124365
-0.00382459
0.00138309
-0.00425112
0.00150161
-0.00462658
0.00160203
-0.00495878
-0.00526435
0.00168861
7.98811e-06
-1.79907e-05
3.55315e-05
-0.00013005
8.71101e-05
-0.000324359
0.000166551
-0.000605406
0.000275804
-0.000973055
0.000413494
-0.00141917
0.000573884
-0.00192534
0.000747168
-0.00246361
0.000921451
-0.00300167
0.0010857
-0.00351055
0.00123226
-0.00397114
0.00135794
-0.0043768
0.00146357
-0.00473221
0.00155284
-0.00504805
-0.00534173
0.00163022
8.83597e-06
-2.68266e-05
3.87479e-05
-0.000159962
9.40302e-05
-0.000379641
0.000178028
-0.000689404
0.000291757
-0.00108678
0.000432447
-0.00155986
0.000592831
-0.00208572
0.000762025
-0.0026328
0.000928045
-0.00316769
0.00108082
-0.00366333
0.0012143
-0.00410462
0.00132692
-0.00448943
0.00142075
-0.00482603
0.00150005
-0.00512735
-0.00541096
0.00156928
9.71051e-06
-3.65371e-05
4.20069e-05
-0.000192258
0.000100911
-0.000438545
0.000189163
-0.000777656
0.000306707
-0.00120433
0.00044932
-0.00170248
0.000608314
-0.00224471
0.000772043
-0.00279653
0.000928813
-0.00332446
0.00106977
-0.00380429
0.0011905
-0.00422534
0.0012909
-0.00458983
0.00137399
-0.00490912
0.00144438
-0.00519773
-0.00547294
0.00150636
1.06053e-05
-4.71425e-05
4.5278e-05
-0.000226931
0.000107674
-0.000500941
0.000199803
-0.000869785
0.000320425
-0.00132495
0.000463846
-0.0018459
0.000620135
-0.002401
0.000777219
-0.00295361
0.000924028
-0.00347127
0.0010531
-0.00393336
0.00116158
-0.00433382
0.00125066
-0.00467891
0.00132405
-0.00498251
0.00138646
-0.00526015
-0.00552842
0.00144194
1.15131e-05
-5.86556e-05
4.85284e-05
-0.000263946
0.000114237
-0.00056665
0.0002098
-0.000965348
0.0003327
-0.00144785
0.000475811
-0.00198901
0.000628181
-0.00255337
0.000777648
-0.00310308
0.000914043
-0.00360766
0.00103137
-0.00405069
0.00112825
-0.0044307
0.00120692
-0.00475758
0.00127154
-0.00504714
0.0013268
-0.00531541
-0.005578
0.00137638
1.24259e-05
-7.10815e-05
5.17231e-05
-0.000303243
0.000120518
-0.000635446
0.00021901
-0.00106384
0.000343344
-0.00157218
0.000485053
-0.00213072
0.000632421
-0.00270074
0.000773516
-0.00324418
0.000899272
-0.00373342
0.00100518
-0.0041566
0.00109118
-0.00451669
0.00116031
-0.00482672
0.00121703
-0.00510386
0.00126582
-0.00536419
-0.00562217
0.00130998
1.33351e-05
-8.44166e-05
5.48261e-05
-0.000344734
0.000126435
-0.000707054
0.000227297
-0.0011647
0.000352203
-0.00169709
0.000491469
-0.00226998
0.000632901
-0.00284217
0.000765071
-0.00337635
0.000880162
-0.00384851
0.000975099
-0.00425153
0.00105096
-0.00459255
0.0011114
-0.00488716
0.00116096
-0.00515341
0.00120385
-0.00540708
-0.00566129
0.00124297
1.42313e-05
-9.86479e-05
5.78004e-05
-0.000388303
0.000131906
-0.00078116
0.000234542
-0.00126734
0.000359152
-0.0018217
0.000495015
-0.00240584
0.00062973
-0.00297689
0.000752616
-0.00349923
0.000857176
-0.00395307
0.000941676
-0.00433603
0.00100814
-0.00465902
0.00106066
-0.00493968
0.00110371
-0.00519646
0.00114116
-0.00544454
-0.00569566
0.00117553
1.51052e-05
-0.000113753
6.06094e-05
-0.000433808
0.000136857
-0.000857408
0.000240639
-0.00137112
0.000364105
-0.00194517
0.000495695
-0.00253744
0.000623073
-0.00310427
0.000736486
-0.00361265
0.000830774
-0.00404736
0.000905421
-0.00441068
0.000963221
-0.00471682
0.0010085
-0.00498496
0.00104558
-0.00523354
0.00107798
-0.00547693
-0.0057255
0.00110781
1.59468e-05
-0.0001297
6.32177e-05
-0.000481079
0.000141219
-0.000935409
0.000245504
-0.0014754
0.000367013
-0.00206667
0.000493567
-0.00266399
0.000613137
-0.00322384
0.000717033
-0.00371654
0.000801402
-0.00413173
0.000866801
-0.00447608
0.000916612
-0.00476663
0.000955259
-0.0050236
0.000986834
-0.00526511
0.00101447
-0.00550457
-0.00575097
0.00103994
1.67466e-05
-0.000146446
6.55911e-05
-0.000529923
0.000144932
-0.00101475
0.00024907
-0.00157954
0.00036786
-0.00218546
0.000488727
-0.00278486
0.000600161
-0.00333527
0.000694616
-0.003811
0.000769483
-0.00420659
0.000826237
-0.00453283
0.000868684
-0.00480908
0.000901228
-0.00505615
0.000927677
-0.00529156
0.000950787
-0.00552768
-0.00577218
0.000972007
1.74949e-05
-0.000163941
6.76984e-05
-0.000580127
0.000147942
-0.00109499
0.000251296
-0.0016829
0.000366665
-0.00230083
0.000481307
-0.0028995
0.000584403
-0.00343837
0.000669591
-0.00389618
0.000735411
-0.00427242
0.000784104
-0.00458152
0.000819753
-0.00484473
0.000846648
-0.00508304
0.000868278
-0.00531319
0.000887042
-0.00554644
-0.00578924
0.000904102
1.81825e-05
-0.000182124
6.9511e-05
-0.000631455
0.000150209
-0.00117569
0.000252158
-0.00178484
0.000363477
-0.00241215
0.000471463
-0.00300748
0.000566131
-0.00353304
0.000642299
-0.00397235
0.000699548
-0.00432966
0.000740734
-0.00462271
0.000770088
-0.00487408
0.000791715
-0.00510467
0.000808776
-0.00533025
0.000823331
-0.005561
-0.00580221
0.000836296
1.88009e-05
-0.000200925
7.10045e-05
-0.000683659
0.000151703
-0.00125639
0.000251655
-0.0018848
0.000358368
-0.00251887
0.000459374
-0.00310849
0.000545617
-0.00361928
0.000613066
-0.0040398
0.000662222
-0.00437882
0.000696413
-0.0046569
0.000719914
-0.00489758
0.000736595
-0.00512135
0.000749285
-0.00534294
0.000759735
-0.00557145
-0.00581113
0.000768652
1.93435e-05
-0.000220268
7.21615e-05
-0.000736477
0.000152408
-0.00133664
0.00024981
-0.0019822
0.000351441
-0.0026205
0.000445237
-0.00320229
0.000523139
-0.00369718
0.000582204
-0.00409887
0.000623734
-0.00442035
0.000651401
-0.00468457
0.000669435
-0.00491561
0.000681435
-0.00513335
0.000689908
-0.00535142
0.000696333
-0.00557787
-0.00581603
0.000701238
1.98006e-05
-0.000240069
7.29595e-05
-0.000789636
0.000152307
-0.00141598
0.000246645
-0.00207654
0.000342793
-0.00271664
0.000429234
-0.00328873
0.000498935
-0.00376688
0.000549975
-0.00414991
0.000584327
-0.0044547
0.000605894
-0.00470614
0.000618792
-0.00492851
0.000626329
-0.00514089
0.000630709
-0.0053558
0.000633167
-0.00558033
-0.00581695
0.000634087
2.01672e-05
-0.000260236
7.33901e-05
-0.000842858
0.000151406
-0.001494
0.000242216
-0.00216735
0.000332554
-0.00280698
0.00041157
-0.00336774
0.000473262
-0.00382857
0.000516643
-0.00419329
0.000544239
-0.0044823
0.000560087
-0.00472198
0.000568129
-0.00493655
0.000571382
-0.00514414
0.000571765
-0.00535618
0.0005703
-0.00557887
-0.00581391
0.000567255
2.04385e-05
-0.000280675
7.34461e-05
-0.000895866
0.000149717
-0.00157027
0.000236584
-0.00225421
0.000320857
-0.00289126
0.000392442
-0.00343933
0.000446351
-0.00388248
0.000482439
-0.00422937
0.000503672
-0.00450353
0.000514135
-0.00473245
0.000517563
-0.00493998
0.000516675
-0.00514325
0.000513133
-0.00535264
0.000507778
-0.00557351
-0.00580692
0.000500789
2.06102e-05
-0.000301285
7.3125e-05
-0.000948381
0.000147261
-0.00164441
0.000229822
-0.00233677
0.000307838
-0.00296927
0.000372039
-0.00350353
0.000418416
-0.00392886
0.000447568
-0.00425853
0.0004628
-0.00451876
0.000468174
-0.00473782
0.000467188
-0.004939
0.000462276
-0.00513834
0.000454865
-0.00534523
0.000445645
-0.00556429
-0.005796
0.00043473
2.06796e-05
-0.000321964
7.24286e-05
-0.00100013
0.000144066
-0.00171605
0.000222007
-0.00241471
0.000293636
-0.0030409
0.000350544
-0.00356044
0.000389655
-0.00396797
0.000412214
-0.00428108
0.000421776
-0.00452833
0.000422317
-0.00473836
0.000417087
-0.00493377
0.000408244
-0.0051295
0.000397008
-0.00533399
0.000383942
-0.00555123
-0.00578118
0.000369118
2.06449e-05
-0.000342609
7.13627e-05
-0.00105085
0.000140166
-0.00178485
0.000213225
-0.00248777
0.000278386
-0.00310606
0.000328128
-0.00361018
0.000360246
-0.00400009
0.00037654
-0.00429738
0.000380728
-0.00453252
0.000376662
-0.00473429
0.000367329
-0.00492443
0.000354631
-0.0051168
0.000339602
-0.00531896
0.000322707
-0.00553433
-0.00576246
0.000303985
2.05054e-05
-0.000363115
6.99367e-05
-0.00110028
0.000135602
-0.00185051
0.000203563
-0.00255574
0.000262222
-0.00316472
0.000304952
-0.00365291
0.000330352
-0.00402549
0.000340688
-0.00430771
0.000339772
-0.0045316
0.000331292
-0.00472581
0.000317974
-0.00491112
0.00030148
-0.00510031
0.000282684
-0.00530016
0.000261973
-0.00551362
-0.00573984
0.000239359
2.02617e-05
-0.000383376
6.81633e-05
-0.00114818
0.000130419
-0.00191277
0.00019311
-0.00261843
0.000245274
-0.00321688
0.000281165
-0.0036888
0.000300119
-0.00404444
0.000304783
-0.00431238
0.000299003
-0.00452582
0.000286277
-0.00471309
0.000269075
-0.00489391
0.000248834
-0.00508006
0.000226286
-0.00527762
0.000201766
-0.0054891
-0.00571334
0.000175262
1.99149e-05
-0.000403291
6.6058e-05
-0.00119432
0.000124663
-0.00197137
0.000181954
-0.00267572
0.000227662
-0.00326259
0.000256903
-0.00371804
0.000269676
-0.00405722
0.000268934
-0.00431164
0.000258505
-0.00451539
0.00024168
-0.00469626
0.000220678
-0.00487291
0.000196733
-0.00505612
0.000170449
-0.00525133
0.000142112
-0.00546076
-0.00568292
0.000111689
1.94676e-05
-0.000422759
6.36387e-05
-0.00123849
0.000118384
-0.00202612
0.000170182
-0.00272752
0.000209502
-0.00330191
0.00023229
-0.00374083
0.000239139
-0.00406407
0.000233236
-0.00430573
0.000218349
-0.0045005
0.000197553
-0.00467547
0.000172827
-0.00484819
0.000145221
-0.00502851
0.000115235
-0.00522135
8.30529e-05
-0.00542858
-0.00564836
4.8495e-05
1.89227e-05
-0.000441682
6.0925e-05
-0.0012805
0.000111632
-0.00207683
0.000157879
-0.00277376
0.000190902
-0.00333493
0.00020744
-0.00375737
0.000208609
-0.00406523
0.000197771
-0.00429489
0.000178597
-0.00448133
0.000153941
-0.00465081
0.000125556
-0.0048198
9.43314e-05
-0.00499729
6.07081e-05
-0.00518772
2.47998e-05
-0.00539267
-0.00560906
-1.44942e-05
1.82842e-05
-0.000459966
5.79379e-05
-0.00132015
0.000104458