/*--------------------------------*- C++ -*----------------------------------*\
  =========                 |
  \\      /  F ield         | OpenFOAM: The Open Source CFD Toolbox
   \\    /   O peration     | Website:  https://openfoam.org
    \\  /    A nd           | Version:  7
     \\/     M anipulation  |
\*---------------------------------------------------------------------------*/
FoamFile
{
    version     2.0;
    format      ascii;
    class       volVectorField;
    location    "60";
    object      U;
}
// * * * * * * * * * * * * * * * * * * * * * * * * * * * * * * * * * * * * * //

dimensions      [0 1 -1 0 0 0 0];

internalField   nonuniform List<vector> 
20050
(
(-0.000476267 -0.000162789 2.29786e-21)
(-0.00305698 -0.000111223 -4.2024e-22)
(-0.00823074 0.000205135 -5.29465e-21)
(-0.0148602 0.000706891 -7.96782e-21)
(-0.0225155 0.00131829 -7.23103e-22)
(-0.0308015 0.00198049 4.90479e-21)
(-0.039378 0.00265412 -5.4798e-21)
(-0.0479848 0.00332002 1.41119e-21)
(-0.0564318 0.00397801 -3.88036e-21)
(-0.0645949 0.00464369 7.11957e-21)
(-0.0724127 0.00534403 6.06238e-21)
(-0.0798816 0.00611287 -7.34484e-21)
(-0.0870526 0.00698677 -3.74254e-21)
(-0.0940099 0.00799989 3.94915e-21)
(-0.100852 0.00919108 -4.13186e-21)
(-0.000503109 0.000736314 3.79914e-21)
(-0.00311975 0.00214463 -2.56287e-21)
(-0.00830493 0.00345532 -1.16102e-21)
(-0.0149276 0.00465278 7.98338e-21)
(-0.022559 0.00570747 9.88791e-21)
(-0.0308047 0.00660588 -2.43247e-20)
(-0.0393253 0.00735196 1.48063e-20)
(-0.0478611 0.00796724 1.56031e-20)
(-0.0562219 0.00848969 2.03217e-20)
(-0.0642834 0.00897055 -1.92619e-20)
(-0.0719837 0.00946969 1.29628e-20)
(-0.0793184 0.0100506 1.21433e-20)
(-0.0863386 0.010775 6.97386e-21)
(-0.0931267 0.0116933 -2.21582e-20)
(-0.0997691 0.0128579 1.82409e-20)
(-0.000572777 0.00162458 -1.55616e-20)
(-0.00328246 0.00437408 -1.97293e-20)
(-0.00850777 0.00666808 1.4966e-20)
(-0.0151313 0.00855325 1.89566e-20)
(-0.0227283 0.0100455 -1.20927e-20)
(-0.0309077 0.0111758 -2.2792e-20)
(-0.0393329 0.0119909 1.435e-20)
(-0.0477459 0.0125524 -4.13525e-20)
(-0.0559575 0.0129359 -1.9844e-20)
(-0.0638434 0.0132279 -1.62547e-20)
(-0.0713413 0.013521 -2.27775e-20)
(-0.0784462 0.0139085 4.07398e-21)
(-0.085211 0.0144777 1.65876e-20)
(-0.0917163 0.0152961 7.5471e-20)
(-0.0980311 0.0164304 -2.9013e-20)
(-0.000684272 0.00249611 2.05282e-21)
(-0.00354313 0.00656309 3.94964e-20)
(-0.0088372 0.0098239 1.56323e-20)
(-0.0154695 0.0123852 -2.75003e-20)
(-0.0230222 0.0143068 6.61184e-21)
(-0.0311101 0.0156633 2.56523e-20)
(-0.0394012 0.016543 2.39242e-20)
(-0.0476406 0.0170466 1.57707e-20)
(-0.0556407 0.0172867 -2.98583e-20)
(-0.0632777 0.0173845 8.31718e-20)
(-0.070489 0.0174655 -3.57357e-20)
(-0.0772693 0.017653 4.98976e-20)
(-0.0836741 0.0180604 -1.6669e-20)
(-0.089784 0.0187741 -6.34204e-20)
(-0.0956433 0.019877 2.39953e-20)
(-0.000836186 0.00334538 5.6112e-20)
(-0.00389885 0.00869831 -2.17295e-20)
(-0.00929005 0.0129042 -1.51847e-21)
(-0.0159395 0.0161263 1.57189e-20)
(-0.0234387 0.0184669 1.0025e-20)
(-0.0314107 0.0200422 1.32118e-20)
(-0.03953 0.0209808 -5.19454e-20)
(-0.0475458 0.0214215 -4.61773e-21)
(-0.0552729 0.0215128 3.06314e-21)
(-0.0625884 0.0214101 -8.18427e-20)
(-0.0694295 0.0212712 7.32735e-20)
(-0.0757904 0.0212506 -5.06379e-20)
(-0.0817309 0.0214891 -2.33212e-20)
(-0.0873323 0.0220936 -1.28581e-20)
(-0.0926084 0.0231665 -3.12764e-20)
(-0.00102674 0.0041673 -3.32711e-20)
(-0.00434593 0.0107673 -1.38841e-20)
(-0.00986217 0.0158913 -4.37073e-20)
(-0.0165372 0.0197555 -7.57202e-21)
(-0.0239744 0.022502 -3.04888e-20)
(-0.0318071 0.0242871 -2.49802e-20)
(-0.0397176 0.0252779 -3.10859e-20)
(-0.0474608 0.0256497 1.8382e-20)
(-0.0548544 0.0255857 2.19546e-20)
(-0.0617765 0.0252747 8.01539e-21)
(-0.068164 0.0249071 1.52093e-20)
(-0.0740107 0.0246687 2.48427e-20)
(-0.0793816 0.02473 -4.25753e-20)
(-0.0843612 0.0252213 -2.77201e-20)
(-0.0889249 0.0262687 9.13405e-20)
(-0.00125385 0.00495728 -2.07142e-20)
(-0.00487995 0.0127588 -2.13976e-20)
(-0.0105485 0.018769 9.54678e-20)
(-0.0172577 0.0232529 5.0695e-20)
(-0.024625 0.02639 1.51438e-21)
(-0.0322956 0.0283741 1.70598e-20)
(-0.0399614 0.0294091 4.57489e-20)
(-0.0473837 0.0297049 -3.03971e-20)
(-0.0543839 0.0294781 2.18876e-20)
(-0.0608411 0.0289498 2.80199e-20)
(-0.0666917 0.0283425 -8.88179e-20)
(-0.0719287 0.0278751 -1.66932e-20)
(-0.0766235 0.0277497 -7.55206e-20)
(-0.0808664 0.0281242 4.69137e-20)
(-0.0845855 0.0291541 -5.69099e-20)
(-0.00151516 0.00571132 2.71824e-20)
(-0.00549585 0.0146626 -2.11581e-20)
(-0.0113429 0.0215226 -7.41348e-20)
(-0.018095 0.0266002 -8.20729e-20)
(-0.0253848 0.0301098 -9.91209e-20)
(-0.0328711 0.0322804 2.55967e-20)
(-0.0402569 0.0333502 3.30747e-20)
(-0.0473108 0.033562 6.64605e-20)
(-0.0538581 0.0331637 -3.23396e-20)
(-0.0597792 0.0324077 -2.81238e-20)
(-0.0650091 0.0315484 5.35731e-20)
(-0.0695398 0.0308386 -5.50311e-20)
(-0.0734495 0.0305155 5.25755e-20)
(-0.0768382 0.0307694 -8.24228e-20)
(-0.0795752 0.0317938 5.35388e-20)
(-0.00180813 0.00642602 -4.44668e-21)
(-0.00618803 0.0164697 2.20631e-20)
(-0.0122388 0.0241385 1.10238e-19)
(-0.0190419 0.0297807 1.05613e-19)
(-0.0262468 0.0336422 4.31637e-20)
(-0.0335271 0.0359849 -1.33811e-20)
(-0.0405979 0.0370789 -5.40188e-20)
(-0.047236 0.0371974 2.4474e-20)
(-0.0532711 0.036618 1.20609e-20)
(-0.0585843 0.0356224 -3.5887e-20)
(-0.063109 0.0344968 -1.13093e-19)
(-0.0668345 0.0335291 -3.51196e-20)
(-0.0698467 0.0329952 9.44932e-20)
(-0.0722599 0.0331246 1.41548e-20)
(-0.0738688 0.0341598 -1.10994e-19)
(-0.00213007 0.00709863 -4.21508e-20)
(-0.00695048 0.0181726 -1.15446e-19)
(-0.0132284 0.0266052 -1.27969e-19)
(-0.0200901 0.0327791 -7.81367e-20)
(-0.0272024 0.0369693 5.53096e-20)
(-0.0342549 0.0394678 9.42954e-21)
(-0.0409756 0.040574 2.13742e-20)
(-0.0471503 0.0405892 -2.04105e-20)
(-0.0526133 0.0398181 1.87585e-19)
(-0.0572459 0.0385701 6.23147e-20)
(-0.060979 0.0371619 1.02947e-19)
(-0.0637975 0.0359181 1.42179e-19)
(-0.0657946 0.0351578 -1.02437e-19)
(-0.0671059 0.035158 1.60213e-19)
(-0.0674274 0.0362244 2.19613e-20)
(-0.00247823 0.00772701 4.22786e-20)
(-0.00777682 0.0197651 6.61426e-20)
(-0.0143037 0.0289126 5.66301e-20)
(-0.0212303 0.0355822 -6.65038e-20)
(-0.0282415 0.0400754 5.42228e-20)
(-0.0350435 0.0427113 9.10101e-21)
(-0.0413783 0.0438164 -1.54176e-19)
(-0.0470411 0.0437174 1.37284e-19)
(-0.0518705 0.0427433 -1.11511e-19)
(-0.0557481 0.041229 -3.17945e-20)
(-0.0586002 0.0395204 -1.06397e-21)
(-0.0604056 0.0379795 8.49693e-20)
(-0.0612629 0.0369742 1.09022e-19)
(-0.0613391 0.0368386 -9.44426e-20)
(-0.0601953 0.0379604 2.04608e-20)
(-0.00284984 0.00830965 -7.67845e-20)
(-0.00866043 0.021242 2.29059e-20)
(-0.0154555 0.0310521 -5.20195e-20)
(-0.0224517 0.0381784 -4.48604e-21)
(-0.029352 0.042946 6.49041e-20)
(-0.0358796 0.0456993 -8.01661e-20)
(-0.041791 0.0467889 1.07038e-19)
(-0.046891 0.046564 -1.30622e-19)
(-0.0510232 0.0453755 -1.66957e-19)
(-0.0540677 0.0435805 4.88943e-20)
(-0.0559455 0.0415522 1.00834e-19)
(-0.0566254 0.0396906 -1.20593e-19)
(-0.056209 0.038418 1.02569e-19)
(-0.0549088 0.0381364 -1.77166e-19)
(-0.0520948 0.0393396 1.24168e-19)
(-0.00324217 0.00884564 2.03694e-19)
(-0.00959451 0.0225999 -1.32649e-19)
(-0.0166744 0.0330169 6.13823e-20)
(-0.0237426 0.0405576 8.99443e-20)
(-0.0305198 0.0455687 -1.04983e-19)
(-0.0367465 0.0484174 1.55109e-19)
(-0.0421941 0.049476 -2.19268e-20)
(-0.0466775 0.0491136 -1.94312e-19)
(-0.0500445 0.0476992 5.57415e-20)
(-0.0521732 0.0456094 2.80272e-20)
(-0.0529769 0.0432415 -1.40215e-19)
(-0.0524107 0.0410333 1.17013e-19)
(-0.0505741 0.0394672 -3.75799e-19)
(-0.0477479 0.0390247 3.06611e-19)
(-0.0430224 0.0403355 -1.08735e-19)
(-0.00365254 0.00933458 -1.45152e-19)
(-0.0105721 0.023836 2.22952e-20)
(-0.0179499 0.0348016 -1.17949e-19)
(-0.0250894 0.0427115 -1.02102e-19)
(-0.0317283 0.0479327 -1.08463e-19)
(-0.0376242 0.050853 -1.73671e-19)
(-0.0425635 0.0518643 2.16299e-19)
(-0.0463712 0.0513527 2.62066e-19)
(-0.048899 0.0497021 1.81715e-20)
(-0.0500219 0.0473044 -1.28721e-19)
(-0.0496429 0.0445773 8.91769e-21)
(-0.0476988 0.0419952 1.09562e-19)
(-0.0442796 0.0401065 -4.72079e-20)
(-0.0397697 0.0394841 -1.27329e-20)
(-0.0328547 0.0409474 1.63132e-19)
(-0.0040784 0.00977654 9.06978e-20)
(-0.0115862 0.0249487 1.15889e-19)
(-0.0192713 0.0364018 3.57066e-20)
(-0.0264774 0.0446332 1.37902e-19)
(-0.0329582 0.0500286 5.83832e-20)
(-0.0384884 0.0529953 1.1542e-19)
(-0.042869 0.0539424 -1.31968e-20)
(-0.0459351 0.0532705 -1.16615e-19)
(-0.0475414 0.0513752 5.54707e-20)
(-0.0475583 0.0486588 1.97947e-19)
(-0.0458759 0.045555 6.97799e-20)
(-0.0424069 0.0425715 -8.6849e-20)
(-0.0372185 0.0403261 1.64044e-19)
(-0.030843 0.0394901 -1.0913e-19)
(-0.0214778 0.041243 1.26866e-20)
(-0.00451732 0.010172 -1.563e-20)
(-0.0126296 0.0259376 -4.49958e-20)
(-0.0206268 0.0378148 1.11119e-19)
(-0.0278898 0.046317 6.78941e-20)
(-0.0341874 0.0518486 1.36739e-19)
(-0.0393104 0.0548348 -7.42067e-20)
(-0.0430743 0.0557007 -1.65577e-19)
(-0.0453232 0.0548588 -7.56877e-20)
(-0.0459144 0.0527126 -1.06429e-19)
(-0.0447117 0.049671 -2.38646e-19)
(-0.0415893 0.0461771 -1.31915e-19)
(-0.0364301 0.0427661 -3.5994e-20)
(-0.0292595 0.0401202 -1.58118e-19)
(-0.0207393 0.0389798 -2.29068e-21)
(-0.00873057 0.0412212 8.37494e-20)
(-0.00496699 0.0105218 -6.58007e-20)
(-0.0136951 0.0268025 -4.06829e-20)
(-0.0220038 0.0390384 6.18604e-21)
(-0.0293081 0.0477587 -2.89426e-19)
(-0.0353903 0.0533861 -2.72821e-19)
(-0.0400565 0.0563638 -1.06418e-19)
(-0.0431354 0.0571314 2.03596e-19)
(-0.0444795 0.0561112 -9.79446e-20)
(-0.0439471 0.0537122 9.35982e-20)
(-0.0413934 0.0503446 1.26877e-19)
(-0.0366735 0.0464543 4.54329e-20)
(-0.0296385 0.0425955 -8.34927e-20)
(-0.0202763 0.0395076 9.31381e-20)
(-0.00926055 0.0380202 7.66615e-20)
(0.00579038 0.0407687 -1.09022e-19)
(-0.00542525 0.0108269 -1.71631e-20)
(-0.0147753 0.027544 5.36578e-20)
(-0.0233888 0.0400715 -1.56809e-19)
(-0.0307116 0.0489546 3.62e-19)
(-0.0365377 0.0546357 2.5742e-19)
(-0.040687 0.0575757 4.23278e-20)
(-0.0430003 0.058228 -1.28547e-19)
(-0.0433366 0.057024 5.14333e-20)
(-0.0415534 0.054375 6.54191e-20)
(-0.0374948 0.0506885 -1.60895e-19)
(-0.0309929 0.0464062 1.91829e-19)
(-0.0218595 0.0420919 7.46424e-20)
(-0.0100463 0.0385377 -1.22674e-19)
(0.00375114 0.0367031 8.4974e-20)
(0.0224202 0.0398654 3.23938e-20)
(-0.00589004 0.0110886 2.70591e-20)
(-0.0158626 0.0281633 1.38194e-19)
(-0.0247673 0.0409134 -6.44872e-21)
(-0.0320773 0.0499022 -2.09973e-19)
(-0.0375964 0.0555929 -1.51139e-19)
(-0.0411564 0.058465 1.57168e-19)
(-0.0426081 0.0589859 2.17842e-19)
(-0.041815 0.057595 -3.22058e-20)
(-0.0386306 0.0547046 -9.48285e-20)
(-0.032885 0.0507161 2.39208e-19)
(-0.0243837 0.0460602 -1.92554e-19)
(-0.0128918 0.0412975 1.00397e-19)
(0.00169316 0.0372583 1.30657e-19)
(0.0185936 0.0350298 -4.00454e-19)
(0.0414901 0.0386395 5.07049e-20)
(-0.00635937 0.011308 7.66448e-20)
(-0.0169491 0.0286613 -6.17338e-20)
(-0.0261234 0.041564 -9.3133e-23)
(-0.0333793 0.0505995 4.65465e-20)
(-0.0385284 0.0562541 5.96349e-20)
(-0.0414121 0.0590273 -1.73699e-19)
(-0.0418884 0.0594014 -8.31391e-20)
(-0.0398217 0.0578239 -1.68827e-19)
(-0.0350583 0.0547075 -1.6382e-19)
(-0.0274099 0.0504453 1.41014e-19)
(-0.0166519 0.0454512 -1.5687e-19)
(-0.0024968 0.0402699 -1.84021e-20)
(0.0152325 0.035751 4.59795e-20)
(0.0356168 0.0330585 -1.903e-20)
(0.0634178 0.0372034 1.61182e-19)
(-0.00683132 0.0114864 -2.42406e-20)
(-0.0180263 0.0290394 -1.64651e-19)
(-0.0274397 0.0420232 -1.38799e-19)
(-0.0345891 0.0510448 -2.90002e-20)
(-0.0392913 0.0566165 2.60055e-20)
(-0.0413946 0.0592595 -5.12821e-21)
(-0.0407606 0.0594723 -3.14864e-20)
(-0.0372504 0.0577118 -2.42955e-20)
(-0.0306979 0.0543919 8.56424e-20)
(-0.0208917 0.0498972 -6.3947e-20)
(-0.00757271 0.0446207 1.84267e-19)
(0.00960253 0.0390795 -1.97927e-19)
(0.0309054 0.0341216 -1.45056e-19)
(0.0552094 0.0309031 1.01462e-19)
(0.0886787 0.0356951 -1.22562e-19)
(-0.00730393 0.011625 -6.30131e-20)
(-0.0190852 0.0292987 2.01571e-20)
(-0.0286971 0.0422913 1.18285e-19)
(-0.0356747 0.0512372 -6.13399e-20)
(-0.0398372 0.056678 9.75567e-20)
(-0.0410365 0.0591592 -3.20464e-20)
(-0.0391335 0.0591976 -1.64225e-19)
(-0.0339803 0.0572614 2.14177e-19)
(-0.0253922 0.053768 9.42456e-20)
(-0.0131287 0.0490954 -2.64705e-19)
(0.00310813 0.0436148 2.60485e-20)
(0.0237194 0.0378066 -5.46807e-21)
(0.0490862 0.0324975 2.94716e-19)
(0.0778023 0.0287153 5.99327e-20)
(0.117775 0.0343103 1.67309e-19)
(-0.00777513 0.0117248 2.63189e-21)
(-0.020116 0.0294402 1.41676e-19)
(-0.0298745 0.0423686 -6.78284e-20)
(-0.0366002 0.0511761 9.31516e-20)
(-0.0401124 0.0564376 1.75541e-19)
(-0.0402625 0.0587259 2.23064e-19)
(-0.036905 0.0585784 6.67535e-20)
(-0.0298763 0.0564776 -1.44926e-20)
(-0.0189661 0.052848 2.6768e-19)
(-0.00389709 0.0480654 2.97907e-19)
(0.0156713 0.0424823 2.69016e-20)
(0.0401974 0.0365382 2.8321e-19)
(0.0701794 0.0310231 -4.06233e-22)
(0.103861 0.0266781 -2.418e-19)
(0.151198 0.0333115 -1.61806e-19)
(-0.0082427 0.0117866 7.66492e-20)
(-0.0211078 0.0294645 1.55625e-19)
(-0.0309481 0.0422552 2.58115e-20)
(-0.0373259 0.0508614 1.79631e-19)
(-0.0400572 0.0558955 -2.14135e-19)
(-0.0389884 0.0579606 -2.77271e-20)
(-0.0339614 0.0576179 -4.53476e-20)
(-0.0247892 0.0553677 3.22977e-19)
(-0.0112269 0.0516467 -4.38764e-19)
(0.00704678 0.0468349 -2.96557e-19)
(0.0304192 0.0412731 1.12078e-19)
(0.0594022 0.035363 -1.40003e-19)
(0.0946027 0.0298517 -3.78117e-20)
(0.133868 0.0250014 1.13853e-19)
(0.189378 0.0330284 4.01388e-19)
(-0.00870412 0.0118108 7.29535e-20)
(-0.0220483 0.0293718 -2.8412e-19)
(-0.0318917 0.0419514 6.17451e-20)
(-0.0378073 0.0502939 -2.77213e-19)
(-0.0396051 0.0550533 1.3857e-19)
(-0.037121 0.056867 -9.20397e-20)
(-0.0301776 0.056323 -9.98936e-20)
(-0.0185556 0.0539435 -2.39008e-19)
(-0.00196629 0.050183 8.48092e-20)
(0.0199634 0.0454346 1.21106e-19)
(0.0476695 0.040038 -6.52657e-21)
(0.0817108 0.0343687 1.15363e-19)
(0.122766 0.0291346 -6.01043e-20)
(0.168308 0.0239141 -2.0669e-20)
(0.232606 0.0338459 -2.77687e-20)
(-0.00915643 0.0117976 -3.21044e-19)
(-0.0229239 0.029162 1.29365e-20)
(-0.0326756 0.0414575 -2.6297e-20)
(-0.0379949 0.0494749 4.57339e-20)
(-0.0386822 0.0539149 -2.0784e-19)
(-0.0345579 0.055452 2.51039e-19)
(-0.0254168 0.0547048 -7.46391e-21)
(-0.0109985 0.0522221 -3.05666e-19)
(0.0090386 0.0484821 -2.80599e-19)
(0.0351259 0.0439008 -2.38463e-19)
(0.0677467 0.03883 -1.07459e-19)
(0.107498 0.0336401 -6.81617e-20)
(0.155048 0.0290096 -2.26249e-19)
(0.207641 0.0236581 -1.52711e-19)
(0.28095 0.0361658 1.80539e-19)
(-0.00959616 0.0117469 1.83603e-19)
(-0.0237185 0.0288344 1.46146e-19)
(-0.0332663 0.0407737 1.71648e-19)
(-0.0378336 0.0484073 -5.11048e-20)
(-0.0372073 0.0524863 9.14071e-20)
(-0.0311863 0.0537265 -1.26206e-19)
(-0.0195302 0.0527808 6.43171e-20)
(-0.00192815 0.0502283 3.95643e-19)
(0.0220226 0.0465781 1.49315e-19)
(0.0528152 0.0422785 3.17218e-19)
(0.0909735 0.0377078 1.19348e-19)
(0.13712 0.0332618 -2.15429e-20)
(0.191769 0.0295888 2.01955e-19)
(0.252284 0.0244872 -2.12432e-19)
(0.334154 0.0403439 -2.34892e-19)
(-0.0100191 0.0116581 -1.62151e-19)
(-0.0244142 0.0283878 -2.60969e-19)
(-0.0336267 0.0399008 5.45361e-20)
(-0.037262 0.0470953 -1.03051e-19)
(-0.0350908 0.0507769 1.21901e-19)
(-0.0268839 0.0517068 -2.5301e-19)
(-0.0123578 0.0505754 7.30206e-20)
(0.00885691 0.0479969 -1.12502e-19)
(0.0372295 0.0445169 -1.06672e-19)
(0.0733143 0.0406251 -1.43075e-19)
(0.11766 0.0367398 -2.42692e-19)
(0.170896 0.0333228 2.42037e-20)
(0.233161 0.0309523 2.08837e-19)
(0.302544 0.0267064 1.6706e-19)
(0.391485 0.0466939 1.12455e-19)
(-0.01042 0.01153 1.18783e-19)
(-0.0249893 0.02782 -1.92263e-20)
(-0.0337153 0.0388407 8.72831e-20)
(-0.0362126 0.0455447 2.77264e-19)
(-0.0322347 0.0487995 -2.99135e-19)
(-0.0215179 0.049415 2.65212e-19)
(-0.00372852 0.0481222 -2.48391e-19)
(0.0215675 0.0455742 3.98831e-20)
(0.0549076 0.0423585 1.06154e-19)
(0.0968999 0.0390135 9.6114e-21)
(0.148091 0.0360075 1.62057e-19)
(0.209091 0.0339157 1.68594e-19)
(0.279379 0.0331404 -1.15602e-19)
(0.358548 0.0307766 -2.72661e-19)
(0.451482 0.0556128 3.84878e-19)
(-0.0107933 0.011361 -7.40201e-20)
(-0.0254202 0.0271301 1.88552e-19)
(-0.0334841 0.0375946 -1.15232e-19)
(-0.0346112 0.0437632 -7.80192e-20)
(-0.0285327 0.0465714 1.58673e-19)
(-0.0149464 0.04688 -3.16078e-20)
(0.00653765 0.0454642 9.75171e-20)
(0.0364208 0.0430198 5.72507e-19)
(0.0753037 0.0401794 7.41136e-20)
(0.123831 0.0375338 3.77693e-20)
(0.18251 0.0356045 -6.94188e-20)
(0.251895 0.035121 -1.00862e-19)
(0.330561 0.0361374 -8.22738e-20)
(0.420349 0.0373226 1.13563e-19)
(0.512207 0.0670058 -5.85304e-19)
(-0.0111316 0.0111496 2.32994e-19)
(-0.0256809 0.0263165 2.00052e-19)
(-0.0328807 0.0361639 6.57489e-20)
(-0.0323759 0.0417614 -1.51679e-20)
(-0.0238701 0.0441144 9.74098e-20)
(-0.00701868 0.0441383 -7.41175e-20)
(0.0186278 0.0426554 -4.49061e-20)
(0.0536353 0.0404073 -6.97434e-20)
(0.0986536 0.0380732 -3.17662e-19)
(0.154332 0.0362948 7.5672e-20)
(0.221084 0.0356356 2.95264e-20)
(0.299349 0.0369895 3.21936e-20)
(0.386778 0.039876 2.42505e-19)
(0.488047 0.0465874 -1.53305e-20)
(0.573876 0.0773529 9.96939e-20)
(-0.0114253 0.0108931 -3.69396e-19)
(-0.0257403 0.0253765 -1.42566e-19)
(-0.0318483 0.0345529 -3.66076e-20)
(-0.0294186 0.039553 -2.97915e-21)
(-0.018125 0.0414556 -1.68804e-19)
(0.00242289 0.0412341 7.67915e-20)
(0.0327328 0.039761 7.64388e-21)
(0.0734252 0.0378254 2.22976e-19)
(0.125172 0.0361518 -8.29741e-20)
(0.188576 0.0354251 -7.56418e-20)
(0.263869 0.0362244 -9.99717e-21)
(0.351259 0.0395668 -6.47311e-21)
(0.447612 0.044304 -2.25169e-19)
(0.560326 0.0572692 5.77033e-20)
(0.643109 0.0790159 -1.5539e-19)
(-0.011664 0.0105896 2.70914e-19)
(-0.0255632 0.0243083 8.23868e-20)
(-0.0303241 0.0327665 -1.66933e-19)
(-0.0256446 0.0371545 7.77015e-20)
(-0.0111685 0.0386275 -3.01664e-19)
(0.0135405 0.0382201 5.93311e-20)
(0.0490426 0.0368573 1.0287e-19)
(0.0959928 0.0353766 -2.31635e-19)
(0.155041 0.0345439 3.10058e-19)
(0.226667 0.0350738 1.7855e-19)
(0.310806 0.0375254 1.18395e-19)
(0.407226 0.0429636 3.37168e-20)
(0.512047 0.0494743 -3.59491e-21)
(0.632225 0.0659291 -5.88959e-20)
(0.722772 0.0753924 2.70835e-19)
(-0.0118368 0.0102367 -3.06028e-19)
(-0.0251108 0.0231098 -2.72403e-19)
(-0.0282396 0.0308115 2.50276e-20)
(-0.0209535 0.0345862 7.89102e-20)
(-0.00286725 0.0356687 2.82215e-19)
(0.026498 0.0351574 -9.31193e-20)
(0.0677411 0.0340316 -3.58693e-19)
(0.121519 0.0331762 -2.7697e-19)
(0.188399 0.0333918 -1.72582e-19)
(0.26863 0.0354036 -3.19931e-19)
(0.361708 0.039713 1.24913e-19)
(0.466712 0.0473377 7.01235e-20)
(0.579048 0.0557298 6.37644e-20)
(0.703504 0.0742182 1.45346e-19)
(0.799766 0.0794814 7.7263e-20)
(-0.0119299 0.00983135 2.04719e-19)
(-0.0243412 0.0217806 1.84016e-19)
(-0.0255213 0.0286973 7.51579e-20)
(-0.0152397 0.0318726 -2.18443e-19)
(0.00691543 0.0326239 -1.41295e-19)
(0.041457 0.0321152 1.02488e-19)
(0.0889998 0.0313808 1.38297e-19)
(0.150156 0.0313497 2.69945e-19)
(0.225321 0.0328455 8.03225e-20)
(0.31439 0.036579 4.66552e-20)
(0.416252 0.0429542 -2.76779e-19)
(0.529064 0.0528417 -2.03141e-19)
(0.647495 0.0632936 3.21204e-20)
(0.773686 0.0830775 -6.61741e-20)
(0.872348 0.0877244 1.6605e-19)
(-0.0119277 0.00937107 6.13094e-20)
(-0.0232084 0.0203216 -1.34842e-19)
(-0.0220917 0.0264358 -1.32766e-19)
(-0.00839431 0.0290429 2.56411e-20)
(0.0183164 0.0295442 1.17198e-19)
(0.0585724 0.0291709 2.08519e-19)
(0.11297 0.0290102 -1.21805e-19)
(0.18201 0.0300289 1.22555e-19)
(0.265813 0.0330557 5.04279e-20)
(0.363763 0.0387536 -2.60681e-19)
(0.473969 0.0473843 5.18862e-20)
(0.593483 0.0595689 2.7353e-20)
(0.716217 0.0721551 -8.05438e-20)
(0.841774 0.0927033 -1.3865e-19)
(0.940204 0.0979905 -3.09379e-19)
(-0.0118133 0.00885398 3.85184e-20)
(-0.0216628 0.0187354 -5.23008e-20)
(-0.0178694 0.0240426 1.31162e-19)
(-0.00030622 0.0261314 -1.16889e-19)
(0.0314702 0.0264879 2.13863e-20)
(0.0779871 0.0264094 -5.39819e-20)
(0.139774 0.0270324 -6.95238e-20)
(0.217136 0.0293487 4.09017e-20)
(0.309789 0.0341672 1.53353e-20)
(0.416434 0.0420588 2.41818e-19)
(0.534237 0.0530909 1.02568e-19)
(0.659032 0.0675407 1.1448e-19)
(0.784004 0.0821748 3.07157e-19)
(0.906673 0.103066 -9.0496e-20)
(1.00237 0.10938 1.70617e-19)
(-0.0115682 0.00827884 -1.15988e-19)
(-0.0196518 0.0170271 2.49947e-19)
(-0.0127703 0.0215375 7.03791e-20)
(0.00913572 0.0231784 3.11732e-19)
(0.0465049 0.02352 7.32553e-20)
(0.0998266 0.023923 -2.61252e-19)
(0.169499 0.0255646 1.12322e-19)
(0.255524 0.029443 2.51019e-19)
(0.357063 0.0363116 -2.27184e-19)
(0.471962 0.0465944 -5.71857e-20)
(0.596297 0.0601064 -4.18978e-21)
(0.724675 0.0767058 -1.28229e-19)
(0.849676 0.0931442 -1.7588e-19)
(0.967383 0.114006 1.67819e-19)
(1.05814 0.121255 6.29099e-20)
(-0.0111724 0.00764537 -3.99499e-20)
(-0.0171203 0.0152046 -1.39431e-19)
(-0.00670866 0.0189449 1.97985e-19)
(0.0200405 0.0202306 -1.37932e-19)
(0.0635393 0.020713 3.49898e-20)
(0.124193 0.0218106 -3.35556e-21)
(0.202185 0.0247273 1.59324e-19)
(0.297089 0.0304399 -1.99213e-19)
(0.407344 0.0396005 5.32718e-19)
(0.529775 0.0524215 1.10937e-19)
(0.659282 0.0684046 -1.0266e-19)
(0.789338 0.0869456 8.82958e-21)
(0.912155 0.104816 -2.83536e-20)
(1.0231 0.125293 3.55582e-20)
(1.10716 0.133136 -2.39071e-19)
(-0.0106046 0.00695447 2.49061e-20)
(-0.014011 0.0132794 -1.65349e-19)
(0.000401271 0.0162949 -1.53743e-19)
(0.0325127 0.0173415 -9.43922e-20)
(0.0826778 0.0181467 -1.62575e-19)
(0.151157 0.0201766 -8.13419e-20)
(0.23782 0.0246407 -2.31378e-19)
(0.341661 0.0324575 8.03876e-20)
(0.460231 0.0441196 -3.76829e-19)
(0.589194 0.0595571 -7.33112e-20)
(0.722259 0.0779033 -2.7393e-19)
(0.851981 0.0980865 1.96668e-19)
(0.970534 0.11693 1.56706e-19)
(1.07327 0.136676 1.77753e-22)
(1.14937 0.144679 3.77082e-19)
(-0.00984233 0.0062085 2.00351e-20)
(-0.010266 0.0112671 1.6693e-19)
(0.00864397 0.0136236 2.45253e-19)
(0.0466495 0.0145721 3.14442e-20)
(0.104007 0.015908 -1.18967e-19)
(0.180756 0.0191294 1.0395e-19)
(0.27633 0.0254226 1.08965e-20)
(0.388988 0.0355985 -1.10743e-19)
(0.515223 0.0499229 -9.28492e-20)
(0.649453 0.0679719 -9.13668e-20)
(0.784281 0.088472 2.30266e-19)
(0.911661 0.109919 1.51314e-19)
(1.02412 0.129236 -1.79417e-19)
(1.11761 0.14793 1.33383e-19)
(1.185 0.15566 1.32992e-20)
(-0.00886247 0.00541148 5.37356e-20)
(-0.00582659 0.00918789 -3.67646e-19)
(0.0181008 0.0109737 -2.5679e-19)
(0.0625377 0.0119908 -1.50013e-20)
(0.12759 0.0140901 5.48529e-20)
(0.212985 0.0187798 1.39639e-19)
(0.317579 0.0271838 -4.81643e-20)
(0.438728 0.0399455 9.11668e-20)
(0.571729 0.0570287 2.23656e-19)
(0.709738 0.0775919 7.97828e-20)
(0.844441 0.0999426 8.44747e-20)
(0.967589 0.12222 -3.60217e-20)
(1.07247 0.141509 -9.50317e-20)
(1.15608 0.158869 -3.08898e-19)
(1.21448 0.165953 -1.67832e-20)
(-0.00764126 0.00456931 -1.97938e-19)
(-0.000635169 0.00706676 4.02985e-19)
(0.028848 0.00839467 -7.66636e-20)
(0.0802509 0.00967343 -2.41136e-20)
(0.153464 0.0127918 -8.19483e-20)
(0.24779 0.0192385 -1.53229e-19)
(0.36136 0.0300249 1.06042e-19)
(0.490458 0.0455561 -1.92119e-19)
(0.629092 0.0654176 -7.60909e-20)
(0.769227 0.0883037 -5.45079e-20)
(0.901923 0.112125 -1.71438e-19)
(1.01916 0.134769 3.75848e-20)
(1.11537 0.153564 1.19739e-19)
(1.18886 0.16936 1.71659e-20)
(1.23838 0.175507 -2.45397e-19)
(-0.00615476 0.00368993 5.28519e-20)
(0.0053642 0.00493404 2.75236e-20)
(0.0409549 0.00594317 4.97346e-19)
(0.0998461 0.00770264 2.18692e-19)
(0.181633 0.012116 9.36878e-20)
(0.28507 0.0206129 1.56242e-20)
(0.407397 0.0340315 -2.8062e-19)
(0.543686 0.0524597 3.148e-19)
(0.686615 0.0750337 1.64805e-20)
(0.827132 0.0999631 7.07683e-20)
(0.956039 0.124819 -6.45698e-20)
(1.06599 0.147368 -1.97028e-19)
(1.15281 0.165261 -2.90295e-19)
(1.2163 0.179325 3.79223e-19)
(1.25736 0.184332 5.24309e-20)
(-0.00437916 0.00278345 -2.63683e-21)
(0.0122244 0.00282547 -1.9649e-19)
(0.0544815 0.00368261 -1.86156e-19)
(0.12136 0.00616734 -1.54654e-19)
(0.212067 0.0121675 1.05098e-19)
(0.324668 0.0230044 -6.4849e-20)
(0.45535 0.0392708 2.05398e-19)
(0.59786 0.0606554 -1.59562e-19)
(0.743593 0.0857877 5.55619e-20)
(0.88274 0.112406 -1.18116e-19)
(1.00626 0.137832 2.55155e-20)
(1.10786 0.159849 -8.33571e-20)
(1.18497 0.176505 7.90669e-20)
(1.23884 0.188727 -2.17444e-19)
(1.27207 0.192477 -7.72495e-20)
(-0.0022912 0.00186229 -2.8445e-19)
(0.019994 0.000782215 2.52103e-19)
(0.0694762 0.00168294 -2.98135e-20)
(0.144808 0.00516135 1.12108e-19)
(0.244699 0.0130508 -1.75283e-19)
(0.366374 0.0265043 1.54e-19)
(0.504821 0.0457879 -1.75872e-19)
(0.652398 0.0701113 -1.03399e-19)
(0.799345 0.0975633 3.08681e-20)
(0.935439 0.125459 -9.25937e-20)
(1.05222 0.150989 -1.32516e-19)
(1.14476 0.172081 3.66639e-19)
(1.21215 0.18724 -4.47909e-20)
(1.25699 0.19757 2.3223e-19)
(1.28317 0.200015 -5.28884e-20)
(0.000131416 0.000941152 5.29022e-20)
(0.028716 -0.00114924 -4.08984e-20)
(0.0859739 1.99489e-05 -2.49822e-19)
(0.170177 0.00478194 -3.4925e-20)
(0.279418 0.0148676 3.04207e-19)
(0.409928 0.0311907 -2.11846e-19)
(0.555364 0.0536036 3.09727e-19)
(0.7067 0.0807671 -1.57731e-19)
(0.853242 0.110225 1.91833e-19)
(0.984743 0.138953 1.45952e-19)
(1.09371 0.164138 -9.46142e-20)
(1.1768 0.183971 -1.41361e-19)
(1.23474 0.197448 1.57527e-19)
(1.2713 0.205885 -1.70938e-19)
(1.29124 0.207033 -8.9078e-20)
(0.00290953 3.7098e-05 1.99014e-19)
(0.0384262 -0.00291734 -3.1508e-20)
(0.103993 -0.00122558 1.37088e-19)
(0.197428 0.00512788 -1.65597e-19)
(0.316075 0.0177136 -3.76296e-19)
(0.455019 0.0371252 5.44964e-20)
(0.606499 0.0627134 -8.57047e-20)
(0.760181 0.0925377 2.85292e-19)
(0.904733 0.123627 -9.30778e-20)
(1.0303 0.152728 3.79609e-21)
(1.13068 0.177157 1.25021e-19)
(1.20423 0.19546 1.02121e-19)
(1.25319 0.207139 -2.39837e-19)
(1.28229 0.213724 1.39667e-19)
(1.29681 0.213621 1.60216e-19)
(0.00606203 -0.000830526 -8.64991e-20)
(0.0491523 -0.0044659 -4.25695e-20)
(0.123536 -0.00196908 -1.29465e-19)
(0.226492 0.00629736 8.52561e-20)
(0.354478 0.0216756 1.73049e-19)
(0.501298 0.0443506 -1.78377e-20)
(0.657728 0.0730878 1.60258e-19)
(0.812288 0.105319 -1.62407e-19)
(0.953362 0.137622 1.72776e-19)
(1.07188 0.166644 -1.81745e-19)
(1.1632 0.189954 1.98205e-19)
(1.22736 0.206521 -1.84649e-19)
(1.26796 0.216345 -6.19325e-20)
(1.29044 0.221146 6.46916e-20)
(1.30035 0.219868 2.0461e-20)
(0.00960535 -0.00164018 6.68819e-20)
(0.060912 -0.00573473 -7.63418e-21)
(0.144582 -0.00212358 -1.71191e-19)
(0.257267 0.00838569 1.2852e-19)
(0.394398 0.0268289 5.24012e-20)
(0.548383 0.0528889 4.99432e-20)
(0.708554 0.0846743 -5.16124e-20)
(0.862522 0.118992 -3.65246e-20)
(0.998774 0.152067 -3.01873e-19)
(1.10939 0.180581 1.83134e-19)
(1.19142 0.202464 -1.16558e-19)
(1.24655 0.217149 -2.39461e-20)
(1.27951 0.225111 3.76033e-19)
(1.2962 0.228218 -2.86528e-19)
(1.30223 0.225851 -1.94618e-19)
(0.0135529 -0.00236827 -1.16309e-20)
(0.073712 -0.00666033 1.00209e-19)
(0.167093 -0.00160124 1.64064e-19)
(0.289623 0.0114828 -2.11378e-20)
(0.435571 0.0332345 -1.18436e-19)
(0.595869 0.062741 1.21771e-19)
(0.758496 0.0974008 -1.24097e-19)
(0.910449 0.133434 -6.90524e-20)
(1.04072 0.16683 2.00201e-19)
(1.14282 0.194445 1.38863e-19)
(1.21559 0.214649 2.34299e-20)
(1.26219 0.227363 9.69791e-20)
(1.28826 0.23349 -1.95545e-19)
(1.29996 0.235006 1.2465e-19)
(1.30276 0.231643 2.18623e-19)
(0.0179146 -0.00298939 -4.16802e-20)
(0.0875472 -0.00717682 -2.77608e-19)
(0.191008 -0.000315136 -1.74001e-19)
(0.323398 0.0156712 -1.73419e-19)
(0.477704 0.0409375 -1.15933e-19)
(0.643343 0.073887 5.94753e-20)
(0.807103 0.11118 2.16609e-19)
(0.955713 0.148518 -7.23303e-20)
(1.07905 0.181794 1.23356e-19)
(1.17228 0.208161 -1.99351e-20)
(1.23599 0.226493 3.09022e-20)
(1.27466 0.237192 -5.44479e-20)
(1.29461 0.241539 1.98408e-20)
(1.30206 0.241571 -2.87462e-20)
(1.30222 0.237302 -7.8431e-20)
(0.0226962 -0.00347659 6.69335e-20)
(0.102399 -0.00721695 2.94829e-19)
(0.216241 0.00181897 -6.12366e-20)
(0.358403 0.0210231 1.39957e-19)
(0.520479 0.0499655 2.682e-20)
(0.690396 0.0862876 2.05868e-20)
(0.853969 0.125912 -1.04334e-19)
(0.998038 0.164124 1.20529e-19)
(1.1137 0.196859 -1.77146e-19)
(1.1979 0.221678 -9.35546e-20)
(1.25292 0.237996 -3.13915e-20)
(1.28434 0.246674 -2.17629e-20)
(1.29892 0.249316 -7.82619e-20)
(1.30279 0.247967 -9.97985e-21)
(1.30079 0.242877 3.7243e-20)
(0.0278991 -0.00380167 -2.12381e-20)
(0.118235 -0.00671326 1.37284e-20)
(0.242688 0.00488076 1.68206e-19)
(0.394421 0.0275991 1.61698e-19)
(0.563566 0.0603279 6.61673e-20)
(0.73663 0.0998861 -1.1584e-19)
(0.898739 0.141492 3.76481e-20)
(1.03723 0.180137 9.66478e-20)
(1.14468 0.211942 -1.42019e-20)
(1.21991 0.234962 1.78988e-20)
(1.26671 0.249171 3.58336e-20)
(1.29157 0.255854 9.74042e-21)
(1.30149 0.256874 -7.64888e-20)
(1.30236 0.254244 -2.46885e-21)
(1.29862 0.248407 8.15063e-20)
(0.0335199 -0.00393564 1.39399e-20)
(0.135009 -0.00559928 -5.70244e-20)
(0.270222 0.00894349 -9.65768e-20)
(0.431217 0.0354463 -1.92609e-19)
(0.606626 0.0720164 -2.02675e-20)
(0.781672 0.114612 9.09042e-20)
(0.941118 0.157811 -4.6085e-20)
(1.07315 0.196453 -1.19694e-19)
(1.17207 0.226975 -1.09367e-19)
(1.23852 0.247995 5.04027e-20)
(1.27766 0.260039 -2.72506e-20)
(1.29667 0.264774 -1.2516e-19)
(1.30258 0.26426 1.18595e-19)
(1.30098 0.26044 1.15339e-19)
(1.29584 0.253919 -5.52676e-20)
(0.0395495 -0.00384912 6.177e-21)
(0.152661 -0.00381086 -1.13447e-19)
(0.298694 0.0140723 4.92436e-20)