/*--------------------------------*- C++ -*----------------------------------*\
  =========                 |
  \\      /  F ield         | OpenFOAM: The Open Source CFD Toolbox
   \\    /   O peration     | Website:  https://openfoam.org
    \\  /    A nd           | Version:  7
     \\/     M anipulation  |
\*---------------------------------------------------------------------------*/
FoamFile
{
    version     2.0;
    format      ascii;
    class       volVectorField;
    location    "260";
    object      U;
}
// * * * * * * * * * * * * * * * * * * * * * * * * * * * * * * * * * * * * * //

dimensions      [0 1 -1 0 0 0 0];

internalField   nonuniform List<vector> 
7156
(
(0.828525 0.29358 1.19928e-19)
(0.82084 0.288126 -1.31377e-19)
(0.813301 0.282457 6.76015e-20)
(0.794647 0.290041 -2.01592e-19)
(0.805915 0.276577 -5.86241e-21)
(0.787077 0.283642 -1.90775e-19)
(0.798685 0.270489 2.06231e-19)
(0.779673 0.277031 3.13312e-19)
(0.791617 0.264197 1.55554e-19)
(0.772441 0.270212 1.7368e-19)
(0.784716 0.257705 -3.95332e-19)
(0.752045 0.275977 -2.71271e-19)
(0.765386 0.263191 -1.70409e-19)
(0.777987 0.251018 2.808e-19)
(0.744831 0.268402 5.84428e-19)
(0.758515 0.255971 -4.96004e-20)
(0.771436 0.24414 -8.11036e-20)
(0.737815 0.260624 -1.45246e-19)
(0.751834 0.248557 -1.2989e-19)
(0.765067 0.237076 1.73755e-19)
(0.731004 0.252648 -2.04498e-19)
(0.745346 0.240955 -2.9741e-20)
(0.758886 0.229831 -4.00491e-19)
(0.709324 0.256284 3.65756e-19)
(0.724403 0.244479 7.19575e-20)
(0.739059 0.23317 1.653e-19)
(0.752897 0.222411 4.67682e-20)
(0.7026 0.247529 -1.45276e-20)
(0.718017 0.236124 8.17992e-20)
(0.732977 0.225207 -1.99986e-19)
(0.747105 0.214821 7.50877e-20)
(0.696109 0.238583 -1.6015e-19)
(0.711852 0.227589 -9.61899e-20)
(0.727104 0.217072 -5.2334e-20)
(0.741515 0.207066 2.05489e-19)
(0.689856 0.229454 -4.41196e-20)
(0.705914 0.21888 -6.56096e-21)
(0.721448 0.208771 2.50028e-20)
(0.736131 0.199153 -6.63237e-20)
(0.683846 0.220148 1.6273e-19)
(0.700207 0.210003 2.01465e-19)
(0.716011 0.200311 1.27507e-19)
(0.730957 0.191087 1.69156e-19)
(0.660642 0.220897 -1.48583e-19)
(0.678086 0.210672 -1.45256e-19)
(0.694736 0.200965 6.04404e-20)
(0.710798 0.191697 -1.84061e-19)
(0.725998 0.182875 -1.39744e-19)
(0.654844 0.210789 2.39602e-19)
(0.672579 0.201034 8.69003e-20)
(0.689506 0.191773 -3.83614e-20)
(0.705815 0.182937 3.83789e-20)
(0.721257 0.174522 1.32081e-19)
(0.64932 0.200518 -2.86345e-19)
(0.667331 0.191241 -6.13173e-20)
(0.684521 0.182434 -5.68973e-20)
(0.701065 0.174036 -7.86278e-20)
(0.716739 0.166036 -2.25195e-19)
(0.644072 0.190091 -6.52591e-20)
(0.662346 0.1813 -5.49409e-21)
(0.679786 0.172955 1.95748e-19)
(0.696552 0.165002 -2.08584e-20)
(0.712447 0.157423 -7.82176e-22)
(0.639107 0.179516 4.16524e-19)
(0.657629 0.17122 1.54022e-19)
(0.675304 0.163344 -2.43547e-19)
(0.69228 0.155841 2.54371e-19)
(0.708385 0.14869 3.59838e-20)
(0.634428 0.168803 -2.31371e-19)
(0.653183 0.161008 -1.1196e-19)
(0.67108 0.153608 1.62972e-19)
(0.688253 0.146561 -5.7284e-20)
(0.704556 0.139843 6.12299e-20)
(0.630039 0.15796 6.64767e-20)
(0.649013 0.150673 1.51798e-19)
(0.667117 0.143755 -1.64006e-19)
(0.684475 0.13717 -7.23237e-20)
(0.700963 0.130889 3.01598e-20)
(0.605836 0.154124 -4.29289e-20)
(0.625945 0.146994 -9.62858e-20)
(0.645122 0.140222 -9.08598e-20)
(0.663419 0.133792 6.88752e-20)
(0.680947 0.127674 -1.26674e-19)
(0.697608 0.121836 -4.17683e-20)
(0.601843 0.142498 -1.23613e-19)
(0.622148 0.135917 7.69152e-20)
(0.641513 0.129664 8.67092e-21)
(0.659988 0.123728 5.43706e-20)
(0.677674 0.118081 4.43328e-20)
(0.694496 0.112691 1.69e-20)
(0.598167 0.130763 1.36274e-20)
(0.618653 0.124735 1.45827e-19)
(0.638189 0.119008 6.12592e-20)
(0.656828 0.11357 -1.5526e-19)
(0.674658 0.108398 4.58828e-21)
(0.691627 0.10346 8.4476e-21)
(0.594812 0.118927 8.55795e-20)
(0.615461 0.113458 -1.35549e-20)
(0.635153 0.108262 1.74366e-20)
(0.65394 0.103327 -1.51113e-20)
(0.671902 0.0986343 -4.25778e-20)
(0.689004 0.0941522 -1.65381e-20)
(0.591781 0.107002 -5.91718e-21)
(0.612577 0.102096 -7.2294e-20)
(0.632409 0.0974343 -5.29687e-20)
(0.651328 0.0930064 4.36396e-20)
(0.669408 0.0887964 5.47282e-20)
(0.68663 0.0847737 3.95637e-20)
(0.589076 0.094996 -1.12347e-19)
(0.610001 0.0906581 1.46985e-20)
(0.629957 0.0865343 -2.34261e-20)
(0.648994 0.0826169 1.16972e-19)
(0.667177 0.0788925 -3.39278e-20)
(0.684506 0.0753324 -2.10299e-20)
(0.586699 0.0829198 9.5239e-21)
(0.607736 0.0791528 -1.2341e-19)
(0.6278 0.0755707 1.22582e-20)
(0.646939 0.0721669 -8.54667e-20)
(0.665213 0.0689305 4.90898e-20)
(0.682634 0.0658358 4.47384e-20)
(0.584652 0.0707831 6.80087e-20)
(0.605785 0.0675901 7.46118e-20)
(0.625939 0.0645523 -3.14528e-20)
(0.645165 0.0616646 -4.83534e-20)
(0.663515 0.0589186 -3.4144e-20)
(0.681015 0.0562915 8.04203e-20)
(0.582938 0.0585959 -2.97896e-21)
(0.604148 0.0559793 -2.67425e-20)
(0.624376 0.0534882 4.01974e-20)
(0.643673 0.0511187 2.34204e-21)
(0.662086 0.0488647 -2.08008e-20)
(0.679651 0.046707 1.51819e-20)
(0.581556 0.0463684 -6.69737e-20)
(0.602827 0.04433 -5.60674e-21)
(0.623113 0.0423872 1.37321e-21)
(0.642465 0.0405376 2.78022e-20)
(0.660926 0.038777 1.94605e-20)
(0.678541 0.0370902 -1.11253e-20)
(0.580509 0.0341107 2.63554e-20)
(0.601822 0.0326517 -6.93697e-21)
(0.622149 0.0312585 3.69081e-20)
(0.64154 0.0299299 -2.82421e-20)
(0.660036 0.0286635 -9.379e-21)
(0.677688 0.0274485 -2.65044e-21)
(0.579796 0.0218329 -1.53246e-21)
(0.601134 0.020954 -6.67546e-21)
(0.621486 0.0201111 -1.27502e-20)
(0.640901 0.0193041 -3.14258e-21)
(0.659417 0.0185325 2.13992e-21)
(0.67709 0.0177899 -7.49134e-21)
(0.579419 0.00954519 -2.37541e-21)
(0.600764 0.0092466 -5.4793e-21)
(0.621123 0.00895405 -1.14904e-20)
(0.640546 0.0086689 -3.41671e-21)
(0.659069 0.00839215 8.32321e-22)
(0.676749 0.00812223 -3.65175e-21)
(0.579376 -0.00274232 2.5489e-20)
(0.600711 -0.00246102 3.37032e-21)
(0.621062 -0.00220355 2.81562e-20)
(0.640476 -0.00196725 -2.50219e-20)
(0.658992 -0.00174942 -8.07665e-21)
(0.676665 -0.00154659 -1.10045e-20)
(0.579667 -0.0150195 -4.0018e-20)
(0.600975 -0.0141592 1.32001e-20)
(0.6213 -0.0133527 -5.28819e-20)
(0.640691 -0.0125958 6.21993e-20)
(0.659186 -0.0118842 1.28715e-20)
(0.676838 -0.0112098 -7.61415e-21)
(0.580293 -0.0272761 2.95687e-20)
(0.601556 -0.0258385 -2.69223e-20)
(0.621838 -0.0244842 1.89649e-20)
(0.64119 -0.0232081 1.76229e-20)
(0.65965 -0.022004 -1.02633e-20)
(0.677266 -0.0208597 -2.07544e-20)
(0.581251 -0.0395021 4.18784e-20)
(0.602452 -0.0374892 8.25222e-20)
(0.622675 -0.0355893 -5.891e-20)
(0.641972 -0.0337958 6.9762e-21)
(0.660383 -0.0321007 -1.46327e-20)
(0.677949 -0.030488 -1.5245e-20)
(0.582541 -0.0516875 -3.13464e-20)
(0.603661 -0.0491019 -6.97102e-20)
(0.62381 -0.0466587 -1.70027e-21)
(0.643036 -0.0443502 -8.86081e-20)
(0.661384 -0.0421662 5.67161e-20)
(0.678886 -0.0400871 8.14831e-20)
(0.58416 -0.0638222 -1.39116e-19)
(0.605184 -0.0606671 4.91691e-20)
(0.62524 -0.0576837 1.74182e-20)
(0.644381 -0.0548629 1.04392e-19)
(0.662652 -0.0521924 -6.95701e-20)
(0.680076 -0.0496494 -3.43974e-20)
(0.586107 -0.0758963 1.77091e-20)
(0.607017 -0.0721755 -8.81932e-20)
(0.626966 -0.0686554 -1.90476e-20)
(0.646004 -0.0653256 7.36828e-21)
(0.664186 -0.0621714 9.2879e-20)
(0.681517 -0.0591675 3.42751e-20)
(0.588379 -0.0879001 1.51367e-19)
(0.609158 -0.0836177 -6.73983e-20)
(0.628983 -0.079565 7.82223e-20)
(0.647905 -0.0757298 -7.853e-20)
(0.665983 -0.0720952 4.91344e-21)
(0.683209 -0.0686337 -4.59823e-20)
(0.590975 -0.0998236 6.01731e-20)
(0.611606 -0.0949846 7.02242e-20)
(0.631291 -0.0904037 1.10036e-20)
(0.650081 -0.0860675 2.55804e-21)
(0.668042 -0.081956 -6.92342e-20)
(0.685148 -0.0780407 -1.74288e-20)
(0.59389 -0.111657 -1.3471e-19)
(0.614356 -0.106267 -4.7606e-20)
(0.633885 -0.101163 4.057e-20)
(0.652529 -0.0963304 6.08908e-20)
(0.67036 -0.091746 1.05405e-19)
(0.687333 -0.0873811 3.04149e-20)
(0.597121 -0.123392 1.82793e-19)
(0.617407 -0.117456 -1.09775e-19)
(0.636765 -0.111834 -1.3469e-19)
(0.655247 -0.10651 -1.02636e-20)
(0.672934 -0.101458 -1.04284e-19)
(0.689762 -0.0966477 -4.58851e-20)
(0.620755 -0.128542 9.68518e-20)
(0.639926 -0.122409 1.02932e-19)
(0.658232 -0.1166 -2.3752e-19)
(0.675762 -0.111083 -9.80921e-21)
(0.692432 -0.105833 4.38681e-21)
(0.624396 -0.139518 -2.44402e-19)
(0.643365 -0.132879 -8.47934e-20)
(0.66148 -0.12659 1.57787e-19)
(0.678842 -0.120616 -1.87451e-20)
(0.695341 -0.11493 -7.65217e-20)
(0.628326 -0.150374 3.19499e-19)
(0.647079 -0.143237 1.36071e-19)
(0.66499 -0.136474 -1.73453e-19)
(0.682169 -0.130047 1.74939e-19)
(0.698485 -0.123932 8.48502e-20)
(0.632541 -0.161101 -5.44068e-20)
(0.651063 -0.153473 -5.72717e-21)
(0.668755 -0.146245 1.82679e-19)
(0.68574 -0.13937 -5.74062e-20)
(0.701862 -0.132833 -1.35277e-19)
(0.637037 -0.171692 -2.53617e-19)
(0.655314 -0.163581 -9.28428e-20)
(0.672774 -0.155894 -3.13578e-20)
(0.689551 -0.148579 -1.25103e-19)
(0.705467 -0.141624 6.35131e-21)
(0.64181 -0.182138 3.06658e-19)
(0.659827 -0.173553 1.37916e-19)
(0.677041 -0.165414 -4.60377e-20)
(0.6936 -0.157665 1.06134e-19)
(0.709298 -0.150299 1.21388e-19)
(0.646853 -0.192432 -8.76026e-20)
(0.664597 -0.18338 -1.47415e-19)
(0.681553 -0.174799 4.96579e-20)
(0.697881 -0.166623 -2.32209e-19)
(0.713352 -0.158853 -1.87084e-19)
(0.669621 -0.193056 2.16324e-19)
(0.686305 -0.184041 1.2649e-19)
(0.70239 -0.175445 2.14187e-19)
(0.717623 -0.167279 2.086e-19)
(0.674891 -0.202574 -1.40293e-19)
(0.691292 -0.193133 1.47971e-19)
(0.707123 -0.184126 -6.12548e-20)
(0.722108 -0.175569 -1.29799e-19)
(0.680404 -0.211927 -3.5617e-19)
(0.696509 -0.202069 -1.44443e-19)
(0.712076 -0.192658 4.25651e-20)
(0.726803 -0.18372 1.35948e-19)
(0.686154 -0.221108 2.71465e-20)
(0.701952 -0.210843 -2.08892e-19)
(0.717243 -0.201037 -4.81523e-20)
(0.731703 -0.191723 3.20192e-20)
(0.692136 -0.23011 1.20745e-20)
(0.707614 -0.219449 3.22969e-20)
(0.722619 -0.209255 4.174e-19)
(0.736804 -0.199575 -6.73352e-20)
(0.713491 -0.227879 -2.0513e-20)
(0.7282 -0.217308 -1.98682e-20)
(0.742102 -0.207268 -2.9986e-19)
(0.719577 -0.23613 -3.12607e-19)
(0.733979 -0.22519 -8.20637e-20)
(0.747591 -0.214799 2.05906e-19)
(0.725866 -0.244194 5.79713e-19)
(0.739953 -0.232895 -8.46987e-20)
(0.753267 -0.222161 -5.61641e-20)
(0.732353 -0.252068 -2.32014e-19)
(0.746115 -0.240419 -2.02672e-19)
(0.759124 -0.22935 2.24756e-19)
(0.752459 -0.247757 1.06618e-19)
(0.765158 -0.236361 -3.56418e-19)
(0.75898 -0.254904 2.2832e-19)
(0.771363 -0.243189 1.23357e-19)
(0.765673 -0.261856 -3.93778e-20)
(0.777735 -0.24983 1.1003e-19)
(0.772531 -0.26861 1.82407e-20)
(0.784268 -0.256281 -8.6085e-20)
(0.790957 -0.262536 -6.34508e-20)
(0.797797 -0.268594 -1.47728e-19)
(0.804782 -0.274449 4.45096e-21)
(0.999987 0.00213537 0)
(0.999351 0.00631664 0)
(0.998127 0.0104211 0)
(0.996401 0.0144705 0)
(0.994201 0.0185487 0)
(0.991573 0.0227211 0)
(0.988534 0.0270677 0)
(0.985121 0.0316731 0)
(0.981351 0.0366238 0)
(0.977266 0.042016 0)
(0.972886 0.047942 0)
(0.968272 0.0545057 0)
(0.963454 0.0618039 0)
(0.95852 0.0699449 0)
(0.953515 0.0790263 0)
(0.948574 0.0891557 0)
(0.94375 0.100424 0)
(0.93925 0.112929 0)
(0.93512 0.126742 0)
(0.931684 0.141929 0)
(0.928924 0.158535 0)
(0.927384 0.17655 0)
(0.926816 0.196004 0)
(0.928253 0.2167 0)
(0.930755 0.238826 0)
(0.936622 0.261474 0)
(0.942936 0.286334 0)
(0.999988 0.0022012 0)
(0.999381 0.00651709 0)
(0.99821 0.0107485 0)
(0.996558 0.0149292 0)
(0.994457 0.0191397 0)
(0.991949 0.0234484 0)
(0.989059 0.0279345 0)
(0.985825 0.0326817 0)
(0.982268 0.037775 0)
(0.978436 0.0433067 0)
(0.974356 0.0493664 0)
(0.970094 0.0560504 0)
(0.96569 0.0634502 0)
(0.96124 0.0716619 0)
(0.956797 0.080775 0)
(0.952508 0.0908773 0)
(0.94843 0.10205 0)
(0.944786 0.114359 0)
(0.941617 0.127869 0)
(0.939268 0.142592 0)
(0.93769 0.158584 0)
(0.937469 0.175733 0)
(0.938262 0.194156 0)
(0.941205 0.213383 0)
(0.945112 0.234014 0)
(0.952578 0.254177 0)
(0.959943 0.277262 -1.06309e-28)
(0.999989 0.00226725 0)
(0.999412 0.00671762 0)
(0.9983 0.0110778 0)
(0.996731 0.0153914 0)
(0.994738 0.019736 0)
(0.992366 0.0241826 0)
(0.98964 0.0288095 0)
(0.986602 0.0336993 0)
(0.983277 0.0389354 0)
(0.979718 0.044606 0)
(0.975957 0.0507972 0)
(0.972067 0.0575978 0)
(0.968092 0.0650934 0)
(0.964138 0.073367 0)
(0.96026 0.0824995 0)
(0.956615 0.0925577 0)
(0.95326 0.103613 0)
(0.95043 0.115696 0)
(0.948151 0.128866 0)
(0.946787 0.14308 0)
(0.94625 0.158408 0)
(0.947151 0.174628 0)
(0.94907 0.191958 0)
(0.953184 0.209658 0)
(0.958159 0.228714 0)
(0.966628 0.246498 0)
(0.974678 0.267462 0)
(0.999989 0.00233249 0)
(0.999444 0.00691539 0)
(0.998394 0.0114027 0)
(0.996913 0.0158458 0)
(0.995037 0.0203205 0)
(0.99281 0.0248991 0)
(0.99026 0.0296595 0)
(0.987431 0.0346829 0)
(0.984353 0.0400509 0)
(0.981083 0.0458477 0)
(0.977656 0.052156 0)
(0.974153 0.0590568 0)
(0.97062 0.0666299 0)
(0.96717 0.0749458 0)
(0.963861 0.0840768 0)
(0.960855 0.0940706 0)
(0.958208 0.104988 0)
(0.956156 0.11683 0)
(0.954718 0.129651 0)
(0.954254 0.143357 0)
(0.954655 0.158034 0)
(0.95652 0.173371 0)
(0.959395 0.18967 0)
(0.964408 0.205992 0)
(0.970225 0.223583 0)
(0.979267 0.239433 0)
(0.987893 0.258445 0)
(0.999989 0.00239543 0)
(0.999477 0.00710558 0)
(0.998492 0.0117149 0)
(0.997104 0.0162809 0)
(0.995349 0.020878 0)
(0.993274 0.0255797 0)
(0.990908 0.0304629 0)
(0.988298 0.0356068 0)
(0.985477 0.041091 0)
(0.982505 0.0469952 0)
(0.979424 0.0533979 0)
(0.976315 0.0603724 0)
(0.973232 0.0679919 0)
(0.970289 0.0763146 0)
(0.967547 0.0854037 0)
(0.96517 0.0952884 0)
(0.96321 0.106019 0)
(0.961902 0.117571 0)
(0.961254 0.129991 0)
(0.961615 0.143145 0)
(0.962862 0.157133 0)
(0.965555 0.171569 0)
(0.969248 0.186824 0)
(0.974949 0.201828 0)
(0.981432 0.217991 0)
(0.990791 0.232144 0)
(0.999862 0.249342 0)
(0.99999 0.00245558 0)
(0.999511 0.00728669 0)
(0.998593 0.0120118 0)
(0.9973 0.0166934 0)
(0.995671 0.0214051 0)
(0.993753 0.0262203 0)
(0.991577 0.031215 0)
(0.989192 0.0364658 0)
(0.986634 0.04205 0)
(0.983968 0.048042 0)
(0.981237 0.0545158 0)
(0.978527 0.0615365 0)
(0.975893 0.0691701 0)
(0.973454 0.0774626 0)
(0.97127 0.0864676 0)
(0.969502 0.096197 0)
(0.968203 0.106692 0)
(0.967596 0.117901 0)
(0.967685 0.129867 0)
(0.968792 0.14242 0)
(0.970797 0.155674 0)
(0.974194 0.169185 0)
(0.978573 0.183378 0)
(0.984796 0.197101 0)
(0.991785 0.21186 0)
(1.00129 0.224454 0)
(1.01063 0.239912 0)
(0.999991 0.00251271 0)
(0.999546 0.00745821 0)
(0.998696 0.0122926 0)
(0.997501 0.0170824 0)
(0.996001 0.0219003 0)
(0.994243 0.0268192 0)
(0.992261 0.0319137 0)
(0.990105 0.0372578 0)
(0.987815 0.0429254 0)
(0.985457 0.0489858 0)
(0.983077 0.0555077 0)
(0.980765 0.0625479 0)
(0.978577 0.0701649 0)
(0.976631 0.0783926 0)
(0.974989 0.0872755 0)
(0.973807 0.0968084 0)
(0.973134 0.107024 0)
(0.973179 0.117848 0)
(0.973947 0.129321 0)
(0.97572 0.14124 0)
(0.978392 0.153733 0)
(0.98238 0.166317 0)
(0.987323 0.179451 0)
(0.993932 0.191951 0)
(1.00128 0.205356 0)
(1.01081 0.21652 0)
(1.02025 0.230336 0)
(0.999991 0.0025666 0)
(0.999582 0.00761956 0)
(0.998801 0.0125564 0)
(0.997706 0.0174464 0)
(0.996338 0.0223617 0)
(0.994743 0.027374 0)
(0.992957 0.0325563 0)
(0.991033 0.0379792 0)
(0.989012 0.0437135 0)
(0.986961 0.0498225 0)
(0.984932 0.0563698 0)
(0.983012 0.0634034 0)
(0.981261 0.0709744 0)
(0.979794 0.0791049 0)
(0.978673 0.0878307 0)
(0.978046 0.0971311 0)
(0.977961 0.10703 0)
(0.978606 0.117436 0)
(0.979989 0.128385 0)
(0.982351 0.139652 0)
(0.985598 0.151374 0)
(0.990074 0.163044 0)
(0.995467 0.175144 0)
(1.00235 0.186488 0)
(1.00993 0.198608 0)
(1.01937 0.208475 0)
(1.02881 0.220775 0)
(0.999992 0.00261701 0)
(0.999618 0.00777006 0)
(0.998908 0.012802 0)
(0.997915 0.0177839 0)
(0.99668 0.0227872 0)
(0.99525 0.0278821 0)
(0.993662 0.0331395 0)
(0.99197 0.0386267 0)
(0.990217 0.0444105 0)
(0.988473 0.0505485 0)
(0.986789 0.0570985 0)
(0.985253 0.0641001 0)
(0.983927 0.0715971 0)
(0.98292 0.0796002 0)
(0.982295 0.088137 0)
(0.982188 0.0971727 0)
(0.982648 0.106725 0)
(0.983839 0.116685 0)
(0.985771 0.127088 0)
(0.988645 0.137694 0)
(0.99238 0.148644 0)
(0.99725 0.159425 0)
(1.00299 0.170524 0)
(1.01004 0.180784 0)
(1.01776 0.1917 1.17972e-28)
(1.02704 0.200395 -1.23699e-28)
(1.03637 0.211311 0)
(0.999993 0.0026637 0)
(0.999656 0.00790904 0)
(0.999017 0.0130281 0)
(0.998126 0.0180932 0)
(0.997026 0.0231747 0)
(0.995761 0.028341 0)
(0.994372 0.0336607 0)
(0.992911 0.0391972 0)
(0.991426 0.0450134 0)
(0.989983 0.0511609 0)
(0.988638 0.0576916 0)
(0.987475 0.0646368 0)
(0.986558 0.0720333 0)
(0.985989 0.0798809 0)
(0.985832 0.0882 0)
(0.986208 0.0969434 0)
(0.987167 0.106123 0)
(0.988848 0.115617 0)
(0.991264 0.125461 0)
(0.994575 0.135404 0)
(0.998714 0.14559 0)
(1.00389 0.155512 0)
(1.00988 0.165652 0)
(1.01702 0.174902 0)
(1.02478 0.184696 0)
(1.03384 0.192334 0)
(1.043 0.201992 0)
(0.999993 0.00270643 0)
(0.999693 0.00803584 0)
(0.999126 0.0132338 0)
(0.99834 0.0183729 0)
(0.997374 0.0235225 0)
(0.996276 0.0287486 0)
(0.995084 0.0341175 0)
(0.993853 0.0396884 0)
(0.992631 0.04552 0)
(0.991484 0.0516577 0)
(0.990468 0.0581479 0)
(0.989666 0.0650136 0)
(0.989139 0.0722849 0)
(0.988985 0.0799518 0)
(0.989264 0.088028 0)
(0.990085 0.0964558 0)
(0.991495 0.105242 0)
(0.993612 0.114257 0)
(0.996445 0.123533 0)
(1.00012 0.132819 0)
(1.00459 0.142257 0)
(1.00999 0.151356 0)
(1.01615 0.160584 0)
(1.02331 0.168896 0)
(1.03103 0.177654 0)
(1.03983 0.184339 0)
(1.04876 0.192859 0)
(0.999994 0.00274499 0)
(0.999731 0.00814984 0)
(0.999237 0.0134179 0)
(0.998554 0.0186215 0)
(0.997723 0.0238287 0)
(0.996791 0.029103 0)
(0.995795 0.0345079 0)
(0.994792 0.0400982 0)
(0.993828 0.0459284 0)
(0.992969 0.0520379 0)
(0.992272 0.0584672 0)
(0.991815 0.0652319 0)
(0.991659 0.0723553 0)
(0.991892 0.0798191 0)
(0.992575 0.0876307 0)
(0.993801 0.0957244 0)
(0.995614 0.104103 0)
(0.998111 0.112631 0)
(1.0013 0.121338 0)
(1.00528 0.129978 0)
(1.01 0.13869 0)
(1.01556 0.147006 0)
(1.02181 0.155375 0)
(1.02892 0.162819 0)
(1.03655 0.170624 0)
(1.04504 0.176454 0)
(1.05371 0.183947 0)
(0.999995 0.00277917 0)
(0.99977 0.00825048 0)
(0.999347 0.0135796 0)
(0.998768 0.0188379 0)
(0.998072 0.024092 0)
(0.997304 0.0294026 0)
(0.996503 0.0348301 0)
(0.995722 0.0404251 0)
(0.99501 0.0462375 0)
(0.99443 0.0523009 0)
(0.994039 0.0586502 0)
(0.99391 0.0652938 0)
(0.994103 0.0722492 0)
(0.994698 0.0794904 0)
(0.99575 0.0870195 0)
(0.997341 0.0947646 0)
(0.999511 0.102725 0)
(1.00233 0.110763 0)
(1.00582 0.118908 0)
(1.01004 0.126919 0)
(1.01494 0.134932 0)
(1.0206 0.142506 0)
(1.02689 0.15007 0)
(1.0339 0.156715 4.55331e-29)
(1.04138 0.163648 -4.77525e-29)
(1.04954 0.168713 2.4588e-29)
(1.05791 0.175284 -2.57757e-29)
(0.999996 0.00280878 0)
(0.999808 0.00833723 0)
(0.999457 0.0137179 0)
(0.998982 0.0190209 0)
(0.998419 0.024311 0)
(0.997813 0.0296459 0)
(0.997202 0.0350828 0)
(0.996639 0.040668 0)
(0.996172 0.0464468 0)
(0.995861 0.0524471 0)
(0.995762 0.0586985 0)
(0.995944 0.065203 0)
(0.996462 0.0719722 0)
(0.997389 0.0789743 0)
(0.998777 0.0862065 0)
(1.00069 0.093593 0)
(1.00317 0.101129 0)
(1.00627 0.10868 0)
(1.01 0.116272 0)
(1.0144 0.123676 0)
(1.01943 0.131021 0)
(1.02513 0.137898 0)
(1.03139 0.144712 0)
(1.03826 0.150625 0)
(1.04556 0.156763 0)
(1.05338 0.161145 0)
(1.06141 0.16689 0)
(0.999996 0.00283365 0)
(0.999846 0.00840962 0)
(0.999567 0.0138322 0)
(0.999194 0.0191696 0)
(0.998763 0.0244846 0)
(0.998315 0.0298318 0)
(0.997891 0.0352651 0)
(0.99754 0.0408262 0)
(0.997308 0.0465562 0)
(0.997255 0.0524775 0)
(0.997433 0.0586146 0)
(0.997905 0.0649635 0)
(0.998725 0.0715311 0)
(0.999956 0.0782806 0)
(1.00164 0.085205 0)
(1.00385 0.0922265 0)
(1.00659 0.0993383 0)
(1.00992 0.106408 0)
(1.01384 0.113462 0)
(1.01837 0.120282 0)
(1.02348 0.126994 0)
(1.02916 0.133218 0)
(1.03536 0.139337 0)
(1.04205 0.144581 0)
(1.04914 0.149999 0)
(1.05659 0.153773 0)
(1.06429 0.158779 -3.83855e-30)
(0.999997 0.00285362 0)
(0.999883 0.00846724 0)
(0.999675 0.0139217 0)
(0.999403 0.0192831 0)
(0.999101 0.0246119 0)
(0.998809 0.0299595 0)
(0.998566 0.0353763 0)
(0.998419 0.0408997 0)
(0.998414 0.0465665 0)
(0.998605 0.0523938 0)
(0.999044 0.0584015 0)
(0.999787 0.0645806 0)
(1.00088 0.0709335 0)
(1.00239 0.0774196 0)
(1.00435 0.0840286 0)
(1.0068 0.0906826 0)
(1.00976 0.0973725 0)
(1.01328 0.103972 0)
(1.01734 0.110504 0)
(1.02195 0.116768 0)
(1.02709 0.122882 0)
(1.03273 0.128498 0)
(1.03882 0.133976 0)
(1.04531 0.138612 0)
(1.05215 0.143378 0)
(1.05925 0.146613 0)
(1.06659 0.150962 0)
(0.999998 0.00286858 0)
(0.99992 0.00850973 0)
(0.999781 0.0139859 0)
(0.999608 0.0193608 0)
(0.999432 0.0246923 0)
(0.999292 0.0300285 0)
(0.999224 0.0354163 0)
(0.999273 0.0408889 0)
(0.999483 0.0464787 -8.90142e-28)
(0.999906 0.0521984 9.34923e-28)
(1.00059 0.0580633 0)
(1.00158 0.0640602 0)
(1.00293 0.0701875 0)
(1.00468 0.0764023 0)
(1.00687 0.0826917 0)
(1.00953 0.0889786 0)
(1.01269 0.0952528 0)
(1.01634 0.101395 0)
(1.02051 0.107427 0)
(1.02516 0.113163 0)
(1.03029 0.118716 0)
(1.03584 0.123769 0)
(1.04179 0.128658 0)
(1.04807 0.132743 0)
(1.05465 0.136922 0)
(1.06138 0.139679 0)
(1.06837 0.143444 0)
(0.999999 0.0028784 0)
(0.999957 0.00853681 0)
(0.999886 0.0140245 0)
(0.999808 0.0194022 0)
(0.999755 0.0247254 0)
(0.999761 0.0300386 0)
(0.999861 0.0353853 0)
(1.0001 0.0407945 0)
(1.00051 0.0462947 0)
(1.00115 0.0518943 0)
(1.00206 0.0576045 0)
(1.00328 0.0634088 0)
(1.00486 0.0693022 0)
(1.00683 0.0752404 0)
(1.00922 0.0812086 0)
(1.01206 0.0871318 0)
(1.01536 0.0929996 0)
(1.01912 0.0986999 0)
(1.02335 0.104254 0)
(1.02801 0.109492 0)
(1.03309 0.114522 0)
(1.03853 0.119055 0)
(1.04432 0.123406 0)
(1.05036 0.126993 0)
(1.05666 0.130644 0)
(1.06304 0.13298 0)
(1.06968 0.136227 0)
(1 0.00288301 0)
(0.999992 0.0085483 0)
(0.999987 0.014037 0)
(1 0.0194071 0)
(1.00007 0.024711 0)
(1.00021 0.0299899 0)
(1.00048 0.0352838 0)
(1.00089 0.0406179 0)
(1.0015 0.0460167 0)
(1.00234 0.0514851 0)
(1.00345 0.0570304 0)
(1.00488 0.0626336 0)
(1.00666 0.0682869 0)
(1.00882 0.0739457 0)
(1.01138 0.0795938 0)
(1.01436 0.0851595 0)
(1.01778 0.0906323 0)
(1.02161 0.0959085 0)
(1.02586 0.101009 0)
(1.0305 0.10578 0)
(1.03551 0.110323 0)
(1.04082 0.114378 0)
(1.04643 0.118238 0)
(1.05221 0.121377 0)
(1.05824 0.124556 0)
(1.06427 0.126522 0)
(1.07056 0.129312 0)
(1 0.00288237 0)
(1.00003 0.00854405 0)
(1.00009 0.0140234 0)
(1.00019 0.0193753 0)
(1.00037 0.0246492 0)
(1.00065 0.029883 0)
(1.00106 0.0351129 0)
(1.00165 0.0403609 0)
(1.00243 0.0456477 0)
(1.00346 0.0509749 0)
(1.00476 0.0563467 0)
(1.00638 0.0617422 0)
(1.00833 0.0671514 0)
(1.01065 0.0725301 0)
(1.01336 0.0778617 0)
(1.01646 0.0830781 0)
(1.01995 0.0881696 0)
(1.02383 0.093041 0)
(1.02808 0.0977132 0)
(1.03266 0.102047 0)
(1.03757 0.10614 0)
(1.04273 0.109758 0)
(1.04814 0.113173 0)
(1.05368 0.115909 0)
(1.05942 0.118667 0)
(1.06511 0.120307 0)
(1.07106 0.122694 0)
(1 0.00287644 0)
(1.00006 0.00852402 0)
(1.00018 0.0139837 0)
(1.00037 0.0193071 0)
(1.00066 0.0245404 0)
(1.00107 0.0297185 0)
(1.00163 0.0348741 0)
(1.00236 0.0400257 0)
(1.00331 0.0451909 0)
(1.00451 0.0503683 4.50464e-28)
(1.00598 0.0555597 -4.73105e-28)
(1.00776 0.0607426 0)
(1.00987 0.0659058 0)
(1.01233 0.0710059 0)
(1.01515 0.0760264 0)
(1.01833 0.0809037 0)
(1.02188 0.0856291 0)
(1.02577 0.090116 0)
(1.02999 0.0943856 0)
(1.0345 0.0983133 0)
(1.03929 0.101991 0)
(1.04428 0.10521 0)
(1.04949 0.108222 0)
(1.05477 0.110598 0)
(1.06024 0.112981 -7.88698e-30)
(1.06559 0.114338 8.26964e-30)
(1.07121 0.11637 0)
(1 0.00286523 0)
(1.00009 0.00848827 0)
(1.00027 0.0139181 0)
(1.00055 0.0192027 0)
(1.00094 0.0243853 0)
(1.00146 0.0294976 0)
(1.00216 0.034569 0)
(1.00304 0.039615 0)
(1.00414 0.04465 0)
(1.00549 0.0496706 0)
(1.00712 0.054676 0)
(1.00904 0.0596433 0)
(1.01128 0.0645601 0)
(1.01385 0.069385 0)
(1.01676 0.0741018 0)
(1.02 0.0786517 0)
(1.02357 0.0830274 0)
(1.02745 0.0871509 0)
(1.03162 0.0910436 0)
(1.03604 0.0945949 0)
(1.0407 0.097892 0)
(1.04551 0.100748 0)
(1.0505 0.103396 0)
(1.05553 0.105452 0)
(1.06072 0.107502 0)
(1.06576 0.108612 0)
(1.07104 0.110333 0)
(1 0.00284878 0)
(1.00012 0.00843692 0)
(1.00036 0.0138267 0)
(1.00071 0.0190626 0)
(1.0012 0.0241848 0)
(1.00184 0.0292218 0)
(1.00265 0.0341999 0)
(1.00367 0.0391318 0)
(1.00491 0.0440293 0)
(1.0064 0.048887 0)
(1.00816 0.0537026 0)
(1.0102 0.0584527 0)
(1.01256 0.0631247 0)
(1.01521 0.0676793 0)
(1.01819 0.0721011 0)
(1.02147 0.0763367 0)
(1.02504 0.08038 0)
(1.02888 0.0841615 0)
(1.03299 0.0877032 0)
(1.03729 0.090907 0)
(1.0418 0.0938557 0)
(1.04643 0.096383 0)
(1.05121 0.098705 0)
(1.05598 0.100476 0)
(1.0609 0.102232 0)
(1.06563 0.103127 -4.987e-30)
(1.07061 0.104576 5.22777e-30)
(1 0.00282714 0)
(1.00015 0.00837018 0)
(1.00044 0.01371 0)
(1.00086 0.0188877 0)
(1.00144 0.0239401 0)
(1.00219 0.0288928 0)
(1.00312 0.0337692 0)
(1.00425 0.0385796 0)
(1.00562 0.0433332 0)
(1.00723 0.0480235 0)
(1.0091 0.0526466 0)
(1.01126 0.0571796 0)
(1.01369 0.0616097 -5.26574e-28)
(1.01642 0.0659003 5.52947e-28)
(1.01944 0.0700374 0)
(1.02273 0.0739724 0)
(1.02629 0.0777013 0)
(1.03008 0.0811624 0)
(1.03409 0.0843782 0)
(1.03828 0.0872625 0)
(1.04263 0.0898937 0)
(1.04707 0.0921243 0)
(1.05163 0.0941539 0)
(1.05616 0.0956718 -4.76592e-30)
(1.0608 0.0971689 4.99813e-30)
(1.06524 0.0978796 0)
(1.06992 0.0990914 0)
(1 0.00280042 0)
(1.00018 0.00828837 0)
(1.00051 0.0135686 0)
(1.00101 0.0186787 0)
(1.00167 0.0236525 0)
(1.00251 0.0285126 0)
(1.00355 0.0332797 0)
(1.00479 0.037962 0)
(1.00627 0.0425666 0)
(1.00798 0.047086 0)
(1.00996 0.0515153 0)
(1.01219 0.0558325 0)
(1.0147 0.0600252 0)
(1.01747 0.0640594 0)
(1.02051 0.0679228 0)
(1.0238 0.0715719 0)
(1.02732 0.0750045 0)
(1.03104 0.0781666 0)
(1.03496 0.0810812 0)
(1.03901 0.0836726 0)
(1.0432 0.0860154 0)
(1.04745 0.087979 0)
(1.05179 0.0897476 0)
(1.05608 0.0910425 0)
(1.06046 0.0923121 0)
(1.06463 0.0928639 0)
(1.06902 0.0938698 2.05999e-29)
(1 0.00276872 0)
(1.0002 0.00819186 0)
(1.00058 0.0134032 0)
(1.00114 0.0184369 0)
(1.00188 0.0233236 0)
(1.00281 0.0280835 0)
(1.00394 0.0327345 0)
(1.00528 0.037283 0)
(1.00685 0.0417345 0)
(1.00866 0.0460807 0)
(1.01071 0.0503163 0)
(1.01302 0.0544202 0)
(1.01557 0.0583809 0)
(1.01838 0.0621673 0)
(1.02142 0.0657688 0)
(1.02468 0.0691471 0)
(1.02815 0.0723018 0)
(1.0318 0.0751859 0)
(1.0356 0.0778229 0)
(1.03951 0.080147 0)
(1.04354 0.0822287 0)
(1.04759 0.0839528 0)
(1.05172 0.0854891 0)
(1.05577 0.086588 0)
(1.0599 0.0876584 0)
(1.0638 0.0880744 0)
(1.06792 0.0889023 0)
(1 0.00273221 0)
(1.00023 0.00808114 0)
(1.00065 0.0132147 0)
(1.00126 0.0181636 0)
(1.00207 0.0229554 0)
(1.00308 0.027608 0)
(1.00429 0.0321369 0)
(1.00572 0.0365469 0)
(1.00737 0.0408421 0)
(1.00926 0.045014 0)
(1.01138 0.049057 0)
(1.01373 0.0529513 0)
(1.01632 0.0566863 0)
(1.01914 0.0602343 0)
(1.02217 0.0635865 0)
(1.02539 0.0667092 0)
(1.0288 0.0696041 0)
(1.03235 0.0722307 0)
(1.03603 0.0746128 0)
(1.0398 0.0766936 0)
(1.04365 0.0785398 0)
(1.04752 0.0800498 0)
(1.05143 0.0813802 0)
(1.05526 0.0823073 0)
(1.05915 0.083204 0)
(1.0628 0.0835049 0)
(1.06666 0.0841792 0)
(1 0.00269107 0)
(1.00025 0.00795674 0)
(1.00071 0.0130039 0)
(1.00138 0.0178601 0)
(1.00225 0.0225499 0)
(1.00332 0.0270889 0)
(1.00461 0.0314905 0)
(1.00611 0.0357582 0)
(1.00783 0.039895 0)
(1.00978 0.0438924 0)
(1.01195 0.0477448 0)
(1.01434 0.0514341 0)
(1.01694 0.0549508 0)
(1.01975 0.0582704 0)
(1.02276 0.0613859 -4.54677e-28)
(1.02593 0.0642684 4.7738e-28)
(1.02926 0.0669213 0)
(1.03271 0.0693102 0)
(1.03627 0.0714592 0)
(1.03989 0.0733193 0)
(1.04357 0.0749537 0)
(1.04724 0.0762729 0)
(1.05095 0.0774212 0)
(1.05456 0.0781985 0)
(1.05822 0.0789445 0)
(1.06164 0.0791482 0)
(1.06525 0.079691 0)
(1.00001 0.00264549 0)
(1.00027 0.0078193 0)
(1.00076 0.0127721 0)
(1.00147 0.0175282 0)
(1.0024 0.0221094 0)
(1.00354 0.0265291 0)
(1.00489 0.030799 0)
(1.00645 0.0349215 0)
(1.00823 0.0388987 0)
(1.01022 0.0427223 0)
(1.01243 0.0463871 0)
(1.01484 0.0498767 0)
(1.01745 0.0531831 0)
(1.02024 0.0562847 0)
(1.0232 0.0591765 0)
(1.02632 0.0618341 0)
(1.02956 0.0642624 0)
(1.0329 0.0664326 0)
(1.03633 0.0683689 0)
(1.0398 0.0700295 0)
(1.04331 0.0714739 0)
(1.0468 0.0726238 0)
(1.0503 0.0736118 0)
(1.0537 0.0742589 0)
(1.05714 0.0748746 0)
(1.06033 0.0749972 0)
(1.06372 0.0754276 0)
(1.00001 0.0025957 0)
(1.00028 0.00766952 0)
(1.00081 0.0125204 0)
(1.00156 0.0171696 0)
(1.00254 0.0216361 0)
(1.00373 0.0259317 0)
(1.00513 0.0300663 0)
(1.00674 0.0340414 0)
(1.00857 0.0378586 0)
(1.01059 0.0415101 0)
(1.01282 0.0449912 0)
(1.01524 0.0482872 0)
(1.01784 0.0513916 0)
(1.0206 0.0542859 0)
(1.02351 0.0569671 0)
(1.02655 0.0594147 0)
(1.0297 0.0616353 0)
(1.03293 0.0636049 0)
(1.03622 0.0653477 0)
(1.03954 0.0668284 0)
(1.04288 0.0681032 0)
(1.04619 0.0691032 0)
(1.0495 0.0699507 0)
(1.0527 0.0704852 0)
(1.05593 0.0709887 -1.76391e-30)
(1.05891 0.0710442 1.84946e-30)
(1.06208 0.0713795 0)
(1.00001 0.00254195 0)
(1.0003 0.00750816 0)
(1.00085 0.0122502 0)
(1.00164 0.0167861 0)
(1.00266 0.0211327 0)
(1.00389 0.0253 0)
(1.00534 0.0292963 0)
(1.00699 0.0331228 0)
(1.00884 0.0367804 0)
(1.01089 0.0402621 0)
(1.01313 0.0435639 0)