/*--------------------------------*- C++ -*----------------------------------*\
  =========                 |
  \\      /  F ield         | OpenFOAM: The Open Source CFD Toolbox
   \\    /   O peration     | Website:  https://openfoam.org
    \\  /    A nd           | Version:  7
     \\/     M anipulation  |
\*---------------------------------------------------------------------------*/
FoamFile
{
    version     2.0;
    format      ascii;
    class       surfaceScalarField;
    location    "120";
    object      phi;
}
// * * * * * * * * * * * * * * * * * * * * * * * * * * * * * * * * * * * * * //

dimensions      [0 3 -1 0 0 0 0];

internalField   nonuniform List<scalar> 
8899
(
-9.00157e-06
0.000328793
-0.000324492
-1.48838e-05
0.00039591
-0.000390028
-2.23547e-05
0.000452097
-0.000444626
-3.13505e-05
0.00049843
-0.000489435
-4.17544e-05
0.000536372
-0.000525968
-5.34172e-05
0.000567616
-0.000555953
-6.61767e-05
0.000593913
-0.000581153
-7.98756e-05
0.0006169
-0.000603201
-9.43752e-05
0.000637951
-0.000623451
-0.000109563
0.000658063
-0.000642875
-0.000125359
0.000677796
-0.000662001
-0.00014171
0.000697243
-0.000680892
-0.000158592
0.000716038
-0.000699156
-0.000175999
0.000733378
-0.000715971
-0.000193945
0.000748057
-0.000730111
-0.000212456
0.000758471
-0.00073996
0.000762533
-0.000743387
-0.000231602
-6.75367e-06
0.000332206
-1.16102e-05
0.000400766
-1.79497e-05
0.000458436
-2.57313e-05
0.000506212
-3.48494e-05
0.00054549
-4.51538e-05
0.00057792
-5.64703e-05
0.000605229
-6.86192e-05
0.000629049
-8.14298e-05
0.000650761
-9.47503e-05
0.000671384
-0.000108453
0.000691499
-0.000122437
0.000711227
-0.000136624
0.000730224
-0.000150957
0.000747712
-0.000165409
0.000762508
-0.000179978
0.00077304
0.000777274
-0.000194719
-4.47686e-06
0.000334715
-8.27761e-06
0.000404567
-1.34432e-05
0.000463602
-1.99545e-05
0.000512723
-2.77167e-05
0.000553252
-3.65784e-05
0.000586782
-4.63525e-05
0.000615003
-5.68353e-05
0.000639532
-6.78227e-05
0.000661749
-7.91209e-05
0.000682682
-9.05541e-05
0.000702933
-0.000101967
0.00072264
-0.000113228
0.000741485
-0.000124227
0.000758711
-0.000134891
0.000773172
-0.000145194
0.000783343
0.000787251
-0.000155171
-2.18636e-06
0.000336306
-4.90733e-06
0.000407288
-8.86262e-06
0.000467557
-1.40542e-05
0.000517915
-2.03974e-05
0.000559596
-2.77397e-05
0.000594124
-3.58807e-05
0.000623144
-4.45924e-05
0.000648244
-5.3636e-05
0.000670792
-6.27747e-05
0.000691821
-7.17824e-05
0.00071194
-8.04495e-05
0.000731307
-8.85866e-05
0.000749622
-9.60308e-05
0.000766155
-0.000102662
0.000779803
-0.000108432
0.000789114
0.000792171
-0.000113351
1.0377e-07
0.000336971
-1.52209e-06
0.000408914
-4.23808e-06
0.000470273
-8.06775e-06
0.000521744
-1.29371e-05
0.000564465
-1.86921e-05
0.000599879
-2.51196e-05
0.000629572
-3.19672e-05
0.000655091
-3.89615e-05
0.000677787
-4.58222e-05
0.000698681
-5.22726e-05
0.000718391
-5.80471e-05
0.000737081
-6.28988e-05
0.000754473
-6.66094e-05
0.000769866
-6.90106e-05
0.000782204
-7.00413e-05
0.000790145
0.000791815
-6.96862e-05
2.37106e-06
0.000336712
1.85335e-06
0.000409432
3.98807e-07
0.000471728
-2.03573e-06
0.000524179
-5.38507e-06
0.000567814
-9.49472e-06
0.000603989
-1.41394e-05
0.000634217
-1.90432e-05
0.000659995
-2.3899e-05
0.000682642
-2.83832e-05
0.000703166
-3.21687e-05
0.000722176
-3.49341e-05
0.000739847
-3.63746e-05
0.000755914
-3.62159e-05
0.000769707
-3.42353e-05
0.000780223
-3.03718e-05
0.000786281
0.000786128
-2.46841e-05
4.60362e-06
0.000335535
5.1941e-06
0.000408841
5.01281e-06
0.000471909
3.99876e-06
0.000525193
2.20591e-06
0.000569607
-2.11001e-07
0.000606406
-3.01559e-06
0.000637021
-5.91012e-06
0.00066289
-8.55477e-06
0.000685287
-1.05844e-05
0.000705195
-1.16225e-05
0.000723214
-1.12926e-05
0.000739517
-9.23184e-06
0.000753853
-5.11245e-06
0.000765588
1.31968e-06
0.000773791
1.03232e-05
0.000777277
0.000775106
2.1345e-05
6.7816e-06
8.47422e-06
0.000407148
9.57023e-06
0.000470813
9.99098e-06
0.000524772
9.78038e-06
0.000569818
9.0922e-06
0.000607094
8.17216e-06
0.000637941
7.33802e-06
0.000663724
6.95982e-06
0.000685665
7.4422e-06
0.000704713
9.20922e-06
0.000721447
1.26907e-05
0.000736035
1.83071e-05
0.000748237
2.64468e-05
0.000757448
3.74299e-05
0.000762808
5.13871e-05
0.00076332
0.000758232
6.82609e-05
1.16672e-05
0.000404369
1.40346e-05
0.000468445
1.58946e-05
0.000522912
1.7281e-05
0.000568431
1.83455e-05
0.000606029
1.93413e-05
0.000636945
2.06037e-05
0.000662461
2.25301e-05
0.000683739
2.55617e-05
0.000701681
3.01672e-05
0.000716842
3.68277e-05
0.000729375
4.60196e-05
0.000739045
5.81896e-05
0.000745278
7.37061e-05
0.000747291
9.27546e-05
0.000744272
0.000735751
0.000115236
1.47467e-05
0.000400525
1.83697e-05
0.000464822
2.16625e-05
0.000519619
2.46491e-05
0.000565445
2.74779e-05
0.000603201
3.04075e-05
0.000634016
3.37876e-05
0.000659081
3.80397e-05
0.000679487
4.36381e-05
0.000696083
5.10924e-05
0.000709387
6.09318e-05
0.000719535
7.36868e-05
0.00072629
8.98615e-05
0.000729103
0.000109881
0.000727272
0.000133967
0.000720185
0.000707728
0.000161989
1.76866e-05
0.00039565
2.25395e-05
0.00045997
2.72478e-05
0.000514911
3.18257e-05
0.000560867
3.64177e-05
0.000598609
4.12853e-05
0.000629148
4.67896e-05
0.000653577
5.33723e-05
0.000672904
6.15363e-05
0.000687919
7.18281e-05
0.000699095
8.48214e-05
0.000706542
0.000101098
0.000710014
0.000121217
0.000708984
0.000145663
0.000702826
0.000174698
0.000691151
0.00067427
0.000208157
2.04619e-05
0.000389784
2.65086e-05
0.000453923
3.26038e-05
0.000508816
3.87525e-05
0.000554718
4.50938e-05
0.000592267
5.189e-05
0.000622352
5.95105e-05
0.000645956
6.84129e-05
0.000664002
7.91242e-05
0.000677208
9.22229e-05
0.000685997
0.000108323
0.000690443
0.000128052
0.000690284
0.000152027
0.000685009
0.00018079
0.000674063
0.00021465
0.00065729
0.000635512
0.000253408
2.30484e-05
0.000382978
3.02433e-05
0.000446728
3.76856e-05
0.000501374
4.53721e-05
0.000547032
5.34361e-05
0.000584203
6.21384e-05
0.00061365
7.18532e-05
0.000636242
8.30498e-05
0.000652805
9.62743e-05
0.000663983
0.000112132
0.000670139
0.000131272
0.000671303
0.000154365
0.000667191
0.000182081
0.000657293
0.000215024
0.00064112
0.000253558
0.000618757
0.000591612
0.000297458
2.54237e-05
0.000375288
3.37112e-05
0.00043844
4.245e-05
0.000492635
5.16297e-05
0.000537852
6.13772e-05
0.000574456
7.19502e-05
0.000603077
8.37241e-05
0.000624468
9.71758e-05
0.000639353
0.000112866
0.000648293
0.00013142
0.000651584
0.000153518
0.000649206
0.000179869
0.000640839
0.000211194
0.000625968
0.000248161
0.000604153
0.000291196
0.000575722
0.000542739
0.000340069
2.75675e-05
0.000366781
3.68827e-05
0.000429125
4.68568e-05
0.000482661
5.74735e-05
0.000527235
6.88533e-05
0.000563076
8.12489e-05
0.000590681
9.50344e-05
0.000610682
0.00011069
0.000623698
0.000128786
0.000630198
0.000149964
0.000630406
0.000174926
0.000624244
0.000204418
0.000611347
0.000239208
0.000591178
0.00028003
0.000563331
0.000327387
0.000528365
0.000489063
0.000381063
2.94614e-05
3.97311e-05
0.000418855
5.08692e-05
0.000471523
6.28556e-05
0.000515249
7.58049e-05
0.000550127
8.99636e-05
0.000576522
0.000105702
0.000594944
0.0001235
0.0006059
0.000143931
0.000609766
0.00016765
0.000606687
0.000195377
0.000596517
0.000227888
0.000578837
0.000265994
0.000553072
0.000310503
0.000518822
0.000362002
0.000476865
0.000430744
0.000420322
4.22329e-05
0.000407713
5.44546e-05
0.000459301
6.77335e-05
0.00050197
8.21786e-05
0.000535682
9.80299e-05
0.000560671
0.000115652
0.000577322
0.00013552
0.000586031
0.000158211
0.000587075
0.000184384
0.000580514
0.000214774
0.000566127
0.00025018
0.00054343
0.000291461
0.000511791
0.000339492
0.000470791
0.000394967
0.000421391
0.000367914
0.000457796
4.43687e-05
0.000395784
5.75854e-05
0.000446084
7.20701e-05
0.000487485
8.79277e-05
0.000519824
0.000105392
0.000543207
0.000124819
0.000557895
0.00014668
0.00056417
0.000171549
0.000562207
0.000200087
0.000551976
0.000233038
0.000533175
0.000271226
0.000505243
0.000315548
0.00046747
0.000366958
0.000419381
0.000426265
0.000362084
0.000300671
0.000493508
4.61237e-05
0.000383165
6.02398e-05
0.000431968
7.58356e-05
0.00047189
9.30141e-05
0.000502645
0.000112002
0.000524219
0.00013315
0.000536747
0.000156921
0.000540399
0.000183883
0.000535245
0.000214698
0.00052116
0.000250119
0.000497755
0.000290987
0.000464375
0.00033824
0.000420217
0.000392912
0.000364709
0.000455943
0.000299053
0.000229058
0.000527555
4.7488e-05
6.24024e-05
0.000417054
7.90084e-05
0.000455283
9.74092e-05
0.000484245
0.000117827
0.000503801
0.000140605
0.00051397
0.000166199
0.000514805
0.000195171
0.000506273
0.000228183
0.000488148
0.000265993
0.000459945
0.00030946
0.000420908
0.000359563
0.000370114
0.000417419
0.000306853
0.000484113
0.000232359
0.000153057
0.000560114
6.40652e-05
0.000401446
8.1576e-05
0.000437773
0.000101096
0.000464725
0.000122845
0.000482052
0.00014716
0.000489655
0.00017449
0.000487475
0.000205395
0.000475368
0.000240533
0.000453009
0.00028067
0.000419808
0.000326684
0.000374894
0.000379594
0.000317204
0.000440605
0.000245841
0.00051096
0.000162005
7.25768e-05
0.00059144
6.52286e-05
0.000385251
8.35364e-05
0.000419465
0.00010407
0.000444191
0.000127049
0.000459072
0.000152809
0.000463896
0.000181794
0.000458489
0.000214561
0.000442602
0.000251771
0.000415799
0.000294198
0.000377381
0.000342743
0.000326349
0.000398467
0.000261481
0.000462667
0.000181641
0.000536746
8.79254e-05
-1.25529e-05
0.000621876
6.59019e-05
0.000368576
8.48994e-05
0.000400467
0.000106341
0.000422749
0.000130453
0.00043496
0.000157569
0.00043678
0.000188135
0.000427923
0.000222708
0.000408028
0.000261958
0.000376549
0.000306672
0.000332667
0.000357777
0.000275244
0.00041638
0.000202877
0.000483872
0.000114149
0.000561819
9.97878e-06
-0.000102581
0.000651847
6.61048e-05
8.56881e-05
0.000380884
0.000107938
0.000400499
0.00013309
0.000409809
0.000161482
0.000408387
0.000193569
0.000395837
0.000229913
0.000371684
0.000271199
0.000335264
0.000318236
0.00028563
0.000371986
0.000221495
0.000433605
0.000141258
0.000504572
4.3181e-05
0.000586612
-7.20607e-05
-0.000197826
0.000681858
8.59401e-05
0.000360812
0.000108906
0.000377533
0.000135015
0.0003837
0.000164619
0.000378782
0.000198185
0.000362272
0.000236292
0.000333576
0.000279649
0.000291907
0.000329096
0.000236183
0.000385638
0.000164953
0.000450486
7.64097e-05
0.000525203
-3.15354e-05
0.000611645
-0.000158503
-0.000298669
0.000712488
8.57085e-05
0.000340337
0.00010931
0.000353932
0.00013631
0.0003567
0.000167082
0.000348011
0.000202112
0.000327242
0.00024201
0.000293678
0.000287516
0.000246401
0.000339519
0.00018418
0.000399074
0.000105397
0.00046745
8.03384e-06
0.000546278
-0.000110364
0.000637517
-0.000249742
-0.000405519
0.000744367
8.50635e-05
0.00010924
0.000329755
0.000137086
0.000328854
0.000169006
0.000316091
0.00020552
0.000290728
0.000247278
0.000251921
0.000295068
0.00019861
0.000349836
0.000129412
0.000412702
4.25317e-05
0.000484992
-6.42561e-05
0.000568381
-0.000193753
0.000664885
-0.000346246
-0.000518782
0.000778148
0.000108804
0.000305044
0.00013748
0.000300178
0.000170564
0.000283006
0.000208622
0.000252669
0.000252359
0.000208185
0.000302626
0.000148343
0.000360441
7.15978e-05
0.000426993
-2.40208e-05
0.000503664
-0.000140927
0.000592136
-0.000282225
0.000694424
-0.000448535
-0.000638811
0.000814453
0.000108136
0.000279808
0.000137657
0.000270657
0.00017196
0.000248703
0.000211672
0.000212958
0.000257564
0.000162293
0.000310567
9.53395e-05
0.000371779
1.03856e-05
0.000442466
-9.47076e-05
0.000524052
-0.000222513
0.000618173
-0.000376346
0.000726786
-0.000557147
-0.000765846
0.000853821
0.00010739
0.000137812
0.000240235
0.000173435
0.00021308
0.000214961
0.000171432
0.000263243
0.00011401
0.000319304
3.92788e-05
0.00038433
-5.46405e-05
0.000459657
-0.000170035
0.000546733
-0.000309589
0.000647079
-0.000476693
0.000762534
-0.000672601
-0.000899968
0.000896655
0.00013816
0.000208814
0.000175254
0.000175985
0.00021881
0.000127876
0.000269778
6.30421e-05
0.000329278
-2.02215e-05
0.000398587
-0.000123949
0.000479094
-0.000250542
0.00057224
-0.000402734
0.000679342
-0.000583795
0.000802076
-0.000795335
-0.00104102
0.000943132
0.000138935
0.000177702
0.000137219
0.000223559
8.20194e-05
0.000277562
9.03898e-06
0.000340932
-8.35913e-05
0.000415023
-0.000198041
0.000501254
-0.000336773
0.000601008
-0.000502488
0.000715298
-0.000698086
0.000845602
-0.000925639
-0.00118858
0.000993159
0.000181072
9.65293e-05
0.000229551
3.35412e-05
0.000286982
-4.83923e-05
0.000354681
-0.000151291
0.000434062
-0.000277421
0.000526524
-0.000429235
0.000633331
-0.000609295
0.000755085
-0.00081984
0.000893039
-0.00106359
-0.0013418
0.00104626
0.000185655
5.36216e-05
0.000237114
-1.79186e-05
0.000298396
-0.000109674
0.000370892
-0.000223787
0.000456037
-0.000362567
0.000555161
-0.000528359
0.000669325
-0.000723459
0.000798614
-0.000949129
0.000944014
-0.00120899
-0.00149958
0.00110179
0.000191718
0.000246547
-7.27467e-05
0.000312108
-0.000175235
0.000389845
-0.000301524
0.000481168
-0.00045389
0.000587263
-0.000634454
0.000708899
-0.000845095
0.000845569
-0.0010858
0.000997907
-0.00136133
-0.00166036
0.00115869
0.000258092
-0.000131338
0.000328346
-0.000245489
0.000411716
-0.000384893
0.000509526
-0.000551701
0.000622743
-0.000747671
0.000751742
-0.000974094
0.000895404
-0.00122946
0.00105385
-0.00151978
-0.00182196
0.00121545
0.000271928
0.000347246
-0.000320806
0.000436554
-0.000474201
0.000541025
-0.000656172
0.000661326
-0.000867973
0.000797332
-0.0011101
0.000947363
-0.00137949
0.00111077
-0.00168319
-0.00198288
0.0012717
0.000368835
-0.000401489
0.000464274
-0.000569641
0.000575414
-0.000767311
0.000702553
-0.000995112
0.000844988
-0.00125254
0.00100058
-0.00153509
0.00116723
-0.00184983
-0.00214136
0.00132571
0.00039303
0.000494652
-0.000671263
0.000612279
-0.000884938
0.000745783
-0.00112862
0.000893895
-0.00140065
0.00105427
-0.00169546
0.00122211
-0.00201767
-0.00229568
0.00137643
0.000527336
-0.000778961
0.00065106
-0.00100866
0.000790199
-0.00126775
0.000942982
-0.00155343
0.00110729
-0.00185978
0.00127578
-0.00218616
-0.00244217
0.00142227
0.000561872
0.000691098
-0.00113789
0.000834881
-0.00141154
0.000990899
-0.00170945
0.00115678
-0.00202566
0.00132671
-0.00235608
-0.00264969
0.00153422
0.000731672
0.000878911
-0.00155878
0.00103654
-0.00186708
0.00120155
-0.00219067
0.00136818
-0.00252271
-0.00283288
0.00155137
0.000921455
-0.00170817
0.00107901
-0.00202463
0.00124088
-0.00235254
0.0014014
-0.00268323
-0.0029979
0.00156642
0.000961772
0.00111768
-0.00218055
0.00127481
-0.00250967
0.00142776
-0.00283618
-0.00314806
0.00157792
0.00115207
0.00130323
-0.00266083
0.00144769
-0.00298063
-0.00328522
0.00158485
0.00132604
-0.00280509
0.0014615
-0.00311609
-0.00341059
0.00158687
0.00134323
0.00146946
-0.00324232
-0.00352506
0.00158393
0.00147186
-0.00362938
0.00157618
0.00156392
0.00305796
0.00143048
0.00129306
0.00267016
0.0029323
0.00141873
0.00112801
0.00225822
0.00126622
0.00253195
0.00279762
0.00140089
0.00108873
0.0021152
0.00123304
0.00238764
0.00265367
0.00137699
0.000898489
0.00170608
0.00104384
0.00196985
0.00119347
0.002238
0.00249991
0.00134724
0.000710913
0.00132877
0.000847103
0.00156989
0.000993453
0.0018235
0.00114743
0.00208403
0.00233519
0.00131214
0.00065867
0.0012088
0.000791838
0.00143673
0.000937632
0.00167771
0.00109464
0.00192702
0.00215732
0.00127251
0.000489866
0.000897525
0.00060431
0.00109435
0.000732981
0.00130805
0.000876223
0.00153447
0.00103447
0.00176877
0.00196229
0.0012295
0.000346841
0.000640637
0.000440296
0.00080407
0.000548247
0.000986401
0.000670868
0.00118543
0.000808703
0.00139663
0.000963492
0.00161398
0.00174113
0.00118465
0.000303965
0.000567904
0.000390352
0.000717683
0.000490996
0.000885757
0.000606145
0.00107028
0.000735894
0.00126689
0.000876927
0.00147295
0.00161762
0.00100043
0.000195521
0.000383168
0.000261439
0.000501986
0.000340445
0.000638677
0.000433219
0.000792983
0.000539956
0.000963547
0.000660054
0.00114679
0.000791738
0.00134127
0.00149201
0.000917356
0.000160471
0.000335479
0.000219528
0.000442929
0.000290989
0.000567217
0.000375604
0.000708367
0.000473654
0.000865498
0.00058461
0.00103583
0.000708705
0.00121717
0.00136859
0.000832119
8.46219e-05
0.000211964
0.000126261
0.00029384
0.000178494
0.000390697
0.000242378
0.000503333
0.00031874
0.000632005
0.000408041
0.000776196
0.000510115
0.000933757
0.000625996
0.00110129
0.00124825
0.000746342
5.73474e-05
0.000184878
9.30769e-05
0.00025811
0.000138598
0.000345175
0.000194978
0.000446952
0.000263118
0.000563866
0.00034367
0.000695643
0.000436894
0.000840534
0.000544208
0.000993977
0.00113187
0.000660582
8.96653e-06
0.00010897
3.10992e-05
0.000162745
6.11071e-05
0.000228102
0.000100099
0.000306184
0.00014914
0.000397911
0.000209198
0.000503808
0.000281113
0.000623728
0.000365585
0.000756062
0.000464341
0.000895221
0.00102059
0.000575622
-1.13758e-05
9.7657e-05
6.0216e-06
0.000145348
3.05438e-05
0.00020358
6.32527e-05
0.000273475
0.000105207
0.000355957
0.000157435
0.000451579
0.00022096
0.000560203
0.0002969
0.000680122
0.00038724
0.000804882
0.000915411
0.000492421
-3.81394e-05
5.63297e-05
-3.06561e-05
9.01737e-05
-1.77424e-05
0.000132434
1.57432e-06
0.000184263
2.83102e-05
0.000246739
6.35116e-05
0.000320756
0.000108267
0.000406824
0.000163769
0.000504701
0.000231499
0.000612392
0.000313627
0.000722754
0.000817125
0.000411913
-5.26676e-05
5.63928e-05
-4.87704e-05
8.62766e-05
-4.00582e-05
0.000123722
-2.56223e-05
0.000169827
-4.49542e-06
0.000225612
2.43619e-05
0.000291899
6.20915e-05
0.000369095
0.000110039
0.000456753
0.000169966
0.000552464
0.000244127
0.000648593
0.000726344
0.000334908
-6.61995e-05
5.92759e-05
-6.56261e-05
8.57032e-05
-6.08071e-05
0.000118903
-5.0894e-05
0.000159914
-3.4961e-05
0.000209679
-1.19778e-05
0.000268915
1.92462e-05
0.000337871
6.01798e-05
0.00041582
0.000112773
0.000499871
0.000179236
0.00058213
0.000643532
0.000262048
-7.32034e-05
4.63461e-05
-7.86745e-05
6.4747e-05
-8.11479e-05
8.81766e-05
-7.98939e-05
0.000117649
-7.4117e-05
0.000154137
-6.29287e-05
0.000198491
-4.5305e-05
0.000251292
-2.00176e-05
0.000312583
1.44884e-05
0.000381314
6.02383e-05
0.000454121
0.000119305
0.000523064
0.00056906
0.000193777
-8.22279e-05
5.6118e-05
-9.00479e-05
7.2567e-05
-9.52821e-05
9.34108e-05
-9.72527e-05
0.000119619
-9.52099e-05
0.000152095
-8.82965e-05
0.000191577
-7.54956e-05
0.000238491
-5.55554e-05
0.000292643
-2.69011e-05
0.000352659
1.23621e-05
0.000414858
6.45965e-05
0.000470829
0.000503323
0.000130333
-9.03655e-05
6.76781e-05
-0.000100294
8.24951e-05
-0.000108
0.000101118
-0.000112852
0.000124471
-0.000114138
0.000153381
-0.000111028
0.000188467
-0.000102514
0.000229977
-8.73414e-05
0.00027747
-6.39437e-05
0.000329262
-3.03666e-05
0.000381281
1.58442e-05
0.000424619
0.000447443
7.17242e-05
-8.44565e-05
6.96818e-05
-9.7606e-05
8.08276e-05
-0.000109405
9.42938e-05
-0.000119301
0.000111014
-0.000126698
0.000131869
-0.000130918
0.0001576
-0.000131155
0.000188703
-0.000126417
0.00022524
-0.000115471
0.000266524
-9.68027e-05
0.000310594
-6.86542e-05
0.000353133
-2.97135e-05
0.000385678
0.000400661
1.70688e-05
-8.94083e-05
8.48273e-05
-0.000103954
9.53734e-05
-0.000117394
0.000107734
-0.000129208
0.000122828
-0.000138831
0.000141492
-0.000145613
0.000164382
-0.000148772
0.000191863
-0.000147345
0.000223812
-0.000140139
0.000259317
-0.000125738
0.000296193
-0.000102665
0.00033006
-7.03015e-05
0.000353314
0.000359941
-2.95819e-05
-9.36693e-05
0.000100997
-0.000109427
0.000111131
-0.000124292
0.000122599
-0.00013777
0.000136307
-0.000149324
0.000153045
-0.000158329
0.000173387
-0.000164032
0.000197566
-0.000165507
0.000225287
-0.000161626
0.000255436
-0.000151098
0.000285665
-0.000132695
0.000311658
-0.000106036
0.000326655
0.000325345
-7.14398e-05
-8.02118e-05
0.000108079
-9.72572e-05
0.000118042
-0.000114054
0.000127928
-0.000130144
0.000138688
-0.000145055
0.000151218
-0.000158274
0.000166264
-0.000169204
0.000184317
-0.000177126
0.000205488
-0.000181163
0.000229324
-0.000180273
0.000254546
-0.000173314
0.000278706
-0.000159309
0.000297652
-0.000138116
0.000305462
0.000297513
-0.000110285
-8.24145e-05
0.000125506
-0.000100197
0.000135824
-0.000117874
0.000145606
-0.000135006
0.00015582
-0.000151144
0.000167356
-0.000165798
0.000180917
-0.0001784
0.000196919
-0.000188272
0.000215361
-0.0001946
0.000235652
-0.000196448
0.000256393
-0.000192842
0.000275101
-0.000183055
0.000287865
-0.000167177
0.000289583
0.000276375
-0.000146038
-8.4127e-05
0.000143429
-0.000102517
0.000154215
-0.000120931
0.000164019
-0.000138945
0.000173834
-0.00015613
0.000184541
-0.000172021
0.000196809
-0.000186086
0.000210984
-0.000197695
0.000226969
-0.000206109
0.000244066
-0.00021051
0.000260795
-0.000210106
0.000274698
-0.000204404
0.000282162
-0.000193682
0.000278861
0.000261657
-0.000178964
-8.53715e-05
0.000161741
-0.000104253
0.000173096
-0.000123273
0.00018304
-0.000142026
0.000192587
-0.000160105
0.000202619
-0.000177071
0.000213775
-0.000192431
0.000226344
-0.000205611
0.00024015
-0.00021596
0.000254415
-0.000222785
0.00026762
-0.000225475
0.000277387
-0.000223742
0.00028043
-0.000218006
0.000273125
0.000253015
-0.000209364
-6.75675e-05
0.000165425
-8.61719e-05
0.000180346
-0.000105438
0.000192362
-0.00012495
0.000202552
-0.000144319
0.000211956
-0.00016316
0.000221461
-0.000181068
0.000231683
-0.00019759
0.000242867
-0.000212218
0.000254778
-0.000224392
0.000266588
-0.00023355
0.000276779
-0.000239248
0.000283085
-0.000241375
0.000282557
-0.000240438
0.000272188
0.000250083
-0.000237506
-6.77464e-05
0.000183036
-8.65521e-05
0.000199151
-0.000106105
0.000211915
-0.000126006
0.000222453
-0.000145885
0.000231835
-0.00016538
0.000240956
-0.00018412
0.000250422
-0.000201701
0.000260448
-0.000217682
0.000270758
-0.000231599
0.000280505
-0.000243019
0.000288199
-0.000251648
0.000291714
-0.000257518
0.000288426
-0.000261176
0.000275846
0.0002525
-0.000263592
-6.76116e-05
0.000200698
-8.6535e-05
0.000218075
-0.000106288
0.000231668
-0.000126487
0.000242652
-0.000146782
0.000252129
-0.000166838
0.000261012
-0.000186319
0.000269904
-0.000204874
0.000279002
-0.000222132
0.000288017
-0.000237726
0.000296099
-0.000251343
0.000301815
-0.000262821
0.000303193
-0.000272299
0.000297904
-0.000280328
0.000283876
0.000259917
-0.000287746
-6.71786e-05
0.000218336
-8.61418e-05
0.000237038
-0.000106014
0.00025154
-0.000126428
0.000263066
-0.000147056
0.000272757
-0.000167591
0.000281547
-0.000187736
0.000290049
-0.000207192
0.000298459
-0.000225661
0.000306486
-0.000242868
0.000313305
-0.000258609
0.000317556
-0.000272836
0.00031742
-0.000285763
0.000310831
-0.000297922
0.000296034
0.000271996
-0.00031
-4.89163e-05
0.00020997
-6.64609e-05
0.00023588
-8.53908e-05
0.000255968
-0.000105307
0.000271456
-0.00012586
0.00028362
-0.000146746
0.000293642
-0.000167686
0.000302487
-0.000188423
0.000310786
-0.000208711
0.000318747
-0.000228323
0.000326098
-0.00024707
0.000332052
-0.000264846
0.000335332
-0.000281696
0.00033427
-0.000297883
0.000327018
-0.000313904
0.000312056
0.000288397
-0.000330306
-4.80862e-05
0.000225476
-6.54708e-05
0.000253265
-8.42977e-05
0.000274795
-0.000104186
0.000291345
-0.000124807
0.000304241
-0.000145878
0.000314713
-0.000167151
0.000323761
-0.000188409
0.000332043
-0.000209458
0.000339796
-0.000230137
0.000346776
-0.000250335
0.00035225
-0.000270032
0.00035503
-0.000289345
0.000353583
-0.00030857
0.000346243
-0.00032816
0.000331645
0.000308772
-0.000348534
-4.70581e-05
0.000240723
-6.42181e-05
0.000270425
-8.28748e-05
0.000293451
-0.000102667
0.000311137
-0.000123285
0.000324859
-0.00014447
0.000335898
-0.000166004
0.000345295
-0.000187708
0.000353747
-0.000209437
0.000361525
-0.000231091
0.00036843
-0.000252629
0.000373789
-0.000274103
0.000376504
-0.000295685
0.000375165
-0.000317688
0.000368245
-0.000340518
0.000354476
0.000332748
-0.000364495
-4.58385e-05
0.000255655
-6.27111e-05
0.000287298
-8.11314e-05
0.000311872
-0.000100758
0.000330763
-0.000121303
0.000345404
-0.000142529
0.000357124
-0.000164248
0.000367013
-0.000186314
0.000375813
-0.00020863
0.000383841
-0.000231149
0.000390949
-0.000253892
0.000396531
-0.000276964
0.000399577
-0.000300582
0.000398782
-0.000325063
0.000392727
-0.000350773
0.000380185
0.000359924
-0.000377949
-4.4433e-05
0.000270214
-6.09561e-05
0.000303821
-7.90743e-05
0.00032999
-9.84671e-05
0.000350156
-0.000118866
0.000365803
-0.000140056
0.000378314
-0.000161875
0.000388832
-0.000184211
0.000398149
-0.000207006
0.000406636
-0.000230259
0.000414202
-0.000254039
0.000420311
-0.000278499
0.000424037
-0.000303882
0.000424165
-0.000330505
0.00041935
-0.000358694
0.000408374
0.00038986
-0.00038863
-4.28464e-05
0.000284344
-5.89582e-05
0.000319932
-7.67078e-05
0.00034774
-9.57957e-05
0.000369244
-0.000115973
0.000385981
-0.000137045
0.000399386
-0.000158873
0.000410659
-0.000181373
0.000420649
-0.00020452
0.000429783
-0.000228352
0.000438035
-0.000252978
0.000444937
-0.000278581
0.00044964
-0.000305423
0.000451006
-0.000333814
0.000447741
-0.000364045
0.000438606
0.000422073
-0.000396259
-4.1083e-05
0.000297989
-5.67213e-05
0.000335571
-7.40347e-05
0.000365053
-9.27446e-05
0.000387954
-0.000112621
0.000405857
-0.000133486
0.000420251
-0.000155221
0.000432394
-0.000177766
0.000443194
-0.000201123
0.00045314
-0.000225359
0.000462271
-0.000250609
0.000470187
-0.000277081
0.000476112
-0.000305043
0.000478968
-0.000334793
0.000477492
-0.000366595
0.000470408
0.000456045
-0.000400567
-3.91464e-05
0.000311094
-5.42489e-05
0.000350673
-7.10571e-05
0.000381861
-8.93129e-05
0.00040621
-0.000108803
0.000425347
-0.000129365
0.000440814
-0.000150897
0.000453926
-0.000173356
0.000465653
-0.000196764
0.000476548
-0.000221206
0.000486713
-0.000246839
0.00049582
-0.000273878
0.000503152
-0.000302592
0.000507681
-0.000333265
0.000508166
-0.000366135
0.000503278
0.000491216
-0.000401307
-2.45315e-05
0.00027204
-3.70408e-05
0.000323603
-5.15443e-05
0.000365177
-6.77765e-05
0.000398093
-8.54992e-05
0.000423933
-0.000104514
0.000444361
-0.000124672
0.000460972
-0.000145881
0.000475135
-0.00016811
0.000487883
-0.000191394
0.000499831
-0.000215829
0.000511149
-0.000241579
0.00052157
-0.000268863
0.000530435
-0.000297939
0.000536758
-0.000329076
0.000539302
-0.000362486
0.000536688
0.000526999
-0.00039827
-2.29114e-05
0.000281674
-3.47706e-05
0.000335463
-4.86116e-05
0.000379018
-6.41955e-05
0.000413677
-8.13031e-05
0.00044104
-9.97489e-05
0.000462807
-0.000119393
0.000480616
-0.000140152
0.000495893
-0.000161998
0.00050973
-0.000184971
0.000522804
-0.000209171
0.000535349
-0.000234759
0.000547158
-0.000261947
0.000557623
-0.000290979
0.00056579
-0.000322103
0.000570426
-0.000355509
0.000570094
0.000562786
-0.000391296
-2.1186e-05
0.000290661
-3.23409e-05
0.000346617
-4.54557e-05
0.000392132
-6.03178e-05
0.000428539
-7.67259e-05
0.000457448
-9.45056e-05
0.000480587
-0.000113523
0.000499634
-0.000133696
0.000516066
-0.000154998
0.000531031
-0.000177464
0.00054527
-0.000201189
0.000559074
-0.000226324
0.000572293
-0.000253066
0.000584365
-0.000281639
0.000594363
-0.000312264
0.000601051
-0.000345112
0.000602942
0.000597955
-0.000380281
-1.93607e-05
0.00029896
-2.97581e-05
0.000357015
-4.2083e-05
0.000404457
-5.6149e-05
0.000442605
-7.17715e-05
0.000473071
-8.8785e-05
0.0004976
-0.000107058
0.000517907
-0.000126506
0.000535514
-0.000147095
0.000551621
-0.000168852
0.000567026
-0.000191856
0.000582079
-0.000216243
0.000596679
-0.000242184
0.000610306
-0.000269878
0.000622057
-0.000299519
0.000630692
-0.000331256
0.000634679
0.000631885
-0.000365186
-1.74418e-05
0.000306529
-2.703e-05
0.000366603
-3.85022e-05
0.00041593
-5.16976e-05
0.000455801
-6.64473e-05
0.00048782
-8.25927e-05
0.000513746
-0.000100002
0.000535316
-0.000118581
0.000554093
-0.000138288
0.000571327
-0.000159129
0.000587868
-0.000181166
0.000604116
-0.000204506
0.000620019
-0.000229294
0.000635094
-0.000255695
0.000648459
-0.000283873
0.000658871
-0.000313955
0.00066476
0.000663966
-0.000346036
-1.54369e-05
0.00031333
-2.4166e-05
0.000375332
-3.47239e-05
0.000426488
-4.6975e-05
0.000468052
-6.07649e-05
0.00050161
-7.59395e-05
0.00052892
-9.2363e-05
0.00055174
-0.000109932
0.000571662
-0.000128584
0.00058998
-0.000148305
0.000607589
-0.000169128
0.000624939
-0.00019113
0.00064202
-0.000214419
0.000658383
-0.000239125
0.000673164
-0.000265377
0.000685123
-0.000293277
0.000692661
0.000693609
-0.00032292
-1.33547e-05
0.000319329
-2.11775e-05
0.000383155
-3.07617e-05
0.000436072
-4.19962e-05
0.000479286
-5.47401e-05
0.000514354
-6.88424e-05
0.000543023
-8.41605e-05
0.000567058
-0.000100576
0.000588077
-0.000118005
0.000607409
-0.000136405
0.000625989
-0.000155777
0.00064431
-0.000176157
0.000662401
-0.000197615
0.000679842
-0.00022024
0.000695789
-0.000244124
0.000709007
-0.000269345
0.000717882
0.000720255
-0.000295992
-1.12054e-05
-1.80779e-05
-2.66318e-05
-3.678e-05
-4.83941e-05
-6.13245e-05
-7.54199e-05
-9.05435e-05
-0.000106586
-0.000123472
-0.000141162
-0.000159653
-0.000178968
-0.00019915
-0.000220254
-0.000242332
-0.000265464
-0.000266457
0.0021846
-0.00214974
-0.000269754
0.00148306
-0.00147976
-0.00025479
0.000353234
-0.000368198
-0.000213763
-0.00129772
0.00125669
-0.000152361
-0.00329507
0.00323367
-7.45653e-05
-0.00533088
0.00525308
8.83796e-07
-0.00704508
0.00696963
5.05664e-05
-0.00823
0.00818032
7.28787e-05
-0.00895792
0.00893561
-0.00925991
0.00923626
-0.000222754
0.00221263
-0.000222013
0.00148232
-0.000205749
0.00033697
-0.000167722
-0.00133575
-0.000111692
-0.0033511
-4.04147e-05
-0.00540216
2.75005e-05
-0.007113
7.00037e-05
-0.0082725
8.14341e-05
-0.00896935
-0.00926692
-0.000176081
0.00223354
-0.000171411
0.00147765
-0.000154058
0.000319616
-0.000119293
-0.00137051
-6.87273e-05
-0.00340166
-3.57077e-06
-0.00546731
5.66415e-05
-0.00717321
9.20191e-05
-0.00830788
9.35457e-05
-0.00897088
-0.0092583
-0.000126871
0.00224706
-0.000118412
0.00146919
-0.000100121
0.000301325
-6.87735e-05
-0.00140186
-2.35048e-05
-0.00344693
3.40058e-05
-0.00552482
8.77493e-05
-0.00722695
0.000116334
-0.00833646
0.000108941
-0.00896349
-0.00923527
-7.55459e-05
0.00225292
-6.348e-05
0.00145712
-4.42809e-05
0.000282126
-1.63748e-05
-0.00142976
2.32882e-05