/*--------------------------------*- C++ -*----------------------------------*\
  =========                 |
  \\      /  F ield         | OpenFOAM: The Open Source CFD Toolbox
   \\    /   O peration     | Website:  https://openfoam.org
    \\  /    A nd           | Version:  7
     \\/     M anipulation  |
\*---------------------------------------------------------------------------*/
FoamFile
{
    version     2.0;
    format      ascii;
    class       volVectorField;
    location    "120";
    object      U;
}
// * * * * * * * * * * * * * * * * * * * * * * * * * * * * * * * * * * * * * //

dimensions      [0 1 -1 0 0 0 0];

internalField   nonuniform List<vector> 
4575
(
(-0.00757534 0.169356 5.81116e-22)
(-0.0121042 0.196405 1.00878e-21)
(-0.0176214 0.216012 -7.25476e-21)
(-0.0239856 0.229384 1.21838e-21)
(-0.0310208 0.237774 -4.68188e-21)
(-0.038536 0.242397 -9.82347e-21)
(-0.0463446 0.244349 8.22254e-21)
(-0.054278 0.244548 2.39672e-21)
(-0.0621955 0.243692 -2.82763e-21)
(-0.0699875 0.242253 3.41026e-21)
(-0.0775759 0.240481 4.5921e-21)
(-0.0849107 0.238435 -2.85205e-21)
(-0.0919624 0.236012 -3.82401e-21)
(-0.0987195 0.232988 -9.07836e-21)
(-0.10521 0.229047 -6.98093e-22)
(-0.111353 0.223804 -1.52355e-21)
(-0.116911 0.216795 -2.97582e-21)
(-0.0093471 0.171223 -1.13925e-20)
(-0.0136356 0.198887 5.14839e-21)
(-0.0187195 0.219051 3.03837e-20)
(-0.0245111 0.232891 -1.82661e-20)
(-0.0308762 0.241642 2.98796e-21)
(-0.0376544 0.246514 1.42079e-20)
(-0.0446775 0.248607 2.71371e-23)
(-0.0517854 0.248852 8.1553e-21)
(-0.058836 0.247964 -1.05855e-20)
(-0.0657108 0.246434 1.09297e-20)
(-0.0723165 0.24453 -9.19537e-21)
(-0.0785841 0.242326 -3.56053e-21)
(-0.0844637 0.239735 1.76534e-20)
(-0.0899227 0.236539 -5.60308e-21)
(-0.0949731 0.232431 8.15343e-22)
(-0.0995321 0.227035 -1.02617e-20)
(-0.103327 0.219906 -1.14841e-21)
(-0.0111572 0.172622 2.89048e-20)
(-0.0152084 0.200865 -2.25771e-20)
(-0.019852 0.221577 -3.42378e-20)
(-0.025053 0.235893 3.04396e-20)
(-0.0307185 0.245023 -8.17133e-21)
(-0.0367182 0.250163 -3.94542e-21)
(-0.0429033 0.252415 -1.98547e-20)
(-0.0491224 0.252717 5.38439e-21)
(-0.0552323 0.2518 1.8662e-20)
(-0.0611059 0.250172 -3.65586e-21)
(-0.0666348 0.248119 1.49115e-20)
(-0.0717314 0.245732 -1.22246e-20)
(-0.0763251 0.242937 -3.57654e-21)
(-0.0803631 0.239532 2.83094e-20)
(-0.083842 0.235219 -1.75057e-21)
(-0.08668 0.229639 4.40117e-20)
(-0.0885532 0.222369 -1.05972e-20)
(-0.0129894 0.173543 -2.70788e-20)
(-0.0168082 0.202325 1.59042e-20)
(-0.0210078 0.223571 -3.04596e-21)
(-0.0256041 0.238367 -5.11932e-20)
(-0.0305444 0.247888 -5.33689e-21)
(-0.0357288 0.253314 -1.07464e-20)
(-0.0410281 0.255741 -1.80802e-21)
(-0.0462999 0.25611 -1.80095e-20)
(-0.051401 0.255167 2.01084e-20)
(-0.056196 0.253433 -2.93035e-20)
(-0.0605622 0.251213 -8.79833e-22)
(-0.0643934 0.248617 7.80352e-21)
(-0.0675993 0.245585 -5.99282e-20)
(-0.070107 0.241931 -4.79768e-20)
(-0.071899 0.237376 2.59842e-20)
(-0.0728995 0.231581 -3.40772e-20)
(-0.0727122 0.22415 6.92958e-22)
(-0.0148276 0.173981 -1.34714e-21)
(-0.0184208 0.203257 8.12867e-21)
(-0.022176 0.225017 1.07935e-21)
(-0.0261576 0.240292 2.62912e-20)
(-0.030352 0.250215 3.04933e-20)
(-0.0346891 0.255942 1.26825e-20)
(-0.0390597 0.258557 4.37982e-20)
(-0.0433315 0.259004 -4.96416e-20)
(-0.0473619 0.258034 -1.02175e-20)
(-0.0510081 0.256187 2.13078e-20)
(-0.0541341 0.253783 -3.66841e-20)
(-0.056616 0.25095 1.66208e-20)
(-0.0583443 0.247648 3.77897e-20)
(-0.0592268 0.243709 8.72402e-21)
(-0.0592326 0.238874 1.31767e-20)
(-0.0583009 0.232835 -2.04767e-20)
(-0.0559376 0.225226 2.51944e-21)
(-0.0166558 0.173934 2.38335e-20)
(-0.0200324 0.203653 2.03364e-20)
(-0.0233467 0.225903 8.93186e-21)
(-0.0267078 0.24165 1.67086e-20)
(-0.0301402 0.251982 -1.13295e-20)
(-0.0336033 0.258022 -6.89063e-20)
(-0.0370081 0.260838 -6.05298e-20)
(-0.0402331 0.261369 -3.87245e-20)
(-0.0431376 0.260375 1.43342e-20)
(-0.0455726 0.258407 -8.03973e-21)
(-0.0473898 0.255802 6.05066e-20)
(-0.0484489 0.252706 -2.15493e-20)
(-0.0486223 0.249101 1.74715e-20)
(-0.0477994 0.244839 2.50139e-20)
(-0.045935 0.239688 -1.40426e-20)
(-0.0429971 0.233379 1.23136e-19)
(-0.0383703 0.225598 -4.61966e-20)
(-0.0184594 0.173403 -1.48828e-20)
(-0.0216301 0.20351 6.59687e-21)
(-0.0245099 0.226219 9.90098e-21)
(-0.0272495 0.242428 3.23886e-20)
(-0.0299091 0.253171 7.06445e-21)
(-0.032477 0.259532 2.08698e-21)
(-0.0348847 0.262559 1.08805e-19)
(-0.0370226 0.263183 8.02967e-20)
(-0.0387529 0.262166 -4.74081e-20)
(-0.0399221 0.260069 -6.8266e-21)
(-0.0403713 0.257247 -1.82913e-20)
(-0.0399449 0.253865 1.79205e-20)
(-0.0384985 0.249924 -9.42235e-20)
(-0.0359045 0.245305 -1.99227e-20)
(-0.0321023 0.239804 -2.92875e-20)
(-0.0270887 0.23318 -7.0585e-20)
(-0.0201461 0.225275 3.80013e-20)
(-0.0202239 0.172395 -1.99628e-20)
(-0.0232015 0.202828 -1.779e-20)
(-0.0256569 0.22596 2.75978e-20)
(-0.0277783 0.242614 -4.53115e-20)
(-0.0296595 0.253765 -5.94725e-21)
(-0.0313168 0.260453 8.22212e-20)
(-0.0327024 0.263699 -5.14981e-20)
(-0.0337193 0.264422 -2.0817e-20)
(-0.0342344 0.263383 2.40875e-20)
(-0.0340915 0.261152 -6.19353e-21)
(-0.0331224 0.2581 -3.23039e-21)
(-0.0311583 0.254408 2.633e-20)
(-0.0280393 0.250103 -6.99132e-20)
(-0.0236214 0.245092 2.37198e-20)
(-0.0178369 0.239205 -1.81525e-20)
(-0.0106796 0.232239 -4.11301e-20)
(-0.00137264 0.224204 1.41646e-20)
(-0.0247349 0.20161 6.41764e-20)
(-0.0267792 0.225124 -6.50044e-20)
(-0.0282904 0.242201 -3.13154e-20)
(-0.0293932 0.253751 -5.3166e-20)
(-0.0301303 0.260769 -5.6927e-20)
(-0.030475 0.26424 -3.69679e-20)
(-0.0303438 0.265067 -4.91446e-20)
(-0.02961 0.264009 8.77129e-20)
(-0.0281164 0.26164 -9.49836e-21)
(-0.0256881 0.258344 -2.00108e-20)
(-0.0221445 0.254323 -1.032e-19)
(-0.0173117 0.249627 5.74181e-20)
(-0.0110313 0.24419 1.38849e-20)
(-0.00322812 0.237881 3.58477e-20)
(0.00610501 0.230557 2.43942e-20)
(0.0178172 0.222343 -6.51523e-20)
(-0.0262196 0.199864 5.75999e-20)
(-0.0278696 0.223711 -4.38879e-20)
(-0.0287829 0.241183 9.25665e-20)
(-0.0291122 0.253122 5.0189e-21)
(-0.0289255 0.260465 8.21456e-20)
(-0.0282168 0.264165 -4.71059e-20)
(-0.0269173 0.265102 7.42723e-20)
(-0.0249081 0.264026 -7.24563e-20)
(-0.0220333 0.261516 -6.41821e-20)
(-0.0181132 0.257968 5.44613e-20)
(-0.012958 0.253601 1.91341e-19)
(-0.00638167 0.248488 -1.05109e-19)
(0.00178788 0.242595 8.58178e-20)
(0.0116334 0.235831 1.99682e-20)
(0.0231527 0.22812 -7.43567e-20)
(0.0372904 0.219712 6.18842e-20)
(-0.0276459 0.197602 -4.45337e-20)
(-0.0289212 0.221729 1.0224e-19)
(-0.0292532 0.239562 -1.80985e-20)
(-0.0288192 0.251869 2.22102e-21)
(-0.0277109 0.259532 -1.13616e-19)
(-0.0259426 0.263461 7.05277e-20)
(-0.0234611 0.264511 1.61679e-20)
(-0.020157 0.263421 -2.08338e-20)
(-0.0158779 0.26077 2.57786e-20)
(-0.0104418 0.256962 -1.00876e-19)
(-0.00365198 0.252236 -5.54532e-20)
(0.00468786 0.246685 1.16916e-19)
(0.0147619 0.240308 -6.52344e-20)
(0.026661 0.233055 -9.35528e-20)
(0.040364 0.224925 1.72404e-19)
(0.0569295 0.216324 -1.32125e-22)
(-0.0290054 0.19484 -2.91488e-20)
(-0.0299281 0.219188 -3.32948e-20)
(-0.0296992 0.23734 -1.37654e-19)
(-0.028517 0.249992 1.6505e-20)
(-0.0264948 0.257963 -5.61345e-20)
(-0.023667 0.262119 1.92686e-19)
(-0.0199963 0.263284 -1.10189e-19)
(-0.0153845 0.262182 6.64109e-20)
(-0.00968506 0.25939 -2.02225e-20)
(-0.00271618 0.25532 1.09756e-19)
(0.00572342 0.250224 8.88585e-21)
(0.015838 0.244219 -9.32289e-20)
(0.0278223 0.237332 -1.68844e-20)
(0.0417761 0.22956 3.91754e-21)
(0.0576508 0.220977 -6.77694e-21)
(0.0766341 0.212184 1.17739e-19)
(-0.0302907 0.191597 -7.04475e-21)
(-0.0308853 0.2161 -5.58975e-20)
(-0.0301194 0.234526 1.21285e-19)
(-0.0282086 0.247491 -1.33894e-20)
(-0.0252856 0.255755 1.4149e-19)
(-0.0214039 0.26013 -1.54421e-19)
(-0.0165428 0.26141 4.00288e-20)
(-0.0106171 0.2603 4.68066e-20)
(-0.00348768 0.25737 -1.50207e-21)
(0.0050242 0.253037 -8.228e-22)
(0.0151219 0.247566 -8.6655e-20)
(0.0270153 0.241093 1.12824e-20)
(0.0409084 0.233676 1.15124e-19)
(0.0569105 0.225357 1.48477e-19)
(0.0749385 0.216287 -1.75722e-19)
(0.0963223 0.207299 -1.12513e-19)
(-0.0314958 0.187898 1.07902e-19)
(-0.0317886 0.212486 1.07256e-19)
(-0.0305127 0.231131 -4.09348e-20)
(-0.0278969 0.244373 1.75344e-19)
(-0.0240909 0.252906 -1.74039e-19)
(-0.0191663 0.257491 7.56176e-20)
(-0.0131195 0.258884 7.57865e-20)
(-0.005879 0.257768 -5.6799e-21)
(0.00268415 0.254704 9.75383e-22)
(0.0127436 0.250111 9.68425e-21)
(0.0245022 0.244263 -6.73973e-20)
(0.0381733 0.237315 6.73471e-20)
(0.0539686 0.229351 -3.44775e-20)
(0.0720082 0.220458 -7.71624e-20)
(0.0921682 0.210867 9.95538e-20)
(0.115933 0.201677 2.06637e-20)
(-0.0326162 0.183768 -7.20653e-20)
(-0.0326346 0.208366 -7.36256e-20)
(-0.030878 0.22717 1.17097e-19)
(-0.0275842 0.240647 -5.7976e-20)
(-0.0229173 0.249421 4.53246e-20)
(-0.0169657 0.254201 4.91533e-21)
(-0.00974279 0.255702 -1.18503e-20)
(-0.00119202 0.254582 2.92341e-20)
(0.00880389 0.251389 -5.67516e-20)
(0.0204111 0.24654 2.91479e-20)
(0.0338294 0.240318 9.38342e-20)
(0.049274 0.232892 -1.3568e-19)
(0.0669624 0.22437 -8.69092e-20)
(0.0870277 0.21488 1.13723e-19)
(0.1093 0.204734 -6.67059e-20)
(0.13543 0.19533 -1.03638e-19)
(-0.0336489 0.179238 -1.76105e-20)
(-0.033421 0.203766 -6.31176e-20)
(-0.0312147 0.222665 -1.15091e-19)
(-0.0272726 0.236326 -8.55608e-20)
(-0.0217705 0.245307 -1.68655e-19)
(-0.0148119 0.250261 1.66485e-20)
(-0.00642673 0.251862 -1.45539e-20)
(0.00342569 0.250738 -1.13609e-19)
(0.0148495 0.247422 9.73345e-20)
(0.0280014 0.242326 1.17863e-19)
(0.0430762 0.235736 -6.1913e-21)
(0.0602889 0.227834 7.13935e-20)
(0.079862 0.218748 -3.53664e-20)
(0.101944 0.208644 5.45113e-21)
(0.126313 0.197907 1.00272e-19)
(0.154804 0.18827 2.41399e-19)
(-0.034146 0.198717 8.57409e-20)
(-0.0315219 0.217639 -3.05678e-20)
(-0.0269633 0.231428 -8.64062e-20)
(-0.0206542 0.240576 1.37346e-19)
(-0.0127117 0.245679 -3.60753e-20)
(-0.00318182 0.247367 2.60461e-20)
(0.00796033 0.246237 1.38535e-19)
(0.0208045 0.242803 -1.89532e-19)
(0.0354963 0.237469 -5.14253e-20)
(0.0522241 0.230523 -1.002e-19)
(0.071201 0.222152 2.01745e-19)
(0.092654 0.212502 6.00021e-21)
(0.11675 0.20177 1.10531e-19)
(0.143213 0.190408 -3.97624e-20)
(0.174076 0.180516 -2.28487e-19)
(-0.0348088 0.193251 5.27078e-20)
(-0.0317989 0.21212 -2.85313e-21)
(-0.0266562 0.225975 2.2362e-19)
(-0.0195701 0.235242 8.37158e-20)
(-0.0106693 0.240464 -1.50879e-19)
(-1.4372e-05 0.242222 7.23139e-21)
(0.0124035 0.241081 -5.00475e-21)
(0.0266592 0.237534 2.00734e-19)
(0.0428862 0.231974 -2.21313e-19)
(0.061265 0.224684 6.06626e-20)
(0.0820066 0.215857 2.36799e-21)
(0.105342 0.205648 -1.53149e-19)
(0.131461 0.19428 -1.59138e-19)
(0.160028 0.182262 -1.94066e-20)
(0.193304 0.172084 2.31908e-19)
(-0.0354088 0.187403 -1.99423e-19)
(-0.0320442 0.206139 -5.36494e-20)
(-0.0263498 0.219991 -1.16954e-19)
(-0.0185174 0.229326 -5.38996e-20)
(-0.00868461 0.234629 9.384e-20)
(0.00307448 0.236436 1.87799e-19)
(0.0167534 0.235277 -2.07285e-19)
(0.0324121 0.23162 -7.6857e-20)
(0.0501714 0.225844 2.73385e-19)
(0.0702036 0.218227 -9.83936e-20)
(0.0927174 0.208962 -1.40727e-19)
(0.117948 0.198205 1.77588e-19)
(0.146115 0.1862 3.73874e-20)
(0.176818 0.173495 3.49368e-20)
(0.212578 0.162997 -1.4983e-19)
(-0.0359461 0.181214 3.51968e-20)
(-0.0322557 0.199731 2.29328e-19)
(-0.0260407 0.213508 -1.41129e-19)
(-0.0174917 0.222851 3.32622e-20)
(-0.0067529 0.228192 -6.47195e-20)
(0.00608991 0.230022 -2.56727e-19)
(0.0210161 0.228832 1.52623e-19)
(0.0380715 0.225066 1.2133e-19)
(0.0573645 0.219086 -2.12658e-19)
(0.0790594 0.211161 4.92013e-20)
(0.103363 0.201477 1.94993e-19)
(0.130517 0.190191 7.55552e-20)
(0.160778 0.177555 2.65661e-20)
(0.193671 0.164138 -1.56084e-19)
(0.232035 0.15328 -7.62908e-20)
(-0.0324303 0.192934 -3.16294e-20)
(-0.0257227 0.206557 2.11164e-20)
(-0.0164845 0.215844 1.31109e-19)
(-0.00486361 0.221175 1.62568e-19)
(0.00904481 0.222996 -7.03085e-21)
(0.0252078 0.22176 -3.46761e-20)
(0.043658 0.217883 -2.00405e-19)
(0.0644929 0.21171 1.48291e-19)
(0.08787 0.203496 -1.24434e-20)
(0.113997 0.193419 -8.68647e-20)
(0.143121 0.181627 -4.33691e-19)
(0.175545 0.168374 1.5313e-19)
(0.210715 0.154224 9.01543e-21)
(0.25185 0.142967 -9.46304e-20)
(-0.0325626 0.185789 -1.9134e-19)
(-0.0253865 0.199176 1.16822e-19)
(-0.0154823 0.208339 -1.32421e-20)
(-0.0029991 0.213606 -2.56213e-19)
(0.0119613 0.21538 4.82874e-20)
(0.0293559 0.214077 2.64743e-20)
(0.0492067 0.210086 -4.56322e-20)
(0.0716019 0.203728 1.18798e-19)
(0.0966947 0.195245 2.29051e-19)
(0.124695 0.184804 -1.48201e-19)
(0.155862 0.172536 1.19966e-19)
(0.190552 0.15869 2.8018e-20)
(0.228116 0.143794 1.66368e-19)
(0.27225 0.1321 7.44544e-20)
(-0.0326453 0.178338 2.17963e-19)
(-0.0250184 0.191407 -1.5403e-19)
(-0.0144654 0.200371 4.56438e-20)
(-0.00113319 0.205517 1.85555e-19)
(0.0148728 0.207202 1.74438e-19)
(0.0335025 0.205809 6.64403e-20)
(0.0547702 0.201694 2.86859e-19)
(0.0787583 0.195158 -3.92517e-20)
(0.105619 0.186428 -2.97577e-19)
(0.135568 0.175653 1.45099e-19)
(0.168877 0.162947 -7.63318e-20)
(0.205972 0.148544 -1.78608e-19)
(0.246085 0.132899 -1.26143e-19)
(0.293508 0.120736 -1.26576e-19)
(-0.0326675 0.170627 -2.77914e-19)
(-0.0245997 0.183292 1.04797e-19)
(-0.0134065 0.191983 -9.42357e-20)
(0.000770438 0.196944 -1.55449e-19)
(0.0178256 0.198496 5.31741e-21)
(0.037706 0.196982 -3.78641e-19)
(0.0604219 0.192733 -2.89701e-19)
(0.086054 0.186026 8.98542e-20)
(0.114757 0.17707 4.56295e-20)
(0.14676 0.165997 -9.59584e-20)
(0.182347 0.152897 3.71578e-19)
(0.222026 0.137984 -5.82136e-20)
(0.26488 0.121603 1.58321e-19)
(0.31595 0.108953 1.42386e-19)
(-0.024105 0.174878 1.44937e-19)
(-0.0122694 0.183218 -8.45003e-21)
(0.00276006 0.187932 6.49525e-20)
(0.020882 0.1893 1.92211e-19)
(0.0420445 0.187636 3.95422e-19)
(0.0662592 0.183239 3.12491e-20)
(0.0936104 0.176366 -1.70231e-19)
(0.124261 0.167205 3.0397e-20)
(0.158457 0.155873 2.94543e-19)
(0.196497 0.142431 -1.99294e-19)
(0.238986 0.127075 1.24832e-21)
(0.284808 0.109985 1.53837e-19)
(0.339942 0.096857 -9.39776e-20)
(-0.0235018 0.166216 -3.72858e-20)
(-0.0110077 0.174129 -8.05807e-20)
(0.0048977 0.178528 1.2869e-19)
(0.0241214 0.179663 -1.47001e-19)
(0.0466184 0.177814 -4.68424e-20)
(0.0724071 0.173255 -5.23747e-21)
(0.101581 0.16622 1.19094e-19)
(0.134319 0.156878 -1.06208e-19)
(0.170886 0.145332 -2.00526e-19)
(0.211599 0.131612 -6.07677e-20)
(0.257169 0.115896 -8.81629e-20)
(0.306222 0.0981481 -2.68714e-19)
(0.365886 0.0845866 -8.03294e-20)
(-0.0227485 0.157358 -1.73848e-19)
(-0.00956284 0.164768 9.75787e-20)
(0.00726091 0.168788 -2.8548e-19)
(0.0276436 0.169639 -1.405e-19)
(0.0515526 0.167573 1.76235e-21)
(0.0790201 0.162837 1.19342e-19)
(0.110156 0.155644 -7.7378e-20)
(0.145159 0.14615 1.95364e-19)
(0.184322 0.134439 -4.75435e-20)
(0.227972 0.120514 6.18011e-20)
(0.276938 0.104547 2.31483e-19)
(0.32951 0.0862148 3.09296e-20)
(0.394198 0.0723178 1.47269e-19)
(-0.00786328 0.155194 -1.9123e-19)
(0.00994426 0.158773 5.46717e-20)
(0.0315693 0.159291 5.2795e-21)
(0.0569984 0.156975 -1.35725e-19)
(0.0862846 0.152049 9.87625e-20)
(0.119561 0.144709 -7.63319e-20)
(0.157052 0.135093 -1.38381e-19)
(0.199079 0.123276 -1.78415e-19)
(0.245975 0.109232 4.36409e-20)
(0.298687 0.0931449 5.94397e-20)
(0.35508 0.0743317 -5.80689e-20)
(0.42528 0.0602646 2.42261e-19)
(-0.00582324 0.145468 -5.40904e-20)
(0.0130603 0.148549 4.42749e-19)
(0.0360418 0.14869 3.14882e-20)
(0.063134 0.146095 -4.75588e-20)
(0.0944178 0.140971 -3.0826e-19)
(0.130056 0.133496 5.92524e-20)
(0.170303 0.123798 -1.47815e-19)
(0.215508 0.111944 9.74971e-20)
(0.265996 0.09788 8.84685e-20)
(0.322825 0.0818292 -3.36776e-19)
(0.383334 0.0626649 -1.04736e-19)
(0.45948 0.0486748 -3.61954e-19)
(-0.00334219 0.135655 1.88426e-20)
(0.01674 0.138188 -1.3336e-19)
(0.0412265 0.137913 1.88481e-19)
(0.0701633 0.135018 1.37147e-21)
(0.103666 0.129694 2.29884e-19)
(0.141932 0.122105 1.53644e-19)
(0.185246 0.112372 2.5281e-20)
(0.23398 0.100558 3.18163e-19)
(0.288431 0.0865886 -2.86817e-19)
(0.349744 0.070754 1.32138e-19)
(0.414643 0.0513942 1.03806e-19)
(0.497056 0.0378175 8.94658e-20)
(0.0211318 0.127764 -2.1987e-19)
(0.0473094 0.127045 -1.66469e-19)
(0.0783134 0.123837 7.73595e-20)
(0.114299 0.118318 -2.18278e-19)
(0.155502 0.110646 1.42861e-20)
(0.202232 0.100935 8.1861e-20)
(0.254871 0.0892526 6.14538e-20)
(0.313664 0.0755043 1.93375e-19)
(0.379795 0.0600845 4.12056e-20)
(0.44931 0.0407065 -1.44584e-19)
(0.538127 0.0279668 1.55359e-19)
(0.0263998 0.117358 1.89907e-19)
(0.0544936 0.116175 -9.61032e-20)
(0.0878288 0.112651 3.00718e-21)
(0.126604 0.106955 5.21608e-20)
(0.171088 0.0992407 1.09099e-19)
(0.221611 0.0896221 -1.32009e-20)
(0.27854 0.0781731 -3.00871e-20)
(0.342036 0.0647852 -1.54556e-19)
(0.413248 0.0499896 -1.02798e-19)
(0.487538 0.0307877 -9.63635e-20)
(0.582625 0.0193773 1.5593e-19)
(0.0629949 0.105396 6.67286e-20)
(0.0989643 0.101565 2.31414e-20)
(0.14087 0.0957231 -1.04258e-19)
(0.189009 0.0880198 -2.39667e-19)
(0.243712 0.0785745 1.19205e-19)
(0.305302 0.067472 -6.03458e-20)
(0.373817 0.0545946 -1.51902e-20)
(0.450263 0.0406332 2.48529e-19)
(0.529399 0.0218184 2.61295e-19)
(0.630272 0.0122749 -3.97218e-19)
(0.0730345 0.0948021 6.78267e-21)
(0.111976 0.0906888 -1.61132e-19)
(0.157381 0.0847424 2.11955e-19)
(0.209562 0.0771165 1.37247e-19)
(0.268824 0.0679373 -2.64437e-19)
(0.335404 0.0573027 -2.22951e-19)
(0.409179 0.0450942 5.12654e-20)
(0.490866 0.0321639 2.96403e-19)
(0.574818 0.0139717 1.36966e-19)
(0.68057 0.00683975 7.38025e-20)
(0.0848319 0.0844855 -3.12004e-19)
(0.127108 0.0801273 -2.81277e-19)
(0.176397 0.0741335 -2.75112e-20)
(0.233003 0.066663 -1.36914e-20)
(0.297173 0.0578523 9.39823e-20)
(0.369003 0.0478117 6.10583e-20)
(0.448173 0.0364359 7.86583e-20)
(0.534935 0.0247043 -3.6598e-19)
(0.623567 0.0074049 -1.0227e-19)
(0.732792 0.00315458 2.64136e-19)
(0.144586 0.0699837 1.23894e-19)
(0.198141 0.0640119 -1.13383e-19)
(0.25953 0.0567852 -1.56948e-19)
(0.328899 0.048452 -2.0164e-20)
(0.406144 0.0391317 1.56793e-19)
(0.490714 0.0287541 -1.04968e-19)
(0.582195 0.0183414 3.92289e-20)
(0.675266 0.00225327 8.82332e-20)
(0.785975 0.00120217 2.23122e-19)
(0.164599 0.0603532 5.67778e-20)
(0.222786 0.0544844 -7.60712e-20)
(0.289269 0.047598 1.80601e-19)
(0.364047 0.039854 -1.55342e-20)
(0.446754 0.0313749 -4.10966e-20)
(0.536569 0.0221576 -6.43775e-20)
(0.63223 0.0131219 1.01003e-19)
(0.729389 -0.00134035 -2.53346e-19)
(0.839275 0.00110205 -3.42468e-19)
(0.250441 0.0456463 2.84434e-19)
(0.322262 0.0392015 -2.53849e-20)
(0.402555 0.0321561 -5.55439e-20)
(0.490635 0.0246278 -8.09604e-21)
(0.585376 0.0167169 1.36075e-19)
(0.684525 0.00904371 2.40585e-19)
(0.785226 -0.0031963 -6.70972e-20)
(0.891212 0.00277558 2.48323e-19)
(0.281146 0.0375792 -9.60932e-20)
(0.35846 0.0316789 -7.00642e-20)
(0.44425 0.0254336 -2.28956e-19)
(0.537467 0.0189458 -6.19705e-20)
(0.636653 0.0124426 4.87589e-21)
(0.738562 0.00604595 -1.65502e-19)
(0.842111 -0.00306235 8.12405e-20)
(0.940452 0.0061543 -1.75623e-19)
(0.397722 0.0250961 -1.13821e-19)
(0.488853 0.0197402 2.75661e-19)
(0.58681 0.0143549 1.6844e-19)
(0.689787 0.00927669 4.1483e-20)
(0.793793 0.00403086 -1.75819e-19)
(0.899599 -0.000947263 -8.70643e-21)
(0.987572 0.00910912 -2.83479e-19)
(0.43982 0.0195037 -5.36873e-20)
(0.535985 0.0151126 4.93132e-20)
(0.638116 0.0108631 -8.7754e-20)
(0.744028 0.0071361 -1.00863e-19)
(0.849363 0.00293254 2.11869e-19)
(0.956468 0.00206421 -6.73017e-20)
(1.03629 0.00602321 1.25599e-20)
(0.585193 0.0115751 -1.09909e-19)
(0.690774 0.00847616 3.13405e-20)
(0.798597 0.00598956 -3.89065e-20)
(0.904158 0.00271454 -2.20196e-20)
(1.00929 0.0034187 4.73002e-20)
(1.08947 -0.00119433 4.95504e-19)
(0.744142 0.00719559 5.0002e-21)
(0.852758 0.00584144 -2.07604e-19)
(0.957276 0.00344059 -5.50199e-20)
(1.0586 0.00469186 2.58849e-19)
(1.13652 -0.00300689 -2.84058e-19)
(0.797589 0.00701186 2.10356e-19)
(0.905848 0.00670266 6.59977e-20)
(1.00807 0.00516183 3.70621e-19)
(1.10438 0.00668092 -2.36332e-19)
(1.1781 -0.00190285 3.75573e-19)
(0.957283 0.00855636 8.17932e-20)
(1.05607 0.0078433 4.64343e-20)
(1.14647 0.00952363 -4.01368e-19)
(1.21507 0.00103211 -2.19946e-19)
(1.10093 0.0114056 6.64245e-20)
(1.18479 0.0131968 3.12991e-19)
(1.24765 0.00525465 -2.09835e-19)
(1.1424 0.0157486 -2.34831e-19)
(1.21933 0.0176099 1.47591e-19)
(1.27609 0.0103764 6.83502e-20)
(1.25011 0.0226451 -2.34434e-19)
(1.30062 0.0161169 3.20197e-19)
(1.32154 0.0222728 -1.60059e-19)
(1.14485 -0.0534409 -8.62261e-20)
(1.05435 -0.0432832 -2.70748e-19)
(1.11188 -0.0441939 1.53075e-19)
(0.933502 -0.0232514 -1.85509e-19)
(1.01318 -0.0346276 1.43849e-19)
(1.07489 -0.0351605 -4.51437e-20)
(0.884925 -0.0144101 -1.05129e-19)
(0.968525 -0.026266 3.07283e-19)
(1.0338 -0.0266052 -6.96497e-20)
(0.74606 0.000993046 3.26909e-21)
(0.833862 -0.00589599 -2.8679e-20)
(0.92052 -0.0182564 -2.97761e-19)
(0.988575 -0.0188847 -1.5514e-19)
(0.604581 0.0142758 -1.70027e-20)
(0.693175 0.0087233 4.72888e-20)
(0.780651 0.00229581 1.89672e-19)
(0.869302 -0.0105856 -6.17184e-20)
(0.939152 -0.0124694 1.82674e-19)
(0.553655 0.0208743 1.05127e-19)
(0.639622 0.0162304 -1.01147e-19)
(0.72567 0.0102359 -1.72104e-19)
(0.814982 -0.00312067 2.83296e-19)
(0.885336 -0.00803051 -1.75403e-19)
(0.424595 0.0283756 -1.5848e-20)
(0.503323 0.0272957 -1.86728e-19)
(0.585831 0.0236412 6.86904e-20)
(0.66935 0.0181068 1.17634e-19)
(0.757562 0.00450956 1.39413e-21)
(0.826014 -0.00703856 2.3153e-19)
(0.311174 0.0317257 1.86471e-19)
(0.379891 0.0336228 -4.61894e-20)
(0.45394 0.033646 -1.27877e-19)
(0.532273 0.0311145 -3.00319e-20)
(0.612244 0.0262816 1.89746e-19)
(0.696839 0.0135809 5.23139e-21)
(0.759727 -0.0109743 -8.24776e-20)
(0.273251 0.0359754 4.21536e-20)
(0.336794 0.0388638 1.30484e-19)
(0.405853 0.0400146 6.71589e-20)
(0.479484 0.0387727 7.50148e-20)
(0.555146 0.035141 -2.14061e-19)
(0.63309 0.0266916 4.73215e-20)
(0.696339 -0.00483609 -1.63019e-19)
(0.185042 0.0352819 1.19647e-20)
(0.237177 0.0403231 -1.03743e-19)
(0.295491 0.0441579 -4.67694e-20)
(0.359385 0.0464454 -1.02267e-19)
(0.428028 0.046615 -4.22269e-20)
(0.49927 0.0444493 1.45998e-20)
(0.571586 0.0401867 -9.02369e-20)
(0.64062 0.0112673 -5.36881e-21)
(0.155933 0.0390653 1.65879e-19)
(0.203022 0.0448133 1.55514e-20)
(0.25613 0.0495388 7.00171e-20)
(0.314804 0.0529328 -1.02182e-19)
(0.378353 0.0545185 1.52192e-19)
(0.445184 0.0538909 3.93035e-20)
(0.512659 0.0524844 5.30931e-20)
(0.584754 0.0279307 1.75107e-19)
(0.092334 0.0361127 1.30908e-19)
(0.128657 0.0430863 1.25583e-20)
(0.170839 0.049472 5.43844e-20)
(0.218829 0.0550189 7.267e-20)
(0.272302 0.0594504 -3.09564e-20)
(0.330723 0.0623569 -1.18212e-19)
(0.392975 0.0632064 5.76202e-20)
(0.455706 0.063543 -6.9384e-20)
(0.527482 0.0424124 -1.85751e-19)
(0.0713039 0.0399613 1.36016e-19)
(0.103219 0.0473563 -4.29342e-20)
(0.140668 0.0543075 -4.63005e-20)
(0.183672 0.060595 -1.44102e-19)
(0.232021 0.0659672 1.91135e-19)
(0.285323 0.0700467 -5.43238e-20)
(0.342799 0.072223 -3.46135e-20)
(0.40081 0.0736405 4.63098e-20)
(0.470159 0.0550702 1.37851e-19)
(0.0291575 0.0362105 2.94296e-19)
(0.0518921 0.0441198 -2.15769e-19)
(0.0796153 0.0518713 -1.61325e-19)
(0.112534 0.0593115 -1.05026e-19)
(0.150727 0.0662477 2.25617e-19)
(0.194081 0.0724437 -1.05543e-21)
(0.242329 0.0775219 5.67828e-20)
(0.294918 0.0808073 -2.00732e-19)
(0.348275 0.0828551 1.11526e-20)
(0.413889 0.0661866 8.41332e-20)
(0.0149348 0.0404654 -2.2975e-20)
(0.0340756 0.0485722 -5.7937e-20)
(0.05784 0.0566128 9.02097e-20)
(0.0864575 0.06446 1.14904e-19)
(0.12005 0.0719417 -2.72955e-19)
(0.158583 0.0788254 -1.0472e-19)
(0.201899 0.0847055 1.0071e-19)
(0.249587 0.0888278 1.19912e-19)
(0.29835 0.0911168 1.25872e-19)
(0.359366 0.0757263 6.09876e-21)
(-0.00977654 0.0368848 -4.9131e-20)
(0.00204561 0.0450456 -3.17849e-20)
(0.017828 0.0532922 1.65758e-19)
(0.0378805 0.0615507 -1.66502e-19)
(0.0624462 0.0697154 -9.34334e-20)
(0.0916801 0.0776269 4.09104e-20)
(0.125609 0.085043 7.01709e-20)
(0.164166 0.0915064 -6.17845e-20)
(0.207026 0.0961573 8.98528e-20)
(0.251247 0.0983377 1.20856e-19)
(0.307144 0.0836575 -1.08771e-19)
(-0.0185875 0.0417208 1.91584e-19)
(-0.00954741 0.0499201 -1.47029e-19)
(0.00311789 0.058245 1.68036e-19)
(0.019716 0.066645 -2.1227e-20)
(0.0404974 0.0750296 6.71854e-20)
(0.0656407 0.0832424 -3.97921e-20)
(0.0952186 0.0910184 -3.54166e-20)
(0.129236 0.0978288 2.17477e-20)
(0.167413 0.102685 -2.23227e-19)
(0.207163 0.104462 2.14467e-20)
(0.257702 0.0900385 9.18828e-20)
(-0.0263661 0.0468674 -3.07171e-19)
(-0.0198864 0.0550529 3.65516e-20)
(-0.0100936 0.0633911 -7.06397e-20)
(0.00331515 0.0718503 -7.37518e-20)
(0.0205931 0.0803487 -2.83802e-20)
(0.0419338 0.0887233 2.00016e-19)
(0.0674434 0.0966731 -3.99912e-20)
(0.0971751 0.103586 -4.08282e-20)
(0.13088 0.108331 1.27201e-19)
(0.166262 0.10948 -5.05999e-20)
(0.21141 0.094995 -1.77813e-20)
(-0.0346116 0.0443207 5.4635e-20)
(-0.0331595 0.0522893 -3.02784e-20)
(-0.0290202 0.0604061 7.01916e-20)
(-0.0218549 0.0686885 4.5726e-21)
(-0.0113672 0.0771193 2.28895e-19)
(0.00269527 0.0856187 1.68139e-19)
(0.0205347 0.0940071 2.40443e-20)
(0.0422781 0.101938 2.42682e-20)
(0.0680081 0.108711 2.39514e-20)
(0.0975051 0.113062 4.43594e-20)
(0.128643 0.113425 5.01118e-20)
(0.168523 0.0987055 6.57215e-20)
(-0.0386013 0.0500864 1.71104e-20)
(-0.0390199 0.0579509 2.11587e-19)
(-0.0370052 0.0659417 1.94432e-19)
(-0.0322256 0.0740966 -3.7861e-20)
(-0.0243923 0.0824077 -2.94058e-19)
(-0.013256 0.0907908 -4.82506e-20)
(0.00138799 0.0990422 -1.14944e-19)
(0.0196774 0.106764 1.6873e-19)
(0.0417108 0.113173 3.96852e-20)
(0.0672993 0.116904 -1.92085e-19)
(0.0943018 0.11633 -8.60452e-20)
(0.129218 0.101426 -3.1772e-19)
(-0.0419003 0.056104 -8.01084e-20)
(-0.0440054 0.0638177 7.53252e-20)
(-0.0439059 0.0716241 -6.26112e-20)
(-0.0412773 0.0795784 -1.34143e-19)
(-0.0358381 0.0876776 9.82198e-20)
(-0.0273445 0.095827 -2.6397e-20)
(-0.015594 0.103794 -1.05488e-19)
(-0.000446056 0.111127 -1.34943e-19)
(0.018205 0.116972 6.55625e-20)
(0.0401466 0.119907 3.99096e-20)
(0.0631657 0.11823 -5.68709e-20)
(0.0936932 0.103532 1.55537e-19)
(-0.0393198 0.0547621 1.8988e-20)
(-0.044564 0.0623414 1.2854e-19)
(-0.0481794 0.0698577 -2.95261e-19)
(-0.0497952 0.0774218 -1.17282e-19)
(-0.0490932 0.0851034 4.28812e-20)
(-0.0457993 0.0929004 1.49834e-20)
(-0.0396773 0.100704 -5.11916e-20)
(-0.030531 0.108249 1.3817e-19)
(-0.0182239 0.115034 -1.03469e-20)
(-0.00266237 0.120157 8.08094e-20)
(0.0158601 0.122188 3.68078e-20)
(0.035336 0.119356 1.56422e-19)
(0.0620272 0.105243 6.42672e-20)
(-0.0402445 0.0613515 -5.87424e-20)
(-0.0466507 0.0687689 3.32103e-20)
(-0.0516098 0.0760429 1.00971e-19)
(-0.0547528 0.083309 -1.00157e-19)
(-0.0557668 0.0906492 -1.08065e-19)
(-0.0543856 0.0980595 1.3002e-21)
(-0.050382 0.105414 2.45352e-20)
(-0.04357 0.112418 1.28842e-20)
(-0.0338237 0.118526 -9.87146e-20)
(-0.0210743 0.122812 -9.25391e-20)
(-0.00568623 0.123891 -2.52573e-20)
(0.0107679 0.120013 -1.62998e-19)
(0.0337165 0.106433 -5.1577e-20)
(-0.0407897 0.0681381 3.63698e-20)
(-0.0482211 0.0753599 2.29322e-20)
(-0.0543685 0.0823494 1.10143e-21)
(-0.0588639 0.0892661 2.28642e-19)
(-0.0613996 0.0962022 2.79721e-19)
(-0.0617178 0.103151 4.29905e-20)
(-0.0596019 0.109969 -9.43301e-20)
(-0.0548799 0.116333 3.608e-20)
(-0.0474411 0.121668 1.86452e-19)
(-0.0372485 0.125045 -1.70275e-19)
(-0.0247113 0.125159 -2.38864e-20)
(-0.0109856 0.120363 6.73179e-20)
(0.00822276 0.107051 -9.92648e-20)
(-0.0319832 0.0675436 7.6525e-20)
(-0.0410076 0.0750951 4.76818e-20)
(-0.0493369 0.0820908 -6.9846e-20)
(-0.0565292 0.0887581 -1.33951e-19)
(-0.0622172 0.0952798 -7.10334e-20)
(-0.0660985 0.101758 -3.00795e-19)
(-0.0679242 0.108181 -1.33639e-19)
(-0.0674906 0.114393 1.28975e-20)
(-0.0646428 0.120046 5.47789e-21)
(-0.0592904 0.124548 -2.35768e-20)
(-0.051432 0.126988 1.83064e-19)
(-0.0415087 0.126165 9.6464e-20)
(-0.0303676 0.120586 -4.10245e-20)
(-0.0147192 0.107468 1.36762e-19)
(-0.0312822 0.0747601 1.60093e-19)
(-0.04095 0.082198 -1.26387e-19)
(-0.05006 0.0889414 6.00321e-20)
(-0.0581661 0.0952546 1.31834e-19)
(-0.0649021 0.101343 3.16414e-20)
(-0.0699714 0.107319 1.22425e-19)
(-0.0731354 0.11317 2.49306e-19)
(-0.0742049 0.118725 -1.97012e-20)
(-0.0730452 0.123623 -1.91521e-19)
(-0.0695902 0.12727 8.22118e-20)
(-0.0638764 0.128788 -1.02504e-19)
(-0.056368 0.127097 -1.32201e-19)
(-0.0476935 0.120899 -8.40574e-20)
(-0.0353227 0.108065 -6.20783e-20)
(-0.0304514 0.0821163 -1.8442e-19)
(-0.0406674 0.0894244 2.08466e-19)
(-0.0504506 0.0958946 -1.59061e-19)
(-0.0593518 0.101828 -1.27153e-19)
(-0.0670065 0.107455 3.47251e-20)
(-0.0731249 0.112897 1.99747e-20)
(-0.0774795 0.118142 -7.08126e-20)
(-0.0798982 0.123012 1.19957e-19)
(-0.0802684 0.127141 1.6076e-19)
(-0.0785513 0.129941 -6.10953e-20)
(-0.0748205 0.130591 5.84254e-20)
(-0.0695551 0.128136 7.24211e-20)
(-0.0632253 0.121487 6.08278e-20)
(-0.0538474 0.109051 -5.88712e-21)
(-0.0295315 0.089587 2.69892e-20)
(-0.0402079 0.0967537 -1.19689e-20)
(-0.0505665 0.102936 1.88891e-20)
(-0.0601557 0.108472 1.55254e-19)
(-0.0686144 0.113617 4.38326e-21)
(-0.0756601 0.118506 2.52337e-20)
(-0.0810781 0.123128 -1.48368e-19)
(-0.0847146 0.127306 4.52633e-20)
(-0.0864813 0.130674 1.25187e-20)
(-0.0863676 0.132667 -7.69285e-20)
(-0.0844813 0.132528 -2.23665e-19)
(-0.0813079 0.129431 2.30798e-20)
(-0.0771991 0.122489 2.5678e-20)