/*--------------------------------*- C++ -*----------------------------------*\
  =========                 |
  \\      /  F ield         | OpenFOAM: The Open Source CFD Toolbox
   \\    /   O peration     | Website:  https://openfoam.org
    \\  /    A nd           | Version:  7
     \\/     M anipulation  |
\*---------------------------------------------------------------------------*/
FoamFile
{
    version     2.0;
    format      ascii;
    class       volVectorField;
    location    "200";
    object      U;
}
// * * * * * * * * * * * * * * * * * * * * * * * * * * * * * * * * * * * * * //

dimensions      [0 1 -1 0 0 0 0];

internalField   nonuniform List<vector> 
4575
(
(-0.0137708 -0.0444871 9.41321e-22)
(-0.021257 -0.0624397 1.65959e-21)
(-0.0297063 -0.0806787 -1.21093e-20)
(-0.0388883 -0.0985325 2.06319e-21)
(-0.0486045 -0.115599 -8.02932e-21)
(-0.0586719 -0.131727 -1.70494e-20)
(-0.0689194 -0.146973 1.44264e-20)
(-0.0791905 -0.161535 4.24845e-21)
(-0.089349 -0.17569 -5.04811e-21)
(-0.0992862 -0.189736 6.13437e-21)
(-0.108926 -0.203946 8.29967e-21)
(-0.118224 -0.218548 -5.18973e-21)
(-0.127164 -0.233723 -6.96651e-21)
(-0.135748 -0.249606 -1.65636e-20)
(-0.144003 -0.266296 -1.27333e-21)
(-0.151845 -0.283849 -2.77533e-21)
(-0.159119 -0.302305 -5.47247e-21)
(-0.0141907 -0.0402895 -1.84197e-20)
(-0.0219571 -0.0576045 8.45843e-21)
(-0.0307371 -0.0753627 5.06997e-20)
(-0.0402906 -0.0928678 -3.09173e-20)
(-0.0504097 -0.109701 5.12078e-21)
(-0.0609037 -0.125701 2.46713e-20)
(-0.0715955 -0.140911 4.72781e-23)
(-0.0823259 -0.155518 1.44348e-20)
(-0.0929598 -0.169783 -1.8929e-20)
(-0.103395 -0.183985 1.96414e-20)
(-0.113564 -0.198378 -1.66498e-20)
(-0.123441 -0.213174 -6.48071e-21)
(-0.133025 -0.228539 3.21202e-20)
(-0.142343 -0.244603 -1.01541e-20)
(-0.151442 -0.261468 1.52497e-21)
(-0.160262 -0.2792 -1.85761e-20)
(-0.168696 -0.297849 -2.05832e-21)
(-0.0147055 -0.0357882 4.67184e-20)
(-0.0227329 -0.0524306 -3.70942e-20)
(-0.0318107 -0.069688 -5.71329e-20)
(-0.0416906 -0.0868363 5.15341e-20)
(-0.0521572 -0.103437 -1.40174e-20)
(-0.0630123 -0.119313 -6.82553e-21)
(-0.0740736 -0.134494 -3.48544e-20)
(-0.0851793 -0.14915 9.58794e-21)
(-0.0961955 -0.163525 3.33264e-20)
(-0.107025 -0.177875 -6.57223e-21)
(-0.117611 -0.192435 2.69587e-20)
(-0.127939 -0.207397 -2.21774e-20)
(-0.13803 -0.222913 -6.43547e-21)
(-0.14793 -0.239107 5.15478e-20)
(-0.157707 -0.256084 -3.17416e-21)
(-0.167329 -0.273924 7.97723e-20)
(-0.176725 -0.292687 -1.91696e-20)
(-0.0153165 -0.0310134 -4.375e-20)
(-0.0235813 -0.0469507 2.61253e-20)
(-0.0329188 -0.0636893 -5.09213e-21)
(-0.0430749 -0.0804739 -8.67246e-20)
(-0.0538277 -0.0968432 -9.17061e-21)
(-0.0649732 -0.1126 -1.86647e-20)
(-0.0763242 -0.127758 -3.2235e-21)
(-0.0877164 -0.142467 -3.19255e-20)
(-0.0990165 -0.156952 3.60744e-20)
(-0.110131 -0.171445 -5.27386e-20)
(-0.121013 -0.186157 -1.60758e-21)
(-0.13166 -0.20126 1.40912e-20)
(-0.142109 -0.21689 -1.09081e-19)
(-0.152426 -0.233165 -8.72809e-20)
(-0.162704 -0.250192 4.69757e-20)
(-0.172935 -0.268065 -6.18773e-20)
(-0.183076 -0.286861 1.26624e-21)
(-0.0160239 -0.0259973 -2.17988e-21)
(-0.0244983 -0.0412004 1.33537e-20)
(-0.0340527 -0.0574037 1.76281e-21)
(-0.0444295 -0.0738183 4.4579e-20)
(-0.0554025 -0.0899567 5.24557e-20)
(-0.0667628 -0.1056 2.21314e-20)
(-0.0783191 -0.12074 7.70611e-20)
(-0.0899044 -0.135508 -8.83571e-20)
(-0.101386 -0.150102 -1.82727e-20)
(-0.112673 -0.164732 3.83616e-20)
(-0.123724 -0.179584 -6.6747e-20)
(-0.134549 -0.194807 3.0189e-20)
(-0.145198 -0.210519 6.87375e-20)
(-0.155759 -0.226827 1.57466e-20)
(-0.166346 -0.243842 2.38397e-20)
(-0.176976 -0.261676 -3.73472e-20)
(-0.187626 -0.280418 3.96112e-21)
(-0.016826 -0.0207764 3.85436e-20)
(-0.0254788 -0.0352181 3.34753e-20)
(-0.0352026 -0.050871 1.48843e-20)
(-0.0457403 -0.0669095 2.84269e-20)
(-0.056863 -0.082817 -1.94758e-20)
(-0.0683583 -0.0983503 -1.20311e-19)
(-0.0800313 -0.113478 -1.07046e-19)
(-0.0917125 -0.128308 -6.92365e-20)
(-0.103268 -0.143013 2.57519e-20)
(-0.114609 -0.157778 -1.45125e-20)
(-0.125699 -0.17276 1.10039e-19)
(-0.136554 -0.188084 -3.92303e-20)
(-0.14724 -0.203849 3.19868e-20)
(-0.157859 -0.220149 4.55886e-20)
(-0.168553 -0.237094 -2.51694e-20)
(-0.179357 -0.254815 2.22407e-19)
(-0.190264 -0.273413 -8.38283e-20)
(-0.0177202 -0.0153879 -2.40851e-20)
(-0.026516 -0.0290451 1.0878e-20)
(-0.0363583 -0.0441328 1.66385e-20)
(-0.0469926 -0.0597887 5.52327e-20)
(-0.0581904 -0.0754647 1.23147e-20)
(-0.0697372 -0.0908906 3.43947e-21)
(-0.0814349 -0.10601 1.92538e-19)
(-0.0931113 -0.120905 1.43453e-19)
(-0.104631 -0.135724 -8.57182e-20)
(-0.115904 -0.150621 -1.24389e-20)
(-0.126897 -0.165728 -3.32392e-20)
(-0.137631 -0.18114 3.27573e-20)
(-0.14818 -0.196934 -1.72545e-19)
(-0.158665 -0.213187 -3.62124e-20)
(-0.169251 -0.230009 -5.29689e-20)
(-0.179993 -0.247543 -1.27008e-19)
(-0.190887 -0.265906 6.9135e-20)
(-0.0187014 -0.00987309 -3.2398e-20)
(-0.0276025 -0.0227234 -2.94094e-20)
(-0.0375081 -0.0372327 4.66251e-20)
(-0.0481715 -0.0524986 -7.72974e-20)
(-0.0593666 -0.0679409 -1.01589e-20)
(-0.0708779 -0.0832605 1.44347e-19)
(-0.0825052 -0.0983742 -9.14824e-20)
(-0.0940731 -0.113338 -3.72762e-20)
(-0.105443 -0.128272 4.31955e-20)
(-0.116524 -0.143302 -1.13004e-20)
(-0.127281 -0.158531 -5.73408e-21)
(-0.137737 -0.174023 4.83877e-20)
(-0.147974 -0.189829 -1.28837e-19)
(-0.158124 -0.206006 4.33313e-20)
(-0.168379 -0.222655 -3.33934e-20)
(-0.178809 -0.239932 -7.42795e-20)
(-0.189408 -0.257967 2.63559e-20)
(-0.0287283 -0.0162983 1.06391e-19)
(-0.0386397 -0.0302152 -1.09422e-19)
(-0.0492617 -0.0450829 -5.37239e-20)
(-0.060373 -0.0602875 -9.25057e-20)
(-0.0717593 -0.0754999 -1.00311e-19)
(-0.0832184 -0.0906089 -6.60846e-20)
(-0.0945719 -0.105643 -8.8848e-20)
(-0.105677 -0.120694 1.59458e-19)
(-0.116439 -0.135861 -1.70112e-20)
(-0.126818 -0.151212 -3.71141e-20)
(-0.136838 -0.166782 -1.9151e-19)
(-0.14658 -0.18259 1.05652e-19)
(-0.15619 -0.198668 2.52287e-20)
(-0.165883 -0.215103 6.54801e-20)
(-0.175741 -0.232057 4.42343e-20)
(-0.185748 -0.249668 -1.19016e-19)
(-0.0298828 -0.00981481 9.60238e-20)
(-0.0397397 -0.0231262 -7.43858e-20)
(-0.0502473 -0.037586 1.5916e-19)
(-0.0611918 -0.0525469 8.59449e-21)
(-0.0723611 -0.0676489 1.4568e-19)
(-0.0835521 -0.0827523 -8.49089e-20)
(-0.0945829 -0.0978575 1.34379e-19)
(-0.105306 -0.113029 -1.32996e-19)
(-0.11562 -0.128335 -1.18438e-19)
(-0.125478 -0.143813 1.0079e-19)
(-0.1349 -0.159466 3.55164e-19)
(-0.143965 -0.175275 -1.95547e-19)
(-0.152824 -0.191239 1.59056e-19)
(-0.161718 -0.207428 3.6905e-20)
(-0.170739 -0.223998 -1.36419e-19)
(-0.179846 -0.241092 1.14362e-19)
(-0.0310535 -0.00331979 -7.39958e-20)
(-0.0407939 -0.0160119 1.73669e-19)
(-0.0511124 -0.030053 -3.11134e-20)
(-0.061805 -0.0447619 3.79641e-21)
(-0.0726635 -0.059748 -2.01953e-19)
(-0.0834846 -0.0748423 1.26606e-19)
(-0.0940829 -0.0900177 2.96242e-20)
(-0.104305 -0.105311 -3.95263e-20)
(-0.11404 -0.120761 4.8019e-20)
(-0.123235 -0.136376 -1.88404e-19)
(-0.131896 -0.15212 -1.03559e-19)
(-0.140099 -0.167938 2.18529e-19)
(-0.147997 -0.183787 -1.21516e-19)
(-0.155852 -0.199707 -1.72721e-19)
(-0.163762 -0.21584 3.18188e-19)
(-0.171655 -0.232325 4.29821e-22)
(-0.0322272 0.00313984 -4.88559e-20)
(-0.0417878 -0.00891945 -5.6522e-20)
(-0.0518411 -0.0225291 -2.39211e-19)
(-0.0621953 -0.0369756 2.889e-20)
(-0.0726477 -0.0518373 -1.00755e-19)
(-0.0829954 -0.0669168 3.49963e-19)
(-0.0930498 -0.0821593 -2.02269e-19)
(-0.10265 -0.0975749 1.22375e-19)
(-0.111677 -0.113176 -3.72336e-20)
(-0.120063 -0.128937 2.05535e-19)
(-0.127803 -0.144789 1.71525e-20)
(-0.134961 -0.160632 -1.7517e-19)
(-0.141685 -0.176376 -3.19452e-20)
(-0.14826 -0.192019 6.64181e-21)
(-0.154787 -0.207674 -1.17355e-20)
(-0.161142 -0.22346 2.19789e-19)
(-0.0333898 0.00951706 -1.21159e-20)
(-0.0427063 -0.00189573 -9.61508e-20)
(-0.0524174 -0.01506 2.11404e-19)
(-0.0623456 -0.0292311 -2.40312e-20)
(-0.0722953 -0.0439575 2.55019e-19)
(-0.082065 -0.0590133 -2.81252e-19)
(-0.0914629 -0.0743175 7.34157e-20)
(-0.100321 -0.0898548 8.74419e-20)
(-0.108508 -0.105611 -2.44872e-21)
(-0.115941 -0.121533 -1.56561e-21)
(-0.122599 -0.137514 -1.6422e-19)
(-0.12853 -0.153407 2.14516e-20)
(-0.133872 -0.169069 2.17639e-19)
(-0.138928 -0.184442 2.79235e-19)
(-0.1438 -0.199591 -3.28551e-19)
(-0.148291 -0.214596 -2.09659e-19)
(-0.0345264 0.0157648 1.82637e-19)
(-0.0435346 0.00501224 1.84932e-19)
(-0.0528259 -0.00769146 -7.12772e-20)
(-0.0622398 -0.021572 3.1331e-19)
(-0.0715892 -0.0361491 -3.15385e-19)
(-0.0806751 -0.0511696 1.39492e-19)
(-0.0893026 -0.0665272 1.40771e-19)
(-0.0972956 -0.082183 -1.02826e-20)
(-0.104511 -0.0980994 2.40839e-21)
(-0.110848 -0.114196 1.78527e-20)
(-0.116267 -0.13033 -1.30742e-19)
(-0.120793 -0.146308 1.28498e-19)
(-0.124549 -0.161923 -6.50118e-20)
(-0.127851 -0.17705 -1.45885e-19)
(-0.130802 -0.191682 1.8813e-19)
(-0.133104 -0.205835 3.95829e-20)
(-0.0356216 0.0218379 -1.22523e-19)
(-0.0442568 0.0117574 -1.27569e-19)
(-0.0530511 -0.000469163 2.07929e-19)
(-0.0618621 -0.0140419 -1.02927e-19)
(-0.0705131 -0.0284531 8.22621e-20)
(-0.0788084 -0.0434233 1.01167e-20)
(-0.0865505 -0.0588226 -2.25208e-20)
(-0.0935555 -0.0745907 5.64342e-20)
(-0.0996666 -0.0906691 -1.0752e-19)
(-0.104766 -0.106953 5.48204e-20)
(-0.108789 -0.123267 1.79922e-19)
(-0.111737 -0.139371 -2.62651e-19)
(-0.11371 -0.154989 -1.66762e-19)
(-0.11503 -0.169912 2.18116e-19)
(-0.115805 -0.184039 -1.25674e-19)
(-0.115593 -0.197278 -1.98054e-19)
(-0.0366589 0.0276905 -3.05125e-20)
(-0.044858 0.0182943 -1.11118e-19)
(-0.053078 0.00656123 -2.03538e-19)
(-0.0611977 -0.00668464 -1.53989e-19)
(-0.069052 -0.0209106 -3.11068e-19)
(-0.0764492 -0.0358125 3.22896e-20)
(-0.0831898 -0.0512385 -2.83402e-20)
(-0.0890824 -0.067109 -2.16905e-19)
(-0.0939565 -0.0833476 1.88826e-19)
(-0.097675 -0.0998296 2.28722e-19)
(-0.100149 -0.116351 -1.17135e-20)
(-0.10135 -0.132625 1.37846e-19)
(-0.10135 -0.148306 -6.98148e-20)
(-0.100472 -0.163087 1.19757e-20)
(-0.0988302 -0.176743 1.95365e-19)
(-0.0957887 -0.18903 4.64809e-19)
(-0.0453223 0.0245773 1.49734e-19)
(-0.0528922 0.0133548 -5.49314e-20)
(-0.060233 0.00045606 -1.57543e-19)
(-0.0671921 -0.0135632 2.53253e-19)
(-0.0735831 -0.0283759 -6.65876e-20)
(-0.0792052 -0.0438098 4.88558e-20)
(-0.0838596 -0.0597684 2.67773e-19)
(-0.0873627 -0.0761613 -3.69163e-19)
(-0.0895579 -0.0928478 -9.99086e-20)
(-0.0903302 -0.109601 -1.98088e-19)
(-0.0896212 -0.126092 3.98572e-19)
(-0.0874679 -0.141903 1.26737e-20)
(-0.0841866 -0.156622 2.18146e-19)
(-0.0799081 -0.169871 -7.55863e-20)
(-0.0737294 -0.18119 -4.43292e-19)
(-0.0456347 0.0305631 9.32561e-20)
(-0.0524802 0.0198671 -5.83205e-21)
(-0.0589554 0.00733641 4.10951e-19)
(-0.0649214 -0.00645293 1.56569e-19)
(-0.0701978 -0.0211529 -2.86694e-19)
(-0.0745832 -0.0365724 1.29443e-20)
(-0.0778721 -0.0526006 -7.88791e-21)
(-0.0798686 -0.0691358 3.94978e-19)
(-0.0803969 -0.0860271 -4.40042e-19)
(-0.0793169 -0.10303 1.19687e-19)
(-0.0765381 -0.119782 6.08165e-21)
(-0.0720589 -0.135796 -3.04931e-19)
(-0.0661826 -0.150547 -3.13851e-19)
(-0.0590729 -0.163479 -3.59715e-20)
(-0.0494635 -0.173849 4.53882e-19)
(-0.0457805 0.0362099 -3.55455e-19)
(-0.0518294 0.0260545 -9.81578e-20)
(-0.0573539 0.0139128 -2.14736e-19)
(-0.0622296 0.000377528 -1.00751e-19)
(-0.066283 -0.014184 1.78762e-19)
(-0.0693126 -0.0295635 3.64356e-19)
(-0.0711073 -0.0456379 -4.07127e-19)
(-0.0714594 -0.0622977 -1.51073e-19)
(-0.0701757 -0.079386 5.47075e-19)
(-0.0670917 -0.0966494 -1.98992e-19)
(-0.0620862 -0.113698 -2.83803e-19)
(-0.0551163 -0.129986 3.57592e-19)
(-0.0464654 -0.144872 7.41872e-20)
(-0.0363603 -0.157609 7.22866e-20)
(-0.0230402 -0.167094 -2.92857e-19)
(-0.0457462 0.0414769 6.14435e-20)
(-0.0509285 0.031875 4.18853e-19)
(-0.0554191 0.0201418 -2.62756e-19)
(-0.0591087 0.00688516 6.37794e-20)
(-0.0618308 -0.00751079 -1.24925e-19)
(-0.0633849 -0.0228223 -5.03038e-19)
(-0.0635548 -0.0389151 3.02369e-19)
(-0.0621226 -0.055675 2.45358e-19)
(-0.0588792 -0.072944 -4.30165e-19)
(-0.0536378 -0.0904661 9.88379e-20)
(-0.0462492 -0.107836 3.97223e-19)
(-0.0366292 -0.12446 1.57423e-19)
(-0.0250356 -0.139584 5.42172e-20)
(-0.0118094 -0.152273 -3.13573e-19)
(0.00548617 -0.160984 -1.51823e-19)
(-0.0497677 0.0372874 -5.70697e-20)
(-0.0531436 0.0259811 3.83285e-20)
(-0.0555526 0.0130266 2.5221e-19)
(-0.056836 -0.00117623 3.1695e-19)
(-0.0567945 -0.0163895 -1.53982e-20)
(-0.0552077 -0.0324695 -6.9133e-20)
(-0.0518489 -0.0492989 -4.04679e-19)
(-0.0464948 -0.0667227 3.01735e-19)
(-0.0389396 -0.0844896 -2.68579e-20)
(-0.0290095 -0.102191 -1.78502e-19)
(-0.0165811 -0.119194 -8.90336e-19)
(-0.00188361 -0.134648 3.13587e-19)
(0.0145468 -0.147444 1.53151e-20)
(0.0360084 -0.155396 -1.89507e-19)
(-0.0483386 0.0422531 -3.54532e-19)
(-0.0505215 0.0313885 2.2074e-19)
(-0.0515577 0.0187585 -2.4411e-20)
(-0.051296 0.00477586 -5.02191e-19)
(-0.0495389 -0.0103082 9.49962e-20)
(-0.0460626 -0.0263413 5.40674e-20)
(-0.0406324 -0.0432043 -9.40285e-20)
(-0.0330135 -0.0607482 2.45816e-19)
(-0.0229839 -0.0787322 4.77608e-19)
(-0.0103496 -0.0967546 -3.09599e-19)
(0.0050477 -0.114163 2.46822e-19)
(0.0230194 -0.130026 6.17779e-20)
(0.0427808 -0.143074 3.4115e-19)
(0.0683835 -0.14998 1.52729e-19)
(-0.0466337 0.0467357 4.06332e-19)
(-0.0475486 0.0363239 -2.92734e-19)
(-0.0471221 0.0240379 8.94522e-20)
(-0.0452109 0.010301 3.6681e-19)
(-0.0416189 -0.00462321 3.51053e-19)
(-0.0361196 -0.0205738 1.37817e-19)
(-0.0284717 -0.0374305 5.94296e-19)
(-0.0184307 -0.0550517 -8.06584e-20)
(-0.00576182 -0.073212 -6.22777e-19)
(0.00974433 -0.0915271 3.03942e-19)
(0.0282724 -0.109342 -1.63435e-19)
(0.0496863 -0.125672 -3.722e-19)
(0.0731043 -0.139102 -2.61739e-19)
(0.102875 -0.145017 -2.61019e-19)
(-0.0446474 0.0507011 -5.21995e-19)
(-0.0442222 0.0407494 2.00349e-19)
(-0.042246 0.0288228 -1.83945e-19)
(-0.0385826 0.0153546 -3.09964e-19)
(-0.0330378 0.000619565 1.14337e-20)
(-0.0253824 -0.015213 -7.79595e-19)
(-0.0153695 -0.032021 -6.02091e-19)
(-0.00274697 -0.0496707 1.90631e-19)
(0.0127295 -0.0679549 9.51272e-20)
(0.0312798 -0.0865149 -2.04654e-19)
(0.0531063 -0.104714 7.86254e-19)
(0.0781034 -0.121547 -1.22295e-19)
(0.105365 -0.135473 3.28555e-19)
(0.139639 -0.140884 2.92692e-19)
(-0.0405404 0.0446287 2.80866e-19)
(-0.0369303 0.0330733 -1.63056e-20)
(-0.0314147 0.0198931 1.29819e-19)
(-0.023801 0.00537388 3.95264e-19)
(-0.0138573 -0.0103063 8.20917e-19)
(-0.00133203 -0.0270226 6.59255e-20)
(0.0140327 -0.0446481 -3.61282e-19)
(0.0324873 -0.0629943 6.47799e-20)
(0.0542562 -0.0817341 6.3356e-19)
(0.0795501 -0.100266 -4.2634e-19)
(0.108291 -0.117597 1.84722e-21)
(0.139459 -0.132079 3.21968e-19)
(0.178504 -0.137259 -1.97685e-19)
(-0.0365011 0.0479311 -7.11098e-20)
(-0.0311763 0.036752 -1.60013e-19)
(-0.023711 0.0238749 2.60027e-19)
(-0.0139142 0.00959457 -3.0029e-19)
(-0.00155172 -0.00590145 -9.6045e-20)
(0.0136325 -0.022484 -1.0587e-20)
(0.0319001 -0.0400308 2.54928e-19)
(0.0535038 -0.0583706 -2.29842e-19)
(0.0786667 -0.0772101 -4.30603e-19)
(0.107597 -0.0959962 -1.32875e-19)
(0.140247 -0.113772 -1.88434e-19)
(0.175381 -0.12888 -5.67277e-19)
(0.219365 -0.133924 -1.67342e-19)
(-0.0321023 0.0506282 -3.39633e-19)
(-0.0249839 0.0398261 1.9476e-19)
(-0.0154741 0.0272617 -5.82776e-19)
(-0.00338225 0.0132391 -2.90857e-19)
(0.011528 -0.00204446 5.13398e-21)
(0.0295161 -0.0184535 2.56411e-19)
(0.0508462 -0.0358675 -1.67707e-19)
(0.0757695 -0.0541288 4.25823e-19)
(0.104501 -0.0729767 -1.03372e-19)
(0.137233 -0.0919141 1.32643e-19)
(0.173952 -0.110039 5.0035e-19)
(0.213113 -0.125803 6.49337e-20)
(0.262167 -0.130741 3.12683e-19)
(-0.0183512 0.042267 -3.83156e-19)
(-0.00670355 0.0300203 1.09269e-19)
(0.00779363 0.0162696 1.04069e-20)
(0.025379 0.00122287 -2.87466e-19)
(0.0463148 -0.0149761 2.15462e-19)
(0.0708651 -0.0322048 -1.67833e-19)
(0.0992763 -0.0503145 -3.02436e-19)
(0.131747 -0.0690724 -3.93783e-19)
(0.16844 -0.0880392 9.52275e-20)
(0.209379 -0.106377 1.32513e-19)
(0.25262 -0.122771 -1.2482e-19)
(0.306852 -0.127578 5.18424e-19)
(-0.0112713 0.0440537 -1.09828e-19)
(0.0026061 0.0321235 9.12315e-19)
(0.0196183 0.0186547 6.62909e-20)
(0.0400055 0.00386539 -1.02719e-19)
(0.0640316 -0.0120902 -6.673e-19)
(0.0919584 -0.0290835 1.27887e-19)
(0.124022 -0.0469691 -3.27342e-19)
(0.160399 -0.0655349 2.1471e-19)
(0.201204 -0.084396 1.96105e-19)
(0.246496 -0.102775 -7.39162e-19)
(0.293857 -0.119717 -2.27752e-19)
(0.353335 -0.124299 -7.74775e-19)
(-0.00373267 0.0451713 3.78614e-20)
(0.012468 0.0335526 -2.7494e-19)
(0.0321056 0.0203714 3.9923e-19)
(0.055422 0.00585711 2.14688e-21)
(0.0826812 -0.0098243 5.01438e-19)
(0.114139 -0.0265344 3.38458e-19)
(0.150018 -0.0441245 5.57454e-20)
(0.190459 -0.0623948 7.0873e-19)
(0.235515 -0.0810079 -6.38425e-19)
(0.285269 -0.0992314 2.92674e-19)
(0.336772 -0.116588 2.26038e-19)
(0.401504 -0.120773 1.9233e-19)
(0.0229047 0.0342981 -4.57589e-19)
(0.0452807 0.0214077 -3.51385e-19)
(0.0716564 0.00718368 1.65959e-19)
(0.102293 -0.00819407 -4.77226e-19)
(0.137438 -0.0245738 3.21828e-20)
(0.177288 -0.0417978 1.83796e-19)
(0.221944 -0.0596691 1.40309e-19)
(0.271372 -0.0778882 4.30837e-19)
(0.325667 -0.0957419 8.94519e-20)
(0.381309 -0.113341 -3.18254e-19)
(0.451204 -0.116876 3.35134e-19)
(0.0339504 0.0343616 3.96187e-19)
(0.0591834 0.0217633 -2.03472e-19)
(0.0887528 0.00784457 6.40915e-21)
(0.122915 -0.00719954 1.14664e-19)
(0.161902 -0.0232009 2.4339e-19)
(0.205879 -0.039987 -2.91578e-20)
(0.254886 -0.0573553 -6.75627e-20)
(0.308789 -0.0750333 -3.46853e-19)
(0.367655 -0.0922963 -2.30105e-19)
(0.427408 -0.109934 -2.15102e-19)
(0.502236 -0.112492 3.40085e-19)
(0.0738682 0.0214515 1.42479e-19)
(0.106773 0.00785462 5.08598e-20)
(0.144615 -0.00682321 -2.30416e-19)
(0.187601 -0.0223947 -5.34373e-19)
(0.235852 -0.038668 2.69042e-19)
(0.289333 -0.0554275 -1.34349e-19)
(0.347785 -0.0724167 -3.26883e-20)
(0.411195 -0.0888704 5.56314e-19)
(0.475003 -0.106318 5.74601e-19)
(0.554342 -0.107517 -8.6611e-19)
(0.0894076 0.0205001 1.43982e-20)
(0.125799 0.00724491 -3.50699e-19)
(0.167478 -0.00702897 4.68206e-19)
(0.214621 -0.0221134 3.07002e-19)
(0.267287 -0.0377934 -5.96379e-19)
(0.325343 -0.0538354 -5.0462e-19)
(0.388387 -0.0699864 1.15904e-19)
(0.45624 -0.0854248 6.65212e-19)
(0.524014 -0.102429 3.02836e-19)
(0.607196 -0.101859 1.59047e-19)
(0.105889 0.0189512 -6.69113e-19)
(0.145927 0.00606369 -6.14053e-19)
(0.191609 -0.00776188 -6.10634e-20)
(0.243064 -0.0222944 -3.0953e-20)
(0.300273 -0.0372937 2.1147e-19)
(0.362975 -0.0525056 1.377e-19)
(0.43061 -0.0676664 1.76777e-19)
(0.502719 -0.0819069 -8.21836e-19)
(0.574348 -0.0981863 -2.24363e-19)
(0.660398 -0.0954611 5.79342e-19)
(0.16727 0.0043756 2.70313e-19)
(0.217123 -0.00894868 -2.5116e-19)
(0.273039 -0.0228557 -3.51195e-19)
(0.334897 -0.0370791 -4.51211e-20)
(0.402277 -0.0513449 3.55496e-19)
(0.474444 -0.06536 -2.3551e-19)
(0.550524 -0.0782571 8.94927e-20)
(0.625873 -0.0934916 1.96289e-19)
(0.713471 -0.0883224 4.89643e-19)
(0.189953 0.00226103 1.24106e-19)
(0.244141 -0.0104994 -1.68104e-19)
(0.304652 -0.0236986 4.04259e-19)
(0.371234 -0.0370444 -3.49675e-20)
(0.443274 -0.0502459 -9.28708e-20)
(0.51984 -0.0629568 -1.44694e-19)
(0.599495 -0.0744139 2.26188e-19)
(0.678381 -0.088202 -5.62327e-19)
(0.765784 -0.0804313 -7.48974e-19)
(0.272782 -0.0123098 6.29325e-19)
(0.337997 -0.0247109 -5.69654e-20)
(0.409334 -0.0370738 -1.24488e-19)
(0.48595 -0.0490953 -1.79399e-20)
(0.566699 -0.0603491 3.07627e-19)
(0.64944 -0.0703238 5.38611e-19)
(0.731555 -0.0820436 -1.49607e-19)
(0.81637 -0.0715875 5.44809e-19)
(0.303151 -0.0142647 -2.12178e-19)
(0.373141 -0.0257717 -1.56444e-19)
(0.449203 -0.0370478 -5.13846e-19)
(0.530237 -0.0477848 -1.38814e-19)
(0.614867 -0.057462 1.08241e-20)
(0.700212 -0.0659626 -3.6905e-19)
(0.785164 -0.0746049 1.81015e-19)
(0.864175 -0.0617461 -3.84461e-19)
(0.410112 -0.0267546 -2.52749e-19)
(0.490791 -0.0368468 6.18597e-19)
(0.575989 -0.0462188 3.78171e-19)
(0.664093 -0.0542739 9.20507e-20)
(0.751669 -0.0613411 -3.9368e-19)
(0.839304 -0.065766 -2.14323e-20)
(0.910051 -0.0531534 -6.18922e-19)
(0.448891 -0.0275318 -1.18421e-19)
(0.533985 -0.0363526 1.10036e-19)
(0.622965 -0.0443085 -1.97219e-19)
(0.713973 -0.0507822 -2.26912e-19)
(0.803332 -0.0564823 4.72466e-19)
(0.89337 -0.0566592 -1.46479e-19)
(0.958479 -0.0518285 2.82974e-20)
(0.578598 -0.0354505 -2.44363e-19)
(0.670852 -0.0419592 7.04348e-20)
(0.764025 -0.0469325 -8.83775e-20)
(0.85433 -0.0514295 -4.78624e-20)
(0.944078 -0.0498951 1.06993e-19)
(1.0107 -0.0539896 1.08022e-18)
(0.719283 -0.0390773 1.16416e-20)
(0.813759 -0.0426334 -4.60909e-19)
(0.90399 -0.0460169 -1.22545e-19)
(0.99165 -0.0438014 5.6711e-19)
(1.05734 -0.0513195 -6.1778e-19)
(0.76786 -0.0355834 4.66093e-19)
(0.862715 -0.0377936 1.47294e-19)
(0.951813 -0.0400915 8.16962e-19)
(1.03614 -0.0375 -5.19221e-19)
(1.09909 -0.0459708 8.18019e-19)
(0.910455 -0.0323571 1.82056e-19)
(0.997412 -0.0336012 1.0144e-19)
(1.07747 -0.0307428 -8.77712e-19)
(1.13673 -0.0390333 -4.78917e-19)
(1.04047 -0.0265581 1.43225e-19)
(1.11556 -0.0234815 6.82117e-19)
(1.17048 -0.0310594 -4.55221e-19)
(1.08074 -0.0190129 -5.15552e-19)
(1.15035 -0.0157612 3.20217e-19)
(1.2005 -0.0224337 1.47181e-19)
(1.18182 -0.00766979 -5.09998e-19)
(1.22694 -0.0134327 6.94242e-19)
(1.24997 -0.00425572 -3.46689e-19)
(1.22882 -0.0814671 -1.86252e-19)
(1.13499 -0.0762135 -5.67954e-19)
(1.19863 -0.0754685 3.30715e-19)
(1.00626 -0.0622597 -3.77477e-19)
(1.0949 -0.0708822 3.0184e-19)
(1.16409 -0.0698918 -9.92772e-20)
(0.956666 -0.0570244 -2.12975e-19)
(1.05087 -0.0661088 6.42156e-19)
(1.12504 -0.0649928 -1.49486e-19)
(0.80242 -0.0464059 7.71672e-21)
(0.904051 -0.0524509 -5.58372e-20)
(1.00301 -0.0619975 -6.22962e-19)
(1.08135 -0.0611185 -3.35164e-19)
(0.642682 -0.0368796 -3.29911e-20)
(0.746338 -0.0429943 9.24374e-20)
(0.848833 -0.0486123 3.82519e-19)
(0.951515 -0.0586051 -1.28894e-19)
(1.03295 -0.0587314 3.94784e-19)
(0.587861 -0.0349796 1.97526e-19)
(0.689434 -0.0403428 -1.96392e-19)
(0.791512 -0.0455447 -3.46698e-19)
(0.896605 -0.0559019 5.91276e-19)
(0.979727 -0.0584866 -3.7902e-19)
(0.440877 -0.0308747 -2.82473e-20)
(0.5339 -0.0339065 -3.52979e-19)
(0.632344 -0.0384285 1.32262e-19)
(0.732698 -0.0432041 2.37946e-19)
(0.838484 -0.0536536 5.84051e-21)
(0.920714 -0.0618816 5.04163e-19)
(0.312756 -0.0303549 3.35337e-19)
(0.393322 -0.0315194 -8.39975e-20)
(0.481394 -0.0336588 -2.40682e-19)
(0.57577 -0.0372067 -5.84549e-20)
(0.673175 -0.0413872 3.80278e-19)
(0.777145 -0.0507417 1.27835e-20)
(0.855036 -0.0708621 -1.77433e-19)
(0.273429 -0.0325679 7.55185e-20)
(0.348268 -0.0330065 2.38687e-19)
(0.43094 -0.0342477 1.25303e-19)
(0.520496 -0.0366703 1.44333e-19)
(0.613986 -0.0398881 -4.29963e-19)
(0.712547 -0.0449877 9.62848e-20)
(0.794294 -0.0704655 -3.58153e-19)
(0.176426 -0.0362542 2.11534e-20)
(0.237069 -0.0355765 -1.85678e-19)
(0.306107 -0.0353581 -8.51302e-20)
(0.383107 -0.0357134 -1.90224e-19)
(0.467341 -0.036902 -8.10323e-20)
(0.556496 -0.0388811 3.09683e-20)
(0.649752 -0.039797 -1.86822e-19)
(0.739485 -0.062019 -1.18136e-20)
(0.148715 -0.0404042 2.91604e-19)
(0.203873 -0.0393956 2.77449e-20)
(0.267167 -0.0386056 1.27965e-19)
(0.338391 -0.0381255 -1.89682e-19)
(0.417044 -0.0380852 2.93051e-19)
(0.501628 -0.0386753 7.78188e-20)
(0.589934 -0.0365954 1.09601e-19)
(0.684519 -0.0536841 3.84726e-19)
(0.0816241 -0.046364 2.2752e-19)
(0.124026 -0.0452675 2.20474e-20)
(0.173973 -0.0440369 9.6866e-20)
(0.231696 -0.0427782 1.32015e-19)
(0.297181 -0.0415536 -5.70692e-20)
(0.370148 -0.0403896 -2.28114e-19)
(0.449831 -0.0395768 1.12215e-19)
(0.533098 -0.0355289 -1.44189e-19)
(0.628513 -0.0481587 -4.05604e-19)
(0.0643122 -0.0518322 2.36647e-19)
(0.102351 -0.0508413 -7.53394e-20)
(0.147429 -0.0495026 -8.2104e-20)
(0.199851 -0.0478928 -2.61448e-19)
(0.259752 -0.0460444 3.56317e-19)
(0.327047 -0.0439154 -1.02536e-19)
(0.401528 -0.0417942 -6.74852e-20)
(0.479672 -0.0364187 9.65533e-20)
(0.573075 -0.0453585 3.02421e-19)
(0.0215884 -0.0580522 5.07315e-19)
(0.0495325 -0.0578892 -3.75367e-19)
(0.0836184 -0.0571108 -2.8389e-19)
(0.124225 -0.0557804 -1.88095e-19)
(0.171695 -0.053947 4.09719e-19)
(0.226273 -0.051616 -2.28452e-21)
(0.288036 -0.0487053 1.08017e-19)
(0.357162 -0.0454495 -3.99866e-19)
(0.430202 -0.0391808 2.53483e-20)
(0.519675 -0.0451272 1.88199e-19)
(0.0122272 -0.0641908 -3.9665e-20)
(0.0371427 -0.0645099 -1.01223e-19)
(0.0677029 -0.0640465 1.59078e-19)
(0.104269 -0.0628405 2.05228e-19)
(0.147198 -0.0609167 -4.97296e-19)
(0.196801 -0.0582582 -1.95748e-19)
(0.253286 -0.0547642 1.94067e-19)
(0.317076 -0.0506089 2.38672e-19)
(0.385089 -0.0438134 2.61559e-19)
(0.469354 -0.0475025 1.42372e-20)
(-0.0127268 -0.0689294 -8.44614e-20)
(0.00468261 -0.0707715 -5.47327e-20)
(0.0269625 -0.071655 2.89373e-19)
(0.0544236 -0.0716023 -2.93878e-19)
(0.0873974 -0.0706335 -1.67306e-19)
(0.126235 -0.0687541 7.45809e-20)
(0.171281 -0.0659319 1.31972e-19)
(0.222836 -0.0620647 -1.16487e-19)
(0.281458 -0.0572858 1.80221e-19)
(0.344573 -0.0503015 2.50915e-19)
(0.422894 -0.0524672 -2.42236e-19)
(-0.0167619 -0.0751528 3.30864e-19)
(-0.00123622 -0.0777516 -2.55443e-19)
(0.0187793 -0.0792714 2.94597e-19)
(0.0435535 -0.0797163 -3.76653e-20)
(0.0733817 -0.0790908 1.20242e-19)
(0.108593 -0.0773879 -7.33616e-20)
(0.149542 -0.0745684 -6.73561e-20)
(0.196587 -0.0705434 4.26773e-20)
(0.250336 -0.0654364 -4.46526e-19)
(0.308749 -0.0585756 4.47161e-20)
(0.380846 -0.0598787 2.04622e-19)
(-0.019673 -0.0816739 -5.30808e-19)
(-0.00573465 -0.0850771 6.28082e-20)
(0.0123563 -0.0872928 -1.23871e-19)
(0.0348283 -0.0883106 -1.31362e-19)
(0.0619381 -0.0881254 -5.12393e-20)
(0.0939853 -0.086724 3.67671e-19)
(0.131314 -0.0840697 -7.42587e-20)
(0.174308 -0.0800999 -7.97469e-20)
(0.223572 -0.0749585 2.534e-19)
(0.277552 -0.0685035 -1.0512e-19)
(0.343501 -0.0694932 -3.93971e-20)
(-0.0305766 -0.0829529 9.41249e-20)
(-0.0216373 -0.0884417 -5.33078e-20)
(-0.00902593 -0.0926838 1.21845e-19)
(0.00744162 -0.0956413 8.5351e-21)
(0.0279578 -0.0972946 4.08019e-19)
(0.0527425 -0.0976341 3.04495e-19)
(0.0820615 -0.096648 4.53727e-20)
(0.116237 -0.0943113 4.48278e-20)
(0.155654 -0.090598 4.65924e-20)
(0.200876 -0.0856962 9.19082e-20)
(0.250746 -0.0798902 1.07397e-19)
(0.310882 -0.0809913 1.48904e-19)
(-0.0308938 -0.0889761 2.95648e-20)
(-0.0228294 -0.0953984 3.68278e-19)
(-0.0113245 -0.100499 3.411e-19)
(0.00377775 -0.10423 -6.68669e-20)
(0.0226389 -0.106567 -5.26812e-19)
(0.0454458 -0.107501 -8.69907e-20)
(0.0724312 -0.107029 -2.1315e-19)
(0.103889 -0.105146 3.19188e-19)
(0.140186 -0.10187 7.76554e-20)
(0.181826 -0.0974475 -3.87073e-19)
(0.227949 -0.0924857 -1.79693e-19)
(0.282768 -0.0939999 -7.14819e-19)
(-0.0307608 -0.0951248 -1.38978e-19)
(-0.0234178 -0.102479 1.32469e-19)
(-0.0128389 -0.108445 -1.10103e-19)
(0.00111056 -0.112966 -2.3859e-19)
(0.0185674 -0.116019 1.75455e-19)
(0.0396905 -0.117602 -4.74915e-20)
(0.064683 -0.117726 -1.96097e-19)
(0.0938081 -0.116411 -2.5572e-19)
(0.127405 -0.113726 1.28976e-19)
(0.165904 -0.109977 8.13835e-20)
(0.208653 -0.106 -1.19135e-19)
(0.258737 -0.108119 3.50751e-19)
(-0.0341295 -0.0917244 3.24918e-20)
(-0.0303017 -0.101344 2.22975e-19)
(-0.0235601 -0.109617 -5.17479e-19)
(-0.0137664 -0.116439 -2.07651e-19)
(-0.000802445 -0.121753 7.5893e-20)
(0.0154493 -0.125539 2.64848e-20)
(0.035126 -0.127808 -9.366e-20)
(0.0584057 -0.128589 2.57155e-19)
(0.0855226 -0.127935 -1.99169e-20)
(0.116782 -0.125961 1.59855e-19)
(0.152539 -0.123032 7.40935e-20)
(0.192274 -0.120126 3.32103e-19)
(0.238225 -0.122949 1.47104e-19)
(-0.033099 -0.0970163 -1.02088e-19)
(-0.0296286 -0.107576 5.78323e-20)
(-0.0234005 -0.11674 1.77194e-19)
(-0.0142881 -0.124398 -1.78894e-19)
(-0.0021856 -0.130494 -1.94424e-19)
(0.0130107 -0.135016 2.19669e-21)
(0.031422 -0.137991 4.50376e-20)
(0.0532066 -0.139472 2.43603e-20)
(0.078573 -0.139544 -1.88698e-19)
(0.107791 -0.138369 -1.80501e-19)
(0.141147 -0.136358 -5.00818e-20)
(0.178196 -0.13456 -3.43416e-19)
(0.220586 -0.138121 -1.14206e-19)
(-0.032005 -0.1023 6.28819e-20)
(-0.0288414 -0.113759 4.02851e-20)
(-0.0230676 -0.123777 2.37578e-21)
(-0.0145662 -0.132239 4.06491e-19)
(-0.00324021 -0.139093 5.02987e-19)
(0.0110048 -0.144341 7.81645e-20)
(0.0282792 -0.148028 -1.74129e-19)
(0.0487267 -0.150233 6.82703e-20)
(0.0725347 -0.151074 3.58169e-19)
(0.0999409 -0.150752 -3.3647e-19)
(0.131168 -0.149714 -4.96559e-20)
(0.165813 -0.149025 1.40781e-19)
(0.205152 -0.153311 -2.25747e-19)
(-0.0314774 -0.0939213 1.31729e-19)
(-0.0309119 -0.107525 8.27333e-20)
(-0.0280262 -0.119835 -1.22943e-19)
(-0.0226729 -0.130658 -2.37268e-19)
(-0.0147416 -0.139881 -1.27067e-19)
(-0.0041415 -0.147459 -5.42669e-19)
(0.0092163 -0.153411 -2.44468e-19)
(0.0254358 -0.157803 2.35846e-20)
(0.044651 -0.16074 1.04339e-20)
(0.0670328 -0.162371 -4.53691e-20)
(0.0927913 -0.162932 3.62028e-19)
(0.122097 -0.162888 1.97801e-19)
(0.15457 -0.163279 -8.77813e-20)
(0.191286 -0.168255 3.04954e-19)
(-0.0303034 -0.0982063 2.76879e-19)
(-0.0298737 -0.112639 -2.20557e-19)
(-0.0272559 -0.125742 1.05408e-19)
(-0.0223107 -0.137315 2.33972e-19)
(-0.0149335 -0.147249 5.6753e-20)
(-0.00503734 -0.15551 2.21224e-19)
(0.00746409 -0.162134 4.56381e-19)
(0.0226719 -0.167212 -3.68622e-20)
(0.0407145 -0.170876 -3.62347e-19)
(0.0617512 -0.173301 1.59409e-19)
(0.08597 -0.174752 -2.0341e-19)
(0.113501 -0.175698 -2.71996e-19)
(0.14398 -0.177127 -1.80611e-19)
(0.178413 -0.182748 -1.39457e-19)
(-0.0292226 -0.102391 -3.19439e-19)