/*--------------------------------*- C++ -*----------------------------------*\
  =========                 |
  \\      /  F ield         | OpenFOAM: The Open Source CFD Toolbox
   \\    /   O peration     | Website:  https://openfoam.org
    \\  /    A nd           | Version:  7
     \\/     M anipulation  |
\*---------------------------------------------------------------------------*/
FoamFile
{
    version     2.0;
    format      ascii;
    class       volScalarField;
    location    "20";
    object      p;
}
// * * * * * * * * * * * * * * * * * * * * * * * * * * * * * * * * * * * * * //

dimensions      [0 2 -2 0 0 0 0];

internalField   nonuniform List<scalar> 
4575
(
0.00928299
0.00825885
0.00733789
0.00650573
0.00575453
0.00508134
0.00448741
0.00396759
0.00351179
0.00310279
0.00272777
0.0023768
0.00205086
0.00175026
0.00148353
0.00124626
0.0010467
0.000862304
0.000710746
0.000541281
0.000417108
0.000221896
0.000151304
0.0092823
0.00825824
0.00733735
0.00650524
0.00575408
0.00508091
0.00448701
0.00396723
0.00351149
0.00310256
0.00272759
0.00237666
0.00205075
0.00175016
0.00148343
0.00124617
0.00104661
0.000862228
0.000710677
0.000541235
0.000417055
0.000221889
0.000151209
0.00928091
0.00825701
0.00733627
0.00650429
0.0057532
0.00508007
0.00448622
0.00396652
0.0035109
0.0031021
0.00272725
0.0023764
0.00205053
0.00174996
0.00148323
0.00124598
0.00104643
0.000862075
0.000710538
0.000541143
0.000416949
0.000221875
0.000151018
0.00927881
0.00825515
0.00733465
0.00650287
0.0057519
0.00507883
0.00448505
0.00396548
0.00351003
0.00310142
0.00272674
0.00237601
0.0020502
0.00174966
0.00148294
0.0012457
0.00104616
0.000861846
0.000710329
0.000541005
0.00041679
0.000221853
0.000150732
0.009276
0.00825268
0.00733251
0.00650097
0.00575016
0.00507719
0.0044835
0.00396409
0.00350887
0.00310052
0.00272606
0.00237549
0.00204976
0.00174926
0.00148254
0.00124532
0.0010458
0.000861541
0.000710052
0.000540822
0.000416578
0.000221824
0.000150352
0.00927249
0.00824959
0.00732983
0.00649862
0.005748
0.00507514
0.00448158
0.00396237
0.00350743
0.00309939
0.00272521
0.00237483
0.00204921
0.00174876
0.00148205
0.00124485
0.00104535
0.000861162
0.000709706
0.000540593
0.000416314
0.000221788
0.000149878
0.00926828
0.00824589
0.00732662
0.0064958
0.00574543
0.00507271
0.00447929
0.00396031
0.00350571
0.00309804
0.00272418
0.00237404
0.00204855
0.00174816
0.00148147
0.00124429
0.00104481
0.00086071
0.000709295
0.00054032
0.000415998
0.000221746
0.000149313
0.00926338
0.00824158
0.00732288
0.00649252
0.00574243
0.00506988
0.00447663
0.00395793
0.00350371
0.00309646
0.00272299
0.00237312
0.00204778
0.00174746
0.00148079
0.00124365
0.0010442
0.000860188
0.000708818
0.000540005
0.000415632
0.000221696
0.000148656
0.00925778
0.00823667
0.00731862
0.00648878
0.00573903
0.00506667
0.00447362
0.00395522
0.00350142
0.00309467
0.00272162
0.00237206
0.0020469
0.00174666
0.00148001
0.00124291
0.0010435
0.000859597
0.000708278
0.000539647
0.000415215
0.00022164
0.00014791
0.0092515
0.00823116
0.00731384
0.0064846
0.00573522
0.00506309
0.00447025
0.00395218
0.00349887
0.00309264
0.00272007
0.00237087
0.0020459
0.00174576
0.00147915
0.0012421
0.00104272
0.00085894
0.000707676
0.000539248
0.000414749
0.000221577
0.000147076
0.00924455
0.00822505
0.00730855
0.00647996
0.00573101
0.00505913
0.00446653
0.00394884
0.00349604
0.00309039
0.00271835
0.00236953
0.00204479
0.00174477
0.00147819
0.0012412
0.00104187
0.00085822
0.000707015
0.000538809
0.000414235
0.000221509
0.000146157
0.00923692
0.00821836
0.00730275
0.00647489
0.00572641
0.00505481
0.00446248
0.00394518
0.00349293
0.00308792
0.00271644
0.00236805
0.00204357
0.00174368
0.00147715
0.00124023
0.00104095
0.000857439
0.000706297
0.000538332
0.000413673
0.000221434
0.000145154
0.00922864
0.00821108
0.00729644
0.00646937
0.00572142
0.00505014
0.00445809
0.00394122
0.00348956
0.00308522
0.00271436
0.00236643
0.00204222
0.00174249
0.00147603
0.00123919
0.00103995
0.0008566
0.000705524
0.000537819
0.000413066
0.000221353
0.000144071
0.0092197
0.00820324
0.00728963
0.00646343
0.00571605
0.00504512
0.00445339
0.00393696
0.00348593
0.0030823
0.00271208
0.00236466
0.00204076
0.00174121
0.00147483
0.00123807
0.0010389
0.000855707
0.000704698
0.00053727
0.000412414
0.000221268
0.000142908
0.00921012
0.00819483
0.00728234
0.00645706
0.00571031
0.00503977
0.00444837
0.00393241
0.00348203
0.00307915
0.00270963
0.00236274
0.00203918
0.00173982
0.00147354
0.00123688
0.00103778
0.000854763
0.000703823
0.000536687
0.000411718
0.000221176
0.00014167
0.00919991
0.00818586
0.00727456
0.00645027
0.0057042
0.00503408
0.00444304
0.00392758
0.00347788
0.00307578
0.00270698
0.00236066
0.00203748
0.00173835
0.00147218
0.00123564
0.00103661
0.000853771
0.0007029
0.000536072
0.00041098
0.00022108
0.000140359
0.00918908
0.00817635
0.0072663
0.00644307
0.00569774
0.00502808
0.00443743
0.00392247
0.00347347
0.00307218
0.00270414
0.00235843
0.00203565
0.00173678
0.00147074
0.00123433
0.00103538
0.000852734
0.000701932
0.000535427
0.000410201
0.000220979
0.000138978
0.00917764
0.0081663
0.00725757
0.00643546
0.00569092
0.00502177
0.00443152
0.0039171
0.00346881
0.00306835
0.00270111
0.00235604
0.0020337
0.00173511
0.00146922
0.00123296
0.0010341
0.000851656
0.000700923
0.000534754
0.000409382
0.000220873
0.000137529
0.00916561
0.00815573
0.00724838
0.00642746
0.00568376
0.00501516
0.00442535
0.00391146
0.00346391
0.0030643
0.00269788
0.00235349
0.00203162
0.00173335
0.00146764
0.00123154
0.00103277
0.000850539
0.000699874
0.000534053
0.000408526
0.000220763
0.000136018
0.00915299
0.00814465
0.00723874
0.00641906
0.00567627
0.00500825
0.0044189
0.00390557
0.00345876
0.00306002
0.00269444
0.00235077
0.00202941
0.00173149
0.00146598
0.00123007
0.00103141
0.000849388
0.000698788
0.000533328
0.000407633
0.000220649
0.000134446
0.00913981
0.00813306
0.00722866
0.00641028
0.00566845
0.00500106
0.0044122
0.00389944
0.00345337
0.00305552
0.00269081
0.00234788
0.00202707
0.00172953
0.00146426
0.00122855
0.00103
0.000848205
0.000697668
0.000532578
0.000406705
0.000220531
0.000132817
0.00912608
0.00812099
0.00721814
0.00640112
0.00566031
0.00499361
0.00440526
0.00389307
0.00344776
0.00305079
0.00268698
0.00234482
0.0020246
0.00172748
0.00146247
0.00122698
0.00102856
0.000846993
0.000696517
0.000531807
0.000405743
0.000220409
0.000131135
0.00911181
0.00810844
0.00720721
0.0063916
0.00565187
0.00498588
0.00439807
0.00388647
0.00344191
0.00304584
0.00268293
0.00234159
0.00202198
0.00172533
0.00146061
0.00122537
0.00102708
0.000845755
0.000695336
0.000531016
0.00040475
0.000220283
0.000129405
0.00909702
0.00809543
0.00719586
0.00638172
0.00564311
0.00497791
0.00439066
0.00387965
0.00343584
0.00304067
0.00267868
0.00233817
0.00201923
0.00172308
0.00145869
0.00122372
0.00102557
0.000844493
0.000694129
0.000530205
0.000403726
0.000220154
0.000127628
0.00908173
0.00808198
0.00718411
0.00637149
0.00563407
0.00496968
0.00438303
0.00387262
0.00342955
0.00303528
0.00267422
0.00233458
0.00201633
0.00172072
0.0014567
0.00122203
0.00102404
0.000843211
0.000692897
0.000529378
0.000402672
0.000220022
0.000125809
0.00906596
0.0080681
0.00717197
0.00636091
0.00562474
0.00496122
0.0043752
0.00386538
0.00342305
0.00302966
0.00266955
0.0023308
0.00201329
0.00171827
0.00145465
0.0012203
0.00102248
0.000841911
0.000691642
0.000528534
0.000401592
0.000219886
0.000123953
0.00904972
0.00805381
0.00715946
0.00635001
0.00561513
0.00495253
0.00436716
0.00385795
0.00341634
0.00302383
0.00266467
0.00232683
0.00201011
0.00171572
0.00145253
0.00121853
0.0010209
0.000840594
0.000690367
0.000527676
0.000400485
0.000219746
0.000122062
0.00903304
0.00803912
0.00714659
0.00633878
0.00560524
0.00494362
0.00435893
0.00385033
0.00340942
0.00301779
0.00265958
0.00232267
0.00200677
0.00171306
0.00145035
0.00121673
0.00101929
0.000839262
0.000689073
0.000526804
0.000399353
0.000219604
0.000120141
0.00901592
0.00802404
0.00713336
0.00632725
0.0055951
0.00493449
0.00435052
0.00384253
0.00340232
0.00301154
0.00265427
0.00231833
0.00200328
0.00171029
0.00144811
0.0012149
0.00101767
0.000837918
0.000687761
0.00052592
0.000398197
0.000219458
0.000118194
0.0089984
0.00800861
0.00711981
0.00631541
0.0055847
0.00492516
0.00434193
0.00383456
0.00339502
0.00300507
0.00264876
0.00231379
0.00199964
0.00170741
0.00144579
0.00121303
0.00101603
0.000836563
0.000686434
0.000525025
0.00039702
0.000219308
0.000116225
0.00898049
0.00799283
0.00710593
0.00630328
0.00557406
0.00491563
0.00433317
0.00382642
0.00338754
0.0029984
0.00264303
0.00230906
0.00199584
0.00170443
0.00144342
0.00121112
0.00101437
0.000835197
0.000685093
0.000524119
0.000395821
0.000219156
0.000114237
0.00896222
0.00797672
0.00709175
0.00629088
0.00556318
0.00490592
0.00432426
0.00381813
0.00337988
0.00299154
0.00263709
0.00230413
0.00199188
0.00170134
0.00144097
0.00120918
0.00101269
0.000833822
0.000683738
0.000523203
0.000394602
0.000218999
0.000112235
0.0089436
0.00796031
0.00707728
0.0062782
0.00555207
0.00489601
0.0043152
0.00380969
0.00337206
0.00298447
0.00263095
0.00229901
0.00198776
0.00169813
0.00143846
0.00120721
0.00101099
0.000832438
0.000682371
0.000522279
0.000393365
0.000218839
0.000110223
0.00892466
0.00794361
0.00706254
0.00626528
0.00554075
0.00488594
0.00430599
0.00380111
0.00336407
0.00297722
0.0026246
0.0022937
0.00198348
0.0016948
0.00143587
0.0012052
0.00100928
0.000831046
0.000680993
0.000521346
0.00039211
0.000218676
0.000108204
0.0089054
0.00792663
0.00704754
0.0062521
0.0055292
0.00487569
0.00429664
0.00379239
0.00335593
0.00296978
0.00261805
0.00228819
0.00197904
0.00169137
0.00143322
0.00120316
0.00100755
0.000829646
0.000679603
0.000520406
0.000390839
0.000218508
0.000106181
0.00888576
0.00790931
0.00703222
0.00623864
0.00551741
0.00486524
0.00428713
0.00378352
0.00334761
0.00296215
0.00261129
0.00228249
0.00197444
0.00168781
0.00143048
0.00120107
0.0010058
0.000828233
0.0006782
0.000519456
0.000389551
0.000218336
0.000104159
0.00886585
0.00789175
0.00701666
0.00622494
0.0055054
0.00485462
0.00427748
0.00377452
0.00333915
0.00295433
0.00260432
0.00227657
0.00196965
0.00168411
0.00142766
0.00119893
0.00100403
0.000826811
0.000676786
0.000518498
0.000388247
0.000218157
0.000102142
0.00884657
0.00787471
0.00700151
0.00621152
0.00549362
0.00484421
0.00426803
0.00376567
0.00333072
0.00294642
0.00259717
0.00227045
0.00196468
0.0016803
0.00142481
0.00119681
0.00100229
0.000825419
0.000675391
0.000517542
0.000386937
0.00021797
0.000100133
0.00882857
0.00785877
0.00698724
0.00619884
0.00548246
0.00483436
0.00425907
0.00375719
0.00332254
0.00293864
0.00259008
0.00226435
0.00195976
0.00167657
0.00142204
0.00119479
0.00100064
0.000824096
0.000674039
0.000516613
0.000385635
0.000217792
9.81366e-05
0.00880476
0.00783793
0.00696902
0.00618306
0.00546881
0.00482233
0.00424814
0.00374709
0.00331328
0.00293042
0.00258307
0.0022586
0.00195515
0.00167295
0.00141915
0.00119249
0.000998649
0.000822527
0.000672493
0.000515647
0.000384279
0.00021767
9.61539e-05
0.0087336
0.00777599
0.00691596
0.00613808
0.00543005
0.00478772
0.00421654
0.00371879
0.0032892
0.00291121
0.0025683
0.00224721
0.00194576
0.00166472
0.00141151
0.00118573
0.000992512
0.000817837
0.000668255
0.000513326
0.000381199
0.000217563
9.20553e-05
0.00858165
0.00764449
0.0068017
0.00603888
0.00534435
0.00471399
0.00415278
0.00366284
0.00323924
0.0028663
0.00252836
0.00221276
0.00191724
0.00164229
0.00139441
0.00117309
0.000982691
0.000810429
0.00066152
0.00050878
0.000375727
0.000216307
8.567e-05
0.00841526
0.00750033
0.00667618
0.00592969
0.00525006
0.00463313
0.0040831
0.00360162
0.00318418
0.00281627
0.00248342
0.00217378
0.001885
0.00161705
0.00137542
0.00115924
0.00097212
0.000802467
0.000654357
0.000503814
0.000369983
0.000214718
7.9473e-05
0.00824051
0.00734882
0.00654422
0.00581486
0.00515081
0.00454787
0.00400952
0.00353697
0.00312605
0.00276345
0.00243592
0.00213243
0.00185061
0.00158999
0.00135493
0.00114425
0.000960704
0.000793934
0.000646786
0.000498606
0.000364072
0.000212977
7.35412e-05
0.00805602
0.00718883
0.00640479
0.00569334
0.00504558
0.00445739
0.00393149
0.00346851
0.00306449
0.00270736
0.00238517
0.00208795
0.00181336
0.0015605
0.00133255
0.0011279
0.00094834
0.000784766
0.000638768
0.000493083
0.000357957
0.000211024
6.7888e-05
0.00786115
0.00701974
0.00625731
0.00556462
0.00493391
0.00436132
0.0038487
0.00339594
0.00299922
0.00264767
0.00233087
0.00204003
0.00177299
0.00152837
0.0013081
0.00111003
0.000934909
0.00077485
0.000630223
0.00048716
0.000351609
0.000208812
6.25479e-05
0.00765611
0.00684171
0.0061019
0.00542881
0.00481593
0.00425969
0.00376111
0.00331923
0.00293021
0.00258445
0.00227313
0.00198882
0.00172958
0.00149362
0.00128153
0.00109053
0.000920285
0.000764068
0.000621068
0.000480773
0.000345019
0.000206323
5.75576e-05
0.00744115
0.00665492
0.00593876
0.00528609
0.00469177
0.00415258
0.00366874
0.00323836
0.00285752
0.00251783
0.00221214
0.00193447
0.00168325
0.00145628
0.00125278
0.0010693
0.000904343
0.000752307
0.000611224
0.000473862
0.000338175
0.000203543
5.29416e-05
0.00721647
0.00645951
0.00576798
0.00513658
0.00456151
0.00404003
0.00357159
0.00315333
0.00278117
0.00244789
0.00214803
0.00187716
0.00163412
0.00141638
0.00122182
0.00104624
0.000886973
0.000739457
0.000600614
0.000466367
0.000331058
0.000200452
4.87122e-05
0.00698222
0.00625557
0.00558964
0.00498035
0.00442524
0.00392207
0.00346964
0.0030641
0.00270116
0.0023747
0.00208093
0.00181703
0.00158232
0.001374
0.00118863
0.00102128
0.00086808
0.000725419
0.00058916
0.000458224
0.000323647
0.000197035
4.48715e-05
0.00673852
0.0060432
0.00540381
0.00481747
0.004283
0.00379876
0.00336288
0.00297065
0.00261748
0.0022983
0.00201096
0.00175423
0.00152799
0.00132922
0.00115324
0.000994393
0.000847586
0.000710105
0.000576792
0.000449376
0.000315917
0.000193278
4.14115e-05
0.00648552
0.00582246
0.00521055
0.00464798
0.00413486
0.0036701
0.00325133
0.00287295
0.00253013
0.00221876
0.00193823
0.00168892
0.00147126
0.00128215
0.00111569
0.000965541
0.000825433
0.00069344
0.000563448
0.00043977
0.000307845
0.000189167
3.83158e-05
0.00622333
0.00559343
0.0050099
0.00447195
0.00398086
0.00353614
0.00313497
0.00277098
0.0024391
0.00213609
0.00186283
0.00162121
0.00141229
0.00123287
0.00107602
0.000934728
0.000801584
0.000675369
0.000549077
0.000429361
0.000299406
0.000184695
3.55604e-05
0.00595208
0.0053562
0.0048019
0.00428939
0.00382103
0.0033969
0.0030138
0.00266473
0.00234438
0.00205032
0.00178483
0.00155123
0.00135118
0.00118152
0.0010343
0.000901969
0.000776021
0.000655851
0.000533639
0.000418113
0.000290577
0.000179854
3.31153e-05
0.00567188
0.00511082
0.00458661
0.00410034
0.0036554
0.0032524
0.00288784
0.00255419
0.00224595
0.00196146
0.00170427
0.00147906
0.00128806
0.00112817
0.000990611
0.000867296
0.000748742
0.000634862
0.000517105
0.000405998
0.000281337
0.000174643
3.09465e-05
0.00538287
0.0048574
0.00436407
0.00390484
0.003484
0.00310265
0.00275709
0.00243935
0.00214381
0.00186953
0.00162121
0.00140478
0.00122302
0.00107293
0.000945016
0.000830754
0.000719764
0.000612395
0.000499457
0.000392997
0.000271667
0.000169061
2.90171e-05
0.00508519
0.00459603
0.00413435
0.00370292
0.00330684
0.00294768
0.00262157
0.00232022
0.00203796
0.00177454
0.00153568
0.00132845
0.00115615
0.0010159
0.000897598
0.000792395
0.000689114
0.000588454
0.000480686
0.000379098
0.00026155
0.000163111
2.72886e-05
0.004779
0.00432682
0.00389752
0.00349463
0.00312397
0.00278751
0.00248128
0.0021968
0.00192841
0.00167648
0.00144769
0.00125012
0.00108751
0.000957139
0.000848434
0.000752281
0.00065683
0.000563057
0.000460794
0.000364299
0.000250972
0.000156798
2.57231e-05
0.00446451
0.00404993
0.00365368
0.00328004
0.00293543
0.00262218
0.00233627
0.00206913
0.00181516
0.00157539
0.00135729
0.00116983
0.00101716
0.000896732
0.000797599
0.000710475
0.000622959
0.00053623
0.00043979
0.000348604
0.000239921
0.000150128
2.42834e-05
0.00414192
0.0037655
0.00340296
0.00305922
0.00274127
0.00245174
0.00218657
0.00193722
0.00169826
0.00147128
0.00126449
0.00108762
0.000945161
0.000834745
0.000745168
0.000667047
0.000587555
0.00050801
0.000417691
0.000332023
0.000228389
0.00014311
2.2934e-05
0.00381149
0.00347375
0.00314549
0.00283229
0.00254158
0.00227623
0.00203224
0.00180113
0.00157772
0.00136417
0.00116932
0.00100352
0.000871559
0.00077124
0.000691211
0.000622066
0.000550675
0.000478439
0.000394519
0.00031457
0.00021637
0.000135754
2.16417e-05
0.00347352
0.0031749
0.00288146
0.00259937
0.00233644
0.00209575
0.00187332
0.0016609
0.0014536
0.00125412
0.00107182
0.000917574
0.000796399
0.000706277
0.0006358
0.000575604
0.000512381
0.000447564
0.000370299
0.000296267
0.000203861
0.000128069
2.03762e-05
0.00312833
0.00286921
0.00261107
0.00236063
0.00212598
0.00191036
0.00170992
0.00151662
0.00132597
0.00114116
0.000972019
0.000829818
0.000719728
0.000639915
0.000579001
0.000527731
0.000472737
0.000415436
0.000345064
0.000277136
0.000190861
0.000120066
1.91101e-05
0.00277628
0.00255697
0.00233456
0.00211623
0.00191033
0.0017202
0.00154211
0.00136837
0.00119489
0.00102536
0.000869978
0.000740293
0.000641591
0.000572207
0.000520881
0.000478519
0.000431808
0.000382111
0.000318848
0.000257205
0.000177371
0.000111757
1.7819e-05
0.00241777
0.00223851
0.00205218
0.00186639
0.00168965
0.00152539
0.00137002
0.00121625
0.00106045
0.000906801
0.000765748
0.000649047
0.000562035
0.000503209
0.000461506
0.00042804
0.000389659
0.000347645
0.000291688
0.000236504
0.000163398
0.000103151
1.6482e-05
0.00205326
0.00191421
0.00176424
0.00161135
0.00146413
0.00132608
0.00119377
0.00106038
0.000922768
0.000785555
0.000659396
0.00055613
0.000481106
0.000432976
0.000400937
0.000376363
0.000346357
0.000312098
0.000263624
0.000215064
0.000148948
9.42617e-05
1.50809e-05
0.00168322
0.00158446
0.00147108
0.00135137
0.001234
0.00112245
0.00101353
0.0009009
0.000781953
0.000661724
0.000550995
0.0004616
0.000398856
0.000361561
0.000339239
0.000323558
0.00030197
0.00027553
0.0002347
0.00019292
0.000134032
8.51003e-05
1.36007e-05
0.00130817
0.0012497
0.00117305
0.00108677
0.000999479
0.000914707
0.000829457
0.000737962
0.000638144
0.000535421
0.00044063
0.000365518
0.000315337
0.000289019
0.000276473
0.000269694
0.000256564
0.000238004
0.000204959
0.000170109
0.000118661
7.56792e-05
1.20291e-05
0.00092869
0.000910422
0.000870564
0.000817851
0.000760852
0.000703068
0.000641764
0.000571745
0.000491496
0.000406769
0.000328393
0.000267953
0.000230603
0.000215405
0.0002127
0.00021484
0.000210208
0.000199583
0.000174451
0.000146669
0.000102853
6.60113e-05
1.03566e-05
0.000545372
0.000567132
0.000564053
0.000544996
0.000518416
0.000487792
0.000450668
0.00040245
0.000342179
0.000275905
0.000214387
0.000168981
0.000144716
0.000140778
0.000147983
0.000159065
0.000162969
0.00016033
0.000143223
0.000122642
8.6626e-05
5.61102e-05
8.57609e-06
0.000158865
0.00022039
0.00025399
0.000268594
0.000272502
0.000269164
0.00025642
0.000230295
0.000190383
0.000142981
9.87257e-05
6.86818e-05
5.77374e-05
6.51957e-05
8.23847e-05
0.000102437
0.000114916
0.000120314
0.000111329
9.80688e-05
7.00005e-05
4.59902e-05
6.68285e-06
-0.000230147
-0.000129211
-5.91163e-05
-1.09246e-05
2.34742e-05
4.7495e-05
5.92969e-05
5.55269e-05
3.6314e-05
8.1631e-06
-1.84677e-05
-3.28533e-05
-3.02625e-05
-1.12783e-05
1.59694e-05
4.50274e-05
6.61192e-05
7.95996e-05
7.88215e-05
7.29947e-05
5.30011e-05
3.56666e-05
4.67418e-06
-0.000620939
-0.000481041
-0.000374721
-0.000293094
-0.00022827
-0.000176869
-0.000140397
-0.000121588
-0.000119799
-0.000128367
-0.000137063
-0.000135526
-0.000119208
-8.85764e-05
-5.11944e-05
-1.30913e-05
1.66516e-05
3.82577e-05
4.57585e-05
4.74662e-05
3.56546e-05
2.51556e-05
2.54937e-06
-0.00101275
-0.000834427
-0.000692242
-0.000577415
-0.0004823
-0.000403549
-0.000342329
-0.000300758
-0.000277708
-0.00026641
-0.0002569
-0.000239225
-0.000209014
-0.000166625
-0.000119034
-7.18437e-05
-3.34124e-05
-3.64024e-06
1.21992e-05
2.15319e-05
1.79906e-05
1.44747e-05
3.09466e-07
-0.00140478
-0.00118866
-0.00101106
-0.000863349
-0.000738147
-0.000632135
-0.000546133
-0.000481662
-0.000437144
-0.000405751
-0.000377818
-0.00034383
-0.000299588
-0.000245342
-0.000187472
-0.00013115
-8.39946e-05
-4.60197e-05
-2.17935e-05
-4.75675e-06
4.17499e-08
3.64269e-06
-2.04281e-06
-0.001543
-0.00133052
-0.00115032
-0.000995307
-0.000862181
-0.000751414
-0.000663955
-0.000597815
-0.000546156
-0.000499639
-0.000449203
-0.000390822
-0.000324636
-0.000256422
-0.000190925
-0.000135012
-8.88026e-05
-5.61537e-05
-3.13458e-05
-1.81566e-05
-7.32005e-06
-4.50322e-06
-0.00189667
-0.00164993
-0.00143772
-0.00125324
-0.0010932
-0.000957742
-0.000847264
-0.000759406
-0.000687369
-0.000622166
-0.000555195
-0.000482597
-0.000404404
-0.00032579
-0.000251076
-0.000186378
-0.000131907
-9.08112e-05
-5.81784e-05
-3.65657e-05
-1.83916e-05
-7.06609e-06
-0.00224883
-0.00196854
-0.00172489
-0.00151136
-0.00132468
-0.00116466
-0.00103118
-0.000921582
-0.000829114
-0.000745177
-0.000661634
-0.000574777
-0.000484531
-0.000395469
-0.000311502
-0.000237997
-0.000175245
-0.000125692
-8.51939e-05
-5.51441e-05
-2.95483e-05
-9.72438e-06
-0.00259864
-0.0022856
-0.00201114
-0.00176904
-0.00155606
-0.00137166
-0.00121528
-0.00108398
-0.000971096
-0.000868432
-0.00076833
-0.000667207
-0.000564884
-0.000465342
-0.000372095
-0.000289767
-0.000218723
-0.000160716
-0.000112328
-7.38465e-05
-4.07643e-05
-1.24698e-05
-0.0029452
-0.0026003
-0.00229574
-0.00202563
-0.00178674
-0.00157822
-0.0013991
-0.00124618
-0.00111299
-0.000991681
-0.000875073
-0.000759713
-0.000645314
-0.000535275
-0.00043273
-0.000341577
-0.000262243
-0.000195798
-0.000139513
-9.26243e-05
-5.20119e-05
-1.52926e-05
-0.00328759
-0.00291177
-0.00257792
-0.00228043
-0.00201609
-0.00178378
-0.00158213
-0.00140778
-0.00125443
-0.00111463
-0.000981627
-0.000852096
-0.000725649
-0.000605119
-0.000493275
-0.000393307
-0.000305695
-0.000230848
-0.000166675
-0.000111425
-6.3261e-05
-1.81821e-05
-0.00362484
-0.00321913
-0.00285685
-0.00253268
-0.00224343
-0.00198771
-0.00176384
-0.00156832
-0.00139504
-0.00123696
-0.00108772
-0.000944133
-0.0008057
-0.000674705
-0.000553578
-0.000444822
-0.000348963
-0.000265767
-0.000193736
-0.000130192
-7.44789e-05
-2.11261e-05
-0.00395596
-0.00352147
-0.00313169
-0.00278161
-0.00246804
-0.00218939
-0.00194367
-0.00172731
-0.00153441
-0.0013583
-0.00119306
-0.00103558
-0.000885249
-0.000743847
-0.000613474
-0.000495978
-0.00039192
-0.000300449
-0.000220611
-0.000148864
-8.56303e-05
-2.41113e-05
-0.0042799
-0.0038178
-0.00340153
-0.00302637
-0.00268917
-0.00238812
-0.00212103
-0.00188423
-0.00167208
-0.00147828
-0.00129732
-0.00112614
-0.000964056
-0.000812333
-0.00067278
-0.000546614
-0.000434428
-0.000334778
-0.00024721
-0.000167376
-9.6677e-05
-2.71233e-05
-0.0045956
-0.00410712
-0.00366544
-0.0032661
-0.00290601
-0.00258319
-0.00229526
-0.00203852
-0.00180755
-0.00159648
-0.00140015
-0.00121552
-0.00104185
-0.00087993
-0.000731291
-0.000596555
-0.000476339
-0.000368633
-0.000273436
-0.000185656
-0.000107578
-3.01461e-05
-0.00490196
-0.00438838
-0.00392242
-0.00349988
-0.00311772
-0.00277383
-0.00246567
-0.00218956
-0.00194033
-0.00171247
-0.00150114
-0.00130337
-0.00111833
-0.000946379
-0.000788785
-0.00064561
-0.000517489
-0.000401877
-0.000299183
-0.000203629
-0.000118287
-3.31628e-05
-0.00519782
-0.0046605
-0.00417145
-0.00372675
-0.00332342
-0.00295922
-0.00263154
-0.00233671
-0.00206985
-0.00182574
-0.00159987
-0.00138932
-0.00119318
-0.0010114
-0.000845017
-0.000693569
-0.000557702
-0.000434368
-0.000324339
-0.000221212
-0.000128759
-3.61552e-05
-0.00548201
-0.00492233
-0.00441145
-0.0039457
-0.00352215
-0.00313852
-0.00279209
-0.0024793
-0.0021955
-0.00193575
-0.00169586
-0.00147294
-0.00126602
-0.00107467
-0.000899719
-0.000740205
-0.000596786
-0.000465948
-0.000348782
-0.000238318
-0.00013894
-3.91036e-05
-0.00575331
-0.00517271
-0.0046413
-0.00415566
-0.00371296
-0.00331083
-0.00294654
-0.00261659
-0.0023166
-0.00204191
-0.0017886
-0.00155379
-0.00133648
-0.00113587
-0.000952599
-0.00078527
-0.000634536
-0.00049645
-0.000372383
-0.000254853
-0.000148775
-4.19871e-05
-0.00601045
-0.00541041
-0.00485983
-0.00435555
-0.0038948
-0.0034752
-0.00309401
-0.00274782
-0.00243247
-0.00214361
-0.00187753
-0.00163139
-0.00140412
-0.00119461
-0.00100334
-0.000828498
-0.00067073
-0.000525693
-0.000395001
-0.000270716
-0.000158205
-4.47835e-05
-0.00625212
-0.00563415
-0.00506583
-0.0045442
-0.00406661
-0.00363065
-0.0032336
-0.00287215
-0.00254238
-0.00224019
-0.00196207
-0.00170521
-0.00146848
-0.0012505
-0.00105161
-0.000869601
-0.000705129
-0.000553484
-0.000416489
-0.0002858
-0.000167166
-4.74694e-05
-0.00647695
-0.00584262
-0.00525802
-0.00472041
-0.00422724
-0.00377612
-0.00336435
-0.00298873
-0.00264555
-0.00233094
-0.00204159
-0.00177468
-0.00152908
-0.00130313
-0.00109704
-0.000908274
-0.000737478
-0.000579619
-0.000436686
-0.000299991
-0.000175591
-5.00198e-05
-0.00668354
-0.00603443
-0.00543507
-0.00488293
-0.00437553
-0.00391053
-0.00348526
-0.00309663
-0.00274111
-0.00241511
-0.00211541
-0.00183923
-0.00158539
-0.00135203
-0.00113924
-0.000944188
-0.000767506
-0.000603877
-0.000455424
-0.000313167
-0.000183408
-5.24088e-05
-0.00687039
-0.00620814
-0.0055956
-0.00503043
-0.00451024
-0.00403273
-0.0035953
-0.0031949
-0.00282819
-0.00249191
-0.00218283
-0.00189821
-0.00163686
-0.00139672
-0.0011778
-0.000976998
-0.000794926
-0.000626027
-0.000472527
-0.000325203
-0.000190543
-5.46093e-05
-0.00703597
-0.00636224
-0.00573816
-0.00516154
-0.00463008
-0.00414154
-0.00369334
-0.00328254
-0.00290587
-0.00256053
-0.00224311
-0.00195096
-0.0016829
-0.00143671
-0.00121229
-0.00100634
-0.000819436
-0.000645825
-0.000487806
-0.000335964
-0.000196915
-5.65933e-05
-0.00717862
-0.00649515
-0.00586123
-0.00527481
-0.0047337
-0.00423567
-0.00377822
-0.00335854
-0.00297361
-0.00262014
-0.00229547
-0.0019968
-0.00172292
-0.00147146
-0.00124226
-0.00103182
-0.000840718
-0.000663017
-0.000501064
-0.00034531
-0.000202442
-5.8332e-05
-0.00729664
-0.0066052
-0.00596321
-0.00536875
-0.00481968
-0.00431383
-0.00384875
-0.00342173
-0.00302996
-0.00266978
-0.00233908
-0.002035
-0.00175627
-0.00150043
-0.00126723
-0.00105306
-0.000858442
-0.000677336
-0.000512098
-0.000353095
-0.000207037
-5.97973e-05
-0.00738821
-0.00669064
-0.00604244
-0.00544176
-0.00488655
-0.00437464
-0.00390365
-0.00347092
-0.00307367
-0.00270846
-0.0023731
-0.00206481
-0.0017823
-0.00152303
-0.00128672
-0.00106963
-0.000872267
-0.000688507
-0.000520697
-0.000359169
-0.000210609
-6.09631e-05
-0.00745136
-0.00674961
-0.00609715
-0.0054922
-0.00493276
-0.00441668
-0.00394162
-0.00350494
-0.00310391
-0.00273523
-0.00239667
-0.00208546
-0.00180034
-0.0015387
-0.00130022
-0.00108111
-0.000881842
-0.000696247
-0.000526643
-0.000363381
-0.000213055
-6.18067e-05
-0.00748405
-0.00678013
-0.00612547
-0.00551833
-0.0049567
-0.00443847
-0.0039613
-0.00352258
-0.0031196
-0.00274911
-0.0024089
-0.00209618
-0.0018097
-0.00154683
-0.00130722
-0.00108708
-0.000886802
-0.000700277
-0.000529706
-0.00036559
-0.000214273
-6.22938e-05
-0.00823994
-0.00748517
-0.0067812
-0.00612647
-0.00551927
-0.00495758
-0.00443929
-0.00396207
-0.00352329
-0.00312025
-0.00274972
-0.00240944
-0.00209667
-0.00181014
-0.00154723
-0.00130757
-0.00108737
-0.000887054
-0.000700482
-0.000529865
-0.000365703
-0.000214341
-6.23163e-05
-0.00820518
-0.00745249
-0.00675067
-0.00609815
-0.00549314
-0.00493364
-0.0044175
-0.00394239
-0.00350565
-0.00310456
-0.00273583
-0.00239722
-0.00208595
-0.00180078
-0.00153909
-0.00130057
-0.00108141
-0.000882094
-0.000696452
-0.000526802
-0.000363494
-0.000213123
-6.18292e-05
-0.00813798
-0.00738933
-0.0066917
-0.00604344
-0.0054427
-0.00488743
-0.00437546
-0.00390441
-0.00347163
-0.00307432
-0.00270906
-0.00237365
-0.0020653
-0.00178274
-0.00152343
-0.00128706
-0.00106993
-0.000872518
-0.000688711
-0.000520855
-0.000359282
-0.000210677
-6.09855e-05
-0.00804052
-0.00729776
-0.00660626
-0.00596421
-0.00536968
-0.00482056
-0.00431464
-0.00384951
-0.00342243
-0.00303061
-0.00267037
-0.00233962
-0.00203549
-0.00175671
-0.00150082
-0.00126757
-0.00105335
-0.000858691
-0.000677539
-0.000512256
-0.000353208
-0.000207105
-5.98196e-05
-0.00791478
-0.00717974
-0.0064962
-0.00586222
-0.00527574
-0.00473458
-0.00423649
-0.00377898
-0.00335924
-0.00297425
-0.00262073
-0.002296
-0.00199729
-0.00172336
-0.00147185
-0.0012426
-0.00103212
-0.000840966
-0.000663219
-0.000501221
-0.000345422
-0.000202509
-5.83543e-05
-0.00776267
-0.00703708
-0.00636329
-0.00573915
-0.00516247
-0.00463095
-0.00414235
-0.00369409
-0.00328324
-0.00290651
-0.00256112
-0.00224364
-0.00195145
-0.00168334
-0.0014371
-0.00121263
-0.00100663
-0.000819682
-0.000646026
-0.000487962
-0.000336075
-0.000196982
-5.66154e-05
-0.00758592
-0.0068715
-0.00620918
-0.00559659
-0.00503136
-0.00451111
-0.00403354
-0.00359605
-0.0031956
-0.00282882
-0.00249249
-0.00218336
-0.00189869
-0.00163729
-0.00139711
-0.00117814
-0.000977287
-0.00079517
-0.000626226
-0.000472682
-0.000325314
-0.00019061
-5.46313e-05
-0.0073862
-0.00668465
-0.00603547
-0.00543605
-0.00488385
-0.0043764
-0.00391133
-0.00348601
-0.00309732
-0.00274175
-0.00241569
-0.00211594
-0.0018397
-0.00158581
-0.00135241
-0.00113957
-0.000944475
-0.000767747
-0.000604074
-0.000455578
-0.000313277
-0.000183474
-5.24306e-05
-0.00716509
-0.00647805
-0.00584366
-0.005259
-0.00472133
-0.0042281
-0.00377692
-0.00336509
-0.00298941
-0.00264618
-0.00233152
-0.00204211
-0.00177515
-0.0015295
-0.0013035
-0.00109737
-0.000908557
-0.000737716
-0.000579814
-0.000436838
-0.000300099
-0.000175656
-5.00414e-05
-0.00692409
-0.00625321
-0.00563519
-0.0050668
-0.00454511
-0.00406746
-0.00363144
-0.00323433
-0.00287283
-0.00254301
-0.00224077
-0.00196259
-0.00170567
-0.0014689
-0.00125087
-0.00105193
-0.000869881
-0.000705365
-0.000553677
-0.000416639
-0.000285908
-0.00016723
-4.74907e-05
-0.00666464
-0.00601154
-0.00541144
-0.0048608
-0.00435646
-0.00389565
-0.00347599
-0.00309474
-0.00274849
-0.00243309
-0.00214418
-0.00187804
-0.00163185
-0.00140453
-0.00119497
-0.00100366
-0.000828774
-0.000670963
-0.000525883