/*--------------------------------*- C++ -*----------------------------------*\
  =========                 |
  \\      /  F ield         | OpenFOAM: The Open Source CFD Toolbox
   \\    /   O peration     | Website:  https://openfoam.org
    \\  /    A nd           | Version:  7
     \\/     M anipulation  |
\*---------------------------------------------------------------------------*/
FoamFile
{
    version     2.0;
    format      ascii;
    class       volVectorField;
    location    "60";
    object      U;
}
// * * * * * * * * * * * * * * * * * * * * * * * * * * * * * * * * * * * * * //

dimensions      [0 1 -1 0 0 0 0];

internalField   nonuniform List<vector> 
4575
(
(0.0182392 -0.00300725 2.348e-20)
(0.0731983 -0.00684421 2.45282e-20)
(0.147055 -0.00343386 9.06919e-20)
(0.0212015 -0.00316859 2.76706e-20)
(0.0821393 -0.00668147 1.00348e-19)
(0.16201 -0.00215527 7.86297e-20)
(0.258451 0.00873649 2.1778e-20)
(0.368567 0.0258968 2.03724e-19)
(0.0243441 -0.00324515 -1.24567e-19)
(0.091517 -0.00625238 -4.45283e-20)
(0.177546 -0.000430561 -1.46519e-19)
(0.279826 0.012271 -8.03405e-20)
(0.395088 0.031556 -4.09234e-20)
(0.518931 0.0565864 -1.2889e-19)
(0.645985 0.0859163 -8.02469e-20)
(0.770364 0.117666 1.43654e-19)
(0.0276642 -0.00322694 4.1305e-20)
(0.101315 -0.00553314 -6.82725e-20)
(0.193623 0.00176982 1.14986e-19)
(0.30173 0.0164375 5.32371e-20)
(0.421977 0.0379522 -7.61804e-20)
(0.549527 0.0652172 9.33788e-20)
(0.678628 0.0965151 2.3079e-20)
(0.803165 0.129732 -4.15873e-20)
(0.917425 0.162585 5.0307e-20)
(1.01687 0.192951 -3.89428e-20)
(1.09873 0.219161 -1.09747e-19)
(1.16218 0.240203 -1.09774e-20)
(0.0311578 -0.00310397 -2.04525e-20)
(0.111512 -0.00450059 1.11801e-20)
(0.210197 0.00447358 -1.05224e-19)
(0.324087 0.0212601 6.70418e-20)
(0.449125 0.0450976 6.2178e-20)
(0.580045 0.0746136 -8.81724e-20)
(0.710743 0.107813 4.06344e-20)
(0.834947 0.142359 -7.88382e-20)
(0.947042 0.175843 -1.11856e-19)
(1.04285 0.206136 4.04333e-20)
(1.12014 0.231679 7.45264e-21)
(1.17867 0.25164 6.25366e-20)
(1.21993 0.265897 9.78474e-20)
(1.24654 0.274898 -4.68761e-21)
(1.26164 0.279453 1.67021e-20)
(0.0348192 -0.00286632 -2.30868e-20)
(0.122084 -0.00313248 -2.87765e-20)
(0.227217 0.00770618 1.11311e-19)
(0.346818 0.0267589 -1.36753e-20)
(0.476421 0.0529995 5.11986e-22)
(0.610347 0.0847647 -6.00945e-20)
(0.742189 0.119782 -1.04732e-20)
(0.865584 0.155505 4.23002e-20)
(0.9751 0.189431 1.44723e-19)
(1.06699 0.219464 -4.62719e-20)
(1.13959 0.244185 8.04484e-21)
(1.19326 0.262958 2.5103e-20)
(1.22997 0.275869 -4.88781e-20)
(1.25268 0.28354 -3.14925e-20)
(1.26467 0.286898 8.37543e-21)
(1.2691 0.286956 4.2006e-20)
(1.2686 0.284656 -1.0454e-20)
(1.2652 0.280786 -6.43659e-22)
(1.26027 0.275933 3.77306e-20)
(0.0386415 -0.00250427 4.02428e-20)
(0.133004 -0.00140772 8.05828e-20)
(0.244629 0.0114905 5.52619e-20)
(0.369835 0.03295 -3.00091e-20)
(0.503751 0.0616599 1.1079e-19)
(0.640303 0.0956545 6.53058e-20)
(0.772832 0.132387 -9.7593e-20)
(0.894965 0.169125 -3.40084e-20)
(1.00153 0.203304 7.1743e-22)
(1.08927 0.232897 -2.81788e-20)
(1.15712 0.256651 -8.14424e-20)
(1.20602 0.274145 1.34855e-20)
(1.2384 0.285672 1.59516e-22)
(1.25748 0.292015 -8.48222e-20)
(1.26666 0.294204 3.87843e-20)
(1.26905 0.293295 -2.08271e-20)
(1.26717 0.290229 -9.19145e-20)
(1.2629 0.285767 4.44415e-20)
(1.25744 0.280438 -9.42128e-20)
(1.25152 0.274446 4.1163e-20)
(0.0426161 -0.00200844 -1.40961e-20)
(0.14424 0.000693332 -3.45579e-20)
(0.262374 0.0158465 -5.74409e-20)
(0.393051 0.0398452 -2.75435e-21)
(0.530998 0.0710755 -5.05617e-21)
(0.669781 0.107262 -6.19028e-20)
(0.802549 0.145592 1.40508e-20)
(0.922993 0.183172 1.32489e-20)
(1.02628 0.217415 -2.7501e-20)
(1.1097 0.246395 2.27696e-21)
(1.17279 0.269054 4.29333e-20)
(1.21706 0.285194 -5.69111e-21)
(1.24533 0.295309 3.26702e-20)
(1.26105 0.300335 1.45014e-20)
(1.26769 0.301386 -8.00148e-20)
(1.26829 0.29955 6.10312e-21)
(1.26523 0.295753 4.87394e-20)
(1.26022 0.290727 -1.16438e-20)
(1.25433 0.284939 2.2037e-21)
(1.24816 0.278646 -7.98437e-21)
(0.0467332 -0.00136984 -1.29655e-20)
(0.155756 0.0031886 -1.23574e-20)
(0.280387 0.0207911 -2.17889e-20)
(0.416372 0.0474517 -1.42864e-20)
(0.558048 0.081238 -3.69609e-20)
(0.698659 0.119561 4.28384e-20)
(0.831226 0.159357 8.47201e-20)
(0.949587 0.197601 2.95371e-20)
(1.04932 0.23172 1.51048e-20)
(1.12829 0.259926 -3.59299e-20)
(1.18666 0.281375 -3.33343e-22)
(1.22645 0.296097 2.31936e-20)
(1.25085 0.304786 -2.97627e-20)
(1.2635 0.308512 1.13668e-20)
(1.26786 0.30846 3.80479e-20)
(1.26688 0.305733 -1.31656e-20)
(1.26281 0.301238 -2.32819e-20)
(1.2572 0.295669 -2.15599e-20)
(1.25096 0.289438 7.67954e-20)
(1.2446 0.28285 2.7096e-20)
(0.0509813 -0.000580041 -2.32776e-20)
(0.167516 0.00609404 2.74252e-20)
(0.298601 0.0263374 -6.2383e-21)
(0.439704 0.0557719 1.94055e-20)
(0.584786 0.0921337 -1.73082e-20)
(0.726816 0.132521 -1.05776e-20)
(0.858759 0.173639 -4.12967e-20)
(0.974677 0.212365 4.91837e-21)
(1.07062 0.246177 1.17175e-20)
(1.14507 0.273458 2.60808e-20)
(1.19879 0.293595 -1.01143e-20)
(1.23429 0.306852 -7.98299e-21)
(1.25508 0.314108 7.28171e-21)
(1.26492 0.316556 -1.28173e-20)
(1.26725 0.315435 2.91103e-20)
(1.2649 0.311853 1.92828e-20)
(1.25997 0.306689 -3.30019e-21)
(1.25385 0.300598 -2.16099e-21)
(1.24735 0.293934 -2.0707e-20)
(1.24083 0.287056 -2.60466e-20)
(0.0553478 0.000368742 5.02488e-21)
(0.179478 0.00942344 -8.59007e-21)
(0.316947 0.032495 5.81647e-21)
(0.46295 0.0648036 -7.96553e-21)
(0.611101 0.103744 -3.04528e-20)
(0.754142 0.146109 1.40476e-20)
(0.885058 0.188394 6.76675e-21)
(0.99821 0.227417 -3.23215e-20)
(1.09018 0.260746 -2.03065e-20)
(1.16007 0.286964 -1.93877e-21)
(1.20925 0.305702 -2.81999e-20)
(1.24067 0.317456 2.90584e-20)
(1.25811 0.323281 -6.32521e-23)
(1.26539 0.324477 -3.85942e-21)
(1.26592 0.322323 -7.36708e-21)
(1.26239 0.317919 3.60659e-21)
(1.25674 0.312112 2.51364e-21)
(1.25022 0.305513 -9.92182e-22)
(1.2435 0.298426 -7.58311e-21)
(1.23687 0.29126 9.29689e-21)
(0.0598188 0.00148355 1.68891e-21)
(0.1916 0.0131882 5.67327e-21)
(0.335353 0.0392698 3.14275e-21)
(0.486015 0.0745397 -1.4571e-21)
(0.636883 0.116047 2.01282e-20)
(0.780532 0.160286 -4.46894e-21)
(0.910042 0.203576 7.07691e-21)
(1.02014 0.242713 1.56579e-20)
(1.108 0.27539 -2.81934e-21)
(1.17334 0.300418 7.00606e-22)
(1.21811 0.317682 7.75782e-21)
(1.24568 0.327907 -4.1221e-21)
(1.26002 0.332312 5.34462e-21)
(1.265 0.332284 9.60146e-22)
(1.26394 0.329131 -1.00463e-20)
(1.25939 0.323935 4.8853e-22)
(1.25315 0.317508 1.29695e-20)
(1.2463 0.310415 -2.70253e-21)
(1.23942 0.302911 3.99553e-21)
(1.2327 0.295458 -4.5113e-21)
(0.0643793 0.00277057 7.00239e-22)
(0.203834 0.017397 8.41021e-21)
(0.353744 0.0466634 4.504e-21)
(0.508804 0.0849683 -9.147e-22)
(0.662028 0.129013 1.87025e-20)
(0.805892 0.175013 -5.26537e-21)
(0.933643 0.219138 9.82603e-21)
(1.04045 0.258206 1.31459e-20)
(1.12409 0.290074 -2.70278e-21)
(1.18493 0.313797 6.05693e-22)
(1.22546 0.329526 8.83979e-21)
(1.2494 0.338206 -3.55775e-21)
(1.26089 0.341204 3.49432e-21)
(1.2638 0.339983 -8.54832e-22)
(1.26135 0.335864 -8.19933e-21)
(1.25594 0.329905 -2.39396e-22)
(1.2492 0.322876 1.28624e-20)
(1.2421 0.315299 -2.51887e-21)
(1.23511 0.307385 4.70902e-21)
(1.22834 0.299645 -5.06479e-21)
(0.0690131 0.00423508 6.08745e-21)
(0.216135 0.022056 -1.08275e-20)
(0.372046 0.0546735 5.49135e-21)
(0.53122 0.0960731 -4.39315e-21)
(0.686437 0.142611 -2.96578e-20)
(0.830134 0.190244 1.19943e-20)
(0.955803 0.235033 5.53887e-21)
(1.05911 0.273854 -3.72003e-20)
(1.13847 0.304762 -1.55784e-20)
(1.1949 0.32708 -1.29228e-23)
(1.23136 0.341225 -2.38657e-20)
(1.25191 0.348351 1.9843e-20)
(1.26079 0.349963 -4.43056e-21)
(1.26186 0.34758 2.78747e-21)
(1.2582 0.342527 -1.07853e-20)
(1.25207 0.33583 8.1397e-21)
(1.24494 0.328216 5.17645e-21)
(1.23765 0.320163 -9.08166e-22)
(1.23059 0.311842 -1.01231e-20)
(1.22378 0.303813 9.29172e-21)
(0.0737028 0.00588132 -1.32003e-20)
(0.228453 0.0271685 -5.85358e-21)
(0.390184 0.0632934 -8.43003e-21)
(0.553174 0.107833 2.88689e-20)
(0.710016 0.156806 7.2183e-23)
(0.853181 0.205936 -1.51481e-20)
(0.976476 0.251212 -6.14384e-20)
(1.07612 0.289614 5.89071e-21)
(1.15118 0.319424 6.84189e-21)
(1.20329 0.340249 3.04743e-20)
(1.23589 0.352769 4.47546e-21)
(1.25328 0.358343 -2.53756e-20)
(1.2598 0.35859 2.37764e-20)
(1.25923 0.355078 -9.53139e-21)
(1.25453 0.34912 3.57665e-20)
(1.2478 0.341708 -3.24468e-21)
(1.24035 0.333524 1.83509e-21)
(1.23293 0.325001 1.57e-21)
(1.22584 0.316277 -2.68902e-20)
(1.21903 0.307955 -1.62524e-20)
(0.0784303 0.00771241 -5.05435e-21)
(0.240737 0.0327345 -2.81979e-20)
(0.40808 0.0725126 2.20664e-20)
(0.574574 0.120222 -2.78123e-20)
(0.732677 0.171558 -4.98861e-20)
(0.874963 0.22204 4.31985e-20)
(0.995625 0.267628 7.06749e-20)
(1.09148 0.305444 2.51186e-20)
(1.16225 0.334029 1.73538e-20)
(1.21018 0.353284 -4.94418e-20)
(1.23911 0.364152 3.76092e-20)
(1.25359 0.368179 4.3468e-21)
(1.25797 0.367089 -4.69247e-20)
(1.25597 0.362478 1.81923e-20)
(1.25038 0.355644 6.42127e-20)
(1.24314 0.347536 -4.37609e-20)
(1.23547 0.338795 -1.24176e-20)
(1.22797 0.329806 -1.19056e-20)
(1.22088 0.320681 5.47146e-20)
(1.21408 0.312065 3.13838e-20)
(0.0831768 0.00973034 3.45758e-20)
(0.252937 0.0387513 -5.75417e-20)
(0.425662 0.0823163 -8.29437e-20)
(0.595335 0.133212 3.69692e-21)
(0.754339 0.186825 -1.49733e-20)
(0.895422 0.238507 -5.9425e-20)
(1.01322 0.284233 -9.80221e-21)
(1.10519 0.321305 3.01929e-20)
(1.17172 0.348549 -4.82125e-20)
(1.21561 0.366169 3.91515e-20)
(1.2411 0.375366 4.51624e-20)
(1.2529 0.377858 -2.81828e-20)
(1.25536 0.375458 1.1435e-20)
(1.2521 0.36978 5.74323e-20)
(1.24576 0.362096 -7.60702e-20)
(1.23813 0.353311 1.3202e-20)
(1.23029 0.344022 3.56153e-20)
(1.22275 0.334571 -1.06959e-20)
(1.21569 0.325046 -1.138e-20)
(1.20892 0.316135 -1.93889e-21)
(0.0879231 0.0119359 5.13131e-20)
(0.265002 0.045213 9.26058e-20)
(0.442856 0.0926856 4.86057e-20)
(0.615376 0.146767 -5.76682e-20)
(0.774928 0.202561 1.49254e-19)
(0.914505 0.255287 2.28349e-20)
(1.02925 0.300978 -6.2632e-20)
(1.11727 0.337158 -4.4841e-20)
(1.17963 0.362957 -3.57692e-20)
(1.21965 0.378889 1.181e-20)
(1.24192 0.386402 -3.95793e-20)
(1.25126 0.387376 1.2691e-21)
(1.25202 0.383696 -2.64022e-20)
(1.24766 0.376982 -3.57327e-20)
(1.2407 0.368472 -6.04596e-21)
(1.23276 0.359027 -3.69377e-21)
(1.22481 0.349198 -6.58412e-20)
(1.21728 0.339289 4.93592e-20)
(1.21029 0.329365 -7.43875e-20)
(1.20357 0.320154 -4.34497e-20)
(0.0926492 0.0143285 -6.23614e-20)
(0.27688 0.0521106 -2.49304e-20)
(0.459591 0.103598 1.10136e-19)
(0.63462 0.160852 2.76414e-20)
(0.794379 0.218719 -9.41365e-20)
(0.932171 0.272328 -5.43108e-20)
(1.0437 0.317817 -1.80459e-20)
(1.12775 0.352965 1.15411e-19)
(1.18603 0.377226 8.18616e-20)
(1.22237 0.391426 -2.78679e-20)
(1.24163 0.397254 -1.60577e-20)
(1.24874 0.396731 4.01434e-20)
(1.24798 0.391801 -4.32597e-20)
(1.24269 0.38408 1.98683e-20)
(1.23521 0.374768 8.53757e-21)
(1.22706 0.364676 -1.0659e-20)
(1.21905 0.354314 8.00457e-20)
(1.21157 0.343949 -3.34748e-20)
(1.20467 0.333628 6.70053e-20)
(1.19802 0.324116 -2.35172e-20)
(0.0973353 0.0169066 -3.52629e-20)
(0.288522 0.0594322 -6.31672e-20)
(0.475798 0.115027 -9.90683e-20)
(0.652994 0.175426 5.94474e-20)
(0.812631 0.235249 3.25169e-20)
(0.948387 0.289579 -4.60718e-20)
(1.05656 0.334703 7.57188e-20)
(1.13664 0.368689 -1.1597e-19)
(1.19096 0.391331 -1.22382e-19)
(1.22381 0.403767 7.32606e-20)
(1.24029 0.407912 2.70936e-20)
(1.24537 0.405917 -2.98188e-20)
(1.24328 0.399769 4.49424e-20)
(1.2372 0.391069 3.49568e-20)
(1.22933 0.380974 -2.52835e-20)
(1.22102 0.370249 -8.5112e-21)
(1.21301 0.359362 -6.09785e-20)
(1.20561 0.348542 1.23353e-20)
(1.19882 0.337825 -5.09836e-20)
(1.19228 0.32801 -8.19209e-21)
(0.101961 0.019667 2.92814e-20)
(0.299877 0.0671628 -4.98223e-20)
(0.491412 0.126942 8.99882e-20)
(0.670433 0.190445 1.51135e-19)
(0.829632 0.252099 -2.1532e-19)
(0.963126 0.306988 1.88109e-19)
(1.06785 0.351591 5.02096e-20)
(1.14399 0.384294 -7.23172e-20)
(1.19448 0.405249 8.46769e-20)
(1.22403 0.415896 4.9584e-20)
(1.23794 0.418368 6.08372e-20)
(1.24122 0.414928 -1.04362e-19)
(1.23797 0.407593 -2.12703e-20)
(1.23123 0.397941 5.05633e-20)
(1.22305 0.387085 1.91024e-20)
(1.21465 0.375738 8.68657e-20)
(1.20669 0.364331 1.07944e-19)
(1.19941 0.353057 -2.63426e-20)
(1.19276 0.341946 4.54653e-20)
(1.18633 0.331827 5.09479e-20)
(0.106506 0.0226055 -8.67332e-21)
(0.310897 0.0752845 -1.16091e-19)
(0.50637 0.139311 -1.57491e-19)
(0.686875 0.205864 -2.0377e-19)
(0.845339 0.269216 -1.99759e-20)
(0.976369 0.324502 7.3943e-20)
(1.07757 0.368435 -1.38509e-20)
(1.14982 0.399748 2.4265e-20)
(1.19663 0.418954 -3.74557e-20)
(1.22308 0.427799 6.2228e-20)
(1.23465 0.428611 -9.37466e-20)
(1.23631 0.423756 1.20999e-19)
(1.23207 0.415267 6.86493e-20)
(1.2248 0.40469 3.08439e-20)
(1.21639 0.39309 -4.56295e-20)
(1.20797 0.381132 -4.82715e-20)
(1.2001 0.36921 -4.53103e-20)
(1.19295 0.357486 3.31612e-21)
(1.18647 0.345979 5.85817e-20)
(1.18018 0.335556 -6.17201e-20)
(0.110951 0.0257166 -1.52815e-20)
(0.321536 0.0837768 9.01854e-20)
(0.520613 0.152097 1.12694e-19)
(0.702265 0.221632 -1.75867e-20)
(0.859713 0.286547 5.16498e-20)
(0.988106 0.342069 1.39771e-20)
(1.08574 0.38519 -7.44378e-20)
(1.15417 0.415015 5.85707e-20)
(1.19747 0.432425 5.44426e-20)
(1.22103 0.439459 -9.35063e-20)
(1.23046 0.438633 1.49182e-19)
(1.23069 0.432394 -1.22577e-19)
(1.2256 0.422781 6.99941e-20)
(1.21791 0.411305 -1.00591e-19)
(1.20936 0.398979 1.4625e-19)
(1.20097 0.38642 -9.12003e-20)
(1.19322 0.373988 -2.62514e-20)
(1.18625 0.361815 -3.49344e-20)
(1.17997 0.349915 -7.29588e-20)
(1.17384 0.339189 1.29579e-21)
(0.115277 0.0289935 1.09474e-19)
(0.331748 0.0926165 1.13242e-19)
(0.534087 0.165261 -1.62245e-19)
(0.716554 0.237701 -9.82167e-20)
(0.872724 0.304035 1.44141e-19)
(0.998332 0.359637 -5.69424e-20)
(1.09238 0.401814 8.29419e-20)
(1.15709 0.430063 3.53919e-20)
(1.19704 0.445638 -8.13986e-20)
(1.21791 0.450861 -1.99589e-19)
(1.22541 0.448421 -3.51751e-20)
(1.22439 0.440831 -7.29605e-20)
(1.2186 0.430127 -1.06918e-19)
(1.21059 0.417777 8.57151e-21)
(1.20197 0.40474 -1.09934e-20)
(1.19366 0.391591 -1.01175e-20)
(1.18607 0.378654 8.20658e-20)
(1.17931 0.366033 5.83367e-20)
(1.17324 0.353741 6.66632e-21)
(1.1673 0.342712 3.34589e-20)
(0.119463 0.0324282 -2.64358e-20)
(0.34149 0.101778 2.01501e-19)
(0.546741 0.178762 7.73765e-20)
(0.729699 0.254017 1.56479e-19)
(0.884349 0.321626 5.07091e-20)
(1.00705 0.377155 1.92748e-20)
(1.09751 0.418263 -1.20739e-19)
(1.15861 0.44486 -3.8505e-20)
(1.19538 0.45857 1.88798e-20)
(1.21378 0.461991 1.48276e-19)
(1.21954 0.457964 -4.80438e-20)
(1.21745 0.449057 5.88183e-20)
(1.21108 0.437293 1.22404e-19)
(1.20285 0.424093 2.75591e-20)
(1.19423 0.410363 -2.38385e-20)
(1.18604 0.396631 3.14581e-20)
(1.17865 0.383195 5.86596e-20)
(1.17211 0.37013 2.61072e-20)
(1.16629 0.357443 6.65016e-20)
(1.16056 0.346116 5.00603e-20)
(0.123491 0.0360115 -6.92544e-20)
(0.350723 0.111233 -1.03147e-19)
(0.558529 0.192555 6.51849e-20)
(0.741664 0.270526 2.18594e-20)
(0.89457 0.339263 4.3087e-20)
(1.01426 0.394571 -1.7405e-19)
(1.10116 0.434497 6.26642e-20)
(1.15877 0.459374 -1.33976e-19)
(1.19256 0.4712 -7.36794e-20)
(1.20868 0.472831 8.47259e-20)
(1.21289 0.467248 -9.02323e-21)
(1.20988 0.457061 5.32798e-21)
(1.20307 0.444269 -1.48733e-19)
(1.1947 0.430241 -5.91412e-20)
(1.18614 0.415833 4.76863e-20)
(1.17812 0.40153 -8.25664e-20)
(1.17095 0.3876 -4.37342e-20)
(1.16467 0.374093 -4.36738e-20)
(1.15912 0.361009 -7.43413e-20)
(1.15361 0.349391 -1.69486e-19)
(0.127344 0.0397333 4.0254e-20)
(0.359408 0.120951 -4.87597e-20)
(0.569409 0.206594 -2.64463e-19)
(0.752417 0.287174 1.41849e-19)
(0.903377 0.35689 -1.7502e-19)
(1.01998 0.411835 -2.47626e-20)
(1.10336 0.450474 -2.36604e-19)
(1.15762 0.473576 2.49264e-19)
(1.18861 0.483506 1.40711e-19)
(1.20266 0.483365 -8.32878e-21)
(1.20551 0.476261 4.89467e-20)
(1.20172 0.46483 -6.106e-20)
(1.19457 0.45104 -4.82681e-21)
(1.18616 0.43621 2.77667e-20)
(1.17771 0.421139 -2.81838e-20)
(1.1699 0.406275 5.16874e-20)
(1.16298 0.391858 -6.73625e-20)
(1.15699 0.377913 -5.95295e-20)
(1.15173 0.364438 3.35278e-20)
(1.1464 0.352531 4.51685e-20)
(0.131005 0.0435822 9.23069e-20)
(0.367511 0.130901 9.02794e-20)
(0.579346 0.220832 6.92205e-20)
(0.761934 0.303904 -1.63768e-21)
(0.910763 0.374451 -4.56037e-20)
(1.02422 0.428898 3.05593e-19)
(1.10415 0.466154 1.71814e-19)
(1.15521 0.487435 1.15423e-19)
(1.18359 0.495464 1.61895e-19)
(1.19575 0.493577 1.95677e-20)
(1.19741 0.484988 -1.31401e-19)
(1.193 0.47235 -1.36987e-20)
(1.18562 0.457594 -2.75858e-20)
(1.17723 0.441983 -8.85722e-20)
(1.16895 0.426266 -3.23955e-20)
(1.16138 0.410851 -4.52904e-20)
(1.15475 0.395956 1.3887e-19)
(1.14907 0.381582 -1.58905e-21)
(1.14412 0.367745 3.72035e-20)
(1.13895 0.355533 2.94495e-20)
(0.134457 0.0475461 -3.08866e-20)
(0.375 0.141049 -5.25591e-20)
(0.588308 0.23522 -1.13808e-19)
(0.770195 0.320661 -1.90006e-20)
(0.916731 0.391892 -1.86852e-19)
(1.02701 0.445711 -1.32855e-19)
(1.10357 0.481498 4.38433e-20)
(1.15157 0.500922 -3.14919e-19)
(1.17753 0.507055 -1.68719e-19)
(1.188 0.503449 4.05661e-20)
(1.18864 0.493414 -2.0351e-20)
(1.18373 0.479607 1.17329e-19)
(1.17622 0.463917 1.5709e-19)
(1.16792 0.447549 3.91252e-20)
(1.15987 0.431201 1.03993e-19)
(1.15258 0.415246 -5.33232e-20)
(1.14626 0.399878 7.12099e-20)
(1.14092 0.385078 3.9239e-20)
(1.13629 0.370918 3.30067e-20)
(1.13136 0.358397 -6.2555e-20)
(0.137686 0.0516118 4.66468e-20)
(0.381847 0.151359 -5.68129e-21)
(0.596266 0.249708 -1.76667e-19)
(0.777186 0.337388 -1.8189e-22)
(0.921286 0.409156 4.20488e-19)
(1.02837 0.462226 8.36977e-20)
(1.10164 0.496469 6.27072e-20)
(1.14675 0.514008 1.82293e-19)
(1.17048 0.518255 -1.46012e-19)
(1.17945 0.512964 -1.54636e-19)
(1.17922 0.501525 -1.24326e-21)
(1.17394 0.486588 -1.05827e-19)
(1.16639 0.469994 -5.80174e-20)
(1.15826 0.452892 1.53409e-19)
(1.15046 0.435929 -3.99006e-20)
(1.14348 0.419445 3.35348e-21)
(1.13751 0.403613 -5.1982e-20)
(1.13252 0.388397 -7.62377e-20)
(1.12824 0.373912 3.93378e-21)
(1.12364 0.361108 6.96729e-20)
(0.140678 0.0557653 -2.25013e-19)
(0.388025 0.161795 1.37087e-19)
(0.6032 0.264245 3.03899e-19)
(0.7829 0.354027 9.49323e-20)
(0.924438 0.42619 -4.96019e-19)
(1.02833 0.478397 -2.03563e-19)
(1.09842 0.51103 -1.5811e-19)
(1.1408 0.526665 -5.70963e-20)
(1.16248 0.529043 1.91116e-19)
(1.17012 0.522105 2.05919e-20)
(1.16918 0.509303 -3.8534e-20)
(1.16365 0.493275 7.1034e-20)
(1.15615 0.47581 1.01088e-20)
(1.14823 0.457996 -1.82408e-19)
(1.14075 0.440436 5.30297e-20)
(1.13411 0.423435 6.93682e-20)
(1.1285 0.407148 3.19541e-20)
(1.1239 0.391525 4.34454e-20)
(1.11998 0.376719 -7.36013e-20)
(1.11574 0.36364 -3.53284e-20)
(0.14342 0.059992 -1.53924e-20)
(0.393513 0.172319 6.93094e-20)
(0.609092 0.278778 3.45164e-20)
(0.787334 0.370524 1.01568e-19)
(0.926203 0.44294 2.77102e-19)
(1.02693 0.494178 -1.79414e-19)
(1.09394 0.525144 -1.06339e-20)
(1.13376 0.538865 1.69601e-19)
(1.15358 0.539399 -2.03183e-19)
(1.16007 0.530853 6.55338e-20)
(1.15856 0.516734 1.65889e-19)
(1.15289 0.499655 3.73581e-20)
(1.14551 0.48135 -7.82832e-20)
(1.13787 0.462849 1.29886e-19)
(1.13073 0.444706 -1.47788e-19)
(1.12447 0.427202 3.39873e-21)
(1.11924 0.41047 -3.32131e-20)
(1.11505 0.39445 5.47667e-20)
(1.11153 0.379329 4.80281e-20)
(0.145901 0.0642766 2.92349e-20)
(0.398292 0.182893 1.10985e-19)
(0.613929 0.293257 1.09314e-19)
(0.790489 0.386821 -6.88114e-20)
(0.9266 0.459354 5.98617e-21)
(1.02418 0.509525 1.6667e-19)
(1.08824 0.538777 2.92885e-19)
(1.12567 0.550582 -2.98996e-20)
(1.14382 0.549299 2.77839e-20)
(1.14931 0.539191 -8.10065e-20)
(1.14737 0.5238 -1.69115e-19)
(1.14166 0.50571 2.68522e-20)
(1.13449 0.486597 9.21738e-20)
(1.12717 0.467433 -1.85531e-20)
(1.12042 0.448727 -1.27647e-20)
(1.11456 0.430732 -5.66747e-20)
(1.10974 0.413566 -9.12338e-21)
(1.10597 0.397159 -2.20708e-20)
(0.14811 0.0686033 -1.01131e-19)
(0.402346 0.193477 -2.54299e-19)
(0.617703 0.307628 -3.76027e-19)
(0.792373 0.402864 6.49643e-21)
(0.925653 0.475382 -2.42584e-21)
(1.02014 0.524396 -1.51523e-19)
(1.08138 0.551895 8.06725e-20)
(1.11659 0.56179 -8.66078e-20)
(1.13324 0.558725 1.60832e-19)
(1.13789 0.5471 1.58535e-19)
(1.13564 0.530484 6.93751e-20)
(1.12999 0.511425 -1.78541e-20)
(1.12309 0.491536 2.45693e-20)
(1.11616 0.471734 -6.21133e-20)
(1.10982 0.452484 1.03389e-19)
(1.10439 0.434012 -4.37993e-20)
(0.150039 0.0729557 1.09909e-19)
(0.405665 0.204033 3.43773e-19)
(0.620411 0.321842 1.34949e-19)
(0.792997 0.418598 -2.64814e-20)
(0.92339 0.490972 -1.4521e-19)
(1.01484 0.538748 -3.13367e-20)
(1.07339 0.564465 -3.92886e-20)
(1.10655 0.572462 -1.24286e-20)
(1.12187 0.567654 -4.79693e-20)
(1.12584 0.554562 -1.54474e-19)
(1.12341 0.53677 -1.23763e-19)
(1.1179 0.516783 8.79754e-20)
(1.11134 0.496151 -1.17964e-19)
(1.10483 0.475736 -4.70513e-21)
(1.09895 0.455961 2.98011e-20)
(0.15168 0.0773172 1.07376e-20)
(0.408238 0.21452 2.21439e-20)
(0.622053 0.335845 3.09466e-19)
(0.792377 0.433971 -1.73814e-19)
(0.919841 0.506077 4.06431e-19)
(1.00832 0.552542 1.81603e-19)
(1.06432 0.576455 -2.43899e-19)
(1.0956 0.582574 -2.20688e-20)
(1.10976 0.576066 -1.89544e-19)
(1.11319 0.561559 -4.43447e-20)
(1.11068 0.542641 4.9492e-20)
(1.10541 0.521767 6.38058e-20)
(1.09925 0.500427 1.22224e-19)
(1.09321 0.479424 1.45699e-20)
(0.153027 0.0816708 8.75411e-20)
(0.410061 0.224898 -4.11701e-19)
(0.622635 0.349588 -9.20185e-20)
(0.790533 0.448929 -6.8582e-20)
(0.91504 0.520651 -2.54583e-19)
(1.00063 0.56574 -2.47125e-19)
(1.05422 0.587836 -7.51874e-20)
(1.08379 0.592102 -9.40155e-20)
(1.09694 0.583942 2.64004e-19)
(1.09997 0.568073 1.00474e-20)
(1.0975 0.54808 -1.57385e-19)
(1.09253 0.526362 -2.11747e-19)
(1.08683 0.504346 9.29127e-20)
(0.154075 0.0859993 6.93342e-21)
(0.411132 0.235128 6.12804e-20)
(0.622165 0.36302 -1.86555e-19)
(0.787489 0.463424 1.08835e-19)
(0.909024 0.534647 1.20527e-20)
(0.991803 0.578304 3.08237e-19)
(1.04313 0.598577 1.19607e-19)
(1.07115 0.601023 1.84717e-19)
(1.08345 0.591262 -1.17917e-19)
(1.08621 0.574087 2.05135e-19)
(1.08388 0.553069 1.32658e-19)
(1.07929 0.53055 2.72995e-20)
(0.154822 0.0902857 -1.76734e-19)
(0.411451 0.24517 4.16671e-19)
(0.620657 0.376092 2.17907e-19)
(0.783272 0.477405 8.00283e-20)
(0.901832 0.548024 -4.21389e-20)
(0.981897 0.590199 -2.53972e-19)
(1.03111 0.608651 3.75213e-20)
(1.05774 0.609313 -3.49203e-20)
(1.06934 0.598006 -1.20565e-19)
(1.07195 0.579583 -1.40869e-19)
(1.06984 0.557593 7.32092e-20)
(0.155265 0.0945125 -3.70017e-20)
(0.411024 0.254986 -1.10254e-19)
(0.618127 0.388758 -2.50781e-19)
(0.777912 0.490825 -1.2806e-19)
(0.893504 0.560738 -1.48477e-19)
(0.970957 0.601391 1.28985e-19)
(1.0182 0.618033 -5.08986e-20)
(1.04359 0.61695 3.07172e-20)
(1.05463 0.604155 -1.79458e-20)
(1.0572 0.584544 -6.21103e-20)
(0.155404 0.0986629 3.56652e-19)
(0.409856 0.264538 1.23329e-20)
(0.614596 0.400971 -1.09925e-19)
(0.771442 0.503639 1.04159e-19)
(0.884087 0.572749 -1.6751e-20)
(0.959032 0.611848 -4.73565e-20)
(1.00444 0.626698 -1.07567e-19)
(1.02875 0.623917 1.49406e-20)
(1.03936 0.609692 1.22348e-19)
(0.155239 0.10272 -7.95817e-20)
(0.407958 0.273789 8.97453e-20)
(0.610086 0.412686 2.4999e-20)
(0.7639 0.515804 2.18528e-19)
(0.873627 0.584022 -2.90682e-20)
(0.946168 0.621538 -1.35724e-19)
(0.989888 0.634619 2.38621e-19)
(1.01326 0.630194 7.43455e-21)
(0.154772 0.106668 -3.26955e-19)
(0.405343 0.282702 -1.05063e-20)
(0.604624 0.42386 2.0538e-19)
(0.755327 0.52728 -2.49148e-20)
(0.86218 0.594528 3.1292e-19)
(0.932404 0.630428 1.47744e-21)
(0.974586 0.641772 -2.49179e-19)
(0.154008 0.11049 1.95278e-19)
(0.402024 0.291243 -1.58678e-19)
(0.598241 0.434449 -2.39675e-19)
(0.745768 0.53802 -3.921e-20)
(0.849778 0.60423 -2.04959e-19)
(0.917803 0.638507 9.06278e-20)
(0.152949 0.114172 -7.57798e-20)
(0.398019 0.299378 1.01517e-19)
(0.590968 0.444416 -2.89181e-20)
(0.735258 0.547993 -3.82641e-20)
(0.836465 0.613084 7.78992e-21)
(0.151602 0.1177 -1.18146e-19)
(0.393349 0.307074 -1.17523e-19)
(0.582842 0.453724 2.5549e-19)
(0.72384 0.557161 7.24964e-20)
(0.822309 0.621071 1.82038e-20)
(0.149973 0.121058 1.44755e-19)
(0.388035 0.3143 2.24588e-19)
(0.573896 0.462337 -5.92315e-20)
(0.711565 0.565495 -5.54435e-20)
(0.148066 0.124233 -9.57684e-20)
(0.382102 0.321027 -1.73704e-19)
(0.564167 0.470217 -8.16483e-20)
(0.145884 0.127199 9.39498e-20)
(0.375585 0.327234 1.72768e-19)
(0.553701 0.477337 7.1888e-20)
(0.143444 0.129933 -4.82258e-20)
(0.368517 0.332884 -1.67278e-21)
(0.140772 0.132434 4.08602e-20)
(0.137877 0.1347 4.89537e-21)
(0.138877 -0.135681 -5.33695e-20)
(0.141786 -0.133392 9.52776e-21)
(0.144473 -0.130868 -7.7135e-20)
(0.371119 -0.335267 -1.52124e-19)
(0.146926 -0.128108 1.38631e-19)
(0.378227 -0.329562 9.95993e-20)
(0.557508 -0.48069 -2.035e-20)
(0.14912 -0.125116 -9.60967e-20)
(0.384782 -0.323301 -2.61851e-19)
(0.568038 -0.4735 -1.00975e-19)
(0.151036 -0.121916 1.48449e-19)
(0.390752 -0.316517 2.21896e-19)
(0.577828 -0.465549 -2.22062e-20)
(0.716301 -0.569335 -4.91162e-20)
(0.152674 -0.118531 -1.74932e-19)
(0.396099 -0.309233 -6.69729e-20)
(0.586834 -0.456863 1.18522e-19)
(0.728657 -0.560923 9.26649e-20)
(0.827593 -0.625144 5.6967e-20)
(0.154029 -0.114977 4.49186e-20)
(0.4008 -0.301477 -3.9759e-20)
(0.595015 -0.44748 1.05759e-19)
(0.740153 -0.551675 -1.39067e-19)
(0.841845 -0.617078 -9.04568e-21)
(0.908013 -0.649818 7.6482e-20)
(0.155093 -0.111267 3.35903e-19)
(0.404832 -0.293281 -1.93157e-19)
(0.60234 -0.437437 -2.58119e-19)
(0.750739 -0.54162 -1.07438e-19)
(0.85525 -0.608143 -1.44877e-19)
(0.92349 -0.6425 -4.82362e-21)
(0.155863 -0.107417 -1.78414e-19)
(0.408175 -0.284678 -8.69363e-21)
(0.608773 -0.426768 1.35563e-19)
(0.76037 -0.530796 1.65527e-20)
(0.867743 -0.598357 2.91631e-19)
(0.938193 -0.634341 -2.32967e-20)
(0.980404 -0.645619 1.87698e-20)
(0.156332 -0.103441 -7.26476e-20)
(0.410812 -0.275702 3.17318e-20)
(0.61428 -0.415514 5.7612e-20)
(0.769011 -0.519235 1.31852e-19)
(0.879276 -0.587766 -8.00985e-20)
(0.952056 -0.62537 2.81789e-20)
(0.99581 -0.638386 1.94257e-19)
(1.0191 -0.633813 -1.88668e-20)
(0.156499 -0.0993553 3.69602e-19)
(0.412728 -0.266387 -9.43979e-20)
(0.618831 -0.403717 -1.21417e-19)
(0.776619 -0.506982 6.63401e-20)
(0.88982 -0.576408 3.62181e-20)
(0.965017 -0.615597 -6.68681e-20)
(1.01047 -0.630385 -1.30904e-20)
(1.03469 -0.627458 -3.4584e-20)
(1.04516 -0.613051 3.48826e-20)
(0.15636 -0.095176 -1.64461e-19)
(0.41391 -0.25677 1.90624e-20)
(0.6224 -0.391421 -1.86968e-19)
(0.78315 -0.494079 -2.37719e-19)
(0.89932 -0.564309 -9.12447e-20)
(0.977037 -0.605055 -5.96426e-21)
(1.02432 -0.621639 1.0683e-19)
(1.04963 -0.62041 -7.36711e-20)
(1.06052 -0.607435 2.24006e-20)
(1.06293 -0.587639 1.2727e-19)
(0.155915 -0.09092 -1.73189e-19)
(0.414348 -0.246887 3.69794e-19)
(0.624962 -0.37867 2.17004e-19)
(0.788568 -0.480568 9.27502e-20)
(0.907726 -0.551505 -3.36476e-20)
(0.988069 -0.593777 -1.92553e-19)
(1.03733 -0.612174 -1.08027e-19)
(1.06388 -0.612692 -4.77671e-20)
(1.07533 -0.601205 -5.62399e-20)
(1.07777 -0.582598 -1.90333e-19)
(1.0755 -0.560432 9.6396e-20)
(0.155165 -0.0866044 3.15011e-20)
(0.414035 -0.236777 -5.05969e-20)
(0.626498 -0.365511 3.85298e-20)
(0.792838 -0.466495 -9.20852e-20)
(0.914993 -0.538038 1.84726e-19)
(0.998065 -0.581795 2.98738e-19)
(1.04946 -0.602016 8.63535e-20)
(1.07739 -0.604321 2.06268e-19)
(1.08954 -0.59438 -1.01894e-19)
(1.09213 -0.577021 2.12268e-19)
(1.08962 -0.555828 4.57106e-20)
(1.08488 -0.533147 1.66395e-19)
(0.154111 -0.0822463 -1.11551e-19)
(0.412967 -0.226479 -2.47785e-19)
(0.62699 -0.351991 -1.87409e-19)
(0.79593 -0.451907 5.50383e-20)
(0.92108 -0.523949 -2.77114e-19)
(1.00698 -0.569144 -3.11371e-19)
(1.06064 -0.591191 -3.33449e-20)
(1.09013 -0.595319 -7.55889e-20)
(1.10312 -0.58698 2.3913e-19)
(1.10598 -0.570927 -5.04348e-20)
(1.10333 -0.550758 -1.3371e-19)
(1.0982 -0.528878 -2.02257e-19)
(1.09234 -0.506712 -1.12509e-19)
(0.152756 -0.0778631 -8.91527e-20)
(0.411142 -0.216033 -6.90266e-20)
(0.626426 -0.33816 2.87021e-19)
(0.797816 -0.436854 -1.70125e-19)
(0.925948 -0.509283 4.12116e-19)
(1.01475 -0.555858 1.59291e-19)
(1.07083 -0.579726 -9.45639e-20)
(1.10204 -0.585709 -1.45227e-19)
(1.11604 -0.579024 -1.98695e-19)
(1.11929 -0.564332 7.9037e-20)
(1.1166 -0.545238 1.21947e-20)
(1.11116 -0.524202 6.41194e-20)
(1.10484 -0.502712 1.28614e-19)
(1.09866 -0.481567 2.47863e-20)
(0.151106 -0.073472 1.76345e-19)
(0.408563 -0.205477 2.76157e-19)
(0.624796 -0.324067 1.29634e-20)
(0.798473 -0.421385 1.56687e-19)
(0.929559 -0.494083 -3.60235e-19)
(1.02135 -0.541974 8.30886e-20)
(1.07999 -0.567651 -5.26068e-20)
(1.11308 -0.575515 -1.10356e-20)
(1.12824 -0.57053 -7.69479e-20)
(1.13203 -0.557254 -1.4151e-19)
(1.12941 -0.539287 -3.31049e-20)
(1.12373 -0.519137 6.6236e-20)
(1.11701 -0.498356 -1.86379e-19)
(1.11036 -0.4778 4.38419e-20)
(1.10433 -0.457889 -7.81611e-20)
(0.149166 -0.06909 -3.15796e-20)
(0.405234 -0.194851 -4.23931e-19)
(0.622094 -0.309763 -3.17654e-19)
(0.797881 -0.405553 -1.90928e-20)
(0.931879 -0.478397 6.59116e-20)
(1.02673 -0.527531 -1.1692e-19)
(1.08807 -0.554996 -3.03955e-21)
(1.12322 -0.564761 2.97125e-20)
(1.13971 -0.561521 3.98983e-20)
(1.14417 -0.549711 2.1591e-19)
(1.14173 -0.53292 7.93517e-20)
(1.1359 -0.513699 -1.59272e-20)
(1.12884 -0.493661 1.77172e-20)
(1.12176 -0.473718 -2.13162e-20)
(1.11528 -0.454333 8.84708e-20)
(1.10971 -0.435728 3.37214e-20)
(0.146944 -0.0647339 5.85116e-20)
(0.401164 -0.184197 2.26703e-19)
(0.61832 -0.295299 1.35285e-19)
(0.796022 -0.389411 -2.48654e-19)
(0.932878 -0.462273 4.95669e-20)
(1.03085 -0.51257 2.79233e-19)
(1.09502 -0.541793 1.40367e-19)
(1.13239 -0.553471 1.57054e-20)
(1.15038 -0.552015 1.39485e-19)
(1.15568 -0.541722 -2.56005e-19)
(1.15354 -0.526155 -6.43753e-20)
(1.14765 -0.507903 -2.4367e-20)
(1.14031 -0.488642 1.3242e-19)
(1.13285 -0.469338 -3.83682e-20)
(1.12595 -0.450498 -5.93065e-22)
(1.11995 -0.432371 -5.44881e-20)
(1.11499 -0.415074 -1.71237e-20)
(1.11109 -0.398534 -8.19814e-20)
(0.144448 -0.0604199 -5.46329e-20)
(0.396364 -0.173553 -3.29128e-20)
(0.613477 -0.280729 -8.27059e-20)
(0.792886 -0.373014 2.58313e-19)
(0.932528 -0.445761 1.68086e-19)
(1.03366 -0.497131 -4.77649e-20)
(1.1008 -0.528074 -7.78162e-21)
(1.14057 -0.541673 1.60029e-19)