/*--------------------------------*- C++ -*----------------------------------*\
  =========                 |
  \\      /  F ield         | OpenFOAM: The Open Source CFD Toolbox
   \\    /   O peration     | Website:  https://openfoam.org
    \\  /    A nd           | Version:  7
     \\/     M anipulation  |
\*---------------------------------------------------------------------------*/
FoamFile
{
    version     2.0;
    format      ascii;
    class       volScalarField;
    location    "100";
    object      p;
}
// * * * * * * * * * * * * * * * * * * * * * * * * * * * * * * * * * * * * * //

dimensions      [0 2 -2 0 0 0 0];

internalField   nonuniform List<scalar> 
7156
(
-0.155958
-0.163317
-0.158831
-0.144593
-0.125789
-0.107244
-0.0920859
-0.081584
-0.0756307
-0.0738115
-0.0764446
-0.0840555
-0.0956836
-0.108041
-0.116451
-0.117273
-0.109898
-0.0973352
-0.0839747
-0.0730315
-0.065495
-0.061544
-0.0615358
-0.0655366
-0.0720869
-0.0782212
-0.0806135
-0.0779061
-0.0710627
-0.153068
-0.160363
-0.156116
-0.142336
-0.124061
-0.106015
-0.0913003
-0.0811876
-0.0755815
-0.0740942
-0.077083
-0.085094
-0.097143
-0.109874
-0.118524
-0.119386
-0.111836
-0.0989264
-0.0851412
-0.0737717
-0.0658401
-0.0615075
-0.0611044
-0.0646924
-0.0708494
-0.0766731
-0.0789104
-0.0762401
-0.0696166
-0.150137
-0.157376
-0.153375
-0.140056
-0.12231
-0.104763
-0.0904895
-0.0807645
-0.0755047
-0.0743487
-0.0776926
-0.0861029
-0.0985735
-0.111681
-0.120577
-0.121485
-0.113765
-0.10051
-0.0862977
-0.0744988
-0.0661703
-0.0614562
-0.0606599
-0.0638382
-0.0696062
-0.0751242
-0.0772105
-0.0745786
-0.0681727
-0.147171
-0.154359
-0.15061
-0.137755
-0.120538
-0.103488
-0.0896534
-0.0803142
-0.0753994
-0.0745739
-0.0782717
-0.0870804
-0.0999727
-0.11346
-0.122608
-0.123569
-0.115683
-0.102085
-0.087444
-0.075213
-0.0664861
-0.0613908
-0.0602035
-0.0629753
-0.0683586
-0.0735757
-0.0755151
-0.0729227
-0.0667318
-0.144174
-0.151317
-0.147825
-0.135434
-0.118746
-0.10219
-0.0887918
-0.0798362
-0.0752648
-0.0747686
-0.0788189
-0.0880242
-0.101338
-0.115208
-0.124614
-0.125636
-0.117591
-0.10365
-0.08858
-0.0759145
-0.0667879
-0.0613121
-0.0597361
-0.062105
-0.0671083
-0.0720293
-0.0738253
-0.0712733
-0.0652943
-0.14115
-0.148253
-0.145022
-0.133096
-0.116934
-0.100869
-0.0879047
-0.07933
-0.0751002
-0.0749317
-0.0793324
-0.0889325
-0.102668
-0.116923
-0.126594
-0.127684
-0.119486
-0.105206
-0.0897054
-0.0766034
-0.0670762
-0.061221
-0.0592587
-0.0612287
-0.0658565
-0.0704863
-0.0721425
-0.0696312
-0.0638608
-0.138105
-0.145171
-0.142204
-0.130742
-0.115103
-0.0995253
-0.0869919
-0.0787953
-0.0749048
-0.0750621
-0.0798108
-0.0898032
-0.10396
-0.118603
-0.128544
-0.129712
-0.121367
-0.106751
-0.0908201
-0.0772801
-0.0673516
-0.0611181
-0.0587725
-0.0603476
-0.0646048
-0.0689481
-0.0704676
-0.0679974
-0.0624319
-0.135042
-0.142074
-0.139373
-0.128374
-0.113254
-0.0981601
-0.0860535
-0.0782316
-0.0746779
-0.0751588
-0.0802527
-0.0906345
-0.105211
-0.120245
-0.130464
-0.131717
-0.123233
-0.108285
-0.091924
-0.0779448
-0.0676147
-0.0610042
-0.0582785
-0.059463
-0.0633545
-0.067416
-0.0688021
-0.0663727
-0.0610082
-0.131967
-0.138967
-0.136532
-0.125994
-0.111389
-0.0967736
-0.0850897
-0.0776388
-0.0744191
-0.0752208
-0.0806567
-0.0914246
-0.106419
-0.121847
-0.13235
-0.133698
-0.125083
-0.109807
-0.0930169
-0.0785978
-0.0678658
-0.0608802
-0.0577776
-0.058576
-0.0621069
-0.0658913
-0.0671468
-0.0647579
-0.0595901
-0.128882
-0.135853
-0.133684
-0.123603
-0.109508
-0.0953664
-0.0841006
-0.0770167
-0.0741276
-0.0752472
-0.0810214
-0.0921715
-0.107582
-0.123405
-0.1342
-0.135662
-0.126915
-0.111316
-0.0940988
-0.0792393
-0.0681056
-0.0607468
-0.0572709
-0.0576878
-0.0608633
-0.0643752
-0.0655029
-0.0631539
-0.0581783
-0.125793
-0.132735
-0.130831
-0.121203
-0.107612
-0.0939391
-0.0830864
-0.076365
-0.0738031
-0.0752372
-0.0813455
-0.0928736
-0.108698
-0.124919
-0.136012
-0.137589
-0.128728
-0.112812
-0.0951696
-0.0798697
-0.0683347
-0.0606047
-0.0567592
-0.0567997
-0.0596249
-0.062869
-0.0638714
-0.0615615
-0.0567733
-0.122704
-0.129616
-0.127976
-0.118795
-0.105703
-0.0924924
-0.0820473
-0.0756838
-0.0734452
-0.0751899
-0.0816278
-0.0935291
-0.109766
-0.126386
-0.137784
-0.139485
-0.130521
-0.114294
-0.0962292
-0.0804893
-0.0685536
-0.0604547
-0.0562436
-0.0559125
-0.0583929
-0.0613739
-0.0622533
-0.0599813
-0.0553756
-0.119618
-0.126501
-0.12512
-0.116382
-0.103782
-0.0910271
-0.0809839
-0.0749729
-0.0730535
-0.0751048
-0.0818672
-0.0941365
-0.110781
-0.127803
-0.139514
-0.141349
-0.132292
-0.115762
-0.0972774
-0.0810983
-0.0687628
-0.0602976
-0.0557249
-0.0550275
-0.0571685
-0.0598908
-0.0606495
-0.0584141
-0.0539858
-0.116539
-0.123391
-0.122268
-0.113965
-0.101849
-0.0895438
-0.0798963
-0.0742326
-0.0726277
-0.0749812
-0.0820626
-0.0946942
-0.111744
-0.129169
-0.141199
-0.143179
-0.13404
-0.117215
-0.0983143
-0.0816972
-0.068963
-0.0601341
-0.0552041
-0.0541457
-0.0559527
-0.0584209
-0.059061
-0.0568607
-0.0526044
-0.113471
-0.12029
-0.119419
-0.111545
-0.099907
-0.0880436
-0.0787852
-0.0734629
-0.0721677
-0.0748185
-0.0822131
-0.0952009
-0.112652
-0.130481
-0.142838
-0.144973
-0.135765
-0.118651
-0.0993397
-0.0822863
-0.0691547
-0.0599649
-0.0546819
-0.0532679
-0.0547466
-0.0569652
-0.0574886
-0.0553218
-0.0512318
-0.110417
-0.117202
-0.116578
-0.109126
-0.0979559
-0.0865271
-0.0776511
-0.072664
-0.0716734
-0.0746163
-0.0823177
-0.095655
-0.113503
-0.131737
-0.144428
-0.14673
-0.137464
-0.120072
-0.100353
-0.0828659
-0.0693385
-0.0597908
-0.0541594
-0.0523953
-0.0535511
-0.0555245
-0.0559332
-0.0537979
-0.0498686
-0.10738
-0.114128
-0.113746
-0.106707
-0.0959973
-0.0849955
-0.0764945
-0.0718363
-0.0711446
-0.0743741
-0.0823758
-0.0960554
-0.114296
-0.132935
-0.145967
-0.148447
-0.139137
-0.121475
-0.101356
-0.0834363
-0.069515
-0.0596125
-0.0536371
-0.0515285
-0.0523673
-0.0541
-0.0543955
-0.0522898
-0.0485154
-0.104364
-0.111072
-0.110926
-0.104291
-0.0940325
-0.0834495
-0.0753161
-0.07098
-0.0705815
-0.0740917
-0.0823864
-0.0964009
-0.115029
-0.134074
-0.147454
-0.150125
-0.140782
-0.12286
-0.102346
-0.0839979
-0.0696847
-0.0594306
-0.053116
-0.0506686
-0.0511959
-0.0526923
-0.0528763
-0.0507981
-0.0471726
-0.101372
-0.108036
-0.108118
-0.101879
-0.0920628
-0.0818904
-0.0741167
-0.0700956
-0.0699841
-0.0737688
-0.0823491
-0.0966904
-0.1157
-0.135151
-0.148886
-0.15176
-0.142398
-0.124227
-0.103325
-0.0845511
-0.0698483
-0.0592458
-0.0525968
-0.0498163
-0.0500378
-0.0513022
-0.0513763
-0.0493233
-0.0458407
-0.0984057
-0.105022
-0.105326
-0.0994733
-0.0900894
-0.0803191
-0.0728971
-0.0691836
-0.0693527
-0.0734054
-0.0822633
-0.096923
-0.116308
-0.136165
-0.150262
-0.153352
-0.143984
-0.125575
-0.104292
-0.0850962
-0.0700062
-0.0590589
-0.0520802
-0.0489723
-0.0488938
-0.0499306
-0.0498962
-0.047866
-0.0445201
-0.0954687
-0.102033
-0.102551
-0.097075
-0.0881138
-0.0787366
-0.0716579
-0.0682445
-0.0686875
-0.0730013
-0.0821287
-0.0970979
-0.116852
-0.137114
-0.15158
-0.154898
-0.145538
-0.126904
-0.105247
-0.0856335
-0.070159
-0.0588704
-0.0515669
-0.0481374
-0.0477646
-0.0485782
-0.0484365
-0.0464268
-0.0432115
-0.0925633
-0.099071
-0.0997962
-0.0946857
-0.0861371
-0.0771442
-0.0704003
-0.0672791
-0.0679889
-0.0725567
-0.0819448
-0.0972142
-0.117331
-0.137997
-0.152838
-0.156397
-0.14706
-0.128212
-0.10619
-0.0861634
-0.0703073
-0.0586809
-0.0510575
-0.0473122
-0.046651
-0.0472455
-0.046998
-0.0450062
-0.0419151
-0.0896917
-0.0961383
-0.0970614
-0.092307
-0.0841606
-0.075543
-0.069125
-0.0662879
-0.0672573
-0.0720716
-0.0817116
-0.0972714
-0.117743
-0.138811
-0.154035
-0.157848
-0.148548
-0.129499
-0.107121
-0.0866861
-0.0704516
-0.0584911
-0.0505527
-0.0464974
-0.0455534
-0.0459332
-0.0455811
-0.0436047
-0.0406316
-0.0868562
-0.093237
-0.0943459
-0.0899402
-0.0821858
-0.0739341
-0.0678331
-0.0652718
-0.0664931
-0.0715463
-0.0814289
-0.0972689
-0.118087
-0.139557
-0.15517
-0.159247
-0.150001
-0.130764
-0.10804
-0.0872021
-0.0705924
-0.0583017
-0.050053
-0.0456936
-0.0444725
-0.0446418
-0.0441863
-0.0422228
-0.0393613
-0.0840586
-0.0903689
-0.0916621
-0.0875865
-0.0802138
-0.0723187
-0.0665257
-0.0642316
-0.065697
-0.0709811
-0.0810967
-0.0972064
-0.118363
-0.140233
-0.15624
-0.160596
-0.151418
-0.132007
-0.108946
-0.0877116
-0.0707303
-0.058113
-0.0495592
-0.0449012
-0.0434088
-0.0433718
-0.0428142
-0.0408609
-0.0381047
-0.081301
-0.0875358
-0.0889904
-0.0852474
-0.0782459
-0.0706982
-0.0652038
-0.0631682
-0.0648697
-0.0703764
-0.0807151
-0.0970837
-0.118571
-0.140837
-0.157244
-0.161891
-0.152798
-0.133227
-0.10984
-0.0882148
-0.0708658
-0.0579258
-0.0490716
-0.0441208
-0.0423627
-0.0421236
-0.0414651
-0.0395195
-0.0368622
-0.0785849
-0.0847391
-0.0863411
-0.0829249
-0.0762834
-0.0690736
-0.0638685
-0.0620825
-0.0640117
-0.0697327
-0.0802844
-0.0969006
-0.118709
-0.141368
-0.158181
-0.163132
-0.154139
-0.134424
-0.110721
-0.0887122
-0.0709993
-0.0577405
-0.0485908
-0.0433529
-0.0413348
-0.0408977
-0.0401395
-0.0381989
-0.0356343
-0.075912
-0.0819807
-0.0837232
-0.0806205
-0.0743276
-0.0674463
-0.062521
-0.0609755
-0.0631241
-0.0690506
-0.0798049
-0.096657
-0.118777
-0.141827
-0.159051
-0.164317
-0.155441
-0.135596
-0.111589
-0.0892039
-0.0711314
-0.0575577
-0.0481174
-0.0425978
-0.0403252
-0.0396944
-0.0388377
-0.0369007
-0.0344213
-0.0732838
-0.0792623
-0.0811388
-0.0783351
-0.0723797
-0.0658175
-0.0611626
-0.0598484
-0.0622075
-0.0683308
-0.0792771
-0.0963531
-0.118774
-0.142211
-0.159851
-0.165446
-0.156703
-0.136744
-0.112445
-0.0896902
-0.0712625
-0.0573778
-0.0476517
-0.0418559
-0.0393345
-0.038514
-0.03756
-0.0356287
-0.0332237
-0.0707013
-0.0765853
-0.0785873
-0.0760699
-0.070441
-0.0641884
-0.0597944
-0.0587022
-0.0612629
-0.0675739
-0.0787014
-0.0959891
-0.118701
-0.142521
-0.160582
-0.166516
-0.157922
-0.137865
-0.113287
-0.0901713
-0.071393
-0.0572014
-0.0471942
-0.0411277
-0.0383627
-0.0373568
-0.0363068
-0.0343716
-0.0320418
-0.0681657
-0.0739508
-0.0760697
-0.0738263
-0.0685127
-0.0625603
-0.0584176
-0.057538
-0.0602914
-0.0667808
-0.0780785
-0.0955654
-0.118558
-0.142756
-0.161242
-0.167527
-0.159099
-0.138961
-0.114116
-0.0906475
-0.0715235
-0.057029
-0.0467453
-0.0404132
-0.0374102
-0.0362229
-0.0350781
-0.0331363
-0.0308761
-0.0656782
-0.0713598
-0.0735874
-0.0716056
-0.066596
-0.0609346
-0.0570337
-0.0563572
-0.059294
-0.0659525
-0.0774091
-0.0950823
-0.118344
-0.142916
-0.16183
-0.168478
-0.160233
-0.140029
-0.114931
-0.0911189
-0.0716543
-0.0568609
-0.0463054
-0.039713
-0.0364771
-0.0351125
-0.0338743
-0.0319238
-0.0297269
-0.0688135
-0.0711413
-0.0694089
-0.0646921
-0.0593123
-0.0556438
-0.0551609
-0.0582717
-0.0650899
-0.0766942
-0.0945406
-0.11806
-0.143
-0.162346
-0.169368
-0.161321
-0.141069
-0.115733
-0.0915858
-0.0717858
-0.0566975
-0.0458749
-0.0390271
-0.0355637
-0.0340257
-0.0326955
-0.0307343
-0.0285946
-0.0663127
-0.0687316
-0.0672374
-0.0628023
-0.0576947
-0.0542494
-0.0539504
-0.0572258
-0.0641941
-0.0759346
-0.0939409
-0.117706
-0.143008
-0.162789
-0.170197
-0.162364
-0.142081
-0.11652
-0.0920482
-0.0719184
-0.0565394
-0.0454541
-0.0383558
-0.0346698
-0.0329626
-0.0315419
-0.029568
-0.0274796
-0.0638583
-0.0663591
-0.0650924
-0.0609276
-0.0560831
-0.0528516
-0.052727
-0.0561574
-0.0632661
-0.0751313
-0.093284
-0.117283
-0.142941
-0.16316
-0.170962
-0.163361
-0.143064
-0.117293
-0.0925063
-0.0720524
-0.0563868
-0.0450432
-0.0376993
-0.0337957
-0.0319233
-0.0304136
-0.028425
-0.0263821
-0.0614508
-0.0640249
-0.062975
-0.0590693
-0.0544787
-0.0514518
-0.0514922
-0.0550679
-0.0623072
-0.0742855
-0.0925709
-0.116791
-0.142799
-0.163457
-0.171664
-0.16431
-0.144017
-0.118052
-0.0929602
-0.0721883
-0.0562403
-0.0446427
-0.0370578
-0.0329414
-0.0309076
-0.0293106
-0.0273055
-0.0253026
-0.0590911
-0.06173
-0.0608865
-0.0572286
-0.0528826
-0.0500514
-0.0502472
-0.0539586
-0.0613185
-0.0733984
-0.0918026
-0.116231
-0.142581
-0.163681
-0.172302
-0.16521
-0.14494
-0.118796
-0.09341
-0.0723263
-0.0561
-0.0442528
-0.0364313
-0.0321067
-0.0299156
-0.028233
-0.0262099
-0.0242414
-0.0567795
-0.0594752
-0.0588281
-0.0554066
-0.0512961
-0.0486518
-0.0489934
-0.0528307
-0.0603015
-0.0724711
-0.0909801
-0.115603
-0.142289
-0.163831
-0.172876
-0.166061
-0.145831
-0.119524
-0.0938557
-0.0724668
-0.0559663
-0.0438737
-0.0358201
-0.0312918
-0.0289472
-0.0271807
-0.0251383
-0.0231987
-0.0545165
-0.0572614
-0.0568009
-0.0536047
-0.0497203
-0.0472541
-0.0477323
-0.0516856
-0.0592575
-0.0715052
-0.0901049
-0.11491
-0.141923
-0.163908
-0.173384
-0.166862
-0.146689
-0.120236
-0.0942974
-0.0726099
-0.0558397
-0.0435056
-0.0352241
-0.0304964
-0.0280022
-0.0261536
-0.024091
-0.022175
-0.0523022
-0.0550894
-0.0548062
-0.0518239
-0.0481564
-0.0458598
-0.0464653
-0.0505249
-0.0581878
-0.0705019
-0.089178
-0.11415
-0.141483
-0.163911
-0.173827
-0.167612
-0.147515
-0.120933
-0.0947351
-0.072756
-0.0557202
-0.0431489
-0.0346435
-0.0297206
-0.0270804
-0.0251518
-0.0230678
-0.0211706
-0.0501367
-0.0529599
-0.0528452
-0.0500658
-0.0466057
-0.0444702
-0.0451938
-0.0493499
-0.0570939
-0.0694629
-0.0882011
-0.113327
-0.14097
-0.163842
-0.174204
-0.16831
-0.148308
-0.121613
-0.0951687
-0.0729053
-0.0556083
-0.0428036
-0.0340783
-0.028964
-0.0261816
-0.024175
-0.0220688
-0.0201858
-0.0480202
-0.0508735
-0.0509191
-0.0483316
-0.0450693
-0.0430866
-0.0439192
-0.048162
-0.0559773
-0.0683896
-0.0871756
-0.112441
-0.140386
-0.163699
-0.174514
-0.168956
-0.149065
-0.122276
-0.0955982
-0.0730579
-0.0555042
-0.04247
-0.0335286
-0.0282268
-0.0253057
-0.0232231
-0.021094
-0.0192209
-0.045953
-0.0488314
-0.0490298
-0.0466233
-0.0435487
-0.0417105
-0.0426431
-0.0469629
-0.0548395
-0.0672836
-0.0861031
-0.111493
-0.13973
-0.163485
-0.174758
-0.169548
-0.149787
-0.122922
-0.096024
-0.0732147
-0.0554086
-0.0421486
-0.0329947
-0.0275088
-0.0244525
-0.0222962
-0.0201439
-0.0182764
-0.0439346
-0.0468343
-0.0471788
-0.044943
-0.0420458
-0.0403435
-0.0413671
-0.0457542
-0.0536823
-0.0661467
-0.0849852
-0.110485
-0.139005
-0.163197
-0.174934
-0.170085
-0.150473
-0.12355
-0.0964464
-0.073376
-0.0553218
-0.0418395
-0.0324764
-0.0268098
-0.0236216
-0.021394
-0.0192183
-0.0173527
-0.0419601
-0.0448781
-0.0453634
-0.0432908
-0.0405614
-0.0389868
-0.0400928
-0.0445373
-0.052507
-0.0649805
-0.0838237
-0.109418
-0.13821
-0.162839
-0.175044
-0.170569
-0.151125
-0.124161
-0.0968633
-0.0735391
-0.0552412
-0.0415405
-0.0319719
-0.0261277
-0.0228108
-0.0205144
-0.0183158
-0.0164492
-0.0400243
-0.042955
-0.0435831
-0.0416617
-0.0390929
-0.0376397
-0.0388203
-0.0433131
-0.0513148
-0.0637866
-0.0826208
-0.108296
-0.137352
-0.162416
-0.175096
-0.171007
-0.151741
-0.124749
-0.0972673
-0.0736974
-0.055162
-0.0412482
-0.0314789
-0.0254607
-0.0220178
-0.0196548
-0.0174339
-0.015564
-0.0381527
-0.0410895
-0.0418626
-0.0400653
-0.0376445
-0.0363035
-0.0375505
-0.0420827
-0.0501071
-0.0625667
-0.0813787
-0.10712
-0.13643
-0.161925
-0.175079
-0.171379
-0.152305
-0.125306
-0.0976622
-0.0738612
-0.0550961
-0.0409741
-0.0310079
-0.0248193
-0.0212536
-0.0188256
-0.0165813
-0.0147034
-0.0364108
-0.0393744
-0.0402446
-0.0385836
-0.0362708
-0.0350097
-0.0363008
-0.0408588
-0.0488956
-0.0613275
-0.0800926
-0.10587
-0.135399
-0.16129
-0.174892
-0.171598
-0.152786
-0.125858
-0.0981036
-0.0740912
-0.0550965
-0.04076
-0.030592
-0.0242328
-0.0205491
-0.0180614
-0.015795
-0.0139004
-0.0346893
-0.0377386
-0.0387742
-0.0372466
-0.035019
-0.0338033
-0.0351054
-0.039666
-0.0476987
-0.0600784
-0.0787526
-0.104505
-0.134193
-0.160444
-0.174513
-0.171705
-0.153275
-0.126492
-0.098646
-0.0744099
-0.0551633
-0.0405912
-0.0302052
-0.0236675
-0.019868
-0.0173306
-0.0150541
-0.0131461
-0.032376
-0.0353723
-0.0365722
-0.0353474
-0.0334181
-0.0324201
-0.0338279
-0.0384021
-0.0464114
-0.0587653
-0.0774462
-0.103323
-0.133361
-0.160187
-0.174872
-0.17248
-0.154105
-0.12714
-0.0989859
-0.0744343
-0.0549295
-0.0401517
-0.0295738
-0.0228544
-0.0189124
-0.0162993
-0.0140036
-0.0121202
-0.0260305
-0.027756
-0.0282516
-0.0278474
-0.0271284
-0.0273576
-0.0295968
-0.0343981
-0.0423293
-0.0549313
-0.0746822
-0.102502
-0.134993
-0.164044
-0.17993
-0.177361
-0.157211
-0.128551
-0.0990335
-0.0735746
-0.0535637
-0.0385005
-0.0276281
-0.020492
-0.0160707
-0.0130513
-0.0104758
-0.00858903
-0.00859697
-0.0207579
-0.0224906
-0.0233343
-0.0230366
-0.022421
-0.0229699
-0.0255483
-0.0306686
-0.0389241
-0.0518953
-0.0720463
-0.10028
-0.133171
-0.162549
-0.178656
-0.175638
-0.156132
-0.127209
-0.0973973
-0.0717264
-0.0515666
-0.0363714
-0.0253401
-0.0180238
-0.0134576
-0.0104023
-0.00787115
-0.00614542
-0.00608275
-0.0157483
-0.017325
-0.01819
-0.0182453
-0.0180865
-0.0189637
-0.0218662
-0.0273531
-0.0359862
-0.0492469
-0.0694475
-0.0974579
-0.130097
-0.159593
-0.176354
-0.173982
-0.15453
-0.12549
-0.095506
-0.0696992
-0.0494493
-0.0341868
-0.0230658
-0.0156274
-0.0109567
-0.00788778
-0.00539738
-0.0037711
-0.00384091
-0.0108926
-0.0121415
-0.0129744
-0.0133013
-0.0135211
-0.014773
-0.0180263
-0.0238146
-0.0326903
-0.0461092
-0.0663078
-0.0941784
-0.126814
-0.156729
-0.174093
-0.172001
-0.152432
-0.123275
-0.093228
-0.0674163
-0.047183
-0.031933
-0.0207805
-0.0132563
-0.00848882
-0.00537811
-0.00289977
-0.00133698
-0.00148317
-0.00633636
-0.00727147
-0.00810341
-0.00855983
-0.00905678
-0.0106286
-0.0141561
-0.0201269
-0.0291067
-0.0425733
-0.0627513
-0.0905766
-0.123318
-0.153532
-0.171107
-0.16915
-0.149582
-0.12048
-0.090552
-0.0648837
-0.0447773
-0.0296213
-0.0184996
-0.0109371
-0.00610571
-0.0029729
-0.000526815
0.00100115
0.000843613
-0.00211574
-0.00275937
-0.00355299
-0.00412235
-0.00485969
-0.00668338
-0.0103966
-0.0164572
-0.0254509
-0.0388755
-0.0589468
-0.0866205
-0.119264
-0.149469
-0.167116
-0.165359
-0.145959
-0.117105
-0.0874818
-0.062107
-0.0422403
-0.0272606
-0.0162318
-0.00867859
-0.00381962
-0.000694508
0.00170214
0.00319553
0.00304627
0.00176788
0.00140955
0.000683166
3.49901e-06
-0.000942077
-0.00296149
-0.00679307
-0.0128764
-0.021813
-0.035101
-0.0549193
-0.0822166
-0.114476
-0.144466
-0.16216
-0.160645
-0.141564
-0.113154
-0.0840235
-0.0590951
-0.0395816
-0.02486
-0.0139844
-0.0064857
-0.00163186
0.00146197
0.00379728
0.00524686
0.00511355
0.00531488
0.00523353
0.00459038
0.00382045
0.00270327
0.00053741
-0.00335415
-0.00939684
-0.0182011
-0.031246
-0.0506465
-0.0773408
-0.108988
-0.13861
-0.156264
-0.155005
-0.136398
-0.108636
-0.0801904
-0.0558613
-0.0368127
-0.022429
-0.0117648
-0.00436298
0.000456515
0.00349941
0.00576071
0.00715929
0.0070509
0.00852658
0.00870976
0.00816379
0.00732771
0.00607373
0.00380764
-8.69333e-05
-0.0060233
-0.0146157
-0.0273099
-0.0461404
-0.0720428
-0.102878
-0.131937
-0.149428
-0.14845
-0.130479
-0.103573
-0.0760035
-0.0524226
-0.0339471
-0.0199779
-0.0095804
-0.00231493
0.00244394
0.00541869
0.00759356
0.00893462
0.00885886
0.0114085
0.0118407
0.0114051
0.0105265
0.00916745
0.0068436
0.00299966
-0.00276726
-0.0110723
-0.0233179
-0.0414454
-0.0663831
-0.0961896
-0.124464
-0.141676
-0.141019
-0.123845
-0.0979987
-0.0714907
-0.0488005
-0.0310001
-0.0175175
-0.00743838
-0.000345934
0.00432889
0.00722108
0.00929829
0.0105743
0.0105352
0.0139707
0.014633
0.0143202
0.0134237
0.0119894
0.00964505
0.0058988
0.000357303
-0.00759456
-0.0193064
-0.0366095
-0.0604063
-0.0889556
-0.116235
-0.133068
-0.132771
-0.116552
-0.09196
-0.0666878
-0.0450206
-0.0279889
-0.0150589
-0.00534585
0.00153995
0.00611005
0.00890828
0.0108781
0.0120807
0.0120786
0.016227
0.0170969
0.0169186
0.0160311
0.0145506
0.0122179
0.00860854
0.0033395
-0.00420413
-0.0153087
-0.0316737
-0.0541561
-0.0812325
-0.107327
-0.123687
-0.12379
-0.108672
-0.0855148
-0.0616375
-0.0411122
-0.0249322
-0.0126135
-0.00330954
0.00333905
0.00778631
0.0104821
0.0123368
0.0134572
0.0134893
0.018195
0.0192465
0.0192124
0.0183631
0.0168668
0.0145734
0.0111326
0.00617352
-0.000918033
-0.0113538
-0.0266785
-0.0476892
-0.0731003
-0.0978399
-0.113645
-0.114184
-0.100298
-0.0787326
-0.0563888
-0.0371078
-0.0218503
-0.0101928
-0.00133574
0.00504822
0.00935672
0.0119444
0.0136787
0.0147095
0.0147691
0.0198949
0.0210987
0.0212157
0.0204355
0.0189556
0.0167273
0.0134796
0.00885805
0.00225031
-0.00746924
-0.0216689
-0.0410737
-0.0646537
-0.0878933
-0.103074
-0.104084
-0.0915367
-0.0716928
-0.050996
-0.0330428
-0.0187643
-0.00780853
0.000569842
0.00666488
0.0108206
0.0132969
0.014908
0.0158427
0.0159208
0.0213489
0.0226736
0.0229433
0.0222633
0.0208352
0.0186971
0.0156612
0.0113946
0.00528962
-0.00368204
-0.0166919
-0.034382
-0.0559982
-0.0776264
-0.0921357
-0.0936397
-0.0825095
-0.0644825
-0.0455174
-0.0289541
-0.0156963
-0.00547197
0.00240213
0.00818718
0.0121775
0.0145413
0.0160292
0.0168626
0.0169482
0.02258
0.023994
0.0244112
0.0238599
0.0225204
0.0204989
0.0176892
0.0137859
0.00819052
-1.65465e-05
-0.0117918
-0.0276887
-0.0472505
-0.0671974
-0.0810071
-0.0830173
-0.0733469
-0.0571941
-0.0400135
-0.0248795
-0.0126684
-0.00319439
0.00415672
0.00961406
0.0134275
0.0156787
0.0170463
0.0177752
0.0178555
0.0236108
0.0250845
0.0256375
0.0252357
0.0240216
0.0221444
0.0195727
0.016034
0.010946
0.00350796
-0.00700804
-0.0210695
-0.0385372
-0.0567792
-0.0698776
-0.0723878
-0.0641838
-0.0499221
-0.0345451
-0.0208566
-0.00970262
-0.000986599
0.00582992
0.0109453
0.0145712
0.0167104
0.0179626
0.018586
0.0186474
0.0244624
0.0259704
0.0266417
0.0264008
0.0253443
0.0236391
0.0213159
0.0181391
0.0135513
0.00687857
-0.00237425
-0.0145999
-0.029991
-0.0465544
-0.0589422
-0.0619223
-0.0551533
-0.0427595
-0.0291716
-0.0169212
-0.00681978
0.00114113
0.00741873
0.0121816
0.0156098
0.0176374
0.0187804
0.0192998
0.0193287
0.0251541
0.0266758
0.0274456
0.0273658
0.0264902
0.0249819
0.0229172
0.0200992
0.0160046
0.0100896
0.00208332
-0.00835335
-0.0217486
-0.0367066
-0.0483891
-0.0517853
-0.0463819
-0.0357941
-0.0239491
-0.0131072
-0.00403935
0.00317924
0.00892078
0.0133244
0.0165454
0.0184609
0.0195017
0.0199206
0.0199041
0.0257026
0.0272233
0.0280714
0.0281444
0.0274609
0.0261682
0.0243706
0.0219102
0.0183067
0.0131433
0.00634657
-0.00239988
-0.0139465
-0.0274101
-0.038391
-0.042125
-0.0379833
-0.0291058
-0.0189284
-0.00944445
-0.00137869
0.00511911
0.0103343
0.0143761
0.017381
0.0191826
0.0201279
0.0204514
0.020378
0.026122
0.0276326
0.0285413
0.0287522
0.0282608
0.0271932
0.0256686
0.0235674
0.020461
0.0160473
0.010403
0.00319283
-0.00671326
-0.0188201
-0.0290936
-0.0330614
-0.0300526
-0.0227632
-0.0141535
-0.00595913
0.00114741
0.00695326
0.0116579
0.0153396
0.0181209
0.019805
0.0206603
0.0208946
0.0207551
0.0264248
0.0279206
0.0288757
0.029207
0.0288986
0.0280563
0.0268058
0.0250662
0.0224693
0.0188071
0.014236
0.00835626
-0.000161341
-0.0110548
-0.0205977
-0.0246819
-0.0226639
-0.0168218
-0.0096611
-0.00267251
0.00352703
0.00867557
0.012891
0.0162184
0.01877
0.0203318
0.0211009
0.0212528
0.0210401
0.0266218
0.0281011
0.0290921
0.0295271
0.0293875
0.0287627
0.0277809
0.0264015
0.0243255
0.0214103
0.0178077
0.0130178
0.0056258
-0.00417802
-0.0129531
-0.0170406
-0.0158698
-0.0113237
-0.0054792
0.000399068
0.00575138
0.0102815
0.0140329
0.0170163
0.0193345
0.0207683
0.0214529
0.0215286
0.0212389
0.0267232
0.0281852
0.0292053
0.0297299
0.0297428
0.0293223
0.0285969
0.0275673
0.0260086
0.0238123
0.0210479
0.0171041
0.0106078
0.00180757
-0.00616348
-0.0101609
-0.00970228
-0.00629645
-0.00162728
0.00324433
0.00781478
0.0117682
0.0150839
0.0177373
0.0198209
0.0211213
0.0217212
0.0217266
0.0213588
0.0267389
0.0281828
0.0292272
0.0298298
0.0299794
0.0297472
0.02926
0.0285567
0.027484
0.0259399
0.0238642
0.0205572
0.0147957
0.00695059
-0.000199918
-0.00404468
-0.00417568
-0.00175466
0.00188379
0.00585692
0.00971455
0.0131346
0.0160445
0.0183853
0.0202367
0.0213988
0.0219131
0.0218529
0.021408
0.0266786
0.0281031
0.0291676
0.0298386
0.0301105
0.0300492
0.0297776
0.029364
0.0287156
0.0277179
0.0261786
0.0233586
0.0182459
0.011326
0.00498007
0.00132032
0.000711139
0.00230002
0.00505144
0.00823514
0.0114507
0.0143814
0.0169161
0.018964
0.020589
0.0216101
0.0220373
0.0219164
0.021402
0.0265516
0.0279549
0.0290351
0.029766
0.0301466
0.0302384
0.0301571
0.0299883
0.0296815
0.0291037
0.0279645
0.0255399
0.0210392
0.0150072
0.00941853
0.00595801
0.00497405
0.00587771
0.00788074
0.0103815
0.0130256
0.0155109
0.0177005
0.019477
0.0208849
0.0217646
0.0221044
0.021928
0.0213552
0.0263664
0.0277465
0.028838
0.0296203
0.0300966
0.0303231
0.0304059
0.0304346
0.0303826
0.0301023
0.029254
0.0271709
0.023258
0.018054
0.0131554
0.00990342
0.00864268
0.00899899
0.0103834
0.0123022
0.0144436
0.0165268
0.0184006
0.0199276
0.0211309
0.0218721
0.0221257
0.0218996
0.0212816
0.0261309
0.0274858
0.0285841
0.0294095
0.0299682
0.0303111
0.0305316
0.0307135
0.030839
0.0307553
0.0301157
0.0283353
0.0249745
0.0205197
0.0162376
0.0132023
0.0117577
0.0116928
0.0125763
0.0140062
0.0157106
0.0174336
0.0190198
0.0203193
0.0213329
0.0219412
0.0221124
0.0218431
0.0211951
0.0258524
0.0271799
0.0282805
0.0291411
0.0297688
0.0302094
0.0305423
0.0308384
0.0310803
0.0311187
0.0306279
0.0291133
0.026253
0.02246
0.0187243
0.0159142
0.0143691
0.0139938
0.0144803
0.0155052
0.0168337
0.0182368
0.0195626
0.0206553
0.0214957
0.0219797
0.0220742
0.0217695
0.0211072
0.0255372
0.0268361
0.0279343
0.0288213
0.0295053
0.0300255
0.0304468
0.0308247
0.031138
0.0312474
0.0308626
0.0295775
0.0271565
0.0239367
0.0206863
0.0181107
0.0165332
0.01594
0.0161184
0.016812
0.0178206
0.0189424
0.0200335
0.0209393
0.0216236
0.0219938
0.0220193
0.021687
0.021026
0.0251914
0.0264604
0.0275516
0.028457
0.0291849
0.0297674
0.0302553
0.0306887
0.0310422
0.0311898
0.0308815
0.029792
0.0277488
0.0250193
0.0222005
0.0198643
0.0183062
0.0175695
0.0175144
0.0179406
0.01868
0.0195565
0.0204378
0.0211752
0.0217204
0.0219887
0.0219542
0.0216022
0.0209558
0.0248203
0.0260581
0.0271383
0.0280548
0.0288148
0.0294436
0.0299792
0.0304478
0.0308209
0.0309869
0.0307361
0.0298127
0.0280906
0.0257794
0.0233419
0.0212415
0.0197405
0.0189194
0.0186921
0.0189056
0.0194206
0.0200853
0.0207806
0.0213672
0.0217892
0.0219682
0.0218832
0.0215192
0.0208978
0.0244287
0.0256343
0.0267001
0.0276209
0.0284022
0.0290632
0.0296308
0.0301197
0.0304994
0.0306731
0.0304681
0.0296863
0.0282357
0.0262803
0.0241774
0.0223039
0.020885
0.0200244
0.0196745
0.0197214
0.0200514
0.0205352
0.0210671
0.0215194
0.0218334
0.0219351
0.0218091
0.02144
0.0208514
0.0240208
0.0251937
0.026242
0.0271607
0.0279541
0.0286355
0.0292225
0.0297209
0.0301
0.0302764
0.0301103
0.02945
0.0282288
0.0265748
0.0247648
0.0231069
0.0217832
0.0209162
0.0204834
0.0204022
0.0205816
0.0209124
0.0213021
0.0216358
0.0218556
0.0218918
0.0217335
0.0213649
0.0208143
0.0236008
0.0247404
0.0257682
0.0266798
0.0274774
0.0281695
0.0287662
0.0292669
0.0296414
0.0298191
0.029688
0.029133
0.0281059
0.0267074
0.025152
0.0236948
0.0224723
0.0216235
0.0211391
0.0209617
0.02102
0.0212228
0.0214902
0.0217204
0.0218586
0.0218397
0.0216571
0.0212935
0.0207832
0.0231722
0.0242781
0.0252833
0.0261833
0.0269787
0.0276738
0.0282731
0.0287712
0.0291396
0.0293191
0.0292206
0.0287573
0.0278952
0.0267135
0.0253774
0.0240973
0.0229843
0.0221719
0.0216602
0.0214128
0.0213753
0.0214723
0.0216359
0.0217766
0.0218448
0.0217802
0.0215797
0.0212247
0.0207544
0.0227381
0.0238101
0.024791
0.025676
0.0264641
0.0271562
0.0277528
0.0282455
0.0286076
0.0287902
0.0287226
0.02834
0.0276188
0.0266212
0.0254722
0.024307
0.0233474
0.0225844
0.0220639
0.0217678
0.0216559
0.0216667
0.0217432
0.0218076
0.0218163
0.021714
0.0215009
0.0211567
0.0207243
0.0223015
0.0233397
0.024295
0.0251622
0.025939
0.0266238
0.0272141
0.0276996
0.0280562
0.0282432
0.0282052
0.0278942
0.0272939
0.0264537
0.0254709
0.0244653
0.0235936
0.0228817
0.0223656
0.0220378
0.0218696
0.0218113
0.0218157
0.0218159
0.0217747
0.0216417
0.0214201
0.0210878
0.0206899
0.0218648
0.0228695
0.0237984
0.0246459
0.0254084
0.0260828
0.0266643
0.0271418
0.0274938
0.0276866
0.0276771
0.0274297
0.0269338
0.026229
0.0253917
0.0245245
0.0237401
0.0230813
0.0225792
0.0222333
0.0220239
0.0219113
0.021857
0.0218041
0.0217215
0.0215638
0.0213365
0.0210162
0.020649
0.0214304
0.0224022
0.0233041
0.0241304
0.0248767
0.0255384
0.0261096
0.026579
0.0269273
0.0271272
0.0271448
0.0269542
0.0265487
0.0259606
0.0252504
0.024502
0.0238027
0.0231981
0.022717
0.0223638
0.0221256
0.0219714
0.0218703
0.0217741
0.0216578
0.0214804
0.0212496
0.0209409
0.0206001
0.0210004
0.0219398
0.0228146
0.0236188
0.0243475
0.0249952
0.0255552
0.0260166
0.0263623
0.02657
0.0266133
0.0264737
0.0261465
0.0256591
0.0250597
0.0244157
0.0237962
0.0232454
0.02279
0.0224378
0.0221811
0.0219961
0.0218584
0.0217278
0.0215844
0.0213917
0.0211589
0.020861
0.0205423
0.0205764
0.0214843
0.0223321
0.0231137
0.023824
0.0244569
0.0250054
0.0254591
0.025803
0.0260191
0.0260866
0.0259924
0.0257337
0.0253336
0.0248301
0.0242789
0.0237332
0.0232344
0.0228078
0.0224629
0.0221962
0.0219895
0.0218243
0.0216667
0.0215021
0.0212979
0.0210642
0.020776
0.0204757
0.02016
0.0210373
0.0218584
0.0226174
0.0233089
0.0239267
0.0244636
0.02491
0.0252528
0.0254775
0.0255676
0.0255139
0.0253154
0.0249908
0.0245709
0.0241016
0.0236235
0.0231747
0.0227788
0.0224461
0.0221762
0.0219554
0.0217702
0.0215925
0.0214117
0.021199
0.0209653
0.020686
0.0204007
0.0197526
0.0206002
0.0213951
0.0221317
0.0228044
0.0234071
0.0239326
0.024372
0.0247143
0.0249474
0.0250585
0.0250411
0.0248953
0.0246364
0.0242896
0.0238919
0.0234757
0.0230749
0.0227106
0.0223936
0.0221258
0.0218973
0.0216985
0.0215065
0.0213139
0.0210954
0.0208624
0.0205911
0.0203178
0.0193553
0.0201742
0.0209437
0.0216582
0.0223123
0.0229
0.0234143
0.0238474
0.0241894
0.0244307
0.0245611
0.0245762
0.0244765
0.0242751
0.023992
0.0236577
0.0232977
0.022942
0.0226095
0.0223108
0.0220494
0.0218183
0.0216114
0.0214098
0.0212092
0.0209873
0.0207557
0.0204915
0.020228
0.0189691
0.0197603
0.0205051
0.021198
0.0218341
0.022407
0.0229106
0.0233376
0.0236796
0.0239286
0.0240767
0.0241208
0.0240616
0.0239103
0.023683
0.023405
0.0230958
0.0227825
0.0224814
0.0222026
0.0219508
0.0217214
0.0215108
0.0213038
0.0210984
0.0208751
0.0206453
0.0203877
0.020132
0.0185948
0.0193594
0.0200803
0.0207525
0.0213707
0.0219293
0.0224226
0.0228438
0.0231859
0.0234421
0.0236062
0.0236761
0.0236526