/*--------------------------------*- C++ -*----------------------------------*\
  =========                 |
  \\      /  F ield         | OpenFOAM: The Open Source CFD Toolbox
   \\    /   O peration     | Website:  https://openfoam.org
    \\  /    A nd           | Version:  7
     \\/     M anipulation  |
\*---------------------------------------------------------------------------*/
FoamFile
{
    version     2.0;
    format      ascii;
    class       surfaceScalarField;
    location    "100";
    object      phi;
}
// * * * * * * * * * * * * * * * * * * * * * * * * * * * * * * * * * * * * * //

dimensions      [0 3 -1 0 0 0 0];

internalField   nonuniform List<scalar> 
14031
(
0.00109782
-0.00421103
0.00420673
0.0011272
-0.00129399
0.0012646
0.00117409
0.00169665
-0.00174354
0.0012269
0.00425873
-0.00431154
0.00127436
0.00613184
-0.0061793
0.00131044
0.00730106
-0.00733714
0.00133377
0.00789227
-0.0079156
0.00134276
0.00812841
-0.0081374
0.00133426
0.00830527
-0.00829678
0.00130736
0.00862127
-0.00859437
0.00126661
0.00896338
-0.00892263
0.00122115
0.00891052
-0.00886506
0.00118077
0.00800413
-0.00796376
0.001153
0.00605548
-0.00602771
0.00114263
0.00325145
-0.00324108
0.00115146
5.79272e-05
-6.67552e-05
0.00117722
-0.00296747
0.00294171
0.00121285
-0.00537516
0.00533953
0.00124718
-0.00700889
0.00697456
0.00126822
-0.00803155
0.00801051
0.00126845
-0.00874314
0.00874291
0.00124778
-0.00927232
0.00929299
0.00121248
-0.00946516
0.00950046
0.00117259
-0.0089913
0.00903119
0.00113871
-0.00759635
0.00763023
0.0011192
-0.00525879
0.0052783
0.00111856
-0.00224229
0.00224293
0.00113607
0.000982608
-0.00100011
0.00392878
-0.00395694
0.00108886
-0.0042174
0.00112103
-0.00132616
0.00117084
0.00164684
0.00122628
0.00420329
0.00127596
0.00608216
0.00131389
0.00726313
0.00133871
0.00786745
0.00134886
0.00811826
0.0013414
0.00831273
0.00131551
0.00864716
0.00127559
0.0090033
0.0012304
0.00895571
0.00118939
0.00804514
0.00116002
0.00608485
0.00114738
0.00326409
0.00115369
5.16197e-05
0.00117706
-0.00299084
0.00121073
-0.00540882
0.00124362
-0.00704179
0.00126365
-0.00805158
0.00126309
-0.00874258
0.00124181
-0.00925104
0.00120624
-0.00942958
0.00116658
-0.00895165
0.00113359
-0.00756336
0.00111558
-0.00524078
0.00111679
-0.00224351
0.00113611
0.000963288
0.00389918
0.00107987
-0.00422576
0.00111475
-0.00136104
0.00116741
0.00159418
0.00122544
0.00414527
0.00127734
0.00603026
0.00131714
0.00722333
0.00134345
0.00784114
0.0013548
0.00810691
0.00134843
0.00831911
0.00132361
0.00867197
0.00128458
0.00904234
0.00123968
0.00900061
0.00119803
0.0080868
0.00116704
0.00611583
0.0011521
0.00327904
0.00115585
4.78677e-05
0.00117681
-0.0030118
0.00120849
-0.0054405
0.00123995
-0.00707325
0.00125898
-0.00807061
0.00125767
-0.00874127
0.00123583
-0.0092292
0.00120002
-0.00939377
0.00116062
-0.00891225
0.0011285
-0.00753124
0.00111197
-0.00522424
0.00111501
-0.00224654
0.00113611
0.000942184
0.00386815
0.00107086
-0.00423602
0.00110836
-0.00139854
0.0011638
0.00153874
0.00122438
0.00408468
0.00127849
0.00597616
0.00132016
0.00718165
0.001348
0.0078133
0.00136058
0.00809432
0.00135535
0.00832434
0.00133167
0.00869565
0.00129356
0.00908044
0.00124898
0.00904519
0.00120669
0.0081291
0.00117407
0.00614845
0.0011568
0.00329631
0.00115796
4.67048e-05
0.00117647
-0.00303031
0.00120614
-0.00547017
0.00123616
-0.00710328
0.00125422
-0.00808867
0.00125219
-0.00873924
0.00122984
-0.00920684
0.00119382
-0.00935776
0.0011547
-0.00887312
0.00112346
-0.0075
0.00110837
-0.00520916
0.0011132
-0.00225137
0.00113606
0.000919327
0.00383571
0.00106182
-0.00424809
0.00110185
-0.00143857
0.00116001
0.00148058
0.0012231
0.00402159
0.0012794
0.00591986
0.00132296
0.0071381
0.00135234
0.00778393
0.00136619
0.00808047
0.00136215
0.00832838
0.00133966
0.00871814
0.00130253
0.00911757
0.0012583
0.00908942
0.00121537
0.00817203
0.0011811
0.00618271
0.00116147
0.00331594
0.00116001
4.81632e-05
0.00117604
-0.00304634
0.00120368
-0.0054978
0.00123226
-0.00713186
0.00124937
-0.00810578
0.00124667
-0.00873654
0.00122384
-0.00918401
0.00118765
-0.00932158
0.00114882
-0.00883429
0.00111844
-0.00746962
0.00110479
-0.00519551
0.00111137
-0.00225795
0.00113595
0.000894748
0.00380187
0.00105275
-0.00426187
0.00109522
-0.00148104
0.00115602
0.00141978
0.00122158
0.00395602
0.00128008
0.00586136
0.00132552
0.00709266
0.00135646
0.00775299
0.00137162
0.0080653
0.00136882
0.00833118
0.00134758
0.00873938
0.00131148
0.00915367
0.00126762
0.00913328
0.00122406
0.00821559
0.00118814
0.00621864
0.00116612
0.00333796
0.00116201
5.22734e-05
0.00117554
-0.00305987
0.00120112
-0.00552338
0.00122825
-0.00715899
0.00124443
-0.00812197
0.0012411
-0.0087332
0.00121783
-0.00916074
0.00118151
-0.00928526
0.00114298
-0.00879576
0.00111346
-0.0074401
0.0011012
-0.00518325
0.0011095
-0.00226625
0.00113577
0.000868478
0.00376665
0.00104365
-0.00427727
0.00108847
-0.00152586
0.00115183
0.00135642
0.00121983
0.00388802
0.0012805
0.00580069
0.00132784
0.00704532
0.00136036
0.00772047
0.00137687
0.00804879
0.00137536
0.00833269
0.00135543
0.00875932
0.0013204
0.00918869
0.00127695
0.00917673
0.00123277
0.00825977
0.00119518
0.00625623
0.00117076
0.00336237
0.00116397
5.90643e-05
0.00117496
-0.00307086
0.00119846
-0.00554687
0.00122413
-0.00718466
0.00123941
-0.00813725
0.00123548
-0.00872927
0.00121182
-0.00913708
0.00117539
-0.00924883
0.00113718
-0.00875754
0.0011085
-0.00741143
0.00109762
-0.00517237
0.00110761
-0.00227624
0.00113554
0.000840549
0.00373006
0.00103453
-0.00429417
0.00108158
-0.00157291
0.00114744
0.00129056
0.00121783
0.00381763
0.00128067
0.00573785
0.00132991
0.00699608
0.00136403
0.00768636
0.00138191
0.0080309
0.00138176
0.00833285
0.00136318
0.00877789
0.00132928
0.00922259
0.00128627
0.00921974
0.00124148
0.00830456
0.00120222
0.00629549
0.00117538
0.00338922
0.00116588
6.85633e-05
0.00117431
-0.00307928
0.0011957
-0.00556827
0.00121991
-0.00720887
0.0012343
-0.00815164
0.00122982
-0.00872479
0.0012058
-0.00911306
0.0011693
-0.00921233
0.00113141
-0.00871966
0.00110358
-0.00738359
0.00109404
-0.00516283
0.00110567
-0.00228787
0.00113523
0.000810991
0.00369211
0.00102538
-0.00431247
0.00107457
-0.00162211
0.00114284
0.00122229
0.00121558
0.00374489
0.00128058
0.00567286
0.00133173
0.00694493
0.00136746
0.00765062
0.00138676
0.0080116
0.00138799
0.00833161
0.00137084
0.00879505
0.00133812
0.00925531
0.00129558
0.00926228
0.0012502
0.00834994
0.00120927
0.00633643
0.00117998
0.0034185
0.00116775
8.07961e-05
0.00117359
-0.00308512
0.00119286
-0.00558754
0.0012156
-0.0072316
0.00122912
-0.00816516
0.00122411
-0.00871978
0.00119978
-0.00908873
0.00116324
-0.00917578
0.00112569
-0.00868211
0.00109868
-0.00735658
0.00109045
-0.0051546
0.00110369
-0.00230111
0.00113484
0.000779837
0.00365283
0.00101619
-0.00433207
0.00106742
-0.00167334
0.00113803
0.00115168
0.00121308
0.00366984
0.00128022
0.00560572
0.00133328
0.00689187
0.00137064
0.00761326
0.00139139
0.00799085
0.00139407
0.00832893
0.00137839
0.00881074
0.00134689
0.0092868
0.00130487
0.0093043
0.00125892
0.00839589
0.00121631
0.00637903
0.00118457
0.00345024
0.00116958
9.57873e-05
0.00117281
-0.00308835
0.00118994
-0.00560467
0.00121119
-0.00725286
0.00122385
-0.00817782
0.00121837
-0.0087143
0.00119376
-0.00906413
0.0011572
-0.00913921
0.00112001
-0.00864492
0.0010938
-0.00733038
0.00108685
-0.00514765
0.00110166
-0.00231592
0.00113438
0.000747117
0.00361223
0.00100697
-0.00435284
0.00106013
-0.0017265
0.001133
0.00107881
0.00121031
0.00359252
0.00127958
0.00553645
0.00133456
0.0068369
0.00137357
0.00757424
0.0013958
0.00796863
0.00139997
0.00832476
0.00138581
0.00882489
0.0013556
0.00931702
0.00131412
0.00934578
0.00126763
0.00844239
0.00122335
0.00642331
0.00118915
0.00348445
0.00117137
0.000113559
0.00117196
-0.00308894
0.00118693
-0.00561964
0.00120669
-0.00727262
0.00121851
-0.00818965
0.00121259
-0.00870837
0.00118774
-0.00903929
0.00115119
-0.00910265
0.00111436
-0.00860809
0.00108895
-0.00730497
0.00108324
-0.00514193
0.00109958
-0.00233227
0.00113384
0.000712865
0.00357031
0.000997725
-0.00437467
0.0010527
-0.00178148
0.00112775
0.00100377
0.00120728
0.00351299
0.00127866
0.00546507
0.00133556
0.00678001
0.00137624
0.00753355
0.00139998
0.00794489
0.00140569
0.00831906
0.00139311
0.00883747
0.00136423
0.0093459
0.00132334
0.00938667
0.00127632
0.0084894
0.00123039
0.00646924
0.00119371
0.00352113
0.00117313
0.000134131
0.00117106
-0.00308687
0.00118384
-0.00563242
0.0012021
-0.00729088
0.0012131
-0.00820064
0.00120676
-0.00870203
0.00118172
-0.00901425
0.0011452
-0.00906613
0.00110874
-0.00857163
0.00108412
-0.00728035
0.00107962
-0.00513743
0.00109745
-0.0023501
0.0011332
0.000677112
0.00352709
0.000988442
-0.00439744
0.00104513
-0.00183816
0.00112226
0.000926632
0.00120397
0.00343128
0.00127745
0.00539159
0.00133627
0.00672119
0.00137864
0.00749118
0.00140392
0.0079196
0.00141121
0.00831177
0.00140027
0.00884842
0.00137276
0.00937341
0.00133251
0.00942692
0.001285
0.00853691
0.00123743
0.00651682
0.00119825
0.0035603
0.00117486
0.000157523
0.00117011
-0.00308212
0.00118068
-0.00564299
0.00119743
-0.00730763
0.00120761
-0.00821082
0.0012009
-0.00869532
0.0011757
-0.00898905
0.00113923
-0.00902967
0.00110316
-0.00853556
0.0010793
-0.00725649
0.00107597
-0.0051341
0.00109525
-0.00236938
0.00113248
0.000639889
0.00348259
0.000979125
-0.00442103
0.0010374
-0.00189644
0.00111655
0.000847483
0.00120039
0.00334745
0.00127595
0.00531602
0.00133669
0.00666045
0.00138076
0.00744711
0.00140762
0.00789275
0.00141653
0.00830286
0.00140727
0.00885768
0.00138119
0.00939948
0.00134162
0.0094665
0.00129366
0.00858487
0.00124445
0.00656602
0.00120279
0.00360197
0.00117656
0.000183751
0.00116911
-0.00307466
0.00117746
-0.00565134
0.00119268
-0.00732285
0.00120205
-0.00822019
0.001195
-0.00868827
0.00116967
-0.00896372
0.00113329
-0.00899328
0.0010976
-0.00849987
0.0010745
-0.00723339
0.0010723
-0.0051319
0.00109299
-0.00239007
0.00113165
0.000601229
0.00343681
0.000969773
-0.00444532
0.00102952
-0.00195619
0.0011106
0.000766409
0.00119652
0.00326153
0.00127415
0.00523839
0.00133681
0.00659779
0.00138259
0.00740132
0.00141105
0.00786429
0.00142163
0.00829228
0.0014141
0.00886521
0.00138951
0.00942407
0.00135066
0.00950534
0.00130228
0.00863325
0.00125146
0.00661684
0.00120731
0.00364612
0.00117823
0.000212831
0.00116806
-0.00306449
0.00117416
-0.00565744
0.00118785
-0.00733654
0.00119643
-0.00822877
0.00118906
-0.00868091
0.00116365
-0.0089383
0.00112737
-0.00895701
0.00109208
-0.00846457
0.00106971
-0.00721103
0.00106861
-0.00513081
0.00109066
-0.00241212
0.00113073
0.000561166
0.00338977
0.000960387
-0.00447018
0.00102149
-0.00201729
0.00110441
0.000683495
0.00119236
0.00317358
0.00127203
0.00515872
0.00133662
0.00653321
0.00138413
0.00735381
0.00141422
0.0078342
0.0014265
0.00828
0.00142075
0.00887095
0.0013977
0.00944712
0.00135963
0.00954342
0.00131087
0.00868201
0.00125846
0.00666925
0.00121181
0.00369276
0.00117987
0.000244776
0.00116696
-0.00305158
0.0011708
-0.00566129
0.00118294
-0.00734868
0.00119073
-0.00823655
0.00118309
-0.00867327
0.00115762
-0.00891283
0.00112147
-0.00892086
0.00108657
-0.00842967
0.00106493
-0.00718938
0.00106489
-0.00513077
0.00108826
-0.00243549
0.0011297
0.00051973
0.00334148
0.000950967
-0.00449548
0.0010133
-0.00207963
0.00109797
0.000598831
0.0011879
0.00308364
0.00126961
0.00507701
0.00133611
0.00646671
0.00138537
0.00730455
0.00141711
0.00780246
0.00143113
0.00826598
0.00142722
0.00887487
0.00140575
0.00946858
0.00136851
0.00958067
0.00131941
0.00873111
0.00126544
0.00672322
0.00121631
0.00374189
0.00118148
0.000279598
0.00116582
-0.00303592
0.00116739
-0.00566286
0.00117796
-0.00735926
0.00118496
-0.00824355
0.00117707
-0.00866538
0.00115158
-0.00888733
0.00111558
-0.00888487
0.00108109
-0.00839518
0.00106015
-0.00716844
0.00106114
-0.00513176
0.00108578
-0.00246013
0.00112856
0.000476956
0.00329194
0.000941514
-0.00452111
0.00100496
-0.00214307
0.00109128
0.000512506
0.00118315
0.00299177
0.00126686
0.0049933
0.00133528
0.00639828
0.00138629
0.00725355
0.00141971
0.00776904
0.00143551
0.00825017
0.00143347
0.00887691
0.00141365
0.0094884
0.00137728
0.00961703
0.00132789
0.0087805
0.00127239
0.00677873
0.00122078
0.0037935
0.00118307
0.000317304
0.00116464
-0.00301748
0.00116391
-0.00566213
0.00117291
-0.00736826
0.00117913
-0.00824977
0.00117102
-0.00865727
0.00114554
-0.00886186
0.00110971
-0.00884904
0.00107563
-0.00836109
0.00105537
-0.00714818
0.00105735
-0.00513373
0.00108322
-0.00248601
0.0011273
0.000432877
0.00324118
0.000932028
-0.00454694
0.000996451
-0.00220749
0.00108434
0.000424613
0.00117809
0.00289803
0.00126379
0.00490761
0.00133412
0.00632794
0.00138689
0.00720078
0.00142201
0.00773392
0.00143963
0.00823255
0.00143951
0.00887703
0.00142138
0.00950653
0.00138595
0.00965247
0.00133632
0.00883013
0.00127932
0.00683573
0.00122524
0.00384758
0.00118464
0.000357903
0.00116342
-0.00299627
0.00116038
-0.00565909
0.00116779
-0.00737567
0.00117323
-0.0082552
0.00116492
-0.00864897
0.0011395
-0.00883643
0.00110386
-0.0088134
0.00107018
-0.00832742
0.0010506
-0.0071286
0.00105352
-0.00513665
0.00108058
-0.00251307
0.00112593
0.000387525
0.00318921
0.000922512
-0.00457283
0.000987785
-0.00227277
0.00107715
0.000335246
0.00117273
0.00280245
0.00126038
0.00481995
0.00133263
0.0062557
0.00138717
0.00714624
0.00142401
0.00769707
0.00144348
0.00821309
0.00144532
0.00887518
0.00142894
0.00952292
0.00139449
0.00968691
0.00134468
0.00887995
0.00128621
0.0068942
0.00122968
0.00390411
0.00118618
0.000401398
0.00116217
-0.00297225
0.0011568
-0.00565373
0.00116261
-0.00738148
0.00116726
-0.00825985
0.00115879
-0.0086405
0.00113344
-0.00881108
0.00109801
-0.00877797
0.00106475
-0.00829415
0.00104582
-0.00710967
0.00104965
-0.00514048
0.00107785
-0.00254127
0.00112443
0.000340936
0.00313603
0.000912967
-0.00459867
0.00097896
-0.00233876
0.0010697
0.000244503
0.00116705
0.00270511
0.00125664
0.00473037
0.00133079
0.00618154
0.00138711
0.00708992
0.00142569
0.00765848
0.00144703
0.00819175
0.00145088
0.00887133
0.00143629
0.0095375
0.0014029
0.0097203
0.00135296
0.0089299
0.00129306
0.00695409
0.00123409
0.00396308
0.0011877
0.000447793
0.00116088
-0.00294543
0.00115317
-0.00564602
0.00115736
-0.00738566
0.00116123
-0.00826372
0.00115261
-0.00863187
0.00112738
-0.00878585
0.00109217
-0.00874277
0.00105932
-0.0082613
0.00104103
-0.00709138
0.00104573
-0.00514518
0.00107502
-0.00257056
0.00112281
0.000293144
0.00308166
0.000903395
-0.00462434
0.000969976
-0.00240534
0.001062
0.000152481
0.00116106
0.00260605
0.00125255
0.00463887
0.0013286
0.0061055
0.0013867
0.00703182
0.00142705
0.00761814
0.00145029
0.00816851
0.00145619
0.00886544
0.00144345
0.00955025
0.00141117
0.00975258
0.00136115
0.00897992
0.00129988
0.00701536
0.00123849
0.00402447
0.00118919
0.000497089
0.00115955
-0.00291579
0.00114949
-0.00563596
0.00115205
-0.00738822
0.00115513
-0.00826681
0.00114638
-0.00862312
0.0011213
-0.00876077
0.00108634
-0.00870781
0.0010539
-0.00822885
0.00103623
-0.00707372
0.00104177
-0.00515072
0.0010721
-0.0026009
0.00112107
0.000244184
0.00302611
0.0008938
-0.00464972
0.000960834
-0.00247238
0.00105403
5.92836e-05
0.00115474
0.00250534
0.00124812
0.0045455
0.00132605
0.00602756
0.00138595
0.00697193
0.00142807
0.00757601
0.00145324
0.00814333
0.00146122
0.00885746
0.00145038
0.00956109
0.00141927
0.00978369
0.00136924
0.00902994
0.00130664
0.00707796
0.00124286
0.00408826
0.00119066
0.000549282
0.0011582
-0.00288333
0.00114577
-0.00562353
0.00114667
-0.00738912
0.00114897
-0.0082691
0.00114011
-0.00861427
0.00111521
-0.00873587
0.00108051
-0.00867311
0.00104848
-0.00819682
0.00103141
-0.00705665
0.00103775
-0.00515706
0.00106909
-0.00263224
0.00111918
0.00019409
0.0029694
0.000884184
-0.00467469
0.000951538
-0.00253973
0.00104581
-3.49862e-05
0.00114811
0.00240304
0.00124333
0.00445028
0.00132314
0.00594775
0.00138483
0.00691024
0.00142875
0.0075321
0.00145587
0.0081162
0.00146597
0.00884737
0.00145707
0.00956998
0.0014272
0.00981356
0.00137723
0.00907991
0.00131335
0.00714184
0.0012472
0.00415441
0.00119211
0.000604369
0.00115681
-0.00284803
0.001142
-0.00560872
0.00114124
-0.00738837
0.00114274
-0.0082706
0.00113379
-0.00860532
0.0011091
-0.00871117
0.00107468
-0.0086387
0.00104305
-0.00816519
0.00102658
-0.00704018
0.00103368
-0.00516416
0.00106597
-0.00266453
0.00111716
0.0001429
0.00291153
0.000874552
-0.00469914
0.00094209
-0.00260727
0.00103732
-0.00013022
0.00114115
0.00229921
0.00123819
0.00435324
0.00131987
0.00586607
0.00138335
0.00684676
0.00142907
0.00748639
0.00145817
0.0080871
0.00147041
0.00883512
0.00146352
0.00957688
0.00143494
0.00984213
0.0013851
0.00912975
0.00132
0.00720694
0.0012515
0.00422291
0.00119353
0.000662343
0.00115539
-0.00280989
0.00113819
-0.00559152
0.00113575
-0.00738593
0.00113644
-0.00827129
0.00112742
-0.0085963
0.00110297
-0.00868672
0.00106885
-0.00860458
0.00103763
-0.00813397
0.00102172
-0.00702428
0.00102955
-0.00517199
0.00106276
-0.00269773
0.00111501
9.06497e-05
0.00285253
0.000864906
-0.00472296
0.000932496
-0.00267486
0.00102858
-0.000226303
0.00113387
0.00219392
0.00123269
0.00425442
0.00131622
0.00578254
0.0013815
0.00678148
0.00142903
0.00743886
0.00146012
0.00805601
0.00147455
0.0088207
0.0014697
0.00958173
0.00144249
0.00986934
0.00139285
0.0091794
0.00132658
0.00727321
0.00125578
0.00429371
0.00119493
0.000723194
0.00115394
-0.0027689
0.00113434
-0.00557191
0.0011302
-0.0073818
0.00113008
-0.00827117
0.001121
-0.00858721
0.00109682
-0.00866254
0.00106302
-0.00857078
0.00103219
-0.00810314
0.00101684
-0.00700893
0.00102537
-0.00518052
0.00105943
-0.00273179
0.00111271
3.73762e-05
0.00279241
0.000855251
-0.00474605
0.000922756
-0.00274236
0.00101958
-0.000323127
0.00112626
0.00208724
0.00122683
0.00415385
0.0013122
0.00569716
0.00137927
0.0067144
0.00142862
0.00738951
0.00146172
0.00802291
0.00147836
0.00880407
0.0014756
0.00958449
0.00144983
0.00989511
0.00140045
0.00922877
0.00133308
0.00734059
0.00126001
0.00436677
0.0011963
0.000786911
0.00115246
-0.00272507
0.00113044
-0.00554989
0.0011246
-0.00737596
0.00112366
-0.00827023
0.00111452
-0.00857807
0.00109064
-0.00863866
0.00105717
-0.00853732
0.00102674
-0.00807271
0.00101193
-0.00699411
0.00102112
-0.00518971
0.001056
-0.00276668
0.00111026
-1.68825e-05
0.00273118
0.000845589
-0.00476832
0.000912877
-0.00280965
0.00101033
-0.000420577
0.00111832
0.00197925
0.0012206
0.00405158
0.00130779
0.00560997
0.00137666
0.00664553
0.00142783
0.00733834
0.00146295
0.00798778
0.00148183
0.00878519
0.00148121
0.0095851
0.00145694
0.00991939
0.00140791
0.0092778
0.0013395
0.007409
0.00126421
0.00444207
0.00119764
0.000853478
0.00115096
-0.00267839
0.00112651
-0.00552545
0.00111895
-0.0073684
0.00111717
-0.00826845
0.00110799
-0.00856889
0.00108443
-0.0086151
0.00105132
-0.00850421
0.00102128
-0.00804267
0.00100698
-0.00697981
0.00101681
-0.00519954
0.00105246
-0.00280233
0.00110767
-7.20882e-05
0.00266886
0.000835925
-0.00478968
0.000902865
-0.00287659
0.00100082
-0.000518537
0.00111006
0.00187001
0.001214
0.00394763
0.001303
0.00552098
0.00137365
0.00657487
0.00142665
0.00728535
0.00146381
0.00795062
0.00148494
0.00876406
0.00148651
0.00958353
0.00146381
0.00994209
0.00141521
0.0093264
0.00134583
0.00747838
0.00126835
0.00451955
0.00119895
0.000922878
0.00114942
-0.00262885
0.00112255
-0.00549857
0.00111324
-0.00735909
0.00111062
-0.00826582
0.0011014
-0.00855967
0.0010782
-0.0085919
0.00104546
-0.00847147
0.0010158
-0.00801301
0.00100199
-0.00696601
0.00101242
-0.00520997
0.00104881
-0.00283872
0.00110493
-0.000128202
0.00260548
0.000826262
-0.00481003
0.000892728
-0.00294305
0.000991075
-0.000616884
0.00110147
0.00175962
0.00120703
0.00384207
0.00129781
0.0054302
0.00137025
0.00650243
0.00142508
0.00723052
0.00146428
0.00791142
0.00148769
0.00874065
0.0014915
0.00957972
0.00147043
0.00996316
0.00142234
0.00937449
0.00135207
0.00754865
0.00127245
0.00459916
0.00120024
0.000995092
0.00114786
-0.00257647
0.00111854
-0.00546925
0.00110749
-0.00734804
0.001104
-0.00826234
0.00109475
-0.00855042
0.00107192
-0.00856907
0.00103957
-0.00843912
0.00101029
-0.00798372
0.000996965
-0.00695269
0.00100797
-0.00522098
0.00104505
-0.0028758
0.00110203
-0.000185184
0.00254104
0.000816604
-0.0048293
0.000882472
-0.00300892
0.000981086
-0.000715498
0.00109255
0.00164816
0.0011997
0.00373492
0.00129224
0.00533765
0.00136645
0.00642821
0.00142311
0.00717386
0.00146435
0.00787018
0.00149007
0.00871493
0.00149614
0.00957365
0.00147678
0.00998252
0.00142929
0.00942198
0.0013582
0.00761974
0.0012765
0.00468086
0.0012015
0.00107009
0.00114627
-0.00252124
0.0011145
-0.00543749
0.00110168
-0.00733522
0.00109732
-0.00825798
0.00108804
-0.00854115
0.00106561
-0.00854664
0.00103368
-0.00840718
0.00100476
-0.00795481
0.000991891
-0.00693982
0.00100345
-0.00523253
0.00104118
-0.00291353
0.00109899
-0.000242996
0.00247557
0.000806953
0.000872106
-0.00307408
0.000970864
-0.000814256
0.00108332
0.0015357
0.00119199
0.00362625
0.00128627
0.00524338
0.00136225
0.00635223
0.00142073
0.00711538
0.00146402
0.00782689
0.00149205
0.0086869
0.00150044
0.00956526
0.00148286
0.0100001
0.00143604
0.0094688
0.00136421
0.00769157
0.00128048
0.00476459
0.00120272
0.00114786
0.00114465
-0.00246317
0.00111042
-0.00540326
0.00109582
-0.00732061
0.00109057
-0.00825273
0.00108126
-0.00853184
0.00105926
-0.00852464
0.00102775
-0.00837568
0.000999204
-0.00792626
0.000986768
-0.00692738
0.000998843
-0.00524461
0.00103719
-0.00295188
0.00109579
-0.000301598
0.00240909
0.000861637
-0.0031384
0.000960416
-0.000913035
0.00107376
0.00142236
0.00118391
0.0035161
0.0012799
0.00514739
0.00135763
0.0062745
0.00141794
0.00705508
0.00146328
0.00778154
0.00149364
0.00865654
0.00150438
0.00955452
0.00148864
0.0100158
0.00144259
0.00951485
0.0013701
0.00776406
0.00128441
0.00485028
0.00120391
0.00122836
0.001143
-0.00240226
0.00110631
-0.00536658
0.00108991
-0.00730421
0.00108375
-0.00824657
0.00107442
-0.00852251
0.00105286
-0.00850308
0.00102181
-0.00834463
0.000993617
-0.00789806
0.00098159
-0.00691535
0.000994161
-0.00525718
0.00103308
-0.0029908
0.00109243
-0.000360952
0.00234163
0.000851073
-0.00320179
0.000949751
-0.00101171
0.00106389
0.00130822
0.00117546
0.00340454
0.00127313
0.00504971
0.00135261
0.00619502
0.00141472
0.00699296
0.00146211
0.00773416
0.00149481
0.00862384
0.00150794
0.00954139
0.00149411
0.0100297
0.00144892
0.00956005
0.00137586
0.00783712
0.00128827
0.00493788
0.00120507
0.00131156
0.00114132
-0.00233852
0.00110217
-0.00532742
0.00108395
-0.007286
0.00107688
-0.00823949
0.00106751
-0.00851314
0.00104641
-0.00848198
0.00101584
-0.00831405
0.000987998
-0.00787023
0.000976357
-0.00690371
0.000989396
-0.00527022
0.00102886
-0.00303026
0.00108892
-0.000421017
0.00227321
0.000840422
-0.00326416
0.00093888
-0.00111017
0.00105372
0.00119338
0.00116664
0.00329162
0.00126596
0.00495039
0.00134716
0.00611382
0.00141108
0.00692904
0.00146051
0.00768473
0.00149556
0.0085888
0.00151111
0.00952584
0.00149927
0.0100415
0.00145502
0.0096043
0.00138148
0.00791065
0.00129205
0.00502731
0.00120618
0.00139743
0.00113962
-0.00227195
0.00109799
-0.00528579
0.00107795
-0.00726596
0.00106993
-0.00823148
0.00106053
-0.00850374
0.00103992
-0.00846137
0.00100983
-0.00828396
0.000982344
-0.00784274
0.000971063
-0.00689243
0.000984545
-0.0052837
0.00102452
-0.00307023
0.00108525
-0.000481755
0.00220386
0.00082969
-0.0033254
0.000927812
-0.00120829
0.00104325
0.00107794
0.00115746
0.00317741
0.0012584
0.00484945
0.0013413
0.00603092
0.00140701
0.00686333
0.00145847
0.00763327
0.00149587
0.0085514
0.00151388
0.00950783
0.00150408
0.0100513
0.00146087
0.00964751
0.00138695
0.00798457
0.00129576
0.0051185
0.00120727
0.00148592
0.00113789
-0.00220257
0.00109377
-0.00524167
0.0010719
-0.00724409
0.00106292
-0.0082225
0.00105348
-0.00849429
0.00103336
-0.00844125
0.00100379
-0.0082544
0.000976654
-0.0078156
0.000965707
-0.00688148
0.000979604
-0.0052976
0.00102006
-0.00311068
0.00108143
-0.000543131
0.0021336
0.000818884
-0.00338542
0.000916561
-0.00130597
0.00103249
0.000962016
0.00114792
0.00306198
0.00125043
0.00474694
0.00133502
0.00594633
0.00140251
0.00679584
0.00145599
0.00757979
0.00149574
0.00851166
0.00151623
0.00948734
0.00150855
0.010059
0.00146648
0.00968958
0.00139227
0.00805878
0.00129939
0.00521138
0.00120831
0.00157699
0.00113612
-0.00213038
0.00108952
-0.00519507
0.0010658
-0.00722037
0.00105585
-0.00821255
0.00104635
-0.00848479
0.00102675
-0.00842165
0.000997721
-0.00822537
0.000970925
-0.0077888
0.000960285
-0.00687084
0.000974571
-0.00531188
0.00101548
-0.00315159
0.00107746
-0.000605109
0.00206246
0.00080801
-0.00344416
0.000905137
-0.0014031
0.00102144
0.000845709
0.00113802
0.0029454
0.00124207
0.00464289
0.00132832
0.00586007
0.00139757
0.00672659
0.00145305
0.0075243
0.00149515
0.00846956
0.00151815
0.00946434
0.00151266
0.0100645
0.00147181
0.00973043
0.00139741
0.00813319
0.00130293
0.00530587
0.00120931
0.0016706
0.00113433
-0.0020554
0.00108524
-0.00514598
0.00105966
-0.00719479
0.00104871
-0.00820161
0.00103915
-0.00847523
0.00102007
-0.00840256
0.000991606
-0.00819691
0.000965156
-0.00776235
0.000954795
-0.00686048
0.000969442
-0.00532653
0.00101078
-0.00319292
0.00107332
-0.000667654
0.00199047
0.00079707
-0.00350154
0.000893554
-0.00149958
0.00101014
0.000729124
0.00112778
0.00282776
0.00123331
0.00453735
0.0013212
0.00577219
0.00139219
0.0066556
0.00144966
0.00746683
0.0014941
0.00842512
0.00151964
0.0094388
0.0015164
0.0100677
0.00147687
0.00976996
0.00140238
0.00820768
0.00130638
0.00540187
0.00121028
0.0017667
0.00113252
-0.00197764
0.00108092
-0.00509438
0.00105346
-0.00716733
0.00104151
-0.00818965
0.00103187
-0.0084656
0.00101333
-0.00838402
0.000985447
-0.00816903
0.000959346
-0.00773625
0.000949236
-0.00685037
0.000964214
-0.00534151
0.00100596
-0.00323467
0.00106904
-0.000730738
0.00191766
0.000786068
-0.00355747
0.000881823
-0.00159534
0.000998583
0.000612364
0.0011172
0.00270915
0.00122417
0.00443038
0.00131366
0.0056827
0.00138637
0.0065829
0.00144581
0.00740739
0.00149258
0.00837835
0.00152068
0.0094107
0.00151975
0.0100686
0.00148164
0.00980807
0.00140717
0.00828215
0.00130973
0.00549931
0.0012112
0.00186523
0.00113067
-0.00189711
0.00107657
-0.00504028
0.00104722
-0.00713798
0.00103424
-0.00817666
0.00102452
-0.00845588
0.00100651
-0.00836602
0.000979241
-0.00814175
0.000953491
-0.0077105
0.000943605
-0.00684049
0.000958884
-0.00535679
0.00100101
-0.0032768
0.00106461
-0.000794332
0.00184407
0.000775006
-0.00361189
0.000869956
-0.00169029
0.000986794
0.000495526
0.0011063
0.00258964
0.00121465
0.00432204
0.00130571
0.00559163
0.00138011
0.0065085
0.00144149
0.007346
0.00149059
0.00832926
0.00152126
0.00938003
0.0015227
0.0100672
0.0014861
0.00984466
0.00141176
0.0083565
0.00131299
0.00559807
0.00121208
0.00196614
0.0011288
-0.00181382
0.00107219
-0.00498367
0.00104094
-0.00710673
0.0010269
-0.00816262
0.00101708
-0.00844606
0.00099963
-0.00834856
0.000972985
-0.00811511
0.000947592
-0.00768511
0.000937902
-0.0068308
0.000953448
-0.00537233
0.000995944
-0.00331929
0.00106003
-0.000858414
0.00176972
0.000763882
-0.00366473
0.000857963
-0.00178437
0.000974793
0.000378696
0.0010951
0.00246933
0.00120476
0.00421238
0.00129735
0.00549905
0.00137341
0.00643244
0.00143671
0.0072827
0.0014881
0.00827786
0.00152136
0.00934678
0.00152523
0.0100633
0.00149025
0.00987965
0.00141614
0.0084306
0.00131615
0.00569806
0.00121292
0.00206937
0.00112689
-0.00172779
0.00106777
-0.00492455
0.00103461
-0.00707358
0.0010195
-0.00814751
0.00100957
-0.00843613
0.00099267
-0.00833167
0.000966674
-0.00808911
0.000941645
-0.00766008
0.000932127
-0.00682128
0.000947904
-0.00538811
0.000990747
-0.00336214